/*--------------------------------*- C++ -*----------------------------------*\
| =========                 |                                                 |
| \\      /  F ield         | foam-extend: Open Source CFD                    |
|  \\    /   O peration     | Version:     4.1                                |
|   \\  /    A nd           | Web:         http://www.foam-extend.org         |
|    \\/     M anipulation  |                                                 |
\*---------------------------------------------------------------------------*/
FoamFile
{
    version     2.0;
    format      ascii;
    class       surfaceScalarField;
    location    "0.8";
    object      phi;
}
// * * * * * * * * * * * * * * * * * * * * * * * * * * * * * * * * * * * * * //

dimensions      [0 3 -1 0 0 0 0];

internalField   nonuniform List<scalar> 
6703
(
0.00036756215
0.013043886
-0.013411448
-0.0020930059
0.024379697
-0.021919129
-0.0056320361
0.030655976
-0.027116945
-0.0097321427
0.036563715
-0.032463609
-0.014438634
0.043335658
-0.038629167
-0.01980705
0.051254396
-0.04588598
-0.025895592
0.060505022
-0.054416479
-0.032767315
0.071293216
-0.064421493
-0.040497469
0.083848059
-0.076117904
-0.049180464
0.09843091
-0.089747916
-0.058936835
0.11534335
-0.10558698
-0.069917957
0.13493783
-0.12395671
-0.082307796
0.15763953
-0.14524969
-0.0963245
0.18397379
-0.16995708
-0.11232049
0.21464186
-0.19864587
0.25061608
-0.23259957
-0.13033699
-0.0002930407
0.013336927
-0.0018894079
0.025976064
-0.0043404515
0.033107019
-0.0072919457
0.03951521
-0.010802914
0.046846626
-0.014977898
0.05542938
-0.019934192
0.065461316
-0.025799376
0.077158399
-0.03271814
0.090766823
-0.040857227
0.10657
-0.050415173
0.12490129
-0.061637675
0.14616033
-0.074834707
0.17083656
-0.09039876
0.19953784
-0.10871271
0.23295581
0.27196181
-0.13005844
0.00042788709
0.01290904
0.00012200043
0.026281951
-0.0010986282
0.034327648
-0.0028405507
0.041257132
-0.0049951044
0.04900118
-0.0076081268
0.058042402
-0.010772349
0.068625538
-0.014584472
0.080970523
-0.019170992
0.095353343
-0.024693324
0.11209233
-0.031343851
0.13155182
-0.039349961
0.15416644
-0.048982705
0.18046931
-0.060574125
0.21112926
-0.0745437
0.24692538
0.28862878
-0.09121067
0.0012729778
0.011636062
0.0023494231
0.025205505
0.0025670377
0.034110033
0.0021863566
0.041637813
0.0014943349
0.049693202
0.00056149409
0.058975243
-0.00064465606
0.069831688
-0.0022108179
0.082536685
-0.0042649581
0.097407483
-0.0069496512
0.11477702
-0.010429789
0.13503196
-0.014900118
0.15863677
-0.02058378
0.18615297
-0.027725523
0.218271
-0.036584554
0.25578441
0.29925183
-0.047207603
0.0025083669
0.0091276951
0.0057314917
0.021982381
0.0081540678
0.031687457
0.0097308809
0.040061
0.010819062
0.048605021
0.011656937
0.058137367
0.012341203
0.069147422
0.01287599
0.082001898
0.013218312
0.097065161
0.013273651
0.11472168
0.012905542
0.13540007
0.011945576
0.15959673
0.010199741
0.1878988
0.0074536193
0.22101712
0.0034492561
0.25978877
0.30502285
-0.0023217644
0.0048483714
0.0042793237
0.010648356
0.016182396
0.016066537
0.026269276
0.020561201
0.035566336
0.024251205
0.044915017
0.027398175
0.054990397
0.030232872
0.066312725
0.032907535
0.079327235
0.03550117
0.094471526
0.03802035
0.1122025
0.0404083
0.13301212
0.04255854
0.15744649
0.044329212
0.18612813
0.045559586
0.21978675
0.046089473
0.25925889
0.30533238
0.045779947
0.0055094677
-0.001230144
0.015167634
0.0065242301
0.024198042
0.017238868
0.03260387
0.027160507
0.040205367
0.037313519
0.046982191
0.048213573
0.053035313
0.060259604
0.058532195
0.073830353
0.063652851
0.08935087
0.068554134
0.10730122
0.07334331
0.12822294
0.078068162
0.15272164
0.082724979
0.18147131
0.087283266
0.21522846
0.091706028
0.25483612
0.30117166
0.095866741
0.0016518122
-0.0028819562
0.010693629
-0.0025175862
0.025414556
0.0025179405
0.039565484
0.01300958
0.052191456
0.024687548
0.063901168
0.036503861
0.074718377
0.049442394
0.084625738
0.063922992
0.093673274
0.080303334
0.10199556
0.098978929
0.10977044
0.12044807
0.11719574
0.14529634
0.12446916
0.17419789
0.13178841
0.20790922
0.13935962
0.24726491
0.29312995
0.14740134
-0.00097784481
-0.0019041114
0.0009449776
-0.0044404086
0.0093948123
-0.0059318942
0.024894655
-0.0024902628
0.045273953
0.0043082494
0.064738185
0.017039629
0.082319072
0.031861507
0.09880303
0.047439035
0.11424544
0.064860923
0.12854945
0.084674918
0.14167313
0.1073244
0.15370432
0.13326514
0.16487472
0.16302749
0.17559662
0.19718732
0.18646843
0.2363931
0.28142259
0.19817578
-0.0011862059
-0.00071790548
-0.0022688353
-0.0033577792
-0.002244905
-0.0059558244
0.0030975219
-0.0078326896
0.015546058
-0.0081402867
0.035620348
-0.0030346608
0.061725851
0.0057560042
0.088635207
0.020529679
0.11367738
0.039818751
0.13699828
0.06135402
0.15846279
0.085859878
0.17784407
0.11388386
0.19515829
0.14571328
0.21099116
0.18135445
0.22649956
0.2208847
0.26457679
0.24334537
0.00028438373
-0.0010022892
0.0011564528
-0.0042298482
0.002205717
-0.0070050885
0.0034106981
-0.0090376707
0.0056668622
-0.010396451
0.013712455
-0.011080254
0.029888287
-0.010419827
0.054845479
-0.0044275139
0.087437009
0.0072272218
0.12058269
0.028208337
0.15117451
0.055268064
0.17888449
0.086173876
0.20306294
0.12153484
0.22489574
0.15952165
0.2458879
0.19989253
0.24228762
0.26817706
0.0022084695
-0.0032107587
0.0058353531
-0.0078567317
0.0093274755
-0.010497211
0.01253148
-0.012241675
0.01567721
-0.013542181
0.019062577
-0.01446562
0.023430529
-0.01478778
0.033040466
-0.01403745
0.051649088
-0.0113814
0.083835681
-0.003978257
0.12072647
0.018377273
0.14233011
0.064570235
0.16226044
0.10160451
0.18111568
0.14066641
0.19901644
0.18199177
0.22425885
0.21704522
-0.0016152277
-0.011797767
0.013412995
-0.0038550826
-0.020014732
0.022254587
-0.0066867424
-0.024701617
0.027533276
-0.010223942
-0.029420838
0.032958038
-0.014486207
-0.034896304
0.039158568
-0.019586045
-0.041312184
0.046412022
-0.025659379
-0.048813618
0.054886952
-0.032858884
-0.057557079
0.064756584
-0.041336508
-0.067716095
0.076193718
-0.051234467
-0.079483954
0.089381913
-0.062683096
-0.093077767
0.1045264
-0.075798358
-0.10874629
0.12186155
-0.090689375
-0.12678438
0.1416754
-0.10749101
-0.14757861
0.16438024
-0.12667903
-0.17150559
0.19069361
-0.19906229
0.22167427
-0.14929101
-0.0016816982
-0.010116069
-0.0048689384
-0.016827492
-0.0088959901
-0.020674565
-0.013728009
-0.024588818
-0.019487936
-0.029136378
-0.026334322
-0.034465798
-0.034452331
-0.04069561
-0.044054608
-0.047954801
-0.055384574
-0.056386128
-0.06872031
-0.066148218
-0.084378702
-0.077419375
-0.10272084
-0.090404151
-0.12416203
-0.10534319
-0.1491863
-0.12255434
-0.178302
-0.14238989
-0.16540415
-0.21196014
-0.0021149636
-0.0080011051
-0.0057599781
-0.013182478
-0.010281953
-0.01615259
-0.015683212
-0.01918756
-0.02210471
-0.02271488
-0.029723664
-0.026846843
-0.038745136
-0.031674137
-0.049404221
-0.037295717
-0.061969142
-0.043821207
-0.07674502
-0.05137234
-0.094078914
-0.060085481
-0.11436711
-0.070115951
-0.13806555
-0.081644745
-0.16571659
-0.094903309
-0.19795633
-0.11015016
-0.12757691
-0.23578356
-0.0024099736
-0.0055911315
-0.0063453531
-0.0092470981
-0.011198177
-0.011299766
-0.017002392
-0.013383344
-0.023911643
-0.015805629
-0.032114764
-0.018643722
-0.041829721
-0.02195918
-0.053305386
-0.025820052
-0.066823905
-0.030302688
-0.082703271
-0.035492974
-0.10130053
-0.041488224
-0.12301736
-0.048399116
-0.14831078
-0.05635133
-0.17769746
-0.065516629
-0.21173544
-0.076112178
-0.08866232
-0.25065003
-0.002723329
-0.0028678025
-0.0069126015
-0.0050578256
-0.012034733
-0.0061776346
-0.018150081
-0.0072679961
-0.025420956
-0.0085347543
-0.034046947
-0.010017731
-0.044260191
-0.011745936
-0.056327346
-0.013752898
-0.07055278
-0.016077254
-0.087282858
-0.018762895
-0.1069118
-0.021859281
-0.12988767
-0.025423246
-0.15671682
-0.029522177
-0.18799144
-0.034242017
-0.22456011
-0.039543505
-0.045047374
-0.26817505
0.00059857331
0.012534663
-0.013133237
0.00053876046
0.026132098
-0.026072285
-0.00041165893
0.034252272
-0.033301852
-0.0018323018
0.041184277
-0.039763634
-0.0036002827
0.048908623
-0.047140642
-0.0057508806
0.057928113
-0.055777515
-0.0083635411
0.068494775
-0.065882115
-0.011537807
0.080852419
-0.077678153
-0.015388225
0.095267703
-0.091417285
-0.02004813
0.11204783
-0.10738793
-0.025697279
0.13157774
-0.12592859
-0.032556865
0.15430766
-0.14744807
-0.040908581
0.18081824
-0.17246652
-0.051114554
0.21190141
-0.20169544
-0.063571876
0.2486595
-0.23620218
0.29245769
-0.27723654
-0.078793024
-0.0027012755
-0.00016652697
-0.0074228167
-0.00033628447
-0.013131171
-0.00046927987
-0.019787964
-0.00061120412
-0.027555276
-0.00076744217
-0.036630524
-0.00094248254
-0.047236814
-0.0011396457
-0.059628427
-0.0013612856
-0.074096411
-0.0016092702
-0.090973871
-0.0018854349
-0.11064104
-0.0021921161
-0.13353148
-0.0025328011
-0.16014074
-0.0029129213
-0.19104192
-0.0033408371
-0.22669891
-0.0038865119
-0.0045087936
-0.26723749
-0.0026213653
0.0024548383
-0.0073079363
0.0043502865
-0.013032919
0.005255703
-0.019759046
0.0061149229
-0.027648366
0.0071218776
-0.036899337
0.0083084887
-0.047735643
0.0096966605
-0.060409391
0.011312462
-0.075204342
0.01318568
-0.092438833
0.015349057
-0.11246878
0.017837829
-0.13569167
0.020690089
-0.16255375
0.023949157
-0.19351667
0.027622085
-0.22905834
0.031655157
0.035823678
-0.26939081
-0.0027941236
0.0052489619
-0.0071040159
0.0086601788
-0.012378085
0.010529772
-0.01868274
0.012419578
-0.02618022
0.014619357
-0.035067856
0.017196125
-0.045573108
0.020201912
-0.057954361
0.023693715
-0.07250305
0.027734369
-0.089546723
0.032392729
-0.10945312
0.037744224
-0.13263465
0.043871621
-0.15955182
0.050866325
-0.19074567
0.058815941
-0.22696542
0.067874907
0.078348104
-0.26948985
-0.0024675088
0.0077164707
-0.0064723128
0.012664983
-0.011410079
0.015467539
-0.017316175
0.018325673
-0.024342698
0.021645881
-0.032675412
0.025528839
-0.042527315
0.030053815
-0.054139707
0.035306107
-0.067784064
0.041378726
-0.083764699
0.048373364
-0.10242306
0.056402584
-0.12414605
0.065594614
-0.14938348
0.076103753
-0.17868962
0.088122083
-0.21266507
0.10185035
0.11731961
-0.25163658
-0.0021715279
0.0098879986
-0.0058684006
0.016361856
-0.010448409
0.020047547
-0.01591917
0.023796434
-0.022421276
0.028147987
-0.030130685
0.033238248
-0.039250637
0.039173767
-0.050013803
0.046069273
-0.062685799
0.054050722
-0.077570259
0.063257824
-0.095017072
0.073849397
-0.11543567
0.086013215
-0.13931119
0.099979266
-0.16719732
0.11600822
-0.19994433
0.13459736
0.15670156
-0.23932627
-0.001792009
0.011680008
-0.0050794512
0.019649298
-0.0092124761
0.024180572
-0.014173965
0.028757923
-0.020088657
0.034062679
-0.027115824
0.040265416
-0.035441177
0.04749912
-0.045278898
0.055906994
-0.056877404
0.065649228
-0.070527092
0.076907513
-0.086570331
0.089892636
-0.10541503
0.10485791
-0.12755746
0.1221217
-0.15359595
0.14204671
-0.18409042
0.16509183
0.19164774
-0.2190366
-0.0018981702
0.013578178
-0.004335669
0.022086796
-0.0073657165
0.02721062
-0.011107347
0.032499553
-0.015591176
0.038546508
-0.020931735
0.045605975
-0.027263153
0.053830538
-0.034737761
0.063381601
-0.04351328
0.074424747
-0.053747387
0.08714162
-0.065594048
0.1017393
-0.079198116
0.11846198
-0.094691541
0.13761512
-0.11224013
0.1595953
-0.13198389
0.18483559
0.21432285
-0.154659
-0.0022235908
0.00050626518
0.0017173256
-0.0055324635
0.0019674906
0.0013413821
-0.010357241
0.0040435154
0.0007812622
-0.013369625
0.0066951827
-0.0036827991
-0.015222486
0.0099360515
-0.0080831897
-0.016335231
0.013314479
-0.012201734
-0.017267312
0.016974312
-0.01604223
-0.01212263
0.014326229
-0.019470911
0.0012869532
0.0090587139
-0.022468297
0.027367974
-0.0013829999
-0.024698021
0.070133368
-0.018364516
-0.024400878
0.12930922
-0.041876665
-0.01729919
0.17899731
-0.071689318
0.022001232
0.22390671
-0.10685195
0.061942552
0.26536112
-0.1473845
0.1059301
-0.19435886
0.15718176
0.30253821
-0.0028053049
0.0033115701
-0.0067521477
0.0059143335
-0.01055717
0.0078485374
-0.014042775
0.010180788
-0.016854738
0.012748015
-0.013726034
0.010185775
-0.0021590006
0.0054072779
0.020413914
-0.0082466859
0.053907865
-0.024435237
0.095947066
-0.0434222
0.14180094
-0.064218387
0.18814596
-0.088221686
0.23285007
-0.11639343
0.27574639
-0.14974827
0.31752683
-0.18916495
-0.23589115
0.35905912
-0.00084563779
0.0041572079
-0.0027612994
0.0078299951
-0.0046828748
0.0097701128
-0.001738871
0.007236784
0.008779481
0.0022296628
0.027338919
-0.0083736634
0.054388481
-0.021642284
0.082908539
-0.036766744
0.11191146
-0.053438159
0.14064258
-0.072153314
0.16970667
-0.093282485
0.19884132
-0.11735633
0.22765453
-0.14520664
0.25584878
-0.17794252
0.2835909
-0.21690707
-0.2637161
0.31141585
-0.0008800911
0.005037299
0.00054347618
0.0064064278
0.0082158505
0.0020977385
0.022257645
-0.0068050106
0.04263155
-0.018144242
0.064275649
-0.030017762
0.085491828
-0.042858463
0.10580838
-0.057083299
0.12533118
-0.072960957
0.14404567
-0.090867802
0.16206882
-0.11130563
0.17964696
-0.13493447
0.19704539
-0.16260508
0.21450214
-0.19539926
0.23225097
-0.2346559
-0.28187429
0.25040916
0.0012902103
0.0037470887
0.010331902
-0.0026352634
0.025588814
-0.013159174
0.042098636
-0.023314832
0.057548657
-0.033594264
0.072006004
-0.044475109
0.085455447
-0.056307905
0.097858187
-0.069486039
0.10934485
-0.084447618
0.1201729
-0.10169585
0.13067946
-0.12181219
0.1412151
-0.14547012
0.15207431
-0.17346428
0.16343993
-0.20676489
0.17536919
-0.24658516
-0.29427152
0.18776641
0.0058482902
-0.0021012015
0.017219131
-0.014006104
0.028289652
-0.024229695
0.038559161
-0.033584341
0.047843299
-0.042878402
0.056124398
-0.052756208
0.063577623
-0.063761131
0.070462791
-0.076371207
0.077059941
-0.091044768
0.083623142
-0.10825905
0.090349781
-0.12853883
0.097350519
-0.15247085
0.10464381
-0.18075757
0.11216869
-0.21428977
0.11979364
-0.25421011
-0.30174716
0.12726928
0.0058383153
-0.0079395168
0.012720282
-0.020888071
0.019202201
-0.030711615
0.024684904
-0.039067044
0.029296076
-0.047489574
0.033363788
-0.056823919
0.037190113
-0.067587456
0.040990763
-0.080171856
0.044886236
-0.094940241
0.048911447
-0.11228426
0.053035325
-0.13266271
0.05716475
-0.15660028
0.061159125
-0.18475195
0.064845366
-0.21797601
0.068030032
-0.25739477
-0.30432483
0.070607705
0.0030270259
-0.010966543
0.0067878969
-0.024648942
0.0097357415
-0.033659459
0.011840268
-0.04117157
0.013501126
-0.049150433
0.015007076
-0.058329869
0.016491538
-0.069071918
0.017984463
-0.081664782
0.019452763
-0.096408541
0.020821233
-0.11365273
0.021973953
-0.13381543
0.022743546
-0.15736987
0.022928019
-0.18493642
0.022295286
-0.21734328
0.02057737
-0.25567686
-0.30112366
0.017376195
0.0015681206
0.0030512771
0.0036440892
0.0036567965
0.0034149865
0.0030132298
0.0024360877
0.0016237252
0.00048288717
-0.0011220143
-0.0033597068
-0.0064219234
-0.01054011
-0.015981977
-0.022999327
-0.031665296
-0.00019494643
-0.01293829
-0.0017156496
-0.024551582
-0.0040796303
-0.030937872
-0.0069088988
-0.036934366
-0.0102454
-0.043804141
-0.014175347
-0.051847567
-0.018796969
-0.061260494
-0.024218873
-0.072256249
-0.030564181
-0.085071977
-0.037978379
-0.09997373
-0.0466438
-0.11726317
-0.056802649
-0.13728922
-0.068789035
-0.16048013
-0.083042099
-0.18744237
-0.10011325
-0.21913103
-0.25691452
-0.12043527
0.00030624812
-0.013244538
-0.0021586791
-0.022086655
-0.0056528544
-0.027443696
-0.009661748
-0.032925472
-0.014221782
-0.039244107
-0.019378346
-0.046691003
-0.025177423
-0.055461416
-0.031668874
-0.065764798
-0.038919164
-0.077821687
-0.047019893
-0.091873001
-0.056093933
-0.10818913
-0.066303768
-0.12707939
-0.077863176
-0.14892073
-0.091084127
-0.17422142
-0.10631343
-0.20390173
-0.23947511
-0.12375284
0.0015924159
-0.0048645739
0.003272158
0.0033168085
-0.0097157171
0.0079913245
0.0050087516
-0.012344607
0.010652664
0.0066904295
-0.014116549
0.012434871
0.0085309672
-0.015635442
0.013794904
0.010690065
-0.016969194
0.014810097
0.013279019
-0.017876289
0.015287335
0.016402749
-0.017938315
0.014814584
0.020167954
-0.016449853
0.012684649
0.024764871
-0.012371651
0.0077747335
0.037369541
-0.0055554975
-0.007049172
0.063175225
0.025245094
-0.051050777
0.089594337
0.061324686
-0.087743798
0.11442252
0.10031791
-0.12514609
0.13918205
0.13891363
-0.16367316
0.17545652
-0.20313524
0.16686076
0.0013878316
-0.0062524054
0.0021871461
-0.010515032
0.0022540725
-0.012411533
0.0019503039
-0.01381278
0.0013545731
-0.015039711
0.0004162613
-0.016030882
-0.00092367617
-0.016536351
-0.0027177369
-0.016144254
-0.0050614653
-0.014106125
-0.0083628921
-0.0090702241
-0.014566687
0.00064829807
-0.0060187892
0.016697196
0.013889522
0.041416374
0.041625651
0.07258178
0.074715535
0.10582374
0.1378757
0.11229636
-0.00067574144
-0.005576664
-0.0029220874
-0.0082686856
-0.0064574421
-0.0088761787
-0.011025606
-0.0092446163
-0.016564311
-0.009501006
-0.02311323
-0.0094819627
-0.030714129
-0.008935452
-0.039313244
-0.0075451392
-0.048582571
-0.0048367968
-0.057541526
-0.00011126973
-0.06442735
0.0075341226
-0.067229569
0.019499415
-0.063082722
0.037269528
-0.051324281
0.06082334
-0.033547534
0.088046997
0.11549957
-0.011171404
-0.0032388301
-0.0023378338
-0.0084318462
-0.0030756694
-0.014455044
-0.0028529807
-0.02127699
-0.0024226699
-0.028989075
-0.001788921
-0.037646199
-0.00082483859
-0.047243811
0.00066215967
-0.057729045
0.0029400955
-0.068931005
0.0063651635
-0.080478091
0.011435816
-0.091946732
0.019002764
-0.10234437
0.029897055
-0.10998778
0.044912941
-0.11357637
0.064411922
-0.11336187
0.087832505
0.11347926
-0.11134156
-0.0032453426
0.0009075089
-0.0082565572
0.0019355452
-0.013960314
0.002850776
-0.020366676
0.0039836924
-0.027614737
0.0054591402
-0.035845363
0.0074057872
-0.045175287
0.0099920836
-0.055686303
0.013451112
-0.067424473
0.018103334
-0.080368919
0.024380263
-0.094218115
0.03285196
-0.10848743
0.044166369
-0.12252316
0.058948673
-0.13592949
0.077818255
-0.14847827
0.10038128
0.12651469
-0.16151369
-0.0019160355
0.0028235445
-0.005277486
0.0052969959
-0.0094971305
0.0070704206
-0.014495058
0.0089816204
-0.020334888
0.01129897
-0.027110746
0.014181646
-0.03491727
0.017798608
-0.043831324
0.022365165
-0.053893817
0.028165827
-0.065076851
0.035563298
-0.077225984
0.045001093
-0.090041241
0.056981626
-0.10308018
0.071987615
-0.11581832
0.090556398
-0.12786308
0.11242603
0.13650798
-0.13785636
-0.00072439412
0.0035479386
-0.0026041245
0.0071767264
-0.0052804751
0.0097467712
-0.0085518193
0.012252965
-0.012397593
0.015144744
-0.016873895
0.018657948
-0.022037949
0.022962662
-0.027930314
0.02825753
-0.03455161
0.034787123
-0.041835159
0.042846847
-0.049606556
0.05277249
-0.057533307
0.064908378
-0.065083183
0.07953749
-0.07129175
0.096764965
-0.075369167
0.11650345
0.1358358
-0.074696995
0.00035333616
0.0031946025
8.9743666e-05
0.007440319
-0.00082527125
0.010661786
-0.0021829318
0.013610625
-0.0038681334
0.016829945
-0.0058419307
0.020631745
-0.0080934472
0.025214179
-0.010598184
0.030762267
-0.013289726
0.037478665
-0.016027944
0.045585066
-0.018559516
0.055304061
-0.020462664
0.066811526
-0.021083421
0.080158247
-0.019432738
0.095114282
-0.013621378
0.11069209
0.12069914
0.00151529
0.0014681384
0.0017264641
0.0029772162
0.0059312413
0.0039922137
0.0096467888
0.0045598494
0.01304299
0.0048764105
0.016513385
0.0051310485
0.020377107
0.0054729993
0.024872228
0.0060441335
0.030191133
0.0070251415
0.036497657
0.0086873418
0.043922865
0.011456577
0.052534826
0.015999232
0.062268871
0.023360253
0.072797227
0.035278304
0.083196231
0.05526171
0.090708681
0.085410582
0.090550264
0.0025270132
-0.00080054908
0.0057179137
0.0027403409
0.0087061207
0.0066585818
0.011294438
0.010454672
0.013520385
0.014287438
0.015596992
0.018300501
0.017808687
0.022660533
0.020478855
0.027520965
0.023988223
0.03298829
0.028824135
0.039086954
0.035660527
0.045698434
0.045474236
0.052455163
0.059708029
0.058563434
0.080421558
0.062482701
0.11391283
0.057217408
0.031207995
0.16811542
0.0014997561
-0.0023003052
0.0053729096
-0.0011328125
0.0095616155
0.0024698759
0.013426069
0.0065902192
0.016807621
0.010905885
0.019905645
0.015202478
0.023073673
0.019492505
0.026746416
0.023848222
0.031453935
0.028280771
0.037861671
0.032679217
0.046862197
0.036697909
0.059810846
0.039506514
0.08108073
0.037293549
0.11961681
0.023946622
0.18151832
-0.0046841029
-0.051599384
0.2643257
-0.00058358318
-0.001716722
-0.00034406176
-0.0013723339
0.0027692197
-0.0006434055
0.0054851405
0.0038742985
0.008008261
0.0083827645
0.010606523
0.012604216
0.013536305
0.016562723
0.017151967
0.02023256
0.02186542
0.023567318
0.028172467
0.02637217
0.036408957
0.028461418
0.047236763
0.028678708
0.084021387
0.00050892581
0.14081328
-0.032845269
0.20753236
-0.07140319
-0.11735251
0.27328549
0.00033439697
-0.00016672944
0.00042807143
0.00046401591
0.00038135649
0.00010135101
-0.00048459024
-0.0015244817
-0.0032176394
-0.0058239352
-0.0096716142
-0.015166341
-0.022800908
-0.033162696
-0.046972981
-0.065249705
0.00033638855
-0.00016845636
0.00042596862
0.00045853406
0.00037299523
9.4014123e-05
-0.00048044981
-0.0014886638
-0.0031166325
-0.0056077207
-0.0092704511
-0.01448829
-0.021733614
-0.031574789
-0.044782911
-0.062583749
-3.0348144e-05
-6.0362989e-07
0.00010750859
0.00029900802
0.00059858277
0.0010010645
0.0015215572
0.0022832066
0.0033822271
0.0050563763
0.009116917
0.020496435
0.043006593
0.072103875
0.10663078
0.14646003
0.0001959921
-6.1399283e-05
0.00035144523
0.00054464107
0.0007973641
0.0011418407
0.0016413958
0.0024185302
0.0037217792
0.0075182558
0.018846357
0.032365815
0.046226523
0.061746846
0.080065451
0.10118907
0.23080162
-0.67817404
0.44737242
1.3344575
-1.3800941
0.045636594
0.17027792
-0.478142
0.30786408
1.3344575
-0.36064684
0.16153089
0.19911595
-1.4257818
0.78276594
0.64301583
-0.18923687
0.6661068
-0.47686993
1.1656137
0.43987435
-1.605488
1.2125098
0.30090644
-1.5134162
0.18480043
-0.25005013
-0.28739489
0.22481114
0.59571812
1.0886612
-1.6843793
-0.54147215
-0.57576239
1.1172345
-1.1951988
0.47867164
0.71652713
-0.24236618
0.59652831
-0.35416213
0.69050982
-0.10302685
-0.58748297
1.1325858
-1.1477933
0.01520749
0.061359298
0.28060699
-0.34196629
0.18902769
-0.25532131
0.066293626
0.95688485
-0.32042522
-0.63645963
-0.26643461
-0.094212222
-1.1527215
0.61124936
-1.4220348
1.4086185
0.013416247
0.10745961
1.2793194
-1.386779
0.014790987
-0.85378986
0.83899887
0.87313024
0.16835747
-1.0414877
-0.64077412
-0.99370215
1.6344763
0.95280302
-0.29719306
-0.65560997
0.2329748
1.0252153
-1.2581902
-0.36239009
0.83404226
-0.47165217
1.1800954
-0.30696519
0.29851674
-0.22136173
-0.07715501
-0.018448539
1.3033533
-1.2849048
1.0281841
-0.03385381
-0.9943303
0.16445738
-0.92225885
0.75780147
1.3911982
-1.1736151
-0.21758303
1.0999369
-1.1504064
0.050469536
-0.71476001
0.87921739
0.84833895
-0.51513588
-0.33320307
-1.2990785
0.24126135
1.0578171
0.35851613
-0.16603814
-0.19247799
1.1865251
-0.55935093
-0.62717416
1.1656137
-0.3923421
0.86553357
-0.47319147
1.2125098
-0.13440454
0.55511386
-0.42070932
-0.3086572
1.0917421
-0.78308487
-1.4705091
0.6299525
0.84055664
-1.1656137
1.7515571
-0.58594337
-1.2125098
1.7672206
-0.55471084
0.51929578
-0.12989775
-0.38939803
-0.57673435
0.24864696
0.32808739
0.20919462
-0.39423666
0.18504204
0.1309685
0.18935994
-0.32032844
-0.52657744
0.87015845
-0.34358101
0.16825155
0.84065385
-1.0089054
0.13768491
-0.28042757
0.14274266
-0.82121055
0.52688219
0.29432836
-1.5779652
0.17085137
1.4071138
1.3986348
-0.46644015
-0.93219466
1.3190665
0.079568359
0.83457434
0.61246888
-1.4470432
0.78337554
0.65064329
-1.4340188
-0.34463218
0.76306997
-0.41843779
-0.00092173432
-0.62220444
0.62312618
-0.99171883
1.0425037
-0.050784896
0.68949943
-0.97068229
0.28118286
0.68924656
0.33404571
-1.0232923
-0.17253062
0.94791474
-0.77538412
-1.4963231
1.1876659
-0.54754339
1.0222814
-0.47473801
0.36914319
0.32136664
-0.37615259
0.30141275
0.07473984
0.79788717
1.0158828
-1.8137699
1.396413
-1.2912455
-0.10516753
0.077965214
-0.54579667
0.92406317
-0.3782665
1.0279805
-0.38597122
-0.64200923
1.5892706
-1.4233603
-0.1659103
1.1601184
-1.037535
-0.1225834
0.42084421
-0.52948986
0.10864565
-0.35213491
0.12042417
0.23171074
0.17317742
-0.53556752
-1.9432728
1.3802002
0.56307261
0.38093679
0.75164906
0.40316379
-1.4112787
1.0081149
-0.69021974
1.1424115
-0.45219172
-0.19495283
-0.95219807
1.1471509
0.48379876
-0.27003728
-0.21376147
0.079354843
1.3170582
0.95138207
-0.07365443
-0.87772764
-1.0905587
0.5160638
0.57449492
0.089674933
0.5390779
-0.62875283
0.45988256
0.38845639
0.65693996
0.36760843
-1.0245484
0.68861198
-0.27803259
-0.41057939
-0.65788991
-0.807845
0.45451876
-0.28424085
-0.026461895
-0.36153897
0.38800087
-0.4332769
0.84433138
-0.41105448
-0.49519917
1.2930863
-0.90621323
1.1998684
-0.29365518
-0.82039435
-0.27016436
-0.050507561
1.1504444
1.303248
-1.2116729
-0.091575122
-0.75653194
-0.43866683
-1.7131358
1.1438589
0.56927684
-1.9190306
1.3901168
0.5289138
0.8589889
-0.37607937
-0.48290953
0.15786783
-0.55020992
0.25302691
-0.77960434
0.0071760076
0.62947988
-0.63665588
0.45689861
-0.62942923
0.22314479
0.13537134
0.24928051
0.70760434
1.0627681
0.52650246
0.57502447
-0.56784847
0.35703477
0.84518014
-1.2022149
1.6593236
-0.97265502
-0.68666859
-0.3431637
0.72260496
-0.37944126
-0.0099183584
0.21911298
0.29938727
-0.16841876
-0.066050677
0.15808296
-0.092032279
1.7049993
-1.7234479
0.14314049
0.066185163
-0.20932565
0.17774136
-0.33925505
-1.1514809
1.215864
-0.064383137
-0.33581418
0.22767759
0.10813658
0.78846954
-0.7114076
-0.077061939
-0.84007908
0.76632823
0.073750855
0.27954019
-0.14185528
-0.41951933
0.54478292
-0.12526359
-0.82620206
1.3806738
-0.55447171
0.32742603
0.85909906
1.0898634
-0.400364
0.49952632
0.35946257
-0.52977307
0.39536852
0.9953982
-1.190351
-0.48079741
0.45433552
0.89612607
0.40712195
0.79388408
-1.6225507
0.82866661
0.48498492
0.36138167
-0.19985078
-0.61827245
0.84907407
1.2564126
-1.2564126
-0.35084361
-0.16123477
1.1126168
0.16759896
-0.71339563
-0.068937643
1.0355686
-0.96663092
-0.61172588
1.4463002
-0.63834101
1.4217165
1.323775
-0.76987026
-0.55390479
0.48043707
0.44381511
-0.78697881
0.98657034
-1.2399357
0.25336534
0.89058274
-0.87579175
0.16716087
-0.095774741
-1.028537
1.1243117
1.5477884
0.26942927
-1.8172176
-0.62097659
0.97801136
-0.5706332
0.71803454
-0.56880389
0.7565703
-0.059710531
0.71665049
0.02847687
0.53995763
-0.5684345
-0.86014095
-0.051720064
0.91186101
0.50096481
-1.3271669
-1.4507006
1.381763
0.91895064
0.39390491
-1.3128555
-0.083873972
-0.58310309
0.66697706
-0.60902993
1.204748
-1.044207
0.37148289
0.67272414
0.56918398
-0.47950904
0.12229098
-0.68321953
0.56092856
0.92893552
-1.1287808
0.19984528
0.90085183
0.42292322
-1.514996
0.80023596
0.064844684
1.0952737
1.0502937
0.79405066
-1.4348248
-0.07652658
0.49737079
-1.0553053
0.82977084
0.22553446
-1.1337081
1.0498341
0.62973277
0.74743854
-1.3771713
0.87416136
0.14812004
-0.63622159
0.75851257
-0.31632557
-0.73897972
-0.17535366
-0.33055757
0.50591123
0.35920481
-0.77168121
0.4124764
-0.050024075
0.61806619
-0.56804211
-1.0728276
0.2159674
0.8568602
0.17605941
1.2432501
-1.4193095
-0.98698716
-0.58642128
1.5734084
0.22009516
0.73270787
-0.12331668
-0.05893068
0.18224736
-0.97929792
-0.16849542
1.1989926
-1.0915329
1.1257357
-0.19680018
-0.58664431
-0.20972639
0.79637071
-0.67956954
-0.30466049
0.98423003
-0.12438392
0.47124699
-0.34686307
-0.059430703
0.88920154
-0.5366426
-0.47213705
1.0087796
0.53822816
0.053753641
-0.5919818
-0.78711147
0.7279009
0.05921057
-0.99787497
0.55021724
0.44765773
-0.88768777
0.5713622
0.57600387
-1.1517663
1.5477884
0.19047215
0.37933983
-0.56981198
1.4526249
-1.1116701
-0.34095485
-1.1492222
1.2224687
-0.53322213
-0.88009943
-0.27138145
0.032885372
-0.83593644
0.80305107
-1.1073202
1.2833797
0.65166004
-1.1762998
0.52463974
0.58465399
0.78247521
-1.3671292
-0.67662506
0.5281558
-0.70350947
0.015465427
-0.43498475
-1.1944246
-0.51871118
1.0482368
-0.10032204
1.0877917
-0.91252141
-0.17527029
0.90264022
0.75529742
-1.6579376
0.17535747
-0.69049334
-0.050092353
0.019502187
0.030590167
-0.40012807
0.59060022
-0.54190499
1.4445452
-1.4032866
1.4254658
-0.022179186
0.30745976
0.23732316
-0.033979459
-0.08933722
0.36852903
-0.38075343
0.012224404
0.2735371
-1.4313313
1.1577942
-0.47552877
-0.012042293
0.48757106
-0.16407135
-0.68256551
0.84663685
0.47207328
0.40208808
0.274901
1.1069202
-1.3818212
-0.61658814
0.28603057
1.1047138
0.22249114
-1.3272049
0.027973468
1.2152766
0.59437872
0.5857167
1.055022
-0.15533568
-0.89968631
-0.23606083
-0.14009176
-1.1654338
0.3643939
0.80103987
0.13036927
-0.59428753
0.46391827
-0.80880683
0.81652053
-0.0077136998
-0.15939295
1.1875771
1.1623788
-1.7332383
0.57085947
0.70569792
0.1890251
-0.89472303
-0.44759805
-0.031509582
0.47910763
-0.13448821
-0.34947453
0.48396274
0.43072995
0.11420556
1.3384194
-0.419247
1.070907
0.31651948
-0.12749179
0.71208362
0.31248217
-1.0245658
0.47377826
-0.44530139
-0.93924432
0.40260172
1.6005368
-0.14973611
1.3604562
-1.2107201
0.12308575
-1.2967009
-1.3941425
0.6951741
0.69896837
1.4875351
-0.40395153
-0.83598415
-1.0969575
-0.20212095
-0.82238538
1.1564311
-0.71667835
-0.70910341
1.2526944
-1.0197196
-1.0270321
1.0123386
0.014693523
-0.87123183
0.88643932
-0.39662367
-0.3904878
0.097346112
0.99044558
-0.02939575
-0.81068333
-0.70372148
-0.34048555
-0.24207433
1.3944613
-1.152387
-0.46901756
0.59938682
-0.89258695
0.92575357
-0.033166621
0.0036069642
-1.320894
1.317287
0.87246393
-0.32665846
-0.54580547
0.66892588
-0.70715447
0.038228593
1.1580105
-1.3246824
0.16667191
-0.13360274
1.0548617
-0.92125898
0.73264944
-0.58980683
-0.14284261
0.098636589
0.080010023
-0.17864661
0.011297421
-0.27773204
0.12229963
-1.1092868
-0.077894462
-0.91382436
-1.1083586
1.408668
-1.405061
-0.57135502
-0.24985553
-0.13936942
-0.16675098
0.3061204
0.75753086
-0.59669739
-0.16083348
0.024186225
-0.84845224
0.82426601
0.0027051245
0.3658239
-0.42381798
-0.051710786
0.75781021
-0.28573693
-0.67660475
-0.94594594
0.44109847
-0.13968572
0.32490522
-1.7049993
1.3800941
1.0403595
-0.44631662
-0.59404293