/*--------------------------------*- C++ -*----------------------------------*\
| =========                 |                                                 |
| \\      /  F ield         | foam-extend: Open Source CFD                    |
|  \\    /   O peration     | Version:     4.1                                |
|   \\  /    A nd           | Web:         http://www.foam-extend.org         |
|    \\/     M anipulation  |                                                 |
\*---------------------------------------------------------------------------*/
FoamFile
{
    version     2.0;
    format      ascii;
    class       volVectorField;
    location    "0.8";
    object      U;
}
// * * * * * * * * * * * * * * * * * * * * * * * * * * * * * * * * * * * * * //

dimensions      [0 1 -1 0 0 0 0];

internalField   nonuniform List<vector> 
4242
(
(100.52052 95.363044 2.7616565e-15)
(152.2281 135.83687 8.6426741e-18)
(161.29046 137.93486 -1.4199926e-15)
(161.23291 135.39941 1.1364002e-15)
(160.8003 131.85814 1.5470901e-17)
(160.22847 127.86985 5.5886545e-18)
(159.56889 123.37378 0)
(158.81822 118.37948 3.6008411e-16)
(157.97782 112.87613 -5.7845255e-16)
(157.05807 106.87454 2.2267629e-16)
(156.08691 100.4066 -1.3437637e-16)
(155.10758 93.530919 1.1349162e-16)
(154.18705 86.327326 1.8038832e-17)
(153.46009 78.829736 -1.5061818e-17)
(153.14758 71.149794 -1.8347105e-17)
(152.97279 63.781307 0)
(109.82124 80.036748 0)
(176.6429 121.8179 -1.8771236e-17)
(188.22709 123.66358 1.7707753e-15)
(187.47745 121.51942 -1.4476933e-15)
(185.95878 118.46086 -2.5180098e-17)
(184.25838 115.05587 8.3905469e-16)
(182.44042 111.21932 -4.7501142e-17)
(180.50871 106.95382 -1.0318638e-15)
(178.48499 102.25489 8.730898e-17)
(176.39196 97.133944 3.1244302e-16)
(174.26231 91.618668 0)
(172.13594 85.758455 -2.4368118e-17)
(170.06588 79.619686 -2.1780522e-17)
(168.14432 73.243801 -1.2942215e-16)
(166.46234 66.6184 1.7361423e-16)
(164.93184 60.21199 2.3838945e-17)
(114.63704 61.553434 -3.578198e-17)
(193.17402 100.88285 -6.0494509e-15)
(210.08425 103.29718 2.4077357e-15)
(209.72184 102.28228 -1.654392e-17)
(207.80495 100.17256 -1.4661769e-15)
(205.55648 97.750791 1.2045356e-15)
(203.0837 94.968279 -1.6450373e-17)
(200.39356 91.832509 2.5724444e-17)
(197.51244 88.3305 -1.0571302e-17)
(194.47415 84.459701 -3.0678292e-17)
(191.32676 80.224871 3.0991401e-16)
(188.12937 75.64811 -2.3347468e-16)
(184.95223 70.771342 -3.6116218e-16)
(181.88516 65.639004 3.1794301e-16)
(178.97031 60.320722 -3.6681763e-17)
(176.13632 54.991783 -1.0412273e-16)
(116.53269 43.671422 -1.1946542e-17)
(204.19905 76.375567 -7.3740673e-18)
(227.41927 79.034712 -1.3489413e-15)
(228.9256 79.225194 1.1690837e-15)
(226.80795 78.172653 -1.5378635e-17)
(224.01971 76.770947 7.7193657e-16)
(220.92424 75.121641 -6.0637349e-16)
(217.49594 73.211667 -9.8174492e-16)
(213.82956 71.040602 6.134116e-17)
(209.96108 68.586344 1.2404811e-15)
(205.93369 65.822447 -4.8218317e-16)
(201.81452 62.742522 0)
(197.6863 59.357701 2.8102017e-17)
(193.64559 55.685329 -2.1740702e-16)
(189.70604 51.847046 1.0916701e-16)
(185.71613 47.982559 -2.2111078e-16)
(104.36288 23.868293 1.2736973e-17)
(196.62254 47.283556 -1.9459683e-15)
(227.93869 50.037222 1.430101e-15)
(234.60532 51.703837 -8.2876753e-18)
(234.23817 52.246163 2.0624447e-17)
(231.97955 52.199506 -5.8664499e-18)
(229.09302 51.886129 -6.2314511e-16)
(225.81847 51.395017 1.3678751e-17)
(222.26272 50.73025 3.8916027e-16)
(218.45833 49.870062 -3.0684383e-16)
(214.43593 48.768898 2.6247578e-16)
(210.24679 47.388093 0)
(205.95989 45.698755 1.6328484e-16)
(201.66499 43.665283 -1.224667e-16)
(197.41599 41.287646 3.9141918e-17)
(193.01127 38.690521 0)
(75.847495 7.3455695 -1.9390558e-15)
(164.85212 19.826437 5.140485e-16)
(207.43488 22.105287 6.7139532e-16)
(224.11597 24.679589 -5.0500767e-16)
(229.3711 26.922987 1.4599436e-19)
(229.91382 28.494286 1.7100821e-16)
(228.48664 29.622251 1.3897667e-16)
(226.1519 30.491194 -5.3442339e-18)
(223.33693 31.171088 -5.0493971e-18)
(220.20804 31.676822 -2.1466651e-16)
(216.8306 31.980637 2.3221352e-16)
(213.24088 32.03765 -7.6201133e-18)
(209.47741 31.799799 -2.4110128e-17)
(205.59699 31.212098 -5.9074445e-17)
(201.64308 30.233778 -4.2742046e-20)
(197.51254 28.979696 3.0074083e-17)
(14.104788 -1.0874171 -1.0909558e-15)
(107.41142 1.7351099 -5.5491499e-16)
(159.56985 1.6169715 9.5929255e-16)
(189.48862 3.0819009 -4.4485931e-16)
(205.73056 5.737508 1.7635921e-16)
(213.92752 8.5289942 1.6947813e-20)
(217.46549 11.059282 2.2144525e-16)
(218.32395 13.267112 -1.00634e-16)
(217.66337 15.147423 -1.228366e-17)
(216.1378 16.719607 5.6536427e-17)
(214.08604 17.997503 -9.109667e-17)
(211.6703 18.97853 7.8798431e-17)
(208.96324 19.646107 -2.139213e-17)
(206.00536 19.970299 -1.0400346e-16)
(202.81506 19.913514 4.2722496e-17)
(199.33409 19.479416 6.0966261e-17)
(-29.886864 4.306973 -2.704797e-17)
(8.1578002 0.90147595 3.2676191e-15)
(84.556336 -5.489182 -1.6876775e-15)
(129.32208 -7.4423246 9.2449373e-16)
(158.97749 -6.9314512 -6.4498769e-16)
(179.0111 -5.0419977 0)
(192.24449 -2.5219301 3.7515577e-16)
(200.50109 0.21102667 -3.0260367e-16)
(205.20917 2.8690412 -7.2332789e-18)
(207.46425 5.2455184 0)
(208.07395 7.2319349 -3.2208884e-17)
(207.58316 8.7843535 1.7687795e-17)
(206.32814 9.9018956 -1.2788439e-16)
(204.4985 10.608165 2.573396e-16)
(202.19123 10.947775 -1.9639992e-16)
(199.43189 11.036712 -5.9144222e-17)
(-26.536397 7.8669144 1.7354611e-17)
(-43.1504 13.663372 -1.6983357e-17)
(-39.029355 13.559506 0)
(26.030301 1.2235082 3.9991015e-17)
(83.96361 -7.9150237 1.4759441e-17)
(120.93091 -10.738232 5.8717401e-16)
(147.38432 -10.673634 -4.2743677e-16)
(166.67833 -9.1958731 0)
(180.57498 -7.0380281 2.9080896e-19)
(190.17349 -4.6188913 -2.4194174e-17)
(196.39971 -2.2699385 2.000155e-17)
(200.00413 -0.27837417 1.6681429e-17)
(201.60067 1.2067778 2.7022536e-17)
(201.65552 2.1688133 1.9410331e-16)
(200.5223 2.6954949 -2.5219055e-16)
(198.51564 3.1074425 1.4783666e-16)
(-11.535461 4.3597832 0)
(-29.047611 12.964364 7.7039822e-15)
(-39.789444 18.549703 -1.2174592e-14)
(-42.791307 20.694907 5.863809e-15)
(-30.471681 17.558613 -3.5129001e-17)
(23.515246 3.1609362 -7.3935445e-17)
(75.016901 -8.3304373 1.3756299e-15)
(110.86927 -12.656485 -8.3760035e-16)
(137.753 -13.393207 -5.1152205e-16)
(158.24548 -12.47169 4.3036096e-16)
(173.59246 -10.966337 0)
(184.50149 -9.4302511 -2.9695128e-16)
(191.58547 -8.1449186 1.6623333e-16)
(195.37846 -7.2051693 0)
(196.48749 -6.5007206 0)
(195.68253 -5.5449727 0)
(-4.4374705 2.3032031 1.9183724e-14)
(-22.292072 15.815579 -7.7787425e-15)
(-34.064568 24.407969 0)
(-38.007294 27.392374 -3.7556693e-17)
(-36.720691 27.364016 -3.9400203e-15)
(-31.52321 26.352187 3.5836283e-15)
(-18.872302 23.178291 2.4613235e-15)
(19.945464 10.810685 4.3085851e-17)
(66.166539 -2.2183555 -1.0306188e-15)
(103.13902 -9.673577 3.7089065e-17)
(132.20797 -13.919043 0)
(154.79629 -16.698286 -6.3503418e-16)
(170.89909 -18.418649 8.2759378e-17)
(180.98362 -19.261809 4.0693817e-16)
(186.07682 -19.185491 0)
(188.12386 -16.796419 6.0828639e-17)
(-8.1439471 8.6760971 7.9479973e-18)
(-29.169274 30.087663 1.1882888e-14)
(-38.18751 39.427322 -4.448224e-15)
(-38.929203 42.030856 -3.613491e-15)
(-35.566903 41.230308 3.0734848e-15)
(-29.974992 38.52717 -2.7620085e-15)
(-22.707214 34.679681 2.4003467e-15)
(-13.213055 30.496429 2.1018904e-15)
(0.82916584 24.680195 -1.909434e-15)
(39.406569 10.297002 0)
(82.555682 -3.1342916 0)
(114.9228 -14.468855 0)
(138.81673 -23.929054 9.1977059e-17)
(155.08634 -29.82335 0)
(165.18893 -32.047487 3.7638714e-16)
(171.32184 -29.580964 -6.7022109e-16)
(86.479335 -105.32515 3.3210074e-16)
(122.07487 -141.40506 -1.069607e-18)
(128.06764 -142.63758 -1.0116492e-16)
(128.52916 -140.67389 8.2444547e-17)
(128.38252 -137.43944 -3.4643795e-18)
(128.23419 -133.61808 4.9332417e-18)
(128.14648 -129.24855 0)
(128.15038 -124.2887 -7.0487964e-17)
(128.27046 -118.70892 1.5297069e-16)
(128.53659 -112.51242 -6.5802621e-17)
(128.97653 -105.73924 8.2271209e-17)
(129.60995 -98.466489 -6.9198312e-17)
(130.46905 -90.791808 -2.0506032e-17)
(131.62354 -82.859578 2.2817619e-17)
(133.01215 -74.840125 5.6124278e-17)
(134.137 -67.364042 0)
(58.816382 -92.524198 0)
(85.55097 -127.6999 6.2160249e-18)
(90.729438 -129.08766 -6.7570514e-16)
(91.929405 -126.7418 5.398828e-16)
(93.094169 -123.70784 8.9456568e-18)
(94.487395 -120.22658 -4.0831952e-16)
(96.122489 -116.28756 -1.6377248e-17)
(98.021079 -111.86215 5.8725503e-16)
(100.19806 -106.93281 -2.0913585e-17)
(102.66053 -101.49662 -2.1359625e-16)
(105.40368 -95.571128 0)
(108.40974 -89.197532 2.5105963e-17)
(111.65063 -82.441023 2.4613788e-17)
(115.12919 -75.394661 2.0127093e-16)
(118.77645 -68.116698 -2.7716089e-16)
(122.35085 -60.853633 -4.4306698e-17)
(39.2124 -81.875221 -8.8908952e-18)
(56.492343 -111.79265 3.9301651e-15)
(60.603306 -112.97611 -1.5226656e-15)
(62.426581 -110.79899 1.1531974e-17)
(64.371538 -108.05567 9.8957323e-16)
(66.652142 -104.92059 -7.8718721e-16)
(69.291872 -101.37786 1.2225481e-17)
(72.31772 -97.40257 -1.9998982e-17)
(75.749173 -92.979885 5.9950502e-18)
(79.593836 -88.109593 2.6872823e-17)
(83.84191 -82.811002 -3.0535509e-16)
(88.466446 -77.125053 2.2781683e-16)
(93.430817 -71.112646 4.3447541e-16)
(98.724696 -64.860975 -3.8503683e-16)
(104.25878 -58.45923 5.7035255e-17)
(109.66595 -52.17723 1.9383297e-16)
(21.851183 -63.803003 9.3944445e-18)
(31.824058 -87.361047 6.9157722e-18)
(35.133764 -88.366677 1.2300692e-15)
(37.456948 -86.569109 -9.8100898e-16)
(40.056986 -84.339867 1.298087e-17)
(43.092869 -81.81713 -6.2425986e-16)
(46.598683 -78.985672 4.6034796e-16)
(50.605517 -75.827879 7.9755634e-16)
(55.134391 -72.334424 -1.0813471e-17)
(60.188914 -68.507287 -1.0712291e-15)
(65.748133 -64.362978 4.2715224e-16)
(71.767664 -59.932959 0)
(78.196147 -55.259627 -3.0735414e-17)
(84.987099 -50.405076 2.6091896e-16)
(91.975084 -45.498341 -1.3139738e-16)
(98.676346 -40.63416 3.2073756e-16)
(9.2128387 -40.875692 -1.0914134e-17)
(14.246215 -57.256237 2.2725285e-15)
(17.015617 -57.932345 -1.7013649e-15)
(19.685149 -56.54537 9.3920914e-18)
(22.760854 -54.905693 -2.2788426e-17)
(26.344468 -53.113356 6.4001011e-18)
(30.477455 -51.15205 6.6375327e-16)
(35.196106 -49.009132 8.8850902e-18)
(40.525854 -46.679423 -3.8872e-16)
(46.473077 -44.165567 3.2506411e-16)
(53.018272 -41.478765 -2.6738843e-16)
(60.122045 -38.637078 0)
(67.744543 -35.660599 -1.8449284e-16)
(75.85595 -32.60013 1.3546049e-16)
(84.184708 -29.426776 -4.8491205e-17)
(91.880068 -26.408877 0)
(113.7291 -61.582493 0)
(194.87788 -102.1704 2.733302e-15)
(212.13854 -104.63549 -4.3263399e-15)
(211.53106 -103.69831 1.7926452e-15)
(209.3135 -101.62579 1.174929e-17)
(206.78221 -99.297004 3.3844327e-18)
(204.05716 -96.65157 8.0060214e-16)
(201.13913 -93.698312 -6.7960429e-16)
(198.04793 -90.418564 -4.635491e-16)
(194.81054 -86.806408 3.4959515e-16)
(191.47211 -82.866233 0)
(188.10108 -78.616674 -1.5794781e-16)
(184.80051 -74.102175 1.2643119e-16)
(181.73537 -69.378135 0)
(179.1397 -64.558999 0)
(177.17119 -59.891701 0)
(2.2522662 -18.085703 1.948004e-15)
(4.8250962 -27.325173 -7.5647268e-16)
(7.5435257 -27.404826 -1.0757014e-15)
(10.622862 -26.274468 7.9872628e-16)
(14.153836 -25.131941 7.9760241e-18)
(18.183586 -24.001682 -2.4510716e-16)
(22.748804 -22.847524 -1.9743337e-16)
(27.879759 -21.648422 1.8611439e-18)
(33.595527 -20.392476 2.0753342e-18)
(39.898346 -19.073072 2.8411218e-16)
(46.765973 -17.687263 -3.0441747e-16)
(54.149017 -16.234726 4.4856753e-18)
(61.985722 -14.712133 2.8173747e-17)
(70.165666 -13.104211 7.8136196e-17)
(78.575653 -11.436883 5.7640768e-20)
(86.900783 -9.6527648 -4.4333781e-17)
(1.8684785 14.160934 1.007432e-15)
(4.3076471 21.300412 8.0037674e-16)
(7.0164144 20.581227 -1.7011299e-15)
(10.097706 18.976318 8.354381e-16)
(13.665232 17.5696 -3.2698816e-16)
(17.766726 16.318342 -2.9928653e-20)
(22.434961 15.148981 -3.9369062e-16)
(27.696055 14.018472 1.6409968e-16)
(33.562616 12.898928 1.6886084e-17)
(40.026412 11.77016 -9.3099623e-17)
(47.053424 10.616837 1.3748096e-16)
(54.581481 9.4270219 -1.2026589e-16)
(62.520871 8.1908664 2.8345796e-17)
(70.758584 6.8906224 1.5313895e-16)
(79.078968 5.4787112 -6.189281e-17)
(87.195058 4.1062692 -9.019498e-17)
(8.6898719 37.522094 1.8043121e-17)
(13.442819 52.347442 -2.4503554e-15)
(16.119667 52.577753 1.8046867e-15)
(18.815234 50.95897 -1.3606656e-15)
(21.965029 49.173921 1.0725229e-15)
(25.649556 47.286409 0)
(29.902642 45.263069 -6.6449981e-16)
(34.752599 43.080482 5.1989229e-16)
(40.215114 40.725426 1.1016879e-17)
(46.284685 38.193495 0)
(52.929007 35.488972 4.8623778e-17)
(60.094784 32.622812 -2.5113072e-17)
(67.732967 29.60536 1.839453e-16)
(75.75063 26.397241 -3.6586382e-16)
(83.859355 23.101119 2.6481969e-16)
(91.217525 19.793476 7.9608797e-17)
(21.082849 60.754528 -9.8617566e-18)
(30.523301 82.949281 7.3169752e-18)
(33.63287 83.582975 0)
(35.926437 81.571636 -2.2057784e-17)
(38.530203 79.186677 -1.0645305e-17)
(41.583417 76.535473 -6.4889562e-16)
(45.114353 73.58985 5.3956239e-16)
(49.147376 70.325268 0)
(53.696294 66.72845 -4.2892932e-18)
(58.756179 62.799776 2.9360942e-17)
(64.296949 58.55576 -2.9046354e-17)
(70.267571 54.02894 -1.527208e-17)
(76.637192 49.255819 -3.7155249e-17)
(83.378951 44.289729 -2.4278127e-16)
(90.307621 39.135872 2.9911814e-16)
(96.604902 34.169661 -1.7522234e-16)
(38.315944 79.333763 0)
(54.81183 107.97733 -2.0828033e-15)
(58.642644 108.81613 3.2074672e-15)
(60.401409 106.42594 -1.2582332e-15)
(62.30453 103.51507 9.6377523e-18)
(64.55218 100.22579 2.5355975e-17)
(67.163368 96.531019 -6.9521303e-16)
(70.160294 92.400933 5.5735418e-16)
(73.559426 87.819057 4.1955371e-16)
(77.366041 82.786987 -3.8739719e-16)
(81.568297 77.329774 0)
(86.141251 71.497166 2.866559e-16)
(91.095721 65.343455 -1.6620198e-16)
(96.478764 58.913548 0)
(102.19175 52.445393 0)
(107.32088 46.434053 0)
(57.968501 90.586941 -2.2377126e-15)
(83.627395 124.42156 8.1212452e-16)
(88.457173 125.45559 0)
(89.594984 122.88342 1.6677576e-18)
(90.716792 119.66256 4.7089819e-16)
(92.080397 115.99699 -3.960641e-16)
(93.695406 111.8701 -3.3703325e-16)
(95.58117 107.25289 -1.6763426e-17)
(97.754228 102.13035 2.6255682e-16)
(100.22682 96.505424 -1.7824169e-17)
(103.00429 90.404665 0)
(106.08785 83.880619 3.0631225e-16)
(109.49679 77.000583 -4.0874909e-17)
(113.24714 69.817837 -2.1319912e-16)
(117.2721 62.56606 0)
(121.25616 55.590964 -2.6465777e-17)
(84.929416 103.00393 2.8337752e-17)
(119.58931 138.08299 5.6495276e-16)
(125.17691 138.98348 -2.0908951e-16)
(125.63256 136.81488 -9.8764474e-17)
(125.5246 133.46126 8.2501393e-17)
(125.42021 129.51291 -2.711228e-18)
(125.38099 125.01085 -8.3135922e-18)
(125.44087 119.91955 -3.7577651e-17)
(125.62962 114.21495 2.8692084e-17)
(125.98557 107.90525 0)
(126.54719 101.03499 0)
(127.34963 93.6859 0)
(128.44 85.964044 -2.0570184e-18)
(129.87083 77.931452 0)
(131.54922 69.792765 -9.9729969e-17)
(132.696 62.325903 2.0143107e-16)
(13.708453 13.061655 3.0640865e-15)
(6.3590715 9.1233224 1.0169494e-17)
(-9.2077655 -1.526111 -1.9794136e-15)
(-22.135293 -11.118865 1.4234832e-15)
(-32.794992 -19.067805 1.7721898e-17)
(-39.646382 -24.024489 1.7030576e-17)
(-43.32239 -26.647078 0)
(-43.25301 -27.742953 7.8503226e-16)
(-39.206222 -29.340205 -1.3659497e-15)
(-24.989996 -28.321169 4.2540998e-16)
(6.8372062 -24.350292 -2.2068876e-16)
(48.893921 -21.037088 1.4625189e-16)
(87.748457 -20.745554 -2.4803716e-18)
(118.85432 -20.651127 -2.2650672e-17)
(143.50795 -20.042062 -7.5999388e-17)
(164.39807 -20.719091 0)
(-21.264361 -12.359543 0)
(-32.2184 -17.474999 -1.7553309e-17)
(-38.020247 -19.057919 1.527217e-15)
(-44.521796 -21.461086 -1.1659999e-15)
(-50.331945 -23.815333 -2.3675249e-17)
(-53.637167 -25.945559 9.7185114e-16)
(-54.359474 -27.031815 -1.5021418e-17)
(-13.30483 -14.373865 -1.5098164e-15)
(27.0528 -4.4946165 7.3612131e-17)
(65.326382 0.46689675 2.3424916e-16)
(95.557203 -0.81227656 0)
(121.00113 -5.292308 -1.3713718e-17)
(142.5433 -10.125225 -2.0128302e-17)
(160.16681 -13.92925 -1.2197756e-16)
(173.86735 -16.658302 1.7726614e-16)
(184.39339 -18.809475 2.632945e-17)
(-32.759656 -15.990484 -5.5580841e-19)
(-52.232916 -24.571049 -5.0267698e-15)
(-57.985295 -26.211433 2.0454828e-15)
(-60.723382 -27.408202 -1.8125144e-17)
(-56.965205 -27.179415 -1.9125101e-15)
(-11.558715 -16.07085 9.7123342e-16)
(36.482029 -6.1383624 -9.4444215e-18)
(76.719383 -0.70207358 1.159007e-17)
(107.38514 0.3658301 -5.659107e-18)
(131.1266 -1.4068876 -1.1453848e-17)
(149.35705 -4.7181249 1.2869653e-16)
(163.33027 -8.7833408 -9.3766896e-17)
(174.02115 -12.865307 -1.827675e-16)
(182.09464 -16.367126 1.640174e-16)
(188.07608 -18.856934 -3.0526791e-17)
(192.5848 -20.320618 -1.0860743e-16)
(-46.246537 -15.639347 -7.824064e-18)
(-71.436477 -24.306988 -7.1371596e-18)
(-70.259574 -23.939843 -1.3389724e-15)
(-15.415123 -13.188125 7.5081595e-16)
(45.596797 -3.1959493 -7.7334321e-18)
(89.206316 0.82354887 2.736163e-16)
(121.22712 1.0752991 -1.7687329e-16)
(145.11358 -0.77889381 -2.7746185e-16)
(162.36069 -3.7335236 8.3252907e-18)
(174.41653 -7.2885189 3.6032042e-16)
(182.47525 -10.988261 -1.4578611e-16)
(187.6421 -14.49499 0)
(190.87436 -17.526099 1.1672176e-17)
(192.93882 -19.869258 -1.0217646e-16)
(194.37037 -21.358664 5.2868201e-17)
(195.51575 -22.065937 -1.428953e-16)
(-53.333544 -10.530697 7.824064e-18)
(-31.657167 -8.6354193 -1.6433073e-15)
(47.746963 -0.96112981 9.0757402e-16)
(100.60914 1.2308548 -3.6094561e-18)
(136.43651 0.36594335 8.0054583e-18)
(161.01145 -2.0671627 -2.313139e-18)
(177.24351 -5.2962351 -2.0764457e-16)
(187.46409 -8.8197717 7.8003711e-19)
(193.45077 -12.268408 1.2850527e-16)
(196.58821 -15.429832 -1.0868037e-16)
(197.91786 -18.195509 9.4220924e-17)
(198.18832 -20.531402 0)
(197.904 -22.425612 6.9494671e-17)
(197.39581 -23.857418 -5.2896092e-17)
(196.87251 -24.741594 1.9769297e-17)
(196.40004 -25.141283 0)
(-13.657 -1.318719 -1.414858e-15)
(83.692224 -3.4827576 3.7873601e-16)
(141.00897 -4.3292768 4.1755877e-16)
(174.7914 -6.6780113 -2.8912776e-16)
(193.65101 -10.061263 5.0913153e-19)
(203.32639 -13.50972 9.0545073e-17)
(207.6408 -16.641048 7.2689956e-17)
(208.95067 -19.393008 -2.6336433e-18)
(208.63592 -21.797483 -2.4801179e-18)
(207.47656 -23.897936 -1.150529e-16)
(205.88718 -25.733138 1.2590726e-16)
(204.06971 -27.309001 -3.8700853e-18)
(202.14025 -28.594602 -1.2895012e-17)
(200.20661 -29.531038 -3.3126344e-17)
(198.38797 -29.996427 -2.3967945e-20)
(196.67666 -30.015836 1.7376906e-17)
(61.782695 -6.3400896 -7.6736244e-16)
(153.23538 -20.039495 -3.7620812e-16)
(198.28524 -22.925268 7.6447557e-16)
(216.35839 -26.06882 -3.7999778e-16)
(222.22772 -28.819315 1.5811214e-16)
(222.93507 -30.845131 1.3505576e-20)
(221.55506 -32.401682 1.9911933e-16)
(219.31213 -33.72791 -9.254732e-17)
(216.66041 -34.907465 -1.2634523e-17)
(213.77087 -35.958973 4.5673608e-17)
(210.72795 -36.857055 -7.4950983e-17)
(207.56968 -37.541728 6.0529691e-17)
(204.36329 -37.947516 -1.762832e-17)
(201.23204 -38.004822 -7.454331e-17)
(198.32967 -37.622122 2.9803932e-17)
(195.64867 -36.951861 3.8042765e-17)
(95.919401 -22.224973 -1.6622939e-17)
(190.66488 -46.808898 1.6354739e-15)
(223.98965 -49.998815 -1.1930816e-15)
(231.16556 -52.024808 9.018094e-16)
(230.79886 -52.841723 -7.7277436e-16)
(228.44174 -53.077949 0)
(225.47555 -53.089504 4.8698738e-16)
(222.19099 -52.995018 -4.0363055e-16)
(218.64135 -52.779403 -9.2605334e-18)
(214.86128 -52.416441 0)
(210.92364 -51.871333 -3.4402993e-17)
(206.8833 -51.085693 1.7173753e-17)
(202.84663 -50.02061 -1.1466959e-16)
(198.98015 -48.632315 2.196182e-16)
(195.45666 -46.897463 -1.550039e-16)
(192.2843 -44.999466 -4.0371409e-17)
(111.07771 -41.795597 1.0397062e-17)
(200.35609 -75.605713 -6.2948305e-18)
(224.59525 -78.512501 0)
(226.33757 -79.047201 -6.2237972e-18)
(224.29028 -78.23246 -1.1521966e-17)
(221.54775 -77.101814 6.1675836e-16)
(218.51377 -75.759564 -5.4687694e-16)
(215.2151 -74.230884 0)
(211.6588 -72.473819 4.0307546e-17)
(207.87798 -70.465851 2.8619582e-17)
(203.9585 -68.198974 2.4949427e-17)
(199.95198 -65.640484 -4.9650722e-17)
(195.97995 -62.798635 2.7012027e-17)
(192.22229 -59.693002 1.5134218e-16)
(188.85499 -56.435843 -1.7277328e-16)
(185.90681 -53.30714 9.3094426e-17)
(106.63383 -77.793762 7.0051106e-15)
(175.7838 -121.60315 -2.2916624e-15)
(188.17436 -123.75372 0)
(187.71952 -121.91729 -9.3555712e-18)
(186.40369 -119.06561 -9.985455e-16)
(184.84376 -115.88275 8.6282574e-16)
(183.1509 -112.29803 5.8034318e-16)
(181.32892 -108.32169 -3.2537617e-17)
(179.38406 -103.94588 -4.0216351e-16)
(177.32689 -99.17548 1.9113977e-17)
(175.17821 -94.030951 0)
(172.97545 -88.55148 -2.4163274e-16)
(170.79082 -82.799732 7.0667792e-17)
(168.8059 -76.823979 1.3440561e-16)
(167.35692 -70.736293 0)
(166.26056 -64.827486 3.4677119e-18)
(103.30407 -98.311679 2.4109604e-17)
(156.14969 -139.56454 3.7848856e-15)
(165.28014 -141.51479 -1.4562987e-15)
(165.0114 -138.83964 -1.0534031e-15)
(164.39199 -135.18593 8.4859732e-16)
(163.63524 -131.15826 -6.2550203e-16)
(162.78799 -126.66636 5.1665874e-16)
(161.83332 -121.70806 3.2692164e-16)
(160.76838 -116.28323 -2.9138551e-16)
(159.59989 -110.39635 0)
(158.35014 -104.07099 0)
(157.06102 -97.355783 0)
(155.81344 -90.320182 7.2036737e-19)
(154.81764 -83.032625 0)
(154.38185 -75.614472 6.6959595e-18)
(154.51902 -68.800712 6.9704608e-18)
(-21.70291 27.640068 8.2688203e-15)
(-43.410269 54.125608 2.4198134e-17)
(-48.619013 59.723022 -5.1932455e-15)
(-46.8199 58.59383 4.4751455e-15)
(-42.654366 55.233953 5.9246933e-17)
(-37.463943 50.854356 5.0988924e-17)
(-31.385276 45.67085 0)
(-24.220509 39.613431 2.7342322e-15)
(-15.711699 32.461783 -5.0175825e-15)
(-6.4692668 23.922155 2.3433125e-15)
(-2.0736603 12.740781 -2.2073686e-15)
(50.134182 -11.48673 1.1793517e-15)
(82.445857 -33.85917 2.2155704e-18)
(104.28365 -46.821446 -1.0535724e-16)
(119.8309 -52.370339 -2.8004639e-16)
(131.57339 -51.349759 0)
(-30.062343 49.198157 0)
(-46.8538 74.585443 -4.5931593e-17)
(-48.595275 75.757512 5.3708597e-15)
(-45.754685 71.154728 -4.9250901e-15)
(-42.021836 65.102352 -1.0003619e-16)
(-38.060463 58.376997 3.6596984e-15)
(-33.59871 50.649515 1.3999195e-17)
(-28.210967 41.428988 -5.3829811e-15)
(-21.520888 29.728219 2.6637632e-16)
(-13.429144 13.337488 2.0842545e-15)
(-3.9668345 -7.8791799 0)
(11.530418 -26.266752 -1.534291e-16)
(35.723722 -44.51453 -2.4391047e-16)
(56.128202 -60.321605 -1.1122446e-15)
(72.912568 -67.33441 1.2907261e-15)
(85.127206 -66.942579 1.1765757e-16)
(-26.557392 54.99695 -8.9844155e-19)
(-36.384712 72.276002 -9.6389442e-15)
(-35.796763 66.861141 3.6594497e-15)
(-34.270083 59.002193 -1.9983695e-17)
(-33.005275 50.6721 -2.2621145e-15)
(-31.861407 41.597384 1.8252408e-15)
(-30.650085 31.516621 -2.1788276e-17)
(-29.289837 20.372441 3.7198596e-17)
(-27.554356 7.9618672 -4.4627981e-17)
(-25.294612 -5.9196447 -5.568784e-17)
(-21.583914 -20.635794 8.5159506e-16)
(-14.721722 -36.238666 -5.992387e-16)
(-4.1719504 -52.12374 -1.1500115e-15)
(8.1455442 -65.894469 1.0217437e-15)
(20.622797 -73.945323 -1.786581e-16)
(31.021505 -75.855361 -4.7765775e-16)
(-15.10573 39.767771 -1.0101514e-17)
(-19.491461 46.016943 -7.6217075e-18)
(-19.597714 37.450657 -1.489746e-15)
(-20.130843 28.905161 1.1306612e-15)
(-21.295515 21.093184 -1.2327118e-17)
(-22.919968 13.510646 7.0921962e-16)
(-24.786322 5.7219242 -5.1832835e-16)
(-26.745718 -2.5476176 -9.5647854e-16)
(-28.601521 -11.430465 -1.8756252e-17)
(-30.038553 -21.060109 1.3464781e-15)
(-30.729506 -31.990587 -5.3785737e-16)
(-30.168654 -43.960146 0)
(-27.753197 -56.288117 5.1411979e-17)
(-23.664718 -67.643639 -3.7788968e-16)
(-17.926807 -76.090219 1.9376052e-16)
(-13.059013 -80.20606 -4.4095398e-16)
(-2.2202359 3.2733535 1.0603571e-17)
(-3.769498 0.036806226 -1.8947473e-15)
(-5.7148313 -4.0150591 1.3343867e-15)
(-7.9805302 -8.184185 -8.4299612e-18)
(-10.565726 -12.503012 1.8697425e-17)
(-13.465748 -17.089607 -4.5351472e-18)
(-16.665049 -22.072275 -4.9994719e-16)
(-20.102956 -27.592257 -1.9080221e-17)
(-23.71102 -33.770908 2.898514e-16)
(-27.355692 -40.723846 -2.6297338e-16)
(-30.833688 -48.523625 2.1505387e-16)
(-33.843506 -57.018545 0)
(-36.065469 -65.818751 1.7132791e-16)
(-37.244664 -74.28841 -1.2764022e-16)
(-37.314927 -81.434616 5.4092387e-17)
(-36.828004 -86.44831 0)
(0.37394188 -18.652539 -1.0461483e-15)
(-0.17431003 -30.322141 4.0352306e-16)
(-1.8986499 -34.954284 6.0027987e-16)
(-4.0527062 -38.332427 -4.600243e-16)
(-6.5646093 -41.487405 -6.6636894e-18)
(-9.4347584 -44.689738 1.468027e-16)
(-12.657265 -48.067448 1.2274568e-16)
(-16.21023 -51.721057 1.1880049e-18)
(-20.036323 -55.757586 1.1626745e-18)
(-24.047138 -60.246467 -1.9193323e-16)
(-28.090416 -65.210437 2.1365368e-16)
(-31.95348 -70.572823 1.7519631e-18)
(-35.37705 -76.088416 -1.8492742e-17)
(-37.973959 -81.611209 -6.4784427e-17)
(-39.567796 -85.745684 -5.5468201e-20)
(-40.20776 -88.509884 4.7606739e-17)
(-1.8246882 -32.572004 -5.4332351e-16)
(-3.8815628 -53.151395 -4.260987e-16)
(-5.8664167 -59.079705 9.8335867e-16)
(-7.6893535 -61.915976 -5.1562588e-16)
(-9.649349 -64.151285 2.117697e-16)
(-11.846394 -66.259019 1.9466923e-20)
(-14.287412 -68.371089 2.7508247e-16)
(-16.963488 -70.565906 -1.1489505e-16)
(-19.840738 -72.905123 -1.0785464e-17)
(-22.845666 -75.428481 7.498671e-17)
(-25.856299 -78.124812 -1.0735213e-16)
(-28.693231 -80.910379 1.0537048e-16)
(-31.090443 -83.589956 -2.0880196e-17)
(-32.727772 -85.895464 -1.5507417e-16)
(-32.9259 -87.507149 6.7659598e-17)
(-31.918945 -86.373232 1.2619178e-16)
(-5.8683497 -34.853106 -1.3742922e-17)
(-11.120022 -62.62642 1.8366879e-15)
(-14.086037 -71.942599 -1.5092846e-15)
(-15.579028 -75.192233 1.2354584e-15)
(-16.734887 -76.974582 -1.0231801e-15)
(-17.985678 -78.478174 0)
(-19.322255 -79.878551 6.8021669e-16)
(-20.731387 -81.233077 -5.4178553e-16)
(-22.179049 -82.570411 -1.4191654e-17)
(-23.594685 -83.892733 0)
(-24.858322 -85.161243 -5.7981949e-17)
(-25.790823 -86.272751 3.2626137e-17)
(-26.166932 -87.04245 -2.5781668e-16)
(-25.657998 -87.15174 5.5503115e-16)
(-23.842869 -86.31611 -4.4813425e-16)
(-18.763427 -82.230299 -1.7029499e-16)
(-7.6374399 -26.247859 9.6977957e-18)
(-16.739948 -57.591655 -6.740408e-18)
(-21.68982 -71.492968 0)
(-23.589945 -77.177162 2.4355189e-17)
(-24.259241 -79.717788 1.3453954e-17)
(-24.668514 -81.232298 7.7519362e-16)
(-24.980884 -82.41673 -6.7673448e-16)
(-25.174751 -83.450641 0)
(-25.189863 -84.363438 1.3769864e-18)
(-24.92527 -85.126838 -4.3904142e-17)
(-24.222533 -85.669234 3.8691755e-17)
(-22.843602 -85.861189 2.8068166e-17)
(-20.463779 -85.501653 5.4233332e-17)
(-16.654287 -84.270002 4.1241162e-16)
(-10.730612 -81.321624 -5.4417107e-16)
(1.3752698 -73.698618 3.4377977e-16)
(-3.0297161 -8.083102 0)
(-14.883485 -37.828199 3.3014731e-15)
(-22.933626 -56.642292 -4.5118514e-15)
(-26.907065 -66.98006 1.7239511e-15)
(-28.440783 -72.559672 -1.1414207e-17)
(-28.823561 -75.554718 -3.5810094e-17)
(-28.633097 -77.245143 9.8167203e-16)
(-28.033716 -78.291947 -8.1646125e-16)
(-26.992678 -78.962225 -6.1245194e-16)
(-25.36812 -79.316801 5.7116442e-16)
(-22.925683 -79.303973 0)
(-19.328113 -78.789156 -4.4061127e-16)
(-14.127915 -77.560175 2.5179423e-16)
(-6.8060787 -75.31296 0)
(3.7870894 -71.037953 0)
(24.893308 -61.551514 0)
(10.714852 16.073483 9.614377e-15)
(-3.3460707 -8.674168 -3.7428149e-15)
(-15.516897 -31.118497 0)
(-23.428458 -46.416818 -1.1399502e-17)
(-28.115203 -56.448837 -1.1747768e-15)
(-30.415644 -62.534183 1.0034189e-15)
(-31.060939 -65.935272 7.6813047e-16)
(-30.500004 -67.626089 6.9449975e-18)
(-28.903475 -68.240916 -5.9378438e-16)
(-26.23329 -68.117238 3.1275637e-17)
(-22.264111 -67.372111 0)
(-16.566716 -65.954914 -6.1662909e-16)
(-7.9978998 -63.695964 7.4446551e-17)
(4.8352921 -60.78672 4.2546479e-16)
(29.075128 -52.406406 0)
(69.497716 -40.244318 5.920042e-17)
(20.80488 24.475365 -2.4584732e-18)
(20.617264 26.48312 9.4811644e-15)
(2.6366993 2.4489848 -3.1313088e-15)
(-13.150601 -18.700353 -1.9195654e-15)
(-23.974841 -33.103397 1.3826557e-15)
(-29.984377 -41.736746 -1.0808325e-15)
(-32.36614 -46.391777 8.6992565e-16)
(-32.156244 -48.484133 6.5146957e-16)
(-30.078275 -49.078745 -5.9553064e-16)
(-26.323407 -48.675843 0)
(-20.940511 -47.535067 0)
(-15.168818 -46.25227 0)
(-0.59444858 -43.139415 5.57461e-17)
(34.835094 -35.939459 0)
(76.261677 -29.288755 2.4329821e-16)
(118.23787 -27.674224 -4.403922e-16)
(120.65671 138.93038 0)
(126.53414 140.27913 0)
(127.33172 138.30384 0)
(127.68376 135.03505 1.3773531e-18)
(128.03094 131.24543 -1.0399673e-17)
(128.48873 126.87261 1.2023968e-17)
(129.08981 121.89749 0)
(129.85366 116.28565 -3.7970215e-18)
(130.79279 110.03541 0)
(131.91116 103.18801 0)
(133.20216 95.828587 0)
(134.66562 88.07516 1.0158859e-17)
(136.34155 80.042591 0)
(138.16495 71.81575 -1.3201708e-18)
(139.84924 64.427321 0)
(121.50343 -139.98115 0)
(128.10329 -141.78099 0)
(129.17785 -140.06627 0)
(129.74251 -136.96625 1.2533949e-18)
(130.26537 -133.36415 -8.4895361e-18)
(130.87121 -129.2215 1.2430081e-17)
(131.58435 -124.51867 0)
(132.40187 -119.21345 3.7322759e-18)
(133.32101 -113.2844 0)
(134.33614 -106.75455 0)
(135.43512 -99.686228 0)
(136.61756 -92.177707 -9.5120106e-18)
(137.95822 -84.326698 0)
(139.57049 -76.499338 -2.3537356e-17)
(141.25606 -69.513483 0)
(6.6599417 9.0149402 0)
(4.1067489 3.0582214 0)
(-12.956871 -18.131733 0)
(-24.328322 -32.237333 6.6302239e-18)
(-30.505719 -40.614524 -4.0808391e-17)
(-33.026397 -45.027399 5.4653936e-17)
(-32.84025 -46.769996 0)
(-30.494381 -46.78171 2.5559667e-18)
(-26.32446 -45.586037 0)
(-19.588793 -44.891683 0)
(-7.5856823 -43.305076 0)
(49.293381 -30.741458 -3.6550096e-18)
(92.995478 -25.170806 0)
(125.89897 -22.752483 7.7933581e-17)
(153.36887 -22.822614 0)
(-42.151182 51.752307 0)
(-47.27755 57.274712 0)
(-45.563846 56.253497 0)
(-41.453953 52.760143 1.511568e-17)
(-36.18301 48.195599 -1.2341545e-16)
(-29.800362 42.847141 2.0250416e-16)
(-21.96884 36.687091 0)
(-12.131061 29.60881 -4.136844e-18)
(0.841076 21.292384 0)
(33.786243 7.8221602 0)
(98.464326 -13.572232 0)
(125.60537 -26.639079 3.2741123e-18)
(143.45607 -34.108153 0)
(154.58538 -37.492929 1.7141057e-16)
(161.26494 -36.258734 0)
(86.580707 104.69373 7.0787532e-20)