/*--------------------------------*- C++ -*----------------------------------*\
| =========                 |                                                 |
| \\      /  F ield         | foam-extend: Open Source CFD                    |
|  \\    /   O peration     | Version:     4.1                                |
|   \\  /    A nd           | Web:         http://www.foam-extend.org         |
|    \\/     M anipulation  |                                                 |
\*---------------------------------------------------------------------------*/
FoamFile
{
    version     2.0;
    format      ascii;
    class       volVectorField;
    location    "0.7";
    object      U;
}
// * * * * * * * * * * * * * * * * * * * * * * * * * * * * * * * * * * * * * //

dimensions      [0 1 -1 0 0 0 0];

internalField   nonuniform List<vector> 
16796
(
(1.0019304 -6.7181019e-05 0)
(1.0022751 -7.1310025e-05 0)
(1.0024021 -7.4935454e-05 0)
(1.0026949 -7.9555267e-05 0)
(1.0028989 -8.4135846e-05 0)
(1.0031862 -8.9392e-05 0)
(1.0034437 -9.4874883e-05 0)
(1.0037492 -0.00010091468 0)
(1.0040528 -0.00010732182 0)
(1.0043901 -0.00011425532 0)
(1.0047397 -0.00012164185 0)
(1.0051183 -0.00012956413 0)
(1.0055174 -0.00013800093 0)
(1.0059453 -0.00014700071 0)
(1.0063992 -0.00015656532 0)
(1.0068839 -0.00016672738 0)
(1.0073991 -0.00017749837 0)
(1.0079482 -0.00018890289 0)
(1.008532 -0.00020095553 0)
(1.0091531 -0.00021367588 0)
(1.0098133 -0.00022707824 0)
(1.0105148 -0.00024117799 0)
(1.0112596 -0.0002559871 0)
(1.0120499 -0.00027151654 0)
(1.0128878 -0.00028777445 0)
(1.0137756 -0.00030476678 0)
(1.0147155 -0.00032249656 0)
(1.0157096 -0.00034096374 0)
(1.0167602 -0.00036016501 0)
(1.0178695 -0.00038009309 0)
(1.0190396 -0.00040073679 0)
(1.0202727 -0.00042208 0)
(1.0215709 -0.00044410158 0)
(1.0229361 -0.00046677446 0)
(1.0243702 -0.00049006455 0)
(1.0258752 -0.0005139303 0)
(1.0274525 -0.00053832081 0)
(1.0291037 -0.00056317513 0)
(1.0308301 -0.00058841993 0)
(1.0326327 -0.00061396845 0)
(1.0345123 -0.00063971781 0)
(1.0364694 -0.00066554784 0)
(1.038504 -0.00069131833 0)
(1.0406157 -0.00071686799 0)
(1.0428036 -0.00074201262 0)
(1.0450661 -0.00076654438 0)
(1.0474011 -0.00079023149 0)
(1.0498058 -0.00081281869 0)
(1.0522764 -0.00083402848 0)
(1.0548084 -0.00085356312 0)
(1.0573962 -0.00087110723 0)
(1.0600335 -0.00088633098 0)
(1.0627129 -0.0008988936 0)
(1.0654257 -0.00090844709 0)
(1.0681626 -0.00091464013 0)
(1.0709128 -0.00091712203 0)
(1.0736648 -0.00091554687 0)
(1.0764059 -0.00090957797 0)
(1.0791224 -0.00089889258 0)
(1.0817997 -0.00088318733 0)
(1.0844224 -0.00086218392 0)
(1.0869741 -0.00083563574 0)
(1.0894378 -0.00080333456 0)
(1.0917961 -0.00076511782 0)
(1.0940309 -0.00072087565 0)
(1.0961241 -0.000670558 0)
(1.0980573 -0.00061418088 0)
(1.0998124 -0.00055183227 0)
(1.1013717 -0.00048367678 0)
(1.1027179 -0.00040995958 0)
(1.1038349 -0.00033100854 0)
(1.1047074 -0.0002472363 0)
(1.1053215 -0.00015913891 0)
(1.1056651 -6.7296741e-05 0)
(1.1057277 2.7634416e-05 0)
(1.1055013 0.00012491466 0)
(1.1049799 0.00022371914 0)
(1.1041603 0.00032314579 0)
(1.1030422 0.00042221394 0)
(1.1016281 0.00051988428 0)
(1.0999239 0.00061506339 0)
(1.0979387 0.00070662161 0)
(1.0956852 0.00079341258 0)
(1.0931795 0.0008743024 0)
(1.0904408 0.00094820334 0)
(1.0874918 0.0010141178 0)
(1.0843579 0.0010711826 0)
(1.0810667 0.0011187209 0)
(1.0776476 0.0011562842 0)
(1.0741312 0.0011836933 0)
(1.0705477 0.0012010571 0)
(1.0669271 0.0012087784 0)
(1.0632972 0.0012075301 0)
(1.0596839 0.001198214 0)
(1.0561099 0.0011818928 0)
(1.0525943 0.001159714 0)
(1.0491532 0.0011328242 0)
(1.0457988 0.0011022935 0)
(1.0425407 0.001069052 0)
(1.0393858 0.001033852 0)
(1.0363388 0.00099725284 0)
(1.0334034 0.00095963342 0)
(1.0305821 0.00092122037 0)
(1.0278772 0.00088213034 0)
(1.0252905 0.00084241261 0)
(1.0228238 0.00080208902 0)
(1.020479 0.00076118246 0)
(1.0182578 0.00071973487 0)
(1.0161617 0.00067781284 0)
(1.0141919 0.00063550521 0)
(1.0123496 0.00059291424 0)
(1.0106354 0.00055014563 0)
(1.0090495 0.00050729781 0)
(1.0075924 0.00046445501 0)
(1.0062634 0.00042168111 0)
(1.005063 0.00037901965 0)
(1.0039897 0.00033649104 0)
(1.0030447 0.0002940992 0)
(1.0022251 0.00025182652 0)
(1.0015346 0.00020964808 0)
(1.0009665 0.00016751556 0)
(1.0005311 0.00012538867 0)
(1.0002118 8.3191622e-05 0)
(1.0000351 4.0889574e-05 0)
(1.0019257 -0.00020135552 0)
(1.0022696 -0.00021375684 0)
(1.0023963 -0.00022461037 0)
(1.0026884 -0.0002384721 0)
(1.0028919 -0.00025219485 0)
(1.0031786 -0.00026795727 0)
(1.0034356 -0.00028438933 0)
(1.0037403 -0.00030249773 0)
(1.0040433 -0.00032170287 0)
(1.0043798 -0.00034248914 0)
(1.0047287 -0.00036463163 0)
(1.0051065 -0.00038838175 0)
(1.0055048 -0.00041367366 0)
(1.0059318 -0.00044065422 0)
(1.0063848 -0.00046932797 0)
(1.0068686 -0.00049979351 0)
(1.0073828 -0.0005320848 0)
(1.0079308 -0.00056627601 0)
(1.0085136 -0.00060241077 0)
(1.0091337 -0.00064054802 0)
(1.0097927 -0.00068073065 0)
(1.0104931 -0.00072300492 0)
(1.0112367 -0.00076740677 0)
(1.0120258 -0.00081396925 0)
(1.0128625 -0.00086271686 0)
(1.0137491 -0.00091366751 0)
(1.0146878 -0.00096683041 0)
(1.0156807 -0.0010222055 0)
(1.0167301 -0.0010797829 0)
(1.0178383 -0.001139541 0)
(1.0190073 -0.0012014461 0)
(1.0202393 -0.0012654499 0)
(1.0215365 -0.0013314892 0)
(1.0229008 -0.0013994827 0)
(1.0243341 -0.0014693281 0)
(1.0258382 -0.0015409009 0)
(1.0274149 -0.0016140482 0)
(1.0290656 -0.0016885874 0)
(1.0307917 -0.0017642984 0)
(1.0325941 -0.0018409213 0)
(1.0344738 -0.0019181478 0)
(1.036431 -0.0019956177 0)
(1.038466 -0.0020729114 0)
(1.0405783 -0.002149546 0)
(1.042767 -0.0022249704 0)
(1.0450306 -0.0022985627 0)
(1.047367 -0.0023696296 0)
(1.0497733 -0.0024374078 0)
(1.0522459 -0.0025010672 0)
(1.0547802 -0.0025597171 0)
(1.0573708 -0.0026124139 0)
(1.0600112 -0.0026581702 0)
(1.0626941 -0.0026959653 0)
(1.0654109 -0.0027247563 0)
(1.0681522 -0.0027434895 0)
(1.0709074 -0.0027511124 0)
(1.0736648 -0.002746586 0)
(1.0764118 -0.0027288977 0)
(1.0791346 -0.0026970764 0)
(1.0818188 -0.0026502077 0)
(1.0844486 -0.0025874518 0)
(1.0870079 -0.0025080632 0)
(1.0894795 -0.0024114106 0)
(1.0918459 -0.002296999 0)
(1.094089 -0.0021644908 0)
(1.0961905 -0.0020137274 0)
(1.098132 -0.0018447483 0)
(1.0998952 -0.0016578086 0)
(1.1014624 -0.001453394 0)
(1.1028162 -0.0012322328 0)
(1.1039403 -0.00099530343 0)
(1.1048192 -0.0007438417 0)
(1.1054392 -0.00047933942 0)
(1.1057878 -0.00020355049 0)
(1.1058547 8.1526008e-05 0)
(1.1056315 0.00037361797 0)
(1.1051125 0.00067022841 0)
(1.1042943 0.00096865167 0)
(1.1031766 0.0012659499 0)
(1.1017619 0.0015590064 0)
(1.1000562 0.0018445438 0)
(1.0980686 0.002119178 0)
(1.0958118 0.0023794766 0)
(1.093302 0.0026220472 0)
(1.0905586 0.0028436372 0)
(1.0876042 0.0030412656 0)
(1.0844643 0.0032123549 0)
(1.0811667 0.0033548853 0)
(1.077741 0.0034675199 0)
(1.0742175 0.0035497269 0)
(1.070627 0.0036018335 0)
(1.066999 0.0036250465 0)
(1.063362 0.0036213776 0)
(1.0597415 0.0035935239 0)
(1.0561605 0.0035446624 0)
(1.0526382 0.0034782265 0)
(1.0491907 0.0033976465 0)
(1.0458303 0.0033061276 0)
(1.0425667 0.0032064564 0)
(1.0394066 0.0031008901 0)
(1.0363551 0.0029911094 0)
(1.0334157 0.002878255 0)
(1.0305909 0.0027630117 0)
(1.027883 0.0026457346 0)
(1.0252938 0.0025265756 0)
(1.0228252 0.0024056036 0)
(1.0204788 0.0022828894 0)
(1.0182564 0.0021585599 0)
(1.0161594 0.0020328149 0)
(1.0141891 0.0019059204 0)
(1.0123464 0.0017781824 0)
(1.0106321 0.0016499167 0)
(1.0090463 0.0015214177 0)
(1.0075893 0.0013929368 0)
(1.0062606 0.0012646645 0)
(1.0050605 0.0011367305 0)
(1.0039876 0.0010091949 0)
(1.003043 0.00088206876 0)
(1.0022238 0.00075529763 0)
(1.0015337 0.00062880685 0)
(1.0009659 0.00050244871 0)
(1.0005308 0.00037610411 0)
(1.0002117 0.00024954045 0)
(1.0000351 0.00012265826 0)
(1.0019164 -0.00033506662 0)
(1.0022587 -0.00035572 0)
(1.0023848 -0.00037377455 0)
(1.0026756 -0.00039685559 0)
(1.0028781 -0.00041969192 0)
(1.0031635 -0.00044593431 0)
(1.0034193 -0.00047328559 0)
(1.0037227 -0.00050343327 0)
(1.0040244 -0.00053540493 0)
(1.0043595 -0.00057001245 0)
(1.0047068 -0.00060687824 0)
(1.0050831 -0.00064642356 0)
(1.0054797 -0.00068853762 0)
(1.005905 -0.00073346644 0)
(1.0063562 -0.00078121738 0)
(1.0068381 -0.00083195565 0)
(1.0073504 -0.00088573811 0)
(1.0078964 -0.00094268915 0)
(1.008477 -0.001002882 0)
(1.009095 -0.0010664158 0)
(1.0097518 -0.0011333626 0)
(1.0104499 -0.0012038006 0)
(1.0111912 -0.0012777905 0)
(1.011978 -0.0013553884 0)
(1.0128123 -0.001436636 0)
(1.0136965 -0.0015215645 0)
(1.0146327 -0.0016101901 0)
(1.0156233 -0.0017025138 0)
(1.0166704 -0.0017985203 0)
(1.0177762 -0.0018981744 0)
(1.018943 -0.0020014213 0)
(1.0201729 -0.0021081812 0)
(1.021468 -0.0022183495 0)
(1.0228305 -0.0023317915 0)
(1.0242621 -0.0024483373 0)
(1.0257647 -0.0025677797 0)
(1.0273401 -0.0026898644 0)
(1.0289898 -0.002814287 0)
(1.0307151 -0.002940681 0)
(1.0325172 -0.0030686132 0)
(1.0343967 -0.0031975697 0)
(1.0363543 -0.0033269508 0)
(1.03839 -0.0034560572 0)
(1.0405034 -0.0035840848 0)
(1.0426938 -0.0037101157 0)
(1.0449596 -0.0038331149 0)
(1.0472987 -0.0039519279 0)
(1.0497084 -0.0040652835 0)
(1.052185 -0.0041717991 0)
(1.054724 -0.0042699905 0)
(1.0573201 -0.0043582841 0)
(1.0599669 -0.0044350324 0)
(1.0626569 -0.0044985306 0)
(1.0653819 -0.0045470356 0)
(1.0681322 -0.0045787844 0)
(1.0708974 -0.0045920143 0)
(1.0736658 -0.0045849835 0)
(1.0764247 -0.0045559939 0)
(1.0791605 -0.0045034149 0)
(1.0818583 -0.0044257106 0)
(1.0845028 -0.0043214695 0)
(1.0870773 -0.0041894376 0)
(1.0895647 -0.004028552 0)
(1.0919473 -0.0038379785 0)
(1.0942069 -0.0036171466 0)
(1.096325 -0.0033657857 0)
(1.0982831 -0.0030839574 0)
(1.1000626 -0.0027720852 0)
(1.1016455 -0.0024309784 0)
(1.1030143 -0.0020618534 0)
(1.1041525 -0.001666345 0)
(1.1050444 -0.0012465186 0)
(1.105676 -0.0008048672 0)
(1.1060348 -0.0003443195 0)
(1.1061102 0.00013178712 0)
(1.1058938 0.00061966926 0)
(1.1053797 0.0011151551 0)
(1.1045644 0.0016137123 0)
(1.1034475 0.0021104251 0)
(1.1020317 0.0026000751 0)
(1.1003229 0.0030771771 0)
(1.0983304 0.0035360674 0)
(1.0960669 0.0039710036 0)
(1.0935486 0.0043763119 0)
(1.0907953 0.0047465539 0)
(1.0878297 0.0050767473 0)
(1.0846776 0.0053625851 0)
(1.0813667 0.0056006934 0)
(1.077927 0.0057888397 0)
(1.0743891 0.005926136 0)
(1.0707837 0.006013129 0)
(1.0671409 0.0060518334 0)
(1.0634891 0.0060456078 0)
(1.0598541 0.0059989553 0)
(1.0562589 0.0059171807 0)
(1.0527231 0.0058060182 0)
(1.0492628 0.0056711988 0)
(1.0458905 0.0055180803 0)
(1.0426158 0.0053513232 0)
(1.0394458 0.005174707 0)
(1.0363853 0.0049910496 0)
(1.033438 0.0048022684 0)
(1.0306064 0.0046095192 0)
(1.0278927 0.0044134058 0)
(1.0252987 0.0042141918 0)
(1.0228262 0.0040119994 0)
(1.0204767 0.0038069516 0)
(1.018252 0.0035992631 0)
(1.0161534 0.0033892685 0)
(1.0141821 0.0031774112 0)
(1.0123389 0.0029641998 0)
(1.0106245 0.0027501591 0)
(1.0090389 0.0025357768 0)
(1.0075824 0.0023214695 0)
(1.0062544 0.0021075514 0)
(1.0050551 0.0018942355 0)
(1.0039831 0.0016816182 0)
(1.0030394 0.001469715 0)
(1.002221 0.0012584312 0)
(1.0015317 0.0010476397 0)
(1.0009646 0.00083708959 0)
(1.0005301 0.00062658125 0)
(1.0002114 0.0004157198 0)
(1.0000351 0.00020434101 0)
(1.0019025 -0.00046799603 0)
(1.0022424 -0.00049684622 0)
(1.0023677 -0.0005220709 0)
(1.0026564 -0.0005543203 0)
(1.0028576 -0.00058622773 0)
(1.0031411 -0.0006228976 0)
(1.0033952 -0.00066111754 0)
(1.0036966 -0.00070324824 0)
(1.0039963 -0.0007479296 0)
(1.0043292 -0.00079629792 0)
(1.0046744 -0.00084782523 0)
(1.0050483 -0.00090310152 0)
(1.0054425 -0.00096197228 0)
(1.0058653 -0.0010247824 0)
(1.0063138 -0.001091543 0)
(1.0067929 -0.0011624861 0)
(1.0073024 -0.0012376922 0)
(1.0078454 -0.0013173365 0)
(1.008423 -0.0014015226 0)
(1.0090378 -0.0014903905 0)
(1.0096914 -0.0015840426 0)
(1.0103861 -0.0016825897 0)
(1.011124 -0.0017861184 0)
(1.0119073 -0.001894709 0)
(1.0127381 -0.0020084217 0)
(1.0136188 -0.0021273018 0)
(1.0145515 -0.0022513741 0)
(1.0155385 -0.0023806419 0)
(1.0165822 -0.0025150855 0)
(1.0176846 -0.0026546576 0)
(1.0188481 -0.0027992831 0)
(1.0200749 -0.0029488524 0)
(1.021367 -0.0031032201 0)
(1.0227266 -0.0032621995 0)
(1.0241557 -0.0034255539 0)
(1.0256561 -0.0035929941 0)
(1.0272296 -0.0037641654 0)
(1.0288777 -0.0039386423 0)
(1.0306018 -0.0041159127 0)
(1.0324032 -0.0042953711 0)
(1.0342825 -0.0044762994 0)
(1.0362405 -0.0046578594 0)
(1.0382771 -0.0048390742 0)
(1.0403922 -0.0050188209 0)
(1.042585 -0.0051958178 0)
(1.044854 -0.0053686194 0)
(1.0471972 -0.0055356141 0)
(1.0496118 -0.005695026 0)
(1.0520944 -0.0058449235 0)
(1.0546405 -0.0059832309 0)
(1.0572449 -0.0061077462 0)
(1.0599011 -0.006216161 0)
(1.062602 -0.0063060843 0)
(1.0653391 -0.0063750674 0)
(1.068103 -0.0064206304 0)
(1.0708833 -0.0064402905 0)
(1.0736681 -0.0064315905 0)
(1.076445 -0.0063921314 0)
(1.0792001 -0.0063196067 0)
(1.0819186 -0.0062118406 0)
(1.0845848 -0.0060668306 0)
(1.0871821 -0.0058827942 0)
(1.0896933 -0.0056582171 0)
(1.0921003 -0.0053919061 0)
(1.0943848 -0.0050830392 0)
(1.0965279 -0.0047312169 0)
(1.0985108 -0.0043365078 0)
(1.1003147 -0.0038994913 0)
(1.1019213 -0.003421292 0)
(1.1033128 -0.0029036097 0)
(1.1044722 -0.0023487368 0)
(1.1053836 -0.001759575 0)
(1.1060327 -0.0011396332 0)
(1.1064068 -0.00049303785 0)
(1.1064949 0.00017550258 0)
(1.1062885 0.00086065319 0)
(1.1057814 0.0015565318 0)
(1.1049703 0.0022567496 0)
(1.1038546 0.0029543869 0)
(1.1024369 0.0036420966 0)
(1.1007233 0.004312162 0)
(1.0987231 0.0049566179 0)
(1.0964493 0.0055673943 0)
(1.0939182 0.0061365217 0)
(1.0911499 0.0066563661 0)
(1.0881673 0.0071199386 0)
(1.0849964 0.0075212005 0)
(1.0816656 0.0078554254 0)
(1.0782048 0.0081194874 0)
(1.074645 0.008312147 0)
(1.0710174 0.0084341734 0)
(1.0673522 0.0084883941 0)
(1.0636781 0.0084795171 0)
(1.0600213 0.008413856 0)
(1.056405 0.0082988476 0)
(1.052849 0.0081425342 0)
(1.0493695 0.0079529564 0)
(1.0459793 0.0077376372 0)
(1.0426883 0.0075031264 0)
(1.0395033 0.0072547441 0)
(1.0364295 0.0069964646 0)
(1.0334705 0.0067310021 0)
(1.0306288 0.006460002 0)
(1.0279065 0.0061843347 0)
(1.0253054 0.0059043889 0)
(1.0228271 0.0056203516 0)
(1.0204732 0.0053324061 0)
(1.0182451 0.0050408596 0)
(1.0161441 0.0047461832 0)
(1.0141713 0.0044489977 0)
(1.0123274 0.0041500127 0)
(1.0106128 0.0038499587 0)
(1.0090276 0.0035495132 0)
(1.0075719 0.003249253 0)
(1.006245 0.0029496114 0)
(1.0050469 0.0026508799 0)
(1.0039762 0.002353186 0)
(1.0030338 0.0020565449 0)
(1.0022168 0.0017608162 0)
(1.0015287 0.001465816 0)
(1.0009627 0.0011711851 0)
(1.000529 0.00087663899 0)
(1.0002109 0.00058161602 0)
(1.000035 0.00028588401 0)
(1.0018841 -0.0005998517 0)
(1.0022209 -0.00063683962 0)
(1.002345 -0.00066918488 0)
(1.0026311 -0.00071054215 0)
(1.0028305 -0.00075146109 0)
(1.0031114 -0.00079849331 0)
(1.0033633 -0.00084751506 0)
(1.0036621 -0.00090155824 0)
(1.0039591 -0.00095887662 0)
(1.0042893 -0.0010209304 0)
(1.0046315 -0.0010870422 0)
(1.0050024 -0.0011579708 0)
(1.0053934 -0.0012335187 0)
(1.0058128 -0.0013141304 0)
(1.0062579 -0.0013998213 0)
(1.0067334 -0.0014908911 0)
(1.0072391 -0.0015874449 0)
(1.0077782 -0.0016897098 0)
(1.0083518 -0.0017978211 0)
(1.0089624 -0.0019119607 0)
(1.0096118 -0.002032263 0)
(1.0103021 -0.0021588727 0)
(1.0110356 -0.0022919041 0)
(1.0118143 -0.0024314632 0)
(1.0126406 -0.0025776307 0)
(1.0135166 -0.0027304679 0)
(1.0144447 -0.00289001 0)
(1.0154271 -0.0030562645 0)
(1.0164662 -0.0032292095 0)
(1.0175641 -0.0034087875 0)
(1.0187233 -0.0035949053 0)
(1.0199458 -0.0037874249 0)
(1.021234 -0.0039861626 0)
(1.0225899 -0.0041908809 0)
(1.0240155 -0.0044012782 0)
(1.0255128 -0.0046169852 0)
(1.0270836 -0.0048375477 0)
(1.0287295 -0.0050624211 0)
(1.030452 -0.0052909489 0)
(1.0322523 -0.0055223547 0)
(1.0341313 -0.0057557176 0)
(1.0360896 -0.0059899629 0)
(1.0381275 -0.0062238379 0)
(1.0402446 -0.0064559026 0)
(1.0424404 -0.0066845139 0)
(1.0447136 -0.0069078184 0)
(1.0470621 -0.0071237487 0)
(1.0494834 -0.0073300262 0)
(1.0519739 -0.0075241708 0)
(1.0545295 -0.0077035148 0)
(1.0571449 -0.0078652251 0)
(1.0598139 -0.0080063278 0)
(1.0625292 -0.0081237379 0)
(1.0652827 -0.0082142911 0)
(1.0680649 -0.0082747773 0)
(1.0708653 -0.0083019769 0)
(1.0736723 -0.0082926987 0)
(1.0764733 -0.0082438217 0)
(1.0792542 -0.0081523403 0)
(1.0820003 -0.0080154153 0)
(1.0846958 -0.0078304283 0)
(1.0873238 -0.0075950446 0)
(1.0898667 -0.0073072752 0)
(1.0923064 -0.0069655468 0)
(1.0946241 -0.0065687665 0)
(1.0968006 -0.0061163899 0)
(1.0988168 -0.00560848 0)
(1.1006534 -0.005045764 0)
(1.1022917 -0.0044296774 0)
(1.1037134 -0.0037624042 0)
(1.1049012 -0.0030468993 0)
(1.1058388 -0.0022869101 0)
(1.1065113 -0.0014869748 0)
(1.1069057 -0.00065243323 0)
(1.1070108 0.00021061607 0)
(1.1068178 0.0010952676 0)
(1.1063203 0.0019938984 0)
(1.1055147 0.0028982213 0)
(1.1044005 0.0037992705 0)
(1.1029802 0.0046875231 0)
(1.1012599 0.0055529844 0)
(1.0992493 0.0063853426 0)
(1.0969613 0.0071741567 0)
(1.0944128 0.0079091238 0)
(1.0916239 0.0085803808 0)
(1.0886182 0.0091789058 0)
(1.0854219 0.0096969077 0)
(1.0820639 0.010128295 0)
(1.0785744 0.010469041 0)
(1.0749851 0.010717556 0)
(1.0713273 0.010874834 0)
(1.0676319 0.010944528 0)
(1.0639278 0.01093271 0)
(1.0602416 0.010847521 0)
(1.056597 0.010698554 0)
(1.0530139 0.010496183 0)
(1.0495089 0.010250789 0)
(1.046095 0.0099720882 0)
(1.042782 0.009668553 0)
(1.0395773 0.009347076 0)
(1.0364859 0.0090128195 0)
(1.0335114 0.0086693239 0)
(1.0306563 0.0083187515 0)
(1.0279227 0.0079622617 0)
(1.0253123 0.0076003878 0)
(1.0228265 0.0072333959 0)
(1.0204667 0.0068615397 0)
(1.0182344 0.0064852256 0)
(1.0161304 0.0061050643 0)
(1.0141558 0.005721854 0)
(1.012311 0.0053365031 0)
(1.0105964 0.0049499441 0)
(1.0090118 0.004563039 0)
(1.0075572 0.004176519 0)
(1.0062318 0.0037909298 0)
(1.0050355 0.0034066343 0)
(1.0039667 0.0030237844 0)
(1.0030262 0.0026423873 0)
(1.002211 0.00226225 0)
(1.0015245 0.0018831248 0)
(1.00096 0.0015045365 0)
(1.0005275 0.0011261101 0)
(1.0002103 0.00074710752 0)
(1.0000349 0.00036722497 0)
(1.0018614 -0.00073032654 0)
(1.0021942 -0.00077537256 0)
(1.0023169 -0.00081477727 0)
(1.0025998 -0.00086516111 0)
(1.0027969 -0.00091501636 0)
(1.0030747 -0.00097232446 0)
(1.0033238 -0.0010320618 0)
(1.0036193 -0.0010979242 0)
(1.0039132 -0.0011677843 0)
(1.0042398 -0.0012434236 0)
(1.0045786 -0.0013240175 0)
(1.0049456 -0.0014104929 0)
(1.0053327 -0.0015026108 0)
(1.005748 -0.001600915 0)
(1.0061889 -0.0017054268 0)
(1.0066599 -0.0018165142 0)
(1.007161 -0.001934308 0)
(1.0076953 -0.002059088 0)
(1.0082639 -0.0021910225 0)
(1.0088695 -0.0023303371 0)
(1.0095135 -0.0024771991 0)
(1.0101985 -0.0026317892 0)
(1.0109265 -0.0027942509 0)
(1.0116997 -0.002964718 0)
(1.0125203 -0.0031432933 0)
(1.0133906 -0.0033300562 0)
(1.014313 -0.0035250545 0)
(1.0152897 -0.0037283023 0)
(1.0163231 -0.0039397775 0)
(1.0174155 -0.0041594148 0)
(1.0185692 -0.0043871051 0)
(1.0197866 -0.0046226845 0)
(1.0210697 -0.0048659334 0)
(1.0224209 -0.005116566 0)
(1.0238422 -0.0053742181 0)
(1.0253357 -0.0056384428 0)
(1.026903 -0.0059086892 0)
(1.0285461 -0.0061842959 0)
(1.0302664 -0.006464465 0)
(1.0320652 -0.0067482522 0)
(1.0339436 -0.007034537 0)
(1.0359022 -0.0073220116 0)
(1.0379413 -0.0076091513 0)
(1.0400609 -0.0078942032 0)
(1.0422604 -0.0081751668 0)
(1.0445386 -0.0084497848 0)
(1.0468936 -0.0087155383 0)
(1.049323 -0.008969649 0)
(1.0518235 -0.0092090902 0)
(1.0543908 -0.009430603 0)
(1.0570199 -0.009630721 0)
(1.0597048 -0.0098058004 0)
(1.0624383 -0.0099520545 0)
(1.0652123 -0.010065592 0)
(1.0680174 -0.010142456 0)
(1.0708431 -0.010178673 0)
(1.0736779 -0.010170294 0)
(1.076509 -0.01011345 0)
(1.0793224 -0.010004408 0)
(1.0821032 -0.0098396319 0)
(1.0848354 -0.0096158569 0)
(1.0875018 -0.0093301615 0)
(1.0900847 -0.0089800489 0)
(1.0925654 -0.008563533 0)
(1.0949248 -0.0080792195 0)
(1.0971434 -0.0075263922 0)
(1.0992013 -0.0069050849 0)
(1.1010791 -0.0062161548 0)
(1.1027573 -0.0054613367 0)
(1.104217 -0.0046432946 0)
(1.1054405 -0.0037656498 0)
(1.1064109 -0.0028330083 0)
(1.1071129 -0.0018509607 0)
(1.1075329 -0.00082609238 0)
(1.1076594 0.00023406554 0)
(1.1074831 0.0013209897 0)
(1.1069974 0.002425263 0)
(1.1061986 0.0035366456 0)
(1.105086 0.0046440725 0)
(1.1036623 0.0057357901 0)
(1.1019334 0.006799474 0)
(1.0999094 0.0078224163 0)
(1.0976034 0.0087917608 0)
(1.0950326 0.0096948335 0)
(1.0922177 0.010519511 0)
(1.0891826 0.011254716 0)
(1.0859541 0.011890888 0)
(1.0825615 0.012420566 0)
(1.0790358 0.012838818 0)
(1.0754091 0.013143708 0)
(1.0717133 0.013336467 0)
(1.0679797 0.013421582 0)
(1.0642378 0.013406504 0)
(1.0605148 0.013301224 0)
(1.0568345 0.013117507 0)
(1.0532175 0.012868089 0)
(1.0496805 0.012565712 0)
(1.0462369 0.012222325 0)
(1.0428967 0.011848352 0)
(1.0396673 0.011452295 0)
(1.036554 0.011040541 0)
(1.0335602 0.010617492 0)
(1.0306886 0.010185859 0)
(1.0279411 0.0097471188 0)
(1.0253191 0.0093019735 0)
(1.0228241 0.0088507867 0)
(1.0204572 0.0083938957 0)
(1.0182196 0.0079318138 0)
(1.016112 0.007465295 0)
(1.0141353 0.0069953149 0)
(1.0122896 0.0065229776 0)
(1.0105751 0.0060494123 0)
(1.0089914 0.0055756583 0)
(1.0075384 0.0051025935 0)
(1.0062149 0.0046308673 0)
(1.0050209 0.004160905 0)
(1.0039545 0.0036928733 0)
(1.0030164 0.0032267629 0)
(1.0022036 0.0027623187 0)
(1.0015192 0.0022992208 0)
(1.0009565 0.0018368686 0)
(1.0005256 0.0013747894 0)
(1.0002095 0.00091205906 0)
(1.0000348 0.00044829746 0)
(1.0018342 -0.00085913481 0)
(1.0021624 -0.00091215118 0)
(1.0022834 -0.00095854114 0)
(1.0025624 -0.0010178586 0)
(1.0027569 -0.0010765607 0)
(1.0030309 -0.0011440448 0)
(1.0032767 -0.0012143965 0)
(1.0035684 -0.0012919702 0)
(1.0038585 -0.0013742618 0)
(1.004181 -0.0014633715 0)
(1.0045155 -0.00155833 0)
(1.0048781 -0.0016602318 0)
(1.0052605 -0.001768798 0)
(1.005671 -0.0018846722 0)
(1.0061067 -0.0020078826 0)
(1.0065725 -0.0021388665 0)
(1.0070681 -0.0022777819 0)
(1.0075968 -0.0024249628 0)
(1.0081595 -0.0025806121 0)
(1.008759 -0.0027450004 0)
(1.0093969 -0.0029183303 0)
(1.0100755 -0.0031008203 0)
(1.0107969 -0.0032926451 0)
(1.0115635 -0.0034939686 0)
(1.0123774 -0.0037049184 0)
(1.0132409 -0.0039255945 0)
(1.0141565 -0.0041560599 0)
(1.0151264 -0.0043963378 0)
(1.0161531 -0.0046464092 0)
(1.0172389 -0.0049062035 0)
(1.0183861 -0.0051755991 0)
(1.0195972 -0.0054544093 0)
(1.0208743 -0.0057423814 0)
(1.0222198 -0.0060391849 0)
(1.0236359 -0.0063443962 0)
(1.0251245 -0.0066574942 0)
(1.0266877 -0.0069778349 0)
(1.0283272 -0.0073046437 0)
(1.0300447 -0.0076369852 0)
(1.0318416 -0.007973751 0)
(1.0337189 -0.0083136252 0)
(1.0356777 -0.0086550711 0)
(1.0377182 -0.0089962961 0)
(1.0398405 -0.0093352388 0)
(1.0420442 -0.0096695453 0)
(1.0443282 -0.0099965579 0)
(1.0466909 -0.010313309 0)
(1.0491299 -0.010616522 0)
(1.0516421 -0.010902624 0)
(1.0542235 -0.011167762 0)
(1.0568691 -0.011407831 0)
(1.0595731 -0.01161851 0)
(1.0623284 -0.011795298 0)
(1.065127 -0.01193356 0)
(1.0679597 -0.012028575 0)
(1.0708159 -0.012075588 0)
(1.0736842 -0.012069865 0)
(1.0765517 -0.012006757 0)
(1.0794043 -0.011881769 0)
(1.082227 -0.011690634 0)
(1.0850034 -0.011429398 0)
(1.0877163 -0.011094517 0)
(1.0903474 -0.010682947 0)
(1.0928777 -0.010192253 0)
(1.0952876 -0.0096207055 0)
(1.0975569 -0.0089673871 0)
(1.0996655 -0.0082322784 0)
(1.101593 -0.0074163482 0)
(1.1033194 -0.0065216198 0)
(1.1048253 -0.005551234 0)
(1.106092 -0.0045094838 0)
(1.1071022 -0.0034018479 0)
(1.1078398 -0.002234992 0)
(1.1082909 -0.001016777 0)
(1.1084432 0.00024379161 0)
(1.1082872 0.0015365281 0)
(1.1078158 0.0028501664 0)
(1.1070252 0.0041724464 0)
(1.1059145 0.0054901375 0)
(1.1044863 0.0067891817 0)
(1.1027469 0.0080548531 0)
(1.1007063 0.0092719781 0)
(1.0983782 0.01042522 0)
(1.0957801 0.011499475 0)
(1.0929333 0.012480311 0)
(1.0898621 0.013354556 0)
(1.0865941 0.014110854 0)
(1.0831593 0.014740353 0)
(1.0795894 0.015237211 0)
(1.075917 0.015599151 0)
(1.0721748 0.015827646 0)
(1.0683948 0.015928043 0)
(1.0646071 0.015909191 0)
(1.0608393 0.015782963 0)
(1.0571159 0.015563334 0)
(1.0534579 0.015265439 0)
(1.0498823 0.014904428 0)
(1.046403 0.014494524 0)
(1.0430301 0.014048154 0)
(1.0397712 0.013575479 0)
(1.0366317 0.013084156 0)
(1.033615 0.012579493 0)
(1.0307237 0.012064791 0)
(1.0279596 0.011541881 0)
(1.0253241 0.011011659 0)
(1.0228183 0.010474609 0)
(1.0204431 0.0099311677 0)
(1.0181994 0.0093819646 0)
(1.0160879 0.0088279011 0)
(1.0141088 0.0082701296 0)
(1.0122622 0.0077099461 0)
(1.0105481 0.0071486697 0)
(1.0089657 0.0065875088 0)
(1.0075147 0.006027478 0)
(1.0061938 0.0054693194 0)
(1.0050026 0.0049135097 0)
(1.0039393 0.0043602191 0)
(1.0030042 0.0038094102 0)
(1.0021943 0.0032607543 0)
(1.0015126 0.0027138488 0)
(1.0009523 0.0021679555 0)
(1.0005232 0.0016224948 0)
(1.0002086 0.0010763431 0)
(1.0000346 0.00052903751 0)
(1.0018028 -0.00098597888 0)
(1.0021256 -0.0010468616 0)
(1.0022447 -0.0011001489 0)
(1.0025192 -0.0011682893 0)
(1.0027106 -0.0012357325 0)
(1.0029803 -0.0013132733 0)
(1.0032223 -0.0013941196 0)
(1.0035095 -0.0014832758 0)
(1.0037952 -0.0015778669 0)
(1.0041129 -0.0016803091 0)
(1.0044426 -0.0017894913 0)
(1.0047999 -0.0019066744 0)
(1.005177 -0.0020315414 0)
(1.0055818 -0.0021648362 0)
(1.0060117 -0.0023065955 0)
(1.0064714 -0.0024573265 0)
(1.0069607 -0.0026172163 0)
(1.0074828 -0.0027866541 0)
(1.0080388 -0.0029658793 0)
(1.0086312 -0.0031552094 0)
(1.0092619 -0.0033548841 0)
(1.0099332 -0.0035651617 0)
(1.0106471 -0.0037862509 0)
(1.011406 -0.0040183479 0)
(1.0122121 -0.0042616075 0)
(1.0130678 -0.0045161532 0)
(1.0139755 -0.0047820659 0)
(1.0149375 -0.0050593814 0)
(1.0159563 -0.0053480863 0)
(1.0170344 -0.0056481088 0)
(1.0181741 -0.0059593177 0)
(1.0193777 -0.0062815073 0)
(1.0206478 -0.0066143958 0)
(1.0219867 -0.0069576118 0)
(1.0233964 -0.0073106769 0)
(1.0248794 -0.007673 0)
(1.0264375 -0.008043849 0)
(1.0280727 -0.0084223414 0)
(1.0297867 -0.0088074092 0)
(1.0315811 -0.0091977857 0)
(1.0334572 -0.0095919658 0)
(1.0354158 -0.0099881897 0)
(1.0374576 -0.010384403 0)
(1.0395829 -0.010778243 0)
(1.0417912 -0.011167007 0)
(1.0440818 -0.011547642 0)
(1.0464532 -0.011916737 0)
(1.0489033 -0.012270519 0)
(1.0514291 -0.012604869 0)
(1.0540267 -0.012915339 0)
(1.0566915 -0.013197181 0)
(1.0594176 -0.013445385 0)
(1.0621984 -0.013654725 0)
(1.0650257 -0.013819803 0)
(1.0678906 -0.013935111 0)
(1.0707825 -0.013995086 0)
(1.07369 -0.013994176 0)
(1.0766001 -0.013926915 0)
(1.0794987 -0.013788004 0)
(1.0823705 -0.013572399 0)
(1.0851989 -0.013275415 0)
(1.0879663 -0.012892832 0)
(1.090654 -0.012421014 0)
(1.0932427 -0.011857028 0)
(1.0957119 -0.011198768 0)
(1.0980412 -0.010445074 0)
(1.1002094 -0.0095958387 0)
(1.1021956 -0.008652118 0)
(1.1039789 -0.0076162063 0)
(1.1055391 -0.0064917149 0)
(1.1068569 -0.0052836136 0)
(1.1079141 -0.0039982709 0)
(1.1086939 -0.0026434583 0)
(1.1091815 -0.0012283542 0)
(1.1093643 0.00023650306 0)
(1.1092322 0.0017392045 0)
(1.1087777 0.0032665614 0)
(1.1079966 0.0048042094 0)
(1.1068879 0.0063366732 0)
(1.1054543 0.0078475047 0)
(1.1037022 0.0093194941 0)
(1.1016417 0.010734923 0)
(1.0992872 0.0120759 0)
(1.0966565 0.013324831 0)
(1.0937716 0.014464918 0)
(1.0906575 0.015480857 0)
(1.0873426 0.016359463 0)
(1.0838577 0.017090482 0)
(1.0802352 0.017667155 0)
(1.0765086 0.01808687 0)
(1.0727116 0.018351359 0)
(1.0688767 0.018466849 0)
(1.0650348 0.018443619 0)
(1.0612142 0.01829546 0)
(1.0574401 0.018038591 0)
(1.0537339 0.017690595 0)
(1.0501132 0.017269076 0)
(1.046592 0.016790586 0)
(1.0431809 0.016269607 0)
(1.0398877 0.015718012 0)
(1.0367176 0.015144784 0)
(1.0336744 0.014556189 0)
(1.0307604 0.013956162 0)
(1.0279773 0.013346927 0)
(1.0253263 0.012729609 0)
(1.0228081 0.012104838 0)
(1.0204236 0.011473167 0)
(1.0181732 0.010835351 0)
(1.0160572 0.010192443 0)
(1.0140757 0.0095457724 0)
(1.0122284 0.0088968212 0)
(1.0105149 0.0082470903 0)
(1.0089344 0.0075979464 0)
(1.0074859 0.0069505286 0)
(1.0061682 0.0063056589 0)
(1.0049806 0.005663852 0)
(1.003921 0.0050252677 0)
(1.0029896 0.0043898275 0)
(1.0021832 0.0037571152 0)
(1.0015047 0.0031266331 0)
(1.0009472 0.0024974923 0)
(1.0005203 0.0018689954 0)
(1.0002074 0.001239805 0)
(1.0000344 0.00060936861 0)
(1.0017672 -0.0011105777 0)
(1.0020839 -0.0011792122 0)
(1.0022008 -0.0012392972 0)
(1.0024701 -0.0013161368 0)
(1.002658 -0.0013922017 0)
(1.0029228 -0.0014796657 0)
(1.0031605 -0.0015708714 0)
(1.0034426 -0.0016714657 0)
(1.0037234 -0.0017782088 0)
(1.0040356 -0.0018938292 0)
(1.0043598 -0.0020170776 0)
(1.0047112 -0.0021493804 0)
(1.0050823 -0.0022903847 0)
(1.0054807 -0.0024409348 0)
(1.0059039 -0.0026010776 0)
(1.0063567 -0.0027713917 0)
(1.0068388 -0.0029520945 0)
(1.0073534 -0.0031436326 0)
(1.0079017 -0.0033462836 0)
(1.0084862 -0.0035604141 0)
(1.0091088 -0.0037863031 0)
(1.0097717 -0.0040242513 0)
(1.010477 -0.0042745038 0)
(1.0112271 -0.0045372921 0)
(1.0120244 -0.0048128011 0)
(1.0128712 -0.0051011811 0)
(1.0137698 -0.0054025344 0)
(1.0147229 -0.0057169124 0)
(1.0157327 -0.0060443116 0)
(1.0168019 -0.0063846624 0)
(1.0179329 -0.0067378283 0)
(1.0191281 -0.007103589 0)
(1.02039 -0.0074816382 0)
(1.0217211 -0.0078715685 0)
(1.0231236 -0.0082728515 0)
(1.0245998 -0.0086848322 0)
(1.026152 -0.0091066958 0)
(1.0277821 -0.009537458 0)
(1.0294919 -0.0099759251 0)
(1.0312833 -0.010420679 0)
(1.0331575 -0.010870032 0)
(1.0351158 -0.011322008 0)
(1.0371588 -0.0117743 0)
(1.0392871 -0.012224247 0)
(1.0415005 -0.012668807 0)
(1.0437983 -0.013104536 0)
(1.0461795 -0.013527582 0)
(1.0486419 -0.013933678 0)
(1.0511829 -0.01431816 0)
(1.0537989 -0.014675979 0)
(1.0564854 -0.015001735 0)
(1.0592368 -0.015289722 0)
(1.0620466 -0.015533967 0)
(1.0649068 -0.015728292 0)
(1.0678085 -0.015866372 0)
(1.0707413 -0.015941803 0)
(1.0736937 -0.015948179 0)
(1.0766528 -0.015879173 0)
(1.0796042 -0.015728636 0)
(1.0825325 -0.015490696 0)
(1.0854208 -0.015159881 0)
(1.088251 -0.014731245 0)
(1.0910042 -0.0142005 0)
(1.0936601 -0.013564166 0)
(1.0961981 -0.012819707 0)
(1.0985966 -0.011965677 0)
(1.1008338 -0.011001847 0)
(1.1028879 -0.0099293258 0)