/*--------------------------------*- C++ -*----------------------------------*\
| =========                 |                                                 |
| \\      /  F ield         | foam-extend: Open Source CFD                    |
|  \\    /   O peration     | Version:     4.1                                |
|   \\  /    A nd           | Web:         http://www.foam-extend.org         |
|    \\/     M anipulation  |                                                 |
\*---------------------------------------------------------------------------*/
FoamFile
{
    version     2.0;
    format      ascii;
    class       volScalarField;
    location    "0";
    object      divFlux;
}
// * * * * * * * * * * * * * * * * * * * * * * * * * * * * * * * * * * * * * //

dimensions      [0 0 -1 0 0 0 0];

internalField   nonuniform List<scalar> 
16796
(
0
6.8042324e-09
1.4933555e-08
1.1436356e-08
2.8387011e-08
-1.4463397e-08
3.7462038e-08
-3.7465306e-09
3.1990661e-08
-4.1553508e-09
4.8330331e-08
5.656777e-09
4.0310866e-08
3.7166235e-09
5.5971837e-08
1.346927e-08
4.839139e-08
1.2302858e-08
6.4941022e-08
2.2562648e-08
5.7152058e-08
2.0624006e-08
7.2570748e-08
3.0330286e-08
6.5432119e-08
3.005751e-08
8.3107537e-08
4.1633527e-08
7.6731761e-08
4.1172883e-08
9.340329e-08
5.2012494e-08
8.7301887e-08
5.2729291e-08
1.056052e-07
6.4957871e-08
1.0011127e-07
6.5606384e-08
1.1774571e-07
7.7713156e-08
1.1341436e-07
8.0612429e-08
1.3379552e-07
9.5226915e-08
1.3112785e-07
9.902481e-08
1.5153925e-07
1.1410081e-07
1.5059851e-07
1.2067626e-07
1.7412526e-07
1.3884243e-07
1.7585553e-07
1.4760686e-07
2.0081865e-07
1.678962e-07
2.061803e-07
1.8140916e-07
2.360308e-07
2.0646765e-07
2.4560813e-07
2.2341468e-07
2.77549e-07
2.5091857e-07
2.9086422e-07
2.72297e-07
3.2672355e-07
3.0348309e-07
3.4323527e-07
3.2701944e-07
3.7934568e-07
3.5851662e-07
3.9710073e-07
3.8323498e-07
4.328868e-07
4.1348584e-07
4.4824197e-07
4.3379173e-07
4.7659223e-07
4.5612018e-07
4.8463267e-07
4.6843816e-07
5.0306343e-07
4.8018286e-07
5.0007462e-07
4.798244e-07
5.0357269e-07
4.7721395e-07
4.881293e-07
4.6473539e-07
4.7910027e-07
4.5035875e-07
4.5305878e-07
4.2684089e-07
4.3242446e-07
4.0259752e-07
3.995975e-07
3.7361843e-07
3.7457013e-07
3.4689411e-07
3.4164342e-07
3.183674e-07
3.1754813e-07
2.9409558e-07
2.8915927e-07
2.704127e-07
2.6988635e-07
2.514499e-07
2.4760623e-07
2.3315001e-07
2.3271471e-07
2.1864553e-07
2.1572073e-07
2.0508848e-07
2.0459635e-07
1.9401238e-07
1.9087135e-07
1.8212542e-07
1.7919209e-07
1.6992549e-07
1.6698939e-07
1.6680154e-07
1.7910673e-07
1.9404368e-07
1.1793807e-08
2.4536371e-08
3.305043e-08
-4.5027451e-11
5.7920912e-08
-1.6398783e-08
5.4531708e-08
2.6193718e-09
7.3016167e-08
1.2159134e-09
7.1300082e-08
1.7879905e-08
8.7276931e-08
1.5282482e-08
8.5392783e-08
3.2526924e-08
1.0249253e-07
3.111683e-08
1.013975e-07
4.8200744e-08
1.1720367e-07
4.5500898e-08
1.1558821e-07
6.3512723e-08
1.3401096e-07
6.4122469e-08
1.3534826e-07
8.3654347e-08
1.5329219e-07
8.3236736e-08
1.5392363e-07
1.0308778e-07
1.7351783e-07
1.0510721e-07
1.7645346e-07
1.2615856e-07
1.9573132e-07
1.2788467e-07
1.9913943e-07
1.5074322e-07
2.2178094e-07
1.5689207e-07
2.2955448e-07
1.8279189e-07
2.5329817e-07
1.9001248e-07
2.6281311e-07
2.1872555e-07
2.9066399e-07
2.3140559e-07
3.0590465e-07
2.6483589e-07
3.369875e-07
2.8135508e-07
3.5709249e-07
3.2080923e-07
3.9546122e-07
3.4611952e-07
4.2443337e-07
3.928373e-07
4.6779941e-07
4.234061e-07
5.024524e-07
4.7609297e-07
5.5218957e-07
5.1423075e-07
5.9399096e-07
5.7191843e-07
6.4608532e-07
6.1235913e-07
6.8967701e-07
6.7091933e-07
7.4190224e-07
7.1162008e-07
7.8370292e-07
7.6454523e-07
8.2622341e-07
7.942786e-07
8.5507294e-07
8.321755e-07
8.8147595e-07
8.4578373e-07
8.9202854e-07
8.6209772e-07
8.945223e-07
8.5193636e-07
8.8072906e-07
8.436911e-07
8.606239e-07
8.1310058e-07
8.265947e-07
7.8377832e-07
7.8636881e-07
7.3541534e-07
7.3626888e-07
6.9177956e-07
6.8618916e-07
6.3758976e-07
6.3258659e-07
5.9162665e-07
5.833018e-07
5.4110707e-07
5.3518088e-07
5.0121832e-07
4.9415386e-07
4.6067804e-07
4.5636198e-07
4.2989087e-07
4.2431743e-07
3.9866271e-07
3.9556436e-07
3.7564559e-07
3.7107631e-07
3.5203669e-07
3.4889296e-07
3.3305112e-07
3.2671501e-07
3.1120905e-07
3.0731406e-07
2.9970049e-07
3.0402237e-07
3.0918047e-07
3.1294173e-07
1.4546305e-07
9.2751429e-09
1.4889257e-08
3.7817613e-08
-2.9692927e-09
4.606091e-08
-2.5277216e-08
5.9676058e-08
3.5140728e-09
6.1671976e-08
-8.5482643e-09
7.5053306e-08
1.7359614e-08
7.45254e-08
4.0968009e-09
8.7686598e-08
3.0524336e-08
8.8263672e-08
1.8403463e-08
1.0209646e-07
4.4691832e-08
1.0156944e-07
3.1411948e-08
1.1485538e-07
5.8452719e-08
1.167065e-07
4.8163417e-08
1.3251994e-07
7.6563357e-08
1.3408245e-07
6.5403802e-08
1.49155e-07
9.4034763e-08
1.5234297e-07
8.5145492e-08
1.6930053e-07
1.1480426e-07
1.7240012e-07
1.0571831e-07
1.8955728e-07
1.3686064e-07
1.9587879e-07
1.3186175e-07
2.1666092e-07
1.6565734e-07
2.2432321e-07
1.6179721e-07
2.4636275e-07
1.9797944e-07
2.5811837e-07
1.9926117e-07
2.8489531e-07
2.395539e-07
3.0007527e-07
2.4456524e-07
3.3077126e-07
2.9005673e-07
3.5309699e-07
3.0335558e-07
3.9124394e-07
3.5525004e-07
4.1888991e-07
3.7380456e-07
4.6162732e-07
4.3088071e-07
4.9594528e-07
4.5689748e-07
5.4451947e-07
5.1831155e-07
5.8205811e-07
5.4714695e-07
6.3161743e-07
6.0909421e-07
6.7042501e-07
6.3898632e-07
7.1764136e-07
6.9556315e-07
7.4890649e-07
7.1641256e-07
7.836369e-07
7.5892995e-07
8.014362e-07
7.6599153e-07
8.1866203e-07
7.8827317e-07
8.1577281e-07
7.7449281e-07
8.0990469e-07
7.7356524e-07
7.8707534e-07
7.4168159e-07
7.6175937e-07
7.2058892e-07
7.2114229e-07
6.7291165e-07
6.801141e-07
6.377117e-07
6.3079118e-07
5.848691e-07
5.8550499e-07
5.4652386e-07
5.3719753e-07
4.9724052e-07
4.9586937e-07
4.6356556e-07
4.55511e-07
4.2365977e-07
4.2279485e-07
3.9759269e-07
3.9120269e-07
3.6671165e-07
3.6600037e-07
3.4719975e-07
3.4202446e-07
3.2373027e-07
3.2225094e-07
3.074419e-07
3.0077576e-07
2.8537223e-07
2.8155122e-07
2.7419371e-07
2.7962518e-07
2.8929566e-07
2.8286567e-07
1.6088641e-07
1.0048315e-08
1.2765669e-08
3.3700044e-08
-6.3062104e-09
4.8725966e-08
-2.5740898e-08
5.4799407e-08
1.2285498e-09
6.4573021e-08
-9.4293695e-09
6.9430671e-08
1.423861e-08
7.6544783e-08
2.3103311e-09
8.1143947e-08
2.6464805e-08
8.9337188e-08
1.5643791e-08
9.4521207e-08
3.9530623e-08
1.0144667e-07
2.7402074e-08
1.0599289e-07
5.193715e-08
1.1516566e-07
4.265146e-08
1.220356e-07
6.8309071e-08
1.3067219e-07
5.7948635e-08
1.3666699e-07
8.3673542e-08
1.4671363e-07
7.5369118e-08
1.543511e-07
1.018072e-07
1.6393117e-07
9.297892e-08
1.7152997e-07
1.2061339e-07
1.8397224e-07
1.1553467e-07
1.9485454e-07
1.4539726e-07
2.0814344e-07
1.4105523e-07
2.200152e-07
1.7295307e-07
2.3692088e-07
1.7335068e-07
2.5319041e-07
2.0888139e-07
2.7289875e-07
2.125349e-07
2.9282452e-07
2.5288313e-07
3.1912776e-07
2.644237e-07
3.4625197e-07
3.1077374e-07
3.7730644e-07
3.2724421e-07
4.090389e-07
3.7863156e-07
4.4636063e-07
4.0243623e-07
4.8412051e-07
4.5814872e-07
5.2436347e-07
4.8482894e-07
5.6367323e-07
5.4142168e-07
6.0517233e-07
5.6954843e-07
6.430453e-07
6.2138673e-07
6.7717976e-07
6.4115213e-07
7.039481e-07
6.7999935e-07
7.2510749e-07
6.8696136e-07
7.3604844e-07
7.068403e-07
7.3707838e-07
6.939789e-07
7.2681739e-07
6.9211102e-07
7.0859144e-07
6.6227724e-07
6.8071484e-07
6.4158859e-07
6.4522182e-07
5.9688019e-07
6.0332726e-07
5.6319667e-07
5.5940292e-07
5.1394744e-07
5.1447095e-07
4.7792523e-07
4.7158485e-07
4.3251124e-07
4.3145303e-07
4.0147939e-07
3.9624434e-07
3.6545433e-07
3.6502187e-07
3.4202467e-07
3.3798472e-07
3.1451224e-07
3.1431593e-07
2.9722807e-07
2.9399031e-07
2.7655819e-07
2.7546008e-07
2.619712e-07
2.5667072e-07
2.4175653e-07
2.3772783e-07
2.3031911e-07
2.3598101e-07
2.4855924e-07
2.4706271e-07
1.3563312e-07
1.2139491e-08
1.476178e-08
2.3846307e-08
-2.3401983e-08
6.0643308e-08
-1.1837468e-08
4.9581591e-08
-1.2429721e-08
7.8636548e-08
5.8264621e-09
6.5176102e-08
1.4274308e-09
9.138362e-08
1.8365221e-08
7.7791842e-08
1.4687029e-08
1.053185e-07
3.2896323e-08
9.2361214e-08
2.8864869e-08
1.1835155e-07
4.5556867e-08
1.0488573e-07
4.2501868e-08
1.3341828e-07
6.2217479e-08
1.2233238e-07
6.0216289e-08
1.5005078e-07
7.8650659e-08
1.3832054e-07
7.7138794e-08
1.676774e-07
9.7735456e-08
1.577729e-07
9.7030574e-08
1.8635094e-07
1.1681833e-07
1.767394e-07
1.1790784e-07
2.0844832e-07
1.4155911e-07
2.0247398e-07
1.452013e-07
2.3477565e-07
1.6935149e-07
2.3042234e-07
1.7594828e-07
2.6661196e-07
2.0492168e-07
2.6736485e-07
2.1590353e-07
3.0614413e-07
2.4785507e-07
3.1150707e-07
2.6499699e-07
3.5721483e-07
3.0489641e-07
3.7083107e-07
3.2920948e-07
4.2103824e-07
3.7363337e-07
4.4054731e-07
4.0467305e-07
4.9705092e-07
4.5605418e-07
5.2380014e-07
4.9276686e-07
5.8240416e-07
5.4584422e-07
6.1175454e-07
5.8490527e-07
6.7063454e-07
6.378259e-07
6.9908443e-07
6.7284521e-07
7.4834362e-07
7.1460492e-07
7.6582686e-07
7.3721495e-07
7.9947213e-07
7.6279835e-07
8.0074959e-07
7.6645719e-07
8.107417e-07
7.6813158e-07
7.9027236e-07
7.5027547e-07
7.7800697e-07
7.3133004e-07
7.396048e-07
6.9506284e-07
7.0725565e-07
6.579168e-07
6.5510012e-07
6.0988529e-07
6.1264389e-07
5.6602047e-07
5.5851643e-07
5.1746829e-07
5.1623493e-07
4.7614418e-07
4.6852226e-07
4.3494667e-07
4.3380008e-07
4.0227033e-07
3.9666542e-07
3.7083447e-07
3.6998678e-07
3.4602208e-07
3.4189948e-07
3.2268062e-07
3.217531e-07
3.0398526e-07
2.9996521e-07
2.8485175e-07
2.8077183e-07
2.6545079e-07
2.5903502e-07
2.4970299e-07
2.5506332e-07
2.6910679e-07
2.7724955e-07
1.3443532e-07
1.0842819e-08
1.3876507e-08
2.3658581e-08
-3.190727e-08
6.2008302e-08
-7.9584172e-09
4.8884377e-08
-2.0890759e-08
8.0016484e-08
9.3186763e-09
6.3741841e-08
-7.9090498e-09
9.1809991e-08
2.0870443e-08
7.536185e-08
4.343018e-09
1.0471467e-07
3.4319509e-08
8.8766071e-08
1.7274493e-08
1.1635453e-07
4.5488317e-08
9.9752348e-08
2.9326357e-08
1.2975868e-07
6.037775e-08
1.1527866e-07
4.4983574e-08
1.4411218e-07
7.4375502e-08
1.287423e-07
5.930316e-08
1.5897025e-07
9.0518498e-08
1.4506461e-07
7.5899736e-08
1.7402657e-07
1.0574879e-07
1.6003353e-07
9.2656352e-08
1.9173481e-07
1.2585326e-07
1.8089277e-07
1.1487966e-07
2.1257153e-07
1.4786399e-07
2.0290208e-07
1.3957718e-07
2.3798851e-07
1.7672536e-07
2.3291066e-07
1.7245908e-07
2.6994906e-07
2.1177454e-07
2.6905415e-07
2.13525e-07
3.1257115e-07
2.6012044e-07
3.1956533e-07
2.6894248e-07
3.6712086e-07
3.1938026e-07
3.7989906e-07
3.3526463e-07
4.3365e-07
3.9225634e-07
4.537786e-07
4.143849e-07
5.0965983e-07
4.7275847e-07
5.3288037e-07
4.9832361e-07
5.8949138e-07
5.5656894e-07
6.1257963e-07
5.7945802e-07
6.6015734e-07
6.2663768e-07
6.7339281e-07
6.3898392e-07
7.0633247e-07
6.7035432e-07
7.0466522e-07
6.6571249e-07
7.1491196e-07
6.734655e-07
6.929532e-07
6.4952366e-07
6.8206486e-07
6.3705229e-07
6.436129e-07
5.9675785e-07
6.1356404e-07
5.663064e-07
5.626689e-07
5.1620648e-07
5.2339207e-07
4.7918562e-07
4.7159054e-07
4.3018392e-07
4.3314286e-07
3.9566963e-07
3.8854558e-07
3.5523461e-07
3.5798017e-07
3.2908501e-07
3.2425113e-07
2.990205e-07
3.0154426e-07
2.7992682e-07
2.7658095e-07
2.5805345e-07
2.5972639e-07
2.4377942e-07
2.4036536e-07
2.2575267e-07
2.2333146e-07
2.090802e-07
2.0281806e-07
1.9352586e-07
1.9932148e-07
2.1343325e-07
2.2797472e-07
1.0964569e-07
6.1860366e-09
5.3196319e-09
2.8874045e-08
-3.2338714e-08
6.4023848e-08
-8.4291914e-09
5.30363e-08
-2.1038559e-08
8.3597671e-08
1.0521625e-08
6.9212931e-08
-6.9302333e-09
9.6462309e-08
2.3185961e-08
8.2025623e-08
6.5800385e-09
1.1066385e-07
3.7947243e-08
9.6708835e-08
2.0825108e-08
1.2366863e-07
5.0583506e-08
1.0928571e-07
3.455052e-08
1.3878466e-07
6.7198719e-08
1.2647776e-07
5.1912134e-08
1.5488973e-07
8.3070867e-08
1.4195014e-07
6.8391198e-08
1.7201051e-07
1.0156459e-07
1.6061526e-07
8.7443295e-08
1.8963428e-07
1.1956683e-07
1.7852851e-07
1.0735622e-07
2.1063129e-07
1.4311674e-07
2.028663e-07
1.3327051e-07
2.3533564e-07
1.6930302e-07
2.2929481e-07
1.6275993e-07
2.6580911e-07
2.0353598e-07
2.6481687e-07
2.0152767e-07
3.0395745e-07
2.4523313e-07
3.0792486e-07
2.5007128e-07
3.5438441e-07
3.0180925e-07
3.6683201e-07
3.1439398e-07
4.1817151e-07
3.708506e-07
4.3723246e-07
3.9138817e-07
4.9568281e-07
4.5513492e-07
5.2254369e-07
4.8238894e-07
5.8369122e-07
5.479763e-07
6.1382826e-07
5.7879214e-07
6.7578096e-07
6.4398806e-07
7.0505735e-07
6.7137386e-07
7.572285e-07
7.2449416e-07
7.7533623e-07
7.3997996e-07
8.1138277e-07
7.7543025e-07
8.1235438e-07
7.7170029e-07
8.2349165e-07
7.8112481e-07
8.0169649e-07
7.5572485e-07
7.8925613e-07
7.4233882e-07
7.4845696e-07
6.9833715e-07
7.1471088e-07
6.6474897e-07
6.5957653e-07
6.0941546e-07
6.1519275e-07
5.6793347e-07
5.5819316e-07
5.1305233e-07
5.142231e-07
4.7375397e-07
4.644136e-07
4.2780228e-07
4.2872695e-07
3.9721713e-07
3.9032907e-07
3.6231308e-07
3.6318668e-07
3.3945246e-07
3.3429993e-07
3.1354755e-07
3.1382637e-07
2.9614958e-07
2.9109959e-07
2.7468023e-07
2.7104984e-07
2.5527929e-07
2.474125e-07
2.3709037e-07
2.4284617e-07
2.5485536e-07
2.3977617e-07
1.5378212e-07
3.9177545e-09
-4.8733339e-10
3.509954e-08
-3.2410818e-08
5.78027e-08
-1.2749342e-08
5.8453975e-08
-2.2310677e-08
7.637054e-08
5.1987785e-09
7.3443983e-08
-9.5143676e-09
8.7845847e-08
1.6425045e-08
8.4783167e-08
2.4976204e-09
1.0051569e-07
2.9571038e-08
9.7718964e-08
1.4903792e-08
1.1159741e-07
4.0183802e-08
1.0817311e-07
2.6415927e-08
1.2438244e-07
5.4288825e-08
1.2260303e-07
4.0863476e-08
1.3743482e-07
6.693941e-08
1.3466303e-07
5.3801464e-08
1.5086982e-07
8.150368e-08
1.4905686e-07
6.8373281e-08
1.638131e-07
9.4546768e-08
1.616821e-07
8.2791371e-08
1.7908307e-07
1.1200582e-07
1.7942503e-07
1.018518e-07
1.9669285e-07
1.307306e-07
1.9793519e-07
1.2319918e-07
2.187949e-07
1.5617426e-07
2.240527e-07
1.5231093e-07
2.4705072e-07
1.8755962e-07
2.562724e-07
1.8978736e-07
2.8623804e-07
2.3247002e-07
3.0285302e-07
2.4168683e-07
3.375571e-07
2.8875313e-07
3.5998527e-07
3.0553514e-07
4.0208042e-07
3.5990505e-07
4.3167761e-07
3.832492e-07
4.7718692e-07
4.3991285e-07
5.0987891e-07
4.672448e-07
5.5753059e-07
5.2448866e-07
5.8949992e-07
5.491844e-07
6.293403e-07
5.9593727e-07
6.5082381e-07
6.1014282e-07
6.7708735e-07
6.4124009e-07
6.8237787e-07
6.3787857e-07
6.8651897e-07
6.4511803e-07
6.7015801e-07
6.2187467e-07
6.5363488e-07
6.0853979e-07
6.1927849e-07
5.6823256e-07
5.8401735e-07
5.3656055e-07
5.3608684e-07
4.8612632e-07
4.9230758e-07
4.4799444e-07
4.4289597e-07
3.9886044e-07
4.0111805e-07
3.6386105e-07
3.5893912e-07
3.2396946e-07
3.2643619e-07
2.9805885e-07
2.9515966e-07
2.6896168e-07
2.7147974e-07
2.5046548e-07
2.4863891e-07
2.2953669e-07
2.312893e-07
2.1577764e-07
2.1306916e-07
1.979472e-07
1.953752e-07
1.8091055e-07
1.7421595e-07
1.6468476e-07
1.7220452e-07
1.9015438e-07
1.8132594e-07
1.1056466e-07
1.7454919e-09
-8.1911313e-09
4.9951384e-08
-2.2889754e-08
4.6717654e-08
-2.2446543e-08
7.5107966e-08
-1.0658986e-08
6.7108684e-08
-2.9424492e-09
9.1432143e-08
3.4089498e-09
7.9891465e-08
9.6459102e-09
1.042049e-07
1.6982667e-08
9.4291328e-08
2.4616296e-08
1.1896681e-07
3.1293228e-08
1.0740772e-07
3.7347078e-08
1.3160242e-07
4.5116183e-08
1.2266469e-07
5.3975594e-08
1.4846631e-07
6.2111765e-08
1.3852166e-07
6.9595957e-08
1.6359266e-07
7.8378918e-08
1.556427e-07
8.8019489e-08
1.818119e-07
9.7013858e-08
1.7305478e-07
1.0574078e-07
1.9914334e-07
1.1647193e-07
1.9388075e-07
1.2896388e-07
2.2252825e-07
1.4153819e-07
2.1817146e-07
1.5472182e-07
2.4810164e-07
1.7049488e-07
2.4872248e-07
1.8898361e-07
2.8290532e-07
2.0883445e-07
2.8714362e-07
2.3093508e-07
3.2555135e-07
2.5737133e-07
3.3846754e-07
2.8835624e-07
3.8423378e-07
3.2200917e-07
4.0373273e-07
3.5899374e-07
4.55273e-07
4.0042669e-07
4.8406076e-07
4.4617944e-07
5.420858e-07
4.9369011e-07
5.7579919e-07
5.4274587e-07
6.3547867e-07
5.930452e-07
6.7233593e-07
6.4300404e-07
7.2863397e-07
6.8822883e-07
7.5788904e-07
7.2729422e-07
8.001107e-07
7.5871277e-07
8.1535935e-07
7.8095029e-07
8.3662386e-07
7.9035487e-07
8.2862051e-07
7.870261e-07
8.230056e-07
7.718501e-07
7.9316867e-07
7.463751e-07
7.6460355e-07
7.0966263e-07
7.1513098e-07
6.6477784e-07
6.6894738e-07
6.1450009e-07
6.1083155e-07
5.6303023e-07
5.6056493e-07
5.1203125e-07
5.0558845e-07
4.6486608e-07
4.6146064e-07
4.2249922e-07
4.1770517e-07
3.8627216e-07
3.8417529e-07
3.5473956e-07
3.5156738e-07
3.2811766e-07
3.2664389e-07
3.0516883e-07
3.0274762e-07
2.8541793e-07
2.82755e-07
2.6610802e-07
2.6086728e-07
2.4512233e-07
2.3798389e-07
2.2729473e-07
2.3338341e-07
2.5421821e-07
2.6601982e-07
1.2078438e-07
3.4027846e-09
-1.2578532e-08
5.0192873e-08
-2.0219293e-08
4.5055788e-08
-2.988393e-08
7.3753914e-08
-9.2444252e-09
6.4126735e-08
-1.1839413e-08
8.8443393e-08
3.0646229e-09
7.5076358e-08
-1.139184e-09
9.927372e-08
1.4638839e-08
8.7431568e-08
1.1730054e-08
1.1182453e-07
2.661144e-08
9.8097189e-08
2.1880396e-08
1.2172846e-07
3.7536235e-08
1.1029581e-07
3.5287963e-08
1.3512732e-07
5.0834397e-08
1.2227646e-07
4.6852555e-08
1.459705e-07
6.2581647e-08
1.3467439e-07
6.0340835e-08
1.5891966e-07
7.5607932e-08
1.4620035e-07
7.1885959e-08
1.6968153e-07
8.809613e-08
1.5972572e-07
8.7482361e-08
1.8492823e-07
1.0454223e-07
1.7504566e-07
1.0392342e-07
2.0067469e-07
1.2317002e-07
1.9490468e-07
1.2713044e-07
2.2381336e-07
1.4926237e-07
2.2067989e-07
1.560633e-07
2.5280276e-07
1.8356434e-07
2.5741756e-07
1.9859517e-07
2.9595215e-07
2.3213074e-07
3.0640433e-07
2.5283334e-07
3.501084e-07
2.9334162e-07
3.695378e-07
3.2294464e-07
4.1952463e-07
3.690776e-07
4.4405536e-07
4.027597e-07
4.9611131e-07
4.5183271e-07
5.2466363e-07
4.8797993e-07
5.7446624e-07
5.3281351e-07
5.9711207e-07
5.6049545e-07
6.3475308e-07
5.930891e-07
6.4581935e-07
6.0707005e-07
6.6497847e-07
6.1955165e-07
6.5545013e-07
6.113392e-07
6.5036158e-07
6.0124178e-07
6.218007e-07
5.7424171e-07
5.9628129e-07
5.4440458e-07
5.5043484e-07
5.0078729e-07
5.0925867e-07
4.5858972e-07
4.5653714e-07
4.1048565e-07
4.1254553e-07
3.6820842e-07
3.6397201e-07
3.2574482e-07
3.2685172e-07
2.9212959e-07
2.8988763e-07
2.6123146e-07
2.6327996e-07
2.3774774e-07
2.3706501e-07
2.1618165e-07
2.1824437e-07
2.0001276e-07
1.9973394e-07
1.8455801e-07
1.8455524e-07
1.7026122e-07
1.6652556e-07
1.5234542e-07
1.4668646e-07
1.3698171e-07
1.4268057e-07
1.6221519e-07
1.9177326e-07
8.2244223e-08
1.000137e-08
-1.0106245e-08
4.3964948e-08
-2.3847178e-08
5.3620797e-08
-2.5091732e-08
6.9425937e-08
-1.1062638e-08
7.4482458e-08
-5.285866e-09
8.5778277e-08
2.8403025e-09
8.7012622e-08
7.0557343e-09
9.8363432e-08
1.6262228e-08
1.0130204e-07
2.1987955e-08
1.1312058e-07
3.0532335e-08
1.1433048e-07
3.4596375e-08
1.2559718e-07
4.4092427e-08
1.2919841e-07
5.07995e-08
1.4196383e-07
6.0478396e-08
1.4437784e-07
6.5775131e-08
1.5650133e-07
7.6110899e-08
1.6080643e-07
8.3576451e-08
1.7411068e-07
9.4003703e-08
1.7734754e-07
1.0043549e-07
1.9057009e-07
1.1241512e-07
1.9693748e-07
1.224768e-07
2.1276144e-07
1.3612017e-07
2.19753e-07
1.4692083e-07
2.3717135e-07
1.6382091e-07
2.4895614e-07
1.8008439e-07
2.710301e-07
2.0107115e-07
2.8616062e-07
2.2108772e-07
3.1292608e-07
2.4872711e-07
3.3647168e-07
2.7791247e-07
3.7129625e-07
3.1299223e-07
4.0136416e-07
3.4882311e-07
4.4311362e-07
3.9228036e-07
4.8261614e-07
4.3773295e-07
5.3217763e-07
4.878647e-07
5.7664846e-07
5.3745108e-07
6.291952e-07
5.9083737e-07
6.7659367e-07
6.4199544e-07
7.2696104e-07
6.9047933e-07
7.6619682e-07
7.3111807e-07
8.0341674e-07
7.6559656e-07
8.2748672e-07
7.8918694e-07
8.4408664e-07
8.0064856e-07
8.4288173e-07
7.9761426e-07
8.3224944e-07
7.8303574e-07
8.0691635e-07
7.5663749e-07
7.7297108e-07
7.1911985e-07
7.2583436e-07
6.7214957e-07
6.7397188e-07
6.199286e-07
6.1650759e-07
5.6567052e-07
5.6081814e-07
5.1243952e-07
5.0584735e-07
4.6278059e-07
4.5741487e-07
4.1870381e-07
4.138045e-07
3.8079812e-07
3.7738112e-07
3.4832948e-07
3.4516299e-07
3.207886e-07
3.1846413e-07
2.973561e-07
2.9494343e-07
2.7719834e-07
2.7401475e-07
2.5759823e-07
2.5209574e-07
2.3620853e-07
2.2858357e-07
2.1739652e-07
2.2083637e-07
2.3019961e-07
2.034952e-07
1.4347999e-07
1.1656522e-08
-9.6950035e-09
4.1462807e-08
-2.7024884e-08
5.3046641e-08
-2.649319e-08
6.5408607e-08
-1.5902021e-08
7.2101466e-08
-8.5976872e-09
7.9739623e-08
-4.126408e-09
8.2416318e-08
1.4613491e-09
8.9993648e-08
6.9071611e-09
9.4242569e-08
1.3833482e-08
1.0207996e-07
1.8359008e-08
1.042945e-07
2.3297966e-08
1.1125379e-07
2.8422923e-08
1.1543579e-07
3.5549426e-08
1.2344529e-07
4.0390715e-08
1.2594839e-07
4.5614185e-08
1.3284962e-07
5.0624925e-08
1.3667772e-07
5.7402039e-08
1.4413248e-07
6.1817778e-08
1.4610708e-07
6.6746532e-08
1.5270368e-07
7.1893382e-08
1.5686076e-07
7.9465257e-08
1.6511979e-07
8.5309266e-08
1.6884264e-07
9.2557769e-08
1.7772041e-07
1.0065643e-07
1.8508673e-07
1.1217921e-07
1.9751461e-07
1.2321084e-07
2.0690576e-07
1.3718399e-07
2.2288322e-07
1.5371668e-07
2.3938141e-07
1.7559218e-07
2.6238511e-07
1.9858794e-07
2.8431668e-07
2.2613591e-07
3.1360587e-07
2.5697996e-07
3.4432048e-07
2.9366021e-07
3.8130432e-07
3.3118167e-07
4.1690116e-07
3.7214585e-07
4.5755523e-07
4.1380299e-07
4.9684505e-07
4.5739732e-07
5.3693293e-07
4.9601712e-07
5.6982263e-07
5.3114758e-07
5.9943325e-07
5.5864132e-07
6.198358e-07
5.7957434e-07
6.3217086e-07
5.8748807e-07
6.3040973e-07
5.8500572e-07
6.1914583e-07
5.7059651e-07
5.9659957e-07
5.4800356e-07
5.6557485e-07
5.140467e-07
5.2412131e-07
4.7349222e-07
4.7783105e-07
4.2733141e-07
4.280955e-07
3.812588e-07
3.7976084e-07
3.3563998e-07
3.3362279e-07
2.9502291e-07
2.9349519e-07
2.5923117e-07
2.5887838e-07
2.3037017e-07
2.3070875e-07
2.0588783e-07
2.0682396e-07
1.8643852e-07
1.8745139e-07
1.6992823e-07
1.7083298e-07
1.5624031e-07
1.5565713e-07
1.4187241e-07
1.3865456e-07
1.2488983e-07
1.1894635e-07
1.0967692e-07
1.16198e-07
1.3363576e-07
1.1605001e-07
8.076755e-08
1.1458081e-08
-1.1365999e-08
4.2835934e-08
-2.3058534e-08
5.4372064e-08
-2.6717066e-08
6.9088721e-08
-9.6552125e-09
7.5503907e-08
-6.8936511e-09
8.526494e-08
3.9597706e-09
8.7717216e-08
5.1622808e-09
9.7663372e-08
1.73023e-08
1.0204597e-07
2.0178477e-08
1.124913e-07
3.1566227e-08
1.1499824e-07
3.2649642e-08
1.2480458e-07
4.4899643e-08
1.2955943e-07
4.8454939e-08
1.4067472e-07
6.0699605e-08
1.441489e-07
6.2848119e-08
1.5469671e-07
7.5852614e-08
1.6016209e-07
8.0228347e-08
1.7183867e-07
9.3152562e-08
1.7603025e-07
9.6342584e-08
1.8753594e-07
1.1071248e-07
1.9471579e-07
1.174089e-07
2.0869397e-07
1.3329371e-07
2.1646154e-07
1.4083936e-07
2.3222153e-07
1.6016669e-07
2.4499074e-07
1.7340758e-07
2.6556211e-07
1.9683226e-07
2.8167421e-07
2.1398094e-07
3.0718247e-07
2.4424816e-07
3.3190169e-07
2.7089566e-07
3.658464e-07
3.0892014e-07
3.9752181e-07
3.4291519e-07
4.3919943e-07
3.9004196e-07
4.8103496e-07
4.3452719e-07
5.3132551e-07
4.8883916e-07
5.7852198e-07
5.3808127e-07
6.3244718e-07
5.9601978e-07
6.8273346e-07
6.4713233e-07
7.3461728e-07
6.9994224e-07
7.7637955e-07
7.40342e-07
8.1473183e-07
7.7837405e-07
8.4040504e-07
8.008591e-07
8.5688262e-07
8.1412311e-07
8.5537613e-07
8.0833471e-07
8.4290872e-07
7.9375193e-07
8.1586429e-07
7.6356255e-07
7.7897289e-07
7.2469347e-07
7.2905932e-07
6.7319231e-07
6.7334737e-07
6.1855725e-07
6.1261118e-07
5.5974411e-07
5.531178e-07
5.0419433e-07
4.9545124e-07
4.5102166e-07
4.443614e-07
4.0565319e-07
3.9933416e-07
3.6576729e-07
3.6171867e-07
3.3307957e-07
3.2917619e-07
3.0476482e-07
3.0226964e-07
2.8181314e-07
2.7905337e-07
2.614989e-07
2.5838928e-07
2.4258731e-07
2.3705069e-07
2.2137401e-07
2.1374337e-07
2.0313387e-07
2.0852833e-07
2.3022806e-07
2.4534994e-07
1.0079733e-07
1.1634479e-08
-1.2291191e-08
4.0597374e-08
-2.4643447e-08
5.262022e-08
-2.9997857e-08
6.4976408e-08
-1.3196983e-08
7.1623895e-08
-1.2447548e-08
7.8754965e-08
-2.0822098e-09
8.1254574e-08
-3.0511752e-09
8.8429345e-08
8.4569144e-09
9.2701608e-08
8.978417e-09
1.0014362e-07
1.9435766e-08
1.0218241e-07
1.7774524e-08
1.0857792e-07
2.8664599e-08
1.124017e-07
2.8984809e-08
1.1958691e-07
3.9311237e-08
1.2156526e-07
3.7664399e-08
1.2761563e-07
4.8148175e-08
1.3094132e-07
4.8048951e-08
1.3738695e-07
5.762684e-08
1.3853682e-07
5.54103e-08
1.4385294e-07
6.5420739e-08
1.4692621e-07
6.5619639e-08
1.535875e-07
7.594528e-08
1.5602525e-07
7.5786841e-08
1.6325622e-07
8.8276258e-08
1.6936109e-07
9.2479229e-08
1.8003318e-07
1.0759577e-07
1.8795197e-07
1.1419612e-07
2.0208757e-07
1.3464871e-07
2.1709493e-07
1.493182e-07
2.3830976e-07
1.76167e-07
2.5899234e-07
1.9708939e-07
2.8699413e-07
2.3217413e-07
3.1707428e-07
2.6306241e-07
3.5338243e-07
3.0512758e-07
3.8878299e-07
3.4107866e-07
4.2931758e-07
3.875697e-07
4.6888056e-07
4.2686081e-07
5.0917474e-07
4.7024338e-07
5.4250119e-07
5.0158271e-07
5.7235651e-07
5.3342953e-07
5.9302651e-07
5.5063971e-07
6.0496752e-07
5.6165606e-07
6.0242967e-07
5.5479931e-07
5.8970764e-07
5.4213416e-07
5.6582558e-07
5.152493e-07
5.3293585e-07
4.8220289e-07
4.898378e-07
4.3749875e-07
4.414037e-07
3.9149724e-07
3.8993542e-07
3.4176576e-07
3.3979835e-07
2.9640298e-07
2.9264456e-07
2.5345572e-07
2.5180564e-07
2.1877641e-07
2.1753877e-07
1.8915574e-07
1.8992677e-07
1.666223e-07
1.672739e-07
1.4749447e-07
1.492044e-07
1.3313509e-07
1.3414227e-07
1.2027794e-07
1.2035197e-07
1.0777359e-07
1.048488e-07
9.16673e-08
8.5962811e-08
7.6798641e-08
8.1817487e-08
1.0158543e-07
1.4521552e-07
4.9089903e-08
1.2945376e-08
-9.6701285e-09
4.0157503e-08
-2.5580788e-08
5.5121268e-08
-2.5520718e-08
6.7049058e-08
-1.1700402e-08
7.6393835e-08
-5.7960104e-09
8.2966003e-08
1.5606849e-09
8.8234631e-08
5.9060367e-09
9.5083655e-08
1.4671914e-08
1.0238214e-07
2.0763128e-08
1.0977948e-07
2.8759844e-08
1.1508911e-07
3.288761e-08
1.2166929e-07
4.1560887e-08
1.2901099e-07
4.7944283e-08
1.3672358e-07
5.6449653e-08
1.4264747e-07
6.1348827e-08
1.4981081e-07
7.0645034e-08
1.5768203e-07
7.7696885e-08
1.659361e-07
8.6815996e-08
1.7230802e-07
9.2415938e-08
1.801852e-07
1.0278166e-07
1.8926969e-07
1.1161923e-07
1.9947485e-07
1.2337487e-07
2.08992e-07
1.3297986e-07
2.2108639e-07
1.4831387e-07
2.356018e-07
1.6360681e-07
2.5265232e-07
1.8315962e-07
2.7045407e-07
2.0229065e-07
2.9257948e-07
2.2889085e-07
3.1905948e-07
2.5764731e-07
3.5004168e-07
2.9252435e-07
3.8391568e-07
3.2918317e-07
4.235192e-07
3.7416612e-07
4.6835563e-07
4.2214162e-07
5.1768026e-07
4.7546846e-07
5.6873899e-07
5.2901526e-07
6.2277089e-07
5.8708749e-07
6.7766913e-07
6.4317902e-07
7.3052599e-07
6.9693494e-07
7.7721886e-07
7.4249576e-07
8.1687279e-07
7.8163742e-07
8.4689194e-07
8.0842146e-07
8.6388591e-07
8.2167835e-07
8.6484899e-07
8.1815184e-07
8.5118094e-07
8.0186055e-07
8.2449073e-07
7.7200406e-07
7.851013e-07
7.3012767e-07
7.3382207e-07
6.7724663e-07
6.7460208e-07
6.1869097e-07
6.1124551e-07
5.5743244e-07
5.4793539e-07
4.9792651e-07
4.8760437e-07
4.4244359e-07
4.3347307e-07
3.9411334e-07
3.8666763e-07
3.5286462e-07
3.4727394e-07
3.1854095e-07
3.1396611e-07
2.8970839e-07
2.8632268e-07
2.6602835e-07
2.6291578e-07
2.4565437e-07
2.4209236e-07
2.2649809e-07
2.207054e-07
2.0529048e-07
1.9734403e-07
1.8625086e-07
1.8784421e-07
1.9236505e-07
1.5480362e-07
1.2508053e-07
1.2474498e-08
-9.9672894e-09
3.8446079e-08
-2.8344863e-08
5.2366932e-08
-2.820022e-08
6.3051973e-08
-1.6816928e-08
7.1148146e-08
-1.1094117e-08
7.624065e-08
-6.3882372e-09
8.0062534e-08
-2.4111982e-09
8.5265565e-08
3.5463805e-09
9.0942056e-08
9.0432492e-09
9.6405295e-08
1.3884961e-08
9.9693294e-08
1.6983746e-08
1.0388187e-07
2.2016948e-08
1.0867001e-07
2.6798713e-08
1.134044e-07
3.1057553e-08
1.1614685e-07
3.3705474e-08
1.1967548e-07
3.8084989e-08
1.2365247e-07
4.2091473e-08
1.2740715e-07
4.5367914e-08
1.2887532e-07
4.6847118e-08
1.3115275e-07
5.0226072e-08
1.341131e-07
5.3654928e-08
1.374084e-07
5.7092156e-08
1.394183e-07
5.9851399e-08
1.4316771e-07
6.5420919e-08
1.4866338e-07
7.2265235e-08
1.5572357e-07
8.0374211e-08
1.6274719e-07
8.9245326e-08
1.7310909e-07
1.0265691e-07
1.8703671e-07
1.1937596e-07
2.0457916e-07
1.3949459e-07
2.2438189e-07
1.626824e-07
2.493102e-07
1.9186774e-07
2.791421e-07
2.2558476e-07
3.1325592e-07
2.6284307e-07
3.4920841e-07
3.0230502e-07
3.885722e-07
3.4523817e-07
4.2957764e-07
3.8878274e-07
4.6977079e-07
4.2984082e-07
5.0525668e-07
4.6590161e-07
5.3576921e-07
4.9627322e-07
5.5872098e-07
5.1788623e-07
5.711414e-07
5.2722395e-07
5.6987389e-07
5.23393e-07
5.5670518e-07
5.0846314e-07
5.3304222e-07
4.8340343e-07
4.9925203e-07
4.4789743e-07
4.5564614e-07
4.0402411e-07
4.0588624e-07
3.5538234e-07
3.5333542e-07
3.057462e-07
3.018313e-07
2.5813295e-07
2.5389086e-07
2.1539057e-07
2.1239189e-07
1.7950494e-07
1.7811936e-07
1.5079473e-07
1.5088293e-07
1.2815603e-07
1.2904092e-07
1.104138e-07
1.1191034e-07
9.6609234e-08
9.7892387e-08
8.5083612e-08
8.5234439e-08
7.3361677e-08
7.0647423e-08
5.8242656e-08
5.2851135e-08
4.4506368e-08
5.0518149e-08
6.6100905e-08
4.0332563e-08
4.465147e-08
1.1808744e-08
-1.0393428e-08
3.9145412e-08
-2.5991786e-08
5.5025784e-08
-2.5510971e-08
6.6535472e-08
-1.1888703e-08
7.6250244e-08
-6.0290329e-09
8.2096113e-08
9.4094758e-10
8.7637596e-08
5.2270297e-09
9.3843064e-08
1.3785613e-08
1.0166128e-07
2.0005769e-08
1.0844976e-07
2.7688098e-08
1.1407255e-07
3.1720531e-08
1.1986356e-07
3.9909158e-08
1.2731075e-07
4.5971277e-08
1.3403208e-07
5.3812755e-08
1.3994045e-07
5.8320679e-08
1.461012e-07
6.701944e-08
1.5408535e-07
7.3746767e-08
1.6126831e-07
8.2079375e-08
1.6747798e-07
8.707028e-08
1.7406142e-07
9.6442164e-08
1.8275844e-07
1.0443883e-07
1.9148217e-07
1.1505837e-07
2.0054089e-07
1.2381658e-07
2.1123618e-07
1.3818698e-07
2.2554142e-07
1.5285506e-07
2.4133972e-07
1.7150668e-07
2.5893839e-07
1.9006405e-07
2.7999297e-07
2.1600809e-07
3.0653521e-07
2.4452769e-07
3.3692562e-07
2.7932579e-07
3.715294e-07
3.1655789e-07
4.1154546e-07
3.6258217e-07
4.5824759e-07
4.1232947e-07
5.0918896e-07
4.6779087e-07
5.6302312e-07
5.2407042e-07
6.1971379e-07
5.8523531e-07
6.7803188e-07
6.4462008e-07
7.3405964e-07
7.0172898e-07
7.8399312e-07
7.5020038e-07
8.2623185e-07
7.918614e-07
8.5817858e-07
8.1989161e-07
8.7562777e-07
8.3315562e-07
8.7557372e-07
8.2778546e-07
8.5938631e-07
8.0896484e-07
8.2966176e-07
7.7556474e-07
7.8627634e-07
7.2997261e-07
7.3103526e-07
6.7270437e-07
6.6704256e-07
6.0969466e-07
5.9941687e-07
5.4405321e-07
5.3166977e-07
4.8057405e-07
4.6794166e-07
4.2182777e-07
4.1073761e-07
3.7106777e-07
3.6220234e-07
3.2833105e-07
3.2154256e-07
2.9316807e-07
2.8801565e-07
2.6418471e-07