/*--------------------------------*- C++ -*----------------------------------*\
| =========                 |                                                 |
| \\      /  F ield         | foam-extend: Open Source CFD                    |
|  \\    /   O peration     | Version:     4.1                                |
|   \\  /    A nd           | Web:         http://www.foam-extend.org         |
|    \\/     M anipulation  |                                                 |
\*---------------------------------------------------------------------------*/
FoamFile
{
    version     2.0;
    format      ascii;
    class       surfaceScalarField;
    location    "0";
    object      phi;
}
// * * * * * * * * * * * * * * * * * * * * * * * * * * * * * * * * * * * * * //

dimensions      [0 3 -1 0 0 0 0];

internalField   nonuniform List<scalar> 
32976
(
-0.24211129
5.1373904e-07
-0.24211283
1.5440787e-06
-0.24211541
2.5829776e-06
-0.24211905
3.6362297e-06
-0.24212376
4.7096094e-06
-0.24212957
5.8091087e-06
-0.24213651
6.9406824e-06
-0.24214462
8.1106286e-06
-0.24215395
9.3251898e-06
-0.24216454
1.0591082e-05
-0.24217645
1.1914941e-05
-0.24218976
1.3304013e-05
-0.24220452
1.4765431e-05
-0.24222083
1.6307083e-05
-0.24223877
1.7936702e-05
-0.24225843
1.9662925e-05
-0.24227992
2.1494182e-05
-0.24230336
2.3439963e-05
-0.24232887
2.5509477e-05
-0.24235658
2.7713161e-05
-0.24238665
3.006107e-05
-0.24241921
3.256466e-05
-0.24245445
3.5234873e-05
-0.24249253
3.8084224e-05
-0.24253365
4.1124546e-05
-0.24257802
4.436941e-05
-0.24262586
4.783148e-05
-0.24267738
5.1525314e-05
-0.24273284
5.5464269e-05
-0.24279251
5.9663731e-05
-0.24285665
6.4137498e-05
-0.24292555
6.8901202e-05
-0.24299952
7.3969863e-05
-0.24307887
7.935739e-05
-0.24316395
8.5079605e-05
-0.2432551
9.1149224e-05
-0.24335268
9.7581053e-05
-0.24345707
0.00010438588
-0.24356865
0.00011157639
-0.24368781
0.00011916011
-0.24381495
0.00012714613
-0.24395049
0.00013553716
-0.24409483
0.00014433599
-0.24424837
0.0001535397
-0.24441151
0.00016314169
-0.24458464
0.0001731301
-0.24476812
0.00018348709
-0.24496231
0.00019418843
-0.24516751
0.00020520182
-0.245384
0.00021648678
-0.24561199
0.00022799335
-0.24585166
0.00023966128
-0.24610307
0.00025141904
-0.24636626
0.00026318359
-0.24664112
0.00027485859
-0.24692745
0.00028633498
-0.24722494
0.0002974901
-0.24753313
0.00030818775
-0.24785141
0.00031827833
-0.24817901
0.00032760015
-0.24851499
0.00033597924
-0.24885822
0.00034323227
-0.24920739
0.00034916807
-0.24956098
0.00035359051
-0.24991728
0.00035630193
-0.25027439
0.00035710695
-0.25063021
0.00035581777
-0.25098246
0.00035225776
-0.25132873
0.00034626838
-0.25166645
0.00033771418
-0.25199293
0.00032648863
-0.25230545
0.00031251966
-0.25260123
0.00029577547
-0.2528775
0.00027626769
-0.25313155
0.00025405631
-0.2533608
0.00022925132
-0.25356282
0.00020201377
-0.25373537
0.000172555
-0.25387651
0.00014113459
-0.25398456
0.00010805544
-0.25405822
7.365885e-05
-0.25409654
3.8316589e-05
-0.25409896
2.4225179e-06
-0.25406534
-3.3616955e-05
-0.25399595
-6.9392952e-05
-0.25389145
-0.00010450431
-0.25375288
-0.00013856745
-0.25358165
-0.00017122551
-0.2533795
-0.00020215641
-0.25314842
-0.00023107945
-0.25289066
-0.00025776082
-0.25260864
-0.00028201601
-0.25230493
-0.00030371235
-0.25198216
-0.00032276848
-0.25164301
-0.00033915279
-0.25129013
-0.00035288049
-0.25092612
-0.00036400937
-0.25055348
-0.00037263574
-0.25017459
-0.00037888739
-0.24979167
-0.00038291947
-0.24940677
-0.00038490791
-0.24902172
-0.00038504398
-0.24863819
-0.00038352882
-0.24825762
-0.00038056946
-0.24788125
-0.00037637283
-0.24751011
-0.00037114377
-0.24714503
-0.00036508107
-0.24678665
-0.00035837516
-0.24643545
-0.00035120607
-0.2460917
-0.00034374279
-0.24575556
-0.00033614084
-0.24542702
-0.00032854331
-0.24510594
-0.0003210799
-0.24479207
-0.00031386722
-0.24448506
-0.00030700896
-0.24418447
-0.00030059705
-0.24388975
-0.00029471095
-0.24360033
-0.00028941959
-0.24331555
-0.00028478137
-0.24303471
-0.00028084497
-0.24275706
-0.00027764981
-0.24248183
-0.00027522718
-0.24220823
-0.00027359953
-0.00027278199
-0.24211083
1.0262105e-06
-0.24211237
3.0843483e-06
-0.24211495
5.1595862e-06
-0.24211857
7.2635001e-06
-0.24212327
9.4076285e-06
-0.24212907
1.1603941e-05
-0.24213599
1.3864337e-05
-0.24214408
1.6201399e-05
-0.24215338
1.8627602e-05
-0.24216395
2.1156363e-05
-0.24217583
2.3800944e-05
-0.24218911
2.6575824e-05
-0.24220384
2.9495259e-05
-0.2422201
3.257501e-05
-0.242238
3.5830535e-05
-0.24225761
3.9279097e-05
-0.24227906
4.2937544e-05
-0.24230244
4.6824848e-05
-0.24232789
5.0959419e-05
-0.24235554
5.5362121e-05
-0.24238553
6.0053062e-05
-0.24241802
6.5055146e-05
-0.24245318
7.039026e-05
-0.24249118
7.6083433e-05
-0.24253221
8.2158338e-05
-0.24257648
8.8642123e-05
-0.24262421
9.5560132e-05
-0.24267563
0.0001029415
-0.24273098
0.00011081296
-0.24279052
0.00011920533
-0.24285453
0.00012814624
-0.24292329
0.00013766701
-0.24299712
0.00014779774
-0.24307633
0.00015856632
-0.24316126
0.0001700045
-0.24325224
0.0001821378
-0.24334966
0.00019499597
-0.24345387
0.00020860073
-0.24356528
0.00022297761
-0.24368426
0.00023814185
-0.24381122
0.00025411186
-0.24394658
0.00027089329
-0.24409074
0.00028849198
-0.2442441
0.0003069024
-0.24440707
0.00032611165
-0.24458003
0.00034609635
-0.24476337
0.00036682122
-0.24495742
0.00038823815
-0.2451625
0.00041028296
-0.24537889
0.00043287508
-0.24560681
0.000455915
-0.24584643
0.00047928259
-0.24609785
0.00050283517
-0.24636107
0.00052640693
-0.24663602
0.00054980546
-0.24692249
0.00057281275
-0.24722019
0.00059518352
-0.24752865
0.00061664525
-0.24784727
0.00063689844
-0.24817528
0.00065561924
-0.24851176
0.00067245897
-0.24885558
0.00068705
-0.24920542
0.00069900874
-0.24955977
0.00070794147
-0.24991692
0.00071345109
-0.25027496
0.00071514479
-0.25063179
0.00071264473
-0.25098512
0.00070559524
-0.25133253
0.0006936767
-0.25167143
0.00067661563
-0.25199914
0.0006541965
-0.2523129
0.00062627289
-0.2526099
0.00059277914
-0.25288737
0.000553737
-0.25314258
0.00050926536
-0.25337291
0.0004595838
-0.25357591
0.00040501473
-0.25374934
0.00034598192
-0.25389121
0.00028300636
-0.25399985
0.00021669644
-0.25407393
0.00014773801
-0.25411249
7.6878439e-05
-0.25411498
4.9096744e-06
-0.25408124
-6.7350995e-05
-0.25401156
-0.00013908128
-0.25390659
-0.00020947448
-0.25376739
-0.00027775936
-0.2535954
-0.00034321862
-0.25339235
-0.00040520515
-0.25316028
-0.00046315527
-0.25290144
-0.00051659988
-0.25261828
-0.00056516926
-0.2523134
-0.00060859811
-0.25198944
-0.00064672441
-0.25164911
-0.00067948628
-0.25129507
-0.00070691592
-0.25092995
-0.00072913111
-0.25055626
-0.00074632682
-0.25017639
-0.00075876125
-0.24979256
-0.00076674721
-0.24940683
-0.00077063908
-0.24902105
-0.00077082175
-0.24863688
-0.00076769966
-0.24825576
-0.00076168872
-0.24787893
-0.00075320452
-0.24750741
-0.00074265805
-0.24714205
-0.000730448
-0.24678347
-0.0007169561
-0.24643213
-0.00070254303
-0.24608832
-0.00068754713
-0.24575219
-0.00067227972
-0.2454237
-0.00065702701
-0.24510273
-0.00064204837
-0.24478902
-0.00062757685
-0.24448221
-0.00061381965
-0.24418185
-0.00060096035
-0.2438874
-0.00058915758
-0.24359827
-0.00057854889
-0.2433138
-0.00056925082
-0.24303329
-0.00056136044
-0.24275598
-0.00055495636
-0.24248111
-0.00055010097
-0.24220787
-0.00054683901
-0.00054520062
-0.24211006
1.536149e-06
-0.2421116
4.617007e-06
-0.24211416
7.7234706e-06
-0.24211777
1.0872873e-05
-0.24212245
1.4082492e-05
-0.24212821
1.7370252e-05
-0.2421351
2.0753972e-05
-0.24214315
2.4252496e-05
-0.24215241
2.7884505e-05
-0.24216292
3.1670096e-05
-0.24217475
3.5629132e-05
-0.24218796
3.9783298e-05
-0.24220262
4.4153952e-05
-0.24221881
4.8764705e-05
-0.24223662
5.3638718e-05
-0.24225614
5.8801854e-05
-0.24227748
6.4279364e-05
-0.24230075
7.0099678e-05
-0.24232609
7.6290395e-05
-0.24235361
8.2882787e-05
-0.24238346
8.9907008e-05
-0.2424158
9.7397398e-05
-0.2424508
0.00010538679
-0.24248863
0.00011391273
-0.24252948
0.00012301073
-0.24257356
0.00013272155
-0.24262108
0.00014308323
-0.24267228
0.00015413951
-0.2427274
0.00016593059
-0.2427867
0.00017850273
-0.24285045
0.00019189752
-0.24291894
0.00020616205
-0.24299249
0.00022134163
-0.2430714
0.00023747829
-0.24315601
0.00025461987
-0.24324668
0.00027280495
-0.24334376
0.00029207842
-0.24344764
0.00031247325
-0.24355869
0.00033402813
-0.24367731
0.00035676643
-0.24380392
0.00038071625
-0.24393891
0.00040588671
-0.2440827
0.00043228719
-0.24423571
0.00045991017
-0.24439834
0.00048873705
-0.24457097
0.00051873367
-0.244754
0.000549848
-0.24494777
0.00058200886
-0.24515261
0.00061512096
-0.2453688
0.00064906448
-0.24559658
0.00068369115
-0.24583611
0.00071882175
-0.24608752
0.00075424312
-0.24635082
0.00078970733
-0.24662594
0.00082492637
-0.2469127
0.0008595736
-0.2472108
0.00089328115
-0.2475198
0.00092563996
-0.2478391
0.00095620006
-0.24816795
0.00098447445
-0.24850543
0.0010099383
-0.24885042
0.0010320378
-0.24920161
0.0010501945
-0.24955748
0.001063814
-0.24991632
0.0010722963
-0.25027623
0.001075047
-0.25063508
0.0010714938
-0.25099058
0.001061097
-0.25134027
0.0010433708
-0.25168155
0.0010178986
-0.25201171
0.00098435091
-0.25232794
0.00094250215
-0.25262741
0.00089224884
-0.25290729
0.00083361958
-0.25316482
0.00076679008
-0.25339732
0.00069208865
-0.2536023
0.00060999965
-0.25377748
0.00052116141
-0.25392084
0.00042636006
-0.25403066
0.00032651465
-0.25410558
0.00022266217
-0.25414464
0.00011593328
-0.25414725
7.5265654e-06
-0.25411328
-0.00010132078
-0.254043
-0.00020936393
-0.25393709
-0.00031538175
-0.25379664
-0.00041820719
-0.25362311
-0.00051675528
-0.25341826
-0.0006100479
-0.25318419
-0.00069723385
-0.25292318
-0.0007776058
-0.25263774
-0.00085060738
-0.2523305
-0.00091584076
-0.25200416
-0.00097306475
-0.25166146
-0.0010221899
-0.2513051
-0.001063269
-0.25093775
-0.0010964842
-0.25056194
-0.0011221341
-0.25018009
-0.0011406124
-0.24979444
-0.0011523948
-0.24940706
-0.001158019
-0.24901982
-0.0011580684
-0.24863436
-0.0011531549
-0.24825214
-0.0011439073
-0.24787439
-0.001130953
-0.24750214
-0.0011149119
-0.2471362
-0.0010963849
-0.24677721
-0.0010759465
-0.24642562
-0.0010541395
-0.24608169
-0.0010314722
-0.24574556
-0.0010084123
-0.2454172
-0.00098538911
-0.24509645
-0.00096279164
-0.24478306
-0.00094096909
-0.24447665
-0.00092023169
-0.24417676
-0.00090085414
-0.24388284
-0.00088307368
-0.24359429
-0.00086709588
-0.24331045
-0.0008530948
-0.24303059
-0.0008412154
-0.24275397
-0.00083157499
-0.24247981
-0.00082426663
-0.24220729
-0.00081935708
-0.00081689125
-0.24210855
2.042294e-06
-0.24211007
6.1382673e-06
-0.24211261
1.0268298e-05
-0.24211619
1.445544e-05
-0.24212083
1.8722675e-05
-0.24212656
2.3093846e-05
-0.2421334
2.7592656e-05
-0.24214139
3.2244172e-05
-0.24215058
3.7073248e-05
-0.24216101
4.210662e-05
-0.24217276
4.7370719e-05
-0.24218587
5.28944e-05
-0.24220042
5.8706087e-05
-0.24221649
6.4837206e-05
-0.24223417
7.1318587e-05
-0.24225355
7.818466e-05
-0.24227474
8.5469049e-05
-0.24229785
9.3209613e-05
-0.24232301
0.00010144311
-0.24235033
0.00011021121
-0.24237998
0.00011955408
-0.2424121
0.00012951749
-0.24244686
0.00014014522
-0.24248443
0.00015148733
-0.24252501
0.0001635912
-0.2425688
0.00017651119
-0.24261602
0.0001902981
-0.24266689
0.00020501036
-0.24272166
0.00022070164
-0.24278059
0.00023743382
-0.24284396
0.00025526252
-0.24291205
0.00027425077
-0.24298516
0.00029445928
-0.24306363
0.00031594446
-0.24314778
0.00033877048
-0.24323796
0.0003629893
-0.24333455
0.00038866136
-0.24343791
0.00041583127
-0.24354843
0.0004445514
-0.24366652
0.00047485379
-0.24379258
0.0005067769
-0.24392702
0.00054033399
-0.24407028
0.00057553885
-0.24422275
0.00061238277
-0.24438485
0.00065084247
-0.24455699
0.00069087401
-0.24473956
0.00073240975
-0.2449329
0.00077535658
-0.24513737
0.00081958933
-0.24535326
0.00086495012
-0.24558081
0.00091124319
-0.24582022
0.00095823137
-0.24607161
0.0010056322
-0.24633502
0.0010531164
-0.24661039
0.0011003013
-0.24689757
0.0011467519
-0.24719627
0.001191978
-0.24750606
0.0012354337
-0.24782638
0.0012765177
-0.24815648
0.0013145784
-0.24849546
0.0013489128
-0.2488422
0.0013787778
-0.2491954
0.0014033966
-0.24955355
0.0014219696
-0.24991495
0.0014336884
-0.25027765
0.0014377511
-0.25063954
0.001433384
-0.2509983
0.0014198559
-0.25135144
0.0013965074
-0.25169631
0.0013627706
-0.25203015
0.0013181943
-0.25235012
0.0012624669
-0.25265331
0.0011954408
-0.25293684
0.0011171465
-0.25319786
0.0010278133
-0.25343365
0.00092787671
-0.25364163
0.00081798402
-0.25381946
0.00069899126
-0.25396506
0.00057195531
-0.25407666
0.00043811375
-0.25415286
0.00029886469
-0.25419266
0.00015573379
-0.25419547
1.0339287e-05
-0.25416114
-0.00013564797
-0.25408996
-0.00028054667
-0.25398263
-0.00042270782
-0.25384029
-0.00056055599
-0.25366441
-0.0006926276
-0.25345686
-0.00081760445
-0.25321975
-0.000934341
-0.25295547
-0.0010418872
-0.25266658
-0.0011394979
-0.25235578
-0.0012266429
-0.25202584
-0.0013030044
-0.25167956
-0.0013684692
-0.25131971
-0.0014231167
-0.25094899
-0.0014671999
-0.25057
-0.0015011284
-0.25018517
-0.0015254394
-0.24979679
-0.0015407791
-0.24940693
-0.0015478765
-0.24901748
-0.0015475203
-0.2486301
-0.0015405367
-0.24824623
-0.0015277729
-0.24786711
-0.0015100731
-0.24749375
-0.0014882704
-0.24712697
-0.001463171
-0.24676737
-0.0014355449
-0.24641539
-0.0014061184
-0.24607129
-0.0013755715
-0.24573517
-0.0013445283
-0.245407
-0.0013135618
-0.2450866
-0.0012831903
-0.24477369
-0.0012538787
-0.24446788
-0.0012260395
-0.2441687
-0.0012000378
-0.24387559
-0.0011761884
-0.24358792
-0.0011547641
-0.24330502
-0.0011359957
-0.24302616
-0.0011200749
-0.24275058
-0.0011071573
-0.24247748
-0.0010973658
-0.24220604
-0.0010907889
-0.0010874858
-0.24210672
2.5433941e-06
-0.24210823
7.6443686e-06
-0.24211075
1.278778e-05
-0.2421143
1.8002356e-05
-0.24211889
2.3316735e-05
-0.24212456
2.8760626e-05
-0.24213133
3.4363573e-05
-0.24213924
4.0156814e-05
-0.24214834
4.6171329e-05
-0.24215867
5.2440444e-05
-0.2421703
5.8997111e-05
-0.24218328
6.5877304e-05
-0.24219769
7.311647e-05
-0.24221361
8.0753797e-05
-0.24223112
8.8827744e-05
-0.24225032
9.7381261e-05
-0.2422713
0.00010645631
-0.24229419
0.00011610012
-0.24231911
0.00012635861
-0.24234618
0.00013728377
-0.24237555
0.0001489258
-0.24240738
0.00016134186
-0.24244182
0.00017458667
-0.24247905
0.00018872281
-0.24251927
0.00020380954
-0.24256268
0.00021991487
-0.24260948
0.00023710242
-0.24265992
0.00025544532
-0.24271423
0.0002750109
-0.24277267
0.0002958767
-0.24283552
0.00031811258
-0.24290306
0.00034179771
-0.24297561
0.00036700844
-0.24305349
0.00039381586
-0.24313702
0.00042230083
-0.24322656
0.00045252911
-0.24332247
0.00048457715
-0.24342514
0.00051850183
-0.24353496
0.00055436981
-0.24365233
0.00059222257
-0.24377766
0.00063210977
-0.24391138
0.00067404979
-0.2440539
0.00071806183
-0.24420566
0.00076413724
-0.24436706
0.0008122493
-0.24453853
0.00086234569
-0.24472047
0.00091434463
-0.24491324
0.00096813265
-0.24511721
0.0010235563
-0.24533268
0.0010804214
-0.24555993
0.0011384863
-0.24579915
0.0011974574
-0.2460505
0.0012569845
-0.24631405
0.0013166584
-0.24658975
0.0013760024
-0.24687747
0.0014344744
-0.24717695
0.0014914618
-0.2474878
0.0015462813
-0.24780946
0.0015981795
-0.24814122
0.0016463382
-0.24848218
0.0016898735
-0.24883126
0.0017278495
-0.24918714
0.0017592857
-0.24954835
0.0017831715
-0.24991314
0.001798483
-0.25027959
0.0018042024
-0.25064555
0.0017993454
-0.25100868
0.0017829796
-0.25136643
0.001754261
-0.25171612
0.00171246
-0.25205492
0.0016569935
-0.25237991
0.0015874538
-0.25268811
0.0015036407
-0.25297654
0.0014055797
-0.25324228
0.001293549
-0.25348249
0.0011680897
-0.25369452
0.0010300128
-0.25387592
0.00088039616
-0.25402454
0.00072057505
-0.25413854
0.00055211624
-0.25421647
0.00037679247
-0.25425728
0.00019654035
-0.25426035
1.3415455e-05
-0.25422554
-0.00017045895
-0.25415314
-0.00035294611
-0.2540439
-0.00053195076
-0.25389898
-0.00070547215
-0.25371996
-0.00087165314
-0.25350874
-0.0010288232
-0.25326755
-0.0011755331
-0.25299885
-0.0013105841
-0.25270531
-0.0014330397
-0.25238971
-0.0015422378
-0.25205493
-0.001637787
-0.25170384
-0.0017195564
-0.2513393
-0.0017876593
-0.25096407
-0.0018424292
-0.2505808
-0.001884397
-0.25019199
-0.0019142535
-0.24979994
-0.0019328266
-0.24940677
-0.0019410466
-0.24901437
-0.0019399174
-0.24862442
-0.001930488
-0.24823836
-0.0019138319
-0.24785742
-0.0018910168
-0.2474826
-0.0018630942
-0.24711469
-0.00183108
-0.24675429
-0.0017959432
-0.24640181
-0.0017585959
-0.24605749
-0.0017198909
-0.24572141
-0.0016806101
-0.2453935
-0.0016414701
-0.24507357
-0.0016031179
-0.24476132
-0.0015661336
-0.24445633
-0.0015310311
-0.2441581
-0.0014982646
-0.24386606
-0.0014682254
-0.24357958
-0.0014412521
-0.24329794
-0.0014176308
-0.24302042
-0.0013975996
-0.24274622
-0.0013813505
-0.24247455
-0.0013690362
-0.24220458
-0.0013607656
-0.0013566123
-0.24210446
3.0382078e-06
-0.24210595
9.1315808e-06
-0.24210843
1.5275681e-05
-0.24211194
2.1504848e-05
-0.24211647
2.7853319e-05
-0.24212207
3.435661e-05
-0.24212875
4.1050041e-05
-0.24213657
4.7970964e-05
-0.24214555
5.5156424e-05
-0.24215576
6.2646275e-05
-0.24216724
7.047993e-05
-0.24218007
7.8700422e-05
-0.2421943
8.7350162e-05
-0.24221002
9.6476039e-05
-0.24222732
0.00010612408
-0.24224628
0.00011634571
-0.24226702
0.00012719117
-0.24228963
0.00013871702
-0.24231425
0.00015097826
-0.24234101
0.00016403721
-0.24237004
0.00017795404
-0.24240149
0.0001927973
-0.24243554
0.00020863262
-0.24247235
0.0002255351
-0.24251212
0.00024357592
-0.24255504
0.00026283677
-0.24260133
0.00028339412
-0.24265122
0.00030533593
-0.24270495
0.00032874328
-0.24276278
0.00035370956
-0.24282499
0.00038031905
-0.24289186
0.00040866731
-0.2429637
0.00043884662
-0.24304083
0.00047094312
-0.24312358
0.00050505482
-0.24321231
0.00054126179
-0.24330739
0.00057965711
-0.2434092
0.0006203106
-0.24351814
0.00066330407
-0.2436346
0.00070868934
-0.24375902
0.00075652833
-0.24389182
0.00080684575
-0.24403342
0.00085966753
-0.24418427
0.00091498652
-0.2443448
0.00097277421
-0.24451542
0.0010329716
-0.24469656
0.0010954847
-0.24488861
0.0011601816
-0.24509194
0.0012268827
-0.24530688
0.0012953595
-0.24553372
0.0013653266
-0.2457727
0.0014364362
-0.24602398
0.0015082719
-0.24628767
0.0015803467
-0.24656376
0.0016520912
-0.24685214
0.0017228568
-0.24715259
0.001791909
-0.24746474
0.001858427
-0.24778806
0.0019215038
-0.24812187
0.0019801527
-0.24846531
0.0020333051
-0.24881728
0.0020798277
-0.24917653
0.0021185305
-0.24954154
0.0021481842
-0.2499106
0.0021675404
-0.25028175
0.002175355
-0.25065283
0.0021704215
-0.25102144
0.0021515934
-0.25138501
0.0021178289
-0.25174077
0.0020682231
-0.25208583
0.0020020472
-0.25241716
0.001918785
-0.25273169
0.0018181726
-0.25302633
0.0017002216
-0.25329803
0.0015652531
-0.25354386
0.0014139106
-0.25376101
0.0012471701
-0.25394695
0.0010663368
-0.25409941
0.0008730335
-0.25421647
0.00066916989
-0.25429658
0.00045691063
-0.25433867
0.00023862369
-0.25434208
1.6824732e-05
-0.25430665
-0.00020588647
-0.2542327
-0.00042689335
-0.25412102
-0.00064363072
-0.25397284
-0.00085365073
-0.25378981
-0.0010546835
-0.25357394
-0.0012446906
-0.25332757
-0.0014219074
-0.25305328
-0.0015848789
-0.25275384
-0.0017324738
-0.25243218
-0.001863899
-0.25209127
-0.0019786938
-0.25173411
-0.0020767175
-0.25136364
-0.0021581273
-0.25098272
-0.0022233491
-0.25059407
-0.0022730479
-0.25020024
-0.0023080825
-0.2498036
-0.0023294756
-0.24940627
-0.002338372
-0.24901018
-0.0023360031
-0.24861702
-0.002323652
-0.24822822
-0.0023026279
-0.24784501
-0.0022742305
-0.24746837
-0.0022397365
-0.24709907
-0.0022003769
-0.24673769
-0.0021573235
-0.24638461
-0.0021116775
-0.24604003
-0.002064466
-0.24570402
-0.0020166295
-0.24537646
-0.0019690281
-0.24505714
-0.0019224376
-0.24474572
-0.0018775519
-0.24444177
-0.0018349851
-0.24414475
-0.0017952789
-0.24385408
-0.0017588997
-0.24356908
-0.0017262502
-0.24328904
-0.0016976705
-0.2430132
-0.0016734429
-0.24274075
-0.0016537956
-0.24247088
-0.0016389091
-0.24220273
-0.0016289125
-0.0016238929
-0.2421019
3.5255073e-06
-0.24210336
1.0596215e-05
-0.24210581
1.7725832e-05
-0.24210926
2.4954239e-05
-0.24211373
3.23212e-05
-0.24211924
3.9867963e-05
-0.24212583
4.7635557e-05
-0.24213353
5.5667369e-05
-0.24214238
6.4006442e-05
-0.24215243
7.2699081e-05
-0.24216374
8.1791089e-05
-0.24217637
9.1332482e-05
-0.24219039
0.00010137257
-0.24220588
0.00011196586
-0.24222293
0.0001231659
-0.24224161
0.00013503249
-0.24226204
0.00014762411
-0.24228433
0.00016100658
-0.2423086
0.00017524395
-0.24233497
0.00019040879
-0.24236359
0.00020657122
-0.2423946
0.00022381112
-0.24242818
0.00024220508
-0.24246448
0.00026184065
-0.24250371
0.000282801
-0.24254605
0.00030518149
-0.24259173
0.00032907158
-0.24264097
0.00035457411
-0.24269401
0.00038178406
-0.24275111
0.00041081083
-0.24281254
0.00044175341
-0.2428786
0.00047472398
-0.24294958
0.00050983113
-0.24302582
0.00054717652
-0.24310764
0.00058687577
-0.2431954
0.00062902392
-0.24328947
0.00067373135
-0.24339025
0.00072108174
-0.24349811
0.00077117292
-0.24361349
0.00082406825
-0.24373681
0.00087984312
-0.24386849
0.00093853001
-0.24400899
0.0010001632
-0.24415874
0.0010647387
-0.24431819
0.0011322282
-0.24448779
0.0012025682
-0.24466796
0.0012756547
-0.24485912
0.0013513397
-0.24506166
0.00142942
-0.24527593
0.0015096354
-0.24550226
0.0015916592
-0.24574092
0.0016750921
-0.2459921
0.0017594539
-0.24625594
0.0018441816
-0.24653246
0.0019286153
-0.24682161
0.0020120009
-0.24712318
0.0020934826
-0.24743685
0.002172102
-0.24776215
0.0022467971
-0.2480984
0.0023164098
-0.24844478
0.0023796835
-0.24880024
0.0024352816
-0.2491635
0.0024817974
-0.24953309
0.0025177739
-0.24990728
0.0025417272
-0.2502841
0.0025521745
-0.25066135
0.0025476727
-0.2510366
0.0025268458
-0.25140721
0.0024884376
-0.25177034
0.0024313509
-0.25212299
0.0023546946
-0.25246203
0.0022578283
-0.25278427
0.0021404103
-0.25308647
0.0020024272
-0.25336546
0.0018442346
-0.25361812
0.0016665751
-0.25384154
0.0014705908
-0.25403302
0.0012578201
-0.25419018
0.0010301852
-0.25431096
0.0007899551
-0.25439376
0.00053970782
-0.2544374
0.00028226796
-0.25444122
2.0639457e-05
-0.25440503
-0.00024207148
-0.25432919
-0.00050273818
-0.25421452
-0.00075829627
-0.25406235
-0.0010058237
-0.25387442
-0.0012426144
-0.25365287
-0.0014662424
-0.25340016
-0.0016746136
-0.25311903
-0.0018660076
-0.25281241
-0.0020390945
-0.25248336
-0.0021929516
-0.252135
-0.0023270548
-0.25177045
-0.0024412628
-0.25139279
-0.0025357898
-0.25100497
-0.002611169
-0.2506098
-0.0026682162
-0.25020991
-0.0027079745
-0.2498077
-0.0027316788
-0.24940537
-0.0027407044
-0.24900485
-0.0027365252
-0.24860783
-0.0027206716
-0.24821576
-0.0026947008
-0.24782983
-0.002660154
-0.24745103
-0.0026185414
-0.24708009
-0.0025713156
-0.24671756
-0.002519856
-0.24636378
-0.0024654558
-0.24601893
-0.0024093187
-0.24568301
-0.0023525446
-0.2453559
-0.0022961371
-0.24503734
-0.0022409999
-0.24472695
-0.0021879395
-0.24442427
-0.0021376685
-0.24412873
-0.0020908145
-0.24383972
-0.0020479165
-0.24355653
-0.0020094397
-0.24327842
-0.001975776
-0.24300461
-0.0019472505
-0.24273428
-0.0019241255
-0.24246658
-0.0019066084
-0.24220065
-0.0018948476
-0.0018889427
-0.24209861
4.00408e-06
-0.24210005
1.2034626e-05
-0.24210245
2.013214e-05
-0.24210584
2.8341958e-05
-0.24211023
3.6709285e-05
-0.24211564
4.528102e-05
-0.24212211
5.4103813e-05
-0.24212967
6.3227005e-05
-0.24213836
7.2699549e-05
-0.24214824
8.2574115e-05
-0.24215935
9.2902814e-05
-0.24217176
0.00010374256
-0.24218554
0.00011514946
-0.24220076
0.00012718559
-0.2422175
0.00013991191
-0.24223587
0.00015339654
-0.24225595
0.00016770608
-0.24227786
0.00018291559
-0.24230171
0.00019909806
-0.24232764
0.00021633628
-0.24235578
0.00023471027
-0.24238628
0.0002543112
-0.2424193
0.00027522656
-0.24245501
0.00029755643
-0.24249361
0.00032139592
-0.24253528
0.00034685413
-0.24258024
0.00037403357
-0.24262872
0.00040305209
-0.24268096
0.00043401872
-0.2427372
0.00046705908
-0.24279774
0.00050228711
-0.24286285
0.00053983197
-0.24293283
0.00057981896
-0.24300802
0.00062236573
-0.24308875
0.00066760612
-0.24317538
0.00071565084
-0.24326828
0.00076662842
-0.24336783
0.00082063733
-0.24347445
0.00087779257
-0.24358856
0.00093817033
-0.24371057
0.0010018609
-0.24384095
0.0010689062
-0.24398014
0.0011393506
-0.24412859
0.0012131957
-0.24428678
0.0012904153
-0.24445516
0.0013709439
-0.24463417
0.0014546701
-0.24482426
0.0015414329
-0.24502585
0.0016310083
-0.24523932
0.0017231074
-0.24546503
0.0018173655
-0.24570327
0.0019133346
-0.24595429
0.0020104739
-0.24621826
0.0021081468
-0.24649525
0.002205605
-0.24678524
0.0023019909
-0.24708808
0.0023963283
-0.2474035
0.0024875206
-0.24773106
0.0025743497
-0.24807013
0.0026554837
-0.24841992
0.0027294731
-0.24877941
0.0027947718
-0.24914736
0.0028497482
-0.24952229
0.0028927069
-0.24990248
0.002921916
-0.25028595
0.0029356388
-0.25067045
0.0029321788
-0.25105352
0.0029099119
-0.25143243
0.0028673477
-0.25180425
0.0028031762
-0.25216588
0.0027163236
-0.25251406
0.0026060062
-0.25284544
0.0024717875
-0.25315662
0.0023136145
-0.25344426
0.0021318678
-0.25370507
0.001927384
-0.25393595
0.0017014717
-0.25413404
0.0014559102
-0.25429679
0.0011929343
-0.25442202
0.00091519242
-0.25450802
0.00062570165
-0.25455352
0.00032777379
-0.25455782
2.493526e-05
-0.25452073
-0.00027916502
-0.25444261
-0.00058085347
-0.25432438
-0.00087653095
-0.25416743
-0.0011627685
-0.25397365
-0.0014363952
-0.25374532
-0.0016945746
-0.25348507
-0.0019348657
-0.2531958
-0.0021552722
-0.25288063
-0.0023542618
-0.2525428
-0.0025307836
-0.2521856
-0.0026842578
-0.25181231
-0.0028145549
-0.25142613
-0.0029219619
-0.25103017
-0.0030071373
-0.25062731
-0.0030710678
-0.25022029
-0.0031150015
-0.24981156
-0.0031404056
-0.24940336
-0.0031489055
-0.24899765
-0.0031422351
-0.24859613
-0.0031221886
-0.24820025
-0.0030905845
-0.24781119
-0.0030492176
-0.24742989
-0.0029998409
-0.24705707
-0.0029441359
-0.24669323
-0.0028836948
-0.24633868
-0.0028200067
-0.24599354
-0.002754454
-0.24565779
-0.0026882964
-0.24533124
-0.0026226813
-0.24501361
-0.0025586389
-0.24470446
-0.0024970868
-0.24440329
-0.0024388339
-0.24410952
-0.0023845912
-0.24382246
-0.0023349682
-0.24354141
-0.0022904898
-0.24326559
-0.0022515976
-0.24299419
-0.0022186574
-0.24272635
-0.0021919636
-0.24246121
-0.002171749
-0.24219788
-0.0021581799
-0.0021513679
-0.24209504
4.4727327e-06
-0.24209645
1.344323e-05
-0.2420988
2.248861e-05
-0.24210212
3.1659568e-05
-0.24210642
4.1006657e-05
-0.24211172
5.0582328e-05
-0.24211805
6.0438759e-05
-0.24212546
7.0631142e-05
-0.24213397
8.1214246e-05
-0.24214365
9.2247009e-05
-0.24215453
0.00010378775
-0.24216669
0.00011590018
-0.24218019
0.00012864713
-0.2421951
0.00014209811
-0.24221151
0.00015632142
-0.24222951
0.00017139338
-0.24224919
0.00018738869
-0.24227066
0.00020439149
-0.24229405
0.00022248369
-0.24231947
0.00024175819
-0.24234707
0.00026230486
-0.24237698
0.00028422614
-0.24240937
0.0003076204
-0.24244442
0.00033260018
-0.24248229
0.00035927259
-0.2425232
0.00038776051
-0.24256735
0.00041817958
-0.24261496
0.00045066276
-0.24266627
0.00048533333
-0.24272155
0.00052233332
-0.24278105
0.00056179194
-0.24284508
0.00060385567
-0.24291392
0.00064866697
-0.24298792
0.00069636007
-0.2430674
0.00074708764
-0.24315273
0.0008009769
-0.24324427
0.00085817541
-0.24334243
0.00091879757
-0.24344762
0.00098297677
-0.24356025
0.0010508035
-0.24368077
0.0011223846
-0.24380964
0.0011977733
-0.24394732
0.0012770264
-0.24409427
0.0013601528
-0.24425099
0.0014471317
-0.24441794
0.0015378981
-0.24459561
0.0016323364
-0.24478445
0.0017302758
-0.24498492
0.0018314749
-0.24519743
0.0019356198
-0.24542238
0.0020423114
-0.2456601
0.0021510565
-0.24591088
0.0022612573
-0.24617494
0.0023722069
-0.24645241
0.0024830714
-0.24674331
0.0025928914
-0.24704755
0.0027005717
-0.24736491
0.0028048779
-0.247695
0.0029044344
-0.24803724
0.0029977326
-0.2483909
0.0030831251
-0.24875497
0.0031588498
-0.24912827
0.0032230402
-0.24950931
0.0032737508
-0.24989638
0.003308987
-0.25028748
0.003326741
-0.25068035
0.003325043
-0.25107244
0.003301999
-0.25146095
0.003255861
-0.25184285
0.0031850818
-0.25221491
0.003088381
-0.25257371
0.002964808
-0.25291574
0.0028138105
-0.2532374
0.002635279
-0.25353514
0.0024296064
-0.25380547
0.0021977166
-0.25404509
0.0019410855
-0.25425092
0.0016617406
-0.25442023
0.0013622456
-0.25455069
0.0010456516
-0.25464043
0.00071544531
-0.25468812
0.00037546214
-0.25469297
2.9791848e-05
-0.25465481
-0.00031733046
-0.25457402
-0.00066164029
-0.25445159
-0.00099896118
-0.25428904
-0.0013253181
-0.2540884
-0.0016370414
-0.25385211
-0.0019308567
-0.25358302
-0.0022039561
-0.25328424
-0.0024540552
-0.25295909
-0.0026794147
-0.25261101
-0.0028788588
-0.25224351
-0.0030517617
-0.25186004
-0.0031980205
-0.25146399
-0.003318014
-0.25105858
-0.0034125488
-0.25064684
-0.0034828062
-0.25023158
-0.0035302639
-0.24981534
-0.0035566454
-0.2494004
-0.0035638488
-0.24898874
-0.0035538895
-0.24858209
-0.0035288433
-0.24818186
-0.0034908067
-0.24778924
-0.003441841
-0.24740513
-0.0033839529
-0.2470302
-0.003319061
-0.24666492
-0.0032489763
-0.24630954
-0.0031753874
-0.24596414
-0.0030998575
-0.24562863
-0.0030238071
-0.24530278
-0.0029485265
-0.24498625
-0.0028751711
-0.24467857
-0.0028047673
-0.24437918
-0.0027382178
-0.24408746
-0.0026763142
-0.2438027
-0.0026197334
-0.24352413
-0.0025690572
-0.24325095
-0.002524774
-0.24298232
-0.0024872876
-0.24271736
-0.0024569227
-0.24245518
-0.0024339356
-0.24219485
-0.002418509
-0.0024107655
-0.24209105
4.9302931e-06
-0.24209243
1.4818503e-05
-0.24209473
2.478935e-05
-0.24209797
3.489878e-05
-0.24210216
4.5202589e-05
-0.24210734
5.5758667e-05
-0.24211352
6.6624615e-05
-0.24212075
7.7861365e-05
-0.24212907
8.9529395e-05
-0.24213852
0.00010169379
-0.24214915
0.00011441899
-0.24216102
0.00012777536
-0.24217421
0.00014183237
-0.24218878
0.00015666684
-0.24220481
0.00017235432
-0.2422224
0.00018897922
-0.24224163
0.00020662422
-0.24226262
0.00022538245
-0.24228548
0.00024534467
-0.24231034
0.00026661379
-0.24233732
0.00028928949
-0.24236658