/*--------------------------------*- C++ -*----------------------------------*\
| =========                 |                                                 |
| \\      /  F ield         | foam-extend: Open Source CFD                    |
|  \\    /   O peration     | Version:     4.1                                |
|   \\  /    A nd           | Web:         http://www.foam-extend.org         |
|    \\/     M anipulation  |                                                 |
\*---------------------------------------------------------------------------*/
FoamFile
{
    version     2.0;
    format      ascii;
    class       volScalarField;
    location    "0.7";
    object      p;
}
// * * * * * * * * * * * * * * * * * * * * * * * * * * * * * * * * * * * * * //

dimensions      [0 2 -2 0 0 0 0];

internalField   nonuniform List<scalar> 
16796
(
-1.1581325
11.335617
21.510923
31.203654
40.532179
49.580195
58.374213
66.915701
75.191948
83.181143
90.85505
98.180445
105.12018
111.63393
117.67906
123.21076
128.18196
132.54545
136.25534
139.26633
141.53454
143.01825
143.67852
143.47984
142.39082
140.38487
137.43989
133.53751
128.66498
122.81648
115.99216
108.19853
99.448711
89.762605
79.167349
67.697493
55.395437
42.311667
28.505221
14.043938
-0.99507992
-16.525251
-32.450266
-48.663842
-65.04975
-81.481866
-97.824437
-113.93248
-129.65242
-144.82292
-159.27589
-172.83774
-185.3308
-196.57482
-206.38866
-214.59211
-221.00759
-225.46198
-227.78829
-227.82728
-225.4289
-220.4536
-212.77342
-202.27288
-188.84974
-172.41562
-152.89656
-130.2333
-104.37952
-75.299671
-42.973541
-7.4258418
31.291344
73.138377
118.06604
165.99872
216.83732
270.46039
326.72411
385.46233
446.48705
509.58936
574.54093
641.09595
708.9936
777.96099
847.7164
917.9729
988.44203
1058.8376
1128.8793
1198.2962
1266.83
1334.2376
1400.2937
1464.7925
1527.5489
1588.3998
1647.2039
1703.8419
1758.216
1810.249
1859.8834
1907.0796
1951.815
1994.0818
2033.8859
2071.2449
2106.1864
2138.7475
2168.9727
2196.9111
2222.6131
2246.1374
2267.5501
2286.9183
2304.3256
2319.8858
2333.708
2345.7566
2355.946
2365.1359
2377.3876
2394.7362
1.0073026
11.947669
21.837455
31.416512
40.704331
49.739465
58.533296
67.081131
75.367505
83.369282
91.05756
98.398717
105.3553
111.88666
117.94985
123.49951
128.48756
132.86703
136.59249
139.61838
141.90076
143.39784
144.07055
143.88329
142.80455
140.80758
137.86983
133.97174
129.10024
123.24975
116.42014
108.6178
99.855664
90.153514
79.538362
68.044639
55.714647
42.598797
28.756083
14.254334
-0.82931971
-16.408229
-32.385952
-48.656041
-65.102035
-81.597528
-98.006424
-114.18335
-129.97428
-145.21738
-159.74406
-173.38015
-185.94742
-197.26504
-207.15133
-215.42552
-221.90956
-226.42988
-228.81913
-228.91777
-226.57553
-221.65273
-214.02135
-203.56595
-190.1844
-173.78853
-154.30461
-131.67416
-105.85578
-76.827278
-44.579551
-9.1050408
29.587198
71.449806
116.41329
164.39478
215.29317
268.98646
325.33058
384.15926
445.28424
508.4962
573.5661
640.24719
708.27744
777.38252
847.2791
917.67849
988.29041
1058.8268
1129.0056
1198.5541
1267.2126
1334.7366
1400.8997
1465.4951
1528.3372
1589.2624
1648.1293
1704.8187
1759.2331
1811.2957
1860.9494
1908.1555
1952.8918
1995.1515
2034.9409
2072.2783
2107.1918
2139.7181
2169.9008
2197.7904
2223.4438
2246.9192
2268.2754
2287.5763
2304.8998
2320.3429
2333.9814
2345.7778
2355.7616
2364.6707
2374.6093
2384.1598
2.8484488
12.44139
21.888344
31.269139
40.473186
49.479852
58.275829
66.845357
75.167673
83.216881
90.962262
98.368697
105.39726
112.00624
118.15149
123.78711
128.86738
133.34484
137.17059
140.29758
142.68015
144.27474
145.04068
144.94061
143.9409
142.01205
139.12971
135.27678
130.44086
124.61381
117.79451
109.98832
101.2074
91.471006
80.805771
69.245954
56.83386
43.620108
29.664084
15.034209
-0.19160975
-15.92576
-32.070657
-48.518553
-65.151532
-81.841603
-98.450973
-114.83248
-130.83026
-146.28061
-161.01303
-174.85153
-187.61607
-199.12414
-209.19248
-217.63892
-224.28415
-228.95355
-231.47892
-231.70008
-229.46628
-224.63754
-217.0857
-206.69523
-193.36396
-177.00353
-157.54025
-134.91642
-109.09207
-80.041863
-47.757027
-12.240438
26.492022
68.399834
113.42154
161.47801
212.47012
266.27692
322.75499
381.73822
443.0381
506.44451
571.72711
638.63732
706.91081
776.2705
846.43
917.09728
987.97859
1058.7824
1129.2233
1199.0254
1267.926
1335.6781
1402.0533
1466.843
1529.8607
1590.9418
1649.9447
1706.7504
1761.2619
1813.4032
1863.1184
1910.3701
1955.1377
1997.416
2037.213
2074.5488
2109.4533
2141.9648
2172.1282
2199.9946
2225.621
2249.0673
2270.395
2289.6696
2306.9683
2322.3744
2335.9393
2347.6542
2357.6885
2366.5725
2374.7816
2379.8806
3.872622
13.052473
22.25779
31.498043
40.634285
49.617106
58.416332
67.007006
75.363317
83.456214
91.252539
98.715946
105.80734
112.4846
118.7028
124.41514
129.57433
134.13188
138.03863
141.2465
143.70889
145.38137
146.22223
146.19311
145.25931
143.3903
140.5603
136.7497
131.94449
126.13629
119.32285
111.50858
102.70474
92.929785
82.209674
70.578124
58.077069
44.756929
30.677095
15.906199
0.52258634
-15.385468
-31.719484
-48.370593
-65.219541
-82.136799
-98.98285
-115.60866
-131.85636
-147.56016
-162.54743
-176.64005
-189.65586
-201.41035
-211.71839
-220.39608
-227.2626
-232.14208
-234.86528
-235.27122
-233.20864
-228.53724
-221.12872
-210.86753
-197.65147
-181.39191
-162.01534
-139.46583
-113.70276
-84.695665
-52.431367
-16.911184
21.847096
63.804942
108.90366
157.06537
208.19189
262.1632
318.83656
378.04601
439.60259
503.29497
568.89085
636.13886
704.77117
774.50653
845.05385
916.11606
987.39414
1058.5913
1129.4169
1199.5904
1268.8445
1336.9285
1403.6107
1468.6802
1531.9483
1593.2496
1652.4419
1709.4064
1764.0466
1816.2878
1866.0757
1913.3745
1958.1657
2000.4462
2040.2264
2077.5284
2112.3842
2144.8343
2174.9256
2202.7108
2228.247
2251.5936
2272.8126
2291.969
2309.1361
2324.3838
2337.7495
2349.258
2359.1405
2367.6957
2374.7197
2378.2108
4.1895281
13.281047
22.371182
31.528704
40.624904
49.602525
58.423004
67.055323
75.469343
83.63249
91.510324
99.066028
106.25953
113.04731
119.3832
125.21917
130.50598
135.19343
139.23096
142.56873
145.15826
146.95318
147.90982
147.98789
147.15082
145.36658
142.60801
138.85343
134.08695
128.29906
121.48628
113.65195
104.80634
94.967046
84.159393
72.416673
59.780623
46.301712
32.03963
17.063581
1.4527494
-14.703474
-31.305214
-48.241942
-65.392483
-82.625142
-99.798023
-116.75952
-133.34904
-149.39796
-164.73075
-179.16639
-192.51987
-204.60393
-215.23083
-224.21431
-231.37147
-236.52461
-239.50302
-240.1446
-238.29729
-233.82028
-226.58506
-216.47603
-203.39088
-187.24094
-167.95321
-145.4741
-119.76211
-90.786547
-58.53231
-22.99906
15.797035
57.820939
103.01805
151.31383
202.61268
256.79661
313.72419
373.22999
435.12456
499.19509
565.20666
632.90424
702.01527
772.25295
843.31988
914.9122
986.72384
1058.4509
1129.7958
1200.4716
1270.2052
1338.7406
1405.842
1471.2949
1534.9085
1596.5157
1655.974
1713.1645
1767.992
1820.3833
1870.2861
1917.6673
1962.5111
2004.8173
2044.5993
2081.8822
2116.7009
2149.0985
2179.1242
2206.8328
2232.2824
2255.533
2276.6462
2295.6851
2312.7162
2327.795
2340.9501
2352.221
2361.812
2369.7986
2375.7991
2378.4758
4.4181158
13.566197
22.62799
31.751844
40.833038
49.818083
58.666434
67.343915
75.817057
84.051765
92.013491
99.664121
106.96201
113.86264
120.31869
126.2808
131.69817
136.519
140.69118
144.16315
146.88459
148.80721
149.88536
150.07671
149.34264
147.64909
144.96708
141.27283
136.54844
130.78253
123.97017
116.11344
107.2213
97.31025
86.404699
74.537245
61.749176
48.090763
33.621785
18.411831
2.5407825
-13.900946
-30.812128
-48.080549
-65.583027
-83.18555
-100.74361
-118.10275
-135.09929
-151.56135
-167.31006
-182.16096
-195.92567
-208.41362
-219.43395
-228.7975
-236.31874
-241.81774
-245.12192
-246.0677
-244.5019
-240.28297
-233.28196
-223.38292
-210.48317
-194.49366
-175.34192
-152.9756
-127.35038
-98.433924
-66.208967
-30.673083
8.1599144
50.258304
95.571295
144.02794
195.5358
249.97939
307.21903
367.08999
429.40233
493.94138
560.46896
628.72536
698.43208
769.29518
841.00927
913.2618
985.73769
1058.124
1130.1144
1201.4137
1271.7412
1340.8348
1408.4528
1474.3769
1538.4132
1600.3927
1660.1723
1717.6335
1772.6824
1825.2478
1875.2802
1922.7497
1967.6442
2009.9673
2049.7364
2086.9805
2121.7384
2154.0567
2183.9883
2211.5906
2236.9241
2260.0507
2281.0334
2299.9353
2316.8186
2331.7321
2344.7053
2355.7851
2365.1268
2372.6553
2377.9908
2380.242
4.4373897
13.659558
22.735701
31.863654
40.958131
49.973137
58.869582
67.612048
76.165461
84.496291
92.568643
100.34277
107.77594
114.82223
121.43278
127.55656
133.1408
138.13161
142.4747
146.1162
149.0034
151.08551
152.31434
152.64504
152.03656
150.45236
147.86123
144.23706
139.55965
133.81558
126.99844
119.10879
110.1542
100.15003
89.119794
77.095438
64.117866
50.237271
35.513668
20.017218
3.8287271
-12.960103
-30.246384
-47.915866
-65.842957
-83.890881
-101.91203
-119.74852
-137.23302
-154.18977
-170.43586
-185.78275
-200.03798
-213.007
-224.49518
-234.30985
-242.26235
-248.17002
-251.85807
-253.16118
-251.92496
-248.00709
-241.27828
-231.62238
-218.93652
-203.13179
-184.13713
-161.90019
-136.37515
-107.52842
-75.339948
-39.804173
-0.93114283
41.251883
86.69893
135.34374
187.09804
241.84981
299.46174
359.77019
422.58479
487.68871
554.83988
623.77293
694.20205
765.82461
838.32534
911.38103
984.66553
1057.8548
1130.6317
1202.6909
1273.7427
1343.5168
1411.7653
1478.2646
1542.817
1605.2518
1665.4247
1723.218
1778.5391
1831.3196
1881.5132
1929.0939
1974.0539
2016.4013
2056.1581
2093.358
2128.0443
2160.2676
2190.0846
2217.556
2242.7447
2265.7145
2286.5297
2305.2528
2321.943
2336.6457
2349.394
2360.2361
2369.2887
2376.4088
2381.2852
2383.2859
4.4780468
13.796805
22.913891
32.06997
41.19576
50.25366
59.20766
68.022513
76.664052
85.099097
93.290379
101.19738
108.77637
115.97999
122.75793
129.05734
134.8234
139.99998
144.53044
148.35832
151.42825
153.68668
155.0826
155.56831
155.09999
153.63823
151.14926
147.60428
142.98051
137.26212
130.44079
122.51524
113.49144
103.38334
92.213336
80.012479
66.821116
52.689209
37.676898
21.85485
5.304781
-11.880278
-29.595677
-47.724958
-66.139886
-84.700605
-103.25602
-121.64441
-139.69422
-157.22524
-174.04993
-189.97498
-204.80316
-218.33526
-230.37215
-240.71704
-249.1775
-255.56763
-259.70994
-261.43702
-260.59294
-257.03444
-250.63174
-241.26838
-228.84131
-213.26168
-194.45948
-172.38198
-146.98246
-118.2254
-86.087776
-50.56035
-11.648701
30.625114
76.220745
125.07754
177.11238
232.21757
290.25889
351.07424
414.47291
480.23568
548.11589
617.84148
689.11794
761.63218
835.0571
909.0567
983.2915
1057.4241
1131.1245
1204.0752
1275.9758
1346.5464
1415.5314
1482.7013
1547.8543
1610.8171
1671.4449
1729.6205
1785.2538
1838.2792
1888.6548
1936.3594
1981.3903
2023.7616
2063.5007
2100.6472
2135.2497
2167.3641
2197.0518
2224.3776
2249.4078
2272.2092
2292.8475
2311.3855
2327.8804
2342.3763
2354.9078
2365.5186
2374.2975
2381.0804
2385.632
2387.4718
4.4346054
13.84566
23.018032
32.222033
41.398636
50.517663
59.546618
68.451697
77.201015
85.761006
94.093827
102.15826
109.90938
117.29835
124.2731
130.77865
136.75779
142.15176
146.90105
150.94624
154.2288
156.69195
158.28142
158.94623
158.63934
157.31812
154.94579
151.49062
146.92692
141.23624
134.40815
126.43928
117.33397
107.10468
95.772561
83.367753
69.930019
55.509102
40.165312
23.969901
7.0056181
-10.633011
-28.839355
-47.494479
-66.467168
-85.614096
-104.78023
-123.79943
-142.49541
-160.68285
-178.16886
-194.75467
-210.23754
-224.41286
-237.07633
-248.02634
-257.06615
-264.00612
-268.66568
-270.87509
-270.47678
-267.32656
-261.29428
-252.26343
-240.13106
-224.80862
-206.22726
-184.33432
-159.08208
-130.43268
-98.359574
-62.849034
-23.901139
18.46838
64.225982
113.31786
165.66727
221.17194
279.70163
341.09636
405.16527
471.68654
540.40827
611.05058
683.30872
756.85727
831.35512
906.45109
981.78994
1057.0184
1131.7914
1205.7769
1278.6618
1350.1554
1419.9927
1487.9374
1553.783
1617.3534
1678.5031
1737.116
1793.1043
1846.4065
1896.9855
1944.8257
1989.9308
2032.3212
2072.0312
2109.1068
2143.6031
2175.5821
2205.1106
2232.2586
2257.0967
2279.6952
2300.1229
2318.4438
2334.7156
2348.9836
2361.2843
2371.6569
2380.1749
2386.6749
2390.9844
2392.7116
4.4051831
13.916368
23.153037
32.416337
41.655111
50.84566
59.958899
68.964253
77.832008
86.528383
95.015592
103.25195
111.19142
118.78371
125.97486
132.7076
138.9221
144.55668
149.54867
153.83528
157.35446
160.04582
161.8514
162.71653
162.59058
161.42727
159.18637
155.83294
151.33801
145.68022
138.8463
130.83075
121.6361
111.27301
99.761206
87.129712
73.417567
58.674182
42.959973
26.346756
8.9183442
-9.2291491
-27.986955
-47.233435
-66.834097
-86.641763
-106.49699
-126.22874
-145.65532
-164.58563
-182.82071
-200.15553
-216.38103
-231.28637
-244.66131
-256.29863
-265.99659
-273.5612
-278.80836
-281.56561
-281.67355
-278.98697
-273.37541
-264.72247
-252.9255
-237.89648
-219.56785
-197.88747
-172.80672
-144.2853
-112.29279
-76.810284
-37.831431
4.6355078
50.565101
99.911776
152.60658
208.55395
267.6287
329.67369
394.49828
461.87784
531.5546
603.23967
676.61643
751.34509
827.06815
903.41668
980.01697
1056.4973
1132.4947
1207.6608
1281.6674
1354.2112
1425.0168
1493.8402
1560.4695
1624.7257
1686.4627
1745.566
1801.9509
1855.5606
1906.3639
1954.3519
1999.5356
2041.9432
2081.6166
2118.6095
2152.9844
2184.8101
2214.1601
2241.1097
2265.735
2288.1103
2308.3077
2326.3935
2342.4272
2356.4561
2368.5189
2378.6525
2386.9245
2393.1822
2397.3007
2398.9429
4.3340856
13.944411
23.251181
32.583963
41.896797
51.171628
60.383114
69.504216
78.506877
87.358017
96.02009
104.45092
112.60332
120.42542
127.86112
134.8506
141.33106
147.23751
152.50369
157.06299
160.8494
163.79841
165.84794
166.93918
167.01741
166.03236
163.93986
160.70144
156.28458
150.66451
143.82489
135.75805
126.46447
115.95287
104.2414
91.357888
77.340552
62.238424
46.112003
29.033696
11.088445
-7.6259267
-26.998333
-46.904185
-67.205386
-87.750511
-108.37523
-128.90302
-149.14615
-168.90705
-187.97988
-206.15253
-223.20877
-238.9307
-253.10125
-265.50686
-275.94007
-284.20199
-290.10452
-293.47224
-294.14378
-291.97302
-286.82941
-278.597
-267.17393
-252.47308
-234.4285
-212.98904
-188.10525
-159.73418
-127.84102
-92.400845
-53.399768
-10.837226
35.271006
84.889258
137.95803
194.39
254.06637
316.83376
382.50215
450.84408
521.59517
594.45628
669.09712
745.16119
822.27198
900.03989
978.06973
1055.9684
1133.3521
1209.8534
1285.127
1358.855
1430.7504
1500.5601
1568.0665
1633.0876
1695.4768
1755.1215
1811.941
1865.8843
1916.9268
1965.0678
2010.3266
2052.7403
2092.36
2129.2479
2163.4752
2195.1188
2224.2594
2250.9794
2275.3605
2297.4824
2317.4215
2335.2474
2351.0224
2364.7971
2376.6124
2386.505
2394.5427
2400.5857
2404.5449
2406.1183
4.2610064
13.974307
23.353852
32.761082
42.154341
51.520875
60.839289
70.085936
79.234878
88.254142
97.106591
105.74965
114.13506
122.20924
129.91382
137.18613
143.96011
150.16708
155.73679
160.59836
164.68135
167.91668
170.23765
171.58084
171.88698
171.10141
169.1755
166.06695
161.7393
156.16391
149.32104
141.20051
131.80061
121.12783
109.19857
96.039298
81.687251
66.190978
49.610991
32.020261
13.504893
-5.8354949
-25.887336
-46.522853
-67.600029
-88.962776
-110.44138
-131.85322
-153.00385
-173.68842
-193.69339
-212.79863
-230.77981
-247.41095
-262.46724
-275.72786
-286.97883
-296.01564
-302.6457
-306.69027
-307.98586
-306.38548
-301.75876
-293.99062
-282.98049
-268.6427
-250.91344
-229.7432
-205.08215
-176.88466
-145.11115
-109.72991
-70.718316
-28.065453
18.224351
68.127276
121.59526
178.55113
238.88401
302.44549
369.04684
438.45771
510.40649
584.58243
660.63956
738.20219
816.87181
896.23493
975.87155
1055.3638
1134.3041
1212.3029
1288.9957
1364.0477
1437.1589
1508.0664
1576.5461
1642.4131
1705.5207
1765.7588
1823.0517
1877.3548
1928.6519
1976.9513
2022.2824
2064.6922
2104.2421
2141.0044
2175.0598
2206.4943
2235.3971
2261.858
2285.9658
2307.806
2327.4602
2345.0023
2360.4985
2374.0031
2385.5605
2395.209
2403.0198
2408.8658
2412.6851
2414.1991
4.1617614
13.978381
23.432046
32.917929
42.397861
51.864231
61.299687
70.68394
79.993441
89.197584
98.259748
107.13701
115.77997
124.1332
132.13577
139.7219
146.82183
153.36281
159.2701
164.46809
168.88134
172.43572
175.0594
176.68382
177.24466
176.68244
174.94355
171.9815
167.75551
162.23268
155.38944
147.21297
137.69915
126.85208
114.68624
101.22659
86.50929
70.582286
53.506048
35.354086
16.213698
-3.8136126
-24.611643
-46.04919
-67.979991
-90.242875
-112.66222
-135.04869
-157.20039
-178.90436
-199.93845
-220.07354
-239.07615
-256.71121
-272.74513
-286.94887
-299.10106
-308.99089
-316.42071
-321.20814
-323.18753
-322.21119
-318.1493
-310.88828
-300.32962
-286.3898
-269.00787
-248.13674
-223.72662
-195.72916
-164.09961
-128.79856
-89.79333
-47.060905
-0.59208514
49.603463
103.49147
161.00714
222.04948
286.4765
354.10159
424.69164
497.9671
573.60414
651.23889
730.47361
810.88443
892.03033
973.46268
1054.7351
1135.4126
1215.0808
1293.3526
1369.8747
1444.3324
1516.452
1586.0025
1652.796
1716.6861
1777.5662
1835.3664
1890.0503
1941.6111
1990.0678
2035.4611
2077.8497
2117.3065
2153.9154
2187.7678
2218.96
2247.5905
2273.758
2297.5587
2319.0852
2338.4248
2355.6568
2370.8519
2384.069
2395.3564
2404.7553
2412.3422
2418.0014
2421.6918
2423.1521
4.0479865
13.968266
23.494384
33.059217
42.627976
52.198317
61.757117
71.28761
80.768881
90.171937
99.460811
108.59229
117.51577
126.1738
134.50267
142.43312
149.89134
156.80001
163.07943
168.64869
173.42688
177.33422
180.2932
182.22961
183.07356
182.76025
181.23062
178.43353
174.32354
168.86308
162.02427
153.79138
144.15757
133.12443
120.70432
106.92051
91.807877
75.413656
57.798163
39.035394
19.213835
-1.5630585
-23.176312
-45.491068
-68.356497
-91.605914
-115.05724
-138.51376
-161.76536
-184.59007
-206.75611
-228.02431
-248.15086
-266.89045
-283.99952
-299.23973
-312.38131
-323.20629
-331.51135
-337.11008
-339.83458
-339.53664
-336.08751
-329.37581
-319.30602
-305.79778
-288.79391
-268.25091
-244.1198
-216.34974
-184.89048
-149.69402
-110.71615
-67.919754
-21.279669
29.211312
83.535536
141.64329
203.44585
268.80946
337.55075
409.43411
484.17139
561.42407
640.80791
721.89989
804.24704
887.3766
970.80704
1054.0592
1136.667
1218.1872
1298.2077
1376.3544
1452.2957
1525.7465
1596.4685
1664.271
1729.0085
1790.5788
1848.9193
1904.003
1955.8342
2004.4443
2049.8869
2092.2339
2131.5715
2167.9961
2201.6115
2232.5253
2260.8467
2286.6837
2310.1414
2331.32
2350.3135
2367.2071
2382.077
2394.9871
2405.9902
2415.1318
2422.4937
2427.9703
2431.5374
2432.9466
3.911128
13.933621
23.529065
33.171827
42.830512
52.508321
62.196639
71.88243
81.547629
91.16506
100.69951
110.10748
119.33706
128.32859
137.01525
145.32394
153.17633
160.49003
167.17982
173.15894
178.34038
182.63815
185.96844
188.25084
189.40931
189.37321
188.07753
185.46599
181.48804
176.10108
169.27267
160.98361
151.22403
139.99308
127.30079
113.16856
97.629828
80.730952
62.532001
43.10738
22.546749
0.95555912
-21.544316
-44.814154
-68.698233
-93.023923
-117.60212
-142.22806
-166.68254
-190.73366
-214.13892
-236.6479
-258.00525
-277.95409
-296.23962
-312.61295
-326.83484
-338.67923
-347.93643
-354.41565
-357.94666
-358.38104
-355.59176
-349.47058
-339.92621
-326.88267
-310.28784
-290.10315
-266.28135
-238.76941
-207.51132
-172.44955
-133.52669
-90.689267
-43.8933
6.8884948
61.658439
120.38515
182.99507
249.36495
319.31607
392.61074
468.95154
547.9835
629.29922
712.44674
796.93962
882.26863
967.91444
1053.3604
1138.1046
1221.6714
1303.6202
1383.5533
1461.1213
1536.026
1608.0219
1676.9155
1742.5634
1804.8689
1863.7782
1919.2754
1971.378
2020.1313
2065.6039
2107.8826
2147.0684
2183.2721
2216.6109
2247.2053
2275.176
2300.6416
2323.7168
2344.5101
2363.1231
2379.6477
2394.1659
2406.7473
2417.4496
2426.3233
2433.4555
2438.7493
2442.1947
2443.554
3.7500784
13.870843
23.529135
33.245242
42.991424
52.776882
62.597921
72.445551
82.304801
92.150536
101.94841
111.65461
121.21584
130.56994
139.6467
148.36871
156.65265
164.41048
171.55087
177.98059
183.60589
188.33392
192.07398
194.73879
196.24561
196.51739
195.48274
193.07952
189.25181
183.95172
177.14207
168.79881
158.90896
147.46975
134.48841
119.98424
103.98902
86.548057
67.721022
47.582621
26.223636
3.7515267
-19.708838
-44.014673
-69.005056
-94.500971
-120.30572
-146.20573
-171.97186
-197.36121
-222.1194
-245.98345
-268.68505
-289.9543
-309.5237
-327.13242
-342.53044
-355.48251
-365.7718
-373.20264
-377.60239
-378.82279
-376.73933
-371.24803
-362.26333
-349.71525
-333.55832
-313.76078
-290.27843
-263.05669
-232.03365
-197.14129
-158.30718
-115.45885
-68.53018
-17.470016
37.747965
97.114655
160.57516
228.01956
299.27561
374.1042
452.19799
533.18361
616.62735
702.04412
788.90901
876.6709
964.76699
1052.6376
1139.7403
1225.5621
1309.6307
1391.5223
1470.8672
1547.3537
1620.7287
1690.7966
1757.417
1820.5005
1880.0036
1935.9239
1988.2937
2037.1747
2082.6522
2124.8303
2163.8262
2199.7669
2232.7846
2263.0136
2290.5875
2315.6367
2338.2862
2358.6536
2376.8489
2392.971
2407.1086
2419.3372
2429.7201
2438.3124
2445.207
2450.3143
2453.6368
2454.9458
3.562216
13.775574
23.487999
33.270667
43.099899
52.991498
62.947225
72.962515
83.025744
93.114052
103.19405
113.2216
123.14184
132.88986
142.39164
151.565
160.32105
168.56552
176.2003
183.12498
189.23842
194.44017
198.63196
201.71902
203.61126
204.22458
203.48077
201.31113
197.65408
192.45605
185.6743
177.27952
167.25593
155.59835
142.31109
127.41114
110.92845
92.907066
73.406085
52.500383
30.281778
6.859723
-17.637849
-43.063919
-69.25207
-96.016463
-123.15221
-150.43618
-177.62835
-204.4737
-230.7047
-256.04437
-280.20989
-302.91672
-323.88302
-342.8344
-359.5086
-373.65999
-385.06363
-393.51846
-398.84938
-400.90871
-399.57543
-394.75126
-386.35823
-374.33435
-358.64293
-339.26122
-316.14979
-289.25335
-258.50412
-223.8226
-185.11937
-142.2999
-95.272086
-43.956383
11.702326
71.721943
136.07053
204.65494
277.31172
353.80125
433.80565
516.931
602.71368
690.6306
780.11267
870.56054
961.3615
1051.9066
1141.6069
1229.9076
1316.3003
1400.332
1481.6114
1559.8121
1634.6734
1705.9985
1773.6515
1837.5517
1897.6686
1954.0152
2006.6414
2055.6275
2101.0781
2143.1159
2181.8771
2217.5062
2250.1519
2279.9642
2307.0904
2331.6735
2353.8499
2373.7473
2391.4842
2407.1676
2420.8931
2432.7424
2442.7844
2451.0796
2457.7256
2462.6399
2465.8359
2467.0935
3.3413992
13.637873
23.391824
33.230473
43.134703
53.127666
63.217291
73.403846
83.679354
94.0235
104.40395
114.7762
125.08362
135.25823
145.22174
154.88669
164.15798
172.93441
181.11039
188.57758
195.22666
200.94888
205.63766
209.19002
211.50786
212.49936
212.07906
210.17095
206.70753
201.62908
194.88662
186.44514
176.28593
164.40129
150.79234
135.47351
118.47273
99.832543
79.611261
57.883747
34.742727
10.299584
-15.314659
-41.948605
-69.430072
-97.565969
-126.14261
-154.92653
-183.6658
-212.09211
-239.92335
-266.86697
-292.62391
-316.89313
-339.37658
-359.78447
-377.84061
-393.2875
-405.891
-415.444
-421.76884
-424.7189
-424.1778
-420.05469
-412.28145
-400.80657
-385.60481
-366.66534
-343.95572
-317.42127
-286.98863
-252.56585
-214.04427
-171.30385
-124.22196
-72.68532
-16.604267
44.07183
109.33921
179.12575
253.2797
331.56218
413.64422
499.10894
587.45864
678.12669
770.49312
863.90302
957.68629
1051.1775
1143.7346
1234.7555
1323.6912
1410.0564
1493.4361
1573.4886
1649.9457
1722.6108
1791.3537
1856.1053
1916.8504
1973.6202
2026.4848
2075.5458
2120.9295
2162.78
2201.2542
2236.5161
2268.7328
2298.0707
2324.6927
2348.7553
2370.4069
2389.786
2407.0207
2422.226
2435.5049
2446.9457
2456.6232
2464.6028
2470.9871
2475.6993
2478.7638
2479.9678
3.0859232
13.453481
23.233054
33.113852
43.082007
53.169001
63.3896
73.749401
84.24454
94.857503
105.5571
116.29839
127.02275
137.65875
148.12334
158.32314
168.15616
177.51352
186.28132
194.34253
201.57877
207.87221
213.10714
217.17161
219.95881
221.36854
221.30747
219.69164
216.44719
211.50788
204.8179
196.3359
186.04013
173.92033
159.97406
144.21307
126.66315
107.36499
86.375885
63.77045
39.642136
14.104146
-12.709426
-40.642712
-69.51752
-99.133098
-129.26637
-159.67268
-190.08719
-220.22698
-249.79386
-278.47795
-305.96202
-331.92647
-356.05488
-378.03997
-397.58964
-414.43281
-428.32481
-439.05169
-446.43307
-450.32399
-450.61409
-447.22191
-440.09203
-429.1865
-414.49487
-396.02178
-373.74468
-347.61125
-317.54312
-283.43503
-245.15661
-202.55835
-155.48175
-103.77348
-47.302433
14.021647
80.229509
151.2753
227.0226
307.23495
391.5718
479.59057
570.75476
664.44766
759.99062
856.66465
953.73355
1050.4671
1146.1627
1240.1644
1331.878
1420.7824
1506.4369
1588.4837
1666.648
1740.7345
1810.6215
1876.2539
1937.6346
1994.8165
2047.8929
2096.9899
2142.258
2183.8656
2221.9923
2256.8236
2288.5468
2317.3465
2343.4018
2366.884
2387.9546
2406.7632
2423.4479
2438.1325
2450.9275
2461.928
2471.2147
2478.858
2484.9648
2489.4642
2492.3904
2493.5383
2.7880502
13.209985
22.994625
32.899344
42.916257
53.086218
63.431755
73.964476
84.684984
95.57889
106.61626
117.75157
128.92399
140.05816
151.06569
161.84659
172.29121
182.28214
191.69631
200.40704
208.28608
215.20556
221.03982
225.66715
228.97125
230.84279
231.18006
229.89042
226.89315
222.11514
215.49329
206.97917
196.54767
184.1858
169.88765
153.66202
135.53225
115.53687
93.731852
70.191288
45.009103
18.300146
-9.7984971
-39.12644
-69.499283
-100.70823
-132.5202
-164.67853
-196.90434
-228.89875
-260.3458
-290.91637
-320.27288
-348.07484
-373.98502
-397.67619
-418.83801
-437.1838
-452.45676
-464.43507
-472.9354
-477.81505
-478.97126
-476.33436
-469.865
-459.54257
-445.37564
-427.38878
-405.57302
-379.88088
-350.22998
-316.50094
-278.53905
-236.16075
-189.16542
-137.35214
-80.540122
-18.591136
48.567791
120.92349
198.35943
280.64375
367.42392
458.22865
552.47708
649.4948
748.53537
848.80572
949.49339
1049.7937
1148.935
1246.2002
1340.9445
1432.6074
1520.7203
1604.9092
1684.8936
1760.4814
1831.5622
1898.0981
1960.114
2017.6878
2070.9399
2120.0239
2165.118
2206.4174
2244.127
2278.4561
2309.6137
2337.804
2363.2239
2386.0604
2406.4884
2424.6699
2440.7532
2454.871
2467.1418
2477.6674
2486.5347
2493.8187
2499.6305
2503.9043
2506.6844
2507.7732
2.4448176
12.900621
22.665228
32.571215
42.617581
52.855739
63.317158
74.020187
84.970289
96.15657
107.55044
119.10571
130.75896
142.43042
154.02568
165.43738
176.54732
187.22863
197.34809
206.7684
215.35043
222.95533
229.44657
234.69179
238.5644
240.94519
241.72337
240.79699
238.07793
233.4856
226.94944
218.41376
207.84892
195.23872
180.57452
163.8619
145.12137
124.38896
101.71894
77.184546
50.879839
22.921075
-6.5518231
-37.373972
-69.35462
-102.27658
-135.89619
-169.94392
-204.12572
-238.12523
-271.60696
-304.2204
-335.60523
-365.3974
-393.23607
-418.77124
-441.67162
-461.63247
-478.38291
-491.69203
-501.37311
-507.28636
-509.33843
-507.47428
-501.67464
-491.94091
-478.30586
-460.81958
-439.49137
-414.28184
-385.10617
-351.83033
-314.27233
-272.20934
-225.39127
-173.56069
-116.47719
-53.944516
14.161913
87.869498
167.08721
251.59069
341.01516
434.85713
532.48495
633.15757
736.05001
840.28336
944.95702
1049.1807
1152.1035
1252.9396
1350.9872
1445.6424
1536.4071
1622.891
1704.8091
1781.9754
1854.294
1921.7483
1984.3895
2042.3245
2095.7049
2144.7158
2189.5665
2230.4819
2267.6949
2301.4409
2331.9522
2359.4546
2384.1637
2406.2829
2426.0019
2443.495
2458.9213
2472.4229
2484.1261
2494.1397
2502.5565
2509.4562
2514.9534
2518.9875
2521.6126
2522.6386
2.0480608
12.511612
22.225375
32.104531
42.155992
52.443183
63.007762
73.875625
85.057643
96.546802
108.31595
120.31803
132.48666
144.73704
156.96801
169.06391
180.89704
192.33001
203.21839
213.41318
222.76327
231.11783
238.32845
244.25117
248.74824
251.6898
252.95524
252.4328
250.026
245.64642
239.21612
230.67289
219.97898
207.11483
192.07145
174.85019
155.46836
133.95905
110.37438
84.786304
57.288627
27.998671
-2.9410441
-35.361241
-69.064743
-103.82568
-139.38926
-175.47223
-211.76415
-247.92966
-283.61173
-318.43617
-352.01721
-383.96424
-413.8896
-441.41721
-466.19163
-487.88713
-506.21638
-520.93773
-531.8605
-538.8484
-541.81953
-540.73672
-535.60564
-526.4553
-513.34922
-496.36988
-475.55079
-450.86502
-422.22764
-389.48969
-352.4388
-310.80686
-264.28571
-212.55072
-155.28998
-92.237039
-23.204283
51.88591
132.97505
219.84993
312.13344
409.28598
510.61755
615.30993
722.44684
831.04966
940.11571
1048.6559
1155.729
1260.4708
1362.116
1460.0134
1553.6335
1642.57
1726.5355
1805.3535
1878.9468
1947.325
2010.5702
2068.8237
2122.2726
2171.1377
2215.6632
2256.107
2292.7331
2325.805
2355.5806
2382.3083
2406.2238
2427.5481
2446.486
2463.2247
2477.9345
2490.7668
2501.856
2511.3177
2519.2506
2525.7389
2530.9004
2534.6793
2537.1396
2538.099
1.5929268
12.032812
21.658898
31.477276
41.504005
51.816201
62.467164
73.491299
84.905483
96.707007
108.87023
121.34701
134.0675
146.94122
159.85933
172.6969
185.31561
197.56641
209.29247
220.33189
230.52043
239.69412
247.6916
254.35634
259.53848
263.09668
264.89968
264.82554
262.76831
258.63178
252.33032
243.79392
232.97601
219.85459
204.41984
186.66877
166.6152
144.28885
119.73917
93.036274
64.273228
33.567974
1.0652892
-33.061362
-68.608395
-105.34103
-142.99286
-181.26605
-219.83256
-258.33635
-296.39678
-333.61339
-369.57194
-403.8519
-436.03509
-465.71553
-492.50981
-516.06775
-536.08258
-552.29985
-564.52402
-572.62284
-576.52806
-576.22419
-571.74754
-563.16159
-550.56862
-534.09196
-513.79693
-489.67476
-461.6437
-429.54008
-393.11786
-352.05676
-305.98044
-254.48433
-197.17074
-133.68827
-63.772408
12.716545
95.761323
185.16458
280.53707
381.29854
486.69182
595.80895
707.62725
821.05197
934.96185
1048.2537
1159.8828
1268.8961
1374.4575
1475.864
1572.5534
1664.1043
1750.2298
1830.7671
1905.6633
1974.9593
2038.7744
2097.2895
2150.7325
2199.3649
2243.4699
2283.3419
2319.2788
2351.5748
2380.5153
2406.373
2429.4048
2449.85
2467.929
2483.8425
2497.7719
2509.8784
2520.3041
2529.1716
2536.5851
2542.6329
2547.4359
2550.9429
2553.2277
2554.1162
1.0709575
11.448977
20.943433
30.660244
40.62604
50.933576
61.649474
72.817759
84.461993
96.584228
109.16038
122.14091
135.45197
148.9965
162.65704
176.29822
189.76987