/*--------------------------------*- C++ -*----------------------------------*\
| =========                 |                                                 |
| \\      /  F ield         | foam-extend: Open Source CFD                    |
|  \\    /   O peration     | Version:     4.1                                |
|   \\  /    A nd           | Web:         http://www.foam-extend.org         |
|    \\/     M anipulation  |                                                 |
\*---------------------------------------------------------------------------*/
FoamFile
{
    version     2.0;
    format      ascii;
    class       surfaceScalarField;
    location    "0.7";
    object      phi;
}
// * * * * * * * * * * * * * * * * * * * * * * * * * * * * * * * * * * * * * //

dimensions      [0 3 -1 0 0 0 0];

internalField   nonuniform List<scalar> 
32976
(
-0.22712267
0.00031427964
-0.22746046
0.00033779261
-0.22778641
0.00032594933
-0.22809299
0.00030657832
-0.22837669
0.00028369672
-0.22863593
0.00025924195
-0.22887009
0.00023415933
-0.22907916
0.00020907303
-0.22926363
0.00018446485
-0.22942439
0.0001607631
-0.22956275
0.00013835642
-0.22968036
0.00011761536
-0.22977925
9.8883807e-05
-0.22986174
8.2489546e-05
-0.22993046
6.8729454e-05
-0.22998834
5.7875497e-05
-0.23003852
5.0181184e-05
-0.23008438
4.5858503e-05
-0.23012945
4.5064963e-05
-0.23017738
4.7933304e-05
-0.23023193
5.4549255e-05
-0.23029688
6.4954111e-05
-0.23037602
7.9141661e-05
-0.23047308
9.7059261e-05
-0.23059169
0.00011860388
-0.23073531
0.00014362515
-0.23090724
0.00017192472
-0.23111052
0.00020328317
-0.23134794
0.00023742345
-0.23162196
0.00027401834
-0.23193467
0.00031270558
-0.23228776
0.00035309377
-0.23268252
0.00039476038
-0.23311977
0.00043725169
-0.23359988
0.00048010546
-0.23412271
0.00052283133
-0.23468766
0.00056494533
-0.2352936
0.00060594436
-0.23593895
0.00064534674
-0.23662161
0.00068266128
-0.23733904
0.00071743348
-0.23808825
0.00074921009
-0.23886583
0.00077758361
-0.239668
0.00080217006
-0.24049063
0.00082262823
-0.24132929
0.00083866047
-0.24217931
0.0008500171
-0.24303581
0.00085650195
-0.24389378
0.00085797171
-0.24474813
0.00085434153
-0.24559371
0.0008455846
-0.24642544
0.00083173278
-0.24723832
0.00081287564
-0.24802748
0.00078916059
-0.24878827
0.00076078678
-0.24951627
0.00072800498
-0.25020738
0.00069111134
-0.25085782
0.00065044243
-0.25146419
0.00060636888
-0.25202348
0.00055929001
-0.25253311
0.00050962423
-0.25299091
0.00045780419
-0.25339518
0.00040426838
-0.25374463
0.00034945374
-0.25403842
0.00029378978
-0.25427612
0.00023769206
-0.25445767
0.00018155359
-0.25458341
0.00012574489
-0.25465403
7.0614958e-05
-0.25467053
1.6499108e-05
-0.25463413
-3.640166e-05
-0.2545456
-8.8526998e-05
-0.2544054
-0.00014020275
-0.2542146
-0.0001907984
-0.25397513
-0.00023947343
-0.25368946
-0.00028566159
-0.25336047
-0.00032899095
-0.25299128
-0.00036919281
-0.25258522
-0.00040605627
-0.25214582
-0.00043940847
-0.25167671
-0.00046910604
-0.25118168
-0.00049502903
-0.2506646
-0.00051708044
-0.25012941
-0.0005351877
-0.24958011
-0.00054930479
-0.24902069
-0.00055941535
-0.24845516
-0.00056553514
-0.24788744
-0.0005677143
-0.2473214
-0.00056603878
-0.24676077
-0.00056063065
-0.24620912
-0.00055164851
-0.24566984
-0.00053928348
-0.24514608
-0.00052375889
-0.24464076
-0.00050532523
-0.2441565
-0.00048425597
-0.24369566
-0.00046084244
-0.24326027
-0.00043538819
-0.24285207
-0.00040820418
-0.24247246
-0.00037960139
-0.24212258
-0.00034988733
-0.24180322
-0.00031936001
-0.24151491
-0.00028830374
-0.24125793
-0.0002569851
-0.24103228
-0.0002256502
-0.24083776
-0.00019452113
-0.24067396
-0.00016379523
-0.24054032
-0.00013364361
-0.24043611
-0.0001042106
-0.24036049
-7.5613819e-05
-0.24031255
-4.7943306e-05
-0.24029128
-2.1269677e-05
-0.2402956
4.3146966e-06
-0.24032429
2.8692607e-05
-0.2403762
5.1913344e-05
-0.24045031
7.4104948e-05
-0.24054559
9.5285639e-05
-0.24066104
0.00011544931
-0.24079561
0.00013456869
-0.24094804
0.00015243168
-0.24111629
0.0001682433
-0.24129707
0.00018078935
-0.24149175
0.00019467157
-0.24170437
0.00021261972
0.00023108383
-0.25821936
0.00045239812
-0.25833733
0.00045575961
-0.2584405
0.00042911749
-0.25852552
0.00039160494
-0.25859028
0.00034845028
-0.25863343
0.00030239903
-0.25865431
0.00025503376
-0.25865271
0.00020747649
-0.25862888
0.00016063263
-0.25858343
0.00011531636
-0.25851736
7.2280405e-05
-0.25843198
3.2242009e-05
-0.25832898
-4.1207936e-06
-0.25821032
-3.6163449e-05
-0.25807831
-6.3290122e-05
-0.25793545
-8.4976693e-05
-0.25778449
-0.0001007867
-0.25762833
-0.00011029429
-0.25747017
-0.00011310121
-0.25731331
-0.00010892149
-0.25716122
-9.7541647e-05
-0.25701743
-7.8838869e-05
-0.2568855
-5.2783059e-05
-0.256769
-1.9438833e-05
-0.25667144
2.1034967e-05
-0.25659619
6.8382361e-05
-0.25654651
0.00012223845
-0.25652532
0.00018209292
-0.25653528
0.00024738688
-0.2565788
0.00031753539
-0.25665794
0.00039184675
-0.25677442
0.00046957402
-0.25692956
0.00054990385
-0.25712427
0.00063196296
-0.25735902
0.00071485125
-0.2576338
0.0007976165
-0.25794817
0.00087930799
-0.25830116
0.00095894097
-0.25869138
0.0010355613
-0.25911692
0.0011082002
-0.25957543
0.0011759494
-0.26006413
0.0012379071
-0.2605798
0.0012932524
-0.26111884
0.0013412111
-0.2616773
0.0013810897
-0.26225092
0.0014122783
-0.26283516
0.0014342603
-0.26342528
0.0014466231
-0.26401637
0.0014490583
-0.2646034
0.0014413726
-0.2651813
0.0014234881
-0.26574502
0.0013954441
-0.26628954
0.0013573957
-0.26680999
0.0013096143
-0.26730168
0.0012524771
-0.26776014
0.0011864658
-0.26818119
0.0011121561
-0.26856095
0.001030207
-0.26889593
0.00094134893
-0.26918301
0.00084637275
-0.2694195
0.00074611153
-0.26960313
0.00064142996
-0.26973207
0.00053320805
-0.26980494
0.00042232624
-0.2698208
0.00030965415
-0.26977915
0.0001960385
-0.26967989
8.229351e-05
-0.26952334
-3.0801533e-05
-0.2693102
-0.00014252449
-0.26904146
-0.00025224279
-0.26871846
-0.00035940435
-0.26834365
-0.00046333531
-0.26792044
-0.00056340895
-0.26745201
-0.00065923058
-0.26694105
-0.00075043528
-0.2663901
-0.00083661123
-0.26580173
-0.00091735905
-0.26517862
-0.00099230961
-0.26452354
-0.0010611282
-0.26383944
-0.0011235088
-0.26312937
-0.0011791804
-0.26239649
-0.0012279047
-0.26164409
-0.0012694815
-0.26087553
-0.0013037538
-0.26009422
-0.0013306133
-0.25930363
-0.0013500073
-0.25850722
-0.0013619437
-0.25770844
-0.001366496
-0.25691067
-0.0013638061
-0.25611721
-0.0013540852
-0.25533125
-0.0013376151
-0.25455579
-0.00131474
-0.25379368
-0.0012858668
-0.25304755
-0.0012514551
-0.2523198
-0.0012120095
-0.25161257
-0.0011680697
-0.25092776
-0.0011201998
-0.25026698
-0.0010689801
-0.24963159
-0.0010149912
-0.24902267
-0.00095880914
-0.24844104
-0.00090099301
-0.24788727
-0.00084207731
-0.24736169
-0.00078256398
-0.24686442
-0.00072291793
-0.24639538
-0.00066355882
-0.24595432
-0.00060486089
-0.24554081
-0.00054714906
-0.24515432
-0.00049069826
-0.2447942
-0.00043573364
-0.24445972
-0.00038243116
-0.24415006
-0.00033092371
-0.24386445
-0.00028129889
-0.24360217
-0.00023358379
-0.24336245
-0.00018780859
-0.24314434
-0.0001440018
-0.24294689
-0.00010216413
-0.24276915
-6.2293051e-05
-0.24261015
-2.443155e-05
-0.24246878
1.1065026e-05
-0.24234367
4.3131686e-05
-0.24223378
7.089478e-05
-0.24214211
0.00010300661
-0.24205667
0.00012717969
0.00010986092
-0.26143587
0.00048737758
-0.26143123
0.00045112342
-0.26140397
0.00040185099
-0.26135717
0.00034480829
-0.26129169
0.00028297164
-0.26120794
0.00021864419
-0.26110642
0.00015351982
-0.26098791
8.8966725e-05
-0.26085345
2.6167351e-05
-0.26070434
-3.3794364e-05
-0.26054215
-8.9902099e-05
-0.26036872
-0.0001411923
-0.26018608
-0.0001867558
-0.2599965
-0.00022575003
-0.2598024
-0.00025738649
-0.25960642
-0.00028095531
-0.2594114
-0.00029581233
-0.25922026
-0.00030143365
-0.25903596
-0.00029739842
-0.25886149
-0.00028339427
-0.25869981
-0.00025921902
-0.25855385
-0.00022480254
-0.25842644
-0.00018019089
-0.25832031
-0.00012556558
-0.25823804
-6.1233361e-05
-0.25818202
1.235966e-05
-0.25815444
9.4661349e-05
-0.25815738
0.00018502481
-0.25819265
0.00028266284
-0.25826179
0.00038667358
-0.258366
0.00049605765
-0.25850616
0.00060973106
-0.25868278
0.00072652909
-0.25889603
0.00084520899
-0.25914567
0.00096449472
-0.2594311
0.001083045
-0.25975132
0.0011995239
-0.26010493
0.0013125533
-0.26049017
0.0014208004
-0.26090488
0.0015229152
-0.26134657
0.001617634
-0.26181237
0.0017037044
-0.2622991
0.0017799879
-0.2628033
0.0018454124
-0.26332123
0.0018990192
-0.26384892
0.0019399679
-0.26438221
0.0019675489
-0.26491679
0.0019811993
-0.26544823
0.0019805033
-0.26597207
0.0019652078
-0.2664838
0.0019352231
-0.26697898
0.0018906254
-0.26745324
0.0018316558
-0.26790235
0.0017587202
-0.26832225
0.0016723756
-0.26870911
0.0015733282
-0.26905937
0.001462417
-0.26936976
0.0013406006
-0.26963735
0.001208939
-0.26985956
0.001068577
-0.27003417
0.00092071967
-0.27015935
0.0007666153
-0.27023368
0.00060753276
-0.27025609
0.0004447388
-0.27022592
0.00027948493
-0.27014287
0.0001129846
-0.27000698
-5.3595654e-05
-0.26981864
-0.00021913629
-0.26957858
-0.00038258926
-0.26928784
-0.00054298243
-0.26894779
-0.00069944964
-0.26855997
-0.00085115925
-0.26812603
-0.00099734861
-0.26764788
-0.001137376
-0.26712767
-0.001270652
-0.26656768
-0.0013965958
-0.26597039
-0.0015146474
-0.26533842
-0.0016242807
-0.26467454
-0.0017250105
-0.26398166
-0.0018163856
-0.26326284
-0.0018980004
-0.26252125
-0.0019694942
-0.26176018
-0.0020305591
-0.26098298
-0.0020809494
-0.2601931
-0.0021204905
-0.25939402
-0.0021490894
-0.25858922
-0.0021667428
-0.25778217
-0.0021735446
-0.25697629
-0.0021696909
-0.25617489
-0.0021554806
-0.25538119
-0.0021313192
-0.25459823
-0.0020977046
-0.25382886
-0.0020552289
-0.25307575
-0.0020045634
-0.25234132
-0.0019464467
-0.25162772
-0.0018816706
-0.25093685
-0.0018110635
-0.25027035
-0.0017354785
-0.24962958
-0.0016557699
-0.2490156
-0.0015727857
-0.24842924
-0.0014873497
-0.24787107
-0.0014002495
-0.24734141
-0.0013122251
-0.24684036
-0.0012239628
-0.24636784
-0.0011360817
-0.24592357
-0.0010491348
-0.24550711
-0.00096360214
-0.24511792
-0.0008798901
-0.24475533
-0.00079833084
-0.24441857
-0.00071918578
-0.24410685
-0.00064264778
-0.2438193
-0.00056884504
-0.24355504
-0.0004978453
-0.24331316
-0.00042968622
-0.24309278
-0.00036438129
-0.24289303
-0.00030191907
-0.24271304
-0.00024228118
-0.24255194
-0.0001855342
-0.24240878
-0.00013209307
-0.24228282
-8.2823643e-05
-0.24217407
-3.7857218e-05
-0.2420844
1.3334469e-05
-0.24200262
4.5396086e-05
4.2845354e-05
-0.26174966
0.00049205065
-0.26172417
0.00042562853
-0.26167607
0.0003537546
-0.26160812
0.0002768527
-0.26152164
0.00019650006
-0.2614175
0.00011450371
-0.2612965
3.251897e-05
-0.26115959
-4.7949779e-05
-0.2610079
-0.0001255149
-0.26084283
-0.00019886882
-0.26066597
-0.0002667617
-0.26047915
-0.00032801509
-0.2602844
-0.00038149904
-0.26008399
-0.00042616841
-0.25988032
-0.00046105542
-0.25967598
-0.00048529518
-0.25947367
-0.00049811698
-0.25927621
-0.00049889548
-0.25908648
-0.00048712551
-0.25890742
-0.00046245889
-0.25874195
-0.00042468396
-0.25859299
-0.00037376249
-0.25846338
-0.00030980426
-0.25835585
-0.00023309704
-0.258273
-0.00014408151
-0.25821726
-4.3378469e-05
-0.25819085
6.8249685e-05
-0.25819574
0.00018990918
-0.25823362
0.00032054984
-0.25830594
0.00045898819
-0.25841379
0.00060390728
-0.25855794
0.00075388168
-0.2587388
0.00090739277
-0.25895642
0.0010628265
-0.25921046
0.0012185325
-0.2595002
0.0013727839
-0.25982454
0.0015238657
-0.260182
0.0016700159
-0.26057073
0.0018095344
-0.26098852
0.0019407045
-0.26143281
0.0020619229
-0.26190071
0.0021716039
-0.26238903
0.0022683092
-0.26289431
0.0023506862
-0.26341282
0.0024175283
-0.26394063
0.0024677791
-0.26447363
0.0025005492
-0.26500756
0.0025151354
-0.26553808
0.0025110216
-0.26606077
0.0024878986
-0.26657121
0.0024456649
-0.26706502
0.002384431
-0.26753788
0.0023045181
-0.26798562
0.0022064585
-0.26840422
0.002090979
-0.26878989
0.0019589983
-0.26913909
0.0018116078
-0.26944854
0.0016500533
-0.26971531
0.0014757131
-0.26993681
0.0012900768
-0.2701108
0.0010947128
-0.27023544
0.00089124738
-0.27030924
0.00068133397
-0.27033112
0.00046662404
-0.27030039
0.0002487534
-0.27021671
2.9302848e-05
-0.2700801
-0.00019020305
-0.26989093
-0.00040830682
-0.26964989
-0.00062363256
-0.26935793
-0.00083494278
-0.2690163
-0.0010410823
-0.26862648
-0.0012409763
-0.26819018
-0.0014336503
-0.26770932
-0.0016182305
-0.26718606
-0.0017939145
-0.26662271
-0.0019599425
-0.26602177
-0.0021155924
-0.26538587
-0.0022601825
-0.2647178
-0.0023930779
-0.2640205
-0.0025136822
-0.26329705
-0.0026214542
-0.26255064
-0.0027159071
-0.26178457
-0.0027966216
-0.26100226
-0.002863259
-0.26020718
-0.0029155737
-0.25940284
-0.002953428
-0.25859278
-0.0029768041
-0.25778051
-0.002985814
-0.2569695
-0.0029807067
-0.25616311
-0.0029618695
-0.25536459
-0.0029298329
-0.25457705
-0.0028852519
-0.25380337
-0.0028289082
-0.25304624
-0.00276169
-0.25230811
-0.0026845764
-0.25159116
-0.0025986174
-0.25089731
-0.0025049127
-0.2502282
-0.0024045951
-0.24958517
-0.0022987989
-0.2489693
-0.0021886502
-0.24838141
-0.0020752426
-0.24782204
-0.0019596216
-0.24729149
-0.0018427692
-0.24678986
-0.0017255953
-0.24631702
-0.0016089211
-0.24587268
-0.0014934791
-0.24545638
-0.0013799053
-0.24506753
-0.0012687373
-0.24470545
-0.0011604142
-0.24436935
-0.0010552815
-0.24405841
-0.00095358996
-0.24377175
-0.00085550631
-0.24350847
-0.00076112241
-0.24326768
-0.00067047684
-0.24304849
-0.00058356616
-0.24285006
-0.00050035454
-0.24267154
-0.00042080096
-0.2425121
-0.00034497482
-0.24237095
-0.00027323953
-0.24224767
-0.00020610776
-0.24214211
-0.00014341428
-0.24205558
-7.3198095e-05
-0.24198216
-2.8019657e-05
-3.866444e-06
-0.2618245
0.00049079242
-0.26179831
0.00039943457
-0.26175009
0.00030553694
-0.26168162
0.00020838001
-0.26159406
0.00010894035
-0.2614883
8.746696e-06
-0.26136521
-9.0565259e-05
-0.26122579
-0.00018737679
-0.26107119
-0.00028011477
-0.2609028
-0.00036725792
-0.26072223
-0.00044733314
-0.26053131
-0.00051893457
-0.26033209
-0.00058071489
-0.26012683
-0.00063142795
-0.25991797
-0.00066991254
-0.25970813
-0.00069514239
-0.25950004
-0.00070620521
-0.25929657
-0.00070236486
-0.25910067
-0.0006830286
-0.25891532
-0.00064780323
-0.25874355
-0.00059646105
-0.25858832
-0.00052899113
-0.25845256
-0.00044556286
-0.25833909
-0.00034656719
-0.25825059
-0.00023258157
-0.25818957
-0.00010439846
-0.25815832
3.7001352e-05
-0.25815888
0.00019047447
-0.25819304
0.00035470373
-0.25826225
0.00052819972
-0.25836767
0.00070932549
-0.2585101
0.0008963084
-0.25868997
0.0010872663
-0.25890735
0.0012802066
-0.25916191
0.0014730953
-0.25945294
0.0016638114
-0.25977933
0.001850253
-0.26013958
0.0020302655
-0.26053182
0.0022017746
-0.2609538
0.0023626898
-0.26140294
0.0025110616
-0.2618763
0.002644965
-0.26237065
0.0027626562
-0.26288246
0.0028624973
-0.26340796
0.0029430283
-0.26394315
0.0030029723
-0.26448386
0.0030412556
-0.26502575
0.0030570304
-0.26556441
0.0030496763
-0.26609534
0.0030188244
-0.26661403
0.0029643588
-0.26711602
0.0028864221
-0.26759692
0.0027854145
-0.26805245
0.0026619954
-0.26847854
0.0025170628
-0.26887129
0.0023517519
-0.26922709
0.002167411
-0.26954262
0.0019655806
-0.26981487
0.001747966
-0.27004121
0.0015164111
-0.27021936
0.0012728594
-0.27034743
0.0010193266
-0.27042396
0.0007578629
-0.27044786
0.00049051763
-0.27041843
0.00021932195
-0.27033536
-5.3765639e-05
-0.2701987
-0.00032685502
-0.27000887
-0.00059814503
-0.26976656
-0.00086593481
-0.26947282
-0.0011286918
-0.26912891
-0.0013849924
-0.26873636
-0.0016335247
-0.26829691
-0.0018730968
-0.26781252
-0.0021026209
-0.26728534
-0.0023210956
-0.2667177
-0.0025275817
-0.2661121
-0.0027211922
-0.2654712
-0.0029010871
-0.26479779
-0.0030664798
-0.26409485
-0.0032166253
-0.26336546
-0.0033508422
-0.26261286
-0.0034685129
-0.26184038
-0.0035691005
-0.26105147
-0.0036521668
-0.26024965
-0.0037173888
-0.2594385
-0.0037645786
-0.25862161
-0.0037936989
-0.25780255
-0.0038048765
-0.25698484
-0.0037984117
-0.25617193
-0.0037747808
-0.25536712
-0.0037346415
-0.25457356
-0.0036788101
-0.25379421
-0.0036082635
-0.25303178
-0.0035241144
-0.25228877
-0.0034275899
-0.25156738
-0.0033200076
-0.25086955
-0.0032027473
-0.25019691
-0.0030772307
-0.24955083
-0.0029448804
-0.24893237
-0.0028071086
-0.24834233
-0.0026652857
-0.24778123
-0.0025207211
-0.24724935
-0.0023746435
-0.24674676
-0.0022281907
-0.24627329
-0.002082388
-0.24582862
-0.0019381494
-0.24541226
-0.0017962667
-0.24502359
-0.0016574084
-0.24466188
-0.0015221188
-0.24432634
-0.0013908243
-0.2440161
-0.0012638316
-0.24373026
-0.0011413423
-0.24346792
-0.0010234628
-0.24322818
-0.00091022301
-0.24301015
-0.00080159032
-0.24281302
-0.00069748655
-0.242636
-0.00059782496
-0.24247835
-0.00050262065
-0.24233951
-0.00041207672
-0.24221925
-0.00032636843
-0.24211733
-0.00024533618
-0.24203568
-0.00015484973
-0.24197161
-9.2093676e-05
-4.0022441e-05
-0.26190282
0.00048707344
-0.26187737
0.00037398958
-0.26183053
0.00025869851
-0.26176314
0.00014098601
-0.26167604
2.184279e-05
-0.26157005
-9.7243072e-05
-0.26144603
-0.00021458442
-0.26130498
-0.00032843009
-0.26114808
-0.00043701903
-0.26097672
-0.00053861136
-0.26079255
-0.00063150729
-0.26059741
-0.00071407264
-0.26039339
-0.00078473238
-0.26018279
-0.00084203215
-0.25996809
-0.00088461041
-0.25975196
-0.00091127076
-0.25953722
-0.00092094979
-0.25932679
-0.00091279407
-0.2591237
-0.00088611822
-0.25893102
-0.0008404787
-0.25875186
-0.00077562735
-0.25858927
-0.00069157769
-0.25844628
-0.00058855678
-0.25832579
-0.00046705807
-0.25823057
-0.00032779661
-0.25816323
-0.00017173847
-0.25812615
-8.4576501e-08
-0.25812144
0.00018576708
-0.25815096
0.00038422782
-0.25821626
0.00059349509
-0.25831853
0.00081160188
-0.25845865
0.0010364228
-0.25863708
0.0012657032
-0.25885394
0.001497063
-0.25910892
0.0017280743
-0.25940132
0.001956212
-0.25973004
0.0021789767
-0.26009359
0.0023938107
-0.26049007
0.0025982544
-0.26091721
0.0027898323
-0.26137239
0.0029662383
-0.26185262
0.003125197
-0.26235461
0.003264649
-0.26287478
0.0033826604
-0.26340926
0.0034775087
-0.26395397
0.0035476876
-0.26450465
0.003591931
-0.26505686
0.0036092394
-0.26560606
0.0035988825
-0.26614767
0.0035604272
-0.26667705
0.0034937404
-0.26718962
0.003398996
-0.26768088
0.0032766741
-0.26814645
0.003127564
-0.26858213
0.0029527404
-0.26898394
0.0027535621
-0.26934817
0.0025316439
-0.26967142
0.0022888319
-0.26995063
0.0020271713
-0.27018309
0.0017488746
-0.27036651
0.0014562748
-0.27049897
0.0011517926
-0.270579
0.00083788926
-0.27060551
0.00051702703
-0.27057783
0.00019164362
-0.27049568
-0.00013591434
-0.27035915
-0.00046338199
-0.27016869
-0.00078861303
-0.26992503
-0.0011095953
-0.26962924
-0.0014244805
-0.26928265
-0.0017315814
-0.26888683
-0.0020293477
-0.26844355
-0.0023163691
-0.26795482
-0.0025913525
-0.26742281
-0.0028531069
-0.26684987
-0.0031005188
-0.26623853
-0.0033325376
-0.26559145
-0.0035481657
-0.26491147
-0.0037464634
-0.26420156
-0.003926534
-0.26346485
-0.0040875513
-0.2627046
-0.0042287601
-0.2619242
-0.004349498
-0.26112715
-0.0044492189
-0.26031703
-0.0045275139
-0.25949747
-0.0045841371
-0.25867214
-0.0046190255
-0.2578447
-0.0046323163
-0.25701875
-0.0046243592
-0.25619781
-0.0045957196
-0.25538527
-0.0045471855
-0.25458434
-0.0044797396
-0.25379804
-0.004394562
-0.25302916
-0.0042929983
-0.25228021
-0.0041765349
-0.25155345
-0.0040467678
-0.25085083
-0.0039053688
-0.250174
-0.0037540595
-0.24952432
-0.0035945623
-0.24890284
-0.0034285852
-0.24831035
-0.0032577847
-0.24774733
-0.0030837413
-0.24721403
-0.0029079371
-0.24671048
-0.0027317425
-0.24623648
-0.0025563906
-0.24579165
-0.0023829787
-0.24537546
-0.002212456
-0.24498725
-0.0020456211
-0.24462624
-0.0018831222
-0.2442916
-0.0017254641
-0.24398243
-0.0015730063
-0.24369779
-0.0014259805
-0.24343675
-0.0012845009
-0.24319839
-0.0011485817
-0.24298183
-0.001018153
-0.24278623
-0.00089308321
-0.24261084
-0.00077321941
-0.24245499
-0.00065847425
-0.24231822
-0.00054884055
-0.24220037
-0.00044422174
-0.24210123
-0.00034447532
-0.2420236
-0.00023248099
-0.24196601
-0.00014968554
-7.0579865e-05
-0.2620065
0.00048477696
-0.26198275
0.00035024131
-0.26193761
0.0002135572
-0.2618715
7.4877735e-05
-0.26178503
-6.4631283e-05
-0.26167888
-0.00020338839
-0.26155388
-0.00033958566
-0.26141101
-0.00047130714
-0.26125144
-0.00059657999
-0.26107661
-0.00071345036
-0.26088814
-0.00081997093
-0.26068794
-0.00091427388
-0.26047813
-0.00099454764
-0.26026104
-0.0010591168
-0.26003924
-0.0011064113
-0.25981546
-0.0011350543
-0.25959259
-0.0011438205
-0.25937365
-0.001131731
-0.25916177
-0.0010980005
-0.25896012
-0.0010421286
-0.2587719
-0.00096384149
-0.25860031
-0.0008631736
-0.25844846
-0.00074040732
-0.25831938
-0.0005961383
-0.25821595
-0.00043121968
-0.25814089
-0.00024679676
-0.25809669
-4.4290725e-05
-0.25808556
0.00017463899
-0.25810945
0.000408122
-0.25817
0.00065403899
-0.25826848
0.0009100789
-0.25840581
0.0011737565
-0.25858254
0.001442432
-0.2587988
0.0017133265
-0.25905433
0.001983607
-0.25934845
0.0022503314
-0.25968007
0.00251059
-0.26004766
0.0027614088
-0.26044934
0.0029999299
-0.26088279
0.0032232796
-0.26134533
0.003428782
-0.26183393
0.0036137987
-0.26234523
0.0037759418
-0.26287554
0.0039129702
-0.26342091
0.0040228869
-0.26397717
0.004103946
-0.26453992
0.0041546793
-0.26510461
0.0041739276
-0.26566657
0.0041608435
-0.26622107
0.0041149248
-0.26676335
0.0040360179
-0.26728868
0.0039243266
-0.26779241
0.0037804125
-0.26827005
0.0036051983
-0.26871725
0.0033999416
-0.26912992
0.0031662336
-0.26950424
0.002905967
-0.26983672
0.0026213071
-0.2701242
0.0023146545
-0.27036394
0.0019886076
-0.27055357
0.0016459072
-0.27069117
0.0012893976
-0.27077525
0.00092196962
-0.27080474
0.0005465174
-0.270779
0.00016589997
-0.27069778
-0.00021713732
-0.27056121
-0.00059995289
-0.27036979
-0.00098003057
-0.27012434
-0.0013550399
-0.26982599
-0.0017228371
-0.2694761
-0.0020814684
-0.2690763
-0.0024291478
-0.26862842
-0.0027642524
-0.26813448
-0.0030852924
-0.26759669
-0.0033908961
-0.26701743
-0.0036797813
-0.26639923
-0.0039507367
-0.26574478
-0.0042026075
-0.26505695
-0.0044342992
-0.26433872
-0.0046447594
-0.26359326
-0.0048330104
-0.26282387
-0.0049981506
-0.26203399
-0.0051393824
-0.26122717
-0.0052560407
-0.26040706
-0.0053476199
-0.25957739
-0.0054138063
-0.25874191
-0.0054545032
-0.25790438
-0.0054698525
-0.25706849
-0.0054602504
-0.25623786
-0.0054263516
-0.25541596
-0.0053690784
-0.25460612
-0.0052895861
-0.25381141
-0.005189267
-0.2530347
-0.0050697113
-0.25227856
-0.0049326771
-0.25154527
-0.004780053
-0.25083682
-0.0046138166
-0.25015488
-0.0044360036
-0.24950079
-0.004248649
-0.24887561
-0.004053769
-0.24828008
-0.0038533165
-0.24771467
-0.0036491527
-0.24717958
-0.0034430198
-0.2466748
-0.0032365267
-0.24620007
-0.003031118
-0.24575497
-0.0028280767
-0.24533892
-0.0026285095
-0.2449512
-0.002433345
-0.24459098
-0.0022433331
-0.2442574
-0.0020590539
-0.24394949
-0.0018809151
-0.24366629
-0.001709173
-0.24340685
-0.0015439418
-0.24317022
-0.001385212
-0.24295551
-0.0012328675
-0.24276188
-0.0010867127
-0.24258859
-0.00094651006
-0.24243502
-0.00081204101
-0.24230077
-0.00068308822
-0.24218565
-0.00055934464
-0.24208953
-0.00044059382
-0.24201572
-0.00030629074
-0.24196282
-0.00020259303
-9.7795058e-05
-0.26213307
0.00048371426
-0.26211092
0.0003280883
-0.26206722
0.00016986162
-0.26200207
9.724969e-06
-0.26191585
-0.0001508514
-0.26180914
-0.00031010225
-0.26168268
-0.00046603864
-0.26153744
-0.00061655036
-0.26137459
-0.00075942693
-0.26119556
-0.00089248507
-0.261002
-0.0010135241
-0.26079585
-0.0011204252
-0.26057927
-0.0012111295
-0.26035466
-0.0012837297
-0.26012464
-0.0013364338
-0.25989202
-0.0013676729
-0.25965979
-0.0013760484
-0.25943107
-0.0013604461
-0.2592091
-0.0013199717
-0.25899717
-0.0012540607
-0.2587986
-0.0011624076
-0.25861671
-0.0010450636
-0.25845476
-0.000902364
-0.25831589
-0.00073500627
-0.25820313
-0.0005439825
-0.2581193
-0.00033062327
-0.25806702
-9.656923e-05
-0.25804863
0.00015624884
-0.25806618
0.00042566665
-0.25812138
0.00070924431
-0.25821562
0.0010043141
-0.25834988
0.0013080205
-0.25852477
0.0016173254
-0.25874049
0.0019290379
-0.25899679
0.0022399065
-0.25929301
0.0025465578
-0.25962808
0.002845657
-0.26000047
0.003133799
-0.26040825
0.0034077127
-0.26084908
0.003664111
-0.26132024
0.0038999334
-0.2618186
0.0041121634
-0.26234073
0.004298071
-0.26288285
0.0044550931
-0.26344091
0.0045809457
-0.2640106
0.0046736309
-0.26458738
0.0047314674
-0.26516658
0.0047531263
-0.26574337
0.0047376352
-0.26631287
0.0046844165
-0.26687014
0.0045932922
-0.26741031
0.0044644945
-0.26792856
0.0042986674
-0.26842024
0.0040968712
-0.26888085
0.0038605534
-0.26930616
0.0035915475
-0.26969223
0.0032920371
-0.27003545
0.0029645226
-0.27033257
0.0026117781
-0.27058077
0.0022368079
-0.27077765
0.001842782
-0.27092124
0.0014329899
-0.27101004
0.001010774
-0.27104301
0.00057948117
-0.27101952
0.00014240943
-0.27093937
-0.00029728357
-0.27080276
-0.00073656375
-0.27061024
-0.0011725462
-0.27036271
-0.0016025704
-0.27006135
-0.0020241973
-0.26970761
-0.00243521
-0.26930317
-0.0028335916
-0.26884991
-0.0032175138
-0.2683499
-0.0035853009
-0.26780538
-0.0039354101
-0.26721877
-0.0042663986
-0.2665926
-0.0045768991
-0.26592961
-0.0048656017
-0.26523265
-0.0051312559
-0.26450476
-0.0053726482
-0.26374913
-0.0055886418
-0.26296911
-0.0057781782
-0.26216818
-0.0059403115
-0.26134997
-0.0060742442
-0.26051823
-0.0061793604
-0.25967677
-0.0062552664
-0.25882945
-0.0063018215
-0.25798014
-0.0063191653
-0.25713265
-0.0063077369
-0.25629072
-0.0062682811
-0.25545795
-0.006201858
-0.25463773
-0.0061098043
-0.25383326
-0.0059937353
-0.25304747
-0.0058554997
-0.252283
-0.005697143
-0.25154219
-0.0055208631
-0.25082705
-0.0053289606
-0.25013925
-0.0051238022
-0.24948015
-0.0049077516
-0.24885077
-0.0046831474
-0.24825184
-0.0044522519
-0.24768377
-0.0042172176
-0.24714673
-0.0039800559
-0.24664064
-0.0037426205
-0.24616519
-0.003506572
-0.24571988
-0.0032733818
-0.24530408
-0.0030443152
-0.24491699
-0.0028204294
-0.24455775
-0.002602574
-0.2442254
-0.0023914005
-0.24391896
-0.0021873602
-0.24363741
-0.0019907272
-0.24337974
-0.0018016078
-0.24314499
-0.0016199601
-0.24293225
-0.0014456119
-0.24274067
-0.0012782907
-0.24256952
-0.0011176549
-0.24241823
-0.00096333617
-0.2422864
-0.0008149163
-0.24217385
-0.00067189983
-0.24208054
-0.00053390095
-0.24201
-0.0003768263
-0.2419605
-0.00025209834
-0.00012284291
-0.262284
0.00048544785
-0.26226401
0.00030810267
-0.26222196
0.00012781149
-0.26215779
-5.4441139e-05
-0.26207175
-0.00023689934
-0.26196428
-0.00041757062
-0.26183608
-0.00059423877
-0.26168806
-0.00076456493
-0.26152139
-0.00092610188
-0.26133748
-0.0010763957
-0.26113802
-0.0012129815
-0.26092497
-0.0013334768
-0.26070054
-0.0014355571
-0.2604672
-0.0015170695
-0.26022765
-0.0015759854
-0.25998479
-0.0016105297
-0.25974172
-0.0016191175
-0.25950168
-0.0016004871
-0.25926803
-0.001553625
-0.2590442
-0.0014778943
-0.25883365
-0.0013729508
-0.25863986
-0.001238858
-0.25846622
-0.0010760011
-0.25831605
-0.00088517943
-0.25819251
-0.00066752517
-0.25809857
-0.00042456068
-0.25803699
-0.00015814562
-0.25801025
0.00012950578
-0.2580205
0.00043592113
-0.25806959
0.00075833536
-0.25815899
0.0010937073
-0.25828977
0.0014388005
-0.2584626
0.0017901622
-0.25867774
0.0021441744
-0.25893499
0.0024971515
-0.2592337
0.002845272
-0.2595728
0.0031847597
-0.25995076
0.0035117612
-0.26036563
0.0038225752
-0.260815
0.0041134843
-0.26129609
0.0043810266
-0.26180572
0.0046217912
-0.26234034
0.0048326893
-0.26289607
0.0050108209
-0.26346872
0.0051535999
-0.26405385
0.0052587624
-0.26464679
0.0053244012
-0.26524267
0.0053490069
-0.26583651
0.0053314726
-0.26642323
0.0052711379
-0.26699773
0.0051677953
-0.26755494
0.0050217035
-0.26808986
0.0048335899
-0.26859765
0.0046046565
-0.26907364
0.0043365486
-0.26951345
0.0040313535
-0.26991297
0.0036915606
-0.27026847
0.0033200234
-0.27057661
0.0029199109
-0.27083445
0.0024946569
-0.27103956
0.0020478856
-0.27118993
0.001583358
-0.27128405
0.0011048935
-0.27132088
0.00061631741
-0.27129986
0.00012138798
-0.27122084
-0.00037630765
-0.27108407
-0.0008733286
-0.2708902
-0.0013664152
-0.2706402
-0.0018525707
-0.27033534
-0.0023290609
-0.26997714
-0.0027934106
-0.26956735
-0.0032433792
-0.26910792
-0.0036769437
-0.26860097
-0.0040922536
-0.26804877
-0.0044876074
-0.26745376
-0.004861411
-0.26681851
-0.0052121481
-0.26614575
-0.0055383563
-0.26543838
-0.0058386274
-0.26469945
-0.0061115818
-0.26393218
-0.0063559132
-0.26313996
-0.0065703932
-0.26232636
-0.0067539122
-0.26149508
-0.0069055231
-0.26064996
-0.0070244834
-0.25979492
-0.0071103037
-0.25893396
-0.007162787
-0.25807106
-0.0071820616
-0.25721019
-0.0071686052
-0.25635522
-0.0071232527
-0.25550987
-0.0070472075
-0.25467768
-0.0069419968
-0.25386194
-0.0068094723
-0.25306568
-0.0066517579
-0.25229162
-0.006471205
-0.25154214
-0.0062703407
-0.2508193
-0.0060518088
-0.25012477
-0.005818327
-0.24945992
-0.0055726059
-0.24882574
-0.0053173237
-0.24822293
-0.005055067
-0.24765185
-0.0047882918
-0.24711262
-0.0045192887
-0.24660508
-0.0042501635
-0.24612885
-0.0039827983
-0.24568338
-0.0037188554
-0.24526793
-0.0034597594
-0.24488167
-0.0032066957
-0.24452363
-0.0029606107
-0.24419281
-0.0027222238
-0.24388814
-0.0024920244
-0.24360857
-0.0022702982
-0.24335304
-0.0020571367
-0.24312054
-0.0018524574
-0.24291013
-0.0016560236
-0.24272095
-0.001467475
-0.24255225
-0.0012863523
-0.24240346
-0.0011121287
-0.24227418
-0.00094419458
-0.24216422
-0.00078186375
-0.2420736
-0.00062451865
-0.24200589
-0.00044453528
-0.24195897
-0.0002990175
-0.00014636381
-0.26245728
0.00048991889
-0.2624396
0.00029042903
-0.26239924
8.7448493e-05
-0.26233598
-0.00011769981
-0.26224993
-0.00032295488
-0.26214143
-0.00052606604
-0.2620111
-0.00072456588
-0.26185983
-0.00091584255
-0.26168874
-0.0010971907
-0.26149925
-0.0012658791
-0.26129308
-0.001419154
-0.26107221
-0.0015543518
-0.2608389
-0.0016688637
-0.26059569
-0.0017602736
-0.26034538
-0.0018262993
-0.26009097
-0.0018649431
-0.25983567