/*--------------------------------*- C++ -*----------------------------------*\
| =========                 |                                                 |
| \\      /  F ield         | foam-extend: Open Source CFD                    |
|  \\    /   O peration     | Version:     4.1                                |
|   \\  /    A nd           | Web:         http://www.foam-extend.org         |
|    \\/     M anipulation  |                                                 |
\*---------------------------------------------------------------------------*/
FoamFile
{
    version     2.0;
    format      ascii;
    class       volScalarField;
    location    "0.7";
    object      rAU;
}
// * * * * * * * * * * * * * * * * * * * * * * * * * * * * * * * * * * * * * //

dimensions      [0 0 1 0 0 0 0];

internalField   nonuniform List<scalar> 
16796
(
0.00012787662
0.00012767737
0.00012750922
0.00012734922
0.00012719752
0.00012705665
0.0001269256
0.00012680628
0.00012669725
0.00012660005
0.00012651292
0.00012643707
0.00012637044
0.00012631394
0.00012626522
0.00012622491
0.00012619041
0.00012616209
0.00012613712
0.00012611568
0.00012609477
0.00012607441
0.00012605151
0.00012602604
0.00012599485
0.00012595793
0.00012591219
0.00012585773
0.0001257916
0.00012571408
0.00012562246
0.00012551687
0.00012539647
0.00012525943
0.00012510679
0.00012493673
0.00012475073
0.00012454737
0.00012432856
0.00012409333
0.00012384398
0.00012358008
0.00012330377
0.00012301598
0.00012271827
0.00012241226
0.00012209965
0.0001217824
0.00012146229
0.0001211413
0.00012082141
0.00012050459
0.00012019274
0.00011988788
0.00011959173
0.00011930607
0.00011903255
0.0001187727
0.0001185279
0.00011829952
0.00011808857
0.00011789606
0.00011772279
0.00011756944
0.00011743649
0.00011732427
0.00011723308
0.00011716287
0.00011711362
0.00011708512
0.00011707704
0.00011707701
0.00011708896
0.00011712052
0.00011717155
0.00011724174
0.00011733042
0.00011743667
0.00011755956
0.00011769778
0.00011785018
0.00011801539
0.00011819203
0.00011837865
0.00011857376
0.00011877583
0.00011898332
0.00011919466
0.00011940829
0.00011962263
0.00011983628
0.00012004767
0.00012025542
0.00012045819
0.00012065475
0.00012084394
0.00012102467
0.00012119614
0.00012135743
0.00012150788
0.00012164693
0.00012177416
0.00012188921
0.00012199199
0.0001220823
0.00012216018
0.00012222574
0.00012227917
0.00012232067
0.00012235069
0.00012236948
0.00012237517
0.00012236304
0.00012234163
0.0001223114
0.00012227292
0.00012222657
0.00012217289
0.00012211246
0.00012204616
0.00012197531
0.00012189964
0.00012181768
0.000121704
0.00011595961
0.00011586565
0.0001158105
0.00011576427
0.00011572507
0.00011569441
0.00011567104
0.00011565654
0.00011564951
0.00011565135
0.00011566042
0.00011567788
0.00011570186
0.00011573329
0.00011577007
0.00011581106
0.00011584678
0.00011588857
0.0001159341
0.00011598391
0.00011603553
0.00011608933
0.0001161427
0.00011619588
0.00011624614
0.00011629368
0.00011633341
0.00011635473
0.00011636564
0.00011636659
0.00011635521
0.00011633181
0.00011629577
0.00011624547
0.00011618207
0.00011610391
0.00011601248
0.00011590651
0.00011578783
0.00011565552
0.00011551177
0.00011535613
0.0001151906
0.00011501597
0.00011483365
0.00011464508
0.00011445177
0.00011425546
0.00011405772
0.00011386031
0.00011366497
0.00011347346
0.00011328745
0.00011310873
0.00011293884
0.00011277935
0.00011263173
0.00011249734
0.0001123774
0.00011227315
0.00011218547
0.00011211527
0.00011206328
0.00011203007
0.0001120161
0.00011202164
0.00011204698
0.00011209206
0.00011215632
0.00011220202
0.00011226733
0.00011234105
0.00011242679
0.00011253112
0.0001126532
0.0001127923
0.00011294777
0.00011311889
0.00011330504
0.00011350529
0.00011371882
0.00011394469
0.00011418185
0.00011442926
0.00011468576
0.00011495017
0.00011522126
0.00011549777
0.00011577841
0.00011606185
0.00011634689
0.00011663216
0.00011691641
0.00011719845
0.00011747709
0.00011775125
0.00011801984
0.00011828204
0.00011853688
0.00011878364
0.00011902165
0.00011925038
0.00011946932
0.00011967823
0.00011987675
0.00012006475
0.00012024215
0.00012040896
0.00012056522
0.00012071118
0.00012084692
0.00012097046
0.00012107694
0.00012117445
0.00012126323
0.00012134378
0.00012141638
0.00012148148
0.00012153103
0.0001215705
0.00012160571
0.00012163402
0.00012165906
0.00012167267
0.00011470702
0.00011466164
0.00011465544
0.00011466052
0.00011467373
0.00011469574
0.0001147247
0.00011476171
0.00011480492
0.00011485532
0.00011491092
0.00011497254
0.00011502689
0.00011507735
0.00011513169
0.00011518891
0.00011523971
0.00011529544
0.00011535394
0.00011541586
0.00011547887
0.0001155435
0.00011560733
0.00011567079
0.00011573139
0.00011578953
0.00011584039
0.00011587367
0.0001158768
0.00011586156
0.00011583253
0.00011579046
0.00011573511
0.00011566532
0.00011558264
0.00011548587
0.00011537687
0.00011525476
0.00011512172
0.00011497717
0.00011482355
0.00011466067
0.00011449072
0.00011431464
0.00011413395
0.00011395014
0.00011376475
0.00011357948
0.00011339584
0.00011321549
0.00011304003
0.00011287104
0.00011271001
0.00011255852
0.00011241783
0.0001122893
0.00011217413
0.00011207339
0.00011198804
0.00011191903
0.00011186698
0.00011183251
0.0001118161
0.00011181807
0.00011183865
0.00011187787
0.00011193584
0.00011201232
0.00011204997
0.00011206752
0.00011210361
0.0001121582
0.00011223127
0.00011232256
0.0001124318
0.00011255858
0.00011270239
0.00011286265
0.00011303881
0.00011322999
0.00011343548
0.00011365435
0.00011388564
0.00011412833
0.00011438131
0.00011464341
0.00011491343
0.0001151901
0.00011547213
0.00011575816
0.00011604696
0.0001163371
0.0001166273
0.00011691627
0.00011720277
0.0001174856
0.0001177636
0.00011803585
0.00011830127
0.00011855906
0.00011880843
0.00011904876
0.00011927944
0.00011950016
0.00011971045
0.00011991013
0.00012009905
0.00012027715
0.00012044442
0.00012060108
0.00012074718
0.00012088296
0.0001210087
0.0001211247
0.00012123124
0.00012132876
0.00012141752
0.00012149787
0.00012156161
0.0001216137
0.00012165939
0.00012168921
0.000121711
0.00012171812
0.00011455113
0.00011452544
0.0001145337
0.0001145527
0.00011457985
0.00011461585
0.00011465869
0.00011470931
0.00011476572
0.00011482879
0.00011488306
0.00011492859
0.00011496761
0.00011500379
0.00011504525
0.0001150931
0.00011514544
0.00011520319
0.00011526427
0.00011532942
0.00011539638
0.00011546575
0.0001155351
0.00011560491
0.00011567265
0.0001157387
0.0001158005
0.00011585838
0.00011588304
0.0001158572
0.00011581665
0.00011576226
0.00011569395
0.00011561072
0.0001155143
0.00011540365
0.00011528083
0.00011514512
0.00011499889
0.00011484171
0.00011467622
0.00011450235
0.00011432245
0.00011413758
0.00011394936
0.00011375941
0.00011356931
0.00011338083
0.00011319553
0.00011301507
0.00011284109
0.00011267512
0.00011251865
0.00011237321
0.00011224003
0.00011212037
0.00011201538
0.00011192606
0.00011185326
0.00011179784
0.00011176033
0.00011174126
0.00011174098
0.00011175973
0.00011179761
0.00011185457
0.0001119306
0.00011198774
0.0001119692
0.00011196893
0.00011198753
0.00011202509
0.00011208172
0.00011215722
0.00011225139
0.00011236391
0.00011249435
0.00011264216
0.00011280688
0.00011298767
0.00011318385
0.00011339457
0.00011361889
0.00011385583
0.0001141043
0.00011436316
0.0001146312
0.00011490716
0.00011518971
0.00011547748
0.00011576919
0.00011606336
0.00011635864
0.00011665367
0.00011694711
0.00011723769
0.00011752416
0.00011780548
0.0001180805
0.00011834828
0.00011860798
0.00011885884
0.00011910019
0.00011933162
0.00011955261
0.00011976288
0.00011996222
0.00012015054
0.00012032776
0.00012049407
0.00012064949
0.00012079425
0.00012092859
0.0001210528
0.00012116716
0.00012127211
0.00012136787
0.00012145479
0.00012153306
0.00012160269
0.00012166382
0.00012171093
0.00012174226
0.00012174301
0.00011450304
0.00011448705
0.00011450253
0.00011452817
0.00011456191
0.00011460462
0.00011465428
0.00011471177
0.00011477503
0.00011481974
0.00011484631
0.00011486549
0.00011489097
0.00011492416
0.00011496341
0.00011500993
0.00011506188
0.00011512025
0.00011518299
0.0001152509
0.00011532174
0.0001153961
0.00011547157
0.00011554858
0.00011562459
0.00011569992
0.00011577192
0.00011584085
0.00011589801
0.00011587362
0.00011582322
0.00011575821
0.00011567863
0.00011558358
0.00011547491
0.00011535172
0.00011521622
0.00011506782
0.00011490904
0.0001147396
0.00011456228
0.00011437715
0.00011418668
0.00011399208
0.00011379509
0.00011359741
0.00011340074
0.00011320694
0.00011301762
0.00011283452
0.0001126593
0.00011249357
0.00011233881
0.00011219655
0.00011206803
0.00011195449
0.00011185704
0.00011177663
0.00011171407
0.00011167014
0.0001116453
0.00011163997
0.00011165443
0.0001116888
0.00011174306
0.00011181707
0.0001119107
0.00011191055
0.00011187336
0.00011185515
0.00011185627
0.0001118769
0.00011191721
0.00011197708
0.0001120564
0.0001121549
0.00011227223
0.00011240791
0.00011256151
0.00011273227
0.00011291956
0.00011312255
0.00011334036
0.00011357203
0.00011381649
0.00011407262
0.00011433922
0.000114615
0.00011489863
0.00011518869
0.00011548386
0.0001157826
0.00011608348
0.00011638506
0.00011668594
0.00011698474
0.0001172801
0.0001175709
0.00011785586
0.00011813398
0.00011840429
0.00011866595
0.00011891821
0.00011916056
0.0001193924
0.00011961341
0.0001198233
0.00012002192
0.00012020918
0.00012038521
0.00012055
0.00012070377
0.00012084675
0.00012097922
0.00012110144
0.00012121384
0.00012131665
0.00012141018
0.0001214946
0.00012156996
0.00012163642
0.00012169867
0.00012174336
0.00012174779
0.00011445776
0.00011444902
0.00011447076
0.00011450238
0.00011454213
0.00011459099
0.00011464696
0.00011471091
0.00011475661
0.00011476618
0.00011477226
0.00011478672
0.00011480819
0.00011483816
0.00011487509
0.00011492022
0.0001149718
0.00011503086
0.00011509542
0.00011516628
0.00011524122
0.00011532086
0.00011540276
0.00011548734
0.000115572
0.00011565702
0.00011573968
0.00011582016
0.00011589567
0.00011589152
0.00011583138
0.00011575583
0.00011566498
0.00011555806
0.00011543705
0.00011530117
0.00011515276
0.0001149914
0.00011481973
0.00011463763
0.00011444801
0.0001142511
0.0001140495
0.00011384454
0.00011363808
0.00011343194
0.00011322794
0.00011302801
0.00011283385
0.00011264729
0.00011247002
0.00011230371
0.00011214986
0.00011201002
0.00011188544
0.00011177735
0.00011168682
0.00011161478
0.00011156197
0.00011152913
0.0001115166
0.00011152476
0.00011155375
0.0001116036
0.0001116742
0.00011176526
0.00011187596
0.00011181947
0.0001117637
0.00011172736
0.00011171088
0.00011171451
0.00011173853
0.00011178288
0.0001118475
0.00011193219
0.00011203668
0.00011216052
0.00011230336
0.00011246446
0.00011264325
0.00011283895
0.00011305071
0.00011327759
0.00011351856
0.0001137725
0.00011403819
0.00011431435
0.00011459962
0.00011489252
0.0001151917
0.00011549554
0.00011580255
0.00011611121
0.00011641999
0.00011672744
0.0001170321
0.00011733274
0.00011762798
0.0001179167
0.00011819786
0.00011847051
0.0001187338
0.00011898716
0.00011922992
0.00011946167
0.00011968209
0.00011989098
0.00012008819
0.00012027384
0.00012044789
0.00012061055
0.00012076203
0.00012090262
0.00012103259
0.00012115237
0.0001212622
0.00012136239
0.00012145313
0.00012153456
0.00012160682
0.00012167535
0.00012172467
0.00012173752
0.00011440525
0.00011440225
0.00011442977
0.00011446722
0.00011451293
0.00011456796
0.00011463032
0.00011469159
0.00011469473
0.00011468794
0.00011468847
0.00011469805
0.00011471544
0.00011474218
0.00011477682
0.00011482068
0.00011487206
0.00011493206
0.00011499871
0.00011507287
0.00011515233
0.0001152377
0.00011532654
0.00011541923
0.00011551313
0.00011560846
0.00011570241
0.00011579507
0.00011588356
0.00011591075
0.00011584103
0.000115755
0.00011565287
0.00011553399
0.00011540046
0.00011525163
0.00011508999
0.00011491526
0.00011473023
0.00011453493
0.00011433242
0.00011412308
0.00011390964
0.00011369358
0.0001134769
0.00011326153
0.00011304938
0.00011284251
0.00011264272
0.00011245188
0.00011227178
0.00011210411
0.00011195044
0.00011181234
0.00011169105
0.00011158781
0.00011150368
0.00011143953
0.00011139608
0.00011137397
0.00011137352
0.00011139497
0.0001114384
0.00011150372
0.00011159069
0.00011169892
0.00011180886
0.00011171505
0.0001116405
0.00011158588
0.00011155172
0.00011153836
0.00011154614
0.00011157505
0.00011162513
0.00011169623
0.00011178811
0.0001119004
0.00011203279
0.0001121846
0.00011235529
0.00011254414
0.00011275031
0.0001129729
0.00011321089
0.00011346318
0.00011372854
0.00011400568
0.00011429318
0.00011458955
0.00011489336
0.00011520293
0.00011551668
0.000115833
0.00011615027
0.00011646693
0.00011678141
0.00011709238
0.00011739835
0.00011769809
0.00011799046
0.00011827442
0.00011854904
0.00011881365
0.00011906751
0.00011931017
0.00011954123
0.00011976045
0.00011996766
0.00012016293
0.00012034622
0.00012051771
0.00012067763
0.00012082624
0.00012096383
0.00012109086
0.00012120757
0.00012131428
0.00012141126
0.00012149872
0.00012157677
0.00012165195
0.00012170691
0.00012172775
0.00011434415
0.00011434665
0.00011437988
0.00011442324
0.00011447511
0.00011453657
0.00011460562
0.00011463707
0.00011461502
0.00011460191
0.00011459675
0.00011460138
0.00011461462
0.00011463812
0.00011467049
0.00011471314
0.00011476443
0.00011482551
0.00011489447
0.00011497218
0.00011505646
0.00011514791
0.00011524408
0.00011534531
0.00011544893
0.00011555506
0.00011566085
0.00011576626
0.00011586831
0.0001159326
0.00011585331
0.00011575672
0.00011564317
0.0001155121
0.00011536575
0.00011520362
0.00011502831
0.00011483971
0.00011464077
0.00011443166
0.00011421561
0.00011399314
0.00011376714
0.00011353924
0.00011331154
0.00011308614
0.00011286506
0.00011265045
0.00011244421
0.00011224832
0.00011206462
0.00011189487
0.00011174068
0.00011160365
0.00011148505
0.0001113861
0.00011130786
0.00011125117
0.0001112167
0.00011120505
0.00011121643
0.00011125103
0.00011130882
0.00011138959
0.000111493
0.00011161853
0.00011171127
0.00011159787
0.00011150423
0.00011143111
0.00011137913
0.00011134871
0.00011134024
0.0001113538
0.00011138945
0.00011144712
0.00011152662
0.00011162763
0.00011174987
0.00011189272
0.00011205569
0.00011223808
0.0001124391
0.00011265788
0.0001128934
0.00011314456
0.00011341015
0.00011368883
0.00011397917
0.00011427961
0.00011458866
0.00011490457
0.00011522566
0.00011555023
0.00011587656
0.00011620296
0.00011652778
0.00011684954
0.00011716666
0.0001174778
0.00011778171
0.00011807727
0.00011836344
0.0001186395
0.00011890462
0.00011915829
0.00011940006
0.00011962966
0.00011984688
0.00012005177
0.00012024427
0.00012042456
0.00012059287
0.00012074947
0.00012089466
0.00012102892
0.0001211525
0.00012126578
0.00012136908
0.00012146266
0.00012154668
0.00012162887
0.00012169002
0.00012171881
0.00011427441
0.00011428196
0.00011432069
0.00011436995
0.00011442807
0.00011449612
0.00011457209
0.00011455585
0.00011452667
0.00011450699
0.00011449594
0.00011449544
0.00011450442
0.00011452462
0.00011455472
0.00011459622
0.00011464755
0.0001147099
0.00011478141
0.00011486298
0.00011495244
0.00011505039
0.00011515437
0.00011526468
0.00011537859
0.00011549617
0.00011561444
0.0001157333
0.00011584961
0.0001159524
0.00011586881
0.00011576161
0.0001156365
0.00011549301
0.00011533353
0.00011515768
0.00011496823
0.00011476521
0.00011455173
0.00011432815
0.00011409783
0.00011386146
0.0001136221
0.00011338151
0.00011314195
0.00011290565
0.00011267476
0.00011245154
0.00011223801
0.00011203622
0.00011184811
0.00011167551
0.00011152006
0.00011138342
0.00011126687
0.00011117166
0.00011109881
0.00011104917
0.00011102334
0.00011102187
0.00011104492
0.00011109256
0.00011116468
0.00011126097
0.00011138095
0.00011152398
0.00011160148
0.00011146809
0.00011135504
0.00011126319
0.00011119323
0.00011114565
0.00011112093
0.00011111917
0.0001111405
0.0001111849
0.00011125221
0.00011134217
0.00011145455
0.00011158877
0.00011174437
0.0001119207
0.000112117
0.00011233243
0.00011256599
0.00011281658
0.00011308297
0.00011336381
0.00011365762
0.00011396278
0.00011427775
0.00011460067
0.00011492978
0.00011526326
0.00011559929
0.00011593607
0.0001162718
0.00011660491
0.00011693369
0.0001172567
0.00011757257
0.00011788008
0.00011817813
0.00011846588
0.00011874247
0.0001190073
0.00011925989
0.00011949993
0.00011972718
0.00011994167
0.00012014333
0.00012033235
0.00012050895
0.00012067342
0.00012082608
0.00012096745
0.0001210978
0.00012121758
0.00012132715
0.00012142686
0.00012151692
0.00012160633
0.00012167387
0.00012171045
0.00011419589
0.00011420847
0.00011425269
0.00011430791
0.00011437245
0.00011444733
0.00011451138
0.00011446712
0.00011443051
0.00011440401
0.00011438683
0.00011438102
0.00011438559
0.00011440238
0.00011443017
0.00011447053
0.00011452195
0.00011458569
0.00011465994
0.00011474562
0.00011484058
0.00011494542
0.00011505764
0.00011517753
0.00011530229
0.00011543191
0.00011556333
0.00011569632
0.00011582762
0.00011595685
0.00011588845
0.00011577053
0.00011563363
0.00011547742
0.0001153044
0.00011511436
0.00011491021
0.00011469215
0.00011446346
0.00011422465
0.00011397927
0.00011372818
0.00011347459
0.00011322042
0.0001129681
0.00011271999
0.00011247837
0.00011224564
0.00011202392
0.00011181536
0.00011162201
0.00011144575
0.0001112883
0.00011115136
0.00011103624
0.00011094419
0.00011087625
0.00011083323
0.0001108157
0.00011082417
0.00011085871
0.00011091933
0.00011100579
0.00011111768
0.00011125439
0.00011141517
0.0001114796
0.00011132576
0.00011119294
0.00011108208
0.00011099395
0.00011092911
0.00011088808
0.00011087103
0.00011087812
0.00011090937
0.00011096468
0.00011104381
0.00011114658
0.00011127246
0.00011142103
0.00011159168
0.00011178369
0.00011199622
0.00011222831
0.00011247886
0.00011274663
0.00011303023
0.00011332814
0.0001136387
0.00011396025
0.00011429087
0.00011462868
0.00011497176
0.00011531816
0.00011566595
0.0001160132
0.00011635823
0.0001166992
0.00011703454
0.0001173628
0.00011768264
0.00011799287
0.00011829259
0.00011858085
0.00011885701
0.00011912056
0.00011937112
0.00011960844
0.00011983255
0.00012004336
0.00012024107
0.0001204259
0.00012059818
0.00012075825
0.00012090665
0.00012104371
0.00012116992
0.00012128573
0.00012139155
0.00012148769
0.00012158442
0.00012165837
0.00012170254
0.00011410849
0.0001141259
0.00011417556
0.00011423678
0.00011430785
0.00011438978
0.00011442324
0.0001143704
0.000114326
0.00011429234
0.00011426876
0.00011425738
0.00011425736
0.00011427061
0.00011429601
0.00011433521
0.00011438679
0.00011445205
0.00011452923
0.00011461929
0.0001147201
0.00011483223
0.0001149532
0.00011508321
0.00011521944
0.00011536177
0.00011550706
0.00011565495
0.00011580206
0.00011594782
0.00011591291
0.00011578412
0.00011563517
0.0001154659
0.0001152789
0.00011507413
0.00011485467
0.00011462088
0.00011437621
0.00011412137
0.00011386006
0.00011359334
0.00011332458
0.00011305588
0.00011278982
0.00011252891
0.00011227559
0.00011203239
0.00011180154
0.00011158532
0.00011138584
0.0001112051
0.00011104488
0.00011090693
0.00011079259
0.00011070314
0.00011063962
0.00011060283
0.00011059331
0.00011061151
0.00011065742
0.00011073098
0.00011083184
0.00011095948
0.00011111317
0.00011129199
0.00011134578
0.00011117101
0.000111018
0.00011088782
0.00011078131
0.00011069906
0.00011064166
0.00011060931
0.00011060222
0.00011062043
0.00011066389
0.00011073239
0.0001108258
0.00011094362
0.00011108548
0.0001112508
0.00011143891
0.000111649
0.00011188012
0.00011213117
0.0001124009
0.00011268789
0.00011299058
0.00011330722
0.00011363609
0.00011397514
0.00011432241
0.00011467583
0.00011503331
0.00011539281
0.00011575226
0.00011610983
0.00011646356
0.00011681177
0.00011715288
0.00011748547
0.00011780823
0.00011812021
0.00011842038
0.00011870805
0.00011898266
0.00011924382
0.00011949125
0.00011972496
0.00011994489
0.00012015121
0.00012034419
0.00012052418
0.00012069154
0.00012084686
0.00012099053
0.00012112308
0.00012124505
0.00012135693
0.00012145912
0.00012156315
0.00012164347
0.00012169499
0.0001140121
0.00011403434
0.00011408943
0.00011415675
0.00011423452
0.00011432374
0.0001143276
0.00011426605
0.00011421347
0.00011417229
0.00011414197
0.00011412474
0.00011411988
0.0001141294
0.00011415229
0.00011419027
0.00011424201
0.00011430887
0.00011438915
0.00011448384
0.0001145908
0.00011471064
0.00011484081
0.00011498151
0.00011512983
0.00011528557
0.00011544549
0.00011560909
0.00011577285
0.00011593605
0.00011594302
0.00011580316
0.00011564187
0.00011545911
0.00011525763
0.00011503753
0.00011480206
0.00011455178
0.0001142903
0.00011401853
0.00011374036
0.00011345703
0.0001131721
0.00011288784
0.000112607
0.00011233226
0.00011206621
0.00011181152
0.00011157055
0.0001113457
0.0001111392
0.00011095312
0.00011078932
0.00011064962
0.0001105354
0.00011044798
0.0001103884
0.00011035745
0.00011035564
0.00011038336
0.00011044056
0.00011052706
0.00011064243
0.000110786
0.00011095693
0.00011115415
0.00011119996
0.0001110037
0.00011083008
0.00011068024
0.00011055509
0.00011045529
0.00011038143
0.00011033378
0.00011031255
0.00011031782
0.00011034956
0.00011040762
0.00011049188
0.00011060189
0.00011073733
0.00011089767
0.00011108227
0.00011129035
0.00011152098
0.00011177307
0.00011204535
0.00011233637
0.00011264452
0.00011296796
0.0001133049
0.00011365316
0.00011401066
0.00011437519
0.00011474454
0.00011511649
0.00011548885
0.00011585962
0.00011622674
0.00011658837
0.00011694284
0.0001172886
0.00011762428
0.00011794883
0.00011826116
0.00011856054
0.00011884636
0.00011911821
0.00011937579
0.00011961912
0.00011984812
0.00012006301
0.00012026406
0.00012045165
0.0001206262
0.00012078832
0.00012093847
0.00012107726
0.00012120529
0.00012132313
0.0001214313
0.00012154256
0.00012162912
0.00012168776
0.00011390653
0.00011393351
0.00011399404
0.00011406752
0.00011415216
0.00011424891
0.00011422456
0.00011415382
0.00011409261
0.00011404349
0.00011400604
0.00011398263
0.00011397264
0.0001139782
0.00011399842
0.0001140351
0.00011408699
0.00011415553
0.00011423907
0.00011433861
0.00011445207
0.00011458002
0.00011471992
0.00011487189
0.00011503297
0.00011520287
0.00011537823
0.00011555842
0.00011573977
0.00011592139
0.00011597958
0.00011582842
0.00011565445
0.00011545773
0.00011524119
0.00011500509
0.00011475287
0.00011448524
0.00011420605
0.00011391638
0.00011362032
0.00011331933
0.00011301713
0.00011271621
0.00011241949
0.00011212981
0.00011184993
0.00011158267
0.00011133054
0.00011109606
0.00011088158
0.00011068926
0.00011052107
0.00011037887
0.00011026411
0.00011017815
0.00011012202
0.00011009653
0.00011010215
0.00011013924
0.00011020767
0.00011030716
0.00011043719
0.00011059696
0.00011078547
0.0001110015
0.0001110422
0.00011082386
0.00011062915
0.00011045929
0.00011031523
0.00011019768
0.00011010728
0.00011004428
0.00011000893
0.00011000134
0.00011002149
0.00011006926
0.00011014456
0.00011024701
0.00011037631
0.00011053198
0.00011071343
0.00011091992
0.00011115054
0.00011140421
0.00011167964
0.00011197536
0.00011228967
0.00011262068
0.00011296648
0.00011332478
0.00011369334
0.00011406982
0.00011445185
0.00011483705
0.00011522307
0.00011560777
0.00011598893
0.00011636459
0.00011673295
0.00011709236
0.00011744136
0.0001177788
0.00011810357
0.00011841485
0.00011871203
0.00011899465
0.00011926242
0.00011951536
0.0001197534
0.00011997678
0.00012018579
0.00012038087
0.00012056247
0.00012073126
0.00012088776
0.00012103264
0.00012116659
0.00012129028
0.00012140431
0.00012152266
0.00012161528
0.00012168081
0.00011379166
0.00011382335
0.00011388934
0.00011396909
0.00011406079
0.00011416536
0.00011411434
0.00011403388
0.00011396353
0.00011390599
0.00011386097
0.00011383098
0.00011381552
0.00011381685
0.00011383418
0.00011386943
0.00011392142
0.00011399168
0.00011407859
0.00011418322
0.00011430349
0.00011443997
0.0001145901
0.00011475395
0.00011492848
0.00011511332
0.00011530498
0.0001155027
0.00011570264
0.00011590372
0.0001160235
0.00011586076
0.00011567368
0.00011546249
0.00011523025
0.0001149774
0.00011470757
0.00011442169
0.00011412378
0.00011381516
0.00011350012
0.00011318032
0.0001128597
0.00011254093
0.00011222714
0.00011192135
0.00011162648
0.00011134553
0.00011108113
0.00011083597
0.00011061251
0.00011041302
0.00011023956
0.00011009409
0.0001099781
0.000109893
0.00010983985
0.00010981944
0.00010983224
0.00010987855
0.00010995817
0.00011007075
0.00011021563
0.00011039189
0.00011059838
0.0001108337
0.00011087235
0.0001106313
0.000110415
0.00011022473
0.00011006148
0.000109926
0.00010981893
0.00010974055
0.00010969112
0.00010967072
0.00010967939
0.000109717
0.00010978353
0.00010987861
0.00011000202
0.00011015332
0.00011033197
0.00011053728
0.00011076836
0.00011102415
0.00011130334
0.00011160442
0.00011192564
0.00011226501
0.0001126205
0.0001129897
0.00011337022
0.00011375954
0.00011415513
0.00011455443
0.00011495493
0.00011535433
0.00011575024
0.00011614057
0.00011652339
0.00011689696
0.00011725969
0.00011761039
0.00011794787
0.00011827127
0.00011857995
0.00011887344
0.00011915144
0.00011941398
0.00011966101
0.00011989279
0.00012010966
0.00012031209
0.00012050059
0.00012067589
0.00012083857
0.00012098939
0.00012112911
0.00012125847
0.0001213782
0.00012150348
0.00012160197
0.00012167413
0.00011366727
0.00011370361
0.00011377509
0.00011386121
0.00011396017
0.00011407283
0.00011399689
0.00011390612
0.00011382607
0.00011375957
0.00011370648
0.00011366946
0.00011364814
0.00011364492
0.00011365912
0.00011369276
0.00011374478
0.00011381676
0.00011390717
0.0001140171
0.0001141445
0.00011428994
0.00011445082
0.00011462718
0.00011481591
0.00011501652
0.00011522541
0.00011544166
0.00011566126
0.00011588295
0.00011607478
0.0001159011
0.00011570046
0.0001154742
0.00011522555
0.00011495514
0.00011466678
0.00011436162
0.00011404392
0.0001137152
0.00011337998
0.00011304015
0.00011269985
0.00011236198
0.00011202985
0.00011170669
0.00011139561
0.00011109975
0.00011082193
0.00011056498
0.00011033148
0.00011012385
0.00010994423
0.00010979468
0.00010967676
0.00010959191
0.00010954125
0.00010952556
0.0001095453
0.00010960072
0.00010969155
0.00010981735
0.00010997734
0.00011017045
0.00011039538
0.00011065055
0.00011069039
0.00011042596
0.00011018753
0.00010997642
0.00010979368
0.00010964007
0.00010951622
0.00010942241
0.00010935888
0.00010932575
0.00010932301
0.00010935059
0.00010940849
0.0001094964
0.00010961413
0.00010976133
0.00010993751
0.00011014202
0.00011037403
0.00011063247
0.00011091604
0.00011122318
0.00011155208
0.00011190064
0.00011226672
0.00011264774
0.00011304115
0.00011344427
0.00011385435
0.00011426867
0.00011468453
0.00011509944
0.00011551086
0.00011591655
0.00011631444
0.00011670268
0.00011707961
0.00011744393
0.00011779441
0.00011813015
0.00011845048
0.00011875492
0.00011904318
0.0001193153
0.00011957125
0.00011981134
0.00012003594
0.00012024557
0.0001204408
0.00012062244
0.00012079111
0.00012094767
0.00012109296
0.00012122781
0.00012135306
0.00012148504
0.00012158918
0.00012166772
0.00011353321
0.00011357417
0.00011365115
0.00011374377
0.00011385018
0.00011397126
0.00011387235
0.00011377062
0.00011368023
0.00011360417
0.00011354245
0.00011349789
0.00011347027
0.00011346211
0.00011347287
0.00011350469
0.00011355662
0.0001136303
0.00011372429
0.00011383972
0.00011397456
0.00011412938
0.00011430157
0.0001144911
0.00011469479
0.00011491205
0.00011513914
0.000115375
0.00011561542
0.00011585893
0.00011610096
0.00011595041
0.0001157357
0.0001154937
0.00011522785
0.00011493896
0.00011463107
0.00011430555
0.00011396687
0.00011361682
0.00011326014
0.00011289895
0.00011253764
0.00011217931
0.00011182751
0.00011148564
0.00011115703
0.00011084499
0.00011055254
0.00011028262
0.00011003799
0.00010982119
0.00010963448
0.00010948
0.00010935941
0.00010927421
0.00010922554
0.00010921421
0.00010924066
0.00010930509
0.00010940718
0.00010954638
0.00010972178
0.00010993217
0.00011017607
0.00011045172
0.00011049614
0.00011020762
0.00010994648
0.00010971411
0.00010951157
0.00010933961
0.00010919887
0.00010908958
0.00010901198
0.00010896614
0.00010895208
0.00010896973
0.00010901913
0.00010910002
0.00010921227
0.00010935561
0.00010952961
0.0001097337
0.00010996708
0.00011022871
0.00011051729
0.00011083121
0.00011116858
0.00011152722
0.00011190481
0.00011229863
0.00011270596
0.00011312388
0.00011354947
0.0001139798
0.00011441194
0.00011484324
0.00011527098
0.00011569276
0.00011610637
0.00011650985
0.00011690143
0.00011727977
0.00011764354
0.00011799184
0.00011832397
0.00011863945
0.00011893799
0.00011921965
0.00011948445
0.00011973272
0.00011996491
0.00012018157
0.00012038334
0.0001205711
0.00012074556
0.00012090764
0.00012105827
0.0001211984
0.00012132893
0.00012146738
0.00012157691
0.00012166158
0.00011338924
0.00011343477
0.00011351729
0.00011361652
0.00011373061
0.00011386041
0.00011374077
0.00011362736
0.00011352594
0.00011343965
0.00011336868
0.000113316
0.00011328156
0.00011326803
0.00011327501
0.00011330476
0.00011335642
0.00011343177
0.00011352941
0.00011365051
0.00011379311
0.00011395775
0.0001141418
0.00011434519
0.00011456465
0.00011479949
0.00011504584
0.00011530244
0.00011556492
0.00011583158
0.00011609761
0.00011600979
0.00011578043
0.00011552198
0.00011523805
0.00011492969
0.00011460115
0.00011425406
0.00011389314
0.00011352041
0.00011314088
0.00011275692
0.00011237316
0.00011199293
0.00011162001
0.00011125803
0.0001109105
0.00011058095
0.00011027255
0.00010998844
0.00010973152
0.00010950447
0.00010930968
0.0001091494
0.00010902538
0.00010893919
0.00010889202
0.00010888469
0.00010891763
0.00010899102
0.00010910445
0.00010925728
0.00010944846
0.00010967663
0.00010994011
0.00011023693
0.00011028945
0.00010997608
0.00010969165
0.00010943757
0.00010921491
0.00010902441
0.00010886666
0.00010874185
0.00010865017
0.00010859167
0.00010856636
0.00010857416
0.00010861516
0.00010868915
0.00010879608
0.00010893576
0.00010910786
0.00010931187
0.00010954705
0.00010981241
0.00011010662
0.00011042806
0.00011077475
0.00011114438
0.00011153448
0.00011194217
0.00011236448
0.00011279831
0.00011324049
0.00011368787
0.0001141373
0.00011458593
0.00011503085
0.00011546949
0.00011589951
0.00011631881
0.00011672554
0.00011711828
0.00011749566
0.00011785675
0.00011820081
0.0001185274
0.00011883622
0.00011912738
0.00011940093
0.00011965726
0.00011989685