# Time	Cd	Cl	Cm
0.0005	5151.0765	0.38895096	0
0.001	1617.317	37.131408	0
0.0015	593.68967	5.5022791	0
0.002	540.05873	2.0652682	0
0.0025	550.21813	0.67176043	0
0.003	556.53115	-0.4999308	0
0.0035	566.80491	-0.77231851	0
0.004	573.44132	-4.0450638	0
0.0045	590.5758	-2.6325783	0
0.005	601.33293	-3.4718559	0
0.0055	617.64925	-6.0544028	0
0.006	631.08392	-3.5566743	0
0.0065	642.28812	-1.8647038	0
0.007	651.23813	-0.75674175	0
0.0075	661.27979	-0.21715366	0
0.008	666.81854	-0.48356076	0
0.0085	669.23669	-2.0973028	0
0.009	669.63183	-3.8816255	0
0.0095	666.26851	-6.97886	0
0.01	661.54807	-10.561162	0
0.0105	656.49637	-14.515183	0
0.011	651.60323	-18.420911	0
0.0115	647.20695	-22.245929	0
0.012	643.30112	-25.30336	0
0.0125	639.43507	-27.032708	0
0.013	635.43781	-27.067561	0
0.0135	632.04543	-25.99362	0
0.014	628.40197	-23.208531	0
0.0145	625.10988	-18.920244	0
0.015	622.21912	-13.337524	0
0.0155	619.72104	-6.7498853	0
0.016	617.52215	0.65054122	0
0.0165	615.583	8.6963393	0
0.017	614.0388	17.489077	0
0.0175	612.91151	27.013127	0
0.018	612.07285	36.593377	0
0.0185	611.54685	45.988195	0
0.019	611.28573	54.84716	0
0.0195	611.37448	62.786569	0
0.02	611.69451	69.327757	0
0.0205	612.127	74.086386	0
0.021	612.47139	76.633128	0
0.0215	612.38972	76.768674	0
0.022	612.11727	74.492936	0
0.0225	611.54867	69.988873	0
0.023	610.64326	63.360654	0
0.0235	609.45752	54.78693	0
0.024	607.94827	44.638669	0
0.0245	606.00614	33.670261	0
0.025	603.96234	22.611242	0
0.0255	601.75063	12.108564	0
0.026	599.56584	2.6704149	0
0.0265	597.57359	-5.132084	0
0.027	595.84162	-11.022964	0
0.0275	594.12809	-14.643452	0
0.028	592.42255	-15.76447	0
0.0285	590.92765	-14.182293	0
0.029	589.75736	-10.220412	0
0.0295	588.73089	-4.2536277	0
0.03	588.03316	3.4674301	0
0.0305	587.49212	12.054264	0
0.031	586.99962	20.766324	0
0.0315	586.62472	29.072684	0
0.032	586.35831	36.524539	0
0.0325	586.08302	42.941527	0
0.033	586.02047	48.016313	0
0.0335	586.17436	51.363752	0
0.034	586.50346	52.736863	0
0.0345	586.91164	52.050954	0
0.035	587.35952	49.212601	0
0.0355	587.55227	44.272916	0
0.036	587.35005	37.395328	0
0.0365	586.67436	28.818309	0
0.037	585.56131	18.885447	0
0.0375	584.18328	8.1097927	0
0.038	582.85533	-3.0102591	0
0.0385	581.46761	-14.153845	0
0.039	580.27252	-24.440979	0
0.0395	578.94661	-33.105526	0
0.04	578.0375	-39.825759	0
0.0405	577.82282	-44.120994	0
0.041	578.1778	-45.785243	0
0.0415	578.62521	-44.34176	0
0.042	579.21741	-39.47862	0
0.0425	579.91284	-31.482269	0
0.043	580.438	-20.834972	0
0.0435	581.02492	-7.8913315	0
0.044	581.68186	6.6533906	0
0.0445	582.2246	22.199115	0
0.045	582.76389	37.973521	0
0.0455	583.37494	52.741977	0
0.046	584.25433	65.682909	0
0.0465	585.38884	75.883773	0
0.047	586.68972	83.001273	0
0.0475	588.1731	86.27256	0
0.048	589.85758	85.46155	0
0.0485	591.35563	79.998915	0
0.049	592.40996	69.99539	0
0.0495	592.97703	56.039084	0
0.05	592.41464	38.327556	0
0.0505	591.08858	17.301266	0
0.051	589.28336	-6.1847128	0
0.0515	587.74394	-31.133815	0
0.052	586.56347	-56.46314	0
0.0525	586.40708	-80.405064	0
0.053	587.38193	-101.11714	0
0.0535	589.65372	-117.14208	0
0.054	592.88313	-126.97398	0
0.0545	596.64719	-129.49479	0
0.055	600.39576	-123.3912	0
0.0555	603.18504	-108.73382	0
0.056	605.23393	-85.992709	0
0.0565	606.48688	-56.01837	0
0.057	606.06665	-19.489887	0
0.0575	604.19513	21.984838	0
0.058	602.3602	66.196414	0
0.0585	602.20714	110.71011	0
0.059	604.43575	152.60737	0
0.0595	608.66487	187.33554	0
0.06	615.4241	212.22248	0
0.0605	623.933	225.77666	0
0.061	632.3047	225.77058	0
0.0615	639.7696	211.06552	0
0.062	644.31633	183.08722	0
0.0625	645.15025	141.94959	0
0.063	642.69757	88.605527	0
0.0635	637.51142	23.883315	0
0.064	632.2592	-49.00479	0
0.0645	630.42339	-124.42224	0
0.065	631.93844	-195.59105	0
0.0655	638.04653	-256.94691	0
0.066	649.21755	-302.82743	0
0.0665	663.20227	-328.6764	0
0.067	678.34366	-333.38886	0
0.0675	691.29801	-314.56753	0
0.068	699.16199	-273.3918	0
0.0685	699.96585	-210.37163	0
0.069	694.60369	-127.64667	0
0.0695	684.86105	-28.93385	0
0.07	675.0381	76.910033	0
0.0705	669.13316	182.02308	0
0.071	669.48707	277.97365	0
0.0715	676.92393	356.55638	0
0.072	691.63525	409.23228	0
0.0725	710.19826	432.48104	0
0.073	729.84607	426.61877	0
0.0735	744.86381	389.58485	0
0.074	749.99561	325.44688	0
0.0745	745.10857	235.13358	0
0.075	733.97162	122.5907	0
0.0755	719.00376	-3.181979	0
0.076	704.6055	-130.16047	0
0.0765	695.56827	-248.058	0
0.077	695.28449	-349.49303	0
0.0775	703.10809	-426.20998	0
0.078	719.29332	-467.89964	0
0.0785	739.59252	-476.17913	0
0.079	758.51221	-449.76184	0
0.0795	771.16885	-390.55682	0
0.08	772.71473	-300.32502	0
0.0805	762.57769	-182.62943	0
0.081	745.90177	-47.980921	0
0.0815	729.3045	92.278363	0
0.082	715.37501	225.16117	0
0.0825	709.15502	341.8294	0
0.083	713.13665	434.15231	0
0.0835	727.26442	491.17078	0
0.084	747.24086	510.98526	0
0.0845	769.29478	496.73902	0
0.085	785.52939	445.64804	0
0.0855	789.99392	364.97043	0
0.086	782.118	253.73507	0
0.0865	765.78156	119.57521	0
0.087	746.64876	-26.836404	0
0.0875	729.41822	-168.58229	0
0.088	716.70557	-295.57153	0
0.0885	713.70949	-402.14345	0
0.089	721.3506	-478.54075	0
0.0895	737.60019	-514.2258	0
0.09	759.44111	-513.88402	0
0.0905	779.76082	-476.71296	0
0.091	790.60249	-405.1059	0
0.0915	790.09279	-301.15262	0
0.092	777.08392	-170.53027	0
0.0925	758.77542	-23.175729	0
0.093	740.52579	124.3534	0
0.0935	725.23536	261.77218	0
0.094	718.63867	379.94443	0
0.0945	722.7149	468.36326	0
0.095	737.36296	518.94452	0
0.0955	758.37229	531.02425	0
0.096	780.92485	508.05947	0
0.0965	795.93166	447.70351	0
0.097	798.61924	356.5293	0
0.0975	788.40716	236.6441	0
0.098	770.62762	93.973532	0
0.0985	750.40227	-57.014297	0
0.099	732.78264	-200.65225	0
0.0995	720.31119	-327.98309	0
0.1	718.86141	-432.16084	0
0.1005	727.11309	-500.84904	0
0.101	744.58968	-528.54848	0
0.1015	767.33471	-520.297	0
0.102	786.99864	-474.52569	0
0.1025	796.06933	-394.69217	0
0.103	793.11767	-282.11147	0
0.1035	778.61094	-144.59034	0
0.104	759.71288	7.1360082	0
0.1045	741.23468	155.76051	0
0.105	725.96446	291.4029	0
0.1055	721.48632	406.37961	0
0.106	727.4402	488.7237	0
0.1065	743.33513	530.45659	0
0.107	765.1884	535.02213	0
0.1075	787.21583	503.71751	0
0.108	799.88812	436.55281	0
0.1085	800.37112	337.23843	0
0.109	787.92569	210.88638	0
0.1095	769.14806	63.173863	0
0.11	748.97818	-88.511413	0
0.1105	731.40274	-230.35918	0
0.111	720.63359	-354.78204	0
0.1115	720.908	-453.19631	0
0.112	730.9929	-513.35995	0
0.1125	750.17611	-533.64575	0
0.113	772.92271	-517.46065	0
0.1135	791.42085	-463.69048	0
0.114	798.186	-376.59552	0
0.1145	792.22	-257.31943	0
0.115	776.52498	-114.74653	0
0.1155	757.21135	38.506805	0
0.116	738.93278	186.2493	0
0.1165	724.83281	317.67084	0
0.117	722.61037	427.45403	0
0.1175	730.83311	502.78635	0
0.118	748.36757	536.22291	0
0.1185	770.77743	533.60288	0
0.119	791.58655	494.42027	0
0.1195	801.78081	420.54162	0
0.12	799.65069	314.48097	0
0.1205	785.16473	182.9273	0
0.121	765.83307	31.774535	0
0.1215	746.12871	-119.04636	0
0.122	728.80309	-257.57012	0
0.1225	720.25308	-377.99149	0
0.123	722.15998	-469.55691	0
0.1235	734.49784	-521.58703	0
0.124	755.01738	-534.32344	0
0.1245	777.68856	-510.45795	0
0.125	794.90614	-447.42501	0
0.1255	799.05262	-354.48471	0
0.126	790.19529	-230.08037	0
0.1265	773.4573	-83.78845	0
0.127	753.89945	69.407263	0
0.1275	735.91458	215.21587	0
0.128	724.09537	343.64461	0
0.1285	723.54216	447.06747	0
0.129	733.90384	513.83279	0
0.1295	752.51237	539.03066	0
0.13	775.60576	529.52638	0
0.1305	794.83251	482.57653	0
0.131	802.52397	402.12878	0
0.1315	797.70749	290.0448	0
0.132	782.03686	153.56725	0
0.1325	761.9197	0.91913094	0
0.133	742.71094	-148.77475	0
0.1335	726.26873	-283.39263	0
0.134	720.32263	-399.26955	0
0.1345	723.74835	-482.95547	0
0.135	738.83904	-527.56625	0
0.1355	759.86439	-532.4253	0
0.136	782.26332	-500.89496	0
0.1365	796.37322	-432.43889	0
0.137	798.33535	-331.68281	0
0.1375	787.21472	-202.24748	0
0.138	769.31433	-52.930208	0
0.1385	749.83996	99.330397	0
0.139	732.55646	242.46007	0
0.1395	722.97165	366.94147	0
0.14	724.67201	463.86292	0
0.1405	736.63059	521.49115	0
0.141	757.11992	539.79592	0
0.1415	779.92425	522.77478	0
0.142	797.62678	467.85601	0
0.1425	802.7476	381.29435	0
0.143	795.09069	263.79803	0
0.1435	778.26867	122.85197	0
0.144	757.72912	-30.354305	0
0.1445	739.08307	-178.09125	0
0.145	724.30108	-309.87837	0
0.1455	720.0239	-418.81124	0
0.146	726.3476	-496.08016	0
0.1465	742.36809	-531.13752	0
0.147	764.89129	-529.2735	0
0.1475	786.1083	-489.86069	0
0.148	797.61428	-415.12234	0
0.1485	797.11202	-307.34184	0
0.149	784.08419	-172.91812	0
0.1495	765.31215	-21.326374	0
0.15	746.13071	129.48028	0
0.1505	729.65953	269.44092	0
0.151	722.50602	389.35939	0
0.1515	726.21947	478.54849	0
0.152	740.26145	527.79133	0
0.1525	761.55249	538.82585	0
0.153	784.45773	514.27173	0
0.1535	799.75026	451.99684	0
0.154	802.40886	358.54559	0
0.1545	792.02084	236.4097	0
0.155	774.05854	91.449633	0
0.1555	753.38945	-61.465847	0
0.156	735.33439	-206.5687	0
0.1565	722.42774	-334.75997	0
0.157	720.75837	-438.82671	0
0.1575	728.946	-506.96407	0
0.158	746.548	-533.63513	0
0.1585	769.51499	-524.14706	0
0.159	789.25761	-476.90539	0
0.1595	798.2521	-395.46082	0
0.16	795.02681	-281.11567	0
0.1605	780.35059	-142.00855	0
0.161	761.21324	10.970737	0
0.1615	742.51393	160.42145	0
0.162	726.94659	296.1635	0
0.1625	722.56104	411.06818	0
0.163	728.62859	492.6213	0
0.1635	744.73127	533.44502	0
0.164	766.68306	536.92135	0
0.1645	788.69508	504.38911	0
0.165	801.16927	436.01108	0
0.1655	801.34236	335.3299	0
0.166	788.63695	207.80168	0
0.1665	769.7077	58.975147	0
0.167	749.4411	-93.028623	0
0.1675	731.75395	-234.85695	0
0.168	721.11611	-359.0461	0
0.1685	721.50875	-456.74516	0
0.169	731.79583	-515.79338	0
0.1695	751.23899	-535.1632	0
0.17	774.00573	-517.78035	0
0.1705	792.35915	-462.78228	0
0.171	798.83918	-374.56565	0
0.1715	792.50003	-254.23469	0
0.172	776.65819	-110.82674	0
0.1725	757.2482	42.759283	0
0.173	738.94473	190.52767	0
0.1735	725.09914	321.8644	0
0.174	722.93065	430.60115	0
0.1745	731.41759	504.97429	0
0.175	749.22613	537.39745	0
0.1755	771.66643	533.73294	0
0.176	792.31382	493.42256	0
0.1765	802.21039	418.53936	0
0.177	799.72035	311.49872	0
0.1775	785.05265	179.11866	0
0.178	765.54694	27.582393	0
0.1785	745.8838	-123.2583	0
0.179	728.55516	-261.30167	0
0.1795	720.35597	-381.25906	0
0.18	722.46617	-471.84817	0
0.1805	735.13998	-522.77161	0
0.181	755.74344	-534.34832	0
0.1815	778.53475	-509.5041	0
0.182	795.67785	-444.66034	0
0.1825	799.40587	-351.13287	0
0.183	790.10276	-226.18292	0
0.1835	773.17374	-79.406105	0
0.184	753.55179	73.749224	0
0.1845	735.59504	219.23208	0
0.185	724.04559	347.17549	0
0.1855	723.81805	449.81462	0
0.186	734.3173	515.14188	0
0.1865	753.18266	539.26769	0
0.187	776.26545	528.6583	0
0.1875	795.31607	480.64584	0
0.188	802.64038	399.25391	0
0.1885	797.44167	286.32636	0
0.189	781.60896	149.14596	0
0.1895	761.41111	-3.6986303	0
0.19	742.26188	-153.15759	0
0.1905	726.0879	-287.46141	0
0.191	720.40332	-402.38897	0
0.1915	724.04705	-484.88612	0
0.192	739.50117	-528.43493	0
0.1925	760.63453	-532.18028	0
0.193	782.89597	-499.50847	0
0.1935	796.62349	-430.15866	0
0.194	798.22277	-328.32406	0
0.1945	786.83271	-198.10426	0
0.195	768.73192	-48.371203	0
0.1955	749.27447	103.68304	0
0.196	732.09744	246.39368	0
0.1965	722.86362	370.28459	0
0.197	724.87377	466.16096	0
0.1975	737.12372	522.58668	0
0.198	757.79115	539.85321	0
0.1985	780.60224	521.74048	0
0.199	798.08602	465.4743	0
0.1995	802.82173	378.09989	0
0.2	794.74852	259.88129	0
0.2005	777.75667	118.31067	0
0.201	757.17639	-34.891415	0
0.2015	738.58927	-182.35498	0
0.202	724.03712	-313.65072	0
0.2025	720.21459	-422.0872	0
0.203	726.74383	-498.0006	0
0.2035	742.96076	-531.76146	0
0.204	765.56408	-528.77943	0
0.2045	786.59976	-488.21912	0
0.205	797.7562	-412.49238	0
0.2055	796.8884	-303.68988	0
0.206	783.60681	-168.5376	0
0.2065	764.76307	-16.653363	0
0.207	745.63816	134.0096	0
0.2075	729.29934	273.48191	0
0.208	722.53096	392.73736	0
0.2085	726.52226	480.68256	0
0.209	740.96685	528.89878	0
0.2095	762.30101	538.71649	0
0.21	785.11095	513.02093	0
0.2105	799.96424	449.9855	0
0.211	802.30051	355.3618	0
0.2115	791.58404	232.37818	0
0.212	773.4498	86.831903	0
0.2125	752.79365	-66.0123	0
0.213	734.79361	-210.72411	0
0.2135	722.20706	-338.41329	0
0.214	720.85225	-441.61389	0
0.2145	729.36546	-508.44199	0
0.215	747.21897	-533.98478	0
0.2155	770.22234	-523.3825	0
0.216	789.73635	-474.99467	0
0.2165	798.36582	-392.54562	0
0.217	794.6987	-277.29157	0
0.2175	779.81198	-137.48423	0
0.218	760.64439	15.665601	0
0.2185	742.00802	164.88837	0
0.219	726.55891	299.85005	0
0.2195	722.58648	413.99722	0
0.22	729.05719	494.60961	0
0.2205	745.37571	534.08607	0
0.221	767.43302	536.547	0
0.2215	789.28203	502.86933	0
0.222	801.36536	433.54267	0
0.2225	801.17791	331.89524	0
0.223	788.13679	203.63012	0
0.2235	769.12812	54.275439	0
0.224	748.94238	-97.529822	0
0.2245	731.30596	-238.87656	0
0.225	720.99479	-362.43722	0
0.2255	721.64405	-459.16446	0
0.226	732.20983	-516.87852	0
0.2265	751.90149	-535.23962	0
0.227	774.65286	-516.7243	0
0.2275	792.76472	-460.52206	0
0.228	798.88647	-371.36738	0
0.2285	792.11833	-250.2289	0
0.229	776.14827	-106.26515	0
0.2295	756.71655	47.291422	0
0.23	738.45123	194.79755	0
0.2305	724.94947	325.71298	0
0.231	722.90371	433.15154	0
0.2315	731.76986	506.4689	0
0.232	749.90886	537.85654	0
0.2325	772.37295	533.15128	0
0.233	792.79906	491.73563	0
0.2335	802.33403	415.92111	0
0.234	799.45	308.02014	0
0.2345	784.57974	174.94558	0
0.235	764.92832	23.217486	0
0.2355	745.33165	-127.47228	0
0.236	728.05649	-264.81462	0
0.2365	720.27351	-384.17116	0
0.237	722.6338	-473.67	0
0.2375	735.68954	-523.43053	0
0.238	756.40054	-534.01508	0
0.2385	779.23378	-508.03025	0
0.239	795.80456	-442.61067	0
0.2395	799.27921	-347.78	0
0.24	789.61856	-222.23516	0
0.2405	772.52308	-75.01517	0
0.241	752.89348	77.969151	0
0.2415	735.0264	223.01328	0
0.242	723.8043	350.37058	0
0.2425	723.92472	452.08905	0
0.243	734.62192	515.97952	0
0.2435	753.78151	539.08168	0
0.244	776.82826	527.4354	0
0.2445	795.71679	478.36523	0
0.245	802.62159	396.06488	0
0.2455	797.0209	282.37263	0
0.246	781.01914	144.57926	0
0.2465	760.76239	-8.3552768	0
0.247	741.70415	-157.4647	0
0.2475	725.80142	-291.34705	0
0.248	720.37812	-405.20551	0
0.2485	724.37279	-486.7003	0
0.249	740.11057	-528.99416	0
0.2495	761.35709	-531.67473	0
0.25	783.45631	-497.86688	0
0.2505	796.78851	-427.63404	0
0.251	798.02642	-324.77885	0
0.2515	786.33204	-193.83438	0
0.252	768.05364	-43.751661	0
0.2525	748.63916	108.04281	0
0.253	731.58946	250.28917	0
0.2535	722.71998	373.53311	0
0.254	725.05159	468.30906	0
0.2545	737.59144	523.50342	0
0.255	758.41072	539.70687	0
0.2555	781.26053	520.53934	0
0.256	798.5617	462.77596	0
0.2565	802.87147	374.68244	0
0.257	794.35957	255.81811	0
0.2575	777.1969	113.66878	0
0.258	756.58515	-39.478441	0
0.2585	738.05769	-186.614	0
0.259	723.75141	-317.36751	0
0.2595	720.35321	-425.17204	0
0.26	727.11908	-499.75001	0
0.2605	743.5585	-532.24991	0
0.261	766.23167	-528.13531	0
0.2615	787.06958	-486.427	0
0.262	797.86475	-409.71588	0
0.2625	796.62562	-299.91216	0
0.263	783.08889	-164.05339	0
0.2635	764.17718	-11.920915	0
0.264	745.11733	138.56572	0
0.2645	728.91375	277.50051	0
0.265	722.54393	396.06354	0
0.2655	726.79204	482.67129	0
0.266	741.63865	529.8597	0
0.2665	763.06465	538.51111	0
0.267	785.76161	511.65575	0
0.2675	800.19253	447.77736	0
0.268	802.18538	352.04227	0
0.2685	791.1313	228.22985	0
0.269	772.8088	82.144425	0
0.2695	752.17291	-70.596407	0
0.27	734.22793	-214.8795	0
0.2705	721.97731	-342.03601	0
0.271	720.94152	-444.32413	0
0.2715	729.78908	-509.82738	0
0.272	747.88518	-534.23335	0
0.2725	770.91635	-522.49469	0
0.273	790.19048	-472.94483	0
0.2735	798.46484	-389.49639	0
0.274	794.33254	-273.32415	0
0.2745	779.2617	-132.84629	0
0.275	760.05567	20.449742	0
0.2755	741.48266	169.43625	0
0.276	726.1687	303.54539	0
0.2765	722.59429	416.9223	0
0.277	729.47774	496.54269	0
0.2775	746.02726	534.68511	0
0.278	768.20468	536.11491	0
0.2785	789.86187	501.27448	0
0.279	801.55284	430.99538	0
0.2795	800.97859	328.37733	0
0.28	787.61801	199.39063	0
0.2805	768.51981	49.552484	0
0.281	748.42628	-102.05161	0
0.2815	730.83887	-242.88503	0
0.282	720.8766	-365.81568	0
0.2825	721.78009	-461.52439	0
0.283	732.69253	-518.09261	0
0.2835	752.55745	-535.20884	0
0.284	775.29224	-515.57701	0
0.2845	793.17213	-458.11083	0
0.285	798.91527	-368.03458	0
0.2855	791.71596	-246.11221	0
0.286	775.61358	-101.60776	0
0.2865	756.17119	51.886962	0
0.287	737.94386	199.11053	0
0.2875	724.78728	329.5609	0
0.288	722.74735	435.48325	0
0.2885	731.91112	507.10892	0
0.289	750.54497	537.92494	0
0.2895	773.25443	532.38297	0
0.29	793.42368	489.86403	0
0.2905	802.57032	413.15055	0
0.291	799.27075	304.45886	0
0.2915	784.17955	170.76098	0
0.292	764.36691	18.91973	0
0.2925	744.82416	-131.53716	0
0.293	727.56308	-268.03378	0
0.2935	720.16178	-386.73347	0
0.294	722.75738	-475.07415	0
0.2945	736.22408	-523.67369	0
0.295	757.00904	-533.30331	0
0.2955	779.80101	-506.22274	0
0.296	795.718	-440.64259	0
0.2965	798.95132	-344.44717	0
0.297	788.99723	-218.14467	0
0.2975	771.7658	-70.528721	0
0.298	752.17409	82.284998	0
0.2985	734.43576	226.9097	0
0.299	723.54058	353.6541	0
0.2995	723.99126	454.42249	0
0.3	734.926	516.92345	0
0.3005	754.46543	539.13036	0
0.301	777.36604	526.45037	0
0.3015	796.05178	476.30708	0
0.302	802.60152	393.15965	0
0.3025	796.57811	278.70282	0
0.303	780.3955	140.28947	0
0.3035	760.07536	-12.715601	0
0.304	741.11172	-161.50861	0
0.3045	725.44335	-294.99958	0
0.305	720.21433	-407.7244	0
0.3055	724.62168	-488.34545	0
0.306	740.65973	-529.44838	0
0.3065	762.02274	-531.127	0
0.307	783.97009	-496.24158	0
0.3075	796.93416	-425.16738	0
0.308	797.81636	-321.33841	0
0.3085	785.83445	-189.72756	0
0.309	767.44819	-39.268986	0
0.3095	748.07471	112.28488	0
0.31	731.14014	254.09721	0
0.3105	722.61196	376.68248	0
0.311	725.22925	470.35904	0
0.3115	738.04036	524.35423	0
0.312	758.95984	539.44519	0
0.3125	781.91217	519.30642	0
0.313	799.10089	459.83676	0
0.3135	802.9645	371.17213	0
0.314	794.00344	251.75498	0
0.3145	776.67542	109.06937	0
0.315	756.01579	-44.037529	0
0.3155	737.56968	-190.77344	0
0.316	723.49474	-320.97601	0
0.3165	720.46482	-428.05671	0
0.317	727.48401	-501.34584	0
0.3175	744.1426	-532.60897	0
0.318	766.88266	-527.38764	0
0.3185	787.51542	-484.54588	0
0.319	797.95477	-406.8783	0
0.3195	796.33698	-296.11598	0
0.32	782.55128	-159.57872	0
0.3205	763.57821	-7.2349991	0
0.321	744.59048	143.05815	0
0.3215	728.52198	281.43002	0
0.322	722.55507	399.28942	0
0.3225	727.03292	484.50657	0
0.323	742.28861	530.70444	0
0.3235	763.82395	538.25599	0
0.324	786.39956	510.23917	0
0.3245	800.42232	445.48557	0
0.325	802.06431	348.70738	0
0.3255	790.6426	224.11632	0
0.326	772.13291	77.552146	0
0.3265	751.56157	-75.072506	0
0.327	733.66258	-218.91199	0
0.3275	721.75198	-345.51344	0
0.328	721.03525	-446.8915	0
0.3285	730.21558	-511.09251	0
0.329	748.54272	-534.38513	0
0.3295	771.5873	-521.52353	0
0.33	790.62249	-470.84266	0
0.3305	798.54585	-386.42633	0
0.331	793.94909	-269.3776	0
0.3315	778.70699	-128.26567	0
0.332	759.46024	25.13038	0
0.3325	740.95187	173.86858	0
0.333	725.85171	307.25911	0
0.3335	722.65672	419.8351	0
0.334	729.8834	498.39637	0
0.3345	746.67017	535.28237	0
0.335	768.93423	535.66693	0
0.3355	790.39358	499.68967	0
0.336	801.71005	428.47557	0
0.3365	800.74125	324.91129	0
0.337	787.08762	195.21718	0
0.3375	767.91011	44.97233	0
0.338	747.90789	-106.47142	0
0.3385	730.37656	-246.7959	0
0.339	720.75305	-369.11161	0
0.3395	721.90265	-463.78922	0
0.34	733.16577	-519.20576	0
0.3405	753.20856	-535.1557	0
0.341	775.92165	-514.43131	0
0.3415	793.58982	-455.68975	0
0.342	798.95554	-364.75014	0
0.3425	791.34438	-242.10407	0
0.343	775.08883	-97.092764	0
0.3435	755.61791	56.374357	0
0.344	737.43948	203.27072	0
0.3445	724.63571	333.24757	0
0.345	722.80449	438.30617	0
0.3455	732.85099	509.74944	0
0.346	750.79701	538.30207	0
0.3465	773.86067	531.88977	0
0.347	793.75576	488.18416	0
0.3475	802.51319	410.46397	0
0.348	798.83025	300.85131	0
0.3485	783.58541	166.39378	0
0.349	763.70696	14.302736	0
0.3495	744.2927	-136.02595	0
0.35	727.18242	-271.9621	0
0.3505	720.21177	-390.08604	0
0.351	723.0297	-477.2594	0
0.3515	736.95681	-524.9368	0
0.352	757.75387	-533.24124	0
0.3525	780.45874	-505.0184	0
0.353	795.84785	-438.86216	0
0.3535	798.80035	-341.37313	0
0.354	788.53355	-214.24019	0
0.3545	771.15328	-66.164002	0
0.355	751.59621	86.56816	0
0.3555	733.9752	230.86804	0
0.356	723.39837	357.06854	0
0.3565	724.1799	456.915	0
0.357	735.29054	517.96449	0
0.3575	755.20015	539.49254	0
0.358	778.03103	525.61802	0
0.3585	796.44562	474.32826	0
0.359	802.65315	390.31937	0
0.3595	796.20099	275.06465	0
0.36	779.84593	135.99372	0
0.3605	759.46697	-17.111728	0
0.361	740.58957	-165.64144	0
0.3615	725.15497	-298.74608	0
0.362	720.05598	-410.22044	0
0.3625	724.88492	-489.88309	0
0.363	741.26197	-529.90776	0
0.3635	762.75763	-530.61533	0
0.364	784.55243	-494.65027	0
0.3645	797.14851	-422.71568	0
0.365	797.66812	-317.91915	0
0.3655	785.3925	-185.61905	0
0.366	766.89653	-34.860495	0
0.3665	747.54423	116.47032	0
0.367	730.71667	257.82983	0
0.3675	722.52333	379.75259	0
0.368	725.41814	472.33582	0
0.3685	738.50869	525.10773	0
0.369	759.53486	539.19414	0
0.3695	782.57092	517.99281	0
0.37	799.53432	456.99093	0
0.3705	802.9982	367.58873	0
0.371	793.5704	247.71861	0
0.3715	776.05963	104.49933	0
0.372	755.3529	-48.549099	0
0.3725	736.99467	-194.81758	0
0.373	723.19217	-324.48125	0
0.3735	720.51527	-430.78881	0
0.374	727.8134	-502.72281	0
0.3745	744.71316	-532.75499	0
0.375	767.52797	-526.43255	0
0.3755	787.94565	-482.45762	0
0.376	798.01887	-403.8403	0
0.3765	796.01663	-292.14728	0
0.377	781.9848	-154.96345	0
0.3775	762.95419	-2.4562439	0
0.378	744.04614	147.60776	0
0.3785	728.12142	285.35535	0
0.379	722.55621	402.44397	0
0.3795	727.37982	486.50946	0
0.38	742.90833	531.44794	0
0.3805	764.56871	537.94938	0
0.381	787.00669	508.75196	0
0.3815	800.61693	443.09057	0
0.382	801.8827	345.28412	0
0.3825	790.10066	219.92387	0
0.383	771.44226	72.817471	0
0.3835	750.95004	-79.667583	0
0.384	733.11742	-222.98881	0
0.3845	721.54852	-348.98779	0
0.385	721.13909	-449.43619	0
0.3855	730.6361	-512.33662	0
0.386	749.20351	-534.52123	0
0.3865	772.21736	-520.46248	0
0.387	791.08114	-468.72869	0
0.3875	798.62388	-383.31675	0
0.388	793.5607	-265.41307	0
0.3885	778.15621	-123.68728	0
0.389	758.87313	29.78752	0
0.3895	740.4241	178.26483	0
0.39	725.59864	311.02024	0
0.3905	722.762	422.73745	0
0.391	730.29906	500.19014	0
0.3915	747.3337	535.87759	0
0.392	769.6559	535.19457	0
0.3925	790.90872	498.08047	0
0.393	801.8493	425.91085	0
0.3935	800.4825	321.41882	0
0.394	786.54156	191.02159	0
0.3945	767.2884	40.386812	0
0.395	747.38269	-110.89524	0
0.3955	729.90482	-250.67306	0
0.396	720.6297	-372.37136	0
0.3965	722.02417	-465.99229	0
0.397	733.65203	-520.25137	0
0.3975	753.87791	-535.08507	0
0.398	776.56235	-513.23389	0
0.3985	794.03982	-453.15139	0
0.399	799.01214	-361.39229	0
0.3995	790.98256	-238.05202	0
0.4	774.56931	-92.542094	0
0.4005	755.06438	60.889415	0
0.401	736.9336	207.45279	0
0.4015	724.48566	336.93406	0
0.402	723.15803	441.63571	0
0.4025	733.26357	511.36665	0
0.403	751.40081	538.68981	0
0.4035	774.48338	531.20841	0
0.404	794.15086	486.35566	0
0.4045	802.54573	407.66382	0
0.405	798.47666	297.16563	0
0.4055	783.07678	161.98098	0
0.406	763.11493	9.6656082	0
0.4065	743.77301	-140.48762	0
0.407	726.85674	-275.90583	0
0.4075	720.2719	-393.36526	0
0.408	723.29054	-479.33965	0
0.4085	737.63328	-525.98241	0
0.409	758.48838	-533.04106	0
0.4095	781.10717	-503.66791	0
0.41	796.02871	-436.7764	0
0.4105	798.66549	-338.12037	0
0.411	788.07863	-210.18341	0
0.4115	770.5337	-61.670098	0
0.412	751.0157	90.960995	0
0.4125	733.50208	234.90705	0
0.413	723.25646	360.52938	0
0.4135	724.35829	459.39664	0
0.414	735.75191	519.25209	0
0.4145	755.87395	539.63969	0
0.415	778.69644	524.696	0
0.4155	796.84998	472.17593	0
0.416	802.68837	387.26101	0
0.4165	795.81802	271.2036	0
0.417	779.30411	131.46479	0
0.4175	758.85912	-21.705311	0
0.418	740.06643	-169.96723	0
0.4185	724.85834	-302.64788	0
0.419	719.80026	-412.64337	0
0.4195	725.58506	-492.25871	0
0.42	741.32717	-530.00424	0
0.4205	763.66869	-530.23345	0
0.421	785.195	-493.01343	0
0.4215	797.38286	-420.1311	0
0.422	797.5603	-314.3236	0
0.4225	785.02391	-181.32057	0
0.423	766.43011	-30.298837	0
0.4235	747.12328	120.81608	0
0.424	730.39512	261.66292	0
0.4245	722.53273	382.87316	0
0.425	725.68672	474.29669	0
0.4255	739.04041	525.75097	0
0.426	760.18145	538.88091	0
0.4265	783.19691	516.50888	0
0.427	799.51569	455.17845	0
0.4275	802.73592	364.31183	0
0.428	792.9624	243.76675	0
0.4285	775.30162	99.980193	0
0.429	754.59767	-52.993771	0
0.4295	736.38923	-198.80894	0
0.43	722.89497	-327.93684	0
0.4305	720.57499	-433.47938	0
0.431	728.16788	-504.08544	0
0.4315	745.31655	-532.93888	0
0.432	768.18397	-525.52485	0
0.4325	788.36599	-480.42963	0
0.433	798.05532	-400.86794	0
0.4335	795.65609	-288.26677	0
0.434	781.38575	-150.44832	0
0.4345	762.31191	2.1953298	0
0.435	743.47655	152.03693	0
0.4355	727.69416	289.12388	0
0.436	722.52888	405.44323	0
0.4365	727.77578	488.61891	0
0.437	743.50849	532.14604	0
0.4375	765.26929	537.59132	0
0.438	787.56598	507.24233	0
0.4385	800.7865	440.66648	0
0.439	801.66598	341.86806	0
0.4395	789.5648	215.76116	0
0.44	770.80242	68.047709	0
0.4405	750.41075	-84.299495	0
0.441	732.62584	-227.08635	0
0.4415	721.38077	-352.46166	0
0.442	721.26525	-451.97607	0
0.4425	731.04429	-513.58253	0
0.443	749.85386	-534.69678	0
0.4435	772.82996	-519.53008	0
0.444	791.5447	-466.68789	0
0.4445	798.69385	-380.27592	0
0.445	793.18436	-261.52631	0
0.4455	777.62291	-119.20835	0
0.446	758.30888	34.326941	0
0.4465	739.90896	182.56317	0
0.447	725.37343	314.69239	0
0.4475	722.86716	425.52023	0
0.448	730.72603	501.90409	0
0.4485	748.01	536.43713	0
0.449	770.37461	534.71128	0
0.4495	791.41747	496.48528	0
0.45	801.98855	423.36649	0
0.4505	800.22787	317.98018	0
0.451	786.00592	186.90283	0
0.4515	766.68484	35.902512	0
0.452	746.86937	-115.21429	0
0.4525	729.44215	-254.42113	0
0.453	720.51949	-375.51071	0
0.4535	722.16366	-468.0916	0
0.454	734.15227	-521.20363	0
0.4545	754.5477	-534.95264	0
0.455	777.21445	-512.01224	0
0.4555	794.53256	-450.49532	0
0.456	799.10068	-358.00534	0
0.4565	790.64723	-234.02805	0
0.457	774.0754	-88.046941	0
0.4575	754.53527	65.325612	0
0.458	736.47104	211.55343	0
0.4585	724.33736	340.53669	0
0.459	723.42523	444.66024	0
0.4595	733.64341	512.82962	0
0.46	752.01115	539.02673	0
0.4605	775.10601	530.49417	0
0.461	794.54578	484.52775	0
0.4615	802.58353	404.90043	0
0.462	798.12939	293.54631	0
0.4625	782.59335	157.66311	0
0.463	762.5396	5.1389214	0
0.4635	743.25864	-144.8134	0
0.464	726.52623	-279.71237	0
0.4645	720.31604	-396.48169	0
0.465	723.54474	-481.28023	0
0.4655	738.29002	-526.89716	0
0.466	759.22175	-532.78955	0
0.4665	781.74275	-502.3001	0
0.467	796.23167	-434.61793	0
0.4675	798.52127	-334.84941	0
0.468	787.64819	-206.12646	0
0.4685	769.92469	-57.171451	0
0.469	750.43091	95.296559	0
0.4695	733.03252	238.83507	0
0.47	723.11534	363.87493	0
0.4705	724.52614	461.75806	0
0.471	736.20693	520.48372	0
0.4715	756.52448	539.76446	0
0.472	779.33437	523.75501	0
0.4725	797.25273	470.0068	0
0.473	802.72543	384.22147	0
0.4735	795.44871	267.4067	0
0.474	778.77989	127.03187	0
0.4745	758.27956	-26.174526	0
0.475	739.56227	-174.17333	0
0.4755	724.56993	-306.40743	0
0.476	719.80344	-415.66428	0
0.4765	725.98957	-494.25978	0
0.477	741.84813	-530.54903	0
0.4775	764.30085	-529.72515	0
0.478	785.67508	-491.37396	0
0.4785	797.50478	-417.54155	0
0.479	797.33043	-310.71062	0
0.4795	784.5385	-176.97446	0
0.48	765.84327	-25.655234	0
0.4805	746.59728	125.288	0
0.481	729.99997	265.67705	0
0.4815	722.50001	386.21644	0
0.482	725.94593	476.50429	0
0.4825	739.61553	526.65707	0
0.483	760.87389	538.85555	0
0.4835	783.85267	515.346	0
0.484	799.59606	453.64065	0
0.4845	802.54457	361.37225	0
0.485	792.45859	239.99618	0
0.4855	774.64343	95.599625	0
0.486	753.95486	-57.349021	0
0.4865	735.83703	-202.78973	0
0.487	722.64695	-331.43014	0
0.4875	720.65995	-436.2209	0
0.488	728.56256	-505.55726	0
0.4885	745.94742	-533.28024	0
0.489	768.86847	-524.79955	0
0.4895	788.82003	-478.60082	0
0.49	798.15031	-398.07174	0
0.4905	795.32405	-284.57083	0
0.491	780.84511	-146.09741	0
0.4915	761.73343	6.7165085	0
0.492	742.96329	156.36144	0
0.4925	727.30193	292.7741	0
0.493	722.53659	408.36019	0
0.4935	728.21921	490.7338	0
0.494	744.13153	532.83007	0
0.4945	765.98859	537.24993	0
0.495	788.1416	505.77238	0
0.4955	800.97574	438.27095	0
0.496	801.48785	338.49225	0
0.4965	789.07553	211.6505	0
0.497	770.23217	63.344316	0
0.4975	749.90815	-88.836197	0
0.498	732.16779	-231.1126	0
0.4985	721.23169	-355.87885	0
0.499	721.39302	-454.46793	0
0.4995	731.43705	-514.77371	0
0.5	750.52618	-534.88539	0
0.5005	773.44923	-518.64695	0
0.501	791.97655	-464.67939	0
0.5015	798.77034	-377.32042	0
0.502	792.83429	-257.74494	0
0.5025	777.12266	-114.85802	0
0.503	757.76366	38.71965	0
0.5035	739.41216	186.72375	0
0.504	725.234	318.39742	0
0.5045	722.92805	428.20708	0
0.505	731.10236	503.53594	0
0.5055	748.64903	536.9609	0
0.506	771.05498	534.2245	0
0.5065	791.89347	494.91567	0
0.507	802.1133	420.87676	0
0.5075	799.97454	314.62481	0
0.508	785.48571	182.88336	0
0.5085	766.12092	31.562683	0
0.509	746.37327	-119.40709	0
0.5095	728.9907	-258.0271	0
0.51	720.42419	-378.5311	0
0.5105	722.31422	-470.08957	0
0.511	734.65284	-522.07256	0
0.5115	755.19256	-534.74395	0
0.512	777.87021	-510.77905	0
0.5125	795.09147	-447.64203	0
0.513	799.23084	-354.57107	0
0.5135	790.35344	-230.03949	0
0.514	773.602	-83.62725	0
0.5145	754.02691	69.662369	0
0.515	736.02224	215.53854	0
0.5155	724.19148	344.00722	0
0.516	723.64086	447.41896	0
0.5165	733.99995	514.12964	0
0.517	752.61784	539.26051	0
0.5175	775.71699	529.68486	0
0.518	794.93898	482.64274	0
0.5185	802.6211	402.10865	0
0.519	797.78462	289.93113	0
0.5195	782.10386	153.36832	0
0.52	761.97316	0.66111563	0
0.5205	742.75766	-149.06679	0
0.521	726.31812	-283.71014	0
0.5215	720.37493	-399.55871	0
0.522	723.80811	-483.19703	0