/*--------------------------------*- C++ -*----------------------------------*\
| =========                 |                                                 |
| \\      /  F ield         | foam-extend: Open Source CFD                    |
|  \\    /   O peration     | Version:     4.1                                |
|   \\  /    A nd           | Web:         http://www.foam-extend.org         |
|    \\/     M anipulation  |                                                 |
\*---------------------------------------------------------------------------*/
FoamFile
{
    version     2.0;
    format      ascii;
    class       surfaceScalarField;
    location    "0.1";
    object      phi;
}
// * * * * * * * * * * * * * * * * * * * * * * * * * * * * * * * * * * * * * //

dimensions      [0 3 -1 0 0 0 0];

internalField   nonuniform List<scalar> 
6703
(
-0.0042226495
0.021924103
-0.017701453
-0.0080003397
0.026989245
-0.023211555
-0.011581963
0.032398912
-0.028817289
-0.015777258
0.03848804
-0.034292744
-0.020595785
0.045622411
-0.040803884
-0.026101257
0.053978143
-0.048472672
-0.032360466
0.063737902
-0.057478693
-0.039444256
0.075111433
-0.068027642
-0.047437257
0.088329398
-0.080336397
-0.05644324
0.10364924
-0.094643258
-0.066588337
0.12136228
-0.11121718
-0.078023214
0.14180415
-0.13036927
-0.090923766
0.16537918
-0.15247863
-0.10550651
0.19261458
-0.17803184
-0.1220298
0.2242527
-0.20772941
0.26129642
-0.24285961
-0.1404666
-0.0030634921
0.024987595
-0.0061296262
0.030055379
-0.0091466534
0.035415939
-0.012705435
0.042046821
-0.016858374
0.04977535
-0.021721237
0.058841006
-0.027412951
0.069429616
-0.034063271
0.081761753
-0.041818302
0.096084429
-0.050845784
0.11267672
-0.061344113
0.13186061
-0.073556343
0.15401638
-0.087784965
0.17960781
-0.10439131
0.20922093
-0.12374449
0.24360588
0.28363089
-0.14607896
-0.0011491735
0.026136769
-0.0029830535
0.031889259
-0.005089027
0.037521912
-0.0076154963
0.04457329
-0.01061224
0.052772093
-0.014170064
0.06239883
-0.018384196
0.073643748
-0.023365635
0.086743192
-0.029241235
0.10196003
-0.036155587
0.11959107
-0.044274161
0.13997918
-0.053789291
0.16353151
-0.06493017
0.19074869
-0.077972073
0.22226283
-0.093219173
0.25885298
0.3013895
-0.11097778
-0.00043488114
0.02657165
-0.0016070606
0.033061439
-0.0028440212
0.038758873
-0.0043756037
0.046104873
-0.0062093829
0.054605873
-0.0084147698
0.064604217
-0.011057359
0.076286337
-0.01421703
0.089902862
-0.017985801
0.1057288
-0.022469715
0.12407499
-0.027790579
0.14530004
-0.034087471
0.1698284
-0.041516859
0.19817807
-0.050246313
0.23099229
-0.060418846
0.26902551
0.31292667
-0.07195602
0.00020311353
0.026368536
-0.00038241787
0.03364697
-0.00083115329
0.039207608
-0.0014500555
0.046723775
-0.0021846325
0.05534045
-0.0030819865
0.06550157
-0.0041722098
0.07737656
-0.0054988827
0.091229535
-0.0071131198
0.10734304
-0.0090763151
0.12603818
-0.011461452
0.14768518
-0.014354417
0.17272137
-0.017854444
0.2016781
-0.022072126
0.23520997
-0.027126754
0.27408014
0.31924362
-0.0334437
0.00086923397
0.025499302
0.00094479045
0.033571413
0.0012700741
0.038882325
0.0015731977
0.046420651
0.0019428251
0.054970822
0.0023588808
0.065085515
0.0028261851
0.076909256
0.0033395153
0.090716205
0.0038908932
0.10679166
0.0044659388
0.12546314
0.0050426296
0.14710849
0.005589609
0.17217439
0.0060645565
0.20120315
0.0064113526
0.23486317
0.0065841974
0.27390729
0.3193
0.0065278137
0.0015700776
0.023929225
0.0024126321
0.032728859
0.0035203776
0.037774579
0.0047874102
0.045153619
0.006282984
0.053475248
0.0080308356
0.063337663
0.01006587
0.074874222
0.012422873
0.088359202
0.015136873
0.10407766
0.018240901
0.12235911
0.021764627
0.14358477
0.025733297
0.16820572
0.030168106
0.19676834
0.035084848
0.22994643
0.040506974
0.26848516
0.31347393
0.046333039
0.0022814472
0.021647778
0.0039733265
0.03103698
0.0058547235
0.035893182
0.0080906313
0.042917711
0.010712294
0.050853586
0.013794677
0.060255281
0.017399914
0.071268984
0.021600269
0.084158847
0.026470447
0.099207481
0.03208725
0.11674231
0.038528025
0.13714399
0.045869534
0.16086421
0.054187432
0.18845045
0.063549871
0.22058399
0.074007351
0.25802769
0.30196766
0.085513625
0.0030506537
0.018597124
0.0057458234
0.02834181
0.0084543321
0.033184674
0.011663706
0.039708337
0.015401199
0.047116093
0.019793551
0.055862928
0.024934178
0.066128357
0.030929762
0.078163264
0.037892076
0.092245167
0.045938773
0.10869561
0.055193083
0.12788968
0.065785362
0.15027193
0.077858551
0.17637726
0.091576673
0.20686587
0.10713296
0.2424714
0.28434549
0.12475513
0.0041121267
0.014484997
0.0080263205
0.024427616
0.011760144
0.02945085
0.016019228
0.035449253
0.020891002
0.042244319
0.026554909
0.050199021
0.033149665
0.059533601
0.040818629
0.070494301
0.049709749
0.083354047
0.059978109
0.09842725
0.071787731
0.11608006
0.085316777
0.13674288
0.10077139
0.16092265
0.11841733
0.18921992
0.13863871
0.22225002
0.26078258
0.16220163
0.0044925524
0.0099924447
0.010603082
0.018317087
0.016389937
0.023663995
0.022241964
0.029597226
0.028465279
0.036021003
0.03540699
0.043257311
0.043323576
0.051617015
0.052431527
0.06138635
0.062931916
0.072853658
0.075019338
0.086339829
0.088884916
0.10221448
0.10472113
0.12090667
0.12273114
0.14291264
0.14314147
0.16880958
0.16617458
0.19921691
0.23459185
0.19236531
0.0079293113
0.0020631334
0.015403599
0.010842799
0.021561774
0.01750582
0.027742695
0.023416305
0.034426619
0.029337079
0.04186309
0.035820839
0.050238726
0.043241379
0.059704671
0.051920405
0.070365954
0.062192374
0.082277253
0.07442853
0.095445842
0.089045891
0.1098423
0.10651021
0.12542196
0.12733298
0.14215447
0.15207708
0.15995195
0.18141942
0.2157224
0.1788214
-0.00029360594
-0.017749536
0.018043142
-0.002261954
-0.021262601
0.023230949
-0.0059045324
-0.025301494
0.028944072
-0.010158505
-0.030069633
0.034323605
-0.015195995
-0.035665878
0.040703368
-0.021142348
-0.042215378
0.048161731
-0.028132966
-0.049856352
0.056846971
-0.036318781
-0.05873996
0.066925775
-0.04584776
-0.069031754
0.078560733
-0.056857692
-0.080913202
0.091923133
-0.069473426
-0.094584772
0.10720051
-0.083804092
-0.11027281
0.12460348
-0.099950775
-0.12824275
0.14438944
-0.11806372
-0.14880782
0.16692076
-0.13852501
-0.17230352
0.19276481
-0.19918137
0.22305929
-0.16240293
-0.0027256826
-0.015023854
-0.0061842067
-0.017804077
-0.010397133
-0.021088567
-0.015491151
-0.024975616
-0.021606187
-0.029550841
-0.028906938
-0.034914628
-0.037583976
-0.041179314
-0.047855566
-0.048468371
-0.05997087
-0.056916449
-0.074213634
-0.066670438
-0.09090604
-0.077892366
-0.1104135
-0.090765352
-0.13315273
-0.10550353
-0.15959401
-0.12236654
-0.19020279
-0.14169474
-0.1639821
-0.22540206
-0.0032028966
-0.011820957
-0.0071154581
-0.013891516
-0.01180794
-0.016396085
-0.017416833
-0.019366723
-0.024102524
-0.02286515
-0.032051526
-0.026965626
-0.04147852
-0.03175232
-0.052628495
-0.037318396
-0.065779119
-0.043765825
-0.081243702
-0.051205856
-0.099375496
-0.059760572
-0.12057462
-0.069566227
-0.14529839
-0.080779764
-0.17407638
-0.09358854
-0.20756427
-0.10820685
-0.12481492
-0.24673145
-0.0032929821
-0.0085279748
-0.0073876399
-0.0097968578
-0.012355457
-0.011428268
-0.018326523
-0.013395658
-0.025465049
-0.015726624
-0.033964913
-0.018465762
-0.044049499
-0.021667734
-0.055972525
-0.02539537
-0.070019085
-0.029719265
-0.086507115
-0.034717826
-0.10578957
-0.040478122
-0.1282592
-0.047096595
-0.15435979
-0.054679174
-0.18459963
-0.0633487
-0.21949854
-0.073307944
-0.084994323
-0.25931913
-0.0036191288
-0.0049088461
-0.0080179386
-0.005398048
-0.013283322
-0.0061628849
-0.019573136
-0.0071058438
-0.027074375
-0.0082253842
-0.036001615
-0.0095385219
-0.046598813
-0.011070536
-0.05914135
-0.012852833
-0.073936464
-0.014924151
-0.091327102
-0.017327188
-0.11169613
-0.020109098
-0.13547096
-0.023321759
-0.16312602
-0.027024117
-0.19520526
-0.031269455
-0.23251684
-0.035996366
-0.040803581
-0.27670758
-0.0011490649
0.02613559
-0.024986525
-0.0029830781
0.031889435
-0.030055422
-0.0050893006
0.037524966
-0.035418744
-0.0076159263
0.044580927
-0.042054302
-0.010612619
0.052787993
-0.0497913
-0.01416972
0.062426297
-0.058869196
-0.018381775
0.07368581
-0.069473755
-0.023358705
0.086800934
-0.081824004
-0.029225979
0.10203014
-0.09616287
-0.036126887
0.1196627
-0.11276179
-0.044226963
0.14003148
-0.1319314
-0.053722249
0.16353571
-0.15404042
-0.064851243
0.19067995
-0.17955095
-0.077900737
0.22212376
-0.20907426
-0.093171469
0.25869359
-0.24342286
0.30127087
-0.28354566
-0.11089668
-0.0048745934
-3.4252664e-05
-0.010241059
-3.1582196e-05
-0.016374668
-2.927593e-05
-0.02345446
-2.6052585e-05
-0.031658668
-2.117626e-05
-0.041183135
-1.405463e-05
-0.052249464
-4.2076321e-06
-0.065110934
8.6374731e-06
-0.08005943
2.4344418e-05
-0.097428817
4.2199627e-05
-0.11759868
6.0768134e-05
-0.14099844
7.7999647e-05
-0.16811399
9.1433933e-05
-0.19948081
9.736647e-05
-0.2355636
8.6422677e-05
3.6410308e-05
-0.27640359
-0.0049758158
0.0049415632
-0.010429173
0.005421775
-0.016651011
0.0061925622
-0.023823236
0.0071461718
-0.032123961
0.0082795492
-0.04174712
0.0096091048
-0.052910742
0.011159413
-0.065862832
0.012960728
-0.080888454
0.015049966
-0.098313445
0.017467191
-0.11850868
0.020256003
-0.14189409
0.023463405
-0.16894262
0.027139966
-0.2001685
0.03132325
-0.23602856
0.035946481
0.040732762
-0.27672491
-0.0036387844
0.0085803475
-0.0080778296
0.0098608202
-0.013391534
0.011506266
-0.019734532
0.01348917
-0.027291502
0.015836519
-0.036274452
0.018592056
-0.046924188
0.021809149
-0.059512162
0.025548702
-0.074340697
0.029878501
-0.091746436
0.034872931
-0.11210381
0.040613377
-0.13582915
0.047188742
-0.16338507
0.054695888
-0.19530507
0.063243251
-0.23234188
0.072983285
0.084211599
-0.27582071
-0.0032846229
0.01186497
-0.0073711084
0.013947306
-0.012329127
0.016464285
-0.018286692
0.019446735
-0.025405717
0.022955544
-0.033877204
0.027063543
-0.043920773
0.031852718
-0.055785203
0.037413132
-0.069749295
0.043842593
-0.086123424
0.051247059
-0.10525242
0.059742377
-0.12752238
0.069458698
-0.15337728
0.080550786
-0.18334792
0.093213891
-0.21802496
0.10766032
0.12393466
-0.25774802
-0.003181794
0.015046764
-0.0070687452
0.017834257
-0.011729351
0.021124891
-0.017298479
0.025015863
-0.023934568
0.029591634
-0.031821727
0.034950701
-0.041171781
0.041202772
-0.05222659
0.048467941
-0.065260984
0.056876988
-0.080587174
0.066573249
-0.098562211
0.077717414
-0.11960049
0.090496981
-0.14418991
0.1051402
-0.17291254
0.12193652
-0.20658261
0.1413304
0.16430976
-0.24695771
-0.0027135965
0.017760361
-0.00615635
0.02127701
-0.010349061
0.025317602
-0.015417932
0.030084734
-0.021502452
0.035676153
-0.02876716
0.042215409
-0.037403221
0.049838834
-0.047631106
0.058695826
-0.059705331
0.068951212
-0.073920777
0.080788695
-0.090620734
0.09441737
-0.11020814
0.11008439
-0.13316557
0.12809763
-0.16007858
0.14884953
-0.19152655
0.17277837
0.20021617
-0.22743296
-0.00027238777
0.018032749
-0.0022285314
0.023233154
-0.0058654168
0.028954487
-0.010111825
0.034331142
-0.01514147
0.040705799
-0.021080451
0.04815439
-0.028065546
0.056823929
-0.036250041
0.066880321
-0.04578644
0.078487611
-0.056819629
0.091821885
-0.069484879
0.10708262
-0.083903312
0.12450282
-0.10017926
0.14437358
-0.11842051
0.16709078
-0.13884388
0.19320173
0.22352451
-0.16215222
0.0079089262
-0.010001601
0.0020926751
0.015363213
-0.01833298
0.010878693
0.021497046
-0.023686155
0.017552322
0.027649896
-0.029625892
0.023473041
0.034301298
-0.036057903
0.029406502
0.04170013
-0.043305236
0.035906403
0.050032295
-0.051678914
0.043346749
0.0594481
-0.061464133
0.052048329
0.070051453
-0.07294629
0.062342936
0.081895444
-0.086440291
0.0745963
0.094985034
-0.10230565
0.089216064
0.10928736
-0.12095687
0.10665454
0.12475143
-0.14287164
0.12740757
0.14132154
-0.168605
0.15203488
0.15882764
-0.19870948
0.18120338
-0.23372779
0.21464183
0.1779136
0.0044891331
-0.014490734
0.010589
-0.024432846
0.016363607
-0.029460763
0.022201441
-0.035463726
0.028409734
-0.042266196
0.035335548
-0.05023105
0.043235346
-0.059578712
0.052325561
-0.070554348
0.062807245
-0.083427974
0.07487527
-0.098508316
0.088722462
-0.11615285
0.10454748
-0.13678189
0.12257186
-0.16089602
0.14307151
-0.18910464
0.16640786
-0.22204582
-0.26072706
0.19340712
0.0041082639
-0.018598998
0.0080196352
-0.028344217
0.011749804
-0.033190932
0.016004489
-0.039718411
0.020871609
-0.047133316
0.026530582
-0.055890022
0.033120084
-0.066168214
0.040783139
-0.078217403
0.049667069
-0.092311905
0.05992611
-0.10876736
0.071723689
-0.12795043
0.085238881
-0.15029708
0.10068227
-0.17633941
0.11832664
-0.20674901
0.13855022
-0.24226941
-0.28417299
0.16199616
0.0030490647
-0.021648063
0.0057431576
-0.03103831
0.0084501027
-0.035897877
0.011657726
-0.042926034
0.015393493
-0.050869083
0.019784041
-0.060280571
0.024922642
-0.071306815
0.030915496
-0.084210258
0.037873547
-0.099269955
0.045913242
-0.11680705
0.055156686
-0.13719387
0.065734485
-0.16087488
0.077793872
-0.18839879
0.091509787
-0.22046493
0.10710008
-0.2578597
-0.30190581
0.1248329
0.0022803819
-0.023928445
0.0039716143
-0.032729543
0.0058519334
-0.037778196
0.0080867731
-0.045160874
0.010707407
-0.053489717
0.01378871
-0.063361873
0.017392601
-0.074910706
0.021590851
-0.088408507
0.026457268
-0.10413637
0.032067307
-0.12241709
0.038496764
-0.14362333
0.045821515
-0.16819963
0.054118353
-0.19669563
0.063458125
-0.2298047
0.073894612
-0.26829619
-0.31335179
0.085340595
0.0015694636
-0.025497908
0.0024116208
-0.0335717
0.0035186887
-0.038885264
0.0047851695
-0.046427355
0.0062802671
-0.054984815
0.0080277216
-0.065109328
0.010062285
-0.076945269
0.012418405
-0.090764628
0.015130452
-0.10684842
0.018230448
-0.12551709
0.021746902
-0.14713978
0.025704474
-0.1721572
0.030125532
-0.20111669
0.035029519
-0.23470869
0.040450284
-0.27371696
-0.31916995
0.046268442
0.00086909785
-0.026367006
0.00094454871
-0.033647151
0.0012696503
-0.039210366
0.0015728326
-0.046730537
0.0019427252
-0.055354707
0.0023593851
-0.065525988
0.0028276163
-0.0774135
0.0033421244
-0.091279136
0.0038946667
-0.10740096
0.0044703904
-0.12609281
0.0050466613
-0.14771605
0.0055917349
-0.17270228
0.0060638076
-0.20158876
0.0064092889
-0.23505417
0.0065895415
-0.27389721
-0.31910331
0.0065228956
0.00020336716
-0.026570374
-0.00038205397
-0.03306173
-0.00083056272
-0.038761857
-0.0014489641
-0.046112136
-0.0021826875
-0.054620984
-0.0030785684
-0.064630107
-0.0041664938
-0.076325575
-0.005489755
-0.089955875
-0.0070992213
-0.1057915
-0.0090561679
-0.12413586
-0.011433796
-0.14533842
-0.014318698
-0.16981737
-0.017811008
-0.19809645
-0.022020295
-0.23084488
-0.027058841
-0.26885866
-0.31279962
-0.033362532
-0.00043478315
-0.0016070778
-0.0028439688
-0.0043751775
-0.0062081681
-0.0084119779
-0.011051743
-0.014206684
-0.017968036
-0.022441204
-0.027748152
-0.03402982
-0.041446326
-0.050167451
-0.060332524
-0.071861267
-0.0030580756
-0.02192845
-0.0061236328
-0.026989865
-0.009143266
-0.032399111
-0.012704526
-0.038493042
-0.016860323
-0.045635503
-0.02172591
-0.054003609
-0.027419191
-0.063780474
-0.034068022
-0.075175173
-0.041815649
-0.088415244
-0.05082628
-0.10375116
-0.061296031
-0.12146165
-0.073471553
-0.1418649
-0.087671982
-0.16535052
-0.10429212
-0.19245413
-0.12374867
-0.2239663
-0.26093465
-0.14635968
-0.0042155479
-0.017712902
-0.0079965979
-0.023208815
-0.011587968
-0.028807741
-0.015795
-0.034286009
-0.020627952
-0.040802551
-0.026150077
-0.048481484
-0.03242691
-0.057503642
-0.039526739
-0.068075344
-0.047530201
-0.080411783
-0.056535595
-0.094745762
-0.066664044
-0.1113332
-0.078067337
-0.1304616
-0.09093986
-0.152478
-0.10554183
-0.17785215
-0.12214232
-0.20736582
-0.24255047
-0.1405265
0.0047172007
-0.0029910948
-0.0017261058
0.015334753
0.00011315303
-0.010730705
0.027879837
0.0045136687
-0.017058753
0.041182057
0.0093910342
-0.022693254
0.054265998
0.015254671
-0.028338613
0.066994048
0.021722109
-0.034450158
0.07937543
0.028974142
-0.041355524
0.091461117
0.037255086
-0.049340773
0.10335833
0.046797927
-0.058695143
0.11524702
0.05784984
-0.069738529
0.12736697
0.070715369
-0.08283532
0.14000925
0.085756487
-0.098398759
0.15353338
0.10336266
-0.1168868
0.16838572
0.12395112
-0.13880346
0.1850802
0.14801528
-0.16470976
0.17609826
-0.19520943
0.20419137
0.0022076502
-0.0051987451
0.0080149955
-0.0056941922
0.017028403
-0.004499739
0.029158183
-0.0027387454
0.044690381
-0.00027752682
0.06198991
0.0044225798
0.080046597
0.010917455
0.098102935
0.019198748
0.11606111
0.028839749
0.13411193
0.039799024
0.1524153
0.052411999
0.17130157
0.066870218
0.19139191
0.083272322
0.21369131
0.10165172
0.239526
0.12218059
0.14509298
0.27053128
8.3313021e-05
-0.0052820581
0.00012046349
-0.0057313427
0.0020032085
-0.006382484
0.0064683028
-0.0072038397
0.014396621
-0.0082058452
0.026228093
-0.0074088921
0.042382301
-0.0052367526
0.06317071
-0.0015896612
0.086905127
0.0051053315
0.11150464
0.015199507
0.13540218
0.02851446
0.15881621
0.043456189
0.18245655
0.059631988
0.20756033
0.076547938
0.2354777
0.094263223
0.11279846
0.26777221
0.00036004061
-0.0056420987
0.0007375933
-0.0061088954
0.0011974817
-0.0068423724
0.0017173725
-0.0077237304
0.0022303435
-0.0087188162
0.004635852
-0.0098144006
0.010379223
-0.010980123
0.02107286
-0.012283298
0.037686469
-0.011508277
0.060196293
-0.0073103167
0.085553466
0.003157287
0.10557279
0.023436865
0.13069138
0.034513396
0.15922972
0.048009598
0.19163358
0.061859364
0.074909464
0.22952258
-0.00028027939
-0.0053618193
-0.0010010536
-0.0053881212
-0.0021000419
-0.0057433842
-0.0036013233
-0.006222449
-0.0055469676
-0.0067731719
-0.0079905328
-0.0073708354
-0.010977608
-0.007993048
-0.014682347
-0.0085785596
-0.01713322
-0.0090574038
-0.015004081
-0.0094394559
-0.001011287
-0.010835507
0.02172546
0.00070011727
0.044759043
0.011479814
0.071234165
0.021534475
0.10325339
0.029840135
0.035758856
0.142404
-0.0052082406
-0.00015357873
-0.010382572
-0.0002137893
-0.015853887
-0.00027207001
-0.021745915
-0.00033042062
-0.028130924
-0.00038816318
-0.035058001
-0.00044375809
-0.042555068
-0.00049598146
-0.050587631
-0.00054599613
-0.059047595
-0.0005974404
-0.06782129
-0.00066576045
-0.077893951
-0.00076284622
-0.076465783
-0.00072805111
-0.064352742
-0.00063322663
-0.042774167
-4.4100156e-05
-0.014985635
0.0020516031
0.0084603288
0.012312892
-0.005519945
0.0053663662
-0.010981168
0.0052474339
-0.016775112
0.0055218737
-0.023040177
0.0059346442
-0.029849357
0.0064210166
-0.037236803
0.0069436885
-0.04519128
0.0074584953
-0.053604188
0.0078669123
-0.062256009
0.0080543801
-0.070860503
0.0079387332
-0.079203572
0.0075802233
-0.077298844
-0.0026327791
-0.065187408
-0.012744663
-0.043283463
-0.021948045
-0.011531013
-0.029700847
-0.03487804
0.031807355
-0.00020381911
0.0055701853
-0.0009154264
0.0059590412
-0.0020634506
0.0066698979
-0.0036788249
0.0075500184
-0.0058096713
0.008551863
-0.008511657
0.0096456742
-0.011816491
0.010763329
-0.015874224
0.011924646
-0.018346322
0.010526478
-0.015825491
0.0054179023
-0.0026074809
-0.0056377872
0.018816046
-0.024056306
0.041714955
-0.035643573
0.068662077
-0.048895167
0.10133905
-0.062377821
-0.075312915
0.14177393
0.00031499768
0.0052551876
0.00064143963
0.0056325992
0.0010423494
0.006268988
0.0014931517
0.007099216
0.0019242222
0.0081207924
0.004370739
0.0071991572
0.010215153
0.0049189146
0.021010519
0.0011292795
0.037485675
-0.0059486774
0.059324016
-0.016420439
0.083342984
-0.029656755
0.10367811
-0.044391434
0.12829066
-0.060256122
0.15621789
-0.076822394
0.18791141
-0.094071338
-0.11186177
0.22446026
5.1809718e-05
0.0052033779
6.1436412e-05
0.0056229724
0.0019486416
0.0043817827
0.0064581628
0.0025896947
0.01448161
9.734483e-05
0.026420941
-0.0047401732
0.042673102
-0.011333247
0.063506116
-0.019703734
0.086897742
-0.029340303
0.11077885
-0.040301549
0.13401368
-0.052891589
0.15689378
-0.067271526
0.1801588
-0.083521141
0.20501258
-0.10167618
0.23283483
-0.12189358
-0.14442934
0.26540239
0.0021958687
0.0030075091
0.0079752555
-0.00015641445
0.016976541
-0.0046195031
0.029114654
-0.0095484182
0.044671675
-0.015459677
0.061861348
-0.021929845
0.079718982
-0.029190881
0.097499384
-0.037484137
0.11519716
-0.047038079
0.1329919
-0.058096291
0.15105667
-0.07095636
0.16974959
-0.085964447
0.18971933
-0.10349087
0.21198062
-0.12393747
0.23787288
-0.14778585
-0.17541687
0.26886041
0.0047625852
-0.0017550761
0.015373047
-0.010766876
0.027859297
-0.017105754
0.041062245
-0.022751366
0.054013233
-0.028410665
0.066623354
-0.034539966
0.078899889
-0.041467416
0.090894155
-0.049478402
0.10271589
-0.058859815
0.11454604
-0.069926437
0.12662363
-0.083033952
0.1392422
-0.098583023
0.15276819
-0.11701685
0.16766092
-0.1388302
0.18446901
-0.16459394
-0.19508449
0.20413663
0.00035289403
-0.00033129514
0.00049009272
0.00052849003
0.00043040516
0.00011212374
-0.0005426402
-0.0016899618
-0.0035387483
-0.0063601217
-0.010494682
-0.016361135
-0.024466186
-0.035407251
-0.049934924
-0.069270021
0.00035237444
-0.00033023992
0.00048870581
0.00052630193
0.00042711843
0.00010736537
-0.0005493058
-0.001698874
-0.003549924
-0.0063725528
-0.010505248
-0.016363374
-0.024451937
-0.035383328
-0.049984333
-0.06947551
0.00044941596
-0.00033759896
0.00089598475
0.0016176601
0.002613497
0.0039799336
0.0058592668
0.0084291932
0.011912315
0.016582178
0.02276429
0.030835808
0.041226524
0.054431202
0.07104064
0.090597983
0.00044912116
-0.00033702759
0.00089618809
0.0016192399
0.0026177067
0.0039883883
0.005874243
0.0084538748
0.011951106
0.016641106
0.022851676
0.030963128
0.041409311
0.054682934
0.071392598
0.091905568
0.24348344
-0.53624153
0.29275809
1.2754898
-1.3206007
0.045110955
0.18673157
-0.48441143
0.29767986
1.2754898
-0.33146279
0.050394381
0.28106841
-1.2664091
0.78716333
0.47924576
-0.16831885
0.66040517
-0.49208632
1.1647899
0.44040424
-1.6051941
1.2118173
0.30147583
-1.5132931
0.1915065
-0.26077652
-0.29291541
0.2234399
0.54408037
1.0044782
-1.5485586
-0.54177982
-0.5789637
1.1207435
-1.1497286
0.51075345
0.63897515
-0.25002564
0.60358382
-0.35355818
0.55152787
-0.038997091
-0.51253078
1.0995279
-1.1395726
0.040044656
0.070986015
0.26001369
-0.33099971
0.17605338
-0.25565448
0.079601099
0.94105688
-0.34244447
-0.59861242
-0.16525574
-0.16620705
-1.1548548
0.61307503
-1.4218485
1.4085554
0.013293124
0.10903505
1.2784887
-1.3875237
0.0054733714
-0.849694
0.84422063
0.69766175
0.21252448
-0.91018623
-0.60602895
-0.91228143
1.5183104
0.95743136
-0.31703291
-0.64039845
0.21711226
0.96479534
-1.1819076
-0.34569978
0.83852923
-0.49282945
1.0410267
-0.34336498
0.30411972
-0.21747556
-0.086644158
-0.027141643
1.2549441
-1.2278025
0.96349559
0.0031272335
-0.96662283
0.15710026
-0.91962599
0.76252574
1.3268659
-1.1175268
-0.20933909
1.1281657
-1.1962996
0.068133968
-0.72030477
0.87740502
0.84008019
-0.48900125
-0.35107895
-1.297097
0.25553825
1.0415587
0.38270135
-0.54995346
0.16725211
1.2850401
-0.56428881
-0.72075131
1.1647899
-0.34937454
0.84464549
-0.49527094
1.2118173
-0.13080497
0.56092774
-0.43012278
-0.28493419
1.001609
-0.71667477
-1.4703439
0.62498911
0.84535475
-1.1647899
1.7485608
-0.58377096
-1.2118173
1.7637992
-0.55198187
0.47875472
-0.083074242
-0.39568048
-0.58683877
0.26255188
0.32428689
0.21620405
-0.40564037
0.18943631
0.14655717
0.17379756
-0.32035472
-0.47367011
0.85738218
-0.38371207
0.10112301
0.83034117
-0.93146419
0.14618237
-0.28685647
0.14067409
-0.82390949
0.52352048
0.30038901
-1.5781515
0.17201337
1.4061382
1.2901104
-0.45895764
-0.83115273
1.1965108
0.093599547
0.83028478
0.61423585
-1.4445206
0.77731371
0.65382435
-1.4311381
-0.36878296
0.75621142
-0.38742846
0.10661781
-0.60266186
0.49604405
-0.99683735
1.0344473
-0.037609987
0.6654667
-1.2084054
0.54293866
0.71377506
0.26102416
-0.97479922
-0.15505007
0.93010622
-0.77505616
-1.381948
1.0970138
-0.35207467
0.92628085
-0.57420618
0.27973398
0.27179388
-0.62952135
0.57150687
0.058014485
0.74320287
0.95740519
-1.7006081
1.3396268
-1.2382762
-0.10135062
0.078151524
-0.44742379
0.74689815
-0.29947436
0.98090674
-0.4670098
-0.51389694
1.496451
-1.348515
-0.14793596
1.1580389
-1.0279988
-0.13004005
0.43999355
-0.60093655
0.160943
-0.3421792
0.13274088
0.20943832
0.20412166
-0.54982143
-1.8127958
1.2859334
0.52686243
0.34791967
0.75160827
0.37051465
-1.3668464
0.99633172
-0.67472907
1.140319
-0.46558989
-0.15672996
-0.92998549
1.0867154
0.43615521
-0.32264516
-0.11351005
0.075634248
1.2639926
0.83712589
-0.0023680322
-0.83475786
-1.1953699
0.48820374
0.70716618
0.079410442
0.55008254
-0.62949298
0.47838402
0.36169617
0.66035776
0.36478785
-1.0251456
0.68860755
-0.26115056
-0.42745699
-0.72583631
-0.8078821
0.46249519
-0.27576361
-0.11593656
-0.23219756
0.34813412
-0.43452781
0.84927957
-0.41475176
-0.46807798
1.2112809
-0.86155761
1.1454678
-0.28391018
-0.92339396
-0.27197596
-0.010570174
1.1387358
1.240178
-1.159576
-0.08060199
-0.76329066
-0.38643795
-1.6840472
1.1132036
0.57084359
-1.8140089
1.317418
0.49659088
0.86312901
-0.38794853
-0.47518048
0.20689799
-0.55627253
0.30813592
-0.78180603
0.0066554104
0.63583667
-0.64249209
0.4690314
-0.62408147
-0.22198182
0.60468317
0.28386763
0.65718925
1.0031907
0.49326024
0.58118891
-0.5745335
0.43583744
1.0428292
-1.4786666
1.5312542
-0.87843964
-0.65281456
-0.32944118
0.72133251
-0.39189133
-0.0096064203
0.22581047
0.30915973
-0.16260257
0.12877805
0.1370957
-0.26587375
1.6359651
-1.6631067
0.12911214
0.067977557
-0.1970897
0.17744197
-0.035037969
-1.1247357
1.2112979
-0.086562125
-0.31249609
0.20731196
0.10518413
0.5908557
-0.54885421
-0.042001491
-0.84420683
0.76995631
0.074250521
0.29064851
-0.14446613
-0.050859444
0.47819673
-0.42733729
-0.72505998
1.3292307
-0.60417073
0.45024085
0.83479927
1.1901784
-0.5247117
0.51398606
0.34914295
-0.53372698
0.40292201
0.99104969
-1.1477796
-0.46434841
0.34841185
0.84563433
0.39454368
0.78914054
-1.6227347
0.83359417
0.46530825
0.25296982
-0.20257544
-0.46038434
0.70386779
1.1970005
-1.1970005
-0.33859831
-0.19328409
1.03041
0.11841818
-0.56584198
-0.058644361
0.96253481
-0.90389045
-0.61146351
1.4417483
-0.63845148
1.4157652
1.271995
-0.72913561
-0.54285941
0.62883207
0.45830829
-0.78774947
0.89833253
-1.1797296
0.28139709
0.88550707
-0.8800337
0.13657552
-0.067423186
-1.0288624
1.0962855
1.4774759
0.24887281
-1.7263487
-0.82960426
1.2654417
-0.62359569
0.70910932
-0.64253764
0.72787823
-0.057662457
0.71802022
0.012183238
0.55248336
-0.5646666
-0.86557014
-0.039252635
0.90482278
0.54143005
-1.26649
-1.3537186
1.2950742
0.90024711
0.40761436
-1.3078615
-0.11043861
-0.52172377
0.63216238
-0.56561065
1.109691
-0.91432992
0.34272241
0.57160751
0.57094791
-0.49153747
0.13646102
-0.79454115
0.65808013
0.99746995
-1.1088754
0.11140543
0.87618548
0.39580953
-1.5160708
0.79576601
0.074565497
1.0834734
0.96564355
0.7370705
-1.3430995
-0.1488196
0.58881315
-1.0537856
0.83477945
0.21900616
-1.0783626
0.96792395
0.57473501
0.72518629
-1.2999213
0.90975635
0.0165245
-0.64532077
0.78178179
-0.31085688
-0.74292873
-0.17460516
-0.33622476
0.51082992
0.4560356
-0.73832076
0.28228516
0.14963133
0.43768488
-0.58731621
-1.0165758
0.25951879
0.75705699
0.16074335
1.1976862
-1.3584295
-0.944196
-0.45639452
1.4005905
0.24729287
0.71013848
-0.25190724
0.00016477378
0.25174247
-0.95223231
-0.18734029
1.1991662
-1.0901311
1.0948911
-0.09742113
-0.78584757
-0.45019418
1.2360417
-0.68253575
-0.29629862
0.97883437
-0.12032902
0.47632429
-0.35599527
-0.051887061
0.88666651
-0.42938479
-0.51955157
0.94893635
0.55883881
0.0044359973
-0.56327481
-0.7942583
0.72525328
0.069005011
-0.99908907
0.55645983
0.44262924
-0.88791984
0.57706296
0.57454843
-1.1535121
1.4774759
0.17563957
0.39315832
-0.56879789
1.4533291
-1.1621204
-0.29120868
-1.0757253
1.1905477
-0.47677267
-0.88131039
-0.24342534
0.051218972
-0.84046924
0.78925027
-1.0748966
1.2356399
0.57463382
-1.1182935
0.54365966
0.54804717
0.73979492
-1.2878421
-0.68120332
0.53480442
-0.70940958
0.34336884
-0.39422829
-1.1677123
-0.51633483
1.0445411
-0.11443493
1.0817867
-0.89349535
-0.1882914
0.87399574
0.71945611
-1.5934519
0.20590494
-0.69490618
-0.010482792
0.19118431
-0.18070152
-0.41505407
0.59069364
-0.51232942
1.3863252
-1.3782755
1.3655663
0.012709129
-0.14065731
0.61885405
0.029569981
-0.28147722
0.3771879
-0.38870588
0.011517982
0.29209889
-1.3893087
1.0972098
-0.4653478
-0.035305324
0.50065313
-0.13856689
-0.70176883
0.84033572
0.61860095
0.2911554
0.25363745
1.0994406
-1.3530781
-0.62194006
0.2857153
1.0297274
0.23146382
-1.2611912
0.029289536
1.1683967
0.58068182
0.46034491
1.3265146
-0.26280701
-1.0637075
-0.50342672
-0.12609463
-1.1673426
0.38156662
0.78577603
0.11476233
-0.58850283
0.4737405
-0.8203691
0.81676314
0.0036059625
-0.19211852
1.1556141
1.1640916
-1.7319673
0.56787571
0.62993625
0.31776613
-0.94770238
-0.45239716
-0.042071481
0.49446864
-0.13138637
-0.35875687
0.49014324
0.44059873
0.080946401
1.3723827
-0.47440035
1.0490342
0.36384172
-0.18778835
0.9054308
0.23212042
-1.1375512
0.46646587
-0.45428263
-0.82876441
0.39937963
1.5054524
-0.12502225
1.2687831
-1.1437609
0.11786054
-1.2353873
-1.4384682
0.81253654
0.62593164
1.4397626
-0.42037096
-0.75935866
-1.0828491
-0.21424791
-0.8438371
1.1048613
-0.57600385
-0.69040524
1.1854447
-0.96833248
-1.1222998
1.2321212
-0.10982144
-0.8425149
0.88255955
-0.3940588
-0.40019949
0.11370868
0.96807807
-0.031413498
-0.81279333
-0.57504113
-0.33928879
-0.18303485
1.2483848
-1.06535
-0.48299464
0.59775697
-0.89323689
0.928444
-0.03520711
0.0026923923
-1.1952589
1.1925665
0.92365842
-0.074690842
-0.84896757
0.50819486
-0.52269214
0.014497272
1.014285
-1.1500888
0.13580376
0.078207744
0.89820155
-0.97640929
0.72687686
-0.61219852
-0.11467834
-0.45292447
0.29876747
0.154157
0.17319559
-0.33845132
-0.0046779715
-0.93951802
-0.092567001
-0.90427035
-1.1648723
1.2462454
-1.243553
-0.57718424
-0.24672525
-0.36033759
0.15962315
0.20071443
0.72590146
-0.6171008
-0.10880065
0.21524207
-1.0605597
0.84531765
0.0021321396
0.37505576
-0.43277914
-0.032568663
0.65459646
-0.035995508
-0.67553765
-0.94719706
0.7740665
-0.20255963
0.31536438
-1.6359651
1.3206007
1.0639852
-0.5945516
-0.46943362
-0.12955021
-0.69852103
0.82807124
-0.64605778