/*--------------------------------*- C++ -*----------------------------------*\
| =========                 |                                                 |
| \\      /  F ield         | foam-extend: Open Source CFD                    |
|  \\    /   O peration     | Version:     4.1                                |
|   \\  /    A nd           | Web:         http://www.foam-extend.org         |
|    \\/     M anipulation  |                                                 |
\*---------------------------------------------------------------------------*/
FoamFile
{
    version     2.0;
    format      ascii;
    class       volScalarField;
    location    "0.1";
    object      static(p)_coeff;
}
// * * * * * * * * * * * * * * * * * * * * * * * * * * * * * * * * * * * * * //

dimensions      [0 0 0 0 0 0 0];

internalField   nonuniform List<scalar> 
4242
(
-222652.75
-222209.35
-221520.06
-220712.26
-219759.65
-218652.68
-217381.62
-215947.2
-214364.81
-212667.08
-210903.73
-209137.56
-207440.22
-205893.43
-204560.09
-203330.01
-227344.77
-226858.85
-226041.55
-225107.91
-224041.32
-222838.35
-221495.67
-220016.08
-218410.18
-216698.92
-214913.99
-213097.29
-211299.11
-209581.72
-208009.34
-206584.33
-232665.68
-232140.4
-231209.16
-230151.72
-228956.38
-227619.21
-226138.79
-224521.06
-222778.76
-220933.01
-219013.25
-217056.93
-215107.49
-213211.74
-211417.47
-209783.41
-236406.95
-235948.17
-235026.39
-233954.24
-232743.94
-231385.79
-229877.95
-228225.44
-226439.85
-224541.36
-222558.44
-220527.31
-218489.37
-216489.27
-214566.63
-212756.65
-237668.85
-237276.77
-236405.68
-235366.15
-234209.21
-232920.41
-231494.93
-229935.34
-228249.03
-226450.94
-224564.13
-222619.35
-220652.03
-218700.74
-216801.77
-214925.51
-234070.44
-233844.17
-233218.95
-232405.37
-231506.26
-230526.18
-229454.34
-228288.04
-227025.84
-225668.86
-224223.85
-222703.88
-221125.95
-219512.35
-217891.17
-216253.31
-227303.2
-227190.27
-226917.69
-226558.99
-226150.97
-225694.41
-225183.55
-224616.75
-223981.19
-223262.97
-222450.13
-221535.93
-220520.75
-219413.02
-218232.5
-216976.57
-224503.29
-224425.49
-224288.11
-224115.75
-223881.84
-223578.94
-223182.58
-222737.99
-222263.1
-221763.55
-221218.87
-220616.22
-219945.17
-219200.39
-218384.81
-217504.19
-224705.87
-224653.01
-224519.82
-224369.97
-224184.48
-223832.21
-223335.57
-222817.94
-222292.18
-221728.37
-221124.87
-220526.05
-219930.38
-219323.29
-218692.99
-218035.82
-224643.89
-224613.5
-224535.87
-224428.59
-224348.46
-224380.38
-224470.46
-224239.04
-223447.01
-222385.89
-221560.07
-220859.66
-220148.77
-219569.24
-219033.39
-218534.86
-223024.23
-223022.74
-223007.62
-222987.38
-222991.6
-223039.04
-223032.5
-222875.59
-222562.02
-222031.54
-221573.5
-220855.34
-220199.21
-219780.55
-219255.36
-218576.76
-221738.93
-221753.26
-221767.82
-221745.83
-221674.96
-221571.79
-221428.18
-221205.2
-220917.92
-220616.76
-220168.02
-219596.55
-219788.89
-220096.26
-219821.12
-218664.27
-199324.58
-199068.59
-198670.37
-198235.72
-197766.69
-197271.21
-196762.23
-196255.4
-195768.16
-195318.29
-194922.48
-194595.61
-194351.88
-194209.27
-194156.78
-194068.48
-191433.54
-191271.79
-191019.97
-190743.81
-190448.81
-190142.31
-189836.53
-189547.7
-189296.06
-189104.82
-188997.92
-188997.33
-189120.39
-189388.28
-189802.55
-190313.86
-183916.07
-183836.16
-183711.41
-183579.41
-183449.05
-183329.41
-183233.7
-183179.1
-183186.71
-183280.66
-183485.84
-183825.17
-184319.87
-184987.94
-185825
-186745.88
-177806.86
-177789.16
-177763.56
-177748.03
-177753.3
-177790.97
-177876.07
-178027.3
-178266.79
-178618.89
-179107.97
-179756.7
-180585.19
-181615.78
-182818.04
-184083.14
-173958.51
-173970.39
-173995.62
-174043.88
-174127.08
-174259.02
-174456.55
-174739.7
-175131.16
-175654.72
-176333.33
-177187.19
-178236.89
-179490.46
-180893.05
-182234.36
-226343.75
-225892.8
-225079.58
-224149.04
-223097.85
-221920.39
-220616.64
-219193.15
-217662.59
-216045.65
-214371.66
-212678.04
-211007.59
-209406.79
-207911.77
-206560.33
-173253.58
-173273.36
-173313.72
-173381.71
-173487.91
-173645.6
-173870.61
-174181.31
-174598.1
-175142.36
-175834.47
-176691.01
-177725.15
-178941.19
-180316.44
-181808.42
-173527.8
-173545.46
-173582.78
-173649.45
-173756.21
-173916.07
-174144.5
-174459.34
-174880.18
-175427.04
-176119.08
-176972.17
-177996.43
-179196.99
-180545.06
-181976.83
-175002.19
-175002.51
-175008.91
-175037.71
-175101.53
-175213.82
-175391.29
-175653.81
-176023.66
-176524.07
-177176.99
-178001.88
-179017.22
-180231.65
-181581.31
-182851.39
-179606.89
-179563.66
-179499.55
-179444.74
-179410.26
-179407.18
-179450.54
-179559.06
-179754.76
-180061.56
-180503.07
-181102.3
-181881.6
-182871.01
-184028.36
-185146.55
-186446.44
-186328.33
-186147.22
-185957.17
-185766.53
-185583.83
-185422.26
-185299.06
-185235.39
-185255.08
-185382.34
-185640.65
-186056.11
-186662.37
-187430.1
-188092.73
-194697.39
-194484.97
-194159.83
-193807.1
-193431.4
-193039.41
-192643.24
-192259.03
-191906.84
-191609.46
-191390.23
-191271.15
-191273.6
-191421.48
-191717.15
-192105.53
-203306.86
-202986.99
-202501.64
-201977.15
-201412.98
-200816.12
-200198.85
-199576.07
-198964.34
-198380.7
-197841.58
-197363.1
-196964.92
-196673.66
-196494.66
-196288.03
-223440.92
-223361.79
-223209.73
-223030.16
-222894
-222776.3
-222665.69
-222552.9
-222431.92
-222257.69
-221951.06
-221423.88
-220812.66
-221060.4
-220403.35
-218363.4
-224772.15
-224634.33
-224431.92
-224247.16
-224114.03
-224026.05
-223952.96
-223918.12
-223963.45
-224050.51
-223932.07
-223346.06
-222477.78
-221537.86
-220385.31
-218710.54
-224654.98
-224483.49
-224217.87
-223999.52
-223839.33
-223755.59
-223755.88
-223843.8
-223913.85
-223775.59
-223443.95
-222799.61
-221880.06
-220778.32
-219631.69
-218530.78
-220890.31
-220785.84
-220575.28
-220340.19
-220192.07
-220210.85
-220300.84
-220291.05
-220186.42
-219995.26
-219689.78
-219277.66
-218752.68
-218135.57
-217458.58
-216740.51
-216773.6
-216721.44
-216589.12
-216478.91
-216424.84
-216375.33
-216304.91
-216253.11
-216244.72
-216270.3
-216296.73
-216278.5
-216168.89
-215927.29
-215539.07
-214996.34
-218104.64
-218062.83
-217852.78
-217508.53
-217161.02
-216876.8
-216654.87
-216487.25
-216362.32
-216248.56
-216103.42
-215883.75
-215552.98
-215085.9
-214478.95
-213716.79
-224129.79
-223968.51
-223483.83
-222842.03
-222175.03
-221504.94
-220818.42
-220106
-219358.38
-218565.03
-217717.91
-216813.59
-215853.06
-214842.15
-213794.83
-212684.06
-229000.78
-228699.42
-227982.96
-227116.98
-226169.47
-225131.09
-223996.43
-222766.75
-221448.97
-220055.65
-218605.49
-217122.36
-215632.42
-214165.12
-212743.66
-211309.03
-229024.02
-228643.65
-227858.31
-226944.13
-225913.33
-224759.11
-223478.65
-222076.78
-220565.08
-218962.9
-217297.6
-215603.78
-213921.6
-212294.34
-210759.82
-209308.52
-221821.42
-221428.48
-220727.85
-219911.63
-218976.6
-217920.08
-216736.85
-215428.18
-214003.31
-212481.94
-210895.64
-209287.68
-207711.15
-206226.3
-204896.71
-203693.73
-218070.8
-217712.8
-217118.95
-216402.23
-215547.42
-214544.19
-213382.05
-212062.14
-210601.5
-209035.37
-207416.45
-205810.5
-204290.85
-202940.54
-201804.2
-200770.84
-221809.8
-221813.09
-221751.81
-221666.24
-221532.27
-221392.55
-221228.61
-221033.85
-220806.49
-220534.81
-220240.86
-219937.11
-219670.73
-219693.12
-219456.56
-218504.24
-221142.2
-221118.04
-221071.32
-220994.08
-220908.87
-220821.39
-220734.68
-220651.23
-220577.41
-220523.12
-220497.49
-220525.87
-220643.1
-220822.64
-220850.4
-220042.24
-219867.04
-219851
-219817.11
-219770.89
-219720.09
-219670.53
-219627.37
-219597.99
-219593.1
-219623.29
-219699.37
-219833.25
-220020.86
-220179.4
-220054.61
-219451.57
-218113.74
-218108.38
-218098.54
-218085.34
-218074.25
-218071.33
-218082.36
-218113.5
-218171.14
-218262.57
-218397.58
-218574.37
-218769.94
-218935.84
-218863.61
-218385.25
-216341.94
-216346.59
-216355.62
-216367.04
-216383.33
-216409.46
-216450.12
-216510.2
-216594.51
-216707.31
-216856.52
-217048.34
-217259.13
-217472.25
-217541.27
-217296.64
-215322.25
-215330.46
-215345.96
-215366.1
-215392.25
-215428.94
-215480.95
-215552.94
-215648.75
-215770.33
-215918.13
-216088.25
-216260.29
-216432.55
-216529.34
-216488.1
-215124.59
-215131.87
-215146.54
-215166.54
-215191.58
-215223.79
-215266.08
-215321.42
-215393.09
-215483.79
-215593.92
-215716.46
-215842.78
-215963.67
-215999.92
-216025.66
-215379.54
-215382.67
-215388.05
-215397.16
-215411.58
-215432.9
-215462.36
-215500.91
-215549.87
-215610.43
-215684.01
-215766.2
-215854.95
-215928.22
-215937.1
-215899.22
-215913.61
-215916.54
-215920.86
-215925.63
-215930.74
-215938.25
-215950.85
-215971.28
-216001.66
-216042.16
-216091.36
-216145.4
-216198.84
-216200.21
-216080.77
-215908.44
-217005.21
-216999.08
-216988.67
-216976.81
-216965.04
-216955.99
-216951.73
-216954.36
-216966.1
-216988.29
-217017.15
-217055.9
-217118.97
-217238.3
-217182.13
-216605.6
-218495.64
-218472.69
-218431.59
-218386.48
-218339.52
-218287.7
-218236.37
-218184.5
-218133.19
-218082.66
-218033.55
-217979.44
-217927.73
-217954.39
-218085.26
-217863.47
-220671.97
-220629.69
-220544.49
-220437.14
-220331.3
-220225.62
-220124.84
-220017.2
-219889.36
-219751.19
-219611.82
-219503.55
-219387.57
-218915.73
-218605.13
-218250.67
-212442.06
-211706.92
-211299.93
-210559.16
-209702.76
-208763.91
-207747.35
-206663.21
-205535.65
-204397.35
-203286.34
-202249.12
-201345.85
-200604.12
-199866.07
-208377.02
-207714.25
-207321.79
-206651.05
-205884.77
-205048.65
-204145.68
-203187.93
-202198.65
-201208.89
-200256.72
-199387.38
-198648.86
-198070.14
-197517.17
-222266.99
-221943.64
-221784.23
-221681.87
-221568.22
-221448.27
-221304.64
-221172.6
-220992.63
-220664.12
-220162.95
-220120.23
-220093.29
-219508.8
-218183.1
-222092.97
-221924.77
-221780.63
-221680.26
-221546.47
-221310.4
-221071.39
-220756.45
-220354.62
-219699.57
-219548.25
-219625.62
-219500.97
-219087.35
-217867.32
-213562.75
-209339.36
-222265.89
-222189.88
-214299.07
-206471.99
-193215.38
-206684.29
-216275.65
-205721.19
-198615.54
-200031.68
-199265
-199394.01
-197533.6
-203627.81
-197061.16
-209272.17
-199614.09
-214240.77
-201913.95
-216927.05
-217642.71
-204301.75
-216616.16
-196885.79
-199119.36
-199572.49
-197803.36
-208383.7
-207834.43
-205871.32
-207500.95
-207035.81
-208140.61
-197235.4
-205214.76
-208169.85
-197162.85
-207128.19
-202625.45
-197366.78
-201262.41
-203070.89
-214000.17
-202478.66
-200080.79
-204972.21
-199309.51
-193210.69
-207646.49
-198142.37
-200333.07
-199540.45
-217447.36
-188123.61
-195957.75
-198814.94
-212142.99
-209873.12
-200634.6
-200214.53
-198875.88
-208616.62
-208578.31
-200346.7
-199587.11
-201320.48
-215346.12
-202323.85
-204891.7
-209972.31
-203709.47
-207544.74
-206282.64
-213856.59
-209425.21
-203651.56
-203720.88
-199085.58
-213568.04
-208355.68
-204598.77
-201573.19
-213501.64
-217937.77
-206909.69
-207490.87
-202436.63
-206696.82
-198673.04
-202931.19
-214394.28
-203644.13
-210280.64
-206886.54
-192126.37
-201846.53
-198300.28
-196281.84
-202695.95
-192522.17
-217198.42
-197256.24
-203593.55
-207324.94
-207724.47
-202717.77
-207783.05
-209064.52
-205197.2
-203406.78
-202591.3
-204658.89
-212640.54
-196181.83
-203623.79
-214107.47
-204889.24
-204407.96
-195524.56
-202230.21
-204034.11
-195402.75
-195555.24
-198953.3
-215276.42
-205138.3
-218031.34
-217042.48
-201032.59
-218127.4
-215022.24
-196828.27
-201047.71
-215596.85
-204637.28
-202607.93
-205056.18
-203275.61
-193740.95
-202903.54
-217108.45
-207843.01
-197862.47
-207207.67
-216327.52
-214193.61
-202845.93
-202748.83
-210051.16
-214176.4
-206443.86
-200538.18
-199746.78
-207915.34
-206827.68
-195068.07
-205163.35
-198053.93
-217297.72
-200719.13
-204787.2
-202565.3
-216387.74
-214254.29
-198042.1
-195762.57
-201594.42
-204897.11
-206450.26
-199450.65
-207882.65
-203651.98
-211726.43
-192468.7
-210633.45
-204600.94
-207840.43
-197574.62
-201841.97
-203802
-207807.81
-213739.3
-200065.36
-207372.31
-206917.39
-204854.56
-210601.37
-199732.29
-197937.51
-212442.54
-213376.5
-210479.16
-203949.89
-206501.14
-206545.71
-214766.15
-201601.8
-199458.76
-204170.29
-204942.59
-200644.59
-192001.57
-200042.22
-210260.91
-214600.06
-200834.62
-196295.57
-199331.34
-197376.95
-204692.22
-194558.41
-203471.17
-207606.45
-209520.22
-200645.48
-199879.88
-203870.21
-202588.53
-203692.68
-198105.27
-197525.99
-215138.07
-204691.32
-204079.85
-200721.78
-203367.98
-200591.85
-214574.13
-195252.41
-203266.93
-204400.14
-216632.27
-214923.38
-194466.49
-204478.08
-200469.86
-206318.32
-204503.92
-207078.56
-198163.62
-208096.96
-203844.39
-207318.85
-202285.71
-210748.86
-204631.33
-194299.42
-201610.84
-208200.33
-198802.23
-202994.79
-202379.58
-199091.72
-192569.34
-203271.41
-202672.64
-217166.33
-202441.2
-196211.3
-209863.6
-203608.98
-207880.41
-206955.13
-202682.59
-204911.07
-205421.98
-202624.62
-210433.39
-206395.06
-207299.56
-202931.09
-201802.92
-200407.15
-201344.96
-200970.12
-197109.64
-211487.07
-207070.41
-194720.53
-196360.71
-208338.33
-202445.66
-214650.87
-209060.55
-204257.76
-207294.12
-215003.98
-216858.54
-207247.52
-201968.7
-211405.68
-208570.21
-199889.74
-213700.82
-205334.58
-202400.44
-195042.83
-199752.53
-204673.18
-197841.66
-208527.43
-205941.48
-212749.5
-204532.13
-205283.88
-193754.14
-192319.66
-201553.49
-207190.61
-201289.69
-207995.52
-198011.61
-215779.85
-207902.08
-206799.86
-205885.99
-201367.24
-206816.47
-211867.29
-204723.97
-190923.53
-210433.38
-201870.76
-197472.75
-202354.24
-203471.29
-203414.55
-200438.32
-204220.52
-202833.33
-206131.37
-203109.77
-188391.23
-215246.59
-199722.39
-198309.82
-208176.97
-206036.17
-200089.57
-202616.1
-204340.41
-205531.64
-205341.89
-204016.02
-206270.54
-194591.01
-203124.69
-202482.97
-202896.52
-212908.09
-203794.96
-202309.29
-202531.14
-217448.15
-216581.89
-199796.6
-212369.18
-207989.01
-206050.76
-212164.03
-218152.22
-198977.25
-211131.84
-197467.8
-203454.33
-218563.45
-194084.81
-197670.01
-212508
-212084.79
-202935.86
-196951.46
-206040.54
-205737.83
-191709.21
-199326.3
-199805.41
-211440.73
-214624.69
-203504.36
-203040.69
-212195.97
-204915.02
-196550.19
-197697.02
-216205.35
-201964.79
-202058.68
-214385.92
-202994.99
-199728.83
-209252.26
-204381.4
-209585.43
-206778.52
-205360.55
-211710.98
-208013.13
-211111.25
-213234.41
-189120.95
-206313.26
-202362.49
-214741.51
-203923.4
-207748.8
-198727.09
-214928.48
-207328.13
-206962.15
-198697.4
-207376.27
-200300.55
-198718.93
-203555.91
-208479.89
-200428.4
-199758.73
-200520.91
-203187.3
-208223.45
-202691.52
-211389.76
-210996.57
-208149.79
-199034.17
-196491.12
-193941.92
-208821.85
-204090.58
-197073.66
-207131.16
-200384.36
-199643.77
-204237.2
-205166.72
-216608.24
-199890.25
-205647.8
-205612.17
-203761.95
-203166.62
-212542.88
-214437.76
-202297.35
-206002.32
-206412.71
-206598.86
-205071.06
-202808.05
-208020.9
-198316.98
-206246.9
-214596.66
-204536.19
-203358
-203145.5
-211432.14
-198134.88
-202297.89
-203127.2
-199582.64
-200326.69
-196058.65
-206448.68
-202646.7
-200636.39
-198524.01
-199713.18
-197628.04
-196965.62
-210314.36
-217163.1
-206632.19
-195051.2
-209901.25
-207252.67
-205390.62
-204312.7
-204523.8
-187886.33
-208607.43
-207701.28
-214910.09
-209536.15
-202723.14
-206903.73
-207778.32
-208192.79
-197779.68
-199853.02
-210650.68
-215446.27
-202599.91
-206401.17
-207935.41
-205701.86
-214900.73
-201713.74
-212835.49
-203268.58
-208265.73
-212544.52
-201336.49
-192091.46
-200550.66
-199701.92
-206161.41
-215391.83
-208610.52
-202715.44
-213616.98
-202410.03
-205293.73
-207864.69
-208450.41
-215425.4
-213086.71
-207104.63
-198910.62
-198857.97
-199280.15
-204513.82
-200997.93
-213256.04
-205979.76
-208636.75
-207166.77
-214000.81
-212776.06
-214443.9
-196582.16
-200407.51
-213574.18
-196463.59
-204871.38
-216728.59
-196941.51
-199442.73
-200231.33
-198761.82
-198913.83
-216373.48
-206757.11
-205879.94
-205584.82
-203900.51
-215274.16
-198514.21
-199087.09
-211209.29
-203493.46
-202926.49
-208035.56
-203353.56
-196868.31
-202735.39
-202704.08
-203644.59
-214757.86
-194655.26
-217764.59
-204145.71
-199639.71
-218693.57
-205693.27
-204964.86
-215174.81
-212704.06
-212317.47
-198802.63
-199479.9
-201892.98
-204666.73
-213824.29
-196895.69
-194356.07
-195163.65
-198063.37
-212175.7
-198360.36
-197283.37
-194547.14
-198272.96
-192559.55
-204424.58
-199009.42
-196640.91
-202007.7
-207618.96
-212764.38
-198528.21
-196439.71
-197637.73
-211434.54
-199376.13
-207930.75
-187999.43
-197832.77
-203261.98
-188450.97
-196769.41
-210332.38
-205294.43
-214766.24
-187981.31
-205484.02
-213998.59
-197668.93
-208396.1
-193180.07
-197312.24
-197047.97
-205553.03
-202678.72
-214880.37
-196954.88
-186938.22
-199358.42
-207621.67
-198585.82
-208398.55
-216102.12
-204142.78
-208758.48
-187845.33
-213375.09
-203343.02
-203447.65
-193713.85
-193234.66
-214568.11
-207383.06
-204014.92
-197249.37
-216710.78
-206543.92
-206029.05
-206597.98
-200513.47
-199710.86
-210851.01
-213867.15
-202394.84
-215753.04
-208440.96
-212948.52
-198500.07
-204284.64
-207522.34
-203449.43
-190006.43
-202667
-199247.99
-203377.37
-206270.59
-199605.6
-211200.16
-188382.06
-207362.97
-202583.2
-198572.22
-204387.86
-206650.78
-204135.18
-210218.24
-203053.71
-202386.04
-213607.63
-205489.51
-194334.75
-217014.08
-200514.97
-198824.53
-200372.22
-194198.07
-204537.01
-194571.63
-214075.44
-186031.38
-214856.65
-202095.4
-204070.31
-189519.11
-216572.32
-202579.67
-205762.79
-198392.74
-201393.89
-216141.45
-199150.09
-198350.01
-216390.06
-208137.27
-205332.63
-214240.34
-203493.76
-211324.03
-215163.91
-202357.01
-203800.23
-205969.56
-202224.2
-197181.53
-204841.93
-213947.35
-199236.52
-203113.82
-202667.92
-201213.47
-208068.67
-206384
-214166.49
-201430.22
-215096.45
-209319.48
-192528.69
-210204.45
-209390.57
-207563.02
-207722.75
-199430.66
-196965.18
-202607.13
-209927.74
-203980.63
-195093.89
-198088.53
-210156.81
-199145.92
-202939.04
-202605.5
-215799.88
-214433.38
-199629.2
-214847.61
-214704.46
-204176.83
-213794.7
-198516.02
-201562.4
-207547.49
-206001.81
-207747.51
-211055.63
-204749.21
-216612.19
-204955.1
-207558.61
-203329.78
-202871.9
-205204.81
-211374.04
-200577.33
-201136.24
-216896.93
-204909.29
-203181.11
-217178.45
-207033.29
-193977.3
-205400.53
-200064.7
-206163.65
-199913.56
-210337.16
-212943.22
-213650.53
-214482.83
-204545.27
-201171.7
-200707.35
-201270.19
-208008.79
-201232.51
-207915.27
-197631.1
-208984.22
-204895.18
-197169.38
-197481.88
-204995.58
-194328.47
-207339.66
-183368.42
-214631.81
-209828.76
-207584.82
-203008.99
-213603.19
-196379.06
-208305.56
-203384.06
-206023.25
-204489.83
-213338.32
-210693.99
-203715.37
-204868.81
-203112.33
-194388.66
-203370.24
-197990.84
-196494.04
-196629.68
-197467.43
-198044.53
-198800.4
-202682.48
-215474.07
-212133.32
-208097.44
-202723.24
-200477.77
-194226.33
-208390.67
-208832.14
-213782.43
-196738.25
-207392.43
-196395.88
-199230.15
-201814.53
-190779.79
-201359.94
-202102.46
-211459.75
-202874.03
-202843.43
-206738.54
-202356.38
-187715.7
-199426.11
-202885.09
-197173.07
-200181.7
-200102.48
-203020.46
-205703.39
-195702.6
-203130.2
-201175.28
-210540.95
-196597.51
-204699.05
-199237.72
-202400.78
-203479.69
-205828.44
-214187.86
-197745.24
-215144.36
-210596.28
-202884.47
-211062.73
-212574.39
-198391.46
-211757.77
-201860.58
-188932.66
-206389.75
-187582.68
-217388.62
-203855.64
-200892.15
-207213.3
-199179.52
-204223.14
-195036.16
-211933.05
-197643.59
-207744.29
-208133.62
-214416.11
-208137.54
-199768.66
-203355.38
-207823.39
-196838.45
-203239.97
-214475.03
-212621.1
-201430.39
-197806.12
-197051.9
-211331.91
-200418.04
-201178.4
-205435.07
-200965.81
-183747.57
-209522.58
-204598.68
-208944.2
-190156.7
-198076.61
-215219.08
-203152.3
-203494.35
-202051.14
-204799.76
-207225.98
-209095.97
-199628.55
-204433.86
-198101.86
-214546.37
-209066.04
-206081.89
-208836.49
-212046.92
-213109.76
-202889.78
-198782.05
-202702.33
-200440.62
-202126.38
-196518.91
-197460.22
-194463.55
-196737.9
-211839.11
-207522.84
-214428.74
-208115.07
-203258.25
-210079.52
-210752.49
-202212.55
-203523.47
-203245.59
-196996.78
-212618.81
-202519.59
-209699.12
-202117.67
-215415.82
-201408.03
-202743.03
-206399.83
-212062.27
-208381.6
-203780.31
-203982.62
-200285.61
-197480.41
-200084.3
-185262.86
-210744.86
-203487.46
-200338.05
-209531.44
-210679.17
-210077.14
-212372.43
-210873.48
-202697.58
-194707.25
-191221.24
-214066.34
-203785.39
-196319.73
-214341.94
-207710.23
-213624.12
-205242.16
-215946.07
-198805.49
-200722.65
-199432.44
-203381.95
-213954.33
-207311.73
-197081.14
-192573.83
-202533.57
-197951.12
-192309.57
-200494.99
-215004.39
-206669.74
-195512.53
-211743.42
-207271.59
-204539.48
-203807.27
-200873.67
-216860.17
-186568.52
-202848.7
-216570.87
-205115.18
-202195.65
-190800.61
-209546.94
-216389.64
-205559.26
-203084.52
-202733.2
-213851.49
-199438.35
-206989.25
-207735.06
-211795.67
-215522
-198038
-193416.72
-206490.15
-215121.4
-196459.37
-198586.02
-201005.04
-206398.3
-212955.69
-205222.75
-207282.46
-200247.45
-209435.53
-202903.69
-199430.41
-195473.5
-198554.52
-209312.63
-202780.59
-200800.27
-213452.07
-205692.25
-191684.19
-216059.53
-202892.77
-196964.87
-209772.56
-196424.38
-207988.56
-201615.06
-198790.99
-190025.21
-215581.98
-213058.12
-205544.71
-204425.74
-202653.86
-212781.86
-204004.22
-197767.76
-214081.23
-204054.37
-198250.03
-209474
-212804.79
-213182.94
-212168.99
-206078.62
-212721.61
-199946.45
-207431.81
-194740.65
-211599.56
-205739.75
-215741.27
-202841.9
-216629.87
-202046.99
-217206.05
-198145.83
-203770.07
-199955.84
-200773.54
-211923.68
-210026.46
-213530.86
-203258.12
-202618.18
-211383.67
-211812.35
-203862.73
-206883.78
-206632.5
-211362.5
-206632.39
-189301.11
-208720.69
-194006.72
-201307.37
-205067.7
-194736.54
-208478.64
-207863.09
-214299.98
-205595.49
-186519.76
-199935.53
-209411.53
-207504.31
-199331.29
-211517.78
-215508.37
-199046.92
-192505.12
-206778.45
-212696.2
-204854.49
-195828.69
-203274.31
-203928.21
-208084.29
-207417.33
-202615.55
-199200.39
-205962.88
-203642.16
-200382.81
-204341.62
-213167.33
-183458.62
-201269.82
-214878.76
-214977.71
-213042.55
-199915.88
-213766.84
-188279.2
-206960.6
-213833.7
-215149.59
-207693.64
-215136.7
-209300.96
-206274.21
-202713.42
-213821.09
-206271.81
-202706.7
-209099.53
-198658.41
-213365.97
-212872.87
-185485.69
-212313.95
-197506.53
-207169.81
-196868.02
-198182.14
-207009.76
-193093.59
-215930.53
-214583.29
-196686.21
-206438.1
-204956.05
-198484.35
-209648.51
-207424.52
-211688.69
-208588.06
-209071.6
-207874.59
-206352.83
-202946.45
-211811.11
-204737.14
-205844.01
-213505.04
-207551.77
-204720.31
-207248.6
-202737.88
-205716.1
-217222.66
-201451.83
-203480.06
-199224.3
-214620.6
-196260.92
-203112.54
-217195.53
-196534.72
-204678.46
-211515.84
-206736.84
-211641.69
-212594.63
-198740.74
-207161.13
-213317.76
-202732.38
-194437.21
-211135.71
-199467.9
-203130.46
-202156.79
-210706.08
-215433.01
-202888.63
-217919.67
-203220.02
-205037.23
-208909.73
-197898.91
-213991.24
-204966.57
-197881
-207743.97
-211784.25
-206893.78
-203329.93
-207165.31
-204151.44
-204931.26
-211572.64
-184130.84
-205442.59
-191267.17
-210706.89
-190014.92
-212183.87
-214383.93
-209998.78
-199922.77
-199904.29
-193628.72
-209505.12
-202704.73
-195128.22
-198500.97
-204813.42
-216272.48
-205217.71
-194509.1
-199085.63
-202608.63
-213390.83
-206203.43
-207695.2
-201292.52
-198172.43
-215223.91
-215923.58
-199373.46
-217754.54
-198045.24
-214231.08
-207431.68
-208077.91
-198412.31
-203512.14
-189343.38
-199714.98
-209893.52
-203874.05
-195396.72
-193296.37
-218139.03
-203153.09
-212774.74
-215294.9
-185306.44
-208449.85
-200548.23
-197912.59
-207401.52
-202860.7
-211225.96
-218251.65
-196865.74
-202877.46
-207151.04
-212153.72
-198615.81
-203084.9
-212381.7
-207895.37
-204002.19
-205816.42
-204837.45
-215296.88
-209688.76
-203188.02
-202868.44
-199150.7
-201965.97
-196042.55
-214110.56
-213593.71
-216396.81
-202715.85
-197219.64
-201819.52
-207336.28
-214008.14
-202790.51
-215580.39
-213412.8
-214700
-211106.12
-203666.23
-197197.14
-197806.62
-205281.68
-213010.74
-202641.52
-210065.29
-215309.43
-195479.31
-218210.98
-197538.22
-195226.7
-203810.33
-191794.46
-186341.53
-199080.74
-206554.09
-204217.65
-215881.22
-203711.28
-194612.57
-199216.16
-203183.39
-213966.33
-192519.37
-193324.16
-203276.13
-202781.33
-210365.5
-208532.96
-192649.35
-200475.88
-199767.02
-208842.77
-213031.46
-213933.82
-193912.85
-218304.25
-205191.96
-201710.18
-200786.49
-191247.86
-202402.11
-203380.1
-204950.29
-197519.22
-207151.3
-202946.22
-210876.51
-204384.35
-209143.4
-207995.94
-212703.28
-212048.54
-207064.45
-217772.33
-202598.88
-203128.32
-198722.04
-215300.17
-203150.32
-202845.69
-208778.87
-206337.81
-204527.35
-199336.13
-212485.3
-200038.45
-199119.26
-208184.52
-209499.06
-208752.12
-202661.61
-203565.78
-202762.76
-207393.33
-202952.27
-198782.8
-212852.06
-203392.16
-214047.62
-195498.5
-200229.94
-192327.68
-208285.16
-205557.69
-217943.72
-196203.99
-217322.92
-196036.14
-203847.19
-212336.17
-213450.2
-201880.02
-206146.37
-217646.67
-207732.87
-199317.72
-205301.81
-197443.74
-203672.34
-207668.43
-203749
-204637.94
-194086.1
-202229.58
-204034.48
-203728.72
-198174.23
-205474.55
-207134.78
-203914.98
-204701.21
-210267.62
-189100.81
-209590.77
-203208.53
-208582.48
-196289.84
-210549.41
-205961.12
-214138.97
-197673.67
-216157.5
-205083.92
-203698.88
-196244.32
-205574.49
-198299.34
-205468.46
-210081.34
-206074.26
-197098.37
-215156.11
-188427.87
-216208.04
-211023.4
-212308.01
-208620.46
-205620.6
-188874.85
-197103.75
-216045.27
-212821.87
-207348.97
-204342.57
-195239.1
-202868.62
-196975.92
-193057.3
-203801.3
-206900.76
-194536.47
-217702.63
-199806.67
-207375.88
-199875.08
-215536.47
-211630.41
-202795.03
-200217.77
-201088.03
-213613.95
-210909.13
-202606.57
-209374.17
-212832.01
-213047.27
-203356.02
-206210.02
-216156.39
-207611.97
-203897.15
-212344.72
-204692.81
-205187.79
-200466.69
-211339.15
-212242.78
-213164.7
-185672.96
-196110.26
-200770.7
-199967.59
-213577.66
-202554.43
-205483.54
-209084.59
-207894.39
-199996.38
-199229.94
-217069.89
-212693.35
-208514.77
-198324.69
-208887.98
-216246.45
-188689.12
-191948.13
-200201.08
-184368.99
-215385.21
-205685.69
-203687.14
-217771.05
-185910.06
-198564.1
-209968.56
-208316.44
-200363.79
-203645.5
-207901.7
-196468.63
-187408.05
-211849.47
-211728.92
-209162.09
-216531.53
-201526
-198632.96
-216257.28
-212680.79
-212986.57
-196670.1
-207447.71
-210805.67
-213426.61
-200009.94
-206742.58
-206769.64
-209826.65
-198339.02
-198122.53
-217158.58
-199123.24
-215779.04
-206808.91
-211255.42
-207248.99
-202633.83
-196530.91
-197251.45
-210384.08
-198473.69
-185345.45
-214150.56
-202614.77
-197257.18
-204747.13
-197168.97
-189927.43
-209621.7
-212890.93
-204898
-213961.22
-210715.18
-198211.71
-202988.48
-203448.03
-198523.77
-211359.88
-213302.37
-191169.69
-218086.17
-208634.69
-201657.77
-215572.26
-205228.93
-204229.76
-200784.48
-211790.38
-196668.12
-213638.63
-195155.62
-208910.33
-206229.45
-194035.44
-216284.23
-218653.79
-198327.57
-212544.84
-218475.22
-212076.87
-213340.62
-210327.84
-193500.75
-213246.19
-210906.26
-206942.76
-203983.31
-213403.58
-201314.41
-209389.61
-215616.71
-203087.63
-208530.85
-203475.84
-205503.89
-212024.02
-207527.22
-194134.5
-203908.06
-195476.98
-199146.3
-201958.93
-196162.53
-212153.99
-218222.99
-214446.69
-202985.95
-213708.91
-207920.98
-203799.57
-212095.36
-206506.23
-201080.83
-200265.69
-195374.82
-202617.92
-209445.17
-198449.05
-208225.16
-206945.16
-211390.26
-207671.35
-191516.66
-201784.2
-214270.34
-202543.58
-205019.02
-203036.59
-206721.36
-185048.53
-202424.94
-216951.5
-212551.28
-189953.19
-207151.32
-207150.12
-200874.21
-198360.42
-193456.82
-205775.2
-202443.21
-210699.13
-196728.78
-198829.76
-198143.85
-212636.26
-202997.63
-196147.1
-212263.63
-209679.75
-204123.81
-203416.94
-202746.9
-201290.21
-189760.98
-212279.5
-204047.54
-215752.5
-201879.25
-216710.41
-202878.27
-216775.97
-216107.95
-213395.02
-210432.37
-214213.81
-211563.38
-200893.25
-218026.36
-186260.94
-206569.36
-208667.12
-202776.8
-212131.34
-203250.79
-202298.13
-211481.74
-196970.73
-202694.49
-211673.28
-197684.8
-204280.69
-197200
-213334.81
-198249.71
-209222.77
-203308.66
-196059.3
-218458.37
-197611.6
-215612.38
-205749.37
-197321.51
-202678.5
-202986.1
-198269.19
-204801.96
-198948.26
-211961.94
-212565.19
-212828.7
-205807.28
-214835.63
-202745.31
-207625.1
-199552.44
-210538.27
-208543.07
-198289.25
-206412.88
-208385.37
-194840.74
-203649.42
-202999.26
-187559.29
-193038.14
-201123.44
-205506.96
-206104.52
-202441.18
-216592.14
-196509.89
-210347.37
-203375.09
-202627.48
-205301.34
-201800.04
-195636.62
-198859.23
-212816.69
-197145.85
-207250.2
-203316.77
-202788.24
-204978.33
-216261.95
-203335.6
-207491.93
-209171.37
-197959.18
-186494.91
-202700.73
-202942.44
-212259.84
-217474.99
-203136.9
-213842.14
-202819.08
-205267.74
-210032.51
-209709.17
-216291.92
-208521.68
-212475.36
-201906.26
-206004.29
-217975.15
-192298.26
-202587.97
-196480.22
-198727.21
-195754.26
-195086.29
-199694.8
-206957.22
-196170.84
-205725.84
-201941.75
-215865.7
-195075.37
-198481.65
-214033.19
-200323.5
-218438.25
-196149.48
-212125.83
-202538.55
-208751.48
-198647.53
-212285.06
-203014.03
-197029.8
-197966.85
-197359.67
-212621.95
-204267.29
-198929.35
-198543.48
-206389.58
-202893.35
-206032.32
-207317.94
-209989.2
-202717.82
-210604.13
-199966.69
-205501.21
-198850.07
-206204.16
-190952.57
-197106.36
-206855.69
-215725.6
-198379.5
-192533.23
-213040.87
-206454.46
-208334.04
-210125.48
-204426.52
-211689.76
-199736.41
-216112.91
-215140.37
-202873.76
-208705.33
-204921.59
-205020.3
-191299.34
-214341.87
-203655.96
-218781.69
-212331.17
-205941.63
-202470.08
-210189.49
-190322.24
-197156.05
-204398.19
-205640.71
-212881.11
-203992.87
-208237
-202584.11
-202675.86
-202749.15
-208817.07
-212151.52
-199586.61
-209766.84
-197477.8
-197276.05
-201021.26
-200200.2
-202328.36
-208055.6
-215691.2