/*--------------------------------*- C++ -*----------------------------------*\
| =========                 |                                                 |
| \\      /  F ield         | foam-extend: Open Source CFD                    |
|  \\    /   O peration     | Version:     4.1                                |
|   \\  /    A nd           | Web:         http://www.foam-extend.org         |
|    \\/     M anipulation  |                                                 |
\*---------------------------------------------------------------------------*/
FoamFile
{
    version     2.0;
    format      ascii;
    class       volVectorField;
    location    "0.1";
    object      U;
}
// * * * * * * * * * * * * * * * * * * * * * * * * * * * * * * * * * * * * * //

dimensions      [0 1 -1 0 0 0 0];

internalField   nonuniform List<vector> 
4242
(
(163.57482 167.60962 3.5603987e-15)
(178.69414 147.05129 1.0581205e-17)
(173.73795 146.50606 -1.8462366e-15)
(174.0653 142.05765 1.4942883e-15)
(173.02565 138.38651 1.9537712e-17)
(172.12634 134.01021 8.6443395e-18)
(171.11898 129.12057 0)
(170.00189 123.70078 5.1166693e-16)
(168.77854 117.73931 -8.306562e-16)
(167.46027 111.24364 3.2721958e-16)
(166.07535 104.24713 -2.1442459e-16)
(164.66755 96.814526 1.8190919e-16)
(163.30497 89.038127 1.8572212e-17)
(162.14083 80.992383 -2.5806697e-17)
(161.43171 72.779937 -5.2575957e-17)
(161.05465 64.99492 0)
(188.85755 155.46429 0)
(206.53514 127.92937 -2.2221766e-17)
(199.97755 129.93817 2.1316934e-15)
(199.5768 125.85526 -1.7330527e-15)
(197.76573 122.79767 -3.0974262e-17)
(196.1 118.9915 1.0268422e-15)
(194.25741 114.7974 -4.9108905e-17)
(192.27207 110.1488 -1.2914281e-15)
(190.14803 105.03844 1.0362619e-16)
(187.89365 99.475144 4.0320296e-16)
(185.52836 93.487025 0)
(183.08281 87.127552 -3.1899652e-17)
(180.6062 80.475682 -3.4107302e-17)
(178.20662 73.597124 -1.9578292e-16)
(176.05285 66.548229 2.6988831e-16)
(173.99275 59.678523 3.5975364e-17)
(214.29994 142.33773 -6.3840127e-17)
(235.61105 104.94919 -6.936061e-15)
(227.07839 111.40766 2.7971277e-15)
(226.21944 107.28997 -1.9079969e-17)
(223.63012 104.99655 -1.6840219e-15)
(221.13981 101.87163 1.3776307e-15)
(218.35766 98.468812 -1.8948613e-17)
(215.34281 94.657362 2.981352e-17)
(212.09699 90.439054 -1.3531575e-17)
(208.63705 85.818084 -3.6216552e-17)
(204.99535 80.815992 3.7765278e-16)
(201.22034 75.477035 -2.8472093e-16)
(197.3783 69.87135 -4.5782708e-16)
(193.56034 64.081716 4.0596347e-16)
(189.8596 58.226663 -5.2008828e-17)
(186.33831 52.44177 -1.496246e-16)
(236.88884 124.11091 -1.1422605e-17)
(261.10299 74.908661 -8.8347692e-18)
(250.85867 87.110637 -1.6880252e-15)
(249.84932 82.302215 1.4227581e-15)
(246.60794 81.047719 -1.8378165e-17)
(243.44395 78.758296 8.7993473e-16)
(239.87121 76.351717 -6.703074e-16)
(235.96584 73.614141 -1.0790432e-15)
(231.72138 70.567253 6.4515305e-17)
(227.1588 67.207545 1.3848169e-15)
(222.31995 63.547738 -5.4395321e-16)
(217.27064 59.617612 0)
(212.10144 55.466011 3.3380439e-17)
(206.91571 51.166653 -2.5893158e-16)
(201.76099 46.890983 1.3199782e-16)
(196.63578 42.637978 -2.7332947e-16)
(251.69026 100.49206 1.1422605e-17)
(277.64561 38.439401 -2.3716943e-15)
(266.31542 57.457214 2.0161944e-15)
(265.35649 51.298943 -1.1766944e-17)
(261.70042 51.473972 2.9488405e-17)
(258.16542 50.094446 -8.4361366e-18)
(254.13952 48.851081 -8.5365016e-16)
(249.71756 47.382052 1.9334564e-17)
(244.88336 45.745127 5.1286885e-16)
(239.65755 43.924831 -3.9594113e-16)
(234.08354 41.923187 3.3371482e-16)
(228.23288 39.750548 0)
(222.2064 37.425621 1.9934713e-16)
(216.12211 34.972578 -1.4774631e-16)
(210.04905 32.463064 4.6984287e-17)
(204.04289 29.578128 0)
(257.19334 72.513275 -1.6484241e-15)
(282.95098 -0.43246342 6.5174067e-16)
(272.11513 24.415523 1.047366e-15)
(270.99509 17.218268 -8.508721e-16)
(267.29498 18.897956 1.8580871e-18)
(263.68082 18.47709 2.9417622e-16)
(259.5647 18.471416 2.3335894e-16)
(255.03432 18.362235 -1.0225427e-17)
(250.07105 18.241995 -9.4751047e-18)
(244.69245 18.084252 -3.3408618e-16)
(238.93895 17.880883 3.5213584e-16)
(232.87959 17.621829 -1.3353214e-17)
(226.61325 17.297499 -3.6408977e-17)
(220.25984 16.888828 -8.2909916e-17)
(213.89073 16.483252 -5.6522275e-20)
(207.63729 15.497145 3.889856e-17)
(252.63115 42.76102 -8.4575058e-16)
(276.74871 -37.849359 -5.9625684e-16)
(268.15605 -9.6730177 1.5454837e-15)
(266.55983 -16.662531 -8.2547906e-16)
(263.2106 -13.924122 3.4915025e-16)
(259.77507 -13.283489 3.2576984e-20)
(255.90771 -12.090847 4.3165104e-16)
(251.648 -10.848442 -1.9572767e-16)
(246.98546 -9.4719911 -2.522414e-17)
(241.9345 -7.9882933 9.4409525e-17)
(236.53157 -6.4153463 -1.5261669e-16)
(230.83897 -4.7822396 1.2153948e-16)
(224.94614 -3.1248381 -3.4350501e-17)
(218.96163 -1.5089112 -1.467347e-16)
(212.94928 0.16988651 5.821617e-17)
(207.01417 1.0426612 7.5419389e-17)
(237.54858 14.056193 -1.9823707e-17)
(259.50817 -70.530665 2.3431855e-15)
(254.6018 -42.153119 -1.9542892e-15)
(252.54212 -47.61224 1.5046096e-15)
(249.80485 -44.373891 -1.2648948e-15)
(246.82805 -42.638029 0)
(243.52858 -40.357576 7.7674481e-16)
(239.90295 -37.865704 -6.3023672e-16)
(235.94889 -35.113923 -1.3311711e-17)
(231.6789 -32.125497 0)
(227.12389 -28.92926 -5.4477798e-17)
(222.33528 -25.572866 2.7222482e-17)
(217.38674 -22.11695 -1.8542129e-16)
(212.365 -18.673872 3.5791841e-16)
(207.33513 -15.14023 -2.5634873e-16)
(202.34636 -12.386765 -7.0516609e-17)
(211.84918 -10.484046 1.4020708e-17)
(232.16686 -95.230152 -8.9258144e-18)
(232.02674 -70.18222 0)
(230.02553 -73.102427 3.0923261e-17)
(228.04962 -69.811202 1.5585084e-17)
(225.83086 -67.098781 8.7178776e-16)
(223.40393 -63.911473 -7.4481549e-16)
(220.75796 -60.385699 0)
(217.89544 -56.501619 3.7899964e-18)
(214.82643 -52.280756 -3.8093258e-17)
(211.57277 -47.761125 3.4109351e-17)
(208.16933 -43.004218 1.9273796e-17)
(204.66719 -38.086226 3.986753e-17)
(201.1223 -33.143568 2.4517508e-16)
(197.59877 -28.101784 -2.9614716e-16)
(194.08653 -23.709192 1.6665365e-16)
(175.35567 -27.172627 0)
(195.53913 -108.13782 3.7398723e-15)
(201.02487 -90.528163 -5.8328504e-15)
(200.37885 -90.688538 2.295059e-15)
(199.41691 -87.590882 -1.5449727e-17)
(198.27407 -84.222699 -4.3896009e-17)
(197.01748 -80.409313 1.116744e-15)
(195.66438 -76.196599 -9.1161796e-16)
(194.22839 -71.572849 -6.1212621e-16)
(192.71724 -66.558021 5.712707e-16)
(191.13915 -61.195373 0)
(189.50441 -55.553019 -3.5429117e-16)
(187.82915 -49.712339 2.0620087e-16)
(186.12126 -43.804625 0)
(184.40794 -37.778126 0)
(182.63499 -32.050865 0)
(130.25769 -33.02189 1.1802825e-14)
(153.47651 -108.56982 -3.1997466e-15)
(164.61605 -100.55755 0)
(167.21531 -99.235105 -1.1356964e-17)
(168.02857 -96.52124 -1.2855595e-15)
(168.34927 -92.985517 1.1014926e-15)
(168.46479 -88.906851 7.8698009e-16)
(168.5033 -84.396316 -1.8148732e-17)
(168.54125 -79.464694 -5.7000115e-16)
(168.61234 -74.136445 2.9311976e-17)
(168.72466 -68.463293 0)
(168.86856 -62.523346 -4.6729785e-16)
(169.02121 -56.409927 9.0629124e-17)
(169.13121 -50.257919 3.0048237e-16)
(169.13892 -44.102685 0)
(169.45675 -37.206711 3.3361742e-17)
(39.380467 9.5100598 5.1714226e-17)
(73.108149 -59.987587 4.8362889e-15)
(99.190034 -75.506707 -1.6494434e-15)
(112.827 -81.584088 -1.1963381e-15)
(119.89404 -83.381521 9.5455518e-16)
(124.46074 -82.749695 -7.5426803e-16)
(128.10304 -80.676984 6.2672464e-16)
(131.40667 -77.718343 4.4624355e-16)
(134.64355 -74.132524 -4.0405001e-16)
(137.92896 -70.048766 0)
(141.27239 -65.556402 0)
(144.61363 -60.739459 0)
(147.85323 -55.681457 2.6249169e-17)
(150.86702 -50.487175 0)
(153.46862 -45.347126 1.6009376e-16)
(156.19468 -39.246655 -2.9444792e-16)
(104.29567 -148.52851 1.1321557e-15)
(130.0164 -143.20817 8.7486473e-19)
(132.60495 -149.64052 -5.6248146e-16)
(132.55849 -145.71942 4.4047308e-16)
(132.47308 -141.93977 5.1389183e-19)
(132.41627 -137.56594 9.2500022e-18)
(132.42169 -132.60223 0)
(132.51804 -127.01333 8.3991197e-17)
(132.72688 -120.77226 -1.0172976e-16)
(133.07438 -113.88757 4.1013596e-17)
(133.58216 -106.4051 -7.0530741e-18)
(134.26248 -98.408515 5.9332955e-18)
(135.13684 -90.006297 -2.2357127e-17)
(136.26001 -81.306483 1.0106195e-17)
(137.56731 -72.512207 1.1067218e-17)
(138.51434 -64.340854 0)
(82.556041 -142.23811 0)
(93.885878 -133.19885 2.7258649e-18)
(93.132094 -131.51168 -3.2742766e-16)
(94.176975 -128.55681 2.5687642e-16)
(95.378704 -125.28999 3.2955001e-18)
(96.846604 -121.5822 -2.1849836e-16)
(98.591015 -117.3889 -1.5844434e-17)
(100.62323 -112.67486 3.2849354e-16)
(102.95001 -107.41729 -7.8115447e-18)
(105.56995 -101.61031 -1.2418623e-16)
(108.46915 -95.271129 0)
(111.61928 -88.444808 1.7665228e-17)
(114.98784 -81.19975 1.0590365e-17)
(118.55249 -73.613165 1.2444819e-16)
(122.24536 -65.792343 -1.6589154e-16)
(125.7598 -58.030048 -2.9474845e-17)
(54.319349 -122.51536 -1.5055177e-17)
(61.654592 -116.82532 3.2724685e-15)
(62.302256 -114.573 -1.2504998e-15)
(63.905011 -111.83734 9.9048141e-18)
(65.844899 -108.81396 7.9370318e-16)
(68.152167 -105.43086 -6.2509396e-16)
(70.851287 -101.6397 1.0223875e-17)
(73.964148 -97.404701 -1.6640232e-17)
(77.505702 -92.703392 2.3500485e-18)
(81.478352 -87.530597 2.212562e-17)
(85.865878 -81.903553 -2.3760873e-16)
(90.632846 -75.86464 1.7903353e-16)
(95.740162 -69.476979 3.3216838e-16)
(101.16092 -62.819938 -2.9486278e-16)
(106.80105 -56.023176 3.9004379e-17)
(112.24757 -49.360644 1.3522094e-16)
(30.449452 -95.147098 9.376003e-18)
(34.561615 -91.319806 6.7290908e-18)
(36.090293 -89.022354 1.1454449e-15)
(38.203795 -86.643766 -8.9229556e-16)
(40.788723 -84.089939 1.1840983e-17)
(43.856849 -81.29598 -5.5159551e-16)
(47.436149 -78.218383 4.0456121e-16)
(51.552003 -74.827678 6.9292628e-16)
(56.21917 -71.106675 -1.2580546e-17)
(61.433558 -67.051904 -9.1972639e-16)
(67.164561 -62.676354 3.65588e-16)
(73.356537 -58.009796 0)
(79.948043 -53.094767 -2.4805878e-17)
(86.877137 -47.988336 2.1195472e-16)
(93.965723 -42.794711 -1.0704008e-16)
(100.67246 -37.704467 2.5092336e-16)
(13.838725 -63.960123 -1.1900059e-17)
(15.769777 -60.182358 2.2988025e-15)
(17.775071 -57.688188 -1.6599108e-15)
(20.286287 -55.505276 8.7706911e-18)
(23.343578 -53.389053 -2.1003401e-17)
(26.96943 -51.238453 5.8762211e-18)
(31.198003 -48.999805 6.0377605e-16)
(36.06131 -46.642137 6.2427179e-18)
(41.578657 -44.1483 -3.4977142e-16)
(47.746983 -41.510711 2.8837432e-16)
(54.533823 -38.730848 -2.3678606e-16)
(61.883056 -35.816759 0)
(69.737533 -32.776907 -1.5855162e-16)
(78.023885 -29.617107 1.16348e-16)
(86.449978 -26.37307 -3.9999353e-17)
(94.154937 -23.197683 0)
(214.33371 -142.31422 0)
(235.62046 -104.95908 3.4390757e-15)
(227.11899 -111.40526 -5.5205334e-15)
(226.27505 -107.30564 2.241357e-15)
(223.71658 -105.02159 1.5147126e-17)
(221.25623 -101.91094 4.8071972e-18)
(218.50184 -98.520178 1.0336151e-15)
(215.5055 -94.717148 -8.7667972e-16)
(212.26129 -90.500026 -6.2701748e-16)
(208.77825 -85.869884 4.720275e-16)
(205.08428 -80.845934 0)
(201.23164 -75.473807 -2.431877e-16)
(197.30418 -69.832196 1.9147661e-16)
(193.42824 -64.014351 0)
(189.74672 -58.12339 0)
(186.32519 -52.289934 0)
(5.373866 -37.934866 2.5016407e-15)
(6.6359097 -32.637371 -7.3121719e-16)
(9.2856968 -29.45432 -9.8457917e-16)
(12.461618 -27.007549 7.1272872e-16)
(16.128526 -24.924658 6.7056916e-18)
(20.306262 -23.052201 -2.1503855e-16)
(25.023114 -21.311666 -1.7248475e-16)
(30.304016 -19.656635 2.008909e-18)
(36.163808 -18.06343 2.2037074e-18)
(42.600351 -16.506856 2.4740326e-16)
(49.587966 -14.965615 -2.6464708e-16)
(57.074376 -13.421163 4.6841134e-18)
(64.982138 -11.854924 2.4998103e-17)
(73.205604 -10.241377 6.7124277e-17)
(81.578949 -8.5486641 4.8879086e-20)
(89.806602 -6.8041623 -3.6754328e-17)
(5.4471528 37.809605 1.2337853e-15)
(6.7273662 32.429221 7.2189021e-16)
(9.4151795 29.285541 -1.4634032e-15)
(12.637625 26.901576 7.0583282e-16)
(16.353785 24.887745 -2.7506169e-16)
(20.581116 23.084142 -2.5122998e-20)
(25.345365 21.408271 -3.3187966e-16)
(30.668308 19.810449 1.3964658e-16)
(36.561177 18.264066 1.4785696e-17)
(43.017949 16.741736 -7.8807689e-17)
(50.009771 15.22109 1.176743e-16)
(57.483057 13.684159 -1.022056e-16)
(65.360546 12.114904 2.4873856e-17)
(73.53186 10.493491 1.2942578e-16)
(81.809586 8.802999 -5.2184672e-17)
(89.860585 7.1058896 -7.4387966e-17)
(13.924059 64.272859 1.855129e-17)
(15.860451 60.536788 -2.3055838e-15)
(17.89516 58.077476 1.6517106e-15)
(20.437191 55.91455 -1.2207481e-15)
(23.523691 53.804818 9.5171859e-16)
(27.175902 51.648356 0)
(31.426394 49.39228 -5.8181552e-16)
(36.305277 47.00615 4.5457119e-16)
(41.829568 44.47314 9.2864289e-18)
(47.99344 41.785739 0)
(54.761597 38.945112 4.1419834e-17)
(62.076154 35.958371 -2.1174145e-17)
(69.878633 32.831301 1.5474555e-16)
(78.086023 29.561517 -3.0627772e-16)
(86.376774 26.163358 2.1979516e-16)
(93.881743 22.773667 6.4463581e-17)
(30.56407 95.628749 -9.3375051e-18)
(34.701531 91.827771 6.7059827e-18)
(36.237313 89.547144 0)
(38.347027 87.169236 -1.8736258e-17)
(40.919895 84.60205 -8.7315948e-18)
(43.967531 81.782366 -5.4940013e-16)
(47.516966 78.667756 4.5512467e-16)
(51.592269 75.229554 0)
(56.206473 71.451327 -4.4401692e-18)
(61.352752 67.330608 2.3791544e-17)
(66.996385 62.88196 -2.4595373e-17)
(73.08078 58.136273 -1.1436744e-17)
(79.561249 53.13085 -3.1015248e-17)
(86.41382 47.900999 -1.9680385e-16)
(93.431799 42.52895 2.3987706e-16)
(99.783335 37.300172 -1.4013702e-16)
(54.396454 122.89132 0)
(61.794355 117.19318 -1.6396047e-15)
(62.427603 114.94974 2.4987139e-15)
(64.007567 112.2065 -9.664768e-16)
(65.913546 109.16317 7.8331973e-18)
(68.17544 105.74888 1.9318528e-17)
(70.817194 101.91595 -5.3507035e-16)
(73.860359 97.629226 4.2766775e-16)
(77.320176 92.867328 3.2459052e-16)
(81.199615 87.627552 -3.0083061e-16)
(85.482657 81.932438 0)
(90.140356 75.830977 2.2170702e-16)
(95.172935 69.383818 -1.3018579e-16)
(100.6431 62.655592 0)
(106.44856 55.834759 0)
(111.65074 49.54209 0)
(82.568404 142.44741 -8.6723653e-16)
(93.986618 133.37075 3.405069e-16)
(93.206104 131.69127 0)
(94.228686 128.72116 -6.1137916e-19)
(95.396851 125.42915 2.4558099e-16)
(96.821534 121.68661 -2.0332712e-16)
(98.514175 117.44993 -1.9125115e-16)
(100.48831 112.6853 -1.4005796e-17)
(102.75512 107.37241 1.5473812e-16)
(105.32061 101.50993 -1.2641259e-17)
(108.18215 95.122836 0)
(111.33169 88.265786 1.9457735e-16)
(114.77701 81.014153 -2.805417e-17)
(118.54513 73.464155 -1.3672931e-16)
(122.55247 65.807341 0)
(126.47677 58.37218 -1.3769423e-17)
(104.14702 148.53914 4.2145311e-17)
(130.04713 143.22298 1.6550629e-15)
(132.63476 149.721 -6.0992004e-16)
(132.56918 145.77617 -4.004845e-16)
(132.45799 141.97536 3.1869689e-16)
(132.36881 137.57347 -1.962518e-16)
(132.33717 132.57683 1.4547987e-16)
(132.39522 126.9531 8.5310982e-17)
(132.57017 120.67957 -8.4080949e-17)
(132.89661 113.77097 0)
(133.40759 106.2823 0)
(134.13 98.308347 0)
(135.1028 89.968296 1.1164015e-17)
(136.3898 81.381888 0)
(137.89294 72.754529 -3.1744319e-17)
(138.91938 64.718916 7.4206971e-17)
(39.56268 -9.3711066 5.5894089e-15)
(73.31447 60.179907 1.1413183e-17)
(99.405006 75.718959 -1.622728e-15)
(113.03643 81.813323 1.2512427e-15)
(120.09506 83.626025 1.8024545e-17)
(124.65577 83.011175 6.3657003e-18)
(128.29147 80.95645 0)
(131.58433 78.014326 4.6750469e-16)
(134.80188 74.439324 -7.7588125e-16)
(138.05392 70.355782 3.1136141e-16)
(141.34421 65.848248 -2.2802262e-16)
(144.6078 60.997709 1.9343573e-16)
(147.74442 55.886923 1.6040869e-17)
(150.62661 50.639541 -3.264143e-17)
(153.13003 45.35814 -8.3172285e-17)
(156.1411 38.428942 0)
(130.36941 33.076313 0)
(153.54221 108.59164 -2.4764568e-17)
(164.69161 100.61538 2.2287123e-15)
(167.30145 99.30665 -1.7350918e-15)
(168.12655 96.612472 -2.9900119e-17)
(168.46077 93.097555 1.0293307e-15)
(168.58944 89.039749 -3.9446165e-17)
(168.63683 84.54739 -1.3158601e-15)
(168.67407 79.627786 9.7238893e-17)
(168.72883 74.301241 4.2091781e-16)
(168.80389 68.615413 0)
(168.88778 62.645439 -3.5265623e-17)
(168.96421 56.481065 -3.9937993e-17)
(168.99428 50.261898 -2.3979008e-16)
(168.97415 43.940528 3.3422286e-16)
(168.91693 37.59895 4.5158109e-17)
(175.43963 27.206464 -9.4929575e-17)
(195.58762 108.14086 -7.561494e-15)
(201.08898 90.564635 2.9580114e-15)
(200.4575 90.727901 -1.9607627e-17)
(199.51405 87.646477 -1.7576388e-15)
(198.39219 84.293497 1.4309739e-15)
(197.15565 80.49553 -1.9348634e-17)
(195.81694 76.295731 3.050075e-17)
(194.38375 71.679892 -1.4284781e-17)
(192.85748 66.665243 -3.7357015e-17)
(191.24166 61.293213 4.0547399e-16)
(189.54697 55.632061 -3.0492888e-16)
(187.79953 49.765063 -5.0534629e-16)
(186.02329 43.84077 4.4799459e-16)
(184.28585 37.759657 -6.1727393e-17)
(182.43074 32.391181 -1.8251726e-16)
(211.91284 10.509044 -1.4040036e-17)
(232.19953 95.220652 -8.9377033e-18)
(232.08107 70.207151 -1.7150503e-15)
(230.095 73.123666 1.4237039e-15)
(228.1415 69.847065 -1.8023305e-17)
(225.94725 67.145301 8.7291612e-16)
(223.54309 63.9696 -6.6101759e-16)
(220.91274 60.4532 -1.0680433e-15)
(218.05218 56.574807 5.8792893e-17)
(214.96498 52.354229 1.3727617e-15)
(211.66899 47.82879 -5.3963905e-16)
(208.2017 43.060779 0)
(204.62746 38.128937 3.4737095e-17)
(201.0228 33.183103 -2.6816126e-16)
(197.48495 28.087418 1.3717217e-16)
(193.97735 23.909702 -2.9104653e-16)
(237.60085 -14.033138 1.2880863e-17)
(259.53166 70.517444 -2.3283727e-15)
(254.65099 42.172393 1.9563073e-15)
(252.60609 47.623996 -1.1402695e-17)
(249.89428 44.398282 2.8161068e-17)
(246.9437 42.668833 -7.8998116e-18)
(243.66789 40.396715 -8.0252439e-16)
(240.05721 37.911406 1.6462281e-17)
(236.10247 35.164183 4.78538e-16)
(231.80953 32.177441 -3.7109685e-16)
(227.20609 28.980107 3.123518e-16)
(222.34824 25.620936 0)
(217.32579 22.16409 1.8900701e-16)
(212.24962 18.730089 -1.4061406e-16)
(207.2092 15.159807 4.6558829e-17)
(202.25867 12.625443 0)
(252.67599 -42.737735 -1.7062859e-15)
(276.76595 37.835481 6.447559e-16)
(268.20206 9.6885545 1.0270917e-15)
(266.62034 16.667687 -8.261217e-16)
(263.29895 13.938888 1.5710897e-18)
(259.89051 13.300395 2.8167854e-16)
(256.04716 12.112635 2.2247129e-16)
(251.80145 10.874085 -9.5687481e-18)
(247.1357 9.5013568 -8.83236e-18)
(242.05766 8.0210445 -3.1516914e-16)
(236.60127 6.4515413 3.3158806e-16)
(230.83519 4.8227138 -1.2344491e-17)
(224.86747 3.172667 -3.4385494e-17)
(218.8327 1.5644862 -7.7985738e-17)
(212.81217 -0.14672887 -5.235621e-20)
(206.93196 -0.82451826 3.6795788e-17)
(257.23512 -72.489299 -8.1854775e-16)
(282.96614 0.41985548 -6.0380748e-16)
(272.16091 -24.403271 1.578495e-15)
(271.05543 -17.218341 -8.5141879e-16)
(267.38481 -18.892649 3.6279166e-16)
(263.79831 -18.473803 3.4250286e-20)
(259.70651 -18.467074 4.532603e-16)
(255.1896 -18.356762 -2.0660007e-16)
(250.22162 -18.233559 -2.668276e-17)
(244.81348 -18.070588 9.9972154e-17)
(239.0036 -17.859142 -1.6260956e-16)
(232.8685 -17.588909 1.2927894e-16)
(226.52732 -17.251258 -3.6436222e-17)
(220.12634 -16.838624 -1.5628895e-16)
(213.75456 -16.448975 6.2002647e-17)
(207.56891 -15.300422 7.9124169e-17)
(251.72904 -100.46729 -1.7723492e-17)
(277.65929 -38.449178 2.391057e-15)
(266.35997 -57.448371 -2.0176226e-15)
(265.41647 -51.303339 1.5735974e-15)
(261.79072 -51.478329 -1.335045e-15)
(258.28408 -50.104768 0)
(254.28307 -48.86455 8.2704043e-16)
(249.87488 -47.397199 -6.7453746e-16)
(245.03595 -45.758226 -1.3625357e-17)
(239.78023 -43.931013 0)
(234.14931 -41.916761 -5.7766721e-17)
(228.22272 -39.726465 2.8427169e-17)
(222.12168 -37.38413 -1.9456283e-16)
(215.99079 -34.9278 3.7658023e-16)
(209.92383 -32.412249 -2.6644044e-16)
(203.9844 -29.426799 -7.2305914e-17)
(236.93476 -124.09145 1.1431172e-17)
(261.12336 -74.918882 -8.8413105e-18)
(250.90831 -87.106471 0)
(249.91373 -82.313126 -7.8588341e-18)
(246.70232 -81.063218 -1.5465591e-17)
(243.56681 -78.783646 8.3111614e-16)
(240.01945 -76.384353 -7.1732541e-16)
(236.12888 -73.651334 0)
(231.88113 -70.603446 5.3276679e-17)
(227.2902 -67.235166 3.7728579e-17)
(222.39545 -63.557916 3.5013572e-17)
(217.26963 -59.603021 -7.1156656e-17)
(212.02282 -55.427551 4.0475577e-17)
(206.78794 -51.117369 2.3999086e-16)
(201.64742 -46.822357 -2.8534019e-16)
(196.59603 -42.503854 1.6070934e-16)
(188.89192 -155.4491 7.4920331e-15)
(206.5391 -127.94535 -2.8454167e-15)
(200.01029 -129.94106 0)
(199.62131 -125.87681 -1.2224422e-17)
(197.83971 -122.83117 -1.2912705e-15)
(196.20436 -119.0422 1.1143959e-15)
(194.39196 -114.86428 7.7884362e-16)
(192.4302 -110.2286 -2.6349535e-17)
(190.31544 -105.12367 -5.5666672e-16)
(188.04685 -99.554162 2.7551568e-17)
(185.63591 -93.544281 0)
(183.11159 -87.146559 -4.146826e-16)
(180.53691 -80.444493 9.2599243e-17)
(178.06093 -73.509425 2.5690368e-16)
(175.91492 -66.387857 0)
(173.93549 -59.448101 2.3058636e-17)
(163.58027 -167.54892 3.6793954e-17)
(178.65563 -147.0416 4.9785481e-15)
(173.73391 -146.48059 -1.9104644e-15)
(174.0727 -142.05281 -1.4193522e-15)
(173.06402 -138.39644 1.1498056e-15)
(172.19858 -134.0406 -8.7833936e-16)
(171.2273 -129.17248 7.2633486e-16)
(170.14298 -123.7732 4.9253081e-16)
(168.94167 -117.82669 -4.4420828e-16)
(167.62439 -111.33574 0)
(166.20792 -104.3278 0)
(164.72766 -96.862554 0)
(163.2574 -89.031723 1.7306651e-17)
(161.98626 -80.919926 0)
(161.23583 -72.65651 1.0461011e-16)
(160.93455 -64.800091 -1.7798039e-16)
(-39.445109 61.367882 1.0827603e-15)
(20.223901 -13.853259 2.0104494e-18)
(47.311694 -35.968571 -2.1102626e-16)
(66.289317 -47.66267 1.3968732e-16)
(80.608857 -53.696694 1.9105272e-18)
(91.67789 -56.262668 5.0268667e-18)
(100.43126 -56.755089 0)
(107.57948 -56.036844 7.2401296e-17)
(113.61762 -54.625544 -1.2544505e-16)
(118.8703 -52.832599 6.0584533e-17)
(123.55418 -50.83146 -6.5440697e-17)
(127.80647 -48.688632 5.6934871e-17)
(131.70316 -46.387684 -8.6892773e-18)
(135.30562 -43.847898 -1.1011101e-17)
(138.54914 -41.097763 -4.6797983e-17)
(142.04646 -37.687147 0)
(-18.367292 44.973407 0)
(-23.714151 36.69321 -7.0023781e-18)
(-3.5925335 15.850265 5.1601373e-16)
(17.732563 -4.5678858 -3.2430413e-16)
(38.895173 -22.981021 -4.5546948e-18)
(56.519156 -35.071625 1.4686961e-16)
(71.414758 -42.413386 1.4354715e-18)
(84.017265 -46.57858 -1.7478523e-16)
(94.521697 -48.622069 5.8124409e-18)
(103.20452 -49.212615 6.2322384e-17)
(110.37282 -48.803181 0)
(116.25125 -47.67895 -5.4430149e-18)
(121.02922 -45.988504 -1.1699975e-17)
(124.95638 -43.767004 -5.8148826e-17)
(128.27052 -41.051748 8.6539855e-17)
(131.69109 -37.564452 7.9994985e-18)
(-16.768417 51.970378 -1.0489599e-17)
(-23.225682 43.585888 -2.448494e-15)
(-19.87239 41.29125 1.0508199e-15)
(-17.281765 39.892894 -6.3156673e-18)
(-14.625968 38.928824 -5.355279e-16)
(-1.5490804 25.272002 3.3491332e-16)
(15.381409 7.7865762 -3.6451733e-18)
(34.136495 -9.7485019 5.0692615e-18)
(51.921154 -23.311925 -3.0072263e-18)
(67.624925 -32.382193 -5.336708e-18)
(81.047821 -38.273243 5.5316304e-17)
(91.915066 -41.831259 -3.8501508e-17)
(100.28854 -43.250517 -6.8838712e-17)
(106.67073 -42.813961 5.9964086e-17)
(111.63171 -40.884328 -1.1968944e-17)
(116.66226 -37.270866 -2.6604953e-17)
(-13.3828 56.054772 -2.4543566e-18)
(-16.489794 49.637386 -2.0805423e-18)
(-15.070202 46.589188 -5.1120469e-16)
(-13.783549 44.037592 4.3818812e-16)
(-12.709436 41.661222 -4.9414141e-18)
(-11.292881 39.520293 3.1061323e-16)
(-8.7409893 37.871175 -2.2473487e-16)
(-5.3979935 36.300037 -3.7313119e-16)
(4.8513083 26.525483 -9.8117327e-18)
(20.371904 10.529105 3.5920991e-16)
(38.549037 -7.1529722 -1.2489395e-16)
(52.088296 -21.407766 0)
(62.972694 -31.348852 6.0535201e-18)
(72.646965 -36.275356 -2.776419e-17)
(81.271936 -37.289334 1.5267536e-17)
(90.161649 -34.97215 -1.095447e-18)
(-9.1127589 53.228068 2.4543566e-18)
(-9.4403596 47.278436 -4.5114155e-16)
(-9.3784332 43.71443 3.7142959e-16)
(-9.4477004 40.787773 -2.7644545e-18)
(-9.7808979 38.081898 5.7700479e-18)
(-10.361026 35.476743 -1.0904105e-18)
(-11.16251 32.948438 -1.8633167e-16)
(-12.091088 30.423589 -1.1873856e-17)
(-13.132061 27.564439 1.2161182e-16)
(-15.12362 23.268767 -1.3911234e-16)
(-17.139047 15.649313 1.5239797e-16)
(21.775968 -11.25402 0)
(21.460236 -21.190162 3.9500503e-17)
(28.751094 -27.178077 -2.3934639e-17)
(38.692411 -29.45336 2.0328385e-18)
(51.170469 -28.194345 0)
(-6.1181287 38.292961 -6.8315942e-17)
(-6.8093401 29.965974 1.9638798e-17)
(-9.0510038 24.553766 3.1210749e-17)
(-11.598918 20.1069 -2.5382441e-17)
(-14.366404 16.085552 -1.8755893e-18)
(-17.304085 12.267133 9.934709e-18)
(-20.351205 8.5402756 1.0880723e-17)
(-23.470546 4.8387132 1.1989542e-18)
(-26.770328 1.1000087 1.2673884e-18)
(-30.455082 -2.7117317 -2.6018186e-17)
(-33.876678 -6.6444543 3.1187119e-17)
(-33.840634 -10.561605 -3.1951742e-18)
(-27.583816 -14.933439 -9.6857527e-18)
(-19.302297 -18.486009 -4.7079285e-18)
(-7.8411082 -20.303238 8.9294786e-21)
(14.763996 -19.398264 -1.8090085e-17)
(-6.2328291 -36.924239 -2.7358284e-17)
(-6.9696081 -27.324967 -1.8713896e-17)
(-9.303466 -21.451514 3.8100761e-17)
(-12.007261 -16.824346 -2.1370696e-17)
(-14.967433 -12.782685 9.5111529e-18)
(-18.12301 -9.0487193 1.1148322e-21)
(-21.398181 -5.4724183 1.9058665e-17)
(-24.736549 -1.9514927 -7.189958e-18)
(-28.180532 1.5978546 -4.0276462e-19)
(-31.748796 5.2442422 9.6024097e-18)
(-34.621587 8.9560842 -1.2101518e-17)
(-33.897058 12.424843 1.047584e-17)
(-27.871245 15.88382 -9.2678754e-18)
(-19.71247 17.985501 5.9092478e-19)
(-9.3108244 17.786604 -4.5536955e-18)
(13.310882 12.683804 -3.0428521e-17)
(-9.0835381 -52.537384 -3.1519876e-18)
(-9.1482301 -46.07374 4.7087793e-16)
(-9.0631793 -42.525937 -3.8269174e-16)
(-9.2075292 -39.735789 3.1133047e-16)
(-9.6528487 -37.162898 -2.5252917e-16)
(-10.351457 -34.600165 0)
(-11.270884 -31.927166 1.8286462e-16)
(-12.409521 -28.931318 -1.436325e-16)
(-13.757059 -25.137397 -6.2100276e-18)
(-15.291493 -19.41393 0)
(-12.717469 -9.7019599 -2.6601466e-17)
(17.879136 13.578814 1.3235946e-17)
(20.171254 23.317314 -4.0191116e-17)
(28.132894 28.774539 2.873966e-17)
(38.015922 30.795548 -9.400958e-18)
(52.397907 29.021927 9.4589303e-18)
(-13.385738 -55.627242 2.5197407e-18)
(-16.237821 -48.776584 -2.1612101e-18)
(-14.809678 -45.747041 0)
(-13.617454 -43.322802 9.8759406e-18)
(-12.641631 -41.095966 5.7001007e-18)
(-11.275191 -39.056959 3.2627178e-16)
(-8.6791996 -37.392174 -2.6414527e-16)
(-5.4233616 -35.579956 0)
(5.537831 -24.276067 1.0496848e-19)
(21.604064 -7.2493849 -9.9945746e-18)
(38.808511 10.110038 7.3493245e-18)
(51.838737 23.686561 4.3123979e-18)
(62.454729 32.837705 5.5097393e-18)
(71.833943 37.19512 2.0519083e-17)
(80.085093 37.8093 -1.7467841e-17)
(89.616918 34.830398 8.3667669e-19)
(-16.838077 -51.82457 0)
(-23.019014 -43.011817 1.2911551e-15)
(-19.6287 -40.81324 -2.2128509e-15)
(-17.139271 -39.572646 8.2122903e-16)
(-14.595383 -38.729642 -4.5453053e-18)
(-0.86795498 -24.192818 -1.0992341e-17)
(16.304005 -6.2855364 2.3247078e-16)
(35.188059 11.445346 -1.597636e-16)
(52.691156 24.734405 -9.3367208e-17)
(68.048 33.617033 7.7380766e-17)
(81.064705 39.365335 0)
(91.548962 42.743182 -4.9387437e-17)
(99.636601 43.971859 2.567621e-17)
(105.83184 43.321064 0)
(110.6369 41.160195 0)
(116.01737 37.052853 0)
(-18.536396 -44.973755 2.8308283e-15)
(-23.384365 -36.114552 -1.0099874e-15)
(-2.9246605 -14.871989 0)
(18.537066 5.7733694 -2.2685999e-18)
(39.776573 24.295527 -2.2351839e-16)
(57.181147 36.148677 1.6091584e-16)
(71.889662 43.337077 1.1282534e-16)
(84.306267 47.422338 5.2388413e-18)
(94.634214 49.433043 -8.0231491e-17)
(103.16268 50.005472 3.870729e-18)
(110.19014 49.563165 0)
(115.93526 48.372844 -9.9183024e-17)
(120.59307 46.574987 1.0819885e-17)
(124.42714 44.201841 7.1634669e-17)
(127.59457 41.363872 0)
(131.16297 37.548462 1.3464299e-17)
(-39.284499 -61.130802 3.1508248e-17)
(20.46911 14.097666 9.6014907e-16)
(47.607198 36.289009 -2.466178e-16)
(66.588086 48.054381 -1.4681024e-16)
(80.869732 54.148269 1.0738637e-16)
(91.888553 56.765352 -9.3301487e-17)
(100.59046 57.30031 6.9693491e-17)
(107.68945 56.612106 7.4494966e-17)
(113.67666 55.216488 -7.6820677e-17)
(118.87385 53.421763 0)
(123.49383 51.397545 0)
(127.66973 49.206577 0)
(131.47925 46.829651 2.1477571e-17)
(134.99397 44.188469 0)
(138.10691 41.393285 8.2847422e-17)
(142.35404 37.284856 -1.5806359e-16)
(129.05257 144.73527 0)
(132.83586 150.75762 0)
(134.06874 146.34635 0)
(134.47088 142.77876 2.1909349e-18)
(134.99465 138.58748 -1.6636059e-17)
(135.6149 133.77316 2.0970007e-17)
(136.3517 128.33161 0)
(137.21286 122.22606 -4.2016568e-18)
(138.20248 115.45138 0)
(139.31865 108.0519 0)
(140.55036 100.11728 0)
(141.89355 91.773924 1.0640987e-17)
(143.39499 83.145235 0)
(145.07826 74.436267 2.3555032e-17)
(146.64301 66.487378 0)
(129.03851 -144.72073 0)
(132.81363 -150.68191 0)
(134.05987 -146.29714 0)
(134.4878 -142.74956 2.1900375e-18)
(135.043 -138.58598 -1.5559304e-17)
(135.69979 -133.80362 2.3157424e-17)
(136.4739 -128.39625 0)
(137.3671 -122.32103 4.1988021e-18)
(138.37407 -115.5667 0)
(139.48013 -108.16808 0)
(140.65937 -100.20368 0)
(141.89689 -91.789984 -1.0632884e-17)
(143.25241 -83.049213 0)
(144.80226 -74.245731 9.1101989e-18)
(146.42854 -66.371303 0)
(72.330732 56.284102 0)
(98.638451 73.166971 0)
(110.91884 80.250108 0)
(117.55205 81.922744 2.118346e-18)
(121.79609 80.938266 -1.5890714e-17)
(124.99138 78.578023 2.037738e-17)
(127.79033 75.404933 0)
(130.53256 71.682668 -4.2735201e-18)
(133.36867 67.564527 0)
(136.32747 63.158898 0)
(139.35655 58.555049 0)
(142.35801 53.825446 7.9991559e-18)
(145.21399 49.052615 0)
(147.63951 44.509225 5.1957938e-17)
(150.63324 38.641367 0)
(72.107989 -56.084443 0)
(98.407894 -72.941903 0)
(110.69683 -80.007876 0)
(117.33888 -81.661315 2.0830299e-18)
(121.59047 -80.655047 -1.4334664e-17)
(124.79434 -78.271322 2.2578241e-17)
(127.60647 -75.076395 0)
(130.37103 -71.338197 4.3000295e-18)
(133.24396 -67.214972 0)
(136.25949 -62.819954 0)
(139.36946 -58.245425 0)
(142.47451 -53.565612 -8.0239198e-18)
(145.45993 -48.8409 0)
(148.07989 -44.294434 4.2767604e-17)
(150.87601 -39.086049 0)
(104.00717 149.0283 6.7344009e-20)
(104.16668 -149.02427 -6.7354792e-20)
(37.639047 -10.499706 5.8020366e-19)
(37.395244 10.67543 -5.8760232e-19)
(151.64886 14.89933 0)
(158.59004 0.15653371 0)
(141.35504 -25.6992 0)
(158.36025 0.15250831 0)
(140.05854 28.902492 -5.2341148e-17)