/*--------------------------------*- C++ -*----------------------------------*\
| =========                 |                                                 |
| \\      /  F ield         | foam-extend: Open Source CFD                    |
|  \\    /   O peration     | Version:     4.1                                |
|   \\  /    A nd           | Web:         http://www.foam-extend.org         |
|    \\/     M anipulation  |                                                 |
\*---------------------------------------------------------------------------*/
FoamFile
{
    version     2.0;
    format      ascii;
    class       volScalarField;
    location    "0.9";
    object      p;
}
// * * * * * * * * * * * * * * * * * * * * * * * * * * * * * * * * * * * * * //

dimensions      [0 2 -2 0 0 0 0];

internalField   nonuniform List<scalar> 
16796
(
-0.0054207682
-2.9185103
-6.3170621
-10.171994
-14.422461
-19.086654
-24.200832
-29.80497
-35.938174
-42.638667
-49.942292
-57.87919
-66.474176
-75.747514
-85.714954
-96.387719
-107.77253
-119.8716
-132.68282
-146.1998
-160.41211
-175.30531
-190.86126
-207.05827
-223.87141
-241.27279
-259.23201
-277.71655
-296.69237
-316.1245
-335.97774
-356.21759
-376.8108
-397.72656
-418.93732
-440.41973
-462.15558
-484.13259
-506.34521
-528.79514
-551.49173
-574.45207
-597.70092
-621.27014
-645.1979
-669.5275
-694.30578
-719.58117
-745.40143
-771.81104
-798.84832
-826.54238
-854.90985
-883.95168
-913.64993
-943.96475
-974.83179
-1006.1598
-1037.8286
-1069.6883
-1101.5579
-1133.2259
-1164.4506
-1194.9621
-1224.4638
-1252.6365
-1279.1415
-1303.6256
-1325.7264
-1345.0784
-1361.3189
-1374.0951
-1383.0713
-1387.9375
-1388.4134
-1384.2529
-1375.2525
-1361.2663
-1342.208
-1318.0363
-1288.7617
-1254.4566
-1215.2518
-1171.3336
-1122.9402
-1070.3577
-1013.9137
-953.97209
-890.9255
-825.18864
-757.1909
-687.36935
-616.16199
-544.00143
-471.30932
-398.49136
-325.93319
-253.99708
-183.0194
-113.3089
-45.145718
21.219006
85.562882
147.69157
207.43764
264.65913
319.23792
371.07791
420.1031
466.25579
509.49468
549.79335
587.13893
621.53089
652.97915
681.50185
707.13865
729.96836
750.07204
767.39841
781.83627
794.25958
808.56
826.76141
1.6481751
-2.4917504
-6.1096529
-10.009456
-14.259305
-18.910468
-24.007655
-29.593546
-35.708347
-42.391962
-49.681635
-57.607339
-66.193767
-75.461221
-85.425302
-96.09716
-107.48339
-119.58613
-132.40313
-145.92787
-160.14975
-175.05413
-190.62267
-206.83342
-223.66118
-241.07775
-259.05242
-277.55233
-296.54306
-315.98928
-335.85542
-356.10658
-376.70916
-397.632
-418.84722
-440.33119
-462.06546
-484.0376
-506.24196
-528.68023
-551.36188
-574.30424
-597.53237
-621.07865
-644.98185
-669.28604
-694.03892
-719.28998
-745.08811
-771.47901
-798.50233
-826.18854
-854.55565
-883.60592
-913.32268
-943.66723
-974.57622
-1005.9592
-1037.6966
-1069.6388
-1101.605
-1133.3833
-1164.7316
-1195.3786
-1225.0267
-1253.3545
-1280.0214
-1304.6718
-1326.9406
-1346.4599
-1362.8642
-1375.798
-1384.9226
-1389.9232
-1390.5175
-1386.4619
-1377.5562
-1363.6455
-1344.6253
-1320.4542
-1291.1511
-1256.7905
-1217.5044
-1173.4808
-1124.9602
-1072.2308
-1015.6234
-955.50465
-892.27049
-826.33884
-758.14228
-688.12094
-616.71566
-544.36167
-471.48287
-398.48694
-325.76112
-253.66892
-182.54764
-112.70664
-44.426351
22.042026
86.476261
148.68235
208.49333
265.76779
320.38823
372.25913
421.30507
467.46878
510.70928
551.00015
588.32811
622.69108
654.09678
682.56426
708.13155
730.85899
750.79219
767.87725
782.11768
794.26579
806.25594
816.66021
2.2495138
-1.9191601
-5.5368107
-9.3957569
-13.573044
-18.140672
-23.154751
-28.665122
-34.717069
-41.348809
-48.593365
-56.482116
-65.041617
-74.292941
-84.252447
-94.931419
-106.33647
-118.46946
-131.32772
-144.90414
-159.18731
-174.16171
-189.8079
-206.10275
-223.01972
-240.52923
-258.59903
-277.19474
-296.28033
-315.81889
-335.77326
-356.10698
-376.78501
-397.77481
-419.04726
-440.57767
-462.3467
-484.34126
-506.55531
-528.99038
-551.65613
-574.57037
-597.75899
-621.25554
-645.10036
-669.33936
-694.02251
-719.20183
-744.92903
-771.25291
-798.21638
-825.8533
-854.18507
-883.21736
-912.93691
-943.30812
-974.27002
-1005.7341
-1037.5824
-1069.6661
-1101.8046
-1133.7856
-1165.3654
-1196.2708
-1226.2012
-1254.8317
-1281.817
-1306.7965
-1329.3992
-1349.2503
-1365.9777
-1379.2192
-1388.63
-1393.8896
-1394.709
-1390.8383
-1382.0733
-1368.2574
-1349.2862
-1325.1146
-1295.7586
-1261.2935
-1221.8533
-1177.6288
-1128.8644
-1075.853
-1018.9305
-958.46952
-894.87203
-828.56209
-759.9784
-689.56693
-617.77401
-545.03983
-471.79267
-398.44395
-325.38397
-252.97861
-181.56688
-111.4592
-42.936511
23.750015
88.378628
150.75618
210.7169
268.12079
322.85194
374.81659
423.94112
470.1701
513.46435
553.79924
591.16298
625.55456
656.98274
685.46756
711.04603
733.76626
753.65021
770.67337
784.97928
797.11292
807.37904
813.33348
2.5210016
-1.5515942
-5.0985933
-8.8889681
-12.98716
-17.469508
-22.396885
-27.822545
-33.794183
-40.353192
-47.534886
-55.370573
-63.887271
-73.106694
-83.045413
-93.714898
-105.12174
-117.26768
-130.14978
-143.76045
-158.08771
-173.11525
-188.82268
-205.18577
-222.17673
-239.76457
-257.91555
-276.59367
-295.76124
-315.37962
-335.40994
-355.81403
-376.55526
-397.59955
-418.91642
-440.47998
-462.26993
-484.27249
-506.4812
-528.89756
-551.53152
-574.40159
-597.53481
-620.96628
-644.73833
-668.89935
-693.50216
-718.60206
-744.25441
-770.51193
-797.42174
-825.022
-853.33868
-882.38232
-912.14366
-942.59035
-973.66458
-1005.2805
-1037.3221
-1069.6419
-1102.0594
-1134.3617
-1166.3033
-1197.608
-1227.9707
-1257.0614
-1284.5283
-1310.0033
-1333.1076
-1353.4574
-1370.6714
-1384.3778
-1394.222
-1399.8742
-1401.0368
-1397.4516
-1388.9062
-1375.2386
-1356.3418
-1332.1687
-1302.7339
-1268.1134
-1228.4441
-1183.9212
-1134.7946
-1081.3643
-1023.9743
-963.00575
-898.86981
-831.99981
-762.8436
-691.85595
-619.4914
-546.19761
-472.40948
-398.54401
-324.99613
-252.13532
-180.30319
-109.81186
-40.943079
26.051884
90.951848
153.56477
213.72639
271.29858
326.16746
378.24143
427.44905
473.73701
517.0681
557.4194
594.78035
629.15083
660.54027
688.96864
714.46897
737.07594
756.79827
773.64559
787.82387
799.64728
808.74004
813.09152
2.8801806
-1.0140996
-4.4085823
-8.0625032
-12.028108
-16.38202
-21.187751
-26.500936
-32.37073
-38.840196
-45.94665
-53.722101
-62.194073
-71.384651
-81.310629
-91.983507
-103.4097
-115.59054
-128.52247
-142.1971
-156.60139
-171.7178
-187.5245
-203.99561
-221.10158
-238.80943
-257.08336
-275.88516
-295.17488
-314.91158
-335.05408
-355.56195
-376.39637
-397.52124
-418.9042
-440.51773
-462.34023
-484.3569
-506.56071
-528.953
-551.54408
-574.35336
-597.40932
-620.74914
-644.41783
-668.46708
-692.95359
-717.93714
-743.47806
-769.63445
-796.45918
-823.99658
-852.27946
-881.32437
-911.12685
-941.65949
-972.86923
-1004.6741
-1036.9611
-1069.5843
-1102.364
-1135.0862
-1167.5028
-1199.3337
-1230.2684
-1259.9694
-1288.0766
-1314.2116
-1337.9844
-1358.9992
-1376.8621
-1391.1883
-1401.6102
-1407.7855
-1409.4046
-1406.1986
-1397.9456
-1384.476
-1365.6778
-1341.5006
-1311.9578
-1277.1267
-1237.1475
-1192.2213
-1142.6059
-1088.6104
-1030.5896
-968.93633
-904.07396
-836.4483
-766.51948
-694.75405
-621.61753
-547.56758
-473.04783
-398.48278
-324.27343
-250.79397
-178.3894
-107.37395
-38.030356
29.390157
94.667319
157.61073
218.05833
275.87463
330.94868
383.19194
432.53608
478.93074
522.34147
562.74763
600.14036
634.52051
665.89783
694.29092
719.72635
742.22519
761.78774
778.43877
792.35779
803.63605
811.7201
815.26329
3.1646867
-0.54762156
-3.7613341
-7.2505334
-11.059347
-15.263318
-19.927217
-25.108522
-30.858054
-37.220417
-44.234502
-51.933507
-60.34566
-69.493407
-79.393808
-90.058427
-101.49353
-113.7001
-126.67401
-140.40606
-154.88221
-170.08365
-185.98711
-202.56504
-219.78599
-237.61495
-256.01386
-274.94216
-294.35744
-314.21619
-334.47469
-355.08995
-376.02067
-397.22837
-418.67857
-440.34182
-462.1949
-484.22182
-506.41478
-528.77489
-551.31278
-574.04885
-597.01325
-620.24554
-643.79389
-667.71385
-692.0668
-716.91783
-742.33327
-768.37765
-795.11099
-822.58564
-850.84242
-879.90381
-909.77203
-940.42647
-971.8196
-1003.8742
-1036.4809
-1069.496
-1102.7402
-1135.9982
-1169.0193
-1201.5181
-1233.1774
-1263.6507
-1292.5671
-1319.5362
-1344.1539
-1366.0096
-1384.6932
-1399.8037
-1410.9573
-1417.7955
-1419.9941
-1417.2703
-1409.3902
-1396.1749
-1377.5055
-1353.3275
-1323.6528
-1288.5603
-1248.1948
-1202.7648
-1152.5377
-1097.8347
-1039.024
-976.51348
-910.74193
-842.17101
-771.27641
-698.53963
-624.44009
-549.44801
-474.0181
-398.58422
-323.55499
-249.31047
-176.19984
-104.53992
-34.614578
33.325105
99.060109
162.4022
223.19221
281.2981
336.61275
389.05169
438.55072
485.06361
528.55981
569.02228
606.44529
640.83234
672.19528
700.55319
725.92926
748.33839
767.78253
784.29449
798.00512
808.85575
816.29388
819.41938
3.5496036
0.067964083
-2.9154215
-6.1935291
-9.8046099
-13.823414
-18.315557
-23.339942
-28.948921
-35.188519
-42.098958
-49.714436
-58.063774
-67.169805
-77.049691
-87.71488
-99.171277
-111.41926
-124.45385
-138.26475
-152.83657
-168.14893
-184.17673
-200.89035
-218.25608
-236.23642
-254.79066
-273.87542
-293.44535
-313.45395
-333.85441
-354.60073
-375.64864
-396.95685
-418.48825
-440.21108
-462.10016
-484.13798
-506.31578
-528.6343
-551.10452
-573.74794
-596.59667
-619.69312
-643.08918
-666.84512
-691.0279
-715.70916
-740.96236
-766.86005
-793.47128
-820.85835
-849.07059
-878.13853
-908.07343
-938.86258
-970.46551
-1002.811
-1035.7942
-1069.2741
-1103.0724
-1136.9726
-1170.7202
-1204.024
-1236.5582
-1267.9657
-1297.8625
-1325.843
-1351.486
-1374.3626
-1394.0435
-1410.1075
-1422.1507
-1429.7954
-1432.6988
-1430.5615
-1423.135
-1410.2287
-1391.7153
-1367.5349
-1337.6979
-1302.2851
-1261.447
-1215.4009
-1164.4263
-1108.8591
-1049.0841
-985.52744
-918.64702
-848.92385
-776.85267
-702.93322
-627.66186
-551.52413
-474.98814
-398.49905
-322.47466
-247.30206
-173.33536
-100.8944
-30.264329
38.304075
104.59338
168.41803
229.62238
288.07854
343.68396
396.35895
446.04414
492.69799
536.29441
576.82035
614.27348
648.66014
679.99425
708.29522
733.58389
755.87274
775.16788
791.5044
804.97483
815.45382
822.45587
825.34031
3.9212259
0.68383989
-2.040261
-5.0763695
-8.4599054
-12.265654
-16.560166
-21.403723
-26.850228
-32.947121
-39.735963
-47.252011
-55.524786
-64.577593
-74.427771
-85.086682
-96.559884
-108.84715
-121.94261
-135.83484
-150.50701
-165.93705
-182.09789
-198.95769
-216.48024
-234.62533
-253.34932
-272.6057
-292.34583
-312.51983
-333.07745
-353.9692
-375.14744
-396.56762
-418.18957
-439.97881
-461.90782
-483.95727
-506.11716
-528.38769
-550.78012
-573.31711
-596.03291
-618.97308
-642.19379
-665.76063
-689.74702
-714.23214
-739.29766
-765.02569
-791.49616
-818.78257
-846.94338
-876.01984
-906.03347
-936.98091
-968.83022
-1001.5174
-1034.9429
-1068.9693
-1103.4197
-1138.0761
-1172.6801
-1206.9336
-1240.5013
-1273.0133
-1304.0704
-1333.2491
-1360.1083
-1384.1972
-1405.0633
-1422.2618
-1435.3647
-1443.9712
-1447.7163
-1446.2805
-1439.3982
-1426.8646
-1408.542
-1384.3642
-1354.3396
-1318.5515
-1277.157
-1230.3841
-1178.5269
-1121.9387
-1061.0246
-996.23226
-928.04269
-856.95998
-783.50167
-708.18917
-631.53903
-554.05488
-476.22064
-398.49476
-321.30572
-245.04868
-170.08338
-96.732934
-25.283702
44.01416
110.94541
175.32796
237.01063
295.87074
351.81143
404.75897
454.66002
501.47896
545.19527
585.80104
623.29847
657.69772
689.01554
717.27242
742.48827
764.67511
783.84156
800.01895
813.27266
823.45712
830.16131
832.89588
4.3799224
1.4271289
-0.99695625
-3.7522633
-6.8722239
-10.43241
-14.500609
-19.138589
-24.401839
-30.339215
-36.993585
-44.401185
-52.592074
-61.589984
-71.412302
-82.07016
-93.568594
-105.90657
-119.07713
-133.06747
-147.85909
-163.42794
-179.74471
-196.775
-214.47979
-232.81579
-251.73603
-271.19046
-291.12673
-311.49109
-332.22937
-353.28812
-374.6158
-396.16409
-417.8893
-439.75374
-461.72715
-483.78797
-505.9247
-528.13681
-550.43577
-572.84545
-595.40245
-618.1559
-641.1668
-664.50685
-688.25694
-712.50486
-737.34188
-762.86155
-789.15667
-816.31267
-844.39958
-873.47144
-903.5617
-934.67815
-966.79901
-999.8688
-1033.7947
-1068.4435
-1103.64
-1139.1648
-1174.7552
-1210.1053
-1244.8684
-1278.6603
-1311.0638
-1341.6348
-1369.9088
-1395.4095
-1417.6573
-1436.1793
-1450.5198
-1460.2503
-1464.9799
-1464.3656
-1458.121
-1446.0249
-1427.9271
-1403.7541
-1373.5117
-1337.2861
-1295.2423
-1247.6212
-1194.7337
-1136.9541
-1074.7112
-1008.4784
-938.76375
-866.09863
-791.02733
-714.09679
-635.84709
-556.80302
-477.46684
-398.31234
-319.78026
-242.27497
-166.16248
-91.769507
-19.383548
50.746202
118.40726
183.42173
245.64379
304.95691
361.27095
414.51917
464.6553
511.65066
555.49135
596.17563
633.7113
668.11349
699.40294
727.60283
752.73462
774.81253
793.84817
809.86943
822.92693
832.87708
839.36955
842.00412
4.8588439
2.2145841
0.12400859
-2.3165705
-5.1401138
-8.4237959
-12.237047
-16.643337
-21.699879
-27.457029
-33.959028
-41.243174
-49.340151
-58.274141
-68.062618
-78.716493
-90.240247
-102.63199
-115.88361
-129.98079
-144.90323
-160.62474
-177.11353
-194.33243
-212.23933
-230.78752
-249.92635
-269.60187
-289.75755
-310.33534
-331.27664
-352.52353
-374.02003
-395.71353
-417.55627
-439.50684
-461.53173
-483.60676
-505.71854
-527.86556
-550.05932
-572.32489
-594.70137
-617.24174
-640.01234
-663.09165
-686.56903
-710.5418
-735.11243
-760.38758
-786.47438
-813.47174
-841.46361
-870.51851
-900.68377
-931.98031
-964.39829
-997.89237
-1032.3776
-1067.7264
-1103.7654
-1140.2746
-1176.9862
-1213.5858
-1249.714
-1284.9702
-1318.9169
-1351.0862
-1380.9867
-1408.1125
-1431.953
-1452.0027
-1467.7733
-1478.8042
-1484.6746
-1485.0137
-1479.5112
-1467.9261
-1450.0941
-1425.9326
-1395.4446
-1358.7196
-1315.9318
-1267.337
-1213.2662
-1154.1179
-1090.3486
-1022.462
-950.99742
-876.51819
-799.59966
-720.81824
-640.74121
-559.91763
-478.87073
-398.09171
-318.03508
-239.11541
-161.70551
-86.135792
-12.694634
58.370299
126.85008
192.572
255.39669
315.21496
371.94457
425.527
475.92421
523.11555
567.09481
607.86735
645.44748
679.85605
711.1186
739.26196
764.31057
786.2821
805.19138
821.06503
833.94876
843.71066
850.04619
852.60976
5.4150526
3.1180358
1.4008687
-0.68710982
-3.1786044
-6.1529937
-9.6817556
-13.830321
-18.657776
-24.216081
-30.550874
-37.700548
-45.696272
-54.56264
-64.317128
-74.970291
-86.525929
-98.981149
-112.32649
-126.54596
-141.61723
-157.51174
-174.19497
-191.62668
-209.76133
-228.54847
-247.93338
-267.85773
-288.26039
-309.07851
-330.24849
-351.70743
-373.39431
-395.25162
-417.22697
-439.27465
-461.35737
-483.44786
-505.53041
-527.60224
-549.67469
-571.774
-593.94187
-616.23549
-638.72707
-661.50263
-684.661
-708.31015
-732.56545
-757.54861
-783.38295
-810.18261
-838.04756
-867.063
-897.29238
-928.77182
-961.5054
-995.45969
-1030.5592
-1066.6828
-1103.6603
-1141.2706
-1179.2409
-1217.2475
-1254.9168
-1291.8298
-1327.526
-1361.5104
-1393.261
-1422.2383
-1447.8955
-1469.6903
-1487.0964
-1499.6167
-1506.7951
-1508.2291
-1503.5804
-1492.5854
-1475.0627
-1450.9196
-1420.1557
-1382.8641
-1339.2299
-1289.526
-1234.1067
-1173.3987
-1107.8908
-1038.1216
-964.66698
-888.12683
-809.11239
-728.23397
-646.08996
-563.25706
-480.28224
-397.67627
-315.90898
-235.40614
-156.54783
-79.668148
-5.0560003
67.043171
136.42493
202.92288
266.40533
326.77174
383.94917
437.88865
488.56171
535.95706
580.07742
620.93654
658.55638
692.96469
724.19294
752.27288
777.23337
799.09652
817.88085
833.61405
846.34276
855.94947
862.16311
864.67323
6.0120581
4.0937183
2.7880477
1.0898778
-1.0339775
-3.6657159
-6.8792755
-10.74235
-15.316086
-20.654217
-26.803868
-33.804636
-41.688206
-50.479618
-60.196329
-70.848513
-82.439237
-94.96452
-108.41345
-122.76821
-138.00429
-154.09055
-170.9895
-188.65757
-207.04546
-226.09863
-245.75787
-265.96006
-286.63898
-307.7264
-329.15323
-350.85091
-372.75277
-394.7958
-416.92225
-439.08151
-461.23189
-483.34243
-505.39465
-527.38405
-549.32155
-571.23442
-593.16702
-615.18098
-637.35484
-659.78288
-682.57436
-705.84897
-729.73682
-754.37699
-779.9102
-806.46755
-834.16801
-863.11573
-893.3926
-925.05239
-958.11531
-992.56191
-1028.328
-1065.3002
-1103.3123
-1142.1428
-1181.514
-1221.0916
-1260.4868
-1299.2598
-1336.9244
-1372.9551
-1406.7953
-1437.8672
-1465.5833
-1489.3584
-1508.6234
-1522.8387
-1531.5082
-1534.1925
-1530.5213
-1520.2044
-1503.0411
-1478.9265
-1447.8563
-1409.9279
-1365.3385
-1314.3812
-1257.437
-1194.9653
-1127.492
-1055.5959
-979.89502
-901.03131
-819.65702
-736.42114
-651.95733
-566.87356
-481.74338
-397.09933
-313.42808
-231.16746
-150.70516
-72.378798
3.52278
76.757233
147.12574
214.4695
278.66589
339.6245
397.28307
451.60362
502.56861
550.17741
594.44287
635.38826
673.04433
707.44673
738.63393
766.64384
791.51092
813.26268
831.92226
847.52053
860.10845
869.58281
875.69701
878.16455
6.6831811
5.1836428
4.3316907
3.0632168
1.3445481
-0.90980252
-3.7766162
-7.3261569
-11.621813
-16.719293
-22.667243
-29.506536
-37.2693
-45.981046
-55.659075
-66.313088
-77.94531
-90.550546
-104.11629
-118.62273
-134.04297
-150.34307
-167.48234
-185.41356
-204.08338
-223.43276
-243.39763
-263.90958
-284.89679
-306.28511
-327.99932
-349.96457
-372.10789
-394.35999
-416.65712
-438.94302
-461.17092
-483.30554
-505.32504
-527.22276
-549.00884
-570.71141
-592.3775
-614.07341
-635.88443
-657.91399
-680.28261
-703.12311
-726.58231
-750.81868
-775.99178
-802.25233
-829.74103
-858.5834
-888.88235
-920.71197
-954.11109
-989.07653
-1025.5573
-1063.4496
-1102.5924
-1142.7644
-1183.6825
-1225.0016
-1266.3161
-1307.1633
-1347.0284
-1385.3518
-1421.5379
-1454.9657
-1485.0012
-1511.011
-1532.377
-1548.5112
-1558.8714
-1562.9762
-1560.4181
-1550.8767
-1534.1287
-1510.0552
-1478.6472
-1440.0068
-1394.3455
-1341.9793
-1283.32
-1218.8645
-1149.1816
-1074.8963
-996.67461
-915.20684
-831.19193
-745.32273
-658.27282
-570.68518
-483.16306
-396.26296
-310.4899
-226.29454
-144.07233
-64.16405
13.142306
87.60863
159.04309
227.29602
292.25553
353.84293
412.00837
466.72643
517.99206
565.81672
610.22477
651.25026
688.93387
723.32027
754.456
782.38616
807.15183
828.78674
847.31946
862.78564
875.24224
884.59913
890.62801
893.05969
7.4092606
6.3658959
6.010406
5.2125683
3.937849
2.0969784
-0.39004776
-3.5963838
-7.5878613
-12.422398
-18.150201
-24.813492
-32.445138
-41.070929
-50.70793
-61.365355
-73.044523
-85.738931
-99.434352
-114.10885
-129.73296
-146.26974
-163.67504
-181.89772
-200.88004
-220.55808
-240.86247
-261.71903
-283.04979
-304.7741
-326.80993
-349.07547
-371.49066
-393.97919
-416.47049
-438.90184
-461.22063
-483.38648
-505.37354
-527.17237
-548.7919
-570.26082
-591.62872
-612.96674
-634.36726
-655.94365
-677.82858
-700.16952
-723.13184
-746.89512
-771.64034
-797.54048
-824.76039
-853.44987
-883.7359
-915.71591
-949.45017
-984.95443
-1022.1933
-1061.0744
-1101.4432
-1143.0795
-1185.6952
-1228.9337
-1272.3711
-1315.5195
-1357.8325
-1398.7126
-1437.5203
-1473.5862
-1506.2239
-1534.7453
-1558.4765
-1576.7746
-1589.0449
-1594.7575
-1593.4628
-1584.8053
-1568.5356
-1544.5188
-1512.7403
-1473.3076
-1426.4482
-1372.5044
-1311.9235
-1245.2456
-1173.0883
-1096.1297
-1015.0909
-930.71702
-843.76014
-754.96272
-665.04319
-574.68368
-484.52029
-395.1358
-307.05495
-220.74192
-136.59986
-54.972135
23.855158
99.649526
172.22774
241.45104
307.22004
369.4697
428.16431
483.29278
534.86415
582.90349
627.4481
668.5441
706.24332
740.60058
771.67152
799.5095
824.16314
845.67312
864.07429
879.40818
891.73841
900.98659
906.93851
909.33831
8.2112038
7.6672235
7.8542923
7.5704858
6.7804603
5.3907456
3.3177463
0.48510844
-3.1756748
-7.7248998
-13.214448
-19.688029
-27.179344
-35.714153
-45.309321
-55.973479
-67.706935
-80.501763
-94.34189
-109.20309
-125.05315
-141.85193
-159.55156
-178.09667
-197.42482
-217.46683
-238.14756
-259.38658
-281.09918
-303.19757
-325.59224
-348.19365
-370.91385
-393.66867
-416.37982
-438.97726
-461.40161
-483.6066
-505.56154
-527.25357
-548.68983
-569.8992
-590.93367
-611.8693
-632.80592
-653.8676
-675.20005
-696.96704
-719.3544
-742.5649
-766.80378
-792.26855
-819.15124
-847.62917
-877.85671
-909.95785
-944.01751
-980.07338
-1018.1084
-1058.0437
-1099.7332
-1142.9589
-1187.4278
-1232.7713
-1278.546
-1324.2368
-1369.2621
-1412.9823
-1454.7093
-1493.7191
-1529.2667
-1560.6019
-1586.9879
-1607.7192
-1622.1414
-1629.6693
-1629.8049
-1622.1527
-1606.4331
-1582.4925
-1550.3099
-1509.9986
-1461.8047
-1406.1004
-1343.3737
-1274.2139
-1199.2949
-1119.3554
-1035.1792
-947.57405
-857.35207
-765.31172
-672.22169
-578.80765
-485.74188
-393.63574
-303.03503
-214.41789
-128.19491
-44.711105
35.750658
112.96521
186.75987
257.00882
323.62733
386.56604
445.80541
501.35056
553.2264
601.47325
646.14283
687.29467
724.99297
759.30378
790.29294
818.02295
842.5508
863.92483
882.18686
897.38499
909.58966
918.73308
924.61225
926.98224
9.0795717
9.0778205
9.8552246
10.130725
9.8679728
8.9688463
7.3457848
4.9189227
1.6168182
-2.6233689
-7.8553407
-14.124413
-21.465179
-29.903296
-39.455359
-50.129357
-61.924504
-74.831355
-88.83187
-103.89939
-119.9988
-137.08652
-155.11076
-174.01165
-193.72165
-214.16597
-235.26321
-256.92617
-279.06282
-301.57755
-324.37262
-347.34994
-370.4128
-393.46821
-416.42922
-439.21744
-461.76576
-484.02099
-505.94672
-527.5258
-548.76294
-569.68663
-590.35102
-610.83703
-631.25222
-651.73205
-672.43608
-693.54612
-715.27052
-737.8378
-761.47973
-786.42136
-812.88523
-841.07975
-871.19032
-903.37125
-937.73575
-974.34687
-1013.2089
-1054.2594
-1097.3626
-1142.3039
-1188.7864
-1236.429
-1284.7675
-1333.2569
-1381.2776
-1428.1432
-1473.1115
-1515.3976
-1554.1906
-1588.6705
-1618.0292
-1641.4904
-1658.3317
-1667.9049
-1669.6566
-1663.1453
-1648.0569
-1624.2163
-1591.5943
-1550.3112
-1500.6339
-1442.9689
-1377.8506
-1305.9249
-1227.93
-1144.6739
-1057.0119
-965.82266
-871.98655
-776.36489
-679.78257
-583.01354
-486.76973
-391.69336
-298.35252
-207.23951
-118.77179
-33.294834
48.913481
127.63737
202.71695
274.04173
341.54402
405.19245
464.98587
520.94769
573.12059
621.56187
666.33922
707.527
745.20302
779.44571
810.33205
837.93463
862.31954
883.54339
901.65556
916.71117
928.78738
937.82608
943.63358
945.97446
10.028698
10.616569
12.035289
12.917968
13.22731
12.860121
11.724493
9.7367273
6.8221787
2.9152856
-2.03961
-8.089547
-15.270081
-23.60662
-33.115376
-43.803608
-55.669338
-68.701487
-82.879933
-98.175445
-114.54984
-131.95592
-150.33771
-169.63055
-189.7615
-210.64972
-232.20712
-254.33916
-276.94586
-299.92309
-323.16408
-346.56133
-370.0084
-393.40249
-416.6469
-439.65377
-462.34712
-484.66577
-506.56651
-528.02696
-549.04852
-569.65871
-589.91337
-609.89818
-629.72861
-649.55218
-669.54291
-689.90263
-710.86503
-732.68695
-755.62791
-779.94459
-805.8937
-833.71864
-863.63993
-895.8463
-930.48338
-967.64346
-1007.3558
-1049.5774
-1094.1853
-1140.9702
-1189.6318
-1239.7767
-1290.9184
-1342.48
-1393.8001
-1444.1408
-1492.6998
-1538.6247
-1581.0303
-1619.0186
-1651.7006
-1678.22
-1697.7769
-1709.6517
-1713.2273
-1708.0099
-1693.6453
-1669.9334
-1636.8359
-1594.4802
-1543.157
-1483.3119
-1415.5325
-1340.5296
-1259.1146
-1172.175
-1080.6474
-985.4912
-887.66365
-788.09681
-687.67824
-587.23521
-487.52293
-389.21677
-292.90807
-199.10328
-108.22575
-20.619742
63.443981
143.7615
220.18843
292.63234
361.04525
425.4164
485.76549
542.13642
594.59172
643.20748
688.06901
729.26694
766.89395
801.04193
831.8
859.25165
883.47276
904.52882
922.47715
937.3802
949.32168
958.25244
963.98689
966.29826
11.054926
12.280853
14.394278
15.934435
16.862979
17.071175
16.462373
14.948706
12.452039
8.9039258
4.2466043
-1.5687744
-8.5788768
-16.808703
-26.27393
-36.981028
-48.926759
-62.098296
-76.473335
-92.019945
-108.69672
-126.45267
-145.2274
-164.9512
-185.54538
-206.92264
-228.98773
-251.63821
-274.76548
-298.25615
-321.9936
-345.85994
-369.73801
-393.51404
-417.08039
-440.33853
-463.20233
-485.60133
-507.4843
-528.82249
-549.61297
-569.88147
-589.68494
-609.11351
-628.29075
-647.37664
-666.56029
-686.066
-706.15626
-727.11636
-749.23627
-772.80988
-798.13157
-825.48386
-855.12699
-887.28879
-922.15191
-959.84239
-1000.4185
-1043.8604
-1090.0608
-1138.8178
-1189.8289
-1242.6886
-1296.8869
-1351.8127
-1406.7589
-1460.9312
-1513.461
-1563.4204
-1609.8416
-1651.7384
-1688.131
-1718.0722
-1740.6745
-1755.1366
-1760.7691
-1757.0176
-1743.4822
-1719.9336
-1686.3226
-1642.7845
-1589.6367
-1527.3698
-1456.6321
-1378.2084
-1292.9945
-1201.9681
-1106.1589
-1006.6179
-904.38906
-800.48393
-695.85983
-591.40275
-487.91494
-386.10708
-286.59456
-189.89748
-96.443703
-6.5741619
79.450172
161.44022
239.2702
312.86889
382.2111
447.30956
508.20747
564.97172
617.68684
666.44968
711.36484
752.5407
790.0861
824.10749
854.70705
881.97994
906.01249
926.87951
944.64669
959.38394
971.18131
979.99811
985.65608
987.93671
12.168921
14.085279
16.950106
19.200903
20.798322
21.627612
21.58695
20.58395
18.536677
15.373644
11.034823
5.4695218
-1.3602256
-9.478789
-18.901147
-29.632939
-41.669522
-54.996174
-69.588333
-85.411258
-102.42019
-120.56015
-139.76614
-159.96311
-181.06632
-202.9816
-225.60604
-248.82872
-272.53177
-296.59174
-320.88125
-345.27105
-369.63209
-393.83846
-417.77028
-441.31693
-464.38072
-486.88049
-508.75559
-529.96955
-550.51394
-570.41163
-589.72001
-608.53311
-626.98277
-645.24163
-663.51503
-682.05163
-701.14455
-721.11019
-742.27353
-764.96865
-789.53218
-816.29033
-845.54833
-877.57833
-912.60523
-950.79386
-992.23631
-1036.9399
-1084.8167
-1135.6747
-1189.2111
-1245.008
-1302.5315
-1361.1338
-1420.0581
-1478.4487
-1535.3634
-1589.7908
-1640.6705
-1686.9176
-1727.45
-1761.2175
-1787.233
-1804.6024
-1812.5534
-1810.4624
-1797.8768
-1774.5332
-1740.3693
-1695.529
-1640.3601
-1575.4044
-1501.3795
-1419.1552
-1329.7238
-1234.1666
-1133.619
-1029.236
-922.15995
-813.4912
-704.26465
-595.43084
-487.8429
-382.24882
-279.28845
-179.49468
-83.297912
8.9669994
97.052106
180.78671
260.06727
334.84737
405.12804
470.94873
532.3791
589.51163
642.45519
691.32946
736.26008
777.3747
814.79955
848.65674
879.06241
906.12411
929.93917
950.59219
968.1575
982.71255
994.35352
1003.0479
1008.6242
1010.8721
13.370693
16.031816
19.707708
22.7252
25.043878
26.542431
27.1134
26.659503
25.094676
22.344249
18.345761
13.04667
6.4075372
-1.5951947
-10.975687
-21.73855
-33.87761
-47.376203
-62.207419
-78.333607
-95.706533
-114.26711
-133.94551
-154.66113
-176.32281
-198.82914
-222.06907
-245.92259
-270.26187
-294.95258
-319.85563
-344.82932
-369.73154
-394.42289
-418.7698
-442.64806
-465.9468
-488.57255
-510.45359
-531.54419
-551.82899
-571.32678
-590.09439
-608.22908
-625.87088
-643.20527
-660.4548
-677.8943
-695.84947
-714.67181
-734.72456
-756.38597
-780.03947
-806.06056
-834.80536
-866.59608
-901.70581
-940.34401
-982.64192
-1028.639
-1078.2706
-1131.3579
-1187.5996
-1246.5665
-1307.7
-1370.3128
-1433.5949
-1496.6232
-1558.3748
-1617.7455
-1673.5718
-1724.658
-1769.8064
-1807.8506
-1837.6903
-1858.3257
-1868.8899
-1868.6797
-1857.1815
-1834.0926
-1799.3347
-1753.0611
-1695.6538
-1627.7127
-1550.0353
-1463.5888
-1369.476
-1268.8966
-1163.107
-1053.3806
-940.97022
-827.07627
-712.81961
-599.22149
-487.1898
-377.51164
-270.85131
-167.75297
-68.646926
26.141459
116.3812
201.92416
282.69326
358.67101
429.88852
496.41552
558.35132
615.81687
668.94788
717.88894
762.78858
803.79521
841.05378
874.70306
904.874
931.68721
955.25154
975.66173
993.00099
1007.3544
1018.8239
1027.3851
1032.8731
1035.0857
14.66871
18.132563
22.682705
26.52615
29.621415
31.840029
33.068373
33.203858
32.155934
29.846629
26.210788
21.194165
14.755841
6.8730954
-2.4674514
-13.268921
-25.523507
-39.212526
-54.306658
-70.76527
-88.536562
-107.5572
-127.75239
-149.03569
-171.30928
-194.46409
-218.38044
-242.92867
-267.97022
-293.35906
-318.94338
-344.56788
-370.07611
-395.31373
-420.13189
-444.39112
-467.96558
-490.74764
-512.65268
-533.62392
-553.63736
-572.70624
-590.8856
-608.27501
-625.02243
-641.32618
-657.42689
-673.62739
-690.28838
-707.80027
-726.56786
-747.01805
-769.5866
-794.70434
-822.78441
-854.20576
-889.29644
-928.31703
-971.44415
-1018.755
-1070.2131
-1125.6566
-1184.7882
-1247.1686
-1312.2137
-1379.195
-1447.2451
-1515.3672
-1582.4497
-1647.2859
-1708.5976
-1765.0645
-1815.3589
-1858.1825
-1892.3068
-1916.6113
-1930.1213
-1932.0419
-1921.7893
-1899.0143
-1863.62
-1815.769
-1755.8823
-1684.626
-1602.889
-1511.7504
-1412.44
-1306.2935
-1194.7054
-1079.0834
-960.80589
-841.18487
-721.43665
-602.6597
-485.82053
-371.74678
-261.12662
-154.51323
-52.333394
45.101296
137.58156
224.98673
307.27109
384.4507
456.59112
523.79628
586.19865
643.95069
697.21755
746.17098
790.98426
831.8281
868.86736
902.25855
932.14816
958.67049
981.94636
1002.0809
1019.1665
1033.2957
1044.5762
1052.9914
1058.383
1060.557
16.065246
20.39234
25.883348
30.615357
34.5457
37.538037
39.471993
40.239215
39.744308
37.905872
34.655786
29.938408
23.711685
15.952798
6.6494935
-4.198937
-16.583153
-30.482411
-45.864954
-62.687123
-80.893494
-100.4164
-121.17592
-143.07961
-166.02265
-189.888
-214.54683
-239.85924
-265.67523
-291.83614
-318.17641
-344.52595
-370.71253
-396.56535
-421.91855
-446.61549
-470.51342
-493.48844
-515.44095
-536.30102
-556.03404
-574.64591
-592.18836
-608.76207
-624.52243
-639.68032
-654.49532
-669.30002
-684.49287
-700.50681
-717.7919
-736.82876
-758.11145
-782.13259
-809.36951
-840.26541
-875.2108
-914.52487
-958.43673
-1007.0677
-1060.4154
-1118.3391
-1180.5489
-1246.597
-1315.8737
-1387.6072
-1460.8682
-1534.5801
-1607.5343
-1678.4104
-1745.8028
-1808.2519
-1864.2828
-1912.4481
-1951.3734
-1979.8012
-1996.6329
-2000.9688
-1992.1431
-1969.7529
-1933.6779
-1884.091
-1821.4565
-1746.5166
-1660.2647
-1563.9089
-1458.825
-1346.5047
-1228.5008
-1106.3741
-981.64464
-855.74974
-730.01125
-605.61173
-483.58004
-364.78532
-249.93821
-139.59782
-34.182951
66.013823
160.81059
250.11994
333.93311
412.30502
485.34048
553.18197
615.99888
673.97846
727.31806
776.21887
820.8808
861.49838
898.25764
931.33369
960.88935
987.07314
1010.0182
1029.8404
1046.6411
1060.5205
1071.592
1079.8464
1085.1321
1087.2639
17.567227
22.821524
29.323817
35.010638
39.837976
43.660772