/*--------------------------------*- C++ -*----------------------------------*\
| =========                 |                                                 |
| \\      /  F ield         | foam-extend: Open Source CFD                    |
|  \\    /   O peration     | Version:     4.1                                |
|   \\  /    A nd           | Web:         http://www.foam-extend.org         |
|    \\/     M anipulation  |                                                 |
\*---------------------------------------------------------------------------*/
FoamFile
{
    version     2.0;
    format      ascii;
    class       volScalarField;
    location    "0.9";
    object      rAU;
}
// * * * * * * * * * * * * * * * * * * * * * * * * * * * * * * * * * * * * * //

dimensions      [0 0 1 0 0 0 0];

internalField   nonuniform List<scalar> 
16796
(
0.00012862457
0.00012860777
0.00012860118
0.0001285918
0.00012857749
0.00012855876
0.00012853287
0.00012850017
0.00012845792
0.00012840658
0.00012834353
0.00012826942
0.00012818185
0.00012808168
0.00012796679
0.00012783833
0.0001276945
0.00012753677
0.00012736368
0.00012717705
0.00012697575
0.00012676194
0.00012653482
0.00012629685
0.00012604753
0.00012578959
0.00012552278
0.00012525003
0.00012497124
0.00012468949
0.00012440478
0.00012411984
0.00012383623
0.00012355435
0.00012327721
0.00012300471
0.00012273972
0.00012248196
0.00012223408
0.00012199554
0.00012176873
0.00012155293
0.00012134968
0.00012115894
0.00012098099
0.00012081587
0.00012066343
0.0001205235
0.00012039553
0.00012027901
0.00012017323
0.0001200774
0.0001199906
0.00011991197
0.00011984042
0.00011977497
0.00011971461
0.00011965838
0.00011960533
0.00011955476
0.00011950584
0.00011945804
0.00011941091
0.00011936418
0.00011931773
0.00011927156
0.00011922602
0.00011918133
0.00011913803
0.00011909676
0.00011905819
0.00011902305
0.00011899225
0.00011896662
0.00011894717
0.00011893478
0.0001189303
0.00011893026
0.00011893447
0.00011894791
0.0001189712
0.0001190047
0.00011904864
0.00011910312
0.00011916804
0.00011924317
0.0001193281
0.00011942229
0.00011952506
0.00011963557
0.00011975304
0.00011987638
0.00012000458
0.00012013657
0.00012027124
0.00012040747
0.00012054413
0.00012068026
0.00012081469
0.00012094649
0.00012107471
0.00012119849
0.00012131697
0.00012142952
0.00012153537
0.00012163395
0.0001217247
0.00012180716
0.00012188086
0.00012194555
0.0001220008
0.00012204639
0.00012208209
0.00012210772
0.00012212312
0.00012212317
0.00012210778
0.00012208219
0.00012204658
0.00012200151
0.00012194797
0.00012188595
0.00012181299
0.000121704
0.00011647494
0.00011651737
0.00011657866
0.00011664083
0.00011670101
0.00011675978
0.00011681476
0.00011686647
0.00011691246
0.00011694379
0.00011695998
0.00011696746
0.00011696415
0.00011695102
0.0001169262
0.0001168909
0.00011684346
0.00011678532
0.00011671509
0.00011663449
0.00011654239
0.00011644075
0.00011632873
0.00011620853
0.00011607953
0.00011594416
0.00011580199
0.00011565563
0.00011550478
0.00011535216
0.00011519758
0.0001150434
0.00011489092
0.00011474029
0.00011459421
0.00011445239
0.00011431738
0.00011418876
0.00011406888
0.00011395712
0.0001138556
0.00011376354
0.0001136823
0.00011361175
0.0001135521
0.00011350332
0.00011346523
0.00011343761
0.00011341994
0.0001134117
0.00011341222
0.00011342075
0.00011343643
0.00011345849
0.00011348592
0.00011351783
0.00011355333
0.00011359157
0.00011363172
0.0001136732
0.00011371532
0.00011375766
0.00011379992
0.00011384194
0.00011388372
0.00011392538
0.00011396733
0.00011400899
0.00011405084
0.00011409351
0.0001141376
0.00011418382
0.00011423311
0.0001142863
0.00011434428
0.00011440788
0.00011447796
0.00011455147
0.00011462839
0.00011471349
0.00011480757
0.00011491118
0.00011502475
0.0001151486
0.00011528287
0.00011542758
0.00011558256
0.00011574751
0.00011592198
0.00011610537
0.00011629709
0.00011649625
0.00011670202
0.00011691345
0.00011712956
0.00011734933
0.00011757171
0.00011779577
0.00011802039
0.00011824463
0.00011846754
0.00011868822
0.00011890579
0.00011911955
0.00011932867
0.00011953249
0.00011973041
0.00011992184
0.00012010624
0.00012028327
0.00012045238
0.00012061326
0.00012076557
0.00012090902
0.0001210433
0.00012116321
0.0001212684
0.00012136384
0.00012144948
0.00012152539
0.00012159176
0.00012163391
0.00012166331
0.00012167735
0.00011563953
0.00011568142
0.00011574493
0.00011580769
0.0001158675
0.00011592526
0.0001159789
0.00011602924
0.00011607416
0.00011610521
0.00011610541
0.00011608817
0.00011605993
0.00011602205
0.00011597308
0.0001159146
0.00011584539
0.00011576727
0.00011567922
0.00011558328
0.00011547864
0.00011536752
0.0001152493
0.00011512635
0.0001149982
0.00011486733
0.00011473339
0.00011459893
0.00011446364
0.00011433011
0.00011419801
0.00011406954
0.00011394578
0.00011382667
0.00011371461
0.00011360904
0.0001135122
0.00011342335
0.00011334453
0.00011327475
0.00011321582
0.00011316662
0.00011312817
0.00011310001
0.00011308204
0.00011307394
0.00011307524
0.00011308547
0.00011310387
0.00011312971
0.00011316217
0.00011320034
0.00011324326
0.00011329011
0.00011333983
0.00011338272
0.00011342375
0.00011346773
0.00011351381
0.00011356136
0.00011360961
0.00011365802
0.00011370614
0.00011375363
0.00011380032
0.00011384614
0.00011389132
0.00011393505
0.00011397767
0.00011401964
0.00011406142
0.00011410358
0.00011414694
0.00011419224
0.00011424046
0.00011429254
0.00011434951
0.00011441233
0.00011448208
0.00011455954
0.00011464562
0.00011474104
0.00011484637
0.0001149621
0.00011508849
0.00011522571
0.00011537373
0.00011553236
0.00011570124
0.00011587986
0.0001160677
0.0001162639
0.00011646767
0.00011667807
0.00011689413
0.00011711482
0.00011733903
0.00011756583
0.00011779405
0.00011802269
0.00011825074
0.00011847727
0.00011870131
0.00011892213
0.00011913882
0.0001193507
0.00011955707
0.00011975734
0.00011995091
0.00012013738
0.00012031618
0.00012048697
0.00012064935
0.00012080302
0.00012094763
0.00012108304
0.00012120889
0.000121325
0.00012143106
0.00012152659
0.00012161109
0.00012167157
0.00012171768
0.00012172751
0.00011553783
0.00011558119
0.00011564719
0.0001157133
0.00011577714
0.00011583944
0.00011589802
0.00011595362
0.00011600406
0.00011605011
0.00011606268
0.00011603404
0.00011599382
0.00011594356
0.00011588198
0.00011581084
0.00011572907
0.00011563866
0.00011553877
0.00011543158
0.00011531643
0.00011519569
0.00011506885
0.0001149384
0.00011480396
0.0001146681
0.00011453051
0.00011439381
0.00011425768
0.00011412473
0.00011399462
0.00011386952
0.00011375044
0.00011363726
0.0001135323
0.00011343493
0.00011334727
0.00011326846
0.00011320044
0.00011314209
0.00011309508
0.00011305817
0.00011303224
0.00011301671
0.00011301134
0.00011301568
0.00011302912
0.00011305109
0.00011308072
0.00011311716
0.00011315949
0.00011320674
0.00011325786
0.00011330029
0.00011333472
0.00011336479
0.00011339548
0.00011343149
0.00011347184
0.00011351566
0.00011356187
0.00011360961
0.00011365803
0.00011370638
0.00011375402
0.00011380044
0.00011384541
0.00011388867
0.00011393027
0.00011397041
0.00011400947
0.00011404796
0.00011408671
0.00011412644
0.00011416816
0.00011421288
0.0001142617
0.0001143157
0.00011437609
0.00011444378
0.00011451984
0.00011460513
0.00011470039
0.00011480625
0.00011492315
0.00011505136
0.00011519099
0.00011534195
0.00011550398
0.00011567664
0.00011585946
0.00011605163
0.00011625237
0.00011646074
0.00011667577
0.00011689639
0.00011712147
0.00011735003
0.00011758085
0.00011781289
0.00011804507
0.0001182764
0.00011850587
0.00011873268
0.00011895587
0.0001191747
0.00011938845
0.00011959645
0.00011979807
0.00011999289
0.0001201803
0.00012035991
0.00012053131
0.00012069416
0.00012084808
0.00012099288
0.00012112818
0.00012125372
0.00012136912
0.00012147385
0.00012156755
0.00012165234
0.00012172192
0.00012173905
0.00011546617
0.0001155131
0.00011558348
0.00011565496
0.00011572507
0.00011579443
0.00011586074
0.00011592467
0.00011598393
0.0001160392
0.00011607542
0.0001160387
0.00011598993
0.00011593073
0.00011585991
0.00011577932
0.000115688
0.00011558804
0.00011547869
0.00011536223
0.00011523813
0.00011510882
0.0001149739
0.00011483596
0.00011469468
0.00011455273
0.00011440984
0.0001142687
0.00011412904
0.00011399351
0.00011386179
0.00011373607
0.00011361738
0.00011350559
0.00011340301
0.00011330897
0.00011322558
0.00011315193
0.00011308988
0.00011303828
0.00011299871
0.00011296985
0.00011295248
0.00011294593
0.00011294983
0.00011296364
0.00011298663
0.00011301809
0.00011305703
0.00011310249
0.00011315342
0.00011320873
0.00011325019
0.00011326895
0.00011328319
0.00011330543
0.00011333478
0.00011337022
0.00011341067
0.00011345515
0.00011350245
0.00011355155
0.00011360145
0.00011365122
0.00011370008
0.00011374734
0.00011379262
0.00011383552
0.00011387597
0.00011391408
0.00011395015
0.00011398466
0.00011401842
0.00011405216
0.00011408692
0.00011412383
0.00011416405
0.00011420879
0.00011425941
0.00011431697
0.00011438269
0.0001144576
0.00011454262
0.00011463853
0.00011474591
0.00011486518
0.00011499656
0.00011514008
0.00011529556
0.00011546262
0.00011564084
0.00011582943
0.00011602762
0.00011623448
0.00011644899
0.00011667007
0.00011689654
0.00011712738
0.00011736129
0.00011759719
0.00011783394
0.00011807048
0.00011830575
0.00011853889
0.00011876889
0.00011899495
0.0001192163
0.00011943226
0.00011964214
0.00011984548
0.00012004166
0.00012023023
0.00012041079
0.00012058294
0.00012074629
0.00012090062
0.00012104549
0.00012118059
0.00012130546
0.0001214196
0.0001215226
0.00012161659
0.00012169353
0.00012172497
0.00011539057
0.00011544167
0.00011551698
0.00011559427
0.00011567106
0.00011574789
0.00011582237
0.00011589508
0.00011596365
0.00011602867
0.00011608516
0.00011604677
0.00011598966
0.00011592172
0.00011584184
0.00011575195
0.00011565119
0.00011554173
0.00011542293
0.00011529716
0.00011516397
0.0001150259
0.00011488264
0.00011473685
0.00011458831
0.00011443974
0.00011429098
0.00011414474
0.00011400085
0.00011386197
0.00011372785
0.00011360069
0.00011348154
0.00011337031
0.00011326929
0.00011317781
0.00011309794
0.00011302878
0.00011297211
0.00011292674
0.00011289419
0.00011287304
0.000112864
0.00011286629
0.00011287943
0.00011290276
0.00011293542
0.00011297658
0.00011302509
0.00011307988
0.00011313976
0.00011319528
0.00011320372
0.00011320537
0.00011321677
0.00011323712
0.00011326544
0.00011330066
0.00011334158
0.00011338709
0.00011343584
0.00011348665
0.00011353835
0.00011358984
0.00011364014
0.00011368841
0.00011373411
0.00011377667
0.00011381593
0.00011385188
0.00011388476
0.00011391501
0.00011394342
0.00011397076
0.00011399814
0.00011402676
0.0001140579
0.00011409292
0.00011413331
0.00011418032
0.00011423533
0.00011429957
0.00011437411
0.00011445991
0.0001145577
0.00011466804
0.00011479128
0.00011492754
0.00011507671
0.00011523848
0.00011541247
0.0001155979
0.000115794
0.00011599982
0.00011621431
0.00011643634
0.00011666469
0.00011689826
0.00011713572
0.00011737589
0.00011761759
0.00011785969
0.00011810105
0.00011834077
0.00011857779
0.00011881126
0.00011904036
0.00011926436
0.00011948256
0.00011969445
0.00011989939
0.00012009693
0.00012028661
0.00012046804
0.00012064079
0.00012080464
0.00012095913
0.00012110389
0.00012123849
0.00012136243
0.00012147525
0.00012157929
0.00012166563
0.00012170913
0.00011530678
0.0001153627
0.00011544353
0.0001155272
0.00011561121
0.00011569604
0.00011577923
0.00011586127
0.00011593969
0.00011601501
0.00011608476
0.00011605534
0.00011598995
0.00011591327
0.00011582426
0.00011572496
0.00011561457
0.00011549537
0.00011536682
0.00011523138
0.00011508871
0.00011494142
0.00011478932
0.00011463515
0.00011447878
0.00011432301
0.00011416776
0.0001140158
0.00011386703
0.00011372418
0.00011358702
0.00011345782
0.00011333765
0.00011322642
0.00011312645
0.00011303707
0.00011296034
0.00011289531
0.00011284376
0.00011280442
0.00011277875
0.00011276528
0.0001127646
0.00011277583
0.00011279841
0.00011283152
0.00011287418
0.00011292543
0.00011298397
0.00011304857
0.0001131179
0.00011314683
0.00011313335
0.00011313149
0.00011314041
0.00011315928
0.00011318705
0.00011322256
0.00011326447
0.00011331155
0.00011336228
0.00011341531
0.00011346927
0.00011352288
0.00011357497
0.00011362452
0.0001136708
0.00011371313
0.00011375118
0.00011378487
0.00011381436
0.00011384006
0.00011386277
0.0001138833
0.00011390283
0.00011392264
0.00011394418
0.00011396894
0.00011399861
0.00011403459
0.00011407849
0.0001141317
0.00011419549
0.00011427099
0.0001143591
0.00011446053
0.00011457572
0.0001147049
0.00011484805
0.0001150049
0.00011517508
0.00011535783
0.00011555237
0.00011575771
0.00011597277
0.00011619635
0.00011642717
0.00011666406
0.00011690563
0.00011715061
0.00011739777
0.00011764588
0.00011789377
0.00011814046
0.00011838484
0.00011862601
0.00011886311
0.00011909537
0.00011932205
0.00011954264
0.00011975644
0.000119963
0.00012016184
0.00012035254
0.00012053469
0.00012070803
0.00012087207
0.00012102646
0.00012117076
0.00012130453
0.00012142724
0.00012154176
0.00012163857
0.00012169452
0.00011521671
0.00011527774
0.00011536447
0.00011545488
0.00011554647
0.00011563966
0.00011573191
0.00011582363
0.00011591228
0.00011599825
0.000116079
0.0001160646
0.0001159908
0.00011590519
0.00011580682
0.00011569781
0.00011557747
0.00011544817
0.00011530946
0.00011516392
0.00011501128
0.00011485429
0.00011469283
0.00011452974
0.00011436499
0.00011420147
0.00011403916
0.00011388093
0.00011372673
0.00011357936
0.00011343866
0.00011330693
0.00011318527
0.00011307363
0.00011297434
0.00011288674
0.00011281287
0.00011275178
0.00011270519
0.00011267182
0.00011265305
0.00011264731
0.00011265515
0.00011267556
0.00011270786
0.00011275111
0.00011280418
0.00011286598
0.00011293504
0.00011300998
0.00011308483
0.00011307104
0.00011305315
0.00011304801
0.00011305477
0.00011307254
0.00011310021
0.00011313648
0.00011317992
0.00011322911
0.00011328237
0.00011333815
0.00011339488
0.00011345108
0.00011350536
0.00011355651
0.00011360363
0.00011364585
0.00011368273
0.00011371408
0.00011374001
0.00011376088
0.00011377751
0.00011379076
0.0001138019
0.00011381234
0.00011382368
0.00011383758
0.00011385591
0.00011388031
0.00011391257
0.0001139543
0.00011400698
0.00011407192
0.00011415017
0.0001142426
0.00011434977
0.00011447201
0.00011460936
0.00011476159
0.00011492835
0.00011510888
0.00011530235
0.00011550776
0.00011572394
0.00011594964
0.00011618351
0.00011642429
0.0001166705
0.00011692081
0.0001171739
0.00011742847
0.00011768329
0.00011793731
0.00011818936
0.00011843849
0.00011868382
0.00011892453
0.00011915986
0.00011938926
0.00011961203
0.00011982769
0.00012003577
0.00012023582
0.00012042743
0.00012061032
0.00012078401
0.00012094816
0.00012110233
0.0001212461
0.00012137895
0.00012150438
0.00012161226
0.00012168068
0.00011511913
0.00011518575
0.00011527886
0.00011537651
0.00011547618
0.00011557823
0.00011568006
0.00011578199
0.00011588139
0.00011597855
0.00011607083
0.00011607535
0.00011599303
0.00011589834
0.00011579039
0.00011567139
0.00011554077
0.00011540097
0.00011525166
0.00011509552
0.0001149324
0.00011476514
0.00011459373
0.00011442111
0.00011424735
0.00011407542
0.00011390541
0.00011374026
0.00011358002
0.00011342752
0.00011328269
0.00011314785
0.00011302419
0.00011291166
0.00011281263
0.00011272643
0.00011265513
0.00011259773
0.00011255596
0.00011252847
0.00011251658
0.00011251867
0.00011253518
0.00011256502
0.00011260736
0.00011266115
0.00011272511
0.00011279798
0.00011287814
0.00011296403
0.00011302117
0.00011298468
0.00011296257
0.00011295443
0.0001129594
0.00011297653
0.00011300461
0.00011304224
0.00011308781
0.00011313976
0.0001131962
0.00011325537
0.00011331548
0.00011337481
0.00011343178
0.00011348494
0.00011353318
0.0001135755
0.00011361129
0.00011364025
0.00011366243
0.00011367819
0.00011368834
0.00011369383
0.00011369602
0.00011369646
0.00011369693
0.00011369928
0.00011370562
0.0001137178
0.00011373784
0.00011376759
0.00011380873
0.00011386278
0.00011393097
0.0001140143
0.00011411348
0.00011422892
0.00011436071
0.00011450866
0.00011467243
0.00011485124
0.00011504422
0.00011525029
0.00011546823
0.00011569671
0.00011593427
0.00011617958
0.00011643106
0.0001166873
0.00011694687
0.00011720842
0.00011747062
0.00011773238
0.00011799246
0.00011824987
0.00011850369
0.00011875306
0.0001189972
0.00011923553
0.00011946736
0.00011969217
0.00011990949
0.0001201189
0.00012031995
0.00012051238
0.00012069572
0.00012086962
0.00012103371
0.00012118757
0.0001213307
0.00012146734
0.00012158656
0.00012166735
0.00011501476
0.00011508729
0.00011518716
0.00011529248
0.00011540067
0.00011551203
0.0001156239
0.00011573652
0.00011584716
0.00011595601
0.00011606031
0.00011608806
0.00011599707
0.00011589305
0.00011577523
0.00011564591
0.00011550459
0.00011535385
0.00011519346
0.00011502619
0.00011485203
0.0001146739
0.00011449192
0.00011430913
0.00011412571
0.00011394473
0.00011376637
0.00011359367
0.00011342673
0.00011326849
0.00011311894
0.00011298046
0.00011285428
0.0001127404
0.00011264122
0.00011255608
0.00011248706
0.00011243316
0.00011239607
0.00011237441
0.00011236945
0.0001123795
0.0001124049
0.00011244445
0.00011249723
0.00011256202
0.0001126374
0.00011272193
0.00011281383
0.00011291133
0.00011292961
0.00011288772
0.00011286154
0.00011285067
0.00011285422
0.00011287117
0.0001129002
0.0001129398
0.00011298818
0.0001130436
0.00011310394
0.00011316723
0.00011323141
0.00011329454
0.00011335476
0.0001134104
0.00011346016
0.00011350282
0.00011353763
0.00011356418
0.00011358246
0.0001135928
0.00011359605
0.00011359323
0.00011358583
0.00011357556
0.00011356441
0.00011355444
0.00011354801
0.00011354722
0.00011355436
0.00011357151
0.0001136006
0.00011364335
0.00011370119
0.00011377527
0.00011386643
0.00011397515
0.0001141016
0.00011424559
0.00011440679
0.00011458437
0.00011477742
0.00011498477
0.00011520513
0.00011543705
0.00011567899
0.00011592949
0.00011618689
0.00011644966
0.00011671629
0.00011698534
0.00011725542
0.00011752535
0.00011779384
0.00011805987
0.00011832246
0.00011858073
0.00011883387
0.0001190813
0.0001193223
0.00011955636
0.00011978301
0.00012000182
0.00012021235
0.00012041435
0.00012060737
0.00012079108
0.00012096512
0.00012112914
0.00012128268
0.0001214307
0.00012156137
0.00012165441
0.00011490285
0.00011498174
0.00011508884
0.0001152023
0.00011531951
0.00011544072
0.0001155632
0.00011568707
0.00011580954
0.00011593067
0.00011604759
0.00011610339
0.00011600354
0.00011588996
0.00011576196
0.00011562192
0.00011546948
0.00011530731
0.00011513529
0.00011495631
0.00011477047
0.00011458083
0.0001143876
0.00011419395
0.00011400016
0.00011380941
0.00011362199
0.00011344102
0.00011326671
0.00011310207
0.00011294716
0.00011280445
0.0001126752
0.00011255948
0.0001124597
0.00011237527
0.00011230823
0.00011225762
0.00011222508
0.00011220922
0.00011221125
0.00011222941
0.00011226395
0.00011231358
0.00011237722
0.00011245354
0.00011254094
0.00011263781
0.00011274216
0.00011285204
0.00011282699
0.00011277974
0.00011274966
0.00011273634
0.00011273887
0.00011275614
0.00011278674
0.00011282899
0.00011288094
0.00011294062
0.0001130057
0.00011307391
0.00011314297
0.00011321063
0.00011327478
0.00011333348
0.0001133852
0.0001134285
0.00011346249
0.00011348664
0.00011350086
0.00011350547
0.00011350136
0.00011348964
0.00011347195
0.0001134502
0.00011342657
0.00011340342
0.00011338335
0.00011336875
0.0001133622
0.00011336606
0.00011338251
0.00011341349
0.00011346065
0.00011352529
0.00011360837
0.00011371046
0.00011383179
0.00011397217
0.00011413126
0.00011430816
0.00011450189
0.00011471121
0.00011493469
0.00011517079
0.00011541783
0.00011567426
0.00011593826
0.00011620823
0.00011648255
0.00011675968
0.00011703814
0.0001173167
0.00011759402
0.000117869
0.00011814065
0.00011840805
0.00011867038
0.00011892705
0.00011917732
0.0001194207
0.00011965671
0.00011988493
0.00012010495
0.00012031653
0.00012051922
0.00012071274
0.00012089677
0.00012107099
0.00012123499
0.00012139447
0.00012153661
0.00012164174
0.00011478355
0.00011486916
0.0001149839
0.00011510598
0.00011523272
0.0001153643
0.00011549792
0.00011563364
0.00011576852
0.00011590255
0.00011603271
0.00011612186
0.00011601293
0.00011588949
0.00011575093
0.00011559977
0.00011543572
0.00011526157
0.00011507733
0.00011488602
0.00011468784
0.00011448598
0.00011428079
0.00011407554
0.00011387063
0.00011366937
0.00011347214
0.00011328217
0.00011309977
0.00011292804
0.00011276713
0.00011261956
0.00011248668
0.00011236861
0.00011226781
0.0001121837
0.00011211836
0.00011207082
0.00011204273
0.00011203265
0.00011204175
0.00011206821
0.00011211219
0.00011217228
0.00011224729
0.00011233572
0.00011243581
0.00011254575
0.00011266335
0.0001127744
0.00011271292
0.00011266033
0.0001126265
0.00011261103
0.00011261295
0.0001126311
0.00011266391
0.00011270957
0.00011276593
0.00011283077
0.0001129015
0.00011297559
0.00011305043
0.00011312348
0.00011319233
0.00011325475
0.00011330896
0.00011335329
0.00011338668
0.00011340845
0.00011341845
0.00011341699
0.00011340502
0.00011338376
0.000113355
0.00011332087
0.00011328382
0.00011324649
0.00011321179
0.00011318242
0.00011316129
0.00011315105
0.00011315416
0.00011317283
0.00011320889
0.00011326384
0.00011333875
0.00011343429
0.00011355071
0.00011368783
0.00011384526
0.00011402206
0.00011421713
0.00011442913
0.00011465649
0.00011489755
0.00011515049
0.0001154136
0.00011568497
0.00011596285
0.00011624552
0.00011653134
0.00011681875
0.00011710643
0.000117393
0.00011767731
0.00011795833
0.00011823513
0.00011850685
0.00011877291
0.00011903258
0.00011928535
0.00011953078
0.00011976844
0.00011999795
0.00012021909
0.00012043146
0.00012063478
0.00012082879
0.00012101321
0.00012118771
0.00012135866
0.00012151223
0.00012162931
0.00011465636
0.00011474913
0.00011487199
0.00011500318
0.00011513999
0.00011528252
0.00011542791
0.0001155761
0.00011572407
0.00011587166
0.00011601577
0.00011614321
0.00011602586
0.00011589222
0.00011574272
0.00011557995
0.00011540376
0.00011521705
0.00011501995
0.0001148156
0.00011460436
0.00011438953
0.00011417159
0.00011395393
0.00011373711
0.00011352452
0.00011331668
0.00011311692
0.00011292568
0.00011274612
0.00011257851
0.00011242544
0.00011228833
0.00011216738
0.00011206509
0.00011198092
0.00011191698
0.00011187232
0.00011184856
0.00011184427
0.00011186055
0.00011189553
0.00011194928
0.00011202028
0.00011210722
0.00011220842
0.00011232194
0.00011244579
0.00011257753
0.00011266557
0.00011258697
0.00011252903
0.0001124916
0.00011247429
0.00011247606
0.00011249566
0.00011253143
0.00011258133
0.00011264301
0.00011271401
0.00011279144
0.00011287245
0.0001129541
0.00011303352
0.00011310796
0.00011317488
0.00011323219
0.00011327801
0.00011331104
0.0001133305
0.00011333613
0.00011332825
0.00011330787
0.00011327634
0.00011323564
0.00011318815
0.00011313662
0.00011308398
0.00011303353
0.00011298832
0.00011295159
0.00011292633
0.00011291532
0.00011292103
0.00011294553
0.00011299049
0.00011305712
0.00011314616
0.0001132579
0.00011339214
0.00011354843
0.00011372574
0.00011392286
0.00011413831
0.00011437038
0.00011461724
0.00011487692
0.00011514756
0.00011542709
0.00011571364
0.00011600537
0.00011630053
0.00011659746
0.00011689479
0.00011719106
0.00011748509
0.0001177758
0.00011806224
0.00011834357
0.00011861917
0.00011888834
0.00011915058
0.00011940545
0.00011965257
0.00011989156
0.00012012225
0.00012034425
0.00012055735
0.00012076131
0.00012095591
0.00012114088
0.00012132326
0.0001214882
0.00012161707
0.00011452118
0.00011462151
0.00011475294
0.00011489375
0.00011504118
0.00011519527
0.00011535305
0.00011551438
0.00011567613
0.00011583802
0.0001159968
0.00011615212
0.00011604289
0.00011589869
0.00011573779
0.0001155629
0.00011537397
0.00011517405
0.00011496339
0.00011474528
0.00011452019
0.00011429158
0.00011406006
0.00011382916
0.00011359956
0.00011337479
0.0001131555
0.00011294513
0.00011274422
0.00011255607
0.00011238102
0.00011222177
0.00011207982
0.00011195543
0.00011185115
0.00011176653
0.00011170368
0.00011166168
0.00011164216
0.00011164366
0.00011166725
0.000111711
0.0001117749
0.00011185731
0.00011195678
0.00011207148
0.00011219927
0.00011233793
0.0001124848
0.00011253444
0.00011244859
0.00011238527
0.00011234439
0.00011232554
0.00011232764
0.00011234935
0.00011238884
0.00011244391
0.00011251195
0.00011259023
0.00011267552
0.00011276464
0.00011285427
0.00011294117
0.00011302222
0.00011309453
0.00011315568
0.00011320351
0.0001132365
0.00011325372
0.00011325484
0.00011324016
0.00011321077
0.00011316816
0.00011311455
0.00011305259
0.00011298536
0.00011291618
0.00011284871
0.00011278641
0.00011273292
0.00011269161
0.00011266558
0.0001126576
0.00011267
0.00011270463
0.00011276283
0.00011284543
0.00011295271
0.00011308447
0.00011324016
0.00011341866
0.00011361861
0.00011383835
0.00011407602
0.00011432959
0.00011459693
0.00011487599
0.00011516456
0.0001154606
0.00011576214
0.00011606733
0.00011637441
0.00011668194
0.00011698838
0.00011729253
0.00011759326
0.00011788963
0.00011818076
0.00011846606
0.00011874483
0.0001190166
0.00011928095
0.00011953752
0.00011978598
0.00012002617
0.00012025776
0.00012048058
0.00012069444
0.00012089916
0.00012109454
0.00012128829
0.00012146448
0.00012160501
0.00011437765
0.00011448598
0.00011462647
0.00011477745
0.00011493609
0.00011510237
0.00011527322
0.00011544841
0.00011562469
0.00011580166
0.00011597592
0.00011614698
0.00011606473
0.00011590955
0.00011573676
0.00011554917
0.00011534687
0.00011513303
0.00011490806
0.00011467537
0.00011443559
0.00011419231
0.00011394631
0.00011370126
0.00011345797
0.0001132201
0.00011298845
0.00011276658
0.00011255517
0.00011235759
0.00011217434
0.00011200818
0.00011186072
0.0001117323
0.00011162554
0.00011154004
0.00011147796
0.00011143841
0.00011142303
0.00011143034
0.0001114614
0.00011151421
0.00011158867
0.00011168304
0.00011179573
0.00011192474
0.00011206772
0.00011222221
0.0001123853
0.00011239058
0.00011229726
0.00011222852
0.00011218431
0.00011216424
0.00011216719
0.00011219169
0.00011223577
0.00011229702
0.00011237256
0.00011245935
0.00011255382
0.00011265237
0.00011275131
0.00011284696
0.00011293578
0.00011301448
0.0001130803
0.00011313076
0.0001131641
0.0001131792
0.00011317566
0.00011315376
0.00011311469
0.00011306012
0.0001129925
0.00011291482
0.00011283054
0.00011274338
0.00011265747
0.0001125767
0.00011250515
0.0001124466
0.00011240454
0.00011238206
0.00011238173
0.00011240564
0.00011245525
0.00011253144
0.00011263452
0.00011276423
0.00011291994
0.00011310035
0.00011330397
0.00011352893
0.00011377316
0.00011403444
0.00011431042
0.00011459888
0.0001148974
0.0001152038
0.00011551597
0.00011583192
0.00011614982
0.00011646811
0.00011678523
0.0001170999
0.000117411
0.00011771756
0.0001180187
0.00011831385
0.00011860232
0.00011888367
0.00011915751
0.00011942352
0.0001196814
0.00011993104
0.00012017215
0.00012040461
0.00012062828
0.00012084304
0.00012104875
0.00012125376
0.00012144109
0.00012159311
0.00011422555
0.00011434232
0.00011449236
0.00011465405
0.00011482452
0.00011500364
0.00011518828
0.00011537809
0.00011556971
0.00011576258
0.00011595319
0.00011614087
0.00011609204
0.00011592543
0.00011574019
0.00011553928
0.00011532291
0.00011509439
0.00011485428
0.00011460614
0.00011435077
0.0001140919
0.00011383046
0.00011357027
0.00011331232
0.00011306039
0.00011281542
0.00011258112
0.00011235828
0.00011215042
0.00011195814
0.00011178431
0.00011163064
0.00011149757
0.00011138779
0.00011130097
0.00011123932
0.000111202
0.00011119065
0.00011120382
0.0001112425
0.00011130468
0.00011139016
0.0001114971
0.00011162376
0.00011176795
0.00011192712
0.00011209857
0.00011227909
0.00011223338
0.0001121323
0.00011205805
0.00011201065
0.0001119897
0.00011199403
0.00011202207
0.00011207169
0.00011214023
0.00011222454
0.00011232122
0.00011242633
0.00011253583
0.00011264557
0.00011275139
0.0001128493
0.00011293557
0.00011300702
0.00011306083
0.00011309496
0.00011310809
0.00011309973
0.00011307016
0.00011302067
0.00011295313
0.00011287029
0.00011277549
0.00011267263
0.0001125659
0.00011245993
0.00011235912
0.00011226803
0.00011219092
0.00011213168
0.00011209376
0.00011208003
0.00011209276
0.00011213358
0.00011220342
0.00011230259
0.00011243074
0.00011258711
0.00011277026
0.00011297846
0.00011320964
0.0001134615
0.00011373157
0.00011401727
0.00011431617
0.00011462565
0.00011494335
0.000115267
0.0001155945
0.0001159239
0.00011625356
0.00011658186
0.0001169075
0.00011722931
0.00011754633
0.00011785769
0.00011816283
0.00011846109
0.00011875205
0.00011903538
0.00011931079
0.00011957803
0.00011983704
0.00012008758
0.00012032958
0.00012056295
0.00012078764
0.00012100355
0.0001212197
0.00012141802
0.00012158137
0.00011406459
0.00011419026
0.00011435036
0.00011452335
0.00011470628
0.00011489895
0.00011509814
0.00011530338
0.00011551118
0.00011572087
0.00011592875
0.00011613399
0.00011612563
0.00011594707
0.00011574879
0.00011553387
0.00011530266
0.00011505864
0.0001148025
0.00011453798
0.00011426603
0.00011399055
0.00011371265
0.00011343629
0.00011316262
0.00011289559
0.00011263629
0.00011238855
0.00011215333
0.00011193427
0.00011173208
0.00011154977
0.00011138915
0.00011125077
0.00011113739
0.00011104879
0.00011098722
0.00011095189
0.00011094447
0.00011096352
0.00011101002
0.0001110819
0.0001111789
0.00011129907
0.00011144051
0.00011160086
0.00011177734
0.00011196698
0.00011216626
0.00011206222
0.00011195305
0.00011187318
0.00011182269
0.0001118012
0.00011180749
0.00011183989
0.00011189607
0.00011197313
0.00011206761
0.00011217573
0.00011229311
0.00011241524
0.00011253745
0.00011265507
0.00011276358
0.00011285874
0.00011293692
0.00011299491
0.00011303035
0.00011304171
0.00011302837
0.00011299063
0.0001129299
0.00011284827
0.00011274883
0.00011263533
0.00011251216
0.00011238406
0.00011225621
0.00011213359
0.00011202131
0.00011192414
0.00011184644
0.00011179203
0.00011176412
0.00011176519
0.000111797
0.00011186055
0.00011195611
0.00011208324
0.00011224102
0.00011242779
0.00011264161
0.00011288013
0.00011314077
0.0001134208
0.0001137174
0.00011402786
0.00011434938
0.00011467938
0.00011501543
0.0001153553
0.00011569692
0.00011603859
0.00011637861
0.00011671565
0.00011704853
0.00011737628
0.00011769805
0.00011801331
0.00011832142
0.00011862203