/*--------------------------------*- C++ -*----------------------------------*\
| =========                 |                                                 |
| \\      /  F ield         | foam-extend: Open Source CFD                    |
|  \\    /   O peration     | Version:     4.1                                |
|   \\  /    A nd           | Web:         http://www.foam-extend.org         |
|    \\/     M anipulation  |                                                 |
\*---------------------------------------------------------------------------*/
FoamFile
{
    version     2.0;
    format      ascii;
    class       volVectorField;
    location    "0.9";
    object      U;
}
// * * * * * * * * * * * * * * * * * * * * * * * * * * * * * * * * * * * * * //

dimensions      [0 1 -1 0 0 0 0];

internalField   nonuniform List<vector> 
16796
(
(138.87207 -0.031152244 0)
(138.87423 -0.041916012 0)
(138.8953 -0.046521033 0)
(138.92489 -0.050405182 0)
(138.96394 -0.054477042 0)
(139.01366 -0.058968835 0)
(139.07558 -0.063928165 0)
(139.15126 -0.069352446 0)
(139.2422 -0.075219746 0)
(139.34978 -0.081497005 0)
(139.47525 -0.088138444 0)
(139.61971 -0.095085582 0)
(139.78408 -0.10227336 0)
(139.96904 -0.10963035 0)
(140.17512 -0.11708038 0)
(140.40258 -0.12454471 0)
(140.65145 -0.13194293 0)
(140.92156 -0.13919408 0)
(141.21245 -0.14621761 0)
(141.52346 -0.15293418 0)
(141.85367 -0.15926701 0)
(142.20195 -0.16514257 0)
(142.56693 -0.17049193 0)
(142.94706 -0.17525157 0)
(143.34057 -0.17936458 0)
(143.74555 -0.18278142 0)
(144.15993 -0.18546097 0)
(144.5815 -0.18737119 0)
(145.008 -0.1884899 0)
(145.43706 -0.18880518 0)
(145.8663 -0.18831585 0)
(146.29333 -0.18703166 0)
(146.71579 -0.18497342 0)
(147.13138 -0.18217267 0)
(147.53791 -0.17867161 0)
(147.93331 -0.17452247 0)
(148.31566 -0.16978695 0)
(148.68325 -0.16453525 0)
(149.03456 -0.15884525 0)
(149.36832 -0.15280117 0)
(149.68351 -0.14649242 0)
(149.9794 -0.14001199 0)
(150.25553 -0.13345502 0)
(150.51173 -0.12691712 0)
(150.74813 -0.12049253 0)
(150.96514 -0.11427244 0)
(151.16345 -0.10834312 0)
(151.34403 -0.10278415 0)
(151.50806 -0.097666613 0)
(151.65696 -0.09305152 0)
(151.79232 -0.088988347 0)
(151.91589 -0.085513801 0)
(152.0295 -0.082650575 0)
(152.13508 -0.080406552 0)
(152.23454 -0.078774602 0)
(152.32978 -0.07773232 0)
(152.4226 -0.077242215 0)
(152.51468 -0.077252434 0)
(152.60754 -0.077697753 0)
(152.70247 -0.078501139 0)
(152.80052 -0.079575502 0)
(152.90245 -0.08082605 0)
(153.00874 -0.082153125 0)
(153.11954 -0.083455972 0)
(153.23469 -0.08463592 0)
(153.3537 -0.085598692 0)
(153.47578 -0.086256995 0)
(153.59987 -0.086531056 0)
(153.72462 -0.086349567 0)
(153.84849 -0.085649704 0)
(153.96973 -0.084379545 0)
(154.08647 -0.082493851 0)
(154.19672 -0.079953822 0)
(154.29843 -0.076743142 0)
(154.38951 -0.072883376 0)
(154.46802 -0.068410148 0)
(154.53215 -0.063345619 0)
(154.58027 -0.057694137 0)
(154.61073 -0.051494078 0)
(154.62197 -0.044868403 0)
(154.61299 -0.037955396 0)
(154.58311 -0.030870206 0)
(154.53195 -0.023726335 0)
(154.45949 -0.016636794 0)
(154.36605 -0.0097118624 0)
(154.25223 -0.003056406 0)
(154.11898 0.0032326131 0)
(153.96747 0.0090682511 0)
(153.79916 0.014375234 0)
(153.6157 0.019091117 0)
(153.41888 0.023166917 0)
(153.21067 0.026567303 0)
(152.99308 0.02927031 0)
(152.76822 0.031266659 0)
(152.53817 0.032558777 0)
(152.30504 0.033159564 0)
(152.07086 0.033090996 0)
(151.8376 0.032382628 0)
(151.60715 0.031070093 0)
(151.38129 0.029193651 0)
(151.16168 0.026796795 0)
(150.94987 0.023925023 0)
(150.74727 0.020624763 0)
(150.55515 0.016942456 0)
(150.37468 0.012923851 0)
(150.20689 0.0086135043 0)
(150.05269 0.0040544145 0)
(149.91289 -0.00071209238 0)
(149.78817 -0.0056463387 0)
(149.67915 -0.01071003 0)
(149.58632 -0.015865759 0)
(149.51012 -0.021076098 0)
(149.45089 -0.026302959 0)
(149.40891 -0.031504015 0)
(149.38437 -0.036627713 0)
(149.37743 -0.041611436 0)
(149.38804 -0.046400489 0)
(149.416 -0.05092549 0)
(149.46104 -0.055019352 0)
(149.5234 -0.05833909 0)
(149.60358 -0.060528655 0)
(149.70018 -0.062110051 0)
(149.79744 -0.062025471 0)
(149.87492 -0.050484015 0)
(158.62274 0.033887961 0)
(158.49902 0.02102461 0)
(158.40026 0.01329702 0)
(158.30463 0.0054868513 0)
(158.21567 -0.0034901126 0)
(158.13495 -0.014017571 0)
(158.06407 -0.026187907 0)
(158.00458 -0.039972825 0)
(157.95803 -0.055276456 0)
(157.92587 -0.071954772 0)
(157.90927 -0.089844281 0)
(157.90927 -0.10877428 0)
(157.92679 -0.12855877 0)
(157.96252 -0.14899795 0)
(158.01705 -0.16988049 0)
(158.0907 -0.19098269 0)
(158.18364 -0.21207329 0)
(158.29579 -0.23291468 0)
(158.42687 -0.25326751 0)
(158.57637 -0.27289282 0)
(158.74355 -0.29155623 0)
(158.92747 -0.30903045 0)
(159.12696 -0.3250994 0)
(159.34065 -0.33956077 0)
(159.56699 -0.35222983 0)
(159.80426 -0.36294193 0)
(160.05058 -0.3715558 0)
(160.30393 -0.37795571 0)
(160.5622 -0.38205409 0)
(160.8232 -0.38379322 0)
(161.08467 -0.38314684 0)
(161.34436 -0.38012126 0)
(161.6 -0.37475609 0)
(161.8494 -0.36712402 0)
(162.09041 -0.35733082 0)
(162.32101 -0.34551409 0)
(162.53932 -0.33184205 0)
(162.74362 -0.31651114 0)
(162.93238 -0.29974381 0)
(163.10433 -0.28178493 0)
(163.2584 -0.26289858 0)
(163.39381 -0.24336334 0)
(163.51004 -0.22346812 0)
(163.60686 -0.20350684 0)
(163.68434 -0.18377309 0)
(163.74282 -0.16455453 0)
(163.78294 -0.14612704 0)
(163.80558 -0.12874893 0)
(163.81191 -0.11265505 0)
(163.80327 -0.098051269 0)
(163.78123 -0.085109709 0)
(163.74752 -0.073964563 0)
(163.70397 -0.064707156 0)
(163.65249 -0.057383419 0)
(163.59502 -0.051992043 0)
(163.53348 -0.048481716 0)
(163.46972 -0.046751571 0)
(163.40547 -0.046654166 0)
(163.34228 -0.04799856 0)
(163.28152 -0.05055478 0)
(163.22428 -0.054059489 0)
(163.17139 -0.058222441 0)
(163.12337 -0.062734381 0)
(163.0804 -0.067273402 0)
(163.04234 -0.071513117 0)
(163.00871 -0.075131968 0)
(162.9787 -0.077822919 0)
(162.95118 -0.079302165 0)
(162.92473 -0.079318017 0)
(162.8977 -0.077657354 0)
(162.86818 -0.074150947 0)
(162.83413 -0.068673222 0)
(162.79343 -0.061142935 0)
(162.74391 -0.051533808 0)
(162.68345 -0.039890518 0)
(162.60994 -0.026316682 0)
(162.52134 -0.010944943 0)
(162.41577 0.0060767199 0)
(162.29185 0.024552024 0)
(162.14859 0.044196466 0)
(161.98498 0.064684336 0)
(161.80037 0.085691415 0)
(161.59438 0.10688863 0)
(161.36696 0.12794705 0)
(161.11839 0.14854536 0)
(160.84925 0.16837758 0)
(160.56042 0.18716002 0)
(160.25303 0.20463714 0)
(159.92846 0.22058628 0)
(159.58829 0.23482091 0)
(159.23425 0.24719255 0)
(158.86822 0.25759137 0)
(158.49216 0.26594549 0)
(158.10808 0.27221924 0)
(157.71801 0.27641046 0)
(157.32399 0.2785471 0)
(156.92798 0.27868338 0)
(156.53193 0.27689553 0)
(156.13766 0.27327754 0)
(155.74692 0.26793699 0)
(155.36135 0.26099095 0)
(154.98246 0.25256236 0)
(154.61165 0.2427767 0)
(154.2502 0.23175917 0)
(153.89925 0.21963233 0)
(153.55986 0.20651423 0)
(153.23294 0.19251699 0)
(152.91932 0.17774588 0)
(152.6197 0.16229878 0)
(152.33473 0.1462661 0)
(152.06494 0.12973109 0)
(151.81081 0.11277075 0)
(151.57272 0.095456763 0)
(151.351 0.077859363 0)
(151.14594 0.060054543 0)
(150.95774 0.042126673 0)
(150.78659 0.024158338 0)
(150.63252 0.006247504 0)
(150.49543 -0.011356497 0)
(150.37568 -0.028108893 0)
(150.2734 -0.043596476 0)
(150.18722 -0.059585802 0)
(150.10834 -0.073302284 0)
(150.03437 -0.067213085 0)
(160.08942 0.10097732 0)
(159.97474 0.092251413 0)
(159.89295 0.081954312 0)
(159.81748 0.069684221 0)
(159.75184 0.055155436 0)
(159.69719 0.038155491 0)
(159.65454 0.018639734 0)
(159.62477 -0.0033239022 0)
(159.60863 -0.02758786 0)
(159.60673 -0.053942469 0)
(159.61973 -0.082139901 0)
(159.64815 -0.11191163 0)
(159.69233 -0.14296629 0)
(159.75247 -0.1749909 0)
(159.82861 -0.20765407 0)
(159.92062 -0.24060659 0)
(160.0282 -0.27348738 0)
(160.15088 -0.30592599 0)
(160.28805 -0.33754896 0)
(160.4389 -0.36798327 0)
(160.60249 -0.39686265 0)
(160.7777 -0.42383148 0)
(160.9633 -0.44855114 0)
(161.15789 -0.47070405 0)
(161.35997 -0.48999978 0)
(161.56792 -0.5061789 0)
(161.78003 -0.51901852 0)
(161.99451 -0.52833567 0)
(162.20954 -0.53399181 0)
(162.42323 -0.53589552 0)
(162.63371 -0.53400541 0)
(162.83911 -0.52833204 0)
(163.03761 -0.5189391 0)
(163.22745 -0.50594362 0)
(163.40696 -0.4895158 0)
(163.5746 -0.46987729 0)
(163.72897 -0.44729934 0)
(163.86882 -0.42209902 0)
(163.99311 -0.39463577 0)
(164.10099 -0.36530557 0)
(164.19185 -0.33453584 0)
(164.2653 -0.30277777 0)
(164.32121 -0.27049967 0)
(164.35968 -0.23817804 0)
(164.3811 -0.20628913 0)
(164.38606 -0.17529965 0)
(164.37543 -0.1456572 0)
(164.35027 -0.1177808 0)
(164.31186 -0.092051066 0)
(164.26165 -0.068801366 0)
(164.20125 -0.048309616 0)
(164.13237 -0.030791409 0)
(164.0568 -0.016393558 0)
(163.97637 -0.0051868893 0)
(163.89291 0.0028390159 0)
(163.80819 0.0077763844 0)
(163.72388 0.0097917654 0)
(163.64151 0.0091305663 0)
(163.56243 0.0061120663 0)
(163.48777 0.0011199523 0)
(163.41841 -0.0054046342 0)
(163.35495 -0.012975122 0)
(163.29769 -0.021071189 0)
(163.24661 -0.029152961 0)
(163.20137 -0.036674089 0)
(163.1613 -0.043095969 0)
(163.12544 -0.047902188 0)
(163.09253 -0.0506134 0)
(163.06106 -0.05080118 0)
(163.02927 -0.048101403 0)
(162.99524 -0.042224315 0)
(162.9569 -0.032964116 0)
(162.9121 -0.020204673 0)
(162.85865 -0.0039181057 0)
(162.79438 0.01583531 0)
(162.71719 0.038899858 0)
(162.62514 0.065026242 0)
(162.51645 0.09388139 0)
(162.38956 0.12506993 0)
(162.24314 0.15815678 0)
(162.0762 0.19265849 0)
(161.88803 0.2280494 0)
(161.67826 0.26378681 0)
(161.44685 0.29932641 0)
(161.19409 0.33413623 0)
(160.92057 0.36770951 0)
(160.6272 0.39957629 0)
(160.31513 0.42931311 0)
(159.98577 0.45655068 0)
(159.64074 0.48097938 0)
(159.28179 0.50235239 0)
(158.91085 0.52048667 0)
(158.5299 0.53526189 0)
(158.14098 0.54661749 0)
(157.74616 0.55454835 0)
(157.34749 0.55909919 0)
(156.94698 0.56035818 0)
(156.54656 0.55845004 0)
(156.1481 0.553529 0)
(155.75334 0.54577185 0)
(155.36393 0.53537132 0)
(154.98139 0.52252996 0)
(154.60712 0.50745474 0)
(154.24241 0.4903523 0)
(153.88839 0.47142499 0)
(153.54611 0.45086777 0)
(153.21649 0.4288658 0)
(152.90034 0.40559268 0)
(152.59837 0.38120954 0)
(152.31121 0.35586455 0)
(152.03939 0.32969307 0)
(151.78337 0.30281831 0)
(151.54355 0.27535268 0)
(151.32025 0.24740039 0)
(151.11373 0.21906151 0)
(150.92421 0.1904328 0)
(150.7518 0.1616108 0)
(150.59653 0.13272046 0)
(150.45847 0.10401814 0)
(150.33798 0.07594959 0)
(150.23469 0.048647106 0)
(150.14748 0.01971989 0)
(150.0737 -0.0061748538 0)
(150.01981 -0.018136364 0)
(160.17119 0.15153026 0)
(160.056 0.13866487 0)
(159.97599 0.12246794 0)
(159.90292 0.10311101 0)
(159.84021 0.08068331 0)
(159.78898 0.055212947 0)
(159.75029 0.026792609 0)
(159.72502 -0.0044151838 0)
(159.71394 -0.038189217 0)
(159.71767 -0.07426429 0)
(159.7367 -0.11233067 0)
(159.77137 -0.15203999 0)
(159.82192 -0.19301495 0)
(159.88838 -0.23485001 0)
(159.97068 -0.27711877 0)
(160.06854 -0.31937755 0)
(160.18156 -0.36117174 0)
(160.30915 -0.40203956 0)
(160.45058 -0.44151882 0)
(160.60497 -0.47915102 0)
(160.77129 -0.51448876 0)
(160.94837 -0.54710019 0)
(161.13493 -0.57657665 0)
(161.32955 -0.60253733 0)
(161.53072 -0.62463677 0)
(161.73683 -0.64256943 0)
(161.94621 -0.65607656 0)
(162.15712 -0.66495034 0)
(162.36778 -0.6690395 0)
(162.57641 -0.66825281 0)
(162.78121 -0.66256268 0)
(162.9804 -0.65200776 0)
(163.17226 -0.63669434 0)
(163.35514 -0.61679692 0)
(163.52746 -0.5925579 0)
(163.68778 -0.56428545 0)
(163.83477 -0.53235122 0)
(163.96728 -0.4971854 0)
(164.08433 -0.45927234 0)
(164.18513 -0.41914284 0)
(164.2691 -0.37736755 0)
(164.33591 -0.3345468 0)
(164.38543 -0.29130185 0)
(164.4178 -0.24826297 0)
(164.43338 -0.20605834 0)
(164.4328 -0.16530155 0)
(164.4169 -0.12657899 0)
(164.38674 -0.090437079 0)
(164.3436 -0.057369295 0)
(164.28892 -0.027803329 0)
(164.22429 -0.0020921587 0)
(164.15144 0.019495181 0)
(164.07217 0.036784162 0)
(163.98831 0.049706459 0)
(163.9017 0.058296954 0)
(163.81412 0.062694905 0)
(163.72728 0.063157743 0)
(163.6427 0.060043708 0)
(163.56177 0.053806821 0)
(163.48563 0.044989867 0)
(163.41517 0.034209614 0)
(163.35101 0.022144008 0)
(163.29345 0.0095153151 0)
(163.24247 -0.0029278569 0)
(163.19771 -0.014430628 0)
(163.15852 -0.024251994 0)
(163.12389 -0.03168478 0)
(163.09254 -0.036074618 0)
(163.06291 -0.036837613 0)
(163.0332 -0.033476686 0)
(163.00142 -0.025596873 0)
(162.96545 -0.012917476 0)
(162.92306 0.0047192909 0)
(162.87199 0.027342862 0)
(162.81 0.054856225 0)
(162.73495 0.087038891 0)
(162.64479 0.12354805 0)
(162.5377 0.16392298 0)
(162.41207 0.2076035 0)
(162.26654 0.25395626 0)
(162.10009 0.30228721 0)
(161.91199 0.35185559 0)
(161.70188 0.40189689 0)
(161.4697 0.45164433 0)
(161.21577 0.50034876 0)
(160.94072 0.5472971 0)
(160.64547 0.59182856 0)
(160.33124 0.63334841 0)
(159.99947 0.67133868 0)
(159.65182 0.70536579 0)
(159.29013 0.73508493 0)
(158.91635 0.76024136 0)
(158.53253 0.7806687 0)
(158.14074 0.79628482 0)
(157.74311 0.80708552 0)
(157.34172 0.81313665 0)
(156.9386 0.81456497 0)
(156.53573 0.81154848 0)
(156.13497 0.80430641 0)
(155.73811 0.79308945 0)
(155.3468 0.77817051 0)
(154.96255 0.75983611 0)
(154.58678 0.73837888 0)
(154.22075 0.71409099 0)
(153.86561 0.68725875 0)
(153.5224 0.65815839 0)
(153.19201 0.62705287 0)
(152.87525 0.59418977 0)
(152.57282 0.55980024 0)
(152.28534 0.52409885 0)
(152.01334 0.48728432 0)
(151.75725 0.44954127 0)
(151.51747 0.41104319 0)
(151.29432 0.37195746 0)
(151.08806 0.33245043 0)
(150.8989 0.29269051 0)
(150.72698 0.25285977 0)
(150.57237 0.21319749 0)
(150.43525 0.17408253 0)
(150.31591 0.13600757 0)
(150.21364 0.099223502 0)
(150.1279 0.061688064 0)
(150.05908 0.030399405 0)
(150.01445 0.0092647218 0)
(160.18237 0.22005883 0)
(160.06269 0.20360832 0)
(159.98002 0.18268727 0)
(159.90447 0.15745972 0)
(159.83942 0.12813707 0)
(159.78599 0.094879051 0)
(159.74527 0.057885801 0)
(159.71822 0.017418143 0)
(159.70561 -0.026203927 0)
(159.70812 -0.072614881 0)
(159.72626 -0.12140571 0)
(159.76039 -0.17212354 0)
(159.81073 -0.22427395 0)
(159.87733 -0.27733629 0)
(159.96009 -0.33076697 0)
(160.05874 -0.38400399 0)
(160.17285 -0.43647563 0)
(160.30182 -0.48760431 0)
(160.44491 -0.5368155 0)
(160.60121 -0.58354231 0)
(160.76967 -0.62723464 0)
(160.94909 -0.66736424 0)
(161.13817 -0.70343387 0)
(161.33545 -0.73498263 0)
(161.53941 -0.76159465 0)
(161.74841 -0.78290445 0)
(161.96075 -0.79860475 0)
(162.17466 -0.80845138 0)
(162.38835 -0.81226974 0)
(162.59998 -0.80995892 0)
(162.80775 -0.80149596 0)
(163.00985 -0.78693906 0)
(163.20451 -0.76642923 0)
(163.39007 -0.74019128 0)
(163.5649 -0.70853364 0)
(163.72754 -0.67184597 0)
(163.87662 -0.63059675 0)
(164.01095 -0.58532753 0)
(164.12952 -0.53664787 0)
(164.23151 -0.48522616 0)
(164.31631 -0.43178172 0)
(164.38357 -0.37707238 0)
(164.43314 -0.32188379 0)
(164.46515 -0.26701446 0)
(164.47996 -0.21326197 0)
(164.47818 -0.16140699 0)
(164.46069 -0.11219722 0)
(164.42856 -0.066331144 0)
(164.38311 -0.024440305 0)
(164.32582 0.012928252 0)
(164.25834 0.04531839 0)
(164.18246 0.072381324 0)
(164.10004 0.093896394 0)
(164.013 0.10976952 0)
(163.92325 0.12004802 0)
(163.83265 0.12492652 0)
(163.74296 0.12473224 0)
(163.65582 0.11992824 0)
(163.57266 0.11110307 0)
(163.4947 0.098958505 0)
(163.42289 0.084295134 0)
(163.35787 0.06799315 0)
(163.29999 0.050991505 0)
(163.24924 0.034264061 0)
(163.20527 0.018794343 0)
(163.16738 0.0055493112 0)
(163.13456 -0.0045471395 0)
(163.10547 -0.010640367 0)
(163.07848 -0.011969457 0)
(163.05173 -0.0078891797 0)
(163.02315 0.0021118063 0)
(162.99052 0.018396132 0)
(162.95153 0.041166519 0)
(162.90381 0.070459526 0)
(162.84503 0.10614388 0)
(162.77295 0.1479234 0)
(162.68546 0.19534485 0)
(162.58063 0.24780963 0)
(162.4568 0.3045925 0)
(162.31257 0.36486559 0)
(162.14687 0.42772013 0)
(161.95895 0.49219034 0)
(161.74843 0.55728068 0)
(161.51529 0.62199313 0)
(161.25986 0.68535324 0)
(160.98279 0.74643408 0)
(160.68507 0.80437752 0)
(160.36797 0.85841203 0)
(160.033 0.90786661 0)
(159.68189 0.95218063 0)
(159.31653 0.99090929 0)
(158.93896 1.0237252 0)
(158.55129 1.050416 0)
(158.15567 1.0708787 0)
(157.75426 1.0851114 0)
(157.34921 1.0932026 0)
(156.94259 1.0953196 0)
(156.53641 1.091695 0)
(156.13257 1.0826147 0)
(155.73286 1.0684038 0)
(155.33895 1.0494157 0)
(154.95237 1.02602 0)
(154.57451 0.99859315 0)
(154.20665 0.96750982 0)
(153.84993 0.93313568 0)
(153.50535 0.89582197 0)
(153.17382 0.85590121 0)
(152.85612 0.81368434 0)
(152.55293 0.76945909 0)
(152.26486 0.72348954 0)
(151.99241 0.67601664 0)
(151.73602 0.62726008 0)
(151.49607 0.57742152 0)
(151.27287 0.52668935 0)
(151.06668 0.47524392 0)
(150.87773 0.42326286 0)
(150.70617 0.3709365 0)
(150.55216 0.31851177 0)
(150.41594 0.26634109 0)
(150.29779 0.21481804 0)
(150.19704 0.1642259 0)
(150.11398 0.11251282 0)
(150.05033 0.068175877 0)
(150.01176 0.031142677 0)
(160.19436 0.27939755 0)
(160.06998 0.25784773 0)
(159.98395 0.2309889 0)
(159.90514 0.19893975 0)
(159.83698 0.16199182 0)
(159.7806 0.12041085 0)
(159.73712 0.074496104 0)
(159.70752 0.024600035 0)
(159.69263 -0.028867159 0)
(159.69315 -0.085446024 0)
(159.70962 -0.14463078 0)
(159.74245 -0.20587138 0)
(159.79186 -0.26858531 0)
(159.85793 -0.33215175 0)
(159.94058 -0.39592756 0)
(160.03953 -0.4592494 0)
(160.15437 -0.52144432 0)
(160.2845 -0.58183451 0)
(160.42916 -0.63974761 0)
(160.58745 -0.69452209 0)
(160.7583 -0.74551784 0)
(160.94049 -0.79212193 0)
(161.13269 -0.83375911 0)
(161.33344 -0.86989781 0)
(161.54115 -0.90006019 0)
(161.75417 -0.92382811 0)
(161.97074 -0.94085222 0)
(162.18906 -0.9508575 0)
(162.40727 -0.95365079 0)
(162.62351 -0.94912563 0)
(162.83589 -0.93726724 0)
(163.04256 -0.91815643 0)
(163.2417 -0.89197161 0)
(163.43156 -0.85899027 0)
(163.61047 -0.81958887 0)
(163.77691 -0.7742403 0)
(163.92945 -0.72351128 0)
(164.06684 -0.66805576 0)
(164.18804 -0.60860916 0)
(164.29216 -0.54597756 0)
(164.37858 -0.48102852 0)
(164.4469 -0.41467618 0)
(164.49696 -0.3478686 0)
(164.52887 -0.28156979 0)
(164.54301 -0.21674293 0)
(164.54 -0.15433116 0)
(164.52073 -0.095237898 0)
(164.48633 -0.04030775 0)
(164.43816 0.0096995503 0)
(164.37775 0.054122093 0)
(164.30685 0.092406869 0)
(164.22732 0.12413891 0)
(164.14111 0.14905663 0)
(164.05022 0.16705059 0)
(163.95667 0.17819292 0)
(163.86242 0.1827205 0)
(163.76933 0.18104143 0)
(163.67912 0.17372987 0)
(163.59333 0.16151376 0)
(163.51324 0.14526165 0)
(163.43987 0.12596295 0)
(163.37393 0.1047056 0)
(163.31577 0.082649454 0)
(163.26542 0.06099709 0)
(163.22253 0.040962578 0)
(163.18639 0.023739202 0)
(163.15592 0.010467096 0)
(163.12975 0.0022015716 0)
(163.10617 -0.00011680986 0)
(163.08323 0.0043103446 0)
(163.05876 0.016115549 0)
(163.03041 0.035746261 0)
(162.99577 0.063451017 0)
(162.95234 0.099271668 0)
(162.89768 0.14304141 0)
(162.82942 0.19438845 0)
(162.74535 0.25274552 0)
(162.64344 0.31736594 0)
(162.52195 0.38734638 0)
(162.37941 0.46165412 0)
(162.21471 0.53915568 0)
(162.02706 0.61864841 0)
(161.81609 0.698894 0)
(161.58179 0.7786522 0)
(161.3245 0.85671332 0)
(161.04494 0.93192813 0)
(160.74416 1.0032344 0)
(160.42349 1.069679 0)
(160.08454 1.1304352 0)
(159.72911 1.1848146 0)
(159.3592 1.2322739 0)
(158.97693 1.2724164 0)
(158.58449 1.3049889 0)
(158.18412 1.329874 0)
(157.77805 1.3470799 0)
(157.36849 1.3567266 0)
(156.95756 1.3590309 0)
(156.54733 1.3542904 0)
(156.13972 1.3428671 0)
(155.73656 1.3251713 0)
(155.33951 1.3016465 0)
(154.95011 1.2727558 0)
(154.56978 1.2389696 0)
(154.19976 1.2007552 0)
(153.84119 1.158568 0)
(153.49505 1.1128452 0)
(153.16223 1.064 0)
(152.8435 1.0124187 0)
(152.53951 0.95845888 0)
(152.25084 0.90244818 0)
(151.97797 0.84468538 0)
(151.72133 0.78544209 0)
(151.48127 0.724966 0)
(151.2581 0.66348513 0)
(151.05205 0.60121224 0)
(150.86336 0.53835039 0)
(150.69218 0.47510816 0)
(150.53873 0.41173185 0)
(150.40324 0.34851848 0)
(150.28597 0.28574435 0)
(150.1864 0.22364012 0)
(150.10546 0.15956766 0)
(150.04538 0.10255257 0)
(150.01036 0.049774889 0)
(160.21524 0.35063203 0)
(160.08484 0.32457575 0)
(159.9945 0.29227205 0)
(159.91152 0.25379663 0)
(159.83937 0.20948938 0)
(159.77922 0.15969403 0)
(159.73222 0.10479718 0)
(159.69939 0.045242662 0)
(159.6816 -0.018464447 0)
(159.67959 -0.085764603 0)
(159.69395 -0.15604848 0)
(159.7251 -0.22865705 0)
(159.77331 -0.30288871 0)
(159.83867 -0.37800377 0)
(159.92111 -0.45323868 0)
(160.02039 -0.52780907 0)
(160.13609 -0.60092247 0)
(160.26761 -0.67178336 0)
(160.41419 -0.73960533 0)
(160.57491 -0.80361703 0)
(160.74868 -0.86307424 0)
(160.93428 -0.9172663 0)
(161.13034 -0.96552804 0)
(161.33534 -1.0072464 0)
(161.54769 -1.0418716 0)
(161.76567 -1.0689243 0)
(161.98747 -1.088005 0)
(162.21123 -1.098801 0)
(162.43505 -1.1010945 0)
(162.65697 -1.0947685 0)
(162.87506 -1.0798122 0)
(163.08737 -1.0563258 0)
(163.29203 -1.0245229 0)
(163.48721 -0.98473272 0)
(163.67117 -0.9373999 0)
(163.84229 -0.88308207 0)
(163.9991 -0.82244723 0)
(164.14029 -0.75626629 0)
(164.26471 -0.68540685 0)
(164.37147 -0.61082078 0)
(164.45988 -0.5335338 0)
(164.52951 -0.45462821 0)
(164.58017 -0.37522813 0)
(164.61197 -0.29647835 0)
(164.62528 -0.21952455 0)
(164.62075 -0.14549033 0)
(164.59929 -0.075454058 0)
(164.56209 -0.010425392 0)
(164.51055 0.048688851 0)
(164.4463 0.10108976 0)
(164.37117 0.14611115 0)
(164.28711 0.18326115 0)
(164.1962 0.21221396 0)
(164.10055 0.23285558 0)
(164.00229 0.24526288 0)
(163.90351 0.24972104 0)
(163.8062 0.24672185 0)
(163.7122 0.23695354 0)
(163.62315 0.22129182 0)
(163.54042 0.20078194 0)
(163.46513 0.17661581 0)
(163.39803 0.15010478 0)
(163.33955 0.12264779 0)
(163.28971 0.095696107 0)
(163.24816 0.070715545 0)
(163.21417 0.049147133 0)
(163.18663 0.032367642 0)
(163.16407 0.021651018 0)
(163.14469 0.018132131 0)
(163.12645 0.02277378 0)
(163.10702 0.036338263 0)
(163.08396 0.059364244 0)
(163.05466 0.09214989 0)
(163.01651 0.13474322 0)
(162.96691 0.18693957 0)
(162.90335 0.24828634 0)
(162.82347 0.31809511 0)
(162.72514 0.3954614 0)
(162.60651 0.47929145 0)
(162.46604 0.56833458 0)
(162.30255 0.66121861 0)
(162.11523 0.75648895 0)
(161.9037 0.85264922 0)
(161.66795 0.94820214 0)
(161.40838 1.0416889 0)
(161.12576 1.1317254 0)
(160.82121 1.2170346 0)
(160.49616 1.2964728 0)
(160.15232 1.3690509 0)
(159.79161 1.433948 0)
(159.41613 1.4905199 0)
(159.0281 1.5382998 0)
(158.62983 1.5769944 0)
(158.22365 1.6064745 0)
(157.81189 1.6267611 0)
(157.39682 1.6380095 0)
(156.98064 1.6404903 0)
(156.56547 1.6345696 0)
(156.15327 1.620689 0)
(155.74588 1.5993466 0)
(155.345 1.5710783 0)
(154.95219 1.5364412 0)
(154.56883 1.4959996 0)
(154.19617 1.4503117 0)
(153.83534 1.3999204 0)
(153.4873 1.3453444 0)
(153.1529 1.2870729 0)
(152.8329 1.2255618 0)
(152.52792 1.1612312 0)
(152.23851 1.0944653 0)
(151.96514 1.0256128 0)
(151.7082 0.95499031 0)
(151.46804 0.88288517 0)
(151.24492 0.80956089 0)
(151.03911 0.73526227 0)
(150.8508 0.66022308 0)
(150.68018 0.58468173 0)
(150.52747 0.50890402 0)
(150.39292 0.43317993 0)
(150.27676 0.35777558 0)
(150.1786 0.28297164 0)
(150.0997 0.20548504 0)
(150.04232 0.1349249 0)
(150.00956 0.066658064 0)
(160.24142 0.41831454 0)
(160.10463 0.38713109 0)
(160.0095 0.34884158 0)
(159.92184 0.30348655 0)
(159.84524 0.25145169 0)
(159.7809 0.19315076 0)
(159.73 0.12905238 0)
(159.6936 0.05968906 0)
(159.67264 -0.014340438 0)
(159.66789 -0.092376855 0)
(159.67997 -0.17370965 0)
(159.70934 -0.25757345 0)
(159.7563 -0.34316495 0)
(159.82098 -0.42963686 0)
(159.90331 -0.51611537 0)
(160.00307 -0.60170469 0)
(160.11985 -0.68550008 0)
(160.25305 -0.76659465 0)
(160.4019 -0.84409255 0)
(160.56548 -0.91711613 0)
(160.74267 -0.98481944 0)
(160.93223 -1.0463955 0)
(161.13275 -1.1010896 0)
(161.34268 -1.1482069 0)
(161.56038 -1.1871251 0)
(161.78407 -1.2173017 0)
(162.01189 -1.2382859 0)
(162.24192 -1.2497254 0)
(162.47217 -1.251376 0)
(162.70063 -1.2431083 0)
(162.92526 -1.2249141 0)
(163.14406 -1.1969119 0)
(163.35505 -1.1593499 0)
(163.55633 -1.1126085 0)
(163.74606 -1.0572009 0)
(163.92255 -0.99377023 0)
(164.08424 -0.92308703 0)
(164.22974 -0.84604093 0)
(164.35784 -0.76363391 0)
(164.46759 -0.67696623 0)
(164.55823 -0.58722468 0)
(164.6293 -0.4956629 0)
(164.6806 -0.40358439 0)
(164.71219 -0.31231817 0)
(164.72447 -0.22319587 0)
(164.7181 -0.13752473 0)
(164.69402 -0.05656229 0)
(164.65349 0.018517168 0)
(164.59796 0.08665128 0)
(164.52917 0.14690308 0)
(164.44905 0.19849812 0)
(164.35967 0.24086093 0)
(164.26322 0.27360807 0)
(164.16196 0.29659727 0)
(164.05817 0.30991797 0)
(163.95407 0.31390011 0)
(163.8518 0.30911712 0)
(163.75334 0.29637578 0)
(163.66045 0.27670369 0)
(163.57464 0.25132909 0)
(163.4971 0.2216546 0)
(163.42868 0.18922482 0)
(163.36984 0.15568893 0)
(163.32064 0.12275906 0)
(163.28073 0.092165674 0)
(163.24934 0.065611164 0)
(163.22531 0.044723059 0)
(163.20709 0.031008232 0)
(163.19277 0.025809666 0)
(163.18015 0.030267063 0)
(163.1668 0.045282825 0)
(163.15007 0.071494395 0)
(163.1272 0.10925411 0)
(163.09539 0.15861748 0)
(163.05187 0.21934005 0)
(162.99394 0.29088318 0)
(162.91911 0.37242879 0)
(162.8251 0.46290297 0)
(162.70992 0.56100745 0)
(162.57196 0.66525794 0)
(162.40995 0.77402679 0)
(162.22306 0.88558993 0)
(162.01089 0.99817545 0)
(161.77345 1.1100124 0)
(161.51119 1.2193776 0)
(161.22496 1.3246392 0)
(160.91597 1.4242944 0)
(160.58575 1.5170017 0)
(160.23615 1.6016045 0)
(159.8692 1.6771483 0)
(159.48715 1.7428891 0)
(159.09235 1.7982943 0)
(158.68722 1.8430372 0)
(158.27423 1.876985 0)
(157.85579 1.9001823 0)
(157.43428 1.9128308 0)
(157.01198 1.9152666 0)
(156.59105 1.9079368 0)
(156.17351 1.8913748 0)
(155.76124 1.866178 0)
(155.35595 1.8329856 0)
(154.95919 1.7924593 0)
(154.57236 1.7452659 0)
(154.19669 1.6920633 0)
(153.83328 1.6334881 0)
(153.48307 1.5701467 0)
(153.14689 1.5026087 0)
(152.82546 1.431402 0)
(152.51936 1.3570109 0)
(152.22913 1.2798751 0)
(151.95518 1.2003909 0)
(151.69789 1.1189134 0)
(151.45757 1.0357606 0)
(151.23448 0.95121805 0)
(151.02884 0.86554397 0)
(150.84087 0.7789778 0)
(150.67074 0.69175382 0)
(150.51869 0.60411579 0)
(150.38496 0.5163101 0)
(150.26979 0.42856658 0)
(150.17291 0.34115937 0)
(150.09573 0.25010003 0)
(150.04032 0.16580512 0)
(150.00906 0.082479781 0)
(160.27436 0.49480746 0)
(160.13001 0.45872141 0)
(160.0293 0.41456896 0)
(159.9362 0.36237169 0)
(159.85443 0.30255953 0)
(159.78521 0.23560993 0)
(159.7298 0.16206912 0)
(159.68929 0.082557124 0)
(159.66468 -0.0022320494 0)
(159.65678 -0.091534861 0)
(159.66626 -0.18453469 0)
(159.69363 -0.28035257 0)
(159.7392 -0.37806414 0)
(159.80314 -0.47669753 0)
(159.88541 -0.57525404 0)
(159.98578 -0.67271145 0)
(160.10386 -0.76804007 0)
(160.23906 -0.86020953 0)
(160.39059 -0.94820386 0)
(160.55751 -1.0310292 0)
(160.73869 -1.1077288 0)
(160.93285 -1.1773912 0)
(161.13854 -1.2391648 0)
(161.35418 -1.2922659 0)
(161.57806 -1.3359936 0)
(161.80834 -1.3697367 0)
(162.04311 -1.392988 0)
(162.28035 -1.4053508 0)
(162.51801 -1.4065508 0)
(162.75398 -1.3964429 0)
(162.98614 -1.3750187 0)
(163.21239 -1.3424131 0)
(163.43066 -1.2989079 0)
(163.63894 -1.244935 0)
(163.83531 -1.181077 0)
(164.01797 -1.1080653 0)
(164.18526 -1.0267766 0)
(164.33572 -0.93822489 0)
(164.46805 -0.84355361 0)
(164.58122 -0.74402028 0)
(164.67442 -0.6409835 0)
(164.74713 -0.53588065 0)
(164.79912 -0.43020877 0)
(164.83044 -0.3254968 0)
(164.84148 -0.22327929 0)
(164.83293 -0.12506505 0)
(164.80578 -0.03230995 0)
(164.76132 0.053629722 0)
(164.70111 0.13151614 0)
(164.627 0.20025706 0)
(164.54101 0.25895856 0)
(164.44536 0.30693279 0)
(164.3424 0.34375296 0)
(164.23454 0.36924048 0)
(164.12424 0.38349398 0)
(164.01389 0.38689391 0)
(163.90579 0.38009996 0)
(163.80209 0.3640457 0)
(163.7047 0.3399224 0)
(163.61527 0.30915583 0)
(163.53509 0.27337605 0)
(163.46512 0.23437991 0)
(163.40586 0.19408742 0)
(163.35743 0.15449325 0)
(163.31945 0.11761457 0)
(163.29114 0.085436721 0)
(163.27125 0.059858541 0)
(163.25813 0.042638689 0)
(163.24977 0.035345038 0)
(163.24379 0.039308458 0)
(163.23758 0.055582817 0)
(163.22831 0.08491243 0)
(163.213 0.12770828 0)
(163.18866 0.18403409 0)
(163.15228 0.25360245 0)
(163.101 0.33578174 0)
(163.0321 0.42961352 0)
(162.94316 0.53384021 0)
(162.83204 0.64694199 0)
(162.69701 0.76718172 0)
(162.53674 0.89265548 0)
(162.35034 1.021348 0)
(162.1374 1.1511901 0)
(161.89797 1.2801158 0)
(161.63254 1.4061183 0)
(161.34206 1.5273003 0)
(161.02784 1.6419187 0)
(160.69156 1.7484222 0)
(160.33519 1.8454788 0)
(159.96094 1.9319949 0)
(159.57121 2.0071251 0)
(159.16849 2.0702721 0)
(158.75537 2.1210794 0)
(158.33444 2.1594166 0)
(157.90825 2.1853589 0)
(157.47927 2.199163 0)
(157.04988 2.2012395 0)
(156.62229 2.1921252 0)
(156.1986 2.1724544 0)
(155.7807 2.142932 0)
(155.37034 2.104308 0)
(154.96907 2.0573552 0)
(154.57827 2.002849 0)
(154.19918 1.9415515 0)
(153.83285 1.8741974 0)
(153.48022 1.8014843 0)
(153.14205 1.724065 0)
(152.81904 1.6425428 0)
(152.51174 1.5574691 0)
(152.22062 1.4693428 0)
(151.94609 1.3786117 0)
(151.68848 1.2856751 0)
(151.44806 1.1908881 0)
(151.22506 1.0945657 0)
(151.0197 0.99698872 0)
(150.83216 0.89841163 0)
(150.66262 0.79907279 0)
(150.5113 0.69920218 0)
(150.37843 0.59901438 0)
(150.26426 0.49870518 0)
(150.16859 0.39850319 0)
(150.09286 0.29368857 0)
(150.03895 0.195619 0)
(150.00873 0.097614479 0)
(160.31217 0.57156059 0)
(160.15959 0.53027146 0)
(160.0527 0.47996322 0)
(159.95353 0.42063956 0)
(159.866 0.35277734 0)
(159.79137 0.27691724 0)
(159.73094 0.19368246 0)
(159.68588 0.10378055 0)
(159.65724 0.00800121 0)
(159.64588 -0.092785785 0)
(159.65251 -0.19765728 0)
(159.67769 -0.30561986 0)
(159.72178 -0.41563468 0)
(159.78495 -0.52661239 0)
(159.86721 -0.63743248 0)
(159.96833 -0.74694992 0)
(160.08793 -0.85401087 0)
(160.22542 -0.95746166 0)
(160.38001 -1.0561651 0)
(160.55073 -1.149009 0)
(160.73644 -1.2349232 0)
(160.93581 -1.3128879 0)
(161.14735 -1.3819507 0)
(161.36943 -1.441235 0)
(161.60028 -1.489956 0)
(161.83801 -1.5274299 0)
(162.0806 -1.5530876 0)
(162.32598 -1.5664843 0)
(162.57199 -1.5673109 0)
(162.81643 -1.5554029 0)
(163.05709 -1.5307485 0)
(163.29175 -1.4934965 0)