/*--------------------------------*- C++ -*----------------------------------*\
| =========                 |                                                 |
| \\      /  F ield         | foam-extend: Open Source CFD                    |
|  \\    /   O peration     | Version:     4.1                                |
|   \\  /    A nd           | Web:         http://www.foam-extend.org         |
|    \\/     M anipulation  |                                                 |
\*---------------------------------------------------------------------------*/
FoamFile
{
    version     2.0;
    format      ascii;
    class       surfaceScalarField;
    location    "0.9";
    object      phi;
}
// * * * * * * * * * * * * * * * * * * * * * * * * * * * * * * * * * * * * * //

dimensions      [0 3 -1 0 0 0 0];

internalField   nonuniform List<scalar> 
8438
(
-0.59744024
0.001673551
-0.5991791
0.0017388548
-0.60095287
0.0017737748
-0.60277057
0.0018176989
-0.60464195
0.0018713818
-0.60657745
0.0019355002
-0.60858648
0.0020090229
-0.61067663
0.0020901585
-0.61285304
0.0021764089
-0.61511762
0.0022645823
-0.61746841
0.002350789
-0.61989889
0.0024304765
-0.62239742
0.0024985331
-0.6249469
0.0025494787
-0.62752464
0.0025777427
-0.63010267
0.0025780273
-0.63264828
0.0025456075
-0.63512491
0.0024766307
-0.63749316
0.002368246
-0.63971175
0.0022185961
-0.64173849
0.0020267417
-0.64353106
0.0017925689
-0.64504783
0.001516771
-0.6462488
0.0012009695
-0.64709683
0.00084802576
-0.64755939
0.00046255668
-0.6476107
5.1317407e-05
-0.6472334
-0.00037730232
-0.64642249
-0.00081091301
-0.64518944
-0.0012330458
-0.64356315
-0.0016262929
-0.64158966
-0.001973485
-0.63933006
-0.002259603
-0.63685638
-0.0024736792
-0.63424637
-0.0026100101
-0.63157797
-0.0026683978
-0.62892448
-0.0026534916
-0.62635094
-0.0025735401
-0.62391202
-0.0024389217
-0.62165126
-0.0022607648
-0.61960141
-0.0020498492
-0.61778555
-0.0018158518
-0.61621864
-0.0015669124
-0.6149091
-0.0013095442
-0.61385999
-0.0010491046
-0.61306953
-0.00079046156
-0.61253402
-0.00053551247
-0.6122586
-0.00027542051
-1.3649008e-05
-0.61123245
0.0031392911
-0.61269158
0.0031979862
-0.61417787
0.0032600688
-0.61570459
0.003344419
-0.61728419
0.0034509776
-0.61892786
0.0035791777
-0.62064547
0.0037266304
-0.62244497
0.0038896592
-0.62433182
0.0040632573
-0.62630828
0.0042410401
-0.6283727
0.0044152128
-0.63051885
0.0045766261
-0.63273529
0.004714974
-0.63500499
0.0048191766
-0.63730519
0.0048779459
-0.6396077
0.0048805341
-0.64187946
0.0048173667
-0.64408349
0.0046806618
-0.64617994
0.0044646936
-0.6481271
0.0041657613
-0.64988237
0.0037820077
-0.651403
0.003313201
-0.65264691
0.0027606753
-0.6535735
0.0021275632
-0.65414489
0.0014194141
-0.65432753
0.00064520052
-0.65409473
-0.00018148743
-0.65343063
-0.0010413978
-0.65233211
-0.0019094313
-0.6508101
-0.0027550599
-0.64889265
-0.0035437456
-0.6466255
-0.0042406364
-0.64407005
-0.0048150445
-0.64129919
-0.0052445452
-0.63839166
-0.0055175372
-0.63542633
-0.005633724
-0.63247712
-0.0056027025
-0.62960932
-0.0054413431
-0.6268775
-0.0051707441
-0.62432486
-0.0048134065
-0.6219837
-0.0043910081
-0.61987665
-0.0039228978
-0.6180183
-0.0034252665
-0.61641683
-0.0029110083
-0.61507557
-0.0023903655
-0.61399476
-0.0018712698
-0.61317391
-0.0013563709
-0.61260473
-0.00084459913
-0.00037357597
-0.61227797
0.0045548956
-0.61369185
0.004611866
-0.61513057
0.0046987881
-0.61660908
0.0048229347
-0.61814069
0.004982589
-0.61973721
0.0051756885
-0.62140895
0.0053983754
-0.62316439
0.0056451014
-0.62500955
0.0059084104
-0.62694729
0.006178786
-0.62897664
0.006444558
-0.63109197
0.0066919549
-0.63328237
0.0069053798
-0.63553117
0.0070679791
-0.63781574
0.0071625168
-0.64010776
0.0071725507
-0.64237385
0.0070834581
-0.64457661
0.006883417
-0.64667573
0.0065638109
-0.6486291
0.0061191389
-0.65039376
0.0055466634
-0.65192656
0.0048459972
-0.65318483
0.0040189465
-0.65412709
0.0030698317
-0.65471411
0.0020064273
-0.65491046
0.0008415516
-0.654687
-0.00040494308
-0.65402368
-0.0017047247
-0.65291303
-0.0030200793
-0.651364
-0.0043040858
-0.6494045
-0.0055032466
-0.64708198
-0.006563157
-0.64446128
-0.0074357483
-0.6416198
-0.0080860196
-0.63864115
-0.0084961929
-0.63560848
-0.0086663906
-0.63259897
-0.0086122172
-0.62967987
-0.008360444
-0.6269065
-0.0079441115
-0.62432182
-0.0073980823
-0.62195722
-0.0067556143
-0.619834
-0.0060461087
-0.61796532
-0.0052939526
-0.61635796
-0.0045183686
-0.6150143
-0.0037340216
-0.6139345
-0.0029510697
-0.61311683
-0.002174044
-0.61255277
-0.0014086564
-0.00068139792
-0.61263482
0.0059411161
-0.61402833
0.0060053782
-0.61544733
0.0061177849
-0.61690677
0.0062823693
-0.61842041
0.0064962302
-0.62000076
0.006756044
-0.62165894
0.0070565516
-0.62340424
0.0073904064
-0.6252436
0.0077477718
-0.62718085
0.0081160359
-0.62921592
0.0084796254
-0.63134399
0.008820023
-0.63355471
0.0091160955
-0.63583157
0.0093448448
-0.63815168
0.0094826215
-0.64048594
0.0095068114
-0.64279983
0.0093973564
-0.6450546
0.0091381816
-0.64720855
0.0087177579
-0.6492183
0.0081288928
-0.65103973
0.0073680987
-0.6526286
0.0064348645
-0.65394096
0.005331308
-0.65493367
0.0040625348
-0.65556516
0.0026379167
-0.65579696
0.0010733545
-0.65559611
-0.00060579477
-0.65493848
-0.0023623527
-0.65381291
-0.0041456457
-0.65222579
-0.0058912081
-0.6502047
-0.0075243344
-0.64779972
-0.0089681412
-0.64508108
-0.010154391
-0.64213341
-0.011033686
-0.63904796
-0.011581647
-0.63591465
-0.0117997
-0.63281567
-0.011711196
-0.62982124
-0.011354867
-0.62698774
-0.01077762
-0.62435761
-0.010028204
-0.62196074
-0.0091524858
-0.61981638
-0.0081904751
-0.61793539
-0.0071749355
-0.61632249
-0.0061312764
-0.61497833
-0.0050781782
-0.61390149
-0.0040279121
-0.61308836
-0.0029871707
-0.61253356
-0.0019634594
-0.00097000435
-0.61305932
0.007300286
-0.61442961
0.0073756655
-0.61582634
0.0075145181
-0.61726467
0.0077206944
-0.61875885
0.0079904077
-0.62032217
0.0083193637
-0.62196668
0.008701068
-0.6237028
0.0091265199
-0.62553865
0.0095836212
-0.62747934
0.010056731
-0.62952606
0.010526346
-0.63167508
0.010969046
-0.63391682
0.011357829
-0.63623501
0.011663035
-0.63860633
0.01185394
-0.64100058
0.011901066
-0.64338159
0.011778367
-0.64570864
0.011465234
-0.64793813
0.010947246
-0.65002498
0.010215744
-0.65192364
0.0092667517
-0.65358852
0.0080997505
-0.65497421
0.0067169971
-0.65603552
0.0051238466
-0.65672799
0.0033303804
-0.65700909
0.0013544554
-0.65684071
-0.00077417624
-0.65619295
-0.0030101089
-0.65504906
-0.0052895378
-0.65341137
-0.0075288954
-0.65130666
-0.0096290469
-0.64878851
-0.011486288
-0.64593489
-0.013008011
-0.64284087
-0.01412771
-0.63960866
-0.014813854
-0.63633778
-0.015070583
-0.63311733
-0.014931648
-0.63002143
-0.014450761
-0.6271076
-0.013691451
-0.62441734
-0.012718463
-0.6219782
-0.011591631
-0.6198064
-0.010362266
-0.61790969
-0.0090716549
-0.61628983
-0.0077511287
-0.61494509
-0.0064229232
-0.61387185
-0.0051011489
-0.61306518
-0.0037938386
-0.61252118
-0.0025074663
-0.0012463808
-0.61359652
0.0086272188
-0.61493715
0.0087162919
-0.61630558
0.0088829509
-0.61771713
0.0091322417
-0.61918662
0.0094599049
-0.62072826
0.0098609979
-0.62235523
0.010328035
-0.62407929
0.010850581
-0.62591013
0.011414462
-0.62785452
0.012001127
-0.62991532
0.012587147
-0.6320903
0.013144018
-0.63437093
0.013638464
-0.63674138
0.014033481
-0.6391778
0.014290365
-0.64164855
0.014371808
-0.64411518
0.014244998
-0.64653436
0.013884415
-0.64885994
0.013272827
-0.6510447
0.012400508
-0.65304139
0.011263445
-0.654803
0.0098613552
-0.65628247
0.0081964638
-0.6574323
0.0062736796
-0.65820449
0.0041025745
-0.6585514
0.0017013634
-0.65842814
-0.00089743541
-0.65779697
-0.0036412786
-0.65663317
-0.0064533385
-0.65493298
-0.0092290888
-0.65272141
-0.011840615
-0.65005652
-0.014151177
-0.64702688
-0.016037656
-0.64374206
-0.017412525
-0.64031946
-0.018236453
-0.63687152
-0.018518521
-0.6334964
-0.018306771
-0.63027297
-0.017674193
-0.62725973
-0.016704686
-0.62449644
-0.015481756
-0.62200716
-0.014080909
-0.61980389
-0.012565535
-0.61789001
-0.010985536
-0.61626335
-0.0093777963
-0.61491871
-0.0077675605
-0.61384965
-0.0061702036
-0.61304957
-0.004593919
-0.61251419
-0.0030428446
-0.0015156251
-0.61424953
0.0099181729
-0.61555456
0.010021318
-0.61688829
0.010216684
-0.61826675
0.010510694
-0.61970554
0.010898698
-0.62121992
0.011375379
-0.62282444
0.011932551
-0.62453249
0.012558638
-0.62635569
0.013237661
-0.62830292
0.013948352
-0.63037917
0.014663403
-0.63258422
0.015349062
-0.63491105
0.015965294
-0.63734446
0.016466895
-0.63986007
0.016805968
-0.6424243
0.016936038
-0.64499573
0.016816433
-0.64752755
0.016416232
-0.6499703
0.015715583
-0.65227416
0.014704362
-0.65438999
0.01337928
-0.65626939
0.011740749
-0.65786377
0.0097908471
-0.65912327
0.007533179
-0.65999589
0.0049751901
-0.66042776
0.0021332406
-0.66036542
-0.00095978252
-0.65976065
-0.0042460411
-0.65857764
-0.0076363511
-0.6568035
-0.011003228
-0.65445983
-0.014184281
-0.65161006
-0.017000951
-0.64835704
-0.019290679
-0.64483023
-0.020939329
-0.64116759
-0.0218991
-0.63749862
-0.022187487
-0.63393289
-0.021872498
-0.63055474
-0.021052346
-0.62742315
-0.019836273
-0.62457489
-0.018330015
-0.62202908
-0.016626723
-0.61979198
-0.014802635
-0.61786133
-0.012916192
-0.61622986
-0.011009259
-0.61488809
-0.0091093366
-0.61382607
-0.0072322194
-0.61303485
-0.0053851448
-0.61250837
-0.0035693249
-0.0017790402
-0.6150128
0.011164708
-0.61627497
0.011283494
-0.61756722
0.011508932
-0.61890597
0.011849447
-0.62030769
0.012300417
-0.62178881
0.012856502
-0.62336544
0.01350918
-0.62505293
0.014246125
-0.62686519
0.015049922
-0.62881372
0.015896882
-0.63090627
0.016755954
-0.63314521
0.017587998
-0.63552561
0.018345692
-0.63803328
0.018974573
-0.64064327
0.019415956
-0.64331958
0.019612347
-0.64601683
0.019513681
-0.64868357
0.01908297
-0.65126611
0.018298123
-0.65371146
0.017149713
-0.65596857
0.015636395
-0.6579879
0.013760076
-0.65971974
0.011522688
-0.66111208
0.0089255154
-0.66210867
0.0059717845
-0.66264844
0.0026730085
-0.66266723
-0.00094099299
-0.66210325
-0.0048100239
-0.66090538
-0.0088342125
-0.65904728
-0.012861335
-0.65654427
-0.016687291
-0.65346588
-0.020079335
-0.64993415
-0.022822412
-0.64610571
-0.024767768
-0.64214618
-0.025858629
-0.63820732
-0.02612635
-0.63441266
-0.025667153
-0.63085236
-0.024612653
-0.62758474
-0.023103895
-0.6246417
-0.02127305
-0.62203535
-0.019233068
-0.61976435
-0.01707364
-0.61781919
-0.01486135
-0.61618632
-0.012642129
-0.61485102
-0.010444636
-0.61379931
-0.00828393
-0.6130193
-0.0061651533
-0.61250257
-0.0040860603
-0.0020368058
-0.6158874
0.012363424
-0.61710074
0.012496833
-0.61834461
0.012752806
-0.61963658
0.01314141
-0.62099413
0.013657975
-0.62243507
0.014297436
-0.62397725
0.01505136
-0.62563828
0.015907154
-0.62743483
0.016846473
-0.62938159
0.017843644
-0.63148977
0.018864131
-0.63376512
0.019863356
-0.6362056
0.020786168
-0.63879861
0.021567585
-0.6415187
0.022136049
-0.64432684
0.022420479
-0.64717238
0.022359226
-0.64999773
0.021908323
-0.65274372
0.021044106
-0.65535359
0.01975959
-0.65777449
0.018057292
-0.65995633
0.015941915
-0.66184909
0.013415452
-0.66339929
0.01047571
-0.66454654
0.0071190362
-0.66522165
0.0033481217
-0.66534754
-0.00081510371
-0.6648449
-0.0053126668
-0.66364183
-0.010037282
-0.66169213
-0.014811041
-0.65900011
-0.019379311
-0.65564172
-0.023437721
-0.65176477
-0.026699361
-0.64756329
-0.028969246
-0.64324025
-0.030181671
-0.63897614
-0.030390457
-0.63491124
-0.029732058
-0.63114122
-0.028382666
-0.62772175
-0.026523368
-0.62467711
-0.024317688
-0.62200967
-0.021900515
-0.61970809
-0.019375212
-0.61775384
-0.016815608
-0.61612567
-0.014270296
-0.61480273
-0.011767572
-0.61376637
-0.0093202972
-0.61300126
-0.0069302577
-0.61249631
-0.0045910144
-0.0022881639
-0.61686672
0.0135024
-0.61802249
0.013652606
-0.61921024
0.013940555
-0.62044776
0.014378933
-0.62175349
0.014963705
-0.62314661
0.015690557
-0.62464693
0.01655168
-0.62627462
0.017534838
-0.62804957
0.018621427
-0.62999034
0.019784415
-0.63211244
0.020986226
-0.63442602
0.022176942
-0.63693295
0.023293095
-0.63962311
0.02425774
-0.64247081
0.024983749
-0.64543319
0.025382862
-0.64845261
0.025378653
-0.65146316
0.024918867
-0.65439843
0.023979377
-0.65719723
0.022558389
-0.65980518
0.020665246
-0.66217274
0.018309471
-0.66425095
0.015493662
-0.66598613
0.012210894
-0.66731442
0.0084473218
-0.6681579
0.0041916037
-0.66842423
-0.00054877243
-0.66801184
-0.0057250548
-0.6668209
-0.011228228
-0.66477619
-0.016855746
-0.66186314
-0.022292366
-0.65816337
-0.027137486
-0.65385965
-0.031003088
-0.64919811
-0.033630788
-0.64443241
-0.034947371
-0.63978002
-0.035042839
-0.6354006
-0.034111483
-0.63139402
-0.032389242
-0.62780984
-0.030107553
-0.62466077
-0.027466752
-0.62193583
-0.024625455
-0.61961086
-0.021700184
-0.61765614
-0.01877033
-0.61604137
-0.015885063
-0.61473867
-0.013070275
-0.61372415
-0.010334812
-0.61297875
-0.0076756618
-0.61248854
-0.0050812247
-0.002531753
-0.61794974
0.014580919
-0.61904245
0.014745313
-0.62016683
0.015064938
-0.62134212
0.015554225
-0.62258788
0.016209465
-0.62392478
0.017027455
-0.62537471
0.018001611
-0.62696069
0.019120819
-0.62870635
0.020367088
-0.63063485
0.021712906
-0.63276699
0.023118367
-0.6351186
0.024528552
-0.63769685
0.025871354
-0.64049544
0.027056323
-0.64348901
0.027977327
-0.64663003
0.02852388
-0.64985142
0.028600044
-0.65307588
0.028143327
-0.65622744
0.02713093
-0.6592396
0.025570549
-0.66205721
0.02348286
-0.66463297
0.020885226
-0.66692113
0.017781828
-0.66886996
0.014159725
-0.67041349
0.0099908536
-0.67146491
0.0052430204
-0.67191455
-9.9137425e-05
-0.6716327
-0.0060068968
-0.67048244
-0.012378495
-0.66834656
-0.018991622
-0.66517856
-0.02546037
-0.66106279
-0.031253256
-0.65622992
-0.035835958
-0.65100006
-0.038860643
-0.64569631
-0.04025112
-0.6405835
-0.040155651
-0.6358427
-0.038852279
-0.63157481
-0.036657137
-0.62781781
-0.033864557
-0.62456727
-0.030717288
-0.62179417
-0.027398552
-0.61945806
-0.024036299
-0.61751572
-0.020712665
-0.61592637
-0.01747442
-0.61465427
-0.014342374
-0.61366993
-0.011319151
-0.61295032
-0.0083952689
-0.61247874
-0.0055528023
-0.002765697
-0.61913316
0.015582041
-0.62015194
0.01576409
-0.62120388
0.016116881
-0.62230787
0.016658211
-0.62348419
0.017385795
-0.62475494
0.0182982
-0.62614416
0.01939083
-0.62767798
0.020654643
-0.62938428
0.022073387
-0.63129166
0.023620284
-0.63342747
0.02525418
-0.63581478
0.026915859
-0.63846802
0.028524597
-0.64138666
0.029974963
-0.6445469
0.031137563
-0.64789555
0.031872533
-0.65135273
0.03205722
-0.65482522
0.031615816
-0.65822394
0.030529658
-0.66147601
0.02882261
-0.66452662
0.026533479
-0.66733322
0.023691826
-0.66985636
0.020304962
-0.67204943
0.016352793
-0.67384699
0.011788417
-0.67515389
0.0065499172
-0.67583989
0.00058686387
-0.67574228
-0.0061045074
-0.67467711
-0.013443664
-0.67246577
-0.02120296
-0.66900839
-0.028917748
-0.66438431
-0.035877341
-0.65889072
-0.041329552
-0.65295521
-0.044796145
-0.64699698
-0.046209353
-0.64134108
-0.045811551
-0.63619046
-0.044002896
-0.63164069
-0.041206907
-0.62770979
-0.037795456
-0.62436846
-0.034058616
-0.62156371
-0.030203309
-0.61923473
-0.026365274
-0.6173224
-0.022625001
-0.61577406
-0.01902276
-0.61454555
-0.015570879
-0.61360156
-0.012263141
-0.61291513
-0.009081698
-0.61246693
-0.006001003
-0.0029876783
-0.62040682
0.016509506
-0.62134728
0.016704546
-0.62231949
0.017089089
-0.62334391
0.017682635
-0.62444179
0.018483675
-0.62563656
0.019492973
-0.62695447
0.020708734
-0.62842492
0.022125099
-0.63008051
0.023728975
-0.63195616
0.025495936
-0.63408715
0.027385165
-0.63650566
0.029334371
-0.63923586
0.0312548
-0.64228588
0.03302498
-0.64563552
0.034487201
-0.64922506
0.035462076
-0.65295693
0.035789086
-0.65671525
0.035374143
-0.66039275
0.03420715
-0.6639088
0.032338658
-0.66721126
0.029835941
-0.67026631
0.026746877
-0.67304533
0.023083981
-0.67551167
0.018819131
-0.67760473
0.013881484
-0.67922308
0.0081682621
-0.68021436
0.0015781447
-0.68037608
-0.0059427895
-0.67946369
-0.014356054
-0.67721226
-0.023454389
-0.673434
-0.032696007
-0.6681857
-0.041125634
-0.66185796
-0.047657298
-0.65503917
-0.051614938
-0.64828286
-0.052965659
-0.64198979
-0.05210462
-0.63638159
-0.0496111
-0.63153709
-0.046051402
-0.62744169
-0.041890858
-0.62403074
-0.03746957
-0.62121995
-0.033014101
-0.61892369
-0.028661525
-0.61706448
-0.024484219
-0.61557674
-0.020510498
-0.6144076
-0.016740021
-0.61351602
-0.013154715
-0.61287141
-0.0097263148
-0.61245211
-0.0064202962
-0.0031949906
-0.62177449
0.017340323
-0.62262342
0.017553483
-0.62350548
0.017971145
-0.62443973
0.018616888
-0.62544759
0.01949153
-0.6265535
0.020598879
-0.62778571
0.021940949
-0.62917702
0.023516409
-0.63076512
0.025317071
-0.63259221
0.027323028
-0.63470311
0.029496068
-0.63714154
0.031772801
-0.63994468
0.034057936
-0.64313366
0.036213963
-0.64669587
0.038049413
-0.65056488
0.039331087
-0.6546188
0.039843007
-0.65870909
0.039464433
-0.66270261
0.038200671
-0.66650938
0.036145427
-0.67008343
0.033409988
-0.67340513
0.030068575
-0.67646217
0.026141019
-0.67923376
0.021590723
-0.6816704
0.016318127
-0.6836684
0.010166264
-0.68505258
0.0029623218
-0.6855742
-0.0054211737
-0.68491452
-0.015015729
-0.68268985
-0.025679066
-0.67856919
-0.03681666
-0.67254926
-0.04714557
-0.66515218
-0.055054374
-0.65721566
-0.059551457
-0.64948268
-0.060698641
-0.642447
-0.059140303
-0.63633829
-0.055719802
-0.63119915
-0.051190546
-0.62696367
-0.046126343
-0.62351807
-0.040915166
-0.62073811
-0.035794059
-0.61850864
-0.030890993
-0.61673172
-0.026261141
-0.61532833
-0.021913885
-0.61423709
-0.017831262
-0.61341179
-0.01398002
-0.61281875
-0.010319355
-0.61243457
-0.0068044782
-0.0033846061
-0.62320279
0.018083469
-0.62395711
0.018307798
-0.62474171
0.018755751
-0.6255771
0.019452272
-0.62648501
0.02039944
-0.62749071
0.021604578
-0.62862429
0.023074533
-0.62992187
0.024813992
-0.63142656
0.026821758
-0.63318874
0.029085208
-0.63526457
0.031571901
-0.63771205
0.034220279
-0.64058533
0.036931222
-0.64392451
0.039553141
-0.64773107
0.041855967
-0.65193269
0.043532714
-0.65637319
0.044283508
-0.66085511
0.043946354
-0.66520709
0.042552651
-0.66932725
0.040265588
-0.67318184
0.037264575
-0.67677405
0.033660786
-0.68011586
0.029482821
-0.68321122
0.024686092
-0.68603255
0.01913945
-0.68848244
0.012616159
-0.69036419
0.0048440723
-0.69137663
-0.0044087387
-0.69111328
-0.015279073
-0.68903196
-0.027760387
-0.68457177
-0.041276855
-0.67759132
-0.054126014
-0.66879568
-0.063850016
-0.65942588
-0.068921258
-0.65049295
-0.069631571
-0.64260027
-0.067032987
-0.63596051
-0.062359556
-0.63054764
-0.05660342
-0.62621775
-0.050456236
-0.62279041
-0.0443425
-0.62009175
-0.038492724
-0.61797273
-0.033010015
-0.61631372
-0.027920144
-0.61502259
-0.023205022
-0.61403037
-0.018823481
-0.61328675
-0.014723639
-0.61275596
-0.010850141
-0.61241361
-0.0071468351
-0.0035532614
-0.62472663
0.018710091
-0.62537181
0.018952985
-0.6260485
0.019432438
-0.62677424
0.020178016
-0.62756982
0.02119502
-0.62846052
0.022495277
-0.62947764
0.024091654
-0.63066017
0.025996519
-0.63205648
0.028218066
-0.6337257
0.030754427
-0.63573711
0.033583318
-0.63816616
0.03664932
-0.64108875
0.03985382
-0.64457215
0.043036535
-0.64864339
0.045927206
-0.6532291
0.048118424
-0.65812566
0.049180071
-0.66306254
0.048883231
-0.66781249
0.047302611
-0.67226023
0.044713324
-0.67639614
0.041400481
-0.68025992
0.037524566
-0.68389701
0.033119912
-0.68734473
0.028133813
-0.6906098
0.022404522
-0.69361192
0.015618276
-0.69613425
0.007366403
-0.69781679
-0.0027261938
-0.69815494
-0.014940926
-0.69641106
-0.029504271
-0.69166687
-0.046021041
-0.68348586
-0.06230703
-0.67281377
-0.074522098
-0.66157746
-0.080157577
-0.65116526
-0.080043764
-0.64229934
-0.075898911
-0.63512308
-0.069535819
-0.6294898
-0.0622367
-0.6251405
-0.054805531
-0.62180697
-0.047676026
-0.61925593
-0.041043769
-0.61730141
-0.034964538
-0.61580239
-0.02941916
-0.61465521
-0.0243522
-0.61378528
-0.019693411
-0.61313991
-0.015369005
-0.61268265
-0.011307407
-0.61238911
-0.0074403708
-0.0036975748
-0.62625542
0.019233918
-0.62678923
0.019486801
-0.62735016
0.019993366
-0.62795629
0.020784143
-0.62862746
0.021866192
-0.62938853
0.023256348
-0.63027153
0.024974651
-0.63131794
0.027042934
-0.63258135
0.029481472
-0.63413028
0.032303353
-0.63604934
0.035502385
-0.63843552
0.039035495
-0.64139233
0.042810634
-0.64502481
0.046669017
-0.64940423
0.050306624
-0.6544681
0.053182288
-0.65994612
0.054658093
-0.66545343
0.05439054
-0.67067601
0.052525197
-0.67547994
0.049517251
-0.67989678
0.045817326
-0.68402071
0.041648487
-0.68793885
0.037038057
-0.69172979
0.031924756
-0.69545545
0.026130173
-0.69907807
0.019240902
-0.702375
0.01066333
-0.70493082
-0.00017037767
-0.70613796
-0.013733781
-0.7050404
-0.030601835
-0.70017688
-0.050884555
-0.69050305
-0.071980858
-0.67723164
-0.087793506
-0.66352238
-0.093866838
-0.65128406
-0.092282092
-0.64134313
-0.085839839
-0.63367118
-0.077207769
-0.62791975
-0.067988125
-0.62366552
-0.059059763
-0.62052903
-0.050812515
-0.61820965
-0.043363148
-0.61648423
-0.036689957
-0.61519314
-0.030710251
-0.61422465
-0.025320689
-0.61350168
-0.020416388
-0.61297166
-0.015899021
-0.61259931
-0.011679761
-0.61236157
-0.0076781074
-0.0038141936
-0.62788197
0.019620778
-0.62829001
0.019894849
-0.62872638
0.02042973
-0.62920412
0.021261885
-0.62974039
0.022402464
-0.63035843
0.023874382
-0.63108978
0.025706002
-0.63197713
0.027930289
-0.63307787
0.030582208
-0.63446888
0.033694362
-0.63625075
0.037284251
-0.63854531
0.041330058
-0.64148889
0.045754218
-0.6452353
0.050415423
-0.64992817
0.054999491
-0.65554358
0.058797703
-0.66171991
0.060834421
-0.66789145
0.060562081
-0.67361223
0.058245977
-0.67872771
0.054632731
-0.68334888
0.050438495
-0.6876619
0.045961512
-0.69181183
0.041187986
-0.69592779
0.036040708
-0.7001584
0.030360782
-0.70454478
0.023627286
-0.70887022
0.014988773
-0.71262598
0.0035853802
-0.71510025
-0.011259511
-0.71514639
-0.030555692
-0.710543
-0.055487943
-0.69906524
-0.083458625
-0.68205655
-0.1048022
-0.66501611
-0.11090727
-0.65053169
-0.10676652
-0.6394621
-0.096909428
-0.63141575
-0.085254119
-0.62572022
-0.07368365
-0.62172689
-0.063053096
-0.61892299
-0.053616414
-0.6169378
-0.045348336
-0.61551573
-0.038112035
-0.61448496
-0.031741019
-0.61373155
-0.0260741
-0.61318046
-0.020967477
-0.61278258
-0.016296895
-0.61250608
-0.011956269
-0.61233073
-0.007853453
-0.0038999735
-0.62933561
0.019882654
-0.62961454
0.02017378
-0.62991673
0.020731923
-0.63025314
0.021598295
-0.63063758
0.022786898
-0.63109042
0.024327228
-0.6316413
0.026256884
-0.63233259
0.028621578
-0.63322406
0.031473675
-0.63440003
0.03487033
-0.63597842
0.038862644
-0.63811213
0.043463768
-0.64097922
0.048621307
-0.64479558
0.054231789
-0.64982069
0.060024599
-0.65613205
0.065109067
-0.6632496
0.067951967
-0.67030939
0.067621869
-0.67665905
0.064595639
-0.68211411
0.060087793
-0.68692667
0.055251051
-0.69142582
0.050460667
-0.69581701
0.045579176
-0.70025387
0.040477565
-0.70499439
0.035101297
-0.71020182
0.028834717
-0.71569694
0.020483892
-0.72088234
0.0087707853
-0.72496952
-0.0071723353
-0.72680007
-0.028725144
-0.72323218
-0.059055828
-0.70979769
-0.096893116
-0.68723434
-0.12736555
-0.66565444
-0.13248717
-0.64844094
-0.12398002
-0.63630047
-0.10904989
-0.62813517
-0.093419417
-0.6227715
-0.079047323
-0.6192688
-0.066555801
-0.61696819
-0.055917018
-0.61543684
-0.046879688
-0.61439938
-0.039149497
-0.61368325
-0.032457149
-0.6131809
-0.026576445
-0.61282539
-0.021322989
-0.61257508
-0.016547208
-0.61240419
-0.01212716
-0.61229701
-0.0079606298
-0.0039521832
-0.63048989
0.019981312
-0.63061944
0.020303325
-0.63077043
0.02088292
-0.63094723
0.021775096
-0.63115885
0.022998517
-0.63142184
0.024590213
-0.63176264
0.026597686
-0.63222164
0.029080575
-0.63285867
0.032110705
-0.63376211
0.035773772
-0.63506406
0.040164592
-0.63695024
0.045349953
-0.63964565
0.051316715
-0.64342987
0.058016006
-0.64872223
0.065316961
-0.65582146
0.072208302
-0.66410899
0.076239496
-0.67220461
0.07571749
-0.67914498
0.071536013
-0.68470205
0.06564486
-0.68939226
0.059941265
-0.69377802
0.054846422
-0.69813781
0.049938971
-0.70260052
0.044940266
-0.7076124
0.04011318
-0.7135941
0.03481642
-0.720503
0.027392785
-0.72773252
0.016000314
-0.73427978
-0.00062507879
-0.73920364
-0.023801284
-0.73833222
-0.059927248
-0.72349592
-0.11172941
-0.69248346
-0.15837801
-0.66469676
-0.16027387
-0.6443011
-0.14437569
-0.63139141
-0.12195958
-0.62358309
-0.10122773
-0.61896668
-0.083663734
-0.61625854
-0.069263938
-0.61466566
-0.057509908
-0.61371998
-0.047825365
-0.61315049
-0.039718988
-0.6128013
-0.032806334
-0.6125828
-0.026794949
-0.6124434
-0.021462392
-0.61235344
-0.01663716
-0.61229599
-0.012184612
-0.61226149
-0.0079951348
-0.0039687207
-0.6300781
0.019880104
-0.63002755
0.020252782
-0.62999492
0.020850291
-0.62997585
0.021756023
-0.62997237
0.02299503
-0.6299944
0.024612243
-0.63006123
0.026664521
-0.63020582
0.02922516
-0.63048114
0.032386027
-0.63097074
0.036263376
-0.63181105
0.041004902
-0.63321932
0.046758219
-0.63548163
0.053579023
-0.63894635
0.061480727
-0.64423962
0.070610235
-0.652135
0.080103677
-0.66194744
0.086051936
-0.67134957
0.085119621
-0.6789349
0.079121347
-0.68436552
0.071075483
-0.68865615
0.064231892
-0.69275117
0.058941442
-0.69705161
0.054239412
-0.70151439
0.049403044
-0.70683852
0.045437312
-0.71385926
0.041837158
-0.72259653
0.036130052
-0.73261956
0.026023346
-0.74190496
0.0086603246
-0.75053037
-0.015175877
-0.75421922
-0.056238401
-0.74047712
-0.12547151
-0.69642092
-0.20243422
-0.66055596
-0.19613882
-0.63703513
-0.16789652
-0.62415373
-0.13484098
-0.61751707
-0.10786439
-0.61423908
-0.086941724
-0.61270463
-0.070798391
-0.61204778
-0.058166752
-0.61182145
-0.048051703
-0.61179739
-0.039743046
-0.61186001
-0.032743711
-0.61195142
-0.026703542
-0.61204332
-0.021370492
-0.61212256
-0.016557914
-0.61218362
-0.012123558
-0.61222455
-0.0079541974
-0.0039483251
-0.62618343
0.019548705
-0.62589577
0.019965114
-0.62560394
0.020558469
-0.62530139
0.021453465
-0.62498279
0.022676438
-0.62464945
0.024278897
-0.62431021
0.026325285
-0.62398642
0.028901372
-0.62371964
0.032119248
-0.62358329
0.036127021
-0.62370987
0.041131481
-0.62434475
0.047393103
-0.62585776
0.055092032
-0.62866615
0.064289117
-0.6335591
0.075503187
-0.64216217
0.088706741
-0.65403734
0.097927109
-0.66487358
0.095955859
-0.67275689
0.087004663
-0.67707083
0.075389421
-0.67991045
0.067071508
-0.68282216
0.061853156
-0.6864293
0.057846554
-0.69004564
0.053019377
-0.6945065
0.04989818
-0.70161448
0.048945133
-0.71115732
0.045672895
-0.72409901
0.038965036
-0.73556673
0.020128043
-0.74986113
-0.00088147304
-0.76244985
-0.043649683
-0.75916614
-0.12875521
-0.69459094
-0.26700942
-0.65073455
-0.23999521
-0.62530411
-0.19332696
-0.61396279
-0.14618229
-0.60976321
-0.11206397
-0.60860987
-0.088095065
-0.60868419
-0.070724071
-0.60919206
-0.057658876
-0.60980283
-0.047440939
-0.61038443
-0.039161446
-0.61088951
-0.032238626
-0.61130627
-0.026286787
-0.61163706
-0.021039697
-0.61188908
-0.016305893
-0.61207022
-0.011942423
-0.61218723
-0.0078371806
-0.0038907595
-0.6127662
0.01872955
-0.61203594
0.019234852
-0.61128949
0.019812024
-0.6105
0.020663975
-0.60964975
0.021826189
-0.60872669
0.023355833
-0.60772251
0.025321104
-0.60663658
0.027815441
-0.60548339
0.030966064
-0.60430238
0.034946005
-0.60318039
0.040009492
-0.60232586
0.04653857
-0.60215331
0.054919485
-0.60313616
0.065271968
-0.60601268
0.078379709
-0.61372654
0.096420594
-0.62752704
0.11172762
-0.63868959
0.10711841
-0.64545608
0.09377115
-0.64634422
0.076277562
-0.6457364
0.066463687
-0.64567351
0.061790266
-0.64728086
0.059453908
-0.64831245
0.054050966
-0.64944566
0.051031395
-0.65617031
0.055669776
-0.66607552
0.05557811
-0.68384099
0.056730501
-0.69888858
0.035175641
-0.72786053
0.028090475
-0.75027232
-0.021237894
-0.77323494
-0.10579259
-0.67715892
-0.36308544
-0.63076787
-0.28638626
-0.60622342
-0.21787141
-0.59992091
-0.1524848
-0.60026623
-0.11171866
-0.60224905
-0.086112243
-0.60437344
-0.068599685
-0.60623189
-0.055800423
-0.60775546
-0.045917367
-0.60897157
-0.037945341
-0.6099282
-0.031281996
-0.6106713
-0.025543686
-0.611239
-0.020471994
-0.61166107
-0.015883821
-0.61195982
-0.011643679
-0.61215113
-0.0076458687
-0.0037969375
-0.58477958
0.017486124
-0.58351021
0.017965482
-0.5821416
0.018443408
-0.58066951
0.019191886
-0.57906772
0.020224405
-0.57730537
0.021593479
-0.57534582
0.023361552
-0.57314922
0.025618844
-0.57067799
0.028494836
-0.56790495
0.032172964
-0.56482881
0.036933346
-0.56155684
0.043266604
-0.55853306
0.0518957
-0.55652808
0.063266987
-0.5561492
0.078000827
-0.56153207
0.10180347
-0.5804926
0.13068815
-0.59265618
0.11928199
-0.59890931
0.10002428
-0.5940531
0.071421355
-0.58776421
0.060174792
-0.58244324
0.056469296
-0.58157669
0.058587367
-0.57952917
0.052003442
-0.57387711
0.045379342
-0.58519529
0.032529559
-0.59562017
0.037439125
-0.60468014
0.040313318
-0.60342499
0.020480315
-0.63525095
0.03987839
-0.71434585
0.019774533
-0.66918706
-0.054713851
-0.6068585
-0.22710757
-0.57379937
-0.31944539
-0.57150803
-0.22016275
-0.58113688
-0.14285595
-0.58945237
-0.10340317
-0.59561863
-0.07994599
-0.60008654
-0.064131774
-0.60336088
-0.052526082
-0.60579624
-0.043482012
-0.60762935
-0.036112229
-0.60901858
-0.029892763
-0.61007177
-0.024490498
-0.61086356
-0.019680205
-0.61144608
-0.015301299
-0.61185565
-0.011234105
-0.61211694
-0.0073845835
-0.0036689718
-0.52687055
0.015076207
-0.52437389
0.015468821
-0.52172164
0.015791156
-0.51887158
0.016341825
-0.51576944
0.017122268
-0.51234742
0.018171456
-0.50851983
0.019533962
-0.50418153
0.021280547
-0.49920831
0.023521614
-0.49346224
0.0264269
-0.48680024
0.030271347
-0.47911779
0.03558415
-0.47061086
0.04338877
-0.46224749
0.05490362
-0.45438073
0.070134062
-0.44763212
0.09505486
-0.47081175
0.15386778
-0.47005344
0.11852368
-0.4609168
0.090887638
-0.42710045
0.037605007
-0.39543908
0.028513422
-0.36804542
0.029075637
-0.30349202
0.020771764
-0.1630011
0.013454403
-0.041148258
0.0077711672
0
0
0
0
0
0
0
0
0
0
0
0
0
0