/*--------------------------------*- C++ -*----------------------------------*\
| =========                 |                                                 |
| \\      /  F ield         | foam-extend: Open Source CFD                    |
|  \\    /   O peration     | Version:     4.1                                |
|   \\  /    A nd           | Web:         http://www.foam-extend.org         |
|    \\/     M anipulation  |                                                 |
\*---------------------------------------------------------------------------*/
FoamFile
{
    version     2.0;
    format      ascii;
    class       volScalarField;
    location    "0.9";
    object      rAU;
}
// * * * * * * * * * * * * * * * * * * * * * * * * * * * * * * * * * * * * * //

dimensions      [0 0 1 0 0 0 0];

internalField   nonuniform List<scalar> 
4393
(
0.00022764401
0.00022727021
0.00022690417
0.00022653029
0.00022614646
0.00022575124
0.00022534227
0.00022491834
0.00022447862
0.0002240229
0.00022355179
0.00022306678
0.00022257039
0.00022206614
0.00022155842
0.00022105337
0.00022055678
0.00022007564
0.0002196176
0.00021919023
0.00021880126
0.00021845839
0.0002181691
0.00021794059
0.00021777951
0.00021769177
0.00021768204
0.00021768204
0.00021775361
0.00021790759
0.00021814213
0.00021845226
0.00021882978
0.00021926363
0.00021974056
0.00022024605
0.00022076524
0.00022128397
0.0002217894
0.00022227053
0.00022271838
0.00022312601
0.00022348836
0.00022380198
0.00022406477
0.00022427573
0.00022443495
0.00022454295
0.00022458507
0.0002245116
0.00022419113
0.00022388558
0.00022357098
0.00022324457
0.00022290469
0.00022254913
0.00022217702
0.00022178796
0.00022138229
0.00022096131
0.00022052729
0.00022008359
0.00021963471
0.00021918594
0.00021874432
0.00021831644
0.00021790991
0.00021753279
0.00021719294
0.00021689822
0.0002166563
0.00021647461
0.00021636013
0.0002163192
0.00021635721
0.00021644389
0.0002164168
0.00021646001
0.0002165869
0.000216799
0.00021709475
0.00021746901
0.00021791302
0.00021841479
0.00021896005
0.00021953332
0.00022011908
0.00022070277
0.00022127144
0.00022181422
0.0002223224
0.00022278937
0.0002232104
0.00022358223
0.00022390274
0.00022417103
0.00022438861
0.00022454271
0.00022400624
0.00022369759
0.00022339746
0.00022308578
0.00022275981
0.00022241806
0.00022205851
0.0002216806
0.00022128432
0.00022087056
0.00022044123
0.00021999939
0.00021954928
0.00021909635
0.00021864693
0.00021820904
0.00021779016
0.00021739863
0.00021704306
0.00021673163
0.00021647237
0.00021627304
0.00021614102
0.00021608324
0.00021610586
0.00021621392
0.00021630071
0.00021618161
0.00021614334
0.00021619289
0.0002163352
0.00021657193
0.00021690052
0.00021731383
0.0002178003
0.00021834504
0.00021893109
0.00021954097
0.00022015791
0.00022076681
0.00022135486
0.00022191167
0.00022242934
0.00022290213
0.00022332603
0.00022369842
0.00022401821
0.00022428551
0.00022448062
0.00022365089
0.00022334763
0.00022304742
0.0002227326
0.00022240071
0.00022205044
0.00022167996
0.00022128891
0.00022087765
0.00022044749
0.00022000096
0.00021954183
0.00021907527
0.00021860776
0.00021814676
0.00021770145
0.00021728038
0.00021689281
0.00021654805
0.00021625476
0.00021602127
0.00021585554
0.00021576509
0.00021575697
0.00021583744
0.00021601154
0.0002160931
0.00021588794
0.00021576534
0.00021573583
0.00021580811
0.0002159874
0.00021627384
0.00021666168
0.00021713939
0.00021769083
0.00021829698
0.00021893782
0.00021959401
0.00022024809
0.0002208852
0.00022149337
0.00022206347
0.00022258894
0.00022306525
0.00022348959
0.00022386075
0.00022417775
0.00022442244
0.00022328901
0.0002229899
0.00022269001
0.00022237238
0.0002220347
0.00022167582
0.000221294
0.0002208891
0.00022046171
0.00022001354
0.00021954764
0.00021906852
0.00021858223
0.00021809635
0.00021761961
0.00021716245
0.00021673467
0.00021634658
0.00021600827
0.00021572893
0.00021551723
0.00021538133
0.00021532897
0.00021536747
0.00021550343
0.00021574224
0.00021582936
0.00021553372
0.00021532283
0.00021521126
0.0002152121
0.00021533467
0.00021558209
0.0002159499
0.00021642608
0.00021699253
0.00021762736
0.00021830737
0.00021901014
0.00021971553
0.00022040658
0.00022106974
0.00022169485
0.00022227466
0.00022280438
0.00022328117
0.00022370371
0.00022407085
0.00022436675
0.00022291133
0.0002226169
0.00022231839
0.00022199889
0.00022165621
0.00022128925
0.00022089634
0.00022047741
0.00022003326
0.00021956589
0.00021907881
0.0002185772
0.00021806804
0.00021756007
0.00021706337
0.00021658987
0.00021615082
0.0002157577
0.0002154215
0.00021515196
0.00021495806
0.00021484817
0.00021483031
0.00021491222
0.00021510112
0.00021540318
0.00021551097
0.00021511903
0.00021481424
0.00021461581
0.00021454212
0.00021460741
0.00021481829
0.00021517157
0.00021565411
0.00021624491
0.0002169182
0.00021764669
0.00021840428
0.00021916784
0.00021991815
0.00022064021
0.00022132296
0.00022195878
0.00022254285
0.00022307254
0.00022354675
0.00022396477
0.00022431252
0.00022251833
0.00022222927
0.00022193315
0.00022161279
0.00022126596
0.00022089153
0.00022048779
0.0002200547
0.00021959311
0.00021910524
0.00021859499
0.00021806814
0.00021753259
0.00021699831
0.00021647694
0.00021598214
0.00021552682
0.0002151239
0.00021478532
0.00021452137
0.00021434128
0.00021425356
0.00021426652
0.00021438844
0.00021462751
0.00021499117
0.00021513997
0.00021464445
0.00021423827
0.00021394613
0.00021379286
0.00021379892
0.00021397526
0.00021431993
0.00021481789
0.00021544399
0.00021616722
0.00021695512
0.00021777714
0.00021860671
0.00021942232
0.00022020757
0.00022095076
0.00022164419
0.0002222833
0.00022286595
0.00022339158
0.00022386031
0.0002242595
0.00022211202
0.00022182968
0.00022153713
0.00022121693
0.0002208668
0.00022048548
0.00022007116
0.00021962369
0.00021914387
0.00021863402
0.00021809829
0.00021754302
0.000216977
0.00021641155
0.00021586006
0.00021533825
0.00021486106
0.00021444308
0.00021409733
0.0002138346
0.00021366419
0.00021359465
0.00021363447
0.00021379262
0.00021407857
0.00021450163
0.00021471791
0.00021410988
0.00021359265
0.0002131974
0.00021295704
0.00021290014
0.00021304328
0.00021338584
0.00021390982
0.00021458415
0.00021537085
0.00021623085
0.00021712823
0.00021803261
0.00021892008
0.00021977308
0.00022057959
0.00022133216
0.00022202688
0.00022266239
0.00022323899
0.00022375787
0.00022420763
0.00022169409
0.00022141932
0.00022113144
0.00022081246
0.00022045995
0.00022007243
0.00021964787
0.00021918589
0.00021868711
0.00021815377
0.00021759013
0.00021700299
0.000216402
0.0002157999
0.00021521215
0.00021465692
0.00021415168
0.00021371304
0.0002133552
0.00021308932
0.00021292453
0.00021286912
0.00021293163
0.00021312176
0.00021345059
0.00021393003
0.0002142477
0.0002135164
0.00021287588
0.000212365
0.00021202693
0.00021190108
0.00021201169
0.0002123597
0.00021292253
0.0002136608
0.00021452715
0.00021547412
0.00021645937
0.00021744828
0.00021841464
0.00021933999
0.00022021245
0.00022102533
0.00022177575
0.00022246352
0.00022309014
0.00022365803
0.00022415708
0.00022126655
0.00022100124
0.00022071942
0.00022040287
0.000220049
0.00021965605
0.00021922168
0.00021874511
0.00021822662
0.00021766817
0.00021707397
0.00021645109
0.00021580998
0.00021516491
0.00021453368
0.00021393756
0.00021339719
0.00021293168
0.00021255658
0.00021228316
0.00021211997
0.00021207457
0.00021215527
0.00021237245
0.00021273916
0.00021327068
0.00021373272
0.0002128654
0.00021208636
0.00021144342
0.0002109929
0.00021078906
0.00021086698
0.00021122949
0.00021184711
0.00021266868
0.00021363422
0.00021468565
0.00021577301
0.00021685714
0.00021790971
0.00021891194
0.00021985268
0.00022072654
0.00022153223
0.00022227113
0.00022294626
0.0002235615
0.00022410811
0.00022083205
0.00022057678
0.00022030215
0.0002199892
0.00021963506
0.0002192376
0.00021879399
0.00021830294
0.00021776416
0.00021717908
0.00021655163
0.00021588892
0.00021520207
0.00021450691
0.000213824
0.00021317846
0.00021259505
0.00021209612
0.00021169867
0.00021141369
0.00021124847
0.00021120919
0.00021130342
0.00021154203
0.00021194031
0.00021251787
0.00021317829
0.00021216007
0.00021122374
0.00021042741
0.00020984416
0.00020954905
0.00020959301
0.00020998138
0.00021067412
0.00021160324
0.00021269179
0.00021386825
0.0002150738
0.00021626462
0.00021741081
0.00021849402
0.00021950467
0.00022043944
0.00022129919
0.00022208737
0.00022280883
0.00022346915
0.00022406111
0.00022039155
0.00022014888
0.0002198832
0.00021957537
0.00021922237
0.00021882161
0.0002183697
0.00021786461
0.00021730525
0.00021669224
0.00021602887
0.000215322
0.00021458316
0.00021382968
0.00021308534
0.00021238013
0.00021174435
0.00021120456
0.00021077945
0.00021047912
0.00021030855
0.00021027157
0.00021037429
0.00021062768
0.00021104948
0.00021166461
0.00021248477
0.00021140499
0.00021028886
0.00020931166
0.00020856791
0.00020816215
0.00020816932
0.00020859834
0.00020939275
0.00021046032
0.00021170111
0.00021302677
0.00021436852
0.00021567809
0.000216925
0.00021809253
0.00021917376
0.00022016834
0.00022107999
0.00022191471
0.00022267957
0.000223382
0.00022401652
0.00021995025
0.00021972028
0.0002194646
0.00021916323
0.00021881272
0.00021840994
0.00021795076
0.00021743224
0.00021685217
0.00021621003
0.00021550804
0.00021475238
0.0002139546
0.00021313337
0.00021231609
0.00021153906
0.0002108401
0.00021025162
0.00020979422
0.00020947609
0.0002092983
0.0002092609
0.00020936747
0.00020962843
0.00021006389
0.00021070511
0.00021159211
0.00021060818
0.00020928516
0.00020809191
0.0002071495
0.00020660466
0.00020656983
0.00020705955
0.00020799113
0.00020923702
0.00021066609
0.00021216928
0.00021366699
0.00021510751
0.00021646141
0.00021771529
0.00021886635
0.00021991828
0.00022087846
0.00022175595
0.00022256037
0.00022330124
0.00022397489
0.00021950686
0.00021929292
0.00021904945
0.00021875649
0.00021841043
0.0002180076
0.00021754302
0.0002170126
0.00021641272
0.00021574123
0.00021499875
0.0002141902
0.00021332651
0.00021242721
0.00021152358
0.00021066005
0.00020988499
0.00020923901
0.00020874498
0.00020840755
0.00020822151
0.00020818116
0.00020828628
0.00020854584
0.000208982
0.00020963334
0.00021055286
0.0002097814
0.00020821962
0.00020676579
0.00020557226
0.00020484615
0.00020476025
0.00020533894
0.00020645618
0.00020793253
0.00020959441
0.00021130794
0.00021298276
0.00021456584
0.0002160314
0.00021737171
0.00021858989
0.00021969501
0.00022069888
0.00022161418
0.00022245334
0.00022322813
0.00022393684
0.00021907213
0.0002188737
0.00021864347
0.0002183605
0.0002180207
0.00021761972
0.00021715156
0.00021661078
0.00021599194
0.00021529076
0.00021450556
0.00021363922
0.00021270121
0.00021171097
0.00021070364
0.00020973416
0.00020886607
0.00020815211
0.00020761804
0.00020726247
0.00020707026
0.00020702724
0.00020712775
0.00020737783
0.00020780052
0.0002084422
0.00020937167
0.00020894123
0.00020710449
0.00020533469
0.000203818
0.00020284706
0.00020269431
0.0002034035
0.00020477401
0.00020654971
0.00020849936
0.0002104606
0.00021233417
0.00021406963
0.0002156488
0.00021707279
0.00021835286
0.00021950485
0.00022054588
0.00022149267
0.0002223607
0.00022316406
0.000223903
0.00021863759
0.00021845865
0.00021824409
0.00021797334
0.00021764229
0.00021724595
0.00021677725
0.00021622916
0.00021559414
0.00021486513
0.00021403733
0.00021311055
0.0002120916
0.00021099827
0.00020986858
0.00020877078
0.00020779049
0.0002069987
0.00020642481
0.00020605704
0.00020586439
0.00020582031
0.00020591203
0.00020614117
0.00020652986
0.00020713266
0.00020803792
0.00020811334
0.00020596023
0.00020380688
0.00020186868
0.00020055559
0.00020030753
0.00020121085
0.00020293075
0.00020509773
0.00020740242
0.00020965269
0.00021174544
0.0002136395
0.00021533005
0.00021683106
0.00021816455
0.00021935457
0.00022042429
0.00022139481
0.00022228473
0.00022311043
0.00022387405
0.00021822609
0.00021806548
0.00021786769
0.00021761124
0.00021729161
0.00021690304
0.00021643726
0.00021588542
0.00021523742
0.00021448272
0.00021361223
0.0002126213
0.00021151249
0.0002102994
0.00020902038
0.00020775982
0.0002066364
0.00020574985
0.00020513474
0.00020476249
0.00020457742
0.0002045359
0.00020461737
0.00020481781
0.00020515469
0.00020568893
0.00020653125
0.00020732635
0.00020481645
0.00020220285
0.00019971117
0.00019790459
0.00019750709
0.00019870631
0.00020091465
0.00020359643
0.00020633726
0.00020891983
0.00021124799
0.00021330062
0.00021509412
0.00021666035
0.0002180348
0.00021925107
0.00022033893
0.00022132391
0.00022222763
0.0002230686
0.00022385066
0.00021781706
0.00021767901
0.00021750036
0.00021726049
0.00021695504
0.00021657764
0.00021611881
0.00021556779
0.00021491165
0.00021413581
0.00021322574
0.00021217072
0.00021096727
0.00020962147
0.00020816663
0.00020670477
0.0002054047
0.00020441264
0.00020377001
0.00020342042
0.00020326799
0.00020324415
0.0002033203
0.00020348542
0.00020374487
0.00020416151
0.00020487323
0.00020604005
0.00020373307
0.00020057023
0.00019735021
0.00019481279
0.00019415666
0.00019582039
0.00019872068
0.0002020836
0.00020535535
0.00020831099
0.00021088171
0.00021308276
0.00021496213
0.00021657518
0.00021797345
0.00021920101
0.00022029428
0.00022128299
0.00022219141
0.00022303983
0.00022383346
0.00021746816
0.00021735095
0.00021719282
0.00021697246
0.00021668534
0.00021632451
0.00021587927
0.0002153369
0.0002146814
0.00021389345
0.00021295142
0.00021183591
0.00021053464
0.00020904161
0.00020737449
0.00020564942
0.00020411182
0.00020298641
0.00020232351
0.00020202226
0.00020192132
0.0002019177
0.0002019801
0.00020209614
0.00020224977
0.0002024999
0.00020301703
0.00020404778
0.00020277715
0.00019900123
0.00019484858
0.00019121036
0.00019006017
0.0001924694
0.00019635927
0.00020062683
0.0002045343
0.00020789245
0.00021069594
0.00021301991
0.00021495648
0.00021658996
0.00021798969
0.00021921027
0.00022029416
0.00022127457
0.00022217775
0.00022302517
0.000223823
0.00021720051
0.00021710855
0.00021697487
0.00021677853
0.00021651534
0.00021617777
0.00021575401
0.0002152293
0.00021458445
0.00021379502
0.00021283102
0.00021166157
0.00021026302
0.00020861398
0.00020670098
0.00020463889
0.00020279058
0.00020152057
0.00020088649
0.00020071719
0.00020074081
0.00020080608
0.0002008903
0.00020099353
0.00020105243
0.00020109854
0.00020133216
0.00020206206
0.00020232357
0.00019782296
0.00019245196
0.00018712481
0.0001849592
0.00018857282
0.00019388279
0.00019934641
0.00020399067
0.00020775221
0.00021074966
0.00021314888
0.0002150992
0.0002167176
0.00021809107
0.00021928332
0.00022034132
0.0002213004
0.00022218781
0.00022302541
0.00022381968
0.00021725964
0.00021719579
0.00021709259
0.00021692805
0.00021669837
0.00021639576
0.00021600776
0.00021551828
0.00021490564
0.0002141409
0.00021318526
0.0002119928
0.00021052316
0.00020873584
0.00020656263
0.00020406858
0.00020178745
0.00020035074
0.00019980547
0.00019987907
0.00020010522
0.00020026555
0.00020036301
0.00020044914
0.00020036924
0.00020009267
0.00019988243
0.00020010161
0.00020118336
0.00019740083
0.00019066086
0.00018291664
0.00017861442
0.00018416408
0.0001914681
0.00019845296
0.00020389569
0.00020800289
0.0002111092
0.00021350601
0.00021540925
0.00021696768
0.00021828232
0.00021942248
0.00022043694
0.0002213612
0.00022222207
0.00022304091
0.00022382377
0.00021801701
0.00021798816
0.00021793005
0.00021781548
0.00021764067
0.00021739779
0.00021707429
0.00021665332
0.00021611108
0.00021541416
0.00021451398
0.00021334406
0.00021183688
0.00020993093
0.00020748656
0.00020441533
0.00020147793
0.00019988179
0.00019958087
0.0002001775
0.0002008216
0.00020120622
0.00020138375
0.00020158194
0.00020150144
0.00020093312
0.00020031531
0.00019986113
0.00020080792
0.00019976204
0.0001912969
0.00018002125
0.00017094781
0.00017965778
0.00018947923
0.0001982718
0.00020448868
0.00020878067
0.00021184197
0.00021412132
0.00021589856
0.00021734403
0.000218564
0.00021962724
0.00022058032
0.00022145641
0.00022228026
0.00022307161
0.00022383531
0.00022066384
0.00022071202
0.00022074187
0.0002207213
0.00022064846
0.00022051637
0.00022031376
0.0002200247
0.00021962544
0.00021908117
0.00021833801
0.00021731137
0.00021589832
0.00021401605
0.00021146402
0.0002077863
0.00020388369
0.00020236608
0.00020272473
0.00020450437
0.00020600915
0.00020690998
0.00020732183
0.00020797673
0.00020832138
0.00020732389
0.00020618923
0.00020432504
0.00020496008
0.00020348409
0.00019649993
0.00018118211
0.00016222061
0.00017630842
0.00018869752
0.00019949685
0.00020614902
0.0002102463
0.00021300398
0.00021500908
0.00021656672
0.00021784216
0.00021893128
0.00021989359
0.00022076855
0.00022158409
0.00022236122
0.00022311693
0.00022385412
0.00022642317
0.00022656634
0.00022672903
0.00022685667
0.00022694703
0.00022699521
0.00022699403
0.00022693265
0.00022679273
0.00022654459
0.00022613717
0.0002254726
0.00022438801
0.00022271864
0.00022022014
0.00021576646
0.000209566
0.00020824664
0.00020948507
0.00021348482
0.00021646258
0.00021835292
0.00021896571
0.00022040457
0.00022210325
9.3007684e-05
9.5433605e-05
9.7691746e-05
9.9882193e-05
0.00010288237
9.4463712e-05
8.6204529e-05
0.00010657298
0.00017933354
0.00019343345
0.00020412696
0.00020945431
0.0002125345
0.00021460543
0.00021615196
0.00021739465
0.00021844682
0.00021937309
0.00022021384
0.00022099643
0.00022174089
0.0002224629
0.0002231758
0.00022387979
0.00023924586
0.00023969349
0.00024019443
0.0002406806
0.0002411611
0.00024164004
0.00024212222
0.00024261139
0.00024310638
0.00024359643
0.00024404882
0.00024437081
0.00024434161
0.00024362509
0.00024200473
0.00023807303
0.00022682246
0.00022935476
0.00023549174
0.00025020936
0.00026144134
0.00027023364
0.00012828148
0.00016688177
0.00032275045
0.00046159607
0.00049956686
0.00049956686
0.00049956686
0.00049956686
0.00049956686
0.00045031239
0.0003364983
6.807527e-05
0.00021297377
0.00021346085
0.00021437875
0.00021549435
0.00021653641
0.00021748108
0.00021833983
0.00021913129
0.00021987229
0.00022057684
0.00022125672
0.00022192217
0.00022258249
0.00022324665
0.00022391165
0.00026426903
0.00026527748
0.0002664311
0.00026762752
0.00026888729
0.000270235
0.00027170479
0.00027333964
0.00027519273
0.00027733153
0.00027984246
0.0002828229
0.00028637412
0.00029054798
0.00029518012
0.00030233734
0.0002734579
0.00030500943
0.00035659582
0.00037254952
0.00027822195
0.00031972673
0.00049956686
0.00049956686
0.00049956686
0.00049956686
0.00049956686
0.00049956686
0.00049956686
0.00049956686
0.00041263398
0.00041826943
0.00010203822
0.0002665902
0.00023113993
0.00022209697
0.00021927524
0.00021853481
0.00021855424
0.00021888176
0.00021934144
0.00021986047
0.00022040742
0.00022096901
0.00022154068
0.00022212235
0.00022271653
0.00022332754
0.00022394887
0.00030195429
0.00030409667
0.00030622673
0.00030842913
0.00031077839
0.00031334733
0.00031622192
0.00031951542
0.00032338728
0.00032808111
0.00033399312
0.00034169906
0.00035173201
0.00036474691
0.000384922
0.00040158257
0.00025702343
0.00025319914
0.00026337851
0.00048921517
0.00047848994
0.00048855294
0.00047869855
0.00047372165
0.00047746534
0.00045865804
0.00045171927
0.00045351617
0.00044093607
0.00043652048
0.00010691828
0.00010767076
0.00021977634
0.00025235689
0.00023694824
0.0002274106
0.00022311576
0.000221219
0.00022044936
0.00022024469
0.00022033819
0.00022059791
0.00022095581
0.00022137582
0.00022183886
0.0002223353
0.00022286117
0.00022341624
0.00022399043
0.00028856537
0.00028908362
0.00028927353
0.00028946005
0.00028964527
0.00028986113
0.00029013364
0.00029049965
0.00029101214
0.0002917487
0.00029283147
0.0002938769
0.00029481601
0.00029557405
0.00029293203
0.00010292924
0.00037622856
0.00047082381
0.00047253649
0.00049383687
0.00048613823
0.0004824508
0.00012420999
0.00012127926
0.0001007701
0.00010005412
0.000100629
0.00010197281
0.00010292725
0.00010452161
0.00020120891
0.00020767814
0.00021808292
0.00023901575
0.00023963005
0.00023076138
0.00022595773
0.00022341695
0.00022210829
0.00022149278
0.0002212803
0.00022131148
0.00022149643
0.00022178331
0.00022214192
0.00022255481
0.00022301241
0.00022351037
0.00022403524
0.00022327515
0.00022310736
0.00022281899
0.00022254027
0.000222279
0.00022205231
0.00022187621
0.000221774
0.00022177803
0.00022193317
0.00022230436
0.00022209443
0.0002211631
0.00021941678
0.00021672861
0.00021314661
9.5859421e-05
9.9101846e-05
9.9869052e-05
9.9773877e-05
0.00010014961
0.00010017638
0.00021253988
0.00021081369
0.00020892985
0.00020554381
0.00020443536
0.00020387899
0.000202108
0.0002021262
0.00020330663
0.00020901279
0.00021823623
0.00023217545
0.00023802124
0.00023248194
0.00022785739
0.0002250894
0.00022347608
0.0002225792
0.00022213278
0.00022197622
0.00022201174
0.00022217921
0.00022244132
0.00022277501
0.00022316636
0.00022360756
0.00022408215
0.00021926613
0.00021934601
0.00021947237
0.00021960772
0.0002197633
0.00021995123
0.0002201841
0.00022047799
0.00022085218
0.00022132952
0.00022186415
0.00022156886
0.00022081342
0.00021957746
0.0002178036
0.00021498958
0.00021250685
0.00021402907
0.00021587929
0.00021421457
0.0002123815
0.00021121568
0.00021005904
0.0002083372
0.00020730338
0.00020568593
0.00020477975
0.00020420534
0.00020347951
0.00020394828
0.00020593226
0.00021088852
0.00021854828
0.00022810795
0.0002338315
0.00023318207
0.00022902061
0.00022628598
0.00022454834
0.00022348494
0.00022287573
0.00022257531
0.00022248863
0.00022255364
0.00022272979
0.00022299069
0.00022331942
0.00022370553
0.00022413005
0.00021788924
0.00021796881
0.00021809415
0.0002182329
0.00021838793
0.00021856679
0.00021877801
0.00021903268
0.00021934331
0.00021972363
0.00021997933
0.00021948728
0.00021872917
0.00021765481
0.00021622753
0.00021439194
0.00021326112
0.00021411271
0.00021527039
0.00021349511
0.0002119018
0.00021068265
0.00020952603
0.00020831101
0.00020735621
0.00020629723
0.00020564686
0.00020528626
0.0002052119
0.00020608762
0.00020833116
0.00021262022
0.00021875905
0.00022561453
0.00023029993
0.00023231267
0.00022962737
0.00022708137
0.0002253476
0.00022421039
0.00022350164
0.00022309951
0.00022291846
0.00022289936
0.00022300159
0.00022319749
0.00022346845
0.00022380224
0.00022417791
0.00021721096
0.00021733192
0.00021747164
0.00021762268
0.00021779098
0.00021798297
0.00021820482
0.00021846404
0.00021876766
0.00021912108
0.00021921493
0.00021877181
0.00021812025
0.00021723023
0.0002160814
0.00021482217
0.00021419532
0.00021469896
0.00021503891
0.0002134115
0.00021201397
0.00021086201
0.00020980449
0.00020882294
0.00020800286
0.00020726729
0.0002068487
0.00020673388
0.00020702998
0.000208123
0.00021033524
0.00021399238
0.00021887065
0.00022400942
0.000227863
0.00023021859
0.00022984662
0.00022755954
0.00022591087
0.00022476857
0.00022401224
0.00022354579
0.00022329666
0.00022321169
0.00022325256
0.00022339199
0.00022361084
0.00022389591
0.0002242248
0.00021692169
0.00021699478
0.00021711077
0.00021724594
0.00021739836
0.00021757157
0.00021776936
0.00021799663
0.00021825726
0.00021855274
0.00021852324
0.00021813376
0.00021760125
0.0002169141
0.00021608481
0.00021529067
0.00021497718
0.00021536545
0.00021499571
0.00021359461
0.0002123692
0.00021132266
0.00021038919
0.00020956877
0.0002088944
0.00020837623
0.00020813543
0.00020820837
0.00020871208
0.00020988764
0.00021195294
0.00021505061
0.00021895095
0.00022294341
0.00022613915
0.00022830374
0.00022930038
0.00022779413
0.00022627864
0.00022517897
0.00022441526
0.00022391579
0.00022362198
0.00022348822
0.00022348002
0.00022357172
0.00022374458
0.00022398509
0.00022426992
0.00021677906
0.00021689205
0.0002170176
0.0002171533
0.00021730315
0.00021747022
0.00021765621
0.00021786297
0.00021809057
0.00021833584
0.00021824908
0.00021790041
0.0002174482
0.00021689713
0.00021628726
0.00021577745
0.00021563499
0.00021596284
0.00021504852
0.0002138592
0.00021279599
0.00021186998
0.0002110608
0.00021037602
0.00020983851
0.00020948082
0.00020937825
0.00020958336
0.00021019753
0.00021137679
0.00021325704
0.00021588278
0.00021904251
0.00022223345
0.00022490813
0.00022685663
0.00022809006
0.00022785096
0.00022649049
0.00022546372
0.00022472193
0.00022421433
0.00022389567
0.00022372841
0.00022368263
0.00022373511
0.00022386821
0.00022406864
0.00022431264
0.00021670576
0.00021677589
0.00021688229
0.00021700556
0.00021714322
0.00021729638
0.00021746521
0.00021764993
0.00021784863
0.00021805584
0.00021796822
0.00021768305
0.00021732713
0.00021691357
0.00021649074
0.00021618352
0.00021615679
0.0002161816
0.00021514067
0.00021413964
0.00021322843
0.00021242681
0.00021173729
0.00021117321
0.00021075729
0.00021052508
0.00021053101
0.00021082766
0.00021149511
0.00021263501
0.00021432538
0.0002165599
0.00021915733
0.00022176453
0.00022402361
0.0002257603
0.00022694903
0.00022750553
0.00022658063
0.00022564457
0.00022494492
0.00022444812
0.00022412079
0.00022393314
0.0002238601
0.00022388135
0.00022398078
0.00022414577
0.00022435248
0.00021665249
0.00021674403
0.00021685084
0.00021696696
0.00021709396
0.00021723281
0.00021738262
0.00021754221
0.00021770822
0.00021787391
0.00021779685
0.00021755895
0.00021727655
0.00021696858
0.00021668275
0.00021651267
0.00021656368
0.00021610925
0.00021525403
0.00021441755
0.00021364665
0.00021296632
0.0002123904
0.0002119362
0.00021162718
0.00021149654
0.00021158717
0.00021194537
0.00021263126
0.00021370996
0.00021522098
0.00021713376
0.00021929939
0.00022146742
0.00022339231
0.00022493378
0.00022605193
0.0002267768
0.0002265792
0.00022574181
0.00022509709
0.0002246248
0.00022430146
0.00022410432
0.00022401304
0.00022401031
0.00022408184
0.00022421597
0.00022438911
0.00021662036
0.00021668704
0.000216782
0.00021688935
0.00021700691
0.00021713438
0.00021726988
0.00021741122
0.00021755406
0.00021769091
0.00021764808
0.00021746007
0.00021724618
0.00021702754
0.00021684691
0.00021677393
0.00021670987
0.00021608846
0.00021538616
0.00021469261
0.00021404932
0.00021348311
0.00021301306
0.00021265865
0.00021244317
0.00021239615
0.00021255249
0.00021295029
0.00021363311
0.00021464112
0.00021598947
0.00021763806
0.00021946704
0.00022129574
0.0002229492
0.00022431573
0.00022535205
0.0002260678
0.0002263797
0.00022577297
0.0002251906
0.00022475222
0.00022444244
0.00022424458
0.00022414266
0.00022412235
0.0002241713
0.00022427899
0.00022442233
0.00021659656
0.00021666898
0.0002167594
0.00021685795
0.00021696428
0.00021707802
0.00021719687
0.00021731815
0.00021743719
0.00021754664
0.00021753785
0.00021739149
0.00021723374
0.00021708556
0.00021698327
0.0002169515
0.00021664402
0.0002161097
0.00021553541
0.00021496623
0.00021443801
0.00021397713
0.00021360446
0.00021334013
0.00021320628
0.00021322865
0.00021343571
0.0002138575
0.00021452452
0.00021545994
0.00021666419
0.00021809542
0.00021965796
0.00022121883
0.00022264961
0.00022386154
0.0002248131
0.0002255025
0.00022595407
0.00022575332
0.00022523653
0.000224838
0.00022454867
0.00022435691
0.00022425061
0.00022421826
0.00022424942
0.00022433482
0.00022445204
0.00021658568
0.00021664581
0.00021672843
0.00021681955
0.00021691722
0.00021702047
0.00021712656
0.0002172325
0.00021733353
0.00021742265
0.000217449
0.00021733989
0.00021722939
0.00021713714
0.00021709328
0.0002169683
0.0002166005
0.00021616567
0.00021570009
0.00021523946
0.0002148144
0.00021444956
0.00021416564
0.00021398222
0.00021391965
0.00021399998
0.00021424622
0.00021468126
0.00021532562
0.00021619101
0.00021726944
0.00021852112
0.00021986971
0.00022121536
0.00022246158
0.00022353766
0.00022440598
0.00022505883
0.00022550994
0.00022566435
0.0002252446
0.00022488925
0.00022462505
0.00022444451
0.00022433886
0.00022429909
0.00022431667
0.00022438362
0.00022447828
0.00021658202
0.0002166407
0.00021671772
0.00021680105
0.00021688935
0.00021698162
0.00021707499
0.00021716645
0.00021725146
0.00021732369
0.00021736691
0.0002173009
0.00021722872
0.00021717978
0.00021711422
0.00021689989
0.00021659947
0.00021624935
0.00021587732
0.00021551194
0.00021517919
0.00021490135
0.00021469787
0.00021458699
0.00021458684
0.00021471602
0.00021499279
0.00021543405
0.00021605282
0.00021685316
0.00021782271
0.00021892532
0.00022009981
0.00022126984
0.0002223615
0.00022331828
0.00022410718
0.00022471779
0.00022515709
0.00022544323
0.00022522319
0.00022491239
0.00022467626
0.00022451062
0.00022440948
0.00022436611
0.00022437373
0.00022442567
0.00022450113
0.00021658686
0.00021663908
0.00021671028
0.0002167871
0.00021686771
0.00021695092
0.00021703384
0.00021711357
0.00021718595
0.00021724541
0.00021728489
0.00021726898
0.00021722796
0.00021717784
0.00021706198
0.00021687259
0.00021663155
0.00021635481
0.00021606423
0.00021578291
0.00021553281
0.00021533359
0.0002152029
0.00021515713
0.00021521202
0.00021538292
0.00021568401
0.00021612725
0.00021672009
0.00021746162
0.0002183375
0.0002193157
0.00022034684
0.00022137162
0.00022233256
0.0002231843
0.00022389851
0.00022446402
0.00022488368
0.00022517004
0.00022517963
0.00022491323
0.00022470671
0.0002245584
0.00022446464
0.00022442068
0.00022442139
0.00022446136
0.00022452074
0.00021659763
0.00021664658
0.00021671281
0.00021678337
0.00021685659
0.00021693136
0.00021700487
0.00021707446
0.00021713644
0.00021718609
0.00021721765
0.00021722443
0.00021719927
0.00021713534
0.00021702769
0.00021687682
0.00021668871
0.00021647641
0.00021625749
0.00021605084
0.00021587494
0.00021574686
0.00021568214
0.00021569506
0.00021579894
0.00021600613
0.00021632725
0.00021677026
0.00021733851
0.00021802789
0.00021882348
0.00021969725
0.00022060906
0.00022151217
0.00022236138
0.00022312018
0.00022376463
0.00022428391
0.00022467853
0.00022495724
0.00022509779
0.00022489672
0.0002247203
0.00022459079
0.00022450644
0.00022446422
0.00022446048
0.00022449112
0.00022453727
0.00021661379
0.00021665877
0.00021672051
0.0002167857
0.00021685261
0.00021692016
0.00021698572
0.00021704696
0.00021710071
0.00021714312
0.00021716964
0.00021717525
0.00021715483
0.00021710397
0.00021702007
0.00021690502
0.00021676449
0.00021660939
0.00021645415
0.0002163143
0.00021620536
0.00021614191
0.00021613726
0.00021620354
0.00021635164
0.00021659116
0.00021692964
0.00021737177
0.00021791787
0.00021856179
0.00021928881
0.00022007452
0.000220886
0.00022168603
0.00022243874
0.00022311472
0.00022369404
0.00022416694
0.00022453272
0.00022479769
0.00022497276