/*--------------------------------*- C++ -*----------------------------------*\
| =========                 |                                                 |
| \\      /  F ield         | foam-extend: Open Source CFD                    |
|  \\    /   O peration     | Version:     4.1                                |
|   \\  /    A nd           | Web:         http://www.foam-extend.org         |
|    \\/     M anipulation  |                                                 |
\*---------------------------------------------------------------------------*/
FoamFile
{
    version     2.0;
    format      ascii;
    class       volScalarField;
    location    "0.65";
    object      p;
}
// * * * * * * * * * * * * * * * * * * * * * * * * * * * * * * * * * * * * * //

dimensions      [0 2 -2 0 0 0 0];

internalField   nonuniform List<scalar> 
4393
(
-46.402756
-92.95408
-146.70394
-201.47984
-258.45475
-317.9393
-380.31636
-445.89544
-514.90079
-587.44261
-663.489
-742.8377
-825.09088
-909.63628
-995.63906
-1082.0471
-1167.6104
-1250.9118
-1330.4049
-1404.4526
-1471.3638
-1529.4282
-1576.9513
-1612.2951
-1633.9319
-1640.5185
-1631.0001
-1604.7567
-1561.681
-1502.273
-1427.7437
-1339.9982
-1241.5307
-1135.2414
-1024.2107
-911.47288
-799.82729
-691.7064
-589.1072
-493.57781
-406.24557
-327.87156
-258.91628
-199.60559
-150.00084
-110.07107
-79.596978
-57.667954
-43.464389
-45.15062
-92.368366
-145.99153
-200.61624
-257.42207
-316.75187
-379.0021
-444.49436
-513.46474
-586.03549
-662.1863
-741.72501
-824.26081
-909.18394
-995.65636
-1082.617
-1168.802
-1252.7781
-1332.9819
-1407.7603
-1475.4077
-1534.1992
-1582.4235
-1618.421
-1640.6351
-1647.6889
-1638.4926
-1612.3509
-1569.0933
-1509.2126
-1433.9256
-1345.1723
-1245.5126
-1137.9324
-1025.602
-911.63583
-798.89321
-689.84328
-586.49746
-490.40049
-402.66405
-324.02663
-254.9261
-195.57551
-146.02772
-106.1914
-75.795756
-54.698742
-44.101303
-44.346444
-91.471765
-144.7335
-198.99752
-255.4526
-314.4712
-376.47191
-441.79858
-510.71044
-583.35343
-659.73007
-739.66781
-822.78921
-908.48836
-995.9193
-1084.001
-1171.4403
-1256.7694
-1338.3902
-1414.6176
-1483.7176
-1543.9371
-1593.5327
-1630.8017
-1654.1267
-1662.051
-1653.3961
-1627.3837
-1583.7516
-1522.9208
-1446.1021
-1355.3051
-1253.2261
-1143.0296
-1028.0721
-911.6311
-796.68612
-685.77671
-580.9384
-483.70336
-395.14567
-315.95219
-246.50697
-186.97938
-137.37884
-97.519982
-67.092868
-46.539866
-37.75807
-43.555823
-90.176291
-142.83022
-196.51587
-252.42703
-310.96479
-372.57654
-437.63809
-506.44345
-579.17506
-655.87125
-736.39091
-820.3787
-907.23623
-996.10643
-1085.878
-1175.2121
-1262.5877
-1346.3536
-1424.7773
-1496.0837
-1558.4812
-1610.1819
-1649.4224
-1674.4971
-1683.8267
-1676.0867
-1650.3477
-1606.199
-1543.9554
-1464.8143
-1370.8915
-1265.1002
-1150.8898
-1031.9129
-911.70359
-793.42751
-679.72994
-572.67914
-473.78348
-384.05581
-304.10224
-234.22305
-174.51238
-124.9046
-85.124758
-54.85857
-34.772546
-26.629155
-42.730788
-88.559205
-140.36037
-193.2419
-248.4052
-306.28217
-367.35566
-432.04299
-500.68475
-573.51325
-650.61662
-731.89829
-817.03522
-905.44103
-996.24392
-1088.2898
-1180.1748
-1270.3021
-1356.9466
-1438.3122
-1512.5718
-1577.8876
-1632.4189
-1674.3278
-1701.796
-1713.0822
-1706.6602
-1681.3796
-1636.6046
-1572.4816
-1490.1748
-1391.9448
-1281.0171
-1161.2547
-1036.7368
-911.36129
-788.55013
-671.08724
-561.07514
-459.97829
-368.71621
-287.77829
-217.34582
-157.40374
-107.78477
-68.131712
-38.137865
-18.523434
-10.76776
-41.722339
-86.510455
-137.21253
-189.05901
-243.26013
-300.28297
-360.65312
-424.83968
-493.24281
-566.15996
-643.7456
-725.96405
-812.53809
-902.90051
-996.16192
-1091.1108
-1186.2544
-1279.8925
-1370.2018
-1455.3058
-1533.3168
-1602.3473
-1660.5014
-1705.8578
-1736.4623
-1750.369
-1745.7832
-1721.252
-1675.8175
-1609.3711
-1523.0053
-1419.1669
-1301.5134
-1174.4854
-1042.7521
-910.7032
-782.0953
-659.88026
-546.18653
-442.40226
-349.30963
-267.23452
-196.19437
-136.02332
-86.420003
-46.927742
-17.209004
2.0531172
9.5912049
-40.58059
-84.1013
-133.45155
-184.01631
-237.01915
-292.96822
-352.43962
-415.965
-484.01822
-556.97902
-635.08774
-718.38977
-806.67179
-899.39667
-995.65559
-1094.162
-1193.3038
-1291.2423
-1386.0263
-1475.6813
-1558.2539
-1631.8116
-1694.4099
-1744.0446
-1778.6104
-1795.9137
-1793.8153
-1770.4574
-1724.4311
-1655.2443
-1563.8489
-1452.9199
-1326.7021
-1190.4309
-1049.5757
-909.17518
-773.40678
-645.41301
-527.32552
-420.40794
-325.24742
-241.94992
-170.31883
-109.99579
-60.515728
-21.300621
8.0611742
26.978811
34.345342
-39.171269
-81.180313
-128.91787
-177.94929
-229.51004
-284.15457
-342.51708
-405.20302
-472.77534
-545.71564
-624.3732
-708.89981
-799.17014
-894.69368
-994.54225
-1097.3324
-1201.2917
-1304.3966
-1404.5298
-1499.5991
-1587.5858
-1666.5262
-1734.4467
-1789.2734
-1828.7443
-1850.378
-1851.6043
-1830.0375
-1783.6455
-1711.3636
-1613.8838
-1494.1488
-1357.1993
-1209.3615
-1057.184
-906.54891
-762.14789
-627.32256
-504.16122
-393.72987
-296.34201
-211.81178
-139.66849
-79.315248
-30.092157
8.7226559
37.644146
56.195857
63.399881
-37.639014
-77.906549
-123.75966
-170.98237
-220.82547
-273.8953
-330.89168
-392.50555
-459.40587
-532.19861
-611.36996
-697.21033
-789.71565
-888.46777
-992.52392
-1100.377
-1210.0395
-1319.2388
-1425.6418
-1527.017
-1621.2874
-1706.4861
-1780.647
-1841.6587
-1887.1113
-1914.2024
-1919.8349
-1900.9444
-1854.647
-1779.0261
-1674.3116
-1543.7408
-1393.4396
-1231.2418
-1065.1527
-902.14234
-747.51352
-604.79144
-475.93996
-361.72148
-262.07152
-176.42311
-103.96159
-43.800619
4.948831
43.177133
71.525241
89.642651
96.664736
-35.734631
-73.981307
-117.65633
-162.78308
-210.61962
-261.82696
-317.17687
-377.45737
-443.46147
-515.94517
-595.56471
-682.78948
-777.78154
-880.234
-989.2015
-1103.0195
-1219.4086
-1335.7555
-1449.4418
-1558.071
-1659.5258
-1751.883
-1833.2453
-1901.5223
-1954.1888
-1988.1011
-1999.5359
-1984.5695
-1939.1694
-1860.1575
-1746.9592
-1603.1016
-1436.2057
-1256.2177
-1073.1179
-895.27116
-728.6821
-577.00117
-441.93456
-323.78941
-221.98602
-135.46714
-62.994697
-3.3394903
44.65002
82.053843
109.65397
127.23348
134.03647
-33.784921
-69.783933
-110.99407
-153.72205
-199.23577
-248.25372
-301.62469
-360.24444
-425.04884
-496.97253
-576.88097
-665.47283
-763.13732
-869.73853
-984.35574
-1105.1275
-1229.3754
-1354.0145
-1476.0451
-1592.8782
-1702.3912
-1802.7786
-1892.3056
-1968.9959
-2030.2733
-2072.6535
-2091.6956
-2082.3995
-2039.2081
-1957.0878
-1834.0812
-1673.9233
-1486.33
-1284.2601
-1080.3928
-884.8699
-704.46164
-542.81401
-401.16545
-279.15477
-175.50895
-88.548641
-16.523497
42.193534
89.047444
125.32378
151.95333
168.85736
175.38941
-31.309369
-64.727208
-103.13213
-143.12399
-185.96234
-232.42091
-283.42814
-339.99718
-403.22649
-474.26195
-554.22486
-644.10598
-744.60402
-855.84545
-976.98805
-1105.9285
-1239.4343
-1373.7524
-1505.359
-1631.4363
-1749.9125
-1859.2076
-1957.8805
-2044.2115
-2115.688
-2168.5239
-2197.5021
-2196.2892
-2157.3476
-2072.9579
-1938.7995
-1758.5611
-1544.9478
-1315.3162
-1086.0633
-869.5741
-673.3807
-500.8772
-352.51257
-226.9632
-122.03656
-35.276837
35.67361
92.892009
138.1414
172.92091
198.31022
214.37038
220.56721
-28.922646
-59.555495
-94.868815
-131.80725
-171.624
-215.14576
-263.38009
-317.46354
-378.67449
-448.40355
-528.07953
-619.05825
-722.45349
-838.78876
-967.39887
-1105.8922
-1250.2574
-1395.7774
-1538.1973
-1674.4367
-1802.583
-1921.4498
-2030.0805
-2127.2227
-2210.6178
-2276.2649
-2318.1085
-2328.2598
-2296.7004
-2211.817
-2065.2964
-1860.1512
-1613.4385
-1349.1198
-1088.7472
-847.49605
-633.51195
-449.49972
-294.63695
-166.23954
-60.914964
24.743285
93.795504
148.81282
191.88959
224.73531
248.56925
263.58911
269.37562
-25.822016
-53.275478
-85.106717
-118.59763
-154.96224
-195.06871
-239.99779
-291.01157
-349.58418
-417.38803
-496.22087
-587.89263
-694.07112
-815.88301
-953.02814
-1102.8041
-1260.1
-1418.7841
-1573.5586
-1721.0423
-1859.6506
-1988.8139
-2108.2848
-2217.5434
-2314.868
-2396.2115
-2454.658
-2480.5997
-2461.0953
-2379.0351
-2219.3944
-1983.0717
-1693.5694
-1385.1209
-1086.441
-816.09268
-582.39736
-386.63296
-225.99897
-95.924444
8.5189313
91.8738
157.98826
209.95358
250.19098
280.60194
302.52467
316.28402
321.57615
-22.976888
-47.089676
-75.170874
-104.89955
-137.45157
-173.72777
-214.87341
-262.27262
-317.60478
-382.85837
-460.26436
-552.18113
-660.99063
-788.70967
-935.72315
-1099.0349
-1271.9416
-1446.1664
-1614.8693
-1774.3319
-1923.5999
-2063.0752
-2193.5364
-2315.5958
-2428.5599
-2528.6787
-2608.2184
-2655.7431
-2655.1035
-2581.6995
-2409.3037
-2133.5416
-1787.5571
-1422.2413
-1076.1873
-771.90148
-516.89242
-309.80782
-144.85466
-14.90003
86.902295
166.40987
228.31681
276.23089
312.8701
340.28985
359.91283
372.17356
376.88077
-19.223522
-39.552439
-63.464216
-89.002101
-117.25076
-149.11624
-185.78481
-228.74386
-279.87226
-341.50031
-416.36104
-507.46527
-618.0939
-751.56533
-909.53075
-1088.8814
-1280.6334
-1473.2443
-1657.6045
-1829.6991
-1989.775
-2139.738
-2281.7118
-2417.8308
-2549.0274
-2672.2758
-2779.021
-2855.9747
-2884.014
-2829.1547
-2646.8598
-2320.7266
-1898.1939
-1458.537
-1053.6234
-710.22475
-433.01695
-216.10933
-49.296302
77.946476
174.78385
248.52842
304.72688
347.45397
379.65965
403.49104
420.40515
430.91947
434.94794
-15.899877
-32.355798
-51.873437
-72.924828
-96.500061
-123.49344
-155.11375
-192.93494
-239.02774
-296.09102
-367.44299
-456.86184
-568.70633
-708.12183
-878.99561
-1078.5858
-1294.5556
-1510.1723
-1712.794
-1898.1193
-2068.5001
-2228.0668
-2380.5206
-2529.9133
-2679.8562
-2829.1053
-2968.7055
-3083.889
-3153.6662
-3133.5921
-2949.5578
-2558.7851
-2028.959
-1490.6065
-1012.2732
-624.69591
-325.79006
-102.18382
62.664602
183.62473
272.53891
338.22443
387.00124
423.29653
450.18336
469.81069
483.60286
492.12389
495.38064
-11.475832
-23.583063
-38.283616
-54.423938
-72.828402
-94.336756
-120.13446
-151.82753
-191.61694
-242.53428
-308.52328
-394.21124
-505.1319
-648.84228
-833.07152
-1056.6758
-1302.472
-1545.4061
-1767.4417
-1964.2769
-2142.2705
-2309.2035
-2470.6701
-2633.0239
-2804.1898
-2986.2592
-3169.8673
-3338.0407
-3469.4636
-3510.8245
-3343.7137
-2870.4019
-2183.7908
-1512.5656
-942.48519
-506.73887
-189.10152
35.668616
192.93565
302.8889
380.25337
435.23236
474.71064
503.26809
523.94057
538.75961
549.03404
555.32887
557.72671
-7.5384693
-15.393297
-25.207316
-36.263754
-49.196276
-64.751225
-84.044978
-108.66475
-140.88453
-184.04268
-242.80801
-322.8496
-430.96427
-577.71025
-777.23879
-1032.8255
-1320.2922
-1600.5953
-1847.1411
-2055.9042
-2240.5343
-2414.4923
-2584.7434
-2758.9141
-2950.9185
-3168.273
-3401.3557
-3630.2032
-3839.4828
-3978.9993
-3867.5717
-3293.7039
-2367.4979
-1515.1416
-830.0356
-344.94442
-15.689192
201.2538
343.06716
436.01771
497.57552
538.93632
567.16372
586.68851
600.29481
609.75078
616.15425
620.01898
621.48215
-2.4895358
-5.65434
-10.10503
-15.573587
-22.443577
-31.338297
-43.265098
-59.733206
-82.985576
-116.52358
-165.68836
-237.26148
-339.02571
-484.41186
-697.38389
-991.56308
-1333.1312
-1658.8418
-1929.2568
-2141.2822
-2322.2724
-2494.7955
-2666.0674
-2842.5473
-3048.4325
-3302.6472
-3598.6015
-3913.7341
-4240.9465
-4552.7452
-4582.5358
-3903.0069
-2588.9104
-1482.8985
-653.17696
-124.14322
202.67731
397.9924
513.81123
582.51404
623.53927
648.27656
663.36266
672.67028
678.46978
682.10166
684.35173
685.62763
686.09784
2.9633966
3.9726702
4.5430981
4.3673375
3.3806413
1.1480368
-3.1249775
-10.72451
-23.644717
-45.240239
-81.332858
-140.05711
-230.14747
-367.18145
-589.55102
-934.40904
-1357.1377
-1749.7988
-2053.9044
-2265.9348
-2438.9337
-2610.652
-2787.8096
-2968.7783
-3193.3689
-3499.4738
-3882.8131
-4312.6362
-4763.4422
-5291.0369
-5573.2799
-4824.8194
-2836.8607
-1375.9092
-376.6789
175.09969
474.30297
627.96378
704.45307
740.72305
756.3742
761.66734
761.97515
760.11514
757.55592
755.04417
752.95797
751.54752
750.98972
8.2836346
13.256839
19.310214
25.140544
31.000041
36.655213
41.571863
44.741266
44.493133
37.791498
18.458341
-23.508968
-98.071981
-219.95245
-443.6625
-852.97886
-1396.507
-1875.402
-2209.6339
-2391.7894
-2529.4293
-2684.6881
-2861.9325
-3027.2043
-3238.1338
-3572.9821
-4023.2532
-4561.3257
-5089.2612
-5959.8657
-6823.1256
-6298.866
-3073.517
-1170.5972
36.743877
572.82747
805.14571
890.28429
911.89549
907.40435
893.34011
876.95184
861.33713
847.73229
836.53119
827.7437
821.26419
817.14509
815.55258
17.841557
25.852899
36.74843
47.700033
59.390965
71.770342
84.595881
97.219267
108.48155
116.19689
114.93331
93.694298
41.633281
-49.442668
-244.43941
-714.6682
-1440.9762
-2032.353
-2412.0086
-2544.3546
-2641.863
-2785.9866
-2981.1541
-3113.0917
-3276.2837
-3677.0919
-4223.9368
-4961.3297
-5678.8571
-7242.3534
-8881.4358
-9067.5445
-3577.5326
-1037.813
635.41374
1099.2364
1197.4588
1179.0683
1129.6054
1077.3599
1030.6547
991.431
959.50365
934.08545
914.29869
899.32806
888.54377
881.77897
879.1769
22.140023
30.875238
46.107594
62.200165
80.124985
100.05374
122.23021
146.67929
173.18937
201.16332
227.34133
240.64359
225.91252
180.37534
45.579132
-482.8818
-1554.1771
-2309.9864
-2772.1292
-2769.4724
-2748.7581
-2812.047
-3021.6293
-3099.4016
-3207.1209
-3762.4903
-4232.5918
-5184.924
-6470.5012
-7862.9758
-9588.4948
-12102.607
-4822.2758
-72.152654
1722.9907
1812.081
1641.2176
1478.8242
1346.2878
1243.2584
1163.6103
1102.0085
1054.3627
1017.6726
989.74107
968.92497
954.07929
944.82105
941.26775
36.930707
46.51969
66.43709
87.280829
110.70474
137.02404
166.84313
200.64694
238.7776
281.56879
327.47073
365.23013
371.67663
347.1569
293.76987
-190.90795
-1816.9903
-2615.086
-3113.7435
-2770.8552
-2626.0621
-2730.7486
-3129.3712
-3270.9661
-3302.8725
0
0
0
0
0
0
0
0
6202.4436
3402.52
2582.5419
2068.2791
1755.8979
1545.1632
1396.1266
1287.0403
1205.4945
1143.8179
1097.0358
1061.7881
1035.7057
1017.1924
1005.679
1001.2647
35.350547
42.155254
63.987131
87.01944
113.13495
142.65526
176.47982
215.5609
260.94119
314.27278
377.41891
445.78054
502.52617
560.56729
710.70575
552.94407
-1995.5094
-2774.3417
-3645.2761
-2966.5869
-3042.8236
-3011.7003
0
0
0
0
0
0
0
0
0
0
10129.281
6286.1633
4123.9348
3000.3209
2361.3195
1969.1912
1709.0672
1527.5849
1396.3106
1299.0699
1226.0214
1170.886
1129.4888
1098.9294
1077.2731
1063.8179
1058.6606
44.255703
54.929896
80.915706
106.92811
136.09
168.95657
206.78075
250.99247
303.37571
366.93165
446.95227
545.8859
652.99271
754.05831
842.30128
568.07496
-3107.4443
-3578.4212
-3203.5658
0
0
0
0
0
0
0
0
0
0
0
1780.1685
3364.0783
5755.7891
5235.9354
3961.2944
3100.1224
2507.119
2107.7298
1830.6534
1632.998
1488.4409
1380.746
1299.588
1238.2143
1192.074
1157.9817
1133.8058
1118.7793
1113.0185
22.190553
42.137079
66.321281
91.21672
118.66662
149.44413
184.62238
225.36545
272.97165
329.6493
399.30246
477.76974
537.15003
535.76048
557.69785
701.94262
0
0
0
0
0
0
-1132.2851
-1103.7632
-1011.5676
-917.84238
-790.39877
-495.64186
-95.3252
696.677
2025.9863
3361.464
4750.6825
4489.6791
3714.6854
3058.6114
2552.6169
2182.1897
1911.4276
1711.6527
1562.3529
1449.5357
1363.7003
1298.3561
1248.997
1212.4009
1186.3874
1170.1957
1163.9843
19.962687
49.991729
74.921809
100.47794
127.87941
157.95823
191.36414
228.53096
269.41746
313.24119
357.69895
396.34082
405.89311
337.79234
141.6523
-338.60868
-1284.3995
-1227.5018
-1147.194
-1100.6142
-1051.2484
-1021.8045
-1010.5788
-803.52186
-838.93529
-583.45178
-362.6385
-204.94103
258.73195
904.47824
1959.9061
3048.9583
3956.2931
3851.7056
3404.1624
2933.4999
2528.3936
2205.9677
1956.6709
1765.4003
1618.5151
1505.3737
1418.1033
1351.0032
1299.9473
1261.8906
1234.7374
1217.7985
1211.2944
20.659978
46.457662
72.073192
97.906635
125.20396
154.7156
187.02213
222.48963
261.1042
301.95737
341.83067
373.4998
384.5632
352.89888
204.94914
-228.19142
-792.39656
-921.048
-962.6595
-966.28795
-887.96258
-842.50186
-818.75617
-692.0262
-621.18844
-417.80177
-179.42341
77.44134
510.5654
1096.1265
1895.8417
2721.2679
3334.6297
3356.6317
3105.5113
2777.0328
2463.2746
2193.7481
1973.5512
1797.6445
1658.4891
1548.9259
1463.0273
1396.1735
1344.8401
1306.3171
1278.6992
1261.421
1254.7787
14.977866
36.19433
58.742439
81.219104
104.20193
127.92964
152.40737
177.27503
201.63055
223.50997
238.69536
239.95464
217.99823
158.94751
14.804114
-284.14881
-607.04475
-732.58983
-784.65241
-794.4367
-753.2927
-703.65926
-642.43931
-537.98376
-424.12445
-238.4969
-11.768468
269.59785
668.30853
1187.4121
1822.9327
2450.6097
2889.2799
2966.8646
2834.8196
2612.8812
2376.087
2157.6026
1969.1311
1812.3409
1684.4377
1581.3496
1499.0708
1434.1545
1383.7888
1345.6956
1318.2334
1300.9948
1294.3585
23.825844
46.419748
70.148087
93.59781
117.46934
141.86946
166.61746
191.08445
213.95142
232.65139
242.50098
236.46898
205.77268
135.16921
-7.4909134
-236.75831
-460.31361
-579.94913
-635.52877
-644.697
-616.00436
-568.47756
-497.48179
-394.67585
-264.57931
-83.176886
138.90346
415.84334
776.74647
1223.4865
1735.2288
2221.4841
2557.0031
2658.37
2599.4672
2454.7204
2280.0755
2107.04
1949.6829
1813.4151
1698.7508
1604.0758
1527.0779
1465.4347
1417.0664
1380.1692
1353.4048
1336.5418
1330.0402
11.997749
29.887818
49.975608
69.963152
89.952525
109.82292
129.266
147.6108
163.60844
175.01384
178.13058
167.86145
137.4268
74.435402
-40.271527
-203.70488
-358.97637
-456.90432
-506.23539
-514.39659
-489.10332
-440.19107
-365.88782
-262.81231
-128.7623
46.728731
261.60807
524.93504
849.41155
1232.0724
1648.377
2032.5638
2301.7336
2411.3976
2397.9711
2308.4051
2183.051
2048.8608
1920.3122
1804.4036
1703.7798
1618.6324
1548.0284
1490.6361
1445.0647
1409.9828
1384.3671
1368.1633
1361.9057
21.392048
40.606365
60.812349
80.310222
99.380131
117.75395
134.91799
149.9798
161.49064
167.1689
163.77509
147.36449
112.88609
52.071864
-43.757211
-165.80346
-279.17527
-356.28811
-395.85251
-400.62387
-375.36264
-324.91079
-248.87015
-145.48972
-11.991732
156.56507
360.82294
605.77866
895.70407
1224.1681
1567.625
1878.2811
2101.7921
2212.007
2226.9906
2176.6276
2089.7308
1987.9719
1885.0187
1788.3212
1701.683
1626.5201
1562.9483
1510.4543
1468.2545
1435.4573
1411.344
1396.0265
1390.1012
11.838359
27.930804
45.906491
63.543598
80.737785
97.134604
112.20486
125.09592
134.47683
138.35559
134.05803
118.38107
87.315609
35.488006
-40.192761
-130.61461
-213.69795
-271.99821
-301.01587
-300.79684
-273.63875
-221.81875
-145.22581
-42.714167
87.782353
248.68864
440.78678
666.06829
924.33941
1207.5009
1494.9501
1751.9483
1942.432
2049.5881
2082.3205
2059.8035
2002.5618
1927.5331
1846.7628
1767.617
1694.345
1629.1326
1572.8452
1525.6096
1487.1504
1456.9643
1434.6113
1420.3505
1414.8243
17.122821
33.208885
50.176383
66.30614
81.640607
95.798014
108.2257
118.10397
124.25083
125.03957
118.45384
102.19345
73.513894
29.443476
-30.170961
-97.560106
-158.30899
-200.63135
-219.55409
-213.70657
-183.73515
-130.52734
-53.955974
46.761
172.89888
325.56336
504.95628
711.024
941.19471
1186.9367
1431.0164
1648.1077
1813.7436
1916.3227
1960.0656
1957.3626
1922.8423
1869.5913
1807.7457
1744.2309
1683.3569
1627.7139
1578.6649
1536.8109
1502.2821
1474.9039
1454.4802
1441.3922
1436.3115
11.942834
26.331389
42.055271
57.153677
71.458897
84.543124
95.851331
104.61039
109.76821
109.97112
103.64867
89.113866
64.588132
28.732597
-17.19551
-66.877784
-110.42151
-139.39875
-149.16496
-137.72446
-104.72542
-50.262834
25.878438
124.20294
245.34396
389.57825
556.43596
744.57382
950.25465
1165.2621
1375.4984
1562.3425
1708.7452
1806.2828
1856.7378
1868.1636
1851.0105
1815.3366
1769.4739
1719.641
1670.0217
1623.3408
1581.2658
1544.7297
1514.1723
1489.6865
1471.2816
1459.4337
1454.8261
13.653597
27.329785
41.827289
55.492217
68.243107
79.684722
89.315455
96.468057
100.28157
99.711669
93.615809
80.850443
60.395741
31.929919
-2.7600384
-38.647266
-68.671607
-86.577361
-88.280845
-71.604682
-35.666926
19.871924
95.291983
190.8811
306.80367
442.77172
597.75812
769.65934
954.27988
1144.0991
1327.7001
1491.2167
1622.4297
1714.9934
1769.4084
1790.9284
1787.0447
1765.4681
1732.9756
1694.9706
1655.3852
1616.9241
1581.4074
1549.9843
1523.3201
1501.7178
1485.3532
1474.7701
1470.6469
11.332875
23.996166
37.599396
50.441357
62.359815
72.961124
81.781607
88.241249
91.638163
91.179157
86.06276
75.580933
59.287389
37.48754
12.109643
-12.820079
-32.065129
-40.814186
-35.575733
-14.211114
24.398678
80.807441
155.31312
248.02881
358.78473
486.90318
630.96338
788.46209
955.15013
1124.3418
1286.81
1432.0664
1551.1088
1639.021
1695.6322
1724.3704
1730.6274
1720.3133
1698.9132
1671.0365
1640.2698
1609.2196
1579.7481
1553.1313
1530.1905
1511.3877
1497.0289
1487.7
1484.0591
11.388217
23.266181
35.879697
47.697153
58.595763
68.221679
76.172592
81.968843
85.063313
84.880577
80.894005
72.728911
60.334919
44.362775
26.68447
10.556141
-0.0041108672
-1.196441
9.9352428
35.381138
76.322763
133.39386
206.87163
296.72776
402.55643
523.41634
657.64114
802.5647
954.10425
1106.4111
1252.0004
1382.7989
1491.9971
1575.6977
1633.3856
1667.2869
1681.2992
1679.9597
1667.6981
1648.4134
1625.3075
1600.8411
1576.8468
1554.6615
1535.2068
1519.0613
1506.6298
1498.5174
1495.3462
10.324136
21.485202
33.374864
44.503911
54.736221
63.747487
71.191704
76.681417
79.80631
80.174968
77.484803
71.618906
62.800621
51.863747
40.551993
31.54217
28.017115
33.039336
49.111849
78.032286
120.94702
178.48956
250.891
338.00862
439.27177
553.56905
679.10318
813.19288
952.02758
1090.5271
1222.5723
1341.8309
1443.0212
1522.989
1581.0529
1618.64
1638.5803
1644.3695
1639.5864
1627.5215
1610.9956
1592.2911
1573.1775
1555.0035
1538.7487
1525.0743
1514.4584
1507.5047
1504.7836
9.9217287
20.44717
31.627677
42.07454
51.671979
60.132961
67.167552
72.471734
75.751199
76.762822
75.377603
71.66683
66.030976
59.385411
53.324357
50.089433
52.268385
62.378028
82.546629
114.37165
158.91537
216.76689
288.09819
372.67437
469.81154
578.29631
696.28143
821.15619
949.41859
1076.6585
1197.8176
1307.8297
1402.4976
1479.2178
1537.2386
1577.452
1601.9222
1613.3574
1614.6588
1608.6047
1597.6703
1583.9458
1569.1177
1554.5152
1541.1452
1529.726
1520.7916
1514.9279
1512.6348
9.3377193
19.335752
29.966188
39.901605
49.034792
57.112792
63.897671
69.159894
72.703998
74.407739
74.277731
72.523188
69.656991
66.619404
64.863082
66.300805
73.087484
87.330597
110.85345
145.06527
190.92509
248.95694
319.27009
401.55603
495.05488
598.49897
710.04329
827.19093
946.7438
1064.8555
1177.2855
1279.8949
1369.2669
1443.2097
1500.9525
1543.0255
1570.943
1586.8196
1593.0229
1591.9084
1585.6505
1576.1537
1565.0132
1553.5222
1542.694
1533.2862
1525.88
1521.0341
1519.1492
8.9165009
18.457468
28.608575
38.10654
46.856737
54.63779
61.257333
66.548543
70.39617
72.772711
73.787051
73.745947
73.230405
73.175393
74.908959
80.094789
90.569107
108.1305
134.35775
170.4937
217.39283
275.50835
344.88959
425.17014
515.5407
614.71091
720.8681
831.64396
944.11676
1054.901
1160.3817
1257.101
1342.2088
1413.822
1471.1758
1514.5562
1545.082
1564.4243
1574.5353
1577.4293
1575.0273
1569.0663
1561.0491
1552.2268
1543.6035
1535.9614
1529.9298
1526.0433
1524.5627
8.5308283
17.71524
27.498608
36.66728
45.135813
52.711178
59.240691
64.609998
68.768427
71.762022
73.775814
75.1843
76.607976
78.963037
83.473925
91.616949
104.99345
125.16996
153.53307
191.18566
238.88695
297.02304
365.59015
444.17742
531.94467
627.5982
729.37125
835.02044
941.86063
1046.8724
1146.9126
1239.0216
1320.7602
1390.4751
1447.4185
1491.7108
1524.1881
1546.1928
1559.36
1565.4338
1566.1282
1563.0367
1557.5769
1550.9578
1544.1655
1537.9964
1533.1454
1530.162
1529.1078
8.1617302
17.074174
26.57573
35.496597
43.757041
51.188746
57.671804
63.133531
67.57292
71.090956
73.927609
76.503213
79.460065
83.692094
90.341865
100.74732
116.33895
138.51204
168.50653
207.31344
255.61178
313.72982
381.61977
458.83755
544.52454
637.39365
735.72579
837.38697
939.88322
1040.4753
1136.3677
1224.9594
1304.1051
1372.3196
1428.8748
1473.7807
1507.6746
1531.6613
1547.1404
1555.6505
1558.7438
1557.8986
1554.4624
1549.6101
1544.3113
1539.3652
1535.5479
1533.5009
1533.0108
7.7894991
16.575519
25.899897
34.660059
42.782805
50.123785
56.590108
62.141156
66.812656
70.745093
74.216507
77.677036
81.779893
87.397977
95.612008
107.66175
124.85905
148.47879
179.65507
219.29547
268.01717
326.10318
393.47217
469.65666
553.78777
644.58862
740.38188
839.12046
938.45424
1035.8468
1128.7475
1214.803
1292.0707
1359.183
1415.4298
1460.7488
1495.6432
1521.0527
1538.2102
1548.5057
1553.3725
1554.2023
1552.2879
1548.7792
1544.6296
1540.6096
1537.5439
1536.3251
1536.6109
7.2861737
16.140063
25.38403
34.059288
42.101398
49.39047
55.854393
61.474721
66.311279
70.529591
74.43102
78.482778
83.34231
89.866775
99.096993
112.21276
130.45238
155.01213
186.95583
227.13559
276.12681
334.18164
401.19623
476.68821
559.78336
649.21369
743.33203
840.15081
937.41538
1032.7208
1123.6719
1208.0717
1284.1046
1350.4782
1406.4952
1452.0504
1487.5633
1513.8697
1532.0956
1543.5342
1549.5411
1551.448
1550.5077
1547.8557
1544.4391
1540.9739
1538.2798
1537.8507
1540.0445
6.0635988
15.808061
25.10314
33.770826
41.782277
49.049626
55.514981
61.172089
66.093077
70.455996
74.573956
78.922915
84.163184
91.146749
100.89922
114.56428
133.33256
158.36341
190.69076
231.13986
280.2652
338.30328
405.13877
480.28172
562.85535
651.59655
744.87383
840.73016
936.95927
1031.2219
1121.2002
1204.7741
1280.191
1346.1957
1402.0984
1447.7735
1483.6002
1510.3634
1529.1371
1541.1677
1547.7671
1550.2367
1549.8169
1547.6468
1544.6836
1541.6025
1539.1891
1539.7137
1545.5565
-2227.6224
-2483.0694
-2698.7265
-2880.5182
-3022.936
-3105.2406
-3107.4443
-3028.6605
-2856.8972
-2663.7199
-3203.6489
-3203.5658
-3196.5647
-3185.3755
-3171.0925
-3158.2151
-3146.2801
-3155.7956
-3156.3842
-3129.0279
-3181.5983
-3180.4451
-3165.5935
-3148.5766
-3131.6385
-3122.6814
-3104.3633
-3111.5093
-3098.2444
-3044.6311
-3135.9013
-3133.2287
-3124.7334
-3116.1814
-3107.5182
-3110.6685
-3099.6818
-3097.5459
-3084.0053
-3047.0378
-3076.2407
-3074.8252
-3070.3052
-3064.4339
-3055.9743
-3056.4128
-3056.1225
-3055.4692
-3053.976
-3057.6878
-3028.3651
-3027.5861
-3021.7596
-3011.5294
-2996.1837
-2966.5869
-2988.7661
-3001.1568
-3007.8886
-3021.3019
-3011.5233
-3013.2605
-3016.516
-3019.9305
-3030.8133
-3006.611
-3006.2986
-3002.7143
-2987.8554
-2964.926
-3026.1652
-3027.8392
-3034.0039
-3042.8236
-3066.9481
-3074.6939
-3055.1939
-3029.0971
-2999.2375
-2963.8405
-3847.8298
-3860.2211
-3831.2272
-3786.8365
-3749.2892
-3717.2279
-3695.7228
-3681.9882
-3673.0351
-3674.7609
-2986.1415
-2984.9278
-2977.2926
-2960.9573
-2921.6057
-2946.6701
-2958.4575
-2960.4271
-2949.7123
-2922.4136
-3008.6517
-3011.7003
-3018.0532
-3037.7666
-3014.5626
-3005.3779
-3000.9232
-2993.1084
-2978.8163
-2963.4768
-3046.1866
-3048.4971
-3053.2642
-3077.388
-3090.4303
-3066.7358
-3040.3038
-3020.2343
-3001.526
-2985.1716
-2995.9848
-2992.152
-2972.9728
-2947.362
-2970.1841
-2988.0002
-2999.7366
-3007.6419
-3010.3267
-3017.6905
-3029.5792
-3032.1413
-3031.1389
-2993.8554
-3003.2073
-3017.0477
-3028.1541
-3035.751
-3039.161
-3049.0525
-3154.8407
-3162.7381
-3187.0796
-3185.314
-3157.201
-3129.3712
-3108.7205
-3093.4279
-3078.1481
-3061.0643
-3141.0252
-3136.2323
-3128.8377
-3149.1974
-3149.5796
-3143.5253
-3137.1118
-3131.5619
-3125.515
-3127.4282
-3162.3095
-3161.6281
-3137.357
-3147.4489
-3158.8393
-3166.8605
-3171.1316
-3172.7973
-3171.985
-3176.6362
-3276.9069
-3289.3388
-3285.3798
-3270.9661
-3255.5149
-3243.3398
-3234.4778
-3228.5654
-3221.65
-3213.0177
-3281.8071
-3285.8134
-3293.282
-3285.2936
-3275.7269
-3270.258
-3270.0145
-3274.419
-3279.4053
-3291.648
-3185.988
-3171.8567
-3189.1961
-3215.0897
-3244.5776
-3273.2687
-3300.2122
-3324.7343
-3344.8248
-3369.7289
-3326.4985
-3302.8725
-3312.4022
-3332.5905
-3359.2211
-3384.3361
-3406.678
-3424.9975
-3437.4177
-3453.0514
-3701.9896
-3693.0133
-3662.2328
-3628.0524
-3602.8501
-3583.2392
-3571.0358
-3563.7807
-3557.5856
-3554.6575
-3014.7928
-3013.2648
-3007.9044
-2996.312
-2990.6262
-2998.2005
-2998.0097
-2992.7445
-2983.542
-2982.5108
-3537.6209
-3546.2132
-3560.7175
-3607.9542
-3664.0535
-3715.8733
-3736.9439
-3718.842
-3635.4035
-3463.8392
-3266.114
-3266.3578
-3269.2982
-3274.0637
-3275.0613
-3274.0598
-3272.0515
-3266.8794
-3262.7946
-3216.4739
-3178.3445
-3226.0319
-3287.9127
-3392.3675
-3503.5016
-3590.2405
-3632.62
-3592.9616
-3445.1856
-3213.0572
-3477.1014
-3487.1249
-3508.0992
-3544.7822
-3578.4212
-3607.0934
-3615.7319
-3615.1127
-3579.4788
-3467.3395
-3364.3717
-3368.7208
-3382.8774
-3406.7526
-3427.6288
-3445.1983
-3453.2965
-3442.8775
-3430.3904
-3378.8732
11318.447
10715.251
10129.281
9489.6504
8832.5655
8179.2689
7544.9212
6936.5356
6347.1065
5770.0798
8301.2208
8223.9317
8100.7037
7839.0899
7501.2378
7110.8375
6689.1907
6254.1798
5816.0401
5359.667
-3708.1455
-3726.5759
-3744.13
-3750.2635
-3759.1052
-3762.4903
-3767.378
-3770.8769
-3772.2419
-3775.7562
-3704.8569
-3708.7024
-3744.0957
-3775.3933
-3814.5382
-3841.7836
-3865.774
-3881.8519
-3890.5335
-3894.7432
-3946.1383
-3938.8667
-3955.0464
-3962.5709
-3990.9323
-4009.3008
-4029.13
-4042.1107
-4047.5359
-4043.0897
-4222.0976
-4211.7347
-4225.9946
-4216.5441
-4232.5918
-4234.4444
-4240.9484
-4241.9805
-4238.3962
-4234.0233
-4544.6065
-4526.4509
-4538.1907
-4511.1243
-4514.8916
-4497.0142
-4484.5332
-4464.4829
-4436.7961
-4404.4176
-4900.8578
-4873.6188
-4883.2215
-4836.77
-4828.3228
-4789.8047
-4756.9517
-4713.5057
-4658.8151
-4598.5846
-5281.6013
-5243.1328
-5251.7702
-5184.924
-5165.3619
-5107.2466
-5055.8316
-4992.3403
-4916.0648
-4830.7337
-5682.5962
-5630.502
-5639.3256
-5550.2771
-5519.4514
-5441.1997
-5370.5169
-5288.0626
-5198.0707
-5115.5024
-6104.7545
-6035.6117
-6045.461
-5931.4411
-5887.9644
-5787.5349
-5693.1542
-5583.1097
-5457.782
-5322.1677
-6548.178
-6458.0692
-6470.5012
-6328.8325
-6271.5746
-6148.6722
-6030.4988
-5896.3738
-5746.7562
-5584.9858
-7018.9812
-6901.8284
-6917.5945
-6744.0898
-6669.942
-6522.3364
-6376.4275
-6214.1931
-6035.6931
-5849.8132
-7516.0373
-7365.7838
-7387.9039
-7179.4449
-7085.282
-6911.2098
-6733.4101
-6537.3217
-6318.6961
-6081.4119
-8057.6651
-7862.9758