/*--------------------------------*- C++ -*----------------------------------*\
| =========                 |                                                 |
| \\      /  F ield         | foam-extend: Open Source CFD                    |
|  \\    /   O peration     | Version:     4.1                                |
|   \\  /    A nd           | Web:         http://www.foam-extend.org         |
|    \\/     M anipulation  |                                                 |
\*---------------------------------------------------------------------------*/
FoamFile
{
    version     2.0;
    format      ascii;
    class       surfaceScalarField;
    location    "0.65";
    object      phi;
}
// * * * * * * * * * * * * * * * * * * * * * * * * * * * * * * * * * * * * * //

dimensions      [0 3 -1 0 0 0 0];

internalField   nonuniform List<scalar> 
8438
(
-0.59744834
0.0016728778
-0.59918651
0.0017381641
-0.60095957
0.0017730642
-0.60277654
0.0018169664
-0.60464716
0.0018706263
-0.60658189
0.0019347212
-0.60859011
0.0020082207
-0.61067944
0.0020893346
-0.61285501
0.0021755663
-0.61511873
0.0022637252
-0.61746866
0.0023499236
-0.61989827
0.0024296109
-0.62239594
0.002497677
-0.62494459
0.0025486438
-0.62752153
0.0025769419
-0.6300988
0.0025772744
-0.63264372
0.0025449162
-0.63511973
0.0024760139
-0.63748745
0.0023677149
-0.63970561
0.0022181593
-0.64173201
0.0020264047
-0.64352435
0.0017923338
-0.64504098
0.0015166369
-0.64624192
0.0012009323
-0.64709
0.00084807918
-0.64755269
0.00046269256
-0.64760422
5.1526431e-05
-0.64722719
-0.00037702924
-0.6464166
-0.00081058586
-0.64518392
-0.0012326754
-0.64355804
-0.0016258894
-0.64158498
-0.0019730584
-0.63932581
-0.0022591628
-0.63685258
-0.0024732344
-0.63424301
-0.0026095691
-0.63157504
-0.0026679681
-0.62892196
-0.0026530798
-0.62634881
-0.0025731516
-0.62391025
-0.0024385608
-0.62164982
-0.0022604348
-0.61960026
-0.0020495523
-0.61778467
-0.0018155894
-0.61621799
-0.001566685
-0.61490864
-0.0013093519
-0.61385969
-0.001048947
-0.61306935
-0.00079033781
-0.61253393
-0.00053542105
-0.61225857
-0.00027536064
-1.3619772e-05
-0.61124055
0.0031379533
-0.61269899
0.0031966108
-0.61418458
0.0032586527
-0.61571058
0.0033429587
-0.61728942
0.0034494708
-0.61893232
0.0035776232
-0.62064913
0.0037250289
-0.62244781
0.0038880136
-0.62433382
0.0040615731
-0.62630942
0.0042393261
-0.62837297
0.0044134812
-0.63051826
0.0045748928
-0.63273384
0.0047132589
-0.6350027
0.004817503
-0.6373021
0.00487634
-0.63960385
0.0048790237
-0.64187491
0.0048159797
-0.64407832
0.0046794243
-0.64617423
0.0044636283
-0.64812096
0.0041648856
-0.64987589
0.0037813329
-0.65139629
0.0033127315
-0.65264006
0.0027604089
-0.65356662
0.0021274917
-0.65413806
0.0014195248
-0.65432085
0.00064547665
-0.65408826
-0.00018106475
-0.65342444
-0.0010408487
-0.65232625
-0.0019087764
-0.6508046
-0.0027543194
-0.64888755
-0.0035429396
-0.64662083
-0.0042397845
-0.64406582
-0.0048141656
-0.6412954
-0.0052436573
-0.63838831
-0.0055166569
-0.63542342
-0.0056328664
-0.63247461
-0.0056018806
-0.6296072
-0.0054405678
-0.62687573
-0.005170024
-0.62432342
-0.0048127479
-0.62198256
-0.0043904156
-0.61987577
-0.003922374
-0.61801765
-0.0034248127
-0.61641637
-0.0029106244
-0.61507527
-0.0023900508
-0.61399458
-0.0018710226
-0.61317382
-0.0013561882
-0.6126047
-0.0008444794
-0.00037351752
-0.6122858
0.0045529001
-0.613699
0.0046098161
-0.61513703
0.0046966776
-0.61661483
0.0048207584
-0.6181457
0.0049803429
-0.61974145
0.0051733707
-0.62141241
0.0053959865
-0.62316704
0.0056426454
-0.62501136
0.0059058953
-0.62694826
0.0061762245
-0.62897675
0.006441968
-0.63109121
0.0066893603
-0.63328076
0.0069028102
-0.63552873
0.0070654697
-0.6378125
0.0071601072
-0.64010376
0.0071702832
-0.64236915
0.0070813754
-0.64457129
0.0068815591
-0.64666987
0.0065622126
-0.64862282
0.0061178268
-0.65038714
0.0055456547
-0.6519197
0.0048452985
-0.65317785
0.0040185542
-0.65412009
0.0030697331
-0.65470717
0.0020066027
-0.65490367
0.00084197552
-0.65468043
-0.00040429941
-0.65401739
-0.0017038916
-0.65290708
-0.0030190877
-0.65135843
-0.0043029662
-0.64939934
-0.0055020292
-0.64707726
-0.006561871
-0.644457
-0.0074344222
-0.64161598
-0.0080846805
-0.63863777
-0.0084948659
-0.63560554
-0.0086650985
-0.63259644
-0.0086109795
-0.62967773
-0.008359277
-0.62690472
-0.0079430281
-0.62432038
-0.0073970921
-0.62195607
-0.0067547238
-0.61983312
-0.0060453218
-0.61796466
-0.0052932711
-0.6163575
-0.0045177923
-0.615014
-0.0037335492
-0.61393432
-0.0029506987
-0.61311674
-0.0021737698
-0.61255274
-0.0014084768
-0.00068131022
-0.61264263
0.0059384651
-0.61403547
0.0060026556
-0.61545377
0.0061149817
-0.61691249
0.0062794781
-0.6184254
0.0064932452
-0.62000499
0.0067529621
-0.62166237
0.0070533732
-0.62340687
0.0073871361
-0.62524539
0.0077444197
-0.62718178
0.0081126184
-0.62921598
0.0084761661
-0.63134318
0.0088165534
-0.63355302
0.0091126554
-0.63582903
0.0093414815
-0.63814831
0.0094793889
-0.6404818
0.0095037673
-0.64279498
0.0093945594
-0.64504911
0.009135687
-0.64720251
0.0087156134
-0.64921182
0.0081271354
-0.65103292
0.0073667515
-0.65262156
0.0064339364
-0.65393379
0.0053307937
-0.65492648
0.0040624166
-0.65555804
0.0026381667
-0.65579001
0.0010739379
-0.65558939
-0.0006049173
-0.65493206
-0.0023612222
-0.65380684
-0.0041443039
-0.65222011
-0.0058896959
-0.65019945
-0.007522692
-0.64779491
-0.0089664079
-0.64507673
-0.010152605
-0.64212953
-0.011031883
-0.63904453
-0.011579863
-0.63591166
-0.011797963
-0.63281311
-0.011709534
-0.62981909
-0.011353301
-0.62698595
-0.010776167
-0.62435616
-0.010026878
-0.62195959
-0.0091512939
-0.61981549
-0.0081894226
-0.61793474
-0.0071740245
-0.61632202
-0.0061305065
-0.61497802
-0.0050775474
-0.61390131
-0.0040274169
-0.61308827
-0.0029868048
-0.61253353
-0.0019632197
-0.00096988736
-0.61306716
0.0072969795
-0.61443677
0.0073722699
-0.61583281
0.0075110214
-0.61727042
0.0077170865
-0.61876386
0.007986681
-0.62032641
0.0083155134
-0.62197013
0.0086970937
-0.62370542
0.0091224268
-0.62554042
0.0095794208
-0.62748024
0.010052443
-0.62952608
0.010522
-0.63167421
0.01096468
-0.63391504
0.011353494
-0.63623235
0.011658791
-0.63860282
0.011849855
-0.64099627
0.011897216
-0.64337654
0.011774829
-0.64570293
0.011462079
-0.64793185
0.010944536
-0.65001825
0.010213528
-0.65191656
0.0092650596
-0.65358121
0.008098593
-0.65496678
0.0067163665
-0.65602809
0.0051237189
-0.65672064
0.0033307187
-0.65700192
0.0013552143
-0.65683379
-0.00077304765
-0.65618634
-0.0030086632
-0.65504282
-0.0052878276
-0.65340554
-0.0075269724
-0.65130128
-0.0096269616
-0.64878359
-0.011484089
-0.64593045
-0.013005748
-0.64283691
-0.014125428
-0.63960517
-0.014811596
-0.63633475
-0.015068389
-0.63311473
-0.014929549
-0.63001925
-0.014448787
-0.62710579
-0.013689622
-0.62441588
-0.012716794
-0.62197704
-0.011590134
-0.61980551
-0.010360945
-0.61790903
-0.0090705122
-0.61628937
-0.0077501638
-0.61494478
-0.0064221331
-0.61387167
-0.005100529
-0.61306509
-0.0037933807
-0.61252115
-0.0025071664
-0.0012462345
-0.61360439
0.0086232566
-0.61494435
0.0087122225
-0.61631208
0.0088787593
-0.61772291
0.009127915
-0.61919166
0.0094554328
-0.62073252
0.0098563736
-0.62235869
0.010323257
-0.62408192
0.010845654
-0.62591189
0.011409399
-0.6278554
0.011995951
-0.62991529
0.012581891
-0.63208934
0.013138729
-0.63436905
0.013633202
-0.63673858
0.014028321
-0.63917412
0.014285392
-0.64164402
0.014367116
-0.64410987
0.014240683
-0.64652836
0.013880568
-0.64885335
0.013269528
-0.65103764
0.012397817
-0.65303398
0.0112614
-0.65479536
0.0098599687
-0.65627472
0.0081957247
-0.65742455
0.0062735562
-0.65819685
0.0041030194
-0.65854396
0.0017023188
-0.65842097
-0.00089603334
-0.65779014
-0.0036394947
-0.65662673
-0.0064512372
-0.65492697
-0.0092267324
-0.65271587
-0.011838064
-0.65005147
-0.014148491
-0.64702232
-0.016034894
-0.643738
-0.017409743
-0.6403159
-0.018233703
-0.63686844
-0.018515851
-0.63349376
-0.018304222
-0.63027075
-0.017671798
-0.6272579
-0.01670247
-0.62449496
-0.015479738
-0.62200599
-0.0140791
-0.619803
-0.012563941
-0.61788935
-0.010984159
-0.61626288
-0.0093766348
-0.6149184
-0.0077666102
-0.61384947
-0.0061694585
-0.61304948
-0.004593369
-0.61251416
-0.0030424845
-0.0015154495
-0.61425745
0.0099135556
-0.61556181
0.010016575
-0.61689484
0.010211797
-0.61827257
0.010505647
-0.61971062
0.010893477
-0.62122422
0.011369975
-0.62282792
0.01192696
-0.62453513
0.012552865
-0.62635745
0.013231719
-0.62830377
0.013942265
-0.63037909
0.014657211
-0.63258318
0.015342817
-0.63490904
0.015959068
-0.6373415
0.016460776
-0.63985617
0.01680006
-0.64241951
0.016930456
-0.64499012
0.016811297
-0.64752121
0.016411654
-0.64996334
0.015711663
-0.6522667
0.014701175
-0.65438217
0.013376872
-0.65626134
0.011739135
-0.65785562
0.0097900099
-0.65911515
0.0075330776
-0.65998789
0.0049757644
-0.66041999
0.0021344184
-0.66035794
-0.00095807951
-0.65975355
-0.0042438913
-0.65857095
-0.0076338311
-0.65679728
-0.011000411
-0.6544541
-0.014181238
-0.65160484
-0.016997751
-0.64835234
-0.019287392
-0.64482607
-0.020936021
-0.64116393
-0.021895835
-0.63749546
-0.022184321
-0.6339302
-0.021869481
-0.63055249
-0.021049516
-0.6274213
-0.019833659
-0.6245734
-0.018327638
-0.6220279
-0.016624596
-0.61979108
-0.014800764
-0.61786066
-0.012914578
-0.61622939
-0.011007899
-0.61488778
-0.0091082251
-0.61382589
-0.0072313486
-0.61303476
-0.0053845024
-0.61250834
-0.0035689045
-0.0017788352
-0.61502077
0.011159435
-0.61628227
0.011278076
-0.61757382
0.011503348
-0.61891185
0.011843675
-0.62031282
0.012294442
-0.62179315
0.012850311
-0.62336896
0.013502767
-0.62505559
0.014239492
-0.62686695
0.015043082
-0.62881455
0.015889861
-0.63090613
0.016748793
-0.63314407
0.017580758
-0.63552346
0.018338455
-0.63803012
0.018967443
-0.64063912
0.019409057
-0.64331448
0.019605818
-0.64601085
0.019507668
-0.64867681
0.019077613
-0.65125869
0.018293545
-0.65370352
0.017146006
-0.65596027
0.015633614
-0.65797937
0.013758236
-0.65971112
0.011521767
-0.66110351
0.0089254592
-0.66210026
0.0059725172
-0.66264028
0.002674441
-0.66265941
-0.00093895549
-0.66209582
-0.0048074748
-0.66089841
-0.0088312411
-0.6590408
-0.012858025
-0.65653831
-0.016683723
-0.65346047
-0.020075589
-0.6499293
-0.022818567
-0.64610142
-0.024763904
-0.64214243
-0.025854821
-0.63820409
-0.026122664
-0.63440992
-0.025663647
-0.63085006
-0.024609371
-0.62758285
-0.023100871
-0.62464019
-0.021270306
-0.62203416
-0.019230617
-0.61976344
-0.017071487
-0.61781852
-0.014859496
-0.61618585
-0.012640569
-0.61485071
-0.010443363
-0.61379913
-0.0082829334
-0.61301921
-0.0061644186
-0.61250254
-0.0040855797
-0.0020365715
-0.61589544
0.012357498
-0.6171081
0.012490742
-0.61835128
0.012746524
-0.61964252
0.013134914
-0.62099932
0.013651243
-0.62243946
0.014290452
-0.62398081
0.015044114
-0.62564096
0.015899646
-0.62743659
0.016838714
-0.62938239
0.01783566
-0.63148956
0.018855966
-0.63376388
0.019855077
-0.6362033
0.020777867
-0.63879524
0.021559382
-0.64151427
0.022128091
-0.64432138
0.022412932
-0.64716599
0.022352269
-0.6499905
0.021902128
-0.65273578
0.021038823
-0.65534511
0.019755332
-0.65776562
0.018054125
-0.65994723
0.015939854
-0.66183993
0.013414465
-0.6633902
0.010475728
-0.66453765
0.007119963
-0.66521305
0.003349848
-0.66533932
-0.00081269186
-0.66483711
-0.0053096795
-0.66363453
-0.010033822
-0.66168536
-0.014807202
-0.6589939
-0.019375183
-0.65563609
-0.023433392
-0.65175974
-0.026694923
-0.64755885
-0.028964791
-0.64323638
-0.030177287
-0.63897283
-0.030386223
-0.63490843
-0.029728039
-0.63113889
-0.028378913
-0.62771984
-0.026519918
-0.62467558
-0.024314566
-0.62200847
-0.021897733
-0.61970718
-0.019372773
-0.61775317
-0.016813512
-0.6161252
-0.014268534
-0.61480243
-0.011766137
-0.61376619
-0.0093191746
-0.61300117
-0.0069294308
-0.61249628
-0.0045904738
-0.0022879005
-0.61687482
0.01349582
-0.61802992
0.013645843
-0.61921697
0.013933577
-0.62045377
0.014371711
-0.62175874
0.014956213
-0.62315106
0.015682774
-0.62465054
0.016543592
-0.62627733
0.01752644
-0.62805135
0.018612728
-0.62999113
0.019775439
-0.63211218
0.020977019
-0.63442468
0.022167575
-0.63693048
0.023283669
-0.63961949
0.024248393
-0.64246605
0.024974651
-0.64542733
0.025374213
-0.64844573
0.02537067
-0.65145537
0.024911762
-0.65438988
0.023973334
-0.65718809
0.022553545
-0.65979564
0.020661679
-0.66216299
0.018307196
-0.66424116
0.015492635
-0.66597645
0.012211023
-0.66730498
0.0084484873
-0.6681488
0.004193671
-0.66841555
-0.0005459387
-0.66800365
-0.0057215842
-0.66681323
-0.011224237
-0.6647691
-0.016851337
-0.66185665
-0.022287636
-0.65815751
-0.027132532
-0.65385442
-0.030998013
-0.64919351
-0.0336257
-0.64442842
-0.034942374
-0.63977662
-0.035038024
-0.63539773
-0.034106925
-0.63139165
-0.032384998
-0.6278079
-0.030103663
-0.62465923
-0.027463241
-0.62193463
-0.024622334
-0.61960995
-0.021697455
-0.61765547
-0.018767989
-0.6160409
-0.0158831
-0.61473836
-0.013068677
-0.61372397
-0.010333564
-0.61297866
-0.0076747433
-0.61248851
-0.0050806246
-0.0025314606
-0.61795792
0.014573692
-0.61904996
0.014737881
-0.62017365
0.015057266
-0.62134822
0.015546278
-0.62259321
0.016201211
-0.62392931
0.017018868
-0.62537839
0.017992671
-0.62696346
0.019111517
-0.62870816
0.020357427
-0.63063563
0.021702907
-0.63276669
0.023108075
-0.63511715
0.02451804
-0.63769421
0.025860733
-0.64049157
0.027045746
-0.64348391
0.027966993
-0.64662372
0.028514027
-0.64984399
0.028590936
-0.65306745
0.028135225
-0.65621818
0.027124059
-0.65922971
0.025565077
-0.66204691
0.023478879
-0.66462246
0.020882749
-0.66691062
0.017780793
-0.66885961
0.014160013
-0.67040344
0.0099923123
-0.67145525
0.0052454847
-0.67190536
-9.5826139e-05
-0.67162406
-0.0060028918
-0.67047437
-0.012373926
-0.6683391
-0.018986599
-0.66517175
-0.025454994
-0.66105665
-0.03124763
-0.65622446
-0.035830198
-0.65099529
-0.038854874
-0.6456922
-0.040245464
-0.64058001
-0.040150215
-0.63583978
-0.038847151
-0.6315724
-0.036652378
-0.62781585
-0.03386021
-0.62456572
-0.030713376
-0.62179297
-0.027395085
-0.61945715
-0.024033276
-0.61751506
-0.020710078
-0.6159259
-0.017472254
-0.61465397
-0.014340613
-0.61366975
-0.011317779
-0.61295023
-0.0083942596
-0.61247872
-0.0055521433
-0.0027653761
-0.61914141
0.015574167
-0.62015952
0.015755993
-0.62121077
0.016108517
-0.62231403
0.01664954
-0.6234896
0.017376778
-0.62475954
0.018288805
-0.6261479
0.019381031
-0.6276808
0.020644423
-0.62938612
0.022062743
-0.63129244
0.023609231
-0.63342713
0.025242759
-0.63581323
0.026904144
-0.6384652
0.028512705
-0.64138252
0.029963063
-0.64454141
0.031125883
-0.64788874
0.031861357
-0.65134467
0.032046868
-0.65481606
0.031606611
-0.65821388
0.030521881
-0.66146527
0.028816465
-0.66451546
0.026529072
-0.66732188
0.023689167
-0.66984505
0.020303966
-0.67203834
0.016353304
-0.67383627
0.011790239
-0.67514363
0.0065528478
-0.67583017
0.00059070927
-0.67573314
-0.0060999187
-0.6746686
-0.013438469
-0.67245792
-0.021197276
-0.66900124
-0.028911677
-0.66437788
-0.035870989
-0.65888503
-0.04132305
-0.65295026
-0.044789639
-0.64699274
-0.046202988
-0.6413375
-0.045805454
-0.63618748
-0.043997164
-0.63163825
-0.041201609
-0.62770783
-0.037790635
-0.62436691
-0.034054294
-0.6215625
-0.030199491
-0.61923383
-0.026361954
-0.61732174
-0.022622167
-0.6157736
-0.019020393
-0.61454525
-0.015568959
-0.61360139
-0.012261645
-0.61291505
-0.0090805996
-0.6124669
-0.0060002863
-0.0029873294
-0.62041516
0.016500996
-0.62135496
0.01669579
-0.62232648
0.01708004
-0.62335019
0.017673244
-0.62444731
0.018473898
-0.62564127
0.01948277
-0.62695831
0.02069807
-0.62842784
0.022113949
-0.63008242
0.023717327
-0.63195699
0.025483798
-0.6340868
0.027372568
-0.63650404
0.029321387
-0.63923289
0.031241548
-0.64228147
0.033011645
-0.64562963
0.034474041
-0.6492177
0.035449427
-0.65294817
0.035777341
-0.65670526
0.035363705
-0.66038175
0.034198368
-0.66389707
0.03233178
-0.66719909
0.029831094
-0.67025398
0.026744061
-0.6730331
0.023083081
-0.67549974
0.018819939
-0.67759325
0.013883751
-0.67921214
0.0081717388
-0.68020403
0.0015826028
-0.6803664
-0.0059375468
-0.6794547
-0.014350178
-0.67720397
-0.023447996
-0.67342646
-0.032689191
-0.66817895
-0.041118499
-0.66185201
-0.047649987
-0.65503402
-0.051607628
-0.64827849
-0.052958525
-0.64198613
-0.052097811
-0.63637856
-0.049604727
-0.63153463
-0.046045539
-0.62743972
-0.041885546
-0.62402919
-0.037464827
-0.62121875
-0.033009927
-0.6189228
-0.028657908
-0.61706383
-0.024481139
-0.61557629
-0.020507932
-0.61440731
-0.016737943
-0.61351585
-0.013153099
-0.61287132
-0.0097251291
-0.61245209
-0.0064195231
-0.0031946144
-0.62178293
0.017331183
-0.62263121
0.017544076
-0.62351259
0.017961417
-0.62444613
0.018606783
-0.62545323
0.019480996
-0.62655832
0.020587867
-0.62778967
0.021929416
-0.62918004
0.02350432
-0.63076711
0.025304402
-0.63259309
0.027309774
-0.63470277
0.02948225
-0.63713986
0.03175848
-0.63994155
0.03404323
-0.64312897
0.036199067
-0.64668955
0.038034618
-0.65055691
0.039316789
-0.65460926
0.03982969
-0.65869815
0.039452601
-0.66269055
0.038190766
-0.66649652
0.036137753
-0.67007012
0.033404689
-0.6733917
0.030065642
-0.67644891
0.026140295
-0.67922091
0.021591931
-0.6816581
0.016320944
-0.68365674
0.010170384
-0.68504162
0.0029674776
-0.68556396
-0.0054152078
-0.68490502
-0.015009116
-0.6826811
-0.025671917
-0.67856124
-0.036809051
-0.67254215
-0.047137589
-0.66514596
-0.055046178
-0.65721032
-0.059543264
-0.64947818
-0.060690667
-0.64244326
-0.059132728
-0.63633524
-0.055712749
-0.63119669
-0.051184092
-0.62696171
-0.046120525
-0.62351654
-0.040909995
-0.62073694
-0.035789527
-0.61850777
-0.030887079
-0.61673109
-0.026257818
-0.6153279
-0.021911123
-0.61423681
-0.01782903
-0.61341162
-0.013978287
-0.61281867
-0.010318085
-0.61243454
-0.0068036508
-0.0033842036
-0.62321133
0.01807371
-0.62396501
0.018297751
-0.62474895
0.018745354
-0.62558362
0.019441461
-0.62649078
0.020388155
-0.62749568
0.021592763
-0.6286284
0.023062133
-0.62992503
0.024800959
-0.63142869
0.026808054
-0.63318973
0.029070812
-0.63526429
0.031556819
-0.63771037
0.034204553
-0.6405821
0.036914962
-0.64391958
0.039536544
-0.64772431
0.041839355
-0.65192408
0.043516552
-0.65636278
0.044268392
-0.66084311
0.043932928
-0.66519382
0.042541477
-0.66931311
0.040257042
-0.67316723
0.037258816
-0.67675938
0.03365779
-0.68010147
0.029482378
-0.68319737
0.02468783
-0.68601937
0.019142946
-0.68847002
0.012621037
-0.69035256
0.0048500218
-0.6913658
-0.0044019748
-0.69110324
-0.015271669
-0.68902272
-0.027752441
-0.68456336
-0.041268408
-0.67758383
-0.054117119
-0.66878917
-0.063840843
-0.65942035
-0.068912086
-0.65048834
-0.069622675
-0.64259648
-0.067024582
-0.63595745
-0.062351781
-0.63054519
-0.056596349
-0.62621582
-0.0504499
-0.62278892
-0.044336897
-0.62009061
-0.038487835
-0.61797188
-0.033005809
-0.61631311
-0.027916584
-0.61502217
-0.023202071
-0.6140301
-0.018821101
-0.61328659
-0.014721793
-0.61275589
-0.01084879
-0.61241358
-0.0071459558
-0.0035528339
-0.62473528
0.018699728
-0.62537983
0.018942309
-0.62605586
0.019421383
-0.62678091
0.020166509
-0.62757575
0.021182994
-0.62846565
0.022482665
-0.62948191
0.024078391
-0.63066349
0.025982542
-0.63205876
0.02820332
-0.63372682
0.030738871
-0.63573693
0.033566932
-0.6381645
0.036632123
-0.64108544
0.039835898
-0.64456697
0.043018082
-0.64863619
0.045908566
-0.65321977
0.048100135
-0.65811425
0.049162877
-0.66304929
0.048867962
-0.66779781
0.047289994
-0.67224459
0.044703824
-0.67638004
0.041394265
-0.68024383
0.037521583
-0.68388135
0.033119895
-0.68732977
0.028136257
-0.69059569
0.022408857
-0.69359869
0.015624047
-0.69612193
0.0073732571
-0.69780536
-0.0027185481
-0.69814435
-0.014932679
-0.69640129
-0.029495498
-0.69165797
-0.046011722
-0.68347794
-0.062297153
-0.67280695
-0.074511834
-0.66157173
-0.080147306
-0.65116056
-0.080033845
-0.64229553
-0.075889606
-0.63512004
-0.069527277
-0.6294874
-0.06222899
-0.62513863
-0.054798668
-0.62180553
-0.047669992
-0.61925484
-0.041038528
-0.6173006
-0.034960047
-0.61580181
-0.029415372
-0.61465482
-0.024349067
-0.61378503
-0.019690889
-0.61313977
-0.015367054
-0.61268258
-0.01130598
-0.61238909
-0.0074394428
-0.0036971238
-0.62626417
0.019222963
-0.62679738
0.019475513
-0.62735766
0.019981668
-0.62796311
0.020771957
-0.62863355
0.021853441
-0.62939384
0.023242954
-0.63027599
0.024960537
-0.63132147
0.027028022
-0.63258384
0.029465686
-0.63413159
0.032286628
-0.63604933
0.03548467
-0.63843398
0.03901677
-0.64138903
0.04279095
-0.64501949
0.046648542
-0.64939664
0.050285714
-0.65445806
0.053161556
-0.65993365
0.054638465
-0.66543879
0.054373108
-0.67065972
0.052510919
-0.6754626
0.049506704
-0.679879
0.045810663
-0.68400303
0.041645614
-0.68792179
0.037038657
-0.69171368
0.031928141
-0.69544037
0.026135549
-0.69906404
0.019247721
-0.702362
0.010671212
-0.70491879
-0.00016176166
-0.70612681
-0.013724654
-0.70503008
-0.030592229
-0.70016744
-0.050874357
-0.69049466
-0.071969935
-0.67722449
-0.087782009
-0.66351648
-0.093855313
-0.6512793
-0.092271027
-0.64133934
-0.085829558
-0.6336682
-0.077198419
-0.62791743
-0.067979758
-0.62366373
-0.05905237
-0.62052767
-0.050806056
-0.61820863
-0.043357567
-0.61648348
-0.036685194
-0.61519261
-0.030706247
-0.61422429
-0.025317386
-0.61350144
-0.020413735
-0.61297152
-0.015896972
-0.61259924
-0.011678264
-0.61236155
-0.0076771344
-0.0038137208
-0.62789082
0.019609268
-0.62829828
0.019882973
-0.62873403
0.020417411
-0.62921111
0.021249038
-0.62974667
0.022389006
-0.63036395
0.023860226
-0.63109447
0.025691058
-0.63198091
0.027914462
-0.63308062
0.030565401
-0.63447047
0.033676476
-0.636251
0.037265198
-0.63854399
0.041309766
-0.64148572
0.045732676
-0.64522993
0.050392753
-0.64992025
0.054976038
-0.65553284
0.058774141
-0.66170628
0.060811907
-0.66787525
0.060542078
-0.67359411
0.058229773
-0.67870846
0.054621057
-0.68332923
0.050431436
-0.6876425
0.045958883
-0.69179332
0.041189473
-0.69591054
0.036045369
-0.70014245
0.030367454
-0.70453005
0.023635322
-0.70885666
0.014997824
-0.71261344
0.0035950172
-0.71508858
-0.01124951
-0.71513553
-0.030545278
-0.71053299
-0.055476904
-0.6990563
-0.083446618
-0.68204903
-0.10478928
-0.66501005
-0.11089429
-0.65052692
-0.10675416
-0.6394584
-0.096898086
-0.63141289
-0.085243924
-0.62571803
-0.073674619
-0.62172522
-0.063045182
-0.61892173
-0.053609546
-0.61693686
-0.045342433
-0.61551504
-0.038107018
-0.61448447
-0.031736815
-0.61373122
-0.026070641
-0.61318025
-0.020964705
-0.61278246
-0.016294756
-0.61250602
-0.011954709
-0.61233071
-0.0078524395
-0.0038994814
-0.62934453
0.019870594
-0.6296229
0.02016134
-0.6299245
0.020719011
-0.63026028
0.021584818
-0.63064404
0.022772765
-0.63109615
0.024312343
-0.63164624
0.026241143
-0.63233665
0.02860487
-0.63322712
0.031455876
-0.63440196
0.034851311
-0.63597903
0.038842268
-0.63811115
0.043441894
-0.64097631
0.048597833
-0.64479031
0.054206754
-0.64981258
0.059998307
-0.65612065
0.065082213
-0.66323472
0.067925978
-0.6702914
0.067598757
-0.67663881
0.064577177
-0.68209267
0.06007492
-0.68690493
0.055243696
-0.69140447
0.050458421
-0.69579688
0.045581885
-0.70023549
0.040483976
-0.70497763
0.03510959
-0.71018644
0.028844132
-0.71568291
0.020494296
-0.72086947
0.0087815758
-0.72495755
-0.0071614274
-0.72678881
-0.028714022
-0.72322161
-0.059044095
-0.70978816
-0.096880069
-0.68722645
-0.127351
-0.66564827
-0.13247246
-0.64843626
-0.12396618
-0.63629694
-0.10903741
-0.62813251
-0.093408353
-0.62276949
-0.079037634
-0.61926729
-0.066547388
-0.61696706
-0.055909768
-0.615436
-0.046873491
-0.61439877
-0.039144252
-0.61368282
-0.032452767
-0.61318061
-0.026572849
-0.6128252
-0.021320112
-0.61257497
-0.016544991
-0.61240413
-0.012125545
-0.61229699
-0.0079595808
-0.003951674
-0.63049879
0.019968792
-0.63062782
0.020290368
-0.63077826
0.020869452
-0.63095447
0.021761026
-0.63116545
0.022983748
-0.63142775
0.024574643
-0.63176781
0.026581203
-0.63222599
0.029063048
-0.6328621
0.032091987
-0.63376448
0.035753696
-0.63506518
0.040142971
-0.63694985
0.045326561
-0.63964333
0.051291311
-0.64342506
0.057988489
-0.64871431
0.065287556
-0.65580974
0.072177645
-0.66409305
0.076209288
-0.67218488
0.075690589
-0.67912262
0.071514909
-0.68467847
0.06563077
-0.68936864
0.059933871
-0.69375493
0.054844706
-0.6981164
0.049943352
-0.70258159
0.044949175
-0.70759555
0.040123547
-0.71357869
0.034827274
-0.72048912
0.027404729
-0.72771988
0.016012334
-0.73426794
-0.00061336726
-0.73919233
-0.023789632
-0.73832132
-0.059915102
-0.72348584
-0.11171555
-0.69247522
-0.15836161
-0.66469059
-0.1602571
-0.64429662
-0.14436014
-0.63138815
-0.12194588
-0.6235807
-0.1012158
-0.61896492
-0.08365342
-0.61625724
-0.069255067
-0.61466469
-0.057502316
-0.61371927
-0.04781891
-0.61314998
-0.039713545
-0.61280094
-0.0328018
-0.61258256
-0.026791236
-0.61244324
-0.021459426
-0.61235335
-0.016634877
-0.61229595
-0.01218295
-0.61226147
-0.0079940564
-0.0039681973
-0.63008651
0.019867121
-0.6300355
0.020239361
-0.63000239
0.020836342
-0.62998281
0.021741445
-0.62997879
0.022979723
-0.63000024
0.024596096
-0.63006645
0.026647412
-0.63021035
0.029206945
-0.63048489
0.032366531
-0.63097359
0.036242394
-0.63181281
0.040982191
-0.63321971
0.04673346
-0.63548018
0.053551783
-0.63894236
0.061450671
-0.64423228
0.070577481
-0.65212332
0.080068681
-0.66193055
0.086016518
-0.67132797
0.085088003
-0.67891024
0.07909718
-0.68433974
0.071060271
-0.68863105
0.064225178
-0.69272677
0.058940427
-0.69702946
0.054246045
-0.70149596
0.049415667
-0.7068229
0.045450489
-0.71384485
0.041849227
-0.72258397
0.03614385
-0.73260847
0.02603683
-0.74189448
0.0086726493
-0.75052015
-0.015163968
-0.75420874
-0.056226504
-0.74046676
-0.12545754
-0.69641255
-0.20241582
-0.66055002
-0.19611962
-0.63703106
-0.16787911
-0.6241509
-0.13482604
-0.61751506
-0.10785164
-0.61423763
-0.08693085
-0.61270357
-0.070789128
-0.61204701
-0.058158877
-0.61182088
-0.048045037
-0.61179698
-0.039737445
-0.61185973
-0.032739056
-0.61195123
-0.026699737
-0.6120432
-0.021367457
-0.61212249
-0.01655558
-0.61218358
-0.01212186
-0.61222454
-0.0079530958
-0.0039477907
-0.62618999
0.019535487
-0.625902
0.019951371
-0.62560982
0.020544162
-0.62530689
0.021438508
-0.62498789
0.02266073
-0.62465412
0.024262327
-0.62431444
0.026307724
-0.62399016
0.028882668
-0.62372284
0.032099208
-0.62358585
0.036105406
-0.62371166
0.041108007
-0.62434557
0.047367371
-0.62585716
0.055063374
-0.62866329
0.064256794
-0.63355297
0.075467167
-0.64215149
0.0886672
-0.65402039
0.097885418
-0.66485089
0.095918505
-0.67273119
0.086977475
-0.67704435
0.075373439
-0.67988634
0.067067161
-0.68279847
0.061852563
-0.68640824
0.057855814
-0.69003014
0.053037562
-0.69449517
0.049915523
-0.70160314
0.048957194
-0.71114829
0.045689005
-0.72409173
0.038980274
-0.73555943
0.020140348
-0.7498534
-0.00086999786
-0.76244082
-0.043639083
-0.75915579
-0.12874258
-0.694583
-0.26698861
-0.65072922
-0.2399734
-0.6253007
-0.19330762
-0.61396058
-0.14616616
-0.60976171
-0.11205051
-0.60860882
-0.088083743
-0.60868343
-0.07071451
-0.60919152
-0.057650794
-0.60980243
-0.047434123
-0.61038414
-0.039155732
-0.61088931
-0.032233886
-0.61130613
-0.026282918
-0.61163698
-0.021036613
-0.61188903
-0.016303523
-0.61207019
-0.011940699
-0.61218723
-0.0078360629
-0.0038902173
-0.61276676
0.018716084
-0.61203631
0.019220924
-0.61128972
0.019797571
-0.61050011
0.020648901
-0.60964978
0.021810393
-0.60872665
0.023339202
-0.60772244
0.025303511
-0.6066365
0.027796733
-0.60548333
0.030946042
-0.60430233
0.034924405
-0.60318032
0.039985995
-0.60232567
0.046512725
-0.60215265
0.054890353
-0.60313393
0.065238073
-0.6060075
0.078340741
-0.61371707
0.096376772
-0.62750998
0.11167832
-0.63866502
0.10707355
-0.64542929
0.093741736
-0.64631612
0.076260273
-0.64571441
0.066465451
-0.64565143
0.061789587
-0.64726277
0.059467146
-0.64830325
0.054078044
-0.64944421
0.051056487
-0.65616487
0.055677859
-0.6660733
0.055597434
-0.6838408
0.056747772
-0.69888673
0.035186274
-0.72785777
0.028101048
-0.75026705
-0.021229801
-0.77322507
-0.10578456
-0.6771518
-0.36306188
-0.6307639
-0.28636129
-0.60622126
-0.21785026
-0.59991962
-0.1524678
-0.60026539
-0.11170474
-0.60224847
-0.086100659
-0.60437303
-0.068589957
-0.60623159
-0.055792226
-0.60775525
-0.045910469
-0.60897141
-0.037939567
-0.60992809
-0.031277211
-0.61067122
-0.025539782
-0.61123895
-0.020468883
-0.61166105
-0.015881432
-0.6119598
-0.011641942
-0.61215112
-0.0076447421
-0.0037963911
-0.58476716
0.017472922
-0.58349804
0.017951807
-0.58212973
0.018429259
-0.58065803
0.019177199
-0.57905672
0.020209083
-0.57729492
0.021577411
-0.57533603
0.023344616
-0.57314019
0.025600893
-0.57066982
0.028475677
-0.56789774
0.03215232
-0.56482262
0.036910875
-0.56155177
0.043241882
-0.55852907
0.051867653
-0.55652407
0.063233067
-0.55614329
0.077959963
-0.56152417
0.10175766
-0.58047677
0.13063092
-0.59262975
0.11922653
-0.59888558
0.099997568
-0.59402665
0.071401344
-0.58775695
0.060195752
-0.58243707
0.056469711
-0.58157328
0.058603353
-0.57953579
0.052040557
-0.57389628
0.045416976
-0.58521186
0.032533457
-0.59564174
0.037448738
-0.60470273
0.040320994
-0.60344912
0.0204822
-0.63527003
0.039882976
-0.71435172
0.019776774
-0.66918455
-0.054712586
-0.60685236
-0.22709077
-0.57379925
-0.31941441
-0.57150802
-0.22014149
-0.58113681
-0.14283901
-0.58945231
-0.10338924
-0.59561858
-0.07993439
-0.6000865
-0.064122033
-0.60336085
-0.052517876
-0.60579621
-0.043475107
-0.60762933
-0.03610645
-0.60901857
-0.029887973
-0.61007176
-0.02448659
-0.61086355
-0.019677092
-0.61144608
-0.015298907
-0.61185565
-0.011232366
-0.61211694
-0.0073834557
-0.0036684249
-0.52682368
0.015063303
-0.52432776
0.015455887
-0.52167657
0.015778065
-0.51882785
0.016328488
-0.51572735
0.017108577
-0.51230725
0.018157314
-0.5084819
0.019519265
-0.50414619
0.021265185
-0.49917596
0.023505449
-0.49343338
0.026409734
-0.48677545
0.030252951
-0.47909794
0.035564371
-0.47059715
0.043366862
-0.46224014
0.054876066
-0.45437683
0.070096651
-0.44763576
0.095016592
-0.47081302
0.15380818
-0.47004197
0.11845548
-0.46093561
0.090891209
-0.42712795
0.037593683
-0.39553084
0.028598647
-0.36814776
0.029086633
-0.3036114
0.020818506
-0.16314445
0.013469321
-0.041229666