/*--------------------------------*- C++ -*----------------------------------*\
| =========                 |                                                 |
| \\      /  F ield         | foam-extend: Open Source CFD                    |
|  \\    /   O peration     | Version:     4.1                                |
|   \\  /    A nd           | Web:         http://www.foam-extend.org         |
|    \\/     M anipulation  |                                                 |
\*---------------------------------------------------------------------------*/
FoamFile
{
    version     2.0;
    format      ascii;
    class       volScalarField;
    location    "0.65";
    object      rAU;
}
// * * * * * * * * * * * * * * * * * * * * * * * * * * * * * * * * * * * * * //

dimensions      [0 0 1 0 0 0 0];

internalField   nonuniform List<scalar> 
4393
(
0.00022764227
0.00022726861
0.00022690272
0.000226529
0.00022614532
0.00022575026
0.00022534145
0.0002249177
0.00022447815
0.00022402261
0.00022355167
0.00022306684
0.00022257062
0.00022206654
0.00022155898
0.00022105407
0.00022055762
0.00022007661
0.00021961867
0.00021919138
0.00021880248
0.00021845966
0.0002181704
0.0002179419
0.00021778081
0.00021769305
0.00021768329
0.00021768329
0.00021775481
0.00021790873
0.00021814321
0.00021845326
0.0002188307
0.00021926447
0.00021974132
0.00022024672
0.00022076583
0.00022128448
0.00022178984
0.00022227089
0.00022271868
0.00022312625
0.00022348855
0.00022380212
0.00022406486
0.0002242758
0.00022443499
0.00022454296
0.00022458508
0.00022451004
0.00022418971
0.00022388431
0.00022356986
0.0002232436
0.00022290389
0.00022254849
0.00022217655
0.00022178766
0.00022138217
0.00022096136
0.00022052751
0.00022008398
0.00021963525
0.00021918664
0.00021874516
0.0002183174
0.00021791097
0.00021753395
0.00021719417
0.00021689949
0.0002166576
0.00021647592
0.00021636143
0.00021632048
0.00021635845
0.00021644515
0.00021641808
0.00021646125
0.00021658809
0.00021680013
0.00021709582
0.00021747
0.00021791393
0.00021841562
0.0002189608
0.00021953398
0.00022011966
0.00022070327
0.00022127187
0.00022181458
0.00022232269
0.0002227896
0.00022321057
0.00022358236
0.00022390283
0.00022417108
0.00022438864
0.00022454272
0.00022400486
0.00022369636
0.00022339638
0.00022308485
0.00022275904
0.00022241745
0.00022205807
0.00022168033
0.00022128422
0.00022087064
0.00022044148
0.00021999981
0.00021954986
0.00021909709
0.00021864781
0.00021821005
0.00021779128
0.00021739984
0.00021704434
0.00021673296
0.00021647373
0.00021627441
0.00021614238
0.00021608458
0.00021610715
0.00021621516
0.00021630206
0.00021618295
0.00021614465
0.00021619416
0.00021633641
0.00021657308
0.00021690161
0.00021731483
0.00021780122
0.00021834588
0.00021893184
0.00021954163
0.00022015848
0.00022076731
0.00022135527
0.00022191202
0.00022242962
0.00022290234
0.00022332619
0.00022369854
0.00022401829
0.00022428555
0.00022448064
0.00022364966
0.00022334654
0.00022304648
0.00022273182
0.00022240009
0.00022204999
0.00022167967
0.00022128881
0.00022087772
0.00022044774
0.00022000138
0.00021954243
0.00021907603
0.00021860867
0.00021814782
0.00021770262
0.00021728166
0.00021689417
0.00021654946
0.00021625621
0.00021602274
0.00021585699
0.00021576651
0.00021575835
0.00021583876
0.00021601279
0.00021609452
0.00021588936
0.00021576674
0.00021573719
0.00021580942
0.00021598865
0.00021627501
0.00021666278
0.0002171404
0.00021769176
0.00021829781
0.00021893856
0.00021959466
0.00022024866
0.00022088568
0.00022149376
0.0002220638
0.00022258919
0.00022306544
0.00022348973
0.00022386084
0.0002241778
0.00022442246
0.0002232879
0.00022298894
0.00022268921
0.00022237173
0.00022203422
0.00022167551
0.00022129387
0.00022088915
0.00022046194
0.00022001396
0.00021954824
0.00021906929
0.00021858317
0.00021809745
0.00021762084
0.0002171638
0.00021673612
0.0002163481
0.00021600983
0.00021573051
0.00021551881
0.00021538287
0.00021533046
0.0002153689
0.00021550478
0.0002157435
0.00021583085
0.00021553522
0.00021532432
0.00021521271
0.00021521351
0.00021533602
0.00021558336
0.0002159511
0.00021642718
0.00021699355
0.00021762828
0.00021830819
0.00021901086
0.00021971616
0.00022040711
0.00022107019
0.00022169522
0.00022227496
0.00022280461
0.00022328134
0.00022370382
0.00022407092
0.00022436678
0.00022291034
0.00022261606
0.00022231771
0.00022199837
0.00022165587
0.00022128909
0.00022089636
0.00022047762
0.00022003365
0.00021956647
0.00021907958
0.00021857816
0.00021806917
0.00021756136
0.00021706479
0.00021659141
0.00021615245
0.00021575939
0.00021542322
0.00021515369
0.00021495976
0.00021484982
0.00021483189
0.0002149137
0.00021510251
0.00021540446
0.00021551256
0.00021512063
0.00021481582
0.00021461737
0.00021454363
0.00021460886
0.00021481968
0.00021517287
0.00021565532
0.00021624602
0.0002169192
0.0002176476
0.00021840509
0.00021916854
0.00021991875
0.00022064071
0.00022132337
0.00022195911
0.00022254311
0.00022307274
0.00022354689
0.00022396485
0.00022431256
0.00022251746
0.00022222855
0.0002219326
0.0002216124
0.00022126576
0.00022089151
0.00022048796
0.00022005506
0.00021959367
0.000219106
0.00021859595
0.00021806929
0.00021753391
0.0002169998
0.00021647857
0.00021598388
0.00021552865
0.00021512578
0.00021478721
0.00021452325
0.00021434311
0.00021425532
0.00021426818
0.00021439
0.00021462895
0.00021499248
0.00021514166
0.00021464616
0.00021423997
0.00021394781
0.00021379449
0.00021380049
0.00021397676
0.00021432134
0.0002148192
0.0002154452
0.00021616832
0.00021695611
0.00021777802
0.00021860748
0.00021942299
0.00022020813
0.00022095123
0.00022164456
0.00022228359
0.00022286617
0.00022339173
0.00022386041
0.00022425954
0.00022211126
0.00022182908
0.0002215367
0.00022121667
0.00022086673
0.0002204856
0.00022007147
0.0002196242
0.0002191446
0.00021863496
0.00021809943
0.00021754436
0.00021697852
0.00021641324
0.0002158619
0.0002153402
0.0002148631
0.00021444516
0.00021409942
0.00021383665
0.00021366618
0.00021359654
0.00021363624
0.00021379426
0.00021408006
0.00021450298
0.00021471972
0.00021411171
0.00021359447
0.0002131992
0.0002129588
0.00021290183
0.00021304489
0.00021338737
0.00021391125
0.00021458547
0.00021537205
0.00021623193
0.00021712919
0.00021803345
0.00021892081
0.0002197737
0.0002205801
0.00022133257
0.0002220272
0.00022266264
0.00022323916
0.00022375798
0.00022420768
0.00022169345
0.00022141884
0.00022113113
0.00022081233
0.00022046001
0.00022007269
0.00021964833
0.00021918656
0.000218688
0.00021815487
0.00021759146
0.00021700453
0.00021640373
0.00021580182
0.00021521421
0.0002146591
0.00021415395
0.00021371534
0.00021335749
0.00021309156
0.00021292668
0.00021287115
0.00021293351
0.00021312348
0.00021345214
0.00021393141
0.00021424964
0.00021351836
0.00021287784
0.00021236693
0.00021202882
0.0002119029
0.00021201343
0.00021236134
0.00021292407
0.00021366222
0.00021452845
0.00021547529
0.00021646041
0.0002174492
0.00021841543
0.00021934066
0.00022021302
0.00022102579
0.00022177611
0.00022246379
0.00022309033
0.00022365815
0.00022415714
0.00022126602
0.00022100087
0.00022071923
0.00022040286
0.00022004918
0.00021965645
0.00021922228
0.00021874594
0.00021822768
0.00021766945
0.00021707549
0.00021645283
0.00021581193
0.00021516705
0.00021453599
0.00021393999
0.0002133997
0.00021293422
0.0002125591
0.0002122856
0.0002121223
0.00021207675
0.00021215728
0.00021237427
0.00021274077
0.0002132721
0.00021373481
0.00021286752
0.00021208847
0.0002114455
0.00021099493
0.00021079102
0.00021086886
0.00021123127
0.00021184877
0.00021267021
0.00021363563
0.00021468692
0.00021577414
0.00021685813
0.00021791057
0.00021891267
0.00021985329
0.00022072704
0.00022153262
0.00022227143
0.00022294647
0.00022356163
0.00022410818
0.00022083162
0.00022057652
0.00022030207
0.00021998931
0.00021963537
0.00021923812
0.00021879474
0.00021830392
0.00021776537
0.00021718054
0.00021655334
0.00021589087
0.00021520425
0.00021450929
0.00021382656
0.00021318115
0.00021259783
0.00021209892
0.00021170143
0.00021141636
0.000211251
0.00021121154
0.00021130556
0.00021154394
0.00021194199
0.00021251933
0.00021318054
0.00021216235
0.00021122601
0.00021042964
0.00020984634
0.00020955116
0.00020959503
0.00020998329
0.00021067591
0.00021160489
0.0002126933
0.00021386961
0.00021507502
0.00021626569
0.00021741173
0.0002184948
0.00021950533
0.00022043998
0.00022129962
0.00022208769
0.00022280906
0.00022346929
0.00022406117
0.00022039123
0.00022014873
0.00021988323
0.0002195756
0.0002192228
0.00021882226
0.00021837058
0.00021786574
0.00021730663
0.00021669389
0.00021603078
0.00021532417
0.00021458557
0.00021383232
0.00021308818
0.00021238312
0.00021174742
0.00021120765
0.00021078249
0.00021048204
0.00021031129
0.00021027409
0.00021037656
0.00021062969
0.00021105123
0.0002116661
0.00021248656
0.00021140744
0.0002102913
0.00020931406
0.00020857025
0.00020816441
0.00020817149
0.00020860039
0.00020939467
0.00021046209
0.00021170273
0.00021302823
0.00021436982
0.00021567923
0.00021692599
0.00021809337
0.00021917446
0.00022016892
0.00022108044
0.00022191506
0.00022267981
0.00022338216
0.00022401659
0.00021995003
0.00021972023
0.00021946474
0.00021916357
0.00021881327
0.00021841072
0.00021795178
0.00021743351
0.00021685371
0.00021621185
0.00021551014
0.00021475477
0.00021395726
0.00021313629
0.00021231922
0.00021154235
0.00021084349
0.00021025503
0.00020979756
0.00020947928
0.00020930128
0.00020926361
0.00020936989
0.00020963054
0.00021006571
0.00021070664
0.00021159338
0.00021061082
0.00020928778
0.00020809449
0.00020715201
0.00020660709
0.00020657215
0.00020706175
0.00020799318
0.00020923892
0.00021066782
0.00021217083
0.00021366837
0.00021510872
0.00021646246
0.00021771619
0.00021886709
0.0002199189
0.00022087894
0.00022175632
0.00022256063
0.00022330141
0.00022397497
0.00021950673
0.00021929297
0.00021904969
0.00021875693
0.0002184111
0.0002180085
0.00021754417
0.00021701402
0.00021641442
0.00021574323
0.00021500105
0.00021419281
0.00021332943
0.00021243042
0.00021152703
0.00021066369
0.00020988873
0.00020924277
0.00020874865
0.00020841104
0.00020822474
0.00020818408
0.00020828886
0.00020854806
0.00020898388
0.00020963491
0.00021055414
0.00020978425
0.00020822244
0.00020676855
0.00020557495
0.00020484875
0.00020476274
0.0002053413
0.00020645838
0.00020793456
0.00020959625
0.00021130959
0.00021298423
0.00021456713
0.00021603251
0.00021737266
0.00021859069
0.00021969566
0.00022069939
0.00022161457
0.00022245362
0.00022322831
0.00022393692
0.0002190721
0.00021887385
0.0002186438
0.00021836104
0.00021802148
0.00021762073
0.00021715284
0.00021661233
0.0002159938
0.00021529293
0.00021450807
0.00021364206
0.00021270439
0.00021171447
0.00021070742
0.00020973817
0.0002088702
0.00020815625
0.00020762208
0.00020726628
0.00020707377
0.00020703037
0.00020713048
0.00020738015
0.00020780245
0.00020844378
0.00020937294
0.0002089443
0.00020710751
0.00020533763
0.00020382086
0.00020284983
0.00020269697
0.00020340602
0.00020477636
0.00020655187
0.00020850131
0.00021046235
0.00021233573
0.00021407098
0.00021564997
0.00021707378
0.0002183537
0.00021950553
0.00022054642
0.00022149309
0.000222361
0.00022316425
0.00022390309
0.00021863764
0.00021845889
0.00021824451
0.00021797398
0.00021764317
0.00021724707
0.00021677865
0.00021623086
0.00021559615
0.00021486748
0.00021404003
0.00021311362
0.00021209505
0.00021100209
0.00020987273
0.00020877519
0.00020779505
0.00020700328
0.00020642926
0.00020606122
0.0002058682
0.00020582367
0.00020591492
0.00020614359
0.00020653184
0.00020713425
0.00020803917
0.00020811666
0.00020596346
0.00020381002
0.00020187171
0.00020055853
0.00020031036
0.00020121353
0.00020293325
0.00020510002
0.00020740449
0.00020965454
0.00021174708
0.00021364093
0.00021533127
0.00021683211
0.00021816543
0.00021935528
0.00022042486
0.00022139525
0.00022228504
0.00022311063
0.00022387415
0.00021822623
0.0002180658
0.00021786821
0.00021761198
0.00021729258
0.00021690427
0.00021643877
0.00021588724
0.00021523957
0.00021448523
0.00021361512
0.00021262459
0.00021151621
0.00021030354
0.00020902491
0.00020776467
0.00020664144
0.00020575492
0.00020513965
0.00020476707
0.00020458156
0.00020453951
0.00020462041
0.00020482029
0.00020515669
0.00020569051
0.00020653246
0.00020732991
0.00020481989
0.00020220617
0.00019971438
0.0001979077
0.0001975101
0.00019870916
0.00020091731
0.00020359885
0.00020633945
0.00020892177
0.0002112497
0.00021330211
0.0002150954
0.00021666143
0.0002180357
0.00021925181
0.00022033952
0.00022132436
0.00022222795
0.00022306881
0.00022385076
0.00021781728
0.00021767941
0.00021750096
0.00021726131
0.0002169561
0.00021657897
0.00021612043
0.00021556973
0.00021491393
0.00021413847
0.00021322881
0.00021217423
0.00021097125
0.00020962595
0.00020817156
0.0002067101
0.00020541028
0.00020441826
0.00020377543
0.00020342545
0.00020327248
0.00020324801
0.00020332347
0.00020348794
0.00020374684
0.00020416303
0.00020487436
0.00020604227
0.00020373671
0.00020057372
0.00019735358
0.00019481607
0.00019415985
0.00019582342
0.00019872349
0.00020208616
0.00020535765
0.00020831302
0.00021088349
0.0002130843
0.00021496345
0.0002165763
0.00021797438
0.00021920178
0.00022029489
0.00022128346
0.00022219175
0.00022304004
0.00022383357
0.00021746847
0.00021735144
0.00021719351
0.00021697336
0.00021668649
0.00021632592
0.00021588098
0.00021533894
0.0002146838
0.00021389625
0.00021295466
0.00021183962
0.00021053889
0.00020904642
0.00020737986
0.00020565528
0.00020411801
0.00020299265
0.00020232952
0.00020202776
0.00020192617
0.00020192182
0.00020198339
0.00020209864
0.00020225167
0.00020250133
0.00020301805
0.0002040485
0.00020278097
0.00019900486
0.00019485207
0.00019121378
0.00019006354
0.00019247262
0.00019636225
0.00020062952
0.0002045367
0.00020789456
0.00021069778
0.0002130215
0.00021495784
0.00021659111
0.00021799065
0.00021921105
0.00022029479
0.00022127505
0.0002221781
0.0002230254
0.00022382311
0.00021720092
0.00021710913
0.00021697565
0.00021677952
0.00021651658
0.00021617928
0.00021575582
0.00021523144
0.00021458696
0.00021379794
0.00021283439
0.00021166545
0.00021026749
0.0002086191
0.00020670676
0.00020464528
0.00020279741
0.0002015275
0.00020089312
0.00020072318
0.00020074599
0.00020081042
0.00020089361
0.00020099585
0.00020105409
0.00020109976
0.00020133294
0.00020206255
0.00020232749
0.00019782665
0.00019245549
0.00018712829
0.00018496271
0.00018857622
0.00019388593
0.00019934922
0.00020399315
0.00020775439
0.00021075154
0.00021315051
0.00021510059
0.00021671878
0.00021809205
0.00021928412
0.00022034195
0.00022130089
0.00022218816
0.00022302564
0.00022381979
0.00021726023
0.00021719655
0.00021709354
0.00021692921
0.00021669976
0.00021639741
0.0002160097
0.00021552055
0.00021490827
0.00021414394
0.00021318876
0.00021199684
0.00021052784
0.00020874126
0.00020656884
0.00020407556
0.00020179503
0.00020035847
0.00019981282
0.00019988558
0.00020011062
0.00020027003
0.00020036623
0.00020045104
0.0002003704
0.0002000935
0.00019988275
0.00020010166
0.00020118517
0.00019740439
0.00019066424
0.00018292003
0.00017861798
0.00018416764
0.0001914714
0.00019845588
0.00020389825
0.00020800511
0.00021111112
0.00021350766
0.00021541065
0.00021696886
0.00021828331
0.00021942329
0.00022043759
0.0002213617
0.00022222243
0.00022304114
0.00022382388
0.00021801804
0.00021798934
0.0002179314
0.00021781702
0.00021764244
0.0002173998
0.00021707657
0.0002166559
0.000216114
0.00021541747
0.00021451774
0.00021334834
0.00021184181
0.00020993668
0.00020749321
0.0002044229
0.00020148632
0.00019989038
0.00019958885
0.00020018438
0.00020082681
0.00020121058
0.00020138656
0.00020158286
0.00020150152
0.00020093328
0.00020031479
0.00019986034
0.00020080728
0.00019976522
0.00019129991
0.00018002437
0.00017095132
0.00017966145
0.00018948265
0.00019827481
0.0002044913
0.00020878293
0.00021184391
0.00021412297
0.00021589997
0.00021734522
0.00021856499
0.00021962805
0.00022058097
0.00022145691
0.00022228063
0.00022307184
0.00022383543
0.00022066613
0.00022071446
0.00022074445
0.00022072404
0.00022065137
0.00022051948
0.00022031707
0.00022002824
0.00021962925
0.00021908527
0.00021834246
0.00021731625
0.00021590378
0.00021402241
0.00021147143
0.00020779477
0.00020389337
0.00020237612
0.00020273366
0.0002045121
0.00020601391
0.00020691433
0.00020732403
0.00020797579
0.00020831911
0.00020732302
0.00020618713
0.00020432274
0.00020495848
0.00020348465
0.00019650212
0.00018118459
0.000162224
0.0001763122
0.000188701
0.00019949989
0.00020615164
0.00021024855
0.00021300591
0.00021501072
0.00021656812
0.00021784334
0.00021893227
0.0002198944
0.0002207692
0.00022158459
0.00022236158
0.00022311717
0.00022385424
0.00022642836
0.00022657159
0.00022673435
0.00022686207
0.0002269525
0.00022700076
0.00022699967
0.00022693839
0.00022679857
0.00022655058
0.00022614335
0.00022547902
0.00022439484
0.00022272637
0.0002202291
0.00021577629
0.00020957739
0.0002082589
0.00020949441
0.00021349366
0.00021646408
0.00021835495
0.00021896502
0.0002203989
0.00022209524
9.3005581e-05
9.543477e-05
9.7691394e-05
9.9880759e-05
0.00010287971
9.4462807e-05
8.6205178e-05
0.00010657131
0.00017933773
0.00019343679
0.00020412992
0.00020945688
0.0002125367
0.00021460732
0.00021615357
0.00021739603
0.00021844798
0.00021937406
0.00022021464
0.00022099707
0.00022174139
0.00022246326
0.00022317604
0.0002238799
0.00023925967
0.00023970733
0.00024020825
0.00024069434
0.00024117473
0.0002416535
0.00024213548
0.00024262439
0.00024311907
0.00024360878
0.00024406075
0.00024438221
0.00024435243
0.00024363584
0.00024201634
0.00023808378
0.00022683458
0.00022936973
0.00023549438
0.00025021167
0.00026141256
0.00027020673
0.00012828342
0.00016684255
0.00032255866
0.00046152932
0.00049956686
0.00049956686
0.00049956686
0.00049956686
0.00049956686
0.00045031343
0.00033650075
6.8075759e-05
0.00021297738
0.0002134638
0.00021438124
0.00021549647
0.00021653823
0.00021748264
0.00021834116
0.00021913242
0.00021987323
0.00022057762
0.00022125735
0.00022192266
0.00022258285
0.00022324689
0.00022391177
0.00026430201
0.00026531048
0.00026646406
0.0002676603
0.00026891976
0.00027026704
0.00027173624
0.00027337037
0.00027522256
0.00027736031
0.00027986995
0.00028284875
0.00028639803
0.00029057074
0.00029520728
0.00030236079
0.00027347965
0.00030504532
0.00035661014
0.00037245751
0.00027849938
0.00032083698
0.00049956686
0.00049956686
0.00049956686
0.00049956686
0.00049956686
0.00049956686
0.00049956686
0.00049956686
0.00041263163
0.00041826551
0.0001020373
0.00026659587
0.00023114361
0.00022209979
0.00021927759
0.00021853682
0.00021855597
0.00021888325
0.00021934272
0.00021986156
0.00022040833
0.00022096977
0.00022154129
0.00022212283
0.00022271689
0.00022332777
0.00022394898
0.00030199866
0.00030414081
0.00030627029
0.00030847187
0.00031082007
0.00031338771
0.00031626074
0.00031955245
0.00032342223
0.00032811369
0.00033402298
0.00034172517
0.00035175377
0.00036476322
0.00038492875
0.00040156156
0.00025728658
0.00025315388
0.00026372517
0.00048919344
0.00047857348
0.00048845332
0.00047869844
0.00047372149
0.00047746513
0.00045865742
0.00045171849
0.00045351534
0.00044093472
0.00043651849
0.00010691656
0.0001076691
0.00021977008
0.0002523549
0.00023695102
0.00022741303
0.00022311788
0.00022122085
0.00022045097
0.00022024609
0.0002203394
0.00022059895
0.00022095669
0.00022137656
0.00022183945
0.00022233576
0.00022286152
0.00022341646
0.00022399054
0.00028853951
0.00028905768
0.00028924816
0.00028943561
0.00028962202
0.0002898393
0.00029011342
0.00029048124
0.00029099567
0.00029173428
0.00029281921
0.00029386359
0.0002948066
0.00029556975
0.00029293258
0.00010293663
0.00037623001
0.00047080368
0.00047260706
0.00049383661
0.0004861379
0.00048245043
0.00012420972
0.00012127894
0.00010076933
0.00010005302
0.00010062781
0.00010197151
0.00010292593
0.00010452018
0.00020120589
0.00020767421
0.00021807756
0.00023900974
0.00023963227
0.00023076345
0.0002259596
0.00022341862
0.00022210976
0.00022149408
0.00022128143
0.00022131246
0.00022149727
0.00022178401
0.00022214249
0.00022255526
0.00022301275
0.00022351059
0.00022403534
0.00022326514
0.00022309829
0.00022281107
0.00022253352
0.00022227338
0.00022204781
0.00022187277
0.00022177159
0.00022177656
0.00022193256
0.00022230453
0.00022209036
0.00022115917
0.00021941307
0.0002167256
0.00021314386
9.586058e-05
9.9101644e-05
9.9867995e-05
9.9772839e-05
0.00010014851
0.00010017524
0.00021253846
0.00021081224
0.00020892831
0.00020554217
0.00020443358
0.00020387702
0.00020210579
0.00020212364
0.00020330359
0.00020900901
0.00021823157
0.0002321705
0.00023802001
0.00023248363
0.000227859
0.00022509088
0.00022347742
0.0002225804
0.00022213384
0.00022197714
0.00022201254
0.00022217988
0.00022244186
0.00022277544
0.00022316668
0.00022360777
0.00022408225
0.00021926845
0.00021934845
0.00021947478
0.00021961006
0.00021976554
0.00021995333
0.00022018603
0.0002204797
0.00022085364
0.00022133066
0.00022186234
0.00022156429
0.00022080903
0.00021957342
0.00021780016
0.00021498659
0.00021250535
0.00021402747
0.0002158775
0.0002142132
0.00021238013
0.00021121427
0.00021005757
0.00020833564
0.00020730172
0.00020568417
0.00020477787
0.0002042033
0.00020347725
0.00020394573
0.00020592931
0.00021088502
0.00021854426
0.00022810379
0.00023382757
0.00023318347
0.00022902199
0.00022628728
0.00022454955
0.00022348603
0.00022287671
0.00022257617
0.00022248937
0.00022255427
0.00022273031
0.00022299111
0.00022331973
0.00022370574
0.00022413016
0.00021789264
0.00021797207
0.00021809719
0.0002182357
0.00021839048
0.00021856908
0.00021878003
0.00021903441
0.00021934475
0.00021972475
0.00021997517
0.00021948316
0.00021872517
0.00021765104
0.00021622416
0.00021438913
0.00021325916
0.00021411088
0.00021526873
0.0002134937
0.00021190039
0.0002106812
0.00020952453
0.00020830943
0.00020735453
0.00020629545
0.00020564496
0.0002052842
0.00020520965
0.00020608512
0.00020832834
0.000212617
0.00021875549
0.0002256109
0.00023029644
0.00023231177
0.00022962852
0.0002270825
0.00022534866
0.00022421138
0.00022350253
0.0002231003
0.00022291915
0.00022289995
0.00022300208
0.00022319788
0.00022346874
0.00022380244
0.00022417801
0.00021721461
0.00021733541
0.00021747491
0.00021762569
0.00021779373
0.00021798544
0.000218207
0.00021846592
0.00021876922
0.00021912229
0.00021921126
0.00021876819
0.00021811676
0.00021722693
0.00021607842
0.00021481961
0.00021419325
0.00021469706
0.00021503749
0.00021341011
0.00021201258
0.00021086059
0.000209803
0.00020882138
0.00020800121
0.00020726553
0.00020684683
0.00020673187
0.0002070278
0.0002081206
0.00021033258
0.00021398944
0.00021886749
0.00022400623
0.00022785992
0.00023021575
0.0002298476
0.00022756051
0.00022591181
0.00022476945
0.00022401304
0.00022354651
0.0002232973
0.00022321224
0.00022325301
0.00022339235
0.00022361112
0.0002238961
0.00022422489
0.00021692529
0.00021699813
0.00021711387
0.00021724878
0.00021740093
0.00021757386
0.00021777137
0.00021799834
0.00021825866
0.00021855382
0.00021851986
0.00021813044
0.00021759804
0.00021691107
0.00021608204
0.00021528824
0.00021497509
0.00021536352
0.00021499437
0.00021359327
0.00021236784
0.00021132126
0.00021038773
0.00020956724
0.00020889279
0.00020837452
0.00020813361
0.00020820642
0.00020870998
0.00020988536
0.00021195046
0.00021504792
0.00021894812
0.00022294056
0.00022613639
0.00022830116
0.0002292997
0.00022779496
0.00022627946
0.00022517975
0.00022441598
0.00022391644
0.00022362256
0.00022348873
0.00022348044
0.00022357206
0.00022374484
0.00022398526
0.00022427001
0.00021678261
0.0002168954
0.00021702071
0.00021715615
0.00021730573
0.00021747252
0.00021765822
0.00021786469
0.00021809198
0.00021833693
0.00021824606
0.00021789742
0.0002174453
0.00021689438
0.00021628472
0.00021577517
0.00021563295
0.0002159613
0.00021504727
0.00021385793
0.00021279469
0.00021186863
0.00021105939
0.00021037453
0.00020983694
0.00020947917
0.00020937649
0.00020958148
0.00021019553
0.00021137464
0.00021325473
0.00021588033
0.00021903996
0.00022223089
0.00022490566
0.00022685431
0.00022808793
0.00022785166
0.00022649119
0.0002254644
0.00022472257
0.00022421492
0.0002238962
0.00022372887
0.00022368302
0.00022373543
0.00022386845
0.00022406881
0.00022431272
0.00021670913
0.000216779
0.00021688516
0.00021700819
0.00021714559
0.00021729849
0.00021746705
0.00021765149
0.00021784991
0.00021805682
0.00021796545
0.00021768032
0.00021732448
0.00021691104
0.00021648838
0.00021618136
0.00021615481
0.00021618049
0.0002151395
0.00021413843
0.00021322718
0.00021242551
0.00021173593
0.00021117177
0.00021075578
0.00021052349
0.00021052932
0.00021082587
0.0002114932
0.00021263299
0.00021432323
0.00021655764
0.00021915502
0.00022176222
0.00022402137
0.00022575819
0.00022694708
0.000227505
0.00022658123
0.00022564517
0.00022494548
0.00022444865
0.00022412127
0.00022393356
0.00022386046
0.00022388165
0.00022398101
0.00022414593
0.00022435256
0.00021665573
0.00021674704
0.00021685363
0.00021696951
0.00021709625
0.00021723484
0.00021738438
0.0002175437
0.00021770944
0.00021787484
0.00021779435
0.00021755647
0.00021727414
0.00021696626
0.00021668057
0.00021651064
0.00021656179
0.00021610823
0.00021525294
0.0002144164
0.00021364545
0.00021296506
0.00021238908
0.00021193482
0.00021162573
0.00021149501
0.00021158556
0.00021194367
0.00021262946
0.00021370806
0.00021521898
0.00021713169
0.00021929728
0.00022146533
0.00022339029
0.00022493186
0.00022605016
0.00022677519
0.0002265797
0.00022574232
0.00022509759
0.00022462527
0.00022430189
0.0002241047
0.00022401337
0.00022401058
0.00022408205
0.00022421611
0.00022438918
0.00021662342
0.00021668986
0.00021678459
0.00021689171
0.00021700903
0.00021713626
0.00021727151
0.00021741259
0.00021755517
0.00021769176
0.00021764581
0.00021745781
0.00021724398
0.00021702541
0.00021684489
0.00021677202
0.00021670855
0.00021608753
0.00021538514
0.00021469152
0.00021404817
0.0002134819
0.00021301179
0.00021265732
0.00021244177
0.00021239468
0.00021255095
0.00021294867
0.00021363141
0.00021463934
0.00021598762
0.00021763615
0.00021946512
0.00022129384
0.00022294736
0.00022431398
0.00022535043
0.00022606633
0.0002263793
0.0002257734
0.00022519103
0.00022475263
0.00022444282
0.00022424491
0.00022414295
0.00022412259
0.00022417149
0.00022427912
0.00022442239
0.00021659946
0.00021667167
0.00021676187
0.00021686019
0.00021696628
0.00021707979
0.00021719839
0.00021731943
0.00021743823
0.00021754742
0.0002175358
0.00021738945
0.00021723173
0.00021708361
0.00021698139
0.00021695028
0.00021664326
0.00021610884
0.00021553445
0.0002149652
0.00021443691
0.00021397597
0.00021360324
0.00021333885
0.00021320495
0.00021322725
0.00021343424
0.00021385597
0.00021452292
0.00021545828
0.00021666247
0.00021809367
0.0002196562
0.0002212171
0.00022264794
0.00022385996
0.00022481162
0.00022550116
0.00022595287
0.00022575369
0.00022523689
0.00022483836
0.000224549
0.00022435721
0.00022425088
0.00022421847
0.00022424959
0.00022433494
0.0002244521
0.00021658841
0.00021664833
0.00021673073
0.00021682163
0.00021691908
0.00021702211
0.00021712797
0.00021723368
0.00021733447
0.00021742336
0.00021744715
0.00021733804
0.00021722756
0.00021713535
0.00021709155
0.00021696773
0.0002165998
0.00021616485
0.00021569918
0.00021523848
0.00021481335
0.00021444845
0.00021416447
0.000213981
0.00021391837
0.00021399864
0.00021424482
0.00021467981
0.00021532412
0.00021618945
0.00021726785
0.00021851951
0.0002198681
0.00022121378
0.00022246005
0.00022353621
0.00022440464
0.00022505761
0.00022550884
0.00022566405
0.0002252449
0.00022488955
0.00022462533
0.00022444478
0.00022433909
0.00022429928
0.00022431682
0.00022438372
0.00022447834
0.0002165846
0.00021664307
0.00021671988
0.000216803
0.00021689109
0.00021698314
0.00021707629
0.00021716753
0.00021725232
0.00021732432
0.00021736623
0.00021729923
0.00021722706
0.00021717815
0.00021711321
0.00021689936
0.0002165988
0.00021624857
0.00021587646
0.000215511
0.00021517818
0.00021490028
0.00021469675
0.00021458581
0.00021458561
0.00021471474
0.00021499146
0.00021543268
0.0002160514
0.00021685171
0.00021782123
0.00021892384
0.00022009833
0.0002212684
0.00022236011
0.00022331696
0.00022410595
0.00022471667
0.00022515608
0.00022544234
0.00022522344
0.00022491264
0.0002246765
0.00022451084
0.00022440967
0.00022436628
0.00022437387
0.00022442576
0.00022450118
0.00021658928
0.0002166413
0.0002167123
0.00021678891
0.00021686931
0.00021695231
0.00021703502
0.00021711455
0.00021718672
0.00021724598
0.00021728525
0.00021726826
0.00021722677
0.00021717695
0.00021706161
0.00021687208
0.00021663091
0.00021635407
0.0002160634
0.000215782
0.00021553183
0.00021533256
0.00021520182
0.00021515599
0.00021521084
0.0002153817
0.00021568275
0.00021612595
0.00021671876
0.00021746027
0.00021833613
0.00021931433
0.00022034549
0.0002213703
0.00022233129
0.0002231831
0.0002238974
0.000224463
0.00022488276
0.00022516923
0.00022517982
0.00022491343
0.0002247069
0.00022455858
0.0002244648
0.00022442083
0.00022442151
0.00022446144
0.00022452078
0.00021659989
0.00021664865
0.00021671467
0.00021678504
0.00021685806
0.00021693263
0.00021700594
0.00021707534
0.00021713712
0.00021718658
0.00021721794
0.00021722454
0.00021719882
0.00021713511
0.00021702732
0.00021687631
0.00021668808
0.00021647568
0.00021625668
0.00021604995
0.00021587399
0.00021574587
0.00021568109
0.00021569397
0.00021579781
0.00021600496
0.00021632605
0.00021676903
0.00021733726
0.00021802662
0.0002188222
0.00021969598
0.00022060781
0.00022151096
0.00022236022
0.00022311909
0.00022376361
0.00022428299
0.0002246777
0.00022495651
0.00022509757
0.00022489687
0.00022472046
0.00022459095
0.00022450658
0.00022446435
0.00022446058
0.00022449119
0.0002245373
0.00021661589
0.00021666068
0.00021672223
0.00021678723
0.00021685395
0.00021692131
0.00021698668
0.00021704773
0.0002171013
0.00021714353
0.00021716987
0.00021717531
0.00021715473
0.00021710372
0.00021701968
0.00021690451
0.00021676387
0.00021660868
0.00021645336
0.00021631344
0.00021620445
0.00021614094
0.00021613625
0.00021620249
0.00021635055
0.00021659005
0.00021692849
0.00021737061
0.00021791669
0.0002185606
0.00021928762
0.00022007334
0.00022088485
0.00022168492
0.00022243768
0.00022311373
0.00022369312
0.0002241661
0.00022453197