/*--------------------------------*- C++ -*----------------------------------*\
| =========                 |                                                 |
| \\      /  F ield         | foam-extend: Open Source CFD                    |
|  \\    /   O peration     | Version:     4.1                                |
|   \\  /    A nd           | Web:         http://www.foam-extend.org         |
|    \\/     M anipulation  |                                                 |
\*---------------------------------------------------------------------------*/
FoamFile
{
    version     2.0;
    format      ascii;
    class       volScalarField;
    location    "0.2";
    object      p;
}
// * * * * * * * * * * * * * * * * * * * * * * * * * * * * * * * * * * * * * //

dimensions      [0 2 -2 0 0 0 0];

internalField   nonuniform List<scalar> 
16796
(
2.3367553
12.269998
20.391114
27.904023
34.904197
41.436621
47.497306
53.062545
58.098311
62.564511
66.419362
69.621468
72.12933
73.902235
74.900966
75.088227
74.429132
72.891569
70.446566
67.068921
62.737146
57.432337
51.138494
43.844567
35.544385
26.236111
15.922289
4.610053
-7.6887381
-20.957209
-35.173398
-50.309958
-66.333853
-83.206255
-100.88215
-119.31022
-138.43251
-158.18439
-178.49437
-199.28413
-220.46859
-241.95612
-263.64892
-285.44338
-307.23077
-328.89791
-350.32801
-371.40155
-391.99724
-411.99303
-431.26699
-449.69827
-467.16778
-483.55884
-498.75755
-512.653
-525.1372
-536.10473
-545.45228
-553.07788
-558.88
-562.75681
-564.60517
-564.31972
-561.7922
-556.91119
-549.5602
-539.61533
-526.95248
-511.48548
-493.12452
-471.74934
-447.25575
-419.55738
-388.58598
-354.29471
-316.66167
-275.69305
-231.42583
-183.92982
-133.30891
-79.701345
-23.279214
35.753157
97.161621
160.68547
226.04137
292.92786
361.03018
430.02536
499.58724
569.39142
639.11981
708.46491
777.13345
844.8495
911.35693
976.42136
1039.8313
1101.3989
1160.96
1218.374
1273.5229
1326.3103
1376.6604
1424.5159
1469.8369
1512.5991
1552.792
1590.4174
1625.4885
1658.0275
1688.0615
1715.6254
1740.7647
1763.5301
1783.9906
1802.2473
1818.3984
1832.4018
1844.1693
1854.5517
1867.5639
1885.241
4.4130609
12.903469
20.76971
28.189917
35.163514
41.693694
47.762503
53.340543
58.390832
62.871214
66.73977
69.955412
72.476236
74.261506
75.272079
75.470603
74.822173
73.294662
70.859099
67.490275
63.16659
57.868194
51.578177
44.285585
35.984341
26.672513
16.352606
5.0316759
-7.2784838
-20.561075
-34.794198
-49.95053
-65.997082
-82.895008
-100.59927
-119.05847
-138.21457
-158.00282
-178.35152
-199.18219
-220.40947
-241.94148
-263.68011
-285.52144
-307.3564
-329.07147
-350.54951
-371.67071
-392.3135
-412.35558
-431.67488
-450.15042
-467.66311
-484.09637
-499.33648
-513.27282
-525.79776
-536.80636
-546.19586
-553.86487
-559.71244
-563.63738
-565.53709
-565.30667
-562.83873
-558.0235
-550.75085
-540.90695
-528.37506
-513.02203
-494.72676
-473.39572
-448.93578
-421.26208
-390.30577
-356.01881
-318.37789
-277.38788
-233.0847
-185.53741
-134.84956
-81.159524
-24.639916
34.503946
96.036531
159.69539
225.19519
292.23221
360.48936
429.64125
499.35936
569.31702
639.19406
708.68113
777.48332
845.32341
911.94425
977.11073
1040.6109
1102.2568
1161.8843
1219.3529
1274.5453
1327.3654
1377.7381
1425.6069
1470.9324
1513.6909
1553.8725
1591.4792
1626.5236
1659.0273
1689.0217
1716.544
1741.6344
1764.3393
1784.722
1802.8668
1818.8388
1832.5934
1844.1578
1854.2612
1864.9612
1874.8407
6.1029885
13.4314
20.955849
28.253621
35.207816
41.766108
47.887212
53.530512
58.654398
63.217445
67.176145
70.485494
73.102267
74.984252
76.090658
76.382863
75.824561
74.382193
72.025113
68.725726
64.459727
59.208246
52.957347
45.695326
37.414163
28.110976
17.787374
6.4499153
-5.8899819
-19.21568
-33.505278
-48.73128
-64.860355
-81.853139
-99.663911
-118.24043
-137.52368
-157.44774
-177.9397
-198.91969
-220.30092
-241.99001
-263.88731
-285.88739
-307.87965
-329.74915
-351.37741
-372.64338
-393.42446
-413.59747
-433.03971
-451.62981
-469.24856
-485.7795
-501.10933
-515.1281
-527.7291
-538.80848
-548.26471
-555.99772
-561.90784
-565.89501
-567.85754
-567.6915
-565.29086
-560.54705
-553.34598
-543.57242
-531.11241
-515.84278
-497.64272
-476.40475
-452.02823
-424.42375
-393.51865
-359.26136
-321.62536
-280.61277
-236.25735
-188.62671
-137.82372
-83.986944
-27.290059
32.059739
93.82426
157.73773
223.51093
290.83589
359.39097
428.84619
498.86849
569.12686
639.29714
709.06636
778.13656
846.22794
913.08141
978.46044
1042.1522
1103.9684
1163.7451
1221.3423
1276.6435
1329.5539
1379.9998
1427.9262
1473.2955
1516.0858
1556.2889
1593.9085
1628.9587
1661.4623
1691.4513
1718.9636
1744.0421
1766.7353
1787.1056
1805.2239
1821.1309
1834.8111
1846.4313
1856.5132
1865.4855
1870.914
7.0741522
14.105046
21.474799
28.699084
35.640976
42.223365
48.389881
54.091176
59.280647
63.913246
67.943641
71.326328
74.017015
75.972758
77.152232
77.516152
77.027561
75.652229
73.358785
70.11893
65.907523
60.703756
54.49156
47.258861
38.99729
29.703099
19.377205
8.0254929
-4.3411718
-17.706613
-32.049253
-47.341769
-63.55084
-80.636933
-98.553975
-117.24918
-136.6628
-156.72799
-177.37076
-198.50999
-220.05753
-241.91849
-263.99168
-286.17006
-308.34146
-330.38936
-352.19385
-373.63256
-394.58175
-414.91736
-434.51603
-453.25608
-471.01829
-487.68655
-503.14826
-517.29448
-530.01983
-541.22203
-550.80133
-558.65946
-564.69855
-568.82008
-570.92373
-570.90704
-568.66607
-564.09143
-557.06574
-547.46992
-535.18303
-520.08092
-502.04204
-480.95268
-456.70718
-429.21138
-398.38753
-364.17902
-326.5546
-285.51232
-241.08268
-193.33113
-142.35958
-88.306913
-31.348434
28.305764
90.413435
154.70374
220.88156
288.63243
357.62789
427.53095
498.0017
568.70259
639.30337
709.4857
778.94692
847.40342
914.59307
980.27721
1044.2417
1106.2976
1166.281
1224.0528
1279.4974
1332.5219
1383.0541
1431.0413
1476.4482
1519.2548
1559.4553
1597.0556
1632.0716
1664.5282
1694.4575
1721.8975
1746.8912
1769.4871
1789.7439
1807.719
1823.4393
1836.9235
1848.4003
1858.1596
1865.9509
1869.773
7.4589531
14.491836
21.843923
29.075177
36.058924
42.710591
48.965455
54.768322
60.068498
64.817521
68.967797
72.472401
75.285512
77.362669
78.661074
79.139954
78.760864
77.488087
75.288803
72.133479
67.99617
62.85477
56.691482
49.493011
41.250268
31.958679
21.618349
10.234477
-2.1825792
-15.616972
-30.04726
-45.446049
-61.77974
-79.008294
-97.084908
-115.95584
-135.56016
-155.82965
-176.68872
-198.05447
-219.83684
-241.9389
-264.25734
-286.68293
-309.10135
-331.394
-353.43896
-375.11207
-396.28801
-416.84145
-436.64811
-455.58578
-473.53515
-490.38048
-506.01001
-520.3161
-533.19506
-544.5467
-554.27362
-562.28001
-568.47035
-572.74839
-575.01584
-575.17271
-573.11744
-568.73923
-561.921
-552.54156
-540.47556
-525.59471
-507.77201
-486.88575
-462.82222
-435.4795
-404.77228
-370.63666
-333.03479
-291.95901
-247.43537
-199.52632
-148.3324
-93.992915
-36.685324
23.376388
85.944516
150.74138
217.46394
285.78898
355.37879
425.88702
496.96451
568.26489
639.44982
710.19369
780.18763
849.14289
916.79339
982.89761
1047.2397
1109.63
1169.9049
1227.9261
1283.5799
1336.7754
1387.4432
1435.5333
1481.0134
1523.8669
1564.0906
1601.6933
1636.6937
1669.1187
1699.002
1726.382
1751.3017
1773.808
1793.9528
1811.7795
1827.3064
1840.5667
1851.7629
1860.9613
1867.7342
1870.7439
7.8041375
14.965337
22.379826
29.665714
36.716804
43.451229
49.801933
55.710574
61.123743
65.990681
70.262034
73.88953
76.826077
79.025945
80.445041
81.041261
80.774787
79.608472
77.508024
74.442371
70.384272
65.310136
59.200529
52.040638
43.820247
34.533795
24.180392
12.764376
0.29539869
-13.211241
-27.734451
-43.246976
-59.715125
-77.098532
-95.349809
-114.41438
-134.2302
-154.72772
-175.82973
-197.45153
-219.50101
-241.87907
-264.48005
-287.19234
-309.8992
-332.47962
-354.80942
-376.76234
-398.21122
-419.02921
-439.09092
-458.27349
-476.45749
-493.52759
-509.37302
-523.88768
-536.9699
-548.52194
-558.44929
-566.65892
-573.05824
-577.55343
-580.04869
-580.44712
-578.64763
-574.53798
-567.99957
-558.90777
-547.13267
-532.5408
-514.99843
-494.37534
-470.54849
-443.4064
-412.85414
-378.81858
-341.25339
-300.14359
-255.50948
-207.40965
-155.94288
-101.24895
-43.508107
17.060715
80.202825
145.63181
213.03449
282.07647
352.40828
423.67159
495.50551
567.55248
639.46387
710.9049
781.55885
851.13053
919.34891
985.96896
1050.7727
1113.5697
1174.1966
1232.5166
1288.4181
1341.813
1392.6355
1440.8392
1486.3959
1529.2929
1569.5312
1607.1234
1642.0917
1674.4663
1704.2837
1731.5844
1756.413
1778.8165
1798.8433
1816.5301
1831.8963
1844.9828
1855.9434
1864.6935
1870.8079
1873.3947
8.0022842
15.328494
22.866786
30.26382
37.429868
44.28858
50.773232
56.824245
62.386415
67.407085
71.835178
75.620808
78.715264
81.071167
82.642727
83.386086
83.259636
82.224412
80.244353
77.286571
73.32222
68.325982
62.276633
55.157792
46.958153
37.670891
27.294138
15.831392
3.2916458
-10.310273
-24.95351
-40.610809
-57.248222
-74.824856
-93.292519
-112.59555
-132.67053
-153.44624
-174.84355
-196.77556
-219.14778
-241.85845
-264.79919
-287.8555
-310.90774
-333.83206
-356.50152
-378.78732
-400.56004
-421.69101
-442.05344
-461.52365
-479.98204
-497.31376
-513.40925
-528.16429
-541.47978
-553.26104
-563.41727
-571.85897
-578.49749
-583.2424
-586.00122
-586.68092
-585.18138
-581.39009
-575.18651
-566.44212
-555.02138
-540.78365
-523.58631
-503.28863
-479.75602
-452.86499
-422.50858
-388.60206
-351.08848
-309.9437
-265.18084
-216.85359
-165.05852
-109.93593
-51.669445
9.5158956
73.356801
139.55609
207.78807
277.70459
348.94168
421.12629
493.88308
566.84081
639.63824
711.9294
783.38803
853.71113
922.62168
989.87046
1055.237
1118.5299
1179.5863
1238.2711
1294.4752
1348.1144
1399.1266
1447.4701
1493.1212
1536.0721
1576.3285
1613.9073
1648.835
1681.1453
1710.8775
1738.0745
1762.7824
1785.0481
1804.9171
1822.4233
1837.5899
1850.4594
1861.1471
1869.5008
1875.1637
1877.5031
8.245912
15.766301
23.462169
31.001171
38.307215
45.310131
51.945302
58.153234
63.877874
69.065335
73.663179
77.620069
80.885742
83.411165
85.148789
86.052901
86.079961
85.189017
83.342035
80.504071
76.644368
71.73569
65.754821
58.683609
50.50916
41.223233
30.822838
19.310393
6.6940352
-7.0120511
-21.787404
-37.604893
-54.430411
-72.222603
-90.932499
-110.50333
-130.87025
-151.96028
-173.69218
-195.97669
-218.7166
-241.80727
-265.13717
-288.58857
-312.03851
-335.35981
-358.42237
-381.09438
-403.2438
-424.73969
-445.45361
-465.26085
-484.04148
-501.68117
-518.07167
-533.11092
-546.70275
-558.75605
-569.18438
-577.90235
-584.82596
-589.86887
-592.94244
-593.95794
-592.81651
-589.4053
-583.60167
-575.27288
-564.27701
-550.46501
-533.68375
-513.78016
-490.60596
-464.02324
-433.91049
-400.16893
-362.72863
-321.55432
-276.65027
-228.0642
-175.88985
-120.26813
-61.386671
0.52217198
65.184748
132.29091
201.49987
272.44694
344.75069
418.02042
491.86351
565.89233
639.73066
713.01926
785.4206
856.62255
926.34115
994.32238
1060.3431
1124.2109
1185.7639
1244.8691
1301.421
1355.3397
1406.5681
1455.0701
1500.828
1543.8397
1584.1167
1621.6815
1656.5656
1688.8075
1718.4503
1745.5401
1770.1253
1792.2531
1811.9677
1829.302
1844.2809
1856.9428
1867.3758
1875.406
1880.7533
1882.9354
8.4536141
16.185256
24.072669
31.791618
39.274332
46.455903
53.274211
59.670451
65.5882
70.972632
75.77003
79.927535
83.393169
86.116013
88.04649
89.136737
89.340982
88.615982
86.921421
84.220047
80.478842
75.668479
69.763562
62.743946
54.594953
45.307
34.87588
23.302878
10.595259
-3.2334351
-18.163107
-34.166699
-51.209874
-69.250717
-88.239352
-108.11775
-128.81944
-150.26944
-172.38417
-195.07164
-218.23163
-241.75619
-265.53022
-289.43228
-313.33557
-337.10914
-360.61915
-383.73034
-406.30753
-428.21717
-449.32882
-469.51652
-488.65994
-506.64532
-523.36596
-538.72236
-552.62187
-564.97767
-575.70861
-584.73433
-591.97666
-597.35439
-600.78367
-602.1809
-601.44932
-598.47581
-593.13543
-585.29059
-574.79194
-561.48042
-545.19047
-525.75439
-503.00771
-476.79535
-446.9784
-413.44118
-376.09825
-334.90087
-289.84267
-240.96408
-188.35541
-132.15815
-72.564632
-9.8158902
55.802134
123.96387
194.31065
266.45808
340.00407
414.537
489.64383
564.91764
639.96459
714.40992
787.90296
860.121
930.77211
999.59684
1066.369
1130.8954
1193.0152
1252.5983
1309.5433
1363.7754
1415.2436
1463.9184
1509.7887
1552.8594
1593.1488
1630.6858
1665.5081
1697.6596
1727.1884
1754.1448
1778.5805
1800.5448
1820.0825
1837.2282
1852.0093
1864.46
1874.6535
1882.4164
1887.5317
1889.6053
8.7008415
16.663605
24.765311
32.688278
40.370991
47.753203
54.775413
61.37992
67.510366
73.111315
78.12795
82.50595
86.191583
89.131931
91.275219
92.571227
92.971708
92.430869
90.905828
88.356771
84.748073
80.0481
74.229032
67.268391
59.149421
49.860992
39.397491
27.758876
14.951381
0.98777176
-14.112335
-30.322037
-47.606814
-65.924199
-85.223383
-105.445
-126.52083
-148.37372
-170.9175
-194.05721
-217.68923
-241.7019
-265.97614
-290.38628
-314.80118
-339.08549
-363.10111
-386.70873
-409.76954
-432.14685
-453.70781
-474.32491
-493.87725
-512.25158
-529.34291
-545.05462
-559.29807
-571.99147
-583.05978
-592.42866
-600.02682
-605.77933
-609.60814
-611.43579
-611.16827
-608.69276
-603.88207
-596.59339
-586.66902
-573.93844
-558.2217
-539.33411
-517.09225
-491.32082
-461.86036
-428.57519
-391.36138
-350.15416
-304.9344
-255.73379
-202.63837
-145.79022
-85.387106
-21.680185
45.03018
114.40032
186.05054
259.57338
334.54252
410.52193
487.07473
563.77162
640.19837
715.96237
790.69793
864.07037
935.77882
1005.5579
1073.1783
1138.4463
1201.2026
1261.3206
1318.7041
1373.2844
1425.0178
1473.8824
1519.875
1563.0086
1603.3092
1640.8134
1675.5658
1707.6166
1737.0196
1763.8301
1788.1035
1809.8922
1829.2431
1846.1935
1860.7734
1873.0149
1882.9862
1890.5241
1895.4597
1897.4528
8.9495783
17.162342
25.504056
33.659643
41.57153
49.183269
56.437793
63.278617
69.64963
75.494899
80.758535
85.384687
89.317721
92.50251
94.884825
96.411803
97.032415
96.698004
95.362799
92.984138
89.523443
84.946542
79.222952
72.32756
64.241363
54.951624
44.45121
32.738665
19.819101
5.7044667
-9.5861351
-26.025967
-43.580308
-62.206097
-81.85151
-102.45573
-123.94863
-146.25066
-169.27284
-192.91686
-217.07539
-241.6326
-266.46494
-291.44197
-316.42762
-341.28158
-365.86082
-390.02141
-413.62025
-436.51705
-458.57609
-479.66797
-499.67105
-518.47262
-535.96957
-552.0686
-566.68575
-579.74512
-591.17883
-600.91984
-608.90507
-615.0673
-619.33564
-621.63991
-621.88978
-619.97321
-615.76084
-609.10417
-599.83615
-587.77321
-572.71881
-554.46864
-532.81718
-507.56558
-478.53022
-445.55188
-408.50482
-367.30527
-321.91895
-272.36709
-218.73059
-161.152
-99.835353
-35.043576
32.906159
103.64906
176.78089
251.86728
328.45374
406.07585
484.26918
562.57855
640.56634
717.81951
793.95535
868.62567
941.51974
1012.3657
1080.9311
1147.0219
1210.481
1271.1863
1329.0476
1384.0038
1436.0194
1485.0815
1531.1962
1574.3858
1614.6854
1652.1402
1686.803
1718.7314
1747.986
1774.628
1798.7178
1820.3117
1839.4602
1856.2043
1870.5768
1882.61
1892.373
1899.7151
1904.5039
1906.433
9.2273472
17.709138
26.310963
34.720604
42.883677
50.747131
58.256237
65.355819
71.99016
78.102934
83.637211
88.535556
92.740302
96.193916
98.839468
100.62116
101.48489
101.3788
100.25388
98.064343
94.768274
90.32869
84.712181
77.890684
69.842618
60.553411
50.014265
38.222103
25.180784
10.90134
-4.5977607
-21.290013
-39.140535
-58.105671
-78.132542
-99.158792
-121.11223
-143.91075
-167.46224
-191.66478
-216.40688
-241.56812
-267.01991
-292.62647
-318.24618
-343.73302
-368.93838
-393.71294
-417.90867
-441.381
-463.99078
-485.60631
-506.10491
-525.37432
-543.31348
-559.83275
-574.85351
-588.30665
-600.13263
-610.27302
-618.67443
-625.27902
-630.02482
-632.85028
-633.66982
-632.37326
-628.82941
-622.8838
-614.35908
-603.05699
-588.76209
-571.24749
-550.28217
-525.63982
-497.10865
-464.50186
-427.66806
-386.50106
-340.94868
-291.01967
-236.78865
-178.39858
-116.06058
-50.051186
19.292959
91.582547
166.38488
243.23442
321.64407
401.11667
481.15611
561.2776
641.01685
719.93772
797.63836
873.75564
947.96799
1019.9968
1089.6064
1156.6029
1220.8325
1282.1784
1340.5576
1395.9179
1448.2335
1497.5018
1543.7397
1586.9798
1627.2676
1664.6582
1699.2135
1730.9998
1760.0851
1786.5375
1810.4234
1831.8041
1850.7347
1867.2607
1881.4186
1893.2431
1902.8073
1909.9729
1914.6351
1916.5102
9.5209422
18.291566
27.175539
35.862874
44.30169
52.442012
60.23134
67.615823
74.540176
80.947695
86.780352
91.979001
96.483742
100.23438
103.17099
105.2345
106.36736
106.51418
105.62234
103.64256
100.52924
96.242261
90.745025
84.006212
76.001347
66.713939
56.133323
44.254733
31.080684
16.621187
0.89400743
-16.074631
-34.249706
-53.586957
-74.032397
-95.522035
-117.98148
-141.32585
-165.45964
-190.27695
-215.66176
-241.48853
-267.62309
-293.92369
-320.2424
-346.42681
-372.32192
-397.77223
-422.62402
-446.7277
-469.9401
-492.12668
-513.16344
-532.93846
-551.35286
-568.32115
-583.77077
-597.6405
-609.88039
-620.44233
-629.2843
-636.35992
-641.61836
-645.00793
-646.44921
-645.83525
-643.03339
-637.88299
-630.19545
-619.75605
-606.32795
-589.65839
-569.48698
-545.55561
-517.61974
-485.46035
-448.89598
-407.79415
-362.08149
-311.75196
-256.87264
-197.58669
-134.1133
-66.744656
4.1600707
78.183202
154.85911
233.68623
314.13988
395.68525
477.78993
559.93537
641.62702
722.40275
801.83934
879.55716
955.22297
1028.5511
1099.3029
1167.2855
1232.3491
1294.3835
1353.3146
1409.1004
1461.7265
1511.2022
1557.5565
1600.8342
1641.0923
1678.3972
1712.821
1744.4397
1773.3301
1799.5678
1823.2262
1844.3725
1863.0673
1879.3613
1893.2956
1904.9083
1914.2787
1921.2793
1925.8269
1927.6539
9.8366969
18.91435
28.09904
37.083693
45.818858
54.257584
62.34961
70.042456
77.28131
84.009072
90.166542
95.692703
100.5252
104.60089
107.85651
110.22938
111.65811
112.08335
111.44852
109.70045
106.7895
102.67203
97.307943
90.662395
82.707754
73.425227
62.801986
50.831619
37.515111
22.861326
6.8872074
-10.381391
-28.909356
-48.651842
-69.553725
-91.5493
-114.56184
-138.50347
-163.27504
-188.76632
-214.85628
-241.41377
-268.29841
-295.36177
-322.44887
-349.40004
-376.05299
-402.24516
-427.8162
-452.61068
-476.48062
-499.28804
-520.90715
-541.22618
-560.1485
-577.5932
-593.49452
-607.8003
-620.47163
-631.47258
-640.77453
-648.34482
-654.14624
-658.13882
-660.25148
-660.38196
-658.39691
-654.12951
-647.37902
-637.91246
-625.46882
-609.76586
-590.50941
-567.40463
-540.16894
-508.54577
-472.31853
-431.32384
-385.46341
-334.71366
-279.13254
-218.86317
-154.13389
-85.254829
-12.611148
63.346719
142.11514
223.15101
305.88645
389.74349
474.14826
558.54388
642.40165
725.2303
806.58293
886.06191
963.32151
1038.0688
1110.0628
1179.1123
1245.0728
1307.8422
1367.357
1423.5871
1476.5312
1526.2122
1572.673
1615.972
1656.1793
1693.3737
1727.6391
1759.0619
1787.7289
1813.7243
1837.1291
1858.0175
1876.4565
1892.5025
1906.2017
1917.5971
1926.7744
1933.6155
1938.0549
1939.837
10.172757
19.576254
29.080713
38.382815
47.435572
56.195155
64.613608
72.639872
80.219618
87.2953
93.806407
99.689845
104.88052
109.31201
112.91733
115.62975
117.38363
118.11525
117.76359
116.27118
113.584
109.65436
104.43844
97.89762
90.000984
80.726511
70.059247
57.991413
44.522194
29.659168
13.418346
-4.1748657
-23.085319
-43.267604
-64.665438
-87.211332
-110.82608
-135.41864
-160.88592
-187.11299
-213.97336
-241.32969
-269.03477
-296.93271
-324.86063
-352.65068
-380.13231
-407.13485
-433.49034
-459.03649
-483.61966
-507.09766
-529.34239
-550.24195
-569.70207
-587.64678
-604.01801
-618.77395
-631.8884
-643.33973
-653.11521
-661.19847
-667.56855
-672.20002
-675.03267
-675.97036
-674.88016
-671.58928
-665.88405
-657.51132
-646.18289
-631.58302
-613.37879
-591.23303
-564.81903
-533.83656
-498.02797
-457.1937
-411.20612
-360.02088
-303.68498
-242.34115
-176.22805
-105.67643
-31.101386
47.008851
128.10681
211.60159
296.87566
383.30167
470.25853
557.1459
643.39666
728.48704
811.94406
893.35051
972.34754
1048.635
1121.9703
1192.1649
1259.0812
1322.6273
1382.7517
1439.4385
1492.7015
1542.5792
1589.1299
1632.4275
1672.5569
1709.6105
1743.6853
1774.8796
1803.2906
1829.0123
1852.1345
1872.7388
1890.8993
1906.6785
1920.1288
1931.2984
1940.2794
1946.9619
1951.2956
1953.0339
10.526631
20.272263
30.112844
39.749822
49.138901
58.239615
67.006478
75.389949
83.336196
90.787142
97.680801
103.95175
109.53182
114.35092
118.33791
121.42157
123.53151
124.59918
124.55865
123.34767
120.90751
117.18589
112.13502
105.71226
97.882762
88.620927
77.90986
65.740069
52.108811
37.02225
20.495333
2.5528994
-16.769946
-37.42728
-59.361663
-82.503768
-106.77181
-132.07135
-158.2951
-185.32305
-213.02278
-241.25017
-269.85045
-298.65944
-327.50546
-356.21142
-384.59739
-412.48345
-439.69284
-466.05527
-491.41032
-515.61075
-538.52541
-560.04188
-580.06818
-598.53369
-615.38889
-630.60369
-644.16649
-656.07236
-666.32727
-674.9342
-681.89169
-687.19225
-690.78947
-692.59554
-692.47949
-690.26305
-685.7189
-678.57178
-668.50303
-655.15884
-638.16197
-617.12641
-591.67439
-561.45485
-526.16224
-485.55461
-439.46983
-387.83896
-330.69585
-268.18238
-200.54884
-128.14965
-51.434389
29.065112
112.75085
198.97692
287.06882
376.34274
466.12387
555.76274
644.64912
732.2231
817.98308
901.49083
982.37381
1060.325
1135.1009
1206.5175
1274.4458
1338.8059
1399.561
1456.7115
1510.2883
1560.3478
1606.966
1650.2337
1690.2523
1727.1296
1760.9767
1791.9049
1820.0233
1845.4364
1868.2434
1888.5342
1906.3905
1921.8817
1935.0665
1945.9987
1954.7768
1961.298
1965.5253
1967.2199
10.900244
21.004146
31.19642
41.184922
50.928468
60.39033
69.52773
78.292774
86.632128
94.487082
101.79396
108.48468
114.48765
119.72862
124.13182
127.621
130.12052
131.55641
131.85738
130.95584
128.78799
125.29637
120.42898
114.13878
106.38646
97.142554
86.388139
74.111924
60.309084
44.984224
28.151119
9.8339125
-9.9324277
-31.101526
-53.614808
-77.401076
-102.37585
-128.44116
-155.48518
-183.38249
-211.99422
-241.16886
-270.74329
-300.5442
-330.39006
-360.09341
-389.4637
-418.31044
-446.4467
-473.69291
-499.88063
-524.8564
-548.48525
-570.65364
-591.27177
-610.27474
-627.62247
-643.29814
-657.30683
-669.66305
-680.39473
-689.5278
-697.08427
-703.0785
-707.48137
-710.21621
-711.15599
-710.11779
-706.86014
-701.08363
-692.43554
-680.51895
-664.90591
-645.15418
-620.82686
-591.5138
-556.85355
-516.55448
-470.41391
-418.33382
-360.33228
-296.5497
-227.24954
-152.81336
-73.730475
9.4169517
95.972659
185.22741
276.44135
368.86617
461.76597
554.43581
646.21719
736.51018
824.78195
910.57183
993.49326
1073.2329
1149.5477
1222.2601
1291.2517
1356.4575
1417.8576
1475.4714
1529.3496
1579.5686
1626.2242
1669.4265
1709.2947
1745.9538
1779.5304
1810.15
1837.9345
1862.9999
1885.4552
1905.3998
1922.9232
1938.1024
1951.0022
1961.6826
1970.2483
1976.6024
1980.7204
1982.3703
11.288152
21.763391
32.320222
42.674461
52.788509
62.629858
72.158755
81.329107
90.088086
98.376211
106.12785
113.27191
119.73288
125.43187
130.28791
134.21913
137.14404
138.98271
139.65787
139.09612
137.22808
133.99059
129.32711
123.18585
115.5226
106.30353
95.507561
83.121586
69.138448
53.561053
36.401915
17.684297
-2.5570939
-24.275527
-47.411345
-71.89147
-97.628666
-124.52122
-152.45258
-181.29146
-210.89206
-241.09481
-271.72746
-302.60659
-333.53969
-364.32768
-394.768
-424.65809
-453.79933
-482.00125
-509.08596
-534.89247
-559.28082
-582.13569
-603.36914
-622.92226
-640.7653
-656.89636
-671.33951
-684.1318
-695.32683
-704.97773
-713.13472
-719.83868
-725.08209
-728.80304
-730.88103
-731.1298
-729.29345
-725.04634
-717.99782
-707.70216
-693.67342
-675.40461
-652.39037
-624.15183
-590.26226
-550.37186
-504.23021
-451.70492
-392.7951
-327.63897
-256.51481
-179.83534
-98.135795
-12.056407
77.679305
170.28919
264.95835
360.86478
457.20319
553.20607
648.16096
741.42376
832.42773
920.68847
1005.8053
1087.4596
1165.4104
1239.4887
1309.59
1375.6665
1437.7186
1495.7874
1549.9463
1600.2943
1646.9495
1690.043
1729.7142
1766.1066
1799.3638
1829.6266
1857.0308
1881.7046
1903.7681
1923.3301
1940.4887
1955.3285
1967.9212
1978.3327
1986.6735
1992.8523
1996.8563
1998.4595
11.692289
22.550621
33.482905
44.215245
54.714315
64.952439
74.893279
84.492735
93.698481
102.4501
110.67967
118.31266
125.2691
131.46487
136.81313
141.22576
144.61476
146.89358
147.97839
147.78932
146.25097
143.2939
138.85658
132.88221
125.32122
116.13485
105.29975
92.800906
78.628709
62.784249
45.278677
26.134167
5.3850206
-16.921801
-40.725642
-65.951573
-92.509542
-120.29397
-149.18331
-179.04006
-209.71095
-241.02766
-272.80798
-304.85732
-336.97099
-368.93689
-400.53889
-431.5607
-461.7902
-491.02429
-519.07384
-545.76874
-570.96273
-594.53772
-616.40715
-636.51826
-654.85258
-671.4248
-686.28061
-699.48306
-711.11568
-721.26379
-730.01143
-737.43157
-743.54344
-748.30438
-751.60378
-753.25392
-752.9845
-750.4416
-745.19238
-736.73594
-724.52007
-707.96321
-686.48069
-659.5137
-626.55925
-587.19936
-541.12745
-488.17041
-428.30464
-361.6652
-288.54713
-209.399
-124.80903
-35.484675
57.772864
154.09737
252.58776
352.33777
452.46328
552.12625
650.55405
747.05395
841.0226
931.95077
1019.4239
1103.1195
1182.801
1258.3109
1329.5615
1396.526
1459.2283
1517.7346
1572.1441
1622.5813
1669.1891
1712.122
1751.5416
1787.6114
1820.4935
1850.3454
1877.3175
1901.5513
1923.1783
1942.3175
1959.0759
1973.546
1985.8067
1995.9293
2004.0303
2010.0234
2013.9069
2015.4611
12.106696
23.356205
34.671608
45.791608
56.687898
67.33835
77.710502
87.762459
97.442385
106.68869
115.43081
123.59022
131.08188
137.81574
143.69839
148.63471
152.52945
155.28874
156.82152
157.04082
155.86467
153.2168
149.0302
143.24268
135.79899
126.65508
115.78476
103.17083
88.801564
72.676031
54.803787
35.205724
13.915546
-9.0197222
-33.538554
-59.56423
-87.003877
-115.74794
-145.66964
-176.62489
-208.45243
-240.9745
-273.998
-307.31608
-340.71054
-373.95473
-406.81721
-439.06605
-470.47364
-500.82213
-529.9091
-557.55341
-583.60083
-607.92922
-630.45271
-651.12468
-669.93872
-686.92799
-702.16254
-715.7354
-727.76483
-738.37423
-747.68803
-755.81801
-762.81638
-768.66533
-773.26849
-776.43926
-777.89342
-777.24677
-774.01969
-767.64895
-757.50658
-742.92512
-723.22798
-697.76326
-665.93887
-627.25681
-581.34438
-527.98025
-467.11361
-398.87514
-323.5788
-241.71448
-153.93173
-61.01582
36.142113
136.57881
239.29412
343.28532
447.57879
551.25703
653.48039
753.5028
850.68161
944.48191
1034.4761
1120.3395
1201.8431
1278.8442
1351.2761
1419.1365
1482.4772
1541.3931
1596.0126
1646.4889
1692.9924
1735.7036
1774.8082
1810.4915
1842.9357
1872.316
1898.7986
1922.5387
1943.6801
1962.3523
1978.6716
1992.7386
2004.6393
2014.4508
2022.2948
2028.0897
2031.8452
2033.3472
12.531755
24.177783
35.880731
47.395008
58.698301
69.774891
80.596727
91.124358
101.30639
111.0798
120.37088
129.0965
137.16583
144.48211
150.94452
156.45011
160.89557
164.17894
166.20115
166.8675
166.08881
163.78144
159.87227
154.29329
146.98351
137.89369
126.99303
114.26196
99.687764
83.267046
65.007534
44.928578
23.063055
-0.54215048
-25.824822
-52.706563
-81.091707
-110.86666
-141.8992
-174.03835
-207.11429
-240.93913
-275.30793
-310.0004
-344.78339
-379.41402
-413.64364
-447.2225
-479.90522
-511.45679
-541.6591
-570.31766
-597.26823
-622.38299
-645.57576
-666.8058
-686.07951
-703.45038
-719.01583
-732.9033
-745.2713
-756.28807
-766.12627
-774.94437
-782.8352
-789.81264
-795.80003
-800.61549
-803.96187
-805.42286
-804.46709
-800.46096
-792.68989
-780.38741
-762.77031
-739.07824
-708.61484
-670.7882
-625.14766
-571.41476
-509.50606
-439.54634
-361.871
-277.01757
-185.7067
-88.81402
12.665121
117.65526
225.04211
333.7126
442.5913
550.67129
657.03839
760.88822
861.53626
958.42144
1051.1043
1139.261
1222.6734
1301.2181
1374.8536
1443.6073
1507.5629
1566.8484
1621.6254
1672.0792
1718.4105
1760.8287
1799.5454
1834.77
1866.7057
1895.5468
1921.4761
1944.6636
1965.2655
1983.4225
1999.2601
2012.8875
2024.3975
2033.8729
2041.4406
2047.0233
2050.6418
2052.0881
12.961659
25.00492
37.095594
49.007096
60.724197
72.238575
83.527198
94.553302
105.26586
115.60004
125.47841
134.81253
143.50492
151.45117
158.54216
164.66616
169.7109
173.56547
176.12202
177.27736
176.93438
175.00171
171.39921
166.05284
158.89576
149.87335
138.94839
126.09929
111.31312
94.583588
75.916344
55.328924
32.853097
8.5353575
-17.561633
-45.357964
-74.75527
-105.6359
-137.86205
-171.27548
-205.69739
-240.92896
-276.75246
-312.93291
-349.22066
-385.35477
-421.06722
-456.08809
-490.15154
-523.00266
-554.40482
-584.14741
-612.05369
-637.98811
-661.86271
-683.64212
-703.34607
-721.05028
-736.88273
-751.01023
-763.63769
-774.98614
-785.28565
-794.75085
-803.52431
-811.66006
-819.10815
-825.69608
-831.11562
-834.91671
-836.51089
-835.18516
-830.12594
-820.45249
-805.25788
-783.6552
-754.82604
-718.0681
-672.83876
-618.79181
-555.80469
-483.99433
-403.72043
-315.57562
-220.36315
-119.0637
-12.793704
97.241387
209.79567
323.62956
437.55187
550.45505
661.34218
769.3454
873.73593
973.92663
1069.4683
1160.0411
1245.4427
1325.574
1400.4243
1470.0559
1534.5896
1594.1913
1649.06
1699.4167
1745.4961
1787.5387
1825.7845
1860.4687
1891.8171
1920.0442
1945.3503
1967.9205
1987.9243
2005.5134
2020.8233
2033.9711
2045.057
2054.1691
2061.4391
2066.7938
2070.2655
2071.6522
13.39484
25.831545
38.305365
50.612801
62.747058
74.708379
86.479441
98.026409
109.29848
120.22854
130.73475
140.72245
150.08653
158.71393
166.48612
173.28158
178.97808
183.45481
186.59427
188.28399
188.41818
186.89731
183.63333
178.54612
171.5626
162.6215
151.67911
138.71243
123.7078
106.65598
87.560372
66.436456
43.314511
18.240315
-8.7233137
-37.495197
-67.974426
-100.03933
-133.54643
-168.32998
-204.20167
-240.95106
-278.34662
-316.13735
-354.05548
-391.81998
-429.14111
-465.7261
-501.28569
-535.54184
-568.23609
-599.13848
-628.05668
-654.8448
-679.41122
-701.72494
-721.81933
-739.79415
-755.81129
-770.08245
-782.86585
-794.44451
-805.11669
-815.16442
-824.79099
-834.10099
-843.0799
-851.57082
-859.25725
-865.6541
-870.11017
-871.82289
-869.86545
-863.22519
-850.85137
-831.70934
-804.83758
-769.40393
-724.75721
-670.47077
-606.37508
-532.57686
-449.46334
-357.69097
-258.15919
-151.97111
-40.384163
75.245315
193.51935
313.05313
432.52376