/*--------------------------------*- C++ -*----------------------------------*\
| =========                 |                                                 |
| \\      /  F ield         | foam-extend: Open Source CFD                    |
|  \\    /   O peration     | Version:     4.1                                |
|   \\  /    A nd           | Web:         http://www.foam-extend.org         |
|    \\/     M anipulation  |                                                 |
\*---------------------------------------------------------------------------*/
FoamFile
{
    version     2.0;
    format      ascii;
    class       surfaceScalarField;
    location    "0.2";
    object      phi;
}
// * * * * * * * * * * * * * * * * * * * * * * * * * * * * * * * * * * * * * //

dimensions      [0 3 -1 0 0 0 0];

internalField   nonuniform List<scalar> 
32976
(
-0.23108058
-0.00013151971
-0.23099367
-8.6915703e-05
-0.23085437
-0.00013930063
-0.23066444
-0.00018992531
-0.23041741
-0.00024703605
-0.23011412
-0.00030328824
-0.22975711
-0.00035701311
-0.22935086
-0.00040624412
-0.22890131
-0.0004495466
-0.22841564
-0.0004856741
-0.22790207
-0.00051357066
-0.2273697
-0.00053237321
-0.22682832
-0.00054137503
-0.22628827
-0.0005400485
-0.22576028
-0.00052799566
-0.22525531
-0.00050496915
-0.22478449
-0.00047082283
-0.22435895
-0.00042554003
-0.22398974
-0.00036920457
-0.22368769
-0.00030205554
-0.22346317
-0.00022451606
-0.22332586
-0.00013730717
-0.22328424
-4.1625074e-05
-0.22334363
5.9389924e-05
-0.22350246
0.00015883714
-0.22375499
0.00025253055
-0.22409636
0.00034136467
-0.22452239
0.00042602675
-0.22502895
0.00050655944
-0.22561162
0.00058267461
-0.22626546
0.00065383651
-0.22698489
0.00071942876
-0.2277637
0.0007788192
-0.22859511
0.0008314045
-0.22947179
0.00087667713
-0.23038598
0.00091419716
-0.23132965
0.0009436613
-0.2322945
0.00096485415
-0.23327221
0.00097771398
-0.23425449
0.00098227276
-0.23523321
0.00097871938
-0.23620054
0.00096733347
-0.23714907
0.00094853602
-0.23807192
0.00092284191
-0.23896279
0.00089086907
-0.23981611
0.00085332082
-0.24062708
0.00081097186
-0.24139173
0.0007646543
-0.24210697
0.0007152367
-0.24277058
0.00066360896
-0.24338124
0.00061066121
-0.2439385
0.00055726435
-0.24444275
0.00050425007
-0.24489515
0.00045239305
-0.24529754
0.00040239105
-0.24565239
0.00035485126
-0.24596267
0.00031027615
-0.24623172
0.00026905349
-0.24646317
0.0002314494
-0.24666077
0.0001976056
-0.24682831
0.00016753842
-0.24696946
0.00014114662
-0.24708768
0.00011822248
-0.24718615
9.8471402e-05
-0.24726768
8.1522392e-05
-0.24733463
6.6950937e-05
-0.24738893
5.4305123e-05
-0.24743206
4.3130093e-05
-0.24746506
3.2993725e-05
-0.24748856
2.3505737e-05
-0.24750287
1.4312915e-05
-0.24750795
5.0789825e-06
-0.24750344
-4.5120795e-06
-0.24748872
-1.4719226e-05
-0.24746297
-2.575439e-05
-0.24742518
-3.7789007e-05
-0.24737426
-5.0919842e-05
-0.2473091
-6.5162973e-05
-0.24722864
-8.0456281e-05
-0.24713197
-9.6666149e-05
-0.24701838
-0.00011359755
-0.24688737
-0.00013100537
-0.24673876
-0.00014860755
-0.24657266
-0.00016609854
-0.2463895
-0.00018316279
-0.24619001
-0.00019948766
-0.24597524
-0.00021477502
-0.24574649
-0.00022875137
-0.24550531
-0.00024117598
-0.24525346
-0.00025184685
-0.24499286
-0.00026060491
-0.24472553
-0.00026733466
-0.24445356
-0.0002719648
-0.2441791
-0.00027446546
-0.24390425
-0.00027484469
-0.24363111
-0.00027314368
-0.24336168
-0.00026943133
-0.24309788
-0.00026379888
-0.24284152
-0.00025635309
-0.24259431
-0.00024721199
-0.24235781
-0.00023649922
-0.24213347
-0.00022433993
-0.24192262
-0.00021085712
-0.24172645
-0.00019616924
-0.24154606
-0.00018038727
-0.24138244
-0.0001636144
-0.2412365
-0.00014594478
-0.24110904
-0.00012746357
-0.24100079
-0.00010824723
-0.24091242
-8.836454e-05
-0.24084455
-6.7877684e-05
-0.2407977
-4.6844786e-05
-0.24077238
-2.532027e-05
-0.24076902
-3.3652201e-06
-0.24078792
1.890515e-05
-0.24082935
4.1431686e-05
-0.24089354
6.4183511e-05
-0.24098054
8.7006357e-05
-0.24109019
0.00010964753
-0.24122195
0.00013176057
-0.24137409
0.00015213892
-0.24154123
0.00016714037
-0.24172274
0.00018150642
0.00021271326
-0.26184582
-0.0004867757
-0.26141536
-0.00051738009
-0.26091294
-0.00064172053
-0.26034796
-0.00075490346
-0.2597284
-0.00086659469
-0.25906454
-0.00096715236
-0.2583669
-0.00105465
-0.25764619
-0.001126955
-0.2569129
-0.0011828404
-0.25617712
-0.0012214498
-0.25544846
-0.0012422281
-0.25473591
-0.0012449303
-0.25404776
-0.0012295202
-0.25339158
-0.0011962278
-0.25277413
-0.0011454439
-0.25220133
-0.0010777755
-0.25167821
-0.00099394041
-0.25120893
-0.00089482144
-0.25079675
-0.00078138068
-0.25044408
-0.00065472552
-0.25015252
-0.00051607232
-0.24992297
-0.00036685878
-0.24975576
-0.00020883405
-0.24965229
-4.4087437e-05
-0.24961845
0.00012500052
-0.24966093
0.00029501461
-0.24978225
0.00046267844
-0.24998213
0.00062590488
-0.25025845
0.00078288676
-0.25060776
0.00093197661
-0.25102552
0.0010715997
-0.25150638
0.0012002938
-0.25204426
0.0013166998
-0.25263244
0.0014195808
-0.25326367
0.001507907
-0.25393027
0.0015807988
-0.25462425
0.0016376416
-0.2553374
0.0016780018
-0.25606143
0.0017017417
-0.25678807
0.0017089167
-0.25750924
0.0016998858
-0.2582171
0.0016751966
-0.25890424
0.0016356738
-0.25956373
0.0015823347
-0.26018927
0.0015164045
-0.26077523
0.0014392833
-0.26131678
0.001352519
-0.2618099
0.0012577798
-0.26225148
0.0011568142
-0.26263929
0.0010514203
-0.26297204
0.00094340453
-0.26324931
0.00083454254
-0.2634716
0.00072653949
-0.2636402
0.00062099296
-0.26375717
0.00051935348
-0.26382521
0.00042289489
-0.26384762
0.00033268478
-0.26382813
0.00024956256
-0.2637708
0.00017412332
-0.2636799
0.00010670845
-0.26355977
4.7402089e-05
-0.26341467
-3.9527768e-06
-0.26324869
-4.7755108e-05
-0.26306562
-8.4600922e-05
-0.26286887
-0.00011522556
-0.26266143
-0.00014049181
-0.26244575
-0.00016136908
-0.26222374
-0.00017888573
-0.26199666
-0.00019408357
-0.26176518
-0.00020797652
-0.26152935
-0.00022151713
-0.26128871
-0.00023556068
-0.26104237
-0.00025084835
-0.26078909
-0.00026800189
-0.26052735
-0.00028749338
-0.26025551
-0.00030962534
-0.2599719
-0.00033453461
-0.25967487
-0.00036219563
-0.25936289
-0.00039243031
-0.25903464
-0.00042492127
-0.258689
-0.00045923333
-0.25832517
-0.00049483522
-0.25794265
-0.00053112535
-0.25754129
-0.00056745843
-0.25712129
-0.00060317146
-0.25668316
-0.00063760919
-0.25622779
-0.00067014674
-0.25575633
-0.0007002094
-0.25527022
-0.00072728868
-0.25477111
-0.00075095399
-0.25426086
-0.00077086164
-0.25374144
-0.00078675525
-0.25321493
-0.0007984683
-0.25268348
-0.00080591853
-0.25214922
-0.00080910148
-0.25161429
-0.00080808139
-0.25108074
-0.00080298043
-0.25055057
-0.00079396907
-0.25002567
-0.00078125135
-0.24950782
-0.00076505733
-0.24899869
-0.00074563123
-0.24849981
-0.00072322288
-0.24801259
-0.00069807985
-0.24753831
-0.00067044282
-0.24707816
-0.00064053804
-0.2466332
-0.00060857708
-0.24620439
-0.00057475335
-0.24579261
-0.00053924168
-0.24539866
-0.00050219826
-0.24502326
-0.00046376277
-0.24466708
-0.00042405828
-0.24433073
-0.00038319625
-0.24401477
-0.00034127996
-0.24371972
-0.00029841306
-0.24344613
-0.00025469172
-0.24319445
-0.0002102437
-0.24296502
-0.0001652516
-0.24275803
-0.00011998386
-0.24257354
-7.4841753e-05
-0.24241135
-3.0427471e-05
-0.24227081
1.1604818e-05
-0.24215175
4.8079851e-05
-0.24205167
8.1418265e-05
9.6497662e-05
-0.2637612
-0.0009828281
-0.26316616
-0.0011124233
-0.26252109
-0.0012867867
-0.26183414
-0.0014418503
-0.26111529
-0.0015854479
-0.260373
-0.0017094465
-0.25961585
-0.001811801
-0.25885254
-0.0018902578
-0.2580919
-0.0019434824
-0.25734271
-0.0019706459
-0.2566136
-0.0019713285
-0.25591295
-0.0019455812
-0.2552487
-0.0018937737
-0.25462824
-0.001816693
-0.2540583
-0.001715384
-0.25354484
-0.0015912355
-0.25309295
-0.0014458216
-0.2527068
-0.0012809757
-0.25238953
-0.001098654
-0.25214324
-0.00090100855
-0.25196902
-0.00069029548
-0.25186692
-0.00046895634
-0.25183618
-0.00023957521
-0.2518754
-4.8736283e-06
-0.25198282
0.0002324208
-0.25215696
0.00046915423
-0.25239613
0.00070184826
-0.25269762
0.00092740337
-0.25305787
0.0011431364
-0.25347257
0.0013466763
-0.2539368
0.0015358238
-0.2544451
0.0017085956
-0.25499159
0.0018631885
-0.25557
0.0019979905
-0.25617378
0.0021116901
-0.25679617
0.0022031873
-0.25743028
0.0022717506
-0.25806917
0.0023168977
-0.25870599
0.002338554
-0.25933398
0.0023369106
-0.25994667
0.0023125766
-0.2605379
0.0022664221
-0.26110192
0.0021996997
-0.26163352
0.002113928
-0.26212802
0.0020109132
-0.26258144
0.0018927018
-0.26299047
0.0017615432
-0.26335254
0.0016198497
-0.26366586
0.00147014
-0.26392944
0.0013149944
-0.26414303
0.0011569964
-0.26430716
0.00099867594
-0.26442308
0.00084245274
-0.26449267
0.00069058279
-0.26451841
0.00054510271
-0.26450331
0.00040778695
-0.26445073
0.00028010629
-0.26436436
0.00016319735
-0.26424808
5.7840341e-05
-0.26410582
-3.5553225e-05
-0.26394147
-0.00011694169
-0.26375879
-0.00018664165
-0.26356126
-0.0002452845
-0.26335206
-0.00029379388
-0.26313395
-0.00033334168
-0.26290915
-0.00036528553
-0.26267941
-0.00039111279
-0.26244591
-0.00041238229
-0.26220933
-0.00043066723
-0.26196981
-0.00044749893
-0.26172701
-0.00046431362
-0.26148017
-0.00048240265
-0.26122814
-0.00050287537
-0.26096951
-0.00052663051
-0.26070267
-0.00055433575
-0.26042588
-0.00058641164
-0.26013739
-0.00062302858
-0.25983547
-0.00066411224
-0.25951854
-0.00070935977
-0.25918521
-0.00075825953
-0.25883432
-0.00081012457
-0.25846503
-0.00086412501
-0.25807682
-0.00091932713
-0.25766955
-0.00097473342
-0.2572434
-0.0010293218
-0.25679892
-0.0010820838
-0.25633701
-0.0011320588
-0.25585886
-0.0011783635
-0.25536593
-0.0012202161
-0.25485993
-0.0012569539
-0.25434275
-0.0012880468
-0.2538164
-0.0013130976
-0.25328303
-0.0013318461
-0.25274478
-0.0013441602
-0.25220386
-0.0013500266
-0.2516624
-0.0013495367
-0.25112251
-0.0013428705
-0.2505862
-0.0013302822
-0.25005537
-0.0013120774
-0.24953183
-0.0012886023
-0.24901723
-0.0012602254
-0.24851313
-0.0012273244
-0.24802094
-0.0011902741
-0.24754194
-0.0011494397
-0.24707732
-0.0011051644
-0.24662812
-0.0010577699
-0.24619533
-0.0010075498
-0.2457798
-0.00095476956
-0.24538233
-0.00089966601
-0.24500364
-0.00084245048
-0.24464439
-0.00078330783
-0.24430519
-0.00072240419
-0.24398657
-0.00065989125
-0.24368907
-0.00059591504
-0.24341314
-0.00053062446
-0.24315918
-0.00046420264
-0.24292754
-0.00039689257
-0.24271848
-0.00032904384
-0.24253216
-0.00026116509
-0.24236852
-0.00019406056
-0.24222745
-0.0001294655
-0.24210965
-6.972119e-05
-0.242013
-1.523127e-05
1.9095006e-05
-0.26393141
-0.0015186242
-0.26331468
-0.001729154
-0.2626514
-0.0019500613
-0.26194814
-0.0021451126
-0.2612144
-0.0023191831
-0.2604582
-0.0024656524
-0.2596879
-0.0025821022
-0.25891207
-0.0026660897
-0.25813949
-0.0027160598
-0.25737901
-0.002731125
-0.25663941
-0.0027109266
-0.25592924
-0.0026557549
-0.25525667
-0.0025663428
-0.25462936
-0.0024440037
-0.25405433
-0.0022904136
-0.25353784
-0.0021077267
-0.2530853
-0.0018983595
-0.25270119
-0.0016650851
-0.252389
-0.0014108422
-0.25215119
-0.0011388175
-0.25198918
-0.00085230641
-0.25190335
-0.0005547903
-0.25189307
-0.0002498521
-0.25195677
5.8820885e-05
-0.25209194
0.00036759476
-0.25229552
0.00067273191
-0.25256409
0.00097042471
-0.25289381
0.0012571191
-0.25328024
0.0015295685
-0.25371842
0.0017848581
-0.2542029
0.0020203009
-0.25472783
0.0022335211
-0.25528704
0.0024224025
-0.25587414
0.0025850929
-0.25648258
0.002720131
-0.25710572
0.0028263215
-0.2577369
0.0029029279
-0.25836951
0.0029495131
-0.2589971
0.0029661394
-0.25961337
0.0029531851
-0.26021233
0.0029115382
-0.26078831
0.0028423987
-0.26133604
0.0027474335
-0.26185075
0.0026286325
-0.26232817
0.0024883384
-0.26276466
0.0023291897
-0.26315719
0.0021540765
-0.26350344
0.0019660919
-0.26380176
0.001768463
-0.26405126
0.0015644952
-0.26425176
0.0013574983
-0.2644038
0.0011507155
-0.2645086
0.00094724945
-0.26456801
0.00074999347
-0.26458446
0.00056155879
-0.2645609
0.0003842175
-0.26450064
0.00021984766
-0.26440733
6.9892692e-05
-0.26428482
-6.4670311e-05
-0.26413702
-0.00018335283
-0.26396781
-0.00028615627
-0.26378091
-0.00037354332
-0.26357979
-0.00044639811
-0.2633676
-0.00050598507
-0.26314705
-0.0005538912
-0.26292038
-0.0005919537
-0.26268931
-0.00062218319
-0.26245501
-0.00064668254
-0.26221811
-0.0006675701
-0.26197871
-0.00068690254
-0.26173642
-0.00070660368
-0.26149042
-0.0007284032
-0.2612395
-0.00075378825
-0.26098218
-0.00078395717
-0.26071672
-0.0008197898
-0.26044131
-0.00086182864
-0.26015406
-0.00091027566
-0.25985317
-0.0009650011
-0.25953696
-0.0010255666
-0.25920397
-0.0010912527
-0.25885299
-0.0011611043
-0.25848314
-0.0012339756
-0.25809388
-0.0013085825
-0.25768506
-0.0013835571
-0.25725688
-0.0014575012
-0.25680993
-0.0015290375
-0.25634513
-0.0015968559
-0.25586374
-0.0016597537
-0.25536729
-0.0017166677
-0.25485754
-0.0017666976
-0.25433647
-0.0018091249
-0.25380615
-0.0018434115
-0.25326879
-0.0018692061
-0.25272662
-0.001886332
-0.25218187
-0.001894773
-0.25163676
-0.0018946554
-0.2510934
-0.0018862251
-0.25055385
-0.0018698286
-0.25002005
-0.0018458814
-0.2494938
-0.0018148539
-0.24897678
-0.001777246
-0.24847053
-0.0017335697
-0.24797647
-0.0016843328
-0.24749588
-0.0016300293
-0.24702993
-0.001571123
-0.24657965
-0.0015080475
-0.246146
-0.0014411984
-0.24572984
-0.0013709321
-0.24533194
-0.0012975651
-0.24495301
-0.0012213787
-0.2445937
-0.0011426167
-0.24425461
-0.0010614964
-0.24393629
-0.00097821261
-0.24363925
-0.00089294799
-0.24336399
-0.00080588611
-0.24311095
-0.00071724096
-0.24288056
-0.00062728679
-0.2426732
-0.00053640873
-0.2424892
-0.00044515751
-0.24232886
-0.00035440727
-0.24219257
-0.0002657526
-0.24208123
-0.00018106347
-0.24199427
-0.000102191
-3.9722155e-05
-0.26407651
-0.0020735312
-0.26345301
-0.0023526584
-0.26278054
-0.0026225289
-0.26206621
-0.0028594489
-0.26131956
-0.0030658297
-0.2605491
-0.0032361118
-0.25976363
-0.003367568
-0.25897207
-0.0034576526
-0.25818348
-0.0035046499
-0.25740695
-0.0035076552
-0.25665148
-0.003466394
-0.25592583
-0.0033814125
-0.25523835
-0.0032538204
-0.25459688
-0.0030854733
-0.2540086
-0.0028786959
-0.25347989
-0.0026364291
-0.2530163
-0.0023619542
-0.25262238
-0.0020590053
-0.2523017
-0.0017315221
-0.25205678
-0.0013837365
-0.25188911
-0.0010199783
-0.25179916
-0.00064474017
-0.25178647
-0.00026254453
-0.25184969
0.00012204598
-0.25198664
0.00050453892
-0.25219434
0.00088043382
-0.25246919
0.0012452758
-0.25280697
0.0015949007
-0.25320288
0.0019254784
-0.25365161
0.0022335855
-0.2541474
0.0025160902
-0.25468414
0.0027702645
-0.25525545
0.0029937155
-0.25585474
0.0031843834
-0.2564753
0.003340689
-0.25711035
0.0034613695
-0.25775313
0.0035457088
-0.25839695
0.0035933362
-0.25903528
0.0036044665
-0.25966177
0.0035796751
-0.26027037
0.0035201339
-0.26085534
0.0034273722
-0.26141137
0.0033034684
-0.26193362
0.0031508784
-0.26241776
0.0029724762
-0.26286006
0.0027714892
-0.26325743
0.0025514485
-0.26360747
0.0023161327
-0.2639085
0.0020694878
-0.26415956
0.0018155604
-0.26436047
0.0015584086
-0.26451177
0.0013020147
-0.26461472
0.0010501946
-0.26467123
0.00080651041
-0.26468385
0.00057417976
-0.26465564
0.0003560022
-0.26459008
0.00015428963
-0.264491
-2.9185566e-05
-0.26436243
-0.00019324066
-0.26420848
-0.00033730277
-0.26403322
-0.00046141534
-0.26384057
-0.00056619384
-0.26363418
-0.00065279012
-0.26341733
-0.00072283407
-0.26319286
-0.00077835976
-0.2629631
-0.00082171612
-0.26272981
-0.0008554716
-0.26249418
-0.00088231083
-0.26225682
-0.00090493699
-0.26201775
-0.00092597233
-0.26177648
-0.00094786623
-0.26153207
-0.00097281421
-0.26128317
-0.0010026937
-0.26102812
-0.0010390075
-0.26076506
-0.0010828499
-0.260492
-0.0011348836
-0.26020694
-0.0011953361
-0.25990793
-0.0012640114
-0.25959318
-0.0013403206
-0.25926111
-0.0014233171
-0.25891046
-0.0015117563
-0.25854028
-0.0016041524
-0.25815002
-0.0016988463
-0.2577395
-0.0017940756
-0.25730896
-0.0018880422
-0.25685902
-0.0019789791
-0.25639067
-0.0020652086
-0.25590523
-0.0021451934
-0.25540432
-0.0022175777
-0.2548898
-0.0022812165
-0.25436372
-0.0023351992
-0.25382829
-0.0023788475
-0.25328577
-0.0024117225
-0.2527385
-0.0024336088
-0.25218877
-0.0024444962
-0.25163887
-0.002444556
-0.25109099
-0.002434111
-0.2505472
-0.0024136117
-0.25000949
-0.0023835953
-0.24947968
-0.0023446672
-0.24895945
-0.0022974693
-0.24845037
-0.002242657
-0.24795382
-0.0021808792
-0.24747108
-0.0021127654
-0.2470033
-0.0020389054
-0.2465515
-0.0019598491
-0.2461166
-0.0018760965
-0.24569944
-0.0017880964
-0.24530076
-0.0016962457
-0.24492124
-0.0016008948
-0.24456151
-0.0015023448
-0.24422215
-0.0014008606
-0.24390368
-0.0012966754
-0.24360663
-0.0011900025
-0.24333147
-0.0010810503
-0.24307866
-0.00097004917
-0.24284866
-0.0008572797
-0.24264195
-0.00074311953
-0.24245902
-0.00062809352
-0.24230042
-0.00051300505
-0.24216704
-0.0003991293
-0.24206024
-0.00028786464
-0.2419812
-0.00018123762
-8.5467646e-05
-0.26424362
-0.0026454762
-0.26360934
-0.0029869352
-0.26292532
-0.0033065526
-0.26219838
-0.0035863886
-0.26143753
-0.0038266824
-0.26065134
-0.0040223019
-0.25984881
-0.0041701016
-0.2590391
-0.0042673534
-0.25823161
-0.0043121457
-0.25743573
-0.0043035367
-0.25666079
-0.004241328
-0.25591588
-0.0041263232
-0.25520968
-0.0039600184
-0.25455033
-0.0037448284
-0.25394528
-0.0034837489
-0.25340117
-0.0031805336
-0.25292377
-0.0028393558
-0.25251784
-0.0024649397
-0.2521871
-0.0020622547
-0.25193423
-0.0016366097
-0.2517608
-0.001193408
-0.25166733
-0.0007382089
-0.25165332
-0.00027655129
-0.25171732
0.00018604181
-0.25185697
0.00064418403
-0.25206914
0.0010926077
-0.25235009
0.0015262213
-0.25269546
0.0019402757
-0.25310035
0.0023303705
-0.25355934
0.0026925711
-0.25406654
0.0030232907
-0.25461571
0.0033194362
-0.25520032
0.0035783254
-0.25581362
0.0037976799
-0.25644872
0.0039757938
-0.25709868
0.0041113301
-0.25775656
0.0042035881
-0.25841548
0.004252259
-0.25906873
0.0042577083
-0.25970976
0.0042207072
-0.26033234
0.0041427129
-0.26093055
0.0040255875
-0.26149891
0.0038718271
-0.2620324
0.003684364
-0.26252654
0.0034666175
-0.26297747
0.0032224226
-0.263382
0.0029559743
-0.26373763
0.002671765
-0.26404263
0.0023744912
-0.26429605
0.002068976
-0.2644977
0.0017600638
-0.2646482
0.0014525151
-0.26474891
0.0011508977
-0.26480188
0.00085947968
-0.26480982
0.00058211866
-0.26477598
0.00032217076
-0.2647041
8.2404707e-05
-0.26459822
-0.00013506664
-0.26446261
-0.00032884732
-0.26430162
-0.00049829323
-0.26411955
-0.00064348974
-0.26392052
-0.0007652242
-0.26370837
-0.00086494083
-0.26348653
-0.00094466626
-0.26325797
-0.0010069188
-0.26302509
-0.0010546
-0.26278968
-0.0010908777
-0.26255294
-0.001119058
-0.26231541
-0.0011424648
-0.26207706
-0.001164318
-0.26183731
-0.0011876214
-0.26159506
-0.0012150638
-0.26134881
-0.0012489388
-0.26109675
-0.0012910733
-0.26083681
-0.0013427868
-0.26056683
-0.0014048642
-0.26028461
-0.0014775523
-0.25998805
-0.0015605758
-0.25967519
-0.0016531759
-0.25934436
-0.0017541547
-0.25899416
-0.00186195
-0.25862361
-0.0019747054
-0.2582321
-0.0020903552
-0.25781947
-0.002206711
-0.25738596
-0.0023215456
-0.25693227
-0.002432675
-0.25645945
-0.0025380306
-0.25596892
-0.0026357218
-0.25546241
-0.0027240861
-0.2549419
-0.0028017253
-0.25440957
-0.0028675324
-0.25386772
-0.0029206895
-0.25331877
-0.0029606754
-0.25276514
-0.0029872441
-0.25220923
-0.0030004028
-0.25165341
-0.0030003805
-0.25109992
-0.0029875915
-0.25055093
-0.0029626049
-0.25000843
-0.002926094
-0.24947429
-0.0028788133
-0.2489502
-0.0028215592
-0.24843771
-0.0027551423
-0.24793823
-0.0026803616
-0.247453
-0.0025979907
-0.24698316
-0.0025087512
-0.24652969
-0.002413314
-0.2460935
-0.0023122863
-0.24567539
-0.0022062111
-0.24527607
-0.0020955653
-0.2448962
-0.0019807674
-0.24453637
-0.001862173
-0.24419714
-0.0017400909
-0.24387903
-0.0016147872
-0.24358253
-0.0014864987
-0.24330813
-0.0013554482
-0.24305631
-0.0012218713
-0.24282755
-0.0010860409
-0.24262236
-0.0009483103
-0.2424413
-0.0008091564
-0.24228503
-0.0006692751
-0.2421545
-0.00052964969
-0.24205106
-0.00039130923
-0.24197646
-0.00025584236
-0.000126473
-0.26446735
-0.0032310996
-0.26382058
-0.003633704
-0.26312147
-0.0040056606
-0.26237751
-0.0043303516
-0.26159758
-0.004606618
-0.26079057
-0.0048293046
-0.25996585
-0.0049948276
-0.25913296
-0.0051002351
-0.25830169
-0.0051434189
-0.25748182
-0.0051234069
-0.25668306
-0.0050400887
-0.25591484
-0.004894544
-0.25518618
-0.0046886786
-0.25450551
-0.0044254973
-0.25388056
-0.004108702
-0.25331819
-0.0037428989
-0.25282435
-0.0033331941
-0.25240395
-0.0028853412
-0.25206083
-0.0024053734
-0.25179774
-0.0018997027
-0.25161633
-0.0013748213
-0.25151718
-0.00083735983
-0.25149985
-0.00029387347
-0.25156296
0.00024914988
-0.2517042
0.00078541788
-0.25192043
0.0013088389
-0.2522078
0.0018135908
-0.25256179
0.0022942712
-0.2529773
0.0027458795
-0.25344869
0.0031639626
-0.25396988
0.0035444787
-0.25453442
0.0038839707
-0.25513556
0.0041794658
-0.25576634
0.004428463
-0.25641967
0.0046291247
-0.25708837
0.0047800328
-0.25776528
0.0048804961
-0.25844328
0.0049302622
-0.25911542
0.0049298438
-0.25977492
0.0048802058
-0.2604153
0.0047830922
-0.26103041
0.0046407019
-0.26161454
0.0044559577
-0.26216246
0.0042322807
-0.2626695
0.0039736535
-0.26313161
0.0036845418
-0.26354547
0.003369833
-0.26390848
0.0030347666
-0.26421881
0.0026848285
-0.2644755
0.0023256611
-0.26467837
0.0019629408
-0.26482811
0.0016022548
-0.26492619
0.0012489711
-0.26497482
0.00090811095
-0.26497692
0.00058421599
-0.26493598
0.00028123821
-0.26485601
2.4353848e-06
-0.26474136
-0.00024972051
-0.26459661
-0.00047360252
-0.26442641
-0.00066848819
-0.26423539
-0.00083451537
-0.26402794
-0.00097266703
-0.26380817
-0.001084711
-0.26357973
-0.0011731111
-0.26334573
-0.0012409178
-0.26310869
-0.0012916377
-0.26287047
-0.001329094
-0.26263226
-0.0013572712
-0.26239456
-0.0013801703
-0.26215721
-0.0014016606
-0.26191949
-0.001425345
-0.26168011
-0.0014544406
-0.26143737
-0.0014916814
-0.26118921
-0.0015392349
-0.26093334
-0.0015986539
-0.26066736
-0.0016708446
-0.26038885
-0.0017560638
-0.26009549
-0.0018539397
-0.25978514
-0.0019635189
-0.25945598
-0.002083322
-0.25910649
-0.0022114339
-0.25873561
-0.0023455899
-0.25834268
-0.0024832785
-0.25792755
-0.0026218466
-0.25749049
-0.0027586011
-0.25703226
-0.0028909079
-0.25655401
-0.0030162788
-0.25605729
-0.0031324467
-0.25554395
-0.0032374256
-0.25501612
-0.0033295528
-0.25447613
-0.0034075208
-0.25392645
-0.0034703733
-0.25336961
-0.0035175125
-0.25280818
-0.0035486732
-0.25224469
-0.0035638933
-0.2516816
-0.0035634762
-0.25112124
-0.0035479456
-0.25056584
-0.0035180074
-0.25001744
-0.0034744892
-0.24947794
-0.003418312
-0.24894906
-0.0033504425
-0.24843234
-0.0032718604
-0.24792918
-0.0031835274
-0.2474408
-0.0030863708
-0.2469683
-0.0029812521
-0.24651264
-0.0028689686
-0.24607469
-0.002750239
-0.2456552
-0.0026257015
-0.24525485
-0.0024959136
-0.24487426
-0.0023613599
-0.24451398
-0.0022224474
-0.24417455
-0.0020795235
-0.24385646
-0.0019328805
-0.24356019
-0.0017827688
-0.24328622
-0.0016294131
-0.24303506
-0.0014730368
-0.24280722
-0.0013138829
-0.24260327
-0.0011522523
-0.24242389
-0.00098853907
-0.24226987
-0.00082329283
-0.2421423
-0.00065722762
-0.24204253
-0.00049107556
-0.24197241
-0.00032595646
-0.00016328784
-0.26472394
-0.0038331344
-0.26406065
-0.0042969917
-0.2633433
-0.0047230186
-0.26257925
-0.0050943975
-0.26177722
-0.005408652
-0.26094627
-0.0056602502
-0.26009603
-0.0058450694
-0.25923642
-0.0059598402
-0.25837763
-0.0060022074
-0.2575299
-0.0059711388
-0.25670339
-0.0058665992
-0.25590799
-0.0056899479
-0.25515315
-0.0054435165
-0.25444772
-0.0051309287
-0.25379979
-0.0047566301
-0.25321656
-0.0043261256
-0.25270425
-0.0038455042
-0.25226799
-0.0033216036
-0.25191179
-0.0027615756
-0.2516385
-0.002172993
-0.25144983
-0.0015634941
-0.25134635
-0.00094083945
-0.25132756
-0.00031265735
-0.25139196
0.00031355205
-0.25153711
0.00093056609
-0.25175973
0.00153146
-0.25205581
0.0021096706
-0.25242068
0.0026591351
-0.25284905
0.0031742473
-0.25333511
0.0036500286
-0.25387261
0.0040819724
-0.25445488
0.0044662464
-0.25507499
0.0047995752
-0.25572575
0.0050792221
-0.25639983
0.0053032059
-0.25708981
0.0054700156
-0.25778828
0.0055789599
-0.25848785
0.0056298339
-0.2591813
0.0056232914
-0.25986158
0.005560488
-0.26052194
0.0054434548
-0.26115597
0.0052747323
-0.26175769
0.0050576796
-0.26232164
0.0047962215
-0.26284291
0.0044949254
-0.26331728
0.0041589145
-0.26374125
0.0037938025
-0.2641121
0.003405616
-0.26442795
0.0030006756
-0.26468778
0.0025854937
-0.26489147
0.0021666327
-0.26503978
0.0017505625
-0.26513431
0.001343508
-0.2651775
0.00095129767
-0.26517249
0.00057920723
-0.26512308
0.00023182789
-0.26503359
-8.7056201e-05
-0.26490872
-0.00037459252
-0.2647534
-0.00062892249
-0.26457265
-0.00084923657
-0.26437142
-0.0010357411
-0.26415445
-0.0011896389
-0.26392611
-0.0013130572
-0.26369028
-0.0014089429
-0.26345026
-0.0014809329
-0.2632087
-0.001533199
-0.26296751
-0.0015702818
-0.26272788
-0.0015969065
-0.26249023
-0.0016178111
-0.26225433
-0.0016375701
-0.26201923
-0.0016604358
-0.26178348
-0.0016901965
-0.2615451
-0.0017300612
-0.26130177
-0.0017825616
-0.26105093
-0.0018494952
-0.26078989
-0.00193189
-0.26051595
-0.0020300023
-0.26022654
-0.0021433426
-0.25991933
-0.0022707334
-0.25959228
-0.0024103766
-0.25924375
-0.0025599619
-0.25887257
-0.0027167703
-0.25847805
-0.0028777971
-0.25806002
-0.0030398778
-0.25761881
-0.003199809
-0.25715525
-0.0033544664
-0.25667062
-0.0035009081
-0.25616661
-0.0036364631
-0.25564523
-0.0037588017
-0.2551088
-0.0038659843
-0.25455982
-0.0039564981
-0.25400094
-0.0040292502
-0.25343488
-0.0040835751
-0.25286435
-0.0041192009
-0.25229203
-0.0041362141
-0.2517205
-0.0041350124
-0.25115219
-0.0041162505
-0.25058941
-0.0040807932
-0.25003425
-0.0040296444
-0.24948865
-0.0039639118
-0.24895434
-0.0038847515
-0.24843287
-0.0037933288
-0.24792562
-0.0036907822
-0.24743379
-0.0035782043
-0.24695843
-0.0034566056
-0.24650048
-0.0033269166
-0.24606075
-0.0031899714
-0.24563995
-0.0030465064
-0.2452387
-0.0028971597
-0.24485758
-0.0027424811
-0.2444971
-0.0025829261
-0.24415775
-0.002418877
-0.24383998
-0.0022506469
-0.24354426
-0.002078494
-0.24327103
-0.0019026364
-0.24302079
-0.0017232769
-0.24279406
-0.0015406182
-0.24259141
-0.0013548979
-0.24241354
-0.0011664136
-0.24226127
-0.00097555951
-0.24213569
-0.00078280685
-0.24203816
-0.00058861062
-0.24197048
-0.0003936306
-0.00019831951
-0.26503061
-0.0044511285
-0.26434899
-0.0049786093
-0.26361016
-0.0054618478
-0.26282204
-0.0058825181
-0.26199346
-0.0062372309
-0.26113384
-0.006519866
-0.2602532
-0.00672571
-0.25936194
-0.0068511065
-0.25847073
-0.0068934175
-0.25759034
-0.0068515308
-0.25673145
-0.0067254843
-0.25590447
-0.0065169302
-0.25511933
-0.0062286534
-0.25438532
-0.0058649366
-0.25371093
-0.0054310191
-0.2531037
-0.004933362
-0.2525701
-0.0043790975
-0.2521155
-0.0037762082
-0.25174405
-0.0031330217
-0.25145872
-0.0024583225
-0.25126128
-0.0017609388
-0.25115232
-0.0010497985
-0.25113134
-0.00033363564
-0.2511968
0.00037900541
-0.25134616
0.0010799334
-0.25157604
0.0017613401
-0.25188225
0.0024158721
-0.25225988
0.003036768
-0.25270342
0.0036177941
-0.25320683
0.0041534357
-0.25376358
0.0046387159
-0.25436675
0.0050694236
-0.25500915
0.0054419764
-0.25568333
0.0057533969
-0.25638168
0.0060015535
-0.2570965
0.0061848349
-0.25782008
0.006302542
-0.25854475
0.0063545098
-0.25926299
0.0063415279
-0.25996744
0.0062649384
-0.26065105
0.0061270595
-0.26130709
0.0059307764
-0.2619293
0.0056798932
-0.26251193
0.005378853
-0.26304984
0.0050328287
-0.26353855
0.0046476296
-0.26397438
0.0042296316
-0.26435446
0.0037856919
-0.2646768
0.0033230167
-0.26494035
0.0028490455
-0.26514501
0.0023712898
-0.26529161
0.0018971682
-0.26538194
0.0014338298
-0.26541862
0.00098797676
-0.26540509
0.00056568118
-0.26534549
0.0001722288
-0.26524452
-0.00018803014
-0.26510729
-0.00051182096
-0.26493917
-0.00079703564
-0.26474564
-0.0010427745
-0.26453205
-0.0012493274
-0.26430354
-0.0014181484
-0.26406483
-0.0015517691
-0.26382009
-0.0016536776
-0.26357286
-0.0017281649
-0.26332592
-0.0017801424
-0.26308125
-0.0018149467
-0.26284004
-0.0018381225
-0.26260263
-0.0018552202
-0.26236861
-0.0018715894
-0.26213685
-0.0018921922
-0.26190561
-0.0019214378
-0.26167263
-0.0019630478
-0.26143524
-0.0020199425
-0.26119056
-0.0020941765
-0.26093556
-0.0021868981
-0.26066721
-0.0022983489
-0.26038265
-0.0024278961
-0.26007929
-0.0025741022
-0.25975486
-0.002734806
-0.25940757
-0.0029072508
-0.25903613
-0.0030882084
-0.2586398
-0.0032741244
-0.25821841
-0.0034612669
-0.25777235
-0.0036458697
-0.25730255
-0.0038242711
-0.25681042
-0.0039930346
-0.25629783
-0.0041490531
-0.255767
-0.0042896298
-0.25522045
-0.0044125343
-0.25466091
-0.0045160429
-0.25409123
-0.00459893
-0.25351433
-0.004660472
-0.25293313
-0.0047004076
-0.25235045
-0.0047188926
-0.25176902
-0.0047164432
-0.2511914
-0.0046938711
-0.25061996
-0.0046522269
-0.25005689
-0.0045927162
-0.24950414
-0.004516658
-0.24896348
-0.0044254197
-0.24843643
-0.0043203717
-0.24792437
-0.0042028459
-0.24742846
-0.0040741134
-0.24694972
-0.003935344
-0.24648903
-0.0037876088
-0.24604714
-0.0036318619
-0.24562471
-0.0034689399
-0.2452223
-0.0032995614
-0.24484045
-0.003124339
-0.2444796
-0.0029437727
-0.2441402
-0.002758274
-0.24382268
-0.0025681694
-0.24352746
-0.0023737158
-0.24325498
-0.0021751149
-0.24300572
-0.0019725374
-0.2427802
-0.0017661348
-0.24257903
-0.0015560719
-0.2424029
-0.0013425454
-0.24225265
-0.0011258041
-0.24212934
-0.00090612227
-0.24203421
-0.00068373637
-0.24196887
-0.00045896614
-0.00023174448
-0.26537538
-0.0050883867
-0.2646719
-0.0056820897
-0.26390838
-0.006225371
-0.26309276
-0.0066981315
-0.26223402
-0.0070959768
-0.26134187
-0.0074120156
-0.26042673
-0.0076408426
-0.25949952
-0.0077783238
-0.25857146
-0.0078214766
-0.25765392
-0.0077690708
-0.2567582
-0.007621201
-0.25589531
-0.0073798187
-0.25507578
-0.0070481868
-0.25430942
-0.0066312907
-0.25360522
-0.00613522
-0.25297113
-0.0055674605
-0.25241396