/*--------------------------------*- C++ -*----------------------------------*\
| =========                 |                                                 |
| \\      /  F ield         | foam-extend: Open Source CFD                    |
|  \\    /   O peration     | Version:     4.1                                |
|   \\  /    A nd           | Web:         http://www.foam-extend.org         |
|    \\/     M anipulation  |                                                 |
\*---------------------------------------------------------------------------*/
FoamFile
{
    version     2.0;
    format      ascii;
    class       surfaceScalarField;
    location    "0.2";
    object      phi;
}
// * * * * * * * * * * * * * * * * * * * * * * * * * * * * * * * * * * * * * //

dimensions      [0 3 -1 0 0 0 0];

internalField   nonuniform List<scalar> 
32976
(
-0.22739069
0.00013800888
-0.22754802
0.00015732732
-0.22769322
0.0001451989
-0.22782114
0.00012791935
-0.22793054
0.00010940607
-0.22802203
9.1490665e-05
-0.22809708
7.504356e-05
-0.22815767
6.0594258e-05
-0.22820619
4.8519317e-05
-0.22824532
3.9130478e-05
-0.22827799
3.2669884e-05
-0.22830732
2.9323184e-05
-0.22833657
2.9250271e-05
-0.22836914
3.2570171e-05
-0.2284085
3.9359389e-05
-0.22845815
4.9657362e-05
-0.22852161
6.346037e-05
-0.22860234
8.072391e-05
-0.2287037
0.00010135981
-0.22882894
0.00012523821
-0.22898112
0.00015218306
-0.22916312
0.00018199758
-0.22937757
0.00021445006
-0.22962683
0.00024925947
-0.22991293
0.0002861003
-0.23023755
0.00032462848
-0.23060202
0.00036446227
-0.23100722
0.00040520687
-0.23145366
0.0004464363
-0.23194138
0.00048772277
-0.23247
0.00052861465
-0.23303867
0.00056866903
-0.23364611
0.0006074398
-0.23429058
0.00064447932
-0.23496996
0.00067937038
-0.23568165
0.00071169372
-0.23642273
0.000741076
-0.23718988
0.00076715062
-0.23797949
0.00078960961
-0.23878764
0.00080815961
-0.23961022
0.0008225766
-0.24044288
0.0008326587
-0.24128116
0.00083827522
-0.24212049
0.00083933602
-0.2429563
0.00083580927
-0.24378402
0.00082771731
-0.24459915
0.00081513659
-0.24539735
0.00079819814
-0.24617443
0.00077708194
-0.24692645
0.00075201708
-0.24764973
0.00072327592
-0.2483409
0.0006911693
-0.24899694
0.00065604031
-0.2496152
0.00061825897
-0.25019341
0.0005782121
-0.25072971
0.00053629813
-0.25122262
0.0004929178
-0.25167109
0.00044846606
-0.25207441
0.00040332414
-0.25243227
0.0003578528
-0.25274465
0.00031238344
-0.25301187
0.00026722007
-0.2532345
0.00022262889
-0.25341333
0.00017883469
-0.25354934
0.00013600576
-0.25364361
9.426593e-05
-0.25369731
5.3704501e-05
-0.25371169
1.4380496e-05
-0.25368786
-2.3831002e-05
-0.25362611
-6.1749652e-05
-0.25352649
-9.9622988e-05
-0.25338979
-0.00013669939
-0.25321727
-0.00017252222
-0.25301037
-0.00020689487
-0.25277066
-0.00023971372
-0.25249975
-0.00027090575
-0.25219935
-0.00030040331
-0.25187122
-0.00032812995
-0.25151722
-0.00035399452
-0.25113933
-0.00037788805
-0.25073965
-0.00039968748
-0.25032039
-0.00041925853
-0.24988393
-0.00043646205
-0.24943277
-0.00045116089
-0.24896954
-0.00046322703
-0.24849699
-0.00047254894
-0.24801795
-0.00047903812
-0.24753532
-0.00048263478
-0.247052
-0.00048331237
-0.24657092
-0.00048108042
-0.24609494
-0.00047598682
-0.24562682
-0.00046811572
-0.24516923
-0.00045758798
-0.24472468
-0.00044455702
-0.24429547
-0.00042920496
-0.24388373
-0.00041173761
-0.24349136
-0.00039237871
-0.24311999
-0.00037136482
-0.24277105
-0.00034893766
-0.24244571
-0.00032534009
-0.2421449
-0.00030080974
-0.24186933
-0.00027557435
-0.24161948
-0.0002498475
-0.24139566
-0.00022382556
-0.24119797
-0.00019768397
-0.24102639
-0.00017157654
-0.24088076
-0.00014563372
-0.2407608
-0.00011996245
-0.24066615
-9.4647202e-05
-0.2405964
-6.9749199e-05
-0.24055109
-4.5308383e-05
-0.24052973
-2.1361452e-05
-0.24053174
2.0094784e-06
-0.24055654
2.4799044e-05
-0.24060364
4.7097736e-05
-0.24067258
6.8937479e-05
-0.24076288
9.0305426e-05
-0.24087404
0.0001111587
-0.24100531
0.00013126662
-0.24115511
0.00014980393
-0.24132064
0.00016552485
-0.24150357
0.00018293634
-0.24170854
0.00020496642
0.00022691155
-0.25855471
0.00012364799
-0.25851738
0.0001199937
-0.25846407
9.1886798e-05
-0.25839356
5.7413317e-05
-0.25830569
2.1534497e-05
-0.25820107
-1.3126383e-05
-0.25808094
-4.5086418e-05
-0.25794697
-7.3375189e-05
-0.25780116
-9.7295127e-05
-0.25764571
-0.0001163233
-0.25748307
-0.00012996833
-0.25731596
-0.00013778613
-0.25714727
-0.00013944019
-0.25698004
-0.00013466168
-0.25681743
-0.00012324929
-0.25666268
-0.0001050912
-0.25651907
-8.0148644e-05
-0.25638988
-4.8468132e-05
-0.25627834
-1.017637e-05
-0.25618762
3.4514218e-05
-0.25612074
8.5307081e-05
-0.25608052
0.00014177182
-0.25606945
0.00020338073
-0.25608979
0.00026960616
-0.25614355
0.00033986097
-0.25623242
0.00041349346
-0.25635774
0.00048978682
-0.25652052
0.00056798247
-0.25672135
0.00064726593
-0.25696043
0.0007268061
-0.25723755
0.00080572941
-0.25755205
0.00088316918
-0.25790286
0.00095825018
-0.25828847
0.0010300941
-0.25870697
0.0010978713
-0.25915603
0.0011607517
-0.25963294
0.0012179842
-0.26013462
0.0012688353
-0.26065769
0.0013126756
-0.26119844
0.0013489098
-0.26175293
0.0013770688
-0.26231701
0.0013967328
-0.26288635
0.0014076153
-0.26345652
0.0014095123
-0.26402305
0.0014023338
-0.26458143
0.0013860976
-0.26512722
0.0013609297
-0.26565609
0.0013270654
-0.26616385
0.00128484
-0.26664652
0.0012346882
-0.26710038
0.0011771341
-0.26752199
0.0011127817
-0.26790825
0.0010423029
-0.26825642
0.00096642696
-0.26856413
0.00088592128
-0.26882941
0.00080158034
-0.2690507
0.00071420742
-0.26922683
0.00062459848
-0.26935703
0.00053352623
-0.26944091
0.00044172536
-0.2694784
0.00034987591
-0.26946979
0.00025860815
-0.26941565
0.00016849033
-0.26931681
7.9993147e-05
-0.26917429
-6.5123227e-06
-0.26898929
-9.0735435e-05
-0.26876308
-0.00017250115
-0.26849699
-0.00025171534
-0.26819248
-0.00032833607
-0.26785204
-0.00040219409
-0.26747842
-0.0004732401
-0.26707348
-0.0005416351
-0.26663859
-0.00060741359
-0.26617493
-0.00067055655
-0.26568362
-0.0007310242
-0.26516578
-0.00078874918
-0.26462255
-0.00084362845
-0.26405516
-0.00089551732
-0.26346493
-0.00094422993
-0.26285328
-0.0009895376
-0.26222179
-0.0010311804
-0.26157217
-0.0010688735
-0.26090631
-0.0011023205
-0.26022625
-0.0011312277
-0.25953415
-0.0011553179
-0.25883236
-0.0011743452
-0.25812329
-0.001188108
-0.25740946
-0.0011964601
-0.25669345
-0.0011993199
-0.25597786
-0.0011966758
-0.25526525
-0.0011885916
-0.25455817
-0.0011752014
-0.25385905
-0.0011567118
-0.25317021
-0.0011333935
-0.25249384
-0.0011055739
-0.25183195
-0.0010736282
-0.25118636
-0.0010379676
-0.25055869
-0.00099903076
-0.24995036
-0.00095726765
-0.24936257
-0.00091313303
-0.24879631
-0.00086707384
-0.24825236
-0.00081952022
-0.24773133
-0.00077087713
-0.24723364
-0.00072151912
-0.24675954
-0.00067178185
-0.24630916
-0.00062196161
-0.24588248
-0.0005723114
-0.2454794
-0.00052304044
-0.24509973
-0.00047431479
-0.24474322
-0.00042625829
-0.24440957
-0.00037895707
-0.24409847
-0.00033246954
-0.24380965
-0.00028680515
-0.24354289
-0.00024196611
-0.24329782
-0.00019797184
-0.24307404
-0.00015483668
-0.24287116
-0.00011257581
-0.24268874
-7.1261259e-05
-0.24252618
-3.129123e-05
-0.2423826
6.2191584e-06
-0.2422574
4.0331007e-05
-0.24215398
7.9507439e-05
-0.24206086
0.00011185129
0.00010150082
-0.26117498
2.0210824e-05
-0.26103639
-1.8594797e-05
-0.26088011
-6.4393502e-05
-0.26071067
-0.00011202817
-0.26053045
-0.00015868824
-0.26034134
-0.00020223694
-0.26014526
-0.00024116248
-0.2599443
-0.00027434021
-0.25974072
-0.00030087747
-0.259537
-0.00032004137
-0.25933573
-0.00033123526
-0.25913953
-0.00033399121
-0.25895104
-0.00032792143
-0.25877295
-0.00031275555
-0.25860788
-0.00028831841
-0.25845842
-0.00025455008
-0.25832708
-0.00021149029
-0.25821625
-0.00015929674
-0.2581282
-9.8230662e-05
-0.25806501
-2.8676784e-05
-0.25802858
4.8881009e-05
-0.25802069
0.00013388154
-0.25804297
0.00022566122
-0.2580968
0.00032343833
-0.25818328
0.00042634025
-0.25830321
0.00053342531
-0.25845709
0.00064366651
-0.2586451
0.00075599008
-0.25886709
0.00086925103
-0.25912257
0.00098228833
-0.25941073
0.0010938876
-0.25973041
0.0012028479
-0.26008012
0.0013079603
-0.26045804
0.0014080153
-0.26086204
0.0015018724
-0.26128968
0.0015883935
-0.26173825
0.0016665505
-0.26220475
0.0017353417
-0.26268599
0.0017939101
-0.26317853
0.0018414473
-0.26367878
0.0018773204
-0.26418301
0.0019009666
-0.2646874
0.0019120087
-0.26518808
0.0019101856
-0.26568114
0.0018953966
-0.26616273
0.0018676925
-0.26662908
0.0018272764
-0.26707652
0.0017745061
-0.26750156
0.0017098802
-0.26790091
0.0016340386
-0.26827153
0.001547747
-0.26861063
0.0014518841
-0.26891575
0.0013474248
-0.26918475
0.0012354237
-0.26941581
0.0011169886
-0.2696075
0.00099326389
-0.26975869
0.0008654041
-0.26986865
0.00073455032
-0.26993693
0.00060180756
-0.26996342
0.00046822129
-0.2699483
0.00033475541
-0.26989201
0.00020231623
-0.26979522
7.1698644e-05
-0.26965876
-5.6463791e-05
-0.26948361
-0.00018166287
-0.26927085
-0.00030349987
-0.26902165
-0.0004216992
-0.26873725
-0.00053611201
-0.26841891
-0.00064667635
-0.26806777
-0.0007533392
-0.26768488
-0.00085613029
-0.26727135
-0.00095515923
-0.26682827
-0.0010504929
-0.26635669
-0.0011421419
-0.26585764
-0.0012300729
-0.26533219
-0.0013141991
-0.26478145
-0.0013943707
-0.2642066
-0.0014703688
-0.26360892
-0.0015419082
-0.26298982
-0.0016086354
-0.26235085
-0.0016701475
-0.26169372
-0.0017260027
-0.2610203
-0.0017757399
-0.26033263
-0.0018189012
-0.25963289
-0.0018550529
-0.25892343
-0.0018838079
-0.25820669
-0.0019048454
-0.25748523
-0.0019179278
-0.25676163
-0.0019229148
-0.25603854
-0.0019197712
-0.25531855
-0.0019085758
-0.25460424
-0.001889513
-0.25389808
-0.0018628765
-0.25320241
-0.0018290568
-0.25251946
-0.0017885304
-0.25185124
-0.0017418454
-0.2511996
-0.0016896051
-0.25056618
-0.0016324549
-0.24995239
-0.0015710575
-0.24935944
-0.0015060841
-0.24878831
-0.0014381952
-0.24823981
-0.001368027
-0.24771451
-0.0012961793
-0.24721282
-0.0012232076
-0.24673499
-0.00114961
-0.24628112
-0.0010758271
-0.2458512
-0.0010022353
-0.24544509
-0.00092914651
-0.2450626
-0.00085680812
-0.24470345
-0.00078540723
-0.24436734
-0.00071507278
-0.24405392
-0.0006458845
-0.24376285
-0.00057787414
-0.24349377
-0.00051105115
-0.24324632
-0.00044541901
-0.24302018
-0.00038097763
-0.24281502
-0.0003177342
-0.24263049
-0.00025579576
-0.24246614
-0.00019563856
-0.24232172
-0.00013819814
-0.24219768
-8.3708032e-05
-0.24209625
-2.1919981e-05
-0.2420068
2.2395864e-05
3.0301884e-05
-0.26137091
-0.00010963836
-0.26121611
-0.00017339677
-0.26104468
-0.00023582271
-0.26086057
-0.00029613272
-0.26066647
-0.00035278888
-0.26046458
-0.0004041324
-0.260257
-0.00044873844
-0.26004591
-0.0004854308
-0.25983358
-0.00051320773
-0.25962238
-0.00053124217
-0.25941478
-0.00053883931
-0.25921331
-0.00053545424
-0.25902059
-0.00052065053
-0.2588392
-0.00049414085
-0.25867176
-0.00045575432
-0.25852084
-0.00040547248
-0.25838893
-0.00034340127
-0.25827843
-0.00026980084
-0.2581916
-0.00018505945
-0.25813056
-8.9717711e-05
-0.25809723
1.55534e-05
-0.25809332
0.00012997533
-0.25812031
0.00025264871
-0.25817942
0.00038254668
-0.25827161
0.00051852981
-0.25839754
0.00065935808
-0.25855757
0.00080369656
-0.25875174
0.00095015413
-0.25897974
0.0010972576
-0.25924097
0.0012435198
-0.25953448
0.0013873929
-0.25985898
0.0015273524
-0.26021289
0.00166187
-0.2605943
0.0017894218
-0.261001
0.001908576
-0.26143052
0.0020179076
-0.2618801
0.0021161342
-0.26234677
0.0022020084
-0.26282733
0.0022744678
-0.26331839
0.002332512
-0.26381643
0.0023753628
-0.2643178
0.0024023307
-0.26481875
0.0024129602
-0.2653155
0.0024069426
-0.26580428
0.0023841712
-0.26628132
0.0023447309
-0.26674294
0.0022888999
-0.26718559
0.0022171519
-0.26760585
0.0021301406
-0.26800051
0.0020286996
-0.26836658
0.0019138235
-0.26870135
0.0017866526
-0.26900238
0.0016484506
-0.26926754
0.0015005846
-0.26949504
0.0013444913
-0.26968343
0.0011816546
-0.2698316
0.0010135724
-0.26993878
0.00084172498
-0.27000452
0.0006675469
-0.27002868
0.00049238956
-0.27001144
0.00031751242
-0.26995322
0.00014410036
-0.26985468
-2.6846957e-05
-0.26971662
-0.00019452448
-0.26954
-0.00035827861
-0.2693259
-0.00051760351
-0.26907542
-0.00067217699
-0.26878972
-0.00082181058
-0.26846998
-0.00096641689
-0.26811734
-0.0011059818
-0.2677329
-0.0012405716
-0.26731776
-0.0013702999
-0.26687299
-0.001495264
-0.26639962
-0.0016155061
-0.26589869
-0.0017310054
-0.26537123
-0.0018416613
-0.26481832
-0.0019472809
-0.26424111
-0.0020475719
-0.26364087
-0.0021421472
-0.26301899
-0.0022305237
-0.26237698
-0.0023121491
-0.26171657
-0.0023864154
-0.26103962
-0.0024526876
-0.26034819
-0.0025103337
-0.25964449
-0.0025587535
-0.25893089
-0.0025974098
-0.25820988
-0.0026258548
-0.25748405
-0.0026437536
-0.25675607
-0.0026509026
-0.2560286
-0.0026472414
-0.25530431
-0.0026328632
-0.25458582
-0.0026080048
-0.25387564
-0.0025730503
-0.25317618
-0.0025285151
-0.25248968
-0.0024750307
-0.2518182
-0.0024133252
-0.25116361
-0.0023442013
-0.25052755
-0.0022685182
-0.24991144
-0.0021871589
-0.24931651
-0.0021010176
-0.24874373
-0.0020109743
-0.24819388
-0.0019178769
-0.24766754
-0.0018225244
-0.24716509
-0.0017256568
-0.24668676
-0.0016279373
-0.24623263
-0.0015299525
-0.24580267
-0.0014322033
-0.24539671
-0.0013351045
-0.24501453
-0.0012389842
-0.24465585
-0.0011440906
-0.24432033
-0.0010505921
-0.24400762
-0.0009585901
-0.24371737
-0.0008681272
-0.24344921
-0.00077920911
-0.24320281
-0.00069182062
-0.24297785
-0.00060593721
-0.24277404
-0.00052155051
-0.24259105
-0.00043878279
-0.24242861
-0.00035807651
-0.24228677
-0.00028003991
-0.24216584
-0.00020463692
-0.24206749
-0.00012026912
-0.24198636
-5.8730068e-05
-2.0612744e-05
-0.26143417
-0.00024674553
-0.26127676
-0.0003308032
-0.26110315
-0.00040943505
-0.26091643
-0.0004828508
-0.26071915
-0.00055006801
-0.26051356
-0.00060972334
-0.26030185
-0.00066045262
-0.26008625
-0.0007010351
-0.25986908
-0.0007303769
-0.25965276
-0.0007475568
-0.25943982
-0.00075178228
-0.25923284
-0.00074243464
-0.25903447
-0.00071902234
-0.25884737
-0.00068123596
-0.25867422
-0.00062890486
-0.25851765
-0.00056204796
-0.25838021
-0.00048083365
-0.25826439
-0.00038562168
-0.25817252
-0.00027692744
-0.25810679
-0.00015544775
-0.25806919
-2.2045944e-05
-0.2580615
0.00012227748
-0.25808523
0.00027638667
-0.25814168
0.00043898734
-0.2582318
0.00060865931
-0.25835631
0.00078386564
-0.25851557
0.00096295363
-0.25870962
0.0011442088
-0.25893819
0.0013258211
-0.25920064
0.0015059702
-0.25949601
0.0016827674
-0.25982302
0.0018543582
-0.26018004
0.0020188884
-0.26056513
0.0021745144
-0.26097606
0.0023195083
-0.26141031
0.0024521538
-0.26186508
0.0025709103
-0.26233736
0.0026742814
-0.26282389
0.0027609962
-0.26332123
0.0028298593
-0.26382581
0.0028799444
-0.26433392
0.0029104322
-0.26484174
0.0029207864
-0.26534545
0.0029106474
-0.26584118
0.0028799006
-0.26632511
0.0028286627
-0.26679349
0.0027572853
-0.2672427
0.0026663581
-0.26766925
0.00255669
-0.26806986
0.0024293102
-0.26844148
0.0022854464
-0.26878134
0.0021265052
-0.26908693
0.0019540469
-0.26935611
0.00176976
-0.26958704
0.0015754204
-0.26977825
0.0013728642
-0.26992862
0.0011639452
-0.27003739
0.00095049665
-0.27010414
0.00073429698
-0.27012876
0.00051701213
-0.27011148
0.00030022782
-0.27005277
8.5393895e-05
-0.26995333
-0.00012628531
-0.26981405
-0.00033380931
-0.26963595
-0.00053638125
-0.26942015
-0.00073340376
-0.26916784
-0.00092448382
-0.26888024
-0.0011094079
-0.26855856
-0.0012880977
-0.26820396
-0.0014605814
-0.26781756
-0.0016269711
-0.26740044
-0.0017874175
-0.26695365
-0.0019420599
-0.26647818
-0.0020909764
-0.26597502
-0.002234164
-0.26544517
-0.0023715116
-0.26488966
-0.0025027849
-0.26430962
-0.0026276166
-0.26370625
-0.0027455139
-0.26308092
-0.0028558567
-0.26243514
-0.0029579331
-0.26177059
-0.0030509575
-0.26108917
-0.0031341076
-0.26039294
-0.0032065637
-0.25968415
-0.0032675458
-0.25896521
-0.0033163543
-0.25823866
-0.0033524038
-0.25750716
-0.0033752537
-0.25677343
-0.0033846318
-0.25604022
-0.0033804488
-0.25531027
-0.0033628128
-0.25458626
-0.0033320146
-0.25387078
-0.003288534
-0.25316627
-0.0032330178
-0.25247504
-0.0031662604
-0.25179919
-0.0030891794
-0.25114061
-0.0030027865
-0.25050096
-0.0029081646
-0.24988169
-0.0028064264
-0.24928401
-0.0026986983
-0.2487089
-0.002586088
-0.24815711
-0.0024696622
-0.24762921
-0.0023504248
-0.24712556
-0.0022293054
-0.24664636
-0.0021071357
-0.24619167
-0.0019846506
-0.24576139
-0.0018624766
-0.24535537
-0.0017411312
-0.24497333
-0.0016210227
-0.24461496
-0.0015024579
-0.24427991
-0.0013856421
-0.24396781
-0.0012706948
-0.24367827
-0.0011576611
-0.24341095
-0.0010465316
-0.24316551
-0.00093725961
-0.24294167
-0.00082977948
-0.24273917
-0.00072404404
-0.24255782
-0.00062013345
-0.24239755
-0.00051834719
-0.24225861
-0.0004189808
-0.24214122
-0.00032203365
-0.24204767
-0.00021381073
-0.24197584
-0.00013056728
-6.0999295e-05
-0.2615097
-0.0003894127
-0.26134947
-0.00049103569
-0.2611735
-0.00058540844
-0.26098408
-0.00067226922
-0.26078351
-0.00075063484
-0.26057402
-0.00081921482
-0.26035784
-0.00087663665
-0.26013725
-0.00092161959
-0.25991466
-0.00095297356
-0.25969253
-0.00096968129
-0.25947346
-0.00097085221
-0.2592601
-0.00095579317
-0.25905517
-0.00092395436
-0.25886141
-0.0008750015
-0.25868155
-0.0008087615
-0.25851831
-0.00072528859
-0.25837433
-0.00062481227
-0.25825216
-0.00050779156
-0.25815422
-0.00037486862
-0.25808277
-0.00022689996
-0.25803987
-6.4940282e-05
-0.25802738
0.00010978351
-0.25804689
0.00029589326
-0.25809972
0.00049182437
-0.25818693
0.0006958674
-0.25830925
0.00090618165
-0.25846708
0.0011207894
-0.25866052
0.0013376451
-0.25888929
0.0015545941
-0.25915279
0.0017694737
-0.25945007
0.0019800456
-0.25977983
0.0021841155
-0.26014044
0.0023794945
-0.26052993
0.0025640091
-0.26094605
0.0027356259
-0.26138622
0.0028923278
-0.26184762
0.0030323068
-0.26232715
0.0031538084
-0.26282149
0.0032553444
-0.26332715
0.0033355163
-0.26384045
0.0033932424
-0.26435758
0.0034275668
-0.26487466
0.0034378666
-0.26538774
0.0034237273
-0.26589287
0.0033850225
-0.2663861
0.0033218998
-0.2668636
0.0032347841
-0.26732163
0.0031243827
-0.2677566
0.0029916642
-0.26816515
0.0028378598
-0.26854414
0.0026644382
-0.26889072
0.0024730833
-0.26920234
0.002265664
-0.26947678
0.0020442048
-0.2697122
0.0018108367
-0.2699071
0.0015677644
-0.27006037
0.0013172151
-0.27017126
0.0010613923
-0.2702394
0.00080243451
-0.27026473
0.00054233832
-0.27024753
0.00028303316
-0.27018837
2.623027e-05
-0.270088
-0.00022665319
-0.26994739
-0.00047442053
-0.26976765
-0.00071612466
-0.26954997
-0.00095108244
-0.26929561
-0.0011788454
-0.26900583
-0.0013991816
-0.2686819
-0.0016120351
-0.26832499
-0.0018174845
-0.26793626
-0.0020157023
-0.26751678
-0.0022069009
-0.26706756
-0.0023912794
-0.26658957
-0.002568965
-0.26608375
-0.0027399817
-0.26555105
-0.0029042155
-0.26499244
-0.0030613936
-0.26440898
-0.0032110728
-0.26380185
-0.0033526491
-0.26317235
-0.0034853562
-0.26252197
-0.0036083098
-0.2618524
-0.003720531
-0.26116551
-0.0038209934
-0.2604634
-0.0039086715
-0.25974836
-0.0039825887
-0.25902285
-0.0040418669
-0.25828948
-0.0040857696
-0.257551
-0.0041137397
-0.2568102
-0.0041254289
-0.25606993
-0.0041207156
-0.25533302
-0.004099722
-0.25460224
-0.0040627969
-0.25388025
-0.0040105215
-0.25316959
-0.0039436826
-0.2524726
-0.0038632483
-0.25179144
-0.0037703372
-0.25112805
-0.0036661826
-0.25048411
-0.003552104
-0.24986108
-0.0034294559
-0.24926017
-0.0032996084
-0.24868235
-0.0031639075
-0.24812836
-0.0030236474
-0.24759874
-0.0028800449
-0.24709382
-0.0027342251
-0.24661377
-0.002587193
-0.24615858
-0.0024398347
-0.24572815
-0.0022929042
-0.24532226
-0.0021470221
-0.24494061
-0.0020026761
-0.24458284
-0.0018602295
-0.24424856
-0.0017199212
-0.24393737
-0.0015818857
-0.24364887
-0.0014461639
-0.24338267
-0.0013127242
-0.24313845
-0.0011814797
-0.24291592
-0.001052313
-0.24271485
-0.00092511766
-0.2425351
-0.0007998834
-0.24237673
-0.00067671707
-0.24224004
-0.00055566564
-0.2421253
-0.0004367754
-0.24203569
-0.00030342291
-0.24197027
-0.00019598544
-9.581901e-05
-0.26161227
-0.00053506847
-0.26144911
-0.00065419591
-0.26127006
-0.00076446044
-0.2610771
-0.00086522509
-0.26087237
-0.00095536817
-0.26065804
-0.0010335458
-0.26043636
-0.0010983133
-0.26020968
-0.0011483013
-0.25998045
-0.0011822102
-0.25975121
-0.0011989184
-0.25952463
-0.001197432
-0.25930344
-0.0011769788
-0.25909045
-0.0011369456
-0.25888848
-0.0010769689
-0.25870038
-0.00099686917
-0.25852893
-0.0008967332
-0.25837689
-0.00077684969
-0.25824691
-0.00063777652
-0.2581415
-0.00048028283
-0.25806301
-0.00030538971
-0.2580136
-0.00011434157
-0.25799522
9.1401226e-05
-0.25800954
0.00031020892
-0.25805796
0.00054024527
-0.25814159
0.00077949966
-0.25826123
0.001025822
-0.25841734
0.0012768978
-0.25861004
0.001530341
-0.25883908
0.0017836425
-0.2591039
0.0020342861
-0.25940352
0.002279673
-0.25973667
0.0025172577
-0.26010168
0.0027445047
-0.26049657
0.0029588992
-0.26091903
0.0031580908
-0.26136645
0.00333975
-0.26183594
0.0035017901
-0.26232432
0.0036421875
-0.2628282
0.0037592267
-0.26334398
0.003851296
-0.26386788
0.0039171495
-0.264396
0.0039556865
-0.26492433
0.003966191
-0.26544879
0.0039481881
-0.2659653
0.0039015362
-0.26646981
0.0038264115
-0.26695834
0.0037233128
-0.26742703
0.0035930676
-0.26787217
0.0034368091
-0.26829029
0.0032559779
-0.26867815
0.003052294
-0.2690328
0.0028277311
-0.26935161
0.0025844823
-0.26963233
0.002324925
-0.26987306
0.0020515645
-0.27007229
0.0017669946
-0.27022891
0.0014738373
-0.27034221
0.0011746877
-0.27041184
0.00087206425
-0.27043782
0.00056831707
-0.27042052
0.00026573136
-0.27036057
-3.371224e-05
-0.27025886
-0.00032836715
-0.27011644
-0.00061683979
-0.26993453
-0.00089803626
-0.26971442
-0.0011711872
-0.26945747
-0.0014358028
-0.269165
-0.0016916505
-0.26883832
-0.0019387151
-0.26847866
-0.0021771436
-0.26808717
-0.0024071908
-0.26766492
-0.0026291546
-0.26721288
-0.0028433153
-0.26673198
-0.0030498653
-0.26622309
-0.0032488687
-0.26568709
-0.0034402165
-0.26512488
-0.0036236012
-0.26453745
-0.0037985021
-0.26392591
-0.0039641968
-0.2632915
-0.0041197608
-0.26263569
-0.0042641213
-0.26196013
-0.0043960867
-0.26126672
-0.0045144049
-0.26055757
-0.0046178228
-0.25983502
-0.0047051448
-0.25910159
-0.0047752948
-0.25835999
-0.0048273683
-0.25761305
-0.0048606784
-0.25686369
-0.0048747914
-0.25611485
-0.0048695487
-0.25536949
-0.0048450869
-0.25463047
-0.0048018162
-0.25390056
-0.0047404272
-0.25318239
-0.0046618573
-0.25247838
-0.0045672615
-0.25179074
-0.0044579739
-0.25112146
-0.0043354648
-0.25047226
-0.0042013055
-0.2498446
-0.0040571075
-0.24923971
-0.0039044985
-0.24865855
-0.0037450749
-0.24810182
-0.0035803696
-0.24757005
-0.0034118215
-0.24706352
-0.0032407579
-0.24658235
-0.0030683625
-0.2461265
-0.0028956761
-0.24569583
-0.0027235821
-0.24529004
-0.0025528044
-0.24490881
-0.0023839085
-0.24455173
-0.0022173118
-0.24421837
-0.0020532831
-0.24390829
-0.0018919658
-0.24362106
-0.00173339
-0.24335629
-0.0015774929
-0.24311363
-0.0014241389
-0.2428928
-0.0012731481
-0.24269358
-0.0011243365
-0.24251589
-0.00097757406
-0.24235983
-0.00083277529
-0.2422257
-0.00068979937
-0.24211382
-0.00054864817
-0.24202792
-0.00038932188
-0.24196712
-0.00025679462
-0.00012733483
-0.26173539
-0.00068455737
-0.26156853
-0.00082105192
-0.26138553
-0.00094746216
-0.26118811
-0.0010626403
-0.26097828
-0.0011652053
-0.26075815
-0.001253668
-0.26053001
-0.0013264585
-0.26029622
-0.001382088
-0.2600593
-0.0014191289
-0.25982188
-0.0014363434
-0.25958668
-0.0014326248
-0.25935655
-0.0014071149
-0.25913436
-0.00135913
-0.25892306
-0.001288272
-0.25872558
-0.0011943502
-0.25854483
-0.0010774806
-0.25838367
-0.00093800888
-0.25824486
-0.00077659131
-0.25813102
-0.00059412456
-0.25804461
-0.00039179868
-0.2579879
-0.00017104786
-0.25796293
6.6426627e-05
-0.25797145
0.00031873398
-0.25801497
0.0005837631
-0.25809466
0.00085919161
-0.25821139
0.00114255
-0.25836567
0.0014311778
-0.25855767
0.0017223366
-0.25878717
0.0020131516
-0.25905363
0.0023007408
-0.25935609
0.002582132
-0.25969325
0.0028544159
-0.26006344
0.003114697
-0.26046465
0.003360106
-0.26089452
0.0035879623
-0.26135038
0.0037956107
-0.26182926
0.003980673
-0.26232792
0.0041408439
-0.26284286
0.0042741688
-0.26337037
0.0043788109
-0.26390657
0.0044533502
-0.26444742
0.0044965318
-0.26498877
0.0045075387
-0.26552641
0.004485829
-0.26605611
0.0044312416
-0.26657368
0.004343979
-0.26707498
0.0042246137
-0.26755601
0.0040740964
-0.26801293
0.0038937303
-0.26844213
0.003685174
-0.26884024
0.0034504103
-0.26920423
0.0031917174
-0.26953138
0.0029116298
-0.26981935
0.0026128983
-0.27006621
0.0022984246
-0.27027043
0.0019712156
-0.27043091
0.001634313
-0.27054695
0.0012907284
-0.27061827
0.00094338397
-0.27064496
0.00059500763
-0.27062749
0.00024825925
-0.2705666
-9.4602225e-05
-0.27046328
-0.0004316852
-0.27031872
-0.00076139689
-0.27013426
-0.0010825
-0.26991131
-0.0013941403
-0.26965131
-0.001695799
-0.2693557
-0.0019872628
-0.26902583
-0.0022685772
-0.268663
-0.0025399815
-0.26826835
-0.0028018396
-0.26784294
-0.0030545627
-0.26738772
-0.0032985382
-0.26690354
-0.003534045
-0.2663912
-0.003761204
-0.2658515
-0.0039799225
-0.26528523
-0.0041898627
-0.26469331
-0.0043904246
-0.26407675
-0.0045807588
-0.26343674
-0.0047597677
-0.26277469
-0.0049261699
-0.26209224
-0.0050785375
-0.26139128
-0.0052153658
-0.26067396
-0.0053351469
-0.25994266
-0.00543644
-0.25920001
-0.0055179466
-0.25844881
-0.0055785733
-0.257692
-0.0056174873
-0.25693263
-0.0056341588
-0.25617379
-0.0056283869
-0.25541856
-0.0056003224
-0.25466993
-0.0055504424
-0.2539308
-0.0054795562
-0.25320389
-0.0053887655
-0.25249173
-0.005279428
-0.25179659
-0.0051531114
-0.25112051
-0.0050115414
-0.25046526
-0.0048565604
-0.24983231
-0.0046900544
-0.24922288
-0.0045139254
-0.24863792
-0.0043300357
-0.24807812
-0.0041401698
-0.24754394
-0.0039459987
-0.24703564
-0.0037490612
-0.24655328
-0.0035507254
-0.24609676
-0.0033521912
-0.24566587
-0.003154473
-0.24526028
-0.0029583986
-0.24487958
-0.0027646097
-0.24452331
-0.002573575
-0.24419101
-0.0023855887
-0.24388218
-0.0022007972
-0.24359636
-0.002019212
-0.24333312
-0.0018407305
-0.2430921
-0.0016651583
-0.24287301
-0.0014922403
-0.24267565
-0.001321695
-0.24249997
-0.0011532541
-0.24234609
-0.00098664859
-0.24221432
-0.00082157137
-0.24210509
-0.0006578842
-0.24202234
-0.00047207131
-0.24196484
-0.00031428855
-0.00015672767
-0.26188244
-0.00083732554
-0.26171157
-0.00099192393
-0.26152394
-0.0011350911
-0.26132123
-0.0012653547
-0.26110535
-0.001381082
-0.26087842
-0.0014805983
-0.26064271
-0.0015621678
-0.26040064
-0.0016241535
-0.2601548
-0.0016649784
-0.25990787
-0.0016832735
-0.25966268
-0.0016778072
-0.25942217
-0.0016476249
-0.25918934
-0.001591964
-0.25896723
-0.0015103844
-0.2587589
-0.0014026786
-0.25856739
-0.0012689876
-0.25839569
-0.0011097113
-0.25824668
-0.00092560421
-0.25812311
-0.00071769127
-0.25802757
-0.00048733472
-0.25796246
-0.00023616329
-0.25792991
3.3874842e-05
-0.25793179
0.00032061935
-0.2579697
0.00062167584
-0.25804491
0.0009343992
-0.25815835
0.0012559867
-0.25831059
0.001583422
-0.25850186
0.0019136009
-0.25873197
0.0022432688
-0.2590004
0.0025691641
-0.25930619
0.0028879265
-0.25964804
0.0031962681
-0.26002427
0.003490919
-0.2604328
0.0037686404
-0.26087124
0.0040264064
-0.26133685
0.0042612213
-0.26182658
0.0044704017
-0.26233709
0.0046513459
-0.26286476
0.0048018469
-0.26340578
0.0049198304
-0.26395612
0.0050036902
-0.2645116
0.0050520065
-0.26506791
0.0050638524
-0.26562069
0.0050386114
-0.26616555
0.0049760976
-0.26669811
0.0048765366
-0.26721407
0.0047405747
-0.26770926
0.0045692881
-0.26817969
0.004364156
-0.26862158
0.0041270645
-0.26903144
0.0038602722
-0.2694061
0.0035663784
-0.26974275
0.0032482791
-0.27003897
0.0029091217
-0.27029278
0.0025522305
-0.27050262
0.0021810535
-0.27066738
0.0017990815
-0.27078643
0.0014097724
-0.27085952
0.0010164804
-0.27088686
0.00062233952
-0.27086901
0.00023040986
-0.27080685
-0.00015676007
-0.27070152
-0.00053701697
-0.27055435
-0.00090856569
-0.27036682
-0.0012700261
-0.2701405
-0.0016204676
-0.26987694
-0.0019593566
-0.26957768
-0.0022865206
-0.26924416
-0.0026020921
-0.26887771
-0.002906432
-0.26847951
-0.0032000455
-0.26805058
-0.0034834901
-0.26759183
-0.0037572906
-0.26710403
-0.004021839
-0.26658791
-0.004277333
-0.26604412
-0.0045237099
-0.26547337
-0.0047606076
-0.26487645
-0.0049873441
-0.26425428
-0.0052029325
-0.26360796
-0.0054060843
-0.26293885
-0.0055952851
-0.26224854
-0.0057688412
-0.26153895
-0.0059249638
-0.26081224
-0.0060618565
-0.26007087
-0.0061778015
-0.25931757
-0.0062712485
-0.25855526
-0.0063408904
-0.25778701
-0.0063857292
-0.25701605
-0.0064051261
-0.2562456
-0.0063988315
-0.25547891
-0.006367011
-0.25471914
-0.0063102148
-0.25396931
-0.0062293832
-0.25323228
-0.0061257981
-0.25251067
-0.006001039
-0.25180685
-0.0058569287
-0.25112292
-0.0056954708
-0.25046068
-0.0055188004
-0.24982164
-0.0053290998
-0.249207
-0.0051285648
-0.24861769
-0.0049193408
-0.24805438
-0.0047034787
-0.24751749
-0.0044828946
-0.2470072
-0.0042593478
-0.24652353
-0.0040343982
-0.24606631
-0.0038094091
-0.24563526
-0.0035855287
-0.24522997
-0.0033636884
-0.24484997
-0.0031446052
-0.24449475
-0.0029287954
-0.24416376
-0.0027165745
-0.24385648
-0.0025080861
-0.24357237
-0.0023033158
-0.24331099
-0.0021021136
-0.24307193
-0.0019042176
-0.24285488
-0.0017092866
-0.24265965
-0.0015169277
-0.24248618
-0.0013267255
-0.24233459
-0.0011382363
-0.24220518
-0.00095098414
-0.24209844
-0.00076462766
-0.24201837
-0.00055213465
-0.24196337
-0.00036929439
-0.00018464362
-0.26205023
-0.00099411409
-0.26187473
-0.0011674166
-0.26168178
-0.0013280449
-0.26147296
-0.0014741736
-0.26125015
-0.001603889
-0.26101545
-0.0017152988
-0.26077115
-0.0018064694
-0.26051972
-0.0018755895
-0.26026378
-0.0019209116
-0.26000614
-0.0019409174
-0.25974971
-0.001934236
-0.25949753
-0.001899804
-0.25925273
-0.001836769
-0.25901847
-0.0017446406
-0.25879796
-0.001623187
-0.25859438
-0.0014725696