/*--------------------------------*- C++ -*----------------------------------*\
| =========                 |                                                 |
| \\      /  F ield         | foam-extend: Open Source CFD                    |
|  \\    /   O peration     | Version:     4.1                                |
|   \\  /    A nd           | Web:         http://www.foam-extend.org         |
|    \\/     M anipulation  |                                                 |
\*---------------------------------------------------------------------------*/
FoamFile
{
    version     2.0;
    format      ascii;
    class       volScalarField;
    location    "0.2";
    object      rAU;
}
// * * * * * * * * * * * * * * * * * * * * * * * * * * * * * * * * * * * * * //

dimensions      [0 0 1 0 0 0 0];

internalField   nonuniform List<scalar> 
16796
(
3.8554438e-05
3.8556075e-05
3.855853e-05
3.8563074e-05
3.8569476e-05
3.8578141e-05
3.8588904e-05
3.8601833e-05
3.861663e-05
3.8633231e-05
3.8651236e-05
3.8670486e-05
3.8690502e-05
3.8711061e-05
3.8731628e-05
3.8751939e-05
3.8771427e-05
3.8789806e-05
3.8806499e-05
3.8821216e-05
3.8833389e-05
3.8842748e-05
3.8848765e-05
3.8849806e-05
3.884447e-05
3.8835545e-05
3.8823087e-05
3.8807407e-05
3.8788525e-05
3.8766758e-05
3.8742157e-05
3.8715045e-05
3.8685665e-05
3.8654173e-05
3.8620998e-05
3.8586295e-05
3.8550521e-05
3.8513849e-05
3.8476746e-05
3.8439382e-05
3.8402215e-05
3.8365406e-05
3.8329331e-05
3.8294212e-05
3.8260292e-05
3.8227781e-05
3.8196857e-05
3.816768e-05
3.8140355e-05
3.8114972e-05
3.809158e-05
3.80702e-05
3.8050817e-05
3.8033402e-05
3.8017878e-05
3.8004163e-05
3.7992149e-05
3.7981715e-05
3.7972728e-05
3.7965061e-05
3.7958564e-05
3.7953107e-05
3.7948562e-05
3.794481e-05
3.7941746e-05
3.7939276e-05
3.7937339e-05
3.7935866e-05
3.7934818e-05
3.7934169e-05
3.7933905e-05
3.7933901e-05
3.7934022e-05
3.793453e-05
3.7935443e-05
3.7936785e-05
3.7938589e-05
3.7940884e-05
3.7943718e-05
3.7947112e-05
3.7951101e-05
3.7955708e-05
3.7960945e-05
3.7966819e-05
3.797332e-05
3.7980434e-05
3.798813e-05
3.7996369e-05
3.8005102e-05
3.8014267e-05
3.8023812e-05
3.8033653e-05
3.8043722e-05
3.8053939e-05
3.8064229e-05
3.8074512e-05
3.8084709e-05
3.8094758e-05
3.8104577e-05
3.8114105e-05
3.812328e-05
3.8132044e-05
3.8140341e-05
3.8148135e-05
3.8155371e-05
3.8162013e-05
3.8168025e-05
3.8173376e-05
3.8178032e-05
3.8181977e-05
3.8185178e-05
3.8187615e-05
3.818927e-05
3.8190125e-05
3.8189375e-05
3.8187758e-05
3.8185294e-05
3.8181986e-05
3.817784e-05
3.8172879e-05
3.8167162e-05
3.8160904e-05
3.8154116e-05
3.8143689e-05
3.7408859e-05
3.7419877e-05
3.7432412e-05
3.7447758e-05
3.746514e-05
3.748471e-05
3.7506012e-05
3.7528899e-05
3.7552886e-05
3.7577795e-05
3.7603144e-05
3.7628768e-05
3.7654209e-05
3.7679331e-05
3.7703713e-05
3.7727259e-05
3.7749595e-05
3.7770679e-05
3.7790189e-05
3.7808137e-05
3.7824255e-05
3.7838601e-05
3.7850939e-05
3.7859954e-05
3.7861087e-05
3.7856737e-05
3.7849613e-05
3.7839827e-05
3.782729e-05
3.7812283e-05
3.7794835e-05
3.7775276e-05
3.7753851e-05
3.7730715e-05
3.7706305e-05
3.7680763e-05
3.7654549e-05
3.7627815e-05
3.7601021e-05
3.7574313e-05
3.7548133e-05
3.7522612e-05
3.7498106e-05
3.7474804e-05
3.7452922e-05
3.7432639e-05
3.7414101e-05
3.7397438e-05
3.7382724e-05
3.7370014e-05
3.7359332e-05
3.7350664e-05
3.7343969e-05
3.7339191e-05
3.7336227e-05
3.7334969e-05
3.7335289e-05
3.7337044e-05
3.7340082e-05
3.7344261e-05
3.7349416e-05
3.7355404e-05
3.7360691e-05
3.7366493e-05
3.7372978e-05
3.7380019e-05
3.7387518e-05
3.7395372e-05
3.7403512e-05
3.7411889e-05
3.7420471e-05
3.7429132e-05
3.7437742e-05
3.7446564e-05
3.7455635e-05
3.7464999e-05
3.7474706e-05
3.7484808e-05
3.7495373e-05
3.7506443e-05
3.7518078e-05
3.7530322e-05
3.7543211e-05
3.7556774e-05
3.7571025e-05
3.7585968e-05
3.7601595e-05
3.7617884e-05
3.7634802e-05
3.7652301e-05
3.767034e-05
3.7688845e-05
3.7707752e-05
3.7726988e-05
3.7746477e-05
3.7766139e-05
3.7785893e-05
3.7805673e-05
3.7825392e-05
3.784498e-05
3.786437e-05
3.7883496e-05
3.7902296e-05
3.7920724e-05
3.7938718e-05
3.7956236e-05
3.7973235e-05
3.7989677e-05
3.8005523e-05
3.8020751e-05
3.8035322e-05
3.8049213e-05
3.8062397e-05
3.8074852e-05
3.8085768e-05
3.8095866e-05
3.8105156e-05
3.811363e-05
3.812128e-05
3.8128102e-05
3.8133604e-05
3.8137471e-05
3.8140659e-05
3.8141343e-05
3.7321325e-05
3.7334875e-05
3.7350915e-05
3.7369275e-05
3.7389177e-05
3.7410783e-05
3.7433717e-05
3.7457915e-05
3.7482961e-05
3.7508731e-05
3.753478e-05
3.7560959e-05
3.7586813e-05
3.7612197e-05
3.7636668e-05
3.7660103e-05
3.7682096e-05
3.7702568e-05
3.7721166e-05
3.7737872e-05
3.7752397e-05
3.7764787e-05
3.7774813e-05
3.7782567e-05
3.7778186e-05
3.7766223e-05
3.7751852e-05
3.7735402e-05
3.7716917e-05
3.7696765e-05
3.7675032e-05
3.7652084e-05
3.7628186e-05
3.7603497e-05
3.7578446e-05
3.7553158e-05
3.7528059e-05
3.7503262e-05
3.7479176e-05
3.7455888e-05
3.7433774e-05
3.7412894e-05
3.7393529e-05
3.7375789e-05
3.7359807e-05
3.7345683e-05
3.7333478e-05
3.7323243e-05
3.7314974e-05
3.7308653e-05
3.7304232e-05
3.7301635e-05
3.7300761e-05
3.7301505e-05
3.7303722e-05
3.730727e-05
3.7311995e-05
3.731774e-05
3.7324344e-05
3.7331383e-05
3.7336179e-05
3.7341829e-05
3.7346804e-05
3.7352324e-05
3.7358552e-05
3.7365354e-05
3.7372627e-05
3.7380259e-05
3.7388171e-05
3.7396299e-05
3.74046e-05
3.7413047e-05
3.7421647e-05
3.7430402e-05
3.7439345e-05
3.7448517e-05
3.745797e-05
3.746776e-05
3.7477962e-05
3.7488626e-05
3.7499821e-05
3.7511605e-05
3.7524024e-05
3.753712e-05
3.7550919e-05
3.7565438e-05
3.758068e-05
3.7596631e-05
3.7613267e-05
3.7630549e-05
3.7648438e-05
3.7666865e-05
3.7685769e-05
3.7705076e-05
3.7724709e-05
3.7744588e-05
3.7764628e-05
3.7784759e-05
3.7804889e-05
3.7824946e-05
3.7844857e-05
3.7864551e-05
3.7883961e-05
3.7903038e-05
3.7921716e-05
3.7939948e-05
3.7957687e-05
3.7974893e-05
3.7991525e-05
3.8007557e-05
3.802295e-05
3.8037676e-05
3.8051711e-05
3.8065029e-05
3.8077603e-05
3.8089423e-05
3.8100455e-05
3.8110678e-05
3.8120069e-05
3.8128597e-05
3.8135702e-05
3.8140932e-05
3.8145301e-05
3.8145669e-05
3.7296553e-05
3.7307949e-05
3.7322941e-05
3.7340394e-05
3.7359658e-05
3.7380859e-05
3.7403646e-05
3.7427973e-05
3.7453439e-05
3.7479924e-05
3.7506979e-05
3.7534446e-05
3.7561852e-05
3.7589025e-05
3.7615493e-05
3.7641096e-05
3.7665387e-05
3.7688243e-05
3.7709262e-05
3.7728377e-05
3.7745246e-05
3.7759865e-05
3.7771958e-05
3.7781585e-05
3.7771224e-05
3.7755756e-05
3.7737928e-05
3.7718153e-05
3.7696538e-05
3.7673506e-05
3.7649186e-05
3.7623979e-05
3.7598175e-05
3.7571953e-05
3.7545752e-05
3.7519701e-05
3.7494221e-05
3.7469416e-05
3.7445676e-05
3.7423068e-05
3.7401941e-05
3.7382327e-05
3.7364473e-05
3.7348457e-05
3.7334376e-05
3.7322295e-05
3.7312241e-05
3.730423e-05
3.7298225e-05
3.7294177e-05
3.729201e-05
3.729162e-05
3.7292882e-05
3.7295668e-05
3.7299815e-05
3.7305164e-05
3.7311548e-05
3.73188e-05
3.7325953e-05
3.7329699e-05
3.7331598e-05
3.7334738e-05
3.7338968e-05
3.7344135e-05
3.7350088e-05
3.7356679e-05
3.7363787e-05
3.7371281e-05
3.7379066e-05
3.738706e-05
3.7395205e-05
3.7403461e-05
3.7411822e-05
3.7420283e-05
3.7428872e-05
3.7437629e-05
3.7446609e-05
3.7455872e-05
3.7465501e-05
3.7475555e-05
3.7486116e-05
3.7497251e-05
3.750902e-05
3.752148e-05
3.7534667e-05
3.7548611e-05
3.7563325e-05
3.7578806e-05
3.7595036e-05
3.7611982e-05
3.762961e-05
3.7647854e-05
3.7666652e-05
3.7685932e-05
3.7705613e-05
3.7725613e-05
3.7745843e-05
3.7766229e-05
3.7786675e-05
3.7807103e-05
3.7827435e-05
3.7847596e-05
3.7867514e-05
3.7887136e-05
3.7906391e-05
3.792523e-05
3.7943603e-05
3.7961466e-05
3.7978776e-05
3.7995507e-05
3.8011615e-05
3.8027074e-05
3.8041856e-05
3.8055933e-05
3.8069279e-05
3.8081878e-05
3.8093693e-05
3.8104699e-05
3.8114862e-05
3.8124138e-05
3.8132448e-05
3.81397e-05
3.8145834e-05
3.8147096e-05
3.727226e-05
3.7281354e-05
3.7294831e-05
3.7311076e-05
3.7329529e-05
3.7350263e-05
3.7372924e-05
3.7397459e-05
3.7423466e-05
3.7450823e-05
3.7479072e-05
3.7508042e-05
3.7537243e-05
3.7566481e-05
3.7595256e-05
3.762338e-05
3.7650368e-05
3.7676063e-05
3.7700023e-05
3.772214e-05
3.7742031e-05
3.7759651e-05
3.7774682e-05
3.7786001e-05
3.7770798e-05
3.7752672e-05
3.7732231e-05
3.7709914e-05
3.7685865e-05
3.7660539e-05
3.7634093e-05
3.7606954e-05
3.7579432e-05
3.755172e-05
3.752427e-05
3.7497217e-05
3.7470987e-05
3.7445684e-05
3.7421696e-05
3.7399084e-05
3.737819e-05
3.7359034e-05
3.7341852e-05
3.7326707e-05
3.731368e-05
3.7302817e-05
3.7294126e-05
3.7287602e-05
3.7283186e-05
3.7280805e-05
3.7280358e-05
3.7281717e-05
3.7284732e-05
3.7289251e-05
3.7295086e-05
3.7302055e-05
3.7309973e-05
3.7318655e-05
3.7322077e-05
3.7321841e-05
3.7323125e-05
3.732578e-05
3.732964e-05
3.7334534e-05
3.7340293e-05
3.7346746e-05
3.7353753e-05
3.7361163e-05
3.7368858e-05
3.7376742e-05
3.738474e-05
3.7392798e-05
3.7400906e-05
3.740905e-05
3.7417255e-05
3.7425563e-05
3.7434032e-05
3.7442729e-05
3.7451746e-05
3.7461152e-05
3.7471043e-05
3.7481498e-05
3.7492595e-05
3.7504399e-05
3.7516963e-05
3.7530329e-05
3.754452e-05
3.7559541e-05
3.7575385e-05
3.759202e-05
3.7609419e-05
3.7627515e-05
3.7646249e-05
3.7665543e-05
3.7685318e-05
3.7705485e-05
3.7725952e-05
3.7746638e-05
3.7767444e-05
3.7788284e-05
3.7809077e-05
3.7829741e-05
3.7850201e-05
3.7870398e-05
3.7890258e-05
3.7909729e-05
3.7928758e-05
3.7947299e-05
3.7965306e-05
3.7982754e-05
3.7999595e-05
3.8015804e-05
3.8031352e-05
3.8046211e-05
3.8060352e-05
3.807376e-05
3.8086395e-05
3.809823e-05
3.8109226e-05
3.8119332e-05
3.8128462e-05
3.8136525e-05
3.8143389e-05
3.8146132e-05
3.7246621e-05
3.7253793e-05
3.7265816e-05
3.728087e-05
3.7298498e-05
3.7318755e-05
3.73413e-05
3.736608e-05
3.7392693e-05
3.7421012e-05
3.7450567e-05
3.7481173e-05
3.7512316e-05
3.7543775e-05
3.757502e-05
3.7605824e-05
3.7635666e-05
3.7664345e-05
3.7691375e-05
3.7716604e-05
3.7739606e-05
3.7760293e-05
3.7778308e-05
3.7789712e-05
3.7771219e-05
3.7750331e-05
3.7727197e-05
3.7702286e-05
3.7675766e-05
3.7648118e-05
3.7619518e-05
3.7590411e-05
3.7561123e-05
3.7531859e-05
3.750308e-05
3.7474931e-05
3.7447842e-05
3.7421919e-05
3.7397553e-05
3.7374802e-05
3.7354006e-05
3.7335179e-05
3.7318547e-05
3.7304163e-05
3.7292097e-05
3.7282377e-05
3.7274994e-05
3.7269923e-05
3.7267081e-05
3.7266372e-05
3.7267667e-05
3.7270813e-05
3.7275629e-05
3.7281937e-05
3.728952e-05
3.7298172e-05
3.7307682e-05
3.7315592e-05
3.7313908e-05
3.7312946e-05
3.731365e-05
3.7315856e-05
3.7319383e-05
3.7324042e-05
3.7329642e-05
3.7335993e-05
3.7342931e-05
3.7350283e-05
3.7357913e-05
3.7365704e-05
3.7373567e-05
3.7381434e-05
3.7389284e-05
3.7397099e-05
3.7404902e-05
3.7412737e-05
3.7420666e-05
3.7428764e-05
3.7437136e-05
3.7445863e-05
3.7455053e-05
3.7464804e-05
3.7475206e-05
3.7486341e-05
3.7498276e-05
3.7511064e-05
3.752474e-05
3.7539319e-05
3.7554798e-05
3.7571153e-05
3.7588358e-05
3.7606349e-05
3.7625061e-05
3.7644419e-05
3.7664336e-05
3.768472e-05
3.7705472e-05
3.7726507e-05
3.7747718e-05
3.7769014e-05
3.7790306e-05
3.781151e-05
3.7832542e-05
3.7853341e-05
3.787383e-05
3.789395e-05
3.7913649e-05
3.7932877e-05
3.7951586e-05
3.796975e-05
3.7987322e-05
3.8004273e-05
3.8020575e-05
3.80362e-05
3.8051118e-05
3.8065313e-05
3.8078746e-05
3.8091388e-05
3.8103199e-05
3.8114129e-05
3.81241e-05
3.8133037e-05
3.81408e-05
3.8144611e-05
3.7218549e-05
3.7223895e-05
3.7234486e-05
3.7248429e-05
3.7265322e-05
3.7285214e-05
3.7307768e-05
3.733293e-05
3.7360295e-05
3.7389726e-05
3.7420743e-05
3.7453141e-05
3.7486383e-05
3.7520222e-05
3.7554093e-05
3.7587735e-05
3.7620586e-05
3.7652405e-05
3.7682663e-05
3.7711164e-05
3.7737439e-05
3.7761356e-05
3.7782518e-05
3.7793723e-05
3.7772401e-05
3.7748705e-05
3.7722813e-05
3.7695221e-05
3.7666127e-05
3.7636037e-05
3.7605154e-05
3.757394e-05
3.7542742e-05
3.7511779e-05
3.7481524e-05
3.745213e-05
3.7424036e-05
3.7397353e-05
3.7372473e-05
3.7349457e-05
3.732864e-05
3.7310034e-05
3.7293859e-05
3.7280156e-05
3.7268986e-05
3.726036e-05
3.7254253e-05
3.7250619e-05
3.7249353e-05
3.7250334e-05
3.7253404e-05
3.7258382e-05
3.7265058e-05
3.7273223e-05
3.7282631e-05
3.7293048e-05
3.7304236e-05
3.7307805e-05
3.7304198e-05
3.7302582e-05
3.7302787e-05
3.7304633e-05
3.730792e-05
3.7312437e-05
3.7317968e-05
3.7324299e-05
3.733124e-05
3.7338596e-05
3.7346209e-05
3.7353942e-05
3.7361689e-05
3.7369372e-05
3.737696e-05
3.738443e-05
3.7391806e-05
3.7399134e-05
3.7406484e-05
3.7413942e-05
3.7421625e-05
3.7429629e-05
3.7438079e-05
3.7447089e-05
3.7456766e-05
3.7467209e-05
3.7478499e-05
3.7490704e-05
3.7503868e-05
3.7518017e-05
3.7533155e-05
3.754926e-05
3.756631e-05
3.7584238e-05
3.7602981e-05
3.7622455e-05
3.7642572e-05
3.7663231e-05
3.7684329e-05
3.7705771e-05
3.7727444e-05
3.774925e-05
3.7771095e-05
3.7792887e-05
3.7814538e-05
3.7835981e-05
3.7857135e-05
3.787794e-05
3.789834e-05
3.7918282e-05
3.793772e-05
3.7956623e-05
3.7974946e-05
3.799266e-05
3.8009735e-05
3.8026145e-05
3.8041858e-05
3.8056861e-05
3.8071112e-05
3.8084581e-05
3.8097231e-05
3.8109008e-05
3.8119843e-05
3.8129667e-05
3.8138359e-05
3.8143246e-05
3.7188773e-05
3.7192438e-05
3.720165e-05
3.7214522e-05
3.7230713e-05
3.7250278e-05
3.7272894e-05
3.729851e-05
3.732672e-05
3.7357377e-05
3.7389987e-05
3.7424324e-05
3.7459825e-05
3.749621e-05
3.7532876e-05
3.756952e-05
3.760554e-05
3.7640643e-05
3.7674258e-05
3.7706141e-05
3.7735775e-05
3.7762988e-05
3.7787341e-05
3.7798413e-05
3.7774086e-05
3.7747407e-05
3.7718587e-05
3.7688152e-05
3.7656331e-05
3.7623654e-05
3.7590347e-05
3.7556895e-05
3.7523659e-05
3.7490876e-05
3.745903e-05
3.7428284e-05
3.7399086e-05
3.7371553e-05
3.7346079e-05
3.7322728e-05
3.7301835e-05
3.7283407e-05
3.7267658e-05
3.7254623e-05
3.7244349e-05
3.7236833e-05
3.7232034e-05
3.7229882e-05
3.723025e-05
3.723299e-05
3.7237915e-05
3.7244814e-05
3.7253443e-05
3.7263562e-05
3.727489e-05
3.7287163e-05
3.7300115e-05
3.7297672e-05
3.7293279e-05
3.7291055e-05
3.7290815e-05
3.7292362e-05
3.7295474e-05
3.7299916e-05
3.7305445e-05
3.7311821e-05
3.7318827e-05
3.7326241e-05
3.7333881e-05
3.734159e-05
3.7349245e-05
3.7356754e-05
3.7364078e-05
3.737119e-05
3.7378114e-05
3.7384902e-05
3.7391633e-05
3.7398406e-05
3.7405351e-05
3.7412583e-05
3.7420245e-05
3.7428471e-05
3.7437386e-05
3.7447107e-05
3.7457731e-05
3.746934e-05
3.7481992e-05
3.7495719e-05
3.7510532e-05
3.7526414e-05
3.7543342e-05
3.756125e-05
3.7580068e-05
3.7599711e-05
3.762008e-05
3.764107e-05
3.7662567e-05
3.7684471e-05
3.7706658e-05
3.7729025e-05
3.7751467e-05
3.7773888e-05
3.7796195e-05
3.7818314e-05
3.7840162e-05
3.7861674e-05
3.7882791e-05
3.7903462e-05
3.7923636e-05
3.7943284e-05
3.7962359e-05
3.7980834e-05
3.7998679e-05
3.8015868e-05
3.8032373e-05
3.8048178e-05
3.8063245e-05
3.8077547e-05
3.8091048e-05
3.81037e-05
3.8115441e-05
3.8126216e-05
3.8135919e-05
3.8141948e-05
3.7156741e-05
3.7158701e-05
3.7166529e-05
3.7178373e-05
3.7193921e-05
3.7213241e-05
3.7236021e-05
3.7262211e-05
3.7291401e-05
3.7323434e-05
3.73578e-05
3.7394251e-05
3.7432193e-05
3.7471311e-05
3.7510965e-05
3.7550808e-05
3.7590189e-05
3.7628772e-05
3.7665933e-05
3.770138e-05
3.7734551e-05
3.7765227e-05
3.7792925e-05
3.7803975e-05
3.7776539e-05
3.7746756e-05
3.7714875e-05
3.7681454e-05
3.7646753e-05
3.7611331e-05
3.7575439e-05
3.7539587e-05
3.7504154e-05
3.7469394e-05
3.7435806e-05
3.7403565e-05
3.7373127e-05
3.7344617e-05
3.7318436e-05
3.7294647e-05
3.7273587e-05
3.7255262e-05
3.7239879e-05
3.7227467e-05
3.721806e-05
3.7211644e-05
3.7208157e-05
3.720751e-05
3.7209551e-05
3.7214105e-05
3.7220955e-05
3.7229855e-05
3.724053e-05
3.72527e-05
3.7266054e-05
3.7280289e-05
3.7292825e-05
3.7285988e-05
3.7280869e-05
3.7278112e-05
3.7277515e-05
3.727886e-05
3.72819e-05
3.728637e-05
3.7291999e-05
3.7298515e-05
3.730567e-05
3.7313216e-05
3.7320943e-05
3.7328673e-05
3.7336265e-05
3.7343613e-05
3.735067e-05
3.7357407e-05
3.736385e-05
3.7370058e-05
3.7376121e-05
3.7382153e-05
3.7388303e-05
3.7394704e-05
3.7401523e-05
3.7408913e-05
3.7417021e-05
3.7425984e-05
3.7435916e-05
3.7446915e-05
3.745905e-05
3.7472363e-05
3.7486872e-05
3.7502561e-05
3.7519409e-05
3.7537344e-05
3.7556295e-05
3.7576167e-05
3.7596854e-05
3.7618242e-05
3.7640208e-05
3.7662641e-05
3.768541e-05
3.77084e-05
3.7731501e-05
3.7754608e-05
3.7777622e-05
3.7800465e-05
3.7823049e-05
3.7845306e-05
3.7867176e-05
3.7888604e-05
3.7909539e-05
3.7929953e-05
3.7949799e-05
3.796905e-05
3.7987677e-05
3.8005656e-05
3.8022959e-05
3.8039572e-05
3.805546e-05
3.8070596e-05
3.8084949e-05
3.8098475e-05
3.8111122e-05
3.8122845e-05
3.813356e-05
3.8140709e-05
3.7122764e-05
3.7123053e-05
3.712951e-05
3.7140342e-05
3.7155275e-05
3.7174393e-05
3.7197401e-05
3.722425e-05
3.725453e-05
3.7288073e-05
3.732435e-05
3.7363086e-05
3.7403657e-05
3.7445706e-05
3.748855e-05
3.7531793e-05
3.7574735e-05
3.7616984e-05
3.7657866e-05
3.7697037e-05
3.7733885e-05
3.7768144e-05
3.779929e-05
3.7810338e-05
3.7779611e-05
3.7746543e-05
3.7711419e-05
3.7674836e-05
3.7637082e-05
3.7598749e-05
3.7560112e-05
3.7521704e-05
3.7483926e-05
3.7447048e-05
3.7411584e-05
3.7377723e-05
3.734593e-05
3.7316339e-05
3.7289357e-05
3.7265051e-05
3.724376e-05
3.7225487e-05
3.7210438e-05
3.7198632e-05
3.7190095e-05
3.7184797e-05
3.718266e-05
3.7183574e-05
3.718736e-05
3.7193814e-05
3.7202688e-05
3.72137e-05
3.7226536e-05
3.724088e-05
3.7256379e-05
3.7272695e-05
3.728141e-05
3.727289e-05
3.7267091e-05
3.7263864e-05
3.7262987e-05
3.7264217e-05
3.7267279e-05
3.7271876e-05
3.7277703e-05
3.7284453e-05
3.7291847e-05
3.7299602e-05
3.7307481e-05
3.7315282e-05
3.7322843e-05
3.7330046e-05
3.7336836e-05
3.7343181e-05
3.7349111e-05
3.7354695e-05
3.7360035e-05
3.7365264e-05
3.7370551e-05
3.7376055e-05
3.7381963e-05
3.7388456e-05
3.7395702e-05
3.740386e-05
3.7413065e-05
3.742343e-05
3.7435038e-05
3.744794e-05
3.7462158e-05
3.7477681e-05
3.7494484e-05
3.7512493e-05
3.7531628e-05
3.7551788e-05
3.7572856e-05
3.7594707e-05
3.7617206e-05
3.7640233e-05
3.7663644e-05
3.7687317e-05
3.7711132e-05
3.7734975e-05
3.7758741e-05
3.7782348e-05
3.7805702e-05
3.7828734e-05
3.7851379e-05
3.7873583e-05
3.7895295e-05
3.7916487e-05
3.7937111e-05
3.7957143e-05
3.7976556e-05
3.7995328e-05
3.8013432e-05
3.8030859e-05
3.8047574e-05
3.8063556e-05
3.8078777e-05
3.8093199e-05
3.8106778e-05
3.8119478e-05
3.8131231e-05
3.8139505e-05
3.7086474e-05
3.7085026e-05
3.7090082e-05
3.7099913e-05
3.7114264e-05
3.7133242e-05
3.7156562e-05
3.7184182e-05
3.7215686e-05
3.7250896e-05
3.7289262e-05
3.733048e-05
3.737389e-05
3.7419093e-05
3.7465357e-05
3.7512236e-05
3.7558973e-05
3.7605121e-05
3.7649951e-05
3.7693063e-05
3.7733792e-05
3.7771823e-05
3.7806586e-05
3.7817656e-05
3.7783481e-05
3.774696e-05
3.7708419e-05
3.7668492e-05
3.7627503e-05
3.7586075e-05
3.7544512e-05
3.7503371e-05
3.7463075e-05
3.7423913e-05
3.7386416e-05
3.7350786e-05
3.7317501e-05
3.7286704e-05
3.7258808e-05
3.7233887e-05
3.7212281e-05
3.7193994e-05
3.7179229e-05
3.7168e-05
3.7160321e-05
3.7156151e-05
3.7155393e-05
3.7157916e-05
3.7163515e-05
3.7171955e-05
3.7182954e-05
3.7196192e-05
3.7211316e-05
3.7227966e-05
3.7245746e-05
3.7264276e-05
3.7267548e-05
3.7258168e-05
3.7251756e-05
3.7248143e-05
3.7247088e-05
3.7248317e-05
3.7251522e-05
3.7256371e-05
3.7262519e-05
3.7269621e-05
3.7277359e-05
3.7285416e-05
3.7293523e-05
3.7301453e-05
3.7309022e-05
3.7316099e-05
3.7322619e-05
3.7328551e-05
3.7333931e-05
3.7338837e-05
3.734339e-05
3.7347743e-05
3.7352091e-05
3.7356617e-05
3.7361538e-05
3.7367061e-05
3.7373381e-05
3.7380682e-05
3.738912e-05
3.7398825e-05
3.7409894e-05
3.7422388e-05
3.7436334e-05
3.7451722e-05
3.7468524e-05
3.7486661e-05
3.7506044e-05
3.7526561e-05
3.7548085e-05
3.7570476e-05
3.7593588e-05
3.7617287e-05
3.7641417e-05
3.7665846e-05
3.7690442e-05
3.7715085e-05
3.7739661e-05
3.7764084e-05
3.7788254e-05
3.78121e-05
3.7835555e-05
3.7858564e-05
3.7881077e-05
3.7903064e-05
3.7924481e-05
3.7945305e-05
3.7965511e-05
3.7985078e-05
3.8003985e-05
3.8022223e-05
3.8039763e-05
3.8056587e-05
3.807267e-05
3.8087984e-05
3.810249e-05
3.8116164e-05
3.8128949e-05
3.8138329e-05
3.7047966e-05
3.7044756e-05
3.7048389e-05
3.7057208e-05
3.707099e-05
3.7089864e-05
3.7113561e-05
3.7142045e-05
3.7174897e-05
3.7211926e-05
3.725256e-05
3.7296462e-05
3.7342933e-05
3.7391526e-05
3.7441456e-05
3.7492218e-05
3.7542995e-05
3.7593281e-05
3.7642284e-05
3.7689546e-05
3.7734348e-05
3.7776322e-05
3.7814853e-05
3.7825898e-05
3.7788069e-05
3.7747888e-05
3.7705725e-05
3.7662253e-05
3.7617834e-05
3.757312e-05
3.7528447e-05
3.7484396e-05
3.7441412e-05
3.7399806e-05
3.7360124e-05
3.7322585e-05
3.7287677e-05
3.7255556e-05
3.7226642e-05
3.7201017e-05
3.7179024e-05
3.7160669e-05
3.7146153e-05
3.7135484e-05
3.712867e-05
3.7125655e-05
3.7126325e-05
3.7130528e-05
3.713803e-05
3.7148565e-05
3.7161815e-05
3.7177418e-05
3.7194977e-05
3.7214086e-05
3.7234301e-05
3.7255194e-05
3.7252038e-05
3.7241837e-05
3.7234872e-05
3.7230959e-05
3.7229827e-05
3.7231173e-05
3.723465e-05
3.7239882e-05
3.7246483e-05
3.7254064e-05
3.7262264e-05
3.7270727e-05
3.7279149e-05
3.7287273e-05
3.7294895e-05
3.7301865e-05
3.7308115e-05
3.7313611e-05
3.7318397e-05
3.7322566e-05
3.7326259e-05
3.7329653e-05
3.7332971e-05
3.7336427e-05
3.7340271e-05
3.7344739e-05
3.7350058e-05
3.7356437e-05
3.7364057e-05
3.7373067e-05
3.7383578e-05
3.7395661e-05
3.7409349e-05
3.742463e-05
3.7441473e-05
3.7459791e-05
3.7479485e-05
3.7500429e-05
3.7522483e-05
3.7545492e-05
3.7569295e-05
3.7593743e-05
3.7618667e-05
3.7643921e-05
3.7669365e-05
3.7694868e-05
3.7720309e-05
3.7745595e-05
3.7770624e-05
3.7795319e-05
3.7819614e-05
3.7843453e-05
3.7866785e-05
3.7889583e-05
3.7911805e-05
3.7933429e-05
3.7954434e-05
3.7974803e-05
3.7994517e-05
3.8013571e-05
3.8031941e-05
3.8049612e-05
3.8066567e-05
3.8082781e-05
3.8098224e-05
3.8112878e-05
3.8126698e-05
3.8137175e-05
3.7006973e-05
3.7001909e-05
3.7004064e-05
3.7011853e-05
3.7025076e-05
3.7043888e-05
3.7068035e-05
3.7097489e-05
3.7131829e-05
3.7170847e-05
3.7213948e-05
3.7260759e-05
3.7310537e-05
3.7362783e-05
3.7416653e-05
3.7471579e-05
3.752668e-05
3.7581381e-05
3.7634827e-05
3.7686496e-05
3.773561e-05
3.7781746e-05
3.7824241e-05
3.7835187e-05
3.7793497e-05
3.7749445e-05
3.7703445e-05
3.7656213e-05
3.760815e-05
3.7559942e-05
3.7511955e-05
3.7464797e-05
3.7418938e-05
3.7374707e-05
3.7332672e-05
3.7293066e-05
3.7256391e-05
3.7222814e-05
3.7192767e-05
3.7166337e-05
3.7143875e-05
3.7125388e-05
3.7111078e-05
3.710095e-05
3.7095002e-05
3.7093168e-05
3.7095316e-05
3.7101271e-05
3.7110773e-05
3.7123521e-05
3.7139157e-05
3.7157278e-05
3.7177436e-05
3.7199175e-05
3.7221999e-05
3.7245425e-05
3.7234711e-05
3.7223736e-05
3.7216296e-05
3.7212184e-05
3.72111e-05
3.7212702e-05
3.72166e-05
3.7222372e-05
3.7229582e-05
3.7237789e-05
3.7246586e-05
3.7255573e-05
3.7264409e-05
3.7272802e-05
3.7280524e-05
3.7287411e-05
3.7293387e-05
3.7298419e-05
3.7302561e-05
3.7305923e-05
3.730867e-05
3.7311008e-05
3.7313192e-05
3.7315473e-05
3.7318135e-05
3.7321451e-05
3.7325681e-05
3.7331066e-05
3.7337811e-05
3.7346086e-05
3.7356019e-05
3.736769e-05
3.7381136e-05
3.7396344e-05
3.7413277e-05
3.7431839e-05
3.7451917e-05
3.7473371e-05
3.7496043e-05
3.751976e-05
3.7544345e-05
3.7569632e-05
3.7595437e-05
3.7621601e-05
3.7647969e-05
3.7674403e-05
3.7700773e-05
3.7726979e-05
3.7752915e-05
3.7778502e-05
3.7803671e-05
3.7828368e-05
3.7852542e-05
3.7876168e-05
3.7899206e-05
3.7921637e-05
3.7943445e-05
3.7964615e-05
3.7985133e-05
3.8004999e-05
3.8024193e-05
3.8042706e-05
3.8060526e-05
3.8077634e-05
3.8094008e-05
3.8109636e-05
3.8124481e-05
3.813604e-05
3.6963473e-05
3.6956485e-05
3.6957105e-05
3.6963826e-05
3.6976482e-05
3.6995255e-05
3.7019913e-05
3.7050436e-05
3.7086398e-05
3.7127578e-05
3.7173353e-05
3.7223312e-05
3.7276661e-05
3.7332843e-05
3.7390949e-05
3.745034e-05
3.7510065e-05
3.7569475e-05
3.7627645e-05
3.7683984e-05
3.7737653e-05
3.7788171e-05
3.7834824e-05
3.7845526e-05
3.7799735e-05
3.7751569e-05
3.7701495e-05
3.7650271e-05
3.7598338e-05
3.7546417e-05
3.7494907e-05
3.7444442e-05
3.7395516e-05
3.7348482e-05
3.7303924e-05
3.7262092e-05
3.7223505e-05
3.7188343e-05
3.7157046e-05
3.7129715e-05
3.7106703e-05
3.7088027e-05
3.7073886e-05
3.7064284e-05
3.7059214e-05
3.7058598e-05
3.7062287e-05
3.7070084e-05
3.70817e-05
3.7096798e-05
3.711498e-05
3.7135793e-05
3.7158738e-05
3.7183302e-05
3.7208929e-05
3.723103e-05
3.7215501e-05
3.72038e-05
3.7195965e-05
3.7191764e-05
3.7190862e-05
3.7192874e-05
3.719736e-05
3.7203845e-05
3.7211835e-05
3.7220835e-05
3.7230383e-05
3.7240029e-05
3.7249389e-05
3.7258135e-05
3.7266014e-05
3.7272844e-05
3.7278541e-05
3.7283077e-05
3.7286517e-05
3.7288991e-05
3.7290693e-05
3.7291863e-05
3.7292793e-05
3.7293776e-05
3.7295136e-05
3.7297187e-05
3.7300227e-05
3.730453e-05
3.7310331e-05
3.7317824e-05
3.7327151e-05
3.7338404e-05
3.7351622e-05
3.7366791e-05
3.7383865e-05
3.7402736e-05
3.7423275e-05
3.7445324e-05
3.7468703e-05
3.7493224e-05
3.7518686e-05
3.7544905e-05
3.757168e-05
3.7598837e-05
3.7626208e-05
3.7653644e-05
3.7681006e-05
3.7708189e-05
3.773508e-05
3.77616e-05
3.7787678e-05
3.781326e-05
3.7838298e-05
3.7862768e-05
3.7886634e-05
3.7909882e-05
3.7932498e-05
3.7954472e-05
3.7975796e-05
3.7996475e-05
3.8016492e-05
3.8035846e-05
3.8054529e-05
3.807253e-05
3.8089832e-05
3.810643e-05
3.8122292e-05
3.8134921e-05
3.6917252e-05
3.6908221e-05
3.6907221e-05
3.6912825e-05
3.6924898e-05
3.6943656e-05
3.6968887e-05
3.7000582e-05
3.7038315e-05
3.7081845e-05
3.7130522e-05
3.7183889e-05
3.7241099e-05
3.7301529e-05
3.7364199e-05
3.7428393e-05
3.749308e-05
3.7557531e-05
3.7620745e-05
3.7682058e-05
3.7740564e-05
3.7795721e-05
3.784676e-05
3.7857022e-05
3.7806873e-05
3.7754338e-05
3.7699933e-05
3.7644466e-05
3.7588417e-05
3.7532547e-05
3.7477285e-05
3.7423295e-05
3.7371096e-05
3.7321062e-05
3.7273798e-05
3.7229571e-05
3.7188916e-05
3.7152026e-05
3.7119357e-05
3.7091017e-05
3.7067371e-05
3.7048439e-05
3.7034426e-05
3.7025336e-05
3.7021155e-05
3.7021797e-05
3.7027096e-05
3.7036833e-05
3.7050688e-05
3.7068289e-05
3.7089192e-05
3.7112892e-05
3.7138834e-05
3.7166441e-05
3.7195094e-05
3.7211034e-05
3.719425e-05
3.718188e-05
3.7173745e-05
3.7169583e-05
3.7169018e-05
3.7171617e-05
3.7176884e-05
3.7184279e-05
3.7193248e-05
3.720323e-05
3.7213702e-05
3.7224159e-05
3.7234167e-05
3.7243361e-05
3.7251458e-05
3.7258258e-05
3.7263669e-05
3.7267669e-05
3.7270338e-05
3.7271831e-05
3.7272374e-05
3.7272246e-05
3.7271784e-05
3.7271327e-05
3.7271247e-05
3.7271904e-05
3.7273638e-05
3.7276762e-05
3.7281542e-05
3.7288198e-05
3.729689e-05
3.730772e-05
3.7320729e-05
3.7335898e-05
3.7353172e-05
3.7372427e-05
3.7393515e-05
3.7416256e-05
3.7440448e-05
3.7465879e-05
3.7492325e-05
3.7519582e-05
3.7547429e-05
3.7575674e-05
3.7604136e-05
3.7632653e-05
3.7661079e-05
3.7689299e-05
3.7717199e-05
3.7744695e-05
3.7771719e-05
3.7798215e-05
3.7824137e-05
3.7849467e-05
3.787417e-05
3.7898239e-05
3.7921663e-05
3.794444e-05
3.7966564e-05
3.7988048e-05
3.8008881e-05
3.8029067e-05
3.8048604e-05
3.8067489e-05
3.8085709e-05
3.8103266e-05
3.8120134e-05
3.8133818e-05
3.6868224e-05
3.6857035e-05
3.6854319e-05
3.6858737e-05
3.6870195e-05
3.6888943e-05
3.69148e-05
3.6947767e-05
3.6987418e-05
3.7033496e-05
3.7085315e-05
3.7142371e-05
3.7203756e-05
3.7268775e-05
3.7336366e-05
3.7405728e-05
3.7475742e-05
3.7545592e-05
3.7614192e-05
3.7680801e-05
3.7744439e-05
3.7804502e-05
3.7860165e-05
3.7869706e-05
3.7814911e-05
3.7757722e-05
3.769871e-05
3.763873e-05
3.7578308e-05
3.751824e-05
3.745899e-05
3.740125e-05
3.7345564e-05
3.729233e-05
3.7242171e-05
3.7195374e-05
3.715249e-05
3.7113729e-05
3.7079559e-05
3.7050102e-05
3.7025733e-05
3.7006481e-05
3.6992558e-05
3.6983966e-05
3.6980692e-05
3.6982639e-05
3.6989628e-05
3.7001415e-05
3.7017653e-05
3.7037928e-05
3.7061749e-05
3.7088557e-05
3.7117732e-05
3.7148629e-05
3.7180553e-05
3.7188652e-05
3.7170832e-05
3.7157856e-05
3.7149524e-05
3.7145542e-05
3.7145488e-05
3.7148874e-05
3.7155136e-05
3.7163668e-05
3.7173839e-05
3.7185017e-05
3.719661e-05
3.720805e-05
3.721885e-05
3.7228599e-05
3.7236981e-05
3.724378e-05
3.7248896e-05
3.7252314e-05
3.7254132e-05
3.7254535e-05
3.7253787e-05
3.7252212e-05
3.72502e-05
3.7248141e-05
3.7246462e-05
3.7245575e-05
3.724587e-05
3.72477e-05
3.7251371e-05
3.7257127e-05
3.7265148e-05
3.7275546e-05
3.7288363e-05
3.7303574e-05
3.7321112e-05
3.7340831e-05
3.7362564e-05
3.7386103e-05
3.741122e-05
3.7437676e-05
3.7465222e-05
3.7493628e-05
3.7522653e-05
3.7552086e-05
3.7581731e-05
3.7611412e-05
3.7640974e-05
3.7670295e-05
3.7699258e-05
3.7727776e-05
3.7755781e-05
3.778322e-05
3.7810049e-05
3.7836253e-05
3.7861805e-05
3.7886699e-05
3.7910934e-05
3.7934511e-05
3.7957433e-05
3.7979716e-05
3.8001358e-05
3.8022368e-05
3.8042752e-05
3.806251e-05
3.8081639e-05
3.8100145e-05
3.8118005e-05
3.8132731e-05
3.68162e-05
3.6802698e-05
3.6798147e-05
3.6801292e-05
3.6812087e-05
3.6830826e-05
3.6857358e-05
3.6891701e-05
3.6933428e-05
3.6982265e-05
3.7037489e-05
3.7098542e-05
3.7164448e-05
3.7234429e-05
3.7307336e-05
3.738227e-05
3.7458015e-05
3.7533661e-05
3.7608029e-05
3.7680293e-05
3.7749395e-05
3.7814663e-05
3.7875215e-05
3.7883673e-05
3.7823923e-05
3.7761772e-05
3.7697853e-05
3.7633071e-05
3.7567997e-05
3.7503465e-05
3.7439973e-05
3.7378241e-05
3.7318841e-05
3.7262192e-05
3.7208937e-05
3.7159385e-05
3.7114102e-05
3.7073314e-05
3.7037507e-05
3.7006816e-05
3.698163e-05
3.6961989e-05
3.6948111e-05
3.6940005e-05
3.6937655e-05
3.6940959e-05
3.6949724e-05
3.6963685e-05
3.6982462e-05
3.7005602e-05
3.7032563e-05
3.7062725e-05
3.7095399e-05
3.7129863e-05
3.716534e-05
3.7163913e-05
3.7145077e-05
3.7131565e-05
3.7123156e-05
3.7119516e-05
3.7120173e-05
3.7124571e-05
3.7132076e-05
3.7141998e-05
3.7153625e-05
3.7166243e-05
3.717918e-05
3.7191798e-05
3.7203547e-05
3.7213969e-05
3.7222714e-05
3.7229542e-05
3.7234349e-05
3.723713e-05
3.7238003e-05
3.7237189e-05
3.7234997e-05
3.7231804e-05
3.7228058e-05
3.7224211e-05
3.7220751e-05
3.7218151e-05
3.7216854e-05
3.7217263e-05
3.7219722e-05
3.7224508e-05
3.7231819e-05
3.7241777e-05
3.7254425e-05
3.7269729e-05
3.7287603e-05
3.7307881e-05
3.7330367e-05
3.7354824e-05
3.7380993e-05
3.7408603e-05
3.7437377e-05
3.7467057e-05
3.7497379e-05
3.752811e-05
3.7559037e-05
3.7589972e-05
3.7620748e-05
3.7651238e-05
3.768132e-05
3.7710907e-05
3.773993e-05
3.7768339e-05
3.7796095e-05
3.7823187e-05
3.7849593e-05
3.7875316e-05
3.7900358e-05
3.792473e-05