/*--------------------------------*- C++ -*----------------------------------*\
| =========                 |                                                 |
| \\      /  F ield         | foam-extend: Open Source CFD                    |
|  \\    /   O peration     | Version:     4.1                                |
|   \\  /    A nd           | Web:         http://www.foam-extend.org         |
|    \\/     M anipulation  |                                                 |
\*---------------------------------------------------------------------------*/
FoamFile
{
    version     2.0;
    format      ascii;
    class       volScalarField;
    location    "0.2";
    object      rAU;
}
// * * * * * * * * * * * * * * * * * * * * * * * * * * * * * * * * * * * * * //

dimensions      [0 0 1 0 0 0 0];

internalField   nonuniform List<scalar> 
16796
(
0.00012751786
0.00012739372
0.00012730228
0.00012721989
0.00012714588
0.00012708189
0.00012702608
0.00012697947
0.00012693979
0.00012690775
0.0001268808
0.00012685941
0.00012684079
0.00012682524
0.00012680983
0.00012679469
0.00012677681
0.00012675627
0.00012673001
0.00012669813
0.0001266576
0.00012660861
0.00012654827
0.00012647691
0.00012639184
0.00012629363
0.00012617986
0.00012605138
0.00012590612
0.00012574528
0.00012556716
0.00012537296
0.00012516293
0.00012493633
0.00012469535
0.00012443925
0.00012417058
0.00012388896
0.00012359722
0.00012329528
0.00012298624
0.00012267032
0.00012235025
0.00012202739
0.00012170363
0.00012138076
0.00012106057
0.00012074493
0.00012043544
0.00012013377
0.00011984148
0.00011956001
0.00011929066
0.00011903475
0.00011879323
0.00011856708
0.00011835709
0.0001181639
0.00011798798
0.00011782981
0.00011768953
0.00011756727
0.00011746305
0.00011737676
0.00011730819
0.00011725705
0.0001172231
0.00011720583
0.00011720484
0.00011720484
0.00011721973
0.00011725036
0.00011729678
0.0001173585
0.000117435
0.00011752561
0.00011762961
0.0001177462
0.00011787469
0.00011801405
0.00011816348
0.00011832201
0.00011848865
0.00011866237
0.00011884208
0.00011902666
0.00011921496
0.0001194058
0.00011959796
0.00011979023
0.0001199815
0.00012017051
0.00012035615
0.00012053734
0.00012071306
0.00012088236
0.00012104434
0.00012119834
0.00012134357
0.00012147949
0.00012160564
0.00012172164
0.00012182718
0.00012192221
0.0001220065
0.00012208009
0.00012214303
0.00012219545
0.00012223747
0.00012226943
0.00012229144
0.00012230382
0.0001223009
0.00012228626
0.00012226317
0.00012223204
0.00012219303
0.00012214647
0.00012209273
0.00012203251
0.00012196693
0.0001218954
0.00012181619
0.000121704
0.0001157281
0.0001156892
0.00011568956
0.00011569927
0.00011571584
0.00011574015
0.00011577028
0.00011580715
0.00011584588
0.0001158818
0.00011592241
0.0001159685
0.00011601782
0.00011607101
0.00011612569
0.00011618234
0.00011623842
0.00011629429
0.00011634731
0.00011639779
0.00011644306
0.00011647475
0.00011649057
0.00011649704
0.00011649182
0.00011647561
0.00011644631
0.00011640486
0.00011634941
0.0001162812
0.00011619868
0.00011610303
0.00011599451
0.00011587241
0.00011573878
0.00011559287
0.00011543702
0.00011527077
0.00011509673
0.00011491468
0.00011472742
0.00011453504
0.00011433998
0.00011414336
0.00011394684
0.00011375197
0.00011356029
0.00011337343
0.00011319279
0.00011301981
0.00011285587
0.00011270221
0.00011255998
0.00011243032
0.00011231409
0.00011221212
0.00011212511
0.00011205364
0.00011199811
0.00011195895
0.00011193626
0.00011193019
0.00011194074
0.00011196779
0.00011201119
0.00011207063
0.00011211735
0.00011217704
0.00011225244
0.00011232955
0.00011242075
0.00011252604
0.00011264487
0.00011277666
0.00011292101
0.00011307749
0.00011324565
0.00011342498
0.00011361511
0.00011381536
0.00011402523
0.0001142441
0.00011447127
0.00011470605
0.00011494765
0.00011519525
0.00011544797
0.0001157049
0.00011596507
0.00011622745
0.00011649115
0.00011675505
0.00011701817
0.00011727953
0.00011753814
0.00011779311
0.00011804353
0.0001182887
0.00011852778
0.00011876015
0.00011898524
0.00011920255
0.00011941165
0.00011961231
0.00011980418
0.00011998713
0.00012016104
0.00012032589
0.00012048165
0.00012062849
0.00012076641
0.00012089555
0.00012101019
0.00012111361
0.0001212089
0.00012129636
0.00012137609
0.00012144833
0.00012151331
0.00012156295
0.00012160258
0.0001216339
0.0001216603
0.00012167416
0.00011473732
0.00011474531
0.00011479149
0.00011484704
0.00011490815
0.00011495932
0.00011501108
0.00011506783
0.00011512476
0.00011517737
0.00011523312
0.00011529292
0.00011535464
0.000115419
0.00011548376
0.00011554954
0.00011561402
0.00011567775
0.00011573834
0.00011579634
0.00011584933
0.0001158893
0.00011590504
0.00011589293
0.00011586776
0.00011583066
0.00011577992
0.00011571692
0.00011564025
0.00011555157
0.00011544973
0.00011533632
0.00011521193
0.0001150762
0.00011493146
0.00011477721
0.000114616
0.00011444752
0.00011427449
0.00011409677
0.00011391718
0.00011373577
0.00011355492
0.00011337567
0.0001131995
0.00011302782
0.00011286196
0.00011270333
0.00011255306
0.00011241236
0.00011228231
0.00011216387
0.0001120579
0.00011196526
0.0001118865
0.00011182219
0.00011177273
0.00011173845
0.00011171949
0.00011171606
0.00011172805
0.0001117554
0.00011179794
0.00011185544
0.00011192289
0.00011196263
0.00011198858
0.00011202653
0.00011207933
0.00011214669
0.00011222839
0.00011232408
0.00011243351
0.00011255622
0.00011269187
0.00011284007
0.00011300041
0.00011317245
0.00011335584
0.00011354996
0.00011375436
0.00011396847
0.00011419166
0.00011442327
0.00011466256
0.00011490876
0.00011516102
0.00011541843
0.00011568005
0.00011594485
0.00011621191
0.00011648009
0.00011674837
0.00011701571
0.00011728109
0.00011754352
0.00011780202
0.00011805583
0.00011830401
0.00011854587
0.00011878074
0.00011900807
0.00011922732
0.00011943821
0.00011964033
0.00011983348
0.00012001751
0.00012019233
0.0001203579
0.00012051437
0.00012066169
0.00012080004
0.00012092955
0.0001210504
0.00012116273
0.00012126682
0.00012136274
0.00012145066
0.00012153063
0.0001215941
0.0001216458
0.00012169049
0.000121715
0.0001217211
0.0001146715
0.00011469889
0.00011475703
0.00011479997
0.00011484787
0.00011488592
0.00011492505
0.00011497003
0.00011501919
0.00011507366
0.00011513157
0.00011519388
0.00011525855
0.00011532638
0.00011539519
0.00011546564
0.00011553543
0.00011560513
0.00011567233
0.00011573756
0.00011579835
0.00011585521
0.00011589651
0.00011588011
0.00011584337
0.00011579395
0.00011573029
0.00011565393
0.00011556362
0.00011546118
0.00011534566
0.00011521878
0.00011508133
0.0001149331
0.00011477657
0.00011461141
0.00011444026
0.00011426298
0.00011408236
0.00011389835
0.00011371384
0.00011352894
0.00011334606
0.00011316624
0.00011299098
0.00011282165
0.00011265956
0.00011250607
0.00011236225
0.00011222924
0.00011210803
0.00011199953
0.00011190447
0.00011182363
0.00011175745
0.00011170641
0.00011167081
0.00011165087
0.00011164664
0.00011165823
0.00011168544
0.00011172812
0.00011178603
0.00011185884
0.00011189666
0.00011189012
0.00011189907
0.00011192334
0.00011196281
0.0001120173
0.00011208655
0.00011217025
0.00011226818
0.00011237988
0.00011250503
0.00011264326
0.0001127942
0.00011295743
0.00011313264
0.00011331926
0.00011351689
0.000113725
0.00011394301
0.00011417031
0.00011440621
0.00011464996
0.00011490074
0.00011515767
0.00011541978
0.00011568606
0.00011595556
0.0001162271
0.00011649962
0.00011677203
0.00011704323
0.00011731217
0.0001175778
0.00011783926
0.00011809554
0.00011834586
0.00011858948
0.00011882575
0.00011905408
0.00011927412
0.00011948539
0.00011968763
0.00011988067
0.00012006436
0.00012023864
0.00012040363
0.00012055928
0.00012070574
0.00012084315
0.00012097169
0.00012109148
0.00012120282
0.00012130576
0.00012140046
0.00012148693
0.00012156497
0.00012163451
0.00012169982
0.00012173801
0.00012174228
0.00011467406
0.00011469822
0.0001147329
0.00011475189
0.0001147762
0.00011480723
0.00011484348
0.00011488632
0.0001149341
0.00011498803
0.00011504626
0.00011510981
0.00011517667
0.00011524767
0.00011532064
0.00011539625
0.0001154722
0.00011554902
0.00011562428
0.00011569844
0.000115769
0.00011583637
0.00011589801
0.00011589662
0.0001158505
0.00011579102
0.0001157167
0.00011562919
0.00011552734
0.00011541309
0.00011528561
0.00011514676
0.00011499743
0.00011483757
0.00011466976
0.0001144938
0.00011431246
0.00011412569
0.00011393639
0.00011374463
0.00011355335
0.00011336276
0.00011317531
0.00011299212
0.00011281471
0.0001126445
0.0001124828
0.00011233098
0.00011219012
0.00011206132
0.00011194557
0.0001118437
0.00011175642
0.00011168445
0.00011162815
0.00011158792
0.00011156399
0.00011155647
0.00011156532
0.00011159056
0.00011163187
0.00011168901
0.00011176164
0.00011184117
0.00011182173
0.00011180081
0.00011179577
0.00011180645
0.00011183277
0.00011187454
0.00011193152
0.00011200341
0.00011209001
0.00011219086
0.00011230568
0.00011243413
0.00011257585
0.00011273046
0.00011289771
0.00011307705
0.00011326815
0.00011347052
0.00011368365
0.00011390697
0.00011413982
0.00011438149
0.00011463119
0.00011488804
0.0001151511
0.0001154193
0.0001156917
0.00011596708
0.00011624431
0.00011652224
0.00011679972
0.00011707562
0.00011734878
0.00011761828
0.00011788303
0.00011814214
0.00011839481
0.00011864031
0.00011887796
0.00011910735
0.00011932795
0.00011953944
0.00011974161
0.00011993428
0.00012011736
0.00012029094
0.00012045496
0.00012060958
0.00012075494
0.0001208912
0.0001210185
0.00012113713
0.00012124715
0.00012134869
0.00012144173
0.00012152612
0.00012160181
0.00012167375
0.00012172809
0.00012174108
0.00011466378
0.00011465799
0.00011466362
0.00011467705
0.0001146966
0.00011472366
0.00011475674
0.00011479722
0.00011484351
0.00011489683
0.00011495539
0.00011502024
0.00011508941
0.00011516375
0.0001152411
0.00011532213
0.00011540452
0.00011548879
0.00011557247
0.00011565597
0.00011573671
0.00011581504
0.00011588834
0.00011591495
0.00011585961
0.00011579018
0.00011570528
0.00011560665
0.00011549326
0.00011536715
0.00011522761
0.00011507662
0.0001149152
0.00011474342
0.000114564
0.00011437683
0.00011418483
0.00011398804
0.00011378949
0.00011358932
0.00011339058
0.00011319356
0.00011300079
0.00011281344
0.00011263309
0.00011246119
0.0001122991
0.00011214819
0.00011200955
0.00011188428
0.00011177333
0.00011167752
0.00011159752
0.00011153396
0.00011148717
0.00011145745
0.00011144494
0.00011144967
0.0001114715
0.00011151032
0.00011156572
0.00011163737
0.00011172477
0.00011178584
0.00011173434
0.00011169893
0.00011167984
0.00011167692
0.00011169011
0.00011171924
0.00011176407
0.00011182429
0.00011189972
0.00011198991
0.00011209459
0.00011221345
0.00011234615
0.00011249236
0.00011265185
0.00011282415
0.00011300897
0.00011320589
0.00011341442
0.00011363407
0.00011386421
0.00011410417
0.00011435318
0.00011461037
0.00011487479
0.00011514537
0.00011542113
0.00011570079
0.00011598319
0.00011626709
0.00011655128
0.00011683453
0.00011711561
0.0001173935
0.00011766702
0.00011793521
0.00011819715
0.00011845206
0.00011869918
0.00011893803
0.00011916802
0.0001193888
0.00011960009
0.0001198017
0.00011999351
0.00012017559
0.0001203479
0.00012051057
0.00012066374
0.00012080761
0.00012094232
0.00012106817
0.00012118524
0.00012129368
0.00012139347
0.00012148456
0.00012156687
0.00012164623
0.00012170662
0.00012172853
0.00011461576
0.00011458552
0.00011458497
0.00011459283
0.00011460756
0.00011463058
0.00011466045
0.00011469859
0.00011474344
0.00011479627
0.00011485535
0.00011492174
0.0001149935
0.00011507151
0.00011515362
0.0001152405
0.00011532981
0.00011542203
0.00011551467
0.00011560807
0.0001156996
0.00011578949
0.00011587505
0.00011593435
0.00011586995
0.00011579067
0.00011569522
0.00011558542
0.00011546036
0.00011532219
0.00011517032
0.00011500686
0.00011483296
0.00011464881
0.00011445725
0.00011425832
0.00011405504
0.0001138476
0.00011363911
0.00011342984
0.00011322292
0.00011301875
0.00011281992
0.00011262768
0.00011244368
0.0001122694
0.00011210624
0.00011195561
0.00011181859
0.00011169629
0.00011158966
0.00011149947
0.00011142635
0.0001113709
0.00011133336
0.00011131396
0.00011131276
0.00011132968
0.00011136448
0.00011141695
0.00011148656
0.00011157285
0.00011167522
0.00011170099
0.00011163453
0.00011158463
0.00011155152
0.00011153509
0.00011153527
0.00011155189
0.00011158472
0.00011163344
0.00011169786
0.00011177757
0.0001118723
0.00011198174
0.00011210562
0.00011224361
0.00011239556
0.00011256104
0.00011273981
0.00011293152
0.00011313574
0.00011335203
0.00011357981
0.00011381844
0.00011406717
0.00011432515
0.00011459141
0.00011486488
0.00011514451
0.000115429
0.0001157171
0.00011600753
0.00011629896
0.00011659008
0.00011687959
0.00011716634
0.00011744908
0.00011772674
0.00011799833
0.00011826297
0.00011851985
0.00011876841
0.00011900799
0.00011923822
0.00011945875
0.00011966939
0.00011986998
0.00012006059
0.00012024116
0.00012041183
0.00012057276
0.00012072414
0.00012086614
0.00012099909
0.00012112308
0.00012123829
0.00012134476
0.00012144251
0.00012153145
0.00012161862
0.00012168605
0.00012171725
0.00011454179
0.0001145053
0.00011449873
0.00011450109
0.00011451101
0.00011453
0.00011455666
0.00011459248
0.00011463594
0.00011468836
0.00011474806
0.00011481614
0.00011489069
0.0001149726
0.00011505974
0.00011515276
0.00011524933
0.00011534989
0.0001154519
0.00011555564
0.0001156584
0.00011576034
0.00011585866
0.0001159479
0.00011588248
0.00011579328
0.00011568715
0.000115566
0.00011542901
0.00011527846
0.00011511389
0.00011493753
0.00011475066
0.00011455361
0.00011434936
0.00011413807
0.00011392289
0.00011370414
0.00011348503
0.00011326597
0.00011305018
0.00011283815
0.00011263257
0.00011243476
0.00011224643
0.00011206914
0.0001119043
0.00011175336
0.00011161744
0.00011149763
0.00011139487
0.00011130992
0.00011124337
0.00011119575
0.00011116726
0.00011115805
0.00011116808
0.00011119717
0.00011124498
0.00011131117
0.00011139511
0.0001114962
0.00011161374
0.00011160449
0.00011152293
0.00011145845
0.0001114113
0.00011138138
0.00011136862
0.00011137285
0.00011139381
0.00011143119
0.00011148478
0.00011155418
0.00011163912
0.00011173932
0.00011185453
0.00011198448
0.00011212906
0.0001122879
0.00011246082
0.00011264754
0.0001128477
0.0001130609
0.00011328663
0.00011352427
0.00011377311
0.0001140323
0.00011430086
0.00011457768
0.00011486169
0.00011515152
0.00011544586
0.00011574332
0.00011604251
0.00011634201
0.0001166404
0.00011693647
0.00011722883
0.00011751634
0.00011779792
0.00011807259
0.00011833946
0.00011859793
0.00011884728
0.00011908706
0.00011931694
0.00011953666
0.00011974605
0.00011994519
0.00012013401
0.00012031266
0.00012048131
0.00012064017
0.00012078944
0.00012092949
0.00012106041
0.00012118243
0.00012129566
0.00012140019
0.00012149593
0.0001215913
0.00012166632
0.00012170677
0.00011445944
0.00011441645
0.00011440376
0.00011440057
0.00011440562
0.00011442051
0.00011444394
0.00011447743
0.00011451955
0.00011457166
0.00011463211
0.00011470207
0.00011477965
0.00011486575
0.00011495827
0.00011505784
0.00011516211
0.00011527149
0.00011538339
0.00011549803
0.00011561262
0.00011572724
0.00011583895
0.00011594774
0.00011589783
0.00011579869
0.00011568176
0.00011554905
0.00011539987
0.00011523661
0.00011505893
0.0001148692
0.00011466883
0.0001144583
0.00011424071
0.00011401639
0.0001137886
0.0001135578
0.00011332733
0.00011309771
0.00011287227
0.00011265162
0.00011243853
0.00011223441
0.00011204103
0.00011186003
0.00011169286
0.00011154101
0.00011140561
0.00011128778
0.00011118845
0.00011110836
0.00011104806
0.00011100804
0.00011098843
0.0001109893
0.00011101053
0.00011105182
0.00011111273
0.00011119279
0.00011129125
0.00011140738
0.00011154034
0.00011149638
0.00011139959
0.00011132047
0.00011125928
0.00011121592
0.00011119032
0.00011118227
0.00011119152
0.0001112177
0.00011126063
0.00011131988
0.00011139519
0.00011148631
0.00011159301
0.00011171506
0.00011185242
0.00011200478
0.00011217203
0.00011235396
0.00011255029
0.00011276067
0.00011298465
0.00011322167
0.00011347101
0.00011373185
0.00011400319
0.00011428389
0.00011457284
0.00011486859
0.00011516975
0.00011547485
0.00011578239
0.00011609085
0.00011639871
0.00011670462
0.00011700711
0.00011730493
0.00011759689
0.00011788196
0.00011815915
0.00011842778
0.0001186871
0.00011893662
0.00011917594
0.00011940481
0.00011962304
0.0001198307
0.00012002773
0.00012021429
0.00012039057
0.00012055681
0.00012071325
0.00012086026
0.00012099802
0.00012112678
0.00012124675
0.00012135806
0.0001214607
0.00012156448
0.00012164732
0.00012169688
0.00011436946
0.0001143199
0.00011430101
0.00011429218
0.00011429227
0.00011430299
0.00011432312
0.00011435425
0.00011439503
0.00011444686
0.00011450816
0.00011458013
0.00011466092
0.00011475146
0.00011484963
0.00011495609
0.00011506845
0.0001151871
0.00011530938
0.00011543545
0.00011556245
0.00011569033
0.00011581608
0.00011593953
0.0001159168
0.00011580762
0.00011567971
0.0001155352
0.00011537349
0.0001151971
0.00011500583
0.00011480219
0.00011458773
0.00011436307
0.00011413147
0.00011389339
0.00011365224
0.00011340862
0.00011316599
0.00011292501
0.00011268913
0.00011245906
0.00011223768
0.00011202647
0.00011182731
0.00011164189
0.00011147173
0.00011131835
0.00011118291
0.00011106657
0.00011097022
0.00011089462
0.00011084027
0.00011080763
0.00011079675
0.00011080762
0.00011084004
0.0001108936
0.00011096773
0.00011106184
0.00011117505
0.00011130647
0.00011145515
0.00011137677
0.00011126458
0.00011117074
0.0001110955
0.00011103876
0.00011100041
0.00011098021
0.00011097788
0.00011099305
0.00011102547
0.00011107473
0.00011114056
0.00011122273
0.00011132104
0.00011143532
0.00011156558
0.00011171157
0.00011187329
0.0001120506
0.00011224328
0.00011245108
0.00011267359
0.0001129103
0.00011316052
0.00011342344
0.00011369804
0.00011398314
0.00011427758
0.00011457983
0.00011488842
0.00011520178
0.00011551828
0.00011583629
0.00011615418
0.00011647048
0.00011678361
0.00011709221
0.00011739499
0.00011769082
0.00011797865
0.00011825774
0.00011852725
0.00011878668
0.00011903559
0.00011927371
0.00011950083
0.00011971704
0.00011992227
0.00012011672
0.00012030059
0.00012047415
0.00012063768
0.00012079161
0.00012093614
0.00012107161
0.00012119827
0.00012131636
0.00012142593
0.00012153824
0.00012162895
0.00012168741
0.00011427159
0.00011421518
0.00011418989
0.00011417525
0.00011417023
0.00011417666
0.0001141934
0.00011422212
0.00011426153
0.00011431312
0.00011437536
0.00011444948
0.00011453369
0.00011462892
0.00011473308
0.00011484682
0.00011496771
0.00011509612
0.00011522934
0.00011536744
0.00011550749
0.00011564933
0.00011578982
0.00011592867
0.00011594005
0.0001158207
0.00011568161
0.00011552499
0.00011535038
0.00011516042
0.00011495503
0.00011473688
0.00011450768
0.00011426819
0.00011402182
0.00011376919
0.00011351386
0.00011325657
0.00011300093
0.00011274773
0.00011250054
0.0001122602
0.00011202969
0.00011181059
0.00011160488
0.0001114143
0.00011124045
0.00011108491
0.00011094887
0.00011083349
0.0001107397
0.00011066822
0.00011061955
0.00011059408
0.00011059182
0.00011061266
0.00011065632
0.00011072226
0.0001108098
0.00011091822
0.00011104647
0.00011119352
0.00011135826
0.00011124569
0.00011111795
0.00011100931
0.00011092002
0.00011084994
0.00011079894
0.00011076673
0.00011075299
0.0001107573
0.00011077938
0.0001108188
0.00011087529
0.00011094863
0.00011103866
0.00011114526
0.00011126849
0.00011140822
0.00011156451
0.00011173731
0.00011192652
0.00011213194
0.00011235324
0.00011258996
0.00011284146
0.00011310689
0.00011338525
0.00011367531
0.00011397584
0.00011428523
0.0001146019
0.00011492418
0.00011525031
0.00011557855
0.00011590711
0.00011623441
0.00011655874
0.00011687863
0.00011719271
0.00011749972
0.00011779855
0.00011808838
0.00011836834
0.00011863785
0.00011889649
0.00011914394
0.00011938
0.00011960476
0.00011981817
0.00012002044
0.00012021182
0.00012039261
0.00012056313
0.00012072386
0.00012087507
0.00012101716
0.00012115045
0.00012127527
0.00012139177
0.00012151262
0.00012161113
0.00012167829
0.00011416618
0.0001141027
0.00011407079
0.00011405013
0.00011403983
0.0001140418
0.000114055
0.00011408121
0.0001141192
0.00011417054
0.00011423376
0.00011431014
0.00011439792
0.00011449808
0.00011460853
0.0001147299
0.00011485976
0.00011499843
0.00011514313
0.00011529388
0.00011544764
0.00011560415
0.00011576013
0.00011591517
0.00011596832
0.00011583865
0.00011568812
0.00011551906
0.0001153311
0.00011512704
0.00011490695
0.00011467364
0.00011442897
0.00011417387
0.00011391192
0.00011364389
0.0001133735
0.00011310164
0.00011283209
0.00011256575
0.00011230635
0.00011205484
0.00011181432
0.00011158649
0.00011137341
0.00011117691
0.00011099866
0.00011084029
0.00011070305
0.00011058813
0.00011049645
0.00011042875
0.00011038548
0.00011036701
0.00011037326
0.00011040408
0.00011045905
0.00011053754
0.00011063872
0.00011076173
0.00011090536
0.00011106842
0.00011124964
0.00011110303
0.00011095957
0.00011083606
0.00011073271
0.00011064937
0.00011058584
0.00011054178
0.0001105168
0.00011051043
0.00011052235
0.00011055208
0.00011059936
0.00011066397
0.0001107458
0.00011084477
0.00011096103
0.00011109454
0.00011124546
0.00011141384
0.00011159969
0.00011180291
0.00011202324
0.00011226027
0.0001125134
0.00011278179
0.00011306441
0.00011336
0.00011366723
0.00011398442
0.00011430988
0.00011464178
0.00011497826
0.00011531741
0.00011565732
0.00011599627
0.00011633241
0.00011666416
0.00011699002
0.00011730866
0.00011761888
0.00011791978
0.00011821045
0.00011849027
0.00011875878
0.00011901567
0.00011926073
0.00011949405
0.00011971562
0.00011992567
0.00012012449
0.00012031242
0.00012048983
0.00012065726
0.00012081503
0.00012096363
0.00012110347
0.00012123493
0.00012135829
0.00012148763
0.00012159384
0.00012166947
0.0001140531
0.00011398221
0.00011394339
0.00011391645
0.00011390062
0.00011389792
0.00011390742
0.00011393098
0.00011396748
0.00011401854
0.00011408277
0.00011416151
0.00011425304
0.00011435837
0.00011447541
0.0001146048
0.00011474409
0.00011489354
0.00011505033
0.00011521439
0.00011538258
0.00011555453
0.00011572684
0.00011589891
0.00011600236
0.00011586219
0.00011569992
0.00011551802
0.00011531623
0.00011509751
0.00011486206
0.00011461285
0.00011435193
0.00011408039
0.00011380196
0.00011351761
0.0001132312
0.00011294382
0.00011265936
0.00011237892
0.00011210633
0.0001118427
0.00011159125
0.0001113538
0.00011113249
0.00011092927
0.00011074588
0.00011058401
0.00011044497
0.00011032997
0.00011023997
0.0001101757
0.00011013758
0.00011012596
0.00011014068
0.00011018151
0.00011024793
0.00011033919
0.00011045431
0.00011059226
0.00011075169
0.00011093122
0.00011112478
0.00011094877
0.00011078942
0.00011065095
0.00011053357
0.00011043705
0.00011036113
0.0001103054
0.00011026937
0.0001102525
0.00011025443
0.00011027463
0.00011031282
0.00011036878
0.00011044245
0.00011053382
0.00011064312
0.0001107704
0.00011091596
0.00011107997
0.00011126254
0.00011146369
0.00011168326
0.00011192089
0.00011217601
0.00011244781
0.00011273523
0.00011303694
0.00011335154
0.00011367724
0.00011401221
0.00011435451
0.0001147021
0.00011505293
0.00011540492
0.00011575622
0.00011610484
0.00011644904
0.00011678723
0.00011711798
0.00011743999
0.00011775231
0.00011805396
0.0001183443
0.00011862285
0.00011888927
0.00011914338
0.00011938527
0.00011961497
0.00011983273
0.00012003889
0.00012023385
0.00012041802
0.00012059202
0.00012075623
0.00012091122
0.00012105746
0.00012119545
0.00012132557
0.00012146329
0.00012157703
0.00012166092
0.00011393255
0.0001138539
0.00011380783
0.00011377431
0.00011375267
0.00011374505
0.00011375062
0.00011377136
0.00011380623
0.00011385694
0.00011392218
0.00011400335
0.00011409877
0.00011420948
0.00011433342
0.00011447121
0.00011462038
0.00011478115
0.00011495065
0.00011512871
0.0001153121
0.00011550031
0.0001156898
0.00011587984
0.00011604298
0.00011589207
0.00011571773
0.00011552253
0.00011530638
0.00011507234
0.00011482082
0.00011455493
0.00011427689
0.00011398799
0.00011369213
0.00011339046
0.00011308703
0.00011278308
0.00011248269
0.00011218709
0.0001119003
0.00011162354
0.00011136018
0.00011111216
0.00011088174
0.00011067096
0.00011048165
0.00011031559
0.00011017412
0.00011005851
0.00010996974
0.00010990855
0.00010987534
0.00010987042
0.00010989358
0.0001099445
0.00011002254
0.00011012684
0.00011025625
0.00011040958
0.00011058528
0.00011078178
0.00011097977
0.0001107827
0.00011060729
0.00011045381
0.00011032243
0.00011021285
0.00011012471
0.0001100575
0.00011001065
0.00010998351
0.00010997564
0.00010998646
0.00011001567
0.00011006306
0.00011012859
0.00011021233
0.00011031462
0.00011043563
0.00011057579
0.0001107354
0.00011091473
0.00011111392
0.00011133289
0.00011157138
0.00011182886
0.00011210452
0.00011239727
0.00011270573
0.00011302839
0.00011336335
0.00011370864
0.00011406215
0.00011442168
0.00011478501
0.00011514988
0.00011551429
0.00011587607
0.00011623338
0.00011658449
0.00011692785
0.00011726209
0.00011758619
0.00011789913
0.00011820022
0.00011848896
0.00011876502
0.00011902823
0.0001192787
0.00011951648
0.00011974189
0.00011995529
0.00012015715
0.00012034795
0.00012052836
0.00012069886
0.00012086007
0.00012101257
0.00012115694
0.00012129366
0.00012143962
0.00012156071
0.00012165262
0.00011380447
0.00011371766
0.00011366397
0.0001136235
0.00011359571
0.00011358286
0.00011358426
0.00011360196
0.00011363504
0.00011368531
0.00011375153
0.00011383517
0.00011393461
0.00011405092
0.00011418206
0.00011432864
0.00011448817
0.00011466084
0.0001148437
0.0001150365
0.00011523589
0.00011544125
0.00011564888
0.00011585788
0.00011606384
0.00011592917
0.00011574236
0.00011553337
0.00011530224
0.00011505219
0.00011478379
0.00011450035
0.00011420426
0.000113897
0.00011358268
0.00011326262
0.00011294106
0.00011261944
0.00011230199
0.00011199014
0.00011168804
0.0001113971
0.0001111208
0.00011086122
0.00011062074
0.00011040152
0.00011020549
0.00011003449
0.00010988995
0.00010977318
0.0001096852
0.00010962675
0.00010959823
0.0001095999
0.00010963151
0.00010969263
0.00010978253
0.00010990019
0.00011004431
0.00011021352
0.00011040606
0.00011062013
0.00011081923
0.00011060471
0.00011041307
0.00011024454
0.00011009921
0.00010997671
0.00010987655
0.00010979812
0.00010974069
0.00010970352
0.00010968606
0.00010968766
0.00010970799
0.00010974684
0.00010980422
0.00010988027
0.00010997546
0.00011009008
0.00011022473
0.00011037988
0.00011055595
0.00011075321
0.00011097173
0.00011121132
0.00011147151
0.00011175149
0.00011205014
0.00011236601
0.00011269748
0.00011304251
0.00011339898
0.00011376459
0.00011413695
0.00011451365
0.00011489226
0.00011527058
0.00011564629
0.0001160174
0.00011638203
0.00011673856
0.0001170855
0.00011742177
0.00011774629
0.00011805836
0.00011835746
0.00011864327
0.00011891562
0.00011917466
0.00011942048
0.00011965344
0.00011987396
0.00012008258
0.00012027984
0.0001204665
0.0001206431
0.00012081035
0.00012096893
0.0001211195
0.00012126264
0.00012141665
0.00012154487
0.00012164457
0.00011366901
0.00011357361
0.00011351184
0.00011346401
0.00011342969
0.00011341126
0.00011340816
0.00011342256
0.00011345365
0.00011350334
0.00011357048
0.00011365661
0.00011376018
0.00011388228
0.0001140209
0.00011417667
0.00011434706
0.00011453221
0.00011472912
0.00011493743
0.00011515368
0.00011537713
0.0001156039
0.00011583293
0.00011606004
0.00011597434
0.00011577464
0.0001155513
0.00011530452
0.00011503768
0.00011475154
0.00011444959
0.00011413444
0.00011380775
0.00011347384
0.00011313425
0.00011279339
0.00011245291
0.00011211723
0.00011178794
0.00011146939
0.00011116312
0.00011087279
0.0001106006
0.00011034909
0.00011012051
0.00010991689
0.0001097402
0.00010959191
0.00010947342
0.00010938576
0.0001093297
0.00010930565
0.00010931382
0.00010935391
0.0001094254
0.00010952743
0.00010965885
0.00010981818
0.00011000384
0.00011021385
0.00011044618
0.00011064682
0.00011041454
0.0001102065
0.00011002289
0.00010986372
0.00010972849
0.00010961658
0.0001095272
0.0001094595
0.00010941258
0.00010938576
0.00010937831
0.00010938986
0.00010942019
0.00010946936
0.00010953761
0.00010962553
0.00010973358
0.00010986254
0.00011001309
0.00011018581
0.00011038115
0.00011059932
0.00011084024
0.00011110347
0.00011138824
0.00011169338
0.00011201736
0.00011235844
0.00011271441
0.00011308298
0.00011346164
0.0001138478
0.00011423883
0.00011463211
0.00011502521
0.00011541567
0.00011580131
0.00011618014
0.00011655039
0.00011691052
0.00011725936
0.0001175958
0.0001179191
0.00011822872
0.00011852437
0.00011880589
0.00011907349
0.00011932728
0.00011956768
0.00011979519
0.0001200104
0.00012021394
0.00012040664
0.00012058913
0.00012076222
0.00012092666
0.00012108321
0.00012123256
0.0001213944
0.00012152953
0.00012163678
0.00011352621
0.00011342171
0.00011335139
0.00011329573
0.00011325443
0.00011323002
0.00011322205
0.00011323284
0.0001132617
0.00011331063
0.0001133786
0.00011346721
0.000113575
0.00011370308
0.0001138495
0.00011401484
0.0001141966
0.00011439485
0.00011460652
0.00011483116
0.00011506521
0.00011530774
0.00011555475
0.00011580495
0.00011605398
0.00011602862
0.00011581553
0.00011557722
0.00011531405
0.00011502957
0.00011472474
0.00011440325
0.00011406792
0.00011372065
0.00011336594
0.00011300557
0.00011264416
0.00011228354
0.00011192836
0.00011158039
0.00011124414
0.00011092136
0.00011061583
0.00011032994
0.00011006634
0.00010982742
0.00010961534
0.00010943215
0.00010927942
0.00010915861
0.00010907081
0.0001090168
0.00010899701
0.00010901161
0.00010906024
0.00010914231
0.00010925682
0.00010940246
0.00010957757
0.00010978034
0.00011000857
0.00011025992
0.00011046231
0.00011021196
0.00010998737
0.00010978869
0.00010961581
0.00010946809
0.00010934473
0.00010924477
0.00010916714
0.00010911078
0.00010907486
0.00010905856
0.00010906141
0.00010908321
0.00010912408
0.00010918435
0.00010926477
0.00010936599
0.00010948901
0.00010963472
0.00010980394
0.0001099973
0.00011021518
0.00011045761
0.00011072423
0.00011101426
0.00011132652
0.00011165935
0.00011201089
0.00011237875
0.00011276042
0.00011315317
0.00011355418
0.00011396057
0.0001143695
0.00011477834
0.00011518441
0.00011558538
0.0001159791
0.0001163637
0.00011673753
0.00011709937
0.00011744804
0.0001177828
0.00011810312
0.00011840869
0.00011869942
0.00011897553
0.0001192372
0.00011948492