/*--------------------------------*- C++ -*----------------------------------*\
| =========                 |                                                 |
| \\      /  F ield         | foam-extend: Open Source CFD                    |
|  \\    /   O peration     | Version:     4.1                                |
|   \\  /    A nd           | Web:         http://www.foam-extend.org         |
|    \\/     M anipulation  |                                                 |
\*---------------------------------------------------------------------------*/
FoamFile
{
    version     2.0;
    format      ascii;
    class       volVectorField;
    location    "0.2";
    object      U;
}
// * * * * * * * * * * * * * * * * * * * * * * * * * * * * * * * * * * * * * //

dimensions      [0 1 -1 0 0 0 0];

internalField   nonuniform List<vector> 
16796
(
(143.32693 -0.0063188496 0)
(143.24176 -0.027681572 0)
(143.18289 -0.022286893 0)
(143.07897 -0.016352022 0)
(142.94438 -0.0071236332 0)
(142.77333 0.0036695529 0)
(142.56811 0.015595363 0)
(142.33068 0.028009916 0)
(142.06437 0.040332258 0)
(141.77326 0.051984397 0)
(141.46215 0.062423813 0)
(141.13644 0.071152605 0)
(140.80202 0.077727287 0)
(140.46515 0.081762031 0)
(140.13238 0.082928698 0)
(139.81045 0.080955204 0)
(139.50623 0.075624237 0)
(139.22664 0.066775385 0)
(138.97857 0.054312733 0)
(138.76883 0.03822364 0)
(138.60404 0.018615447 0)
(138.49046 -0.0042147055 0)
(138.43376 -0.029617783 0)
(138.43866 -0.056076547 0)
(138.50745 -0.080863401 0)
(138.63576 -0.10246896 0)
(138.82053 -0.12153313 0)
(139.05905 -0.13883575 0)
(139.3488 -0.15479118 0)
(139.68718 -0.16958486 0)
(140.07131 -0.18324829 0)
(140.49794 -0.19573057 0)
(140.9634 -0.20694591 0)
(141.46367 -0.2167995 0)
(141.99435 -0.22520307 0)
(142.55075 -0.23208361 0)
(143.12795 -0.23738795 0)
(143.72089 -0.24108572 0)
(144.32437 -0.24317069 0)
(144.93325 -0.24366131 0)
(145.54239 -0.24260059 0)
(146.14686 -0.24005535 0)
(146.74189 -0.23611472 0)
(147.32304 -0.23088856 0)
(147.88621 -0.22450484 0)
(148.42771 -0.21710703 0)
(148.94432 -0.20885087 0)
(149.43331 -0.19990091 0)
(149.89248 -0.19042671 0)
(150.3202 -0.18059894 0)
(150.71536 -0.17058541 0)
(151.07742 -0.16054703 0)
(151.40637 -0.15063397 0)
(151.70269 -0.14098213 0)
(151.96734 -0.1317099 0)
(152.20167 -0.12291551 0)
(152.40737 -0.114675 0)
(152.58643 -0.10704092 0)
(152.74102 -0.10004173 0)
(152.87345 -0.093682144 0)
(152.98607 -0.087944778 0)
(153.08122 -0.082793922 0)
(153.16112 -0.078177939 0)
(153.22784 -0.074025652 0)
(153.28325 -0.070248775 0)
(153.32895 -0.066757528 0)
(153.36629 -0.063472988 0)
(153.39631 -0.060332888 0)
(153.41978 -0.057295561 0)
(153.43722 -0.054340044 0)
(153.44892 -0.051457351 0)
(153.45496 -0.048640439 0)
(153.45521 -0.045867393 0)
(153.44935 -0.043097389 0)
(153.43693 -0.040281945 0)
(153.41738 -0.037376082 0)
(153.39003 -0.034349345 0)
(153.3542 -0.031188176 0)
(153.30919 -0.027895863 0)
(153.25439 -0.024491183 0)
(153.18928 -0.021006399 0)
(153.11348 -0.017484788 0)
(153.02679 -0.013977843 0)
(152.92917 -0.010542362 0)
(152.82079 -0.0072375438 0)
(152.70201 -0.0041222158 0)
(152.57339 -0.0012523342 0)
(152.43566 0.0013211688 0)
(152.28972 0.0035541046 0)
(152.13659 0.0054102807 0)
(151.97742 0.0068622276 0)
(151.81344 0.0078914984 0)
(151.64593 0.0084885102 0)
(151.47621 0.0086519735 0)
(151.3056 0.0083880571 0)
(151.13541 0.0077093172 0)
(150.96692 0.0066335137 0)
(150.80134 0.0051823473 0)
(150.63983 0.0033802814 0)
(150.48348 0.0012534576 0)
(150.33331 -0.0011712924 0)
(150.19024 -0.0038672175 0)
(150.05515 -0.0068082522 0)
(149.9288 -0.009969479 0)
(149.81192 -0.013327373 0)
(149.70514 -0.01685988 0)
(149.60905 -0.020546394 0)
(149.52418 -0.024367548 0)
(149.45101 -0.028304898 0)
(149.38997 -0.032340473 0)
(149.34145 -0.036456006 0)
(149.30581 -0.040631885 0)
(149.28337 -0.04484583 0)
(149.27442 -0.049068891 0)
(149.27921 -0.053261647 0)
(149.29788 -0.057408956 0)
(149.3306 -0.061483956 0)
(149.37749 -0.065409229 0)
(149.43857 -0.069060302 0)
(149.51344 -0.072238455 0)
(149.60137 -0.074432096 0)
(149.70414 -0.074606703 0)
(149.81733 -0.073575667 0)
(149.89101 -0.068260334 0)
(162.52707 0.10687559 0)
(162.20765 0.09920551 0)
(161.93571 0.13767683 0)
(161.59917 0.17408522 0)
(161.23154 0.21215525 0)
(160.8318 0.24783849 0)
(160.40813 0.28024003 0)
(159.96679 0.30840715 0)
(159.51446 0.33175529 0)
(159.05753 0.34983439 0)
(158.60212 0.36232461 0)
(158.15401 0.36900549 0)
(157.71856 0.36974433 0)
(157.30072 0.36448405 0)
(156.90492 0.35323222 0)
(156.53509 0.33605112 0)
(156.19465 0.31304804 0)
(155.88644 0.28436951 0)
(155.61275 0.25019826 0)
(155.37534 0.21075939 0)
(155.17544 0.16633679 0)
(155.0138 0.11731104 0)
(154.89081 0.064253629 0)
(154.80654 0.0082955875 0)
(154.7624 -0.048462253 0)
(154.76449 -0.10431674 0)
(154.81515 -0.15879655 0)
(154.91492 -0.21162165 0)
(155.063 -0.26240313 0)
(155.25757 -0.31070038 0)
(155.49613 -0.35604576 0)
(155.7756 -0.39797386 0)
(156.0924 -0.43604551 0)
(156.44257 -0.46986253 0)
(156.82174 -0.4990799 0)
(157.22529 -0.52341569 0)
(157.64833 -0.54265722 0)
(158.08583 -0.55666665 0)
(158.53264 -0.56538364 0)
(158.98362 -0.56882717 0)
(159.43368 -0.56709512 0)
(159.87786 -0.56036268 0)
(160.31142 -0.54887898 0)
(160.72991 -0.53296268 0)
(161.12919 -0.5129956 0)
(161.50556 -0.48941565 0)
(161.85578 -0.4627081 0)
(162.17708 -0.43339603 0)
(162.46725 -0.40202957 0)
(162.72463 -0.36917447 0)
(162.94813 -0.33540004 0)
(163.13723 -0.30126672 0)
(163.29196 -0.26731358 0)
(163.41287 -0.23404622 0)
(163.50103 -0.20192527 0)
(163.55792 -0.17135596 0)
(163.58542 -0.14267932 0)
(163.58572 -0.11616498 0)
(163.56127 -0.092006059 0)
(163.51466 -0.070316734 0)
(163.44858 -0.051131518 0)
(163.36572 -0.034402772 0)
(163.26868 -0.020006019 0)
(163.15993 -0.0077666072 0)
(163.0417 0.0025308575 0)
(162.91599 0.011145609 0)
(162.78449 0.018372663 0)
(162.64856 0.024526434 0)
(162.5092 0.029923635 0)
(162.36699 0.034869358 0)
(162.22216 0.039649637 0)
(162.07456 0.044521081 0)
(161.92375 0.049703808 0)
(161.76908 0.055379898 0)
(161.60966 0.061691777 0)
(161.44449 0.068738767 0)
(161.27254 0.076570483 0)
(161.09277 0.085186275 0)
(160.90418 0.094537586 0)
(160.70588 0.10453251 0)
(160.4971 0.11504179 0)
(160.27724 0.12590602 0)
(160.0459 0.13694351 0)
(159.80288 0.14795862 0)
(159.54818 0.1587499 0)
(159.28203 0.169118 0)
(159.00488 0.17887276 0)
(158.71735 0.18783941 0)
(158.42025 0.19586355 0)
(158.11455 0.20281487 0)
(157.80135 0.20858947 0)
(157.48183 0.21311096 0)
(157.15727 0.21633022 0)
(156.82897 0.21822416 0)
(156.49828 0.21879351 0)
(156.16651 0.21806 0)
(155.83497 0.21606307 0)
(155.50493 0.21285631 0)
(155.17758 0.20850389 0)
(154.85407 0.20307724 0)
(154.53547 0.19665182 0)
(154.22277 0.1893044 0)
(153.91688 0.18111079 0)
(153.61863 0.17214388 0)
(153.3288 0.16247233 0)
(153.04807 0.15215957 0)
(152.77706 0.14126323 0)
(152.51636 0.12983486 0)
(152.26647 0.11792004 0)
(152.02787 0.10555868 0)
(151.80099 0.092785603 0)
(151.58622 0.079631581 0)
(151.38392 0.066124529 0)
(151.19444 0.052294542 0)
(151.01807 0.038180097 0)
(150.85519 0.023812817 0)
(150.706 0.0092221032 0)
(150.5707 -0.0055189342 0)
(150.44938 -0.020290883 0)
(150.34189 -0.034898775 0)
(150.24806 -0.048665327 0)
(150.16878 -0.060160739 0)
(150.10097 -0.071170625 0)
(150.03444 -0.07739984 0)
(163.79008 0.29367784 0)
(163.33488 0.32838323 0)
(162.97516 0.39235137 0)
(162.55435 0.44962176 0)
(162.11876 0.50387498 0)
(161.66414 0.55135387 0)
(161.19806 0.59133796 0)
(160.72535 0.62300322 0)
(160.25157 0.64592447 0)
(159.78218 0.659822 0)
(159.32259 0.66456887 0)
(158.87811 0.66016351 0)
(158.4538 0.64672384 0)
(158.05445 0.62447887 0)
(157.68444 0.59375892 0)
(157.34774 0.55498474 0)
(157.04777 0.50865348 0)
(156.78741 0.45532722 0)
(156.56894 0.39562014 0)
(156.394 0.33019247 0)
(156.26355 0.25974362 0)
(156.17795 0.18500939 0)
(156.13694 0.10673374 0)
(156.13984 0.025564271 0)
(156.18556 -0.057937649 0)
(156.27302 -0.14253271 0)
(156.4015 -0.22646584 0)
(156.56959 -0.3083436 0)
(156.77535 -0.38708418 0)
(157.0163 -0.4617671 0)
(157.28958 -0.53157199 0)
(157.59194 -0.59574765 0)
(157.91987 -0.65361089 0)
(158.26959 -0.70455381 0)
(158.6371 -0.74805502 0)
(159.01828 -0.78369296 0)
(159.40886 -0.81115472 0)
(159.80457 -0.83024513 0)
(160.2011 -0.84089127 0)
(160.59421 -0.84314581 0)
(160.97981 -0.83718685 0)
(161.35395 -0.82331548 0)
(161.71292 -0.80195094 0)
(162.05333 -0.77362313 0)
(162.37209 -0.73896285 0)
(162.66652 -0.69868995 0)
(162.93433 -0.65359934 0)
(163.1737 -0.60454519 0)
(163.38329 -0.55242346 0)
(163.56222 -0.49815326 0)
(163.71011 -0.4426571 0)
(163.82707 -0.38684068 0)
(163.91364 -0.33157267 0)
(163.97081 -0.27766506 0)
(163.99994 -0.22585456 0)
(164.00275 -0.17678607 0)
(163.98122 -0.13099834 0)
(163.93757 -0.088912899 0)
(163.87415 -0.050826464 0)
(163.7934 -0.016905665 0)
(163.69777 0.012820943 0)
(163.58964 0.038438406 0)
(163.47126 0.060147558 0)
(163.34473 0.07826201 0)
(163.21189 0.093178044 0)
(163.07429 0.10535306 0)
(162.93317 0.1152936 0)
(162.78942 0.12353533 0)
(162.64364 0.13062241 0)
(162.49606 0.13708806 0)
(162.34663 0.14343671 0)
(162.19499 0.15012895 0)
(162.04053 0.15756346 0)
(161.88246 0.16606116 0)
(161.71981 0.17585812 0)
(161.55154 0.18710339 0)
(161.37656 0.1998604 0)
(161.19377 0.21410896 0)
(161.00214 0.22975017 0)
(160.80073 0.24661419 0)
(160.58875 0.26447028 0)
(160.36558 0.2830387 0)
(160.13079 0.30200377 0)
(159.88417 0.32102747 0)
(159.62573 0.33976303 0)
(159.3557 0.35786784 0)
(159.07455 0.37501522 0)
(158.78291 0.39090457 0)
(158.48162 0.40526969 0)
(158.17166 0.41788488 0)
(157.85417 0.42856889 0)
(157.53035 0.43718669 0)
(157.20151 0.44364926 0)
(156.86897 0.44791151 0)
(156.5341 0.44996885 0)
(156.19824 0.44985252 0)
(155.86271 0.44762422 0)
(155.52879 0.44337037 0)
(155.1977 0.43719615 0)
(154.87059 0.42921995 0)
(154.54853 0.41956806 0)
(154.23252 0.40837004 0)
(153.92347 0.39575478 0)
(153.62222 0.38184731 0)
(153.32953 0.36676632 0)
(153.0461 0.35062249 0)
(152.77255 0.3335174 0)
(152.50945 0.31554306 0)
(152.25731 0.29678194 0)
(152.0166 0.27730742 0)
(151.78775 0.25718463 0)
(151.57114 0.23647166 0)
(151.36714 0.2152211 0)
(151.17607 0.19348257 0)
(150.99825 0.17130691 0)
(150.83392 0.14876377 0)
(150.68334 0.12594686 0)
(150.5467 0.10298085 0)
(150.42413 0.080041335 0)
(150.31561 0.057389029 0)
(150.22127 0.035663282 0)
(150.14127 0.015906293 0)
(150.0731 -0.0024779877 0)
(150.02068 -0.015796848 0)
(163.91415 0.52021983 0)
(163.43006 0.59097191 0)
(163.06219 0.67122709 0)
(162.62967 0.74225332 0)
(162.1848 0.80681494 0)
(161.72122 0.8618976 0)
(161.24681 0.90655254 0)
(160.76615 0.93973215 0)
(160.28478 0.960795 0)
(159.80817 0.96931884 0)
(159.34181 0.96511678 0)
(158.89109 0.94821011 0)
(158.46121 0.91881641 0)
(158.05712 0.87733402 0)
(157.68336 0.82432423 0)
(157.34409 0.76049373 0)
(157.04293 0.68667369 0)
(156.78295 0.60380366 0)
(156.56664 0.51291444 0)
(156.39584 0.41512179 0)
(156.27176 0.3116231 0)
(156.19494 0.20371152 0)
(156.16532 0.092791319 0)
(156.18221 -0.019640321 0)
(156.24429 -0.13212153 0)
(156.3498 -0.24329071 0)
(156.49673 -0.35186273 0)
(156.68284 -0.45661878 0)
(156.90557 -0.55641802 0)
(157.16201 -0.6501961 0)
(157.44892 -0.73696769 0)
(157.76277 -0.81582793 0)
(158.09982 -0.88596532 0)
(158.45619 -0.94667258 0)
(158.82783 -0.99735861 0)
(159.21066 -1.0375621 0)
(159.60052 -1.0669602 0)
(159.99331 -1.0853785 0)
(160.38497 -1.0927958 0)
(160.77152 -1.0893477 0)
(161.14915 -1.075327 0)
(161.51423 -1.0511803 0)
(161.86335 -1.0175024 0)
(162.19341 -0.97502668 0)
(162.50158 -0.92461324 0)
(162.78541 -0.86723352 0)
(163.04282 -0.8039524 0)
(163.27215 -0.73590775 0)
(163.47215 -0.66428757 0)
(163.64206 -0.59030561 0)
(163.78153 -0.51517538 0)
(163.89068 -0.44008347 0)
(163.97006 -0.36616288 0)
(164.02063 -0.29446702 0)
(164.04374 -0.22594524 0)
(164.04105 -0.161421 0)
(164.01453 -0.1015733 0)
(163.96635 -0.046922575 0)
(163.89885 0.0021795747 0)
(163.81446 0.04556217 0)
(163.71561 0.083216758 0)
(163.60466 0.11531425 0)
(163.48388 0.14217589 0)
(163.35531 0.16425481 0)
(163.22079 0.18212134 0)
(163.08185 0.19643723 0)
(162.93974 0.20792368 0)
(162.79534 0.21733276 0)
(162.64922 0.22541896 0)
(162.50158 0.23291173 0)
(162.35235 0.24048942 0)
(162.20114 0.24875954 0)
(162.0473 0.25824734 0)
(161.88999 0.26938263 0)
(161.72819 0.28248416 0)
(161.56079 0.29775108 0)
(161.38663 0.31526103 0)
(161.20456 0.3349731 0)
(161.01349 0.35673511 0)
(160.81242 0.38029495 0)
(160.60053 0.40531498 0)
(160.37716 0.43138904 0)
(160.14186 0.45806104 0)
(159.89443 0.48484428 0)
(159.63488 0.51124073 0)
(159.36346 0.53675928 0)
(159.08063 0.56093241 0)
(158.78708 0.58333054 0)
(158.48368 0.60357366 0)
(158.17147 0.62133995 0)
(157.85159 0.63637123 0)
(157.52533 0.64847538 0)
(157.19401 0.65752583 0)
(156.85901 0.66345864 0)
(156.52173 0.66626735 0)
(156.18354 0.66599641 0)
(155.8458 0.66273344 0)
(155.5098 0.65660093 0)
(155.17678 0.64774794 0)
(154.8479 0.63634198 0)
(154.52425 0.62256162 0)
(154.20682 0.60658984 0)
(153.89653 0.58860847 0)
(153.59421 0.56879362 0)
(153.30062 0.5473122 0)
(153.01644 0.52431956 0)
(152.74229 0.49995794 0)
(152.47873 0.47435585 0)
(152.22626 0.44762823 0)
(151.98535 0.4198772 0)
(151.7564 0.39119354 0)
(151.53981 0.36165886 0)
(151.33594 0.33134885 0)
(151.1451 0.30033679 0)
(150.96762 0.26869763 0)
(150.80379 0.23652177 0)
(150.65386 0.2039328 0)
(150.51811 0.17111127 0)
(150.39673 0.13832372 0)
(150.28991 0.10599399 0)
(150.19801 0.074914977 0)
(150.12112 0.046142425 0)
(150.05796 0.020631058 0)
(150.01477 0.0033561047 0)
(164.01231 0.73612429 0)
(163.51653 0.83884725 0)
(163.14593 0.94114179 0)
(162.70647 1.0311956 0)
(162.25428 1.1104341 0)
(161.78215 1.1763538 0)
(161.29858 1.2279326 0)
(160.80829 1.2641559 0)
(160.31705 1.2844067 0)
(159.83046 1.2883298 0)
(159.35417 1.2758471 0)
(158.8937 1.2471357 0)
(158.45437 1.202617 0)
(158.04124 1.14294 0)
(157.65897 1.0689599 0)
(157.31178 0.98171568 0)
(157.00339 0.88239995 0)
(156.73693 0.77233351 0)
(156.51493 0.65293366 0)
(156.33929 0.52569162 0)
(156.21123 0.39214589 0)
(156.13137 0.25386835 0)
(156.09969 0.1124483 0)
(156.11564 -0.030511112 0)
(156.17808 -0.17339291 0)
(156.28544 -0.31444992 0)
(156.43563 -0.45187888 0)
(156.62625 -0.58398616 0)
(156.85448 -0.70925979 0)
(157.11718 -0.82634606 0)
(157.4109 -0.93403757 0)
(157.73196 -1.0312606 0)
(158.07646 -1.1170779 0)
(158.44039 -1.1906925 0)
(158.81959 -1.2514558 0)
(159.20988 -1.2988786 0)
(159.60705 -1.3326388 0)
(160.00692 -1.3525901 0)
(160.40539 -1.3587666 0)
(160.79845 -1.3513865 0)
(161.18224 -1.3308518 0)
(161.5531 -1.2977455 0)
(161.9076 -1.2528256 0)
(162.24258 -1.1970147 0)
(162.55518 -1.1313875 0)
(162.8429 -1.0571539 0)
(163.10362 -0.97563884 0)
(163.33563 -0.88825888 0)
(163.53767 -0.79649562 0)
(163.7089 -0.70186667 0)
(163.84898 -0.60589405 0)
(163.95803 -0.51007137 0)
(164.03659 -0.41583021 0)
(164.08568 -0.32450694 0)
(164.10668 -0.23731085 0)
(164.10134 -0.15529529 0)
(164.07171 -0.079332699 0)
(164.02007 -0.010095453 0)
(163.94888 0.051963793 0)
(163.86067 0.10661272 0)
(163.75801 0.15385676 0)
(163.64338 0.19391236 0)
(163.51915 0.22719212 0)
(163.38748 0.25428785 0)
(163.25028 0.2759422 0)
(163.10916 0.29301488 0)
(162.9654 0.30644825 0)
(162.8199 0.31723137 0)
(162.67323 0.32636309 0)
(162.52558 0.3348163 0)
(162.37679 0.34350299 0)
(162.2264 0.3532415 0)
(162.0737 0.36472967 0)
(161.91774 0.37852644 0)
(161.75741 0.39503951 0)
(161.59151 0.41451806 0)
(161.41878 0.43705146 0)
(161.23799 0.46257381 0)
(161.04796 0.49087395 0)
(160.84765 0.52161052 0)
(160.63615 0.55433108 0)
(160.41279 0.58849449 0)
(160.17709 0.62349532 0)
(159.92882 0.65868927 0)
(159.668 0.69341832 0)
(159.39491 0.72703474 0)
(159.11004 0.75892278 0)
(158.81413 0.78851748 0)
(158.50808 0.81531972 0)
(158.19298 0.83890745 0)
(157.87007 0.85894265 0)
(157.54065 0.87517436 0)
(157.20613 0.88743791 0)
(156.86794 0.89565087 0)
(156.52752 0.89980631 0)
(156.1863 0.89996396 0)
(155.84566 0.89624005 0)
(155.50694 0.8887964 0)
(155.17139 0.87782941 0)
(154.8402 0.86355949 0)
(154.51445 0.8462212 0)
(154.19514 0.82605463 0)
(153.8832 0.80329794 0)
(153.57945 0.77818144 0)
(153.28463 0.75092287 0)
(152.99941 0.72172425 0)
(152.72441 0.69076968 0)
(152.46016 0.65822438 0)
(152.20714 0.62423458 0)
(151.96581 0.5889282 0)
(151.73655 0.55241612 0)
(151.51975 0.51479436 0)
(151.31575 0.47614706 0)
(151.12487 0.43655068 0)
(150.94741 0.39607962 0)
(150.78367 0.35481529 0)
(150.63393 0.3128579 0)
(150.49848 0.27034374 0)
(150.3776 0.22746675 0)
(150.2716 0.18453698 0)
(150.18104 0.14209341 0)
(150.10615 0.10075474 0)
(150.04703 0.061344069 0)
(150.01073 0.027279047 0)
(164.12374 0.97789142 0)
(163.61567 1.1055901 0)
(163.23977 1.2264487 0)
(162.79246 1.3323296 0)
(162.3321 1.4238182 0)
(161.85063 1.498742 0)
(161.35686 1.5559086 0)
(160.85561 1.5941864 0)
(160.35284 1.6128267 0)
(159.85434 1.6113956 0)
(159.36597 1.5897975 0)
(158.89344 1.5482635 0)
(158.4423 1.4873399 0)
(158.01777 1.4078694 0)
(157.62471 1.3109645 0)
(157.26752 1.1979795 0)
(156.95004 1.0704744 0)
(156.67554 0.93018415 0)
(156.44668 0.77898075 0)
(156.26544 0.6188468 0)
(156.13312 0.45184254 0)
(156.05038 0.28008535 0)
(156.01722 0.10571648 0)
(156.03302 -0.069132161 0)
(156.09657 -0.24239399 0)
(156.20616 -0.41209932 0)
(156.35966 -0.57635581 0)
(156.55454 -0.73337795 0)
(156.78792 -0.88151843 0)
(157.0566 -1.0192688 0)
(157.35706 -1.1452704 0)
(157.68553 -1.2583153 0)
(158.03804 -1.3573575 0)
(158.41045 -1.4415195 0)
(158.79853 -1.5101008 0)
(159.19798 -1.5625895 0)
(159.60448 -1.5986682 0)
(160.01375 -1.6182233 0)
(160.42155 -1.6213488 0)
(160.82376 -1.6083503 0)
(161.21643 -1.579745 0)
(161.59576 -1.5362584 0)
(161.95821 -1.4788192 0)
(162.30051 -1.4085477 0)
(162.61972 -1.3267423 0)
(162.91324 -1.2348613 0)
(163.17887 -1.1344994 0)
(163.41484 -1.0273614 0)
(163.61985 -0.91523062 0)
(163.79304 -0.7999341 0)
(163.93408 -0.68330507 0)
(164.04309 -0.56714271 0)
(164.1207 -0.45317107 0)
(164.16797 -0.34299827 0)
(164.18639 -0.23807706 0)
(164.17782 -0.13966921 0)
(164.14445 -0.048814831 0)
(164.0887 0.033692165 0)
(164.01319 0.10732739 0)
(163.92058 0.17184499 0)
(163.81359 0.22727704 0)
(163.69484 0.27391393 0)
(163.56682 0.31229244 0)
(163.4318 0.3431668 0)
(163.29178 0.36747458 0)
(163.14842 0.38629625 0)
(163.00303 0.40081013 0)
(162.85653 0.41224588 0)
(162.70947 0.42183811 0)
(162.562 0.43078211 0)
(162.41392 0.44019348 0)
(162.2647 0.45107327 0)
(162.11352 0.4642777 0)
(161.95933 0.48049274 0)
(161.80093 0.50021596 0)
(161.63698 0.52374656 0)
(161.46611 0.55118353 0)
(161.28698 0.58243144 0)
(161.09832 0.61721338 0)
(160.89899 0.65509013 0)
(160.68803 0.69548438 0)
(160.4647 0.73770911 0)
(160.2285 0.78099836 0)
(159.97918 0.82453919 0)
(159.71678 0.8675034 0)
(159.4416 0.90907758 0)
(159.15417 0.94849034 0)
(158.85527 0.98503568 0)
(158.54589 1.0180918 0)
(158.22719 1.0471348 0)
(157.90045 1.0717472 0)
(157.56709 1.0916216 0)
(157.22857 1.1065588 0)
(156.8864 1.1164632 0)
(156.54208 1.1213334 0)
(156.19709 1.121251 0)
(155.85288 1.1163677 0)
(155.5108 1.1068917 0)
(155.17215 1.0930734 0)
(154.83813 1.0751923 0)
(154.50983 1.0535446 0)
(154.18828 1.0284325 0)
(153.87437 1.0001552 0)
(153.56894 0.96900118 0)
(153.27272 0.93524286 0)
(152.98635 0.89913257 0)
(152.71044 0.86090019 0)
(152.44549 0.82075215 0)
(152.19199 0.77887148 0)
(151.95035 0.73541896 0)
(151.72096 0.69053499 0)
(151.50417 0.64434248 0)
(151.30032 0.59695057 0)
(151.10972 0.5484596 0)
(150.93267 0.49896835 0)
(150.76947 0.4485848 0)
(150.62041 0.39743951 0)
(150.48581 0.34570225 0)
(150.36596 0.29360147 0)
(150.26127 0.24146675 0)
(150.17228 0.18977178 0)
(150.09925 0.13900465 0)
(150.04275 0.089824221 0)
(150.00939 0.043829195 0)
(164.26894 1.2097008 0)
(163.75003 1.3640616 0)
(163.3665 1.5073992 0)
(162.90897 1.6327093 0)
(162.43746 1.7397744 0)
(161.94355 1.8264642 0)
(161.43639 1.8914291 0)
(160.92101 1.9334846 0)
(160.40362 1.951852 0)
(159.89026 1.9461237 0)
(159.38701 1.9162854 0)
(158.89982 1.8627087 0)
(158.43443 1.7861379 0)
(157.99629 1.6876691 0)
(157.59042 1.5687166 0)
(157.22136 1.430978 0)
(156.8931 1.2763872 0)
(156.60901 1.1070726 0)
(156.37181 0.92530599 0)
(156.18354 0.73346402 0)
(156.04558 0.53398244 0)
(155.95859 0.32932837 0)
(155.92263 0.12196583 0)
(155.93711 -0.08566186 0)
(156.00088 -0.29115379 0)
(156.11223 -0.492117 0)
(156.269 -0.68625586 0)
(156.46857 -0.8714245 0)
(156.70795 -1.0456656 0)
(156.9838 -1.2072125 0)
(157.29248 -1.3544977 0)
(157.63007 -1.4861479 0)
(157.9925 -1.6009913 0)
(158.37549 -1.6980601 0)
(158.77467 -1.7765959 0)
(159.18562 -1.8360594 0)
(159.60386 -1.8761343 0)
(160.02498 -1.8967365 0)
(160.44459 -1.8980168 0)
(160.85843 -1.8803658 0)
(161.26237 -1.8444132 0)
(161.65249 -1.7910258 0)
(162.0251 -1.7213022 0)
(162.3768 -1.6365612 0)
(162.70451 -1.5383282 0)
(163.00552 -1.4283154 0)
(163.27753 -1.3083966 0)
(163.51869 -1.1805775 0)
(163.72764 -1.0469601 0)
(163.9035 -0.9097033 0)
(164.04592 -0.77097796 0)
(164.15507 -0.63292011 0)
(164.2316 -0.4975817 0)
(164.27668 -0.36688118 0)
(164.29191 -0.24255553 0)
(164.27929 -0.12611647 0)
(164.24117 -0.018812482 0)
(164.18015 0.078404944 0)
(164.09903 0.16490583 0)
(164.00068 0.24040383 0)
(163.88802 0.30494021 0)
(163.76384 0.35887611 0)
(163.63082 0.40287019 0)
(163.49136 0.43784499 0)
(163.34758 0.46494602 0)
(163.20123 0.48549316 0)
(163.05368 0.500927 0)
(162.90587 0.51275277 0)
(162.75831 0.52248343 0)
(162.61112 0.53158422 0)
(162.46401 0.54142071 0)
(162.31634 0.55321309 0)
(162.16717 0.5679985 0)
(162.01531 0.58660197 0)
(161.85942 0.60961632 0)
(161.698 0.63739127 0)
(161.52956 0.67003209 0)
(161.3526 0.70740732 0)
(161.16573 0.74916496 0)
(160.96772 0.79475638 0)
(160.75751 0.84346612 0)
(160.53431 0.89444677 0)
(160.29756 0.94675676 0)
(160.04703 0.99939947 0)
(159.78275 1.051362 0)
(159.50504 1.1016518 0)
(159.21451 1.1493299 0)
(158.91199 1.193539 0)
(158.59855 1.2335267 0)
(158.27543 1.2686612 0)
(157.94403 1.2984417 0)
(157.60585 1.3225025 0)
(157.26243 1.3406102 0)
(156.91538 1.3526572 0)
(156.56627 1.3586507 0)
(156.21667 1.358698 0)
(155.86806 1.3529911 0)
(155.52186 1.3417891 0)
(155.17938 1.3254012 0)
(154.84187 1.3041706 0)
(154.51043 1.2784593 0)
(154.18608 1.2486351 0)
(153.86973 1.2150604 0)
(153.56218 1.1780832 0)
(153.26416 1.1380304 0)
(152.9763 1.0952031 0)
(152.69916 1.0498734 0)
(152.43325 1.0022835 0)
(152.17901 0.9526454 0)
(151.93683 0.90114213 0)
(151.70709 0.84792966 0)
(151.4901 0.79313996 0)
(151.2862 0.73688475 0)
(151.09567 0.67926041 0)
(150.91883 0.62035479 0)
(150.75596 0.56025657 0)
(150.60738 0.49906765 0)
(150.47343 0.43691855 0)
(150.35447 0.37398772 0)
(150.25098 0.31053566 0)
(150.16357 0.24692372 0)
(150.09259 0.18354653 0)
(150.03886 0.12100578 0)
(150.00825 0.060234384 0)
(164.43625 1.4610186 0)
(163.90355 1.6394167 0)
(163.51028 1.8036035 0)
(163.04064 1.9467584 0)
(162.55611 2.0681696 0)
(162.04787 2.1656247 0)
(161.52534 2.2375714 0)
(160.9937 2.2826862 0)
(160.45943 2.3000765 0)
(159.92883 2.2892794 0)
(159.40826 2.250291 0)
(158.90397 2.183566 0)
(158.42198 2.0900054 0)
(157.96799 1.970934 0)
(157.54726 1.8280613 0)
(157.16457 1.6634407 0)
(156.82407 1.4794134 0)
(156.52931 1.2785593 0)
(156.28311 1.0636353 0)
(156.08762 0.83752717 0)
(155.94424 0.60319092 0)
(155.85366 0.36361181 0)
(155.81592 0.12175137 0)
(155.83037 -0.11948704 0)
(155.89577 -0.35731085 0)
(156.01035 -0.58907048 0)
(156.17182 -0.81225631 0)
(156.37749 -1.0245193 0)
(156.62425 -1.2237045 0)
(156.90866 -1.4078578 0)
(157.22697 -1.5752423 0)
(157.57516 -1.7243383 0)
(157.94899 -1.8538547 0)
(158.34409 -1.9627331 0)
(158.75594 -2.0501529 0)
(159.17995 -2.1155423 0)
(159.61152 -2.1585811 0)
(160.04604 -2.1792103 0)
(160.47899 -2.1776353 0)
(160.90592 -2.1543304 0)
(161.32254 -2.1100401 0)
(161.72476 -2.0457763 0)
(162.10873 -1.9628141 0)
(162.47089 -1.8626801 0)
(162.80801 -1.7471382 0)
(163.11725 -1.6181675 0)
(163.39622 -1.4779357 0)
(163.64296 -1.328765 0)
(163.85606 -1.1730919 0)
(164.0346 -1.0134212 0)
(164.17824 -0.85227476 0)
(164.28718 -0.69213563 0)
(164.36214 -0.53539056 0)
(164.40441 -0.38427124 0)
(164.4157 -0.24079721 0)
(164.39821 -0.10672407 0)
(164.35445 0.016501614 0)
(164.28726 0.12778856 0)
(164.19964 0.22642067 0)
(164.09469 0.31208479 0)
(163.97554 0.38485216 0)
(163.84521 0.44517259 0)
(163.70653 0.49384738 0)
(163.5621 0.53198951 0)
(163.41414 0.56097408 0)
(163.26451 0.58237985 0)
(163.11463 0.59792491 0)
(162.96546 0.60939954 0)
(162.8175 0.61859883 0)
(162.6708 0.62725781 0)
(162.52497 0.6369914 0)
(162.37928 0.6492411 0)
(162.23262 0.66522988 0)
(162.08366 0.68592692 0)
(161.93086 0.7120232 0)
(161.77258 0.7439187 0)
(161.60712 0.78172098 0)
(161.43285 0.82525497 0)
(161.24821 0.8740828 0)
(161.05184 0.92753291 0)
(160.8426 0.98473617 0)
(160.61961 1.0446681 0)
(160.38228 1.1061942 0)
(160.13035 1.1681175 0)
(159.86387 1.2292245 0)
(159.58321 1.2883297 0)
(159.28902 1.3443148 0)
(158.98224 1.3961626 0)
(158.66402 1.4429837 0)
(158.33572 1.4840358 0)
(157.99884 1.518735 0)
(157.65499 1.5466599 0)
(157.30584 1.5675483 0)
(156.95309 1.5812881 0)
(156.5984 1.5879036 0)
(156.24343 1.5875381 0)
(155.88972 1.5804339 0)
(155.53876 1.5669119 0)
(155.1919 1.5473508 0)
(154.85039 1.5221676 0)
(154.51538 1.4917997 0)
(154.18787 1.4566894 0)
(153.86878 1.4172707 0)
(153.5589 1.3739589 0)
(153.25893 1.3271429 0)
(152.96948 1.2771797 0)
(152.69109 1.2243912 0)
(152.42423 1.1690631 0)
(152.16931 1.1114447 0)
(151.9267 1.051751 0)
(151.69673 0.99016428 0)
(151.47971 0.92683826 0)
(151.27594 0.86190167 0)
(151.08569 0.79546356 0)
(150.90924 0.72761975 0)
(150.74689 0.65846107 0)
(150.59894 0.58808308 0)
(150.46574 0.51659693 0)
(150.34765 0.44414145 0)
(150.24516 0.37089994 0)
(150.1589 0.29709429 0)
(150.08925 0.22293492 0)
(150.0371 0.14873454 0)
(150.0078 0.074803077 0)
(164.63446 1.7081379 0)
(164.08782 1.9131181 0)
(163.68299 2.1011141 0)
(163.199 2.2648687 0)
(162.69878 2.4031853 0)
(162.17335 2.5136313 0)
(161.63244 2.5944315 0)
(161.08149 2.6441264 0)
(160.52727 2.6617407 0)
(159.97642 2.6467993 0)
(159.43561 2.5993565 0)
(158.91142 2.5199982 0)
(158.41017 2.4098279 0)
(157.93786 2.2704388 0)
(157.50002 2.1038675 0)
(157.10163 1.9125434 0)
(156.74706 1.6992205 0)
(156.43998 1.4669163 0)
(156.18335 1.2188364 0)
(155.97939 0.95831619 0)
(155.82955 0.68875109 0)
(155.73456 0.41355054 0)
(155.69444 0.13608155 0)
(155.70855 -0.14036259 0)
(155.77559 -0.41259892 0)
(155.89375 -0.67754497 0)
(156.06064 -0.93230577 0)
(156.27344 -1.1741985 0)
(156.52891 -1.4007808 0)
(156.82344 -1.6098551 0)
(157.15313 -1.7994825 0)
(157.5138 -1.9679793 0)
(157.90107 -2.1139263 0)
(158.31038 -2.2361704 0)
(158.73705 -2.3338273 0)
(159.17633 -2.4062913 0)
(159.62343 -2.4532378 0)
(160.07357 -2.4746321 0)
(160.52203 -2.4707329 0)
(160.96418 -2.442098 0)
(161.39554 -2.3895857 0)
(161.81184 -2.3143537 0)
(162.20903 -2.2178556 0)
(162.58338 -2.1018292 0)
(162.93149 -1.9682828 0)
(163.25037 -1.8194722 0)
(163.53748 -1.6578715 0)
(163.79078 -1.4861366 0)
(164.00876 -1.3070597 0)
(164.19047 -1.123518 0)
(164.33556 -0.93841477 0)
(164.44424 -0.75461502 0)
(164.51735 -0.57487827 0)
(164.55624 -0.40178963 0)
(164.56283 -0.23769209 0)
(164.53948 -0.084624934 0)
(164.48895 0.055731256 0)
(164.4143 0.18210885 0)
(164.31881 0.29368743 0)
(164.20587 0.39011252 0)
(164.07886 0.47148485 0)
(163.94106 0.5383497 0)
(163.79555 0.59166485 0)
(163.6451 0.6327543 0)
(163.49212 0.66324991 0)
(163.33857 0.68502259 0)
(163.18594 0.70010631 0)
(163.03521 0.71061844 0)
(162.88685 0.71867937 0)
(162.74083 0.72633499 0)
(162.59667 0.73548494 0)
(162.45345 0.74781943 0)
(162.30992 0.76476655 0)
(162.16452 0.78745164 0)
(162.01553 0.81666954 0)
(161.86108 0.85287037 0)
(161.69927 0.89615879 0)
(161.52827 0.94630622 0)
(161.34637 1.0027751 0)
(161.15203 1.0647537 0)
(160.94401 1.1311997 0)
(160.72133 1.2008901 0)
(160.48337 1.2724755 0)
(160.22983 1.3445366 0)
(159.96079 1.4156385 0)
(159.67667 1.4843835 0)
(159.3782 1.5494574 0)
(159.0664 1.6096689 0)
(158.74256 1.6639814 0)
(158.40816 1.7115344 0)
(158.06484 1.7516569 0)
(157.71433 1.7838705 0)
(157.35844 1.8078856 0)
(156.99899 1.8235894 0)
(156.63776 1.8310289 0)
(156.27649 1.8303896 0)
(155.91682 1.8219716 0)
(155.56027 1.806165 0)
(155.20827 1.7834252 0)
(154.86209 1.7542495 0)
(154.52289 1.7191565 0)
(154.19169 1.6786673 0)
(153.86938 1.6332907 0)
(153.55676 1.5835108 0)
(153.25448 1.5297783 0)
(152.96314 1.4725043 0)
(152.68324 1.4120569 0)
(152.41521 1.3487596 0)
(152.15944 1.282892 0)
(151.91625 1.2146914 0)
(151.68594 1.144356 0)
(151.4688 1.0720482 0)
(151.2651 0.99789959 0)
(151.07508 0.92201637 0)
(150.89902 0.84448617 0)
(150.73721 0.7653866 0)
(150.58994 0.684795 0)
(150.45756 0.60279927 0)
(150.34047 0.51950912 0)
(150.23915 0.43506702 0)
(150.15423 0.34963791 0)
(150.08606 0.26337461 0)
(150.0355 0.17647707 0)
(150.00741 0.089001489 0)
(164.85797 1.9711935 0)
(164.29443 2.2022446 0)
(163.87618 2.4137568 0)
(163.37576 2.597785 0)
(162.85768 2.752773 0)
(162.31275 2.8760032 0)
(161.75099 2.9654382 0)
(161.17812 3.0194239 0)
(160.60124 3.0368482 0)
(160.02735 3.0171742 0)
(159.46351 2.9604741 0)
(158.91668 2.8674368 0)
(158.39355 2.7393527 0)
(157.90047 2.5780829 0)
(157.44329 2.386005 0)
(157.02728 2.1659542 0)
(156.65702 1.9211428 0)
(156.3364 1.655088 0)
(156.06849 1.3715226 0)
(155.85561 1.0743239 0)
(155.69925 0.76742965 0)
(155.60014 0.45477863 0)
(155.55825 0.14023977 0)
(155.57287 -0.17242958 0)
(155.6426 -0.47964432 0)
(155.7655 -0.77802067 0)
(155.93907 -1.0643906 0)
(156.16034 -1.3358155 0)
(156.42594 -1.5896183 0)
(156.73209 -1.8233897 0)
(157.07475 -2.035005 0)
(157.44958 -2.2226228 0)
(157.85201 -2.3846951 0)
(158.27731 -2.5199688 0)
(158.72064 -2.6274892 0)
(159.17705 -2.7066096 0)
(159.64155 -2.7569934 0)
(160.10917 -2.778624 0)
(160.57497 -2.7718087 0)
(161.03414 -2.7371858 0)
(161.48196 -2.6757272 0)
(161.91396 -2.5887384 0)
(162.32588 -2.4778564 0)
(162.71378 -2.3450385 0)
(163.07408 -2.1925486 0)
(163.40362 -2.0229332 0)
(163.69971 -1.83899 0)