/*--------------------------------*- C++ -*----------------------------------*\
| =========                 |                                                 |
| \\      /  F ield         | foam-extend: Open Source CFD                    |
|  \\    /   O peration     | Version:     4.1                                |
|   \\  /    A nd           | Web:         http://www.foam-extend.org         |
|    \\/     M anipulation  |                                                 |
\*---------------------------------------------------------------------------*/
FoamFile
{
    version     2.0;
    format      ascii;
    class       volVectorField;
    location    "0.2";
    object      U;
}
// * * * * * * * * * * * * * * * * * * * * * * * * * * * * * * * * * * * * * //

dimensions      [0 1 -1 0 0 0 0];

internalField   nonuniform List<vector> 
16796
(
(140.91054 -0.058363773 0)
(141.03532 -0.063778935 0)
(141.12743 -0.061553194 0)
(141.21245 -0.058137898 0)
(141.28592 -0.054475068 0)
(141.34798 -0.050986486 0)
(141.39932 -0.04786613 0)
(141.44101 -0.045228833 0)
(141.47444 -0.043153372 0)
(141.50117 -0.041697089 0)
(141.52296 -0.040899307 0)
(141.54168 -0.040790088 0)
(141.55932 -0.041391875 0)
(141.57796 -0.042716702 0)
(141.59971 -0.04476914 0)
(141.62677 -0.047546707 0)
(141.6613 -0.051039086 0)
(141.70547 -0.055228903 0)
(141.7614 -0.060093718 0)
(141.83116 -0.065606839 0)
(141.91671 -0.071736429 0)
(142.01988 -0.078444053 0)
(142.1424 -0.085680823 0)
(142.28581 -0.093386518 0)
(142.45149 -0.10149363 0)
(142.64059 -0.1099279 0)
(142.85404 -0.11860936 0)
(143.09253 -0.12745344 0)
(143.35651 -0.136372 0)
(143.64613 -0.14527425 0)
(143.9613 -0.1540678 0)
(144.30163 -0.16265966 0)
(144.66646 -0.17095769 0)
(145.05487 -0.17887147 0)
(145.46564 -0.18631359 0)
(145.8973 -0.193201 0)
(146.34815 -0.19945591 0)
(146.81625 -0.20500713 0)
(147.29944 -0.20979094 0)
(147.79538 -0.21375223 0)
(148.30158 -0.21684517 0)
(148.81539 -0.2190341 0)
(149.33409 -0.22029392 0)
(149.85486 -0.22061069 0)
(150.37487 -0.21998167 0)
(150.89127 -0.21841548 0)
(151.40125 -0.21593184 0)
(151.90205 -0.21256123 0)
(152.39101 -0.20834429 0)
(152.86563 -0.20333103 0)
(153.32351 -0.19757982 0)
(153.76248 -0.19115625 0)
(154.18055 -0.18413174 0)
(154.57597 -0.17658209 0)
(154.94719 -0.16858585 0)
(155.29294 -0.16022266 0)
(155.61219 -0.15157148 0)
(155.90415 -0.14270892 0)
(156.16829 -0.13370756 0)
(156.40427 -0.12463442 0)
(156.61202 -0.11554943 0)
(156.79163 -0.1065057 0)
(156.94338 -0.097545623 0)
(157.0677 -0.088703436 0)
(157.16515 -0.07999964 0)
(157.23636 -0.071440563 0)
(157.28205 -0.06299813 0)
(157.30295 -0.054610346 0)
(157.29979 -0.046172638 0)
(157.27341 -0.037514786 0)
(157.2233 -0.02869208 0)
(157.14984 -0.019959467 0)
(157.05375 -0.011492553 0)
(156.93587 -0.0033778355 0)
(156.79715 0.0043397827 0)
(156.63857 0.011633317 0)
(156.46116 0.018483479 0)
(156.26599 0.024872919 0)
(156.0542 0.030783206 0)
(155.82696 0.03619366 0)
(155.58553 0.041081291 0)
(155.33126 0.045421484 0)
(155.06557 0.049189141 0)
(154.78998 0.052360068 0)
(154.50607 0.054912485 0)
(154.21552 0.056828509 0)
(153.92006 0.058095524 0)
(153.62147 0.058707339 0)
(153.32157 0.05866508 0)
(153.02216 0.057977744 0)
(152.72503 0.056662419 0)
(152.43195 0.054744174 0)
(152.14459 0.052255619 0)
(151.86457 0.04923617 0)
(151.59338 0.045731094 0)
(151.3324 0.041790371 0)
(151.08288 0.037467443 0)
(150.84591 0.032817901 0)
(150.62244 0.02789819 0)
(150.41329 0.022764383 0)
(150.21908 0.017471027 0)
(150.04034 0.012070148 0)
(149.87742 0.0066104267 0)
(149.73058 0.0011365354 0)
(149.59993 -0.0043113035 0)
(149.48549 -0.0096975525 0)
(149.38721 -0.014991446 0)
(149.30494 -0.0201668 0)
(149.23849 -0.025201622 0)
(149.18761 -0.030078104 0)
(149.15203 -0.034779754 0)
(149.13144 -0.039287591 0)
(149.12556 -0.043581049 0)
(149.13396 -0.047666101 0)
(149.15632 -0.05155024 0)
(149.19241 -0.055211353 0)
(149.24189 -0.05860586 0)
(149.30438 -0.061661944 0)
(149.37937 -0.064222846 0)
(149.46703 -0.065964312 0)
(149.5675 -0.066549009 0)
(149.68025 -0.066825594 0)
(149.78934 -0.065148431 0)
(149.87308 -0.052039456 0)
(160.31205 -0.065317703 0)
(160.29516 -0.069158254 0)
(160.26687 -0.06066244 0)
(160.22862 -0.049532988 0)
(160.17945 -0.037760871 0)
(160.11961 -0.026320923 0)
(160.0497 -0.015718495 0)
(159.97063 -0.0062726416 0)
(159.88356 0.0017889012 0)
(159.78982 0.008284686 0)
(159.6908 0.013048628 0)
(159.58815 0.015941477 0)
(159.48359 0.016851425 0)
(159.37897 0.015687431 0)
(159.27623 0.012383922 0)
(159.17734 0.0069021796 0)
(159.08435 -0.00077055389 0)
(158.99928 -0.010619173 0)
(158.92416 -0.022600279 0)
(158.86098 -0.036640598 0)
(158.81166 -0.05263694 0)
(158.77806 -0.070452846 0)
(158.7618 -0.089930443 0)
(158.76435 -0.11089822 0)
(158.78704 -0.13316559 0)
(158.83102 -0.15652144 0)
(158.89724 -0.18073737 0)
(158.98643 -0.20556805 0)
(159.0991 -0.23075562 0)
(159.23548 -0.2560314 0)
(159.39557 -0.2811203 0)
(159.57911 -0.30574328 0)
(159.78557 -0.32962167 0)
(160.01413 -0.35248021 0)
(160.26374 -0.37405057 0)
(160.53309 -0.39407557 0)
(160.82059 -0.41231198 0)
(161.12447 -0.42853468 0)
(161.4427 -0.44253921 0)
(161.77309 -0.45414539 0)
(162.11325 -0.46319961 0)
(162.46067 -0.46957751 0)
(162.81271 -0.47318573 0)
(163.16666 -0.4739637 0)
(163.51974 -0.4718845 0)
(163.86916 -0.46695545 0)
(164.21214 -0.45921809 0)
(164.54595 -0.44874754 0)
(164.86793 -0.43565121 0)
(165.17556 -0.420067 0)
(165.46644 -0.40216081 0)
(165.73834 -0.38212346 0)
(165.98924 -0.36016711 0)
(166.2173 -0.33652116 0)
(166.42096 -0.31142768 0)
(166.59885 -0.28513659 0)
(166.7499 -0.25790064 0)
(166.87325 -0.22997026 0)
(166.9683 -0.20158866 0)
(167.0347 -0.172987 0)
(167.0723 -0.14438003 0)
(167.08119 -0.11596506 0)
(167.06163 -0.087919276 0)
(167.01407 -0.060394063 0)
(166.93907 -0.033506788 0)
(166.83735 -0.0073456946 0)
(166.70968 0.01804762 0)
(166.55686 0.042637871 0)
(166.37976 0.066466551 0)
(166.17925 0.089672095 0)
(165.95755 0.11229092 0)
(165.71596 0.13419515 0)
(165.45541 0.15528772 0)
(165.17666 0.17551914 0)
(164.88042 0.19485782 0)
(164.56738 0.21327408 0)
(164.23823 0.23073252 0)
(163.89371 0.24718768 0)
(163.53459 0.26258223 0)
(163.16173 0.27684717 0)
(162.77606 0.28990345 0)
(162.3786 0.30166488 0)
(161.97046 0.31204184 0)
(161.55286 0.32094559 0)
(161.12711 0.32829277 0)
(160.69461 0.33400983 0)
(160.25684 0.33803713 0)
(159.81533 0.34033245 0)
(159.37167 0.34087381 0)
(158.92747 0.33966126 0)
(158.48434 0.33671788 0)
(158.04385 0.33208966 0)
(157.60757 0.32584459 0)
(157.17697 0.31807087 0)
(156.75345 0.30887441 0)
(156.33832 0.29837588 0)
(155.93276 0.28670727 0)
(155.53784 0.27400836 0)
(155.15451 0.26042305 0)
(154.78357 0.24609593 0)
(154.4257 0.23116888 0)
(154.08146 0.21577816 0)
(153.75126 0.20005181 0)
(153.43543 0.18410746 0)
(153.13417 0.16805071 0)
(152.84759 0.15197394 0)
(152.57573 0.13595563 0)
(152.31855 0.12006013 0)
(152.07595 0.10433818 0)
(151.84779 0.088826755 0)
(151.6339 0.073551954 0)
(151.43409 0.058534585 0)
(151.24814 0.043790771 0)
(151.07597 0.029318706 0)
(150.91737 0.015098746 0)
(150.77212 0.0011238721 0)
(150.63994 -0.012600161 0)
(150.5205 -0.026033194 0)
(150.41347 -0.038982321 0)
(150.31911 -0.050963474 0)
(150.23719 -0.061627567 0)
(150.16721 -0.073717063 0)
(150.1002 -0.082668842 0)
(150.03253 -0.071883455 0)
(161.98098 -0.038068543 0)
(161.88788 -0.029139484 0)
(161.79609 -0.013422913 0)
(161.69481 0.0042275259 0)
(161.58614 0.022115475 0)
(161.47136 0.039206082 0)
(161.35165 0.054841783 0)
(161.22823 0.068567694 0)
(161.10245 0.080040271 0)
(160.97578 0.088981858 0)
(160.84984 0.095158191 0)
(160.72621 0.098367041 0)
(160.60654 0.09844796 0)
(160.4925 0.095275709 0)
(160.38571 0.088761473 0)
(160.28782 0.07885633 0)
(160.20039 0.065550199 0)
(160.12496 0.048873082 0)
(160.06297 0.028896683 0)
(160.01578 0.0057376731 0)
(159.98463 -0.020445982 0)
(159.97062 -0.049451239 0)
(159.97485 -0.081033563 0)
(159.99826 -0.11492165 0)
(160.04161 -0.15081071 0)
(160.10551 -0.18836553 0)
(160.19034 -0.22722325 0)
(160.29633 -0.26699507 0)
(160.42348 -0.30727234 0)
(160.57161 -0.34762924 0)
(160.74029 -0.38762961 0)
(160.92894 -0.42683065 0)
(161.13671 -0.46478954 0)
(161.36259 -0.50106854 0)
(161.60535 -0.53524015 0)
(161.86357 -0.56689404 0)
(162.13564 -0.59564141 0)
(162.4198 -0.62112172 0)
(162.71413 -0.64300685 0)
(163.01655 -0.66100703 0)
(163.32489 -0.67487455 0)
(163.63687 -0.68440839 0)
(163.95015 -0.6894571 0)
(164.26233 -0.68992181 0)
(164.571 -0.68575792 0)
(164.87374 -0.67697618 0)
(165.16818 -0.66364276 0)
(165.45201 -0.64587836 0)
(165.723 -0.62385629 0)
(165.97906 -0.59779954 0)
(166.2182 -0.56797686 0)
(166.43861 -0.53469776 0)
(166.63868 -0.49830667 0)
(166.81695 -0.45917625 0)
(166.97222 -0.4176999 0)
(167.10347 -0.37428387 0)
(167.2099 -0.329339 0)
(167.29095 -0.28327223 0)
(167.34624 -0.23647862 0)
(167.37562 -0.18933319 0)
(167.3791 -0.14218304 0)
(167.35687 -0.095351792 0)
(167.3093 -0.049132086 0)
(167.23686 -0.0037620371 0)
(167.1401 0.040568384 0)
(167.01968 0.083713458 0)
(166.87628 0.12553058 0)
(166.71067 0.16594581 0)
(166.52365 0.20490068 0)
(166.31593 0.24235263 0)
(166.0882 0.27833856 0)
(165.84113 0.31295161 0)
(165.5754 0.34624333 0)
(165.29167 0.37822796 0)
(164.99059 0.40889703 0)
(164.6728 0.43822177 0)
(164.33897 0.46615136 0)
(163.9898 0.49261165 0)
(163.62607 0.51750521 0)
(163.2486 0.54071322 0)
(162.85831 0.56209902 0)
(162.4562 0.58151331 0)
(162.04339 0.59880054 0)
(161.62108 0.61380611 0)
(161.1906 0.62638388 0)
(160.75335 0.63640356 0)
(160.31082 0.64375753 0)
(159.86456 0.64836662 0)
(159.41618 0.65018478 0)
(158.9673 0.64920216 0)
(158.51954 0.64544663 0)
(158.07453 0.63898383 0)
(157.63382 0.62991556 0)
(157.19892 0.61837699 0)
(156.77124 0.60453265 0)
(156.3521 0.58857158 0)
(155.9427 0.57070189 0)
(155.54413 0.551145 0)
(155.15732 0.53012976 0)
(154.78308 0.50788684 0)
(154.42211 0.4846434 0)
(154.07495 0.46061821 0)
(153.74202 0.43601754 0)
(153.42363 0.41103161 0)
(153.11997 0.38583182 0)
(152.83116 0.36056876 0)
(152.55722 0.33537094 0)
(152.29809 0.31034413 0)
(152.05368 0.28557162 0)
(151.82383 0.26111452 0)
(151.60836 0.23701318 0)
(151.40707 0.21328996 0)
(151.21974 0.18995189 0)
(151.04615 0.16700153 0)
(150.88609 0.14443715 0)
(150.73935 0.12224507 0)
(150.6057 0.10040422 0)
(150.48488 0.078919804 0)
(150.37673 0.057935819 0)
(150.28155 0.037790769 0)
(150.19855 0.018525216 0)
(150.12751 -0.0038802094 0)
(150.06558 -0.021810592 0)
(150.01797 -0.025931289 0)
(162.11363 0.021833003 0)
(162.00402 0.042972843 0)
(161.90285 0.064937638 0)
(161.79227 0.086776159 0)
(161.67471 0.10762771 0)
(161.55163 0.12671133 0)
(161.42437 0.14343176 0)
(161.29424 0.15731255 0)
(161.16262 0.16796742 0)
(161.03095 0.17508063 0)
(160.90074 0.17839669 0)
(160.77353 0.1777111 0)
(160.65092 0.17286577 0)
(160.53455 0.16375249 0)
(160.42601 0.15031227 0)
(160.32693 0.1325353 0)
(160.23887 0.11046244 0)
(160.16337 0.084185231 0)
(160.10186 0.053844353 0)
(160.05571 0.019631432 0)
(160.02618 -0.018217335 0)
(160.01439 -0.059428163 0)
(160.02134 -0.10367873 0)
(160.04787 -0.15059694 0)
(160.09465 -0.19977637 0)
(160.16219 -0.25076862 0)
(160.25082 -0.30309531 0)
(160.36064 -0.35624884 0)
(160.49159 -0.40970007 0)
(160.64339 -0.46290225 0)
(160.81553 -0.51529842 0)
(161.00735 -0.56632621 0)
(161.21793 -0.61542566 0)
(161.44621 -0.66204548 0)
(161.6909 -0.70564917 0)
(161.95054 -0.74572348 0)
(162.22351 -0.7817837 0)
(162.50804 -0.81338191 0)
(162.80219 -0.84011216 0)
(163.10394 -0.86161787 0)
(163.41113 -0.87759645 0)
(163.72153 -0.88780525 0)
(164.03284 -0.89206526 0)
(164.34272 -0.89026503 0)
(164.64882 -0.88236293 0)
(164.94881 -0.86838865 0)
(165.24036 -0.84844341 0)
(165.52122 -0.82269895 0)
(165.78924 -0.79139504 0)
(166.04234 -0.75483587 0)
(166.27861 -0.71338479 0)
(166.49627 -0.66745796 0)
(166.69372 -0.61751651 0)
(166.86954 -0.56405771 0)
(167.02251 -0.50760499 0)
(167.15163 -0.44869739 0)
(167.25611 -0.38787835 0)
(167.33536 -0.32568432 0)
(167.389 -0.26263421 0)
(167.41687 -0.19921684 0)
(167.41897 -0.13588301 0)
(167.3955 -0.07305878 0)
(167.34679 -0.011109471 0)
(167.2733 0.049677783 0)
(167.17561 0.10907594 0)
(167.05432 0.16689572 0)
(166.91012 0.22303941 0)
(166.74373 0.27744475 0)
(166.55586 0.33007638 0)
(166.34725 0.3809056 0)
(166.11857 0.42993291 0)
(165.87052 0.4771889 0)
(165.60377 0.52269564 0)
(165.31897 0.56645814 0)
(165.01675 0.60846139 0)
(164.69775 0.64866469 0)
(164.36263 0.68699646 0)
(164.01207 0.72335124 0)
(163.64682 0.75758952 0)
(163.26769 0.78954038 0)
(162.87559 0.81900668 0)
(162.47152 0.84577272 0)
(162.05659 0.86961339 0)
(161.63203 0.89030462 0)
(161.19915 0.90763415 0)
(160.75938 0.92141215 0)
(160.31423 0.93148094 0)
(159.86529 0.93772334 0)
(159.41418 0.94006924 0)
(158.96257 0.93850004 0)
(158.51212 0.93305084 0)
(158.06447 0.92381042 0)
(157.62122 0.91091902 0)
(157.18389 0.89456432 0)
(156.75393 0.87497573 0)
(156.33268 0.85241755 0)
(155.92135 0.82718124 0)
(155.52104 0.79957727 0)
(155.13269 0.76992686 0)
(154.75713 0.73855405 0)
(154.39503 0.70577819 0)
(154.04694 0.6719072 0)
(153.71327 0.63723178 0)
(153.39433 0.60202057 0)
(153.09028 0.56651631 0)
(152.80124 0.53093329 0)
(152.52721 0.49545564 0)
(152.26812 0.46023671 0)
(152.02385 0.4253995 0)
(151.79424 0.39103772 0)
(151.5791 0.35721842 0)
(151.37822 0.32398445 0)
(151.19136 0.29135794 0)
(151.01832 0.25935205 0)
(150.85886 0.22797943 0)
(150.71281 0.19725464 0)
(150.57991 0.16720408 0)
(150.46 0.13791042 0)
(150.35299 0.10960041 0)
(150.2591 0.082618161 0)
(150.17726 0.05707653 0)
(150.10779 0.028643217 0)
(150.0509 0.0084931087 0)
(150.0126 -0.001658888 0)
(162.15553 0.070745138 0)
(162.04233 0.10169645 0)
(161.93986 0.13113572 0)
(161.8278 0.15903609 0)
(161.70843 0.18491954 0)
(161.58322 0.20816591 0)
(161.45352 0.22819521 0)
(161.3207 0.24450508 0)
(161.18617 0.25666166 0)
(161.05141 0.26429341 0)
(160.91795 0.26709188 0)
(160.78736 0.26480735 0)
(160.66129 0.257247 0)
(160.54139 0.24427798 0)
(160.4293 0.22582895 0)
(160.32668 0.20189152 0)
(160.23515 0.17252169 0)
(160.15628 0.13784106 0)
(160.09154 0.09803663 0)
(160.04237 0.053361456 0)
(160.01005 0.0041340295 0)
(159.99575 -0.049279232 0)
(160.00051 -0.10645909 0)
(160.0252 -0.16692376 0)
(160.07051 -0.23014287 0)
(160.13697 -0.29553414 0)
(160.22491 -0.36248072 0)
(160.33446 -0.43033084 0)
(160.46555 -0.49840872 0)
(160.6179 -0.56601907 0)
(160.79101 -0.63245676 0)
(160.98418 -0.69701287 0)
(161.19651 -0.75898432 0)
(161.4269 -0.81768152 0)
(161.67404 -0.87243577 0)
(161.93647 -0.92260948 0)
(162.21252 -0.96760228 0)
(162.50041 -1.006861 0)
(162.79816 -1.0398856 0)
(163.10372 -1.0662379 0)
(163.41489 -1.0855473 0)
(163.72941 -1.0975174 0)
(164.04495 -1.101931 0)
(164.35913 -1.0986544 0)
(164.66955 -1.0876403 0)
(164.97384 -1.0689303 0)
(165.26963 -1.0426544 0)
(165.55464 -1.009031 0)
(165.82665 -0.96836342 0)
(166.08356 -0.92103616 0)
(166.3234 -0.86750852 0)
(166.54436 -0.80830705 0)
(166.74481 -0.74401606 0)
(166.92329 -0.67526679 0)
(167.07857 -0.60272502 0)
(167.20963 -0.52707791 0)
(167.31567 -0.44901986 0)
(167.39609 -0.36923791 0)
(167.45054 -0.28839897 0)
(167.47886 -0.20712975 0)
(167.48108 -0.12602119 0)
(167.45743 -0.045624953 0)
(167.40828 0.033598792 0)
(167.33413 0.11127319 0)
(167.23559 0.1870943 0)
(167.1133 0.26082829 0)
(166.96801 0.33232619 0)
(166.80045 0.40150556 0)
(166.61139 0.46833847 0)
(166.40156 0.53283491 0)
(166.17168 0.59503722 0)
(165.92241 0.65500486 0)
(165.65443 0.7127885 0)
(165.36835 0.76841548 0)
(165.06479 0.82188139 0)
(164.74437 0.87314287 0)
(164.40771 0.92211194 0)
(164.05547 0.96865307 0)
(163.68837 1.0125838 0)
(163.30721 1.0536786 0)
(162.91287 1.0916763 0)
(162.50634 1.1262905 0)
(162.08875 1.1572212 0)
(161.6613 1.1841694 0)
(161.22535 1.2068513 0)
(160.78234 1.2250117 0)
(160.33381 1.2384377 0)
(159.88138 1.246969 0)
(159.42672 1.2505072 0)
(158.97154 1.2490209 0)
(158.51755 1.2425491 0)
(158.06642 1.2312008 0)
(157.6198 1.2151523 0)
(157.17926 1.1946414 0)
(156.74626 1.1699606 0)
(156.32219 1.1414474 0)
(155.90826 1.1094746 0)
(155.5056 1.0744395 0)
(155.11516 1.0367533 0)
(154.73777 0.99683031 0)
(154.3741 0.95507882 0)
(154.02469 0.91189187 0)
(153.68994 0.86763989 0)
(153.37014 0.82266437 0)
(153.06546 0.77727286 0)
(152.77598 0.73173554 0)
(152.50168 0.68628293 0)
(152.24247 0.64110505 0)
(151.99823 0.59635179 0)
(151.76877 0.55213447 0)
(151.55388 0.50852829 0)
(151.35333 0.46557569 0)
(151.16688 0.42329112 0)
(150.99432 0.3816693 0)
(150.83541 0.34069298 0)
(150.68999 0.3003399 0)
(150.55783 0.26059993 0)
(150.43883 0.22152081 0)
(150.33299 0.18326106 0)
(150.24052 0.14602468 0)
(150.16036 0.10991828 0)
(150.09371 0.069931133 0)
(150.04208 0.039952501 0)
(150.00989 0.017068162 0)
(162.20448 0.13284975 0)
(162.08822 0.17106642 0)
(161.98427 0.20656412 0)
(161.87067 0.23938378 0)
(161.74944 0.26914678 0)
(161.622 0.29531303 0)
(161.4897 0.31733081 0)
(161.35394 0.33468189 0)
(161.21618 0.34690353 0)
(161.07792 0.35359348 0)
(160.94075 0.3544134 0)
(160.80628 0.3490902 0)
(160.67619 0.33741837 0)
(160.55217 0.31926281 0)
(160.43592 0.29456122 0)
(160.32915 0.26332665 0)
(160.23351 0.22564849 0)
(160.15062 0.18169384 0)
(160.08203 0.13170657 0)
(160.02918 0.076005289 0)
(159.99343 0.014988716 0)
(159.976 -0.050883909 0)
(159.97795 -0.12109447 0)
(160.0002 -0.1950514 0)
(160.04348 -0.27211516 0)
(160.10835 -0.35158983 0)
(160.19517 -0.4327348 0)
(160.30408 -0.51477178 0)
(160.43504 -0.59689389 0)
(160.58778 -0.6782734 0)
(160.7618 -0.75807238 0)
(160.95642 -0.83544984 0)
(161.17072 -0.90957317 0)
(161.40358 -0.97962699 0)
(161.65371 -1.0448217 0)
(161.91959 -1.1044056 0)
(162.19954 -1.1576714 0)
(162.49174 -1.2039685 0)
(162.79417 -1.2427094 0)
(163.10474 -1.2733799 0)
(163.42121 -1.2955459 0)
(163.74125 -1.3088614 0)
(164.06247 -1.313074 0)
(164.38244 -1.3080305 0)
(164.69869 -1.2936803 0)
(165.00879 -1.2700782 0)
(165.31031 -1.2373849 0)
(165.60089 -1.1958663 0)
(165.87826 -1.1458902 0)
(166.14026 -1.0879217 0)
(166.38486 -1.0225162 0)
(166.6102 -0.95030974 0)
(166.8146 -0.87200849 0)
(166.99659 -0.78837522 0)
(167.15491 -0.70021451 0)
(167.2885 -0.60835668 0)
(167.39657 -0.51364049 0)
(167.47855 -0.41689519 0)
(167.53408 -0.31892536 0)
(167.56304 -0.22048206 0)
(167.56549 -0.12228748 0)
(167.54172 -0.02499084 0)
(167.49213 0.070871136 0)
(167.41728 0.16484858 0)
(167.31779 0.25657783 0)
(167.19441 0.34579391 0)
(167.04789 0.43231606 0)
(166.87901 0.51604773 0)
(166.68858 0.59695541 0)
(166.47733 0.67505537 0)
(166.24601 0.75040093 0)
(165.99529 0.82306324 0)
(165.72582 0.89310797 0)
(165.43822 0.96057645 0)
(165.13307 1.0254713 0)
(164.81095 1.0877454 0)
(164.47244 1.1472938 0)
(164.11819 1.2039503 0)
(163.74887 1.2574874 0)
(163.36525 1.3076223 0)
(162.96819 1.3540257 0)
(162.55869 1.3963354 0)
(162.13783 1.4341716 0)
(161.70686 1.4671551 0)
(161.26714 1.4949254 0)
(160.82014 1.5171582 0)
(160.36745 1.5335823 0)
(159.91073 1.5439931 0)
(159.45171 1.5482636 0)
(158.99213 1.5463517 0)
(158.53378 1.5383039 0)
(158.07838 1.5242546 0)
(157.62764 1.5044225 0)
(157.18316 1.479104 0)
(156.74646 1.4486633 0)
(156.31895 1.413521 0)
(155.90189 1.3741416 0)
(155.4964 1.3310199 0)
(155.10346 1.2846676 0)
(154.72391 1.2356002 0)
(154.3584 1.1843254 0)
(154.00747 1.1313317 0)
(153.67151 1.0770791 0)
(153.3508 1.021992 0)
(153.04546 0.9664523 0)
(152.75557 0.91079579 0)
(152.48107 0.85530912 0)
(152.22187 0.80022878 0)
(151.9778 0.74574159 0)
(151.74865 0.69198643 0)
(151.53418 0.6390573 0)
(151.33416 0.58700775 0)
(151.14832 0.53585668 0)
(150.97642 0.48559589 0)
(150.81824 0.436197 0)
(150.67359 0.38761914 0)
(150.54228 0.3398267 0)
(150.42422 0.29282375 0)
(150.31944 0.2466713 0)
(150.22812 0.20141459 0)
(150.14935 0.15706935 0)
(150.08499 0.10736278 0)
(150.03706 0.067951316 0)
(150.00848 0.032518574 0)
(162.26928 0.18974966 0)
(162.15084 0.23551295 0)
(162.04507 0.27793361 0)
(161.92944 0.31682536 0)
(161.80583 0.35176674 0)
(161.67559 0.38221374 0)
(161.54008 0.40759098 0)
(161.40072 0.42734426 0)
(161.259 0.44096489 0)
(161.11647 0.44800231 0)
(160.97475 0.44807291 0)
(160.83552 0.44086508 0)
(160.70049 0.4261444 0)
(160.57141 0.4037582 0)
(160.45005 0.37363914 0)
(160.33816 0.33580871 0)
(160.23747 0.29037869 0)
(160.14964 0.23755303 0)
(160.07629 0.17762678 0)
(160.01894 0.11098355 0)
(159.97897 0.038100612 0)
(159.95769 -0.040468772 0)
(159.95619 -0.12410395 0)
(159.97545 -0.21210035 0)
(160.01625 -0.30369233 0)
(160.07917 -0.39804545 0)
(160.16461 -0.4942769 0)
(160.27276 -0.59146121 0)
(160.40357 -0.6886417 0)
(160.55679 -0.7848394 0)
(160.73195 -0.87906564 0)
(160.92835 -0.97033036 0)
(161.14506 -1.0576554 0)
(161.38098 -1.1400848 0)
(161.63475 -1.2166944 0)
(161.90485 -1.2866054 0)
(162.18957 -1.3489927 0)
(162.48702 -1.4030978 0)
(162.79518 -1.4482365 0)
(163.11185 -1.4838108 0)
(163.43476 -1.5093162 0)
(163.76151 -1.5243513 0)
(164.08964 -1.5286236 0)
(164.41665 -1.521957 0)
(164.73998 -1.5042952 0)
(165.05713 -1.4757055 0)
(165.36558 -1.4363795 0)
(165.6629 -1.386633 0)
(165.94675 -1.3269019 0)
(166.21488 -1.2577377 0)
(166.46521 -1.1797992 0)
(166.69581 -1.0938419 0)
(166.90496 -1.0007054 0)
(167.09113 -0.90129784 0)
(167.25304 -0.7965783 0)
(167.38962 -0.68753781 0)
(167.50007 -0.57517852 0)
(167.58383 -0.46049214 0)
(167.64056 -0.34444166 0)
(167.67017 -0.22792517 0)
(167.67278 -0.11181532 0)
(167.64872 0.0031236477 0)
(167.59845 0.11625799 0)
(167.52261 0.22705128 0)
(167.42188 0.33508303 0)
(167.29705 0.44005868 0)
(167.14896 0.54178604 0)
(166.97844 0.64017064 0)
(166.78632 0.73519818 0)
(166.57337 0.82691493 0)
(166.34034 0.91540821 0)
(166.08791 1.0007825 0)
(165.81672 1.0831342 0)
(165.52735 1.1625293 0)
(165.22035 1.2389844 0)
(164.89626 1.312453 0)
(164.55564 1.3828148 0)
(164.19904 1.4498716 0)
(163.82713 1.5133484 0)
(163.44062 1.5728994 0)
(163.04037 1.6281206 0)
(162.62732 1.6785655 0)
(162.20258 1.7237657 0)
(161.7674 1.7632519 0)
(161.32315 1.7965772 0)
(160.87136 1.8233391 0)
(160.41365 1.8431995 0)
(159.95174 1.8559017 0)
(159.48742 1.8612842 0)
(159.02252 1.8592892 0)
(158.55887 1.8499667 0)
(158.09828 1.8334741 0)
(157.64252 1.8100714 0)
(157.19325 1.7801126 0)
(156.75203 1.7440338 0)
(156.32033 1.702339 0)
(155.89943 1.6555849 0)
(155.49049 1.6043641 0)
(155.09449 1.5492889 0)
(154.71227 1.4909758 0)
(154.34449 1.4300305 0)
(153.99168 1.3670354 0)
(153.65421 1.3025382 0)
(153.33233 1.2370428 0)
(153.02616 1.1710022 0)
(152.73573 1.1048134 0)
(152.46096 1.0388148 0)
(152.20172 0.97328422 0)
(151.95782 0.90844047 0)
(151.72902 0.84444492 0)
(151.51506 0.78140528 0)
(151.31566 0.71938102 0)
(151.13057 0.65839018 0)
(150.95951 0.59841769 0)
(150.80226 0.53942373 0)
(150.65861 0.48135414 0)
(150.52839 0.42415947 0)
(150.41155 0.36781988 0)
(150.30811 0.31234676 0)
(150.21822 0.25773286 0)
(150.14111 0.20400408 0)
(150.07899 0.14355262 0)
(150.0339 0.093879553 0)
(150.00765 0.046186358 0)
(162.34741 0.25228531 0)
(162.22617 0.30495574 0)
(162.11807 0.35369012 0)
(161.99985 0.39811965 0)
(161.87329 0.43774084 0)
(161.73967 0.47196875 0)
(161.60035 0.50019311 0)
(161.45677 0.52181913 0)
(161.31046 0.53629477 0)
(161.163 0.54312623 0)
(161.01605 0.54189068 0)
(160.87136 0.53224428 0)
(160.73069 0.51392982 0)
(160.59585 0.486783 0)
(160.46868 0.4507371 0)
(160.35098 0.4058275 0)
(160.24456 0.35219341 0)
(160.15115 0.29008019 0)
(160.07243 0.21983785 0)
(160.01 0.1419192 0)
(159.9653 0.056880838 0)
(159.93969 -0.034626059 0)
(159.93434 -0.13187473 0)
(159.95027 -0.2340489 0)
(159.98832 -0.34025803 0)
(160.0491 -0.44954847 0)
(160.13307 -0.56090184 0)
(160.24043 -0.67325458 0)
(160.37116 -0.78550771 0)
(160.52503 -0.89653693 0)
(160.70158 -1.0052078 0)
(160.9001 -1.1103848 0)
(161.11967 -1.2109468 0)
(161.35916 -1.3057985 0)
(161.61719 -1.3938817 0)
(161.89221 -1.4741904 0)
(162.18248 -1.5457801 0)
(162.48605 -1.6077826 0)
(162.80083 -1.659415 0)
(163.12459 -1.699993 0)
(163.45497 -1.7289388 0)
(163.78949 -1.7457928 0)
(164.12563 -1.7502204 0)
(164.46078 -1.7420197 0)
(164.79231 -1.7211271 0)
(165.11762 -1.6876208 0)
(165.4341 -1.6417223 0)
(165.73923 -1.5837963 0)
(166.03057 -1.5143472 0)
(166.30581 -1.434013 0)
(166.56277 -1.3435567 0)
(166.79946 -1.2438546 0)
(167.0141 -1.1358808 0)
(167.20511 -1.0206903 0)
(167.37117 -0.8993979 0)
(167.5112 -0.77315642 0)
(167.62439 -0.64313198 0)
(167.71018 -0.51047877 0)
(167.76828 -0.37631716 0)
(167.79862 -0.24169201 0)
(167.80138 -0.10762209 0)
(167.77696 0.025018515 0)
(167.72588 0.15550091 0)
(167.64886 0.28320924 0)
(167.54666 0.40765594 0)
(167.42015 0.5285001 0)
(167.27022 0.64552807 0)
(167.09777 0.75864439 0)
(166.90368 0.86785147 0)
(166.68876 0.97322557 0)
(166.45376 1.0748913 0)
(166.19938 1.1729926 0)
(165.92623 1.2676635 0)
(165.63487 1.359001 0)
(165.3258 1.4470414 0)
(164.99951 1.5317427 0)
(164.65648 1.6129715 0)
(164.29725 1.6904978 0)
(163.9224 1.7639962 0)
(163.53261 1.8330538 0)
(163.12868 1.8971852 0)
(162.71156 1.9558524 0)
(162.28234 2.0084891 0)
(161.84227 2.0545276 0)
(161.39277 2.0934267 0)
(160.93539 2.1246979 0)
(160.47182 2.1479307 0)
(160.00385 2.1628131 0)
(159.53335 2.1691474 0)
(159.06223 2.1668606 0)
(158.5924 2.1560098 0)
(158.12576 2.1367807 0)
(157.66414 2.1094817 0)
(157.20929 2.0745333 0)
(156.76283 2.0324535 0)
(156.32626 1.9838406 0)
(155.90093 1.9293546 0)
(155.488 1.8696973 0)
(155.08848 1.8055926 0)
(154.70322 1.7377679 0)
(154.33286 1.666937 0)
(153.97793 1.5937846 0)
(153.63877 1.5189532 0)
(153.31561 1.4430324 0)
(153.00853 1.3665509 0)
(152.71752 1.2899705 0)
(152.44249 1.2136826 0)
(152.18325 1.1380071 0)
(151.93958 1.0631932 0)
(151.71121 0.98942146 0)
(151.49783 0.91680835 0)
(151.29916 0.8454118 0)
(151.11489 0.77523851 0)
(150.94475 0.70625216 0)
(150.78847 0.6383825 0)
(150.64587 0.57153683 0)
(150.51677 0.50561771 0)
(150.40113 0.44054004 0)
(150.29896 0.37622944 0)
(150.21045 0.31260069 0)
(150.13491 0.24963427 0)
(150.07473 0.17831285 0)
(150.03179 0.11823407 0)
(150.00713 0.058751672 0)
(162.44015 0.3138844 0)
(162.3162 0.37405666 0)
(162.20543 0.42978449 0)
(162.08414 0.48051602 0)
(161.95407 0.52563819 0)
(161.81646 0.56449101 0)
(161.67268 0.59640239 0)
(161.52419 0.62071815 0)
(161.37253 0.63682842 0)
(161.21934 0.64418478 0)
(161.06634 0.64231516 0)
(160.91531 0.63083464 0)
(160.76811 0.60945519 0)
(160.6266 0.57799352 0)
(160.49269 0.53637717 0)
(160.36828 0.48464996 0)
(160.25523 0.42297418 0)
(160.15537 0.35163347 0)
(160.07046 0.27103078 0)
(160.00216 0.18168782 0)
(159.952 0.084240268 0)
(159.92142 -0.020560582 0)
(159.91165 -0.13187798 0)
(159.92378 -0.24878066 0)
(159.95868 -0.37024573 0)
(160.01705 -0.49517714 0)
(160.09935 -0.62240759 0)
(160.20585 -0.75071995 0)
(160.33654 -0.87885854 0)
(160.49121 -1.0055404 0)
(160.6694 -1.1294729 0)
(160.87041 -1.2493632 0)
(161.09331 -1.3639367 0)
(161.33694 -1.471949 0)
(161.59992 -1.5721985 0)
(161.88063 -1.6635437 0)
(162.17729 -1.7449134 0)
(162.48791 -1.8153228 0)
(162.81034 -1.873884 0)
(163.14225 -1.9198206 0)
(163.48122 -1.9524771 0)
(163.82469 -1.9713315 0)
(164.17002 -1.9760035 0)
(164.51453 -1.9662635 0)
(164.85548 -1.942039 0)
(165.19016 -1.903419 0)
(165.51586 -1.8506564 0)
(165.82995 -1.7841678 0)
(166.12989 -1.7045303 0)
(166.41327 -1.6124752 0)
(166.67782 -1.5088782 0)
(166.92148 -1.3947464 0)
(167.14239 -1.271201 0)
(167.33891 -1.1394581 0)
(167.50969 -1.0008042 0)
(167.65362 -0.85657087 0)
(167.76987 -0.70810635 0)
(167.85792 -0.55674574 0)
(167.91749 -0.40378463 0)
(167.94855 -0.25043218 0)
(167.95139 -0.097869339 0)
(167.92643 0.052910746 0)
(167.87431 0.20107301 0)
(167.79584 0.34591813 0)
(167.69186 0.48690894 0)
(167.56333 0.62367963 0)
(167.41124 0.75601249 0)
(167.23655 0.88382719 0)
(167.04018 1.0071581 0)
(166.82301 1.1261261 0)
(166.58579 1.2409076 0)
(166.32922 1.3517 0)
(166.0539 1.458687 0)
(165.76034 1.5620064 0)
(165.44898 1.6617216 0)
(165.12027 1.7577993 0)
(164.77461 1.8500947 0)
(164.41245 1.9383441 0)
(164.03432 2.0221669 0)
(163.64084 2.1010756 0)
(163.23277 2.174493 0)
(162.81102 2.2417777 0)
(162.37668 2.3022523 0)
(161.93101 2.3552371 0)
(161.47546 2.4000824 0)
(161.01164 2.4362016 0)
(160.5413 2.4631007 0)
(160.06632 2.4804024 0)
(159.58866 2.4878658 0)
(159.11032 2.4853984 0)
(158.63332 2.4730612 0)
(158.15965 2.4510682 0)
(157.69124 2.4197775 0)
(157.22991 2.3796792 0)
(156.77738 2.3313775 0)
(156.33519 2.2755701 0)
(155.90472 2.2130259 0)
(155.48719 2.1445613 0)
(155.08362 2.0710174 0)
(154.69485 1.993238 0)
(154.32154 1.9120497 0)
(153.96418 1.8282436 0)
(153.6231 1.7425611 0)
(153.29849 1.655681 0)
(152.9904 1.5682106 0)
(152.69878 1.4806795 0)
(152.42349 1.3935354 0)
(152.1643 1.3071429 0)
(151.92096 1.2217851 0)
(151.69313 1.1376657 0)
(151.4805 1.0549145 0)
(151.28272 0.97359328 0)
(151.09947 0.8937038 0)
(150.93044 0.81519638 0)
(150.77535 0.73797936 0)
(150.63399 0.66193063 0)
(150.50618 0.58691263 0)
(150.39189 0.51278267 0)
(150.2911 0.43939187 0)
(150.20402 0.36657864 0)
(150.13001 0.29423862 0)
(150.07154 0.21190196 0)
(150.03028 0.14142922 0)
(150.00676 0.070582963 0)
(162.54606 0.3781712 0)
(162.4189 0.44579362 0)
(162.30506 0.50843139 0)
(162.18025 0.56539627 0)
(162.04613 0.61596716 0)
(161.90397 0.65940063 0)
(161.75511 0.69495221 0)
(161.60103 0.72190108 0)
(161.44333 0.73957434 0)
(161.28368 0.74736538 0)
(161.12385 0.74475063 0)
(160.96571 0.73130236 0)
(160.81115 0.70670053 0)
(160.66215 0.67074226 0)
(160.52068 0.62334917 0)
(160.38872 0.56457395 0)
(160.26824 0.49460297 0)
(160.16115 0.41375972 0)
(160.0693 0.32250237 0)
(159.99443 0.221424 0)
(159.93817 0.11124348 0)
(159.90203 -0.0071848941 0)
(159.88733 -0.13291071 0)
(159.8952 -0.26488325 0)
(159.92661 -0.40194498 0)
(159.9823 -0.54286442 0)
(160.06278 -0.68632942 0)
(160.16834 -0.83097103 0)
(160.29903 -0.9753783 0)
(160.45464 -1.118109 0)
(160.63472 -1.2577107 0)
(160.83858 -1.3927313 0)
(161.06527 -1.5217391 0)
(161.31361 -1.6433366 0)
(161.58219 -1.7561744 0)
(161.86935 -1.8589704 0)
(162.17326 -1.950521 0)
(162.49186 -2.0297195 0)
(162.82293 -2.0955672 0)
(163.16407 -2.1471901 0)
(163.51275 -2.1838494 0)
(163.86634 -2.2049559 0)