/*--------------------------------*- C++ -*----------------------------------*\
| =========                 |                                                 |
| \\      /  F ield         | foam-extend: Open Source CFD                    |
|  \\    /   O peration     | Version:     4.1                                |
|   \\  /    A nd           | Web:         http://www.foam-extend.org         |
|    \\/     M anipulation  |                                                 |
\*---------------------------------------------------------------------------*/
FoamFile
{
    version     2.0;
    format      ascii;
    class       volScalarField;
    location    "0.9";
    object      p;
}
// * * * * * * * * * * * * * * * * * * * * * * * * * * * * * * * * * * * * * //

dimensions      [0 2 -2 0 0 0 0];

internalField   nonuniform List<scalar> 
16126
(
-5.7324565
-6.3285891
-8.3845933
-10.711733
-13.233837
-15.902602
-18.702848
-21.632193
-24.694439
-27.896529
-31.24705
-34.755444
-38.431549
-42.285328
-46.326689
-50.565366
-55.010839
-59.672267
-64.558449
-69.677784
-75.038252
-80.647388
-86.512281
-92.639556
-99.035381
-105.70546
-112.65507
-119.889
-127.41163
-135.2269
-143.33833
-151.74906
-160.46171
-169.47853
-178.80125
-188.43111
-198.36873
-208.61408
-219.16633
-230.02369
-241.18328
-252.64084
-264.39054
-276.42463
-288.73315
-301.30348
-314.12001
-327.1636
-340.41115
-353.83509
-367.40283
-381.07628
-394.81135
-408.55741
-422.25693
-435.84505
-449.24933
-462.38955
-475.17767
-487.5179
-499.30696
-510.43455
-520.78396
-530.23299
-538.65499
-545.92018
-551.89724
-556.45502
-559.46449
-560.80087
-560.34587
-557.99
-553.63496
-547.19589
-538.60355
-527.8063
-514.7718
-499.48857
-481.96718
-462.24099
-440.36594
-416.42027
-390.50313
-362.73268
-333.24807
-302.21465
-269.80522
-236.19427
-201.5691
-166.12333
-130.05321
-93.554592
-56.820155
-20.036905
16.615992
52.969062
88.86401
124.15488
158.70885
192.40666
225.14285
256.82561
287.3766
316.73088
344.8355
371.64508
397.12544
421.25594
444.02401
465.42426
485.45827
504.13419
521.46641
537.47511
552.18532
565.629
577.8563
588.95145
598.99832
607.94082
615.62863
623.01276
634.05246
650.94542
-4.0135456
-5.9380535
-8.2032744
-10.606908
-13.155197
-15.833114
-18.63549
-21.563758
-24.623349
-27.82198
-31.168643
-34.673003
-38.345029
-42.194766
-46.232175
-50.467025
-54.90882
-59.566735
-64.449578
-69.565755
-74.923248
-80.529592
-86.391872
-92.516706
-98.910258
-105.57823
-112.52586
-119.75796
-127.27889
-135.09258
-143.20255
-151.61192
-160.32335
-169.33907
-178.66085
-188.28995
-198.22704
-208.47214
-219.02448
-229.88239
-241.04306
-252.50238
-264.25465
-276.2923
-288.60553
-301.18193
-314.0061
-327.05913
-340.31816
-353.75585
-367.33986
-381.03234
-394.78939
-408.56062
-422.28863
-435.90872
-449.34852
-462.52784
-475.35859
-487.74486
-499.58319
-510.76296
-521.1671
-530.6729
-539.15312
-546.47733
-552.5134
-557.12934
-560.19518
-561.58517
-561.18
-558.86914
-554.5533
-548.14664
-539.57903
-528.79805
-515.77088
-500.48589
-482.9539
-463.20811
-441.30451
-417.32189
-391.36105
-363.54361
-334.00937
-302.91049
-270.41756
-236.71691
-201.99918
-166.45986
-130.2967
-93.706851
-56.884181
-20.016737
16.715423
53.142083
89.104372
124.4559
159.06355
192.80789
225.58337
257.29814
287.87377
317.24455
345.35693
372.17051
397.65455
421.7856
444.54975
465.94133
485.96169
504.61857
521.92559
537.90151
552.5693
565.95824
578.11327
589.102
598.97506
607.67404
615.16329
622.27208
631.002
640.09848
-2.9208011
-5.4602023
-7.9585592
-10.465931
-13.055165
-15.74563
-18.54703
-21.467511
-24.515737
-27.701104
-31.033551
-34.523329
-38.180803
-42.016301
-46.040004
-50.261862
-54.691524
-59.338289
-64.211069
-69.318349
-74.668174
-80.268121
-86.125298
-92.246326
-98.637351
-105.30404
-112.25158
-119.48472
-127.00773
-134.82447
-142.93836
-151.3524
-160.06918
-169.09085
-178.4191
-188.05515
-197.99965
-208.25263
-218.81337
-229.68028
-240.85071
-252.32072
-264.08486
-276.13585
-288.46424
-301.05802
-313.90223
-326.97844
-340.2643
-353.733
-367.35275
-381.08623
-394.89003
-408.71423
-422.50182
-436.18841
-449.70183
-462.96196
-475.88064
-488.3617
-500.30125
-511.58803
-522.10413
-531.72577
-540.32444
-547.76822
-553.92331
-558.65585
-561.83389
-563.32959
-563.02147
-560.79685
-556.55432
-550.20606
-541.68017
-530.92288
-517.90045
-502.60019
-485.03184
-465.22822
-443.24586
-419.16442
-393.08607
-365.1347
-335.45323
-304.19848
-271.54223
-237.67001
-202.77504
-167.05555
-130.71192
-93.943755
-56.947141
-19.912089
16.979668
53.556547
89.658624
125.13878
159.86345
193.71306
226.58217
258.37931
289.0265
318.45849
346.62212
373.47673
398.99238
423.14786
445.93062
467.33599
487.36633
506.03031
523.34236
539.3218
553.99223
567.384
579.54066
590.51615
600.33635
608.9717
616.52617
623.62155
630.62984
635.27825
-2.4055815
-5.0880145
-7.6927045
-10.265627
-12.885714
-15.586103
-18.385533
-21.297354
-24.333138
-27.50394
-30.820684
-34.294231
-37.935353
-41.754661
-45.762546
-49.969119
-54.384159
-59.017073
-63.876857
-68.972066
-74.310798
-79.900668
-85.748807
-91.861845
-98.245922
-104.90668
-111.84929
-119.07845
-126.59838
-134.41289
-142.52535
-150.93872
-159.65555
-168.67796
-178.00765
-187.64587
-197.59332
-207.85015
-218.41579
-229.28887
-240.46698
-251.94654
-263.72247
-275.78797
-288.1341
-300.74944
-313.61967
-326.72706
-340.04998
-353.56237
-367.23319
-381.02585
-394.89766
-408.79933
-422.67441
-436.45893
-450.08102
-463.46067
-476.5096
-489.13134
-501.22137
-512.66758
-523.35087
-533.14599
-541.92263
-549.54678
-555.88226
-560.79259
-564.14297
-565.80254
-565.64669
-563.5596
-559.43675
-553.18744
-544.73741
-534.03079
-521.03155
-505.72527
-488.12066
-468.25036
-446.17116
-421.96356
-395.73109
-367.5992
-337.71293
-306.23386
-273.33845
-239.21552
-204.06214
-168.08054
-131.47501
-94.448791
-57.201331
-19.925617
17.194056
53.983999
90.282637
125.94165
160.82672
194.81793
227.80984
259.71135
290.44516
319.94703
348.16514
375.05946
400.60053
424.76822
447.551
468.94505
488.95335
507.58498
524.85434
540.78027
555.38577
568.70045
580.7634
591.61415
601.26437
609.71785
617.14027
623.92209
629.7554
632.80005
-2.1551189
-4.8302113
-7.4663259
-10.066882
-12.698927
-15.398013
-18.18706
-21.082752
-24.098929
-27.248131
-30.542259
-33.992843
-37.611122
-41.408062
-45.394325
-49.580239
-53.975762
-58.590445
-63.433401
-68.51328
-73.838246
-79.415958
-85.253567
-91.3577
-97.73447
-104.38948
-111.32782
-118.55412
-126.07252
-133.88671
-141.99998
-150.41518
-159.13478
-168.16086
-177.49508
-187.13869
-197.09248
-207.35669
-217.93095
-228.81413
-240.00417
-251.49791
-263.29078
-275.37658
-287.74708
-300.39162
-313.29674
-326.44562
-339.81761
-353.38764
-367.12568
-380.99614
-394.95726
-408.9606
-422.95048
-436.86349
-450.62814
-464.16457
-477.38438
-490.19062
-502.47801
-514.13325
-525.03567
-535.05802
-544.06761
-551.9276
-558.49865
-563.64073
-567.21523
-569.08724
-569.12798
-567.21734
-563.24667
-557.1216
-548.76473
-538.11677
-525.13876
-509.8146
-492.15189
-472.18296
-449.96512
-425.5803
-399.13432
-370.75539
-340.59186
-308.8098
-275.59061
-241.12795
-205.62412
-169.28666
-132.32497
-94.947187
-57.357203
-19.751957
17.680875
54.764823
91.336161
127.24502
162.35613
196.54913
229.71866
261.77405
292.63881
322.24992
350.55705
377.52166
403.1158
427.32097
450.12714
471.53184
491.53911
510.1587
527.40507
543.29647
557.85462
571.10642
583.08347
593.8106
603.29005
611.53982
618.69843
624.93243
629.75573
631.99126
-1.9994187
-4.6194546
-7.2446876
-9.8452286
-12.473336
-15.161721
-17.934172
-20.80899
-23.801468
-26.925253
-30.193057
-33.616997
-37.208752
-40.979622
-44.940535
-49.102034
-53.474255
-58.066895
-62.88919
-67.949886
-73.257221
-78.818906
-84.642121
-90.7335
-97.099142
-103.74461
-110.67496
-117.89474
-125.40802
-133.21842
-141.32913
-149.74294
-158.46228
-167.48919
-176.82534
-186.47206
-196.43023
-206.70029
-217.28213
-228.17496
-239.37719
-250.88619
-262.69807
-274.80737
-287.20674
-299.88652
-312.83429
-326.0344
-339.46739
-353.10946
-366.93183
-380.90016
-394.97387
-409.1056
-423.2406
-437.31623
-451.26149
-464.99672
-478.4334
-491.47405
-504.01241
-515.93377
-527.1155
-537.42792
-546.73533
-554.89741
-561.77084
-567.21116
-571.07495
-573.22222
-573.51887
-571.83936
-568.06989
-562.11159
-553.88222
-543.31793
-530.37666
-515.03971
-497.31314
-477.22873
-454.84433
-430.2436
-403.53515
-374.85098
-344.34422
-312.18662
-278.56573
-243.68165
-207.74332
-170.96499
-133.56257
-95.750357
-57.737858
-19.726998
18.090288
55.534052
92.437882
128.65001
164.034
198.46904
231.84991
264.08663
295.10381
324.83993
353.24641
380.28656
405.93446
430.1737
452.99635
474.40189
494.39614
512.99034
530.20005
546.04422
560.54484
573.72763
585.61933
596.23721
605.58388
613.68434
620.62764
626.42954
630.60465
632.42146
-1.8975568
-4.4511961
-7.0412428
-9.6198583
-12.227687
-14.893271
-17.639628
-20.485558
-23.447164
-26.538876
-29.774063
-33.165371
-36.724906
-40.464311
-44.394799
-48.527151
-52.871699
-57.438309
-62.236351
-67.274677
-72.561605
-78.104894
-83.911746
-89.988788
-96.342087
-102.97715
-109.89895
-117.11193
-124.62006
-132.42684
-140.53535
-148.94827
-157.66795
-166.69637
-176.03522
-185.68584
-195.64926
-205.92612
-216.5166
-227.42034
-238.63625
-250.16237
-261.99558
-274.13135
-286.56336
-299.28313
-312.27953
-325.5383
-339.04146
-352.76671
-366.68682
-380.76895
-394.974
-409.25593
-423.56116
-437.82799
-451.98606
-465.95602
-479.64922
-492.96761
-505.80381
-518.04142
-529.55552
-540.21351
-549.87613
-558.39887
-565.63359
-571.43052
-575.64041
-578.11716
-578.72014
-577.31727
-573.78856
-568.0294
-559.95169
-549.4865
-536.58762
-521.23318
-503.42725
-483.20087
-460.61253
-435.74784
-408.71874
-379.66177
-348.73585
-316.11952
-282.00786
-246.60887
-210.13973
-172.82284
-134.88211
-96.539335
-58.010871
-19.504713
18.782038
56.665219
93.975174
130.55785
166.27543
201.00655
234.64621
267.10526
298.3097
328.19982
356.72912
383.86317
409.57839
433.86074
456.70457
478.11144
498.08898
516.64985
533.81055
549.59049
564.01152
577.09772
588.87162
599.34644
608.52745
616.44059
623.13558
628.56031
632.29631
633.87068
-1.8123824
-4.2965785
-6.8379749
-9.3800734
-11.95537
-14.58847
-17.300975
-20.111507
-23.0365
-26.090864
-29.288449
-32.642335
-36.165
-39.868411
-43.764058
-47.862959
-52.175654
-56.712183
-61.482063
-66.494266
-71.757197
-77.278678
-83.065939
-89.125611
-95.463733
-102.08576
-108.99658
-116.20055
-123.70152
-131.50287
-139.60757
-148.01819
-156.73701
-165.76595
-175.10672
-184.76073
-194.72916
-205.01289
-215.61247
-226.52802
-237.75907
-249.30442
-261.16187
-273.32796
-285.79762
-298.56373
-311.61668
-324.94384
-338.52897
-352.35157
-366.38624
-380.60193
-394.96128
-409.41985
-423.92548
-438.41759
-452.82665
-467.07371
-481.07004
-494.71694
-507.90579
-520.51824
-532.42673
-543.49525
-553.58036
-562.53262
-570.19826
-576.42118
-581.04526
-583.91706
-584.8882
-583.81884
-580.5816
-575.06469
-567.17286
-556.83134
-543.98885
-528.61971
-510.72552
-490.33645
-467.51168
-442.33921
-414.93494
-385.44092
-354.02299
-320.86778
-286.17931
-250.17513
-213.08221
-175.13277
-136.5602
-97.595226
-58.462323
-19.376643
19.458646
57.854467
95.637428
132.65089
168.75554
203.82952
237.7682
270.48359
301.90348
331.97044
360.64064
387.88252
413.6755
438.00859
460.8791
482.29136
502.25549
520.7862
537.90159
553.62211
567.96985
580.96759
592.6348
602.98229
612.01613
619.75702
626.22632
631.35038
634.78511
636.20804
-1.7366152
-4.1494581
-6.6323359
-9.1256841
-11.656774
-14.247088
-16.916749
-19.68391
-22.565051
-25.57536
-28.729037
-32.039526
-35.519644
-39.181666
-43.037359
-47.097989
-51.37431
-55.876548
-60.614376
-65.596889
-70.832586
-76.329345
-82.094422
-88.134438
-94.455387
-101.06265
-107.96101
-115.15471
-122.64744
-130.44243
-138.54251
-146.95012
-155.6674
-164.69623
-174.03829
-183.69506
-193.66788
-203.95789
-214.56605
-225.493
-236.73897
-248.30364
-260.18584
-272.38337
-284.89254
-297.70783
-310.82141
-324.22253
-337.89697
-351.82634
-365.98736
-380.35114
-394.88234
-409.53846
-424.26902
-439.01485
-453.70744
-468.26839
-482.60896
-496.62983
-510.22101
-523.26201
-535.6223
-547.16199
-557.7329
-567.17992
-575.34279
-582.05809
-587.16175
-590.49176
-591.89073
-591.20972
-588.3127
-583.07918
-575.40571
-565.21045
-552.43606
-537.05223
-519.05758
-498.48109
-475.38269
-449.85311
-422.01288
-392.01055
-360.02007
-326.23762
-290.87778
-254.16934
-216.35088
-177.66616
-138.35975
-98.672829
-58.839404
-19.082972
20.386244
59.373489
97.701082
135.20945
171.75762
207.22326
241.50225
274.50801
306.17048
336.43493
365.26061
392.61933
418.49401
442.87719
465.76961
487.17887
507.11807
525.60453
542.65856
558.30234
572.55898
585.45122
596.99758
607.20885
616.09213
623.66297
629.92665
634.80997
638.02947
639.35074
-1.6646899
-4.0047587
-6.4223673
-8.8580034
-11.335736
-13.874764
-16.493909
-19.210762
-22.041694
-25.002026
-28.106208
-31.367976
-34.80045
-38.416195
-42.22725
-46.245132
-50.480821
-54.944741
-59.646734
-64.596032
-69.801238
-75.2703
-81.010502
-87.02846
-93.330123
-99.920792
-106.80514
-113.98727
-121.47071
-129.25853
-137.35337
-145.75753
-154.47301
-163.50161
-172.84498
-182.50467
-192.48218
-202.77895
-213.39634
-224.33561
-235.59777
-247.18345
-259.09267
-271.3246
-283.87717
-296.74667
-309.92723
-323.41031
-337.18398
-351.23228
-365.53439
-380.06388
-394.78781
-409.66591
-424.64971
-439.68172
-454.69468
-469.61092
-484.34179
-498.78736
-512.83618
-526.36543
-539.24126
-551.31945
-562.44644
-572.46072
-581.1946
-588.47631
-594.13262
-597.99169
-599.8857
-599.6552
-597.15389
-592.25119
-584.83428
-574.81292
-562.12269
-546.72776
-528.62319
-507.83648
-484.42832
-458.49254
-430.15504
-399.57188
-366.92648
-332.42608
-296.29759
-258.78292
-220.13414
-180.60845
-140.46337
-99.952173
-59.319831
-18.799407
21.390848
61.049774
99.994916
138.06351
175.11288
211.02032
245.68254
279.01478
310.94961
341.43556
370.43558
397.92547
423.89228
448.33267
471.25139
492.6598
512.57447
531.01575
548.00655
563.57112
577.73396
590.51834
601.94297
612.01959
620.7563
628.16552
634.24607
638.93484
641.99403
643.24268
-1.5887378
-3.8520757
-6.1975672
-8.566953
-10.982329
-13.461303
-16.021667
-18.680486
-21.453968
-24.357493
-27.405698
-30.612568
-33.9915
-37.555339
-41.316397
-45.286446
-49.476701
-53.897795
-58.559748
-63.471939
-68.643078
-74.081183
-79.793566
-85.786827
-92.066858
-98.638861
-105.50738
-112.67633
-120.14906
-127.92844
-136.01689
-144.4165
-153.12913
-162.15645
-171.50005
-181.16154
-191.14255
-201.44484
-212.07021
-223.02058
-234.29779
-245.90354
-257.83917
-270.10538
-282.70189
-295.62703
-308.8772
-322.44629
-336.32504
-350.50023
-364.95388
-379.66241
-394.59565
-409.71596
-424.97722
-440.32397
-455.69048
-471.00005
-486.1643
-501.08271
-515.64238
-529.71797
-543.17203
-555.85557
-567.60905
-578.26378
-587.64372
-595.56767
-601.85201
-606.31368
-608.77299
-609.05835
-607.01151
-602.49029
-595.37099
-585.55352
-572.96513
-557.56352
-539.33947
-518.31861
-494.56243
-468.16823
-439.26805
-408.02662
-374.63828
-339.3231
-302.32223
-263.89282
-224.30253
-183.82408
-142.72992
-101.28725
-59.753548
-18.372781
22.627718
63.039607
102.67515
141.36814
178.97415
215.37028
250.45438
284.14395
316.37476
347.09919
376.28459
403.91143
429.97159
454.46655
477.40576
498.80507
518.68514
537.07006
553.986
569.45995
583.51852
596.18641
607.48361
617.42348
626.01539
633.2707
639.18753
643.71539
646.64973
647.84347
-1.5143623
-3.6981822
-5.9659716
-8.2620642
-10.607504
-13.018858
-15.513152
-18.107016
-20.81649
-23.656984
-26.643283
-29.789594
-33.109573
-36.61634
-40.322483
-44.240039
-48.380471
-52.754636
-57.372751
-62.244354
-67.378276
-72.782613
-78.46471
-84.43115
-90.687763
-97.239637
-104.09116
-111.24606
-118.70747
-126.478
-134.55984
-142.95483
-151.66463
-160.69074
-170.03468
-179.69806
-189.68267
-199.99053
-210.62396
-221.58552
-232.87797
-244.50418
-256.46689
-268.76852
-281.41077
-294.39422
-307.71779
-321.37816
-335.36899
-349.68022
-364.29707
-379.19922
-394.35969
-409.74385
-425.30839
-441.00019
-456.75544
-472.49863
-488.14186
-503.58416
-518.71114
-533.39483
-547.49388
-560.85409
-573.30935
-584.68299
-594.78966
-603.43756
-610.43134
-615.57529
-618.67624
-619.5487
-618.02066
-613.93666
-607.16052
-597.58077
-585.11492
-569.71308
-551.36091
-530.08175
-505.93784
-479.03032
-449.49821
-417.51616
-383.29104
-347.05766
-309.0736
-269.61348
-228.96292
-187.41246
-145.25159
-102.76336
-60.21947
-17.876174
24.029046
65.279904
105.68292
145.06824
183.28977
220.22463
255.77226
289.85297
322.40631
353.38928
382.77427
410.5472
436.70544
461.25601
484.2137
505.59941
525.43852
543.75942
560.59207
575.96679
589.9129
602.45739
613.62235
623.42348
631.87206
638.98033
644.74897
649.13977
651.97248
653.12243
-1.4306921
-3.5291948
-5.712772
-7.928237
-10.195952
-12.53181
-14.952302
-17.473728
-20.111999
-22.882551
-25.800307
-28.879686
-32.134598
-35.578439
-39.224081
-43.083838
-47.169437
-51.491973
-56.061874
-60.888851
-65.981866
-71.349097
-76.997922
-82.934902
-89.165791
-95.695547
-102.52838
-109.66778
-117.11663
-124.87725
-132.95152
-141.34102
-150.04711
-159.07111
-168.41439
-178.07854
-188.06547
-198.37747
-209.01734
-219.98835
-231.29423
-242.93908
-254.9272
-267.26287
-279.94996
-292.99155
-306.38938
-320.14318
-334.24997
-348.70319
-363.49174
-378.59896
-394.00154
-409.66838
-425.55935
-441.6242
-457.80135
-474.01691
-490.18366
-506.20038
-521.95123
-537.30552
-552.11778
-566.22819
-579.46343
-591.63809
-602.5565
-612.01502
-619.80523
-625.71715
-629.54243
-631.07979
-630.14136
-626.55657
-620.1749
-610.87169
-598.55315
-583.16051
-564.67334
-543.11217
-518.53985
-491.06184
-460.82502
-428.0153
-392.85394
-355.59262
-316.50776
-275.89404
-234.05766
-191.30948
-147.95847
-104.30566
-60.638784
-17.227869
25.678317
67.85477
109.10183
149.24587
188.13925
225.65951
261.70818
296.20905
329.10627
360.36221
389.95522
417.87746
444.1327
468.73423
491.70298
513.06564
532.85296
551.09824
567.83588
583.10006
596.92347
609.33601
620.36259
630.02168
638.32711
645.2934
650.92528
655.19548
657.94173
659.05502
-1.3478448
-3.3571496
-5.4508294
-7.5791119
-9.7621228
-12.015373
-14.355007
-16.797099
-19.357482
-22.051635
-24.894624
-27.901082
-31.085177
-34.460593
-38.040496
-41.837498
-45.863609
-50.130186
-54.647884
-59.426608
-64.475464
-69.802727
-75.415809
-81.321249
-87.524714
-94.031015
-100.84415
-107.96737
-115.40322
-123.15371
-131.22036
-139.60438
-148.30684
-157.32875
-166.67132
-176.33604
-186.32489
-196.64043
-207.28591
-218.26533
-229.58341
-241.24559
-253.25783
-265.62639
-278.35754
-291.4571
-304.92988
-318.77905
-333.00533
-347.60609
-362.57434
-377.89763
-393.55679
-409.52474
-425.76511
-442.23095
-458.86344
-475.59064
-492.3264
-508.96943
-525.40257
-541.49239
-557.08907
-572.02677
-586.12442
-599.18699
-611.00747
-621.36915
-630.04896
-636.82102
-641.45993
-643.74648
-643.47475
-640.45697
-634.52625
-625.54274
-613.39959
-598.02759
-579.39914
-557.53126
-532.48731
-504.3774
-473.35729
-439.6257
-403.42023
-365.0119
-324.69866
-282.79816
-239.64007
-195.55844
-150.88432
-105.93906
-61.028442
-16.43784
27.571517
70.765135
112.93678
153.90901
193.53285
231.68673
268.27492
303.22549
336.48803
368.0312
397.84023
425.91444
452.26484
476.9119
499.88341
521.2126
540.93631
559.09339
575.72326
590.8646
604.55406
616.82508
627.70594
637.21841
645.37942
652.20664
657.7094
661.86987
664.53947
665.62061
-1.2537665
-3.1670726
-5.1641714
-7.1982591
-9.2892596
-11.452465
-13.703812
-16.059249
-18.534582
-21.145364
-23.906826
-26.833823
-29.940799
-33.241739
-36.750127
-40.478892
-44.44035
-48.646141
-53.107176
-57.833568
-62.834587
-68.118608
-73.693088
-79.564535
-85.73852
-92.219685
-99.011791
-106.11778
-113.53986
-121.27962
-129.33818
-137.71633
-146.41471
-155.43402
-164.77517
-174.43953
-184.42907
-194.74657
-205.39571
-216.38123
-227.7089
-239.38552
-251.41882
-263.81723
-276.5896
-289.74473
-303.29083
-317.23484
-331.58161
-346.33289
-361.48631
-377.03415
-392.96196
-409.24727
-425.85805
-442.75122
-459.87125
-477.14864
-494.49873
-511.82046
-528.99554
-545.88779
-562.34292
-578.18872
-593.23575
-607.2786
-620.09778
-631.46221
-641.13255
-648.86523
-654.41577
-657.54478
-658.02567
-655.6512
-650.23574
-641.62202
-629.68803
-614.35242
-595.57909
-573.38071
-547.82093
-519.01494
-487.12843
-452.37463
-415.00975
-375.32689
-333.64861
-290.31876
-245.69382
-200.1342
-153.99596
-107.62338
-61.342423
-15.455518
29.76243
74.066686
117.24412
159.11351
199.52494
238.35834
275.52154
310.94781
344.59322
376.43378
406.46265
434.68733
461.12708
485.81042
508.77289
530.05501
549.70041
567.75417
584.26133
599.26561
612.80818
624.92658
635.65291
645.01262
653.0262
659.715
665.09298
669.15038
671.74932
672.80111
-1.1594794
-2.9720575
-4.8665217
-6.799829
-8.7919508
-10.858105
-13.014136
-15.275944
-17.659363
-20.180057
-22.853444
-25.694628
-28.718347
-31.938914
-35.370156
-39.025347
-42.917139
-47.057487
-51.457582
-56.127773
-61.077512
-66.315294
-71.848623
-77.68398
-83.826827
-90.281615
-97.051837
-104.14009
-111.54817
-119.27721
-127.32783
-135.70031
-144.39482
-153.41159
-162.75119
-172.41474
-182.40417
-192.72238
-203.37348
-214.36289
-225.69744
-237.38538
-249.43628
-261.8609
-274.67084
-287.87816
-301.49476
-315.53175
-329.9985
-344.90167
-360.24404
-376.02318
-392.23002
-408.84733
-425.84806
-443.1937
-460.83257
-478.69825
-496.70799
-514.76141
-532.73932
-550.5029
-567.8933
-584.73161
-600.81949
-615.94028
-629.86095
-642.3346
-653.10394
-661.90573
-668.47422
-672.54735
-673.87508
-672.22803
-667.39926
-659.21149
-647.52523
-632.24495
-613.32446
-590.7711
-564.64845
-535.07722
-502.23415
-466.3489
-427.69887
-386.60229
-343.40987
-298.49537
-252.24578
-205.05146
-157.29681
-109.35185
-61.565118
-14.257899
32.279967
77.792773
122.06024
164.89755
206.15435
245.71284
283.4854
319.41162
353.4552
385.60071
415.8504
444.22112
470.7414
495.44883
518.38758
539.60632
559.15618
577.08914
593.45647
608.30752
621.68847
633.64144
644.20275
653.40189
661.2632
667.812
673.06666
677.02436
679.55595
680.57993
-1.0537432
-2.7583427
-4.5432833
-6.3688214
-8.2549026
-10.216733
-12.27014
-14.431043
-16.715354
-19.13889
-21.717286
-24.465925
-27.399869
-30.533787
-33.881882
-37.457806
-41.274584
-45.344518
-49.67911
-54.288974
-59.183768
-64.372121
-69.861596
-75.658643
-81.768605
-88.19572
-94.943173
-102.01317
-109.40703
-117.12536
-125.16818
-133.53519
-142.22594
-151.24014
-160.57787
-170.23992
-180.22805
-190.54524
-201.19592
-212.1862
-223.52396
-235.21891
-247.2826
-259.72821
-272.57031
-285.82447
-299.50664
-313.63244
-328.21626
-343.27019
-358.80274
-374.81744
-391.31128
-408.27298
-425.68124
-443.50281
-461.69064
-480.182
-498.89671
-517.7355
-536.57867
-555.28495
-573.69088
-591.61063
-608.83639
-625.13946
-640.27212
-653.97018
-665.95655
-675.94622
-683.64979
-688.77985
-691.05978
-690.23494
-686.07415
-678.37726
-666.98457
-651.78399
-632.71738
-609.78553
-583.05149
-552.64186
-518.74573
-481.61127
-441.53998
-398.8788
-354.01054
-307.34313
-259.29832
-210.30048
-160.766
-111.09387
-61.657745
-12.799715
35.17416
81.996525
127.43982
171.31595
213.47483
253.80194
292.21538
328.66235
363.11555
395.56949
426.03683
454.54499
481.13296
505.84843
528.7452
549.88089
569.31494
587.10686
603.31478
617.99417
631.19673
642.96955
653.35355
662.38251
670.08485
676.48993
681.62026
685.47907
687.94456
688.94138
-0.94635163
-2.5375236
-4.2064976
-5.9174816
-7.6905498
-9.5409656
-11.484601
-13.537448
-15.715544
-18.034898
-20.511396
-23.160737
-25.998341
-29.039272
-32.298148
-35.789042
-39.52539
-43.519882
-47.784372
-52.329773
-57.165978
-62.301774
-67.744794
-73.501461
-79.576989
-85.975379
-92.699473
-99.751028
-107.13083
-114.83885
-122.87446
-131.23661
-139.92416
-148.93613
-158.27201
-167.93213
-177.91795
-188.23241
-198.88022
-209.86807
-221.20488
-232.90188
-244.9726
-257.43282
-270.30027
-283.59427
-297.33515
-311.54347
-326.23915
-341.44022
-357.1616
-373.41347
-390.19962
-407.51557
-425.34656
-443.66546
-462.43068
-481.58395
-501.04836
-520.72639
-540.49826
-560.22055
-579.72527
-598.81945
-617.28537
-634.88144
-651.34408
-666.3903
-679.72128
-691.0279
-699.99448
-706.30538
-709.65419
-709.75712
-706.35546
-699.22307
-688.17688
-673.08546
-653.87647
-630.54267
-603.14595
-571.81912
-536.765
-498.25268
-456.61107
-412.21986
-365.49855
-316.89408
-266.86783
-215.88278
-164.39149
-112.82543
-61.586212
-11.038772
38.493295
86.730373
133.43763
178.42422
221.54124
262.6787
301.7618
338.74693
373.61734
406.37901
437.05648
465.68915
492.32772
517.03114
539.86381
560.89323
580.18789
597.81556
613.84177
628.32864
641.33382
652.90975
663.10222
671.94951
679.4843
685.73993
690.74276
694.50139
696.90046
697.87009
-0.82811345
-2.2984481
-3.8444043
-5.4337653
-7.0866413
-8.818367
-10.644897
-12.582339
-14.646898
-16.854811
-19.22226
-21.765294
-24.499736
-27.441089
-30.604428
-34.004297
-37.654589
-41.56843
-45.758069
-50.234758
-55.008657
-60.088738
-65.482719
-71.197002
-77.236661
-83.605435
-90.305785
-97.33896
-104.70513
-112.40356
-120.43282
-128.79103
-137.4762
-146.48651
-155.82072
-165.47853
-175.46098
-185.77083
-196.41293
-207.39451
-218.72547
-230.41854
-242.48931
-254.95627
-267.84049
-281.16531
-294.95578
-309.23787
-324.03747
-339.37925
-355.28517
-371.77285
-388.85373
-406.53099
-424.79737
-443.63283
-463.00211
-482.85238
-503.11081
-523.68237
-544.44779
-565.26189
-585.95234
-606.31893
-626.13358
-645.14106
-663.0607
-679.58914
-694.40377
-707.16881
-717.53944
-725.16869
-729.71719
-730.86699
-728.32788
-721.84477
-711.20736
-696.26159
-676.9183
-653.16033
-625.04757
-592.71935
-556.3937
-516.36335
-472.98835
-426.68584
-377.9173
-327.17425
-274.96329
-221.79128
-168.15161
-114.51219
-61.305667
-8.9220106
42.296345
92.05702
140.1181
186.28675
230.41647
272.40325
312.18116
349.71751
385.00795
418.07163
448.94667
477.68592
504.35318
529.01985
551.76204
572.65802
591.78614
609.22308
625.04235
639.31322
652.09965
663.45977
673.44447
682.09671
689.45347
695.55206
700.42233
704.07775
706.40882
707.35067
-0.70665509
-2.0500964
-3.4662559
-4.9269807
-6.4525117
-8.0582827
-9.7603612
-11.575002
-13.518617
-15.60771
-17.858799
-20.288331
-22.912576
-25.747525
-28.808771
-32.111378
-35.669755
-39.497517
-43.607361
-48.010925
-52.718679
-57.73981
-63.082146
-68.752074
-74.754523
-81.092949
-87.769386
-94.784517
-102.13782
-109.82772
-117.8519
-126.20749
-134.89149
-143.90109
-153.23412
-162.88948
-172.86761
-183.17094
-193.80431
-204.77537
-216.09492
-227.77718
-239.83984
-252.30416
-265.19476
-278.53927
-292.3678
-306.71214
-321.60478
-337.07761
-353.16042
-369.87909
-387.25363
-405.29588
-424.00711
-443.37542
-463.37302
-483.95352
-505.04916
-526.56828
-548.39288
-570.37657
-592.34295
-614.08457
-635.36266
-655.90757
-675.42042
-693.57571
-710.02499
-724.40304
-736.33286
-745.43261
-751.32575
-753.65575
-752.09661
-746.35977
-736.2036
-721.44761
-701.98264
-677.77935
-648.89451
-615.47414
-577.75314
-536.05087
-490.76293
-442.34924
-391.31938
-338.21597
-283.5972
-228.01984
-172.02343
-116.11674
-60.766785
-6.3908962
46.648382
98.045551
147.55204
194.9741
240.16913
283.04098
323.53458
361.63028
397.33815
430.69252
461.74689
490.56924
517.23795
541.83818
564.45883
585.18992
604.12046
621.33669
636.92067
650.94922
663.49303
674.61614
684.37476
692.81663
699.98306
705.91522
710.64619
714.19392
716.45435
717.36741
-0.57517145
-1.7842724
-3.0634641
-4.3883713
-5.7792829
-7.2517212
-8.821881
-10.506192
-12.321302
-14.284025
-16.411256
-18.719886
-21.226691
-23.948206
-26.900598
-30.099517
-33.55995
-37.296064
-41.321063
-45.647024
-50.284776
-55.243761
-60.531938
-66.155697
-72.119816
-78.427444
-85.080144
-92.077968
-99.419599
-107.10255
-115.12343
-123.47825
-132.1628
-141.1731
-150.50584
-160.15892
-170.13197
-180.42688
-191.04831
-202.00419
-213.30613
-224.96975
-237.01487
-249.46562
-262.35029
-275.70109
-289.55353
-303.94572
-318.91731
-334.50811
-350.75653
-367.69764
-385.36103
-403.76829
-422.93039
-442.84476
-463.49231
-484.83428
-506.80917
-529.32971
-552.28008
-575.51338
-598.84958
-622.07415
-644.93734
-667.15442
-688.40709
-708.34604
-726.59467
-742.75542
-756.41578
-767.15521
-774.5553
-778.21569
-777.77002
-772.89106
-763.30098
-748.78843
-729.22043
-704.5527
-674.83738
-640.22727
-600.97585
-557.43257
-510.03354
-459.28776
-405.76004
-350.05155
-292.77956
-234.55763
-175.9775
-117.5937
-59.91132
-3.3774356
51.624078
104.77446
155.81921
204.56508
250.87531
294.66383
335.88884
374.54612
410.66256
444.28987
475.49894
504.37472
531.01175
555.51033
577.97331
598.50343
617.20116
634.16296
649.47994
663.23691
675.51157
686.37412
695.88622
704.10046
711.06248
716.81718
721.40059
724.83485
727.02111
727.904
-0.43912134
-1.5073579
-2.6425496
-3.824425
-5.0733732
-6.4050059
-7.8356544
-9.3819432
-11.060787
-12.889346
-14.884942
-17.064965
-19.446752
-22.04745
-24.88387
-27.972318
-31.328433
-34.967008
-38.901818
-43.145449
-47.709143
-52.602643
-57.834077
-63.409852
-69.334599
-75.611137
-82.240516
-89.222085
-96.553642
-104.23165
-112.2515
-120.6079
-129.29525
-138.30816
-147.64195
-157.29328
-167.26071
-177.54536
-188.15152
-199.08719
-210.36465
-222.00083
-234.01765
-246.44217
-259.30653
-272.64771
-286.50705
-300.92943
-315.96225
-331.65401
-348.05259
-365.20327
-383.14628
-401.9142
-421.52899
-441.99877
-463.31451
-485.44647
-508.34073
-531.91569
-556.05879
-580.62349
-605.4268
-630.24734
-654.82428
-678.8572
-702.00722
-723.89946
-744.12682
-762.25627
-777.83612
-790.40293
-799.49157
-804.65177
-805.47118
-801.57817
-792.65319
-778.44873
-758.80345
-733.65467
-703.04795
-667.14273
-626.21291
-580.64196
-530.91225
-477.58916
-421.30103
-362.7164
-302.5202
-241.39076
-179.9789
-118.89038
-58.672384
0.19577601
57.307807
112.3318
165.00848
215.14695
262.61869
307.3504
349.31637
388.53065
425.03959
458.91479
490.24678
519.13944
545.70517
570.06087
592.32455
612.61265
631.03787
647.70753
662.72231
676.17533
688.15157
698.72759
707.97058
715.938
722.67979
728.24441
732.67063
735.98451
738.09232
738.94333
-0.29368778
-1.2136094
-2.1975561
-3.229117
-4.3287086