/*--------------------------------*- C++ -*----------------------------------*\
| =========                 |                                                 |
| \\      /  F ield         | foam-extend: Open Source CFD                    |
|  \\    /   O peration     | Version:     4.1                                |
|   \\  /    A nd           | Web:         http://www.foam-extend.org         |
|    \\/     M anipulation  |                                                 |
\*---------------------------------------------------------------------------*/
FoamFile
{
    version     2.0;
    format      ascii;
    class       surfaceScalarField;
    location    "0.9";
    object      phi;
}
// * * * * * * * * * * * * * * * * * * * * * * * * * * * * * * * * * * * * * //

dimensions      [0 3 -1 0 0 0 0];

internalField   nonuniform List<scalar> 
31929
(
-0.042678281
4.9696879e-05
-0.04273537
5.7089344e-05
-0.042793934
5.8563314e-05
-0.042853035
5.9101618e-05
-0.042912337
5.930204e-05
-0.042971745
5.9407545e-05
-0.04303125
5.9505582e-05
-0.043090887
5.9637144e-05
-0.043150709
5.9821837e-05
-0.043210782
6.0072281e-05
-0.043271176
6.0394299e-05
-0.043331969
6.0792679e-05
-0.043393237
6.1268044e-05
-0.043455058
6.1821282e-05
-0.043517508
6.244975e-05
-0.043580659
6.3151483e-05
-0.04364458
6.392121e-05
-0.043709335
6.4754584e-05
-0.043774979
6.56441e-05
-0.043841562
6.6583437e-05
-0.043909126
6.756329e-05
-0.043977702
6.8575848e-05
-0.044047312
6.9610538e-05
-0.044117971
7.0658652e-05
-0.04418968
7.1708985e-05
-0.044262432
7.2752614e-05
-0.044336211
7.3778411e-05
-0.044410989
7.4777964e-05
-0.04448673
7.5740951e-05
-0.04456339
7.6660198e-05
-0.044640917
7.7526876e-05
-0.044719252
7.8335309e-05
-0.044798332
7.9080131e-05
-0.044878088
7.9756066e-05
-0.04495845
8.036147e-05
-0.045039343
8.0893396e-05
-0.045120696
8.1352868e-05
-0.045202435
8.1739541e-05
-0.045284492
8.2056967e-05
-0.0453668
8.2307108e-05
-0.045449295
8.2495585e-05
-0.045531921
8.2626178e-05
-0.045614627
8.2705288e-05
-0.045697365
8.2738408e-05
-0.045780096
8.2731414e-05
-0.045862786
8.2689827e-05
-0.045945405
8.2618503e-05
-0.046027926
8.2521515e-05
-0.046110328
8.2401492e-05
-0.046192587
8.2259663e-05
-0.046274683
8.2095442e-05
-0.046356589
8.1906233e-05
-0.046438276
8.168722e-05
-0.046519708
8.1431434e-05
-0.046600837
8.1129359e-05
-0.046681606
8.0769293e-05
-0.046761944
8.0337303e-05
-0.046841761
7.9817446e-05
-0.046920953
7.9192014e-05
-0.046999395
7.8442076e-05
-0.047076943
7.7547593e-05
-0.047153431
7.6488262e-05
-0.047228675
7.5243946e-05
-0.04730247
7.379535e-05
-0.047374595
7.2124691e-05
-0.047444811
7.0216357e-05
-0.047512869
6.8057754e-05
-0.047578509
6.5639666e-05
-0.047641466
6.2957151e-05
-0.047701476
6.0009949e-05
-0.047758279
5.6802925e-05
-0.047811625
5.3346318e-05
-0.047861281
4.9656229e-05
-0.047907036
4.5754251e-05
-0.047948703
4.1667662e-05
-0.047986132
3.7428859e-05
-0.048019207
3.3074736e-05
-0.048047853
2.8646474e-05
-0.048072042
2.4188677e-05
-0.048091791
1.9748602e-05
-0.048107164
1.537372e-05
-0.048118276
1.1111951e-05
-0.048125287
7.0109529e-06
-0.048128403
3.1156874e-06
-0.048127858
-5.4430509e-07
-0.048123888
-3.9709189e-06
-0.048116769
-7.1189832e-06
-0.048106856
-9.9127828e-06
-0.048094536
-1.2320246e-05
-0.048080213
-1.4322624e-05
-0.048064303
-1.5909437e-05
-0.048047226
-1.7077025e-05
-0.048029398
-1.7827983e-05
-0.048011228
-1.817057e-05
-0.04799311
-1.8118119e-05
-0.047975421
-1.7688363e-05
-0.047958519
-1.6902717e-05
-0.047942733
-1.5785554e-05
-0.04792837
-1.4363409e-05
-0.047915705
-1.2664361e-05
-0.047904988
-1.0717337e-05
-0.047896436
-8.5515747e-06
-0.04789024
-6.1958984e-06
-0.047886562
-3.6782054e-06
-0.047885534
-1.0282141e-06
-0.047887246
1.7122723e-06
-0.047891763
4.5168719e-06
-0.047899143
7.3802218e-06
-0.047909432
1.0289059e-05
-0.047922659
1.3226451e-05
-0.047938835
1.6175673e-05
-0.047957955
1.9120825e-05
-0.047980002
2.2046624e-05
-0.04800494
2.4937649e-05
-0.048032717
2.7776997e-05
-0.048063262
3.0544967e-05
-0.048096482
3.3220114e-05
-0.048132258
3.5776369e-05
-0.048170408
3.8149909e-05
-0.048210567
4.0158817e-05
-0.048252105
4.1537848e-05
-0.048294626
4.2521328e-05
-0.048339667
4.5041102e-05
4.742298e-05
-0.049053395
6.7194018e-05
-0.049067956
7.1650833e-05
-0.049082655
7.3262434e-05
-0.049097448
7.3893931e-05
-0.049112255
7.4109283e-05
-0.049127037
7.4189427e-05
-0.049141796
7.4264645e-05
-0.049156562
7.4403287e-05
-0.049171382
7.4641354e-05
-0.049186312
7.500218e-05
-0.049201415
7.5498056e-05
-0.049216761
7.6138214e-05
-0.049232418
7.692535e-05
-0.049248458
7.7861379e-05
-0.049264951
7.8942818e-05
-0.049281966
8.0166129e-05
-0.049299567
8.1522763e-05
-0.049317817
8.3004539e-05
-0.049336772
8.4598519e-05
-0.049356481
8.6292583e-05
-0.049376988
8.8070161e-05
-0.049398328
8.9916062e-05
-0.049420529
9.1811045e-05
-0.049443608
9.3737935e-05
-0.049467575
9.5676006e-05
-0.04949243
9.760738e-05
-0.049518162
9.9511192e-05
-0.049544755
0.00010137026
-0.049572179
0.00010316499
-0.049600399
0.00010488032
-0.049629371
0.00010649929
-0.049659046
0.00010800975
-0.049689366
0.0001094004
-0.049720271
0.00011066081
-0.049751695
0.00011178614
-0.049783572
0.00011277049
-0.049815834
0.00011361416
-0.04984841
0.00011431628
-0.049881236
0.00011488212
-0.049914244
0.00011531538
-0.049947374
0.00011562545
-0.049980567
0.00011581963
-0.050013771
0.00011590932
-0.050046938
0.00011590484
-0.050080023
0.00011581719
-0.05011299
0.00011565682
-0.050145805
0.00011543298
-0.050178437
0.00011515343
-0.050210859
0.00011482332
-0.050243044
0.00011444505
-0.050274966
0.00011401756
-0.050306596
0.00011353588
-0.050337899
0.00011299077
-0.050368837
0.00011236866
-0.050399358
0.00011165108
-0.050429404
0.00011081516
-0.0504589
0.00010983362
-0.050487758
0.00010867514
-0.050515871
0.00010730485
-0.050543114
0.00010568532
-0.050569343
0.00010377691
-0.050594394
0.00010153932
-0.050618083
9.8932459e-05
-0.050640205
9.5917816e-05
-0.050660541
9.2459778e-05
-0.050678851
8.8526987e-05
-0.050694887
8.4093912e-05
-0.050708389
7.914181e-05
-0.050719093
7.3660333e-05
-0.050726731
6.7648456e-05
-0.050731044
6.1115362e-05
-0.050731778
5.4080973e-05
-0.050728699
4.6576866e-05
-0.05072159
3.8645821e-05
-0.050710264
3.0341806e-05
-0.050694565
2.1729512e-05
-0.050674373
1.2882991e-05
-0.050649611
3.8844423e-06
-0.050620244
-5.1787789e-06
-0.050586282
-1.4213167e-05
-0.050547788
-2.3120786e-05
-0.050504872
-3.1804006e-05
-0.050457693
-4.0167466e-05
-0.050406456
-4.812121e-05
-0.050351419
-5.5581838e-05
-0.050292927
-6.2462891e-05
-0.05023135
-6.8696058e-05
-0.05016703
-7.4232126e-05
-0.050100326
-7.9024163e-05
-0.050031611
-8.3037884e-05
-0.049961268
-8.6252245e-05
-0.049889687
-8.8658636e-05
-0.049817254
-9.0260499e-05
-0.049744352
-9.1072229e-05
-0.049671352
-9.1118096e-05
-0.04959861
-9.0430971e-05
-0.049526462
-8.9050913e-05
-0.049455223
-8.7023924e-05
-0.049385186
-8.4400153e-05
-0.049316618
-8.1232917e-05
-0.049249758
-7.757724e-05
-0.049184821
-7.3488718e-05
-0.049121994
-6.9022429e-05
-0.04906144
-6.4232577e-05
-0.049003296
-5.9171981e-05
-0.048947697
-5.3886696e-05
-0.048894759
-4.8421705e-05
-0.048844555
-4.282293e-05
-0.048797136
-3.7130534e-05
-0.048752528
-3.1380855e-05
-0.048710745
-2.5607474e-05
-0.048671783
-1.9841794e-05
-0.048635622
-1.4113645e-05
-0.048602232
-8.4526765e-06
-0.048571565
-2.890452e-06
-0.048543558
2.538235e-06
-0.048518134
7.7958053e-06
-0.04849519
1.2832599e-05
-0.048474574
1.7533783e-05
-0.048456056
2.164131e-05
-0.048439454
2.49352e-05
-0.048424704
2.7771685e-05
-0.048410129
3.0466423e-05
2.4383817e-05
-0.049720718
7.5435948e-05
-0.049726228
7.716134e-05
-0.049731063
7.8097687e-05
-0.049735731
7.8561847e-05
-0.049740405
7.8782996e-05
-0.049745157
7.8941903e-05
-0.04975004
7.9146961e-05
-0.049755102
7.9465217e-05
-0.049760396
7.9935431e-05
-0.049765977
8.0583746e-05
-0.049771903
8.1423996e-05
-0.049778231
8.2465923e-05
-0.049785017
8.371142e-05
-0.049792316
8.5160779e-05
-0.049800181
8.6807752e-05
-0.049808661
8.8645417e-05
-0.049817799
9.066082e-05
-0.049827635
9.2840946e-05
-0.049838204
9.5167112e-05
-0.049849532
9.7621225e-05
-0.049861642
0.00010017997
-0.049874547
0.00010282141
-0.049888255
0.00010551895
-0.049902766
0.00010824834
-0.049918071
0.00011098137
-0.049934157
0.00011369322
-0.049951002
0.00011635587
-0.049968577
0.00011894588
-0.04998685
0.00012143736
-0.050005779
0.00012381011
-0.050025322
0.00012604218
-0.05004543
0.00012811781
-0.050066053
0.00013002271
-0.050087136
0.00013174421
-0.050108627
0.0001332768
-0.05013047
0.00013461421
-0.050152614
0.00013575809
-0.050175007
0.00013670917
-0.050197601
0.00013747588
-0.050220351
0.00013806509
-0.050243216
0.00013849078
-0.050266161
0.00013876453
-0.050289154
0.00013890287
-0.050312171
0.00013892093
-0.050335188
0.00013883443
-0.050358189
0.000138658
-0.05038116
0.00013840438
-0.050404091
0.00013808379
-0.05042697
0.0001377025
-0.050449787
0.00013726256
-0.050472531
0.0001367608
-0.050495183
0.00013618819
-0.050517721
0.00013552933
-0.050540115
0.00013476235
-0.050562322
0.00013385824
-0.050584289
0.00013278145
-0.050605945
0.00013148992
-0.050627205
0.00012993572
-0.050647966
0.00012806576
-0.050668104
0.00012582314
-0.050687475
0.00012314791
-0.050705915
0.00011997915
-0.050723239
0.00011625637
-0.050739243
0.00011192149
-0.050753704
0.00010692085
-0.050766384
0.00010120716
-0.050777032
9.4741822e-05
-0.050785386
8.7496439e-05
-0.050791181
7.9455122e-05
-0.050794149
7.0615915e-05
-0.050794025
6.0992069e-05
-0.050790557
5.0612758e-05
-0.050783505
3.9524412e-05
-0.05077265
2.7791006e-05
-0.050757801
1.5492958e-05
-0.050738798
2.7263992e-06
-0.050715516
-1.0398207e-05
-0.050687873
-2.3758668e-05
-0.05065583
-3.7221781e-05
-0.050619396
-5.0647921e-05
-0.050578623
-6.3893377e-05
-0.050533614
-7.6813061e-05
-0.050484517
-8.9264349e-05
-0.050431527
-0.00010111098
-0.050374884
-0.00011222473
-0.050314861
-0.00012248632
-0.050251763
-0.00013179408
-0.05018593
-0.00014006458
-0.050117726
-0.00014722903
-0.050047527
-0.00015323678
-0.049975723
-0.00015805627
-0.049902707
-0.00016167414
-0.049828873
-0.00016409497
-0.049754605
-0.00016533969
-0.049680279
-0.00016544395
-0.049606254
-0.00016445626
-0.049532869
-0.00016243588
-0.049460442
-0.00015945098
-0.049389266
-0.00015557587
-0.049319609
-0.00015088965
-0.049251713
-0.00014547388
-0.049185791
-0.00013941097
-0.04912203
-0.00013278262
-0.049060594
-0.00012566902
-0.049001619
-0.0001181468
-0.048945218
-0.00011028779
-0.048891479
-0.0001021604
-0.048840473
-9.3829548e-05
-0.048792249
-8.5354433e-05
-0.04874684
-7.6789423e-05
-0.048704263
-6.8184386e-05
-0.048664519
-5.9585756e-05
-0.048627595
-5.1037416e-05
-0.048593466
-4.2582585e-05
-0.04856209
-3.4266164e-05
-0.048533415
-2.6136108e-05
-0.048507375
-1.8245071e-05
-0.048483875
-1.0666682e-05
-0.048462794
-3.5478037e-06
-0.048444025
2.872806e-06
-0.048427591
8.5010149e-06
-0.048413199
1.3379255e-05
-0.04839933
1.6598332e-05
1.2173359e-05
-0.049771616
8.109874e-05
-0.049775863
8.1407777e-05
-0.049779507
8.1741923e-05
-0.049782924
8.1978896e-05
-0.049786307
8.2165768e-05
-0.049789762
8.2396803e-05
-0.049793362
8.2747306e-05
-0.04979717
8.3273147e-05
-0.049801244
8.4009759e-05
-0.049805643
8.4982527e-05
-0.049810424
8.6204741e-05
-0.049815643
8.7685314e-05
-0.049821356
8.9424467e-05
-0.049827616
9.1420228e-05
-0.049834471
9.3663145e-05
-0.049841968
9.6142567e-05
-0.049850148
9.8840919e-05
-0.049859048
0.00010174019
-0.049868696
0.00010481589
-0.049879119
0.00010804396
-0.049890334
0.0001113944
-0.049902351
0.00011483867
-0.049915175
0.00011834304
-0.049928803
0.00012187643
-0.049943225
0.00012540341
-0.049958424
0.00012889261
-0.049974378
0.00013230924
-0.049991056
0.00013562397
-0.050008424
0.00013880506
-0.050026441
0.00014182761
-0.050045064
0.00014466514
-0.050064245
0.00014729868
-0.050083934
0.0001497114
-0.050104078
0.00015188875
-0.050124626
0.00015382493
-0.050145526
0.00015551365
-0.050166726
0.0001569582
-0.050188178
0.00015816115
-0.050209836
0.00015913429
-0.050231659
0.00015988791
-0.050253609
0.00016044065
-0.050275653
0.0001608085
-0.050297763
0.0001610132
-0.050319917
0.00016107472
-0.050342096
0.0001610135
-0.050364286
0.00016084838
-0.050386477
0.00016059552
-0.050408661
0.00016026757
-0.050430831
0.00015987185
-0.050452978
0.00015940998
-0.050475094
0.00015887652
-0.050497164
0.00015825825
-0.050519168
0.00015753342
-0.050541077
0.00015667163
-0.050562852
0.00015563305
-0.05058444
0.0001543691
-0.050605772
0.00015282257
-0.050626765
0.00015092845
-0.050647314
0.00014861488
-0.050667296
0.00014580491
-0.050686566
0.0001424176
-0.050704957
0.00013837066
-0.050722283
0.00013358244
-0.050738336
0.00012797448
-0.050752889
0.0001214742
-0.0507657
0.00011401757
-0.05077651
0.0001055521
-0.050785053
9.6039002e-05
-0.050791054
8.5456166e-05
-0.050794238
7.3800221e-05
-0.050794334
6.1087922e-05
-0.050791078
4.7357259e-05
-0.050784224
3.2670076e-05
-0.050773545
1.7111907e-05
-0.050758842
7.898991e-07
-0.050739947
-1.6168517e-05
-0.050716729
-3.3616195e-05
-0.050689098
-5.1389071e-05
-0.050657011
-6.9309209e-05
-0.05062047
-8.7189129e-05
-0.050579527
-0.00010483577
-0.050534286
-0.00012205451
-0.050484896
-0.00013865395
-0.050431557
-0.00015445045
-0.05037451
-0.00016927128
-0.050314038
-0.00018295896
-0.050250455
-0.00019537683
-0.050184109
-0.00020641048
-0.05011537
-0.00021596805
-0.050044625
-0.0002239821
-0.04997227
-0.00023041067
-0.049898708
-0.00023523603
-0.049824339
-0.00023846449
-0.049749554
-0.00024012422
-0.049674735
-0.0002402631
-0.049600245
-0.00023894622
-0.049526428
-0.00023625297
-0.049453604
-0.00023227466
-0.049382069
-0.00022711069
-0.049312092
-0.00022086679
-0.049243914
-0.00021365192
-0.049177749
-0.00020557606
-0.049113784
-0.00019674814
-0.049052178
-0.00018727474
-0.048993067
-0.0001772575
-0.048936562
-0.00016679286
-0.048882751
-0.00015597188
-0.0488317
-0.00014487973
-0.04878346
-0.00013359466
-0.048738061
-0.00012218867
-0.048695518
-0.0001107275
-0.048655831
-9.9272132e-05
-0.048618989
-8.7879809e-05
-0.048584965
-7.6606255e-05
-0.048553724
-6.550797e-05
-0.048525216
-5.4644006e-05
-0.048499381
-4.4080178e-05
-0.048476137
-3.3910109e-05
-0.048455394
-2.4291383e-05
-0.048437106
-1.5414716e-05
-0.048421268
-7.3374599e-06
-0.048407469
-4.1926143e-07
-0.048395251
4.3805518e-06
4.0121174e-06
-0.049773527
8.5850836e-05
-0.049777537
8.541761e-05
-0.049781085
8.5290048e-05
-0.049784404
8.5297967e-05
-0.049787656
8.5417803e-05
-0.049790951
8.5691596e-05
-0.049794371
8.6167337e-05
-0.049797986
8.6888411e-05
-0.049801861
8.7884775e-05
-0.049806058
8.9179412e-05
-0.049810637
9.078401e-05
-0.049815658
9.2705997e-05
-0.049821177
9.4943532e-05
-0.049827249
9.7492117e-05
-0.049833925
0.00010033892
-0.049841251
0.00010346943
-0.049849272
0.00010686131
-0.049858023
0.00011049142
-0.049867537
0.00011432936
-0.049877838
0.00011834492
-0.049888944
0.00012250129
-0.049900869
0.00012676313
-0.049913615
0.00013108936
-0.049927181
0.00013544189
-0.049941555
0.00013977789
-0.049956722
0.00014405916
-0.049972656
0.00014824395
-0.049989329
0.00015229686
-0.050006704
0.00015618005
-0.05002474
0.00015986374
-0.050043392
0.00016331675
-0.05006261
0.00016651674
-0.050082343
0.0001694442
-0.050102537
0.00017208267
-0.050123138
0.00017442596
-0.050144092
0.0001764678
-0.050165347
0.00017821314
-0.050186852
0.0001796665
-0.050208561
0.00018084322
-0.05023043
0.00018175717
-0.050252422
0.00018243196
-0.050274502
0.00018288829
-0.050296642
0.00018315348
-0.05031882
0.00018325274
-0.050341018
0.00018321169
-0.050363223
0.00018305383
-0.050385427
0.00018279922
-0.050407623
0.00018246338
-0.050429806
0.00018205516
-0.050451972
0.00018157611
-0.050474115
0.00018101891
-0.050496223
0.0001803664
-0.05051828
0.00017959068
-0.050540261
0.00017865291
-0.050562131
0.00017750236
-0.050583839
0.00017607728
-0.050605321
0.00017430498
-0.050626496
0.0001721029
-0.050647261
0.00016937981
-0.050667494
0.00016603795
-0.050687051
0.00016197451
-0.050705765
0.00015708486
-0.050723447
0.00015126506
-0.050739888
0.00014441514
-0.050754856
0.00013644241
-0.050768104
0.00012726488
-0.050779367
0.00011681504
-0.05078837
0.00010504263
-0.050794832
9.1918366e-05
-0.050798469
7.7436789e-05
-0.050798998
6.1617036e-05
-0.050796147
4.4506088e-05
-0.050789659
2.6181919e-05
-0.050779298
6.7511171e-06
-0.050764855
-1.3653083e-05
-0.050746153
-3.4870167e-05
-0.050723055
-5.6714422e-05
-0.050695465
-7.8978853e-05
-0.050663335
-0.00010143913
-0.050626666
-0.00012385821
-0.05058551
-0.00014599183
-0.050539971
-0.00016759381
-0.050490203
-0.00018842196
-0.05043641
-0.00020824363
-0.05037884
-0.00022684067
-0.050317784
-0.00024401491
-0.050253568
-0.00025959322
-0.050186548
-0.00027343026
-0.050117106
-0.00028541032
-0.050045639
-0.00029544886
-0.049972556
-0.00030349365
-0.049898269
-0.00030952312
-0.049823187
-0.00031354607
-0.049747713
-0.00031559888
-0.049672233
-0.00031574283
-0.049597118
-0.0003140608
-0.049522718
-0.00031065363
-0.049449355
-0.00030563705
-0.049377329
-0.00029913679
-0.049306909
-0.00029128637
-0.049238338
-0.00028222317
-0.049171829
-0.00027208566
-0.049107566
-0.00026101077
-0.049045709
-0.0002491322
-0.048986389
-0.00023657741
-0.048929714
-0.00022346748
-0.04887577
-0.0002099161
-0.048824621
-0.00019602896
-0.048776312
-0.00018190323
-0.048730873
-0.0001676281
-0.048688315
-0.00015328465
-0.04864864
-0.00013894757
-0.048611833
-0.0001246863
-0.048577872
-0.00011056731
-0.048546724
-9.6656163e-05
-0.048518348
-8.3019963e-05
-0.048492695
-6.9733585e-05
-0.048469705
-5.6899543e-05
-0.048449332
-4.4664359e-05
-0.048431573
-3.3173741e-05
-0.048416402
-2.2508905e-05
-0.048403535
-1.3286093e-05
-0.048393155
-5.9992627e-06
-2.053086e-06
-0.04977464
9.0106609e-05
-0.049778456
8.9233713e-05
-0.049781923
8.8757507e-05
-0.049785183
8.8557977e-05
-0.049788363
8.8597833e-05
-0.049791566
8.8894128e-05
-0.049794875
8.9476942e-05
-0.049798367
9.0379431e-05
-0.049802108
9.1626026e-05
-0.049806165
9.3236731e-05
-0.049810602
9.5221098e-05
-0.049815481
9.7584668e-05
-0.049820861
0.00010032325
-0.049826798
0.00010342963
-0.049833347
0.00010688742
-0.049840555
0.00011067809
-0.049848468
0.00011477442
-0.049857125
0.00011914799
-0.049866558
0.00012376227
-0.049876794
0.00012858072
-0.049887852
0.00013355948
-0.049899745
0.00013865618
-0.049912478
0.00014382213
-0.049926048
0.00014901191
-0.049940445
0.000154175
-0.049955652
0.00015926608
-0.049971644
0.00016423612
-0.04998839
0.0001690433
-0.050005854
0.00017364343
-0.050023991
0.00017800156
-0.050042756
0.00018208154
-0.050062097
0.00018585745
-0.05008196
0.00018930694
-0.050102289
0.0001924115
-0.050123027
0.00019516449
-0.050144119
0.00019755964
-0.050165509
0.00019960366
-0.050187146
0.00020130315
-0.05020898
0.00020267719
-0.050230966
0.00020374357
-0.050253066
0.0002045312
-0.050275243
0.00020506594
-0.050297471
0.00020538118
-0.050319726
0.00020550794
-0.050341992
0.00020547758
-0.050364257
0.0002053189
-0.050386514
0.00020505647
-0.05040876
0.00020470932
-0.050430994
0.00020428838
-0.050453213
0.00020379569
-0.050475417
0.00020322249
-0.050497598
0.00020254806
-0.050519746
0.00020173855
-0.05054184
0.00020074681
-0.050563849
0.00019951118
-0.050585728
0.00019795646
-0.050607417
0.00019599412
-0.050628838
0.00019352344
-0.050649891
0.00019043305
-0.050670456
0.00018660345
-0.050690391
0.00018190883
-0.050709527
0.00017622094
-0.050727674
0.0001694122
-0.050744618
0.00016135963
-0.050760125
0.00015194892
-0.050773939
0.00014107863
-0.050785788
0.00012866471
-0.05079539
0.00011464409
-0.050802451
9.8979109e-05
-0.050806675
8.166107e-05
-0.050807769
6.2710839e-05
-0.050805447
4.2184474e-05
-0.050799441
2.0175425e-05
-0.0507895
-3.1893308e-06
-0.050775405
-2.7748612e-05
-0.050756967
-5.3307544e-05
-0.050734041
-7.9640838e-05
-0.050706523
-0.00010649683
-0.050674359
-0.00013360257
-0.050637548
-0.00016066917
-0.050596141
-0.00018739875
-0.050550244
-0.00021349098
-0.050500016
-0.00023865027
-0.050445667
-0.00026259274
-0.050387455
-0.00028505264
-0.050325681
-0.00030578891
-0.050260683
-0.00032459058
-0.050192833
-0.00034128069
-0.050122524
-0.00035571898
-0.05005017
-0.00036780357
-0.049976191
-0.00037747221
-0.049901014
-0.00038470007
-0.049825061
-0.00038949945
-0.049748743
-0.00039191624
-0.04967246
-0.00039202655
-0.049596588
-0.00038993268
-0.049521483
-0.00038575855
-0.049447474
-0.00037964597
-0.049374862
-0.00037174859
-0.049303919
-0.0003622292
-0.049234887
-0.00035125494
-0.049167979
-0.00033899394
-0.049103378
-0.00032561208
-0.049041239
-0.00031127102
-0.048981692
-0.00029612467
-0.04892484
-0.00028031907
-0.048870765
-0.0002639908
-0.048819528
-0.00024726638
-0.048771169
-0.00023026184
-0.048725714
-0.00021308337
-0.048683172
-0.00019582699
-0.048643539
-0.00017858056
-0.0486068
-0.00016142493
-0.048572931
-0.00014443607
-0.048541901
-0.00012768707
-0.048513669
-0.00011125121
-0.048488194
-9.5208762e-05
-0.048465432
-7.9661902e-05
-0.04844536
-6.4736469e-05
-0.048427987
-5.0546462e-05
-0.048413296
-3.7199432e-05
-0.048401176
-2.5406026e-05
-0.048392054
-1.5121332e-05
-7.0174398e-06
-0.049778092
9.4055957e-05
-0.049781714
9.2855583e-05
-0.049785053
9.2096898e-05
-0.049788206
9.1710607e-05
-0.049791274
9.1665991e-05
-0.049794351
9.1971211e-05
-0.049797521
9.2646489e-05
-0.049800859
9.3717976e-05
-0.049804439
9.5205582e-05
-0.049808329
9.7126482e-05
-0.049812596
9.9487966e-05
-0.049817304
0.00010229351
-0.049822518
0.00010553643
-0.049828294
0.0001092066
-0.049834691
0.00011328398
-0.049841759
0.00011774587
-0.049849544
0.00012255999
-0.049858089
0.00012769243
-0.049867427
0.00013310035
-0.049877587
0.0001387406
-0.049888589
0.00014456202
-0.049900448
0.00015051485
-0.049913168
0.00015654249
-0.049926748
0.00016259181
-0.049941178
0.00016860422
-0.049956438
0.00017452691
-0.049972505
0.00018030314
-0.049989346
0.00018588434
-0.050006923
0.00019121956
-0.050025189
0.00019626833
-0.050044097
0.00020098924
-0.050063592
0.00020535249
-0.050083618
0.00020933271
-0.050104115
0.00021290913
-0.050125026
0.00021607464
-0.050146289
0.00021882294
-0.050167848
0.00022116257
-0.050189647
0.00022310239
-0.050211635
0.00022466551
-0.050233766
0.00022587396
-0.050255997
0.00022676242
-0.050278293
0.00022736246
-0.050300626
0.00022771413
-0.050322973
0.00022785493
-0.050345318
0.00022782272
-0.050367652
0.00022765233
-0.050389969
0.00022737362
-0.05041227
0.00022700988
-0.050434556
0.00022657485
-0.050456832
0.00022607172
-0.0504791
0.00022549086
-0.050501361
0.00022480842
-0.050523607
0.00022398496
-0.050545826
0.00022296511
-0.050567991
0.00022167623
-0.050590064
0.00022002945
-0.050611989
0.00021791989
-0.050633694
0.000215228
-0.050655082
0.00021182132
-0.050676036
0.00020755746
-0.050696414
0.00020228625
-0.050716047
0.00019585431
-0.050734743
0.00018810872
-0.050752285
0.0001789017
-0.050768432
0.00016809548
-0.050782921
0.00015556726
-0.050795471
0.00014121471
-0.050805787
0.00012496019
-0.050813564
0.0001067563
-0.050818492
8.6589387e-05
-0.050820263
6.4481864e-05
-0.050818577
4.0498163e-05
-0.050813148
1.4746462e-05
-0.050803712
-1.2625326e-05
-0.050790033
-4.1427053e-05
-0.050771913
-7.1428373e-05
-0.050749191
-0.00010236265
-0.050721756
-0.00013393141
-0.050689548
-0.00016581051
-0.050652561
-0.00019765638
-0.050610845
-0.00022911454
-0.050564509
-0.00025982739
-0.050513716
-0.00028944286
-0.050458686
-0.00031762293
-0.050399687
-0.00034405153
-0.050337034
-0.00036844222
-0.05027108
-0.00039054444
-0.050202212
-0.00041014843
-0.050130843
-0.00042708862
-0.050057401
-0.00044124555
-0.049982326
-0.00045254724
-0.049906059
-0.00046096646
-0.049829038
-0.00046652021
-0.049751689
-0.00046926544
-0.049674421
-0.00046929495
-0.049597621
-0.00046673238
-0.049521653
-0.00046172678
-0.049446851
-0.00045444806
-0.04937352
-0.00044507969
-0.049301933
-0.00043381554
-0.049232334
-0.00042085414
-0.049164933
-0.00040639467
-0.049099912
-0.00039063314
-0.049037423
-0.00037376013
-0.048977591
-0.00035595666
-0.048920516
-0.00033739413
-0.048866275
-0.00031823226
-0.048814922
-0.00029861847
-0.048766497
-0.0002786875
-0.048721018
-0.00025856219
-0.048678492
-0.00023835291
-0.048638913
-0.00021815997
-0.048602263
-0.00019807455
-0.048568518
-0.00017818086
-0.048537647
-0.00015855808
-0.048509614
-0.00013928391
-0.048484382
-0.00012044073
-0.048461919
-0.00010212503
-0.048442213
-8.4442359e-05
-0.048425272
-6.7487612e-05
-0.048411095
-5.1376774e-05
-0.04839967
-3.6830648e-05
-0.048391439
-2.3352736e-05
-1.1336351e-05
-0.049783424
9.7748384e-05
-0.049786841
9.627179e-05
-0.049790013
9.5269131e-05
-0.049793014
9.471132e-05
-0.049795929
9.458098e-05
-0.049798843
9.4886113e-05
-0.04980184
9.5642857e-05
-0.049804995
9.6873392e-05
-0.049808384
9.8594479e-05
-0.049812079
0.00010082099
-0.049816149
0.00010355811
-0.049820663
0.00010680726
-0.049825685
0.00011055916
-0.049831279
0.00011480073
-0.049837504
0.00011950814
-0.049844412
0.00012465435
-0.049852054
0.00013020188
-0.049860473
0.00013611111
-0.049869705
0.00014233265
-0.049879781
0.00014881646
-0.049890722
0.00015550374
-0.049902545
0.00016233704
-0.049915254
0.0001692514
-0.049928847
0.00017618564
-0.049943316
0.00018307263
-0.049958641
0.00018985163
-0.049974795
0.00019645778
-0.049991746
0.00020283528
-0.050009453
0.00020892602
-0.050027868
0.00021468362
-0.05004694
0.00022006103
-0.050066611
0.0002250243
-0.050086824
0.00022954474
-0.050107514
0.00023359921
-0.050128619
0.00023717997
-0.050150077
0.00024028073
-0.050171826
0.00024291194
-0.050193809
0.00024508494
-0.05021597
0.00024682717
-0.050238262
0.00024816531
-0.05026064
0.00024914036
-0.050283067
0.00024979021
-0.050305515
0.00025016226
-0.050327962
0.00025030133
-0.050350392
0.00025025261
-0.050372797
0.00025005784
-0.050395177
0.00024975308
-0.050417534
0.00024936679
-0.050439875
0.00024891637
-0.05046221
0.00024840692
-0.050484548
0.00024782864
-0.050506895
0.00024715508
-0.050529251
0.00024634156
-0.050551611
0.0002453247
-0.050573956
0.00024402082
-0.050596253
0.00024232708
-0.050618455
0.00024012171
-0.050640492
0.00023726547
-0.050662275
0.00023360376
-0.050683687
0.00022896992
-0.050704589
0.00022318784
-0.050724812
0.00021607717
-0.050744161
0.00020745766
-0.050762414
0.00019715459
-0.050779323
0.0001850045
-0.050794616
0.00017086104
-0.050808003
0.00015460141
-0.050819174
0.00013613135
-0.05082781
0.00011539195
-0.050833583
9.2362944e-05
-0.050836169
6.7067449e-05
-0.050835248
3.957741e-05
-0.050830517
1.0015061e-05
-0.050821692
-2.1449801e-05
-0.050808522
-5.4597261e-05
-0.050790791
-8.9159987e-05
-0.050768325
-0.00012482797
-0.050741003
-0.00016125336
-0.050708756
-0.00019805773
-0.050671573
-0.00023483946
-0.050629504
-0.0002711838
-0.050582659
-0.0003066721
-0.05053121
-0.00034089215
-0.050475384
-0.00037344828
-0.050415465
-0.00040397082
-0.050351782
-0.00043212514
-0.050284708
-0.00045761892
-0.050214648
-0.00048020811
-0.050142036
-0.00049970095
-0.050067321
-0.00051596021
-0.049990964
-0.0005289046
-0.049913425
-0.00053850547
-0.049835159
-0.0005447861
-0.049756608
-0.00054781642
-0.049678195
-0.00054770808
-0.049600318
-0.0005446085
-0.049523351
-0.0005386943
-0.049447633
-0.00053016591
-0.049373474
-0.00051923898
-0.049301149
-0.00050614058
-0.0492309
-0.00049110255
-0.049162938
-0.00047435679
-0.04909744
-0.00045613087
-0.049034555
-0.0004366454
-0.048974402
-0.00041610938
-0.048917076
-0.00039472009
-0.048862648
-0.00037266071
-0.048811167
-0.0003500997
-0.048762664
-0.00032719038
-0.048717154
-0.00030407185
-0.048674639
-0.00028086831
-0.048635107
-0.00025769164
-0.048598539
-0.00023464231
-0.048564909
-0.00021181139
-0.048534184
-0.00018928259
-0.048506332
-0.00016713595
-0.04848132
-0.00014545256
-0.048459126
-0.00012431984
-0.048439743
-0.0001038254
-0.04842318
-8.4049797e-05
-0.048409458
-6.5098746e-05
-0.048398608
-4.7681591e-05
-0.048391002
-3.0957908e-05
-1.5248694e-05
-0.049790718
0.00010121135
-0.049793921
9.9474714e-05
-0.049796897
9.8245209e-05
-0.049799709
9.7522931e-05
-0.049802432
9.73043e-05
-0.049805147
9.7601335e-05
-0.049807934
9.8429847e-05
-0.049810871
9.9810486e-05
-0.049814035
0.00010175825
-0.049817501
0.00010428641
-0.049821341
0.00010739838
-0.049825627
0.00011109363
-0.049830428
0.00011536037
-0.04983581
0.00012018247
-0.049841834
0.00012553223
-0.049848558
0.00013137815
-0.049856034
0.00013767733
-0.049864307
0.00014438425
-0.049873417
0.00015144265
-0.049883396
0.00015879532
-0.049894267
0.00016637542
-0.049906048
0.0001741174
-0.049918744
0.00018194754
-0.049932354
0.00018979607
-0.049946868
0.00019758688
-0.049962268
0.00020525077
-0.049978524
0.00021271423
-0.049995602
0.00021991374
-0.05001346
0.00022678353
-0.050032047
0.00023327087
-0.050051309
0.00023932261
-0.050071185
0.00024490032
-0.050091612
0.00024997172
-0.050112524
0.00025451104
-0.050133853
0.00025850984
-0.050155535
0.00026196181
-0.050177502
0.00026487946
-0.050199694
0.00026727679
-0.050222053
0.00026918594
-0.050244526
0.00027063876
-0.050267069
0.00027168314
-0.050289643
0.00027236401
-0.050312217
0.00027273701
-0.050334771
0.00027285514
-0.050357291
0.00027277192
-0.05037977
0.00027253709
-0.050402211
0.00027219396
-0.050424621
0.00027177719
-0.050447014
0.00027130886
-0.050469404
0.00027079692
-0.050491807
0.00027023219
-0.050514238
0.00026958629
-0.050536706
0.00026880976
-0.050559213
0.00026783141
-0.050581749
0.00026655651
-0.05060429
0.00026486794
-0.050626794
0.00026262638
-0.050649201
0.00025967203
-0.050671424
0.00025582684
-0.050693352
0.00025089835
-0.050714847
0.00024468263
-0.05073574
0.00023697024
-0.050755834
0.00022755128
-0.050774901
0.00021622156
-0.050792686
0.00020278935
-0.050808907
0.00018708212
-0.050823259
0.00016895401
-0.05083542
0.00014829175
-0.05084505
0.00012502267
-0.050851806
9.9118351e-05
-0.050855339
7.0601043e-05
-0.050855311
3.9548997e-05
-0.050851394
6.0981275e-06
-0.050843285
-2.9558868e-05
-0.050830711
-6.7171339e-05
-0.050813437
-0.00010643371
-0.050791275
-0.00014699001
-0.050764089
-0.00018843994
-0.050731799
-0.00023034718
-0.050694391
-0.00027224803
-0.050651911
-0.00031366315
-0.050604475
-0.00035410839
-0.05055226
-0.00039310692
-0.050495507
-0.00043020122
-0.050434514
-0.00046496422