/*--------------------------------*- C++ -*----------------------------------*\
| =========                 |                                                 |
| \\      /  F ield         | foam-extend: Open Source CFD                    |
|  \\    /   O peration     | Version:     4.1                                |
|   \\  /    A nd           | Web:         http://www.foam-extend.org         |
|    \\/     M anipulation  |                                                 |
\*---------------------------------------------------------------------------*/
FoamFile
{
    version     2.0;
    format      ascii;
    class       volScalarField;
    location    "0.9";
    object      p;
}
// * * * * * * * * * * * * * * * * * * * * * * * * * * * * * * * * * * * * * //

dimensions      [0 2 -2 0 0 0 0];

internalField   nonuniform List<scalar> 
16126
(
6.9850154e-05
0.00063809305
0.00085137459
0.0013468967
0.0016210971
0.002058956
0.0023688862
0.0027663213
0.0030913829
0.003459514
0.0037856138
0.0041298619
0.0044475514
0.0047693131
0.0050718276
0.0053702777
0.0056523333
0.0059251951
0.0061821288
0.0064262441
0.0066536159
0.0068652734
0.0070586841
0.0072337083
0.0073884958
0.0075224343
0.0076340495
0.0077224693
0.0077864476
0.0078250419
0.007837207
0.0078220883
0.007778812
0.0077067892
0.0076051056
0.007473159
0.0073106045
0.0071176422
0.0068943432
0.0066429931
0.0063638092
0.0060562908
0.0057229391
0.0053655824
0.0049867937
0.0045894356
0.0041769266
0.0037531574
0.0033225509
0.0028900447
0.0024610958
0.0020416665
0.0016382025
0.0012576046
0.00090718838
0.00059463554
0.00032793664
0.00011532293
-3.480759e-05
-0.0001139765
-0.00011370952
-2.5642114e-05
0.00015839203
0.0004462426
0.00084535511
0.0013626461
0.0020044247
0.002776269
0.0036829618
0.0047283674
0.0059153961
0.0072458646
0.0087204997
0.010338759
0.012098889
0.013997659
0.016030549
0.018191282
0.020472369
0.022864149
0.025356269
0.027935401
0.030589275
0.033300521
0.036057278
0.038838324
0.041606406
0.04433522
0.047003717
0.049593983
0.052093001
0.054496457
0.056809955
0.059050875
0.061247123
0.063423542
0.065624307
0.067873681
0.070163302
0.072510213
0.074913284
0.077370325
0.079861308
0.082386461
0.084916232
0.087474076
0.09002171
0.092639649
0.095270598
0.098120329
0.10107716
0.10461579
0.10845385
0.11363398
0.1193282
0.1278123
0.136586
0.15094487
0.16339701
0.18819707
0.20178747
0.25212044
0.24829119
0.41732194
6.5558803e-05
0.0006411556
0.00085143536
0.0013470831
0.0016215723
0.0020590225
0.0023698915
0.0027665856
0.003092107
0.0034596447
0.0037859109
0.0041296736
0.0044473687
0.0047688784
0.0050714162
0.0053697407
0.0056518112
0.005924605
0.006181531
0.0064255765
0.006652883
0.0068643688
0.0070575987
0.0072324938
0.0073872052
0.0075211066
0.0076327351
0.0077212239
0.007785358
0.0078242214
0.0078368489
0.0078224956
0.0077804987
0.0077112183
0.0076124491
0.0074826051
0.0073223601
0.0071316359
0.0069108274
0.006659977
0.0063810039
0.006075729
0.0057449511
0.0053906567
0.0050152102
0.0046215102
0.004212944
0.0037934014
0.0033672883
0.0029395237
0.0025155374
0.0021012572
0.0017030857
0.0013278723
0.00098287302
0.00067570165
0.0004142737
0.00020673906
6.1409043e-05
-1.3327941e-05
-9.0891059e-06
8.2398917e-05
0.00026921444
0.00055912456
0.0009595006
0.0014771956
0.0021184691
0.0028888659
0.0037931538
0.0048352033
0.0060179522
0.0073432677
0.0088119483
0.010423545
0.012176414
0.014067448
0.016092255
0.018244696
0.020517397
0.022900837
0.02538473
0.027955882
0.030602165
0.033305901
0.036059445
0.038831958
0.041585683
0.044303629
0.046960635
0.049539567
0.052027227
0.054421854
0.056725971
0.058971998
0.061167355
0.063423571
0.065699966
0.067957528
0.070306689
0.07272876
0.075218526
0.077770172
0.080364049
0.08300136
0.085655607
0.088351555
0.091055827
0.093847995
0.096677253
0.099741292
0.10293785
0.10671738
0.11081772
0.11622395
0.12216616
0.13078607
0.13975907
0.15400485
0.16662345
0.19024978
0.20447539
0.24467836
0.25266559
0.31260712
4.6156463e-05
0.00064512498
0.00084843776
0.0013480652
0.0016230043
0.0020589363
0.0023712562
0.0027670859
0.00309432
0.0034616367
0.0037893886
0.004133585
0.0044525505
0.004774484
0.0050779569
0.0053768215
0.0056597445
0.0059332237
0.0061910572
0.0064360006
0.0066644174
0.0068772567
0.0070721589
0.0072486936
0.0074050411
0.0075406384
0.0076540597
0.0077444215
0.0078104822
0.0078512733
0.0078656842
0.0078527271
0.007811323
0.0077398433
0.0076389279
0.0075090552
0.0073488986
0.0071586826
0.0069384717
0.0066894516
0.0064121951
0.006107297
0.0057766222
0.0054219852
0.0050458922
0.0046511801
0.004241232
0.0038199031
0.0033915748
0.0029611398
0.0025340057
0.0021160824
0.0017137593
0.0013338794
0.00098369983
0.00067084321
0.00040324326
0.00018907813
3.6697452e-05
-4.546093e-05
-4.8953313e-05
3.4564924e-05
0.00021325454
0.0004949745
0.00088719759
0.0013968851
0.0020304116
0.0027934413
0.0036908641
0.0047266737
0.0059039311
0.0072246246
0.0086896702
0.010298733
0.01205027
0.013941273
0.015967417
0.018122631
0.020399522
0.022788578
0.025279272
0.027858347
0.030512696
0.033224815
0.035981841
0.038756277
0.041519438
0.044251591
0.046927035
0.049528518
0.052044218
0.054468697
0.056816112
0.059091311
0.061376033
0.063593538
0.065784688
0.06808659
0.070443483
0.072876653
0.075375399
0.077937136
0.080543675
0.083195174
0.085869058
0.088589656
0.091333319
0.09417937
0.097097013
0.1002781
0.10365525
0.10764694
0.11204512
0.11772333
0.12400575
0.1327272
0.14182201
0.15542248
0.16762475
0.188717
0.20260589
0.23576356
0.24882765
0.29254667
1.8102931e-05
0.0006500415
0.00084230133
0.0013488047
0.0016237517
0.0020609993
0.0023755068
0.002770962
0.0031000263
0.0034669515
0.0037959687
0.0041397497
0.0044596714
0.0047820416
0.0050866673
0.0053863554
0.0056704993
0.0059450347
0.0062041328
0.0064502251
0.0066798494
0.0068935532
0.0070890374
0.0072663158
0.0074237364
0.0075605105
0.0076752268
0.0077669869
0.0078346005
0.0078771326
0.0078936154
0.0078831881
0.0078451316
0.0077787694
0.0076829615
0.0075570776
0.0074009315
0.0072144888
0.0069980263
0.0067519586
0.0064774923
0.00617596
0.0058486326
0.0054974324
0.0051246389
0.0047330537
0.0043259486
0.0039071031
0.0034808047
0.003051855
0.0026255654
0.0022077498
0.0018047016
0.0014231715
0.0010703305
0.00075372383
0.00048122061
0.00026095002
0.00010123155
1.049497e-05
-2.7984604e-06
6.9739896e-05
0.00023634486
0.00050497889
0.00088324983
0.0013782825
0.0019966444
0.0027442167
0.0036261294
0.0046466311
0.0058090511
0.0071156489
0.0085676121
0.010164868
0.011906123
0.013788595
0.015808156
0.017958913
0.020233564
0.022622727
0.025115692
0.027699364
0.030359098
0.033078698
0.03583295
0.038611999
0.041394246
0.044146644
0.046851448
0.049490209
0.052051694
0.05453638
0.056942647
0.059317568
0.061606571
0.06388469
0.066232035
0.06860547
0.071055137
0.073579492
0.076177764
0.078846874
0.081572051
0.084355786
0.087181564
0.090074664
0.093020345
0.096093024
0.099273736
0.10273385
0.10642235
0.11070159
0.11539448
0.12124332
0.12765996
0.13618179
0.14503252
0.15758276
0.16893074
0.18689721
0.19922357
0.22289065
0.23394434
0.2520113
-1.5820024e-05
0.00065567948
0.00083345306
0.0013499464
0.0016237552
0.0020627182
0.0023789509
0.0027747764
0.0031060914
0.0034735855
0.0038048227
0.0041497777
0.0044717902
0.0047953635
0.0051017957
0.005402875
0.005688812
0.0059649867
0.0062260349
0.0064741118
0.006706028
0.0069223297
0.0071207987
0.0073010798
0.0074615667
0.0076015263
0.0077195876
0.0078148263
0.0078860233
0.0079321898
0.0079522306
0.0079451806
0.0079100788
0.007846026
0.0077527622
0.0076300101
0.0074772264
0.0072944198
0.007081687
0.0068396513
0.0065689515
0.0062704948
0.0059457667
0.005596516
0.0052250122
0.0048339263
0.0044264286
0.0040061694
0.0035773114
0.0031445272
0.0027130053
0.0022884438
0.0018770333
0.0014854387
0.0011207675
0.0007905278
0.0005025835
0.00026509404
8.6448914e-05
-2.4809904e-05
-6.0063332e-05
-1.0720412e-05
0.00013170249
0.00037545876
0.00072848865
0.0011982824
0.0017918029
0.0025153447
0.0033744632
0.004373829
0.0055171854
0.0068071772
0.0082453483
0.0098319324
0.011565894
0.013444649
0.0154642
0.01761873
0.019900916
0.022301347
0.024809078
0.027410936
0.030091679
0.032835102
0.03561575
0.038421391
0.041240676
0.044041415
0.046802609
0.049509918
0.052153508
0.05472677
0.057245492
0.059681073
0.062085076
0.064486677
0.066889781
0.069352547
0.071869317
0.074454834
0.077105408
0.079821359
0.082592896
0.085424171
0.088305223
0.09126171
0.094288177
0.097455394
0.10075842
0.10435273
0.10820814
0.11263851
0.11750139
0.12341527
0.12987776
0.13813909
0.1467111
0.15827907
0.16893966
0.1846391
0.19634645
0.2156462
0.22694884
0.23925812
-4.8066552e-05
0.00066234565
0.00082468762
0.0013524778
0.001624605
0.0020670492
0.0023850615
0.0027821733
0.0031157227
0.0034841484
0.0038174792
0.0041634676
0.0044874446
0.0048124705
0.0051209957
0.0054239092
0.0057120845
0.0059903984
0.0062538371
0.006504279
0.0067387075
0.0069574823
0.0071585839
0.0073416938
0.0075052356
0.0076484453
0.0077699832
0.0078689265
0.0079441032
0.0079945501
0.0080192613
0.0080173054
0.0079878523
0.0079300535
0.0078430968
0.0077264465
0.0075797287
0.0074028301
0.0071958657
0.0069592111
0.0066936474
0.0064001968
0.0060800983
0.0057350484
0.0053671067
0.0049788085
0.0045731392
0.0041535804
0.0037241117
0.0032892266
0.0028539347
0.0024237639
0.0020047467
0.0016034083
0.0012267425
0.00088217417
0.00057752254
0.00032094619
0.00012088401
-1.4018842e-05
-7.4980781e-05
-5.3189472e-05
6.012249e-05
0.0002735496
0.00059543104
0.001033703
0.0015958186
0.0022885897
0.0031181121
0.0040895948
0.0052073144
0.0064744147
0.0078929044
0.0094634163
0.011185258
0.013056107
0.015072156
0.017227708
0.019515482
0.021926087
0.024448495
0.027069561
0.029774122
0.03254583
0.035364158
0.03820979
0.041067039
0.043920742
0.046750207
0.0495365
0.052270854
0.054951192
0.057564592
0.060138051
0.062678164
0.06520961
0.067769913
0.07035937
0.07300106
0.075700524
0.078459919
0.081281602
0.084159894
0.08710186
0.090102756
0.093188249
0.096358354
0.099676664
0.10314358
0.10689236
0.11090002
0.11542804
0.12035398
0.12618344
0.13248661
0.14026548
0.14828024
0.15860443
0.16813131
0.18112499
0.19099457
0.20492092
0.21349411
0.21966216
-7.6081233e-05
0.00066959222
0.00081698661
0.001356427
0.0016264471
0.00207285
0.0023923705
0.0027914484
0.0031274408
0.0034976004
0.0038335828
0.0041815741
0.0045082662
0.0048355339
0.005146793
0.0054522252
0.0057432894
0.0060244627
0.0062910759
0.0065447965
0.0067828092
0.0070053773
0.0072105344
0.0073978468
0.007565796
0.0077135937
0.0078399187
0.0079438165
0.0080240906
0.0080797324
0.0081096631
0.0081129077
0.0080885444
0.0080357515
0.0079539422
0.0078425974
0.0077012679
0.0075297697
0.0073280912
0.0070965336
0.0068355892
0.0065460552
0.0062290931
0.0058862179
0.0055193579
0.0051308657
0.0047235508
0.0043007026
0.0038661104
0.0034240785
0.0029794371
0.0025375496
0.0021043059
0.0016861183
0.0012899042
0.00092305538
0.00059340969
0.00030920068
7.9005658e-05
-8.8326122e-05
-0.00018373814
-0.00019807492
-0.00012215515
5.3091554e-05
0.0003365416
0.0007367136
0.0012616852
0.0019189101
0.00271514
0.0036562204
0.0047470455
0.0059913164
0.0073915481
0.008948784
0.010662669
0.0125311
0.014550414
0.016714944
0.019017373
0.021448214
0.023996304
0.0266484
0.029389351
0.032203004
0.035069841
0.037973326
0.040897642
0.043820256
0.046726735
0.049604324
0.052441315
0.055229464
0.057974711
0.060674225
0.06334756
0.066012865
0.068681556
0.071378869
0.074111006
0.076888351
0.079712982
0.082589226
0.085515746
0.088501457
0.091546805
0.094677605
0.097899583
0.10127162
0.10480091
0.10860463
0.11266955
0.117216
0.12214326
0.12786328
0.13401571
0.14139618
0.14899713
0.15841247
0.16724354
0.17856796
0.187662
0.19904875
0.20684095
0.21098971
-9.7513019e-05
0.00067698291
0.00081173854
0.0013620398
0.0016302821
0.002081223
0.0024023726
0.0028039864
0.0031424743
0.0035147299
0.0038533874
0.0042035544
0.004533004
0.0048627377
0.0051769339
0.0054851863
0.0057794178
0.00606376
0.0063338045
0.0065910296
0.0068327622
0.0070591748
0.0072684171
0.0074600218
0.007632511
0.007785078
0.0079164301
0.0080256103
0.0081114463
0.0081729328
0.0082090172
0.0082187061
0.0082010834
0.0081552442
0.0080804015
0.0079759219
0.0078413129
0.0076762912
0.0074807732
0.0072549204
0.0069991732
0.0067142464
0.006401118
0.0060611569
0.0056960812
0.0053080508
0.004899657
0.0044739752
0.004034575
0.0035855469
0.0031315157
0.0026776558
0.002229691
0.0017938979
0.0013770974
0.00098663116
0.00063034215
0.00031653016
5.390813e-05
-0.00014846717
-0.00028125315
-0.00033493259
-0.00029988263
-0.0001665216
7.4609206e-05
0.00043266273
0.00091640212
0.0015339887
0.0022929032
0.0031997022
0.0042599768
0.0054780617
0.0068570574
0.0083984866
0.010102404
0.011966981
0.013988759
0.016162139
0.018479827
0.020932254
0.023508195
0.026194297
0.028975566
0.031835668
0.034756538
0.037720207
0.04071047
0.043710511
0.046704095
0.049676898
0.052619464
0.055526598
0.058393835
0.061230095
0.06404285
0.066844779
0.06965368
0.072477158
0.075327403
0.078211464
0.081133542
0.084099437
0.087110436
0.090177078
0.093302851
0.096512554
0.099814275
0.10325992
0.10685804
0.11070738
0.1147972
0.1193077
0.12415139
0.1296569
0.13551892
0.14235399
0.14933878
0.15765456
0.16544257
0.17481993
0.182437
0.19097628
0.19701648
0.19958485
-0.00011272763
0.00068398514
0.00080895086
0.0013688202
0.001635815
0.0020912648
0.0024141612
0.0028186841
0.0031599001
0.0035347834
0.0038765186
0.0042294831
0.0045622119
0.0048950262
0.0052126944
0.0055243603
0.0058223329
0.0061104768
0.0063846174
0.006646085
0.0068923395
0.0071234681
0.0073376769
0.0075344435
0.0077123218
0.0078704749
0.0080076141
0.0081227495
0.0082146862
0.0082823781
0.0083247267
0.0083407034
0.008329343
0.0082897413
0.0082211302
0.0081228189
0.0079942443
0.0078350116
0.0076449074
0.0074239474
0.0071723647
0.0068906811
0.0065797061
0.0062406101
0.0058749203
0.0054845844
0.0050719793
0.0046399597
0.0041918773
0.0037316114
0.0032635897
0.0027928106
0.0023248519
0.0018658806
0.0014226551
0.0010025078
0.00061333555
0.00026356063
-3.7904576e-05
-0.00028172554
-0.00045819644
-0.00055735648
-0.00056905408
-0.00048310719
-0.0002893826
2.1997421e-05
0.00046057253
0.0010352964
0.0017544621
0.0026254089
0.0036544936
0.0048467363
0.0062058716
0.0077339275
0.0094313915
0.011296705
0.013326606
0.015515518
0.017856135
0.020338714
0.022951915
0.025682126
0.028514385
0.0314322
0.034418008
0.037454258
0.040524372
0.043610005
0.046696986
0.049771652
0.052823928
0.055846228
0.05883797
0.06179842
0.064735109
0.067657641
0.070574825
0.073498447
0.076435812
0.079394607
0.082379572
0.085397377
0.088451907
0.091554728
0.094712342
0.097949018
0.10127567
0.10473949
0.10835178
0.11219779
0.11627131
0.12072134
0.12547507
0.13079459
0.13642711
0.14284833
0.14940088
0.15695681
0.16410712
0.17229639
0.1791728
0.18623205
0.19149502
0.19327047
-0.0001221325
0.00069039605
0.00080893947
0.0013767666
0.0016434647
0.002103332
0.0024283136
0.0028359941
0.0031801064
0.0035578761
0.0039028113
0.0042587833
0.004594918
0.0049310232
0.0052523457
0.0055676613
0.0058695905
0.0061617722
0.0064402177
0.0067061315
0.0069570816
0.0071930946
0.0074124449
0.0076145763
0.007798075
0.0079620852
0.0081053334
0.0082268168
0.0083253421
0.008399845
0.0084492128
0.0084723738
0.0084683182
0.0084360514
0.0083746906
0.0082834446
0.0081616551
0.0080088148
0.0078245948
0.0076088696
0.0073617407
0.007083575
0.0067749906
0.0064369636
0.0060707975
0.0056782147
0.0052613533
0.0048228296
0.0043657571
0.0038937852
0.0034111263
0.0029225852
0.0024335759
0.0019501403
0.0014789599
0.0010273458
0.00060324057
0.00021518348
-0.00012771327
-0.00041583213
-0.00063909152
-0.00078706828
-0.00084905421
-0.00081423219
-0.00067174933
-0.00041095185
-2.1461131e-05
0.00050653536
0.0011822202
0.0020137932
0.0030084643
0.0041720207
0.0055089218
0.0070217775
0.008711593
0.010577138
0.012615418
0.01482091
0.017186336
0.019701768
0.02235574
0.025134326
0.028022451
0.031003252
0.034059387
0.03717265
0.040326677
0.043503911
0.046689222
0.049869022
0.053033492
0.056174688
0.059287855
0.062374014
0.065437784
0.068483612
0.071520323
0.074554604
0.077593529
0.080643687
0.083710362
0.08680068
0.089919963
0.093080028
0.096288789
0.099568769
0.10293139
0.10641768
0.11003843
0.11386445
0.11788999
0.12223447
0.12683419
0.13189244
0.13719674
0.14310265
0.14908149
0.15575298
0.16204856
0.1689131
0.17472442
0.18025431
0.18448904
0.18580504
-0.00012682618
0.00069608398
0.00081140744
0.0013855587
0.0016529716
0.0021169505
0.0024444064
0.0028554147
0.0032027265
0.0035837412
0.0039322318
0.0042916586
0.0046316201
0.004971502
0.0052969386
0.0056164092
0.0059227966
0.0062195584
0.0065028675
0.0067738242
0.0070300881
0.0072716244
0.0074967525
0.0077048777
0.0078946038
0.0080650455
0.0082149243
0.0083432047
0.0084486683
0.0085302101
0.0085866761
0.0086169501
0.0086199715
0.0085947033
0.0085402088
0.0084556089
0.0083401458
0.0081931804
0.0080142368
0.0078030195
0.0075594348
0.007283648
0.0069760712
0.0066374591
0.0062688882
0.0058718421
0.0054482162
0.0050003814
0.0045312104
0.0040441218
0.0035431147
0.0030328058
0.0025184558
0.0020059957
0.0015020501
0.0010139341
0.00054966691
0.00011794249
-0.00027188299
-0.00060985876
-0.00088546965
-0.001087767
-0.0012054151
-0.0012268872
-0.0011405288
-0.00093482724
-0.0005984757
-0.00012071713
0.00050861151
0.0012986517
0.0022575519
0.0033919347
0.004707056
0.0062061526
0.007890797
0.0097600979
0.011811348
0.014039039
0.016435908
0.018991736
0.021694896
0.02453091
0.027484583
0.030538327
0.033674812
0.036875364
0.040122435
0.043398195
0.04668837
0.049977389
0.053254805
0.056511422
0.059743962
0.062948127
0.06612446
0.069277968
0.072414296
0.075537947
0.078655744
0.081773387
0.084896567
0.088032913
0.091188811
0.094376591
0.097605468
0.100897
0.10426359
0.10774196
0.11134356
0.11512843
0.1190929
0.12333357
0.12779695
0.13264062
0.13768991
0.14320883
0.14877981
0.15483713
0.16058109
0.16660505
0.17179637
0.17643755
0.18008286
0.1810381
-0.00012758842
0.00070110937
0.00081629322
0.0013952086
0.0016644744
0.00213224
0.0024626448
0.0028770666
0.0032278363
0.003612289
0.0039645294
0.0043276219
0.0046715972
0.0050154769
0.0053452359
0.0056690991
0.0059801745
0.0062817638
0.0065701774
0.006846428
0.0071082557
0.0073555801
0.0075867654
0.0078011892
0.0079974747
0.0081747164
0.0083316377
0.0084671807
0.0085801116
0.0086692917
0.0087335302
0.0087716538
0.0087825361
0.0087650496
0.0087181555
0.0086408652
0.0085323031
0.0083916969
0.0082184256
0.0080120297
0.0077722407
0.007499029
0.0071925906
0.0068534506
0.0064824385
0.0060807824
0.0056501137
0.0051925387
0.0047106683
0.0042076691
0.0036873068
0.0031539893
0.0026128046
0.0020695549
0.0015307918
0.0010038212
0.00049673045
1.8363715e-05
-0.00042167624
-0.00081309659
-0.00114493
-0.0014056763
-0.0015833339
-0.00166562
-0.001640018
-0.0014940896
-0.001215518
-0.00079251673
-0.00021384324
0.0005306811
0.0014502525
0.0025524245
0.0038433578
0.005326998
0.007005581
0.0088786063
0.010943724
0.013195446
0.015626548
0.018226479
0.020983365
0.023882181
0.026907239
0.030040352
0.033263602
0.036557106
0.039904341
0.043285492
0.046685032
0.050087506
0.053481825
0.056857406
0.06020865
0.063531875
0.06682781
0.070093504
0.073333626
0.076554607
0.079759596
0.082954404
0.086145025
0.089338388
0.092542117
0.095767646
0.09902489
0.10233327
0.10570485
0.10917111
0.11274231
0.11646754
0.1203428
0.12444366
0.12872316
0.1332993
0.13802637
0.14309299
0.14816766
0.15354172
0.15861971
0.16375283
0.16820064
0.17198327
0.17501536
0.17580916
-0.00012520771
0.00070553433
0.00082331112
0.0014055884
0.0016778097
0.0021490053
0.0024828673
0.0029007814
0.0032553585
0.0036435151
0.0039998467
0.0043669613
0.0047153248
0.0050636091
0.0053981009
0.0057267975
0.0060430085
0.0063499004
0.0066439049
0.0069259581
0.0071938677
0.0074475082
0.0076852768
0.0079065201
0.0081098702
0.0082943931
0.0084588013
0.0086020026
0.0087227342
0.0088198126
0.0088920006
0.0089380686
0.008956826
0.0089470731
0.008907684
0.0088375607
0.0087357026
0.0086011878
0.0084332284
0.0082311766
0.0079945562
0.0077231155
0.0074168157
0.0070759326
0.0067010357
0.0062930832
0.0058534311
0.0053839087
0.0048868548
0.0043651753
0.0038223947
0.0032627075
0.002691027
0.0021130279
0.0015351951
0.00096483588
0.00041012296
-0.00011992648
-0.00061543163
-0.0010657194
-0.0014593219
-0.0017841316
-0.0020274133
-0.002176055
-0.0022165917
-0.0021355701
-0.0019195615
-0.0015556518
-0.0010314078
-0.00033551529
0.00054237981
0.0016108478
0.0028770521
0.0043457055
0.00601978
0.0078991822
0.0099819545
0.01226259
0.014733898
0.017384855
0.020203374
0.023173423
0.026279172
0.029500784
0.032820408
0.036216836
0.039671587
0.043164657
0.046680108
0.05020042
0.053713749
0.05720773
0.060676043
0.064111934
0.067513883
0.070883001
0.074218158
0.077519777
0.080796302
0.084051692
0.087291422
0.090523784
0.093755701
0.096999428
0.10026486
0.10357048
0.10692833
0.11036621
0.11389415
0.11755304
0.12133983
0.12531406
0.12943595
0.13379343
0.13826702
0.142989
0.14769907
0.15258454
0.15720447
0.16173925
0.16570038
0.16892713
0.17154181
0.17214767
-0.00012022107
0.00070946825
0.0008322966
0.0014166969
0.0016929551
0.0021672403
0.0025050746
0.0029265079
0.0032851973
0.0036772187
0.0040378784
0.004409224
0.004762201
0.0051151234
0.0054545864
0.0057883717
0.0061099778
0.0064224484
0.0067223268
0.0070104818
0.0072847847
0.0075450729
0.0077897761
0.0080182163
0.008229036
0.0084212785
0.0085936483
0.0087450238
0.0088741148
0.0089796939
0.0090604734
0.0091151568
0.0091424753
0.0091411333
0.0091098963
0.0090475435
0.0089529378
0.0088250032
0.0086627816
0.008465435
0.0082322802
0.0079628382
0.0076568236
0.0073142489
0.0069354047
0.0065209593
0.0060719708
0.0055899679
0.005076993
0.0045356656
0.0039692435
0.0033816822
0.0027776955
0.0021628072
0.0015434152
0.00092681078
0.00032124044
-0.00026411181
-0.00081908407
-0.0013326125
-0.0017927047
-0.0021866132
-0.00250082
-0.0027213251
-0.0028336368
-0.002823203
-0.0026753777
-0.0023760135
-0.0019113602
-0.0012688516
-0.00043683877
0.000594377
0.0018330957
0.003284885
0.0049535691
0.0068395034
0.0089412083
0.011253129
0.013768147
0.016474671
0.01936024
0.022408039
0.025601193
0.028918937
0.032342183
0.035848523
0.039419252
0.043031973
0.046669964
0.050314139
0.053951893
0.057568985
0.061158005
0.064710583
0.068224636
0.07169601
0.075128373
0.078520821
0.081873947
0.08519431
0.088489819
0.091765335
0.095030672
0.098295599
0.101571
0.10487298
0.10821308
0.1116149
0.1150872
0.11866291
0.12233859
0.12615943
0.13009052
0.13419459
0.13837249
0.14271216
0.14700894
0.15137462
0.15548648
0.15941613
0.16285884
0.16557567
0.16780802
0.16834191
-0.00011307167
0.00071300745
0.00084304455
0.0014285026
0.0017098119
0.0021868818
0.0025292158
0.0029542182
0.0033173817
0.0037134841
0.0040788009
0.0044546793
0.0048126136
0.0051705276
0.0055153344
0.0058545996
0.0061820056
0.0065004789
0.0068066673
0.0071013763
0.0073825335
0.0076499397
0.00790205
0.0081381597
0.0083569145
0.0085573302
0.0087380955
0.008898053
0.0090358783
0.0091502947
0.00923996
0.0093035107
0.0093396002
0.0093468415
0.0093238922
0.0092694043
0.0091820953
0.0090607213
0.0089041372
0.0087112959
0.0084812854
0.0082133785
0.0079070249
0.0075619548
0.0071781629
0.006756009
0.0062962356
0.0058000527
0.0052691879
0.0047059563
0.0041133316
0.003495014
0.0028555042
0.0022001633
0.0015352948
0.00086817104
0.00020711625
-0.00043850864
-0.0010582401
-0.0016405951
-0.0021730144
-0.0026420595
-0.0030333606
-0.0033319538
-0.0035222248
-0.0035884229
-0.0035145639
-0.0032851519
-0.0028849814
-0.002300115
-0.0015174666
-0.00052610348
0.00068354272
0.0021179663
0.0037819481
0.0056763116
0.0078001119
0.010147706
0.01271203
0.015480803
0.018441314
0.021575063
0.024864567
0.02828744
0.031824387
0.035450329
0.039145504
0.042885544
0.046652937
0.050426173
0.054191833
0.057933389
0.061642606
0.065308831
0.068928847
0.072498245
0.076017168
0.079485809
0.082908989
0.08628483
0.089621177
0.092928881
0.096213179
0.099486645
0.10275868
0.10604503
0.10935666
0.11271434
0.11612636
0.11961966
0.12319141
0.12687597
0.13064361
0.13453819
0.13847834
0.14251932
0.1465008
0.15048011
0.15422102
0.15771907
0.16079046
0.16314442
0.16508471
0.16551005
-0.00010408136
0.00071623115
0.00085538418
0.0014409768
0.001728279
0.0022078547
0.0025551865
0.002983777
0.0033517321
0.0037520635
0.0041222928
0.0045029103
0.0048660471
0.0052291931
0.0055796018
0.0059246158
0.0062581039
0.0065828783
0.0068956896
0.0071972847
0.0074856464
0.0077605436
0.008020457
0.0082646591
0.0084917999
0.008700871
0.0088905463
0.0090596344
0.0092067758
0.0093306426
0.0094298338
0.0095029107
0.0095484395
0.0095649288
0.0095509172
0.0095049199
0.0094255004
0.0093112408
0.0091608024
0.0089729222
0.0087464517
0.0084804047
0.0081739508
0.0078265207
0.0074377917
0.007007792
0.0065369226
0.0060260467
0.0054765473
0.0048904036
0.0042702733
0.0036195681
0.0029425432
0.0022443657
0.0015312169
0.0008103251
9.0074445e-05
-0.00062000932
-0.0013091611
-0.0019654705
-0.0025757855
-0.0031259408
-0.0036006558
-0.0039839344
-0.0042589432
-0.0044086321
-0.0044155461
-0.0042627127
-0.0039333107
-0.0034118913
-0.0026837552
-0.0017366043
-0.00055942937
0.00085528703
0.0025134362
0.0044163377
0.0065637148
0.0089497409
0.01156757
0.014403915
0.017445689
0.020672208
0.024066471
0.027603717
0.031263347
0.035018011
0.038847131
0.042723446
0.046628648
0.05053855
0.054439067
0.058311121
0.062145868
0.065930399
0.069661141
0.073330975
0.076941114
0.080489464
0.083979521
0.087416227
0.09080019
0.094137946
0.097443845
0.10072439
0.10399158
0.1072584
0.11053566
0.11384092
0.11718144
0.12057874
0.12402972
0.12755954
0.13114216
0.13480633
0.13848478
0.14220842
0.145852
0.14943605
0.15279102
0.15586908
0.15857409
0.16060698
0.16229698
0.16268223
-9.3491116e-05
0.0007192212
0.00086918378
0.0014541265
0.0017482976
0.0022301504
0.0025829768
0.0030152046
0.0033883015
0.0037930506
0.0041685042
0.0045541261
0.0049227834
0.0052914761
0.0056478282
0.005998944
0.0063388848
0.0066703465
0.0069901812
0.0072990779
0.0075950715
0.0078778986
0.0081460621
0.0083988102
0.0086347935
0.0088529763
0.009052014
0.0092306779
0.0093875699
0.0095213087
0.0096304316
0.0097134246
0.0097687649
0.0097948563
0.0097901147
0.0097529127
0.0096816511
0.0095747264
0.0094305922
0.0092477541
0.0090248095
0.0087604949
0.0084536815
0.0081034801
0.0077092304
0.0072706067
0.006787645
0.0062608367
0.005691194
0.005080333
0.0044305674
0.0037449923
0.0030275911
0.0022833114
0.001518191
0.00073939613
-4.4638844e-05
-0.00082422722
-0.001588293
-0.0023244806
-0.0030190084
-0.0036569378
-0.0042220061
-0.0046971055
-0.0050640735
-0.0053044488
-0.005399159
-0.0053296197
-0.0050772194
-0.0046248549
-0.0039560271
-0.003056945
-0.0019149782
-0.00052150117
0.00113064
0.0030432838
0.0052168996
0.0076454862
0.01032222
0.013233051
0.016363262
0.019691946
0.02320086
0.026862425
0.030655408
0.034549104
0.038522039
0.042543594
0.046594727
0.050647868
0.054688375
0.058694116
0.062655858
0.066558131
0.070397065
0.074163991
0.077859483
0.081480645
0.085032217
0.088514555
0.091938306
0.095303473
0.098618524
0.10189851
0.1051517
0.10839173
0.1116287
0.11487802
0.11814679
0.12145225
0.12479197
0.12818411
0.1316065
0.13507671
0.13853938
0.14200778
0.14538381
0.14866191
0.15172008
0.15448129
0.1569053
0.15869149
0.16017524
0.16049298
-8.1498407e-05
0.00072201983
0.00088429379
0.001467902
0.001769739
0.0022536627
0.0026124398
0.0030483345
0.003426883
0.0038361932
0.0042171293
0.0046079581
0.0049823877
0.0053568685
0.005719431
0.0060769235
0.0064236115
0.0067620708
0.0070892587
0.0074058075
0.0077098053
0.0080009595
0.0082777957
0.0085395407
0.0087848465
0.0090126522
0.0092215954
0.0094104102
0.0095776592
0.0097219055
0.0098416217
0.009935213
0.010001062
0.010037459
0.010042692
0.010014982
0.0099525612
0.009853633
0.0097164353
0.0095392328
0.0093203575
0.0090582544
0.0087514789
0.0083988015
0.0079992003
0.0075519687
0.0070567476
0.0065136233
0.0059232014
0.0052866957
0.0046060356
0.0038839575
0.0031241303
0.0023312398
0.0015111412
0.00067090218
-0.00018102094
-0.0010348033
-0.0018790655
-0.0027010059
-0.0034861888
-0.0042188678
-0.0048817313
-0.005456484
-0.0059235186
-0.0062628447
-0.0064536069
-0.0064754569
-0.0063077862
-0.0059316693
-0.0053285774
-0.0044830711
-0.003380667
-0.0020115268
-0.00036701568
0.0015552222
0.0037566411
0.0062307876
0.0089715972
0.011962184
0.015188795
0.018628454
0.022261819
0.026058276
0.029995669
0.034039505
0.038167572
0.042345062
0.046552415
0.050758043
0.054947069
0.059093794
0.063189
0.0672143
0.071166085
0.075033341
0.078817345
0.082513694
0.086127057
0.089659336
0.093116318
0.096506819
0.099835802
0.10311073
0.10634696
0.10955518
0.11274549
0.11593143
0.1191191
0.12232259
0.12553924
0.12878183
0.13203104
0.13529606
0.13853124
0.1417376
0.1448389
0.14781371
0.15057694
0.15303858
0.15519828
0.15677088
0.15808322
0.15837472
-6.824004e-05
0.00072468696
0.00090063107
0.0014823198
0.0017925649
0.0022783982
0.0026435734
0.0030831916
0.0034675176
0.0038815604
0.004268269
0.0046645435
0.005045039
0.0054255927
0.0057946806
0.0061588726
0.0065126513
0.0068584658
0.0071933821
0.0075179738
0.0078303828
0.0081302862
0.0084162317
0.008687424
0.0089425147
0.0091804171
0.0093997489
0.0095992063
0.009777311
0.0099325696
0.010063389
0.010168092
0.010244964
0.010292183
0.010307902
0.010290186
0.010237091
0.010146616
0.010016773
0.0098455707
0.009631061
0.0093713797
0.0090647473
0.0087095725
0.0083044484
0.0078482611
0.0073402276
0.0067799971
0.0061677343
0.0055042137
0.0047909417
0.0040302547
0.0032254672
0.002380962
0.0015023751
0.00059664023
-0.00032778971
-0.0012609724
-0.0021912286
-0.0031053067
-0.0039880867
-0.0048229752
-0.005591536
-0.0062742052
-0.0068498019
-0.0072966826
-0.007592028
-0.0077135681
-0.007638474
-0.0073458282
-0.0068148238
-0.0060282231
-0.0049694396
-0.0036273276
-0.0019915443
-5.9196259e-05
0.0021722672
0.0046961454
0.0075061435
0.010583305
0.013915581
0.017475871
0.021244779
0.025187571
0.029281546
0.033487373
0.037782323
0.042126472
0.046500045
0.050866501
0.055211116
0.059503874
0.063736027
0.067885799