/*--------------------------------*- C++ -*----------------------------------*\
| =========                 |                                                 |
| \\      /  F ield         | foam-extend: Open Source CFD                    |
|  \\    /   O peration     | Version:     4.1                                |
|   \\  /    A nd           | Web:         http://www.foam-extend.org         |
|    \\/     M anipulation  |                                                 |
\*---------------------------------------------------------------------------*/
FoamFile
{
    version     2.0;
    format      ascii;
    class       surfaceScalarField;
    location    "0.9";
    object      phi;
}
// * * * * * * * * * * * * * * * * * * * * * * * * * * * * * * * * * * * * * //

dimensions      [0 3 -1 0 0 0 0];

internalField   nonuniform List<scalar> 
31929
(
-5.2414706e-05
1.3294377e-08
-5.2415528e-05
8.2121918e-10
-5.2417609e-05
2.0813493e-09
-5.2417409e-05
-1.9998325e-10
-5.2416158e-05
-1.2507432e-09
-5.2414454e-05
-1.7045216e-09
-5.2411205e-05
-3.248531e-09
-5.2407546e-05
-3.6587818e-09
-5.2402488e-05
-5.0580342e-09
-5.239686e-05
-5.6280443e-09
-5.2390016e-05
-6.8447693e-09
-5.2382448e-05
-7.5672988e-09
-5.2373778e-05
-8.6701952e-09
-5.236428e-05
-9.4985122e-09
-5.2353741e-05
-1.0538485e-08
-5.2342307e-05
-1.1433932e-08
-5.2329863e-05
-1.2444433e-08
-5.2316484e-05
-1.3378886e-08
-5.2302114e-05
-1.4370143e-08
-5.2286798e-05
-1.5315615e-08
-5.2270519e-05
-1.6279352e-08
-5.2253315e-05
-1.7203286e-08
-5.2235206e-05
-1.8109313e-08
-5.221625e-05
-1.8956459e-08
-5.2196502e-05
-1.9747532e-08
-5.2176051e-05
-2.0451435e-08
-5.2154997e-05
-2.1053402e-08
-5.2133476e-05
-2.1520938e-08
-5.2111649e-05
-2.1827842e-08
-5.2089709e-05
-2.1939822e-08
-5.2067882e-05
-2.1826849e-08
-5.2046424e-05
-2.1457985e-08
-5.2025609e-05
-2.0815084e-08
-5.200575e-05
-1.985841e-08
-5.1987258e-05
-1.8492096e-08
-5.1970654e-05
-1.6604407e-08
-5.1956576e-05
-1.4077876e-08
-5.1945865e-05
-1.0711339e-08
-5.1939541e-05
-6.3232677e-09
-5.1938926e-05
-6.1536595e-10
-5.194463e-05
5.7044659e-09
-5.1956962e-05
1.2331368e-08
-5.1976817e-05
1.9855588e-08
-5.2005129e-05
2.8311214e-08
-5.2042926e-05
3.7797218e-08
-5.2091269e-05
4.8343425e-08
-5.2151245e-05
5.9975931e-08
-5.2223943e-05
7.2698409e-08
-5.2310441e-05
8.6497324e-08
-5.2411779e-05
1.01338e-07
-5.2528942e-05
1.1716309e-07
-5.2662833e-05
1.3389083e-07
-5.2814246e-05
1.5141376e-07
-5.2983845e-05
1.6959808e-07
-5.3172127e-05
1.8828289e-07
-5.3379409e-05
2.0728155e-07
-5.3605791e-05
2.2638223e-07
-5.3851141e-05
2.4535024e-07
-5.4115072e-05
2.6393085e-07
-5.4396926e-05
2.8185328e-07
-5.469576e-05
2.9883429e-07
-5.5010345e-05
3.1458493e-07
-5.533916e-05
3.2881566e-07
-5.5680404e-05
3.4124361e-07
-5.6032004e-05
3.5159954e-07
-5.6391639e-05
3.5963561e-07
-5.6756772e-05
3.6513308e-07
-5.712468e-05
3.6790818e-07
-5.74925e-05
3.6781993e-07
-5.7857274e-05
3.6477395e-07
-5.8216e-05
3.5872571e-07
-5.8565681e-05
3.4968121e-07
-5.8903377e-05
3.3769573e-07
-5.9226245e-05
3.2286776e-07
-5.953158e-05
3.0533522e-07
-5.9816845e-05
2.8526498e-07
-6.0079694e-05
2.628488e-07
-6.0317983e-05
2.3828981e-07
-6.0529792e-05
2.1180851e-07
-6.0713407e-05
1.8361476e-07
-6.0867347e-05
1.539408e-07
-6.0990309e-05
1.2296189e-07
-6.1081178e-05
9.0868301e-08
-6.1138959e-05
5.7780951e-08
-6.1162342e-05
2.3383737e-08
-6.1153232e-05
-9.1100267e-09
-6.1110005e-05
-4.3227282e-08
-6.1027457e-05
-8.2548438e-08
-6.0904974e-05
-1.224828e-07
-6.074493e-05
-1.6004351e-07
-6.055343e-05
-1.9150018e-07
-6.0340609e-05
-2.1282088e-07
-6.0121033e-05
-2.195766e-07
-5.9913022e-05
-2.0801077e-07
-5.973755e-05
-1.7547218e-07
-5.9620221e-05
-1.1732844e-07
-5.9595454e-05
-2.4766921e-08
-5.9700682e-05
1.0522797e-07
-5.9953399e-05
2.5271674e-07
-6.0355668e-05
4.0226904e-07
-6.0910941e-05
5.5527262e-07
-6.1624423e-05
7.1348256e-07
-6.2505255e-05
8.8083184e-07
-6.3568655e-05
1.0634004e-06
-6.4837333e-05
1.2686772e-06
-6.6345779e-05
1.5084469e-06
-6.8141849e-05
1.7960692e-06
-7.0294592e-05
2.1527432e-06
-7.2895442e-05
2.6008503e-06
-7.6072071e-05
3.1766288e-06
-7.9985651e-05
3.9135796e-06
-8.4853392e-05
4.8677409e-06
-9.0930936e-05
6.0775448e-06
-9.8547593e-05
7.6166563e-06
-0.00010804955
9.5019593e-06
-0.00011986325
1.1813702e-05
-0.0001343516
1.4488348e-05
-0.00015196688
1.7615276e-05
-0.00017289342
2.0926539e-05
-0.00019752894
2.4635527e-05
-0.00022530458
2.7775637e-05
-0.0002568415
3.1536916e-05
-0.00028730061
3.0459111e-05
3.5279991e-05
-0.00014831032
2.8767923e-08
-0.00014831756
8.0669594e-09
-0.00014832449
9.013844e-09
-0.0001483283
3.6098611e-09
-0.00014833093
1.3738214e-09
-0.00014833229
-3.4416801e-10
-0.00014833261
-2.9273434e-09
-0.00014833206
-4.204865e-09
-0.00014833044
-6.6778397e-09
-0.00014832799
-8.0779839e-09
-0.00014832456
-1.0278323e-08
-0.00014832034
-1.178839e-08
-0.00014831525
-1.3756266e-08
-0.00014830944
-1.5308033e-08
-0.00014830289
-1.709138e-08
-0.00014829571
-1.8617663e-08
-0.00014828792
-2.0229412e-08
-0.00014827965
-2.1656024e-08
-0.00014827095
-2.3065942e-08
-0.00014826196
-2.4303439e-08
-0.0001482528
-2.5438184e-08
-0.00014824364
-2.6370524e-08
-0.00014823464
-2.7109783e-08
-0.00014822602
-2.7570928e-08
-0.00014821805
-2.7721558e-08
-0.00014821102
-2.7479001e-08
-0.0001482053
-2.6775925e-08
-0.00014820131
-2.551167e-08
-0.00014819955
-2.358212e-08
-0.00014820063
-2.0860682e-08
-0.00014820525
-1.7203858e-08
-0.00014821424
-1.246937e-08
-0.00014822857
-6.4918591e-09
-0.00014824918
7.5650847e-10
-0.0001482768
9.1315782e-09
-0.00014831223
1.8817778e-08
-0.00014835646
3.0152025e-08
-0.00014841053
4.3361864e-08
-0.00014847553
5.8675002e-08
-0.00014855243
7.629042e-08
-0.000148643
9.6268962e-08
-0.00014874936
1.1868873e-07
-0.00014887323
1.4372914e-07
-0.00014901642
1.7150457e-07
-0.00014918073
2.0210629e-07
-0.00014936797
2.3558263e-07
-0.00014957993
2.7194e-07
-0.00014981837
3.1113422e-07
-0.00015008494
3.5306462e-07
-0.00015038117
3.9756882e-07
-0.00015070842
4.4441708e-07
-0.00015106784
4.9330851e-07
-0.0001514603
5.4386848e-07
-0.00015188635
5.9564863e-07
-0.00015234619
6.4812596e-07
-0.00015283962
7.0070865e-07
-0.00015336597
7.527402e-07
-0.00015392413
8.03508e-07
-0.00015451245
8.5225365e-07
-0.00015512879
8.9818742e-07
-0.00015577045
9.4050021e-07
-0.00015643425
9.7838491e-07
-0.00015711649
1.0110533e-06
-0.00015781301
1.0377578e-06
-0.00015851922
1.0578121e-06
-0.0001592302
1.0706136e-06
-0.00015994073
1.0756649e-06
-0.00016064541
1.0725895e-06
-0.00016133874
1.0611511e-06
-0.00016201523
1.0412626e-06
-0.0001626695
1.0129914e-06
-0.00016329637
9.7655706e-07
-0.000163891
9.3232267e-07
-0.0001644489
8.8077328e-07
-0.00016496606
8.2249622e-07
-0.00016543895
7.5814914e-07
-0.00016586453
6.8843479e-07
-0.00016624031
6.1406723e-07
-0.00016656427
5.3576642e-07
-0.00016683487
4.5421253e-07
-0.00016705103
3.7009933e-07
-0.00016721208
2.8401116e-07
-0.00016731784
1.9663228e-07
-0.00016736818
1.0811832e-07
-0.00016736371
1.8919358e-08
-0.00016729875
-7.4076247e-08
-0.00016716848
-1.7349551e-07
-0.00016697626
-2.7476954e-07
-0.00016672779
-3.7095029e-07
-0.00016643402
-4.5381705e-07
-0.0001661122
-5.1332037e-07
-0.00016578783
-5.3718502e-07
-0.00016549567
-5.1173343e-07
-0.00016528227
-4.2141067e-07
-0.0001652065
-2.5124463e-07
-0.000165342
1.8166465e-08
-0.00016573569
3.6892757e-07
-0.00016639902
7.6855181e-07
-0.00016735961
1.2133157e-06
-0.00016865433
1.6969856e-06
-0.0001703127
2.2136402e-06
-0.0001723613
2.7620876e-06
-0.000174825
3.3445289e-06
-0.00017773039
3.9687945e-06
-0.00018110758
4.6458608e-06
-0.00018499215
5.3930142e-06
-0.00018942538
6.2293085e-06
-0.00019445501
7.1823674e-06
-0.000200133
8.2788386e-06
-0.00020651503
9.5586586e-06
-0.00021365451
1.1053066e-05
-0.00022160057
1.2813796e-05
-0.00023038531
1.4862286e-05
-0.00024002087
1.7252216e-05
-0.00025047375
1.9954839e-05
-0.00026166509
2.3005046e-05
-0.00027341582
2.6239079e-05
-0.00028546933
2.9668785e-05
-0.00029735653
3.2813733e-05
-0.0003085185
3.5797504e-05
-0.00031795807
3.7215206e-05
-0.00032461906
3.8197908e-05
-0.00032737948
3.3219527e-05
3.0481113e-05
-0.00022377719
4.83684e-08
-0.00022379294
2.3814524e-08
-0.00022380853
2.4601601e-08
-0.00022382193
1.701248e-08
-0.00022383479
1.4232035e-08
-0.00022384635
1.1218645e-08
-0.00022385752
8.2420541e-09
-0.0002238682
6.4710972e-09
-0.00022387882
3.9491875e-09
-0.00022388944
2.5396355e-09
-0.00022390028
5.5942063e-10
-0.00022391146
-6.0668538e-10
-0.00022392315
-2.0706504e-09
-0.00022393546
-2.9912242e-09
-0.00022394857
-3.9880208e-09
-0.00022396262
-4.5604575e-09
-0.00022397783
-5.0266225e-09
-0.00022399439
-5.0940714e-09
-0.00022401255
-4.9039916e-09
-0.00022403258
-4.2711527e-09
-0.00022405479
-3.2334015e-09
-0.00022407951
-1.6518465e-09
-0.0002241071
4.8413159e-10
-0.00022413795
3.2755023e-09
-0.00022417246
6.797486e-09
-0.00022421113
1.1182467e-08
-0.00022425444
1.6541526e-08
-0.00022430298
2.3020662e-08
-0.00022435732
3.0765522e-08
-0.00022441813
3.9946014e-08
-0.00022448607
5.073952e-08
-0.00022456188
6.3337694e-08
-0.00022464631
7.7941646e-08
-0.0002247403
9.4742519e-08
-0.00022484514
1.1396713e-07
-0.0002249622
1.3588628e-07
-0.00022509282
1.6076355e-07
-0.00022523834
1.8888735e-07
-0.0002254002
2.2053443e-07
-0.00022557988
2.559662e-07
-0.00022577904
2.9543582e-07
-0.00022599946
3.3910656e-07
-0.00022624283
3.8709859e-07
-0.00022651086
4.3953149e-07
-0.00022680524
4.9648381e-07
-0.00022712761
5.5795949e-07
-0.00022747956
6.2388817e-07
-0.00022786254
6.9410928e-07
-0.00022827783
7.6836333e-07
-0.00022872655
8.4628441e-07
-0.00022920952
9.2739223e-07
-0.0002297273
1.0110875e-06
-0.00023028008
1.0966496e-06
-0.00023086768
1.183239e-06
-0.00023148945
1.269898e-06
-0.0002321443
1.3555635e-06
-0.00023283064
1.4390766e-06
-0.00023354633
1.5191998e-06
-0.00023428871
1.5946375e-06
-0.00023505459
1.6640632e-06
-0.00023584023
1.7261418e-06
-0.00023664141
1.7795679e-06
-0.00023745346
1.8230965e-06
-0.00023827128
1.8555806e-06
-0.00023908948
1.876007e-06
-0.00023990239
1.8835326e-06
-0.00024070425
1.8775213e-06
-0.00024148923
1.8575663e-06
-0.0002422516
1.8235195e-06
-0.00024298584
1.7755022e-06
-0.00024368675
1.7139054e-06
-0.00024434957
1.6393791e-06
-0.00024497006
1.5528065e-06
-0.00024554454
1.4552568e-06
-0.00024606998
1.3479378e-06
-0.00024654396
1.2321318e-06
-0.00024696466
1.1091361e-06
-0.0002473308
9.8020426e-07
-0.00024764155
8.4651948e-07
-0.00024789649
7.091447e-07
-0.00024809547
5.6908721e-07
-0.00024823866
4.2719689e-07
-0.00024832649
2.8446233e-07
-0.00024835964
1.412642e-07
-0.00024833959
-1.1242739e-09
-0.00024826657
-1.4710095e-07
-0.00024814555
-2.9451045e-07
-0.00024798824
-4.3208423e-07
-0.00024780868
-5.5051056e-07
-0.00024762615
-6.3634413e-07
-0.00024746615
-6.7332279e-07
-0.0002473609
-6.4243109e-07
-0.00024735001
-5.2262576e-07
-0.00024747752
-2.9390314e-07
-0.00024779108
6.2318689e-08
-0.0002483063
5.3338983e-07
-0.00024903579
1.0984118e-06
-0.00025002296
1.755722e-06
-0.00025130685
2.4972084e-06
-0.0002529195
3.3096305e-06
-0.00025488408
4.178228e-06
-0.00025721611
5.0941153e-06
-0.00025992543
6.0538469e-06
-0.00026301743
7.0607915e-06
-0.00026649431
8.1227443e-06
-0.00027035553
9.2542378e-06
-0.00027459786
1.0471639e-05
-0.00027921424
1.1798745e-05
-0.00028419226
1.3256853e-05
-0.00028951078
1.4877188e-05
-0.00029513671
1.6678993e-05
-0.00030101878
1.8695861e-05
-0.00030708288
2.0926388e-05
-0.00031322312
2.3392453e-05
-0.00031929673
2.6028454e-05
-0.00032511418
2.8822493e-05
-0.00033043425
3.1559151e-05
-0.0003349602
3.419474e-05
-0.00033833125
3.618478e-05
-0.00034013922
3.7605472e-05
-0.00033994964
3.7025622e-05
-0.00033718924
3.5437516e-05
-0.00033227574
2.8306027e-05
2.0786168e-05
-0.00027515884
7.3451407e-08
-0.00027518391
4.8882682e-08
-0.00027520974
5.0430803e-08
-0.0002752351
4.2376705e-08
-0.00027526118
4.0313176e-08
-0.00027528731
3.7349848e-08
-0.00027531436
3.5294169e-08
-0.00027534212
3.4226518e-08
-0.00027537115
3.2978823e-08
-0.00027540143
3.2825588e-08
-0.00027543336
3.2483615e-08
-0.00027546701
3.3047517e-08
-0.00027550272
3.3637872e-08
-0.00027554069
3.4980775e-08
-0.00027558124
3.6561056e-08
-0.00027562463
3.8826366e-08
-0.00027567117
4.1515544e-08
-0.00027572118
4.4909312e-08
-0.00027577498
4.8904419e-08
-0.00027583295
5.3695058e-08
-0.00027589546
5.9276149e-08
-0.00027596292
6.5804944e-08
-0.00027603577
7.3342151e-08
-0.00027611454
8.2044633e-08
-0.00027619977
9.2023795e-08
-0.00027629203
1.034468e-07
-0.00027639196
1.1646766e-07
-0.00027650022
1.3127964e-07
-0.00027661753
1.4807649e-07
-0.00027674466
1.6708017e-07
-0.00027688244
1.8851907e-07
-0.00027703175
2.1263995e-07
-0.0002771935
2.3970086e-07
-0.00027736876
2.6999651e-07
-0.00027755865
3.038577e-07
-0.00027776434
3.4157881e-07
-0.00027798703
3.8345256e-07
-0.00027822795
4.2980377e-07
-0.00027848837
4.8095304e-07
-0.00027876958
5.3718389e-07
-0.00027907288
5.9872722e-07
-0.00027939951
6.657432e-07
-0.00027975079
7.3837314e-07
-0.00028012794
8.1668576e-07
-0.00028053214
9.0067884e-07
-0.00028096443
9.9025229e-07
-0.00028142574
1.085198e-06
-0.00028191681
1.1851859e-06
-0.0002824382
1.2897493e-06
-0.00028299019
1.3982787e-06
-0.00028357281
1.5100119e-06
-0.00028418576
1.6240308e-06
-0.00028482837
1.7392601e-06
-0.0002854996
1.854475e-06
-0.00028619801
1.9683033e-06
-0.00028692169
2.0792467e-06
-0.00028766831
2.1856971e-06
-0.00028843508
2.2859634e-06
-0.00028921874
2.3783011e-06
-0.00029001563
2.4609539e-06
-0.00029082167
2.5321857e-06
-0.00029163244
2.5903355e-06
-0.00029244321
2.6338613e-06
-0.00029324902
2.6613922e-06
-0.00029404479
2.6717782e-06
-0.0002948254
2.6641394e-06
-0.00029558579
2.6379137e-06
-0.00029632111
2.592884e-06
-0.0002970268
2.5292123e-06
-0.00029769874
2.4474459e-06
-0.00029833335
2.348507e-06
-0.00029892763
2.2336646e-06
-0.00029947931
2.1044822e-06
-0.00029998679
1.9627366e-06
-0.00030044918
1.8103318e-06
-0.00030086624
1.6491961e-06
-0.00030123829
1.4811808e-06
-0.00030156606
1.3079775e-06
-0.00030185062
1.1310724e-06
-0.00030209318
9.5171392e-07
-0.0003022951
7.709979e-07
-0.00030245778
5.8988265e-07
-0.00030258282
4.0950496e-07
-0.00030267259
2.3102748e-07
-0.0003027302
5.6487552e-08
-0.00030276489
-1.1240845e-07
-0.00030278778
-2.7162143e-07
-0.00030280853
-4.1133552e-07
-0.00030284059
-5.1845259e-07
-0.00030289998
-5.7695481e-07
-0.00030300507
-5.682283e-07
-0.00030317601
-4.714965e-07
-0.00030343199
-2.6663919e-07
-0.00030379051
6.461534e-08
-0.00030425105
5.2286042e-07
-0.00030482197
1.1043108e-06
-0.000305538
1.8144358e-06
-0.00030643001
2.6477389e-06
-0.00030751985
3.5870441e-06
-0.00030882185
4.6116304e-06
-0.00031034619
5.7025714e-06
-0.00031209739
6.8453094e-06
-0.00031407398
8.0304412e-06
-0.00031626872
9.2555264e-06
-0.00031866894
1.0522968e-05
-0.00032125661
1.1841908e-05
-0.00032400841
1.3223438e-05
-0.00032689451
1.4684841e-05
-0.00032987783
1.6240175e-05
-0.00033291083
1.7910191e-05
-0.00033593411
1.9702271e-05
-0.00033887073
2.1632484e-05
-0.00034162575
2.3681409e-05
-0.00034407857
2.5845275e-05
-0.00034608747
2.8037347e-05
-0.00034748187
3.02169e-05
-0.00034808018
3.2157453e-05
-0.00034768329
3.379785e-05
-0.00034612821
3.4629708e-05
-0.00034325862
3.4735878e-05
-0.00033915652
3.2923518e-05
-0.00033377853
3.0059525e-05
-0.00032844751
2.2975015e-05
1.4919255e-05
-0.00030568774
1.0451343e-07
-0.00030572168
8.2826665e-08
-0.00030575705
8.5803213e-08
-0.00030579361
7.8935294e-08
-0.00030583199
7.8689153e-08
-0.0003058718
7.7158381e-08
-0.00030591374
7.7239091e-08
-0.00030595766
7.8140874e-08
-0.00030600411
7.943056e-08
-0.00030605315
8.1866416e-08
-0.00030610524
8.4570094e-08
-0.00030616055
8.8359328e-08
-0.00030621948
9.2574619e-08
-0.00030628232
9.7812817e-08
-0.00030634944
1.0368114e-07
-0.00030642118
1.1057164e-07
-0.00030649796
1.1829389e-07
-0.00030658017
1.2711489e-07
-0.00030666824
1.3697925e-07
-0.00030676263
1.4808956e-07
-0.00030686384
1.6047892e-07
-0.00030697236
1.743273e-07
-0.00030708875
1.8973374e-07
-0.00030721359
2.0688435e-07
-0.00030734749
2.2592286e-07
-0.00030749109
2.4705128e-07
-0.00030764509
2.7045871e-07
-0.00030781018
2.9637668e-07
-0.00030798714
3.2503441e-07
-0.00030817676
3.5669531e-07
-0.00030837986
3.9162365e-07
-0.00030859733
4.3011047e-07
-0.00030883008
4.7245279e-07
-0.00030907904
5.1895101e-07
-0.00030934511
5.6993268e-07
-0.00030962925
6.2571593e-07
-0.00030993242
6.8662588e-07
-0.00031025559
7.5297036e-07
-0.00031059969
8.250513e-07
-0.00031096562
9.0311261e-07
-0.00031135426
9.8737095e-07
-0.00031176645
1.0779357e-06
-0.00031220294
1.1748631e-06
-0.00031266438
1.2781191e-06
-0.00031315127
1.3875764e-06
-0.00031366401
1.5029862e-06
-0.00031420277
1.6239659e-06
-0.00031476757
1.7499847e-06
-0.00031535817
1.8803471e-06
-0.00031597408
2.0141885e-06
-0.00031661454
2.1504662e-06
-0.00031727846
2.2879577e-06
-0.00031796447
2.4252627e-06
-0.00031867081
2.5608161e-06
-0.0003193954
2.6928924e-06
-0.00032013579
2.8196367e-06
-0.00032088917
2.9390869e-06
-0.00032165242
3.0492098e-06
-0.00032242206
3.1479404e-06
-0.00032319434
3.2332367e-06
-0.00032396528
3.3031196e-06
-0.00032473069
3.3557449e-06
-0.00032548628
3.3894578e-06
-0.00032622775
3.4028584e-06
-0.00032695083
3.3948631e-06
-0.00032765146
3.3647638e-06
-0.00032832583
3.3122832e-06
-0.00032897055
3.2376029e-06
-0.00032958273
3.1413964e-06
-0.00033016011
3.0248249e-06
-0.00033070111
2.889509e-06
-0.00033120492
2.7374745e-06
-0.0003316715
2.5710655e-06
-0.00033210159
2.3928218e-06
-0.0003324966
2.2053454e-06
-0.00033285856
2.0111534e-06
-0.00033318991
1.8125312e-06
-0.00033349336
1.6114243e-06
-0.00033377166
1.409376e-06
-0.00033402747
1.2075226e-06
-0.00033426318
1.0067098e-06
-0.00033448094
8.0764051e-07
-0.00033468266
6.1122144e-07
-0.00033487054
4.1891213e-07
-0.00033504716
2.3311078e-07
-0.00033521904
5.9467606e-08
-0.00033539428
-9.6384086e-08
-0.00033557837
-2.2724047e-07
-0.00033577719
-3.1963378e-07
-0.00033599717
-3.569736e-07
-0.00033624463
-3.2077106e-07
-0.0003365244
-1.9172465e-07
-0.00033683984
4.8797438e-08
-0.00033718731
4.1208498e-07
-0.00033757086
9.0641553e-07
-0.00033800928
1.5427285e-06
-0.00033851647
2.3216268e-06
-0.00033909963
3.2308953e-06
-0.00033976504
4.2524567e-06
-0.00034051864
5.3652248e-06
-0.00034136367
6.547602e-06
-0.00034229994
7.7815803e-06
-0.00034332313
9.053636e-06
-0.00034442424
1.0356639e-05
-0.00034558951
1.1688229e-05
-0.00034679985
1.3052256e-05
-0.00034803091
1.4454493e-05
-0.00034925179
1.5905727e-05
-0.00035042492
1.7413299e-05
-0.00035150362
1.8988889e-05
-0.0003524323
2.0630956e-05
-0.00035314296
2.234314e-05
-0.00035355781
2.4096264e-05
-0.00035358547
2.5872936e-05
-0.00035313067
2.7582541e-05
-0.00035209043
2.9176662e-05
-0.00035037891
3.0445933e-05
-0.00034791684
3.133578e-05
-0.00034469371
3.1406581e-05
-0.00034070148
3.0743643e-05
-0.00033616449
2.8386525e-05
-0.00033112239
2.5017426e-05
-0.00032664762
1.8500253e-05
1.085223e-05
-0.00032167358
1.4098073e-07
-0.00032171491
1.2416353e-07
-0.00032175813
1.2901611e-07
-0.00032180388
1.2468887e-07
-0.00032185224
1.2705043e-07
-0.00032190312
1.2803891e-07
-0.00032195707
1.3118383e-07
-0.00032201406
1.3513796e-07
-0.00032207465
1.4001673e-07
-0.00032213896
1.4617815e-07
-0.00032220748
1.5308485e-07
-0.00032228045
1.6133234e-07
-0.00032235833
1.7045349e-07
-0.00032244145
1.8093355e-07
-0.00032253026
1.9249146e-07
-0.00032262516
2.0547563e-07
-0.00032272663
2.1976459e-07
-0.00032283514
2.356159e-07
-0.00032295118
2.5302076e-07
-0.00032307528
2.721914e-07
-0.000323208
2.9319683e-07
-0.00032334991
3.1623621e-07
-0.00032350161
3.4143623e-07
-0.00032366373
3.6900624e-07
-0.00032383693
3.9911791e-07
-0.00032402187
4.3199971e-07
-0.00032421928
4.6786298e-07
-0.00032442986
5.0696332e-07
-0.00032465438
5.4954667e-07
-0.00032489358
5.9589578e-07
-0.00032514824
6.4628388e-07
-0.00032541914
7.0101368e-07
-0.00032570708
7.6038759e-07
-0.00032601284
8.2471179e-07
-0.00032633722
8.9431567e-07
-0.00032668099
9.6948661e-07
-0.00032704489
1.0505229e-06
-0.0003274296
1.1376807e-06
-0.00032783576
1.2312108e-06
-0.00032826392
1.3312787e-06
-0.00032871457
1.4380146e-06
-0.00032918806
1.5514265e-06
-0.00032968466
1.6714703e-06
-0.00033020452
1.7979747e-06
-0.0003307476
1.930656e-06
-0.0003313137
2.0690894e-06
-0.00033190243
2.2126955e-06
-0.00033251318
2.3607296e-06
-0.00033314509
2.5122623e-06
-0.00033379708
2.6661797e-06
-0.00033446779
2.8211749e-06
-0.00033515558
2.9757502e-06
-0.00033585854
3.1282216e-06
-0.00033657447
3.2767383e-06
-0.00033730086
3.4192898e-06
-0.00033803497
3.5537455e-06
-0.00033877377
3.6778835e-06
-0.00033951399
3.7894348e-06
-0.00034025219
3.8861319e-06
-0.00034098472
3.9657749e-06
-0.00034170788
4.0262794e-06
-0.0003424179
4.0657624e-06
-0.00034311105
4.0826064e-06
-0.00034378373
4.075536e-06
-0.00034443255
4.0436881e-06
-0.00034505447
3.9866777e-06
-0.00034564684
3.9046576e-06
-0.00034620758
3.7983426e-06
-0.00034673522
3.6690361e-06
-0.00034722901
3.5186112e-06
-0.00034768895
3.3494565e-06
-0.00034811587
3.1643924e-06
-0.00034851135
2.9665425e-06
-0.00034887769
2.7591661e-06
-0.00034921782
2.5454747e-06
-0.00034953511
2.3284406e-06
-0.00034983318
2.1106042e-06
-0.0003501157
1.8939469e-06
-0.00035038614
1.6798119e-06
-0.00035064755
1.4689333e-06
-0.00035090242
1.2615821e-06
-0.00035115261
1.057832e-06
-0.00035139935
8.5795754e-07
-0.00035164343
6.6299455e-07
-0.00035188553
4.7520661e-07
-0.00035212587
2.9980735e-07
-0.00035236603
1.4377555e-07
-0.00035260898
1.5713839e-08
-0.00035285601
-7.2604644e-08
-0.00035310706
-1.0592753e-07
-0.00035336138
-6.6447851e-08
-0.00035361713
6.4020807e-08
-0.0003538701
3.0176596e-07
-0.00035411951
6.6149493e-07
-0.00035436985
1.1567628e-06
-0.00035462173
1.7946038e-06
-0.00035487275
2.572649e-06
-0.00035512231
3.4804538e-06
-0.00035537034
4.5004909e-06
-0.00035561681
5.6116878e-06
-0.00035586169
6.7924827e-06
-0.00035610378
8.0236743e-06
-0.00035633983
9.2896846e-06
-0.00035656358
1.0580387e-05
-0.00035676525
1.1889904e-05
-0.00035693084
1.3217845e-05
-0.00035704194
1.4565587e-05
-0.0003570748
1.5938592e-05
-0.00035700051
1.7339013e-05
-0.00035678347
1.8771842e-05
-0.00035638234
2.0229833e-05
-0.00035574808
2.1708871e-05
-0.00035482752
2.3175709e-05
-0.00035356125
2.4606669e-05
-0.00035189383
2.5915121e-05
-0.0003497704
2.7053232e-05
-0.0003471613
2.783683e-05
-0.00034404723
2.8221707e-05
-0.00034048356
2.7842916e-05
-0.0003365211
2.6781178e-05
-0.00033243189
2.4297316e-05
-0.00032832145
2.0906991e-05
-0.00032501593
1.5194736e-05
8.4168952e-06
-0.00032912419
1.8177113e-07
-0.00032917084
1.7081606e-07
-0.00032921955
1.7772321e-07
-0.00032927172
1.7686548e-07
-0.00032932701
1.8233951e-07
-0.00032938565
1.8667879e-07
-0.000329448
1.9353208e-07
-0.00032951418
2.0132177e-07
-0.00032958468
2.1050973e-07
-0.0003296597
2.2119829e-07
-0.00032973972
2.331072e-07
-0.00032982506
2.466692e-07
-0.00032991618
2.6157614e-07
-0.00033001348
2.7823051e-07
-0.00033011743
2.9644787e-07
-0.0003302285
3.1654332e-07
-0.00033034719
3.3845552e-07
-0.00033047401
3.6243699e-07
-0.00033060951
3.8851986e-07
-0.00033075425
4.1692637e-07
-0.00033090881
4.4775622e-07
-0.0003310738
4.8122647e-07
-0.00033124985
5.174883e-07
-0.00033143761
5.5677014e-07
-0.00033163776
5.9926235e-07
-0.00033185097
6.4521233e-07
-0.00033207795
6.9484446e-07
-0.00033231942
7.4842936e-07
-0.00033257609
8.0621851e-07
-0.0003328487
8.6850323e-07
-0.00033313796
9.3555228e-07
-0.00033344462
1.0076652e-06
-0.00033376936
1.0851305e-06
-0.00033411287
1.1682197e-06
-0.00033447578
1.2572281e-06
-0.00033485869
1.3523978e-06
-0.00033526215
1.4539826e-06
-0.00033568663
1.5621616e-06
-0.00033613253
1.6771095e-06
-0.00033660014
1.7988883e-06
-0.00033708966
1.9275324e-06
-0.00033760115
2.0629224e-06
-0.00033813456
2.2048777e-06
-0.00033868965
2.353069e-06
-0.00033926604
2.50704e-06
-0.00033986313
2.6661782e-06
-0.00034048013
2.8297016e-06
-0.00034111605
2.9966509e-06
-0.00034176966
3.1658687e-06
-0.00034243949
3.336005e-06
-0.00034312382
3.5055098e-06
-0.00034382071
3.6726385e-06
-0.00034452795
3.8354606e-06
-0.0003452431
3.991885e-06
-0.00034596347
4.1396687e-06
-0.0003466862
4.2764665e-06
-0.00034740818
4.3998641e-06
-0.00034812617
4.5074302e-06
-0.00034883681
4.5967732e-06
-0.00034953666
4.6656176e-06
-0.00035022223
4.7118575e-06
-0.00035089013
4.7336556e-06
-0.00035153703
4.729514e-06
-0.00035215986
4.6983603e-06
-0.00035275579
4.639623e-06
-0.00035332242
4.5533016e-06
-0.00035385779
4.4400276e-06
-0.00035436053
4.3010811e-06
-0.0003548299
4.1384086e-06
-0.00035526587
3.9545861e-06
-0.00035566915
3.7527376e-06
-0.00035604118
3.5364208e-06
-0.0003563841
3.3094571e-06
-0.00035670065
3.0757234e-06
-0.0003569941
2.8389206e-06
-0.00035726801
2.6023469e-06
-0.00035752607
2.3686657e-06
-0.00035777189
2.1397683e-06
-0.00035800876
1.9166839e-06
-0.00035823947
1.6996449e-06
-0.00035846615
1.4882592e-06
-0.00035869019
1.2818756e-06
-0.00035891225
1.0800174e-06
-0.00035913235
8.830895e-07
-0.00035934997
6.9282723e-07
-0.00035956375
5.1359037e-07
-0.00035977208
3.5210222e-07
-0.00035997367
2.1730405e-07
-0.00036016736
1.2108801e-07
-0.00036035145
7.8160737e-08
-0.00036052305
1.0515336e-07
-0.00036067842
2.1939055e-07
-0.00036081421
4.3755071e-07
-0.00036092773
7.7501963e-07
-0.00036101413
1.2431589e-06
-0.00036106703
1.8475076e-06
-0.00036108041
2.5860299e-06
-0.0003610486
3.4486385e-06
-0.00036096773
4.419629e-06
-0.00036083592
5.4798709e-06
-0.00036065239
6.6089578e-06
-0.0003604168
7.7880788e-06
-0.00036012825
9.0011361e-06
-0.00035978434
1.0236482e-05
-0.00035938048
1.1486042e-05
-0.000358909
1.2746364e-05
-0.0003583589
1.401549e-05
-0.00035771504
1.5294729e-05
-0.00035695835
1.6582321e-05
-0.00035606488
1.7878375e-05
-0.00035500709
1.9172039e-05
-0.00035375267
2.0454454e-05
-0.00035226838
2.1691425e-05
-0.0003505186
2.285688e-05
-0.00034847456
2.3871088e-05
-0.00034611033
2.4688998e-05
-0.00034342406
2.5150561e-05
-0.00034041941
2.5217056e-05
-0.00033716252
2.4586032e-05
-0.00033370165
2.3320306e-05
-0.00033026129
2.085695e-05
-0.00032692761
1.7573311e-05
-0.00032431248
1.2579611e-05
6.6852132e-06
-0.00033224303
2.2553941e-07
-0.0003322929
2.2067899e-07
-0.00033234487
2.2970163e-07
-0.00033240085
2.3284372e-07
-0.00033246018
2.416701e-07
-0.00033252336
2.4985725e-07
-0.0003325906
2.6076969e-07
-0.00033266216
2.7287932e-07
-0.00033273845
2.8680168e-07
-0.00033281976
3.0251086e-07
-0.00033290655
3.1989875e-07
-0.00033299918
3.3929484e-07
-0.00033309811
3.6051242e-07
-0.00033320378
3.8389756e-07
-0.00033331668
4.0934481e-07
-0.00033343728
4.3714876e-07
-0.00033356613
4.6730053e-07
-0.00033370374
5.0005295e-07
-0.0003338507
5.3547479e-07
-0.00033400757
5.7379972e-07
-0.00033417497
6.1515443e-07
-0.00033435352
6.5977193e-07
-0.00033454385
7.0782305e-07
-0.00033474663
7.5955266e-07
-0.00033496254
8.1516505e-07
-0.00033519225
8.7492143e-07
-0.00033543645
9.390521e-07
-0.00033569586
1.0078352e-06
-0.00033597116
1.0815181e-06
-0.00033626305
1.1603906e-06
-0.0003365722
1.244705e-06
-0.00033689928
1.3347463e-06
-0.00033724493
1.4307778e-06
-0.00033760974
1.5330351e-06
-0.00033799429
1.6417745e-06
-0.00033839906
1.757173e-06
-0.0003388245
1.8794214e-06
-0.00033927095
2.0086086e-06
-0.00033973866
2.1448201e-06
-0.00034022777
2.2880005e-06
-0.00034073831
2.438068e-06
-0.00034127015
2.5947627e-06
-0.00034182303
2.7577637e-06
-0.00034239654
2.9265771e-06
-0.00034299007
3.1005705e-06
-0.00034360284
3.2789424e-06
-0.00034423385
3.4607095e-06
-0.0003448819
3.644703e-06
-0.00034554558
3.8295467e-06
-0.00034622324
4.0136671e-06
-0.00034691302
4.195288e-06
-0.00034761282
4.3724394e-06
-0.00034832033
4.5429689e-06
-0.00034903301
4.7045732e-06
-0.00034974815
4.8548086e-06
-0.00035046284
4.9911487e-06
-0.00035117399
5.1110218e-06
-0.00035187843
5.2118704e-06
-0.00035257287
5.2912137e-06
-0.00035325399
5.3467337e-06
-0.00035391847
5.3763329e-06
-0.00035456305
5.378244e-06
-0.00035518465
5.3511064e-06
-0.00035578034
5.2940585e-06
-0.00035634754
5.2068176e-06
-0.00035688399
5.0897523e-06
-0.0003573879
4.9439409e-06
-0.000357858
4.7711828e-06
-0.0003582936
4.5740041e-06
-0.00035869462
4.3556054e-06
-0.00035906164
4.1197549e-06
-0.00035939586
3.8706488e-06
-0.00035969911
3.6127053e-06
-0.00035997371
3.3503249e-06
-0.00036022241
3.0876201e-06
-0.00036044823
2.8281645e-06
-0.00036065429
2.5747291e-06
-0.00036084367
2.3291438e-06
-0.00036101918
2.0921981e-06
-0.00036118328
1.8637417e-06
-0.00036133789
1.6428721e-06
-0.0003614844
1.4283767e-06
-0.00036162357
1.2191884e-06
-0.00036175564
1.0151658e-06
-0.00036188039
8.1757469e-07
-0.00036199697
6.3017531e-07
-0.00036210397
4.5909848e-07
-0.00036219968
3.1301577e-07
-0.00036228224
2.0364263e-07
-0.0003623493
1.4522658e-07
-0.00036239772
1.5356604e-07
-0.00036242363
2.4530172e-07
-0.00036242247
4.3639755e-07
-0.00036238811
7.4065451e-07
-0.00036231323
1.1682848e-06
-0.00036218983
1.7241009e-06
-0.00036200982
2.4060262e-06
-0.00036176687
3.2056832e-06
-0.00036145647
4.1092336e-06
-0.00036107608
5.0994801e-06
-0.00036062499
6.1578615e-06
-0.00036010359
7.2666841e-06
-0.00035951266
8.4102054e-06
-0.00035885234
9.5761647e-06
-0.00035812144
1.0755135e-05
-0.00035731653
1.1941455e-05
-0.00035643164
1.3130606e-05
-0.00035545754
1.4320626e-05
-0.00035438192
1.5506701e-05
-0.00035318873
1.6685183e-05
-0.00035185937
1.7842681e-05
-0.00035037192
1.8967e-05
-0.0003487045
2.0024011e-05
-0.00034683407
2.0986448e-05
-0.00034474458
2.1781601e-05
-0.00034242284
2.2367255e-05
-0.00033987807
2.2605792e-05
-0.00033712397
2.2462956e-05
-0.00033423154
2.1693599e-05
-0.00033125725
2.0346017e-05
-0.00032840332
1.8003018e-05
-0.00032576741
1.4937398e-05
-0.00032377877
1.0590974e-05
5.4870447e-06
-0.00033342501
2.7109145e-07
-0.00033347639
2.720513e-07
-0.00033352988
2.8319625e-07
-0.0003335876
2.9056172e-07
-0.00033364876
3.0282639e-07
-0.00033371403
3.1513696e-07
-0.00033378353
3.3026966e-07
-0.00033385761
3.4695929e-07
-0.00033393663
3.6581676e-07
-0.00033402092
3.8679855e-07
-0.00033411091
4.0989407e-07
-0.000334207
4.3538161e-07
-0.00033430965
4.6316196e-07
-0.0003344193
4.9354931e-07
-0.00033453646
5.2650166e-07
-0.00033466161
5.6230356e-07
-0.0003347953
6.009905e-07
-0.00033493807
6.4282002e-07
-0.00033509049
6.8789302e-07
-0.00033525314
7.3645597e-07