/*--------------------------------*- C++ -*----------------------------------*\
| =========                 |                                                 |
| \\      /  F ield         | foam-extend: Open Source CFD                    |
|  \\    /   O peration     | Version:     4.1                                |
|   \\  /    A nd           | Web:         http://www.foam-extend.org         |
|    \\/     M anipulation  |                                                 |
\*---------------------------------------------------------------------------*/
FoamFile
{
    version     2.0;
    format      ascii;
    class       volScalarField;
    location    "0.9";
    object      rAU;
}
// * * * * * * * * * * * * * * * * * * * * * * * * * * * * * * * * * * * * * //

dimensions      [0 0 1 0 0 0 0];

internalField   nonuniform List<scalar> 
16126
(
0.0004950597
0.00049464132
0.00049464125
0.00049464126
0.00049464125
0.0004946413
0.00049464134
0.00049464146
0.00049464156
0.00049464173
0.00049464189
0.00049464212
0.00049464234
0.00049464263
0.00049464291
0.00049464325
0.0004946436
0.000494644
0.00049464441
0.00049464487
0.00049464534
0.00049464586
0.00049464639
0.00049464696
0.00049464754
0.00049464817
0.0004946488
0.00049464947
0.00049465013
0.00049465083
0.0004946515
0.00049465219
0.00049465287
0.00049465351
0.00049465414
0.00049465471
0.00049465524
0.00049465567
0.00049465601
0.0004946562
0.00049465605
0.00049465565
0.00049465503
0.00049465415
0.00049465296
0.00049465145
0.00049464957
0.00049464729
0.00049464458
0.0004946414
0.00049463773
0.00049463354
0.00049462879
0.00049462348
0.00049461758
0.00049461109
0.000494604
0.00049459631
0.00049458804
0.00049457921
0.00049456985
0.00049456
0.0004945497
0.00049453901
0.000494528
0.00049451673
0.00049450529
0.00049449377
0.00049448225
0.00049447083
0.00049445959
0.00049444864
0.00049443807
0.00049442796
0.00049441839
0.00049440946
0.00049440123
0.00049439377
0.00049438714
0.00049438139
0.00049437657
0.00049437271
0.00049436987
0.00049436805
0.00049436732
0.00049436732
0.0004943676
0.00049436895
0.00049437153
0.00049437536
0.00049438037
0.00049438636
0.00049439303
0.00049439992
0.00049440645
0.00049441197
0.00049441567
0.00049441324
0.00049440536
0.0004943928
0.00049437544
0.00049435312
0.00049432556
0.00049429228
0.00049425258
0.00049420538
0.00049414919
0.00049408185
0.00049400052
0.00049390121
0.00049377892
0.0004936269
0.00049343722
0.00049319972
0.00049290374
0.00049253625
0.00049208631
0.00049154036
0.00049089336
0.00049013386
0.00048928037
0.0004883149
0.00048738604
0.00048591085
0.00049299785
0.00049258316
0.00049258288
0.00049258285
0.00049258274
0.00049258271
0.0004925826
0.0004925826
0.00049258255
0.0004925826
0.00049258262
0.00049258272
0.0004925828
0.00049258295
0.00049258308
0.00049258327
0.00049258344
0.00049258368
0.00049258388
0.00049258414
0.00049258437
0.00049258464
0.00049258487
0.00049258515
0.00049258537
0.00049258561
0.00049258579
0.00049258597
0.00049258606
0.00049258613
0.00049258608
0.00049258594
0.0004925857
0.00049258523
0.0004925844
0.00049258327
0.00049258192
0.00049258021
0.00049257821
0.0004925758
0.00049257283
0.0004925693
0.00049256522
0.0004925605
0.0004925551
0.00049254896
0.00049254201
0.00049253421
0.0004925255
0.00049251583
0.00049250518
0.00049249349
0.00049248075
0.00049246696
0.0004924521
0.00049243618
0.00049241925
0.00049240133
0.00049238248
0.00049236279
0.00049234234
0.00049232125
0.00049229963
0.00049227762
0.00049225538
0.00049223307
0.00049221085
0.0004921889
0.00049216739
0.0004921465
0.00049212639
0.00049210722
0.00049208915
0.00049207231
0.00049205681
0.00049204277
0.00049203027
0.00049201937
0.00049201015
0.00049200264
0.00049199685
0.00049199282
0.00049199053
0.00049198999
0.00049199119
0.00049199164
0.0004919926
0.00049199541
0.00049200013
0.00049200666
0.0004920148
0.00049202412
0.00049203398
0.00049204342
0.00049205109
0.00049205484
0.0004920427
0.00049201898
0.00049198468
0.00049193996
0.00049188386
0.00049181551
0.00049173403
0.00049163842
0.00049152753
0.00049139991
0.00049125392
0.00049108744
0.00049089822
0.00049068349
0.00049044063
0.00049016648
0.00048985899
0.00048951565
0.00048913712
0.00048872352
0.00048828243
0.00048781912
0.00048735614
0.00048690398
0.00048652214
0.00048620624
0.00048615528
0.00048575117
0.0004906581
0.00049024732
0.00049024678
0.00049024657
0.00049024621
0.00049024593
0.00049024555
0.00049024525
0.00049024489
0.0004902446
0.00049024423
0.0004902439
0.00049024346
0.00049024308
0.00049024262
0.0004902422
0.00049024168
0.0004902412
0.00049024061
0.00049024005
0.00049023936
0.00049023868
0.00049023784
0.00049023692
0.00049023582
0.00049023466
0.0004902333
0.00049023183
0.00049023012
0.00049022828
0.00049022616
0.00049022382
0.00049022125
0.0004902183
0.00049021484
0.00049021091
0.00049020657
0.00049020165
0.00049019622
0.00049019012
0.0004901834
0.00049017591
0.00049016765
0.00049015855
0.00049014855
0.0004901376
0.00049012565
0.00049011266
0.0004900986
0.00049008342
0.00049006713
0.0004900497
0.00049003114
0.00049001148
0.00048999075
0.000489969
0.0004899463
0.00048992274
0.00048989842
0.00048987347
0.00048984802
0.00048982224
0.00048979629
0.00048977034
0.00048974459
0.00048971922
0.00048969444
0.00048967043
0.00048964737
0.00048962543
0.00048960478
0.00048958555
0.00048956786
0.00048955181
0.00048953748
0.00048952491
0.00048951414
0.00048950518
0.00048949806
0.00048949274
0.00048948922
0.00048948747
0.00048948745
0.00048948915
0.00048949247
0.00048949082
0.00048949002
0.00048949062
0.0004894925
0.00048949546
0.00048949924
0.00048950343
0.00048950745
0.00048951057
0.00048951013
0.00048949392
0.00048946082
0.00048941833
0.00048936535
0.0004893011
0.00048922506
0.00048913679
0.00048903595
0.00048892214
0.00048879497
0.00048865396
0.00048849865
0.00048832843
0.00048814291
0.00048794155
0.00048772444
0.00048749161
0.00048724471
0.00048698536
0.00048671882
0.00048644981
0.00048619058
0.00048594974
0.00048575266
0.00048560783
0.00048557072
0.00048562443
0.00048592353
0.0004858963
0.00048907779
0.0004886695
0.00048866865
0.00048866814
0.00048866739
0.00048866672
0.00048866594
0.00048866519
0.00048866434
0.00048866349
0.00048866253
0.00048866156
0.00048866043
0.00048865931
0.00048865803
0.00048865674
0.00048865527
0.00048865378
0.0004886521
0.00048865036
0.00048864841
0.00048864638
0.00048864409
0.00048864164
0.00048863888
0.00048863596
0.0004886327
0.00048862923
0.00048862536
0.00048862123
0.00048861665
0.00048861169
0.00048860634
0.00048860042
0.00048859407
0.00048858707
0.00048857953
0.00048857127
0.00048856237
0.00048855265
0.00048854221
0.00048853087
0.00048851867
0.00048850554
0.00048849144
0.00048847635
0.00048846023
0.00048844309
0.00048842489
0.00048840564
0.00048838537
0.00048836409
0.00048834184
0.0004883187
0.00048829473
0.00048827001
0.00048824467
0.00048821881
0.00048819259
0.00048816615
0.00048813965
0.00048811328
0.00048808721
0.00048806164
0.00048803674
0.00048801269
0.00048798969
0.00048796787
0.00048794739
0.00048792837
0.0004879109
0.00048789506
0.00048788089
0.0004878684
0.00048785758
0.00048784841
0.00048784083
0.00048783477
0.00048783019
0.00048782699
0.00048782511
0.00048782449
0.00048782503
0.00048782666
0.00048782922
0.00048782475
0.0004878192
0.00048781431
0.00048781007
0.00048780646
0.00048780352
0.00048780125
0.00048779968
0.000487797
0.00048778122
0.0004877495
0.00048771051
0.00048766335
0.0004876076
0.00048754324
0.0004874704
0.00048738924
0.0004872999
0.00048720253
0.00048709727
0.00048698424
0.00048686367
0.00048673575
0.00048660096
0.00048645984
0.00048631358
0.00048616352
0.00048601258
0.00048586375
0.00048572329
0.00048559671
0.00048549597
0.00048542837
0.00048541523
0.00048545898
0.0004856004
0.00048581097
0.00048618815
0.00048618976
0.0004881435
0.0004877365
0.00048773533
0.00048773451
0.00048773336
0.00048773228
0.00048773102
0.00048772976
0.00048772834
0.00048772689
0.00048772527
0.00048772361
0.00048772175
0.00048771984
0.0004877177
0.00048771549
0.00048771302
0.00048771046
0.00048770761
0.00048770463
0.00048770133
0.00048769787
0.00048769405
0.00048769002
0.00048768559
0.00048768091
0.00048767578
0.00048767034
0.0004876644
0.00048765808
0.0004876512
0.00048764384
0.00048763597
0.00048762742
0.00048761833
0.00048760848
0.00048759801
0.00048758672
0.00048757472
0.00048756183
0.00048754816
0.00048753354
0.00048751805
0.00048750162
0.00048748425
0.00048746591
0.00048744662
0.0004874264
0.00048740525
0.0004873832
0.00048736032
0.00048733666
0.00048731228
0.0004872873
0.0004872618
0.00048723592
0.00048720977
0.00048718352
0.00048715732
0.00048713133
0.00048710574
0.00048708071
0.00048705643
0.00048703307
0.00048701079
0.00048698973
0.00048697005
0.00048695184
0.00048693519
0.00048692014
0.00048690673
0.00048689492
0.00048688469
0.00048687595
0.0004868686
0.00048686252
0.00048685758
0.00048685364
0.00048685059
0.00048684828
0.00048684662
0.00048684552
0.00048684488
0.0004868446
0.00048684453
0.00048684104
0.00048683279
0.00048682323
0.00048681438
0.00048680655
0.00048680011
0.00048679551
0.00048679181
0.00048677942
0.00048675389
0.00048672296
0.00048668604
0.00048664309
0.00048659442
0.00048654049
0.00048648178
0.00048641875
0.0004863518
0.00048628131
0.0004862076
0.000486131
0.0004860519
0.00048597071
0.00048588815
0.00048580502
0.00048572275
0.00048564293
0.00048556848
0.00048550228
0.00048544981
0.00048541541
0.00048540849
0.0004854333
0.00048550551
0.00048562291
0.00048581484
0.00048605406
0.00048640422
0.00048636753
0.00048765532
0.00048724882
0.00048724737
0.00048724624
0.00048724473
0.00048724327
0.00048724159
0.00048723987
0.00048723794
0.00048723596
0.00048723375
0.00048723146
0.00048722892
0.00048722627
0.00048722335
0.0004872203
0.00048721694
0.00048721341
0.00048720954
0.00048720547
0.00048720102
0.00048719632
0.0004871912
0.00048718579
0.0004871799
0.00048717368
0.00048716693
0.00048715978
0.00048715204
0.00048714385
0.000487135
0.0004871256
0.00048711561
0.00048710486
0.00048709349
0.00048708131
0.00048706844
0.00048705469
0.00048704021
0.00048702478
0.00048700858
0.00048699141
0.0004869734
0.00048695447
0.00048693465
0.00048691396
0.0004868924
0.00048687004
0.0004868469
0.00048682304
0.00048679855
0.0004867735
0.00048674799
0.00048672216
0.00048669611
0.00048667
0.00048664396
0.00048661817
0.00048659278
0.00048656798
0.00048654394
0.00048652081
0.00048649878
0.00048647798
0.00048645855
0.00048644061
0.00048642426
0.00048640953
0.00048639647
0.00048638505
0.00048637522
0.0004863669
0.00048635998
0.0004863543
0.0004863497
0.00048634599
0.000486343
0.00048634055
0.00048633851
0.00048633672
0.00048633509
0.00048633356
0.00048633204
0.00048633047
0.00048632876
0.00048632673
0.00048632125
0.00048631389
0.0004863042
0.00048629556
0.00048628902
0.00048628328
0.0004862742
0.00048625565
0.00048623311
0.00048620622
0.00048617503
0.00048613994
0.00048610149
0.00048606033
0.00048601711
0.00048597242
0.00048592676
0.00048588055
0.00048583416
0.00048578788
0.00048574211
0.00048569723
0.00048565389
0.00048561283
0.00048557533
0.00048554276
0.00048551761
0.00048550218
0.0004855009
0.00048551689
0.00048555736
0.00048562456
0.00048573013
0.00048586999
0.00048606506
0.00048629159
0.00048658941
0.00048649083
0.00048742755
0.00048702112
0.00048701945
0.00048701804
0.00048701624
0.00048701448
0.00048701244
0.00048701036
0.00048700802
0.0004870056
0.00048700292
0.00048700012
0.00048699703
0.0004869938
0.00048699025
0.00048698653
0.00048698244
0.00048697815
0.00048697346
0.00048696853
0.00048696315
0.00048695749
0.00048695133
0.00048694484
0.0004869378
0.00048693037
0.00048692235
0.00048691387
0.00048690474
0.0004868951
0.00048688474
0.00048687377
0.00048686215
0.00048684973
0.00048683665
0.0004868227
0.00048680804
0.00048679246
0.00048677614
0.00048675886
0.00048674082
0.00048672182
0.00048670201
0.00048668133
0.00048665982
0.00048663751
0.00048661444
0.00048659066
0.00048656625
0.00048654127
0.00048651582
0.00048649001
0.00048646395
0.00048643777
0.00048641162
0.00048638564
0.00048636
0.00048633487
0.00048631041
0.0004862868
0.0004862642
0.00048624277
0.00048622267
0.00048620403
0.00048618695
0.00048617151
0.0004861578
0.0004861458
0.00048613552
0.00048612688
0.00048611981
0.00048611416
0.0004861098
0.00048610651
0.00048610412
0.00048610242
0.00048610123
0.00048610037
0.0004860997
0.00048609912
0.00048609854
0.00048609794
0.00048609726
0.0004860965
0.00048609559
0.00048609441
0.00048609281
0.00048609057
0.00048608518
0.00048607959
0.00048607437
0.00048606774
0.00048605644
0.00048604211
0.00048602451
0.00048600361
0.00048597964
0.00048595313
0.0004859247
0.00048589504
0.00048586484
0.0004858347
0.0004858051
0.00048577644
0.00048574903
0.00048572311
0.00048569897
0.00048567692
0.00048565744
0.00048564113
0.00048562902
0.00048562223
0.00048562274
0.00048563237
0.00048565459
0.00048569165
0.00048574916
0.00048582838
0.00048593836
0.00048607523
0.00048625464
0.00048645844
0.00048671107
0.0004865647
0.00048733151
0.00048692497
0.00048692314
0.00048692151
0.0004869195
0.0004869175
0.0004869152
0.00048691284
0.0004869102
0.00048690745
0.00048690441
0.00048690123
0.00048689773
0.00048689406
0.00048689003
0.00048688581
0.00048688119
0.00048687633
0.00048687103
0.00048686545
0.00048685939
0.000486853
0.00048684607
0.00048683877
0.00048683088
0.00048682256
0.0004868136
0.00048680415
0.00048679399
0.00048678329
0.00048677183
0.00048675971
0.00048674692
0.00048673329
0.00048671897
0.00048670375
0.00048668781
0.00048667094
0.00048665331
0.00048663474
0.0004866154
0.00048659513
0.00048657407
0.00048655219
0.00048652953
0.00048650612
0.00048648203
0.00048645734
0.00048643209
0.0004864064
0.00048638036
0.00048635409
0.00048632772
0.00048630139
0.00048627525
0.00048624946
0.00048622419
0.0004861996
0.00048617586
0.00048615316
0.00048613164
0.00048611146
0.00048609277
0.00048607569
0.0004860603
0.00048604667
0.00048603486
0.00048602485
0.0004860166
0.00048601004
0.00048600505
0.0004860015
0.00048599921
0.000485998
0.00048599766
0.00048599801
0.00048599887
0.00048600008
0.00048600154
0.00048600315
0.00048600488
0.00048600669
0.00048600858
0.00048601053
0.0004860125
0.00048601438
0.00048601601
0.00048601717
0.00048601757
0.00048601682
0.00048601453
0.00048601028
0.00048600371
0.00048599453
0.00048598263
0.00048596807
0.00048595115
0.00048593239
0.00048591238
0.00048589179
0.00048587124
0.00048585131
0.00048583246
0.00048581504
0.00048579932
0.00048578552
0.00048577387
0.00048576462
0.00048575819
0.00048575507
0.00048575614
0.00048576232
0.00048577533
0.00048579664
0.00048582915
0.00048587463
0.00048593765
0.00048601898
0.00048612565
0.00048625407
0.00048641521
0.00048659474
0.00048680666
0.00048661723
0.00048729429
0.00048688758
0.00048688564
0.00048688383
0.00048688166
0.00048687948
0.00048687699
0.00048687442
0.00048687156
0.00048686857
0.00048686526
0.0004868618
0.000486858
0.00048685401
0.00048684963
0.00048684504
0.00048684002
0.00048683474
0.00048682899
0.00048682294
0.00048681637
0.00048680945
0.00048680196
0.00048679407
0.00048678556
0.00048677659
0.00048676694
0.00048675678
0.00048674588
0.0004867344
0.00048672214
0.0004867092
0.00048669556
0.00048668105
0.00048666583
0.00048664971
0.00048663284
0.00048661504
0.00048659648
0.00048657697
0.00048655671
0.00048653554
0.00048651359
0.00048649085
0.00048646736
0.00048644318
0.00048641836
0.00048639299
0.00048636715
0.00048634093
0.00048631445
0.00048628784
0.00048626121
0.00048623474
0.00048620856
0.00048618285
0.00048615777
0.0004861335
0.0004861102
0.00048608806
0.00048606723
0.00048604786
0.0004860301
0.00048601405
0.00048599981
0.00048598744
0.00048597698
0.0004859684
0.00048596168
0.00048595674
0.00048595345
0.00048595168
0.00048595128
0.00048595205
0.00048595382
0.00048595641
0.00048595966
0.00048596343
0.00048596765
0.00048597223
0.00048597714
0.00048598237
0.00048598789
0.00048599369
0.00048599969
0.00048600579
0.0004860118
0.00048601748
0.00048602252
0.00048602654
0.00048602916
0.00048602997
0.00048602866
0.00048602498
0.00048601884
0.00048601032
0.00048599971
0.00048598746
0.00048597411
0.00048596026
0.00048594649
0.0004859333
0.00048592112
0.00048591031
0.00048590112
0.00048589376
0.00048588846
0.00048588547
0.00048588518
0.00048588807
0.00048589491
0.00048590658
0.00048592455
0.00048595012
0.00048598576
0.00048603295
0.00048609543
0.00048617378
0.00048627347
0.00048639154
0.00048653561
0.00048669468
0.00048687582
0.00048665359
0.00048728055
0.00048687367
0.00048687166
0.00048686971
0.00048686743
0.0004868651
0.00048686247
0.00048685974
0.0004868567
0.00048685353
0.00048685003
0.00048684635
0.00048684231
0.00048683807
0.00048683343
0.00048682855
0.00048682323
0.00048681763
0.00048681154
0.00048680512
0.00048679817
0.00048679084
0.00048678292
0.00048677457
0.00048676559
0.00048675611
0.00048674594
0.00048673523
0.00048672376
0.00048671169
0.00048669881
0.00048668524
0.00048667094
0.00048665576
0.00048663985
0.00048662303
0.00048660545
0.00048658693
0.00048656764
0.00048654741
0.00048652643
0.00048650454
0.00048648189
0.00048645846
0.00048643432
0.0004864095
0.00048638408
0.00048635815
0.00048633179
0.0004863051
0.00048627821
0.00048625124
0.00048622432
0.00048619763
0.00048617131
0.00048614554
0.00048612048
0.00048609632
0.00048607322
0.00048605138
0.00048603094
0.00048601207
0.00048599491
0.00048597956
0.00048596613
0.00048595468
0.00048594526
0.00048593784
0.00048593239
0.00048592886
0.00048592712
0.00048592705
0.00048592851
0.00048593132
0.00048593531
0.00048594034
0.00048594626
0.00048595294
0.00048596031
0.00048596828
0.00048597683
0.00048598593
0.00048599555
0.00048600562
0.00048601607
0.00048602675
0.00048603744
0.00048604787
0.00048605611
0.00048606219
0.00048606878
0.00048607592
0.00048608352
0.0004860849
0.0004860839
0.0004860806
0.00048607524
0.00048606821
0.00048605998
0.00048605108
0.00048604205
0.00048603335
0.0004860254
0.00048601856
0.00048601311
0.00048600928
0.00048600736
0.00048600763
0.00048601049
0.00048601644
0.00048602623
0.00048604068
0.00048606114
0.00048608875
0.00048612564
0.00048617302
0.00048623394
0.0004863087
0.00048640138
0.0004865093
0.00048663739
0.00048677704
0.0004869313
0.00048668119
0.00048727531
0.00048686829
0.00048686621
0.00048686415
0.00048686178
0.00048685934
0.00048685659
0.00048685373
0.00048685055
0.00048684723
0.00048684356
0.00048683971
0.00048683548
0.00048683104
0.00048682618
0.00048682106
0.00048681549
0.00048680962
0.00048680325
0.00048679653
0.00048678926
0.00048678159
0.00048677332
0.0004867646
0.00048675522
0.00048674533
0.00048673473
0.00048672356
0.00048671162
0.00048669906
0.00048668567
0.00048667156
0.00048665672
0.00048664097
0.00048662449
0.00048660708
0.0004865889
0.00048656977
0.00048654986
0.00048652901
0.00048650741
0.00048648489
0.00048646163
0.00048643759
0.00048641284
0.00048638745
0.00048636146
0.00048633499
0.00048630812
0.00048628095
0.00048625361
0.00048622624
0.00048619896
0.00048617197
0.00048614539
0.00048611942
0.00048609424
0.00048607002
0.00048604694
0.0004860252
0.00048600495
0.00048598637
0.00048596959
0.00048595474
0.00048594193
0.00048593121
0.00048592266
0.00048591626
0.00048591199
0.00048590979
0.00048590956
0.0004859112
0.00048591457
0.0004859195
0.00048592585
0.00048593348
0.00048594224
0.00048595201
0.00048596272
0.00048597427
0.00048598663
0.00048599973
0.00048601353
0.00048602794
0.00048604283
0.00048605803
0.00048607204
0.00048608124
0.00048608935
0.00048609674
0.00048610648
0.00048611899
0.00048613458
0.00048614687
0.00048615604
0.00048615717
0.00048615615
0.00048615333
0.0004861491
0.00048614395
0.00048613836
0.00048613278
0.00048612763
0.00048612328
0.00048612003
0.00048611819
0.00048611806
0.00048611997
0.00048612436
0.00048613175
0.00048614287
0.0004861585
0.00048617984
0.00048620792
0.00048624455
0.00048629075
0.00048634895
0.00048641933
0.00048650491
0.00048660341
0.00048671786
0.00048684153
0.00048697483
0.00048670252
0.0004872729
0.00048686576
0.00048686364
0.00048686148
0.00048685902
0.00048685648
0.00048685363
0.00048685066
0.00048684736
0.0004868439
0.00048684009
0.00048683609
0.00048683169
0.00048682707
0.00048682202
0.0004868167
0.00048681091
0.00048680481
0.00048679818
0.0004867912
0.00048678365
0.00048677568
0.0004867671
0.00048675804
0.00048674831
0.00048673806
0.00048672707
0.00048671549
0.00048670313
0.00048669013
0.00048667628
0.0004866617
0.00048664636
0.00048663011
0.00048661311
0.00048659515
0.00048657642
0.00048655673
0.00048653625
0.00048651482
0.00048649262
0.00048646952
0.00048644566
0.00048642103
0.0004863957
0.00048636972
0.00048634316
0.00048631614
0.00048628872
0.00048626103
0.00048623319
0.00048620535
0.00048617764
0.00048615024
0.00048612332
0.00048609704
0.00048607161
0.00048604721
0.00048602402
0.00048600225
0.00048598206
0.00048596363
0.00048594712
0.00048593265
0.00048592035
0.00048591029
0.00048590255
0.00048589712
0.000485894
0.00048589314
0.00048589446
0.00048589786
0.00048590322
0.00048591038
0.0004859192
0.00048592953
0.00048594125
0.00048595421
0.00048596835
0.00048598353
0.00048599971
0.00048601679
0.00048603469
0.00048605328
0.00048607241
0.00048608508
0.00048609602
0.00048610303
0.00048611171
0.00048612231
0.00048613519
0.0004861507
0.00048616926
0.00048619124
0.00048621305
0.00048622988
0.00048623335
0.00048623393
0.00048623291
0.00048623072
0.00048622782
0.00048622464
0.00048622161
0.00048621912
0.0004862175
0.00048621711
0.00048621829
0.00048622143
0.00048622698
0.00048623547
0.00048624761
0.00048626412
0.00048628608
0.0004863144
0.00048635058
0.00048639545
0.00048645088
0.0004865169
0.0004865956
0.00048668497
0.00048678668
0.00048689548
0.0004870105
0.00048671953
0.00048727138
0.00048686414
0.00048686198
0.00048685973
0.0004868572
0.00048685457
0.00048685163
0.00048684855
0.00048684514
0.00048684157
0.00048683763
0.00048683348
0.00048682894
0.00048682415
0.00048681893
0.00048681342
0.00048680743
0.00048680111
0.00048679426
0.00048678703
0.00048677922
0.00048677099
0.00048676211
0.00048675275
0.00048674269
0.0004867321
0.00048672075
0.0004867088
0.00048669605
0.00048668263
0.00048666836
0.00048665333
0.00048663753
0.00048662079
0.00048660329
0.00048658482
0.00048656556
0.00048654532
0.00048652429
0.00048650229
0.00048647952
0.00048645583
0.00048643138
0.00048640615
0.00048638022
0.00048635364
0.00048632648
0.00048629886
0.00048627085
0.00048624259
0.00048621419
0.00048618581
0.00048615759
0.00048612971
0.00048610234
0.00048607567
0.00048604988
0.00048602519
0.00048600178
0.00048597987
0.00048595964
0.00048594126
0.00048592492
0.00048591076
0.0004858989
0.00048588944
0.00048588246
0.00048587799
0.00048587603
0.00048587654
0.00048587946
0.00048588468
0.00048589211
0.00048590158
0.00048591297
0.00048592612
0.00048594088
0.00048595711
0.00048597471
0.00048599354
0.00048601351
0.0004860345
0.00048605637
0.00048607545
0.00048608888
0.00048609659
0.00048610467
0.0004861144
0.00048612591
0.00048613939
0.00048615513
0.00048617341
0.00048619456
0.0004862189
0.00048624667
0.00048627805
0.00048629892
0.0004863088
0.00048631042
0.00048631064
0.00048630991
0.00048630865
0.00048630728
0.00048630621
0.00048630582
0.00048630648
0.00048630857
0.00048631252
0.00048631878
0.00048632789
0.00048634052
0.00048635734
0.00048637932
0.00048640724
0.00048644234
0.00048648531
0.00048653759
0.00048659913
0.00048667135
0.00048675253
0.0004868434
0.00048693978
0.00048703998
0.00048673355
0.00048727015
0.00048686283
0.00048686063
0.0004868583
0.00048685571
0.00048685299
0.00048684997
0.0004868468
0.00048684329
0.0004868396
0.00048683554
0.00048683127
0.00048682658
0.00048682165
0.00048681626
0.00048681058
0.0004868044
0.00048679788
0.00048679082
0.00048678336
0.00048677531
0.00048676682
0.00048675767
0.00048674802
0.00048673766
0.00048672674
0.00048671505
0.00048670274
0.00048668961
0.0004866758
0.00048666111
0.00048664566
0.00048662941
0.0004866122
0.00048659422
0.00048657524
0.00048655547
0.00048653469
0.00048651311
0.00048649054
0.00048646719
0.0004864429
0.00048641784
0.000486392
0.00048636544
0.00048633822
0.00048631043
0.00048628217
0.00048625353
0.00048622464
0.00048619562
0.00048616663
0.00048613782
0.00048610938
0.00048608147
0.00048605431
0.00048602808
0.000486003
0.00048597928
0.00048595714
0.00048593677
0.00048591836
0.00048590212
0.00048588819
0.00048587672
0.00048586783
0.00048586161
0.00048585809
0.0004858573
0.00048585921
0.00048586378
0.0004858709
0.00048588048
0.00048589236
0.00048590641
0.00048592246
0.00048594035
0.00048595992
0.00048598104
0.00048600353
0.00048602727
0.0004860521
0.00048607005
0.00048608119
0.00048608754
0.00048609586
0.00048610607
0.00048611814
0.00048613214
0.00048614821
0.00048616653
0.00048618735
0.00048621092
0.00048623748
0.00048626723
0.0004863003
0.00048633672
0.00048636568
0.00048638177
0.00048638402
0.00048638511
0.00048638546
0.00048638551
0.00048638568
0.00048638636
0.00048638795
0.00048639087
0.00048639554
0.00048640244
0.0004864121
0.00048642513
0.00048644216
0.00048646402
0.0004864914
0.0004865253
0.00048656625
0.00048661531
0.00048667237
0.00048673829
0.00048681159
0.00048689237
0.00048697736
0.00048706461
0.00048674512
0.00048726905
0.00048686165
0.00048685942
0.00048685702
0.00048685438
0.00048685158
0.00048684849
0.00048684523
0.00048684163
0.00048683783
0.00048683366
0.00048682927
0.00048682445
0.00048681938
0.00048681384
0.00048680799
0.00048680164
0.00048679493
0.00048678766
0.00048678
0.00048677171
0.00048676297
0.00048675357
0.00048674364
0.00048673299
0.00048672176
0.00048670975
0.0004866971
0.00048668361
0.00048666942
0.00048665434
0.00048663846
0.00048662177
0.00048660411
0.00048658565
0.00048656618
0.00048654589
0.00048652458
0.00048650244
0.0004864793
0.00048645536
0.00048643047
0.00048640478
0.0004863783
0.00048635109
0.00048632321
0.00048629474
0.0004862658
0.00048623647
0.00048620688
0.00048617718
0.00048614751
0.00048611803
0.00048608894
0.00048606041
0.00048603266
0.0004860059
0.00048598034
0.0004859562
0.00048593373
0.00048591313
0.00048589461
0.00048587838
0.00048586462
0.00048585349
0.00048584512
0.00048583962
0.00048583705
0.00048583745
0.0004858408
0.00048584706
0.00048585614
0.00048586795
0.00048588233
0.00048589913
0.00048591817
0.00048593929
0.00048596228
0.00048598698
0.00048601318
0.00048604071
0.00048605907
0.00048606643
0.00048607155
0.00048607911
0.00048608897
0.00048610099
0.00048611513
0.00048613138
0.00048614982
0.00048617058
0.00048619382
0.00048621972
0.00048624846
0.00048628018
0.00048631498
0.00048635284
0.00048639372
0.00048643049
0.00048645236
0.00048645495
0.00048645662
0.0004864578
0.00048645894
0.00048646043
0.0004864627
0.00048646619
0.0004864713
0.00048647854
0.0004864884
0.00048650146
0.0004865183
0.00048653964
0.00048656606
0.00048659838
0.00048663703
0.00048668278
0.00048673547
0.00048679559
0.00048686186
0.00048693397
0.00048700926
0.00048708566
0.00048675503
0.00048726803
0.00048686057
0.00048685831
0.00048685584
0.00048685315
0.00048685029
0.00048684713
0.00048684379
0.0004868401
0.00048683621
0.00048683194
0.00048682743
0.0004868225
0.00048681729
0.00048681161
0.00048680561
0.00048679909
0.00048679221
0.00048678475
0.00048677688
0.00048676838
0.00048675941
0.00048674976
0.00048673957
0.00048672864
0.00048671712
0.0004867048
0.00048669182
0.00048667798
0.00048666343
0.00048664795
0.00048663167
0.00048661455
0.00048659645
0.00048657751
0.00048655756
0.00048653675
0.0004865149
0.00048649221
0.00048646849
0.00048644394
0.00048641843
0.0004863921
0.00048636496
0.00048633706
0.00048630848
0.0004862793
0.00048624962
0.00048621955
0.00048618921
0.00048615875
0.00048612833
0.0004860981
0.00048606828
0.00048603904
0.00048601061
0.00048598321
0.00048595707
0.00048593242
0.00048590952
0.00048588859
0.00048586987
0.00048585358
0.00048583992
0.00048582906
0.00048582117
0.00048581637
0.00048581474
0.00048581632
0.00048582113
0.00048582913
0.00048584023
0.00048585435
0.00048587132
0.00048589097
0.00048591312
0.00048593756
0.00048596406
0.00048599243
0.00048602242
0.00048604398
0.00048604862
0.00048605128
0.00048605694
0.00048606541
0.00048607652
0.00048609011
0.00048610609
0.0004861244
0.00048614506
0.00048616811
0.00048619367
0.00048622183
0.00048625272
0.00048628643
0.00048632299
0.00048636237
0.00048640451
0.0004864492
0.00048649321
0.00048651953
0.00048652309
0.00048652522
0.00048652715
0.00048652932
0.00048653215
0.00048653608
0.00048654154
0.000486549
0.00048655895
0.00048657192
0.00048658842
0.00048660909
0.0004866344
0.00048666503
0.00048670127
0.00048674368
0.00048679204
0.00048684657
0.00048690614
0.00048697023
0.0004870367
0.00048710357
0.00048676342
0.00048726707
0.00048685956
0.00048685729
0.00048685476
0.00048685203
0.0004868491
0.00048684588
0.00048684246
0.0004868387
0.00048683473
0.00048683036
0.00048682575
0.0004868207
0.00048681537
0.00048680956
0.00048680342
0.00048679674
0.0004867897
0.00048678206
0.000486774
0.0004867653
0.00048675611
0.00048674623
0.0004867358
0.0004867246
0.0004867128
0.00048670018
0.00048668689
0.00048667271
0.0004866578
0.00048664196
0.00048662528
0.00048660774
0.0004865892
0.0004865698
0.00048654936
0.00048652804
0.00048650566
0.0004864824
0.0004864581
0.00048643294
0.00048640679
0.0004863798
0.00048635196
0.00048632335
0.00048629403
0.00048626409
0.00048623363
0.00048620276
0.00048617161
0.00048614033
0.00048610907
0.00048607801
0.00048604736
0.00048601732
0.00048598811
0.00048595997
0.00048593314
0.00048590787
0.00048588444
0.00048586309
0.00048584406
0.00048582761
0.00048581396
0.00048580331
0.00048579584
0.0004857917
0.00048579098
0.00048579375
0.00048580004
0.00048580981
0.000485823
0.00048583949
0.00048585914
0.00048588175
0.00048590711
0.00048593499
0.00048596513
0.00048599728
0.00048602601
0.00048603026
0.00048602927
0.00048603182
0.00048603777
0.00048604691
0.00048605907
0.00048607406
0.00048609173
0.00048611198
0.00048613476
0.00048616006
0.0004861879
0.00048621833
0.0004862514
0.00048628714
0.00048632554
0.00048636654
0.00048641003
0.00048645583
0.0004865037
0.00048655337
0.00048658147
0.00048658867
0.00048659116
0.00048659376
0.0004865969
0.00048660102
0.00048660657
0.00048661398
0.00048662373
0.00048663631
0.00048665218
0.00048667188
0.00048669583
0.00048672456
0.00048675829