/*--------------------------------*- C++ -*----------------------------------*\
| =========                 |                                                 |
| \\      /  F ield         | foam-extend: Open Source CFD                    |
|  \\    /   O peration     | Version:     4.1                                |
|   \\  /    A nd           | Web:         http://www.foam-extend.org         |
|    \\/     M anipulation  |                                                 |
\*---------------------------------------------------------------------------*/
FoamFile
{
    version     2.0;
    format      ascii;
    class       volVectorField;
    location    "0.9";
    object      U;
}
// * * * * * * * * * * * * * * * * * * * * * * * * * * * * * * * * * * * * * //

dimensions      [0 1 -1 0 0 0 0];

internalField   nonuniform List<vector> 
16126
(
(0.16244878 -1.3611749e-05 0)
(0.16251443 1.7458353e-06 0)
(0.1624684 -7.9120934e-07 0)
(0.16251567 7.0917197e-07 0)
(0.16247625 1.5928581e-06 0)
(0.162501 1.6285462e-06 0)
(0.16247086 3.6552874e-06 0)
(0.16247702 3.7750377e-06 0)
(0.16245099 5.2542842e-06 0)
(0.16244361 5.4192815e-06 0)
(0.16241758 6.505492e-06 0)
(0.1624001 6.8225118e-06 0)
(0.16237144 7.6945331e-06 0)
(0.1623458 8.1663851e-06 0)
(0.16231294 8.9699869e-06 0)
(0.16228018 9.5744925e-06 0)
(0.16224225 1.035887e-05 0)
(0.16220288 1.1040872e-05 0)
(0.1621594 1.1811909e-05 0)
(0.16211371 1.2525158e-05 0)
(0.16206449 1.3278182e-05 0)
(0.16201274 1.4003113e-05 0)
(0.16195786 1.4767356e-05 0)
(0.16190045 1.5541592e-05 0)
(0.16184034 1.6352173e-05 0)
(0.161778 1.7189179e-05 0)
(0.16171355 1.8081486e-05 0)
(0.16164747 1.9047006e-05 0)
(0.16158012 2.0136128e-05 0)
(0.16151213 2.1405383e-05 0)
(0.1614441 2.2959562e-05 0)
(0.16137681 2.4869692e-05 0)
(0.16131106 2.7304694e-05 0)
(0.16124775 2.9863006e-05 0)
(0.16118794 3.1811968e-05 0)
(0.1611331 3.3136132e-05 0)
(0.161085 3.3889839e-05 0)
(0.16104582 3.3709278e-05 0)
(0.16101861 3.223188e-05 0)
(0.16100659 2.8806926e-05 0)
(0.16101479 2.5696205e-05 0)
(0.16104199 2.3879184e-05 0)
(0.16109124 2.1775526e-05 0)
(0.1611651 1.9411599e-05 0)
(0.16126677 1.6584084e-05 0)
(0.16139945 1.3273126e-05 0)
(0.1615665 9.4322639e-06 0)
(0.16177131 5.0419645e-06 0)
(0.16201724 8.5210465e-08 0)
(0.1623076 -5.4451499e-06 0)
(0.16264554 -1.15482e-05 0)
(0.16303401 -1.8213486e-05 0)
(0.16347567 -2.542072e-05 0)
(0.16397278 -3.3138598e-05 0)
(0.16452718 -4.1324458e-05 0)
(0.16514014 -4.9924141e-05 0)
(0.16581233 -5.8871279e-05 0)
(0.16654371 -6.8087475e-05 0)
(0.1673335 -7.7482824e-05 0)
(0.16818008 -8.6955791e-05 0)
(0.16908099 -9.6394375e-05 0)
(0.17003285 -0.00010567764 0)
(0.17103141 -0.00011467672 0)
(0.17207151 -0.00012325725 0)
(0.17314712 -0.00013128149 0)
(0.17425142 -0.00013861169 0)
(0.17537685 -0.0001451124 0)
(0.17651523 -0.00015065392 0)
(0.17765787 -0.00015511588 0)
(0.17879571 -0.0001583892 0)
(0.17991946 -0.00016037862 0)
(0.1810198 -0.00016100387 0)
(0.18208747 -0.00016019998 0)
(0.1831135 -0.00015791547 0)
(0.18408924 -0.00015411322 0)
(0.18500656 -0.00014876423 0)
(0.18585786 -0.00014185171 0)
(0.18663621 -0.00013335823 0)
(0.18733524 -0.00012327934 0)
(0.18794942 -0.00011158322 0)
(0.18847362 -9.8242503e-05 0)
(0.18890386 -8.3113503e-05 0)
(0.18923593 -6.59189e-05 0)
(0.1894673 -4.6522867e-05 0)
(0.18959408 -2.3345305e-05 0)
(0.18961212 -8.550228e-06 0)
(0.18953771 1.1498942e-06 0)
(0.18934416 1.8424335e-05 0)
(0.18902594 3.7677619e-05 0)
(0.18858482 5.630057e-05 0)
(0.18803376 7.141496e-05 0)
(0.18739762 8.1180609e-05 0)
(0.18671439 8.2504927e-05 0)
(0.18603635 8.0332428e-05 0)
(0.18542469 7.3355483e-05 0)
(0.18494862 0.0001036196 0)
(0.18469705 0.00015795642 0)
(0.18479473 0.00014260866 0)
(0.18534972 9.4654867e-05 0)
(0.18636139 7.003799e-05 0)
(0.18784378 6.4197677e-05 0)
(0.1898039 7.6826253e-05 0)
(0.19226758 0.00010130851 0)
(0.19526476 0.00013137071 0)
(0.1988612 0.00015980359 0)
(0.20312992 0.00017418376 0)
(0.20821479 0.00015983189 0)
(0.21426415 8.88232e-05 0)
(0.22156448 -7.0815648e-05 0)
(0.23038618 -0.00037741813 0)
(0.24126557 -0.00089087317 0)
(0.25464265 -0.001716796 0)
(0.27145908 -0.0029432944 0)
(0.29230436 -0.0047315574 0)
(0.31871397 -0.0071665193 0)
(0.35116788 -0.010457573 0)
(0.39203826 -0.014601785 0)
(0.44086562 -0.019863881 0)
(0.50147379 -0.025963052 0)
(0.57022673 -0.033376346 0)
(0.65493796 -0.040697004 0)
(0.74103252 -0.049850608 0)
(0.85367274 -0.051316251 0)
(0.9241527 -0.062803078 0)
(0.45971861 -4.1503534e-05 0)
(0.45979724 -5.1733141e-06 0)
(0.4597784 -7.8593515e-06 0)
(0.45982844 1.2671716e-07 0)
(0.45981109 3.5842155e-06 0)
(0.45983785 5.4134396e-06 0)
(0.45982463 9.7620725e-06 0)
(0.45983608 1.1347445e-05 0)
(0.459824 1.5663931e-05 0)
(0.45982404 1.7869672e-05 0)
(0.45981025 2.1830289e-05 0)
(0.45980171 2.4521079e-05 0)
(0.45978483 2.8227065e-05 0)
(0.45976964 3.1192948e-05 0)
(0.45974919 3.4701636e-05 0)
(0.45972874 3.7810216e-05 0)
(0.45970485 4.1215344e-05 0)
(0.45968034 4.4408073e-05 0)
(0.45965363 4.7748561e-05 0)
(0.45962635 5.0958858e-05 0)
(0.45959795 5.4208499e-05 0)
(0.45956953 5.732814e-05 0)
(0.45954114 6.0340175e-05 0)
(0.45951371 6.3096148e-05 0)
(0.45948774 6.558298e-05 0)
(0.45946426 6.768212e-05 0)
(0.45944418 6.9305273e-05 0)
(0.45942878 7.0298358e-05 0)
(0.45941944 7.0502795e-05 0)
(0.4594179 6.9717219e-05 0)
(0.45942613 6.7709542e-05 0)
(0.45944657 6.4272665e-05 0)
(0.45948187 5.9149873e-05 0)
(0.45953534 5.252014e-05 0)
(0.45960969 4.4801455e-05 0)
(0.45970663 3.5610358e-05 0)
(0.4598293 2.434406e-05 0)
(0.45998086 1.0549085e-05 0)
(0.46016455 -6.1781225e-06 0)
(0.46038387 -2.6333112e-05 0)
(0.46064137 -4.9324563e-05 0)
(0.46094536 -7.4961732e-05 0)
(0.4613008 -0.00010403534 0)
(0.46171338 -0.00013672028 0)
(0.4621886 -0.00017321373 0)
(0.4627321 -0.00021362116 0)
(0.46334949 -0.00025800318 0)
(0.46404628 -0.00030635563 0)
(0.4648278 -0.00035860571 0)
(0.46569901 -0.00041460266 0)
(0.46666443 -0.00047410991 0)
(0.46772799 -0.00053679908 0)
(0.46889283 -0.00060224555 0)
(0.47016121 -0.00066992523 0)
(0.47153434 -0.00073921472 0)
(0.47301224 -0.0008093942 0)
(0.47459359 -0.00087965199 0)
(0.47627566 -0.00094909341 0)
(0.47805417 -0.0010167528 0)
(0.47992326 -0.0010816075 0)
(0.48187544 -0.0011425965 0)
(0.48390159 -0.001198642 0)
(0.485991 -0.0012486723 0)
(0.48813146 -0.0012916484 0)
(0.49030938 -0.0013265916 0)
(0.49250997 -0.0013526121 0)
(0.49471744 -0.0013689363 0)
(0.49691526 -0.0013749331 0)
(0.49908646 -0.0013701374 0)
(0.50121391 -0.0013542664 0)
(0.50328068 -0.0013272303 0)
(0.50527034 -0.0012891345 0)
(0.50716729 -0.001240271 0)
(0.50895702 -0.0011811013 0)
(0.51062629 -0.0011122339 0)
(0.5121634 -0.0010343897 0)
(0.51355816 -0.00094838099 0)
(0.51480202 -0.00085506847 0)
(0.51588796 -0.0007553704 0)
(0.51681056 -0.00065019185 0)
(0.51756563 -0.00054052486 0)
(0.51815075 -0.00042724278 0)
(0.51856408 -0.00031142875 0)
(0.51880659 -0.00019370625 0)
(0.51887594 -7.4557343e-05 0)
(0.51877884 4.5245396e-05 0)
(0.51847336 0.00017714618 0)
(0.51797109 0.00032294814 0)
(0.51728167 0.00046938944 0)
(0.51643063 0.00060670823 0)
(0.51546039 0.00072238947 0)
(0.51443539 0.00080147472 0)
(0.51344964 0.00082902142 0)
(0.51262376 0.00078367732 0)
(0.51212762 0.00065755189 0)
(0.51215243 0.00038392969 0)
(0.5129677 -5.6607816e-05 0)
(0.51459485 -0.00057814637 0)
(0.517079 -0.0011415155 0)
(0.5205507 -0.0017371769 0)
(0.52510623 -0.0023662648 0)
(0.53083244 -0.0030355656 0)
(0.5378078 -0.0037547109 0)
(0.54610709 -0.0045425988 0)
(0.55582176 -0.0054230112 0)
(0.56704504 -0.0064322805 0)
(0.57990723 -0.007610948 0)
(0.5945298 -0.0090186864 0)
(0.61109342 -0.010715929 0)
(0.6297303 -0.012793956 0)
(0.65066761 -0.015331119 0)
(0.6739879 -0.018453167 0)
(0.69994579 -0.022230639 0)
(0.72843553 -0.026806768 0)
(0.75971571 -0.032166762 0)
(0.79319826 -0.038433444 0)
(0.82917518 -0.045348591 0)
(0.86593355 -0.053017386 0)
(0.90410384 -0.060616021 0)
(0.93930141 -0.068535801 0)
(0.97386935 -0.074218508 0)
(0.99688606 -0.080411511 0)
(1.0165981 -0.074771261 0)
(1.0120312 -0.080168781 0)
(0.69365334 -7.7304778e-05 0)
(0.69375544 -2.8169507e-05 0)
(0.69376713 -2.9398953e-05 0)
(0.69383979 -1.5063289e-05 0)
(0.69385941 -9.2877092e-06 0)
(0.69391272 -3.9558862e-06 0)
(0.69393608 2.3760087e-06 0)
(0.69397833 6.0803264e-06 0)
(0.69400492 1.1968217e-05 0)
(0.69404231 1.5541329e-05 0)
(0.69407212 2.0652114e-05 0)
(0.69410852 2.4175806e-05 0)
(0.69414215 2.8579832e-05 0)
(0.69418047 3.2017553e-05 0)
(0.69421888 3.5869694e-05 0)
(0.69426145 3.9063585e-05 0)
(0.69430621 4.231349e-05 0)
(0.69435558 4.5011195e-05 0)
(0.69440898 4.7490204e-05 0)
(0.69446812 4.9383525e-05 0)
(0.69453323 5.0808117e-05 0)
(0.69460576 5.1510976e-05 0)
(0.69468651 5.1510138e-05 0)
(0.69477683 5.0619138e-05 0)
(0.69487777 4.8720679e-05 0)
(0.69499083 4.5584151e-05 0)
(0.69511747 4.1020666e-05 0)
(0.6952594 3.4766789e-05 0)
(0.69541837 2.6554575e-05 0)
(0.69559635 1.6062993e-05 0)
(0.69579538 2.9403273e-06 0)
(0.6960176 -1.3184457e-05 0)
(0.69626537 -3.2716525e-05 0)
(0.69654111 -5.5860011e-05 0)
(0.69684809 -8.2570695e-05 0)
(0.69719107 -0.00011332254 0)
(0.69757393 -0.00014881053 0)
(0.69800086 -0.00018954083 0)
(0.6984762 -0.00023603027 0)
(0.69900438 -0.00028869011 0)
(0.69959019 -0.00034828185 0)
(0.70023922 -0.00041524037 0)
(0.70095678 -0.0004895797 0)
(0.70174812 -0.00057159047 0)
(0.70261855 -0.00066146328 0)
(0.70357327 -0.00075929056 0)
(0.70461729 -0.00086504067 0)
(0.70575535 -0.0009785339 0)
(0.70699174 -0.0010994292 0)
(0.70833021 -0.0012272067 0)
(0.70977378 -0.0013611545 0)
(0.71132465 -0.0015003588 0)
(0.71298401 -0.0016436983 0)
(0.7147519 -0.0017898431 0)
(0.71662708 -0.00193726 0)
(0.71860689 -0.0020842241 0)
(0.72068718 -0.0022288362 0)
(0.72286217 -0.0023690484 0)
(0.72512446 -0.0025026961 0)
(0.72746495 -0.0026275363 0)
(0.72987289 -0.0027412932 0)
(0.73233593 -0.0028417098 0)
(0.73484022 -0.0029266028 0)
(0.73737059 -0.0029939231 0)
(0.73991071 -0.0030418158 0)
(0.74244339 -0.0030686825 0)
(0.7449508 -0.0030732377 0)
(0.74741488 -0.0030545618 0)
(0.74981765 -0.003012142 0)
(0.75214156 -0.0029459011 0)
(0.75436992 -0.0028562064 0)
(0.75648721 -0.0027438606 0)
(0.7584794 -0.0026100658 0)
(0.7603342 -0.0024563685 0)
(0.76204118 -0.0022845838 0)
(0.76359192 -0.0020967066 0)
(0.76497986 -0.0018948266 0)
(0.76620025 -0.0016810328 0)
(0.76724988 -0.0014573756 0)
(0.76812691 -0.0012257616 0)
(0.76883043 -0.00098805861 0)
(0.76936063 -0.00074580255 0)
(0.76971814 -0.00050073004 0)
(0.76990523 -0.00025285087 0)
(0.7699235 -3.5077164e-06 0)
(0.76978095 0.00026095278 0)
(0.76947083 0.00053976849 0)
(0.76903059 0.00081227505 0)
(0.76849557 0.0010630901 0)
(0.76791737 0.0012679947 0)
(0.76736397 0.0013979281 0)
(0.76692556 0.0014173539 0)
(0.76671135 0.0012840398 0)
(0.7668588 0.00095675322 0)
(0.76750029 0.00037685764 0)
(0.76880408 -0.00045977131 0)
(0.77069565 -0.0014629298 0)
(0.77332493 -0.0025933102 0)
(0.77681688 -0.003866219 0)
(0.78128474 -0.0052675359 0)
(0.78681535 -0.0067713971 0)
(0.79346502 -0.0083662505 0)
(0.8012741 -0.010051556 0)
(0.81026256 -0.011840682 0)
(0.82044494 -0.013755214 0)
(0.83181874 -0.015830218 0)
(0.84438556 -0.018103994 0)
(0.85812007 -0.02063113 0)
(0.87300933 -0.02346168 0)
(0.88898113 -0.02666965 0)
(0.90598909 -0.030306515 0)
(0.92385554 -0.034460602 0)
(0.94246877 -0.039150835 0)
(0.96143735 -0.04445534 0)
(0.98056348 -0.050270754 0)
(0.99905453 -0.056615611 0)
(1.0166939 -0.063072168 0)
(1.0319381 -0.069577565 0)
(1.0449174 -0.074975864 0)
(1.0525738 -0.079377409 0)
(1.056554 -0.079558434 0)
(1.0507377 -0.077510553 0)
(1.0403442 -0.062578721 0)
(1.0190176 -0.047402959 0)
(0.85292078 -0.00012257573 0)
(0.85305379 -7.02671e-05 0)
(0.85309428 -7.2281231e-05 0)
(0.85320081 -5.5245016e-05 0)
(0.85326103 -4.9539004e-05 0)
(0.85335565 -4.2452277e-05 0)
(0.85342797 -3.6499299e-05 0)
(0.85351983 -3.2879697e-05 0)
(0.8536026 -2.8339203e-05 0)
(0.853698 -2.6068963e-05 0)
(0.85379167 -2.2977079e-05 0)
(0.85389501 -2.1643888e-05 0)
(0.85400098 -1.997487e-05 0)
(0.85411593 -1.9596184e-05 0)
(0.85423674 -1.9321577e-05 0)
(0.8543671 -2.0145176e-05 0)
(0.8545059 -2.1465109e-05 0)
(0.85465554 -2.3880915e-05 0)
(0.85481601 -2.7140548e-05 0)
(0.85498909 -3.1640833e-05 0)
(0.85517544 -3.733978e-05 0)
(0.85537663 -4.454608e-05 0)
(0.85559369 -5.3320975e-05 0)
(0.85582833 -6.3919769e-05 0)
(0.85608207 -7.654018e-05 0)
(0.85635673 -9.148977e-05 0)
(0.85665411 -0.00010903867 0)
(0.85697627 -0.00012952616 0)
(0.85732532 -0.00015329005 0)
(0.8577036 -0.00018071238 0)
(0.85811355 -0.00021218551 0)
(0.85855783 -0.00024813767 0)
(0.85903923 -0.00028901521 0)
(0.85956073 -0.00033547053 0)
(0.86012581 -0.00038836883 0)
(0.86073806 -0.00044829232 0)
(0.86140111 -0.00051569723 0)
(0.86211873 -0.00059126663 0)
(0.86289479 -0.00067562979 0)
(0.86373333 -0.00076942601 0)
(0.86463835 -0.00087297215 0)
(0.86561373 -0.00098657284 0)
(0.8666635 -0.00111066 0)
(0.86779164 -0.0012454518 0)
(0.86900186 -0.0013910723 0)
(0.87029765 -0.0015474471 0)
(0.87168209 -0.0017143164 0)
(0.87315778 -0.0018911932 0)
(0.87472677 -0.0020773485 0)
(0.87639038 -0.0022717884 0)
(0.87814914 -0.0024732389 0)
(0.88000262 -0.0026801359 0)
(0.88194939 -0.0028906222 0)
(0.88398682 -0.0031025515 0)
(0.88611106 -0.0033135023 0)
(0.88831693 -0.0035208011 0)
(0.89059789 -0.0037215549 0)
(0.89294598 -0.0039126948 0)
(0.89535183 -0.0040910298 0)
(0.8978047 -0.0042533095 0)
(0.90029255 -0.0043962964 0)
(0.90280217 -0.0045168465 0)
(0.90531931 -0.0046119948 0)
(0.90782891 -0.004679046 0)
(0.91031534 -0.0047156649 0)
(0.91276268 -0.0047199662 0)
(0.91515509 -0.0046905947 0)
(0.91747711 -0.0046267966 0)
(0.91971405 -0.0045284687 0)
(0.9218524 -0.0043961883 0)
(0.9238801 -0.004231205 0)
(0.92578692 -0.0040354058 0)
(0.92756465 -0.0038112314 0)
(0.92920729 -0.0035615655 0)
(0.93071101 -0.0032895839 0)
(0.93207412 -0.0029985946 0)
(0.9332968 -0.0026918729 0)
(0.93438079 -0.0023725159 0)
(0.93532897 -0.0020433619 0)
(0.936145 -0.0017069085 0)
(0.93683287 -0.0013654496 0)
(0.93739683 -0.0010209696 0)
(0.93784151 -0.00067579575 0)
(0.938172 -0.00033152846 0)
(0.9383982 8.2033973e-06 0)
(0.93852908 0.0003474047 0)
(0.93861318 0.00067800666 0)
(0.93867115 0.00097447154 0)
(0.93874181 0.0012133949 0)
(0.93886998 0.0013635196 0)
(0.93911014 0.0013867103 0)
(0.93952154 0.0012395671 0)
(0.94017043 0.00087826054 0)
(0.94110763 0.00025849913 0)
(0.94239455 -0.00063102338 0)
(0.94396304 -0.0017420451 0)
(0.94593302 -0.0030794943 0)
(0.94840334 -0.0046661373 0)
(0.951463 -0.0064597168 0)
(0.95516032 -0.0084180787 0)
(0.95953538 -0.010506506 0)
(0.96461114 -0.012699708 0)
(0.97039296 -0.014983999 0)
(0.97686583 -0.017359965 0)
(0.98400073 -0.019838297 0)
(0.99174682 -0.022444014 0)
(1.0000452 -0.025206447 0)
(1.008807 -0.028169281 0)
(1.0179409 -0.031370355 0)
(1.0273014 -0.034864366 0)
(1.0367497 -0.038679099 0)
(1.0460403 -0.042864577 0)
(1.054966 -0.047395662 0)
(1.0631081 -0.052284266 0)
(1.0701948 -0.057362566 0)
(1.07553 -0.062562713 0)
(1.0788918 -0.067412663 0)
(1.0791564 -0.071793903 0)
(1.0765587 -0.074611989 0)
(1.0693135 -0.076060808 0)
(1.0590606 -0.073450483 0)
(1.0434696 -0.068820152 0)
(1.0261546 -0.054134253 0)
(1.0099682 -0.03778606 0)
(0.94754292 -0.00018090967 0)
(0.94770925 -0.00013177627 0)
(0.94777383 -0.00013612417 0)
(0.94791431 -0.00011989674 0)
(0.94801047 -0.00011706506 0)
(0.94814522 -0.00011188206 0)
(0.94826222 -0.00010933103 0)
(0.94840179 -0.00010853451 0)
(0.94853696 -0.00010792505 0)
(0.94868805 -0.00010957043 0)
(0.94884224 -0.00011126575 0)
(0.94901011 -0.00011495538 0)
(0.94918579 -0.0001190842 0)
(0.94937509 -0.0001250208 0)
(0.94957566 -0.00013183342 0)
(0.94979101 -0.00014037436 0)
(0.95002063 -0.00015017232 0)
(0.95026693 -0.00016178462 0)
(0.95053038 -0.00017504262 0)
(0.95081294 -0.00019034968 0)
(0.95111566 -0.0002077333 0)
(0.95144037 -0.00022753976 0)
(0.95178852 -0.00024996156 0)
(0.95216199 -0.00027536854 0)
(0.95256253 -0.00030402718 0)
(0.95299216 -0.00033632045 0)
(0.95345288 -0.00037262204 0)
(0.9539469 -0.0004133834 0)
(0.95447648 -0.00045907361 0)
(0.95504404 -0.00051021606 0)
(0.9556521 -0.00056736576 0)
(0.95630329 -0.00063110033 0)
(0.95700042 -0.00070202401 0)
(0.95774636 -0.00078069285 0)
(0.95854394 -0.00086765356 0)
(0.95939602 -0.00096359158 0)
(0.9603056 -0.001069208 0)
(0.96127569 -0.0011851941 0)
(0.96230924 -0.001312209 0)
(0.9634091 -0.0014508383 0)
(0.96457801 -0.0016016556 0)
(0.96581869 -0.0017650281 0)
(0.9671336 -0.0019411004 0)
(0.96852493 -0.0021299442 0)
(0.9699945 -0.0023314304 0)
(0.9715437 -0.0025452181 0)
(0.97317345 -0.0027707102 0)
(0.97488407 -0.003007024 0)
(0.97667521 -0.0032529652 0)
(0.97854578 -0.0035070066 0)
(0.98049386 -0.0037672726 0)
(0.9825166 -0.0040315327 0)
(0.98461021 -0.0042972036 0)
(0.98676982 -0.004561361 0)
(0.98898953 -0.0048207641 0)
(0.99126228 -0.0050718921 0)
(0.99357995 -0.0053109933 0)
(0.9959333 -0.0055341473 0)
(0.99831208 -0.0057373409 0)
(1.0007051 -0.0059165556 0)
(1.0031002 -0.0060678661 0)
(1.0054849 -0.0061875495 0)
(1.0078458 -0.0062721993 0)
(1.0101696 -0.0063188463 0)
(1.0124429 -0.006325075 0)
(1.0146527 -0.0062891393 0)
(1.0167867 -0.0062100597 0)
(1.0188338 -0.0060877073 0)
(1.020784 -0.0059228513 0)
(1.0226293 -0.0057171775 0)
(1.0243637 -0.0054732489 0)
(1.0259835 -0.0051944272 0)
(1.0274873 -0.0048847219 0)
(1.0288763 -0.0045486048 0)
(1.0301538 -0.0041907649 0)
(1.0313254 -0.0038158626 0)
(1.0323979 -0.0034282732 0)
(1.0333797 -0.0030318915 0)
(1.0342793 -0.0026300123 0)
(1.0351052 -0.0022253036 0)
(1.0358653 -0.0018199932 0)
(1.0365666 -0.0014160535 0)
(1.0372154 -0.0010158602 0)
(1.0378171 -0.00062260036 0)
(1.0383804 -0.00024117128 0)
(1.0389122 0.0001176007 0)
(1.0394458 0.00044482148 0)
(1.0399988 0.00072548632 0)
(1.0405873 0.00092908403 0)
(1.0412315 0.0010204541 0)
(1.0419512 0.00096077435 0)
(1.042766 0.00070794295 0)
(1.0436853 0.0002214272 0)
(1.0447225 -0.00052624075 0)
(1.0458394 -0.0015321535 0)
(1.0471003 -0.0028253144 0)
(1.0485582 -0.0044200022 0)
(1.0502442 -0.0062773807 0)
(1.0521739 -0.0083650023 0)
(1.0543696 -0.010640347 0)
(1.0568463 -0.013059576 0)
(1.0596087 -0.015587889 0)
(1.0626513 -0.018200154 0)
(1.0659523 -0.02088563 0)
(1.0694785 -0.023643626 0)
(1.0731767 -0.026486893 0)
(1.0769835 -0.02943201 0)
(1.0808084 -0.032506801 0)
(1.0845546 -0.035731722 0)
(1.0880799 -0.039137931 0)
(1.0912459 -0.042728511 0)
(1.0938332 -0.046520004 0)
(1.0956596 -0.050457546 0)
(1.0963941 -0.054513584 0)
(1.0958487 -0.058497659 0)
(1.0935468 -0.062308715 0)
(1.0894411 -0.065483391 0)
(1.0828693 -0.067887419 0)
(1.0742751 -0.068516911 0)
(1.0627356 -0.067526457 0)
(1.0497302 -0.062678316 0)
(1.0343334 -0.055563089 0)
(1.0187162 -0.041045416 0)
(1.0063655 -0.024402089 0)
(0.99708331 -0.00025104142 0)
(0.9972795 -0.00021057999 0)
(0.99736244 -0.00021851499 0)
(0.99753197 -0.00020636805 0)
(0.99765666 -0.0002081819 0)
(0.99782455 -0.00020705586 0)
(0.99797714 -0.00020994674 0)
(0.99815552 -0.00021447288 0)
(0.99833294 -0.00022041099 0)
(0.99852946 -0.0002288258 0)
(0.99873286 -0.00023829676 0)
(0.99895343 -0.00025025105 0)
(0.99918587 -0.00026353374 0)
(0.99943587 -0.00027923857 0)
(0.99970151 -0.00029667807 0)
(0.99998629 -0.00031661239 0)
(1.0002901 -0.0003387319 0)
(1.0006153 -0.00036357434 0)
(1.0009628 -0.00039108607 0)
(1.0013347 -0.00042169116 0)
(1.0017323 -0.00045550667 0)
(1.0021575 -0.00049291547 0)
(1.0026121 -0.00053414994 0)
(1.0030981 -0.00057960536 0)
(1.0036173 -0.00062962236 0)
(1.0041719 -0.00068463662 0)
(1.004764 -0.00074507232 0)
(1.0053958 -0.00081141827 0)
(1.0060696 -0.00088417445 0)
(1.0067878 -0.00096388716 0)
(1.0075527 -0.0010511228 0)
(1.0083667 -0.0011464918 0)
(1.0092323 -0.0012506245 0)
(1.0101519 -0.0013642352 0)
(1.011128 -0.0014880639 0)
(1.012163 -0.0016227637 0)
(1.0132594 -0.0017689483 0)
(1.0144192 -0.0019272403 0)
(1.0156446 -0.0020981845 0)
(1.0169374 -0.0022822481 0)
(1.0182992 -0.0024797109 0)
(1.0197314 -0.0026907305 0)
(1.0212349 -0.0029153407 0)
(1.0228104 -0.0031533532 0)
(1.024458 -0.0034043622 0)
(1.0261774 -0.0036676814 0)
(1.0279678 -0.0039423271 0)
(1.0298276 -0.0042269805 0)
(1.0317545 -0.0045199679 0)
(1.0337455 -0.00481924 0)
(1.0357968 -0.0051223613 0)
(1.0379039 -0.0054265086 0)
(1.0400611 -0.0057284804 0)
(1.0422622 -0.0060247181 0)
(1.0444998 -0.0063113418 0)
(1.0467659 -0.0065841995 0)
(1.0490513 -0.0068389319 0)
(1.0513464 -0.007071053 0)
(1.0536407 -0.007276045 0)
(1.0559232 -0.0074494682 0)
(1.0581825 -0.0075870821 0)
(1.0604068 -0.0076849802 0)
(1.0625846 -0.0077397273 0)
(1.0647043 -0.0077485053 0)
(1.0667552 -0.0077092503 0)
(1.068727 -0.0076207853 0)
(1.070611 -0.0074829269 0)
(1.0723997 -0.007296571 0)
(1.0740876 -0.0070637262 0)
(1.0756711 -0.0067875074 0)
(1.0771491 -0.0064720499 0)
(1.0785228 -0.0061223713 0)
(1.0797959 -0.0057441378 0)
(1.0809747 -0.0053433905 0)
(1.0820673 -0.0049261924 0)
(1.0830835 -0.0044982888 0)
(1.0840344 -0.0040647514 0)
(1.0849315 -0.0036297329 0)
(1.085786 -0.0031963094 0)
(1.0866082 -0.0027665239 0)
(1.0874068 -0.0023416406 0)
(1.0881884 -0.0019225976 0)
(1.0889579 -0.0015107785 0)
(1.0897181 -0.0011090211 0)
(1.0904713 -0.00072247841 0)
(1.0912192 -0.00036345814 0)
(1.0919614 -4.6067155e-05 0)
(1.0927081 0.00021431164 0)
(1.0934677 0.00039255871 0)
(1.0942398 0.00045555535 0)
(1.0950243 0.00036564564 0)
(1.0958165 8.4817077e-05 0)
(1.0966103 -0.0004219965 0)
(1.0973847 -0.0011772604 0)
(1.0981568 -0.0022149426 0)
(1.098937 -0.0035519104 0)
(1.0997181 -0.0051789386 0)
(1.1004935 -0.007080713 0)
(1.1012652 -0.0092169363 0)
(1.1020313 -0.011542372 0)
(1.1027932 -0.01401181 0)
(1.1035495 -0.016585598 0)
(1.1042943 -0.019232969 0)
(1.1050129 -0.021935184 0)
(1.1056819 -0.024683198 0)
(1.106263 -0.027480156 0)
(1.1067092 -0.030333278 0)
(1.1069511 -0.033259235 0)
(1.1069143 -0.036267794 0)
(1.106489 -0.039375792 0)
(1.1055714 -0.04257363 0)
(1.1039982 -0.045859546 0)
(1.1016453 -0.049167569 0)
(1.0982813 -0.052453232 0)
(1.0938088 -0.055532353 0)
(1.0879208 -0.058305676 0)
(1.0806768 -0.060370973 0)
(1.0716924 -0.061636004 0)
(1.0614435 -0.061285844 0)
(1.0494887 -0.059513936 0)
(1.0370145 -0.054584996 0)
(1.0239689 -0.047716655 0)
(1.011654 -0.035222298 0)
(1.0034073 -0.02018588 0)
(1.0201671 -0.00033164463 0)
(1.0203868 -0.00030263477 0)
(1.0204814 -0.00031473175 0)
(1.0206722 -0.00030900784 0)
(1.020816 -0.00031694586 0)
(1.0210074 -0.00032215391 0)
(1.0211847 -0.00033225833 0)
(1.0213905 -0.00034407532 0)
(1.0215975 -0.00035830748 0)
(1.0218259 -0.00037536412 0)
(1.0220637 -0.00039445146 0)
(1.0223212 -0.00041659615 0)
(1.0225934 -0.00044102773 0)
(1.0228858 -0.00046864603 0)
(1.0231969 -0.00049898902 0)
(1.0235301 -0.00053272499 0)
(1.0238856 -0.00056967577 0)
(1.0242659 -0.00061035441 0)
(1.024672 -0.00065479488 0)
(1.025106 -0.00070343437 0)
(1.0255694 -0.00075646026 0)
(1.0260642 -0.00081429484 0)
(1.0265923 -0.00087724713 0)
(1.0271557 -0.00094576107 0)
(1.0277565 -0.0010202306 0)
(1.0283966 -0.0011011382 0)
(1.0290784 -0.0011889612 0)
(1.0298039 -0.0012842356 0)
(1.0305755 -0.0013875095 0)
(1.0313953 -0.0014993673 0)
(1.0322656 -0.0016204072 0)
(1.0331888 -0.001751238 0)
(1.0341669 -0.0018924717 0)
(1.0352022 -0.0020446996 0)
(1.0362966 -0.0022085073 0)
(1.0374522 -0.0023844944 0)
(1.0386707 -0.0025732121 0)
(1.0399537 -0.0027751671 0)
(1.0413025 -0.0029907735 0)
(1.0427182 -0.0032203321 0)
(1.0442017 -0.0034640041 0)
(1.0457532 -0.0037217446 0)
(1.0473729 -0.003993277 0)
(1.0490604 -0.0042781076 0)
(1.0508145 -0.0045754664 0)
(1.0526339 -0.0048842836 0)
(1.0545165 -0.0052031527 0)
(1.0564594 -0.005530303 0)
(1.0584592 -0.0058635778 0)
(1.0605117 -0.006200419 0)
(1.0626121 -0.0065378612 0)
(1.0647546 -0.0068725366 0)
(1.0669328 -0.0072006927 0)
(1.0691395 -0.007518223 0)
(1.0713667 -0.0078207137 0)
(1.0736059 -0.0081035065 0)
(1.0758476 -0.0083617778 0)
(1.0780821 -0.0085906363 0)
(1.0802992 -0.0087852354 0)
(1.0824881 -0.0089409038 0)
(1.0846382 -0.0090532874 0)
(1.0867387 -0.0091185049 0)
(1.0887791 -0.0091333071 0)
(1.0907495 -0.0090952423 0)
(1.0926406 -0.0090028083 0)
(1.0944443 -0.0088555984 0)
(1.0961537 -0.0086544088 0)
(1.0977636 -0.0084013189 0)
(1.0992707 -0.0080997019 0)
(1.1006737 -0.0077541848 0)
(1.1019737 -0.0073705057 0)
(1.103174 -0.0069553098 0)
(1.1042803 -0.0065158246 0)
(1.1053001 -0.0060594966 0)
(1.1062429 -0.00559353 0)
(1.1071194 -0.0051244636 0)
(1.1079411 -0.0046577247 0)
(1.1087194 -0.0041973517 0)
(1.1094652 -0.0037458077 0)
(1.110188 -0.0033040941 0)
(1.1108956 -0.0028720589 0)
(1.1115934 -0.0024490682 0)
(1.1122846 -0.0020348701 0)
(1.1129701 -0.0016309184 0)
(1.1136492 -0.0012413511 0)
(1.1143193 -0.00087562189 0)
(1.1149746 -0.00054853704 0)
(1.1156111 -0.00027970618 0)
(1.1162245 -9.288326e-05 0)
(1.116812 -1.8271705e-05 0)
(1.1173659 -9.1679578e-05 0)
(1.117876 -0.00034996408 0)
(1.1183291 -0.00082653923 0)
(1.1187181 -0.0015578156 0)
(1.1190329 -0.0025671036 0)
(1.1192537 -0.0038665635 0)
(1.1193611 -0.0054542449 0)
(1.1193365 -0.007304166 0)
(1.1191638 -0.0093831597 0)
(1.118835 -0.011649693 0)
(1.1183466 -0.014059733 0)
(1.1176971 -0.01657357 0)
(1.116886 -0.019157629 0)
(1.1159081 -0.021788735 0)
(1.1147541 -0.024451714 0)
(1.1134039 -0.027141813 0)
(1.1118314 -0.029857557 0)
(1.1099928 -0.032604921 0)
(1.1078406 -0.035383173 0)
(1.1053 -0.03819615 0)
(1.1023034 -0.041023732 0)
(1.0987385 -0.043850801 0)
(1.0945312 -0.046606057 0)
(1.0895281 -0.049236231 0)
(1.0836941 -0.051567656 0)
(1.076837 -0.053501958 0)
(1.069062 -0.054680736 0)
(1.0601421 -0.055014445 0)
(1.0504881 -0.053810761 0)
(1.0398711 -0.05121395 0)
(1.0291236 -0.045902894 0)
(1.0184362 -0.038805241 0)
(1.0085135 -0.02773305 0)
(1.0022179 -0.014809904 0)
(1.0298276 -0.00041968308 0)
(1.0300633 -0.00040341144 0)
(1.0301636 -0.00041985884 0)
(1.0303679 -0.00042204206 0)
(1.0305224 -0.00043673006 0)
(1.0307279 -0.00044946373 0)
(1.0309193 -0.0004676895 0)
(1.0311412 -0.00048806951 0)
(1.0313654 -0.00051181503 0)
(1.0316126 -0.00053893151 0)
(1.0318707 -0.00056906583 0)
(1.0321499 -0.00060296651 0)
(1.0324455 -0.00064014742 0)
(1.032763 -0.00068135664 0)
(1.0331009 -0.00072631196 0)
(1.0334627 -0.00077562754 0)
(1.0338488 -0.00082924832 0)
(1.0342615 -0.00088768222 0)
(1.034702 -0.0009510512 0)
(1.0351726 -0.0010198107 0)
(1.0356747 -0.0010942121 0)
(1.0362104 -0.0011747009 0)
(1.0367817 -0.0012616265 0)
(1.0373905 -0.0013554566 0)
(1.0380389 -0.0014566205 0)
(1.0387291 -0.0015656193 0)
(1.0394631 -0.001682946 0)
(1.0402432 -0.0018091383 0)
(1.0410714 -0.0019447384 0)
(1.04195 -0.0020903141 0)
(1.0428811 -0.0022464381 0)
(1.0438668 -0.0024136959 0)
(1.044909 -0.002592666 0)
(1.0460098 -0.002783933 0)
(1.0471709 -0.0029880444 0)
(1.048394 -0.003205482 0)
(1.0496805 -0.0034366543 0)
(1.0510317 -0.0036818917 0)
(1.0524485 -0.0039414001 0)
(1.0539315 -0.0042152447 0)
(1.055481 -0.004503294 0)
(1.0570968 -0.00480522 0)
(1.0587784 -0.0051204649 0)
(1.0605247 -0.0054482004 0)
(1.0623342 -0.0057873016 0)
(1.0642046 -0.0061363072 0)
(1.0661333 -0.0064933955 0)
(1.0681169 -0.0068563571 0)
(1.0701512 -0.0072225792 0)
(1.0722317 -0.0075890341 0)
(1.0743527 -0.0079522804 0)
(1.0765083 -0.0083084743 0)
(1.0786915 -0.0086533948 0)
(1.0808949 -0.0089824843 0)
(1.0831102 -0.0092909053 0)
(1.0853287 -0.0095736147 0)
(1.0875412 -0.0098254557 0)
(1.0897379 -0.01004127 0)
(1.0919088 -0.010216025 0)
(1.0940435 -0.010344963 0)
(1.0961317 -0.010423755 0)
(1.0981632 -0.01044868 0)
(1.1001281 -0.010416796 0)
(1.1020171 -0.010326119 0)
(1.1038215 -0.01017579 0)
(1.1055337 -0.0099662212 0)
(1.1071474 -0.0096992012 0)
(1.1086579 -0.0093779657 0)
(1.1100621 -0.0090071795 0)
(1.1113586 -0.0085928621 0)
(1.1125484 -0.0081421885 0)
(1.1136341 -0.0076632252 0)
(1.1146206 -0.0071645225 0)
(1.1155142 -0.0066546764 0)
(1.1163231 -0.0061417749 0)
(1.1170562 -0.0056329126 0)
(1.1177231 -0.0051336721 0)
(1.1183337 -0.0046478369 0)
(1.1188972 -0.0041771879 0)
(1.1194219 -0.0037216996 0)
(1.1199146 -0.0032798981 0)
(1.1203805 -0.0028497292 0)
(1.1208229 -0.0024294788 0)
(1.1212433 -0.0020193597 0)
(1.1216418 -0.0016224287 0)
(1.1220168 -0.0012471606 0)
(1.1223646 -0.00090653459 0)
(1.1226802 -0.00061820498 0)
(1.122958 -0.00040739227 0)
(1.1231921 -0.0003045301 0)
(1.1233739 -0.00034267352 0)
(1.1234922 -0.00055679536 0)
(1.1235347 -0.00098176241 0)
(1.1234851 -0.0016457077 0)
(1.1233217 -0.002571722 0)
(1.1230209 -0.0037705197 0)
(1.1225564 -0.0052363615 0)
(1.1219049 -0.0069525524 0)
(1.1210501 -0.0088878693 0)
(1.1199804 -0.011004585 0)
(1.1186917 -0.013262443 0)
(1.1171836 -0.015623402 0)
(1.1154591 -0.01805449 0)
(1.1135197 -0.020530698 0)
(1.1113653 -0.023033842 0)
(1.108988 -0.025554362 0)
(1.1063753 -0.028085582 0)
(1.1035012 -0.030626871 0)
(1.1003368 -0.033171613 0)
(1.0968313 -0.035716228 0)
(1.0929409 -0.038235925 0)
(1.0885866 -0.040709053 0)
(1.0837229 -0.043065431 0)
(1.0782423 -0.045250461 0)
(1.0721355 -0.047108113 0)
(1.065273 -0.048550274 0)
(1.0577608 -0.049273471 0)
(1.0494649 -0.049206617 0)
(1.0407253 -0.047790726 0)
(1.0314769 -0.045140241 0)
(1.0223453 -0.040247771 0)
(1.0137211 -0.033747723 0)
(1.0060273 -0.024149887 0)
(1.0014105 -0.012704304 0)
(1.0334868 -0.0005125545 0)
(1.0337316 -0.00050872951 0)
(1.0338335 -0.00052957168 0)
(1.0340448 -0.00054037663 0)
(1.0342035 -0.00056216868 0)
(1.0344159 -0.00058327197 0)
(1.0346136 -0.000610152 0)
(1.0348431 -0.00063982244 0)
(1.0350753 -0.00067362844 0)
(1.0353314 -0.0007114423 0)
(1.035599 -0.00075318747 0)
(1.0358886 -0.0007994579 0)
(1.0361953 -0.00084998826 0)
(1.0365247 -0.00090543733 0)
(1.0368754 -0.00096567607 0)
(1.0372509 -0.0010312817 0)
(1.0376515 -0.0011023013 0)
(1.0380797 -0.0011792418 0)
(1.0385367 -0.0012622988 0)
(1.0390246 -0.0013519476 0)
(1.0395452 -0.0014484986 0)
(1.0401003 -0.0015524285 0)
(1.040692 -0.0016641365 0)
(1.0413224 -0.0017841197 0)
(1.0419933 -0.0019128431 0)
(1.042707 -0.0020508311 0)
(1.0434656 -0.0021985999 0)
(1.0442711 -0.0023566985 0)
(1.0451258 -0.0025256733 0)
(1.0460318 -0.0027060807 0)
(1.046991 -0.0028984674 0)
(1.0480056 -0.003103365 0)
(1.0490774 -0.0033212785 0)
(1.0502083 -0.003552673 0)