/*--------------------------------*- C++ -*----------------------------------*\
| =========                 |                                                 |
| \\      /  F ield         | foam-extend: Open Source CFD                    |
|  \\    /   O peration     | Version:     4.1                                |
|   \\  /    A nd           | Web:         http://www.foam-extend.org         |
|    \\/     M anipulation  |                                                 |
\*---------------------------------------------------------------------------*/
FoamFile
{
    version     2.0;
    format      ascii;
    class       surfaceScalarField;
    location    "2.95";
    object      phi;
}
// * * * * * * * * * * * * * * * * * * * * * * * * * * * * * * * * * * * * * //

dimensions      [0 3 -1 0 0 0 0];

internalField   nonuniform List<scalar> 
8438
(
-0.59744044
0.0016735535
-0.5991793
0.0017388565
-0.60095307
0.0017737754
-0.60277077
0.0018176984
-0.60464215
0.0018713801
-0.60657765
0.0019354974
-0.60858667
0.0020090188
-0.61067682
0.002090153
-0.61285322
0.0021764021
-0.6151178
0.0022645741
-0.61746858
0.0023507794
-0.61989904
0.0024304655
-0.62239756
0.0024985207
-0.62494703
0.0025494649
-0.62752476
0.0025777276
-0.63010277
0.0025780111
-0.63264836
0.0025455903
-0.63512497
0.0024766126
-0.6374932
0.0023682274
-0.63971177
0.0022185774
-0.6417385
0.0020267232
-0.64353105
0.0017925509
-0.6450478
0.0015167542
-0.64624876
0.0012009541
-0.64709677
0.00084801209
-0.64755931
0.00046254509
-0.64761062
5.1308097e-05
-0.64723331
-0.00037730926
-0.64642239
-0.00081091755
-0.64518935
-0.001233048
-0.64356305
-0.0016262928
-0.64158957
-0.001973483
-0.63932997
-0.0022595992
-0.6368563
-0.002473674
-0.63424629
-0.0026100038
-0.6315779
-0.0026683907
-0.62892442
-0.002653484
-0.62635089
-0.0025735323
-0.62391197
-0.0024389138
-0.62165122
-0.0022607571
-0.61960137
-0.0020498419
-0.61778553
-0.001815845
-0.61621862
-0.0015669063
-0.61490908
-0.0013095388
-0.61385998
-0.0010491
-0.61306953
-0.00079045779
-0.61253402
-0.00053550961
-0.6122586
-0.00027541857
-1.3648026e-05
-0.61123264
0.0031392962
-0.61269178
0.0031979895
-0.61417807
0.0032600701
-0.61570479
0.0033444181
-0.61728439
0.0034509744
-0.61892806
0.0035791721
-0.62064566
0.0037266223
-0.62244516
0.0038896485
-0.624332
0.0040632438
-0.62630845
0.0042410237
-0.62837286
0.0044151937
-0.630519
0.0045766041
-0.63273543
0.0047149492
-0.63500512
0.0048191491
-0.6373053
0.0048779158
-0.63960779
0.0048805017
-0.64187954
0.0048173323
-0.64408355
0.0046806257
-0.64617998
0.0044646564
-0.64812712
0.0041657237
-0.64988237
0.0037819705
-0.65140299
0.0033131651
-0.65264687
0.0027606414
-0.65357345
0.0021275322
-0.65414483
0.0014193868
-0.65432746
0.00064517736
-0.65409464
-0.00018150599
-0.65343054
-0.0010414115
-0.65233202
-0.0019094402
-0.65081
-0.0027550641
-0.64889255
-0.0035437454
-0.6466254
-0.0042406322
-0.64406996
-0.0048150369
-0.6412991
-0.0052445348
-0.63839158
-0.0055175245
-0.63542626
-0.0056337098
-0.63247706
-0.0056026873
-0.62960927
-0.0054413274
-0.62687745
-0.0051707284
-0.62432482
-0.0048133912
-0.62198367
-0.0043909935
-0.61987663
-0.0039228843
-0.61801828
-0.0034252543
-0.61641682
-0.0029109975
-0.61507556
-0.0023903563
-0.61399476
-0.0018712623
-0.6131739
-0.0013563652
-0.61260473
-0.00084459525
-0.000373574
-0.61227817
0.0045549032
-0.61369205
0.0046118708
-0.61513077
0.0046987899
-0.61660928
0.0048229332
-0.61814089
0.0049825841
-0.6197374
0.00517568
-0.62140914
0.0053983631
-0.62316458
0.0056450851
-0.62500973
0.0059083901
-0.62694746
0.0061787615
-0.6289768
0.0064445293
-0.63109212
0.0066919219
-0.63328251
0.0069053426
-0.6355313
0.0070679379
-0.63781585
0.0071624717
-0.64010785
0.007172502
-0.64237393
0.0070834063
-0.64457667
0.0068833627
-0.64667576
0.006563755
-0.64862912
0.0061190823
-0.65039376
0.0055466074
-0.65192654
0.004845943
-0.65318479
0.0040188955
-0.65412705
0.003069785
-0.65471404
0.0020063861
-0.65491038
0.00084151677
-0.65468692
-0.00040497093
-0.65402359
-0.0017047452
-0.65291293
-0.0030200926
-0.6513639
-0.0043040919
-0.6494044
-0.0055032461
-0.64708189
-0.0065631505
-0.64446119
-0.0074357366
-0.64161972
-0.0080860037
-0.63864107
-0.0084961736
-0.63560841
-0.008666369
-0.6325989
-0.0086121941
-0.62967981
-0.0083604202
-0.62690645
-0.0079440877
-0.62432178
-0.0073980593
-0.62195718
-0.0067555924
-0.61983398
-0.0060460884
-0.6179653
-0.0052939342
-0.61635794
-0.0045183523
-0.61501429
-0.0037340078
-0.6139345
-0.0029510584
-0.61311683
-0.0021740354
-0.61255277
-0.0014086506
-0.00068139498
-0.61263502
0.005941126
-0.61402854
0.0060053843
-0.61544753
0.006117787
-0.61690697
0.0062823672
-0.61842061
0.0064962235
-0.62000096
0.0067560325
-0.62165913
0.0070565351
-0.62340443
0.0073903846
-0.62524379
0.0077477446
-0.62718103
0.0081160032
-0.62921609
0.008479587
-0.63134414
0.0088199789
-0.63355485
0.0091160459
-0.6358317
0.0093447896
-0.63815179
0.0094825611
-0.64048603
0.0095067462
-0.64279991
0.0093972869
-0.64505466
0.0091381087
-0.64720859
0.0087176827
-0.64921832
0.0081288167
-0.65103974
0.0073680232
-0.65262858
0.0064347914
-0.65394093
0.0053312391
-0.65493361
0.0040624719
-0.65556509
0.0026378612
-0.65579688
0.0010733076
-0.65559602
-0.00060583221
-0.65493838
-0.0023623802
-0.65381281
-0.0041456634
-0.65222569
-0.0058912161
-0.6502046
-0.0075243335
-0.64779962
-0.0089681322
-0.64508098
-0.010154375
-0.64213332
-0.011033664
-0.63904787
-0.011581621
-0.63591457
-0.01179967
-0.6328156
-0.011711165
-0.62982119
-0.011354835
-0.62698769
-0.010777588
-0.62435757
-0.010028173
-0.62196071
-0.0091524564
-0.61981635
-0.0081904478
-0.61793537
-0.0071749108
-0.61632247
-0.0061312546
-0.61497832
-0.0050781597
-0.61390148
-0.004027897
-0.61308836
-0.0029871592
-0.61253356
-0.0019634517
-0.00097000041
-0.61305953
0.0073002983
-0.61442982
0.0073756731
-0.61582655
0.0075145208
-0.61726488
0.0077206917
-0.61875905
0.0079903994
-0.62032237
0.0083193493
-0.62196688
0.0087010474
-0.62370299
0.0091264927
-0.62553883
0.0095835872
-0.62747952
0.01005669
-0.62952623
0.010526298
-0.63167524
0.010968991
-0.63391696
0.011357767
-0.63623514
0.011662966
-0.63860644
0.011853864
-0.64100068
0.011900983
-0.64338167
0.011778279
-0.6457087
0.011465142
-0.64793817
0.010947151
-0.650025
0.010215647
-0.65192364
0.0092666558
-0.6535885
0.0080996576
-0.65497417
0.0067169096
-0.65603547
0.0051237666
-0.65672792
0.0033303099
-0.657009
0.0013543959
-0.65684061
-0.00077422356
-0.65619285
-0.0030101436
-0.65504895
-0.0052895598
-0.65341126
-0.0075289051
-0.65130655
-0.0096290452
-0.64878841
-0.011486276
-0.64593479
-0.01300799
-0.64284078
-0.014127682
-0.63960858
-0.01481382
-0.6363377
-0.015070546
-0.63311726
-0.014931608
-0.63002137
-0.01445072
-0.62710755
-0.013691411
-0.6244173
-0.012718424
-0.62197816
-0.011591594
-0.61980638
-0.010362232
-0.61790967
-0.0090716239
-0.61628982
-0.0077511014
-0.61494508
-0.0064229
-0.61387185
-0.00510113
-0.61306518
-0.0037938242
-0.61252118
-0.0025074565
-0.0012463759
-0.61359673
0.0086272335
-0.61493736
0.008716301
-0.61630579
0.0088829541
-0.61771734
0.0091322385
-0.61918684
0.0094598949
-0.62072847
0.0098609807
-0.62235543
0.01032801
-0.62407949
0.010850548
-0.62591032
0.011414421
-0.62785471
0.012001078
-0.6299155
0.012587089
-0.63209046
0.013143952
-0.63437108
0.013638389
-0.63674151
0.014033398
-0.63917792
0.014290273
-0.64164865
0.014371709
-0.64411526
0.014244891
-0.64653442
0.013884303
-0.64885998
0.013272711
-0.65104472
0.01240039
-0.6530414
0.011263328
-0.65480298
0.0098612413
-0.65628243
0.0081963564
-0.65743224
0.0062735815
-0.65820442
0.0041024881
-0.65855131
0.0017012908
-0.65842804
-0.00089749306
-0.65779687
-0.0036413206
-0.65663306
-0.0064533649
-0.65493287
-0.0092291
-0.6527213
-0.011840612
-0.65005641
-0.014151161
-0.64702677
-0.01603763
-0.64374197
-0.01741249
-0.64031937
-0.018236411
-0.63687145
-0.018518475
-0.63349633
-0.018306722
-0.63027291
-0.017674143
-0.62725968
-0.016704636
-0.6244964
-0.015481708
-0.62200713
-0.014080864
-0.61980387
-0.012565493
-0.61788999
-0.010985498
-0.61626333
-0.0093777633
-0.6149187
-0.0077675325
-0.61384965
-0.0061701808
-0.61304957
-0.0045939016
-0.61251419
-0.0030428329
-0.0015156192
-0.61424975
0.0099181903
-0.61555478
0.010021329
-0.61688851
0.010216688
-0.61826697
0.010510691
-0.61970576
0.010898687
-0.62122014
0.011375359
-0.62282465
0.011932522
-0.6245327
0.0125586
-0.62635589
0.013237613
-0.62830311
0.013948294
-0.63037936
0.014663336
-0.63258439
0.015348984
-0.63491121
0.015965206
-0.6373446
0.016466797
-0.63986019
0.01680586
-0.6424244
0.016935921
-0.64499582
0.016816307
-0.64752762
0.016416099
-0.64997035
0.015715444
-0.65227418
0.014704221
-0.65438999
0.01337914
-0.65626936
0.011740613
-0.65786373
0.0097907185
-0.65912321
0.0075330616
-0.6599958
0.004975087
-0.66042767
0.002133154
-0.66036531
-0.00095985093
-0.65976054
-0.0042460906
-0.65857752
-0.0076363818
-0.65680338
-0.011003241
-0.65445972
-0.014184277
-0.65160995
-0.017000932
-0.64835693
-0.019290647
-0.64483014
-0.020939286
-0.6411675
-0.02189905
-0.63749854
-0.022187431
-0.63393282
-0.02187244
-0.63055468
-0.021052286
-0.6274231
-0.019836214
-0.62457485
-0.018329958
-0.62202905
-0.01662667
-0.61979195
-0.014802586
-0.61786131
-0.012916148
-0.61622985
-0.01100922
-0.61488808
-0.0091093037
-0.61382607
-0.0072321927
-0.61303484
-0.0053851245
-0.61250836
-0.0035693112
-0.0017790333
-0.61501302
0.011164728
-0.6162752
0.011283506
-0.61756745
0.011508937
-0.6189062
0.011849443
-0.62030792
0.012300404
-0.62178904
0.012856479
-0.62336566
0.013509148
-0.62505315
0.014246081
-0.6268654
0.015049868
-0.62881392
0.015896816
-0.63090646
0.016755876
-0.63314539
0.017587908
-0.63552577
0.01834559
-0.63803343
0.018974459
-0.6406434
0.019415831
-0.64331969
0.019612211
-0.64601692
0.019513535
-0.64868364
0.019082814
-0.65126615
0.018297961
-0.65371148
0.017149547
-0.65596857
0.01563623
-0.65798787
0.013759916
-0.65971969
0.011522536
-0.66111201
0.0089253771
-0.66210858
0.0059716633
-0.66264834
0.0026729071
-0.66266711
-0.0009410728
-0.66210312
-0.0048100813
-0.66090526
-0.0088342474
-0.65904715
-0.012861348
-0.65654414
-0.016687285
-0.65346576
-0.020079311
-0.64993404
-0.022822372
-0.64610561
-0.024767716
-0.64214609
-0.025858569
-0.63820724
-0.026126284
-0.63441259
-0.025667084
-0.63085229
-0.024612583
-0.62758468
-0.023103826
-0.62464166
-0.021272984
-0.62203532
-0.019233007
-0.61976432
-0.017073583
-0.61781917
-0.014861299
-0.61618631
-0.012642085
-0.61485101
-0.010444598
-0.6137993
-0.0082838994
-0.6130193
-0.00616513
-0.61250256
-0.0040860446
-0.0020367979
-0.61588763
0.012363447
-0.61710098
0.012496847
-0.61834485
0.012752811
-0.61963681
0.013141406
-0.62099437
0.01365796
-0.6224353
0.014297411
-0.62397748
0.015051323
-0.6256385
0.015907104
-0.62743504
0.016846411
-0.6293818
0.017843569
-0.63148996
0.018864042
-0.63376531
0.019863254
-0.63620577
0.020786052
-0.63879877
0.021567456
-0.64151884
0.022135907
-0.64432696
0.022420324
-0.64717248
0.022359059
-0.64999781
0.021908145
-0.65274377
0.021043919
-0.65535362
0.019759398
-0.65777449
0.0180571
-0.6599563
0.015941728
-0.66184904
0.013415275
-0.66339921
0.010475549
-0.66454644
0.0071188955
-0.66522154
0.0033480044
-0.66534742
-0.00081519549
-0.66484477
-0.0053127322
-0.6636417
-0.010037321
-0.66169199
-0.014811055
-0.65899997
-0.019379302
-0.65564159
-0.023437691
-0.65176465
-0.026699314
-0.64756318
-0.028969184
-0.64324015
-0.0301816
-0.63897605
-0.030390379
-0.63491116
-0.029731978
-0.63114116
-0.028382585
-0.6277217
-0.026523289
-0.62467707
-0.024317613
-0.62200963
-0.021900445
-0.61970807
-0.019375147
-0.61775382
-0.016815551
-0.61612566
-0.014270245
-0.61480272
-0.01176753
-0.61376636
-0.0093202626
-0.61300126
-0.0069302315
-0.61249631
-0.0045909967
-0.002288155
-0.61686696
0.013502425
-0.61802274
0.013652623
-0.61921049
0.013940561
-0.62044801
0.014378928
-0.62175374
0.01496369
-0.62314686
0.015690529
-0.62464717
0.016551639
-0.62627485
0.017534783
-0.6280498
0.018621358
-0.62999056
0.019784331
-0.63211264
0.020986127
-0.63442622
0.022176828
-0.63693313
0.023292965
-0.63962327
0.024257595
-0.64247095
0.024983589
-0.64543332
0.025382686
-0.64845272
0.025378463
-0.65146324
0.024918664
-0.65439848
0.023979163
-0.65719726
0.022558168
-0.65980518
0.020665024
-0.66217271
0.018309255
-0.66425089
0.015493458
-0.66598605
0.012210708
-0.66731431
0.0084471599
-0.66815778
0.0041914692
-0.6684241
-0.00054887699
-0.6680117
-0.0057251285
-0.66682075
-0.011228271
-0.66477604
-0.016855759
-0.66186299
-0.022292353
-0.65816324
-0.027137449
-0.65385952
-0.031003031
-0.64919799
-0.033630715
-0.6444323
-0.034947288
-0.63977993
-0.035042749
-0.63540052
-0.03411139
-0.63139395
-0.032389148
-0.62780978
-0.030107462
-0.62466073
-0.027466667
-0.6219358
-0.024625375
-0.61961083
-0.021700111
-0.61765612
-0.018770265
-0.61604136
-0.015885006
-0.61473866
-0.013070228
-0.61372415
-0.010334774
-0.61297875
-0.0076756325
-0.61248854
-0.005081205
-0.002531743
-0.61795
0.014580948
-0.6190427
0.014745332
-0.62016709
0.015064946
-0.62134238
0.015554221
-0.62258814
0.016209448
-0.62392504
0.017027425
-0.62537496
0.018001567
-0.62696094
0.01912076
-0.62870659
0.020367012
-0.63063508
0.021712813
-0.63276721
0.023118258
-0.6351188
0.024528425
-0.63769705
0.02587121
-0.64049561
0.027056161
-0.64348917
0.027977148
-0.64663017
0.028523683
-0.64985154
0.028599831
-0.65307597
0.028143098
-0.6562275
0.027130687
-0.65923962
0.025570297
-0.66205721
0.023482606
-0.66463293
0.020884977
-0.66692106
0.017781593
-0.66886987
0.014159512
-0.67041338
0.0099906685
-0.67146477
0.0052428676
-0.6719144
-9.9255459e-05
-0.67163255
-0.0060069789
-0.67048227
-0.012378541
-0.6683464
-0.018991635
-0.6651784
-0.025460352
-0.66106264
-0.031253211
-0.65622978
-0.03583589
-0.65099994
-0.038860557
-0.6456962
-0.040251022
-0.64058341
-0.040155546
-0.63584262
-0.038852172
-0.63157474
-0.036657031
-0.62781775
-0.033864455
-0.62456722
-0.030717191
-0.62179414
-0.027398462
-0.61945803
-0.024036218
-0.6175157
-0.020712593
-0.61592635
-0.017474357
-0.61465426
-0.014342321
-0.61366992
-0.011319109
-0.61295032
-0.0083952366
-0.61247874
-0.0055527806
-0.0027656861
-0.61913343
0.015582073
-0.62015221
0.015764111
-0.62120415
0.01611689
-0.62230814
0.016658207
-0.62348446
0.017385777
-0.62475521
0.018298167
-0.62614442
0.019390782
-0.62767824
0.020654578
-0.62938453
0.022073305
-0.6312919
0.023620183
-0.6334277
0.02525406
-0.635815
0.02691572
-0.63846823
0.028524439
-0.64138685
0.029974785
-0.64454707
0.031137366
-0.6478957
0.031872316
-0.65135285
0.032056982
-0.65482531
0.031615559
-0.65822401
0.030529383
-0.66147604
0.028822324
-0.66452662
0.026533188
-0.66733318
0.023691541
-0.66985628
0.020304693
-0.67204932
0.01635255
-0.67384686
0.011788207
-0.67515373
0.0065497445
-0.67583972
0.00058673189
-0.6757421
-0.0061045978
-0.67467693
-0.013443714
-0.67246559
-0.021202971
-0.66900822
-0.028917723
-0.66438415
-0.035877285
-0.65889057
-0.04132947
-0.65295508
-0.044796044
-0.64699686
-0.046209239
-0.64134098
-0.045811431
-0.63619038
-0.044002774
-0.63164062
-0.041206787
-0.62770974
-0.037795341
-0.62436842
-0.034058509
-0.62156367
-0.03020321
-0.6192347
-0.026365184
-0.61732238
-0.022624922
-0.61577404
-0.019022692
-0.61454554
-0.015570821
-0.61360156
-0.012263094
-0.61291513
-0.0090816628
-0.61246693
-0.0060009793
-0.0029876663
-0.6204071
0.016509541
-0.62134756
0.016704569
-0.62231977
0.0170891
-0.62334419
0.017682631
-0.62444207
0.018483656
-0.62563684
0.019492938
-0.62695474
0.020708682
-0.6284252
0.022125029
-0.63008078
0.023728885
-0.63195642
0.025495826
-0.63408739
0.027385034
-0.63650589
0.029334219
-0.63923608
0.031254627
-0.64228608
0.033024785
-0.6456357
0.034486985
-0.64922522
0.035461837
-0.65295706
0.035788823
-0.65671536
0.035373857
-0.66039282
0.034206842
-0.66390883
0.032338334
-0.66721125
0.029835611
-0.67026626
0.026746551
-0.67304524
0.023083674
-0.67551155
0.018818853
-0.67760458
0.013881245
-0.67922291
0.008168068
-0.68021417
0.0015779978
-0.68037588
-0.0059428887
-0.67946349
-0.014356107
-0.67721206
-0.023454397
-0.67343381
-0.032695975
-0.66818553
-0.041125566
-0.6618578
-0.0476572
-0.65503903
-0.051614819
-0.64828274
-0.052965527
-0.64198969
-0.052104482
-0.6363815
-0.049610961
-0.63153702
-0.046051267
-0.62744163
-0.041890729
-0.62403069
-0.03746945
-0.62121991
-0.033013992
-0.61892367
-0.028661427
-0.61706446
-0.024484132
-0.61557672
-0.020510423
-0.61440759
-0.016739958
-0.61351602
-0.013154665
-0.6128714
-0.0097262767
-0.61245211
-0.0064202706
-0.0031949777
-0.62177478
0.017340362
-0.62262372
0.017553509
-0.62350578
0.017971158
-0.62444003
0.018616885
-0.62544789
0.019491511
-0.62655379
0.020598842
-0.627786
0.021940894
-0.62917731
0.023516334
-0.6307654
0.025316975
-0.63259248
0.027322909
-0.63470337
0.029495927
-0.63714179
0.031772636
-0.63994491
0.034057747
-0.64313388
0.03621375
-0.64669607
0.038049177
-0.65056506
0.039330826
-0.65461895
0.039842719
-0.65870921
0.039464115
-0.6627027
0.038200326
-0.66650942
0.036145061
-0.67008342
0.033409611
-0.67340507
0.030068202
-0.67646207
0.026140667
-0.67923362
0.021590407
-0.68167023
0.016317857
-0.68366821
0.010166046
-0.68505237
0.0029621591
-0.68557398
-0.0054212816
-0.6849143
-0.015015784
-0.68268963
-0.02567907
-0.67856899
-0.036816618
-0.67254907
-0.047145487
-0.66515201
-0.055054257
-0.65721551
-0.059551317
-0.64948255
-0.060698488
-0.64244689
-0.059140145
-0.63633821
-0.055719645
-0.63119908
-0.051190395
-0.62696361
-0.0461262
-0.62351802
-0.040915034
-0.62073807
-0.035793939
-0.61850862
-0.030890886
-0.6167317
-0.026261047
-0.61532832
-0.021913805
-0.61423708
-0.017831195
-0.61341178
-0.013979966
-0.61281874
-0.010319315
-0.61243456
-0.0068044508
-0.0033845922
-0.6232031
0.018083512
-0.62395742
0.018307828
-0.62474203
0.018755766
-0.62557741
0.01945227
-0.62648532
0.020399421
-0.62749102
0.02160454
-0.6286246
0.023074475
-0.62992218
0.024813911
-0.63142686
0.026821654
-0.63318903
0.02908508
-0.63526485
0.031571749
-0.63771231
0.0342201
-0.64058558
0.036931018
-0.64392474
0.039552911
-0.64773128
0.041855712
-0.65193288
0.043532432
-0.65637336
0.044283194
-0.66085525
0.043946003
-0.66520719
0.042552265
-0.6693273
0.040265173
-0.67318183
0.037264145
-0.67677399
0.033660359
-0.68011574
0.029482418
-0.68321107
0.024685732
-0.68603236
0.019139147
-0.68848223
0.012615917
-0.69036396
0.0048438935
-0.69137639
-0.004408855
-0.69111304
-0.015279129
-0.68903173
-0.027760386
-0.68457154
-0.041276801
-0.67759112
-0.054125912
-0.6687955
-0.063849877
-0.65942572
-0.068921094
-0.65049282
-0.069631393
-0.64260016
-0.067032806
-0.63596042
-0.062359379
-0.63054757
-0.056603251
-0.62621769
-0.050456078
-0.62279037
-0.044342355
-0.62009171
-0.038492593
-0.6179727
-0.033009899
-0.6163137
-0.027920043
-0.61502257
-0.023204936
-0.61403036
-0.018823409
-0.61328674
-0.014723581
-0.61275596
-0.010850097
-0.6124136
-0.0071468058
-0.0035532467
-0.62472695
0.018710138
-0.62537214
0.018953018
-0.62604883
0.019432455
-0.62677457
0.020178016
-0.62757015
0.021195001
-0.62846085
0.022495238
-0.62947797
0.024091593
-0.63066049
0.025996434
-0.63205679
0.028217956
-0.633726
0.03075429
-0.63573741
0.033583154
-0.63816644
0.036649128
-0.64108902
0.039853599
-0.64457239
0.043036286
-0.64864362
0.045926932
-0.6532293
0.048118121
-0.65812584
0.049179733
-0.66306269
0.048882847
-0.6678126
0.04730218
-0.67226028
0.044712855
-0.67639613
0.041399992
-0.68025985
0.037524077
-0.68389688
0.03311945
-0.68734455
0.028133404
-0.69060958
0.022404181
-0.69361168
0.015618008
-0.69613399
0.0073662079
-0.69781653
-0.0027263182
-0.69815467
-0.014940983
-0.6964108
-0.029504263
-0.69166663
-0.046020973
-0.68348563
-0.062306907
-0.67281358
-0.074521931
-0.66157729
-0.080157383
-0.65116512
-0.080043557
-0.64229922
-0.075898704
-0.63512298
-0.06953562
-0.62948972
-0.062236512
-0.62514044
-0.054805358
-0.62180693
-0.047675869
-0.61925589
-0.041043628
-0.61730138
-0.034964414
-0.61580237
-0.029419052
-0.6146552
-0.024352108
-0.61378527
-0.019693334
-0.61313991
-0.015368944
-0.61268265
-0.01130736
-0.61238911
-0.0074403399
-0.0036975592
-0.62625576
0.01923397
-0.62678958
0.019486837
-0.62735051
0.019993386
-0.62795664
0.020784145
-0.62862781
0.021866174
-0.62938888
0.023256308
-0.63027188
0.024974588
-0.63131829
0.027042845
-0.63258169
0.029481355
-0.6341306
0.032303207
-0.63604966
0.03550221
-0.63843582
0.039035288
-0.64139262
0.042810397
-0.64502508
0.04666875
-0.64940448
0.050306331
-0.65446833
0.053181967
-0.65994633
0.054657733
-0.6654536
0.054390123
-0.67067614
0.052524717
-0.67548
0.049516721
-0.67989678
0.045816767
-0.68402063
0.041647923
-0.6879387
0.037037524
-0.69172959
0.031924289
-0.6954552
0.026129791
-0.6990778
0.019240607
-0.70237471
0.010663119
-0.70493052
-0.00017050935
-0.70613766
-0.013733837
-0.70504011
-0.030601819
-0.70017661
-0.050884471
-0.6905028
-0.07198071
-0.67723143
-0.087793306
-0.66352221
-0.093866607
-0.65128391
-0.092281852
-0.64134301
-0.085839603
-0.63367109
-0.077207546
-0.62791968
-0.067987918
-0.62366546
-0.059059574
-0.62052899
-0.050812345
-0.61820962
-0.043362996
-0.61648421
-0.036689824
-0.61519312
-0.030710136
-0.61422464
-0.025320591
-0.61350167
-0.020416307
-0.61297165
-0.015898956
-0.6125993
-0.011679712
-0.61236157
-0.0076780749
-0.0038141772
-0.62788232
0.019620835
-0.62829038
0.01989489
-0.62872674
0.020429754
-0.62920449
0.021261889
-0.62974076
0.022402448
-0.6303588
0.023874342
-0.63109014
0.025705937
-0.6319775
0.027930196
-0.63307823
0.030582085
-0.63446923
0.033694207
-0.63625108
0.037284064
-0.63854563
0.041329837
-0.6414892
0.045753963
-0.64523558
0.050415136
-0.64992843
0.054999178
-0.65554383
0.058797367
-0.66172014
0.060834045
-0.66789165
0.060561633
-0.67361238
0.058245442
-0.67872779
0.05463213
-0.68334887
0.050437855
-0.68766181
0.045960858
-0.69181165
0.041187369
-0.69592754
0.036040175
-0.70015811
0.030360357
-0.70454446
0.023626966
-0.70886989
0.014988547
-0.71262564
0.0035852434
-0.71509992
-0.011259564
-0.71514607
-0.030555666
-0.7105427
-0.05548784
-0.69906496
-0.083458447
-0.68205631
-0.10480196
-0.66501592
-0.110907
-0.65053154
-0.10676624
-0.63946198
-0.096909159
-0.63141566
-0.085253869
-0.62572015
-0.073683423
-0.62172684
-0.063052891
-0.61892295
-0.053616231
-0.61693777
-0.045348174
-0.6155157
-0.038111894
-0.61448494
-0.031740898
-0.61373154
-0.026073997
-0.61318045
-0.020967392
-0.61278258
-0.016296827
-0.61250607
-0.011956218
-0.61233073
-0.0078534191
-0.0038999564
-0.62933598
0.019882714
-0.62961491
0.020173825
-0.62991711
0.02073195
-0.63025352
0.021598302
-0.63063796
0.022786883
-0.63109081
0.024327189
-0.63164169
0.026256817
-0.63233297
0.028621481
-0.63322443
0.031473546
-0.63440039
0.034870167
-0.63597877
0.038862445
-0.63811247
0.043463532
-0.64097954
0.048621034
-0.64479588
0.05423148
-0.64982097
0.060024267
-0.65613232
0.065108721
-0.66324986
0.067951585
-0.67030963
0.067621396
-0.67665923
0.064595044
-0.68211421
0.060087109
-0.68692667
0.055250318
-0.69142572
0.050459904
-0.6958168
0.045578454
-0.70025359
0.040476955
-0.70499405
0.035100826
-0.71020146
0.028834375
-0.71569657
0.020483654
-0.72088197
0.0087706447
-0.72496915
-0.0071723839
-0.72679971
-0.028725107
-0.72323185
-0.059055705
-0.70979739
-0.096892905
-0.68723409
-0.12736525
-0.66565424
-0.13248684
-0.64844079
-0.1239797
-0.63630036
-0.10904959
-0.62813509
-0.09341914
-0.62277144
-0.079047074
-0.61926875
-0.06655558
-0.61696816
-0.055916824
-0.61543681
-0.046879518
-0.61439936
-0.039149349
-0.61368323
-0.032457022
-0.61318089
-0.026576338
-0.61282538
-0.021322901
-0.61257507
-0.016547137
-0.61240418
-0.012127107
-0.61229701
-0.0079605945
-0.0039521655
-0.63049027
0.019981378
-0.63061982
0.020303375
-0.63077082
0.020882951
-0.63094763
0.021775107
-0.63115925
0.022998504
-0.63142224
0.024590174
-0.63176304
0.026597619
-0.63222203
0.029080475
-0.63285906
0.03211057
-0.63376249
0.0357736
-0.63506443
0.040164382
-0.6369506
0.045349703
-0.63964599
0.051316423
-0.64343018
0.058015673
-0.64872252
0.065316606
-0.65582175
0.07220795
-0.66410929
0.076239124
-0.6722049
0.075717007
-0.6791452
0.071535349
-0.68470216
0.065644072
-0.68939228
0.059940431
-0.6937779
0.054845526
-0.69813756
0.049938115
-0.70260017
0.044939567
-0.70761201
0.040112666
-0.7135937
0.034816067
-0.72050259
0.02739254
-0.72773212
0.016000173
-0.73427938
-0.00062512002
-0.73920325
-0.023801233
-0.73833185
-0.059927106
-0.72349559
-0.11172917
-0.69248319
-0.15837766
-0.66469656
-0.16027347
-0.64430095
-0.14437531
-0.6313913
-0.12195924
-0.62358302
-0.10122742
-0.61896662
-0.083663466
-0.6162585
-0.069263703
-0.61466562
-0.057509702
-0.61371995
-0.047825187
-0.61315047
-0.039718833
-0.61280129
-0.032806202
-0.61258279
-0.026794838
-0.61244339
-0.0214623
-0.61235344
-0.016637087
-0.61229599
-0.012184558
-0.61226149
-0.0079950985
-0.0039687024
-0.63007848
0.019880172
-0.63002794
0.020252836
-0.62999531
0.020850327
-0.62997624
0.021756038
-0.62997276
0.02299502
-0.62999479
0.024612206
-0.63006163
0.026664453
-0.63020621
0.029225058
-0.63048153
0.032385887
-0.63097112
0.036263196
-0.63181142
0.041004679
-0.63321967
0.046757954
-0.63548196
0.05357871
-0.63894665
0.061480365
-0.6442399
0.070609852
-0.65213527
0.080103328
-0.66194775
0.086051604
-0.67134991
0.08511916
-0.67893517
0.079120607
-0.68436564
0.071074549
-0.68865617
0.064230962
-0.69275103
0.058940387
-0.6970513
0.054238382
-0.70151398
0.049402246
-0.70683808
0.045436762
-0.71385883
0.041836819
-0.7225961
0.036129808
-0.73261913
0.026023208
-0.74190455
0.0086602948
-0.75052997
-0.015175811
-0.75421883
-0.056238244
-0.74047677
-0.12547123
-0.69642063
-0.20243379
-0.66055576
-0.19613834
-0.63703499
-0.16789608
-0.62415364
-0.13484059
-0.61751701
-0.10786406
-0.61423903
-0.086941438
-0.61270459
-0.070798144
-0.61204776
-0.058166537
-0.61182143
-0.048051518
-0.61179737
-0.039742887
-0.61186
-0.032743575
-0.61195141
-0.026703427
-0.61204331
-0.021370398
-0.61212256
-0.016557839
-0.61218362
-0.012123502
-0.61222455
-0.0079541602
-0.0039483064
-0.62618378
0.019548775
-0.62589612
0.019965171
-0.6256043
0.020558508
-0.62530174
0.021453483
-0.62498315
0.02267643
-0.62464981
0.024278861
-0.62431057
0.026325216
-0.62398678
0.028901267
-0.62372
0.032119103
-0.62358363
0.036126832
-0.6237102
0.041131246
-0.62434507
0.047392821
-0.62585805
0.055091699
-0.62866641
0.064288723
-0.63355932
0.075502764
-0.6421624
0.088706399
-0.65403765
0.09792686
-0.66487396
0.095955471
-0.67275721
0.08700385
-0.67707091
0.075388253
-0.67991048
0.067070531
-0.68282201
0.061851921
-0.68642891
0.057845275
-0.69004514
0.053018478
-0.69450598
0.049897608
-0.70161403
0.048944866
-0.71115688
0.045672662
-0.72409858
0.038964905
-0.73556632
0.020128034
-0.74986074
-0.00088138687
-0.76244947
-0.043649516
-0.75916577
-0.12875494
-0.69459066
-0.2670089
-0.65073437
-0.23999463
-0.62530399
-0.19332645
-0.61396272
-0.14618187
-0.60976316
-0.11206362
-0.60860983
-0.088094764
-0.60868416
-0.070723814
-0.60919204
-0.057658655
-0.60980281
-0.047440749
-0.61038442
-0.039161282
-0.6108895
-0.032238487
-0.61130626
-0.02628667
-0.61163706
-0.021039601
-0.61188908
-0.016305817
-0.61207022
-0.011942366
-0.61218723
-0.0078371428
-0.0038907404
-0.61276645
0.018729609
-0.61203619
0.019234904
-0.61128974
0.019812059
-0.61050024
0.020663988
-0.60964999
0.021826177
-0.60872692
0.023355792
-0.60772274
0.02532103
-0.6066368
0.027815329
-0.6054836
0.03096591
-0.60430258
0.034945804
-0.60318057
0.040009241
-0.60232602
0.046538268
-0.60215345
0.054919129
-0.60313625
0.065271527
-0.6060127
0.078379205
-0.61372653
0.096420237
-0.62752719
0.11172752
-0.6386899
0.10711818
-0.64545641
0.093770359
-0.64634408
0.076275923
-0.64573636
0.066462812
-0.64567328
0.061788837
-0.64728023
0.059452228
-0.64831179
0.054050036
-0.64944502
0.051030842
-0.65616989
0.055669728
-0.66607513
0.055577908
-0.68384061
0.056730388
-0.69888825
0.035175672
-0.72786022
0.028090584
-0.75027201
-0.021237727
-0.77323458
-0.10579237
-0.67715865
-0.36308482
-0.63076772
-0.28638556
-0.60622335
-0.21787083
-0.59992087
-0.15248435
-0.6002662
-0.11171829
-0.60224903
-0.086111933
-0.60437342
-0.068599422
-0.60623188
-0.055800198
-0.60775545
-0.045917174
-0.60897156
-0.037945175
-0.60992819
-0.031281855
-0.61067129
-0.025543568
-0.611239
-0.020471897
-0.61166107
-0.015883745
-0.61195982
-0.011643622
-0.61215113
-0.0076458305
-0.0037969183
-0.5847796
0.017486159
-0.58351021
0.017965514
-0.58214158
0.018443424
-0.58066947
0.019191881
-0.57906767
0.020224375
-0.5773053
0.02159342
-0.57534573
0.02336146
-0.57314911
0.025618714
-0.57067787
0.028494663
-0.5679048
0.03217274
-0.56482863
0.036933065
-0.56155662
0.043266264
-0.55853279
0.051895301
-0.55652775
0.06326648
-0.55614874
0.078000193
-0.56153156
0.10180306
-0.58049243
0.13068839
-0.59265624
0.11928199
-0.59890969
0.10002381
-0.59405219
0.071418419
-0.58776381
0.060174428
-0.58244275
0.05646778
-0.58157553
0.058585003
-0.5795282
0.05200271
-0.5738762
0.045378846
-0.58519466
0.032529481
-0.59561963
0.037438936
-0.60467978
0.040313197
-0.60342486
0.02048029
-0.63525092
0.03987838
-0.71434572
0.019774528
-0.66918687
-0.054713835
-0.60685833
-0.22710714
-0.57379935
-0.31944453
-0.57150802
-0.22016216
-0.58113688
-0.14285549
-0.58945237
-0.1034028
-0.59561862
-0.079945678
-0.60008654
-0.06413151
-0.60336088
-0.052525856
-0.60579623
-0.043481818
-0.60762935
-0.036112063
-0.60901858
-0.029892621
-0.61007177
-0.02449038
-0.61086356
-0.019680108
-0.61144608
-0.015301222
-0.61185565
-0.011234048
-0.61211694
-0.0073845452
-0.0036689526
-0.52686993
0.015076172
-0.5243732
0.015468782
-0.52172087
0.015791097
-0.51887074
0.016341746
-0.51576853
0.017122166
-0.51234643
0.018171326
-0.50851877
0.019533799
-0.5041804
0.021280346
-0.49920711
0.023521366
-0.49346097
0.026426597
-0.48679888
0.030270979
-0.47911633
0.035583715
-0.4706093
0.043388268
-0.4622458
0.054902984
-0.45437874
0.070133134
-0.44762974
0.095054061
-0.47080985
0.15386849
-0.47005108
0.11852323
-0.4609154
0.090888127
-0.42709561
0.037598632
-0.39543664
0.028515459
-0.36804261
0.029073749
-0.30348987
0.020770629
-0.16300003
0.013454901
-0.04114727
0.007771028
0
0
0
0
0
0
0
0
0
0
0
0
0
0
-0.21954732
0.015304039
-0.45297679