/*--------------------------------*- C++ -*----------------------------------*\
| =========                 |                                                 |
| \\      /  F ield         | foam-extend: Open Source CFD                    |
|  \\    /   O peration     | Version:     4.1                                |
|   \\  /    A nd           | Web:         http://www.foam-extend.org         |
|    \\/     M anipulation  |                                                 |
\*---------------------------------------------------------------------------*/
FoamFile
{
    version     2.0;
    format      ascii;
    class       surfaceScalarField;
    location    "1.25";
    object      phi;
}
// * * * * * * * * * * * * * * * * * * * * * * * * * * * * * * * * * * * * * //

dimensions      [0 3 -1 0 0 0 0];

internalField   nonuniform List<scalar> 
8438
(
-0.59735928
0.0016668869
-0.59909178
0.0017324999
-0.6008595
0.0017677223
-0.60267146
0.0018119524
-0.60453742
0.0018659616
-0.60646786
0.0019304426
-0.60847224
0.0020043827
-0.61055825
0.0020860108
-0.6127311
0.0021728506
-0.61499284
0.0022617318
-0.61734162
0.002348785
-0.6197711
0.0024294741
-0.62226979
0.0024986968
-0.62482076
0.0025509718
-0.62740148
0.0025807118
-0.62998406
0.0025825834
-0.63253586
0.002551805
-0.63502031
0.0024844488
-0.63739789
0.0023775762
-0.63962713
0.0022292386
-0.64166554
0.0020384133
-0.64347046
0.0018049212
-0.64499988
0.0015294164
-0.64621339
0.00121351
-0.64707347
0.00086008078
-0.64754726
0.00047378564
-0.6476087
6.1441168e-05
-0.64724024
-0.00036845644
-0.64643676
-0.00080348084
-0.64520964
-0.0012271203
-0.64358777
-0.0016218698
-0.64161727
-0.0019704971
-0.63935934
-0.0022579342
-0.63688616
-0.0024731785
-0.63427566
-0.002610505
-0.63160595
-0.0026697068
-0.62895051
-0.0026554345
-0.62637457
-0.0025759461
-0.62393293
-0.0024416343
-0.62166929
-0.002263645
-0.61961651
-0.0020527759
-0.61779779
-0.0018187205
-0.61622816
-0.001569634
-0.61491612
-0.0013120421
-0.6138648
-0.0010513124
-0.61307248
-0.00079232087
-0.61253554
-0.00053694858
-0.61225912
-0.00027641881
-1.4166719e-05
-0.61115291
0.0031260168
-0.61260566
0.0031852561
-0.61408587
0.0032479268
-0.6156068
0.0033328814
-0.61718092
0.0034400858
-0.61881948
0.0035690032
-0.62053238
0.0037172816
-0.62232765
0.0038812856
-0.62421086
0.004056052
-0.62618436
0.0042352404
-0.62824668
0.0044110977
-0.63039171
0.0045745087
-0.6326082
0.0047151883
-0.63487929
0.0048220558
-0.63718237
0.0048837918
-0.63948936
0.0048895779
-0.64176728
0.0048297262
-0.64397914
0.0046963018
-0.64608496
0.0044833992
-0.64804285
0.0041871305
-0.64980991
0.0038054674
-0.65134303
0.0033380439
-0.65259973
0.0027861132
-0.653539
0.002152787
-0.65412257
0.0014436513
-0.65431655
0.00066776268
-0.65409394
-0.00016116668
-0.65343867
-0.0010237325
-0.65234746
-0.0018946847
-0.65083124
-0.00274334
-0.64891808
-0.0035350306
-0.64665379
-0.0042347867
-0.6440999
-0.0048118251
-0.64132943
-0.005243652
-0.63842131
-0.0055186234
-0.63545459
-0.0056364254
-0.63250337
-0.0056066583
-0.6296331
-0.0054462119
-0.62689852
-0.0051762142
-0.62434297
-0.004819201
-0.62199886
-0.0043968863
-0.61988893
-0.003928653
-0.61802784
-0.0034307219
-0.61642387
-0.0029160123
-0.61508039
-0.0023947868
-0.61399772
-0.0018749923
-0.61317542
-0.001359246
-0.61260525
-0.00084659769
-0.00037461247
-0.61219616
0.0045352396
-0.61360396
0.0045930578
-0.61503687
0.0046808386
-0.61650985
0.0048058615
-0.61803622
0.0049664496
-0.6196278
0.0051605882
-0.621295
0.005384475
-0.62304633
0.0056326239
-0.62488793
0.0058976451
-0.62682278
0.0061700896
-0.62885003
0.0064383518
-0.63096424
0.0066887147
-0.63315466
0.0069056165
-0.63540482
0.0070722073
-0.63769223
0.0071712078
-0.63998873
0.0071860727
-0.64226101
0.007102008
-0.64447166
0.0069069569
-0.64658029
0.0065920247
-0.64854458
0.0061514191
-0.65032125
0.0055821357
-0.65186678
0.0048835785
-0.6531381
0.0040574282
-0.65409328
0.0031079744
-0.65469268
0.0020430501
-0.65490053
0.00087560598
-0.65468738
-0.00037431662
-0.65403296
-0.0016781465
-0.65292971
-0.0029979401
-0.6513865
-0.004286549
-0.64943126
-0.0054902705
-0.64711153
-0.0065545206
-0.64449226
-0.0074310865
-0.64165105
-0.0080848634
-0.63867167
-0.0084980101
-0.63563747
-0.0086706247
-0.63262581
-0.0086183191
-0.62970412
-0.0083678966
-0.62692789
-0.0079524447
-0.62434021
-0.0074068805
-0.62197258
-0.0067645175
-0.61984642
-0.0060548088
-0.61797496
-0.0053021872
-0.61636506
-0.0045259131
-0.61501916
-0.0037406815
-0.61393748
-0.0029566733
-0.61311836
-0.0021783703
-0.61255329
-0.0014116626
-0.00068295675
-0.61255107
0.0059151769
-0.61393858
0.0059805677
-0.61535183
0.0060940882
-0.61680577
0.0062598015
-0.61831419
0.0064748617
-0.61988961
0.0067360102
-0.6215432
0.0070380635
-0.62328433
0.0073737586
-0.62512004
0.0077333492
-0.62705426
0.0081043164
-0.62908709
0.0084711774
-0.63121387
0.0088154937
-0.63342444
0.0091161871
-0.6357025
0.009350273
-0.63802535
0.0094940532
-0.64036406
0.0095247802
-0.64268421
0.0094221648
-0.64494706
0.0091698078
-0.64711083
0.0087557903
-0.64913192
0.0081725092
-0.65096588
0.0074160996
-0.65256806
0.0064857563
-0.65389406
0.0053834219
-0.65490024
0.0041141617
-0.65554463
0.0026874342
-0.65578835
0.0011193298
-0.65559814
-0.00056452899
-0.65494966
-0.0023266307
-0.65383161
-0.0041159874
-0.65225033
-0.0058678225
-0.65023346
-0.0075071478
-0.64783114
-0.0089568361
-0.64511377
-0.010148455
-0.64216617
-0.011032466
-0.63907977
-0.01158441
-0.63594472
-0.01180568
-0.63284339
-0.011719646
-0.6298462
-0.011365086
-0.62700967
-0.010788975
-0.62437641
-0.01004014
-0.62197641
-0.0091645231
-0.61982901
-0.0082022067
-0.61794518
-0.0071860161
-0.61632968
-0.0061414115
-0.61498325
-0.0050871133
-0.6139045
-0.0040354224
-0.6130899
-0.0029929655
-0.61253408
-0.0019674837
-0.00097209045
-0.61297321
0.0072681246
-0.61433754
0.0073448983
-0.61572856
0.0074851064
-0.6171614
0.0076926444
-0.61865034
0.0079637974
-0.62020868
0.0082943541
-0.62184853
0.0086779162
-0.62358037
0.0091055895
-0.62541241
0.0095653916
-0.62734989
0.010041803
-0.62939416
0.010515441
-0.63154166
0.010962993
-0.63378301
0.01135754
-0.63610219
0.011669454
-0.6384761
0.011867964
-0.64087476
0.011923435
-0.64326212
0.011809528
-0.64559752
0.011505208
-0.64783726
0.010995533
-0.64993605
0.010271293
-0.65184795
0.0093280046
-0.65352695
0.0081647524
-0.65492709
0.0067835614
-0.65600267
0.0051897389
-0.65670872
0.0033934903
-0.65700233
0.0014129329
-0.65684503
-0.00072182583
-0.65620672
-0.0029649409
-0.65507051
-0.0052521984
-0.6534387
-0.0074996275
-0.65133812
-0.0096077283
-0.64882248
-0.011472483
-0.64596989
-0.013001036
-0.64287566
-0.014126704
-0.63964221
-0.014817856
-0.63636929
-0.015078603
-0.63314621
-0.01494272
-0.63004731
-0.014463993
-0.62713024
-0.013706041
-0.62443667
-0.012733713
-0.62199424
-0.011606947
-0.61981931
-0.010377143
-0.61791966
-0.0090856684
-0.61629715
-0.0077639192
-0.61495008
-0.0064341802
-0.61387491
-0.0051105985
-0.61306675
-0.0038011237
-0.61252171
-0.0025125218
-0.0012490004
-0.61350752
0.0085889172
-0.61484225
0.008679628
-0.61620501
0.0088478636
-0.61761108
0.009098723
-0.61907532
0.0094280346
-0.62061192
0.0098309572
-0.62223413
0.010300122
-0.62395376
0.010825224
-0.62578061
0.011392233
-0.62772155
0.01198275
-0.62977961
0.012573502
-0.63195275
0.01313613
-0.63423269
0.013637476
-0.63660383
0.014040601
-0.63904264
0.014306766
-0.64151769
0.014398492
-0.64399077
0.014282607
-0.64641862
0.013933054
-0.64875501
0.013331922
-0.65095247
0.012468761
-0.65296336
0.01133889
-0.65474012
0.009941509
-0.6562351
0.0082785438
-0.65740021
0.0063548507
-0.6581869
0.0041801773
-0.65854705
0.0017730886
-0.65843545
-0.00083343515
-0.6578141
-0.0035862869
-0.65665817
-0.006408123
-0.65496389
-0.00919391
-0.65275634
-0.011815279
-0.65009372
-0.014135103
-0.6470648
-0.016029957
-0.64377941
-0.017412098
-0.64035518
-0.01824208
-0.63690483
-0.018528957
-0.63352673
-0.018320818
-0.63029997
-0.01769075
-0.62728324
-0.016722778
-0.62451641
-0.015500543
-0.62202367
-0.01409968
-0.61981712
-0.012583695
-0.6179002
-0.011002587
-0.6162708
-0.0093933194
-0.61492379
-0.0077811947
-0.61385276
-0.0061816306
-0.61305116
-0.0046027198
-0.61251473
-0.0030489466
-0.0015187852
-0.61415709
0.0098738229
-0.6154563
0.0099788332
-0.61678441
0.010175974
-0.61815741
0.010471728
-0.61959093
0.010861551
-0.62110022
0.011340245
-0.62269986
0.011899762
-0.62440332
0.012528683
-0.62622228
0.0132112
-0.62816576
0.013926232
-0.63023893
0.014646667
-0.63244174
0.015338943
-0.63476746
0.015963194
-0.63720119
0.016474326
-0.63971886
0.016824441
-0.64228726
0.016966887
-0.64486522
0.016860575
-0.64740608
0.016473907
-0.64986032
0.015786164
-0.65217784
0.014786282
-0.65430905
0.013470103
-0.65620492
0.011837372
-0.65781616
0.0098897865
-0.65909221
0.0076309005
-0.65998044
0.0050684061
-0.66042648
0.0022191315
-0.66037647
-0.00088344411
-0.65978198
-0.0041807755
-0.65860707
-0.0075830384
-0.65683886
-0.010962124
-0.65449904
-0.014155092
-0.65165123
-0.016982914
-0.64839853
-0.019282663
-0.64487068
-0.020939948
-0.64120592
-0.021906839
-0.63753406
-0.022200812
-0.63396493
-0.021889954
-0.63058307
-0.02107261
-0.62744766
-0.01985819
-0.6245956
-0.018352602
-0.62204612
-0.016649159
-0.61980557
-0.014824239
-0.61787176
-0.012936402
-0.61623748
-0.011027603
-0.61489326
-0.0091254099
-0.61382922
-0.0072456659
-0.61303646
-0.0053954888
-0.61250891
-0.0035764895
-0.0017827484
-0.61491637
0.011114431
-0.61617282
0.011235287
-0.61745952
0.01146267
-0.61879286
0.011805067
-0.62018929
0.012257981
-0.62166525
0.012816208
-0.62323688
0.013471388
-0.62491957
0.014211374
-0.62672732
0.015018955
-0.62867176
0.015870666
-0.63076079
0.016735697
-0.632997
0.017575156
-0.63537576
0.018341952
-0.63788323
0.018981799
-0.64049486
0.019436073
-0.6431751
0.01964712
-0.64587892
0.019564401
-0.64855511
0.019150095
-0.65114995
0.018381004
-0.65361015
0.017246484
-0.65588412
0.015744067
-0.65792155
0.013874804
-0.65967191
0.011640152
-0.66108237
0.009041353
-0.66209594
0.0060819787
-0.66265098
0.0027741704
-0.66268292
-0.00085149839
-0.66212974
-0.0047339633
-0.66094021
-0.0087725641
-0.65908802
-0.012814318
-0.65658863
-0.016654474
-0.65351182
-0.020059732
-0.64997988
-0.022814598
-0.64614981
-0.024770019
-0.64218757
-0.025869082
-0.63824524
-0.026143143
-0.63444665
-0.025688541
-0.63088218
-0.024637079
-0.62761035
-0.023130016
-0.62466321
-0.021299743
-0.62205296
-0.019259408
-0.61977833
-0.01709887
-0.61782988
-0.014884853
-0.61619409
-0.012663389
-0.61485629
-0.010463215
-0.61380252
-0.00829944
-0.61302094
-0.0061770688
-0.61250312
-0.0040943039
-0.0020410696
-0.61578646
0.012307367
-0.6169942
0.012443028
-0.61823262
0.012701082
-0.61951921
0.013091665
-0.62087148
0.013610246
-0.62230719
0.014251916
-0.62384422
0.015008424
-0.62550023
0.015867383
-0.62729196
0.016810684
-0.62923421
0.017812918
-0.63133836
0.018839841
-0.63361039
0.019847189
-0.63604856
0.020780124
-0.6386407
0.021573936
-0.64136185
0.022157223
-0.64417353
0.022458801
-0.64702563
0.022416503
-0.64986088
0.021985345
-0.65262012
0.021140246
-0.65524629
0.019872647
-0.65768584
0.018183616
-0.65988779
0.01607676
-0.66180112
0.013553483
-0.66337134
0.010611567
-0.66453721
0.0072478464
-0.66522889
0.0034658587
-0.66536889
-0.00071149948
-0.66487763
-0.0052252243
-0.66368314
-0.0099670549
-0.66173929
-0.014758166
-0.65905059
-0.019343176
-0.65569326
-0.023417064
-0.65181545
-0.026692402
-0.64761162
-0.028973857
-0.64328512
-0.030195575
-0.63901685
-0.030411413
-0.63494739
-0.029758001
-0.63117269
-0.028411783
-0.62774858
-0.026554128
-0.62469949
-0.024348832
-0.62202787
-0.021931023
-0.61972248
-0.019404266
-0.61776479
-0.016842546
-0.6161336
-0.014294571
-0.6148081
-0.011788724
-0.61376962
-0.009337914
-0.61300292
-0.0069437718
-0.61249687
-0.0046003523
-0.0022929901
-0.61676072
0.013440748
-0.61791105
0.013593364
-0.61909347
0.013883493
-0.6203257
0.014323897
-0.62162615
0.014910696
-0.62301398
0.015639752
-0.62450902
0.016503457
-0.62613144
0.017489809
-0.62790123
0.018580468
-0.62983702
0.019748708
-0.63195448
0.020957304
-0.63426402
0.022156727
-0.63676782
0.023283922
-0.63945623
0.024262349
-0.64230418
0.025005179
-0.64526955
0.025424164
-0.64829539
0.025442346
-0.65131628
0.025006239
-0.65426593
0.024089893
-0.65708275
0.022689464
-0.65971156
0.020812424
-0.66210169
0.018466898
-0.66420296
0.01565475
-0.66596046
0.012369068
-0.66730931
0.0085966936
-0.66817088
0.0043274257
-0.66845241
-0.00042996197
-0.66805205
-0.0056255833
-0.66686992
-0.011149194
-0.66483095
-0.016797132
-0.6619208
-0.022253327
-0.65822144
-0.027116425
-0.65391604
-0.030997799
-0.64925125
-0.033638653
-0.6444812
-0.034965621
-0.63982382
-0.03506879
-0.63543912
-0.034142709
-0.63142724
-0.032423659
-0.62783793
-0.030143441
-0.62468403
-0.027502726
-0.62195464
-0.024660417
-0.61962564
-0.021733268
-0.61766733
-0.018800849
-0.61604945
-0.015912454
-0.61474411
-0.013094063
-0.61372745
-0.010354576
-0.61298042
-0.0076907983
-0.61248911
-0.0050916697
-0.002537147
-0.61783835
0.014513907
-0.61892582
0.014680833
-0.62004502
0.015002696
-0.62121512
0.015494
-0.62245564
0.01615121
-0.6237872
0.016971318
-0.62523171
0.017947961
-0.62681218
0.019070281
-0.62855229
0.020320579
-0.63047527
0.021671693
-0.6326021
0.023084126
-0.6349488
0.024503434
-0.63752293
0.025858047
-0.64031867
0.027058087
-0.64331143
0.02799794
-0.6464546
0.028567332
-0.64968209
0.028669842
-0.65291735
0.028241492
-0.65608457
0.027257121
-0.65911685
0.025721736
-0.66195801
0.023653584
-0.66455936
0.021068248
-0.6668736
0.017968997
-0.66884751
0.01434297
-0.67041388
0.010163071
-0.67148509
0.0053986347
-0.67195105
3.5999566e-05
-0.67168183
-0.0058948089
-0.67054055
-0.012290472
-0.66841021
-0.018927475
-0.66524456
-0.025418971
-0.66112837
-0.031232614
-0.65629282
-0.035833354
-0.65105861
-0.038872862
-0.64574944
-0.040274794
-0.64063065
-0.040187578
-0.63588373
-0.03888963
-0.63160984
-0.036697543
-0.62784717
-0.033906113
-0.6245914
-0.030758499
-0.62181355
-0.027438265
-0.61947319
-0.024073625
-0.61752713
-0.020746908
-0.61593457
-0.017505019
-0.61465978
-0.014368856
-0.61367326
-0.011341095
-0.61295201
-0.0084120462
-0.61247932
-0.0055643631
-0.0027716622
-0.61901602
0.01550994
-0.62002981
0.015694622
-0.62107678
0.016049662
-0.62217571
0.016592938
-0.62334687
0.017322361
-0.62461226
0.018236709
-0.62599592
0.019331627
-0.62752399
0.020598344
-0.62922434
0.022020932
-0.63112564
0.023572993
-0.63325536
0.025213847
-0.63563677
0.026884844
-0.63828466
0.028505938
-0.64119906
0.029972486
-0.64435704
0.03115592
-0.64770664
0.031916928
-0.65116932
0.032132526
-0.65465297
0.031725143
-0.65806887
0.030673017
-0.66134356
0.028996433
-0.66442102
0.026731041
-0.66725691
0.02390414
-0.66980982
0.020521907
-0.67203128
0.016564427
-0.67385439
0.01198618
-0.67518305
0.0067272961
-0.67588646
0.00073940718
-0.67580194
-0.0059793216
-0.67474588
-0.013346538
-0.67253976
-0.021133596
-0.66908404
-0.028874692
-0.6644585
-0.035858147
-0.65896097
-0.04133089
-0.65301977
-0.044814064
-0.64705481
-0.046239751
-0.64139178
-0.04585061
-0.63623407
-0.044047337
-0.63167755
-0.041254068
-0.6277404
-0.037843263
-0.6243934
-0.034105494
-0.62158359
-0.030248078
-0.61925017
-0.026407047
-0.61733397
-0.022663102
-0.61578234
-0.01905665
-0.61455109
-0.015600103
-0.6136049
-0.012287287
-0.61291682
-0.0091001263
-0.6124675
-0.0060136825
-0.002994215
-0.62028325
0.016432664
-0.62121901
0.016630375
-0.62218646
0.017017117
-0.62320599
0.017612468
-0.62429876
0.018415131
-0.62548815
0.019426099
-0.62680036
0.020643831
-0.62826477
0.022062758
-0.62991396
0.023670122
-0.63178288
0.025441914
-0.63390687
0.027337839
-0.6363183
0.02929627
-0.63904165
0.031229283
-0.64208562
0.033016461
-0.64543104
0.034501343
-0.64901975
0.035505637
-0.65275608
0.035868849
-0.65652577
0.035494836
-0.66022212
0.034369371
-0.66376385
0.032538159
-0.66709717
0.030064359
-0.67018603
0.026993001
-0.67299931
0.02333519
-0.67549799
0.01906311
-0.67761971
0.0141079
-0.67926204
0.0083696224
-0.68027231
0.0017496805
-0.68044804
-0.0058035907
-0.67954486
-0.014249721
-0.67729821
-0.023380245
-0.67352072
-0.032652184
-0.6682697
-0.041109169
-0.66193645
-0.047664136
-0.65511031
-0.051640209
-0.64834572
-0.053004341
-0.64204417
-0.052152161
-0.63642778
-0.049663724
-0.63157569
-0.046106159
-0.62747342
-0.041945535
-0.62405636
-0.03752255
-0.62124022
-0.03306422
-0.61893933
-0.028707936
-0.61707614
-0.024526293
-0.61558505
-0.020547741
-0.61441314
-0.016772014
-0.61351935
-0.013181073
-0.61287309
-0.009746393
-0.61245268
-0.00643409
-0.0032020954
-0.62164382
0.017259093
-0.6224884
0.01747495
-0.62336599
0.017894712
-0.62429557
0.018542046
-0.62529845
0.01941801
-0.62639901
0.020526654
-0.62762544
0.021870262
-0.62901048
0.023447796
-0.63059177
0.025251416
-0.6324115
0.027261642
-0.63451449
0.029440829
-0.63694455
0.031726334
-0.63973912
0.034023855
-0.6429199
0.036197237
-0.64647538
0.038056826
-0.65034111
0.039371362
-0.65439785
0.039925593
-0.6584995
0.039596482
-0.66251386
0.038383737
-0.66635006
0.036374351
-0.66995993
0.03367423
-0.67332102
0.030354095
-0.67641784
0.026432005
-0.67922655
0.02187182
-0.68169546
0.016576813
-0.68371987
0.010394036
-0.68512445
0.0031542571
-0.68566065
-0.0052673929
-0.68501012
-0.014900251
-0.6827896
-0.025600756
-0.67866861
-0.03677318
-0.67264437
-0.047133411
-0.66523986
-0.055068644
-0.65729395
-0.059586115
-0.64955081
-0.060747483
-0.64250508
-0.059197897
-0.63638697
-0.055781834
-0.63123932
-0.051253801
-0.62699633
-0.046188523
-0.62354421
-0.040974675
-0.62075863
-0.035849798
-0.61852436
-0.030942202
-0.61674338
-0.026307273
-0.61533661
-0.021954517
-0.61424259
-0.017866031
-0.61341508
-0.01400858
-0.61282041
-0.010341069
-0.61243513
-0.0068193726
-0.0033922706
-0.6230649
0.017998422
-0.62381531
0.018225358
-0.62459582
0.01867522
-0.6254268
0.019373029
-0.62632991
0.020321118
-0.62733032
0.021527067
-0.62845805
0.022997994
-0.62974914
0.024738886
-0.63124661
0.026748883
-0.63300075
0.029015784
-0.63506765
0.031507732
-0.6375053
0.034163981
-0.64036798
0.036886538
-0.64369623
0.039525486
-0.64749269
0.041853286
-0.6516875
0.043566171
-0.65612819
0.044366287
-0.66062101
0.044089301
-0.66499615
0.042758875
-0.66915041
0.040528614
-0.67304705
0.037570869
-0.67668565
0.03399269
-0.68007409
0.029820449
-0.68321238
0.025010109
-0.68607014
0.019434572
-0.68854902
0.012872918
-0.69045253
0.0050577626
-0.69148001
-0.0042399129
-0.69122556
-0.015154698
-0.68914758
-0.027678735
-0.68468569
-0.04123507
-0.67769902
-0.054120081
-0.66889354
-0.063874123
-0.65951183
-0.068967828
-0.65056648
-0.069692837
-0.64266192
-0.06710245
-0.63601141
-0.062432347
-0.63058909
-0.056676118
-0.62625107
-0.050526547
-0.62281682
-0.044408929
-0.6201123
-0.038554312
-0.61798837
-0.033066139
-0.61632526
-0.027970379
-0.61503073
-0.023249044
-0.61403576
-0.018861003
-0.61328997
-0.014754367
-0.61275758
-0.010873458
-0.61241415
-0.007162805
-0.0035614721
-0.624581
0.018621637
-0.62522272
0.018867083
-0.62589571
0.019348208
-0.62661737
0.020094687
-0.62740837
0.021112116
-0.62829389
0.022412592
-0.62930516
0.024009259
-0.63048104
0.025914774
-0.63186981
0.028137644
-0.63353041
0.030676385
-0.63553195
0.033509274
-0.6379497
0.036581732
-0.64085952
0.039796356
-0.64432885
0.042994818
-0.64838579
0.045910226
-0.65295988
0.048140261
-0.65785272
0.049259122
-0.66279943
0.049036018
-0.66757535
0.04753479
-0.67206308
0.045016352
-0.67624874
0.04175652
-0.68016745
0.037911408
-0.68385955
0.033512544
-0.68735709
0.028507647
-0.69066319
0.022740675
-0.6936968
0.015906531
-0.69624201
0.0076029668
-0.69793986
-0.002542055
-0.69828643
-0.014808136
-0.69654483
-0.029420336
-0.69179735
-0.045982545
-0.6836078
-0.062309627
-0.67292288
-0.074559047
-0.66167148
-0.080219229
-0.65124412
-0.080120193
-0.64236425
-0.075982322
-0.63517577
-0.069620825
-0.6295321
-0.062319794
-0.62517409
-0.054884556
-0.62183331
-0.047749704
-0.61927626
-0.041111366
-0.61731677
-0.035025632
-0.61581366
-0.02947349
-0.61466313
-0.024399569
-0.61379051
-0.019733627
-0.61314303
-0.015401842
-0.61268421
-0.011332276
-0.61238964
-0.0074573788
-0.0037063114
-0.6261024
0.019143023
-0.62663347
0.019398153
-0.62719127
0.019906006
-0.62779377
0.020697184
-0.6284607
0.02177905
-0.62921682
0.023168713
-0.63009406
0.024886492
-0.63113377
0.026954489
-0.63238937
0.029393247
-0.63392915
0.032216161
-0.6358374
0.03541752
-0.63821071
0.038955049
-0.64115225
0.042737895
-0.64476683
0.046609392
-0.64912635
0.050269747
-0.65417162
0.053185533
-0.65963959
0.054727095
-0.66515427
0.054550699
-0.67040605
0.052786561
-0.67525757
0.04986788
-0.67973389
0.046232837
-0.6839236
0.042101115
-0.68790749
0.037496435
-0.69175703
0.032357187
-0.6955291
0.026512743
-0.69918564
0.019563072
-0.70250619
0.010923517
-0.70507702
2.8780649e-05
-0.70629151
-0.013593652
-0.70519484
-0.030517001
-0.70032623
-0.050851157
-0.69064119
-0.071994667
-0.67735315
-0.087847087
-0.66362476
-0.093947622
-0.65136793
-0.092377017
-0.6414107
-0.085939553
-0.63372502
-0.077306511
-0.62796229
-0.06808252
-0.62369885
-0.05914799
-0.62055489
-0.050893666
-0.61822944
-0.043436818
-0.61649908
-0.036755992
-0.61520397
-0.030768599
-0.61423223
-0.025371308
-0.61350666
-0.0204592
-0.61297462
-0.015933877
-0.61260079
-0.011706111
-0.61236207
-0.0076961017
-0.0038234288
-0.62772212
0.019527868
-0.62812797
0.019804
-0.6285617
0.020339742
-0.62903621
0.021171694
-0.62956854
0.022311375
-0.63018181
0.023781985
-0.63090748
0.025612161
-0.63178811
0.027835117
-0.63288088
0.030486021
-0.63426238
0.033597654
-0.63603269
0.037187836
-0.63831306
0.041235417
-0.64123901
0.045663845
-0.64496346
0.050333834
-0.64962978
0.054936076
-0.65521741
0.058773163
-0.66137461
0.060884289
-0.66754959
0.060725685
-0.6733042
0.058541162
-0.67847797
0.055041658
-0.68317105
0.050925918
-0.68756326
0.046493319
-0.69179212
0.041725296
-0.69597715
0.03654222
-0.70025956
0.030795154
-0.70468104
0.023984556
-0.70902991
0.015272382
-0.71279906
0.0037979355
-0.71527874
-0.011113977
-0.71532415
-0.030471595
-0.71071377
-0.05546153
-0.69922183
-0.083486604
-0.68219172
-0.1048772
-0.66512688
-0.11101246
-0.65061987
-0.10688402
-0.63953138
-0.097028048
-0.63146979
-0.085368102
-0.62576219
-0.073790121
-0.62175932
-0.063150855
-0.61894788
-0.053705111
-0.61695668
-0.045428014
-0.61552979
-0.03818288
-0.61449516
-0.031803229
-0.61373866
-0.026127812
-0.61318512
-0.021012739
-0.61278535
-0.016333645
-0.61250746
-0.011984003
-0.61233119
-0.0078723669
-0.0039096729
-0.62916885
0.019789339
-0.62944663
0.020081781
-0.62974701
0.020640116
-0.63008085
0.021505537
-0.63046188
0.022692406
-0.63091039
0.024230497
-0.63145591
0.026157678
-0.63214068
0.028519884
-0.63302426
0.031369608
-0.63419061
0.034764002
-0.63575698
0.038754207
-0.63787534
0.043353774
-0.64072239
0.0485109
-0.64451214
0.054123584
-0.64950209
0.059926021
-0.65577229
0.065043359
-0.66285588
0.067967879
-0.66991077
0.06778058
-0.67629916
0.064929553
-0.68182666
0.060569152
-0.68672583
0.055825093
-0.69132015
0.051087635
-0.69580694
0.046212085
-0.70032681
0.041062097
-0.70512569
0.035594034
-0.71036819
0.02922705
-0.71588617
0.020790361
-0.72108437
0.0089961395
-0.72517585
-0.0070224916
-0.72700348
-0.028643966
-0.72342674
-0.059038272
-0.70997525
-0.096938093
-0.68738456
-0.12746789
-0.66577325
-0.13262378
-0.64853215
-0.12412512
-0.63637001
-0.10919019
-0.62818813
-0.093549986
-0.62281186
-0.079166388
-0.61929954
-0.06666317
-0.61699153
-0.056013126
-0.61545439
-0.046965148
-0.61441237
-0.0392249
-0.61369263
-0.032522973
-0.61318742
-0.026633026
-0.61282965
-0.021370508
-0.6125776
-0.016585692
-0.61240545
-0.012156157
-0.61229743
-0.0079803809
-0.0039623042
-0.63032087
0.019888168
-0.63044994
0.020210849
-0.63059972
0.020789899
-0.63077442
0.021680233
-0.63098296
0.022900952
-0.63124184
0.024489372
-0.63157742
0.026493262
-0.63203
0.028972464
-0.63265926
0.031998859
-0.63355316
0.035657912
-0.63484302
0.04004406
-0.6367133
0.045224057
-0.63938704
0.051184637
-0.64314064
0.057877188
-0.64838853
0.065173906
-0.65542948
0.07208431
-0.66366198
0.076200383
-0.67173955
0.075858143
-0.67872657
0.071916575
-0.68437962
0.066222209
-0.68917586
0.060621325
-0.69367681
0.055588586
-0.69815317
0.050688453
-0.70271625
0.04562517
-0.70779208
0.040669864
-0.71380215
0.035237125
-0.72072933
0.027717539
-0.72796766
0.016234469
-0.73451496
-0.00047518647
-0.73943284
-0.023726087
-0.73855135
-0.059919766
-0.72369647
-0.11179297
-0.69264979
-0.15851457
-0.66482236
-0.16045121
-0.64439311
-0.14455438
-0.63145907
-0.12212422
-0.62363325
-0.10137581
-0.61900416
-0.083795479
-0.61628669
-0.069380638
-0.6146868
-0.057613019
-0.61373576
-0.047916183
-0.61316211
-0.039798554
-0.61280966
-0.032875426
-0.61258858
-0.026854102
-0.61244717
-0.021511922
-0.61235567
-0.016677183
-0.6122971
-0.012214727
-0.61226186
-0.0080156254
-0.0039792134
-0.62991102
0.019790074
-0.62986176
0.020161594
-0.62982932
0.020757458
-0.62980937
0.021660281
-0.62980392
0.022895506
-0.62982287
0.024508317
-0.62988546
0.026555851
-0.63002461
0.029111617
-0.63029325
0.032267495
-0.63077462
0.036139284
-0.63160429
0.04087373
-0.63299797
0.046617737
-0.63523908
0.053425747
-0.63867119
0.061309301
-0.64391048
0.07041319
-0.65172434
0.079898175
-0.66144905
0.085925089
-0.67080845
0.085217542
-0.6784483
0.079556426
-0.68401326
0.071787174
-0.6884296
0.065037667
-0.69265894
0.059817917
-0.69709839
0.055127912
-0.70168225
0.050209023
-0.70707688
0.046064492
-0.71410857
0.042268817
-0.72285759
0.036466561
-0.73288644
0.026263323
-0.74216674
0.008805115
-0.75078228
-0.01511055
-0.75445906
-0.056242979
-0.74069963
-0.12555241
-0.69660197
-0.20261223
-0.66068503
-0.19636815
-0.63712438
-0.16811502
-0.6242166
-0.135032
-0.61756229
-0.10803011
-0.6142722
-0.087085571
-0.61272918
-0.070923661
-0.61206606
-0.058276132
-0.61183501
-0.048147236
-0.61180733
-0.039826233
-0.61186714
-0.032815623
-0.61195634
-0.026764901
-0.61204652
-0.021421739
-0.61212445
-0.016599247
-0.61218456
-0.012154622
-0.61222487
-0.007975315
-0.0039591324
-0.62603881
0.019464036
-0.62575414
0.019876924
-0.62546399
0.020467316
-0.62516177
0.021358054
-0.6248422
0.022575939
-0.62450661
0.024172724
-0.62416395
0.02621319
-0.62383571
0.028783377
-0.62356362
0.031995409
-0.62342108
0.035996741
-0.6235398
0.040992453
-0.6241633
0.04724124
-0.62565795
0.054920391
-0.62843468
0.064086032
-0.63326563
0.075244138
-0.64175775
0.088390301
-0.653499
0.097666337
-0.66425563
0.095974169
-0.67219964
0.087500439
-0.67672127
0.076308807
-0.6797009
0.068017295
-0.68276354
0.062880558
-0.6865385
0.058902874
-0.690302
0.053972523
-0.69484536
0.05060785
-0.70191679
0.049340244
-0.71145679
0.046006568
-0.72439645
0.039202985
-0.7358464
0.020255062
-0.75012005
-0.0008369039
-0.76269265
-0.043670377
-0.75940232
-0.12884274
-0.69478035
-0.2672342
-0.65086114
-0.24028736
-0.62538531
-0.19359085
-0.61401689
-0.14640042
-0.60980088
-0.11224612
-0.60863699
-0.088249466
-0.60870411
-0.070856539
-0.60920683
-0.057773416
-0.60981375
-0.047540312
-0.61039242
-0.039247565
-0.61089523
-0.032312812
-0.61131021
-0.026349922
-0.61163962
-0.021092323
-0.6118906
-0.016348274
-0.61207097
-0.011974247
-0.61218749
-0.0078587999
-0.0039018179
-0.61265882
0.018657189
-0.61193639
0.0191545
-0.6111961
0.019727023
-0.61041121
0.020573159
-0.60956417
0.021728898
-0.60864308
0.023251643
-0.60763994
0.025210045
-0.60655449
0.027697927
-0.60540174
0.030842661
-0.60422161
0.03481661
-0.60310075
0.039871593
-0.60224609
0.04638658
-0.60206889
0.054743194
-0.60303653
0.06505367
-0.60586151
0.078069114
-0.61344188
0.095970674
-0.6270477
0.11127216
-0.6380814
0.10700787
-0.64488228
0.094301311
-0.64613583
0.077562363
-0.6456677
0.067549158
-0.64576271
0.062975572
-0.64756124
0.060701409
-0.648732
0.055143283
-0.64995876
0.051834609
-0.6565126
0.055894084
-0.6663837
0.055877665
-0.68413045
0.056949735
-0.69913421
0.035258831
-0.72807937
0.028108253
-0.75047834
-0.02127141
-0.7734677
-0.10585337
-0.67734772
-0.36335418
-0.63087634
-0.28675874
-0.60628534
-0.21818184
-0.59996023
-0.15272554
-0.60029324
-0.1119131
-0.60226851
-0.086274198
-0.60438779
-0.068737263
-0.60624256
-0.055918639
-0.60776338
-0.046019492
-0.60897737
-0.038033575
-0.60993235
-0.03135783
-0.61067417
-0.02560811
-0.61124087
-0.020525622
-0.61166217
-0.015926966
-0.61196036
-0.011676057
-0.61215131
-0.0076678537
-0.0038081783
-0.58480507
0.017437861
-0.58355346
0.017902891
-0.58220014
0.018373699
-0.5807408
0.019113819
-0.57914947
0.020137569
-0.57739568
0.021497855
-0.57544353
0.023257891
-0.57325422
0.025508619
-0.57079163
0.028380072
-0.56803052
0.032055502
-0.56497131
0.036812383
-0.56172132
0.043136588
-0.55872193
0.0517438
-0.55673761
0.063069357
-0.55633498
0.077666483
-0.56154966
0.10118535
-0.5801773
0.1298998
-0.59216551
0.11899608
-0.59833741
0.10047321
-0.59428982
0.073514775
-0.58808311
0.061342439
-0.58283115
0.057723616
-0.58215155
0.060021811
-0.58020251
0.053194247
-0.57459479
0.046226881
-0.5857444
0.032621884
-0.59608327
0.03760298
-0.60500553
0.040424861
-0.6035945
0.020503687
-0.63533123
0.039898405
-0.71445444
0.019786358
-0.66930582
-0.05472018
-0.60697516
-0.2273454
-0.57384141
-0.31989249
-0.57153185
-0.2204914
-0.58115484
-0.14310254
-0.58946612
-0.10360182
-0.5956292
-0.080111122
-0.60009465
-0.064271809
-0.60336707
-0.052646221
-0.60580091
-0.043585657
-0.60763281
-0.036201672
-0.60902108
-0.029969561
-0.6100735
-0.024555689
-0.61086469
-0.019734434
-0.61144675
-0.015344903
-0.61185599
-0.011266819
-0.61211705
-0.0074067906
-0.0036803226
-0.52723138
0.015080379
-0.52478533
0.015456838
-0.52218063
0.015768997
-0.51937433
0.016307519
-0.51631276
0.017075999
-0.51292951
0.018114604
-0.50914106
0.019469445
-0.50484521
0.021212768
-0.4999215
0.023456363
-0.4942369
0.026370905
-0.48765387
0.030229347
-0.48007214
0.035554857
-0.4716908
0.043362467
-0.46348114
0.054859699
-0.45575823
0.069943566
-0.44897662
0.094403748
-0.47178156
0.15270474
-0.47134158
0.11855611
-0.46204728
0.091178906
-0.43030876
0.041776256
-0.3982614
0.02929508
-0.37064148
0.030103698
-0.30627672
0.021343326
-0.16522323
0.013794417
-0.042132834
0.0078223953
0
0
0
0
0
0
0
0
0
0
0
0
0
0