/*--------------------------------*- C++ -*----------------------------------*\
| =========                 |                                                 |
| \\      /  F ield         | foam-extend: Open Source CFD                    |
|  \\    /   O peration     | Version:     4.1                                |
|   \\  /    A nd           | Web:         http://www.foam-extend.org         |
|    \\/     M anipulation  |                                                 |
\*---------------------------------------------------------------------------*/
FoamFile
{
    version     2.0;
    format      ascii;
    class       volScalarField;
    location    "1.25";
    object      rAU;
}
// * * * * * * * * * * * * * * * * * * * * * * * * * * * * * * * * * * * * * //

dimensions      [0 0 1 0 0 0 0];

internalField   nonuniform List<scalar> 
4393
(
0.00022765939
0.00022728694
0.00022692218
0.00022654951
0.00022616681
0.00022577266
0.00022536466
0.00022494161
0.00022450264
0.00022404754
0.00022357688
0.00022309213
0.00022259577
0.00022209129
0.00022158306
0.00022107718
0.00022057945
0.00022009687
0.00021963708
0.00021920771
0.00021881655
0.00021847134
0.00021817967
0.00021794878
0.0002177854
0.00021769552
0.00021768383
0.00021768383
0.00021775367
0.00021790617
0.00021813952
0.00021844871
0.00021882555
0.00021925898
0.0002197357
0.00022024116
0.0002207605
0.00022127949
0.00022178529
0.00022226685
0.00022271518
0.00022312331
0.00022348616
0.00022380026
0.00022406349
0.00022427485
0.00022443441
0.00022454267
0.00022458498
0.0002245277
0.00022420848
0.00022390413
0.00022359066
0.00022326531
0.00022292643
0.00022257176
0.00022220044
0.00022181203
0.00022140687
0.00022098621
0.00022055228
0.00022010844
0.00021965911
0.00021920959
0.00021876689
0.0002183376
0.00021792934
0.00021755023
0.00021720816
0.00021691106
0.00021666669
0.00021648255
0.00021636571
0.00021632257
0.00021635857
0.00021644737
0.00021642005
0.0002164613
0.00021658649
0.00021679715
0.00021709174
0.00021746511
0.0002179085
0.00021840989
0.000218955
0.00021952829
0.00022011423
0.00022069822
0.00022126729
0.00022181053
0.00022231921
0.00022278669
0.00022320823
0.00022358056
0.00022390152
0.00022417022
0.00022438815
0.00022454252
0.00022402417
0.00022371666
0.0002234176
0.00022310693
0.00022278191
0.00022244103
0.00022208227
0.00022170502
0.00022130927
0.00022089588
0.00022046671
0.00022002478
0.0002195743
0.00021912069
0.00021867025
0.00021823098
0.00021781037
0.0002174168
0.00021705891
0.00021674497
0.00021648309
0.00021628112
0.00021614655
0.00021608637
0.00021610681
0.00021621298
0.00021630789
0.00021618636
0.00021614584
0.0002161934
0.00021633399
0.00021656931
0.0002168968
0.00021730929
0.00021779523
0.00021833968
0.00021892565
0.00021953564
0.00022015284
0.00022076212
0.00022135062
0.00022190795
0.00022242616
0.0002228995
0.00022332395
0.00022369686
0.00022401714
0.00022428486
0.00022448033
0.00022367053
0.00022336832
0.0002230691
0.00022275523
0.00022242422
0.00022207476
0.00022170498
0.00022131453
0.00022090371
0.00022047382
0.00022002732
0.00021956796
0.00021910085
0.00021863244
0.00021817016
0.00021772318
0.00021730005
0.00021691009
0.00021656266
0.00021626651
0.00021603011
0.00021586148
0.0002157683
0.00021575767
0.00021583595
0.00021600822
0.00021610202
0.00021589411
0.00021576895
0.00021573714
0.00021580743
0.00021598505
0.00021627016
0.000216657
0.00021713402
0.00021768506
0.00021829105
0.00021893195
0.00021958837
0.00022024281
0.00022088038
0.00022148908
0.00022205977
0.00022258583
0.00022306275
0.00022348768
0.0002238594
0.00022417691
0.00022442205
0.0002233104
0.00022301226
0.0002227133
0.00022239655
0.0002220597
0.00022170156
0.00022132041
0.00022091604
0.00022048902
0.00022004103
0.00021957506
0.00021909558
0.00021860858
0.0002181216
0.00021764332
0.00021718419
0.00021675401
0.00021636314
0.00021602176
0.00021573918
0.0002155242
0.0002153851
0.00021532978
0.00021536564
0.00021549936
0.00021573638
0.00021583999
0.00021554124
0.00021532744
0.00021521324
0.0002152118
0.00021533244
0.0002155783
0.00021594494
0.00021642029
0.00021698624
0.00021762085
0.00021830087
0.00021900385
0.00021970961
0.00022040114
0.00022106487
0.0002216906
0.00022227107
0.00022280145
0.0002232789
0.00022370209
0.00022406983
0.00022436626
0.00022293455
0.00022264101
0.00022234336
0.00022202468
0.00022168278
0.00022131653
0.00022092423
0.00022050579
0.00022006196
0.0002195947
0.00021910747
0.00021860539
0.00021809537
0.0002175861
0.00021708762
0.00021661185
0.00021617002
0.00021577371
0.000215434
0.00021516077
0.00021496316
0.00021484972
0.00021482862
0.00021490771
0.0002150943
0.0002153946
0.00021552329
0.00021512783
0.00021481974
0.00021461833
0.00021454203
0.00021460512
0.00021481424
0.00021516618
0.00021564776
0.00021623798
0.00021691099
0.00021763948
0.00021839728
0.00021916122
0.00021991205
0.00022063472
0.00022131815
0.00022195468
0.00022253948
0.00022306991
0.00022354485
0.00022396355
0.00022431193
0.00022254345
0.00022225521
0.00022195988
0.00022164029
0.0002212942
0.00022092043
0.00022051727
0.00022008463
0.00021962333
0.00021913553
0.00021862506
0.00021809765
0.00021756112
0.00021702537
0.00021650198
0.00021600459
0.00021554611
0.00021513953
0.00021479693
0.00021452877
0.00021434448
0.00021425279
0.00021426216
0.00021438106
0.00021461772
0.00021497964
0.00021515396
0.00021465447
0.00021424456
0.00021394904
0.00021379283
0.00021379642
0.00021397077
0.00021431393
0.00021481083
0.00021543627
0.0002161592
0.0002169471
0.00021776935
0.00021859934
0.00021941552
0.00022020143
0.00022094536
0.00022163957
0.00022227949
0.00022286295
0.00022338939
0.00022385889
0.00022425881
0.00022213912
0.00022185752
0.0002215657
0.00022124621
0.00022089677
0.00022051609
0.00022010232
0.00021965529
0.00021917574
0.00021866594
0.00021812996
0.00021757407
0.00021700697
0.00021643989
0.00021588616
0.00021536143
0.00021488067
0.00021445852
0.00021410817
0.00021384061
0.00021366543
0.00021359141
0.00021362725
0.00021378212
0.00021406554
0.00021448688
0.00021473357
0.00021412103
0.00021359958
0.00021320053
0.00021295687
0.00021289721
0.00021303815
0.00021337906
0.00021390188
0.00021457552
0.00021536191
0.00021622192
0.00021711957
0.00021802442
0.00021891252
0.00021976626
0.00022057357
0.000221327
0.0002220226
0.000222659
0.00022323652
0.00022375625
0.00022420684
0.00022172323
0.00022144912
0.0002211619
0.00022084359
0.00022049173
0.00022010483
0.00021968082
0.00021921927
0.00021872077
0.00021818747
0.00021762358
0.00021703579
0.00021643366
0.00021582982
0.00021523961
0.00021468115
0.00021417188
0.00021372849
0.00021336538
0.00021309397
0.00021292373
0.00021286323
0.0002129213
0.00021310783
0.000213434
0.00021391173
0.00021426502
0.00021352859
0.00021288331
0.00021236816
0.0002120264
0.0002118975
0.0002120057
0.00021235191
0.00021291352
0.00021365107
0.00021451713
0.00021546417
0.00021644975
0.00021743921
0.00021840627
0.00021933244
0.0002202058
0.00022101961
0.000221771
0.00022245975
0.00022308737
0.00022365621
0.00022415618
0.00022129779
0.00022103305
0.00022075184
0.0002204359
0.00022008265
0.00021969031
0.00021925648
0.00021878037
0.00021826219
0.00021770382
0.0002171094
0.00021648588
0.00021584361
0.00021519671
0.00021456285
0.00021396318
0.00021341829
0.00021294739
0.00021256624
0.00021228646
0.00021211699
0.00021206579
0.0002121415
0.00021235473
0.00021271862
0.00021324847
0.00021375168
0.00021287854
0.00021209411
0.00021144639
0.00021099178
0.00021078458
0.00021085988
0.00021122048
0.00021183684
0.0002126577
0.000213623
0.00021467457
0.00021576235
0.00021684712
0.0002179005
0.00021890364
0.00021984536
0.00022072025
0.00022152699
0.00022226696
0.00022294319
0.00022355947
0.00022410711
0.00022086541
0.00022061063
0.00022033652
0.00022002414
0.0002196706
0.00021927374
0.0002188307
0.00021834015
0.00021780172
0.00021721679
0.00021658919
0.00021592591
0.00021523793
0.00021454091
0.00021385523
0.00021320583
0.0002126174
0.00021211233
0.00021170791
0.00021141558
0.00021124311
0.00021119717
0.00021128576
0.00021152
0.00021191532
0.00021249127
0.00021319156
0.000212174
0.00021123161
0.00021042994
0.00020984217
0.00020954339
0.00020958454
0.0002099709
0.00021066235
0.00021159082
0.00021267922
0.00021385591
0.00021506202
0.00021625359
0.0002174007
0.00021848493
0.00021949667
0.00022043257
0.00022129347
0.0002220828
0.00022280546
0.00022346692
0.00022405999
0.00022042702
0.00022018475
0.00021991952
0.00021961222
0.0002192598
0.00021885965
0.00021840833
0.0002179038
0.00021734487
0.00021673212
0.00021606872
0.0002153614
0.00021462152
0.00021386623
0.00021311905
0.00021240972
0.00021176835
0.00021122159
0.00021078844
0.00021047956
0.00021030057
0.0002102559
0.0002103522
0.00021060077
0.00021101945
0.00021163308
0.00021247111
0.00021141951
0.00021029659
0.00020931346
0.00020856473
0.00020815499
0.00020815916
0.0002085861
0.00020937926
0.00021044626
0.00021168702
0.00021301308
0.00021435552
0.000215666
0.00021691396
0.00021808263
0.00021916506
0.00022016088
0.00022107377
0.00022190974
0.00022267589
0.00022337957
0.0002240153
0.0002199879
0.00021975823
0.00021950294
0.00021920206
0.00021885212
0.00021844996
0.00021799144
0.00021747355
0.00021689404
0.0002162523
0.00021555045
0.00021479454
0.00021399592
0.00021317303
0.00021235293
0.00021157157
0.00021086648
0.00021027007
0.00020980334
0.00020947521
0.00020928758
0.00020924127
0.00020934051
0.00020959613
0.00021002835
0.00021066826
0.00021155562
0.00021062315
0.00020929249
0.00020809266
0.00020714479
0.00020659564
0.00020655764
0.00020704525
0.00020797565
0.00020922112
0.00021065034
0.00021215411
0.00021365269
0.00021509429
0.00021644941
0.00021770457
0.00021885694
0.00021991022
0.00022087174
0.00022175059
0.00022255639
0.00022329859
0.00022397357
0.00021954673
0.00021933299
0.00021908984
0.00021879733
0.00021845184
0.00021804966
0.0002175858
0.00021705611
0.00021645692
0.00021578601
0.0002150439
0.00021423535
0.00021337111
0.00021247041
0.00021156413
0.00021069616
0.00020991441
0.00020925938
0.00020875446
0.00020840526
0.00020820764
0.00020815689
0.0002082536
0.00020850726
0.0002089401
0.00020959043
0.00021051082
0.00020979656
0.00020822621
0.00020676509
0.00020556561
0.00020483488
0.00020474566
0.00020532225
0.00020643844
0.00020791457
0.00020957684
0.00021129119
0.00021296711
0.00021455147
0.00021601841
0.00021736015
0.00021857979
0.00021968636
0.00022069168
0.00022160842
0.00022244907
0.00022322529
0.00022393541
0.00021911417
0.00021891582
0.00021868583
0.00021840326
0.00021806403
0.00021766374
0.00021719637
0.00021665644
0.00021603848
0.00021533811
0.00021455357
0.00021368759
0.00021274943
0.00021175823
0.0002107486
0.00020977478
0.00020889948
0.00020817519
0.00020762831
0.00020725878
0.00020705286
0.00020699761
0.00020708841
0.00020733197
0.00020775136
0.0002083925
0.00020932352
0.00020895624
0.00020710993
0.0002053321
0.00020380897
0.0002028331
0.0002026769
0.00020338405
0.00020475372
0.00020652948
0.00020847982
0.00021044217
0.00021231711
0.00021405407
0.00021563482
0.0002170604
0.00021834206
0.00021949562
0.00022053821
0.00022148654
0.00022235615
0.00022316102
0.00022390146
0.00021868177
0.00021850281
0.00021828841
0.00021801803
0.00021768755
0.00021729194
0.00021682412
0.00021627703
0.00021564307
0.00021491513
0.00021408833
0.00021316234
0.00021214378
0.0002110501
0.00020991874
0.00020881691
0.000207829
0.00020702538
0.00020643626
0.00020605177
0.00020584281
0.00020578429
0.00020586477
0.00020608675
0.00020647236
0.00020707536
0.00020798311
0.00020812781
0.00020596403
0.00020380192
0.00020185678
0.00020053846
0.00020028685
0.00020118824
0.0002029076
0.00020507502
0.00020738079
0.00020963252
0.00021172694
0.00021362276
0.00021531508
0.00021681786
0.00021815308
0.00021934479
0.00022041617
0.00022138832
0.0002222799
0.0002231072
0.00022387242
0.00021827226
0.00021811147
0.00021791374
0.00021765762
0.00021733854
0.00021695074
0.00021648593
0.00021593523
0.0002152885
0.00021453517
0.00021366609
0.00021267649
0.00021156877
0.00021035622
0.00020907655
0.00020781275
0.00020668159
0.00020578152
0.00020514811
0.00020475565
0.00020455107
0.00020449239
0.00020456071
0.00020475326
0.00020508754
0.00020562306
0.00020646911
0.00020733258
0.00020481799
0.00020219494
0.00019969589
0.00019788381
0.00019748265
0.0001986801
0.00020088832
0.00020357103
0.00020631343
0.00020889787
0.00021122805
0.00021328272
0.00021507821
0.00021664638
0.00021802269
0.00021924077
0.00022033038
0.00022131707
0.00022222254
0.00022306519
0.00022384894
0.00021786491
0.00021772659
0.00021754794
0.00021730836
0.00021700349
0.00021662693
0.00021616918
0.00021561946
0.00021496482
0.00021419068
0.00021328246
0.00021222939
0.00021102786
0.00020968374
0.00020822969
0.00020676599
0.00020545844
0.00020445085
0.00020378578
0.00020341135
0.00020323543
0.00020319113
0.0002032518
0.00020340833
0.00020366619
0.00020408594
0.00020480306
0.00020600578
0.00020373159
0.00020055875
0.00019733103
0.00019478789
0.00019412796
0.00019579011
0.00019869084
0.00020205535
0.00020532924
0.00020828724
0.00021086036
0.00021306374
0.00021494534
0.0002165605
0.00021796076
0.00021919023
0.00022028534
0.00022127584
0.00022218609
0.00022303625
0.00022383165
0.00021751764
0.00021739996
0.00021724171
0.00021702158
0.00021673503
0.00021637506
0.00021593098
0.00021539006
0.00021473627
0.00021395033
0.00021301064
0.00021189777
0.00021059944
0.00020910957
0.0002074454
0.00020572094
0.00020417707
0.00020303411
0.00020234333
0.00020201113
0.00020188217
0.0002018542
0.00020189825
0.00020200482
0.00020215852
0.00020241448
0.000202939
0.0002039784
0.000202772
0.00019898553
0.00019482504
0.000191181
0.00019002677
0.00019243451
0.00019632559
0.00020059558
0.0002045059
0.00020786697
0.00021067327
0.00021299989
0.0002149389
0.00021657465
0.0002179765
0.00021919907
0.00022028488
0.00022126714
0.00022217221
0.00022302145
0.0002238211
0.00021725046
0.00021715798
0.00021702413
0.000216828
0.0002165654
0.00021622879
0.00021580632
0.00021528324
0.00021464036
0.00021385328
0.0002128921
0.00021172604
0.00021033154
0.00020868738
0.00020678018
0.00020472247
0.00020287038
0.00020158069
0.00020091082
0.00020070158
0.00020069175
0.00020072783
0.00020078987
0.00020088249
0.00020094441
0.00020100128
0.0002012451
0.00020198604
0.00020231378
0.00019780247
0.00019242388
0.00018709097
0.00018492092
0.00018853281
0.00019384496
0.00019931211
0.00020396004
0.00020772512
0.00021072581
0.00021312798
0.00021508095
0.00021670177
0.00021807746
0.00021927177
0.00022033174
0.00022129274
0.00022218208
0.00022302155
0.00022381772
0.00021730931
0.00021724469
0.00021714112
0.00021697667
0.00021674749
0.00021644578
0.00021605907
0.00021557126
0.00021496068
0.00021419844
0.00021324593
0.00021205741
0.00021059282
0.00020881221
0.00020664849
0.00020416479
0.00020188492
0.00020042711
0.0001998349
0.0001998546
0.00020004226
0.00020016835
0.00020023921
0.00020031342
0.00020024128
0.00019998438
0.00019978729
0.00020001984
0.00020114226
0.00019737512
0.00019062835
0.00018287902
0.00017857175
0.00018411864
0.00019142596
0.00019841567
0.00020386303
0.00020797442
0.00021108441
0.00021348442
0.00021539049
0.00021695144
0.00021826838
0.00021941068
0.00022042715
0.00022135335
0.0002222162
0.00022303695
0.00022382174
0.00021806229
0.00021803258
0.0002179739
0.00021785927
0.00021768489
0.0002174429
0.00021712075
0.00021670153
0.00021616143
0.00021546711
0.00021457023
0.00021340467
0.00021190347
0.00021000613
0.00020757596
0.00020452427
0.000201597
0.00019997927
0.00019961521
0.00020013278
0.00020073644
0.00020108138
0.00020122553
0.00020140913
0.00020134251
0.00020081229
0.00020021033
0.00019977257
0.0002007375
0.00019973066
0.00019126088
0.00017998195
0.00017090247
0.00017960697
0.00018943275
0.00019823176
0.00020445438
0.0002087512
0.00021181654
0.0002140993
0.00021587948
0.00021732755
0.00021854986
0.00021961525
0.00022057037
0.00022144843
0.00022227428
0.00022306756
0.00022383324
0.00022070236
0.00022074906
0.00022077756
0.00022075623
0.00022068317
0.00022055138
0.00022034953
0.00022006161
0.00021966378
0.00021912125
0.00021838043
0.00021735726
0.00021594961
0.00021407604
0.00021154197
0.00020789655
0.00020401966
0.00020248102
0.00020275626
0.00020440118
0.00020587285
0.00020672643
0.00020709417
0.00020773578
0.00020810309
0.00020719249
0.00020607467
0.00020423232
0.00020489451
0.00020344793
0.00019646458
0.00018114558
0.0001621754
0.00017625197
0.00018864763
0.00019945507
0.00020611384
0.0002102164
0.00021297832
0.00021498692
0.00021654756
0.0002178256
0.00021891707
0.00021988153
0.00022075852
0.00022157603
0.00022235516
0.00022311282
0.00022385201
0.0002264351
0.00022657519
0.00022673448
0.00022685954
0.0002269481
0.00022699523
0.00022699359
0.00022693214
0.00022679222
0.00022654392
0.00022613629
0.00022547197
0.00022438925
0.00022272526
0.00022024768
0.0002158499
0.00020971505
0.00020837355
0.00020951466
0.00021322344
0.00021621116
0.00021805744
0.00021861286
0.00022004902
0.00022178634
9.2919924e-05
9.5422993e-05
9.7674541e-05
9.9863601e-05
0.00010287151
9.4454915e-05
8.6188261e-05
0.0001065843
0.00017927443
0.00019338374
0.00020408562
0.00020941947
0.00021250489
0.00021458001
0.00021613
0.00021737563
0.00021843036
0.00021935893
0.0002202018
0.0002209864
0.00022173281
0.00022245682
0.00022317166
0.00022387765
0.00023918167
0.0002396185
0.00024010735
0.00024058271
0.00024105352
0.00024152363
0.00024199729
0.00024247747
0.00024296199
0.00024343896
0.00024387482
0.00024417678
0.00024412484
0.00024338447
0.00024175975
0.00023789642
0.00022679589
0.00022917276
0.00023516599
0.0002488859
0.00026033692
0.00026907218
0.00012775369
0.00016613732
0.00032032272
0.00046066415
0.00049956686
0.00049956686
0.00049956686
0.00049956686
0.00049956686
0.00045030811
0.00033647471
6.8070435e-05
0.00021292512
0.00021342058
0.00021434509
0.00021546566
0.00021651168
0.00021745964
0.00021832118
0.0002191151
0.00021985832
0.00022056493
0.00022124676
0.00022191413
0.00022257642
0.00022324251
0.00022390951
0.00026413985
0.00026511494
0.00026623522
0.00026740134
0.00026863347
0.00026995551
0.00027140034
0.00027300919
0.0002748328
0.0002769353
0.00027939891
0.00028231549
0.00028577376
0.00028979936
0.00029421643
0.00030129988
0.00027300166
0.00030322921
0.00035408418
0.0003733406
0.00027927846
0.00032379034
0.00049956686
0.00049956686
0.00049956686
0.00049956686
0.00049956686
0.00049956686
0.00049956686
0.00049956686
0.00041266813
0.00041832448
0.00010205395
0.00026652326
0.00023109305
0.00022205952
0.00021924369
0.00021850765
0.00021853062
0.00021886112
0.00021932339
0.00021984472
0.00022039376
0.00022095732
0.00022153087
0.0002221144
0.00022271051
0.00022332342
0.00022394673
0.00030190809
0.00030400082
0.00030609476
0.00030826952
0.00031059903
0.00031315477
0.00031602102
0.00031930882
0.00032317476
0.00032785886
0.00033375433
0.00034143892
0.00035151059
0.00036451674
0.00038465663
0.00040321985
0.000253132
0.00025753611
0.00026255677
0.00049253975
0.00047805961
0.00048771908
0.00047870317
0.00047372687
0.00047746842
0.00045866691
0.00045173042
0.0004535277
0.00044095426
0.00043654709
0.00010694396
0.00010769445
0.00021985977
0.00025238031
0.00023691221
0.00022737826
0.00022308728
0.0002211939
0.00022042719
0.0002202251
0.00022032091
0.00022058274
0.00022094258
0.00022136444
0.00022182927
0.0002223275
0.00022285525
0.00022341217
0.00022398831
0.00028915641
0.00028969992
0.00028992427
0.00029013793
0.00029034187
0.00029056702
0.00029083949
0.00029119691
0.00029169352
0.00029240879
0.00029346567
0.00029453404
0.00029550002
0.00029627223
0.00029372785
0.00010335877
0.00037678424
0.00047180674
0.00047251083
0.00049381367
0.00048612784
0.00048244606
0.00012423251
0.00012129826
0.00010078575
0.00010007123
0.0001006473
0.00010199219
0.00010294674
0.00010454143
0.00020125168
0.00020772844
0.00021814744
0.00023908803
0.00023960131
0.00023073389
0.00022593255
0.00022339417
0.0002220878
0.00022147444
0.00022126395
0.000221297
0.00022148373
0.00022177232
0.00022213262
0.00022254721
0.00022300662
0.00022350637
0.00022403315
0.00022341679
0.00022323888
0.00022293558
0.00022263962
0.00022235957
0.00022211325
0.00022191716
0.00022179491
0.00022177883
0.00022191337
0.00022226201
0.00022211373
0.00022119528
0.00021947322
0.00021683535
0.00021338413
9.6029264e-05
9.9189467e-05
9.9884135e-05
9.979018e-05
0.00010016507
0.00010019177
0.00021256601
0.0002108381
0.00020895318
0.00020556766
0.00020446003
0.00020390523
0.00020213728
0.00020215911
0.00020334403
0.00020905875
0.00021829199
0.00023223526
0.00023803585
0.00023245934
0.00022783557
0.00022506906
0.0002234574
0.00022256222
0.00022211747
0.00022196253
0.00022199965
0.00022216868
0.00022243236
0.00022276766
0.00022316073
0.00022360366
0.00022408011
0.00021919576
0.00021927312
0.00021939915
0.00021953533
0.00021969252
0.00021988246
0.00022011725
0.0002204123
0.00022078617
0.00022126069
0.00022183335
0.00022158308
0.00022083788
0.00021961857
0.00021788022
0.0002151226
0.00021265899
0.00021414554
0.00021596806
0.00021422832
0.00021239924
0.00021123462
0.00021008013
0.00020835788
0.00020732444
0.00020570811
0.0002048032
0.00020423061
0.0002035075
0.00020397963
0.00020596801
0.00021093075
0.00021859687
0.00022815875
0.00023388038
0.0002331633
0.00022900189
0.00022626803
0.00022453151
0.00022346939
0.00022286154
0.0002225625
0.00022247721
0.00022254363
0.00022272122
0.00022298363
0.00022331398
0.00022370176
0.00022412807
0.00021780145
0.00021788231
0.00021800976
0.0002181512
0.00021830923
0.00021849103
0.00021870468
0.00021896078
0.00021927131
0.00021964933
0.00021998912
0.00021950301
0.00021875676
0.00021770036
0.00021630274
0.00021450124
0.00021338053
0.00021421346
0.00021530599
0.00021349855
0.00021191172
0.00021069621
0.00020954254
0.00020832901
0.00020737559
0.0002063181
0.00020566935
0.00020531078
0.00020523903
0.00020611788
0.00020836533
0.00021265928
0.00021880238
0.00022565937
0.00023034356
0.00023232379
0.00022961159
0.00022706572
0.00022533259
0.00022419629
0.00022348859
0.0002230876
0.00022290776
0.00022288991
0.00022299345
0.00022319074
0.00022346323
0.00022379861
0.000224176
0.00021712131
0.00021724296
0.0002173845
0.00021753806
0.00021770923
0.00021790409
0.00021812842
0.00021838929
0.00021869327
0.00021904528
0.00021922476
0.00021878782
0.00021814673
0.00021727215
0.00021614598
0.00021490927
0.00021429002
0.00021478487
0.00021502229
0.00021340807
0.00021201843
0.00021087153
0.00020981762
0.00020883853
0.00020802051
0.00020728686
0.0002068702
0.00020675755
0.00020705615
0.00020815202
0.00021036756
0.00021402834
0.0002189095
0.00022404927
0.00022790193
0.00023025514
0.00022983331
0.000227546
0.00022589762
0.0002247559
0.00022400035
0.00022353482
0.00022328671
0.00022320284
0.00022324488
0.00022338559
0.00022360588
0.00022389244
0.00022422296
0.00021683443
0.00021690953
0.00021702761
0.00021716511
0.00021732003
0.00021749565
0.00021769547
0.00021792407
0.00021818501
0.0002184795
0.0002185346
0.00021815153
0.00021762866
0.00021695462
0.00021614214
0.00021536307
0.00021505517
0.00021543915
0.00021497533
0.00021358664
0.00021236965
0.00021132895
0.00021039971
0.00020958239
0.00020891055
0.00020839462
0.00020815595
0.0002082311
0.00020873719
0.00020991532
0.0002119834
0.00021508383
0.00021898625
0.00022297942
0.00022617447
0.00022833722
0.00022930928
0.0002277826
0.00022626705
0.00022516769
0.00022440452
0.00022390576
0.00022361279
0.00022347999
0.00022347284
0.00022356569
0.00022373988
0.00022398179
0.00022426817
0.00021669438
0.0002168085
0.00021693578
0.00021707361
0.00021722578
0.00021739513
0.00021758312
0.00021779135
0.00021801963
0.00021826464
0.00021826018
0.00021791785
0.00021747435
0.0002169344
0.00021633742
0.0002158385
0.00021570067
0.00021597952
0.00021502684
0.00021384873
0.00021279379
0.00021187387
0.00021106925
0.00021038795
0.00020985328
0.00020949804
0.00020939773
0.00020960505
0.00021022146
0.00021140301
0.00021328558
0.00021591346
0.00021907469
0.0002222661
0.00022494019
0.00022688718
0.00022811846
0.00022784117
0.00022648044
0.00022545377
0.00022471232
0.00022420525
0.00022388727
0.00022372081
0.00022367595
0.00022372947
0.00022386379
0.00022406553
0.00022431098
0.00021662499
0.00021669704
0.00021680533
0.00021693059
0.0002170703
0.00021722542
0.00021739597
0.00021758197
0.00021778137
0.00021798862
0.00021797943
0.00021770019
0.00021735191
0.00021694756
0.00021653465
0.00021623556
0.00021621274
0.00021614765
0.00021511895
0.00021412792
0.00021322454
0.00021242896
0.00021174412
0.00021118373
0.00021077083
0.0002105412
0.00021054944
0.00021084827
0.00021151782
0.00021265977
0.0002143521
0.00021658831
0.00021918687
0.00022179439
0.00022405296
0.0002257884
0.00022697533
0.00022751275
0.00022657205
0.00022563589
0.0002249364
0.00022443997
0.00022411316
0.00022392618
0.00022385394
0.00022387612
0.00022397666
0.00022414285
0.00022435092
0.00021657521
0.00021666807
0.00021677657
0.00021689459
0.00021702356
0.00021716434
0.00021731589
0.0002174769
0.00021764392
0.00021781015
0.00021780727
0.00021757495
0.00021729933
0.00021699908
0.00021672113
0.00021655742
0.0002166021
0.00021607805
0.00021523307
0.00021440542
0.00021364177
0.00021296726
0.00021239599
0.00021194554
0.00021163962
0.00021151161
0.00021160456
0.00021196487
0.00021265273
0.00021373326
0.00021524593
0.00021716007
0.00021932654
0.00022149477
0.0002234192
0.00022495958
0.00022607618
0.00022679918
0.00022657195
0.00022573432
0.00022508963
0.00022461756
0.00022429461
0.00022409801
0.00022400741
0.00022400549
0.00022407802
0.00022421325
0.00022438765
0.00021654672
0.00021661513
0.00021671182
0.00021682097
0.00021694037
0.00021706962
0.00021720676
0.00021734951
0.00021749346
0.00021763115
0.00021765751
0.00021747464
0.00021726672
0.00021705459
0.00021688036
0.00021681253
0.0002167048
0.00021606003
0.00021536642
0.00021468066
0.00021404399
0.00021348329
0.00021301774
0.00021266705
0.00021245466
0.00021241026
0.00021256889
0.00021296872
0.00021365337
0.00021466303
0.00021601279
0.00021766248
0.00021949212
0.00022132093
0.00022297395
0.00022433952
0.00022537449
0.00022608859
0.00022638556
0.00022576663
0.00022518415
0.00022474587
0.00022443635
0.00022423891
0.00022413755
0.00022411795
0.0002241678
0.00022427648
0.00022442097
0.00021652631
0.0002166002
0.00021669227
0.00021679259
0.00021690074
0.00021701627
0.00021713681
0.00021725962
0.00021738
0.00021749061
0.00021754585
0.00021740424
0.00021725178
0.00021710918
0.00021701222
0.00021695048
0.00021661068
0.00021608395
0.00021551714
0.00021495484
0.00021443264
0.00021397689
0.00021360852
0.00021334779
0.00021321697
0.0002132419
0.00021345118
0.0002138749
0.00021454362
0.00021548051
0.00021668597
0.0002181181
0.00021968113
0.00022124204
0.00022267239
0.00022388346
0.0002248338
0.00022552174
0.00022597166
0.00022574805
0.00022523104
0.00022483251
0.00022454333
0.00022435188
0.00022424604
0.00022421428
0.00022424623
0.00022433252
0.0002244508
0.00021651868
0.00021658044
0.00021666473
0.00021675758
0.00021685702
0.00021696203
0.00021706981
0.00021717734
0.00021727985
0.00021737037
0.00021743594
0.00021735063
0.00021724486
0.00021715745
0.00021710384
0.0002169326
0.00021657081
0.0002161425
0.00021568344
0.0002152289
0.0002148093
0.0002144492
0.00021416933
0.00021398935
0.00021392969
0.00021401249
0.00021426084
0.00021469771
0.00021534363
0.00021621033
0.00021728981
0.00021854223
0.00021989118
0.00022123681
0.0002224826
0.00022355789
0.00022442512
0.00022507664
0.00022552625
0.00022566906
0.00022524006
0.00022488459
0.00022462045
0.00022444012
0.00022433481
0.00022429554
0.0002243138
0.00022438153
0.00022447715
0.00021651819
0.00021657842
0.0002166571
0.00021674217
0.00021683225
0.0002169263
0.00021702141
0.00021711457
0.00021720121
0.00021727506
0.00021732773
0.00021730948
0.00021724156
0.00021718584
0.00021709429
0.00021686822
0.0002165731
0.00021622869
0.00021586238
0.00021550242
0.0002151746
0.00021490111
0.00021470141
0.00021459376
0.00021459637
0.0002147279
0.00021500667
0.00021544963
0.00021606982
0.00021687132
0.00021784176
0.00021894497
0.00022011973
0.00022128967
0.00022238091
0.00022333694
0.00022412483
0.00022473421
0.00022517215
0.00022545683
0.00022521954
0.00022490854
0.00022467238
0.00022450685
0.00022440596
0.00022436299
0.00022437119
0.0002244238
0.00022450011
0.00021652603
0.00021657986
0.00021665274
0.0002167313
0.00021681369
0.0002168987
0.00021698341
0.00021706492
0.00021713905
0.0002172003
0.00021724166
0.00021725307
0.00021721533
0.00021715763
0.00021702973
0.00021684455
0.00021660825
0.00021633656
0.00021605104
0.00021577455
0.0002155289
0.00021533367
0.00021520647
0.00021516371
0.00021522119
0.00021539429
0.00021569724
0.00021614204
0.00021673617
0.00021747872
0.00021835536
0.00021933403
0.00022036534
0.00022138998
0.00022235048
0.00022320151
0.00022391478
0.00022447916
0.00022489756
0.00022518258
0.00022517684
0.00022491017
0.00022470353
0.00022455524
0.00022446164
0.00022441799
0.00022441917
0.00022445971
0.00022451983
0.0002165397
0.00021659027
0.00021665819
0.00021673051
0.00021680555
0.00021688216
0.00021695752
0.00021702897
0.00021709282
0.00021714439
0.00021717797
0.00021718698
0.00021716433
0.00021710332
0.00021699908
0.00021685211
0.00021666829
0.00021646048
0.00021624608
0.00021604375
0.00021587187
0.00021574742
0.0002156859
0.00021570161
0.00021580788
0.00021601711
0.00021633994
0.00021678437
0.00021735376
0.00021804403
0.00021884024
0.00021971438
0.00022062627
0.00022152919
0.00022237795
0.00022313606
0.00022377961
0.00022429785
0.00022469129
0.00022496875
0.0002251015
0.00022489443
0.00022471782
0.00022458825
0.00022450397
0.00022446195
0.00022445858
0.00022448969
0.00022453647
0.00021655861
0.00021660525
0.00021666872
0.00021673571
0.00021680445
0.00021687388
0.00021694135
0.00021700452
0.00021706024
0.00021710468
0.00021713335
0.00021714127
0.00021712343
0.00021707546
0.00021699483
0.00021688341
0.00021674678
0.00021659574
0.00021644454
0.00021630857
0.00021620326
0.0002161431
0.00021614137
0.00021621019
0.00021636048
0.00021660186
0.00021694189
0.00021738529
0.00021793239
0.00021857706
0.00021930458
0.00022009054
0.00022090202
0.00022170182
0.00022245405
0.00022312935
0.00022370781
0.00022417971
0.0002245444
0.0002248082