/*--------------------------------*- C++ -*----------------------------------*\
| =========                 |                                                 |
| \\      /  F ield         | foam-extend: Open Source CFD                    |
|  \\    /   O peration     | Version:     4.1                                |
|   \\  /    A nd           | Web:         http://www.foam-extend.org         |
|    \\/     M anipulation  |                                                 |
\*---------------------------------------------------------------------------*/
FoamFile
{
    version     2.0;
    format      ascii;
    class       volScalarField;
    location    "0.6";
    object      p;
}
// * * * * * * * * * * * * * * * * * * * * * * * * * * * * * * * * * * * * * //

dimensions      [0 2 -2 0 0 0 0];

internalField   nonuniform List<scalar> 
4242
(
-10423.513
-10192.339
-9832.4626
-9412.1925
-8921.1779
-8356.1462
-7712.6529
-6990.7753
-6196.317
-5342.3045
-4449.4857
-3545.0011
-2661.2331
-1837.4875
-1106.1133
-406.54401
-12882.047
-12614.031
-12169.053
-11660.834
-11085.483
-10443.717
-9734.9138
-8961.6388
-8129.2683
-7246.9063
-6327.9382
-5389.8811
-4454.3452
-3549.9785
-2710.4112
-1936.0162
-15783.386
-15494.438
-14991.898
-14422.487
-13778.96
-13060.149
-12265.506
-11398.624
-10466.419
-9480.1247
-8454.9429
-7409.3498
-6363.9885
-5341.5081
-4366.4114
-3471.5391
-18362.295
-18083.198
-17550.525
-16939.588
-16248.129
-15472.307
-14611.213
-13668.477
-12651.432
-11572.005
-10446.455
-9294.9813
-8140.6569
-7008.0075
-5919.0665
-4900.4642
-19374.536
-19129.329
-18609.638
-17998.451
-17312.476
-16545.228
-15694.55
-14762.636
-13755.27
-12682.565
-11559.446
-10405.097
-9241.377
-8091.3961
-6974.2963
-5888.0901
-17936.041
-17770.151
-17350.389
-16826.951
-16245.336
-15601.306
-14890.582
-14113.28
-13271.886
-12371.808
-11422.264
-10436.138
-9428.7598
-8417.1178
-7419.6201
-6441.0858
-14643.755
-14557.376
-14311.543
-13957.732
-13552.092
-13107.789
-12624.546
-12100.934
-11534.727
-10923.84
-10268.705
-9573.3611
-8844.9225
-8092.3376
-7327.3582
-6550.5058
-11053.615
-11007.894
-10903.27
-10727.995
-10503.663
-10243.995
-9959.9439
-9660.1602
-9345.9679
-9013.8418
-8658.3397
-8274.9358
-7861.0778
-7415.5923
-6939.9228
-6429.3281
-8766.5351
-8744.9423
-8712.8656
-8662.491
-8534.5736
-8339.4952
-8129.8384
-7909.5959
-7682.4589
-7462.7399
-7258.1108
-7069.9258
-6893.4816
-6716.5416
-6521.4652
-6282.2483
-7269.854
-7268.9538
-7263.8449
-7251.9618
-7235.277
-7184.7442
-7013.597
-6781.9785
-6569.1354
-6398.2989
-6260.9657
-6185.7279
-6185.8177
-6237.81
-6298.3384
-6326.42
-6276.5458
-6287.459
-6300.9534
-6297.6161
-6252.5428
-6167.3825
-6085.5525
-5972.7987
-5712.4469
-5361.0605
-5144.8411
-5252.3966
-5580.467
-5952.014
-6271.9158
-6511.9716
-6612.3863
-6619.7559
-6621.0916
-6584.9907
-6484.7727
-6314.4938
-6078.0921
-5776.5332
-5462.1475
-5222.069
-5166.3158
-5475.5288
-6194.8275
-6800.7909
-7156.0849
-7341.2956
-555.6451
-413.58744
-194.78097
49.183334
319.89946
616.345
934.80102
1269.2616
1611.1235
1949.2418
2270.4667
2560.2808
2802.0948
2977.2096
3090.6447
3206.4353
4108.6944
4194.0753
4326.3688
4471.7773
4628.4173
4794.1014
4964.399
5132.9817
5291.3424
5428.8321
5533.1603
5591.1717
5588.6799
5510.7222
5351.8424
5147.2486
8383.255
8424.363
8487.8076
8553.5316
8617.2611
8674.8251
8720.1107
8745.263
8740.7409
8695.7144
8598.9086
8439.4496
8206.4474
7889.684
7493.4707
7071.6826
11644.526
11654.233
11667.589
11674.246
11668.821
11645.548
11596.967
11513.991
11386.137
11202.152
10951.002
10622.512
10206.655
9695.2418
9099.4345
8486.6497
13576.523
13571.031
13558.73
13534.12
13491.693
13424.834
13325.309
13183.338
12987.932
12727.649
12391.599
11969.905
11453.264
10838.371
10156.564
9509.3375
-13902.385
-13658.254
-13227.917
-12738.521
-12186.575
-11570.945
-10891.671
-10152.023
-9357.9538
-8519.1297
-7648.1986
-6760.034
-5870.7499
-4998.7402
-4166.665
-3401.9614
14105.89
14098.227
14082.226
14053.31
14006.046
13933.697
13827.958
13679.011
13475.847
13207.001
12861.67
12431.003
11909.608
11297.063
10603.913
9866.066
14109.794
14100.078
14080.686
14047.723
13996.005
13919.057
13808.961
13656.404
13450.954
13181.678
12838.131
12411.462
11895.396
11288.573
10602.088
9873.4098
13268.814
13268.365
13264.538
13249.872
13218.664
13164.5
13079.35
12953.619
12776.451
12536.442
12222.632
11824.819
11332.734
10740.924
10080.17
9460.3777
10858.052
10880.647
10914.544
10945.179
10967.372
10975.77
10963.131
10920.451
10837.12
10701.521
10502.061
10227.519
9865.1635
9401.5824
8852.044
8319.5688
7235.0672
7297.187
7392.7963
7495.3337
7601.2315
7706.6924
7805.6751
7890.2053
7950.3519
7974.658
7951.1449
7867.7772
7710.0856
7460.0695
7129.4219
6848.0425
2774.1165
2887.0274
3060.4506
3251.9837
3460.8404
3684.8252
3919.2406
4157.3634
4390.1743
4606.5356
4793.9158
4939.1451
5027.6123
5042.9276
4979.0834
4860.0989
-1955.7196
-1782.1838
-1517.3279
-1223.908
-898.99964
-544.20711
-163.716
236.26107
647.27377
1058.8422
1458.8245
1833.7271
2167.0389
2438.8092
2647.6655
2851.402
-13939.318
-13916.593
-13879.357
-13843.21
-13813.045
-13791.071
-13780.913
-13786.12
-13835.896
-13909.726
-13925.508
-14039.456
-13536.559
-12467.703
-11057.919
-9409.9851
-13433.388
-13421.455
-13390.495
-13343.923
-13288.302
-13227.958
-13189.384
-13179.229
-13138.651
-13022.089
-12817.424
-12495.172
-11997.842
-11267.019
-10321.906
-9237.0144
-13010.097
-13003.749
-12981.381
-12942.022
-12904.418
-12861.92
-12750.355
-12548.56
-12312.93
-12075.46
-11800.147
-11449.495
-10998.516
-10422.767
-9716.425
-8904.3528
-13136.952
-13132.271
-13119.836
-13088.98
-12991.084
-12821.292
-12615.867
-12386.656
-12119.487
-11808.324
-11450.407
-11034.692
-10545.658
-9968.4314
-9294.5225
-8529.7922
-14213.64
-14194.726
-14130.68
-13986.488
-13779.013
-13526.348
-13230.355
-12892.602
-12514.274
-12091.632
-11617.101
-11081.399
-10475.941
-9795.0374
-9037.3926
-8213.2528
-16309.409
-16245.957
-16048.42
-15744.338
-15378.277
-14961.96
-14496.482
-13981.025
-13412.65
-12787.628
-12103.053
-11358.231
-10555.282
-9699.304
-8798.2618
-7863.1714
-18258.405
-18119.108
-17763.106
-17303.994
-16784.599
-16203.302
-15556.53
-14843.072
-14063.141
-13219.257
-12316.719
-11364.084
-10372.635
-9355.6768
-8327.8696
-7303.9769
-18634.7
-18424.126
-17974.92
-17438.887
-16835.47
-16158.215
-15404.443
-14574.844
-13673.164
-12706.938
-11687.489
-10629.933
-9551.9368
-8472.0804
-7406.1392
-6358.6522
-17025.856
-16783.223
-16316.424
-15776.341
-15165.982
-14481.268
-13721.529
-12889.68
-11991.858
-11038.305
-10042.538
-9021.123
-7992.6568
-6976.6564
-5992.3461
-5068.8103
-10717.546
-10483.505
-10098.022
-9659.5544
-9167.5057
-8623.2828
-8027.7801
-7384.1337
-6697.3058
-5974.66
-5226.1703
-4464.5212
-3705.8527
-2973.7594
-2296.8938
-1662.9905
-7988.5184
-7796.2636
-7500.1662
-7158.1551
-6762.0093
-6309.21
-5796.8292
-5224.7296
-4596.5997
-3921.7474
-3215.6221
-2499.5033
-1800.5669
-1154.2286
-587.84087
-32.029791
-8875.0136
-8868.6086
-8849.4253
-8793.7015
-8683.9287
-8521.6926
-8315.7286
-8075.8102
-7814.2889
-7546.86
-7296.3967
-7079.9673
-6949.4705
-7133.2049
-7659.7198
-8385.7301
-10386.24
-10366.388
-10313.854
-10228.354
-10119.065
-9988.9066
-9839.4509
-9674.5611
-9501.6877
-9333.6194
-9191.3
-9107.6615
-9136.2592
-9434.9841
-10080.285
-10823.373
-12221.499
-12184.697
-12095.683
-11980.781
-11855.06
-11719.934
-11577.038
-11431.499
-11292.446
-11174.529
-11099.898
-11099.897
-11216.38
-11498.975
-11976.724
-12511.706
-13169.398
-13114.822
-13007.981
-12882.746
-12748.051
-12604.834
-12457.482
-12313.851
-12185.585
-12089.013
-12045.915
-12083.954
-12237.357
-12547.885
-13051.19
-13694.841
-12734.365
-12682.797
-12592.986
-12491.135
-12382.51
-12269.886
-12158.867
-12057.433
-11976.384
-11929.55
-11933.502
-12006.907
-12169.999
-12440.435
-12821.396
-13295.261
-11190.937
-11161.522
-11112.857
-11059.531
-11006.251
-10956.96
-10917.334
-10894.614
-10897.5
-10935.501
-11017.599
-11150.622
-11336.599
-11566.172
-11811.182
-12026.496
-9219.5397
-9216.8841
-9212.7593
-9213.5305
-9224.1219
-9249.4286
-9295.1963
-9367.5841
-9472.2439
-9612.6653
-9787.6108
-9987.8728
-10190.887
-10352.206
-10408.447
-10309.921
-8011.0648
-8023.5568
-8046.0334
-8082.0532
-8137.3387
-8218.2981
-8330.9745
-8479.5632
-8665.3792
-8884.4349
-9123.3088
-9352.7206
-9518.1277
-9536.0748
-9316.3457
-8854.1875
-8626.8443
-8640.5368
-8667.7086
-8712.6685
-8780.1391
-8874.7681
-9000.9581
-9162.0345
-9358.2869
-9583.8292
-9818.1588
-10005.676
-10040.953
-9792.8327
-9141.2669
-8190.6326
-10757.558
-10767.862
-10790.939
-10831.236
-10893.516
-10983.301
-11106.839
-11269.273
-11471.773
-11708.402
-11940.834
-12053.302
-11843.504
-11150.798
-9929.9163
-8284.2817
-13283.415
-13267.543
-13254.451
-13257.901
-13283.859
-13337.778
-13423.599
-13542.173
-13696.099
-13892.386
-14092.132
-14062.726
-13573.663
-12427.607
-10835.744
-8810.4539
-14509.959
-14479.101
-14431.865
-14388.591
-14357.239
-14344.61
-14359.227
-14409.482
-14502.571
-14644.718
-14826.685
-14872.707
-14223.355
-12873.045
-11160.545
-9198.5943
-5902.9775
-5568.4255
-5351.2476
-4946.0921
-4474.4629
-3952.7203
-3386.0654
-2780.32
-2146.811
-1502.2167
-866.09457
-262.13806
276.94216
739.78308
1219.6345
-4073.0942
-3782.6722
-3596.8598
-3264.5516
-2875.1477
-2446.0196
-1982.8925
-1490.8531
-980.67017
-466.85899
33.437513
498.96811
901.30042
1234.9387
1580.6006
-14158.661
-14065.728
-14067.341
-14070.875
-14078.766
-14104.544
-14156.809
-14237.575
-14343.656
-14653.066
-15062.667
-14032.333
-12606.73
-10995.604
-9103.2439
-7914.5503
-7960.1649
-7867.7219
-7626.279
-7339.9194
-7032.6196
-6727.3113
-6453.3944
-6190.6437
-6100.9238
-6307.7818
-6574.1279
-6740.1395
-7061.1773
-7562.9861
-6413.1017
-4480.5442
-14277.765
-7760.4205
-439.48236
-867.52991
4032.7171
-895.00692
-5047.566
583.38261
1547.4386
1672.5758
1552.2535
1485.9723
1632.1187
159.39509
2854.2866
-1829.4417
1786.3076
-2924.7731
322.00614
-7566.1318
-9934.2503
-1001.3437
-5856.0708
2912.0892
1618.8467
1852.667
2196.4212
415.29685
-700.5938
-863.81167
-1156.2044
-1628.7235
464.82507
1781.2672
-636.96802
-1400.6848
2537.7566
-959.9227
262.23545
2431.4411
308.72835
437.0549
-2451.3068
-236.1576
1653.7112
-1876.9602
1532.0185
4554.818
-499.99603
2061.1815
1552.9494
1427.229
-6712.1425
6839.8678
3265.692
1094.4976
-3777.8711
-1958.0183
1132.9424
1564.1931
1731.2094
-809.62191
-715.3031
1550.2421
1402.3632
474.16426
-5987.5632
726.29192
-308.53833
-1360.0313
160.5083
-524.40667
-188.40784
-2425.1167
-1908.581
-7.669796
-167.68702
1634.4382
-1173.7365
98.109122
-178.43622
1061.5818
-6948.9961
-7395.852
-1621.2072
-601.32394
127.33957
-796.57338
1750.6265
-111.76392
-4882.2946
-161.27928
-1456.3596
-814.35988
4894.4739
21.379328
2363.4829
2691.3275
-94.424275
4361.3624
-6975.1519
2802.0172
6.6678154
-959.55733
-1077.4521
233.17838
-1042.3782
-1811.4306
-292.81188
-16.731785
510.54488
-1879.775
-4050.1898
3271.9053
168.50889
-2182.2363
-1263.8197
-140.72354
3561.0897
-426.23382
50.658006
3265.0104
3459.1439
988.44841
-6084.1942
-595.30206
-8891.3762
-13745.782
656.80254
-8063.1847
-1740.3969
2976.6755
897.03214
-1985.3696
-239.72319
-190.96096
-255.4873
210.31122
4326.567
-121.40368
-6595.7461
-1039.5325
2211.3749
-956.27434
-4575.0606
-745.35341
9.198781
7.9695567
-1224.7979
-1425.9342
-372.06736
1474.6046
1333.3153
-1007.8243
91.780244
3448.2057
-209.67816
2077.9492
-6880.8989
718.30193
-243.6305
-473.92664
-5857.2952
-7217.0977
2477.4384
3016.7186
1002.2321
-191.39848
-372.8434
1397.5138
-1834.2583
124.18232
-2347.6242
4691.3201
-841.18312
-74.824815
-979.69942
2334.7032
953.75715
106.12222
-711.66872
-6081.9269
1650.2987
-1619.0885
-1287.0927
-263.09158
-182.98605
1784.0832
2523.8445
-1433.825
-1293.4677
-1776.0688
-212.48263
141.45487
-1155.9188
-6159.3647
466.79365
1894.5452
22.971636
-497.10269
1426.0391
5090.0166
1663.6234
452.19162
-5559.8673
1276.4284
2975.6946
1948.3214
2728.7337
-223.29219
3514.7991
-424.95933
-653.63466
-1302.1353
829.25327
1215.756
-205.13926
369.47036
-31.174218
2088.7402
2688.3274
-2154.3068
-105.77291
9.8344127
877.60942
-141.36476
588.85233
-8900.208
3169.3235
-136.62371
-588.94923
-1722.5276
-7454.3296
4016.2843
-230.05866
317.52546
-1111.4476
-220.9408
-754.52832
2430.154
-927.03976
-193.75626
578.87217
-309.04993
-2231.2286
-292.20602
3751.7358
969.85882
-1379.2972
1762.9845
-467.61428
428.15018
1982.9446
4841.7003
-396.06136
222.91723
-10739.039
-145.51845
2793.2886
669.98256
-23.536477
-816.68188
-942.35023
-75.753102
-209.46804
-190.85091
620.86138
-1500.9402
423.90721
-1087.9418
-728.27723
325.34846
1461.9624
494.24921
759.90382
2851.4459
-2557.9543
-101.96838
3533.9331
3042.9602
-386.74259
68.770803
-828.77676
-50.189965
183.8512
-1641.7786
-12447.372
-6525.1949
237.05498
874.40927
287.20277
-294.216
1703.6652
-4270.314
-1886.4977
-97.959944
3756.478
701.39288
86.250945
2227.3257
-1751.3716
-777.80736
-1991.9196
-1303.1739
-564.303
3961.7521
4939.4702
806.78995
-1530.2047
1132.8629
-1050.2147
2466.4268
-6709.2231
-964.56924
-776.35711
-496.43854
1076.2873
105.05161
297.70093
58.491665
5613.4224
-1894.1844
-561.23127
2704.1833
-54.16398
-133.77778
-372.17632
752.84069
-564.88479
-501.51318
-549.99865
128.9716
6800.3458
-9453.3278
1550.7576
1992.2902
-1279.966
-1752.8326
783.11777
-694.21355
-90.793306
142.36897
-1071.5861
-433.54239
118.36365
3419.0268
-220.66486
27.781218
-1126.4285
-2259.2169
-731.601
-181.67753
-533.46301
-8020.5196
-813.96154
1721.412
-1185.0405
-1907.1293
-812.5794
-1547.3426
-9390.5242
1670.9145
-1925.1429
2101.39
229.89565
-7635.4978
4130.7155
2628.7744
270.6819
-3689.7157
-630.80142
2875.2398
-2128.2195
-1379.348
5155.5601
1739.1492
1283.0325
-1950.9783
-352.6639
105.21258
-1239.2985
-2606.9183
-725.61364
2903.3517
2608.9736
-10453.415
-90.401194
849.80219
-1086.3302
139.58213
1272.5168
-2771.7655
7.8631726
-220.88122
-3063.7181
-298.12551
-2468.7221
-845.36862
-741.35478
-3414.7482
6370.0571
-631.14649
-3.1602412
-2386.0733
49.03319
-1672.9986
2192.8986
-2036.2625
-891.28386
-744.40913
1807.335
133.98287
856.01843
1804.8518
-35.290355
-484.13842
869.62999
1318.4885
1480.8739
-208.78505
-949.80612
-665.9708
-2617.1993
-512.39969
-723.88892
1654.8938
2999.8371
3958.4392
-2515.7988
65.254745
2642.3796
429.87152
1534.0773
1361.4155
-369.29067
-288.89493
-13077.817
1225.9136
-364.42042
-897.41002
-1133.1845
459.02444
-3957.6527
-3269.57
678.87296
171.11823
-1229.1292
-731.24718
-216.46748
-49.713984
-736.29255
1993.3674
-573.6622
-5786.4764
-1455.7755
233.42748
-415.9466
291.52752
1332.9164
790.48203
269.76947
1401.2579
1556.226
3251.7195
-1363.9928
75.228518
1430.2828
1851.4445
1796.7161
2323.6542
2935.079
-1510.2325
-14578.485
6.0640935
3723.8802
-605.87967
-278.26826
-336.07192
-215.15662
-59.265739
6970.2791
-118.49691
-917.64678
-5907.3179
-1765.4735
52.388294
-1514.3667
-1951.8793
210.96591
2166.9474
1742.1616
-3131.9573
-13349.343
194.16697
-849.44734
-921.77042
-2226.4317
-1706.9115
992.95725
-115.77079
305.96879
-631.97982
-513.02454
668.32996
4299.6873
1469.1987
1318.1009
-711.14953
-5511.4294
-993.75669
127.97175
-5199.4703
-613.81479
-286.82795
-1195.1745
-812.00918
-6418.9149
-6621.2498
-127.86615
1715.1451
1356.8883
1964.7299
-213.07143
486.00313
-2046.202
-480.82904
-3342.2299
-839.97402
-4995.8377
-1673.0915
-4562.7419
3037.6379
1522.6421
-4569.0663
2910.6238
-694.68113
-6733.2199
2930.9081
1470.8088
1594.1342
1785.5703
1704.4859
-5690.6496
-1164.2013
-1069.4661
-310.47241
-1297.475
-7151.7223
1892.3323
2046.2889
-1076.19
-352.2787
476.59665
-1149.0059
117.15383
2755.9029
-741.19258
-5.0198373
-123.42506
-7001.8682
3895.4976
-9033.0533
-86.22225
1072.9442
-8446.6902
-1501.1569
-198.50657
-6027.797
-1521.7282
-1077.5608
1738.6536
1889.3009
813.80622
-575.88046
-4796.4089
2930.9226
3785.927
3716.1635
1795.6477
-1382.6086
1900.6477
2795.6714
3989.066
2361.6697
4875.787
-310.42126
1667.6034
2492.2919
-329.48301
-983.61179
-1241.4858
2273.9309
3162.2512
2354.7544
-4584.9834
1925.6802
-352.25664
6967.3133
2484.0565
-149.5728
6724.9801
2937.1184
-1432.1778
-292.6156
-11700.158
6730.377
-738.65538
-516.36362
2613.0849
-109.21725
4603.0465
2789.0187
2678.5196
-688.14157
90.693709
-11337.524
2701.8189
7078.0651
1488.1658
139.25777
2188.4767
-1510.0859
-4888.5093
-394.25907
-2437.3409
6937.971
-836.54901
-133.20885
320.00944
4011.2906
3854.7562
-3661.9161
-1452.2308
-129.05223
2545.3009
-6065.0753
-2769.8828
-994.8317
-1589.1561
1483.8196
1350.3451
-885.40163
-5689.2901
764.62083
-12144.661
-875.55072
-4141.1533
2294.5149
-364.11458
-447.85496
-1138.2403
6030.6602
136.37853
1466.8323
-171.57321
-970.86174
1841.4729
-1339.7753
6641.6513
-943.17095
-293.83466
2259.3297
-2.9869307
-1733.0852
-237.25257
-2072.6225
-617.78857
197.18117
-1635.9701
-953.44767
3997.4251
-6800.6913
1000.5991
1659.449
237.07368
3488.0287
-130.81843
3908.6115
-7317.6481
7901.0801
-584.81776
355.67597
-1798.9045
5695.0574
-6141.1473
-268.43895
41.185275
2008.2983
1140.8439
-5819.7771
2024.6886
2271.4316
-13770.229
-4293.8083
-80.19652
-560.22174
-147.03199
-4089.5898
-11124.364
-498.53836
-934.1858
-457.53978
-84.824543
2783.9902
-621.47871
-5628.9436
1550.5377
471.60693
-80.2306
1198.6914
-1027.4932
-1051.2696
-394.13063
632.21514
-4865.6162
-1247.6431
4135.0717
-3172.6089
-1305.1956
-990.61655
-3503.3007
1906.7391
2772.9012
-89.221201
-1514.5162
-218.23141
3049.5269
2422.2333
-2159.9627
1467.7873
-341.17139
564.72657
-13328.113
-9905.8887
1831.0326
-578.36053
-4680.1334
-88.095593
-4616.9765
2268.8257
1032.0024
-1548.5558
-494.38814
-609.68333
-2267.0307
-138.5537
-11645.747
-275.10363
-1355.1128
-188.63479
98.12529
-294.47611
-1411.7667
552.43678
650.58527
-7107.8162
-561.25943
-772.15213
-571.29215
-1674.4461
4201.0766
-561.62887
1660.5684
-805.88433
1719.2727
-3140.2936
-817.82675
-2350.3015
-5208.024
-513.06435
707.50751
93.669428
382.41115
-630.66676
1195.505
-1155.2544
2580.6285
-453.32619
-42.508884
2127.8056
2653.465
-698.8762
3871.7131
-1418.489
9108.6394
-2630.3073
-2074.0757
-948.85469
271.18797
-3053.8283
3110.1328
-1063.7025
-704.68854
-484.97452
-669.70018
-1024.4152
-1424.1136
-441.23636
-234.34511
68.248585
3803.117
-125.10711
2467.4831
3048.7718
2747.5552
2655.143
2478.086
1701.7178
-64.810896
-889.85836
-1423.5645
-621.26103
89.617345
1018.0763
3947.2017
-1421.0374
-2366.4993
-1075.6043
2807.1954
-581.4391
2962.9557
1985.7578
246.37699
4978.7375
1155.034
859.91162
-1637.8207
-188.96487
63.248413
-688.34971
-36.22709
6903.2441
1153.5699
550.80624
2320.5788
1110.6969
1154.5809
-561.60063
-398.04852
2980.7461
405.01616
517.60565
-389.86538
2361.3856
390.11316
1504.5307
743.34748
-202.08543
-19.404752
66.0829
2542.7688
-2311.3642
-2253.7073
-262.70627
-1927.6997
-2546.4911
1751.2847
-1133.1532
425.76487
6544.4903
-709.64229
6694.9562
-8056.4277
-509.62938
1334.7546
-936.77221
2007.2807
-478.53463
3392.837
-2057.8308
2594.509
-369.60188
-1340.5579
-2240.3214
-2428.0532
1769.1198
-0.55673557
-759.65585
2787.2176
-207.06302
-7146.4749
-3738.7643
594.56506
2537.9376
2137.9562
-1717.3745
1511.3951
718.04162
-2553.4882
1301.6969
8961.4413
-2586.9591
-201.06152
-1499.6847
5900.2581
1902.8172
-5235.8943
-109.0156
-446.83071
359.79698
-198.22184
-2084.5736
-817.60413
1831.8719
-2018.6743
1334.9589
-1813.091
-1522.518
-538.12457
-693.31562
-1614.7645
-6097.4455
-160.14187
1756.6282
8.21082
994.39034
782.88481
3122.0652
2312.627
3992.2981
2677.8275
-3008.4823
-2782.8516
-9209.1023
-1514.5682
-382.20504
-4065.4598
-2443.8405
91.34132
277.55993
-497.51413
2776.7519
-1303.7441
-343.91294
-1630.6384
860.62687
-8483.0666
1037.2065
193.00398
-727.3901
-3798.6071
-1010.9303
-181.87824
-382.39068
1040.4064
2124.0708
1652.1322
8224.1741
-1890.5935
254.34033
985.14301
-678.06161
-4139.662
-2681.7794
-1678.2129
-1840.8396
-196.06314
3825.5322
5485.8995
-4679.4443
113.07715
3200.6004
-4867.369
-634.06311
-885.66962
-1200.683
-5976.8606
2165.5966
1372.9463
1906.3998
82.691611
-486.73952
-1138.5774
2880.8403
4696.7873
-1005.3582
1702.569
4987.4489
937.37918
-2730.861
-675.53319
3529.2609
-1846.7553
-490.4533
-349.93898
150.24721
778.29861
-6277.5358
7645.3209
-1069.0278
-5090.459
-291.46666
-691.33698
5425.4549
-2499.679
-12189.128
-840.25731
-23.712914
-595.08164
-728.95457
1437.1572
-982.56758
-1304.822
-3825.206
-2473.4667
2439.5778
4453.6646
-1335.0479
-6603.9761
3093.3557
1272.6945
1281.7415
-260.89328
-5145.5587
-962.22689
-922.16274
1343.7536
-1605.2822
-475.02949
1913.4097
3128.8417
1849.37
-2469.1072
-696.43474
16.178464
-5600.5988
-484.41851
4648.984
-10977.196
-35.969084
2737.3217
-1217.4565
3143.7086
-1411.7872
488.94491
2166.4758
5496.4068
-5759.0142
-6403.4022
-368.95973
-585.3663
-263.63059
-6832.0921
-38.391623
2565.2092
-5389.4653
-378.43688
1975.3881
-773.73509
-2532.4211
-4323.8489
-5053.4212
-287.44342
-1312.9319
1634.8833
-336.5983
3888.4175
-3261.6334
-1715.4237
-10779.722
-279.57947
-6501.3131
-125.13596
-1404.2752
2434.8632
-532.10968
1240.1224
1383.9214
-1283.21
-1341.4621
-4714.108
126.61014
-492.51118
-3458.0592
374.66671
-327.41834
-923.1708
-406.82206
-3767.4932
-299.18116
6188.0928
-4222.1375
4041.8317
-348.54328
-214.49438
3310.3612
-109.0806
-1071.5757
-5222.6011
-739.70812
7630.4836
1161.9026
-3635.1065
-1594.5261
1943.2809
-6055.8992
-2201.9773
1293.5279
4317.6061
303.31805
-2557.2904
-156.78402
3338.1329
-126.43671
-391.32303
-991.18311
-2596.8438
186.88402
1533.0209
-817.18392
241.35775
1489.9286
-282.03349
-3909.4967
9127.5029
1149.5487
-9045.8713
-6790.5524
-7616.6137
1718.4332
-1735.5767
6426.2024
-769.79646
-8918.8382
-9930.2227
-1416.1454
-7779.0301
-2589.9352
-605.78875
-41.589036
-1384.9125
-578.46746
147.94417
-1261.2605
2048.1211
363.63513
-2945.7414
8169.6583
-3682.0424
2667.1677
-2889.8243
2478.9052
2389.6613
-923.99159
4594.5323
-10189.924
-1673.9738
2381.4298
-614.08161
-223.91832
1685.2603
-1274.9195
-839.65927
-4162.9916
-4492.0188
-1292.9922
-1021.3511
-337.72531
-750.41092
-2821.1897
-212.66965
-280.09253
-4656.3154
106.89043
-479.22698
-1030.9629
22.21675
-431.53954
-949.0994
962.04664
-667.25854
1565.0916
-5486.7487
3204.0671
285.81656
-12114.408
3111.8298
-305.59529
-6236.5749
-29.410301
-105.33111
-3914.2608
2181.7079
-770.99123
-4665.1857
-29.016785
3875.5358
-1512.3411
1775.4953
-109.77744
356.05571
-5312.3331
-9627.7182
376.44454
-9567.7106
166.81636
-275.74587
-2331.7239
2490.0655
-5431.019
-221.27712
2136.2194
-932.02944
-3373.4111
-2566.9742
-237.19265
-824.79792
44.669204
-962.6576
-1674.2892
8668.283
-148.29829
5422.6671
538.21031
5911.7336
-3610.6478
-3031.0024
-345.57632
1715.1472
1721.9454
3684.7467
-1459.7822
-166.41522
3730.7961
2279.3538
-220.80377
-10756.729
-238.3687
3355.673
2046.6449
-235.55606
-2332.9952
-346.41457
-702.48023
633.68332
2287.7018
-4270.966
-3713.2116
1373.0352
-6844.5012
2012.5621
-2872.8996
-1468.8496
-802.46839
1502.3679
-171.39629
6315.6318
986.04245
-1309.1303
-189.34104
3244.9522
4557.9538
-7635.2625
477.39558
-4559.0932
-11189.989
7922.4802
-1189.7095
1435.339
2488.4793
-823.71117
95.745514
79.720889
-12728.364
2886.183
157.82114
-940.43143
-2090.2898
2169.9217
-165.37635
-3510.0357
-961.75235
-192.44347
-140.66288
-480.68331
-2358.8636
-2858.9596
-682.37885
109.43215
1281.969
365.19733
3100.3544
-6840.1397
-2661.0578
-7346.0872
52.213203
2769.2451
-308.69425
-3232.0641
-2636.4179
-75.33608
-7218.2283
-296.35873
-5313.8804
-3500.3124
-98.572324
2796.9351
2543.2584
-328.59318
-3622.8902
-107.4803
-1070.1105
-3477.205
3462.3073
-10411.644
2689.8547
3477.9877
-55.354855
5221.2495
7771.263
2044.1821
-887.68327
-622.54351
-13296.36
-134.37291
3729.8971
1931.2848
-136.64826
-2522.7993
4823.9352
4025.2791
257.18338
24.975599
-3068.168
-1211.4112
4141.5702
1483.8937
1701.74
-3938.7337
-1859.6316
-2605.1269
4147.665
-6550.1483
-999.48342
-525.69385
-5.8213895
5241.3651
-388.80361
-355.54909
-587.71036
2396.202
-893.94549
-164.36664
-3687.764
-120.54712
-1393.1443
-4041.4751
-1691.6573
-4074.2224
-789.06399
-14374.329
650.45934
276.76455
1750.8985
-11992.713
-228.44687
106.57751
-1222.2871
-575.53775
-468.67461
1510.7463
-3231.3218
1671.2358
2028.1687
-3396.926
-4587.1393
-2188.7916
-154.87687
6.2670253
144.33592
479.55227
344.48027
2147.3738
143.2337
-371.92883
-3123.4459
3576.4556
607.73261
4697.6421
-887.58964
-365.90075
-7431.8999
2620.9014
-6036.7465
3218.626
-33.610518
-2675.4767
-3114.7649
738.74962
-564.87254
-7832.1718
-278.32445
1950.0789
-297.75835
2680.7992
-191.84599
-1225.9869
-273.87564
-180.78665
3681.1606
801.9135
119.88944
246.45641
1999.7423
-768.23331
-829.78559
-27.049078
-212.82979
-838.43449
6487.7838
-1331.1271
6.3172794
-1252.352
2918.9678
-1766.502
-1524.7076
-2867.7619
2269.194
-7742.197
-233.11405
-248.54966
2662.1606
-349.01163
2239.3986
-351.0591
-1849.6253
253.86349
2795.1621
-2257.3438
6731.9912
-6289.784
332.90294
-1589.9602
-2827.9431
-2830.3975
6573.9813
2634.6184
-7258.3573
-1983.4513
-228.16058
-208.77086
3396.959
19.045863
2752.6855
4354.2409
-163.32308
-2281.3797
3882.2066
-12372.717
1652.6558
-86.671776
1733.2268
-8370.5157
-2323.6311
-694.66753
1129.7448
1262.6835
-4690.9187
-3565.5493
-352.64246
-178.00998
-3930.1856
-7461.0894
-8.8194336
-549.34098
-12749.655
-1522.808
72.576536
-3111.6556
-88.610559
-206.20894
1487.2347
-2813.5395
-3988.2088
-2597.0888
8089.6953
3160.3282
1384.3507
1228.0621
-9013.9035
-383.351
-2409.7697
338.25197
-2148.0136
1686.3023
1567.5288
-7274.4951
-3905.8358
-1322.0605
1995.6421
-3208.777
-5831.4581
6384.1966
5049.8868
820.15981
8700.1021
-6050.9244
-2647.4452
-2.5564008
-7718.9597
7726.6797
1595.9455
-4497.7087
-2444.7522
930.6742
-165.93633
-1023.903
3136.9548
7250.7073
-2244.2048
-2035.6651
-1870.38
-852.21982
622.86389
1730.989
-11571.694
-675.40762
-1099.4687
2103.7053
-907.66148
-3144.7438
-2953.2042
1210.5638
-713.35833
-168.43776
-3367.0704
1969.3466
1333.4742
-6378.8317
1616.5906
-9082.7549
-3490.3469
-1528.495
-958.92302
-116.90191
3003.7852
2743.231
-2233.7889
1922.7842
8047.5744
-4506.4657
166.92875
2052.9978
-227.64677
2392.1069
5919.4996
-1309.101
-923.12567
-156.29631
-4758.5921
-1525.1841
2396.1048
-137.88245
16.644554
2029.8779
-1633.7128
-2112.0171
5402.0907
-8846.5491
-1669.2061
1033.6217
-2559.9193
-144.01313
-90.710107
863.03295
-4060.8736
2879.3221
-2057.8519
3536.3891
-4512.5091
-550.18825
3742.31
-4831.8623
-8563.4117
1871.1474
-3159.212
-13165.885
-5391.3273
-4934.795
-5508.381
4406.539
-775.35293
-3093.8371
-1063.7863
-79.501521
-1631.6266
399.79282
-349.28034
-6847.7571
282.74989
-1822.2738
-254.07648
-468.47743
-3516.3149
-1306.0092
3572.8901
-245.75544
3416.6678
843.83021
761.52482
3280.8183
-2693.4043
-6375.245
-1884.5129
502.97109
-3099.5555
-189.15937
-311.18918
378.64912
-119.04558
1261.7001
1089.7421
3485.9078
-686.10726
-1389.2368
1782.2657
-1302.58
-269.61113
-1288.7837
-1707.0868
4779.8776
987.61356
-3156.0668
594.21442
-133.23183
-112.45562
-220.04423
8120.2423
-526.05174
-6731.4686
-4043.8517
5994.4728
-1217.3159
-865.35038
847.23245
1955.4003
4446.1959
-289.55829
-423.95599
-2726.6291
2871.711
1623.0331
2422.8003
-2170.8182
25.317074
3086.7491
-1156.4559
-939.28491
-218.75726
-108.65595
275.00873
-191.07372
6171.4234
-2225.7986
106.4686
-3011.6504
459.27829
-11017.398
59.644484
-12234.575
-14089.053
-3025.0638
-4513.3473
-4944.8397
-2886.3053
1205.7163
-8453.0748
7641.5123
-896.36732
-1309.9412
-64.637207
-2574.132
285.83575
-503.83433
-3155.5039
2501.4939
-65.696047
-769.07784
2311.553
-270.41861
2837.2386
-6387.1616
2369.1134
-1503.6185
-372.70319
2658.9853
-9623.9332
1932.8712
-2836.8604
-421.84588
2699.8564
-93.851202
-249.67704
2371.1073
-105.22509
1508.8887
-5734.1185
-5712.1975
-2036.3852
-1881.9351
-1188.9297
-586.41285
-919.2907
1859.0074
-1577.5725
-1177.514
2348.3451
-626.25442
-1138.3707
3694.5777
-399.59501
7.5734078
7196.9031
4282.2829
829.46821
-278.83761
-1088.2023
203.93542
-1430.635
2603.5845
-1046.2562
137.10651
84.372429
-91.921689
-57.536687
3375.6038
1002.6716
-800.06949
2767.0369
-854.02255
-344.63588
-43.148774
-2234.5878
-6778.8941
-261.76855
-2046.496
-1647.9544
2494.3959
7581.3415
85.165519
56.122423
-4009.1038
-7784.8081
3.8206729
152.25393
244.61458
-290.06202
79.646732
-3101.1956
-5854.186
444.45937
-2658.7705
85.647256
-1210.8159
-8137.9474
4641.048
15.573596
3101.3608
1251.1281
3351.5786
3649.9794
598.69375
-3374.2902
2997.6688
-555.25388
465.34613
-7477.7619
3196.3292
1917.3067
-2606.4768
1343.1524
-10317.264
3107.6082
-1821.8585
-462.5294
-1354.6691
1840.6401
-2248.5841
22.023858
2827.4483
1586.1502
2489.6361
-3283.4951
-107.25617
1956.3859
1872.2694
-876.81304
-61.428999
377.5718
-397.5616
-2445.6369
-53.448174
-2635.4852
1562.8374
-345.89129
2095.5276
-537.01314
5478.0765
2263.5785
-427.89764
-11567.375
1587.9191
4760.5909
-8173.7103
-795.65492
-1135.9601
-2707.5268
-250.62674
-1461.981
1202.4815
-4854.3236
-5454.7236
580.89082
-1168.9719
-181.86018
-199.56553
5291.9181
-2868.7496
-153.07732
-7328.0249
-2660.1653
-316.46312
131.87229
-1422.9354
5412.8478
2562.3094
-35.301911
-1245.8354
-5660.7477
-182.70057
-1175.5121
-70.487631
-201.06759
-141.34149
-593.59599
-55.242103
1845.7329
-1322.9949
2179.9857
2522.622
1285.301
1124.095
-267.42929
-1869.9183
-3764.9728
-6005.8822
3941.1245
-760.68419
349.66588
1080.6915
3878.571
326.01804
-37.882326
-1430.9539
-293.45168
-282.47478
-352.4778
-378.8105
-11738.599
-71.517028
-4984.3342
-1415.1453
-898.79289
-2233.2032
-641.607
-1535.5287
286.52239
-496.43211
-1895.1972
3836.6249
-5555.6694
-2171.2787
5789.8261
-371.54391
485.76846
2090.1075
-346.70934
111.56068
2615.1876
-2208.9699
3183.0976
-6801.5002
-4117.3957
-462.45702
-390.95643
-231.39054
-235.37293
-2209.2831
248.98761
-3328.4016
-2473.0582
1386.3524
-1131.3443
-2330.2101
-14623.228
1546.0286
7079.6504
-135.34798
2209.0917
-115.42065
-1630.1205
-1994.5083
-3930.3582
-575.43702
-777.50643
1250.8144
3428.0994
1002.3925
-2197.8068
-1266.5179
-181.93354
-3652.0619
176.73575
1030.9439
-1808.3018
-12730.88
2764.5237
-291.52474
2797.5252
-3579.4352
-3179.4153
-355.43295
-403.37941
2442.2159
3555.1051
-356.23996
-3245.3295
-6285.7658
-4231.6384
-724.00296
-570.39459
-5689.843
-2400.646
-357.13016