/*--------------------------------*- C++ -*----------------------------------*\
| =========                 |                                                 |
| \\      /  F ield         | foam-extend: Open Source CFD                    |
|  \\    /   O peration     | Version:     4.1                                |
|   \\  /    A nd           | Web:         http://www.foam-extend.org         |
|    \\/     M anipulation  |                                                 |
\*---------------------------------------------------------------------------*/
FoamFile
{
    version     2.0;
    format      ascii;
    class       volVectorField;
    location    "0.6";
    object      U;
}
// * * * * * * * * * * * * * * * * * * * * * * * * * * * * * * * * * * * * * //

dimensions      [0 1 -1 0 0 0 0];

internalField   nonuniform List<vector> 
4242
(
(105.76761 100.7634 3.0744731e-15)
(159.59826 142.60803 9.1154387e-18)
(168.73916 144.46576 -1.5413549e-15)
(168.41421 141.73522 1.2364195e-15)
(167.73654 138.00419 1.6269205e-17)
(166.90094 133.88585 6.2648595e-18)
(165.95987 129.28832 0)
(164.89921 124.20831 3.8885546e-16)
(163.7214 118.65203 -6.2214005e-16)
(162.44377 112.62824 2.3930831e-16)
(161.10191 106.16835 -1.4037575e-16)
(159.75268 99.329729 1.1876642e-16)
(158.48346 92.190726 1.7004267e-17)
(157.48475 84.825501 -1.3908997e-17)
(157.0431 77.309208 -1.4398413e-17)
(157.16693 70.409222 0)
(109.5194 80.008982 0)
(179.68805 124.23823 -1.9239927e-17)
(192.05001 126.25779 1.8185405e-15)
(191.51829 124.36693 -1.4883828e-15)
(190.13953 121.44203 -2.6006498e-17)
(188.49983 118.17461 8.5924657e-16)
(186.71333 114.4904 -5.1937896e-17)
(184.78733 110.40142 -1.0523311e-15)
(182.73493 105.90542 9.1933107e-17)
(180.57692 101.0115 3.1589589e-16)
(178.34576 95.746978 0)
(176.08918 90.156806 -2.2994438e-17)
(173.87836 84.306124 -2.1127411e-17)
(171.8677 78.245535 -1.1521329e-16)
(170.33945 72.092473 1.5329127e-16)
(169.13536 66.070677 1.9161316e-17)
(117.06185 63.517384 -3.8735956e-17)
(199.45011 104.47742 -5.9268105e-15)
(216.64116 106.74031 2.3669941e-15)
(215.88258 105.73399 -1.585781e-17)
(213.59852 103.58125 -1.4367084e-15)
(210.98119 101.16575 1.1837518e-15)
(208.15462 98.419046 -1.5645325e-17)
(205.12388 95.353143 2.4340834e-17)
(201.91445 91.956262 -1.1414844e-17)
(198.56417 88.225431 -2.856128e-17)
(195.12949 84.168558 2.9012115e-16)
(191.68605 79.808877 -2.1861342e-16)
(188.3317 75.18977 -3.2394463e-16)
(185.20423 70.358874 2.8447e-16)
(182.48246 65.442886 -3.1453133e-17)
(180.27626 60.677243 -8.2179624e-17)
(115.0513 43.397285 -1.1143488e-17)
(205.89269 77.540591 -6.7679415e-18)
(229.97912 80.144551 -1.2621012e-15)
(231.40676 80.565513 1.0959925e-15)
(229.2273 79.639117 -1.4003523e-17)
(226.37269 78.417349 7.1302306e-16)
(223.21368 76.976099 -5.5887827e-16)
(219.76544 75.329795 -9.0021239e-16)
(216.04803 73.449292 6.2200698e-17)
(212.15117 71.335072 1.1329041e-15)
(208.10192 68.948731 -4.3858095e-16)
(203.98868 66.279828 0)
(199.9267 63.335099 2.5040799e-17)
(196.06693 60.123672 -1.8543903e-16)
(192.53381 56.762209 9.3748633e-17)
(189.28975 53.568134 -1.7678196e-16)
(100.92125 23.43485 1.1904888e-17)
(197.70712 48.278214 -1.7466845e-15)
(230.74483 51.023635 1.2941431e-15)
(237.25696 52.854084 -7.6626323e-18)
(236.51662 53.494051 1.8677046e-17)
(233.93906 53.61054 -5.0867807e-18)
(230.7914 53.524569 -5.5316392e-16)
(227.30956 53.329689 1.5415274e-17)
(223.55175 53.016438 3.4016877e-16)
(219.59964 52.566939 -2.6217551e-16)
(215.49087 51.930549 2.23715e-16)
(211.30154 51.059808 0)
(207.13599 49.915349 1.3217635e-16)
(203.13533 48.441724 -9.9259022e-17)
(199.42158 46.607284 3.1156451e-17)
(195.92773 44.674464 0)
(68.025571 6.8666611 -1.6635919e-15)
(162.82983 20.777181 4.3101415e-16)
(207.3984 23.112492 5.5983328e-16)
(224.20562 26.005906 -4.2259097e-16)
(229.08459 28.533972 8.8294372e-19)
(229.16709 30.385405 1.4356549e-16)
(227.39207 31.82418 1.1538709e-16)
(224.85275 33.067683 -5.1238028e-18)
(221.94792 34.190749 -4.7665861e-18)
(218.84677 35.20175 -1.7256814e-16)
(215.60253 36.063189 1.8451461e-16)
(212.26352 36.715164 -6.8287925e-18)
(208.90089 37.089047 -1.9719918e-17)
(205.61661 37.106646 -4.5223359e-17)
(202.51776 36.653419 -3.0931162e-20)
(199.50964 35.995026 2.2011296e-17)
(-2.8089868 0.87088034 -7.8251978e-16)
(95.46179 3.2327049 -3.9461355e-16)
(152.70553 3.5669558 6.9656238e-16)
(185.1785 5.6959535 -3.2464126e-16)
(202.52373 8.9558945 1.2920975e-16)
(210.91373 12.266221 1.317749e-20)
(214.26509 15.258538 1.6199695e-16)
(214.89388 17.897934 -7.4206206e-17)
(214.10981 20.227845 -8.8845762e-18)
(212.62665 22.292647 4.0701068e-17)
(210.7985 24.119846 -6.6533813e-17)
(208.80151 25.702029 5.6229117e-17)
(206.73349 26.994489 -1.4829379e-17)
(204.67462 27.926494 -7.3292623e-17)
(202.69455 28.342944 2.9969728e-17)
(200.69505 28.383663 4.1909642e-17)
(-54.770937 10.825364 -1.4837994e-17)
(-16.461416 6.7287315 1.7637483e-15)
(62.509663 -0.9226009 -9.6902393e-16)
(113.41229 -2.9529876 5.532775e-16)
(147.80906 -2.0575233 -3.963155e-16)
(170.87897 0.4039099 0)
(185.69262 3.6279533 2.3050625e-16)
(194.67649 7.1133147 -1.8775891e-16)
(199.6793 10.501095 -3.4188634e-18)
(202.10164 13.594631 0)
(202.95595 16.296663 -1.9736165e-17)
(202.94011 18.574178 1.037184e-17)
(202.50057 20.407015 -7.944425e-17)
(201.90307 21.765578 1.6503065e-16)
(201.2763 22.53364 -1.2464311e-16)
(200.59043 22.887083 -3.8724486e-17)
(-49.614466 16.743045 9.0021978e-18)
(-74.306398 25.144675 -8.221319e-18)
(-59.560373 21.468599 0)
(0.20672046 10.078559 1.7865669e-17)
(58.984082 0.7831356 6.7200539e-18)
(100.79006 -2.7047946 2.9877476e-16)
(131.50178 -2.6881599 -2.2407628e-16)
(154.05191 -0.72262451 0)
(170.11002 2.3193603 1.4113867e-18)
(181.16069 5.9085516 -1.1782762e-17)
(188.44645 9.5660915 1.1510781e-17)
(193.08232 12.93637 6.9421667e-18)
(195.99467 15.738414 1.5856011e-17)
(197.87683 17.780655 1.1183516e-16)
(199.1624 18.907893 -1.4631019e-16)
(200.097 19.331046 8.8954051e-17)
(-34.425377 16.483229 0)
(-54.156525 25.009265 2.8600319e-15)
(-60.043083 26.775855 -4.8497559e-15)
(-63.323666 28.199299 2.4422118e-15)
(-45.860502 23.850381 -1.6174416e-17)
(-0.31607788 12.805555 -3.0806965e-17)
(50.187053 2.6091384 5.9601414e-16)
(87.935715 -1.421814 -3.7201804e-16)
(117.18795 -1.4204685 -2.2703581e-16)
(140.00272 0.89766904 1.9493107e-16)
(157.50016 4.367722 0)
(170.92214 8.2966607 -1.3842997e-16)
(181.14228 11.972138 7.823162e-17)
(188.7681 14.85004 0)
(194.30053 16.567554 0)
(198.32497 17.301479 0)
(-20.049508 11.202506 6.8494252e-15)
(-31.202551 16.016836 -2.5437003e-15)
(-38.090747 18.343787 0)
(-46.59096 22.36844 -1.0900195e-17)
(-53.198424 26.033723 -1.1773068e-15)
(-56.247464 29.114427 1.3452046e-15)
(-51.848833 28.891041 1.2770805e-15)
(-7.3873063 15.558153 4.7881939e-19)
(35.601081 5.2738043 -4.3208381e-16)
(73.896612 0.78474739 1.6234175e-17)
(104.87239 2.2590929 0)
(130.94761 6.2879375 -2.4099086e-16)
(152.68714 10.086218 1.3592036e-17)
(170.0087 12.789921 1.6406111e-16)
(183.08347 14.330669 0)
(192.8273 15.252385 3.5046934e-17)
(18.578707 -17.828161 9.9393658e-19)
(10.492016 -13.48228 6.2584909e-15)
(-7.9130761 0.94776119 -2.3268212e-15)
(-25.227081 15.637868 -1.7411801e-15)
(-37.467287 25.98496 1.445616e-15)
(-44.20902 31.950257 -1.2471482e-15)
(-46.572145 34.538986 1.1777608e-15)
(-44.597391 35.944624 9.1135841e-16)
(-38.371823 37.407325 -7.1750863e-16)
(-17.500207 34.990114 0)
(17.847274 30.59988 0)
(62.483518 25.509347 0)
(100.97166 22.994132 3.68522e-17)
(131.84542 20.464951 0)
(156.31952 17.838537 2.0241955e-16)
(175.99528 15.820557 -3.8159631e-16)
(82.926111 -100.41284 1.6533834e-16)
(116.74926 -134.7335 -1.6309218e-18)
(122.22636 -135.63165 -1.484691e-17)
(122.73064 -133.5144 1.2082033e-17)
(122.68553 -130.24976 -4.5034033e-18)
(122.64915 -126.39887 4.0391349e-18)
(122.68413 -122.00457 0)
(122.82318 -117.03072 -9.3833901e-17)
(123.09339 -111.45145 1.9019073e-16)
(123.52899 -105.27249 -8.0656261e-17)
(124.16122 -98.532396 9.1999775e-17)
(125.01441 -91.304314 -7.7376569e-17)
(126.1198 -83.68545 -2.1196126e-17)
(127.52646 -75.722777 2.3864153e-17)
(129.16205 -67.636562 5.7188286e-17)
(130.40766 -60.234656 0)
(56.255493 -87.679243 0)
(81.179411 -120.60072 7.7137402e-18)
(85.936969 -121.66597 -8.2252982e-16)
(87.146433 -119.19051 6.551204e-16)
(88.340849 -116.07812 1.0792261e-17)
(89.780269 -112.52812 -4.7270046e-16)
(91.476777 -108.52674 -1.3401689e-17)
(93.449969 -104.04721 6.6407207e-16)
(95.714997 -99.075324 -2.6800732e-17)
(98.28068 -93.612841 -2.3654237e-16)
(101.14581 -87.682088 0)
(104.29612 -81.330033 2.679679e-17)
(107.71917 -74.617799 2.6185992e-17)
(111.38218 -67.590763 2.0972311e-16)
(115.23252 -60.378582 -2.8782788e-16)
(118.95339 -53.251206 -4.551998e-17)
(36.931447 -76.126458 -6.8606448e-18)
(52.851092 -103.75758 4.516733e-15)
(56.625233 -104.61885 -1.7405183e-15)
(58.449402 -102.33727 1.2807148e-17)
(60.422883 -99.54221 1.1089433e-15)
(62.744336 -96.374128 -8.8023658e-16)
(65.436024 -92.809147 1.3342193e-17)
(68.521924 -88.820045 -2.1707231e-17)
(72.020066 -84.391941 6.9787789e-18)
(75.937808 -79.5266 2.8854259e-17)
(80.266975 -74.2468 -3.2763487e-16)
(84.982996 -68.598773 2.4418404e-16)
(90.065742 -62.644842 4.5925742e-16)
(95.491799 -56.450697 -4.0624397e-16)
(101.19341 -50.172991 5.9400019e-17)
(106.78954 -44.033765 1.9988277e-16)
(20.02893 -57.288048 1.027369e-17)
(29.084729 -78.434888 7.6411585e-18)
(32.158432 -79.096452 1.366455e-15)
(34.49807 -77.212298 -1.083285e-15)
(37.151451 -74.957445 1.4051003e-17)
(40.253687 -72.439066 -6.796798e-16)
(43.835417 -69.632709 4.9967087e-16)
(47.922358 -66.5165 8.5950287e-16)
(52.529613 -63.079021 -1.3305639e-17)
(57.654382 -59.321881 -1.1454516e-15)
(63.269828 -55.26217 4.5549918e-16)
(69.327113 -50.932803 0)
(75.776579 -46.378134 -3.2554523e-17)
(82.564132 -41.654126 2.7390884e-16)
(89.539586 -36.812302 -1.3792878e-16)
(96.171052 -32.131463 3.3400741e-16)
(8.0297524 -34.232322 -1.2129797e-17)
(12.559732 -47.955461 2.5366522e-15)
(15.216967 -48.217796 -1.8765319e-15)
(17.942953 -46.752963 1.0352147e-17)
(21.126526 -45.116757 -2.4751274e-17)
(24.843057 -43.37227 6.8424767e-18)
(29.127406 -41.491198 7.0660961e-16)
(34.008782 -39.453484 9.0096411e-18)
(39.50395 -37.248373 -4.0996532e-16)
(45.608923 -34.873679 3.4130015e-16)
(52.293434 -32.335928 -2.8020935e-16)
(59.50622 -29.64875 0)
(67.198256 -26.826847 -1.9215704e-16)
(75.284467 -23.840933 1.4101228e-16)
(83.496397 -20.81392 -5.0463858e-17)
(91.02549 -17.810862 0)
(111.16403 -59.565416 0)
(188.42031 -98.483639 2.7756944e-15)
(205.35935 -101.0985 -4.3821116e-15)
(205.14544 -100.16056 1.8105531e-15)
(203.28666 -98.137899 1.2231058e-17)
(201.10486 -95.805682 4.3484775e-18)
(198.70708 -93.124821 8.1840152e-16)
(196.10077 -90.098822 -6.9370596e-16)
(193.30867 -86.710093 -4.8250303e-16)
(190.35915 -82.95872 3.617286e-16)
(187.29834 -78.84717 0)
(184.18901 -74.397157 -1.7145272e-16)
(181.11745 -69.65608 1.3764686e-16)
(178.20953 -64.672758 0)
(175.55851 -59.508997 0)
(173.10512 -54.32273 0)
(1.6055663 -10.927557 2.0545041e-15)
(3.8603975 -16.217553 -8.1680624e-16)
(6.4850794 -15.344101 -1.1563659e-15)
(9.5011891 -13.871595 8.52429e-16)
(13.010324 -12.627067 8.5571811e-18)
(17.060854 -11.542528 -2.5789234e-16)
(21.688044 -10.543479 -2.0648561e-16)
(26.921282 -9.5883768 1.9211603e-18)
(32.776585 -8.6514001 2.151884e-18)
(39.24875 -7.7144842 2.9256157e-16)
(46.305763 -6.7641813 -3.122308e-16)
(53.886969 -5.7897697 4.648015e-18)
(61.891817 -4.7828226 2.8736718e-17)
(70.220681 -3.7229132 7.9536591e-17)
(78.655465 -2.5486939 5.8781346e-20)
(86.956084 -1.3862641 -4.5141963e-17)
(2.5028522 20.465807 9.461937e-16)
(5.1156975 30.127539 7.318274e-16)
(7.8376737 30.318774 -1.570184e-15)
(10.931269 29.326925 7.7902749e-16)
(14.479563 28.301726 -3.0762968e-16)
(18.528975 27.262931 -2.8352447e-20)
(23.116207 26.174725 -3.7565153e-16)
(28.270665 25.014712 1.5745e-16)
(34.009365 23.768843 1.6210507e-17)
(40.331161 22.428377 -9.0215629e-17)
(47.210169 20.989183 1.3369667e-16)
(54.595392 19.451241 -1.1734899e-16)
(62.413123 17.815087 2.7656249e-17)
(70.55895 16.069188 1.5012087e-16)
(78.876696 14.250497 -6.0762034e-17)
(87.019752 12.340002 -8.8675624e-17)
(9.796418 44.137455 1.6400519e-17)
(15.027844 61.312384 -2.2078114e-15)
(17.862673 62.058815 1.6427138e-15)
(20.573594 60.694981 -1.2510843e-15)
(23.684063 59.049883 9.9315578e-16)
(27.295325 57.222786 0)
(31.446602 55.197603 -6.2325073e-16)
(36.171309 52.96078 4.8960839e-16)
(41.491549 50.505718 1.0211531e-17)
(47.409937 47.833688 0)
(53.903317 44.954698 4.6296511e-17)
(60.929803 41.886328 -2.395221e-17)
(68.449287 38.647466 1.7684341e-16)
(76.421255 35.281636 -3.529674e-16)
(84.554492 31.749878 2.5579538e-16)
(91.988253 28.296725 7.7085868e-17)
(22.806745 67.051386 -9.0351859e-18)
(33.164175 91.519131 6.6375779e-18)
(36.548312 92.570155 0)
(38.872172 90.751 -1.9960596e-17)
(41.459912 88.473208 -9.6081358e-18)
(44.471067 85.876066 -5.9678338e-16)
(47.937668 82.944669 4.97916e-16)
(51.888905 79.661021 0)
(56.343459 76.015437 -4.2976305e-18)
(61.301936 72.010081 2.7385689e-17)
(66.738978 67.66283 -2.7562607e-17)
(72.609575 63.006719 -1.4238249e-17)
(78.873075 58.082783 -3.5555974e-17)
(85.526916 52.921962 -2.3320482e-16)
(92.378694 47.659479 2.8811873e-16)
(98.692909 42.468773 -1.6945735e-16)
(40.479141 84.866302 0)
(58.321614 115.70712 -1.8188863e-15)
(62.515329 116.92605 2.8170828e-15)
(64.309658 114.71436 -1.1111346e-15)
(66.211572 111.90797 8.7494557e-18)
(68.433059 108.68558 2.2863294e-17)
(70.995669 105.03146 -6.3195709e-16)
(73.925251 100.92019 5.0744905e-16)
(77.240589 96.336885 3.875048e-16)
(80.948686 91.282689 -3.585024e-16)
(85.038413 85.781386 0)
(89.486778 79.880292 2.7118001e-16)
(94.289736 73.64109 -1.5724876e-16)
(99.526555 67.136515 0)
(105.11825 60.482058 0)
(110.19601 54.331341 0)
(60.392203 95.245143 -1.7676621e-15)
(87.841957 131.2753 6.3837488e-16)
(93.115014 132.68241 0)
(94.275009 130.29556 1.09003e-18)
(95.387714 127.19012 3.9977452e-16)
(96.712206 123.61491 -3.3674273e-16)
(98.261811 119.55953 -2.970929e-16)
(100.05929 114.99532 -1.8615501e-17)
(102.12234 109.90581 2.3580198e-16)
(104.4638 104.29127 -1.6526927e-17)
(107.08826 98.176299 0)
(109.99547 91.613417 2.9020361e-16)
(113.20041 84.67642 -3.6058692e-17)
(116.76142 77.488323 -2.0491232e-16)
(120.62401 70.180389 0)
(124.53653 63.046873 -2.669943e-17)
(88.436769 107.87874 3.0919795e-17)
(124.82904 144.66499 7.4119097e-16)
(130.94695 145.93562 -2.78116e-16)
(131.3757 143.95113 -1.4791413e-16)
(131.17167 140.64501 1.2241445e-16)
(130.94891 136.73239 -3.1887192e-17)
(130.77107 132.2515 1.506953e-17)
(130.67186 127.16224 -2.227663e-17)
(130.68018 121.43814 1.4198417e-17)
(130.83295 115.08724 0)
(131.16933 108.15939 0)
(131.72503 100.74562 0)
(132.5528 92.961147 -1.6420736e-18)
(133.75282 84.96429 0)
(135.23502 76.963484 -1.0169565e-16)
(136.39718 69.445321 2.0636838e-16)
(-13.491672 -13.457611 7.4308173e-15)
(-33.824068 -33.730693 2.1474867e-17)
(-41.382428 -41.326919 -4.3880951e-15)
(-41.249414 -42.668695 3.7301937e-15)
(-37.808178 -41.234611 4.9673212e-17)
(-32.736914 -38.407528 4.5286323e-17)
(-26.567623 -34.731456 0)
(-18.94891 -30.820487 2.2363563e-15)
(-9.9694002 -26.212 -3.8882251e-15)
(23.097094 -13.084567 1.2407359e-15)
(68.271733 -0.0068036782 -7.7160493e-16)
(102.65459 11.179464 4.7437933e-16)
(127.01728 20.893118 -7.1553105e-18)
(144.18871 26.699122 -6.1305176e-17)
(155.38504 28.44969 -1.8404959e-16)
(163.35984 24.371614 0)
(-6.2332865 -4.0061612 0)
(-25.175637 -18.432956 -5.1457675e-17)
(-35.806757 -26.149445 5.000424e-15)
(-38.563002 -28.393677 -4.1472994e-15)
(-36.820165 -27.929436 -8.3480188e-17)
(-32.178551 -26.794923 3.0392704e-15)
(-25.34595 -25.890855 -4.8164976e-18)
(2.2535358 -17.74001 -3.1352071e-15)
(46.553611 -5.2069626 1.2961936e-16)
(87.034809 3.9973652 6.2278836e-16)
(118.71702 9.4484951 0)
(143.59656 13.024954 -3.7394759e-17)
(161.56223 15.059896 -6.3754044e-17)
(173.10022 15.79652 -3.0613843e-16)
(179.3895 15.26466 4.4065396e-16)
(182.12417 12.779019 5.2939822e-17)
(-8.5237011 -2.9995484 -1.8575428e-18)
(-27.442889 -12.706336 -1.4086309e-14)
(-39.133624 -18.575685 5.6483763e-15)
(-42.334069 -20.684527 -4.0644325e-17)
(-38.370715 -20.362153 -4.2182452e-15)
(1.4017657 -10.010678 2.3380781e-15)
(52.360216 1.6615936 -2.1704396e-17)
(93.278965 7.6306069 2.5913913e-17)
(123.60156 9.257561 -1.8568603e-17)
(146.8004 8.7161638 -2.4905494e-17)
(164.31525 7.3380576 3.0699158e-16)
(176.91649 5.8185947 -2.1928872e-16)
(185.27597 4.4623665 -4.1415409e-16)
(190.01308 3.3768483 3.7163958e-16)
(191.8492 2.4618946 -6.6608483e-17)
(191.5925 1.52854 -1.9701404e-16)
(-22.943782 -6.5558526 -1.548931e-17)
(-40.558432 -12.789445 -1.3884786e-17)
(-44.823249 -14.792462 -3.0382297e-15)
(3.8036661 -5.6259144 1.7654652e-15)
(62.335701 3.624334 -1.5612314e-17)
(104.22893 7.3011278 5.8085952e-16)
(133.59397 7.4736766 -3.5747678e-16)
(155.09708 5.8958727 -5.5909549e-16)
(170.84851 3.5660034 1.0359856e-17)
(182.02508 1.0163892 7.1704206e-16)
(189.54872 -1.4305954 -2.8877408e-16)
(194.16156 -3.4982897 0)
(196.50091 -5.0360914 2.4654013e-17)
(197.09665 -6.0255333 -1.9390039e-16)
(196.40234 -6.5739205 1.0153831e-16)
(194.82108 -6.8774547 -2.4644439e-16)
(-30.441858 -4.5886797 1.5489309e-17)
(-12.393743 -3.6400142 -3.1232262e-15)
(62.83428 2.5384125 1.6389931e-15)
(112.86431 4.9523673 -6.7985676e-18)
(145.10885 4.4500813 1.3722338e-17)
(167.07163 2.3932389 -3.5229412e-18)
(181.98752 -0.31167182 -3.4521118e-16)
(191.71802 -3.2048065 -8.1102144e-19)
(197.65019 -6.0063332 2.1005931e-16)
(200.8671 -8.5053385 -1.7894744e-16)
(202.20075 -10.57447 1.5476497e-16)
(202.24563 -12.159464 0)
(201.39876 -13.260316 1.1307517e-16)
(199.91729 -13.910132 -8.6976682e-17)
(197.97248 -14.187258 3.3934331e-17)
(195.65428 -14.106 0)
(3.512875 0.88008645 -2.0068846e-15)
(95.892164 -2.0621027 5.355004e-16)
(147.47823 -2.6155248 5.8129203e-16)
(178.04562 -4.4668323 -3.9712753e-16)
(195.53552 -7.37253 -6.5025813e-19)
(204.97671 -10.381078 1.2364444e-16)
(209.54719 -13.105913 1.0019885e-16)
(211.20706 -15.476022 -3.0245806e-18)
(211.14185 -17.475344 -2.9036616e-18)
(210.06491 -19.119624 -1.6034118e-16)
(208.37691 -20.427175 1.7705816e-16)
(206.28028 -21.404727 -4.8442264e-18)
(203.87942 -22.045097 -1.8931353e-17)
(201.24939 -22.329881 -4.8078529e-17)
(198.44937 -22.252656 -3.3984414e-20)
(195.4681 -21.708637 2.5811052e-17)
(68.618425 -6.7338506 -8.9759612e-16)
(154.50973 -19.08086 -4.5458113e-16)
(197.55248 -21.876278 9.206554e-16)
(215.39318 -24.720783 -4.5642537e-16)
(221.57504 -27.226457 1.8877269e-16)
(222.74514 -29.03255 1.7123582e-20)
(221.74213 -30.343539 2.4102994e-16)
(219.75082 -31.36271 -1.111591e-16)
(217.22329 -32.156004 -1.4365866e-17)
(214.36286 -32.751631 5.8173902e-17)
(211.24819 -33.132045 -9.4835015e-17)
(207.9244 -33.253153 7.863891e-17)
(204.44184 -33.069825 -2.1605948e-17)
(200.88327 -32.535979 -9.9636378e-17)
(197.32554 -31.62967 4.026962e-17)
(193.71277 -30.355035 5.2679952e-17)
(98.867537 -22.560213 -1.8076779e-17)
(189.01641 -45.713881 1.8192226e-15)
(220.63963 -48.918882 -1.3170388e-15)
(227.95783 -50.798549 9.9714983e-16)
(227.96748 -51.53644 -8.5192823e-16)
(225.92898 -51.636694 0)
(223.21595 -51.447417 5.4773389e-16)
(220.14397 -51.091849 -4.5547137e-16)
(216.75537 -50.54336 -9.7158054e-18)
(213.13354 -49.801862 0)
(209.30129 -48.822377 -4.0696371e-17)
(205.30994 -47.559945 2.027227e-17)
(201.2434 -45.986529 -1.4118547e-16)
(197.22005 -44.077763 2.7796769e-16)
(193.32923 -41.836702 -1.9769589e-16)
(189.4151 -39.296648 -5.4396363e-17)
(112.151 -41.918915 1.1115025e-17)
(198.15068 -74.26851 -6.8404165e-18)
(221.5117 -77.238258 0)
(223.35617 -77.565942 -6.1001992e-18)
(221.38687 -76.641059 -1.2050283e-17)
(218.7135 -75.344957 6.663805e-16)
(215.73729 -73.807739 -5.923643e-16)
(212.49123 -72.047239 0)
(208.94006 -69.995885 4.4290095e-17)
(205.20565 -67.678184 3.0709379e-17)
(201.31582 -65.054654 2.84258e-17)
(197.3397 -62.113197 -5.5777816e-17)
(193.37715 -58.869527 3.1786762e-17)
(189.5562 -55.352757 1.8054323e-16)
(185.9382 -51.66231 -2.0824058e-16)
(182.38413 -47.920572 1.1568386e-16)
(106.56885 -77.533943 6.6626697e-15)
(172.36752 -118.92487 -2.2080419e-15)
(184.00014 -120.92569 0)
(183.36411 -118.86162 -8.7351176e-18)
(181.92581 -115.89197 -9.6301919e-16)
(180.30896 -112.58021 8.3053186e-16)
(178.57917 -108.84701 5.6221483e-16)
(176.74002 -104.69653 -2.8963324e-17)
(174.8094 -100.12004 -3.9123624e-16)
(172.8038 -95.126787 1.9519852e-17)
(170.7511 -89.740692 0)
(168.6904 -84.009431 -2.4878026e-16)
(166.68832 -78.00024 6.7996507e-17)
(164.87735 -71.75563 1.4295733e-16)
(163.39509 -65.266031 0)
(162.17057 -58.982983 5.6668535e-18)
(98.131898 -92.978554 2.1151292e-17)
(148.80822 -132.79739 3.4075864e-15)
(157.8306 -134.9697 -1.3164378e-15)
(157.83483 -132.48675 -9.4987786e-16)
(157.45334 -129.01565 7.6286527e-16)
(156.94205 -125.10586 -5.6329016e-16)
(156.34858 -120.69915 4.650078e-16)
(155.66733 -115.80753 2.9460177e-16)
(154.89718 -110.41532 -2.6180451e-16)
(154.04227 -104.53258 0)
(153.12365 -98.186479 0)
(152.17921 -91.430934 0)
(151.28341 -84.342073 -6.894288e-20)
(150.60087 -76.961531 0)
(150.40491 -69.410883 1.2649909e-17)
(150.3973 -62.219501 -7.5963048e-18)
(23.875353 -28.12803 4.9650455e-15)
(16.058651 -19.378436 1.9321875e-17)
(-4.4822908 8.6622811 -2.8357952e-15)
(-21.543211 31.60306 1.9252242e-15)
(-32.335639 46.525533 2.4326695e-17)
(-37.508988 54.905586 1.5420021e-17)
(-38.662739 58.999564 0)
(-37.050932 60.419943 7.386586e-16)
(-33.388073 60.203832 -1.2442431e-15)
(-27.825772 58.736574 5.1994449e-16)
(-20.951199 56.568648 -4.2213067e-16)
(-11.493008 53.48837 3.7961782e-16)
(14.304973 45.986023 1.2593216e-17)
(56.152649 35.216059 -5.5810277e-17)
(97.715477 26.645356 -1.4833369e-16)
(135.82962 20.135539 0)
(8.4178662 -12.730332 0)
(-11.967245 23.807233 -3.096416e-17)
(-26.47216 50.113168 2.3929762e-15)
(-34.779183 66.547825 -1.7325733e-15)
(-38.720692 76.319113 -3.0931582e-17)
(-39.834115 81.534614 1.0863527e-15)
(-39.108064 83.861083 -1.4395906e-17)
(-37.033679 84.398398 -1.5110743e-15)
(-33.745393 83.757481 9.0261351e-17)
(-29.138119 82.188906 5.3224469e-16)
(-22.898328 79.706307 0)
(-14.392727 76.144073 -5.166078e-17)
(-2.3384275 71.521814 -6.9051245e-17)
(16.511015 63.936008 -5.0249619e-16)
(51.385484 48.034329 6.2022476e-16)
(93.517005 32.111644 8.7415975e-17)
(-7.5514776 18.449005 -8.451768e-18)
(-24.150844 59.619499 -7.3982391e-15)
(-33.988297 81.555161 2.572992e-15)
(-37.757913 91.922742 -1.607448e-17)
(-38.437406 96.56557 -1.5915166e-15)
(-37.829625 98.409654 1.3234988e-15)
(-36.561397 98.898194 -1.8114463e-17)
(-34.756682 98.646463 3.0339005e-17)
(-32.343892 97.837602 -1.9611993e-17)
(-29.144995 96.446526 -4.2685558e-17)
(-24.889798 94.334231 5.521812e-16)
(-19.203535 91.271535 -4.1507022e-16)
(-11.655723 86.944877 -8.6715472e-16)
(-1.6005153 80.744697 7.9270268e-16)
(13.198088 70.000338 -1.4933541e-16)
(45.454994 50.159178 -5.5276558e-16)
(-12.215176 41.973803 -1.1153883e-17)
(-24.821877 84.961923 -7.433009e-18)
(-30.940466 100.88695 -1.4571475e-15)
(-32.464696 105.91284 1.2347084e-15)
(-32.486042 107.29463 -1.5527831e-17)
(-32.201161 107.54322 8.7029282e-16)
(-31.740747 107.34349 -6.7501785e-16)
(-31.063429 106.80775 -1.2101763e-15)
(-30.09172 105.89179 1.027578e-17)
(-28.708638 104.48835 1.7427323e-15)
(-26.740641 102.43407 -7.1501161e-16)
(-23.930217 99.484579 0)
(-19.974333 95.305135 6.2902209e-17)
(-14.431419 89.365713 -5.8022594e-16)
(-6.2236368 80.350027 3.0407827e-16)
(12.059245 64.129195 -1.0043693e-15)
(-9.0157327 54.847195 1.0628826e-17)
(-16.37257 93.76544 -1.9586072e-15)
(-20.10397 104.23245 1.6336053e-15)
(-21.307592 106.46811 -1.0848416e-17)
(-22.076732 106.95215 2.6012751e-17)
(-22.915863 107.01998 -6.7711176e-18)
(-23.797088 106.81549 -7.8322931e-16)
(-24.702843 106.334 -1.481796e-17)
(-25.592777 105.52708 4.829862e-16)
(-26.393578 104.31077 -4.297574e-16)
(-26.982167 102.54718 3.6390612e-16)
(-27.172722 100.01693 0)
(-26.774822 96.388747 3.1168015e-16)
(-25.545858 91.221421 -2.4626085e-16)
(-22.93965 84.23679 1.1930219e-16)
(-16.032039 72.244871 0)
(-2.5327748 55.506713 -1.1741147e-15)
(-5.3722639 86.216782 4.4367248e-16)
(-7.8036815 92.717228 6.8362041e-16)
(-9.5696142 94.423739 -5.4275614e-16)
(-11.41078 95.231039 -6.2025245e-18)
(-13.49505 95.738975 1.8177498e-16)
(-15.824524 96.061539 1.5211781e-16)
(-18.393571 96.216645 -9.302605e-20)
(-21.172284 96.183739 1.4471803e-19)
(-24.09464 95.912033 -2.4332879e-16)
(-27.041923 95.303654 2.7409386e-16)
(-29.842367 94.181195 1.70647e-18)
(-32.247492 92.240398 -2.4709056e-17)
(-33.921422 89.090035 -9.0281149e-17)
(-34.263827 83.765994 -7.6301865e-20)
(-32.296092 74.905602 7.8846984e-17)
(2.4935516 43.145751 -4.9250276e-16)
(2.4336641 63.35669 -3.7336185e-16)
(0.49674886 68.345672 8.4617143e-16)
(-1.8121161 70.562583 -4.3822928e-16)
(-4.4764401 72.18202 1.7794925e-16)
(-7.5467092 73.648827 1.8458978e-20)
(-11.028619 75.102138 2.3177622e-16)
(-14.909395 76.599024 -9.6206165e-17)
(-19.149325 78.152489 -8.1317659e-18)
(-23.666194 79.755332 6.5497907e-17)
(-28.317462 81.359805 -9.4298996e-17)
(-32.897735 82.850555 9.3851365e-17)
(-37.117318 83.968671 -1.805693e-17)
(-40.552716 84.398445 -1.4105322e-16)
(-42.602543 83.497978 6.251447e-17)
(-42.685597 79.586976 1.0797131e-16)
(2.113018 18.789713 -1.1817667e-17)
(2.4370982 29.719252 1.4564017e-15)
(0.686487 34.362321 -1.0531895e-15)
(-1.8352235 37.520639 7.9351959e-16)
(-4.8690946 40.320096 -6.218896e-16)
(-8.3883279 43.14344 0)
(-12.366697 46.213208 4.0559421e-16)
(-16.758737 49.644696 -3.1625214e-16)
(-21.493041 53.467716 -8.7159949e-18)
(-26.440796 57.695591 0)
(-31.397245 62.314566 -3.7517959e-17)
(-36.097564 67.183857 2.134068e-17)
(-40.17827 71.939188 -1.5965108e-16)
(-43.172722 76.347379 3.2939602e-16)
(-44.984205 78.339632 -2.5851367e-16)
(-45.529517 78.535704 -8.8463975e-17)
(-5.7453824 -11.389572 8.575422e-18)
(-7.308308 -8.4704076 -6.4462301e-18)
(-8.8476702 -2.8574295 0)
(-11.172361 1.9984608 2.2640264e-17)
(-14.074208 6.4538989 1.2252686e-17)
(-17.396643 10.831622 5.7633968e-16)
(-20.920273 15.579358 -4.6894645e-16)
(-24.473626 21.078829 0)
(-27.984091 27.353447 -2.810337e-18)
(-31.28624 34.474603 -3.4902407e-17)
(-34.182041 42.452996 2.5614174e-17)
(-36.146964 51.110279 2.7839918e-17)
(-36.672037 59.93744 3.6920721e-17)
(-35.418665 67.980836 2.7472008e-16)
(-31.854825 73.697049 -3.5308414e-16)
(-29.084515 75.32589 2.1254684e-16)
(-22.816259 -44.50985 0)
(-30.470178 -55.949546 4.0785721e-15)
(-30.650534 -50.303687 -5.9288104e-15)
(-30.28713 -42.49803 2.234039e-15)
(-30.070157 -34.061902 -1.2469188e-17)
(-29.967561 -24.974381 -4.4376499e-17)
(-30.038597 -15.464326 1.16874e-15)
(-30.302535 -5.7386763 -9.4180144e-16)
(-30.459059 4.4843773 -7.3360049e-16)
(-30.316016 15.399355 6.7974563e-16)
(-28.929521 27.063486 0)
(-25.029934 39.652416 -5.6300438e-16)
(-17.616662 52.306829 3.1217921e-16)
(-7.9323897 63.535939 0)
(2.4496526 69.885655 0)
(12.475975 70.279563 0)
(-27.600322 -44.38558 1.3129884e-14)
(-42.268224 -66.199362 -5.7598011e-15)
(-43.206513 -65.994665 0)
(-40.663268 -61.061521 -3.249969e-17)
(-37.674411 -55.069969 -3.2161082e-15)
(-34.548721 -48.286429 2.7625967e-15)
(-31.148742 -40.615617 2.1763937e-15)
(-27.167084 -31.701153 8.0113244e-17)
(-22.413261 -20.844504 -1.7232528e-15)
(-16.925144 -6.5594749 8.30397e-17)
(-10.907532 11.881002 0)
(-0.36767865 30.052182 -1.9932285e-15)
(21.540814 44.06824 2.5754591e-16)
(39.100789 57.335153 1.2286923e-15)
(55.634652 64.195908 0)
(72.496552 60.909213 1.2214257e-16)
(-23.818336 -29.752143 7.8715941e-18)
(-43.770463 -53.824424 1.2054992e-14)
(-47.409297 -57.445388 -5.1668887e-15)
(-45.173698 -55.547362 -4.5254764e-15)
(-41.338665 -52.165845 4.0046652e-15)
(-36.80282 -48.01194 -3.688653e-15)
(-31.648149 -43.209779 3.2800488e-15)
(-25.642383 -37.678739 2.9380275e-15)
(-18.493129 -31.186611 -3.0164515e-15)
(-10.899728 -22.93716 0)
(-9.1800475 -12.112541 0)
(33.802135 8.9690562 0)
(70.82827 31.373321 1.755246e-16)
(90.802691 43.827203 0)
(105.96461 48.779816 5.0025962e-16)
(121.36061 44.122766 -8.1193498e-16)
(124.19472 143.15356 0)
(130.93292 145.00195 0)
(131.99403 143.26506 0)
(132.51896 140.0917 1.5077401e-18)
(132.98265 136.39908 -1.1351378e-17)
(133.51325 132.14742 1.3297485e-17)
(134.13894 127.31371 0)
(134.86116 121.86605 -3.792554e-18)
(135.6846 115.78549 0)
(136.61583 109.10497 0)
(137.65994 101.90054 0)
(138.83476 94.286226 9.7161691e-18)
(140.21754 86.3714 0)
(141.91755 78.470054 -2.9952599e-18)
(143.58004 71.242534 0)
(117.70747 -135.43921 0)
(123.4885 -136.78359 0)
(124.3392 -134.86608 0)
(124.75861 -131.69529 1.0827482e-18)
(125.17942 -128.01105 -7.2442853e-18)
(125.71577 -123.7528 1.067724e-17)
(126.39697 -118.9105 0)
(127.23982 -113.44034 3.7633545e-18)
(128.25084 -107.33965 0)
(129.42608 -100.64221 0)
(130.74863 -93.423476 0)
(132.21068 -85.790793 -1.0003315e-17)
(133.86454 -77.853876 0)
(135.69424 -69.757307 -2.3921814e-17)
(137.56816 -62.694428 0)
(-41.589665 -50.384585 0)
(-45.157958 -53.895832 0)
(-43.079102 -52.052875 0)
(-39.446952 -48.536704 1.426683e-17)
(-35.051322 -44.260335 -1.1453561e-16)
(-29.909769 -39.40915 1.860871e-16)
(-23.785012 -33.897715 0)
(-16.292821 -27.54268 1.78223e-18)
(-6.3543105 -20.713305 0)
(4.1961094 -13.662805 0)
(85.959833 10.472856 0)
(112.50677 23.803649 -2.0657761e-18)
(131.02762 31.03104 0)
(143.1206 33.877367 1.6104305e-16)
(152.10708 30.647172 0)
(11.792135 -13.623027 0)
(-3.0956748 6.7716853 0)
(-21.256675 29.877564 0)
(-32.424967 44.506799 6.4450346e-18)
(-37.745554 52.782496 -4.2623385e-17)
(-38.963461 56.676479 5.6964863e-17)
(-37.157789 57.739178 0)
(-33.142551 56.955555 -3.0314231e-18)
(-26.80879 55.230296 0)
(-18.196557 53.840029 0)
(14.452262 44.152668 0)
(69.032736 31.641696 2.922437e-18)
(110.2985 24.955969 0)
(141.97387 20.697757 9.8235834e-17)
(167.50057 17.749814 0)
(87.169481 106.0676 7.4670826e-20)
(84.382821 -101.87566 -7.077688e-20)
(-21.491421 -26.729486 -1.9328968e-20)
(18.321498 -17.346962 9.2850279e-20)
(138.52314 -6.3596494 0)
(166.29902 -0.41241243 0)
(137.12677 -23.882784 0)