/*--------------------------------*- C++ -*----------------------------------*\
| =========                 |                                                 |
| \\      /  F ield         | foam-extend: Open Source CFD                    |
|  \\    /   O peration     | Version:     4.1                                |
|   \\  /    A nd           | Web:         http://www.foam-extend.org         |
|    \\/     M anipulation  |                                                 |
\*---------------------------------------------------------------------------*/
FoamFile
{
    version     2.0;
    format      ascii;
    class       surfaceScalarField;
    location    "0.2";
    object      phi;
}
// * * * * * * * * * * * * * * * * * * * * * * * * * * * * * * * * * * * * * //

dimensions      [0 3 -1 0 0 0 0];

internalField   nonuniform List<scalar> 
32976
(
-0.0016144108
8.7364606e-08
-0.0016145072
9.6398789e-08
-0.0016146121
1.0495155e-07
-0.0016147271
1.1493365e-07
-0.001614852
1.2498067e-07
-0.0016149881
1.3608117e-07
-0.0016151358
1.4766929e-07
-0.001615296
1.6022017e-07
-0.0016154695
1.7352023e-07
-0.0016156574
1.8782178e-07
-0.0016158604
2.0307125e-07
-0.0016160798
2.1942727e-07
-0.0016163168
2.3691159e-07
-0.0016165724
2.5564671e-07
-0.0016168481
2.7569242e-07
-0.0016171453
2.9716065e-07
-0.0016174654
3.2013264e-07
-0.0016178101
3.4472108e-07
-0.0016181811
3.7102126e-07
-0.0016185803
3.9915166e-07
-0.0016190095
4.2921798e-07
-0.0016194709
4.6134614e-07
-0.0016199665
4.9564961e-07
-0.0016204988
5.3226129e-07
-0.0016210701
5.7129967e-07
-0.001621683
6.1290276e-07
-0.0016223402
6.5719071e-07
-0.0016230445
7.0430345e-07
-0.0016237988
7.5435823e-07
-0.0016246063
8.074921e-07
-0.0016254701
8.6381308e-07
-0.0016263936
9.2344443e-07
-0.0016273801
9.8649152e-07
-0.0016284331
1.0530347e-06
-0.0016295563
1.1231678e-06
-0.0016307532
1.1969321e-06
-0.0016320276
1.2743831e-06
-0.0016333831
1.3555111e-06
-0.0016348234
1.4403167e-06
-0.0016363521
1.5287208e-06
-0.0016379728
1.6206498e-06
-0.0016396887
1.7159364e-06
-0.0016415031
1.814401e-06
-0.0016434189
1.9157818e-06
-0.0016454387
2.0197611e-06
-0.0016475646
2.1259497e-06
-0.0016497985
2.2338811e-06
-0.0016521415
2.3430111e-06
-0.0016545942
2.4527032e-06
-0.0016571564
2.5622341e-06
-0.0016598272
2.6707851e-06
-0.0016626047
2.7774417e-06
-0.0016654859
2.8811913e-06
-0.0016684668
2.9809299e-06
-0.0016715422
3.0754538e-06
-0.0016747057
3.1634764e-06
-0.0016779493
3.24363e-06
-0.0016812638
3.3144778e-06
-0.0016846383
3.374526e-06
-0.0016880606
3.422248e-06
-0.0016915167
3.4560903e-06
-0.0016949912
3.4745104e-06
-0.0016984672
3.4759951e-06
-0.0017019263
3.4590901e-06
-0.0017053487
3.4224256e-06
-0.0017087134
3.3647402e-06
-0.0017119983
3.2849055e-06
-0.0017151803
3.1819276e-06
-0.0017182352
3.0549732e-06
-0.0017211386
2.9033855e-06
-0.0017238654
2.7267242e-06
-0.0017263902
2.5248386e-06
-0.0017286882
2.2979674e-06
-0.001730735
2.0468403e-06
-0.0017325078
1.7727675e-06
-0.0017339854
1.4776634e-06
-0.0017351494
1.1639944e-06
-0.0017359841
8.3467714e-07
-0.0017364771
4.9295317e-07
-0.0017366193
1.422794e-07
-0.0017364056
-2.1374401e-07
-0.0017358342
-5.7143459e-07
-0.0017349071
-9.2709622e-07
-0.00173363
-1.2770971e-06
-0.001732012
-1.6179304e-06
-0.0017300657
-1.9463262e-06
-0.0017278064
-2.2592982e-06
-0.0017252522
-2.5542334e-06
-0.0017224233
-2.8289178e-06
-0.0017193417
-3.0815972e-06
-0.0017160307
-3.3109786e-06
-0.0017125144
-3.5162507e-06
-0.0017088174
-3.6970601e-06
-0.0017049639
-3.8535107e-06
-0.0017009778
-3.9861059e-06
-0.001696882
-4.0957313e-06
-0.0016926984
-4.1835797e-06
-0.0016884473
-4.2511265e-06
-0.0016841473
-4.3000315e-06
-0.0016798152
-4.3321053e-06
-0.001675466
-4.349201e-06
-0.0016711129
-4.3531183e-06
-0.0016667674
-4.345426e-06
-0.0016624402
-4.3272332e-06
-0.0016581414
-4.2987949e-06
-0.0016538824
-4.2590337e-06
-0.0016496774
-4.20493e-06
-0.0016455464
-4.1310038e-06
-0.0016415173
-4.0291735e-06
-0.0016376278
-3.8894679e-06
-0.0016339259
-3.7019379e-06
-0.001630466
-3.4598511e-06
-0.0016273026
-3.1633621e-06
-0.0016244805
-2.8221572e-06
-0.0016220253
-2.4552302e-06
-0.0016199384
-2.0869074e-06
-0.0016181982
-1.7401357e-06
-0.0016167681
-1.43008e-06
-0.0016156071
-1.1610871e-06
-0.0016146788
-9.282755e-07
-0.0016139569
-7.2191102e-07
-0.0016134249
-5.3191691e-07
-0.0016130747
-3.5024129e-07
-1.7170547e-07
-0.0016144069
1.7450488e-07
-0.0016145031
1.9256128e-07
-0.0016146078
2.0963736e-07
-0.0016147224
2.2958296e-07
-0.0016148471
2.4964827e-07
-0.0016149828
2.7182517e-07
-0.0016151301
2.9497167e-07
-0.00161529
3.2004478e-07
-0.001615463
3.466126e-07
-0.0016156504
3.7518274e-07
-0.001615853
4.056459e-07
-0.0016160719
4.3832062e-07
-0.0016163082
4.7324938e-07
-0.0016165632
5.1067765e-07
-0.0016168383
5.5072446e-07
-0.0016171347
5.9361382e-07
-0.0016174541
6.39508e-07
-0.001617798
6.8863249e-07
-0.0016181682
7.411778e-07
-0.0016185664
7.9738093e-07
-0.0016189946
8.5745327e-07
-0.0016194549
9.2164667e-07
-0.0016199495
9.9018815e-07
-0.0016204806
1.0633436e-06
-0.0016210506
1.1413503e-06
-0.0016216622
1.2244845e-06
-0.001622318
1.3129869e-06
-0.0016230208
1.4071379e-06
-0.0016237736
1.5071726e-06
-0.0016245795
1.6133657e-06
-0.0016254416
1.7259341e-06
-0.0016263633
1.8451251e-06
-0.001627348
1.9711507e-06
-0.0016283991
2.104173e-06
-0.0016295203
2.244381e-06
-0.0016307152
2.3918593e-06
-0.0016319876
2.5467206e-06
-0.001633341
2.7089482e-06
-0.0016347792
2.8785456e-06
-0.0016363059
3.0553578e-06
-0.0016379245
3.2392408e-06
-0.0016396384
3.4298633e-06
-0.0016414509
3.6268698e-06
-0.0016433648
3.8297405e-06
-0.0016453829
4.0378439e-06
-0.0016475074
4.2504055e-06
-0.00164974
4.4664967e-06
-0.001652082
4.6850327e-06
-0.001654534
4.9047447e-06
-0.001657096
5.1241891e-06
-0.0016597669
5.3417317e-06
-0.0016625451
5.555545e-06
-0.0016654275
5.7636046e-06
-0.0016684102
5.9637024e-06
-0.0016714882
6.1534288e-06
-0.0016746549
6.330207e-06
-0.0016779026
6.491296e-06
-0.0016812219
6.6338143e-06
-0.0016846022
6.7547641e-06
-0.001688031
6.8510787e-06
-0.0016914946
6.919635e-06
-0.0016949774
6.9573283e-06
-0.0016984625
6.9611088e-06
-0.0017019314
6.9280407e-06
-0.0017053644
6.8553543e-06
-0.0017087401
6.7404938e-06
-0.0017120364
6.5811704e-06
-0.0017152298
6.3753694e-06
-0.0017182963
6.1214074e-06
-0.0017212108
5.8179702e-06
-0.0017239483
5.4641955e-06
-0.0017264833
5.0598149e-06
-0.0017287907
4.6053469e-06
-0.0017308461
4.1022847e-06
-0.0017326266
3.5532665e-06
-0.0017341111
2.9621169e-06
-0.0017352808
2.3337508e-06
-0.0017361201
1.6739822e-06
-0.0017366165
9.8928713e-07
-0.0017367608
2.8659254e-07
-0.0017365477
-4.2686894e-07
-0.0017359754
-1.14369e-06
-0.0017350461
-1.8564412e-06
-0.0017337653
-2.557826e-06
-0.0017321425
-3.2407981e-06
-0.00173019
-3.898787e-06
-0.0017279235
-4.5257922e-06
-0.0017253612
-5.1165656e-06
-0.0017225234
-5.6666613e-06
-0.0017194325
-6.1725606e-06
-0.0017161118
-6.6316721e-06
-0.0017125856
-7.0423747e-06
-0.0017088787
-7.403968e-06
-0.0017050156
-7.7166719e-06
-0.0017010202
-7.9815084e-06
-0.0016969156
-8.2002675e-06
-0.0016927239
-8.3753552e-06
-0.0016884652
-8.5097442e-06
-0.0016841585
-8.6067755e-06
-0.0016798205
-8.6700915e-06
-0.0016754663
-8.703418e-06
-0.001671109
-8.7103724e-06
-0.0016667604
-8.6941085e-06
-0.0016624307
-8.6568596e-06
-0.0016581304
-8.59915e-06
-0.0016538706
-8.5188408e-06
-0.0016496656
-8.409912e-06
-0.0016455352
-8.2614289e-06
-0.0016415071
-8.0572597e-06
-0.001637619
-7.7774959e-06
-0.0016339187
-7.402267e-06
-0.0016304605
-6.9181154e-06
-0.0016272985
-6.3253252e-06
-0.0016244774
-5.6432082e-06
-0.001622023
-4.90967e-06
-0.0016199366
-4.1732882e-06
-0.0016181968
-3.4799149e-06
-0.001616767
-2.8598844e-06
-0.0016156062
-2.3219226e-06
-0.0016146782
-1.8563086e-06
-0.0016139565
-1.4435967e-06
-0.0016134247
-1.0636474e-06
-0.0016130746
-7.0034799e-07
-3.4334698e-07
-0.0016144003
2.6121345e-07
-0.0016144959
2.8824646e-07
-0.0016146001
3.1380439e-07
-0.0016147142
3.4366496e-07
-0.0016148382
3.7370028e-07
-0.0016149733
4.0690059e-07
-0.0016151199
4.415506e-07
-0.0016152789
4.7908702e-07
-0.0016154512
5.1886066e-07
-0.0016156376
5.6163341e-07
-0.0016158392
6.0724061e-07
-0.0016160571
6.5616019e-07
-0.0016162923
7.0845542e-07
-0.0016165461
7.6449434e-07
-0.0016168198
8.2445515e-07
-0.0016171149
8.8867366e-07
-0.0016174328
9.573931e-07
-0.0016177751
1.0309517e-06
-0.0016181436
1.1096352e-06
-0.00161854
1.1937991e-06
-0.0016189663
1.2837607e-06
-0.0016194245
1.3798978e-06
-0.0016199169
1.4825512e-06
-0.0016204457
1.5921202e-06
-0.0016210133
1.7089612e-06
-0.0016216223
1.8334894e-06
-0.0016222754
1.9660667e-06
-0.0016229753
2.1071151e-06
-0.0016237252
2.2569886e-06
-0.0016245279
2.4161011e-06
-0.0016253867
2.58478e-06
-0.001626305
2.7633989e-06
-0.0016272861
2.9522784e-06
-0.0016283336
3.151665e-06
-0.0016294511
3.3618459e-06
-0.0016306422
3.5829528e-06
-0.0016319106
3.8151595e-06
-0.0016332601
4.0584466e-06
-0.0016346944
4.312826e-06
-0.0016362171
4.5780721e-06
-0.0016378319
4.8539763e-06
-0.001639542
5.1400503e-06
-0.0016413509
5.4357695e-06
-0.0016432616
5.7403628e-06
-0.0016452766
6.0528927e-06
-0.0016473984
6.3722069e-06
-0.0016496288
6.6969218e-06
-0.0016519692
7.0254198e-06
-0.0016544203
7.3558061e-06
-0.001656982
7.6859227e-06
-0.0016596536
8.0133245e-06
-0.0016624333
8.3352744e-06
-0.0016653185
8.6487373e-06
-0.0016683052
8.9503995e-06
-0.0016713884
9.2366419e-06
-0.0016745618
9.5035899e-06
-0.0016778176
9.7471183e-06
-0.0016811467
9.9628858e-06
-0.0016845383
1.0146371e-05
-0.0016879801
1.0292942e-05
-0.0016914584
1.0397877e-05
-0.0016949575
1.0456474e-05
-0.0016984605
1.0464104e-05
-0.0017019488
1.0416303e-05
-0.0017054023
1.0308849e-05
-0.0017087996
1.0137838e-05
-0.0017121182
9.8997645e-06
-0.0017153344
9.5915479e-06
-0.0017184236
9.2106221e-06
-0.0017213606
8.7550048e-06
-0.0017241199
8.2234254e-06
-0.0017266756
7.6155346e-06
-0.0017290024
6.9321769e-06
-0.0017310758
6.1756525e-06
-0.0017328725
5.3499524e-06
-0.0017343712
4.4608159e-06
-0.001735553
3.5155953e-06
-0.001736402
2.5229946e-06
-0.0017369055
1.4927325e-06
-0.0017370541
4.3523932e-07
-0.0017368424
-6.3857026e-07
-0.0017362686
-1.7175011e-06
-0.0017353347
-2.7903124e-06
-0.0017340466
-3.8459641e-06
-0.0017324136
-4.8737973e-06
-0.0017304485
-5.8638748e-06
-0.0017281672
-6.8071234e-06
-0.0017255881
-7.6956136e-06
-0.0017227322
-8.5226313e-06
-0.0017196218
-9.2828723e-06
-0.0017162811
-9.9724362e-06
-0.0017127346
-1.0588897e-05
-0.0017090073
-1.113122e-05
-0.0017051242
-1.1599769e-05
-0.0017011096
-1.1996115e-05
-0.0016969869
-1.2322994e-05
-0.0016927782
-1.2584066e-05
-0.0016885041
-1.2783848e-05
-0.0016841834
-1.2927407e-05
-0.0016798333
-1.3020262e-05
-0.0016754686
-1.3068053e-05
-0.0016711027
-1.3076253e-05
-0.0016667472
-1.3049636e-05
-0.0016624125
-1.2991593e-05
-0.0016581087
-1.2902949e-05
-0.001653847
-1.2780537e-05
-0.0016496415
-1.2615372e-05
-0.0016455118
-1.2391107e-05
-0.0016414855
-1.2083606e-05
-0.0016375999
-1.1663066e-05
-0.0016339025
-1.1099726e-05
-0.0016304472
-1.0373409e-05
-0.001627288
-9.4844868e-06
-0.0016244694
-8.4618178e-06
-0.001622017
-7.3621105e-06
-0.0016199322
-6.2580909e-06
-0.0016181936
-5.21845e-06
-0.0016167648
-4.2886768e-06
-0.0016156049
-3.4819027e-06
-0.0016146776
-2.783608e-06
-0.0016139565
-2.1646667e-06
-0.0016134252
-1.594894e-06
-0.0016130755
-1.0501182e-06
-5.1481826e-07
-0.0016143878
3.4727781e-07
-0.0016144828
3.8322053e-07
-0.0016145862
4.1719924e-07
-0.0016146994
4.5690294e-07
-0.0016148226
4.9683692e-07
-0.0016149567
5.4098212e-07
-0.0016151022
5.8705438e-07
-0.00161526
6.3696676e-07
-0.001615431
6.8985453e-07
-0.0016156161
7.4673229e-07
-0.0016158163
8.0738061e-07
-0.0016160326
8.7243596e-07
-0.0016162661
9.4198255e-07
-0.0016165181
1.0165105e-06
-0.0016167899
1.096257e-06
-0.0016170829
1.1816695e-06
-0.0016173986
1.2730721e-06
-0.0016177385
1.3709155e-06
-0.0016181045
1.475581e-06
-0.0016184982
1.5875425e-06
-0.0016189217
1.7072233e-06
-0.0016193769
1.8351275e-06
-0.0016198661
1.9717102e-06
-0.0016203915
2.1175044e-06
-0.0016209555
2.2729865e-06
-0.0016215607
2.4387115e-06
-0.0016222098
2.6151642e-06
-0.0016229056
2.8029091e-06
-0.001623651
3.0024215e-06
-0.0016244492
3.2142564e-06
-0.0016253033
3.4388542e-06
-0.0016262166
3.6767175e-06
-0.0016271926
3.9282792e-06
-0.0016282348
4.1938745e-06
-0.0016293468
4.4738932e-06
-0.0016305324
4.7685191e-06
-0.0016317952
5.0779931e-06
-0.0016331391
5.4022999e-06
-0.0016345677
5.7414663e-06
-0.0016360849
6.0952046e-06
-0.0016376941
6.46325e-06
-0.0016393991
6.8449661e-06
-0.001641203
7.2396688e-06
-0.0016431089
7.6463463e-06
-0.0016451198
8.0637651e-06
-0.001647238
8.4904058e-06
-0.0016494655
8.9244402e-06
-0.0016518038
9.3637272e-06
-0.0016542538
9.8057555e-06
-0.0016568155
1.0247661e-05
-0.0016594884
1.0686192e-05
-0.0016622708
1.1117708e-05
-0.0016651603
1.1538164e-05
-0.001668153
1.1943139e-05
-0.0016712441
1.2327798e-05
-0.0016744275
1.2686959e-05
-0.0016776955
1.3015096e-05
-0.001681039
1.3306389e-05
-0.0016844474
1.3554764e-05
-0.0016879084
1.3753992e-05
-0.0016914083
1.3897711e-05
-0.0016949314
1.3979571e-05
-0.0016984606
1.3993314e-05
-0.0017019772
1.3932882e-05
-0.0017054608
1.3792533e-05
-0.0017088899
1.3566943e-05
-0.0017122415
1.3251323e-05
-0.0017154914
1.284146e-05
-0.0017186147
1.2333857e-05
-0.0017215855
1.1725833e-05
-0.0017243778
1.1015706e-05
-0.0017269653
1.020306e-05
-0.0017293222
9.2890943e-06
-0.0017314235
8.2769475e-06
-0.0017332455
7.1719862e-06
-0.0017347666
5.9818769e-06
-0.0017359674
4.7164184e-06
-0.0017368316
3.3872228e-06
-0.0017373462
2.0072908e-06
-0.0017375016
5.9062369e-07
-0.0017372921
-8.480909e-07
-0.0017367158
-2.2937626e-06
-0.0017357749
-3.7312252e-06
-0.0017344753
-5.1455832e-06
-0.0017328266
-6.5224561e-06
-0.001730842
-7.8484417e-06
-0.0017285379
-9.1113067e-06
-0.0017259331
-1.0300371e-05
-0.0017230491
-1.14066e-05
-0.0017199091
-1.2422873e-05
-0.0017165376
-1.3343966e-05
-0.0017129598
-1.4166658e-05
-0.0017092015
-1.4889604e-05
-0.0017052879
-1.551335e-05
-0.0017012439
-1.6040069e-05
-0.0016970934
-1.6473503e-05
-0.0016928588
-1.6818635e-05
-0.0016885611
-1.7081594e-05
-0.0016842193
-1.7269242e-05
-0.0016798505
-1.7389042e-05
-0.0016754699
-1.744861e-05
-0.0016710908
-1.7455336e-05
-0.0016667248
-1.7415665e-05
-0.0016623822
-1.7334197e-05
-0.0016580731
-1.7212102e-05
-0.0016538084
-1.7045234e-05
-0.001649602
-1.6821696e-05
-0.0016454734
-1.6519787e-05
-0.0016414495
-1.610743e-05
-0.0016375676
-1.5544995e-05
-0.0016338745
-1.4792876e-05
-0.0016304237
-1.3824179e-05
-0.0016272689
-1.2639319e-05
-0.0016244541
-1.1276588e-05
-0.0016220048
-9.8113495e-06
-0.0016199226
-8.3403297e-06
-0.0016181861
-6.9549552e-06
-0.0016167589
-5.7158353e-06
-0.0016156003
-4.6405307e-06
-0.0016146741
-3.7097737e-06
-0.001613954
-2.8848018e-06
-0.0016134235
-2.1254141e-06
-0.0016130742
-1.3993879e-06
-6.8604059e-07
-0.0016143727
4.3248704e-07
-0.0016144667
4.7725248e-07
-0.0016145691
5.1957004e-07
-0.0016146812
5.6902191e-07
-0.0016148031
6.1875971e-07
-0.0016149359
6.7374583e-07
-0.00161508
7.3113272e-07
-0.0016152363
7.9330557e-07
-0.0016154056
8.5918633e-07
-0.0016155889
9.3004018e-07
-0.0016157872
1.0055937e-06
-0.0016160014
1.0866408e-06
-0.0016162327
1.1732867e-06
-0.0016164823
1.2661429e-06
-0.0016167515
1.365506e-06
-0.0016170418
1.4719344e-06
-0.0016173546
1.5858331e-06
-0.0016176914
1.7077653e-06
-0.001618054
1.8382076e-06
-0.0016184443
1.9777526e-06
-0.001618864
2.1269297e-06
-0.0016193152
2.2863698e-06
-0.0016198001
2.4566426e-06
-0.001620321
2.6384158e-06
-0.0016208803
2.8322869e-06
-0.0016214806
3.0389521e-06
-0.0016221244
3.2590206e-06
-0.0016228147
3.4932019e-06
-0.0016235544
3.7420945e-06
-0.0016243465
4.0063975e-06
-0.0016251944
4.2866679e-06
-0.0016261012
4.5835411e-06
-0.0016270705
4.8975669e-06
-0.0016281058
5.2291745e-06
-0.0016292107
5.5788626e-06
-0.0016303891
5.9468739e-06
-0.0016316446
6.3335242e-06
-0.0016329811
6.7388105e-06
-0.0016344025
7.1627842e-06
-0.0016359124
7.6051052e-06
-0.0016375146
8.0654638e-06
-0.0016392127
8.5430874e-06
-0.0016410102
9.0371447e-06
-0.0016429102
9.5463962e-06
-0.0016449158
1.0069326e-05
-0.0016470294
1.060406e-05
-0.0016492533
1.114834e-05
-0.0016515891
1.1699513e-05
-0.0016540378
1.2254463e-05
-0.0016565998
1.2809628e-05
-0.0016592746
1.3360963e-05
-0.0016620608
1.3903922e-05
-0.0016649561
1.4433456e-05
-0.001667957
1.4944032e-05
-0.0016710588
1.5429593e-05
-0.0016742554
1.5883637e-05
-0.0016775396
1.6299219e-05
-0.0016809022
1.6669009e-05
-0.0016843328
1.6985351e-05
-0.0016878191
1.7240374e-05
-0.0016913475
1.7426025e-05
-0.0016949021
1.7534249e-05
-0.0016984659
1.7557086e-05
-0.0017020198
1.7486811e-05
-0.0017055434
1.7316079e-05
-0.0017090145
1.7038059e-05
-0.0017124098
1.6646593e-05
-0.0017157046
1.6136255e-05
-0.0017188733
1.5502549e-05
-0.0017218895
1.4742048e-05
-0.0017247264
1.3852623e-05
-0.0017273571
1.2833785e-05
-0.0017297551
1.1687094e-05
-0.0017318947
1.0416543e-05
-0.0017337516
9.0288941e-06
-0.0017353035
7.5337645e-06
-0.0017365305
5.9434307e-06
-0.0017374158
4.272462e-06
-0.0017379457
2.5372145e-06
-0.0017381104
7.5536186e-07
-0.001737904
-1.054511e-06
-0.0017373245
-2.8732748e-06
-0.001736374
-4.6816824e-06
-0.0017350588
-6.4608285e-06
-0.0017333888
-8.1924599e-06
-0.0017313776
-9.8595751e-06
-0.0017290423
-1.144666e-05
-0.0017264025
-1.2940192e-05
-0.0017234803
-1.432874e-05
-0.0017202999
-1.560333e-05
-0.0017168864
-1.6757398e-05
-0.0017132662
-1.778694e-05
-0.0017094654
-1.8690335e-05
-0.0017055104
-1.946837e-05
-0.0017014266
-2.0123891e-05
-0.0016972384
-2.0661732e-05
-0.0016929687
-2.1088287e-05
-0.0016886389
-2.1411398e-05
-0.0016842683
-2.1639813e-05
-0.0016798743
-2.1783034e-05
-0.0016754722
-2.1850737e-05
-0.0016710752
-2.1852309e-05
-0.001666695
-2.1795941e-05
-0.0016623417
-2.1687503e-05
-0.0016580252
-2.1528578e-05
-0.0016537563
-2.1314101e-05
-0.0016495487
-2.1029331e-05
-0.0016454212
-2.0647285e-05
-0.0016414006
-2.0128026e-05
-0.0016375234
-1.9422169e-05
-0.001633836
-1.8480315e-05
-0.0016303913
-1.7268865e-05
-0.0016272424
-1.578822e-05
-0.001624433
-1.408598e-05
-0.0016219884
-1.2255988e-05
-0.0016199099
-1.041879e-05
-0.0016181764
-8.6884118e-06
-0.0016167517
-7.1405255e-06
-0.0016155951
-5.7971309e-06
-0.0016146707
-4.6342633e-06
-0.0016139519
-3.6035739e-06
-0.0016134224
-2.6548849e-06
-0.0016130739
-1.7479376e-06
-8.5690129e-07
-0.0016143538
5.1663175e-07
-0.0016144467
5.7011182e-07
-0.0016145478
6.2066648e-07
-0.0016146585
6.7974868e-07
-0.0016147789
7.3917264e-07
-0.00161491
8.0487067e-07
-0.0016150523
8.7343868e-07
-0.0016152067
9.4772866e-07
-0.001615374
1.026452e-06
-0.0016155551
1.1111218e-06
-0.0016157509
1.2014118e-06
-0.0016159625
1.2982717e-06
-0.0016161911
1.4018283e-06
-0.0016164378
1.5128138e-06
-0.0016167038
1.6315838e-06
-0.0016169907
1.7588074e-06
-0.0016172998
1.8949708e-06
-0.0016176328
2.0407491e-06
-0.0016179913
2.1967144e-06
-0.0016183772
2.363578e-06
-0.0016187922
2.5419759e-06
-0.0016192385
2.732666e-06
-0.0016197182
2.9363336e-06
-0.0016202336
3.153782e-06
-0.001620787
3.3857314e-06
-0.0016213811
3.6330207e-06
-0.0016220184
3.8963859e-06
-0.0016227019
4.1766837e-06
-0.0016234345
4.4746392e-06
-0.0016242192
4.7910986e-06
-0.0016250592
5.1267401e-06
-0.001625958
5.4823369e-06
-0.001626919
5.8585615e-06
-0.0016279458
6.2559436e-06
-0.001629042
6.6750982e-06
-0.0016302115
7.1163358e-06
-0.001631458
7.5800558e-06
-0.0016327855
8.0662786e-06
-0.0016341978
8.5750912e-06
-0.0016356988
9.1061141e-06
-0.0016372924
9.6590059e-06
-0.0016389821
1.0232872e-05
-0.0016407717
1.082675e-05
-0.0016426645
1.1439188e-05
-0.0016446636
1.2068403e-05
-0.0016467717
1.2712184e-05
-0.0016489913
1.3367857e-05
-0.001651324
1.4032275e-05
-0.0016537713
1.4701728e-05
-0.0016563336
1.5371973e-05
-0.0016590108
1.6038174e-05
-0.0016618018
1.6694895e-05
-0.0016647044
1.7336079e-05
-0.0016677155
1.7955081e-05
-0.0016708305
1.8544613e-05
-0.0016740437
1.9096835e-05
-0.0016773478
1.9603362e-05
-0.0016807342
2.0055326e-05
-0.0016841922
2.0443442e-05
-0.00168771
2.0758151e-05
-0.0016912736
2.0989646e-05
-0.0016948675
2.1128098e-05
-0.0016984742
2.1163759e-05
-0.0017020745
2.1087152e-05
-0.0017056477
2.0889228e-05
-0.0017091711
2.0561548e-05
-0.001712621
2.0096478e-05
-0.0017159721
1.9487285e-05
-0.0017191979
1.8728381e-05
-0.0017222714
1.7815518e-05
-0.0017251648
1.6746065e-05
-0.0017278504
1.5519424e-05
-0.0017303009
1.4137501e-05
-0.0017324894
1.2605142e-05
-0.0017343911
1.093052e-05
-0.0017359825
9.125235e-06
-0.0017372432
7.2040939e-06
-0.0017381554
5.1847023e-06
-0.0017387051
3.0868801e-06
-0.0017388819
9.3211514e-07
-0.0017386794
-1.2569432e-06
-0.0017380958
-3.4569388e-06
-0.0017371331
-5.6443454e-06
-0.0017357979
-7.7960525e-06
-0.0017341006
-9.8897417e-06
-0.0017320555
-1.1904641e-05
-0.0017296804
-1.3821801e-05
-0.0017269958
-1.5624739e-05
-0.001724025
-1.729954e-05
-0.0017207931
-1.8835322e-05
-0.0017173263
-2.0224163e-05
-0.0017136519
-2.1461299e-05
-0.0017097974
-2.2544875e-05
-0.0017057898
-2.3475999e-05
-0.0017016554
-2.4258278e-05
-0.0016974194
-2.4897755e-05
-0.0016931053
-2.5402351e-05
-0.0016887349
-2.5781743e-05
-0.0016843281
-2.6046687e-05
-0.0016799023
-2.6208842e-05
-0.0016754729
-2.6280055e-05
-0.0016710534
-2.627181e-05
-0.0016666553
-2.619413e-05
-0.0016622885
-2.6054245e-05
-0.0016579629
-2.5854224e-05
-0.0016536888
-2.5588163e-05
-0.0016494796
-2.5238556e-05
-0.0016453536
-2.477323e-05
-0.0016413372
-2.4144481e-05
-0.0016374661
-2.3293258e-05
-0.001633786
-2.2160439e-05
-0.0016303491
-2.0705732e-05
-0.0016272079
-1.8929459e-05
-0.0016244055
-1.6888381e-05
-0.0016219668
-1.4694607e-05
-0.0016198933
-1.2492279e-05
-0.0016181639
-1.0417851e-05
-0.0016167425
-8.5619728e-06
-0.0016155885
-6.9510854e-06
-0.0016146662
-5.556583e-06
-0.0016139492
-4.3205933e-06
-0.001613421
-3.1830133e-06
-0.0016130734
-2.0955706e-06
-1.0273062e-06
-0.0016143323
5.9950481e-07
-0.0016144237
6.6157081e-07
-0.0016145233
7.2024083e-07
-0.0016146324
7.8881285e-07
-0.001614751
8.577824e-07
-0.0016148801
9.3403838e-07
-0.0016150203
1.0136281e-06
-0.0016151725
1.0998641e-06
-0.0016153373
1.1912505e-06
-0.0016155157
1.2895453e-06
-0.0016157086
1.3943704e-06
-0.0016159172
1.50683e-06
-0.0016161424
1.6270724e-06
-0.0016163856
1.7559495e-06
-0.0016166479
1.8938764e-06
-0.0016169307
2.0416321e-06
-0.0016172355
2.1997836e-06
-0.0016175639
2.3691181e-06
-0.0016179175
2.5503033e-06
-0.0016182981
2.744169e-06
-0.0016187075
2.9514588e-06
-0.0016191479
3.1730577e-06
-0.0016196214
3.4097681e-06
-0.0016201301
3.6625297e-06
-0.0016206766
3.9321871e-06
-0.0016212633
4.2197238e-06
-0.0016218929
4.5260052e-06
-0.0016225682
4.8520379e-06
-0.0016232923
5.1986775e-06
-0.0016240681
5.5669218e-06
-0.0016248989
5.9575751e-06
-0.0016257882
6.3715543e-06
-0.0016267393
6.8096614e-06
-0.0016277558
7.2725347e-06
-0.0016288417
7.7609141e-06
-0.0016300005
8.275188e-06
-0.0016312363
8.8158507e-06
-0.001632553
9.3829585e-06
-0.0016339545
9.9766474e-06
-0.0016354449
1.0596514e-05
-0.0016370281
1.12422e-05
-0.001638708
1.1912707e-05
-0.0016404882
1.2606959e-05
-0.0016423723
1.332331e-05
-0.0016443636
1.405973e-05
-0.0016464651
1.4813692e-05
-0.0016486794
1.5582123e-05
-0.0016510085
1.63614e-05
-0.001653454
1.714724e-05
-0.0016560168
1.7934728e-05
-0.0016586969
1.8718254e-05
-0.0016614935
1.9491496e-05
-0.0016644048
2.0247393e-05
-0.0016674279
2.0978188e-05
-0.0016705586
2.167535e-05
-0.0016737915
2.2329688e-05
-0.0016771195
2.2931346e-05
-0.001680534
2.3469881e-05
-0.0016840249
2.3934337e-05
-0.0016875802
2.4313405e-05
-0.001691186
2.4595453e-05
-0.0016948267
2.4768794e-05
-0.0016984847
2.4821803e-05
-0.0017021407
2.4743138e-05
-0.0017057734
2.4521936e-05
-0.0017093599
2.4148028e-05
-0.0017128756
2.3612184e-05
-0.0017162946
2.2906239e-05
-0.0017195896
2.2023403e-05
-0.0017227326
2.0958506e-05
-0.0017256948
1.9708334e-05
-0.0017284475
1.8272118e-05
-0.0017309621
1.6652067e-05
-0.0017332108
1.4853872e-05
-0.0017351674
1.2887124e-05
-0.0017368076
1.0765448e-05
-0.0017381098
8.5062486e-06
-0.0017390554
6.130276e-06
-0.0017396294
3.6609561e-06
-0.0017398211
1.123771e-06
-0.0017396237
-1.4543568e-06
-0.001739035
-4.0456103e-06
-0.0017380574
-6.6219358e-06
-0.0017366977
-9.1557735e-06
-0.0017349669
-1.16205e-05
-0.0017328802
-1.3991358e-05
-0.0017304563
-1.6245777e-05
-0.0017277168
-1.8364164e-05
-0.0017246864
-2.0330007e-05
-0.0017213912
-2.2130466e-05
-0.0017178591
-2.3756234e-05
-0.0017141186
-2.5201815e-05
-0.0017101983
-2.646518e-05
-0.0017061265
-2.7547858e-05
-0.0017019304
-2.8454332e-05
-0.0016976362
-2.9191997e-05
-0.0016932681
-2.9770442e-05
-0.0016888485
-3.0201341e-05
-0.0016843976
-3.0497603e-05
-0.0016799332
-3.0673192e-05
-0.001675471
-3.0742256e-05
-0.0016710243
-3.07185e-05
-0.0016666046
-3.0613893e-05
-0.0016622217
-3.0437122e-05
-0.0016578851
-3.0190835e-05
-0.0016536049
-2.9868379e-05
-0.0016493938
-2.9449581e-05
-0.0016452699
-2.8897178e-05
-0.0016412586
-2.8155807e-05
-0.001637395
-2.7156858e-05
-0.0016337238
-2.5831557e-05
-0.0016302966
-2.4132938e-05
-0.0016271649
-2.2061175e-05
-0.0016243713
-1.9682023e-05
-0.0016219403
-1.7125613e-05
-0.0016198731
-1.4559425e-05
-0.0016181488
-1.2142129e-05
-0.0016167316
-9.9792398e-06
-0.001615581
-8.1016333e-06
-0.0016146615
-6.4761198e-06
-0.0016139467
-5.0353744e-06
-0.0016134203
-3.709433e-06
-0.0016130738
-2.4420384e-06
-1.1971286e-06
-0.0016143051
6.8090226e-07
-0.0016143949
7.514051e-07
-0.0016144927
8.1804878e-07
-0.0016145999
8.9594728e-07
-0.0016147164
9.74299e-07
-0.0016148433
1.0609341e-06
-0.001614981
1.1513605e-06
-0.0016151305
1.2493441e-06
-0.0016152924
1.3531853e-06
-0.0016154678
1.4648837e-06
-0.0016156574
1.5840105e-06
-0.0016158624
1.7118223e-06
-0.0016160838
1.8484897e-06
-0.0016163229
1.9949829e-06
-0.0016165808
2.1517763e-06
-0.0016168589
2.3197583e-06
-0.0016171587
2.4995768e-06
-0.0016174817
2.6921306e-06
-0.0016178296
2.8981832e-06
-0.0016182041
3.1186834e-06
-0.0016186071
3.3544826e-06
-0.0016190407
3.6065939e-06
-0.0016195068
3.8759376e-06
-0.0016200079
4.1635914e-06
-0.0016205462
4.4705261e-06
-0.0016211244
4.7978721e-06
-0.001621745
5.1466267e-06
-0.0016224109
5.51795e-06
-0.0016231251
5.9128325e-06
-0.0016238906
6.3324283e-06
-0.0016247107
6.777674e-06
-0.0016255887
7.2496369e-06
-0.0016265283
7.7492563e-06
-0.0016275331
8.2772884e-06
-0.0016286068
8.834608e-06
-0.0016297533
9.4216931e-06
-0.0016309766
1.0039146e-05
-0.0016322807
1.0687072e-05
-0.0016336697
1.1365674e-05
-0.0016351478
1.207454e-05
-0.0016367189
1.2813315e-05
-0.0016383871
1.3580916e-05
-0.0016401563
1.4376173e-05
-0.0016420303
1.519727e-05
-0.0016440125
1.6041953e-05
-0.0016461062
1.6907397e-05
-0.0016483142
1.7790158e-05
-0.001650639
1.8686156e-05
-0.0016530823
1.9590555e-05
-0.0016556453
2.0497787e-05
-0.0016583286
2.1401482e-05
-0.0016611315
2.2294441e-05
-0.0016640527
2.3168607e-05
-0.0016670897
2.4015106e-05
-0.0016702385
2.4824156e-05
-0.001673494
2.5585193e-05
-0.0016768495
2.6286866e-05
-0.0016802967
2.6917115e-05
-0.0016838256
2.7463259e-05
-0.0016874244
2.791217e-05
-0.0016910793
2.8250316e-05
-0.0016947745
2.8464053e-05
-0.0016984925
2.8539771e-05
-0.0017022135
2.8464143e-05
-0.0017059159
2.8224357e-05
-0.0017095763
2.7808375e-05
-0.0017131693
2.7205224e-05
-0.0017166682
2.6405166e-05
-0.0017200449
2.5400065e-05
-0.0017232701
2.4183706e-05
-0.0017263139
2.2752179e-05
-0.0017291463
2.1104458e-05
-0.0017317372
1.9242995e-05
-0.0017340576
1.7174294e-05
-0.0017360799
1.4909372e-05
-0.0017377784
1.2463923e-05
-0.0017391301
9.8580389e-06
-0.0017401156
7.1157485e-06
-0.0017407189
4.2642626e-06
-0.0017409284
1.3332802e-06
-0.001740737
-1.6457464e-06
-0.0017401424
-4.640255e-06
-0.001739147
-7.6173668e-06
-0.001737758
-1.0544778e-05
-0.0017359872
-1.3391269e-05
-0.0017338507
-1.6127843e-05
-0.0017313684
-1.8728074e-05
-0.0017285635
-2.1169089e-05
-0.0017254618
-2.3431646e-05
-0.0017220914
-2.5500875e-05
-0.0017184816
-2.7366062e-05
-0.0017146624
-2.9021022e-05
-0.001710664
-3.046362e-05
-0.0017065159
-3.1695933e-05
-0.0017022468
-3.2723464e-05
-0.0016978836
-3.3555128e-05
-0.0016934517
-3.4202367e-05
-0.001688974
-3.4679034e-05
-0.0016844712
-3.5000373e-05
-0.0016799616
-3.5182826e-05
-0.0016754609
-3.5243001e-05
-0.0016709824
-3.5196973e-05
-0.0016665375
-3.5058782e-05
-0.0016621359
-3.4838691e-05
-0.0016577867
-3.4540034e-05
-0.0016534996
-3.4155517e-05
-0.0016492868
-3.3662401e-05
-0.0016451655
-3.3018455e-05
-0.0016411605
-3.2160779e-05
-0.001637306
-3.1011321e-05
-0.0016336459
-2.9491745e-05
-0.0016302304
-2.7548433e-05
-0.0016271102
-2.5181333e-05
-0.0016243272
-2.2465001e-05
-0.0016219055
-1.9547317e-05
-0.0016198462
-1.6618792e-05
-0.0016181282
-1.3860061e-05
-0.0016167161
-1.139137e-05
-0.0016155697
-9.2480054e-06
-0.0016146536
-7.3922574e-06
-0.0016139415
-5.7474316e-06
-0.0016134172
-4.2337797e-06
-0.0016130721
-2.7870975e-06
-1.3662512e-06
-0.0016142754
7.6062319e-07
-0.0016143634
8.3939366e-07
-0.0016144592
9.1384985e-07
-0.0016145641
1.0008893e-06
-0.0016146783
1.0884374e-06
-0.0016148026
1.1852485e-06
-0.0016149375
1.2863012e-06
-0.001615084
1.3958068e-06
-0.0016152427
1.5118661e-06
-0.0016154145
1.6367161e-06
-0.0016156004
1.7698789e-06
-0.0016158013
1.9127615e-06
-0.0016160184
2.0655566e-06
-0.0016162528
2.2293521e-06
-0.0016165057
2.4046812e-06
-0.0016167784
2.5925412e-06
-0.0016170725
2.7936609e-06
-0.0016173894
3.00905e-06
-0.0016177308
3.2395685e-06
-0.0016180984
3.486284e-06
-0.0016184941
3.7501563e-06
-0.0016189198
4.0323276e-06
-0.0016193777
4.3338372e-06
-0.00161987
4.6559022e-06
-0.0016203991
4.9996217e-06
-0.0016209675
5.3662753e-06
-0.0016215779
5.7569958e-06
-0.0016222331
6.1731006e-06
-0.001622936
6.6157197e-06
-0.0016236897
7.086169e-06
-0.0016244975
7.5855244e-06
-0.0016253629
8.1150107e-06
-0.0016262894
8.6757138e-06
-0.0016272806
9.268518e-06
-0.0016283404
9.8944443e-06
-0.0016294728
1.0554074e-05
-0.0016306818
1.124813e-05
-0.0016319715
1.1976788e-05
-0.0016333462
1.2740329e-05
-0.00163481
1.3538357e-05
-0.0016363672
1.4370539e-05
-0.001638022
1.5235731e-05
-0.0016397786
1.6132694e-05
-0.0016416407
1.7059466e-05
-0.0016436124
1.8013594e-05
-0.001645697
1.8991984e-05
-0.0016478977
1.9990844e-05
-0.0016502172
2.1005665e-05