/*--------------------------------*- C++ -*----------------------------------*\
| =========                 |                                                 |
| \\      /  F ield         | foam-extend: Open Source CFD                    |
|  \\    /   O peration     | Version:     4.1                                |
|   \\  /    A nd           | Web:         http://www.foam-extend.org         |
|    \\/     M anipulation  |                                                 |
\*---------------------------------------------------------------------------*/
FoamFile
{
    version     2.0;
    format      ascii;
    class       volScalarField;
    location    "0.2";
    object      rAU;
}
// * * * * * * * * * * * * * * * * * * * * * * * * * * * * * * * * * * * * * //

dimensions      [0 0 1 0 0 0 0];

internalField   nonuniform List<scalar> 
16796
(
0.00048792694
0.00048752
0.00048751932
0.00048751867
0.00048751786
0.00048751708
0.00048751614
0.00048751521
0.00048751411
0.00048751301
0.00048751173
0.00048751044
0.00048750895
0.00048750744
0.00048750572
0.00048750396
0.00048750197
0.00048749991
0.00048749761
0.00048749523
0.00048749257
0.00048748981
0.00048748675
0.00048748356
0.00048748004
0.00048747635
0.00048747231
0.00048746807
0.00048746344
0.00048745857
0.00048745327
0.00048744765
0.0004874417
0.00048743525
0.00048742846
0.00048742113
0.00048741343
0.00048740514
0.00048739642
0.00048738708
0.00048737727
0.0004873668
0.00048735577
0.00048734412
0.00048733184
0.00048731891
0.00048730532
0.00048729108
0.00048727616
0.00048726058
0.00048724435
0.00048722746
0.00048720994
0.00048719182
0.00048717313
0.0004871539
0.00048713418
0.00048711404
0.00048709352
0.00048707273
0.00048705173
0.00048703061
0.00048700949
0.00048698847
0.00048696768
0.00048694723
0.00048692728
0.00048690795
0.00048688939
0.00048687175
0.00048685519
0.00048683985
0.00048682589
0.00048681345
0.00048680268
0.0004867937
0.00048678662
0.00048678154
0.00048677854
0.00048677766
0.00048677766
0.00048677895
0.0004867824
0.00048678802
0.00048679576
0.00048680557
0.00048681737
0.00048683108
0.00048684658
0.00048686374
0.00048688245
0.00048690255
0.00048692389
0.00048694634
0.00048696974
0.00048699395
0.00048701882
0.00048704424
0.00048707006
0.00048709619
0.00048712252
0.00048714895
0.0004871754
0.00048720182
0.00048722812
0.00048725426
0.00048728016
0.00048730573
0.00048733086
0.00048735538
0.00048737905
0.0004874016
0.00048742267
0.00048744195
0.00048745916
0.00048747413
0.00048748686
0.00048749748
0.0004875062
0.00048751327
0.00048751893
0.00048752333
0.00048752657
0.00048712297
0.00048762158
0.00048721509
0.00048721436
0.00048721365
0.00048721279
0.00048721194
0.00048721093
0.00048720993
0.00048720875
0.00048720757
0.0004872062
0.00048720481
0.00048720323
0.00048720161
0.00048719977
0.00048719788
0.00048719576
0.00048719357
0.00048719111
0.00048718857
0.00048718574
0.00048718279
0.00048717953
0.00048717613
0.00048717238
0.00048716846
0.00048716416
0.00048715965
0.00048715473
0.00048714955
0.00048714393
0.00048713796
0.00048713164
0.00048712481
0.00048711762
0.00048710986
0.00048710171
0.00048709295
0.00048708374
0.00048707389
0.00048706354
0.00048705252
0.00048704092
0.00048702868
0.00048701579
0.00048700224
0.00048698803
0.00048697314
0.00048695759
0.00048694137
0.00048692449
0.00048690697
0.00048688884
0.00048687013
0.00048685086
0.00048683111
0.00048681091
0.00048679033
0.00048676944
0.00048674834
0.00048672712
0.00048670587
0.00048668471
0.00048666376
0.00048664316
0.00048662302
0.00048660351
0.00048658476
0.00048656692
0.00048655016
0.00048653462
0.00048652046
0.00048650784
0.00048649689
0.00048648775
0.00048648052
0.00048647532
0.00048647221
0.00048647127
0.0004864725
0.0004864721
0.00048647121
0.00048647251
0.00048647601
0.00048648169
0.00048648953
0.00048649946
0.0004865114
0.00048652526
0.00048654092
0.00048655827
0.00048657715
0.00048659744
0.00048661896
0.00048664159
0.00048666515
0.00048668951
0.00048671453
0.00048674007
0.00048676601
0.00048679223
0.00048681863
0.00048684512
0.00048687164
0.00048689809
0.00048692444
0.00048695064
0.00048697662
0.00048700233
0.00048702765
0.00048705242
0.00048707639
0.00048709922
0.00048712054
0.00048713994
0.00048715714
0.00048717196
0.00048718445
0.0004871948
0.00048720329
0.00048721019
0.00048721574
0.00048722008
0.00048681807
0.00048762109
0.00048721456
0.00048721378
0.00048721301
0.00048721209
0.00048721118
0.0004872101
0.00048720903
0.00048720778
0.00048720651
0.00048720506
0.00048720358
0.0004872019
0.00048720017
0.00048719822
0.00048719621
0.00048719396
0.00048719162
0.00048718902
0.00048718631
0.00048718332
0.00048718019
0.00048717673
0.00048717312
0.00048716915
0.00048716499
0.00048716044
0.00048715566
0.00048715045
0.00048714498
0.00048713903
0.00048713273
0.00048712605
0.00048711883
0.00048711123
0.00048710306
0.00048709445
0.00048708523
0.00048707553
0.00048706516
0.00048705428
0.0004870427
0.00048703053
0.00048701769
0.00048700419
0.00048699001
0.00048697515
0.00048695962
0.0004869434
0.00048692651
0.00048690897
0.00048689079
0.00048687201
0.00048685266
0.00048683279
0.00048681246
0.00048679172
0.00048677065
0.00048674932
0.00048672785
0.00048670633
0.00048668487
0.00048666359
0.00048664262
0.00048662211
0.00048660219
0.00048658302
0.00048656476
0.00048654756
0.00048653158
0.00048651698
0.00048650393
0.00048649257
0.00048648303
0.00048647546
0.00048646994
0.00048646658
0.00048646541
0.0004864665
0.00048646985
0.00048646905
0.00048646597
0.00048646512
0.00048646651
0.00048647017
0.00048647607
0.00048648417
0.00048649441
0.0004865067
0.00048652093
0.000486537
0.00048655476
0.00048657407
0.00048659477
0.0004866167
0.00048663972
0.00048666366
0.00048668838
0.00048671372
0.00048673955
0.00048676574
0.00048679218
0.00048681877
0.00048684544
0.0004868721
0.00048689872
0.00048692525
0.00048695169
0.000486978
0.00048700416
0.00048703004
0.00048705546
0.00048708007
0.00048710344
0.00048712505
0.00048714448
0.0004871614
0.00048717577
0.00048718775
0.00048719765
0.00048720581
0.00048721251
0.00048721795
0.00048681703
0.00048762063
0.00048721405
0.00048721322
0.0004872124
0.00048721142
0.00048721045
0.00048720931
0.00048720817
0.00048720685
0.0004872055
0.00048720397
0.0004872024
0.00048720062
0.00048719879
0.00048719673
0.00048719461
0.00048719223
0.00048718976
0.00048718701
0.00048718415
0.00048718099
0.00048717768
0.00048717404
0.00048717023
0.00048716605
0.00048716166
0.00048715687
0.00048715183
0.00048714634
0.00048714057
0.00048713431
0.00048712768
0.00048712065
0.00048711306
0.00048710507
0.00048709648
0.00048708744
0.00048707776
0.00048706758
0.00048705671
0.0004870453
0.00048703318
0.00048702043
0.00048700701
0.0004869929
0.00048697809
0.00048696259
0.0004869464
0.00048692952
0.00048691196
0.00048689374
0.00048687489
0.00048685544
0.00048683545
0.00048681495
0.000486794
0.00048677269
0.00048675109
0.00048672928
0.0004867074
0.00048668552
0.00048666379
0.00048664233
0.00048662128
0.00048660079
0.00048658102
0.00048656214
0.00048654429
0.00048652765
0.00048651239
0.00048649868
0.00048648666
0.0004864765
0.00048646834
0.00048646229
0.00048645844
0.00048645688
0.00048645764
0.00048646076
0.00048646621
0.00048646506
0.00048645977
0.00048645675
0.00048645604
0.00048645767
0.00048646165
0.00048646795
0.00048647652
0.00048648729
0.00048650015
0.000486515
0.0004865317
0.00048655009
0.00048657004
0.00048659136
0.0004866139
0.00048663748
0.00048666196
0.00048668715
0.00048671293
0.00048673915
0.00048676568
0.00048679241
0.00048681926
0.00048684616
0.00048687305
0.00048689994
0.00048692684
0.00048695377
0.00048698076
0.00048700775
0.0004870346
0.00048706098
0.00048708638
0.0004871102
0.00048713184
0.00048715086
0.00048716711
0.00048718072
0.00048719203
0.00048720143
0.00048720929
0.00048721583
0.00048681599
0.0004876202
0.00048721357
0.0004872127
0.00048721182
0.00048721079
0.00048720976
0.00048720856
0.00048720735
0.00048720596
0.00048720455
0.00048720293
0.00048720128
0.0004871994
0.00048719748
0.00048719531
0.00048719308
0.00048719058
0.00048718798
0.00048718509
0.00048718209
0.00048717877
0.00048717529
0.00048717147
0.00048716746
0.00048716308
0.00048715847
0.00048715344
0.00048714815
0.0004871424
0.00048713634
0.00048712978
0.00048712283
0.00048711546
0.00048710751
0.00048709914
0.00048709015
0.00048708069
0.00048707055
0.0004870599
0.00048704854
0.00048703662
0.00048702395
0.00048701065
0.00048699664
0.00048698193
0.0004869665
0.00048695035
0.00048693351
0.00048691595
0.00048689772
0.00048687881
0.00048685928
0.00048683915
0.00048681848
0.00048679731
0.00048677573
0.00048675381
0.00048673163
0.0004867093
0.00048668694
0.00048666466
0.00048664259
0.00048662088
0.00048659969
0.00048657916
0.00048655947
0.00048654079
0.00048652329
0.00048650714
0.00048649253
0.00048647963
0.00048646859
0.00048645958
0.00048645274
0.00048644816
0.00048644596
0.00048644618
0.00048644885
0.00048645399
0.00048646157
0.00048646011
0.00048645258
0.00048644737
0.00048644454
0.00048644415
0.00048644623
0.00048645075
0.00048645769
0.00048646697
0.00048647851
0.0004864922
0.0004865079
0.00048652545
0.00048654471
0.00048656549
0.00048658762
0.00048661092
0.00048663522
0.00048666034
0.00048668613
0.00048671242
0.00048673909
0.00048676601
0.00048679309
0.00048682025
0.00048684746
0.00048687472
0.00048690209
0.00048692964
0.00048695746
0.00048698557
0.00048701385
0.00048704198
0.00048706941
0.00048709542
0.00048711926
0.00048714037
0.00048715848
0.00048717371
0.00048718643
0.00048719707
0.00048720607
0.00048721371
0.00048681495
0.0004876198
0.00048721312
0.00048721221
0.00048721128
0.0004872102
0.00048720911
0.00048720786
0.00048720658
0.00048720512
0.00048720364
0.00048720194
0.00048720021
0.00048719825
0.00048719623
0.00048719397
0.00048719162
0.00048718901
0.00048718629
0.00048718327
0.00048718012
0.00048717665
0.00048717302
0.00048716902
0.00048716483
0.00048716025
0.00048715543
0.00048715017
0.00048714464
0.00048713863
0.00048713231
0.00048712545
0.00048711819
0.00048711049
0.00048710219
0.00048709345
0.00048708407
0.00048707419
0.00048706362
0.00048705252
0.00048704067
0.00048702824
0.00048701504
0.00048700118
0.00048698659
0.00048697128
0.00048695523
0.00048693844
0.00048692094
0.00048690271
0.00048688378
0.00048686418
0.00048684394
0.0004868231
0.00048680173
0.00048677987
0.00048675762
0.00048673504
0.00048671225
0.00048668934
0.00048666645
0.0004866437
0.00048662124
0.00048659922
0.0004865778
0.00048655716
0.00048653747
0.00048651892
0.00048650169
0.00048648596
0.00048647193
0.00048645977
0.00048644964
0.00048644173
0.00048643615
0.00048643302
0.00048643242
0.00048643441
0.00048643899
0.00048644617
0.00048645588
0.00048645419
0.00048644438
0.00048643694
0.00048643198
0.00048642956
0.00048642973
0.0004864325
0.00048643783
0.00048644567
0.00048645593
0.00048646852
0.00048648329
0.00048650008
0.00048651872
0.00048653904
0.00048656084
0.00048658393
0.00048660814
0.00048663325
0.00048665911
0.00048668555
0.00048671241
0.00048673956
0.00048676691
0.00048679437
0.00048682192
0.00048684959
0.00048687745
0.00048690563
0.00048693429
0.0004869635
0.0004869932
0.00048702308
0.00048705252
0.0004870807
0.00048710674
0.00048712991
0.00048714988
0.00048716673
0.00048718084
0.00048719273
0.00048720287
0.0004872116
0.00048681392
0.00048761943
0.00048721271
0.00048721175
0.00048721077
0.00048720965
0.00048720851
0.00048720719
0.00048720586
0.00048720434
0.00048720278
0.00048720102
0.00048719921
0.00048719717
0.00048719506
0.0004871927
0.00048719025
0.00048718753
0.00048718469
0.00048718155
0.00048717827
0.00048717465
0.00048717086
0.0004871667
0.00048716234
0.00048715756
0.00048715254
0.00048714707
0.00048714131
0.00048713506
0.00048712846
0.00048712133
0.00048711377
0.00048710575
0.00048709712
0.00048708802
0.00048707826
0.00048706798
0.00048705698
0.00048704542
0.0004870331
0.00048702017
0.00048700645
0.00048699204
0.00048697688
0.00048696097
0.0004869443
0.00048692687
0.0004869087
0.00048688979
0.00048687016
0.00048684984
0.00048682888
0.00048680731
0.00048678521
0.00048676263
0.00048673966
0.00048671639
0.00048669292
0.00048666938
0.00048664591
0.00048662262
0.0004865997
0.00048657729
0.00048655557
0.00048653474
0.00048651497
0.00048649646
0.00048647942
0.00048646403
0.0004864505
0.00048643902
0.00048642975
0.00048642287
0.00048641851
0.00048641679
0.00048641777
0.00048642151
0.000486428
0.00048643723
0.00048644911
0.00048644729
0.00048643514
0.00048642544
0.0004864183
0.00048641384
0.0004864121
0.00048641312
0.00048641687
0.00048642331
0.00048643235
0.0004864439
0.0004864578
0.00048647389
0.00048649201
0.00048651194
0.0004865335
0.00048655647
0.00048658066
0.00048660585
0.00048663186
0.0004866585
0.00048668562
0.00048671306
0.00048674073
0.00048676854
0.00048679646
0.00048682455
0.00048685293
0.00048688175
0.00048691126
0.00048694158
0.00048697269
0.00048700429
0.00048703573
0.00048706607
0.00048709428
0.00048711951
0.00048714132
0.00048715978
0.00048717528
0.0004871884
0.00048719968
0.0004872095
0.00048681289
0.00048761908
0.00048721232
0.00048721132
0.0004872103
0.00048720913
0.00048720794
0.00048720657
0.00048720519
0.0004872036
0.00048720198
0.00048720015
0.00048719827
0.00048719615
0.00048719395
0.00048719151
0.00048718896
0.00048718614
0.00048718319
0.00048717993
0.00048717652
0.00048717277
0.00048716883
0.00048716452
0.00048715998
0.00048715503
0.00048714981
0.00048714414
0.00048713815
0.00048713167
0.00048712482
0.00048711742
0.00048710957
0.00048710125
0.00048709229
0.00048708284
0.00048707271
0.00048706204
0.00048705063
0.00048703863
0.00048702585
0.00048701243
0.00048699819
0.00048698324
0.00048696751
0.000486951
0.00048693371
0.00048691564
0.00048689679
0.00048687719
0.00048685685
0.0004868358
0.0004868141
0.00048679177
0.00048676891
0.00048674557
0.00048672184
0.00048669783
0.00048667364
0.00048664941
0.00048662528
0.0004866014
0.00048657793
0.00048655505
0.00048653296
0.00048651184
0.0004864919
0.00048647336
0.00048645642
0.00048644129
0.00048642818
0.00048641729
0.00048640881
0.00048640292
0.00048639974
0.00048639938
0.00048640193
0.00048640741
0.00048641582
0.00048642712
0.00048644121
0.00048643939
0.00048642483
0.0004864128
0.00048640346
0.00048639693
0.00048639328
0.00048639255
0.00048639474
0.00048639981
0.00048640768
0.00048641824
0.00048643135
0.00048644683
0.0004864645
0.00048648414
0.00048650554
0.00048652848
0.00048655274
0.00048657809
0.00048660433
0.00048663126
0.0004866587
0.0004866865
0.00048671454
0.00048674274
0.00048677108
0.00048679963
0.00048682853
0.00048685802
0.00048688838
0.0004869198
0.00048695232
0.00048698564
0.00048701906
0.00048705153
0.0004870819
0.00048710917
0.00048713281
0.00048715286
0.00048716975
0.00048718409
0.0004871965
0.0004872074
0.00048681186
0.00048761877
0.00048721196
0.00048721093
0.00048720987
0.00048720865
0.00048720741
0.000487206
0.00048720456
0.00048720292
0.00048720124
0.00048719935
0.00048719739
0.0004871952
0.00048719293
0.00048719039
0.00048718776
0.00048718484
0.00048718179
0.00048717842
0.00048717489
0.00048717101
0.00048716693
0.00048716247
0.00048715777
0.00048715265
0.00048714725
0.00048714138
0.00048713519
0.00048712848
0.00048712139
0.00048711373
0.00048710561
0.00048709699
0.00048708772
0.00048707794
0.00048706745
0.0004870564
0.00048704459
0.00048703216
0.00048701892
0.00048700502
0.00048699028
0.00048697479
0.0004869585
0.0004869414
0.00048692349
0.00048690476
0.00048688524
0.00048686494
0.00048684387
0.00048682208
0.0004867996
0.0004867765
0.00048675284
0.0004867287
0.00048670417
0.00048667936
0.0004866544
0.00048662941
0.00048660455
0.00048657999
0.0004865559
0.00048653247
0.00048650991
0.00048648842
0.00048646822
0.00048644955
0.00048643262
0.00048641766
0.00048640489
0.00048639453
0.00048638676
0.00048638179
0.00048637974
0.00048638072
0.00048638482
0.00048639205
0.00048640239
0.0004864158
0.00048643215
0.00048643046
0.00048641341
0.000486399
0.0004863874
0.00048637876
0.00048637317
0.0004863707
0.00048637135
0.00048637509
0.00048638183
0.00048639148
0.00048640387
0.00048641882
0.00048643613
0.00048645557
0.00048647692
0.00048649992
0.00048652435
0.00048654995
0.00048657651
0.00048660381
0.00048663165
0.00048665987
0.00048668834
0.00048671699
0.00048674579
0.00048677483
0.00048680429
0.00048683446
0.00048686567
0.0004868982
0.00048693211
0.00048696714
0.00048700251
0.0004870371
0.00048706961
0.0004870989
0.00048712436
0.00048714599
0.00048716425
0.00048717981
0.00048719334
0.00048720532
0.00048681084
0.00048761848
0.00048721164
0.00048721058
0.00048720947
0.00048720822
0.00048720694
0.00048720548
0.00048720399
0.0004872023
0.00048720056
0.0004871986
0.00048719659
0.00048719432
0.00048719198
0.00048718937
0.00048718665
0.00048718364
0.00048718049
0.00048717701
0.00048717337
0.00048716937
0.00048716517
0.00048716056
0.00048715572
0.00048715044
0.00048714487
0.00048713881
0.00048713242
0.00048712549
0.00048711818
0.00048711028
0.00048710189
0.00048709299
0.00048708342
0.00048707332
0.00048706249
0.00048705107
0.00048703886
0.00048702602
0.00048701234
0.00048699797
0.00048698273
0.00048696671
0.00048694986
0.00048693216
0.00048691363
0.00048689425
0.00048687405
0.00048685304
0.00048683123
0.00048680867
0.0004867854
0.00048676148
0.00048673699
0.00048671201
0.00048668663
0.00048666098
0.00048663517
0.00048660936
0.00048658371
0.00048655839
0.00048653359
0.00048650952
0.00048648639
0.00048646443
0.00048644387
0.00048642497
0.00048640795
0.00048639306
0.00048638054
0.00048637062
0.00048636351
0.00048635939
0.00048635843
0.00048636072
0.00048636635
0.00048637533
0.00048638763
0.00048640318
0.00048642185
0.00048642047
0.00048640084
0.00048638396
0.00048637005
0.00048635926
0.00048635172
0.0004863475
0.00048634662
0.00048634906
0.00048635473
0.00048636353
0.00048637527
0.00048638978
0.00048640683
0.00048642618
0.00048644757
0.00048647074
0.00048649545
0.0004865214
0.00048654838
0.00048657613
0.00048660446
0.00048663317
0.00048666215
0.00048669129
0.00048672059
0.00048675017
0.00048678022
0.00048681108
0.00048684316
0.00048687679
0.0004869121
0.00048694881
0.00048698612
0.0004870228
0.00048705742
0.00048708871
0.00048711597
0.00048713917
0.00048715879
0.00048717556
0.0004871902
0.00048720325
0.00048680982
0.00048761823
0.00048721136
0.00048721026
0.00048720912
0.00048720783
0.0004872065
0.000487205
0.00048720347
0.00048720173
0.00048719994
0.00048719793
0.00048719585
0.00048719353
0.00048719111
0.00048718843
0.00048718563
0.00048718253
0.0004871793
0.00048717572
0.00048717198
0.00048716786
0.00048716354
0.00048715881
0.00048715382
0.00048714839
0.00048714266
0.00048713643
0.00048712985
0.00048712272
0.00048711519
0.00048710706
0.00048709842
0.00048708926
0.00048707939
0.00048706899
0.00048705782
0.00048704605
0.00048703347
0.00048702022
0.00048700611
0.00048699128
0.00048697554
0.000486959
0.0004869416
0.00048692332
0.00048690416
0.00048688413
0.00048686324
0.0004868415
0.00048681894
0.00048679559
0.00048677151
0.00048674674
0.00048672139
0.00048669552
0.00048666924
0.00048664268
0.00048661597
0.00048658926
0.00048656273
0.00048653657
0.00048651097
0.00048648615
0.00048646236
0.00048643983
0.0004864188
0.00048639956
0.00048638234
0.00048636743
0.00048635506
0.0004863455
0.00048633895
0.00048633564
0.0004863357
0.00048633928
0.00048634643
0.00048635717
0.00048637145
0.0004863892
0.00048641026
0.00048640939
0.00048638707
0.00048636764
0.00048635133
0.00048633834
0.00048632881
0.00048632284
0.00048632045
0.00048632162
0.00048632627
0.00048633428
0.00048634547
0.00048635963
0.00048637653
0.00048639589
0.00048641745
0.00048644091
0.000486466
0.00048649242
0.00048651991
0.00048654822
0.00048657712
0.00048660641
0.00048663596
0.00048666566
0.00048669553
0.00048672567
0.00048675634
0.00048678793
0.00048682089
0.00048685562
0.00048689231
0.00048693068
0.00048696991
0.00048700865
0.00048704535
0.00048707862
0.00048710766
0.00048713241
0.00048715337
0.00048717134
0.00048718709
0.00048720119
0.00048680881
0.00048761802
0.00048721111
0.00048720998
0.0004872088
0.00048720748
0.00048720612
0.00048720458
0.000487203
0.00048720122
0.00048719938
0.00048719732
0.00048719519
0.00048719281
0.00048719033
0.00048718758
0.00048718471
0.00048718154
0.00048717821
0.00048717455
0.00048717071
0.00048716649
0.00048716206
0.00048715721
0.00048715209
0.00048714652
0.00048714064
0.00048713424
0.00048712749
0.00048712017
0.00048711244
0.00048710409
0.00048709522
0.00048708579
0.00048707566
0.00048706496
0.00048705348
0.00048704137
0.00048702842
0.00048701478
0.00048700024
0.00048698496
0.00048696874
0.00048695169
0.00048693374
0.00048691487
0.0004868951
0.00048687441
0.00048685282
0.00048683035
0.00048680701
0.00048678286
0.00048675793
0.00048673229
0.00048670603
0.00048667923
0.000486652
0.00048662447
0.00048659678
0.00048656909
0.00048654161
0.0004865145
0.00048648801
0.00048646235
0.00048643778
0.00048641455
0.00048639295
0.00048637325
0.00048635573
0.00048634067
0.00048632836
0.00048631905
0.000486313
0.00048631041
0.00048631147
0.00048631629
0.00048632495
0.00048633746
0.00048635377
0.00048637379
0.00048639731
0.00048639718
0.00048637206
0.00048634996
0.00048633117
0.00048631592
0.00048630436
0.00048629662
0.00048629273
0.00048629266
0.00048629635
0.00048630365
0.00048631437
0.0004863283
0.00048634515
0.00048636466
0.0004863865
0.00048641038
0.00048643598
0.00048646298
0.00048649111
0.00048652008
0.00048654965
0.0004865796
0.0004866098
0.00048664013
0.0004866706
0.00048670136
0.00048673269
0.00048676501
0.00048679886
0.0004868347
0.00048687275
0.00048691278
0.00048695389
0.00048699467
0.00048703343
0.00048706865
0.00048709944
0.00048712572
0.00048714801
0.00048716717
0.00048718401
0.00048719916
0.00048680781
0.00048761783
0.00048721089
0.00048720974
0.00048720853
0.00048720718
0.00048720578
0.00048720421
0.00048720259
0.00048720076
0.00048719889
0.00048719678
0.0004871946
0.00048719216
0.00048718963
0.00048718682
0.00048718389
0.00048718064
0.00048717724
0.0004871735
0.00048716957
0.00048716526
0.00048716072
0.00048715576
0.00048715052
0.00048714482
0.0004871388
0.00048713226
0.00048712534
0.00048711785
0.00048710993
0.00048710137
0.00048709227
0.00048708261
0.00048707222
0.00048706123
0.00048704945
0.00048703701
0.00048702371
0.0004870097
0.00048699475
0.00048697903
0.00048696234
0.00048694478
0.00048692629
0.00048690684
0.00048688645
0.0004868651
0.00048684281
0.00048681959
0.00048679547
0.00048677049
0.00048674469
0.00048671814
0.00048669093
0.00048666314
0.0004866349
0.00048660634
0.0004865776
0.00048654886
0.00048652033
0.00048649219
0.00048646469
0.00048643807
0.00048641261
0.00048638857
0.00048636626
0.00048634598
0.00048632803
0.00048631272
0.00048630034
0.0004862912
0.00048628554
0.00048628361
0.0004862856
0.00048629164
0.0004863018
0.00048631611
0.00048633448
0.00048635682
0.00048638292
0.00048638379
0.00048635572
0.00048633084
0.00048630947
0.00048629188
0.00048627825
0.00048626872
0.00048626333
0.00048626207
0.00048626484
0.00048627152
0.00048628188
0.00048629568
0.00048631262
0.0004863324
0.00048635467
0.00048637909
0.00048640534
0.00048643306
0.00048646194
0.00048649168
0.00048652203
0.00048655274
0.00048658367
0.0004866147
0.00048664585
0.00048667728
0.00048670929
0.00048674238
0.00048677713
0.00048681407
0.00048685348
0.00048689512
0.0004869381
0.00048698088
0.00048702166
0.00048705879
0.00048709132
0.0004871191
0.00048714271
0.00048716303
0.00048718095
0.00048719714
0.00048680682
0.00048761768
0.00048721072
0.00048720954
0.0004872083
0.00048720692
0.00048720549
0.00048720388
0.00048720223
0.00048720037
0.00048719846
0.00048719631
0.00048719408
0.0004871916
0.00048718902
0.00048718615
0.00048718316
0.00048717985
0.00048717639
0.00048717257
0.00048716856
0.00048716416
0.00048715953
0.00048715447
0.00048714913
0.00048714331
0.00048713716
0.00048713048
0.00048712341
0.00048711576
0.00048710766
0.00048709891
0.0004870896
0.00048707972
0.00048706908
0.00048705783
0.00048704576
0.00048703302
0.00048701938
0.00048700499
0.00048698965
0.00048697351
0.00048695636
0.0004869383
0.00048691927
0.00048689925
0.00048687824
0.00048685623
0.00048683323
0.00048680926
0.00048678433
0.0004867585
0.0004867318
0.0004867043
0.0004866761
0.00048664729
0.00048661798
0.00048658831
0.00048655845
0.00048652857
0.00048649889
0.00048646961
0.00048644099
0.00048641329
0.00048638681
0.00048636183
0.00048633868
0.00048631768
0.00048629917
0.00048628347
0.00048627091
0.00048626181
0.00048625645
0.00048625511
0.00048625797
0.0004862652
0.00048627686
0.00048629298
0.00048631348
0.00048633823
0.00048636699
0.00048636918
0.000486338
0.0004863102
0.00048628614
0.00048626612
0.00048625037
0.00048623902
0.00048623214
0.00048622972
0.00048623165
0.00048623779
0.00048624789
0.00048626169
0.00048627886
0.00048629905
0.0004863219
0.00048634702
0.00048637406
0.00048640263
0.00048643241
0.00048646305
0.00048649428
0.00048652586
0.0004865576
0.00048658941
0.0004866213
0.00048665344
0.00048668619
0.00048672006
0.00048675572
0.00048679376
0.00048683451
0.00048687776
0.00048692256
0.00048696731
0.00048701007
0.00048704909
0.00048708331
0.00048711258
0.00048713748
0.00048715895
0.00048717794
0.00048719515
0.00048680584
0.00048761756
0.00048721057
0.00048720938
0.00048720811
0.00048720671
0.00048720525
0.00048720362
0.00048720194
0.00048720005
0.0004871981
0.00048719591
0.00048719365
0.00048719112
0.0004871885
0.00048718558
0.00048718254
0.00048717917
0.00048717565
0.00048717177
0.00048716769
0.00048716321
0.0004871585
0.00048715335
0.00048714791
0.00048714198
0.00048713572
0.00048712891
0.00048712171
0.0004871139
0.00048710564
0.00048709672
0.00048708722
0.00048707713
0.00048706626
0.00048705476
0.00048704242
0.00048702938
0.00048701542
0.00048700069
0.00048698497
0.00048696841
0.00048695081
0.00048693227
0.00048691271
0.00048689212
0.00048687049
0.00048684781
0.0004868241
0.00048679936
0.00048677362
0.00048674691
0.00048671929
0.00048669081
0.00048666158
0.00048663168
0.00048660124
0.0004865704
0.00048653933
0.00048650822
0.00048647729
0.00048644676
0.00048641691
0.000486388
0.00048636036
0.0004863343
0.00048631016
0.0004862883
0.00048626908
0.00048625285
0.00048623998
0.0004862308
0.00048622564
0.0004862248
0.00048622847
0.00048623684
0.00048625
0.00048626795
0.00048629063
0.00048631787
0.00048634943
0.00048635328
0.0004863188
0.00048628792
0.00048626104
0.00048623851
0.00048622056
0.00048620737
0.00048619901
0.00048619547
0.00048619663
0.00048620232
0.00048621229
0.00048622623
0.00048624377
0.00048626454
0.00048628813
0.00048631412
0.00048634211
0.0004863717
0.0004864025
0.00048643418
0.00048646642
0.00048649897
0.00048653163
0.00048656429
0.00048659698
0.0004866299
0.00048666341
0.0004866981
0.00048673468
0.00048677382
0.00048681589
0.00048686071
0.0004869073
0.00048695397
0.00048699868
0.00048703954
0.00048707543
0.00048710616
0.00048713233
0.00048715493
0.00048717496
0.00048719318
0.00048680487
0.00048761748
0.00048721047
0.00048720926
0.00048720797
0.00048720654
0.00048720506
0.00048720341
0.0004872017
0.00048719978
0.0004871978
0.00048719559
0.00048719329
0.00048719073
0.00048718807
0.00048718511
0.00048718202
0.00048717861
0.00048717503
0.00048717109
0.00048716695
0.00048716241
0.00048715762
0.00048715239
0.00048714687
0.00048714085
0.00048713448
0.00048712756
0.00048712023
0.0004871123
0.00048710389
0.0004870948
0.00048708513
0.00048707484
0.00048706376
0.00048705203
0.00048703944
0.00048702612
0.00048701186
0.00048699679
0.0004869807
0.00048696374
0.00048694571
0.00048692669
0.00048690661
0.00048688546
0.00048686322
0.00048683988
0.00048681545
0.00048678994
0.00048676336
0.00048673576
0.00048670718
0.00048667769
0.00048664737
0.00048661634
0.0004865847
0.00048655262
0.00048652026
0.00048648782
0.00048645553
0.00048642364
0.00048639242
0.00048636217
0.00048633322
0.00048630593
0.00048628064
0.00048625776
0.00048623766
0.00048622075
0.00048620742
0.00048619804
0.00048619296
0.00048619251
0.00048619693
0.00048620641
0.00048622105
0.00048624088
0.0004862658
0.00048629565
0.00048633014
0.00048633603
0.00048629806
0.00048626393
0.00048623408
0.00048620891
0.0004861887
0.00048617363
0.0004861638
0.00048615917
0.00048615964
0.000486165
0.00048617497
0.0004861892
0.00048620729
0.00048622881
0.00048625332
0.00048628036
0.00048630948
0.00048634024
0.00048637224
0.00048640509
0.00048643847
0.0004864721
0.00048650578
0.00048653938
0.00048657295
0.00048660669
0.00048664101
0.00048667654
0.00048671406
0.00048675429
0.00048679767
0.00048684403
0.00048689237
0.00048694091
0.00048698751
0.00048703018
0.0004870677
0.00048709985
0.00048712727
0.00048715098
0.00048717204
0.00048719125
0.00048680392
0.00048761743
0.0004872104
0.00048720918
0.00048720787
0.00048720642
0.00048720493
0.00048720325
0.00048720152
0.00048719958
0.00048719757
0.00048719533
0.00048719301
0.00048719042
0.00048718772
0.00048718473
0.00048718161
0.00048717815
0.00048717453
0.00048717055
0.00048716635
0.00048716176
0.00048715691
0.00048715161
0.00048714601
0.0004871399
0.00048713345
0.00048712643
0.00048711899
0.00048711094
0.0004871024
0.00048709317
0.00048708334
0.00048707287
0.0004870616
0.00048704965
0.00048703682
0.00048702324
0.00048700869
0.00048699331
0.00048697687
0.00048695953
0.00048694108
0.0004869216
0.00048690101
0.0004868793
0.00048685645
0.00048683245
0.0004868073
0.000486781
0.00048675358
0.00048672506
0.0004866955
0.00048666495
0.00048663352
0.00048660129
0.00048656839
0.00048653499
0.00048650125
0.00048646738
0.00048643363
0.00048640024
0.00048636752
0.00048633579
0.00048630538
0.00048627668
0.00048625008
0.00048622601
0.00048620487
0.0004861871
0.00048617315
0.00048616341
0.00048615828
0.00048615812
0.00048616321
0.00048617375
0.00048618987
0.00048621159
0.00048623882
0.00048627138
0.00048630896
0.00048631734
0.00048627565
0.00048623805
0.00048620508
0.00048617715
0.00048615458
0.00048613761
0.0004861263
0.00048612065
0.00048612051
0.00048612567
0.00048613578
0.00048615047
0.0004861693
0.00048619177
0.0004862174
0.00048624568
0.00048627613
0.00048630825
0.0004863416
0.00048637579
0.00048641045
0.00048644529
0.00048648009
0.00048651473
0.00048654925
0.00048658387
0.00048661904
0.00048665544
0.0004866939
0.00048673521
0.00048677988
0.00048682774
0.00048687778