/*--------------------------------*- C++ -*----------------------------------*\
| =========                 |                                                 |
| \\      /  F ield         | foam-extend: Open Source CFD                    |
|  \\    /   O peration     | Version:     4.1                                |
|   \\  /    A nd           | Web:         http://www.foam-extend.org         |
|    \\/     M anipulation  |                                                 |
\*---------------------------------------------------------------------------*/
FoamFile
{
    version     2.0;
    format      ascii;
    class       volVectorField;
    location    "0.2";
    object      U;
}
// * * * * * * * * * * * * * * * * * * * * * * * * * * * * * * * * * * * * * //

dimensions      [0 1 -1 0 0 0 0];

internalField   nonuniform List<vector> 
16796
(
(1.0008849 -1.8067882e-05 0)
(1.0009778 -1.9934628e-05 0)
(1.0010161 -2.170452e-05 0)
(1.0011001 -2.3767934e-05 0)
(1.0011638 -2.584632e-05 0)
(1.0012517 -2.8141419e-05 0)
(1.0013348 -3.0538216e-05 0)
(1.0014332 -3.3133436e-05 0)
(1.0015345 -3.5884141e-05 0)
(1.0016477 -3.884147e-05 0)
(1.0017678 -4.1995267e-05 0)
(1.0018992 -4.5377456e-05 0)
(1.0020401 -4.8993399e-05 0)
(1.0021929 -5.2867559e-05 0)
(1.0023572 -5.7013211e-05 0)
(1.0025347 -6.1452549e-05 0)
(1.0027257 -6.6203376e-05 0)
(1.0029316 -7.1287917e-05 0)
(1.0031532 -7.6727022e-05 0)
(1.0033917 -8.2543956e-05 0)
(1.0036482 -8.8761902e-05 0)
(1.0039239 -9.5405473e-05 0)
(1.0042202 -0.00010249966 0)
(1.0045385 -0.0001100703 0)
(1.0048802 -0.00011814365 0)
(1.0052469 -0.00012674636 0)
(1.0056402 -0.00013590526 0)
(1.0060618 -0.00014564712 0)
(1.0065136 -0.00015599849 0)
(1.0069972 -0.0001669852 0)
(1.0075148 -0.00017863223 0)
(1.0080684 -0.00019096299 0)
(1.0086599 -0.00020399909 0)
(1.0092916 -0.00021775964 0)
(1.0099657 -0.00023226048 0)
(1.0106844 -0.00024751386 0)
(1.0114499 -0.00026352719 0)
(1.0122646 -0.00028030264 0)
(1.0131307 -0.00029783573 0)
(1.0140506 -0.00031611478 0)
(1.0150263 -0.00033511938 0)
(1.0160602 -0.00035481973 0)
(1.0171541 -0.00037517496 0)
(1.01831 -0.00039613232 0)
(1.0195297 -0.00041762568 0)
(1.0208145 -0.00043957433 0)
(1.0221659 -0.00046188182 0)
(1.0235846 -0.00048443478 0)
(1.0250712 -0.00050710196 0)
(1.0266259 -0.00052973332 0)
(1.0282484 -0.00055215937 0)
(1.0299377 -0.00057419077 0)
(1.0316924 -0.00059561817 0)
(1.0335104 -0.00061621242 0)
(1.0353888 -0.00063572524 0)
(1.0373239 -0.00065389027 0)
(1.0393115 -0.00067042475 0)
(1.041346 -0.00068503173 0)
(1.0434214 -0.00069740291 0)
(1.0455305 -0.00070722221 0)
(1.047665 -0.00071416994 0)
(1.049816 -0.00071792776 0)
(1.0519734 -0.000718184 0)
(1.0541263 -0.00071463946 0)
(1.0562627 -0.00070701283 0)
(1.0583701 -0.00069504569 0)
(1.060435 -0.00067850613 0)
(1.0624434 -0.0006571916 0)
(1.0643806 -0.00063093105 0)
(1.0662315 -0.00059958926 0)
(1.0679808 -0.00056307474 0)
(1.0696127 -0.00052135508 0)
(1.0711116 -0.00047447731 0)
(1.0724621 -0.00042259173 0)
(1.0736496 -0.00036596918 0)
(1.0746604 -0.00030500698 0)
(1.0754819 -0.0002402174 0)
(1.0761037 -0.00017220543 0)
(1.0765169 -0.00010164129 0)
(1.0767149 -2.9237218e-05 0)
(1.0766933 4.42693e-05 0)
(1.0764499 0.00011812636 0)
(1.0759847 0.00019157247 0)
(1.0753002 0.00026385734 0)
(1.0744011 0.00033425664 0)
(1.073294 0.00040209496 0)
(1.0719876 0.00046675533 0)
(1.0704925 0.00052769772 0)
(1.0688204 0.00058446426 0)
(1.0669846 0.00063669214 0)
(1.0649992 0.00068411265 0)
(1.062879 0.00072655796 0)
(1.0606391 0.00076395382 0)
(1.0582946 0.00079632063 0)
(1.0558607 0.00082376138 0)
(1.0533519 0.000846458 0)
(1.050782 0.00086465641 0)
(1.0481642 0.00087865956 0)
(1.0455106 0.0008888108 0)
(1.0428322 0.00089548329 0)
(1.0401388 0.00089905953 0)
(1.0374392 0.00089991106 0)
(1.034741 0.00089836221 0)
(1.0320509 0.00089464079 0)
(1.0293752 0.00088880015 0)
(1.0267204 0.00088061633 0)
(1.024094 0.00086946349 0)
(1.0215063 0.00085420611 0)
(1.0189716 0.00083317009 0)
(1.0165101 0.00080428868 0)
(1.0141486 0.00076550252 0)
(1.0119197 0.00071541862 0)
(1.0098584 0.00065407276 0)
(1.0079972 0.00058347607 0)
(1.0063589 0.00050756667 0)
(1.0049528 0.00043138261 0)
(1.003771 0.00035967271 0)
(1.0027952 0.00029556986 0)
(1.0019974 0.00023996695 0)
(1.0013559 0.00019184847 0)
(1.0008455 0.00014919844 0)
(1.0004621 0.00010993145 0)
(1.0001838 7.2384117e-05 0)
(1.0000305 3.5485211e-05 0)
(1.0008826 -5.4153565e-05 0)
(1.0009753 -5.9755025e-05 0)
(1.0010135 -6.5055577e-05 0)
(1.0010973 -7.1243813e-05 0)
(1.0011608 -7.7471293e-05 0)
(1.0012485 -8.4352243e-05 0)
(1.0013314 -9.1535419e-05 0)
(1.0014296 -9.931512e-05 0)
(1.0015306 -0.0001075597 0)
(1.0016436 -0.00011642441 0)
(1.0017634 -0.00012587753 0)
(1.0018945 -0.00013601564 0)
(1.002035 -0.00014685421 0)
(1.0021874 -0.00015846696 0)
(1.0023513 -0.00017089339 0)
(1.0025284 -0.0001842002 0)
(1.002719 -0.00019844068 0)
(1.0029244 -0.00021368152 0)
(1.0031454 -0.00022998521 0)
(1.0033834 -0.00024742153 0)
(1.0036392 -0.00026605994 0)
(1.0039144 -0.00028597426 0)
(1.00421 -0.00030723939 0)
(1.0045276 -0.00032993282 0)
(1.0048686 -0.00035413327 0)
(1.0052345 -0.00037992066 0)
(1.0056269 -0.00040737555 0)
(1.0060477 -0.00043657818 0)
(1.0064984 -0.00046760825 0)
(1.0069811 -0.00050054324 0)
(1.0074977 -0.00053545815 0)
(1.0080502 -0.00057242321 0)
(1.0086406 -0.0006115033 0)
(1.0092711 -0.00065275588 0)
(1.009944 -0.00069622865 0)
(1.0106615 -0.00074195849 0)
(1.0114257 -0.00078996791 0)
(1.0122391 -0.00084026371 0)
(1.013104 -0.00089283282 0)
(1.0140225 -0.0009476407 0)
(1.014997 -0.0010046266 0)
(1.0160296 -0.0010637018 0)
(1.0171223 -0.0011247443 0)
(1.0182771 -0.0011875966 0)
(1.0194956 -0.0012520612 0)
(1.0207795 -0.001317897 0)
(1.0221299 -0.0013848155 0)
(1.0235479 -0.001452478 0)
(1.025034 -0.0015204918 0)
(1.0265885 -0.0015884082 0)
(1.0282109 -0.0016557201 0)
(1.0299004 -0.0017218605 0)
(1.0316557 -0.0017862028 0)
(1.0334746 -0.0018480606 0)
(1.0353544 -0.0019066899 0)
(1.0372913 -0.0019612925 0)
(1.0392811 -0.0020110205 0)
(1.0413185 -0.0020549829 0)
(1.0433971 -0.0020922545 0)
(1.04551 -0.0021218856 0)
(1.0476489 -0.0021429153 0)
(1.0498048 -0.0021543855 0)
(1.0519676 -0.0021553569 0)
(1.0541263 -0.0021449264 0)
(1.0562691 -0.002122243 0)
(1.0583831 -0.0020865235 0)
(1.060455 -0.0020370635 0)
(1.0624705 -0.0019732476 0)
(1.0644149 -0.0018945565 0)
(1.0662729 -0.0018005828 0)
(1.068029 -0.0016910541 0)
(1.0696674 -0.0015658789 0)
(1.0711723 -0.0014252054 0)
(1.0725285 -0.0012694888 0)
(1.0737211 -0.001099541 0)
(1.0747363 -0.00091654726 0)
(1.0755618 -0.00072203424 0)
(1.0761868 -0.00051780846 0)
(1.0766025 -0.0003058786 0)
(1.0768022 -8.8391083e-05 0)
(1.0767814 0.00013241624 0)
(1.0765379 0.00035425213 0)
(1.0760718 0.00057482278 0)
(1.0753855 0.00079187613 0)
(1.0744837 0.0010032376 0)
(1.0733731 0.0012068791 0)
(1.0720626 0.0014009487 0)
(1.0705627 0.0015838264 0)
(1.0688853 0.0017541395 0)
(1.0670439 0.0019108016 0)
(1.0650525 0.0020530091 0)
(1.0629262 0.0021802621 0)
(1.0606801 0.0022923415 0)
(1.0583296 0.0023893129 0)
(1.0558898 0.0024714891 0)
(1.0533753 0.0025394203 0)
(1.0508002 0.0025938481 0)
(1.0481775 0.0026356848 0)
(1.0455195 0.0026659637 0)
(1.0428372 0.0026858068 0)
(1.0401404 0.0026963636 0)
(1.037438 0.0026987505 0)
(1.0347375 0.0026939414 0)
(1.0320456 0.002682621 0)
(1.0293687 0.0026649513 0)
(1.0267132 0.0026402641 0)
(1.0240866 0.0026066888 0)
(1.021499 0.0025608307 0)
(1.0189649 0.0024976844 0)
(1.0165042 0.0024110694 0)
(1.0141437 0.0022948245 0)
(1.0119158 0.002144776 0)
(1.0098554 0.0019610162 0)
(1.007995 0.0017495418 0)
(1.0063573 0.0015221177 0)
(1.0049516 0.0012938138 0)
(1.0037701 0.0010788533 0)
(1.0027944 0.00088663906 0)
(1.0019968 0.00071987115 0)
(1.0013555 0.00057552972 0)
(1.0008452 0.00044758363 0)
(1.0004619 0.00032978746 0)
(1.0001838 0.00021714878 0)
(1.0000305 0.00010645777 0)
(1.0008781 -9.0104219e-05 0)
(1.0009703 -9.942853e-05 0)
(1.0010083 -0.00010824505 0)
(1.0010918 -0.0001185443 0)
(1.0011549 -0.00012890504 0)
(1.0012422 -0.00014035604 0)
(1.0013247 -0.0001523083 0)
(1.0014224 -0.00016525463 0)
(1.0015229 -0.00017897392 0)
(1.0016353 -0.00019372593 0)
(1.0017546 -0.00020945701 0)
(1.001885 -0.00022632854 0)
(1.0020249 -0.00024436594 0)
(1.0021765 -0.00026369218 0)
(1.0023397 -0.0002843729 0)
(1.0025159 -0.00030651929 0)
(1.0027056 -0.00033022006 0)
(1.0029101 -0.00035558647 0)
(1.0031301 -0.00038272261 0)
(1.0033669 -0.00041174484 0)
(1.0036217 -0.00044276896 0)
(1.0038956 -0.00047591803 0)
(1.0041899 -0.000511317 0)
(1.0045061 -0.00054909512 0)
(1.0048456 -0.00058938379 0)
(1.0052099 -0.00063231644 0)
(1.0056007 -0.00067802766 0)
(1.0060197 -0.00072665159 0)
(1.0064687 -0.00077832152 0)
(1.0069495 -0.00083316715 0)
(1.0074641 -0.00089131408 0)
(1.0080145 -0.00095288007 0)
(1.0086028 -0.0010179741 0)
(1.0092311 -0.0010866931 0)
(1.0099016 -0.0011591175 0)
(1.0106167 -0.0012353102 0)
(1.0113786 -0.0013153103 0)
(1.0121896 -0.0013991307 0)
(1.013052 -0.0014867516 0)
(1.0139681 -0.0015781176 0)
(1.0149402 -0.0016731296 0)
(1.0159704 -0.0017716422 0)
(1.0170608 -0.0018734547 0)
(1.0182134 -0.0019783072 0)
(1.01943 -0.0020858731 0)
(1.0207121 -0.0021957531 0)
(1.022061 -0.0023074695 0)
(1.0234778 -0.0024204599 0)
(1.0249631 -0.0025340726 0)
(1.0265171 -0.0026475613 0)
(1.0281396 -0.0027600823 0)
(1.0298299 -0.0028706918 0)
(1.0315865 -0.0029783451 0)
(1.0334074 -0.0030818971 0)
(1.03529 -0.003180106 0)
(1.0372306 -0.0032716379 0)
(1.039225 -0.0033550748 0)
(1.0412679 -0.0034289256 0)
(1.0433531 -0.0034916399 0)
(1.0454735 -0.0035416253 0)
(1.047621 -0.0035772679 0)
(1.0497865 -0.003596957 0)
(1.0519599 -0.0035991109 0)
(1.0541302 -0.0035822056 0)
(1.0562854 -0.0035448025 0)
(1.0584125 -0.0034855746 0)
(1.0604981 -0.003403327 0)
(1.0625276 -0.0032970168 0)
(1.0644861 -0.003165769 0)
(1.0663582 -0.0030089048 0)
(1.0681281 -0.0028259837 0)
(1.0697797 -0.0026168768 0)
(1.0712971 -0.0023818594 0)
(1.0726649 -0.0021217155 0)
(1.0738681 -0.0018378125 0)
(1.0748928 -0.0015321267 0)
(1.0757265 -0.001207194 0)
(1.0763583 -0.00086601477 0)
(1.0767792 -0.00051193195 0)
(1.0769825 -0.0001485275 0)
(1.0769635 0.00022045823 0)
(1.07672 0.00059119228 0)
(1.076252 0.00095982679 0)
(1.075562 0.0013225817 0)
(1.0746547 0.0016758073 0)
(1.073537 0.0020160994 0)
(1.0722179 0.0023403498 0)
(1.0707082 0.0026458405 0)
(1.0690199 0.0029302689 0)
(1.0671668 0.0031918149 0)
(1.0651631 0.0034291335 0)
(1.0630242 0.0036413909 0)
(1.0607655 0.0038282251 0)
(1.0584024 0.0039897526 0)
(1.0559504 0.0041265051 0)
(1.0534243 0.0042394125 0)
(1.0508383 0.0043297248 0)
(1.0482055 0.0043989786 0)
(1.0455384 0.0044489111 0)
(1.042848 0.0044814085 0)
(1.0401442 0.004498401 0)
(1.0374358 0.004501763 0)
(1.0347305 0.0044931304 0)
(1.032035 0.0044736557 0)
(1.0293555 0.0044436194 0)
(1.0266983 0.0044019188 0)
(1.024071 0.0043454477 0)
(1.0214835 0.0042685618 0)
(1.0189502 0.0041629337 0)
(1.0164909 0.0040182781 0)
(1.0141321 0.0038243381 0)
(1.011906 0.00357416 0)
(1.0098475 0.0032678858 0)
(1.0079887 0.002915483 0)
(1.0063524 0.0025365229 0)
(1.0049478 0.002156088 0)
(1.0037671 0.0017978642 0)
(1.0027922 0.0014775232 0)
(1.0019951 0.0011995786 0)
(1.0013543 0.00095901422 0)
(1.0008444 0.00074578685 0)
(1.0004615 0.00054949201 0)
(1.0001836 0.00036180377 0)
(1.0000304 0.00017737421 0)
(1.0008714 -0.00012583265 0)
(1.0009629 -0.00013885476 0)
(1.0010006 -0.00015116713 0)
(1.0010835 -0.00016555154 0)
(1.0011462 -0.00018002121 0)
(1.0012328 -0.00019601451 0)
(1.0013147 -0.00021270771 0)
(1.0014117 -0.00023078995 0)
(1.0015114 -0.00024995192 0)
(1.0016231 -0.0002705569 0)
(1.0017414 -0.00029252979 0)
(1.0018709 -0.00031609632 0)
(1.0020098 -0.000341292 0)
(1.0021604 -0.00036828879 0)
(1.0023224 -0.00039717843 0)
(1.0024974 -0.00042811646 0)
(1.0026857 -0.00046122697 0)
(1.0028888 -0.00049666565 0)
(1.0031073 -0.00053457825 0)
(1.0033425 -0.00057512768 0)
(1.0035955 -0.0006184761 0)
(1.0038676 -0.00066479589 0)
(1.00416 -0.00071426209 0)
(1.0044742 -0.00076705589 0)
(1.0048115 -0.00082336155 0)
(1.0051736 -0.00088336627 0)
(1.005562 -0.00094725902 0)
(1.0059785 -0.0010152283 0)
(1.0064248 -0.0010874615 0)
(1.0069028 -0.0011641411 0)
(1.0074145 -0.0012454443 0)
(1.0079618 -0.0013315371 0)
(1.008547 -0.001422574 0)
(1.0091721 -0.0015186921 0)
(1.0098393 -0.0016200066 0)
(1.010551 -0.0017266078 0)
(1.0113094 -0.0018385532 0)
(1.0121169 -0.0019558642 0)
(1.0129758 -0.0020785166 0)
(1.0138884 -0.0022064366 0)
(1.0148571 -0.0023394901 0)
(1.0158839 -0.0024774779 0)
(1.0169712 -0.0026201239 0)
(1.0181208 -0.0027670696 0)
(1.0193346 -0.0029178628 0)
(1.0206143 -0.0030719502 0)
(1.0219612 -0.0032286683 0)
(1.0233764 -0.0033872352 0)
(1.0248607 -0.0035467432 0)
(1.0264143 -0.0037061522 0)
(1.0280372 -0.0038642847 0)
(1.0297287 -0.0040198219 0)
(1.0314874 -0.0041713024 0)
(1.0333116 -0.004317123 0)
(1.0351984 -0.0044555426 0)
(1.0371446 -0.0045846893 0)
(1.0391458 -0.0047025706 0)
(1.0411969 -0.004807089 0)
(1.0432918 -0.0048960603 0)
(1.0454233 -0.0049672385 0)
(1.0475835 -0.0050183435 0)
(1.0497631 -0.0050470951 0)
(1.0519521 -0.0050512498 0)
(1.0541394 -0.0050286407 0)
(1.0563127 -0.004977216 0)
(1.0584591 -0.0048950784 0)
(1.0605648 -0.0047805161 0)
(1.0626151 -0.0046320345 0)
(1.0645947 -0.004448384 0)
(1.0664879 -0.0042286048 0)
(1.0682785 -0.0039720872 0)
(1.0699503 -0.0036786738 0)
(1.071487 -0.0033487796 0)
(1.0728729 -0.00298353 0)
(1.0740926 -0.0025848542 0)
(1.0751322 -0.0021555202 0)
(1.0759787 -0.0016990701 0)
(1.0766212 -0.0012196996 0)
(1.0770504 -0.00072209712 0)
(1.0772592 -0.00021130602 0)
(1.077243 0.00030739288 0)
(1.0769994 0.00082857797 0)
(1.0765284 0.0013468049 0)
(1.0758326 0.0018567269 0)
(1.0749169 0.0023531829 0)
(1.0737883 0.0028313614 0)
(1.072456 0.00328687 0)
(1.0709311 0.0037158718 0)
(1.0692261 0.0041151188 0)
(1.067355 0.0044820492 0)
(1.0653325 0.0048147741 0)
(1.0631743 0.0051121307 0)
(1.0608961 0.0053736233 0)
(1.0585139 0.0055994348 0)
(1.0560432 0.0057903331 0)
(1.0534994 0.0059476493 0)
(1.0508966 0.0060731643 0)
(1.0482485 0.0061690621 0)
(1.0455674 0.0062378068 0)
(1.0428646 0.0062820707 0)
(1.0401502 0.0063045852 0)
(1.0374328 0.0063080017 0)
(1.0347201 0.0062946351 0)
(1.0320189 0.0062661221 0)
(1.0293353 0.006222878 0)
(1.0266756 0.0061633828 0)
(1.0240471 0.0060833154 0)
(1.0214597 0.0059748062 0)
(1.0189275 0.0058262335 0)
(1.0164702 0.0056232346 0)
(1.0141139 0.0053514763 0)
(1.0118907 0.0050012265 0)
(1.009835 0.0045726533 0)
(1.0079787 0.0040796443 0)
(1.0063446 0.0035495102 0)
(1.0049418 0.0030172817 0)
(1.0037625 0.0025160651 0)
(1.0027887 0.0020677903 0)
(1.0019925 0.0016787991 0)
(1.0013525 0.0013421047 0)
(1.0008433 0.0010436732 0)
(1.0004608 0.00076895433 0)
(1.0001833 0.00050629391 0)
(1.0000304 0.0002482086 0)
(1.0008625 -0.00016125098 0)
(1.0009531 -0.00017794017 0)
(1.0009905 -0.00019371831 0)
(1.0010724 -0.00021215407 0)
(1.0011345 -0.00023069816 0)
(1.0012203 -0.00025119643 0)
(1.0013014 -0.00027259158 0)
(1.0013974 -0.00029576813 0)
(1.0014962 -0.00032032899 0)
(1.0016068 -0.00034674049 0)
(1.001724 -0.00037490619 0)
(1.0018523 -0.00040511587 0)
(1.0019898 -0.00043741512 0)
(1.0021389 -0.00047202471 0)
(1.0022994 -0.00050906247 0)
(1.0024728 -0.00054872818 0)
(1.0026594 -0.0005911813 0)
(1.0028606 -0.00063662197 0)
(1.0030771 -0.00068523761 0)
(1.0033102 -0.00073723773 0)
(1.003561 -0.00079283099 0)
(1.0038306 -0.00085223922 0)
(1.0041205 -0.00091568778 0)
(1.0044319 -0.00098341007 0)
(1.0047664 -0.0010556437 0)
(1.0051255 -0.0011326301 0)
(1.0055107 -0.0012146133 0)
(1.0059239 -0.0013018371 0)
(1.0063667 -0.0013945438 0)
(1.0068411 -0.00149297 0)
(1.0073489 -0.0015973455 0)
(1.0078923 -0.0017078863 0)
(1.0084734 -0.0018247937 0)
(1.0090943 -0.0019482477 0)
(1.0097572 -0.0020784001 0)
(1.0104644 -0.0022153714 0)
(1.0112183 -0.0023592404 0)
(1.0120213 -0.0025100402 0)
(1.0128756 -0.0026677456 0)
(1.0137837 -0.0028322685 0)
(1.0147479 -0.0030034434 0)
(1.0157705 -0.0031810221 0)
(1.0168536 -0.0033646577 0)
(1.0179993 -0.0035538975 0)
(1.0192096 -0.0037481691 0)
(1.0204862 -0.0039467697 0)
(1.0218306 -0.0041488547 0)
(1.0232439 -0.0043534271 0)
(1.0247269 -0.0045593272 0)
(1.0262803 -0.0047652244 0)
(1.0279038 -0.0049696096 0)
(1.029597 -0.0051707904 0)
(1.0313587 -0.0053668886 0)
(1.0331871 -0.0055558411 0)
(1.0350798 -0.0057354042 0)
(1.0370334 -0.0059031619 0)
(1.0390437 -0.0060565392 0)
(1.0411057 -0.0061928211 0)
(1.0432134 -0.0063091761 0)
(1.0453596 -0.0064026875 0)
(1.0475365 -0.006470389 0)
(1.0497348 -0.0065093083 0)
(1.0519443 -0.0065165136 0)
(1.0541538 -0.006489166 0)
(1.0563512 -0.0064245697 0)
(1.058523 -0.0063202251 0)
(1.0606554 -0.0061738716 0)
(1.0627332 -0.0059835351 0)
(1.0647409 -0.0057475691 0)
(1.0666624 -0.0054647187 0)
(1.068481 -0.0051342007 0)
(1.0701801 -0.0047558334 0)
(1.0717431 -0.0043301827 0)
(1.0731536 -0.003858728 0)
(1.0743962 -0.0033439729 0)
(1.0754562 -0.0027894869 0)
(1.0763205 -0.0021998282 0)
(1.0769777 -0.0015804015 0)
(1.0774182 -0.00093726201 0)
(1.0776348 -0.0002769448 0)
(1.0776224 0.00039369106 0)
(1.0773788 0.0010675918 0)
(1.0769038 0.0017376647 0)
(1.0762002 0.0023969426 0)
(1.0752729 0.0030386991 0)
(1.0741294 0.0036566664 0)
(1.0727791 0.0042451237 0)
(1.0712335 0.0047990797 0)
(1.0695057 0.0053143133 0)
(1.06761 0.0057875041 0)
(1.0655619 0.0062162108 0)
(1.0633774 0.0065989448 0)
(1.0610728 0.0069350864 0)
(1.0586645 0.0072249041 0)
(1.0561686 0.0074694262 0)
(1.0536005 0.0076704152 0)
(1.0509752 0.0078302144 0)
(1.0483062 0.0079516901 0)
(1.0456062 0.0080380672 0)
(1.0428867 0.0080928376 0)
(1.0401577 0.0081195654 0)
(1.0374281 0.0081217085 0)
(1.0347055 0.0081022869 0)
(1.0319965 0.0080634463 0)
(1.0293074 0.0080057588 0)
(1.0266441 0.0079273098 0)
(1.024014 0.0078225863 0)
(1.0214267 0.0076815182 0)
(1.0188959 0.0074892163 0)
(1.0164411 0.0072272654 0)
(1.0140882 0.0068772744 0)
(1.0118687 0.0064267369 0)
(1.0098168 0.005875829 0)
(1.0079641 0.0052423172 0)
(1.0063331 0.0045611941 0)
(1.0049328 0.0038773791 0)
(1.0037557 0.0032333553 0)
(1.0027835 0.002657293 0)
(1.0019887 0.0021573672 0)
(1.0013498 0.001724637 0)
(1.0008416 0.0013410935 0)
(1.0004599 0.00098805142 0)
(1.0001829 0.00065053059 0)
(1.0000303 0.00031891573 0)
(1.0008514 -0.00019627241 0)
(1.0009409 -0.00021658774 0)
(1.0009778 -0.00023579386 0)
(1.0010587 -0.00025823646 0)
(1.00112 -0.00028081101 0)
(1.0012047 -0.00030576574 0)
(1.0012848 -0.00033181285 0)
(1.0013797 -0.00036002994 0)
(1.0014773 -0.00038993335 0)
(1.0015865 -0.00042209134 0)
(1.0017023 -0.00045638655 0)
(1.001829 -0.00049317222 0)
(1.0019649 -0.00053250414 0)
(1.0021123 -0.0005746516 0)
(1.0022709 -0.00061975853 0)
(1.0024422 -0.0006680688 0)
(1.0026266 -0.00071977724 0)
(1.0028255 -0.00077512828 0)
(1.0030395 -0.00083435104 0)
(1.00327 -0.00089770162 0)
(1.003518 -0.00096543525 0)
(1.0037847 -0.0010378233 0)
(1.0040714 -0.0011151418 0)
(1.0043795 -0.0011976768 0)
(1.0047104 -0.0012857194 0)
(1.0050657 -0.0013795663 0)
(1.0054471 -0.0014795172 0)
(1.0058561 -0.0015858719 0)
(1.0062946 -0.0016989289 0)
(1.0067644 -0.0018189801 0)
(1.0072676 -0.0019463092 0)
(1.0078061 -0.0020811842 0)
(1.0083821 -0.0022238555 0)
(1.0089978 -0.0023745479 0)
(1.0096553 -0.0025334529 0)
(1.0103571 -0.0027007242 0)
(1.0111054 -0.0028764654 0)
(1.0119028 -0.003060725 0)
(1.0127515 -0.0032534811 0)
(1.013654 -0.0034546359 0)
(1.0146128 -0.0036639977 0)
(1.01563 -0.0038812745 0)
(1.0167081 -0.0041060542 0)
(1.0178491 -0.0043377962 0)
(1.0190552 -0.0045758137 0)
(1.020328 -0.0048192608 0)
(1.0216692 -0.0050671181 0)
(1.0230802 -0.005318179 0)
(1.0245619 -0.0055710379 0)
(1.0261148 -0.0058240782 0)
(1.0277392 -0.0060754632 0)
(1.0294346 -0.00632313 0)
(1.0312 -0.0065647851 0)
(1.0330338 -0.0067979048 0)
(1.0349337 -0.0070197401 0)
(1.0368964 -0.0072273261 0)
(1.0389181 -0.0074174973 0)
(1.0409936 -0.0075869101 0)
(1.0431171 -0.0077320711 0)
(1.0452816 -0.0078493745 0)
(1.0474792 -0.0079351457 0)
(1.0497005 -0.0079856938 0)
(1.0519355 -0.0079973682 0)
(1.0541728 -0.0079666241 0)
(1.0564 -0.0078900845 0)
(1.0586035 -0.0077646081 0)
(1.0607691 -0.0075873462 0)
(1.0628814 -0.007355807 0)
(1.0649244 -0.0070679129 0)
(1.0668814 -0.0067220861 0)
(1.0687355 -0.0063173497 0)
(1.0704693 -0.0058534852 0)
(1.0720657 -0.0053312039 0)
(1.0735078 -0.0047523399 0)
(1.0747795 -0.0041199749 0)
(1.0758658 -0.0034384895 0)
(1.0767529 -0.002713474 0)
(1.077429 -0.0019515689 0)
(1.0778841 -0.0011602352 0)
(1.0781106 -0.00034755325 0)
(1.0781032 0.00047797523 0)
(1.0778595 0.0013075899 0)
(1.0773795 0.0021324728 0)
(1.0766658 0.0029439621 0)
(1.0757238 0.0037336953 0)
(1.0745611 0.0044938849 0)
(1.0731879 0.0052174263 0)
(1.0716159 0.0058981316 0)
(1.069859 0.0065307737 0)
(1.0679321 0.0071112578 0)
(1.0658514 0.0076365836 0)
(1.0636334 0.0081049453 0)
(1.0612952 0.0085156167 0)
(1.0588537 0.008868981 0)
(1.0563257 0.0091663609 0)
(1.0537271 0.0094099919 0)
(1.051073 0.0096028224 0)
(1.0483777 0.009748447 0)
(1.0456538 0.0098508948 0)
(1.0429132 0.009914521 0)
(1.0401658 0.0099437616 0)
(1.0374208 0.0099429181 0)
(1.0346857 0.0099157486 0)
(1.0319671 0.0098649386 0)
(1.0292709 0.0097912464 0)
(1.0266033 0.0096923923 0)
(1.0239711 0.0095617031 0)
(1.0213838 0.009386944 0)
(1.0188549 0.0091499959 0)
(1.0164035 0.0088284278 0)
(1.0140548 0.008399816 0)
(1.0118401 0.0078488839 0)
(1.0097931 0.0071757878 0)
(1.007945 0.006402111 0)
(1.006318 0.0055704413 0)
(1.0049212 0.0047354979 0)
(1.0037468 0.003949073 0)
(1.0027769 0.0032455467 0)
(1.0019839 0.002634931 0)
(1.0013464 0.0021063557 0)
(1.0008394 0.0016378627 0)
(1.0004586 0.0012066531 0)
(1.0001824 0.00079443021 0)
(1.0000302 0.00038945485 0)
(1.0008381 -0.00023081078 0)
(1.0009263 -0.00025470368 0)
(1.0009626 -0.00027729154 0)
(1.0010424 -0.00030368796 0)
(1.0011028 -0.00033023968 0)
(1.0011862 -0.00035959267 0)
(1.0012651 -0.00039023133 0)
(1.0013586 -0.00042342418 0)
(1.0014547 -0.0004586021 0)
(1.0015623 -0.00049643422 0)
(1.0016764 -0.00053678266 0)
(1.0018013 -0.00058006358 0)
(1.0019352 -0.00062634305 0)
(1.0020804 -0.00067593858 0)
(1.0022367 -0.0007290202 0)
(1.0024056 -0.00078587569 0)
(1.0025875 -0.0008467352 0)
(1.0027836 -0.00091188745 0)
(1.0029947 -0.00098160324 0)
(1.003222 -0.0010561854 0)
(1.0034666 -0.0011359357 0)
(1.0037298 -0.0012211757 0)
(1.0040127 -0.001312232 0)
(1.0043168 -0.001409444 0)
(1.0046435 -0.0015131572 0)
(1.0049944 -0.0016237241 0)
(1.0053711 -0.0017415011 0)
(1.0057752 -0.0018668452 0)
(1.0062085 -0.0020001126 0)
(1.006673 -0.0021416519 0)
(1.0071705 -0.0022918031 0)
(1.0077032 -0.0024508884 0)
(1.0082731 -0.0026192097 0)
(1.0088826 -0.0027970401 0)
(1.0095337 -0.0029846138 0)
(1.010229 -0.0031821219 0)
(1.0109707 -0.0033896969 0)
(1.0117613 -0.0036074075 0)
(1.0126034 -0.0038352407 0)
(1.0134993 -0.0040730943 0)
(1.0144515 -0.0043207567 0)
(1.0154624 -0.0045778986 0)
(1.0165345 -0.0048440497 0)
(1.0176699 -0.0051185883 0)
(1.0188708 -0.0054007206 0)
(1.0201391 -0.0056894648 0)
(1.0214767 -0.0059836337 0)
(1.0228848 -0.0062818183 0)
(1.0243648 -0.0065823727 0)
(1.0259173 -0.0068833997 0)
(1.0275426 -0.0071827392 0)
(1.0292406 -0.0074779599 0)
(1.0310104 -0.0077663535 0)
(1.0328506 -0.0080449343 0)
(1.034759 -0.0083104435 0)
(1.0367327 -0.0085593596 0)
(1.0387678 -0.0087879155 0)
(1.0408594 -0.0089921243 0)
(1.0430018 -0.0091678115 0)
(1.0451881 -0.0093106591 0)
(1.0474104 -0.0094162559 0)
(1.0496593 -0.0094801599 0)
(1.0519248 -0.009497965 0)
(1.0541953 -0.0094653798 0)
(1.0564582 -0.0093783022 0)
(1.0586999 -0.0092329037 0)
(1.0609055 -0.0090257015 0)
(1.0630594 -0.0087536423 0)
(1.065145 -0.0084141772 0)
(1.0671452 -0.0080053721 0)
(1.0690423 -0.00752603 0)
(1.0708184 -0.0069758792 0)
(1.0724556 -0.0063557677 0)
(1.0739365 -0.0056678848 0)
(1.075244 -0.0049158988 0)
(1.0763626 -0.0041050192 0)
(1.0772779 -0.0032418951 0)
(1.0779773 -0.0023344421 0)
(1.0784504 -0.0013915777 0)
(1.0786891 -0.0004229915 0)
(1.078688 0.00056109805 0)
(1.0784443 0.0015501428 0)
(1.077958 0.0025335131 0)
(1.077232 0.0035007653 0)
(1.0762719 0.0044418132 0)
(1.0750859 0.0053472716 0)
(1.0736844 0.0062085816 0)
(1.0720801 0.0070183037 0)
(1.0702875 0.0077701628 0)
(1.0683224 0.0084592655 0)
(1.0662015 0.0090820428 0)
(1.0639426 0.0096363807 0)
(1.0615633 0.010121466 0)
(1.0590814 0.010537832 0)
(1.0565142 0.010887136 0)
(1.0538783 0.011172141 0)
(1.0511894 0.011396452 0)
(1.0484619 0.011564449 0)
(1.0457091 0.011681022 0)
(1.0429428 0.011751444 0)
(1.0401733 0.011781072 0)
(1.0374097 0.011775099 0)
(1.0346594 0.011738062 0)
(1.0319292 0.011673224 0)
(1.0292247 0.011581565 0)
(1.0265518 0.011460475 0)
(1.0239172 0.011302154 0)
(1.0213301 0.011092244 0)
(1.0188035 0.010809434 0)
(1.0163561 0.010427318 0)
(1.0140127 0.0099194666 0)
(1.0118039 0.0092678414 0)
(1.0097629 0.0084725529 0)
(1.0079206 0.00755894 0)
(1.0062988 0.0065770961 0)
(1.0049062 0.0055914448 0)
(1.0037354 0.0046630108 0)
(1.0027683 0.003832345 0)
(1.0019777 0.0031112945 0)
(1.0013421 0.0024870818 0)
(1.0008367 0.0019338251 0)
(1.0004571 0.0014246341 0)
(1.0001818 0.00093790448 0)
(1.0000301 0.00045978148 0)
(1.0008228 -0.00026478092 0)
(1.0009093 -0.0002921937 0)
(1.000945 -0.00031810884 0)
(1.0010234 -0.00034839603 0)
(1.0010827 -0.00037886199 0)
(1.0011646 -0.00041254422 0)
(1.0012422 -0.00044770306 0)
(1.001334 -0.00048579506 0)
(1.0014285 -0.00052616716 0)
(1.0015342 -0.00056958793 0)
(1.0016463 -0.00061589951 0)
(1.0017691 -0.00066558022 0)
(1.0019007 -0.00071870652 0)
(1.0020435 -0.0007756437 0)
(1.0021972 -0.00083658784 0)
(1.0023632 -0.00090187039 0)
(1.0025421 -0.00097175678 0)
(1.002735 -0.0010465799 0)
(1.0029426 -0.0011266523 0)
(1.0031663 -0.0012123236 0)
(1.003407 -0.0013039425 0)
(1.0036661 -0.0014018806 0)
(1.0039446 -0.0015065161 0)
(1.0042441 -0.0016182417 0)
(1.0045659 -0.0017374583 0)
(1.0049116 -0.0018645747 0)
(1.0052828 -0.0020000053 0)
(1.0056812 -0.0021441655 0)
(1.0061086 -0.0022974708 0)
(1.0065668 -0.0024603285 0)
(1.0070578 -0.0026331371 0)
(1.0075837 -0.0028162754 0)
(1.0081466 -0.0030101002 0)
(1.0087488 -0.0032149359 0)
(1.0093925 -0.0034310636 0)
(1.0100802 -0.0036587161 0)
(1.0108142 -0.0038980599 0)
(1.0115971 -0.0041491895 0)
(1.0124313 -0.0044121062 0)
(1.0133194 -0.0046867107 0)
(1.014264 -0.0049727783 0)
(1.0152676 -0.00526995 0)
(1.0163326 -0.0055777054 0)
(1.0174614 -0.0058953503 0)
(1.0186563 -0.0062219926 0)
(1.0199194 -0.0065565234 0)
(1.0212525 -0.0068975964 0)
(1.0226574 -0.0072436086 0)
(1.0241352 -0.0075926818 0)
(1.0256871 -0.007942645 0)
(1.0273134 -0.0082910208 0)
(1.0290143 -0.0086350134 0)
(1.0307891 -0.0089715021 0)
(1.0326366 -0.0092970385 0)
(1.0345549 -0.0096078509 0)
(1.0365411 -0.0098998544 0)
(1.0385917 -0.01016867 0)
(1.040702 -0.010409651 0)
(1.0428663 -0.010617924 0)
(1.0450779 -0.010788432 0)
(1.0473288 -0.010915997 0)
(1.0496099 -0.010995391 0)
(1.0519109 -0.01102141 0)
(1.0542202 -0.010988969 0)
(1.056525 -0.010893191 0)
(1.0588112 -0.010729505 0)
(1.0610638 -0.01049374 0)
(1.0632666 -0.010182225 0)
(1.0654025 -0.0097918855 0)
(1.0674536 -0.0093203828 0)
(1.0694017 -0.0087662571 0)
(1.071228 -0.0081291497 0)
(1.0729138 -0.0074100209 0)
(1.0744407 -0.0066114029 0)
(1.0757911 -0.0057375505 0)
(1.0769483 -0.0047945168 0)
(1.0778972 -0.0037900405 0)
(1.0786245 -0.0027333609 0)
(1.0791192 -0.0016349192 0)
(1.0793726 -0.00050609825 0)
(1.0793789 0.00064106811 0)
(1.0791352 0.0017941317 0)
(1.0786415 0.0029405315 0)
(1.0779009 0.0040679273 0)
(1.0769192 0.005164397 0)
(1.0757051 0.0062188595 0)
(1.0742699 0.0072212134 0)
(1.072627 0.0081627024 0)
(1.0707918 0.0090359525 0)
(1.068781 0.0098352478 0)
(1.0666125 0.010556441 0)
(1.0643048 0.011197127 0)
(1.0618767 0.011756432 0)
(1.0593467 0.012235087 0)
(1.0567331 0.012635141 0)
(1.054053 0.012959944 0)
(1.0513228 0.013213829 0)
(1.0485574 0.013402034 0)
(1.0457705 0.013530373 0)
(1.042974 0.013605105 0)
(1.0401786 0.01363257 0)
(1.0373931 0.013618905 0)
(1.0346253 0.013569477 0)
(1.0318815 0.013488171 0)
(1.0291673 0.013376231 0)
(1.0264885 0.013230757 0)
(1.0238513 0.013042867 0)
(1.0212646 0.012796122 0)
(1.0187409 0.012466071 0)
(1.0162984 0.012022377 0)
(1.0139614 0.011434643 0)
(1.0117598 0.010682073 0)
(1.0097262 0.0097647017 0)
(1.0078908 0.0087115455 0)
(1.0062752 0.0075800935 0)
(1.004888 0.006444354 0)
(1.0037215 0.0053744873 0)
(1.0027579 0.0044171629 0)
(1.0019701 0.003586057 0)
(1.0013369 0.0028665107 0)
(1.0008333 0.0022287518 0)
(1.0004552 0.0016418288 0)
(1.0001811 0.001080845 0)
(1.00003 0.00052984247 0)
(1.0008053 -0.00029809949 0)
(1.0008901 -0.00032896652 0)
(1.0009251 -0.00035814627 0)
(1.0010018 -0.0003922522 0)
(1.0010599 -0.00042656023 0)
(1.0011402 -0.00046449288 0)
(1.0012161 -0.0005040903 0)
(1.0013061 -0.00054699398 0)
(1.0013987 -0.00059246844 0)
(1.0015023 -0.00064138022 0)
(1.0016122 -0.000693552 0)
(1.0017325 -0.00074952344 0)
(1.0018615 -0.00080938155 0)
(1.0020015 -0.00087353891 0)
(1.0021522 -0.00094221766 0)
(1.0023151 -0.0010157926 0)
(1.0024905 -0.0010945645 0)
(1.0026797 -0.0011789102 0)
(1.0028835 -0.0012691841 0)
(1.003103 -0.0013657828 0)
(1.0033393 -0.0014691021 0)
(1.0035936 -0.0015795641 0)
(1.0038672 -0.0016975988 0)
(1.0041614 -0.0018236532 0)
(1.0044777 -0.001958184 0)
(1.0048175 -0.0021016577 0)
(1.0051825 -0.0022545477 0)
(1.0055744 -0.0024173297 0)
(1.0059949 -0.00259048 0)
(1.006446 -0.002774467 0)
(1.0069295 -0.0029697504 0)
(1.0074477 -0.0031767686 0)
(1.0080026 -0.0033959366 0)
(1.0085965 -0.0036276344 0)
(1.0092317 -0.0038721945 0)
(1.0099107 -0.0041298964 0)
(1.0106359 -0.0044009463 0)
(1.0114098 -0.0046854709 0)
(1.0122351 -0.0049834932 0)
(1.0131144 -0.0052949238 0)
(1.0140503 -0.0056195334 0)
(1.0150454 -0.0059569422 0)
(1.0161022 -0.0063065888 0)
(1.0172234 -0.0066677163 0)
(1.0184114 -0.007039344 0)
(1.0196683 -0.0074202459 0)
(1.0209963 -0.0078089266 0)
(1.0223971 -0.0082035984 0)
(1.0238724 -0.0086021594 0)
(1.0254234 -0.0090021729 0)
(1.0270507 -0.0094008498 0)
(1.0287546 -0.0097950347 0)
(1.0305349 -0.010181196 0)
(1.0323905 -0.010555421 0)
(1.0343198 -0.010913422 0)
(1.0363202 -0.01125054 0)
(1.0383883 -0.011561772 0)
(1.0405196 -0.011841794 0)