/*--------------------------------*- C++ -*----------------------------------*\
| =========                 |                                                 |
| \\      /  F ield         | foam-extend: Open Source CFD                    |
|  \\    /   O peration     | Version:     4.1                                |
|   \\  /    A nd           | Web:         http://www.foam-extend.org         |
|    \\/     M anipulation  |                                                 |
\*---------------------------------------------------------------------------*/
FoamFile
{
    version     2.0;
    format      ascii;
    class       surfaceScalarField;
    location    "0.2";
    object      phi;
}
// * * * * * * * * * * * * * * * * * * * * * * * * * * * * * * * * * * * * * //

dimensions      [0 3 -1 0 0 0 0];

internalField   nonuniform List<scalar> 
31929
(
-0.04230448
4.8405894e-05
-0.042360535
5.6055218e-05
-0.042418293
5.7758165e-05
-0.042476802
5.8508863e-05
-0.042535701
5.8898379e-05
-0.042594863
5.9162493e-05
-0.042654246
5.9383255e-05
-0.042713844
5.959762e-05
-0.042773666
5.9822279e-05
-0.042833734
6.0067935e-05
-0.042894074
6.0339454e-05
-0.042954715
6.0641627e-05
-0.043015691
6.0976051e-05
-0.043077037
6.1345561e-05
-0.043138787
6.1750439e-05
-0.04320098
6.2192591e-05
-0.043263652
6.267155e-05
-0.04332684
6.3188616e-05
-0.043390583
6.3742766e-05
-0.043454918
6.4334822e-05
-0.043519881
6.4963283e-05
-0.04358551
6.5628558e-05
-0.043651838
6.632872e-05
-0.043718902
6.7063812e-05
-0.043786734
6.7831517e-05
-0.043855365
6.863156e-05
-0.043924826
6.9461269e-05
-0.043995147
7.0320085e-05
-0.044066352
7.1205018e-05
-0.044138467
7.2115255e-05
-0.044211514
7.3047502e-05
-0.044285515
7.4000348e-05
-0.044360486
7.4971501e-05
-0.044436444
7.5957442e-05
-0.0445134
7.6956719e-05
-0.044591366
7.7965203e-05
-0.044670347
7.8981094e-05
-0.044750346
7.9999804e-05
-0.044831366
8.1019081e-05
-0.044913399
8.2033747e-05
-0.04499644
8.3040944e-05
-0.045080475
8.4034845e-05
-0.045165486
8.5011263e-05
-0.045251451
8.5964316e-05
-0.045338339
8.6887951e-05
-0.045426114
8.7775437e-05
-0.045514733
8.8619312e-05
-0.045604145
8.9411524e-05
-0.045694288
9.0143006e-05
-0.045785092
9.0803993e-05
-0.045876476
9.1383822e-05
-0.045968347
9.1870956e-05
-0.0460606
9.2252943e-05
-0.046153116
9.2516661e-05
-0.046245764
9.2647988e-05
-0.046338396
9.2632274e-05
-0.046430851
9.2454298e-05
-0.046522949
9.2098479e-05
-0.046614498
9.154905e-05
-0.046705289
9.0790525e-05
-0.046795096
8.9807622e-05
-0.046883682
8.8585988e-05
-0.046970795
8.7112409e-05
-0.04705617
8.5375278e-05
-0.047139535
8.3365037e-05
-0.04722061
8.1074615e-05
-0.04729911
7.8500074e-05
-0.047374751
7.5640721e-05
-0.04744725
7.2499863e-05
-0.047516335
6.9085033e-05
-0.047581744
6.5408318e-05
-0.04764323
6.1486551e-05
-0.047700572
5.7341567e-05
-0.047753572
5.2999929e-05
-0.047802065
4.8493001e-05
-0.047845921
4.385648e-05
-0.047885051
3.9129899e-05
-0.047919407
3.435602e-05
-0.047948987
2.9580229e-05
-0.047973837
2.4849751e-05
-0.04799405
2.0213039e-05
-0.048009768
1.5717542e-05
-0.048021177
1.1409131e-05
-0.048028509
7.3321309e-06
-0.048032036
3.5267706e-06
-0.048032053
1.6817346e-08
-0.04802885
-3.2029577e-06
-0.048022757
-6.0921682e-06
-0.048014173
-8.5841778e-06
-0.048003517
-1.0656134e-05
-0.047991218
-1.2298623e-05
-0.047977708
-1.351042e-05
-0.047963411
-1.4296886e-05
-0.047948742
-1.4669095e-05
-0.047934099
-1.4643126e-05
-0.04791986
-1.4239335e-05
-0.047906378
-1.3481591e-05
-0.047893981
-1.2396508e-05
-0.047882969
-1.1012648e-05
-0.047873609
-9.3598726e-06
-0.04786614
-7.4686379e-06
-0.047860771
-5.3692066e-06
-0.04785768
-3.091038e-06
-0.047857015
-6.6553408e-07
-0.047858878
1.8635249e-06
-0.047863346
4.4681497e-06
-0.047870488
7.1421777e-06
-0.04788036
9.8716587e-06
-0.047892999
1.2639026e-05
-0.047908426
1.5427328e-05
-0.047926647
1.822081e-05
-0.047947652
2.1004867e-05
-0.047971418
2.3765642e-05
-0.047997907
2.6489219e-05
-0.048027067
2.9160231e-05
-0.048058827
3.1760334e-05
-0.048093097
3.4270041e-05
-0.048129762
3.66642e-05
-0.048168642
3.8880369e-05
-0.04820938
4.073784e-05
-0.048251352
4.1972315e-05
-0.048294252
4.2900049e-05
-0.048339545
4.5292573e-05
4.7545188e-05
-0.048681402
6.4568903e-05
-0.048694684
6.9337219e-05
-0.048708288
7.1361738e-05
-0.048722174
7.2395179e-05
-0.048736251
7.2975291e-05
-0.048750455
7.3367045e-05
-0.048764762
7.3689928e-05
-0.048779169
7.4004251e-05
-0.048793687
7.4340052e-05
-0.048808335
7.4716504e-05
-0.048823139
7.5143506e-05
-0.048838127
7.5629668e-05
-0.04885333
7.6178886e-05
-0.048868781
7.6796102e-05
-0.048884513
7.7482736e-05
-0.048900562
7.8241962e-05
-0.048916964
7.9073767e-05
-0.048933756
7.9980167e-05
-0.048950973
8.0960074e-05
-0.048968653
8.2014574e-05
-0.048986831
8.3141652e-05
-0.049005544
8.4341576e-05
-0.049024827
8.5611486e-05
-0.049044714
8.6950915e-05
-0.049065239
8.8356224e-05
-0.049086434
8.9826281e-05
-0.049108329
9.1356725e-05
-0.049130955
9.2945826e-05
-0.049154338
9.4588554e-05
-0.049178506
9.6282629e-05
-0.049203481
9.8022367e-05
-0.049229285
9.9804525e-05
-0.049255938
0.00010162446
-0.049283456
0.00010347587
-0.049311855
0.00010535506
-0.049341144
0.00010725457
-0.049371333
0.00010916998
-0.049402426
0.00011109288
-0.049434425
0.0001130179
-0.049467326
0.00011493541
-0.049501124
0.0001168388
-0.049535806
0.00011871702
-0.049571356
0.00012056113
-0.049607751
0.00012235941
-0.049644963
0.0001240996
-0.049682956
0.00012576811
-0.049721686
0.00012734991
-0.049761104
0.00012882872
-0.049801147
0.00013018632
-0.049841746
0.00013140307
-0.04988282
0.00013245752
-0.049924275
0.0001333265
-0.049966007
0.00013398504
-0.050007897
0.00013440672
-0.050049813
0.00013456328
-0.050091606
0.00013442532
-0.050133114
0.0001339623
-0.050174158
0.00013314297
-0.050214545
0.00013193572
-0.050254064
0.00013030941
-0.050292489
0.00012823342
-0.050329582
0.0001256789
-0.050365089
0.00012261927
-0.050398745
0.00011903116
-0.050430275
0.0001148953
-0.050459398
0.00011019739
-0.050485827
0.0001049293
-0.050509276
9.9089536e-05
-0.050529461
9.2684526e-05
-0.050546105
8.5729182e-05
-0.050558944
7.8247553e-05
-0.050567731
7.0273244e-05
-0.050572239
6.1849815e-05
-0.05057227
5.3030457e-05
-0.050567655
4.3877975e-05
-0.050558262
3.4463911e-05
-0.050544
2.4867506e-05
-0.050524818
1.5174811e-05
-0.050500715
5.4771081e-06
-0.050471734
-4.1320196e-06
-0.050437964
-1.3556853e-05
-0.050399546
-2.2700125e-05
-0.050356669
-3.1467369e-05
-0.050309567
-3.9769838e-05
-0.050258514
-4.752681e-05
-0.050203831
-5.4666192e-05
-0.050145918
-6.1115794e-05
-0.050085187
-6.6823062e-05
-0.050022016
-7.1754904e-05
-0.049956791
-7.5881624e-05
-0.049889903
-7.9186642e-05
-0.049821747
-8.1666133e-05
-0.049752716
-8.3328439e-05
-0.049683192
-8.4192826e-05
-0.049613547
-8.4288278e-05
-0.049544134
-8.365215e-05
-0.049475287
-8.2328678e-05
-0.049407316
-8.0367669e-05
-0.049340506
-7.7822693e-05
-0.049275115
-7.475003e-05
-0.049211377
-7.1207171e-05
-0.049149494
-6.7251606e-05
-0.049089645
-6.2940124e-05
-0.049031982
-5.8328578e-05
-0.048976653
-5.3465682e-05
-0.048923786
-4.8399074e-05
-0.048873467
-4.3177061e-05
-0.048825753
-3.7841699e-05
-0.048780684
-3.2430612e-05
-0.048738278
-2.6978169e-05
-0.048698542
-2.1515626e-05
-0.048661465
-1.6071721e-05
-0.048627026
-1.0673391e-05
-0.04859519
-5.3472537e-06
-0.048565908
-1.2176814e-07
-0.048539119
4.9714514e-06
-0.048514746
9.897562e-06
-0.048492692
1.4609637e-05
-0.048472807
1.8995587e-05
-0.048454869
2.2799718e-05
-0.0484387
2.58041e-05
-0.04842433
2.8529202e-05
-0.048410007
3.0969596e-05
2.4628563e-05
-0.049367378
7.2014305e-05
-0.049372311
7.4270352e-05
-0.049376697
7.5748045e-05
-0.049381013
7.6710595e-05
-0.049385402
7.7364115e-05
-0.049389907
7.7872518e-05
-0.049394549
7.8331924e-05
-0.049399345
7.8800248e-05
-0.049404315
7.9309781e-05
-0.049409481
7.988262e-05
-0.049414868
8.0530984e-05
-0.049420504
8.126541e-05
-0.049426416
8.2091081e-05
-0.049432634
8.3014039e-05
-0.049439188
8.403631e-05
-0.049446107
8.5161637e-05
-0.049453424
8.6390158e-05
-0.049461168
8.7724082e-05
-0.04946937
8.9162122e-05
-0.049478061
9.0705259e-05
-0.04948727
9.2350982e-05
-0.049497027
9.409921e-05
-0.049507362
9.5946321e-05
-0.049518303
9.7891287e-05
-0.049529876
9.9929468e-05
-0.049542109
0.00010205899
-0.049555026
0.00010427426
-0.049568653
0.00010657265
-0.049583012
0.00010894769
-0.049598126
0.00011139602
-0.049614013
0.0001139103
-0.049630695
0.00011648598
-0.049648187
0.00011911677
-0.049666506
0.0001217944
-0.049685664
0.00012451355
-0.049705674
0.0001272644
-0.049726545
0.00013004053
-0.049748282
0.00013283071
-0.049770892
0.00013562713
-0.049794373
0.00013841671
-0.049818724
0.00014118976
-0.049843938
0.00014393101
-0.049870004
0.00014662745
-0.049896907
0.00014926238
-0.049924626
0.00015181813
-0.049953133
0.00015427501
-0.049982394
0.00015661118
-0.050012368
0.00015880278
-0.050043005
0.00016082318
-0.050074245
0.00016264347
-0.05010602
0.00016423203
-0.050138248
0.0001655546
-0.050170837
0.0001665742
-0.050203682
0.00016725156
-0.050236663
0.00016754468
-0.050269648
0.00016740969
-0.050302486
0.000166801
-0.050335015
0.00016567181
-0.050367054
0.00016397474
-0.050398408
0.00016166289
-0.050428864
0.00015869012
-0.050458198
0.00015501275
-0.050486169
0.00015059039
-0.050512525
0.00014538727
-0.050537004
0.00013937362
-0.050559333
0.00013252699
-0.050579238
0.00012483394
-0.050596439
0.00011629092
-0.050610661
0.00010690607
-0.050621632
9.6700125e-05
-0.050629092
8.5707431e-05
-0.050632795
7.3976588e-05
-0.050632516
6.1571032e-05
-0.050628054
4.8568735e-05
-0.050619239
3.5062046e-05
-0.050605931
2.115652e-05
-0.050588033
6.9695021e-06
-0.050565487
-7.3712177e-06
-0.05053828
-2.1730269e-05
-0.050506445
-3.5966267e-05
-0.050470067
-4.9935628e-05
-0.050429271
-6.34958e-05
-0.050384231
-7.6507289e-05
-0.050335163
-8.8837398e-05
-0.050282327
-0.00010036367
-0.050226018
-0.00011097523
-0.05016656
-0.0001205734
-0.050104304
-0.0001290795
-0.050039624
-0.00013643447
-0.049972911
-0.00014259501
-0.049904561
-0.00014753665
-0.049834973
-0.00015125317
-0.049764546
-0.00015375625
-0.049693665
-0.00015507379
-0.049622705
-0.00015524817
-0.049552023
-0.00015433427
-0.049481954
-0.00015239727
-0.049412811
-0.00014951076
-0.04934488
-0.00014575385
-0.04927842
-0.00014120978
-0.049213664
-0.00013596355
-0.049150815
-0.00013010025
-0.049090051
-0.00012370371
-0.049031525
-0.00011685504
-0.048975361
-0.00010962992
-0.048921659
-0.00010210074
-0.0488705
-9.433587e-05
-0.048821945
-8.6397416e-05
-0.048776033
-7.8341643e-05
-0.048732792
-7.0219754e-05
-0.048692229
-6.2078051e-05
-0.048654342
-5.3958998e-05
-0.048619113
-4.5902199e-05
-0.048586514
-3.79464e-05
-0.048556504
-3.0131979e-05
-0.04852903
-2.2502337e-05
-0.048504026
-1.5106205e-05
-0.048481404
-8.0123814e-06
-0.048461045
-1.3640135e-06
-0.048442849
4.6037253e-06
-0.048426844
9.7994174e-06
-0.048412827
1.4512512e-05
-0.048399209
1.7351217e-05
1.2539506e-05
-0.049421761
7.7061821e-05
-0.049425576
7.8084428e-05
-0.049428906
7.9078182e-05
-0.04943209
7.9895278e-05
-0.04943529
8.0563333e-05
-0.049438578
8.1160446e-05
-0.049441995
8.1749325e-05
-0.049445571
8.237639e-05
-0.049449332
8.3070681e-05
-0.049453303
8.3854132e-05
-0.049457512
8.47396e-05
-0.049461985
8.5738572e-05
-0.049466751
8.6856963e-05
-0.049471839
8.8101538e-05
-0.049477277
8.9474722e-05
-0.049483096
9.0980652e-05
-0.049489325
9.2619532e-05
-0.049495995
9.4393679e-05
-0.049503134
9.6301581e-05
-0.049510773
9.8344088e-05
-0.049518941
0.00010051821
-0.049527665
0.00010282351
-0.049536974
0.00010525568
-0.049546896
0.00010781317
-0.049557457
0.00011049042
-0.049568683
0.00011328489
-0.049580599
0.0001161899
-0.049593228
0.00011920199
-0.049606594
0.00012231342
-0.049620718
0.00012551986
-0.04963562
0.00012881253
-0.049651319
0.00013218567
-0.049667834
0.00013563154
-0.04968518
0.00013914011
-0.049703371
0.0001427046
-0.04972242
0.000146313
-0.049742336
0.00014995713
-0.049763129
0.0001536231
-0.049784802
0.00015730085
-0.04980736
0.00016097405
-0.0498308
0.00016463009
-0.049855119
0.0001682497
-0.049880307
0.00017181594
-0.049906352
0.00017530729
-0.049933235
0.0001787008
-0.04996093
0.00018197082
-0.049989408
0.00018508876
-0.050018629
0.00018802332
-0.050048545
0.00019073945
-0.0500791
0.00019319901
-0.050110229
0.00019536018
-0.050141851
0.00019717752
-0.050173879
0.00019860194
-0.050206209
0.00019958115
-0.050238723
0.00020005913
-0.050271291
0.0001999773
-0.050303764
0.0001992746
-0.050335981
0.00019788828
-0.050367761
0.00019575463
-0.050398908
0.00019281045
-0.050429212
0.00018899342
-0.050458443
0.00018424432
-0.050486361
0.00017850816
-0.05051271
0.000171736
-0.050537223
0.00016388672
-0.050559625
0.00015492889
-0.050579634
0.00014484298
-0.050596965
0.00013362261
-0.050611336
0.00012127693
-0.050622468
0.00010783196
-0.050630093
9.3331876e-05
-0.050633956
7.7840009e-05
-0.050633825
6.1439618e-05
-0.050629489
4.4233596e-05
-0.050620772
2.6344207e-05
-0.050607527
7.9118029e-06
-0.05058965
-1.0907632e-05
-0.050567077
-2.9944394e-05
-0.050539789
-4.9017495e-05
-0.050507818
-6.793798e-05
-0.05047124
-8.6513502e-05
-0.050430183
-0.00010455242
-0.050384823
-0.00012186761
-0.050335379
-0.00013828096
-0.050282116
-0.00015362731
-0.050225334
-0.00016775723
-0.050165366
-0.00018054066
-0.050102574
-0.0001918715
-0.050037341
-0.00020166812
-0.049970063
-0.00020987277
-0.049901146
-0.00021645299
-0.049830999
-0.00022140053
-0.049760024
-0.00022473105
-0.049688616
-0.00022648181
-0.049617155
-0.00022670948
-0.049546002
-0.00022548742
-0.049475496
-0.00022290273
-0.049405953
-0.00021905372
-0.049337661
-0.00021404604
-0.04927088
-0.00020799076
-0.049205842
-0.00020100128
-0.049142752
-0.00019319106
-0.049081784
-0.00018467149
-0.049023089
-0.0001755502
-0.04896679
-0.00016592881
-0.048912987
-0.00015590369
-0.048861758
-0.0001455647
-0.048813161
-0.00013499406
-0.048767237
-0.00012426643
-0.048724007
-0.00011344955
-0.04868348
-0.0001026044
-0.048645653
-9.1786671e-05
-0.048610507
-8.1047945e-05
-0.048578015
-7.0438032e-05
-0.04854814
-6.0007425e-05
-0.048520833
-4.98092e-05
-0.048496036
-3.9903525e-05
-0.04847367
-3.0378219e-05
-0.048453648
-2.1385743e-05
-0.048435932
-1.3112044e-05
-0.048420522
-5.6108251e-06
-0.048407099
1.0891656e-06
-0.04839513
5.3826175e-06
4.499299e-06
-0.049423595
8.1246267e-05
-0.049427209
8.1698691e-05
-0.049430487
8.2355572e-05
-0.049433623
8.3031544e-05
-0.049436746
8.3686236e-05
-0.049439932
8.4346073e-05
-0.049443229
8.5046261e-05
-0.049446673
8.5820536e-05
-0.049450295
8.6692595e-05
-0.049454123
8.7682579e-05
-0.049458186
8.8802929e-05
-0.049462513
9.0065425e-05
-0.049467133
9.1476327e-05
-0.049472074
9.304288e-05
-0.049477367
9.4767765e-05
-0.049483042
9.6655421e-05
-0.049489128
9.8706065e-05
-0.049495657
0.00010092209
-0.049502657
0.00010330173
-0.049510158
0.00010584569
-0.049518191
0.00010855049
-0.049526783
0.00011141535
-0.049535962
0.00011443526
-0.049545757
0.00011760812
-0.049556194
0.00012092751
-0.049567299
0.00012439017
-0.049579098
0.00012798837
-0.049591614
0.00013171781
-0.04960487
0.00013556951
-0.049618888
0.0001395382
-0.049633689
0.00014361363
-0.049649292
0.0001477889
-0.049665716
0.00015205485
-0.049682975
0.00015639972
-0.049701086
0.00016081531
-0.049720061
0.00016528749
-0.04973991
0.00016980635
-0.049760642
0.00017435544
-0.049782264
0.0001789225
-0.049804778
0.00018348806
-0.049828184
0.00018803668
-0.04985248
0.00019254515
-0.049877657
0.00019699271
-0.049903702
0.00020135315
-0.0499306
0.00020559832
-0.049958326
0.00020969667
-0.04998685
0.00021361301
-0.050016135
0.00021730863
-0.050046136
0.00022074015
-0.050076797
0.0002238602
-0.050108054
0.00022661677
-0.05013983
0.00022895324
-0.050172036
0.00023080829
-0.050204571
0.0002321165
-0.05023732
0.00023280766
-0.050270151
0.00023280821
-0.050302917
0.0002320413
-0.050335457
0.00023042783
-0.05036759
0.00022788731
-0.050399119
0.00022433966
-0.050429831
0.00021970575
-0.050459497
0.00021391012
-0.050487871
0.00020688245
-0.050514695
0.00019855979
-0.050539697
0.00018888887
-0.050562597
0.00017782843
-0.050583106
0.00016535201
-0.050600933
0.00015144965
-0.050615787
0.00013613087
-0.050627381
0.00011942635
-0.050635439
0.00010138974
-0.050639698
8.2098874e-05
-0.050639915
6.1656867e-05
-0.050635873
4.0191809e-05
-0.050627385
1.7856384e-05
-0.0506143
-5.1736603e-06
-0.050596505
-2.8702623e-05
-0.050573932
-5.2517238e-05
-0.050546561
-7.6389116e-05
-0.050514418
-0.00010008006
-0.050477585
-0.00012334723
-0.050436189
-0.0001459482
-0.05039041
-0.00016764634
-0.050340475
-0.00018821628
-0.050286653
-0.00020744887
-0.050229255
-0.00022515548
-0.050168623
-0.00024117254
-0.050105129
-0.00025536551
-0.050039167
-0.00026763053
-0.049971145
-0.00027789496
-0.049901479
-0.00028611842
-0.049830589
-0.00029229113
-0.049758886
-0.0002964335
-0.049686775
-0.0002985932
-0.049614642
-0.00029884232
-0.049542855
-0.00029727399
-0.049471759
-0.00029399852
-0.049401673
-0.00028914027
-0.049332886
-0.00028283264
-0.049265661
-0.00027521572
-0.04920023
-0.00026643233
-0.049136796
-0.00025662521
-0.049075533
-0.0002459342
-0.049016589
-0.00023449443
-0.048960084
-0.00022243363
-0.048906116
-0.00020987232
-0.048854758
-0.00019692227
-0.048806066
-0.00018368579
-0.048760077
-0.00017025567
-0.048716811
-0.00015671584
-0.048676274
-0.00014314139
-0.04863846
-0.0001296004
-0.048603353
-0.00011615525
-0.048570926
-0.00010286503
-0.048541145
-8.978783e-05
-0.048513971
-7.6983276e-05
-0.048489356
-6.4519019e-05
-0.048467244
-5.2490501e-05
-0.048447592
-4.1037781e-05
-0.048430403
-3.0300573e-05
-0.048415658
-2.0355338e-05
-0.048403166
-1.1403236e-05
-0.048393035
-4.7487769e-06
-1.4453662e-06
-0.049424173
8.4996508e-05
-0.049427643
8.5168305e-05
-0.049430892
8.560476e-05
-0.049434028
8.6167887e-05
-0.049437145
8.680282e-05
-0.04944031
8.7510585e-05
-0.049443571
8.8308018e-05
-0.049446969
8.9218341e-05
-0.049450536
9.0259801e-05
-0.049454304
9.145014e-05
-0.049458302
9.2800804e-05
-0.04946256
9.4323441e-05
-0.049467108
9.6024363e-05
-0.049471976
9.7911104e-05
-0.049477195
9.9986476e-05
-0.049482794
0.00010225514
-0.049488806
0.00010471728
-0.049495259
0.00010737531
-0.049502184
0.0001102272
-0.049509612
0.00011327348
-0.049517572
0.00011651018
-0.049526093
0.00011993615
-0.049535203
0.00012354564
-0.049544931
0.00012733605
-0.049555303
0.00013130001
-0.049566347
0.00013543362
-0.049578087
0.00013972801
-0.049590547
0.00014417811
-0.049603751
0.00014877366
-0.049617721
0.00015350845
-0.049632478
0.0001583708
-0.049648042
0.00016335267
-0.049664431
0.00016844353
-0.049681661
0.00017362988
-0.049699748
0.0001789022
-0.049718705
0.00018424427
-0.049738543
0.00018964453
-0.049759271
0.00019508403
-0.049780897
0.00020054843
-0.049803425
0.00020601518
-0.049826854
0.00021146614
-0.049851183
0.00021687429
-0.049876406
0.00022221517
-0.04990251
0.000227458
-0.049929482
0.00023256959
-0.049957298
0.00023751263
-0.04998593
0.00024224542
-0.050015343
0.00024672196
-0.050045494
0.00025089064
-0.050076329
0.00025469493
-0.050107785
0.00025807267
-0.050139787
0.00026095603
-0.05017225
0.0002632714
-0.050205074
0.00026494009
-0.050238144
0.00026587752
-0.05027133
0.00026599482
-0.050304488
0.00026519904
-0.050337455
0.0002633942
-0.05037005
0.00026048247
-0.050402076
0.00025636621
-0.050433319
0.00025094874
-0.050463547
0.00024413747
-0.05049251
0.00023584579
-0.050519946
0.00022599573
-0.050545578
0.0002145208
-0.050569118
0.00020136885
-0.050590272
0.00018650545
-0.050608738
0.00016991603
-0.050624217
0.00015160958
-0.050636411
0.00013162074
-0.050645033
0.00011001204
-0.05064981
8.6875494e-05
-0.050650487
6.233404e-05
-0.050646837
3.6541279e-05
-0.050638661
9.6809741e-06
-0.0506258
-1.8035337e-05
-0.050608131
-4.6370777e-05
-0.050585583
-7.5065879e-05
-0.050558128
-0.00010384348
-0.050525795
-0.00013241392
-0.05048866
-0.00016048148
-0.050446858
-0.00018775065
-0.050400571
-0.0002139328
-0.050350035
-0.00023875301
-0.050295527
-0.0002619561
-0.05023737
-0.00028331249
-0.05017592
-0.00030262336
-0.05011156
-0.00031972491
-0.0500447
-0.0003344908
-0.049975762
-0.00034683332
-0.049905176
-0.00035670442
-0.049833373
-0.00036409342
-0.04976078
-0.00036902652
-0.04968781
-0.00037156308
-0.049614861
-0.00037179215
-0.049542306
-0.00036982821
-0.049470498
-0.00036580648
-0.04939976
-0.00035987903
-0.049330384
-0.00035220862
-0.049262633
-0.00034296585
-0.049196741
-0.0003323243
-0.04913291
-0.00032045711
-0.04907131
-0.00030753358
-0.049012087
-0.00029371717
-0.048955359
-0.00027916219
-0.048901217
-0.00026401374
-0.048849734
-0.00024840592
-0.048800958
-0.00023246128
-0.048754923
-0.00021629063
-0.048711645
-0.00019999387
-0.048671127
-0.00018365981
-0.048633359
-0.00016736839
-0.048598322
-0.00015119195
-0.04856599
-0.0001351976
-0.048536328
-0.00011944944
-0.0485093
-0.00010401176
-0.048484862
-8.8956107e-05
-0.048462977
-7.4376173e-05
-0.048443625
-6.0389998e-05
-0.048426821
-4.7104329e-05
-0.048412555
-3.4620871e-05
-0.048400809
-2.3149814e-05
-0.048391934
-1.3623224e-05
-6.28965e-06
-0.04942692
8.8486984e-05
-0.049430252
8.8500448e-05
-0.049433439
8.8791304e-05
-0.049436542
8.9270673e-05
-0.049439628
8.9889155e-05
-0.049442755
9.0637917e-05
-0.04944597
9.1523155e-05
-0.049449313
9.2560615e-05
-0.049452817
9.3763979e-05
-0.049456515
9.5148635e-05
-0.049460439
9.6724849e-05
-0.04946462
9.8503912e-05
-0.049469087
0.00010049201
-0.049473873
0.00010269683
-0.049479008
0.00010512122
-0.049484523
0.00010777
-0.049490449
0.00011064326
-0.049496817
0.00011374342
-0.049503658
0.00011706816
-0.049511002
0.0001206178
-0.04951888
0.00012438785
-0.04952732
0.00012837678
-0.049536353
0.00013257811
-0.049546006
0.00013698867
-0.049556306
0.00014160017
-0.04956728
0.00014640802
-0.049578954
0.00015140224
-0.049591353
0.00015657694
-0.0496045
0.00016192059
-0.049618418
0.00016742607
-0.049633127
0.00017308025
-0.049648648
0.000178874
-0.049665
0.00018479541
-0.0496822
0.00019082933
-0.049700262
0.00019696491
-0.049719202
0.00020318395
-0.049739031
0.0002094733
-0.049759758
0.00021581161
-0.049781393
0.00022218256
-0.049803938
0.00022856066
-0.049827397
0.0002349252
-0.049851768
0.00024124547
-0.049877047
0.00024749349
-0.049903223
0.00025363408
-0.049930282
0.00025962913
-0.049958205
0.00026543578
-0.049986966
0.00027100596
-0.050016531
0.00027628654
-0.050046858
0.00028121778
-0.050077897
0.00028573409
-0.050109587
0.0002897632
-0.050141857
0.00029322607
-0.050174623
0.00029603675
-0.050207786
0.00029810311
-0.050241234
0.00029932597
-0.05027484
0.00029960085
-0.050308459
0.00029881821
-0.05034193
0.00029686468
-0.050375072
0.00029362439
-0.050407687
0.00028898136
-0.050439559
0.00028282038
-0.050470452
0.00027503072
-0.050500114
0.00026550831
-0.050528278
0.00025415894
-0.050554658
0.00024090163
-0.050578962
0.000225672
-0.050600882
0.00020842635
-0.050620111
0.00018914431
-0.050636334
0.0001678332
-0.050649244
0.00014453068
-0.05065854
0.00011930746
-0.050663934
9.2269375e-05
-0.050665159
6.3559015e-05
-0.050661973
3.3355809e-05
-0.050654168
1.8756747e-06
-0.05064157
-3.0633337e-05
-0.050624049
-6.3891415e-05
-0.050601524
-9.7590916e-05
-0.050573964
-0.00013140354
-0.050541392
-0.00016498548
-0.050503889
-0.00019798532
-0.050461588
-0.00023005149
-0.05041468
-0.00026084051
-0.050363408
-0.00029002504
-0.050308063
-0.00031730144
-0.050248978
-0.00034239685
-0.050186526
-0.0003650753
-0.050121109
-0.00038514251
-0.05005315
-0.00040244913
-0.049983091
-0.00041689223
-0.049911379
-0.00042841641
-0.049838462
-0.00043701098
-0.049764779
-0.00044270913
-0.049690759
-0.00044558355
-0.049616809
-0.00044574208
-0.049543315
-0.00044332254
-0.049470634
-0.00043848714
-0.049399095
-0.00043141767
-0.049328996
-0.0004223082
-0.0492606
-0.00041136165
-0.04919414
-0.00039878399
-0.049129817
-0.00038478017
-0.049067801
-0.00036955014
-0.049008231
-0.00035328661
-0.048951222
-0.00033617105
-0.048896862
-0.00031837359
-0.048845217
-0.00030005097
-0.048796333
-0.00028134598
-0.048750236
-0.00026238729
-0.048706939
-0.00024329036
-0.048666442
-0.00022415716
-0.048628732
-0.00020507869
-0.048593788
-0.00018613619
-0.048561582
-0.00016740349
-0.048532082
-0.00014894923
-0.048505253
-0.0001308406
-0.048481059
-0.0001131497
-0.048459473
-9.5963102e-05
-0.048440485
-7.9377178e-05
-0.048424111
-6.3478274e-05
-0.048410357
-4.8375443e-05
-0.048399304
-3.4202267e-05
-0.04839132
-2.1608076e-05
-1.0489201e-05
-0.049431479
9.179035e-05
-0.049434679
9.1700306e-05
-0.049437779
9.1891619e-05
-0.049440819
9.2310861e-05
-0.04944385
9.291946e-05
-0.049446919
9.3706809e-05
-0.049450069
9.4673873e-05
-0.04945334
9.5831722e-05
-0.049456767
9.7190679e-05
-0.049460383
9.8764194e-05
-0.049464219
0.00010056142
-0.049468309
0.00010259324
-0.049472682
0.00010486562
-0.049477372
0.00010738634
-0.049482409
0.00011015821
-0.049487825
0.00011318617
-0.049493652
0.00011647017
-0.049499921
0.0001200126
-0.049506664
0.00012381083
-0.049513911
0.00012786495
-0.049521693
0.00013216994
-0.04953004
0.00013672386
-0.049538981
0.00014151948
-0.049548546
0.00014655305
-0.049558761
0.00015181534
-0.049569654
0.00015730103
-0.049581251
0.00016299906
-0.049593577
0.0001689027
-0.049606655
0.00017499916
-0.049620509
0.00018128037
-0.049635161
0.00018773183
-0.04965063
0.00019434329
-0.049666936
0.00020110153
-0.049684097
0.00020798979
-0.049702128
0.00021499598
-0.049721044
0.00022209995
-0.049740858
0.00022928707
-0.04976158
0.00023653373
-0.049783219
0.00024382173
-0.049805781
0.00025112278
-0.04982927
0.00025841376
-0.049853685
0.00026566048
-0.049879023
0.0002728316
-0.049905276
0.00027988771
-0.049932433
0.00028678603
-0.049960476
0.00029347832
-0.04998938
0.00029991034
-0.050019116
0.00030602199
-0.050049643
0.00031174557
-0.050080916
0.00031700655
-0.050112875
0.00032172259
-0.050145453
0.00032580345
-0.050178567
0.00032915079
-0.050212123
0.00033165888
-0.05024601
0.00033321368
-0.050280104
0.00033369471
-0.050314261
0.00033297535
-0.050348321
0.00033092418
-0.050382103
0.00032740651
-0.050415409
0.00032228705
-0.050448019
0.000315431
-0.050479697
0.00030670822
-0.050510184
0.00029599584
-0.050539207
0.00028318194
-0.050566475
0.00026816947
-0.050591683
0.00025088025
-0.050614517
0.00023125977
-0.050634653
0.00020928034
-0.050651766
0.00018494627
-0.050665532
0.00015829705
-0.050675635
0.0001294107
-0.050681772
9.8406319e-05
-0.050683659
6.5446019e-05
-0.050681039
3.0735233e-05
-0.050673686
-5.4775705e-06
-0.050661414
-4.2905238e-05
-0.050644082
-8.1223027e-05
-0.050621599
-0.00012007375
-0.050593928
-0.00015907484
-0.050561088
-0.00019782508
-0.05052316
-0.00023591388
-0.050480281
-0.0002729301
-0.05043265
-0.00030847179
-0.050380519
-0.0003421559
-0.050324193
-0.00037362722
-0.050264023
-0.00040256696
-0.050200399
-0.00042869981
-0.050133741
-0.00045179962
-0.050064497
-0.00047169325
-0.049993127
-0.00048826241
-0.049920099
-0.00050144487
-0.049845879
-0.00051123092
-0.049770925
-0.0005176624
-0.049695682
-0.00052082726
-0.04962057
-0.00052085436
-0.049545985
-0.00051790732
-0.049472294
-0.00051217777
-0.049399832
-0.00050387971
-0.049328899
-0.00049324087
-0.049259762
-0.0004804986
-0.049192653
-0.00046589323
-0.04912777
-0.00044966316
-0.04906528
-0.00043204045
-0.049005318
-0.00041324812
-0.048947994
-0.00039349563
-0.048893389
-0.0003729787
-0.048841563
-0.00035187702
-0.048792555
-0.00033035374
-0.048746387
-0.0003085552
-0.048703065
-0.00028661204
-0.048662584
-0.0002646388
-0.048624926
-0.00024273667
-0.048590067
-0.00022099472
-0.048557979
-0.00019949209
-0.048528627
-0.0001783004
-0.04850198
-0.00015748756
-0.048478007
-0.00013712285
-0.048456688
-0.00011728229
-0.048438022
-9.8042876e-05
-0.048422025
-7.9475292e-05
-0.048408724
-6.1677191e-05
-0.048398244
-4.4682342e-05
-0.048390884
-2.8967882e-05
-1.4282962e-05
-0.049437879
9.4933804e-05
-0.049440949
9.4770579e-05
-0.049443949
9.4890754e-05
-0.049446905
9.5267018e-05
-0.049449857
9.587214e-05
-0.049452848
9.6697561e-05
-0.049455917
9.774244e-05
-0.0494591
9.9015355e-05
-0.049462434
0.00010052446
-0.049465952
0.00010228182
-0.049469686
0.00010429569
-0.049473669
0.00010657663
-0.049477934
0.00010913038
-0.049482513
0.00011196476
-0.049487437
0.00011508255
-0.049492739
0.00011848873
-0.049498452
0.00012218314
-0.049504608
0.00012616809
-0.049511238
0.00013044062
-0.049518373
0.00013500057
-0.049526046
0.00013984235
-0.049534286
0.00014496361
-0.049543122
0.00015035632
-0.049552585
0.00015601616
-0.049562703
0.00016193293
-0.049573503
0.00016810057
-0.04958501
0.0001745069
-0.049597252
0.00018114435
-0.049610252
0.00018799887
-0.049624033
0.00019506148
-0.049638617
0.00020231627
-0.049654026
0.00020975193
-0.049670278
0.00021735396
-0.049687393
0.00022510405
-0.049705386
0.00023298892
-0.049724272
0.0002409866
-0.049744066
0.00024908107
-0.049764779
0.00025724657
-0.049786421
0.00026546318
-0.049808998
0.00027369999
-0.049832516
0.00028193164
-0.049856976
0.00029012066
-0.049882377
0.00029823257
-0.049908713
0.00030622398
-0.049935975
0.00031404766
-0.049964147
0.00032165021
-0.049993208
0.00032897147
-0.05002313
0.00033594459
-0.050053879
0.00034249408
-0.050085409
0.00034853661
-0.050117666
0.00035397989
-0.050150585
0.00035872251
-0.050184088
0.00036265364
-0.050218083
0.00036565384
-0.050252463
0.00036759389
-0.050287106
0.00036833694
-0.050321869
0.0003677387
-0.050356594
0.00036564898
-0.050391101
0.00036191336
-0.05042519
0.00035637618
-0.05045864
0.00034888176
-0.050491211
0.00033927917
-0.050522641
0.00032742512
-0.050552647
0.00031318825
-0.050580931
0.00029645366
-0.050607178
0.00027712752
-0.050631061
0.00025514262
-0.050652243
0.00023046218
-0.050670383
0.00020308586
-0.050685139
0.0001730536
-0.050696178
0.00014044961
-0.050703177
0.00010540553
-0.050705834
6.8102797e-05
-0.050703872
2.8773175e-05
-0.050697048
-1.2301362e-05
-0.05068516
-5.479303e-05
-0.050668053
-9.8330214e-05
-0.050645624
-0.00014250309
-0.050617827
-0.00018687153
-0.050584679
-0.0002309732
-0.050546259
-0.00027433421
-0.050502709
-0.0003164796
-0.050454236
-0.00035694473
-0.050401105
-0.00039528677
-0.050343637
-0.00043109531
-0.050282202
-0.00046400242
-0.050217211
-0.00049369093
-0.050149109
-0.00051990111
-0.050078367