/*--------------------------------*- C++ -*----------------------------------*\
| =========                 |                                                 |
| \\      /  F ield         | foam-extend: Open Source CFD                    |
|  \\    /   O peration     | Version:     4.1                                |
|   \\  /    A nd           | Web:         http://www.foam-extend.org         |
|    \\/     M anipulation  |                                                 |
\*---------------------------------------------------------------------------*/
FoamFile
{
    version     2.0;
    format      ascii;
    class       volScalarField;
    location    "1.7";
    object      p;
}
// * * * * * * * * * * * * * * * * * * * * * * * * * * * * * * * * * * * * * //

dimensions      [0 2 -2 0 0 0 0];

internalField   nonuniform List<scalar> 
16126
(
-0.00010770845
0.00015108402
-6.6129359e-05
0.00013148956
-4.5113598e-05
6.5590012e-05
-7.857553e-05
-4.9758432e-05
-0.00018512403
-0.00022838949
-0.00037788062
-0.00048720343
-0.00066932085
-0.00084336229
-0.0010725572
-0.001313462
-0.0016012463
-0.0019132265
-0.0022690212
-0.0026571765
-0.0030887268
-0.0035580808
-0.0040714632
-0.004626047
-0.0052251427
-0.0058670314
-0.0065530621
-0.0072817784
-0.0080530669
-0.0088653684
-0.0097173254
-0.01060532
-0.011527322
-0.012479346
-0.013461899
-0.014469268
-0.015496399
-0.016541224
-0.017599785
-0.018668366
-0.019740398
-0.020811252
-0.021874632
-0.022924999
-0.023955979
-0.024961575
-0.025935397
-0.026871284
-0.027762941
-0.028604255
-0.029389123
-0.030111614
-0.030765881
-0.031346227
-0.031847055
-0.032262884
-0.03258831
-0.032817992
-0.032946626
-0.032968924
-0.032879593
-0.032673337
-0.032344845
-0.031888824
-0.031300013
-0.030573258
-0.029703551
-0.028686156
-0.027516693
-0.026191306
-0.02470679
-0.023060806
-0.021252028
-0.019280383
-0.017147174
-0.014855304
-0.012409295
-0.0098154351
-0.0070816377
-0.0042174601
-0.0012337799
0.0018572939
0.005042889
0.0083094858
0.011643434
0.015031016
0.018458912
0.021914193
0.025384653
0.028858796
0.032325973
0.0357765
0.039201445
0.042593161
0.045944378
0.049249664
0.052503115
0.055701792
0.058840502
0.061919483
0.064933035
0.067886437
0.070771407
0.073603227
0.076367675
0.079102647
0.081782313
0.08449749
0.087198871
0.090098558
0.093089533
0.096650361
0.10050146
0.10568794
0.11138351
0.11986548
0.12863456
0.14298719
0.15543225
0.18022497
0.19380845
0.24413574
0.24030182
0.40933144
-0.00011160399
0.00015330626
-7.2067661e-05
0.00012776769
-5.2000685e-05
5.7957131e-05
-8.7457084e-05
-6.025597e-05
-0.00019639361
-0.00024134557
-0.00039161979
-0.00050250208
-0.00068551937
-0.00086098374
-0.0010911773
-0.0013333925
-0.0016222206
-0.0019353992
-0.0022921985
-0.0026813708
-0.0031137239
-0.0035837155
-0.0040974138
-0.0046520651
-0.0052509603
-0.0058924818
-0.0065782265
-0.0073065926
-0.0080771899
-0.0088876736
-0.0097360984
-0.010620709
-0.011541784
-0.012493872
-0.0134686
-0.014461139
-0.015480997
-0.01652323
-0.017575434
-0.018636377
-0.019700312
-0.020762613
-0.021817032
-0.02285803
-0.023879295
-0.024874886
-0.025838502
-0.026764072
-0.027645409
-0.028476515
-0.029251417
-0.029964316
-0.030609505
-0.031181429
-0.031674631
-0.032083767
-0.032403554
-0.032628763
-0.032754179
-0.032774579
-0.032684707
-0.032479272
-0.032152936
-0.031700341
-0.031116129
-0.03039501
-0.029531817
-0.028521621
-0.027359834
-0.026042376
-0.024565818
-0.022927601
-0.021126193
-0.019161346
-0.017034218
-0.014747604
-0.012305961
-0.009715545
-0.0069842597
-0.0041216684
-0.0011386518
0.0019526922
0.0051395307
0.0084084094
0.011745779
0.015138048
0.01857205
0.022035021
0.025514944
0.029000511
0.03248129
0.035947817
0.039391423
0.04280474
0.046180862
0.049514743
0.052801027
0.056037349
0.059219391
0.062348236
0.065419571
0.068439851
0.071402951
0.074325537
0.077196587
0.080054925
0.082879179
0.085758667
0.088650054
0.091756958
0.094981462
0.098777716
0.10288624
0.10829456
0.1142344
0.12284901
0.1318147
0.1460521
0.15866183
0.18227953
0.19649718
0.23669388
0.24467589
0.30461619
-0.00013799715
0.00016692048
-8.3267277e-05
0.00013246055
-5.3284136e-05
6.1169703e-05
-8.3513744e-05
-5.5517985e-05
-0.00018931735
-0.0002341705
-0.0003820575
-0.00049262414
-0.00067350578
-0.00084825033
-0.0010764912
-0.0013175913
-0.0016045105
-0.0019162245
-0.0022710582
-0.0026585201
-0.0030889065
-0.0035572688
-0.004069506
-0.0046230299
-0.0052208771
-0.0058613455
-0.0065451341
-0.0072709603
-0.0080381487
-0.0088470416
-0.0096977983
-0.010584434
-0.011499798
-0.012436996
-0.013412071
-0.014422974
-0.015450416
-0.016492221
-0.017546392
-0.01860936
-0.019675633
-0.020740394
-0.021797513
-0.022841418
-0.023865831
-0.024864794
-0.025832019
-0.026761428
-0.027646844
-0.028482271
-0.029261748
-0.029979482
-0.030629779
-0.031207093
-0.031705973
-0.032121077
-0.03244712
-0.032678859
-0.032811055
-0.032838451
-0.032755741
-0.032557572
-0.032238527
-0.031793157
-0.031215997
-0.030501641
-0.029644792
-0.028640381
-0.027483678
-0.026170455
-0.024697133
-0.023061013
-0.021260432
-0.019295026
-0.017165861
-0.014875674
-0.01242889
-0.0098317805
-0.0070922993
-0.004220104
-0.0012261956
0.00187717
0.0050769932
0.0083596381
0.01171139
0.015118488
0.018567628
0.0220459
0.025541184
0.029042046
0.032537971
0.036019377
0.039477527
0.042904916
0.046294589
0.049641332
0.052939787
0.056187342
0.059379801
0.062517912
0.065597893
0.068625843
0.071597291
0.074528743
0.077413538
0.080290804
0.083149188
0.086078071
0.089054211
0.092275454
0.095678707
0.099686098
0.10409212
0.10977268
0.11605346
0.12477081
0.13385989
0.14745395
0.15964958
0.18073568
0.19461912
0.22777279
0.24083366
0.28455218
-0.00019757821
0.00018436424
-0.00011088143
0.00013224293
-6.7078568e-05
5.4850973e-05
-9.2054016e-05
-6.280464e-05
-0.00019541339
-0.00024038134
-0.00038635901
-0.00049693289
-0.00067591128
-0.00085021844
-0.0010766549
-0.0013168753
-0.0016020276
-0.0019124907
-0.002265499
-0.0026513135
-0.0030795482
-0.0035453732
-0.0040540902
-0.0046033757
-0.0051960452
-0.0058307627
-0.006510179
-0.0072331039
-0.0079990299
-0.0088037528
-0.0096398141
-0.010507534
-0.011420285
-0.012376358
-0.013355647
-0.014351168
-0.015369388
-0.016406298
-0.017455442
-0.018513488
-0.019574861
-0.020634881
-0.021687571
-0.022727421
-0.02374828
-0.024744268
-0.025709212
-0.026637132
-0.027521965
-0.028357815
-0.029138827
-0.029859301
-0.030513627
-0.031096323
-0.031601984
-0.032025284
-0.032360927
-0.032603621
-0.032748043
-0.032788813
-0.032720457
-0.032537422
-0.032234048
-0.031804616
-0.03124336
-0.030544554
-0.029702569
-0.028712004
-0.027567799
-0.026265417
-0.024800993
-0.023171581
-0.02137531
-0.01941166
-0.017281588
-0.014987774
-0.012534626
-0.0099284475
-0.0071772374
-0.0042907307
-0.0012800021
0.0018426026
0.0050640244
0.0083705304
0.011748343
0.015183601
0.018662948
0.02217339
0.025702787
0.029239669
0.032773585
0.03629501
0.039795415
0.04326751
0.046704769
0.050102377
0.053455748
0.056762969
0.060021219
0.063232335
0.066394861
0.069516399
0.072596276
0.075652574
0.078684541
0.081731511
0.084790708
0.087946192
0.091186344
0.094688332
0.098405301
0.10270313
0.10740715
0.11326195
0.11968073
0.12820233
0.13705116
0.14959869
0.16094346
0.17890683
0.1912303
0.21489527
0.22594722
0.24401396
-0.00029771855
0.00021088168
-0.00015281599
0.00013462433
-8.3326323e-05
5.3522518e-05
-9.5491768e-05
-6.1206708e-05
-0.00019114106
-0.00023374696
-0.0003758933
-0.0004843365
-0.00065923866
-0.00083086747
-0.0010530111
-0.0012897265
-0.001570119
-0.001876063
-0.0022235016
-0.0026036343
-0.0030252305
-0.0034846872
-0.0039874827
-0.0045314628
-0.0051194579
-0.0057499592
-0.0064220661
-0.0071340053
-0.0078808729
-0.0086697746
-0.0095114406
-0.010394977
-0.011307365
-0.012244088
-0.01321229
-0.014208971
-0.015226476
-0.016261349
-0.017309507
-0.01836715
-0.019429202
-0.020490917
-0.021546587
-0.022590774
-0.023617499
-0.024620968
-0.025595131
-0.02653408
-0.027431823
-0.028282503
-0.029080282
-0.029819439
-0.030494309
-0.031099311
-0.031628897
-0.032077553
-0.032439743
-0.032709891
-0.032882348
-0.032951365
-0.032911069
-0.032755482
-0.032478507
-0.032073979
-0.031535698
-0.030857521
-0.030033432
-0.029057683
-0.027924918
-0.026630362
-0.025169972
-0.023540691
-0.021740593
-0.019769166
-0.017627415
-0.015318112
-0.012845775
-0.010216845
-0.0074394546
-0.0045235075
-0.0014802283
0.0016778248
0.0049373758
0.0082844278
0.011704957
0.015184791
0.018710304
0.022268158
0.025845944
0.029431857
0.033015207
0.03658617
0.040136048
0.043657306
0.047143374
0.050589328
0.053990784
0.057345798
0.060652074
0.063911527
0.067123878
0.070296923
0.073432422
0.076548681
0.07964968
0.082774312
0.085928314
0.089191811
0.092567046
0.096215277
0.10011051
0.10457011
0.10945406
0.11538306
0.12185611
0.1301248
0.1387017
0.15027293
0.16093551
0.17663616
0.18834416
0.2076443
0.21894707
0.2312566
-0.00043274391
0.00024322128
-0.0002070718
0.00013662165
-0.00010794868
4.7231814e-05
-0.00010739496
-6.6565405e-05
-0.00019499396
-0.00023422501
-0.00037261985
-0.00047802196
-0.00064839921
-0.00081644999
-0.0010336345
-0.0012660355
-0.0015410878
-0.0018420534
-0.0021838772
-0.0025585628
-0.0029744578
-0.0034273455
-0.0039213801
-0.0044547807
-0.0050287928
-0.0056415996
-0.0062997254
-0.0070039794
-0.0077575608
-0.0085501544
-0.0093734573
-0.010232655
-0.011129196
-0.012061558
-0.013021917
-0.01400582
-0.015012449
-0.016038146
-0.017078394
-0.018129409
-0.019186206
-0.020244196
-0.021297944
-0.022342206
-0.023371266
-0.024379526
-0.02536115
-0.026310393
-0.027221413
-0.028088448
-0.028905713
-0.029667477
-0.030368006
-0.031001578
-0.031562428
-0.032044754
-0.032442656
-0.032750124
-0.032961009
-0.033069008
-0.03306765
-0.032950326
-0.032710292
-0.032340736
-0.031834825
-0.031185819
-0.030387149
-0.029432585
-0.028316357
-0.02703337
-0.025579344
-0.023951089
-0.02214662
-0.02016546
-0.018008697
-0.015679255
-0.013181812
-0.010523015
-0.0077111771
-0.0047564148
-0.0016701416
0.0015348623
0.0048451769
0.0082465162
0.011724611
0.015264912
0.018853474
0.022476536
0.026121361
0.029775736
0.033428734
0.037070252
0.040691558
0.044285099
0.047844544
0.051365113
0.054842957
0.058276595
0.061664813
0.065010269
0.068314442
0.071585996
0.074829313
0.078063055
0.08129476
0.084561436
0.087873132
0.091301842
0.094854656
0.09867027
0.10272975
0.10729802
0.11225503
0.1181086
0.12443031
0.13222351
0.1402492
0.15058174
0.16011483
0.17311306
0.18298591
0.19691439
0.20548902
0.21165751
-0.00058767238
0.00028402507
-0.00027013482
0.0001398913
-0.00013246926
4.7693222e-05
-0.00011168178
-6.0635564e-05
-0.00018660816
-0.0002201001
-0.00035361819
-0.00045412259
-0.00061862189
-0.00078129355
-0.00099180451
-0.0012177536
-0.0014850625
-0.0017780119
-0.0021103646
-0.0024747013
-0.0028775412
-0.0033173087
-0.003799972
-0.0043232076
-0.0048907916
-0.0055025482
-0.0061545442
-0.0068444966
-0.0075739775
-0.0083444197
-0.0091579443
-0.010010204
-0.010896317
-0.011813059
-0.012760579
-0.013735836
-0.014734704
-0.015753797
-0.016789166
-0.017837072
-0.018892981
-0.019952466
-0.021010462
-0.022061955
-0.023101528
-0.024123792
-0.025123123
-0.026093913
-0.027030415
-0.027926887
-0.028777492
-0.029576362
-0.030317539
-0.030994984
-0.031602529
-0.032133872
-0.032582539
-0.03294187
-0.033205002
-0.033364875
-0.033414232
-0.033345662
-0.033151628
-0.032824556
-0.032356888
-0.031741232
-0.030970439
-0.030037801
-0.028937166
-0.027663178
-0.026211397
-0.024578591
-0.022762821
-0.020763755
-0.018582672
-0.016222762
-0.01368897
-0.010988262
-0.0081292395
-0.0051223831
-0.0019793958
0.0012865095
0.0046614365
0.0081305724
0.011679168
0.01529208
0.018954856
0.022653084
0.026373522
0.030103327
0.033831117
0.037546214
0.041239504
0.044902913
0.048529866
0.052115391
0.055655814
0.059149588
0.062595929
0.06599761
0.069357082
0.072683169
0.07598201
0.079272186
0.082564128
0.085893488
0.089274729
0.092774356
0.096405759
0.10029129
0.1044217
0.10902069
0.11399001
0.11974379
0.12592322
0.1333253
0.14094338
0.15037226
0.15921384
0.17054622
0.17964621
0.19103691
0.19883193
0.20298146
-0.00074825766
0.00032594175
-0.00033001423
0.00015130675
-0.00015582518
4.93465e-05
-0.00011805796
-5.5814961e-05
-0.00017994634
-0.0002063798
-0.00033453868
-0.00042866133
-0.00058625209
-0.00074200483
-0.00094460985
-0.0011627367
-0.0014213443
-0.0017056718
-0.0020290445
-0.002384792
-0.0027812895
-0.0032138861
-0.0036851864
-0.0041949984
-0.0047452573
-0.0053356997
-0.0059690996
-0.0066449345
-0.0073641404
-0.0081227092
-0.0089179217
-0.0097502386
-0.010618637
-0.011521425
-0.012454799
-0.0134157
-0.014401784
-0.015409872
-0.01643634
-0.017477656
-0.018529601
-0.019588028
-0.020648244
-0.02170554
-0.022754839
-0.023791021
-0.024808712
-0.025802474
-0.026766676
-0.027695596
-0.028583335
-0.029423859
-0.030210941
-0.030938167
-0.031598888
-0.032186225
-0.03269303
-0.033111891
-0.033435125
-0.033654806
-0.033762769
-0.033750693
-0.033610133
-0.033332637
-0.03290982
-0.032333529
-0.031595942
-0.03068978
-0.029608428
-0.028346196
-0.026898423
-0.025261787
-0.023434355
-0.021415926
-0.019207961
-0.01681394
-0.014239103
-0.0114908
-0.0085779944
-0.0055115962
-0.0023037729
0.0010317505
0.0044808146
0.008027984
0.011657987
0.015354926
0.019103727
0.022889175
0.026697406
0.030514795
0.034329457
0.038130112
0.041907428
0.045653226
0.049361096
0.053025946
0.056644311
0.060214887
0.063737668
0.067215808
0.070652826
0.074057884
0.077438494
0.080812789
0.08419267
0.087611079
0.091083655
0.094668941
0.098381078
0.10232355
0.10648939
0.111062
0.11595636
0.12150325
0.12739891
0.13426131
0.14126811
0.14960147
0.15740334
0.16679127
0.17441636
0.18296095
0.18900502
0.19157432
-0.00089601456
0.0003680047
-0.00038907525
0.00016304182
-0.00017385293
6.0668236e-05
-0.0001125498
-3.6674376e-05
-0.00015830782
-0.00017627255
-0.00029873424
-0.00038561037
-0.00053599583
-0.0006841861
-0.00087845221
-0.0010879759
-0.0013369296
-0.0016110386
-0.0019228265
-0.0022659144
-0.00264705
-0.0030641712
-0.0035214615
-0.0040178258
-0.0045556399
-0.0051343497
-0.0057534525
-0.0064120466
-0.0071108926
-0.0078498911
-0.0086291075
-0.0094464863
-0.010299717
-0.011186634
-0.012105857
-0.013054898
-0.014030937
-0.015031113
-0.016052161
-0.017090815
-0.018143297
-0.019205766
-0.020273943
-0.02134343
-0.02240949
-0.023467248
-0.02451155
-0.025537079
-0.026538254
-0.027509297
-0.028444158
-0.029336535
-0.030179827
-0.030967131
-0.031691203
-0.03234447
-0.032918998
-0.033406519
-0.033798429
-0.03408584
-0.034259608
-0.034310427
-0.034228884
-0.034005608
-0.033631346
-0.033097163
-0.032394546
-0.031515642
-0.030453372
-0.029201723
-0.02775582
-0.026112277
-0.024269186
-0.022226509
-0.019985927
-0.017551259
-0.0149281
-0.012124263
-0.0091491363
-0.0060142508
-0.0027321497
0.00068275591
0.0042153427
0.007849291
0.011568589
0.01535643
0.01919704
0.023074274
0.026973629
0.030880652
0.034782936
0.038668492
0.042527553
0.04635109
0.050132177
0.053865598
0.057548274
0.061178783
0.064757375
0.068287332
0.07177294
0.075223365
0.078647231
0.082062322
0.085481973
0.088937378
0.092445938
0.096060746
0.099798164
0.10374783
0.10790714
0.11242816
0.11724055
0.1226085
0.12828087
0.13473475
0.14131388
0.14889121
0.15605856
0.16426091
0.17114736
0.17821328
0.18348118
0.1852578
-0.0010235711
0.00040862554
-0.00043919699
0.00017915309
-0.00018810702
7.3757917e-05
-0.00010618995
-1.6479954e-05
-0.00013544699
-0.00014387797
-0.00025983075
-0.00033804587
-0.00048005281
-0.00061917571
-0.00080384327
-0.0010034589
-0.0012418464
-0.0015051889
-0.0018057235
-0.002137429
-0.002507036
-0.0029115738
-0.0033543062
-0.0038346271
-0.004354576
-0.0049141009
-0.0055147642
-0.0061561406
-0.0068386719
-0.0075607214
-0.0083212887
-0.0091198425
-0.0099552505
-0.010826112
-0.011730223
-0.012665436
-0.013629584
-0.014620161
-0.015634341
-0.016669194
-0.01772135
-0.018787323
-0.019863237
-0.020945032
-0.022028313
-0.023108468
-0.02418056
-0.025239399
-0.026279449
-0.027294874
-0.028279459
-0.029226622
-0.030129372
-0.030980298
-0.031771543
-0.032494814
-0.033141371
-0.033702054
-0.034167311
-0.034527257
-0.034771719
-0.03489036
-0.034872746
-0.034708519
-0.034387492
-0.033899874
-0.033236375
-0.03238849
-0.031348584
-0.030110239
-0.02866828
-0.027019185
-0.025161001
-0.023093806
-0.020819457
-0.018342118
-0.015667721
-0.012804616
-0.0097626863
-0.0065540307
-0.0031921052
0.0003077418
0.0039303668
0.007658491
0.011475301
0.015362859
0.019304525
0.023282991
0.027282935
0.031288754
0.035287354
0.039265747
0.04321379
0.04712262
0.050985839
0.054797741
0.058554902
0.062256035
0.065902169
0.069496651
0.073044295
0.076554346
0.080035978
0.083506127
0.086978436
0.09048125
0.094031593
0.097675623
0.10142867
0.10536551
0.10948376
0.11390573
0.11857007
0.12368212
0.12903103
0.13497376
0.14098278
0.14767868
0.15399382
0.16087344
0.16669641
0.17223402
0.17647453
0.17779182
-0.0011271094
0.00044621662
-0.00048038838
0.00019814716
-0.00019429106
9.5299483e-05
-8.8991863e-05
1.5680123e-05
-9.9591894e-05
-9.7536282e-05
-0.00020641554
-0.00027522544
-0.00040838658
-0.00053775552
-0.00071222276
-0.00090104225
-0.0011278094
-0.0013788567
-0.0016660669
-0.0019836391
-0.0023379459
-0.0027269281
-0.0031541968
-0.0036190526
-0.0041235069
-0.0046672675
-0.0052509416
-0.0058742305
-0.0065377048
-0.0072411228
-0.0079843309
-0.008766317
-0.0095858736
-0.010441654
-0.011332364
-0.012256255
-0.01321136
-0.014195538
-0.01520634
-0.016241195
-0.017297161
-0.018371109
-0.019459565
-0.020558797
-0.021664724
-0.022772971
-0.023878782
-0.024977055
-0.026062256
-0.027128443
-0.028169191
-0.029177595
-0.030146224
-0.03106712
-0.031931768
-0.032731122
-0.033455592
-0.0340951
-0.034639105
-0.035076692
-0.035396627
-0.035587509
-0.035637844
-0.035536258
-0.035271586
-0.034833149
-0.034210842
-0.03339547
-0.032378806
-0.031153995
-0.029715528
-0.028059723
-0.026184557
-0.024090224
-0.021778757
-0.019254675
-0.016524311
-0.013596558
-0.01048181
-0.007193202
-0.0037442449
-0.00015091411
0.0035696349
0.0073987938
0.011318899
0.015310799
0.019357063
0.023439169
0.027541124
0.03164633
0.035741258
0.039812256
0.043849042
0.047841134
0.051780692
0.05566222
0.059483629
0.063243317
0.066942035
0.070583315
0.074172764
0.077719282
0.081232764
0.084729604
0.088223911
0.091742203
0.095301773
0.09894388
0.10268409
0.1065861
0.11064936
0.11497323
0.1195065
0.12440873
0.12950689
0.13506636
0.14067075
0.14675522
0.15252106
0.15856195
0.16376642
0.16841635
0.17206827
0.17302499
-0.0012069699
0.0004801252
-0.00051093315
0.00021960477
-0.00019473472
0.00011988556
-6.8072557e-05
5.1147727e-05
-5.9947892e-05
-4.6900234e-05
-0.00014805743
-0.00020661865
-0.0003301705
-0.00044890543
-0.00061247038
-0.00078983768
-0.0010046238
-0.0012432732
-0.0015175198
-0.0018216893
-0.0021619551
-0.0025360365
-0.0029472681
-0.0033951351
-0.0038816669
-0.0044069369
-0.0049722275
-0.005577455
-0.0062231304
-0.0069086936
-0.0076338859
-0.0083983076
-0.0092012716
-0.01004191
-0.010918969
-0.011831092
-0.012776744
-0.013754183
-0.014761395
-0.015796193
-0.016856054
-0.017938228
-0.019039628
-0.020156856
-0.021286143
-0.022423353
-0.023563913
-0.024702815
-0.025834535
-0.026953035
-0.028051693
-0.029123293
-0.030159984
-0.031153274
-0.032094006
-0.032972388
-0.033777991
-0.034499812
-0.035126314
-0.035645532
-0.036045139
-0.036312628
-0.03643539
-0.036400968
-0.036197144
-0.035812266
-0.035235321
-0.034456332
-0.033466376
-0.03225807
-0.030825472
-0.029164665
-0.02727347
-0.025152152
-0.02280285
-0.020230473
-0.017441641
-0.014445985
-0.01125444
-0.0078804112
-0.0043393947
-0.00064941217
0.0031738961
0.0071107531
0.011142172
0.015247445
0.019408084
0.023604012
0.027818281
0.032032718
0.036232934
0.040403389
0.044532704
0.048611706
0.052634842
0.05659525
0.060488639
0.064313622
0.068072673
0.071768954
0.07540788
0.07899861
0.082551045
0.08608052
0.089600983
0.093136196
0.096702484
0.10033534
0.1040487
0.10789498
0.11187308
0.11606113
0.12041431
0.12505254
0.12983169
0.13494171
0.14005231
0.14545567
0.15055737
0.15570888
0.16017106
0.16396322
0.16700258
0.16779795
-0.0012654225
0.00051009146
-0.00053106824
0.00024383917
-0.00018680305
0.00015145168
-3.768073e-05
9.6361325e-05
-9.3481211e-06
1.5298583e-05
-7.7413114e-05
-0.00012508879
-0.00023843662
-0.0003458623
-0.0004978507
-0.00066292507
-0.00086478612
-0.001089851
-0.0013497535
-0.0016389456
-0.0019635322
-0.0023215787
-0.0027164962
-0.0031478192
-0.0036175301
-0.0041256511
-0.0046732407
-0.0052604116
-0.005887854
-0.0065556098
-0.0072638036
-0.0080121198
-0.0088000833
-0.009627068
-0.010492323
-0.011394859
-0.012333496
-0.013306871
-0.014313367
-0.015351181
-0.016418203
-0.017512052
-0.018630019
-0.019769029
-0.020925608
-0.022095843
-0.023275331
-0.02445914
-0.025641743
-0.026816996
-0.027978073
-0.02911744
-0.030226821
-0.031297184
-0.032318726
-0.033280902
-0.03417243
-0.034981368
-0.035695158
-0.036300757
-0.036784708
-0.037133352
-0.037332916
-0.037369801
-0.037230676
-0.036902852
-0.036374338
-0.035634309
-0.03467308
-0.033482683
-0.032056678
-0.030390872
-0.028482885
-0.026333033
-0.023943567
-0.021319742
-0.018468676
-0.01540047
-0.012126643
-0.008663032
-0.0050235507
-0.0012268615
0.0027065918
0.0067562263
0.010902919
0.015124551
0.01940192
0.023713397
0.028041397
0.03236647
0.036673868
0.040947937
0.045177267
0.049347682
0.053450647
0.057480566
0.061438356
0.065321724
0.069130638
0.072868815
0.076543447
0.080162371
0.083736161
0.087279667
0.09080658
0.094339102
0.097893054
0.10149985
0.10517286
0.108956
0.11284897
0.11691367
0.12111241
0.12553493
0.13006331
0.13483114
0.13957931
0.14449594
0.1491412
0.15369567
0.15767226
0.1609093
0.16353186
0.16413945
-0.0013055144
0.00053609524
-0.00054162367
0.00026960998
-0.00017286685
0.00018623779
-2.5676874e-06
0.00014563698
4.6067799e-05
8.2522601e-05
-1.1214438e-06
-3.7382162e-05
-0.00013993646
-0.00023548233
-0.00037540771
-0.00052777101
-0.00071645613
-0.00092782499
-0.0011734694
-0.0014478727
-0.0017570263
-0.0020989715
-0.0024770487
-0.0028909184
-0.0033426466
-0.0038324935
-0.0043617952
-0.004930838
-0.0055403903
-0.0061905518
-0.0068815912
-0.007613559
-0.0083863387
-0.0091996847
-0.010053117
-0.010946035
-0.011877652
-0.012847012
-0.013852915
-0.01489396
-0.015968448
-0.01707438
-0.018209425
-0.019370837
-0.020555443
-0.02175957
-0.022978992
-0.024208878
-0.025443719
-0.026677294
-0.027902596
-0.029111807
-0.030296251
-0.031446386
-0.032551778
-0.033601147
-0.034582359
-0.035482529
-0.036288055
-0.036984785
-0.03755808
-0.037993074
-0.038274746
-0.038388279
-0.038319124
-0.038053456
-0.037578191
-0.036881555
-0.035952979
-0.034783816
-0.033367019
-0.031698044
-0.02977422
-0.027595884
-0.025165288
-0.022488184
-0.01957173
-0.016427385
-0.013067106
-0.0095060624
-0.0057624679
-0.0018561277
0.0021948774
0.0063671152
0.010640022
0.014989215
0.019394332
0.02383163
0.028282593
0.032725789
0.03714591
0.041525296
0.045853303
0.050117595
0.054312454
0.058427116
0.06245615
0.06639908
0.070262352
0.074048324
0.077761647
0.08141192
0.085009369
0.088567398
0.092099853
0.095626226
0.099161434
0.1027323
0.10635061
0.11005208
0.11383575
0.11774907
0.12175907
0.12593019
0.13016479
0.13455207
0.13888855
0.14328679
0.14742521
0.15137554
0.15483456
0.15756223
0.15980292
0.1603386
-0.0013304759
0.00055878937
-0.00054301348
0.00029780914
-0.00015124275
0.0002268738
4.0822764e-05
0.00020307113
0.00011090909
0.00015958073
8.5813438e-05
6.1531404e-05
-2.9561398e-05
-0.0001125817
-0.00023975218
-0.00037864603
-0.00055334056
-0.00075010728
-0.00098054804
-0.0012392079
-0.0015320824
-0.0018573657
-0.0022184313
-0.002615015
-0.0030491894
-0.0035212697
-0.0040326052
-0.0045836763
-0.0051754387
-0.0058083428
-0.0064829355
-0.0071995013
-0.0079582048
-0.0087591038
-0.0096021104
-0.010486994
-0.011413349
-0.012380609
-0.01338798
-0.014434458
-0.01551875
-0.016639241
-0.01779397
-0.018980526
-0.020196038
-0.021437071
-0.022699588
-0.023978863
-0.025269417
-0.026564963
-0.027858329
-0.029141425
-0.030405187
-0.03163957
-0.032833517
-0.033975001
-0.03505103
-0.036047748
-0.036950479
-0.037743916
-0.038412182
-0.038939134
-0.039308432
-0.039503954
-0.039509841
-0.039311044
-0.038893288
-0.038243762
-0.037350919
-0.036205356
-0.034799336
-0.033127915
-0.03118806
-0.028980106
-0.026506334
-0.023772796
-0.020787599
-0.017561668
-0.014108733
-0.010446599
-0.0065914514
-0.0025654556
0.0016107444
0.0059121851
0.010317336
0.014799715
0.019338115
0.023906554
0.028485856
0.033052549
0.037590861
0.042081437
0.046512705
0.050869909
0.05514637
0.059335165
0.063435793
0.067441821
0.071352675
0.075174083
0.078917587
0.082588064
0.086196598
0.089757145
0.09328215
0.096790399
0.10029589
0.1038223
0.10738074
0.11100069
0.11468166
0.11846009
0.12230814
0.12627127
0.13026959
0.13435955
0.13838199
0.14239499
0.14616347
0.14968304
0.15277146
0.15513676
0.15708582
0.15751305
-0.0013431805
0.00057838927
-0.00053671668
0.00032731606
-0.00012398956
0.00027075901
8.9228096e-05
0.0002648794
0.00018102608
0.00024201604
0.00017876367
0.0001668491
8.775573e-05
1.7708807e-05
-9.6265911e-05
-0.00022131571
-0.0003817158
-0.00056364352
-0.00077871087
-0.0010214699
-0.0012978779
-0.0016061628
-0.0019497037
-0.0023283459
-0.002744255
-0.0031979215
-0.0036908659
-0.0042237407
-0.0047976445
-0.0054132026
-0.0060711761
-0.0067721517
-0.0075166128
-0.0083049656
-0.0091374561
-0.010014237
-0.010935295
-0.011900471
-0.012909391
-0.013961461
-0.015055808
-0.016191211
-0.017366099
-0.01857841
-0.019825594
-0.021104484
-0.022411253
-0.023741317
-0.02508926
-0.026448763
-0.027812528
-0.029172223
-0.03051843
-0.031840623
-0.033127135
-0.034365205
-0.035540967
-0.036639577
-0.037645245
-0.038541456
-0.039311024
-0.039936449
-0.040399967
-0.040684044
-0.040771387
-0.040645606
-0.040291094
-0.039693888
-0.038841321
-0.037723142
-0.036330791
-0.034658861
-0.032703855
-0.03046609
-0.027947728
-0.025155567
-0.022096677
-0.018785617
-0.015234912
-0.011463405
-0.0074893406
-0.0033364645
0.0009743062
0.0054153071
0.0099639006
0.014590721
0.019273545
0.023983546
0.028700818
0.033399292
0.038062927
0.042670282
0.047210272
0.051667279
0.056035223
0.060303916
0.064471598
0.068536902
0.07250433
0.076370574
0.080142388
0.083832634
0.087452468
0.091012226
0.094526534
0.098010926
0.10147907
0.1049512
0.1084371
0.11196067
0.11552094
0.11914504
0.1228087
0.12654218
0.13027961
0.13405304
0.1377384
0.14135688
0.1447401
0.14784024
0.15056277
0.15260733
0.15430639
0.15469356
-0.0013459987
0.00059577095
-0.00052308963
0.00035908697
-9.0010179e-05
0.00031973663
0.00014493289
0.00033377695
0.0002594661
0.00033309568
0.0002811905
0.00028215963
0.00021575821
0.00015929332
5.9192297e-05
-5.1332899e-05
-0.00019672432
-0.00036308298
-0.00056205569
-0.00078823226
-0.0010475917
-0.0013384521
-0.0016642282
-0.0020248495
-0.0024225307
-0.0028578647
-0.0033324662
-0.0038471745
-0.0044032788
-0.0050016749
-0.00564338
-0.0063292532
-0.0070600781
-0.0078365858
-0.0086593887
-0.009529014
-0.010445842
-0.011410119
-0.012421886
-0.013480968
-0.014586913
-0.015738909
-0.016935781
-0.018175835
-0.019456858
-0.020775972
-0.022129584
-0.023513279
-0.024921726
-0.026348607
-0.027786519
-0.029226916
-0.030660041
-0.032074903
-0.033459225
-0.034799503
-0.036080979
-0.037287787
-0.038402972
-0.039408749
-0.040286544
-0.041017411
-0.041582054
-0.041961424
-0.042136669
-0.042089943
-0.041804178
-0.041264155
-0.040455963
-0.039368417
-0.037992021
-0.036320858
-0.034350856
-0.032082311
-0.029517209
-0.026662598
-0.023527439
-0.020125333
-0.016470288
-0.012582837
-0.0084814699
-0.0041925003
0.00026185282
0.0048511897
0.0095519085
0.014331507
0.019167011
0.024026324
0.028889084
0.03372617
0.038521389
0.043250692
0.047902972
0.052460536
0.056917823
0.061264635
0.065500695
0.069621443
0.073630399
0.077533186
0.081334669
0.08503845
0.088658349
0.092210748
0.095705158
0.099158462
0.10258313
0.10599703
0.10940972
0.11284053
0.11628911
0.11977542
0.12327897
0.12681879
0.13034086
0.13385952
0.13727783
0.14059085
0.14367774
0.14646144
0.14890337
0.1507015
0.15219455
0.15251427
-0.0013409012
0.00061112303
-0.00050352288
0.00039224202
-5.0971211e-05
0.00037197865
0.00020562306
0.00040716965
0.00034334202
0.00042971015
0.00038980368
0.00040399915
0.0003508229
0.00030835396
0.0002225831
0.00012698013
-3.0167341e-06
-0.00015345205
-0.00033598539
-0.00054522412
-0.00078714379
-0.0010601171
-0.0013675938
-0.0017096067
-0.0020884642
-0.0025049088
-0.002960701
-0.0034568553
-0.0039948334
-0.0045757429
-0.0052008388
-0.0058712677
-0.0065881245
-0.0073524815
-0.0081653063
-0.0090275124
-0.009939883
-0.010903084
-0.011917589
-0.012983661
-0.014101286
-0.015270086
-0.016489307
-0.017757653
-0.01907328
-0.020433636
-0.021835404
-0.023274375
-0.024745354
-0.026242064
-0.027757039
-0.029281559
-0.030805557
-0.032317599
-0.033804812
-0.035252946
-0.036646332
-0.037968049
-0.039199919
-0.04032282
-0.041316691
-0.042161037
-0.042834899
-0.043317582
-0.043588521
-0.04362827
-0.043418134
-0.042941503
-0.042183056
-0.041130569
-0.039773461
-0.038105232
-0.036121148
-0.03382138
-0.03120798
-0.0282878
-0.025071689
-0.021573038
-0.017806655
-0.013794761
-0.0095569153
-0.0051219617
-0.000512834
0.0042366043
0.0091018991
0.014046592
0.01904706
0.024067155
0.02908627
0.034071546
0.039007056
0.043865711
0.048637191
0.053301672
0.057854485
0.062283412
0.066589034
0.07076716
0.074823227
0.078757833
0.082580998
0.086301388
0.089924409
0.093461908
0.096932757
0.10034849
0.10372199
0.10706916
0.1103981
0.11372506
0.11704923
0.1203851
0.12371492
0.12704923
0.13034369
0.13360031
0.13674399
0.13975387
0.142546
0.14503033
0.14720811
0.14879277
0.15011453
0.15040802
-0.0013292984
0.00062520397
-0.00047823702
0.00042759448
-6.1485056e-06
0.00042878029
0.00027278836
0.00048688265
0.00043468453
0.00053408915
0.0005069936
0.0005349005
0.00049563346
0.00046773238
0.00039694222
0.0003168817
0.00020292713
6.9048741e-05
-9.6424633e-05
-0.00028814492
-0.0005121058
-0.00076675515
-0.0010555838
-0.0013787149
-0.0017385293
-0.0021358911
-0.0025726844
-0.0030501061
-0.0035698107
-0.0041331502
-0.0047416329
-0.0053966881
-0.0060997194
-0.0068521349
-0.0076552682
-0.0085104196
-0.009418781
-0.010381443