/*--------------------------------*- C++ -*----------------------------------*\
| =========                 |                                                 |
| \\      /  F ield         | foam-extend: Open Source CFD                    |
|  \\    /   O peration     | Version:     4.1                                |
|   \\  /    A nd           | Web:         http://www.foam-extend.org         |
|    \\/     M anipulation  |                                                 |
\*---------------------------------------------------------------------------*/
FoamFile
{
    version     2.0;
    format      ascii;
    class       surfaceScalarField;
    location    "1.7";
    object      phi;
}
// * * * * * * * * * * * * * * * * * * * * * * * * * * * * * * * * * * * * * //

dimensions      [0 3 -1 0 0 0 0];

internalField   nonuniform List<scalar> 
31929
(
-3.7873007e-05
3.6270666e-09
-3.7855655e-05
-1.7351982e-08
-3.7844971e-05
-1.0683341e-08
-3.7823901e-05
-2.1070924e-08
-3.780158e-05
-2.2321028e-08
-3.7773694e-05
-2.7885641e-08
-3.7741722e-05
-3.1972034e-08
-3.7705717e-05
-3.6004531e-08
-3.7664922e-05
-4.0794998e-08
-3.7620333e-05
-4.4588849e-08
-3.7570917e-05
-4.9416749e-08
-3.7517591e-05
-5.3325748e-08
-3.7459574e-05
-5.8017176e-08
-3.739753e-05
-6.2043958e-08
-3.7330992e-05
-6.6537741e-08
-3.7260434e-05
-7.055795e-08
-3.7185659e-05
-7.4774731e-08
-3.7107056e-05
-7.8603844e-08
-3.7024653e-05
-8.2402927e-08
-3.693885e-05
-8.5802595e-08
-3.684989e-05
-8.8959473e-08
-3.6758275e-05
-9.1615221e-08
-3.666447e-05
-9.3804812e-08
-3.6569132e-05
-9.5338134e-08
-3.6472955e-05
-9.6177036e-08
-3.6376796e-05
-9.6159672e-08
-3.6281582e-05
-9.5213581e-08
-3.6188366e-05
-9.3216189e-08
-3.6098246e-05
-9.0119414e-08
-3.6012699e-05
-8.5547541e-08
-3.5933276e-05
-7.9422508e-08
-3.5861482e-05
-7.1794301e-08
-3.5798746e-05
-6.2735601e-08
-3.5746327e-05
-5.2419098e-08
-3.5706728e-05
-3.9599094e-08
-3.568261e-05
-2.4117945e-08
-3.5676546e-05
-6.0642073e-09
-3.5691762e-05
1.521585e-08
-3.5728642e-05
3.6880181e-08
-3.578659e-05
5.7947681e-08
-3.5866516e-05
7.9926677e-08
-3.5969475e-05
1.0295861e-07
-3.6096635e-05
1.2715975e-07
-3.6249022e-05
1.5238731e-07
-3.6427526e-05
1.7850433e-07
-3.6632842e-05
2.0531599e-07
-3.6865461e-05
2.3261927e-07
-3.7125643e-05
2.6018103e-07
-3.7413396e-05
2.877536e-07
-3.7728467e-05
3.1507046e-07
-3.8070321e-05
3.4185409e-07
-3.8438138e-05
3.6781738e-07
-3.8830809e-05
3.9267075e-07
-3.9246935e-05
4.1612671e-07
-3.9684841e-05
4.379055e-07
-4.0142584e-05
4.5774327e-07
-4.0617982e-05
4.7539774e-07
-4.1108637e-05
4.9065549e-07
-4.1611976e-05
5.0333897e-07
-4.2125289e-05
5.1331312e-07
-4.2645779e-05
5.2048923e-07
-4.3170611e-05
5.2483217e-07
-4.3696972e-05
5.2636147e-07
-4.4222126e-05
5.251535e-07
-4.4743466e-05
5.2134015e-07
-4.5258572e-05
5.1510587e-07
-4.5765254e-05
5.0668185e-07
-4.6261589e-05
4.9633552e-07
-4.674595e-05
4.8436149e-07
-4.7217017e-05
4.7106659e-07
-4.7673772e-05
4.5675524e-07
-4.8115488e-05
4.4171541e-07
-4.8541693e-05
4.2620552e-07
-4.8952138e-05
4.1044463e-07
-4.9346748e-05
3.9461011e-07
-4.9725589e-05
3.7884121e-07
-5.0088838e-05
3.6324892e-07
-5.0436774e-05
3.4793596e-07
-5.0769791e-05
3.3301697e-07
-5.1088434e-05
3.1864334e-07
-5.1393456e-05
3.0502184e-07
-5.1685886e-05
2.9242985e-07
-5.19671e-05
2.8121396e-07
-5.2238888e-05
2.7178849e-07
-5.25035e-05
2.6461173e-07
-5.2763674e-05
2.6017432e-07
-5.3022642e-05
2.5896757e-07
-5.3284119e-05
2.6147774e-07
-5.355228e-05
2.6816014e-07
-5.3831731e-05
2.7945116e-07
-5.4127482e-05
2.9575121e-07
-5.4444937e-05
3.1745461e-07
-5.4789873e-05
3.4493638e-07
-5.5168476e-05
3.7860335e-07
-5.5587347e-05
4.1887107e-07
-5.6053598e-05
4.6625066e-07
-5.6574898e-05
5.2129993e-07
-5.7159688e-05
5.8479057e-07
-5.7817291e-05
6.5760288e-07
-5.8558365e-05
7.4107376e-07
-5.9395146e-05
8.3678117e-07
-6.0342425e-05
9.4727887e-07
-6.1418063e-05
1.0756384e-06
-6.2645067e-05
1.2270033e-06
-6.4052599e-05
1.4075321e-06
-6.5680214e-05
1.6276156e-06
-6.7579493e-05
1.8992788e-06
-6.9822128e-05
2.242635e-06
-7.2501395e-05
2.6792671e-06
-7.5746326e-05
3.244931e-06
-7.9719172e-05
3.9728454e-06
-8.4638095e-05
4.9189229e-06
-9.075958e-05
6.1214855e-06
-9.8413699e-05
7.654119e-06
-0.00010794728
9.5335835e-06
-0.00011978732
1.184004e-05
-0.00013429718
1.4509861e-05
-0.00015192959
1.7632402e-05
-0.0001728693
2.0939711e-05
-0.00019751452
2.4645223e-05
-0.00022529688
2.7782362e-05
-0.0002568381
3.1541223e-05
-0.00028729962
3.0461513e-05
3.5280983e-05
-0.00011043336
4.1385773e-09
-0.00011040856
-4.2148577e-08
-0.0001103845
-3.4745912e-08
-0.00011034648
-5.9085743e-08
-0.00011030328
-6.5523143e-08
-0.00011025046
-8.0701868e-08
-0.00011019036
-9.2075215e-08
-0.00011012213
-1.0423959e-07
-0.00011004602
-1.169034e-07
-0.00010996222
-1.2838979e-07
-0.0001098705
-1.4113621e-07
-0.00010977125
-1.5257241e-07
-0.00010966428
-1.6498646e-07
-0.00010955
-1.7632044e-07
-0.00010942841
-1.8813245e-07
-0.00010929995
-1.9901411e-07
-0.00010916486
-2.0986676e-07
-0.00010902371
-2.1975888e-07
-0.00010887699
-2.2912247e-07
-0.00010872548
-2.3731192e-07
-0.00010856999
-2.4444642e-07
-0.00010841158
-2.5002212e-07
-0.00010825144
-2.539514e-07
-0.00010809098
-2.5579575e-07
-0.00010793184
-2.5531917e-07
-0.00010777595
-2.5204404e-07
-0.00010762558
-2.455884e-07
-0.00010748323
-2.3556655e-07
-0.00010735156
-2.2178364e-07
-0.00010723341
-2.0369768e-07
-0.00010713172
-1.8111124e-07
-0.00010705038
-1.5314079e-07
-0.00010699492
-1.1818939e-07
-0.00010697101
-7.6331455e-08
-0.00010698381
-2.6796446e-08
-0.00010703815
3.0218969e-08
-0.00010713321
8.8998257e-08
-0.00010726736
1.4936645e-07
-0.00010744431
2.1382172e-07
-0.00010766798
2.8162599e-07
-0.00010794135
3.5329511e-07
-0.00010826705
4.2865965e-07
-0.00010864743
5.0753364e-07
-0.0001090845
5.8945863e-07
-0.00010957991
6.7391974e-07
-0.00011013487
7.6027167e-07
-0.00011075005
8.4780345e-07
-0.00011142559
9.3571339e-07
-0.00011216097
1.023135e-06
-0.00011295504
1.1091384e-06
-0.00011380593
1.1927494e-06
-0.00011471107
1.2729616e-06
-0.00011566716
1.3487594e-06
-0.00011667018
1.4191406e-06
-0.00011771541
1.4831376e-06
-0.00011879752
1.5398505e-06
-0.00011991059
1.588472e-06
-0.00012104825
1.6283164e-06
-0.00012220376
1.6588468e-06
-0.00012337015
1.6797022e-06
-0.00012454037
1.6907112e-06
-0.00012570745
1.6919147e-06
-0.00012686466
1.6835701e-06
-0.00012800566
1.666153e-06
-0.00012912467
1.6403486e-06
-0.0001302166
1.6070344e-06
-0.00013127717
1.5672551e-06
-0.00013230302
1.5221806e-06
-0.00013329172
1.4730681e-06
-0.00013424186
1.4212083e-06
-0.00013515298
1.3678717e-06
-0.00013602552
1.314257e-06
-0.00013686076
1.2614459e-06
-0.00013766068
1.2103653e-06
-0.00013842785
1.1617756e-06
-0.00013916528
1.1162747e-06
-0.00013987636
1.0743248e-06
-0.00014056473
1.0363053e-06
-0.00014123428
1.0025734e-06
-0.00014188917
9.7353369e-07
-0.00014253385
9.4969902e-07
-0.00014317316
9.3173887e-07
-0.00014381244
9.2049166e-07
-0.00014445762
9.1697172e-07
-0.00014511534
9.2232601e-07
-0.00014579297
9.3781022e-07
-0.00014649873
9.6472346e-07
-0.00014724164
1.0043899e-06
-0.00014803158
1.0581053e-06
-0.00014887929
1.127153e-06
-0.00014979631
1.2127768e-06
-0.00015079509
1.3162337e-06
-0.00015188894
1.4387877e-06
-0.00015309214
1.5818062e-06
-0.00015442002
1.7467513e-06
-0.00015588911
1.9353315e-06
-0.00015751727
2.1494658e-06
-0.00015932403
2.3915484e-06
-0.00016133076
2.6643347e-06
-0.00016356112
2.971436e-06
-0.00016604139
3.3170481e-06
-0.00016880101
3.7068998e-06
-0.00017187298
4.1476074e-06
-0.00017529454
4.6485642e-06
-0.00017910738
5.2203682e-06
-0.00018335833
5.878571e-06
-0.00018809893
6.6398794e-06
-0.0001933858
7.5295005e-06
-0.00019927845
8.571923e-06
-0.0002058389
9.805378e-06
-0.00021312585
1.1259791e-05
-0.00022119288
1.2985959e-05
-0.00023007596
1.5004562e-05
-0.00023979054
1.7368703e-05
-0.00025030606
2.0049098e-05
-0.00026154624
2.3080218e-05
-0.00027333429
2.6297913e-05
-0.00028541564
2.9713752e-05
-0.00029732298
3.2847053e-05
-0.000308499
3.5821237e-05
-0.00031794786
3.7231223e-05
-0.00032461458
3.8207948e-05
-0.00032737812
3.3225051e-05
3.0483464e-05
-0.00017464487
6.0579226e-09
-0.00017462023
-6.678266e-08
-0.0001745942
-6.0780985e-08
-0.0001745542
-9.9082998e-08
-0.00017450827
-1.1145562e-07
-0.0001744522
-1.3676831e-07
-0.00017438887
-1.5540116e-07
-0.00017431692
-1.7619749e-07
-0.00017423744
-1.9638176e-07
-0.00017415009
-2.1573823e-07
-0.0001740554
-2.3582189e-07
-0.00017395347
-2.5450962e-07
-0.00017384469
-2.7375904e-07
-0.00017372943
-2.9158653e-07
-0.00017360817
-3.0938961e-07
-0.00017348149
-3.2569096e-07
-0.0001733501
-3.4126244e-07
-0.00017321482
-3.5503778e-07
-0.00017307664
-3.6729871e-07
-0.00017293674
-3.7721622e-07
-0.00017279648
-3.847086e-07
-0.00017265748
-3.8902392e-07
-0.00017252159
-3.8983197e-07
-0.00017239095
-3.8644269e-07
-0.00017226792
-3.783486e-07
-0.00017215514
-3.6482611e-07
-0.00017205549
-3.4523228e-07
-0.00017197215
-3.1890462e-07
-0.00017190877
-2.8516993e-07
-0.00017187018
-2.4228728e-07
-0.00017186196
-1.8933013e-07
-0.00017188918
-1.2592516e-07
-0.0001719567
-5.0661484e-08
-0.00017206888
3.5846982e-08
-0.00017222399
1.2831041e-07
-0.00017242014
2.2636648e-07
-0.00017266303
3.3189618e-07
-0.00017295859
4.449236e-07
-0.00017331114
5.663748e-07
-0.00017372494
6.9542617e-07
-0.00017420333
8.3168182e-07
-0.00017474924
9.7456862e-07
-0.00017536516
1.1234574e-06
-0.00017605312
1.2774146e-06
-0.00017681457
1.4353681e-06
-0.00017765033
1.5960318e-06
-0.0001785605
1.7579752e-06
-0.00017954439
1.919606e-06
-0.00018060046
2.0792048e-06
-0.00018172627
2.2349418e-06
-0.00018291843
2.3849133e-06
-0.00018417264
2.5271742e-06
-0.00018548367
2.6597845e-06
-0.00018684539
2.7808617e-06
-0.00018825088
2.8886251e-06
-0.00018969249
2.9814629e-06
-0.000191162
3.0579826e-06
-0.00019265075
3.117067e-06
-0.00019414982
3.1579221e-06
-0.00019565025
3.1801251e-06
-0.00019714318
3.1836425e-06
-0.00019862013
3.1688636e-06
-0.00020007315
3.1365965e-06
-0.00020149506
3.0880598e-06
-0.00020287957
3.0248537e-06
-0.00020422145
2.948915e-06
-0.00020551665
2.8624613e-06
-0.00020676238
2.7679041e-06
-0.00020795708
2.6677737e-06
-0.00020910049
2.5646192e-06
-0.00021019353
2.4609116e-06
-0.00021123823
2.3589554e-06
-0.0002122376
2.2608143e-06
-0.00021319549
2.1682519e-06
-0.00021411643
2.0827162e-06
-0.0002150055
2.0053533e-06
-0.00021586823
1.9370527e-06
-0.00021671046
1.8785351e-06
-0.00021753834
1.830449e-06
-0.00021835828
1.7934784e-06
-0.00021917702
1.7684376e-06
-0.00022000163
1.7563467e-06
-0.00022083959
1.7584529e-06
-0.00022169886
1.7762466e-06
-0.00022258794
1.811403e-06
-0.00022351588
1.8657529e-06
-0.00022449235
1.9411886e-06
-0.00022552759
2.0396351e-06
-0.00022663246
2.1629676e-06
-0.00022781833
2.3130226e-06
-0.0002290971
2.4915519e-06
-0.00023048114
2.7002756e-06
-0.00023198323
2.9408691e-06
-0.00023361649
3.2150688e-06
-0.0002353944
3.5246613e-06
-0.00023733071
3.8716463e-06
-0.00023943945
4.2582006e-06
-0.00024173485
4.6869518e-06
-0.00024423137
5.1608509e-06
-0.00024694359
5.6836576e-06
-0.00024988619
6.2596506e-06
-0.0002530738
6.8945114e-06
-0.00025652083
7.5946381e-06
-0.00026024114
8.3688722e-06
-0.0002642476
9.2268301e-06
-0.0002685513
1.018227e-05
-0.00027316058
1.1249157e-05
-0.00027807925
1.244817e-05
-0.0002833047
1.3797374e-05
-0.0002888244
1.5325081e-05
-0.00029461265
1.7048037e-05
-0.00030062451
1.8997824e-05
-0.00030679131
2.1171355e-05
-0.00031301176
2.3589156e-05
-0.00031914709
2.618443e-05
-0.00032501117
2.8944299e-05
-0.00033036572
3.1652467e-05
-0.00033491652
3.4264547e-05
-0.00033830489
3.6235424e-05
-0.00034012446
3.7640805e-05
-0.00033994223
3.7048993e-05
-0.00033718615
3.5451874e-05
-0.00033227487
2.8313768e-05
2.0789394e-05
-0.00022728428
1.7033576e-08
-0.00022727123
-7.9834953e-08
-0.0002272573
-7.4703399e-08
-0.0002272319
-1.2449216e-07
-0.00022720206
-1.4129203e-07
-0.00022716422
-1.7461083e-07
-0.00022712124
-1.9837424e-07
-0.00022707181
-2.2562973e-07
-0.00022701738
-2.5080873e-07
-0.0002269576
-2.7552035e-07
-0.00022689342
-3.000017e-07
-0.000226825
-3.2293137e-07
-0.00022675317
-3.4559033e-07
-0.00022667844
-3.663163e-07
-0.00022660172
-3.8611201e-07
-0.00022652383
-4.0357934e-07
-0.00022644588
-4.1921228e-07
-0.00022636903
-4.3189096e-07
-0.00022629466
-4.4165994e-07
-0.00022622432
-4.4755892e-07
-0.00022615975
-4.4928486e-07
-0.00022610285
-4.4591494e-07
-0.0002260558
-4.3688328e-07
-0.00022602097
-4.2127893e-07
-0.00022600099
-3.9832993e-07
-0.00022599893
-3.6688524e-07
-0.00022601843
-3.2572404e-07
-0.0002260635
-2.7384005e-07
-0.00022613819
-2.1047853e-07
-0.00022624613
-1.3435087e-07
-0.00022639123
-4.4221777e-08
-0.00022657573
5.8570013e-08
-0.00022679758
1.711841e-07
-0.00022705608
2.9435342e-07
-0.00022735692
4.2915008e-07
-0.00022770673
5.7617288e-07
-0.000228111
7.3616405e-07
-0.0002285747
9.0862598e-07
-0.00022910124
1.0929198e-06
-0.00022969398
1.288164e-06
-0.00023035594
1.49364e-06
-0.00023108966
1.7082918e-06
-0.00023189716
1.930954e-06
-0.00023277984
2.1600911e-06
-0.00023373842
2.3939488e-06
-0.00023477286
2.6304804e-06
-0.00023588231
2.8674175e-06
-0.00023706497
3.1022691e-06
-0.00023831813
3.3323671e-06
-0.0002396381
3.5549096e-06
-0.00024102021
3.7670183e-06
-0.00024245883
3.965799e-06
-0.00024394746
4.1484165e-06
-0.00024547878
4.3121801e-06
-0.00024704477
4.4546102e-06
-0.00024863684
4.5735384e-06
-0.00025024604
4.6671782e-06
-0.00025186317
4.7341998e-06
-0.00025347904
4.7737892e-06
-0.00025508462
4.7857057e-06
-0.00025667127
4.7702917e-06
-0.00025823091
4.7285036e-06
-0.0002597562
4.6618901e-06
-0.0002612407
4.5725616e-06
-0.00026267898
4.4631348e-06
-0.00026406672
4.3366555e-06
-0.00026540077
4.1965109e-06
-0.00026667917
4.0463022e-06
-0.00026790114
3.8897387e-06
-0.00026906702
3.7305033e-06
-0.00027017824
3.5721279e-06
-0.00027123716
3.4178825e-06
-0.00027224704
3.270689e-06
-0.00027321184
3.1330521e-06
-0.00027413617
3.0070497e-06
-0.00027502517
2.8943553e-06
-0.00027588442
2.7962967e-06
-0.00027671985
2.7139633e-06
-0.00027753772
2.64832e-06
-0.00027834457
2.6003322e-06
-0.00027914721
2.5710737e-06
-0.00027995267
2.5618154e-06
-0.00028076827
2.5740472e-06
-0.00028160153
2.6095046e-06
-0.00028246022
2.6700969e-06
-0.00028335235
2.7578803e-06
-0.0002842861
2.8749434e-06
-0.00028526984
3.0233755e-06
-0.00028631203
3.205159e-06
-0.00028742119
3.4221764e-06
-0.00028860578
3.6761418e-06
-0.00028987415
3.9686487e-06
-0.00029123443
4.3011428e-06
-0.00029269439
4.6750291e-06
-0.00029426138
5.0916532e-06
-0.00029594219
5.5524607e-06
-0.00029774295
6.0589561e-06
-0.00029966896
6.6129631e-06
-0.0003017246
7.2164964e-06
-0.00030391315
7.8722032e-06
-0.00030623659
8.5830876e-06
-0.00030869535
9.3532714e-06
-0.00031128806
1.0187351e-05
-0.00031401104
1.1091849e-05
-0.00031685785
1.2073648e-05
-0.00031981834
1.3142761e-05
-0.00032287786
1.430867e-05
-0.00032601531
1.5585618e-05
-0.00032920194
1.698401e-05
-0.00033239782
1.8520958e-05
-0.00033555026
2.0200482e-05
-0.00033858819
2.2035748e-05
-0.00034142166
2.4004822e-05
-0.00034393433
2.6101828e-05
-0.00034598809
2.8238195e-05
-0.00034741545
3.037166e-05
-0.00034803737
3.2274383e-05
-0.00034765691
3.3884086e-05
-0.00034611287
3.4691381e-05
-0.00034325036
3.4778295e-05
-0.00033915254
3.295118e-05
-0.00033377695
3.0076283e-05
-0.0003284471
2.298392e-05
1.492289e-05
-0.00026737627
4.637486e-08
-0.0002673885
-6.7605264e-08
-0.00026740163
-6.1571429e-08
-0.0002674075
-1.1862955e-07
-0.00026741151
-1.3727378e-07
-0.00026741104
-1.7508038e-07
-0.00026740867
-2.0074608e-07
-0.00026740347
-2.3083319e-07
-0.00026739699
-2.5728513e-07
-0.00026738908
-2.8343003e-07
-0.00026738091
-3.0817712e-07
-0.0002673728
-3.3104136e-07
-0.00026736582
-3.5256292e-07
-0.00026736068
-3.7145851e-07
-0.00026735851
-3.8828652e-07
-0.0002673603
-4.0178234e-07
-0.00026736737
-4.1214242e-07
-0.00026738102
-4.1824588e-07
-0.00026740277
-4.1990793e-07
-0.00026743424
-4.1608557e-07
-0.00026747728
-4.0624583e-07
-0.00026753395
-3.8924963e-07
-0.00026760653
-3.6430273e-07
-0.00026769745
-3.303547e-07
-0.00026780935
-2.8642912e-07
-0.00026794491
-2.3133342e-07
-0.00026810682
-1.63807e-07
-0.00026829787
-8.2789488e-08
-0.00026852091
1.2558801e-08
-0.0002687758
1.2054129e-07
-0.00026906107
2.410471e-07
-0.00026937873
3.7623045e-07
-0.00026973392
5.2636835e-07
-0.0002701321
6.9254036e-07
-0.00027057864
8.7568754e-07
-0.00027107821
1.0757453e-06
-0.00027163388
1.2918304e-06
-0.00027224866
1.5234013e-06
-0.00027292562
1.7698856e-06
-0.00027366758
2.030124e-06
-0.00027447687
2.3029313e-06
-0.00027535529
2.586712e-06
-0.00027630402
2.8796821e-06
-0.00027732355
3.1796242e-06
-0.00027841363
3.4840255e-06
-0.00027957317
3.790018e-06
-0.0002808002
4.0944535e-06
-0.00028209186
4.3939283e-06
-0.00028344434
4.684843e-06
-0.00028485291
4.9634769e-06
-0.00028631196
5.2260707e-06
-0.00028781507
5.4689147e-06
-0.00028935511
5.6884504e-06
-0.00029092431
5.8813838e-06
-0.00029251447
6.044767e-06
-0.00029411705
6.1761208e-06
-0.00029572339
6.2735133e-06
-0.00029732483
6.3356402e-06
-0.00029891292
6.3618821e-06
-0.00030047957
6.3523578e-06
-0.00030201719
6.3079145e-06
-0.00030351884
6.2301482e-06
-0.00030497831
6.1213569e-06
-0.00030639023
5.9844881e-06
-0.00030775015
5.8230563e-06
-0.00030905454
5.6410414e-06
-0.00031030081
5.4427783e-06
-0.00031148731
5.2328018e-06
-0.00031261329
5.0157267e-06
-0.00031367889
4.796096e-06
-0.000314685
4.5782454e-06
-0.00031563331
4.3661867e-06
-0.00031652614
4.1635209e-06
-0.00031736646
3.9733688e-06
-0.00031815777
3.7983662e-06
-0.00031890411
3.6406927e-06
-0.00031960994
3.5021303e-06
-0.00032028016
3.3841776e-06
-0.00032092
3.2881613e-06
-0.00032153503
3.2153616e-06
-0.00032213107
3.1671171e-06
-0.00032271417
3.1449163e-06
-0.00032329054
3.1504096e-06
-0.00032386647
3.1854422e-06
-0.00032444835
3.2519708e-06
-0.00032504252
3.352048e-06
-0.00032565526
3.4876918e-06
-0.00032629275
3.6608636e-06
-0.00032696093
3.8733388e-06
-0.00032766548
4.126724e-06
-0.00032841171
4.4223681e-06
-0.00032920447
4.7614142e-06
-0.00033004809
5.1447583e-06
-0.00033094622
5.573161e-06
-0.00033190178
6.0472195e-06
-0.00033291685
6.5675255e-06
-0.00033399252
7.1346293e-06
-0.00033512885
7.7492892e-06
-0.0003363247
8.4123462e-06
-0.00033757761
9.1251184e-06
-0.00033888368
9.8891527e-06
-0.00034023726
1.0706858e-05
-0.00034163083
1.1580921e-05
-0.00034305446
1.2515478e-05
-0.0003444955
1.3514687e-05
-0.00034593766
1.4584922e-05
-0.00034736048
1.5731482e-05
-0.00034873762
1.6962758e-05
-0.00035003626
1.8282656e-05
-0.0003512144
1.9699097e-05
-0.00035222076
2.1206846e-05
-0.0003529912
2.2806182e-05
-0.00035345131
2.4464932e-05
-0.00035351259
2.6163112e-05
-0.00035308223
2.7807835e-05
-0.00035205932
2.934875e-05
-0.00035035973
3.0574788e-05
-0.00034790558
3.1429942e-05
-0.00034468751
3.1473312e-05
-0.00034069835
3.0789132e-05
-0.00033616311
2.8415936e-05
-0.00033112191
2.503509e-05
-0.00032664754
1.8509545e-05
1.085595e-05
-0.00029582423
1.0173204e-07
-0.00029587211
-1.9727879e-08
-0.00029592199
-1.168934e-08
-0.00029596969
-7.0931949e-08
-0.00029601875
-8.8207076e-08
-0.00029606755
-1.262893e-07
-0.00029611804
-1.502494e-07
-0.00029616963
-1.7924401e-07
-0.00029622376
-2.0315698e-07
-0.00029628047
-2.2671671e-07
-0.00029634099
-2.4766308e-07
-0.00029640577
-2.6625908e-07
-0.00029647597
-2.8236129e-07
-0.00029655238
-2.9505358e-07
-0.00029663619
-3.0447744e-07
-0.00029672845
-3.0951569e-07
-0.00029683051
-3.1008832e-07
-0.00029694366
-3.0509462e-07
-0.00029706942
-2.9414485e-07
-0.00029720936
-2.7614867e-07
-0.00029736517
-2.5043592e-07
-0.00029753858
-2.1584105e-07
-0.00029773146
-1.7141788e-07
-0.0002979458
-1.1601657e-07
-0.00029818361
-4.8616778e-08
-0.00029844645
3.1506564e-08
-0.00029873464
1.243827e-07
-0.00029904847
2.3103864e-07
-0.00029938872
3.528058e-07
-0.00029975877
4.9059649e-07
-0.00030016307
6.4534915e-07
-0.00030060519
8.1835046e-07
-0.00030108956
1.010738e-06
-0.00030161974
1.2227183e-06
-0.00030219813
1.4540772e-06
-0.00030282716
1.7047755e-06
-0.0003035098
1.9744736e-06
-0.00030424877
2.2623666e-06
-0.00030504629
2.5674091e-06
-0.00030590426
2.8880946e-06
-0.00030682409
3.2227581e-06
-0.00030780659
3.5692172e-06
-0.00030885194
3.9250254e-06
-0.00030995955
4.2872322e-06
-0.00031112805
4.6525341e-06
-0.00031235527
5.0172336e-06
-0.00031363814
5.3773269e-06
-0.00031497277
5.7285577e-06
-0.00031635442
6.0664941e-06
-0.00031777758
6.3866364e-06
-0.00031923603
6.6845206e-06
-0.00032072295
6.9558318e-06
-0.00032223102
7.1965236e-06
-0.00032375259
7.4029499e-06
-0.00032527977
7.5719496e-06
-0.00032680463
7.700979e-06
-0.0003283193
7.7881851e-06
-0.00032981614
7.8324782e-06
-0.00033128784
7.8335769e-06
-0.00033272752
7.7920475e-06
-0.00033412888
7.7092701e-06
-0.00033548618
7.587444e-06
-0.00033679434
7.4295185e-06
-0.00033804897
7.2391206e-06
-0.00033924637
7.0204562e-06
-0.00034038352
6.7781926e-06
-0.00034145808
6.517339e-06
-0.00034246836
6.2430798e-06
-0.00034341329
5.9606549e-06
-0.0003442924
5.675206e-06
-0.0003451058
5.391643e-06
-0.00034585414
5.114534e-06
-0.00034653864
4.8480228e-06
-0.00034716104
4.5957635e-06
-0.00034772359
4.360918e-06
-0.00034822908
4.146185e-06
-0.0003486808
3.9538495e-06
-0.00034908252
3.7858914e-06
-0.00034943843
3.6440798e-06
-0.00034975316
3.530089e-06
-0.00035003163
3.4455841e-06
-0.00035027902
3.392306e-06
-0.00035050068
3.3720681e-06
-0.00035070204
3.3868024e-06
-0.00035088852
3.4384554e-06
-0.00035106546
3.5289902e-06
-0.00035123802
3.6602429e-06
-0.00035141107
3.833922e-06
-0.0003515892
4.0514636e-06
-0.00035177654
4.3140683e-06
-0.00035197677
4.6225909e-06
-0.00035219296
4.9776119e-06
-0.00035242758
5.3793759e-06
-0.00035268234
5.8279235e-06
-0.00035295818
6.3230607e-06
-0.00035325518
6.86452e-06
-0.00035357247
7.4519166e-06
-0.00035390816
8.0849874e-06
-0.0003542593
8.7634775e-06
-0.00035462167
9.4874961e-06
-0.00035498981
1.025729e-05
-0.00035535672
1.1073768e-05
-0.00035571378
1.1937981e-05
-0.00035605036
1.2852058e-05
-0.00035635361
1.3817934e-05
-0.00035660775
1.4839067e-05
-0.00035679383
1.591756e-05
-0.00035688849
1.7057422e-05
-0.00035686387
1.8258032e-05
-0.00035668578
1.9521001e-05
-0.00035631447
2.0835545e-05
-0.00035570247
2.2194179e-05
-0.00035479809
2.3560547e-05
-0.00035354319
2.4908219e-05
-0.00035188348
2.6148117e-05
-0.00034976502
2.7230293e-05
-0.00034715893
2.7968704e-05
-0.00034404654
2.8317552e-05
-0.0003404837
2.7910466e-05
-0.00033652153
2.6826962e-05
-0.00033243232
2.4326733e-05
-0.00032832176
2.0924522e-05
-0.00032501607
1.5203859e-05
8.4204793e-06
-0.00031468201
1.8744609e-07
-0.00031477032
6.8581055e-08
-0.0003148601
7.809383e-08
-0.0003149523
2.1266377e-08
-0.0003150486
8.0971288e-09
-0.00031514852
-2.6372659e-08
-0.00031525338
-4.5391387e-08
-0.00031536285
-6.9773954e-08
-0.00031547814
-8.7860728e-08
-0.00031559945
-1.0540969e-07
-0.0003157279
-1.1921617e-07
-0.00031586401
-1.3014926e-07
-0.00031600888
-1.3749081e-07
-0.00031616329
-1.4064472e-07
-0.00031632836
-1.393989e-07
-0.0003165051
-1.3277924e-07
-0.00031669471
-1.2047794e-07
-0.00031689837
-1.0143638e-07
-0.0003171174
-7.5115923e-08
-0.00031735309
-4.0455041e-08
-0.0003176068
3.2737113e-09
-0.00031787949
5.6842102e-08
-0.00031817196
1.2105551e-07
-0.00031848521
1.9723779e-07
-0.00031882021
2.8637959e-07
-0.00031917832
3.8961706e-07
-0.00031956199
5.08056e-07
-0.00031997383
6.4287349e-07
-0.00032041623
7.9520441e-07
-0.00032089233
9.6670158e-07
-0.00032140531
1.1583307e-06
-0.00032195753
1.3705698e-06
-0.00032255088
1.604082e-06
-0.00032318748
1.8593262e-06
-0.00032386995
2.1365387e-06
-0.00032460061
2.4354413e-06
-0.00032538141
2.7552767e-06
-0.00032621404
3.0949921e-06
-0.00032709989
3.4532566e-06
-0.00032803993
3.8281327e-06
-0.00032903459
4.2174199e-06
-0.00033008367
4.6182977e-06
-0.00033118626
5.0276223e-06
-0.00033234073
5.4416931e-06
-0.00033354461
5.856423e-06
-0.00033479471
6.2673243e-06
-0.00033608699
6.6696116e-06
-0.00033741672
7.0582872e-06
-0.00033877846
7.428235e-06
-0.00034016618
7.7743571e-06
-0.00034157335
8.0916946e-06
-0.00034299308
8.3755565e-06
-0.0003444182
8.6216483e-06
-0.00034584147
8.8262108e-06
-0.00034725561
8.986097e-06
-0.00034865353
9.0989015e-06
-0.00035002837
9.1630188e-06
-0.00035137359
9.1777e-06
-0.00035268309
9.1430774e-06
-0.00035395123
9.0601873e-06
-0.00035517287
8.9309101e-06
-0.00035634339
8.7579636e-06
-0.00035745869
8.544815e-06
-0.00035851516
8.2955979e-06
-0.00035950971
8.0150046e-06
-0.00036043968
7.7081651e-06
-0.00036130288
7.3805299e-06
-0.0003620975
7.0377037e-06
-0.00036282218
6.6853361e-06
-0.00036347595
6.3289774e-06
-0.00036405826
5.9739536e-06
-0.000364569
5.6252687e-06
-0.0003650085
5.2875282e-06
-0.00036537762
4.9648792e-06
-0.00036567771
4.6610053e-06
-0.00036591067
4.3791519e-06
-0.00036607898
4.1221588e-06
-0.00036618565
3.8925565e-06
-0.0003662342
3.6926338e-06
-0.00036622865
3.5245396e-06
-0.00036617341
3.3903375e-06
-0.00036607319
3.2920917e-06
-0.00036593296
3.2318337e-06
-0.00036575776
3.2116094e-06
-0.00036555267
3.2333592e-06
-0.00036532262
3.2989473e-06
-0.00036507238
3.4100031e-06
-0.00036480641
3.5679516e-06
-0.0003645288
3.7738481e-06
-0.00036424319
4.0284564e-06
-0.00036395271
4.3321173e-06
-0.00036365995
4.6848517e-06
-0.00036336686
5.086279e-06
-0.00036307471
5.5357779e-06
-0.00036278409
6.032436e-06
-0.00036249478
6.5752173e-06
-0.0003622058
7.1629317e-06
-0.00036191529
7.7944792e-06
-0.00036162054
8.4687264e-06
-0.00036131787
9.18483e-06
-0.00036100261
9.9420323e-06
-0.00036066895
1.07401e-05
-0.00036030982
1.1578854e-05
-0.00035991667
1.245891e-05
-0.00035947929
1.3380552e-05
-0.00035898529
1.4345069e-05
-0.00035841998
1.5352251e-05
-0.00035776551
1.6402951e-05
-0.00035700098
1.7493497e-05
-0.00035610127
1.8621294e-05
-0.00035503816
1.977244e-05
-0.00035377901
2.0935025e-05
-0.00035229041
2.2071949e-05
-0.00035053668
2.3154492e-05
-0.0003484891
2.4100528e-05
-0.00034612171
2.486291e-05
-0.00034343272
2.5279714e-05
-0.00034042578
2.531061e-05
-0.00033716702
2.4651704e-05
-0.00033370465
2.3364592e-05
-0.00033026312
2.08852e-05
-0.00032692856
1.7589963e-05
-0.00032431282
1.2588125e-05
6.6884572e-06
-0.0003263772
3.0264043e-07
-0.00032650454
1.9592604e-07
-0.00032663437
2.0791802e-07
-0.00032677034
1.5724314e-07
-0.00032691122
1.4897699e-07
-0.00032705788
1.2028266e-07
-0.00032721114
1.0787314e-07
-0.00032737144
9.0527469e-08
-0.00032753983
8.0529328e-08
-0.00032771669
7.1449288e-08
-0.00032790303
6.7121365e-08
-0.00032809938
6.6203849e-08
-0.00032830672
6.984424e-08
-0.00032852572
7.8357617e-08
-0.00032875734
9.2216962e-08
-0.00032900236
1.1224068e-07
-0.00032926172
1.3888325e-07
-0.00032953627
1.7311824e-07
-0.00032982695
2.1556303e-07
-0.00033013467
2.6726327e-07
-0.00033046041
3.2901266e-07
-0.00033080552
4.019502e-07
-0.00033117155
4.8708424e-07
-0.00033155991
5.8560584e-07
-0.00033197217
6.9863781e-07
-0.00033241012
8.2756508e-07
-0.00033287586
9.737979e-07
-0.00033337156
1.1385713e-06
-0.00033389924
1.3228816e-06
-0.0003344605
1.5279686e-06
-0.00033505698
1.754808e-06
-0.00033569074
2.0043273e-06
-0.00033636393
2.27727e-06
-0.00033707846
2.5738575e-06
-0.0003378359
2.8939851e-06
-0.00033863767
3.2372073e-06
-0.0003394851
3.6027021e-06
-0.00034037917
3.9890714e-06
-0.00034132047
4.3945479e-06
-0.00034230903
4.8166956e-06
-0.00034334435
5.2527399e-06
-0.00034442525
5.6992016e-06
-0.00034554987
6.1522426e-06
-0.00034671561
6.6074326e-06
-0.00034791914
7.059951e-06
-0.00034915641
7.5045979e-06
-0.00035042272
7.935917e-06
-0.00035171274
8.34831e-06
-0.00035302065
8.7361442e-06
-0.00035434021
9.0939143e-06
-0.00035566488
9.4163712e-06
-0.00035698799
9.6986595e-06
-0.00035830278
9.9364453e-06
-0.00035960263
1.0126052e-05
-0.00036088105
1.0264522e-05
-0.00036213188
1.034973e-05
-0.00036334929
1.0380426e-05
-0.00036452785
1.0356266e-05
-0.00036566259
1.0277818e-05
-0.00036674897
1.0146564e-05
-0.00036778288
9.9648186e-06
-0.00036876063
9.7357162e-06
-0.00036967892
9.4631076e-06
-0.0003705348
9.1514754e-06
-0.00037132562
8.8058263e-06
-0.00037204903
8.4315756e-06
-0.00037270294
8.0344397e-06
-0.00037328552
7.6202805e-06
-0.00037379519
7.1950116e-06
-0.00037423069
6.7644694e-06
-0.00037459103
6.3343004e-06
-0.00037487564
5.9098775e-06
-0.00037508434
5.4962288e-06
-0.00037521745
5.0979825e-06
-0.0003752758
4.7193547e-06
-0.00037526081
4.364169e-06
-0.00037517452
4.0358648e-06
-0.00037501954
3.7375814e-06
-0.0003747991
3.4721879e-06
-0.00037451693
3.2423752e-06
-0.00037417727
3.0506733e-06
-0.00037378469
2.8995166e-06
-0.00037334405
2.7911884e-06
-0.00037286034
2.7279017e-06
-0.00037233861
2.7116316e-06
-0.00037178384
2.7441748e-06
-0.00037120081
2.8269727e-06
-0.00037059404
2.9611858e-06
-0.00036996771
3.1475118e-06
-0.00036932556
3.3863082e-06
-0.00036867087
3.6774249e-06
-0.00036800638
4.0203596e-06
-0.00036733423
4.4141342e-06
-0.00036665596
4.8575037e-06
-0.00036597244
5.3489166e-06
-0.00036528392
5.886699e-06
-0.00036458997
6.4689845e-06
-0.00036388945
7.0939573e-06
-0.00036318047
7.7597437e-06
-0.00036246036
8.4647247e-06
-0.00036172565
9.2073257e-06
-0.00036097194
9.9863883e-06
-0.00036019383
1.0800744e-05
-0.00035938473
1.1649804e-05
-0.00035853673
1.2532554e-05
-0.00035764025
1.3448594e-05
-0.00035668397
1.4395964e-05
-0.00035565417
1.5373158e-05
-0.00035453503
1.6374349e-05
-0.00035330771
1.7393973e-05
-0.00035195151
1.8416243e-05
-0.00035044291
1.9426422e-05
-0.00034875881
2.0387857e-05
-0.00034687524
2.1270921e-05
-0.00034477543
2.200072e-05
-0.00034244562
2.2533091e-05
-0.00033989457
2.2728663e-05
-0.00033713561
2.2551657e-05
-0.00033423946
2.1755553e-05
-0.00033126235
2.0387482e-05
-0.00032840632
1.8029166e-05
-0.00032576889
1.495254e-05
-0.00032377927
1.0598501e-05
5.4897889e-06
-0.00033318334
4.4179321e-07
-0.00033334031
3.5289e-07
-0.00033350048
3.6809239e-07
-0.00033366989
3.2665154e-07
-0.00033384562
3.2470285e-07
-0.00033402936
3.0402289e-07
-0.00033422115
2.996662e-07
-0.00033442166
2.9104145e-07
-0.00033463159
2.9045646e-07
-0.00033485141
2.9126482e-07
-0.00033508193
2.9764872e-07
-0.00033532372
3.0799154e-07
-0.00033557762
3.2374349e-07
-0.00033584429
3.4503217e-07
-0.00033612462
3.7254163e-07
-0.00033641937
4.0699144e-07
-0.00033672946
4.4897817e-07
-0.00033705579
4.9944196e-07