/*--------------------------------*- C++ -*----------------------------------*\
| =========                 |                                                 |
| \\      /  F ield         | foam-extend: Open Source CFD                    |
|  \\    /   O peration     | Version:     4.1                                |
|   \\  /    A nd           | Web:         http://www.foam-extend.org         |
|    \\/     M anipulation  |                                                 |
\*---------------------------------------------------------------------------*/
FoamFile
{
    version     2.0;
    format      ascii;
    class       volScalarField;
    location    "1.7";
    object      rAU;
}
// * * * * * * * * * * * * * * * * * * * * * * * * * * * * * * * * * * * * * //

dimensions      [0 0 1 0 0 0 0];

internalField   nonuniform List<scalar> 
16126
(
0.00049551705
0.00049509793
0.00049509846
0.00049509881
0.00049509946
0.00049510017
0.00049510103
0.00049510205
0.00049510317
0.00049510446
0.00049510585
0.00049510741
0.00049510907
0.0004951109
0.00049511284
0.00049511494
0.00049511714
0.0004951195
0.00049512196
0.00049512455
0.00049512724
0.00049513004
0.00049513291
0.00049513586
0.00049513885
0.00049514187
0.00049514489
0.00049514788
0.0004951508
0.00049515364
0.00049515632
0.00049515882
0.00049516108
0.00049516305
0.0004951647
0.00049516594
0.00049516671
0.00049516642
0.00049516527
0.00049516345
0.00049516095
0.00049515771
0.00049515372
0.00049514894
0.00049514334
0.00049513689
0.00049512959
0.00049512142
0.00049511239
0.0004951025
0.00049509177
0.00049508022
0.00049506789
0.00049505483
0.00049504108
0.00049502671
0.00049501179
0.00049499638
0.00049498058
0.00049496447
0.00049494814
0.00049493166
0.00049491514
0.00049489867
0.00049488231
0.00049486614
0.00049485025
0.00049483468
0.00049481949
0.00049480471
0.00049479039
0.00049477654
0.00049476318
0.00049475031
0.00049473794
0.00049472606
0.00049471468
0.00049470377
0.00049469334
0.00049468335
0.00049467379
0.00049466463
0.00049465582
0.0004946473
0.00049463901
0.00049463085
0.00049462274
0.00049461454
0.00049460614
0.00049459738
0.00049458811
0.00049457816
0.00049456735
0.00049455548
0.00049454236
0.00049452775
0.00049451141
0.00049449309
0.00049447249
0.00049444927
0.00049442306
0.00049439339
0.0004943597
0.00049432129
0.00049427722
0.00049422627
0.00049416684
0.00049409667
0.00049401288
0.00049391143
0.00049378727
0.00049363364
0.00049344259
0.00049320391
0.00049290694
0.00049253862
0.000492088
0.00049154152
0.00049089411
0.00049013431
0.00048928061
0.00048831501
0.00048738607
0.00048591085
0.00049418122
0.00049376393
0.00049376489
0.00049376534
0.00049376647
0.00049376766
0.00049376916
0.00049377093
0.00049377289
0.00049377517
0.00049377761
0.00049378037
0.0004937833
0.00049378654
0.00049378994
0.00049379363
0.00049379749
0.00049380161
0.00049380588
0.00049381037
0.00049381499
0.00049381978
0.00049382464
0.00049382961
0.00049383457
0.00049383956
0.00049384444
0.00049384922
0.00049385375
0.00049385802
0.00049386189
0.0004938653
0.00049386815
0.00049387019
0.00049387136
0.00049387049
0.00049386754
0.00049386287
0.00049385669
0.00049384903
0.00049383983
0.00049382893
0.0004938163
0.00049380187
0.00049378559
0.00049376742
0.00049374736
0.00049372542
0.0004937016
0.00049367596
0.00049364857
0.00049361951
0.00049358889
0.00049355686
0.00049352357
0.00049348919
0.00049345392
0.00049341795
0.00049338152
0.00049334484
0.00049330812
0.0004932716
0.00049323548
0.00049319996
0.00049316521
0.00049313138
0.00049309861
0.00049306698
0.00049303656
0.00049300739
0.00049297948
0.00049295278
0.00049292728
0.00049290288
0.00049287951
0.00049285706
0.00049283543
0.0004928145
0.00049279415
0.00049277423
0.00049275461
0.00049273513
0.0004927156
0.00049269583
0.00049267561
0.00049265468
0.00049263278
0.0004926096
0.00049258484
0.00049255814
0.00049252913
0.00049249742
0.00049246257
0.00049242414
0.00049238164
0.00049233454
0.00049228227
0.0004922242
0.00049215965
0.00049208785
0.00049200794
0.00049191893
0.00049181972
0.00049170901
0.00049158532
0.00049144692
0.00049129186
0.00049111779
0.00049092226
0.0004907023
0.00049045514
0.00049017749
0.00048986718
0.0004895216
0.0004891413
0.00048872636
0.00048828427
0.00048782024
0.00048735676
0.00048690428
0.00048652224
0.00048620625
0.00048615525
0.00048575114
0.00049217983
0.00049176517
0.00049176614
0.00049176622
0.00049176723
0.0004917682
0.00049176956
0.00049177117
0.00049177298
0.00049177511
0.00049177739
0.00049178
0.00049178274
0.00049178578
0.00049178896
0.0004917924
0.00049179596
0.00049179975
0.00049180362
0.00049180767
0.00049181176
0.00049181595
0.00049182011
0.00049182429
0.00049182832
0.00049183226
0.00049183593
0.00049183935
0.00049184233
0.00049184488
0.00049184675
0.00049184788
0.00049184815
0.00049184623
0.00049184145
0.00049183442
0.00049182511
0.00049181406
0.00049180118
0.00049178624
0.00049176923
0.00049174998
0.00049172847
0.00049170464
0.00049167845
0.00049164991
0.00049161902
0.00049158585
0.00049155047
0.00049151297
0.0004914735
0.00049143222
0.00049138932
0.00049134503
0.00049129959
0.00049125326
0.00049120633
0.00049115909
0.00049111181
0.00049106481
0.00049101835
0.0004909727
0.00049092808
0.00049088472
0.00049084278
0.00049080239
0.00049076366
0.00049072662
0.00049069128
0.00049065762
0.00049062557
0.00049059501
0.00049056585
0.0004905379
0.00049051103
0.00049048505
0.00049045977
0.000490435
0.00049041054
0.00049038619
0.00049036171
0.00049033688
0.00049031142
0.00049028508
0.00049025754
0.0004902285
0.00049019761
0.00049016453
0.00049012887
0.00049009025
0.00049004827
0.0004900025
0.00048995253
0.0004898979
0.00048983817
0.00048977285
0.00048970146
0.00048962351
0.00048953846
0.00048944576
0.00048934485
0.00048923511
0.0004891159
0.00048898654
0.00048884632
0.00048869443
0.00048853014
0.00048835258
0.00048816112
0.00048795501
0.00048773414
0.00048749839
0.00048724926
0.00048698826
0.00048672051
0.00048645065
0.00048619088
0.0004859497
0.00048575245
0.00048560756
0.00048557046
0.00048562422
0.00048592339
0.00048589623
0.00049055123
0.00049013862
0.00049013917
0.00049013846
0.00049013882
0.00049013899
0.00049013955
0.00049014026
0.00049014113
0.00049014224
0.00049014342
0.00049014485
0.00049014633
0.00049014802
0.00049014974
0.00049015163
0.00049015351
0.00049015552
0.00049015747
0.00049015948
0.00049016138
0.00049016327
0.00049016496
0.00049016654
0.00049016783
0.00049016889
0.00049016952
0.00049016976
0.00049016938
0.00049016843
0.00049016671
0.0004901624
0.00049015561
0.00049014654
0.00049013447
0.00049012066
0.00049010502
0.00049008725
0.00049006736
0.00049004513
0.00049002062
0.00048999365
0.00048996426
0.00048993239
0.00048989807
0.00048986135
0.00048982227
0.00048978098
0.00048973757
0.00048969225
0.00048964519
0.00048959665
0.00048954687
0.00048949615
0.00048944478
0.00048939308
0.00048934136
0.00048928994
0.00048923913
0.00048918922
0.00048914047
0.00048909312
0.00048904736
0.00048900337
0.00048896124
0.00048892107
0.00048888287
0.00048884663
0.00048881229
0.00048877977
0.00048874895
0.00048871968
0.0004886918
0.00048866513
0.00048863948
0.00048861467
0.0004885905
0.00048856675
0.00048854323
0.0004885197
0.00048849594
0.00048847169
0.00048844671
0.0004884207
0.00048839339
0.00048836447
0.00048833364
0.00048830058
0.00048826498
0.00048822652
0.0004881849
0.0004881398
0.00048809093
0.000488038
0.00048798074
0.00048791888
0.00048785216
0.00048778037
0.00048770326
0.00048762064
0.00048753232
0.00048743812
0.00048733789
0.00048723149
0.00048711883
0.00048699979
0.00048687443
0.00048674275
0.00048660509
0.00048646182
0.00048631403
0.00048616293
0.00048601134
0.00048586216
0.00048572158
0.00048559504
0.00048549444
0.00048542705
0.00048541416
0.00048545816
0.00048559981
0.00048581059
0.00048618792
0.00048618967
0.00048931786
0.00048890727
0.00048890701
0.00048890512
0.00048890439
0.00048890328
0.00048890253
0.0004889018
0.00048890115
0.00048890063
0.00048890008
0.00048889967
0.00048889918
0.0004888988
0.00048889831
0.00048889787
0.0004888973
0.00048889673
0.00048889597
0.00048889516
0.00048889411
0.00048889293
0.00048889143
0.00048888972
0.0004888876
0.00048888517
0.00048888224
0.00048887891
0.00048887458
0.00048886682
0.00048885805
0.00048884655
0.00048883227
0.00048881629
0.00048879854
0.00048877872
0.00048875687
0.00048873276
0.00048870645
0.00048867776
0.00048864677
0.00048861332
0.00048857752
0.00048853936
0.00048849889
0.00048845623
0.0004884115
0.00048836487
0.00048831653
0.00048826672
0.00048821569
0.00048816373
0.00048811114
0.00048805826
0.00048800539
0.00048795287
0.00048790101
0.00048785013
0.0004878005
0.00048775238
0.00048770598
0.0004876615
0.00048761906
0.00048757877
0.00048754069
0.00048750482
0.00048747115
0.00048743961
0.00048741011
0.00048738254
0.00048735675
0.0004873326
0.00048730993
0.00048728857
0.00048726834
0.00048724908
0.00048723061
0.00048721273
0.00048719529
0.00048717805
0.00048716082
0.00048714338
0.00048712549
0.00048710691
0.00048708738
0.00048706665
0.00048704447
0.00048702059
0.00048699476
0.00048696676
0.00048693637
0.0004869034
0.00048686768
0.00048682905
0.00048678738
0.00048674258
0.00048669455
0.00048664325
0.00048658866
0.00048653076
0.00048646959
0.0004864052
0.00048633767
0.00048626713
0.00048619373
0.00048611768
0.00048603931
0.00048595898
0.00048587738
0.00048579527
0.00048571406
0.00048563531
0.00048556191
0.00048549672
0.00048544519
0.00048541167
0.00048540554
0.00048543103
0.00048550383
0.00048562172
0.00048581405
0.00048605356
0.00048640395
0.00048636742
0.0004884459
0.00048803804
0.00048803672
0.0004880335
0.00048803143
0.00048802882
0.00048802651
0.00048802409
0.00048802167
0.00048801926
0.00048801673
0.00048801423
0.00048801155
0.00048800887
0.00048800598
0.00048800305
0.00048799988
0.00048799662
0.00048799308
0.00048798939
0.00048798538
0.00048798119
0.00048797662
0.00048797181
0.00048796657
0.00048796007
0.00048795124
0.00048794171
0.00048793092
0.00048791639
0.00048790035
0.00048788275
0.00048786346
0.0004878422
0.00048781903
0.00048779373
0.00048776639
0.00048773679
0.00048770503
0.00048767094
0.00048763466
0.00048759608
0.00048755534
0.0004875125
0.00048746767
0.00048742101
0.00048737271
0.000487323
0.00048727213
0.00048722037
0.00048716804
0.00048711545
0.00048706293
0.00048701083
0.00048695946
0.00048690915
0.00048686018
0.00048681283
0.00048676734
0.00048672393
0.00048668274
0.00048664391
0.00048660752
0.00048657361
0.00048654219
0.00048651322
0.00048648666
0.0004864624
0.00048644034
0.00048642035
0.00048640231
0.00048638606
0.00048637147
0.00048635838
0.00048634664
0.00048633611
0.00048632663
0.00048631803
0.00048631016
0.00048630283
0.00048629586
0.00048628904
0.00048628216
0.00048627499
0.00048626733
0.00048625893
0.0004862496
0.00048623911
0.00048622727
0.00048621392
0.0004861989
0.00048618208
0.00048616336
0.00048614267
0.00048611996
0.00048609522
0.00048606844
0.00048603967
0.00048600897
0.00048597643
0.00048594217
0.00048590633
0.00048586908
0.00048583064
0.00048579125
0.00048575121
0.00048571092
0.00048567084
0.00048563169
0.00048559428
0.00048555994
0.00048553012
0.00048550733
0.00048549394
0.00048549439
0.00048551184
0.00048555353
0.00048562172
0.0004857281
0.0004858686
0.00048606415
0.00048629105
0.00048658912
0.00048649072
0.00048786858
0.00048746274
0.00048745996
0.0004874572
0.00048745422
0.00048745043
0.00048744662
0.00048744259
0.00048743848
0.0004874343
0.00048742992
0.00048742549
0.00048742082
0.00048741606
0.00048741103
0.0004874059
0.00048740046
0.00048739488
0.00048738897
0.0004873829
0.00048737635
0.0004873681
0.00048735916
0.00048734967
0.00048733944
0.00048732763
0.00048731309
0.00048729737
0.00048728017
0.00048726155
0.00048724121
0.00048721916
0.00048719533
0.00048716949
0.00048714177
0.00048711191
0.00048708004
0.00048704596
0.00048700983
0.0004869715
0.00048693118
0.00048688878
0.00048684452
0.00048679848
0.00048675086
0.00048670186
0.00048665172
0.00048660074
0.00048654919
0.00048649739
0.0004864457
0.00048639443
0.00048634393
0.00048629455
0.00048624658
0.00048620032
0.00048615603
0.00048611394
0.00048607425
0.00048603712
0.00048600264
0.0004859709
0.00048594193
0.00048591572
0.00048589225
0.00048587145
0.00048585324
0.0004858375
0.00048582413
0.000485813
0.00048580397
0.00048579691
0.00048579169
0.00048578816
0.00048578619
0.00048578564
0.00048578637
0.00048578822
0.00048579104
0.00048579465
0.00048579887
0.00048580351
0.00048580836
0.00048581321
0.00048581784
0.00048582205
0.00048582565
0.00048582844
0.00048583025
0.00048583094
0.00048583039
0.0004858285
0.00048582522
0.00048582048
0.00048581429
0.00048580667
0.00048579764
0.00048578728
0.00048577568
0.00048576293
0.00048574919
0.00048573459
0.00048571932
0.00048570357
0.0004856876
0.00048567166
0.00048565615
0.00048564148
0.0004856283
0.00048561733
0.00048560973
0.00048560672
0.00048561042
0.00048562269
0.00048564709
0.00048568594
0.0004857449
0.00048582528
0.00048593617
0.00048607375
0.00048625369
0.00048645788
0.00048671078
0.00048656459
0.00048750971
0.00048710379
0.00048709951
0.00048709715
0.00048709322
0.00048708906
0.00048708436
0.00048707953
0.00048707437
0.00048706904
0.00048706333
0.00048705741
0.00048705106
0.00048704445
0.00048703737
0.00048702997
0.00048702204
0.00048701375
0.00048700487
0.00048699557
0.00048698552
0.00048697345
0.00048696034
0.00048694628
0.00048693101
0.00048691462
0.00048689684
0.00048687775
0.00048685706
0.00048683487
0.00048681091
0.00048678524
0.00048675778
0.00048672831
0.00048669697
0.00048666355
0.0004866282
0.00048659074
0.00048655139
0.00048651001
0.00048646688
0.00048642194
0.00048637547
0.00048632761
0.00048627859
0.00048622867
0.00048617814
0.00048612731
0.00048607651
0.00048602609
0.0004859764
0.00048592777
0.00048588053
0.00048583502
0.00048579152
0.00048575027
0.00048571152
0.00048567544
0.00048564217
0.00048561184
0.0004855845
0.00048556018
0.00048553887
0.00048552054
0.00048550513
0.00048549254
0.00048548269
0.00048547545
0.00048547071
0.00048546832
0.00048546816
0.00048547009
0.00048547399
0.00048547972
0.00048548713
0.00048549609
0.00048550646
0.00048551806
0.00048553076
0.00048554435
0.00048555866
0.00048557348
0.0004855886
0.00048560382
0.00048561892
0.00048563369
0.00048564795
0.00048566151
0.00048567421
0.00048568591
0.00048569652
0.00048570594
0.00048571412
0.00048572103
0.00048572667
0.00048573108
0.00048573428
0.00048573637
0.00048573742
0.00048573754
0.00048573685
0.00048573551
0.00048573367
0.00048573153
0.0004857293
0.00048572724
0.00048572571
0.00048572507
0.00048572593
0.00048572895
0.00048573514
0.0004857456
0.00048576215
0.00048578637
0.00048582125
0.00048586866
0.00048593323
0.00048601579
0.00048612341
0.00048625256
0.00048641425
0.00048659418
0.00048680639
0.00048661713
0.00048729915
0.00048689232
0.00048688704
0.00048688348
0.00048687835
0.00048687369
0.0004868682
0.00048686268
0.00048685656
0.00048685021
0.0004868433
0.00048683603
0.00048682817
0.00048681986
0.00048681088
0.00048680137
0.00048679111
0.00048678021
0.00048676845
0.00048675595
0.00048674246
0.0004867281
0.00048671262
0.00048669611
0.00048667832
0.00048665935
0.00048663892
0.00048661715
0.00048659377
0.00048656887
0.00048654219
0.00048651379
0.00048648361
0.00048645147
0.00048641752
0.00048638156
0.00048634378
0.00048630403
0.00048626256
0.00048621927
0.00048617448
0.00048612818
0.00048608068
0.00048603217
0.00048598292
0.00048593323
0.00048588341
0.00048583381
0.00048578476
0.00048573662
0.00048568975
0.00048564446
0.00048560108
0.00048555991
0.00048552119
0.00048548515
0.00048545198
0.00048542182
0.00048539476
0.00048537089
0.00048535022
0.00048533276
0.00048531847
0.00048530729
0.00048529913
0.00048529391
0.00048529151
0.00048529181
0.00048529468
0.0004853
0.00048530761
0.0004853174
0.00048532922
0.00048534293
0.00048535838
0.00048537543
0.00048539391
0.00048541366
0.0004854345
0.00048545623
0.00048547865
0.00048550156
0.00048552473
0.00048554794
0.00048557097
0.00048559362
0.00048561569
0.00048563699
0.00048565739
0.00048567672
0.00048569492
0.00048571187
0.00048572755
0.00048574192
0.00048575499
0.00048576678
0.00048577733
0.00048578674
0.00048579506
0.00048580241
0.0004858089
0.00048581467
0.00048581987
0.00048582469
0.00048582932
0.00048583403
0.00048583914
0.00048584503
0.00048585225
0.00048586145
0.00048587358
0.00048588963
0.00048591122
0.00048593976
0.00048597782
0.00048602696
0.00048609101
0.0004861706
0.00048627126
0.00048639006
0.00048653469
0.00048669416
0.00048687557
0.00048665351
0.0004871814
0.00048677359
0.00048676758
0.00048676305
0.000486757
0.00048675132
0.00048674477
0.00048673815
0.00048673088
0.00048672332
0.00048671515
0.00048670658
0.00048669736
0.00048668765
0.00048667722
0.00048666621
0.00048665439
0.00048664189
0.00048662849
0.00048661429
0.00048659905
0.00048658291
0.00048656559
0.00048654722
0.00048652754
0.00048650666
0.00048648431
0.00048646059
0.00048643525
0.00048640838
0.00048637975
0.00048634944
0.0004863174
0.00048628345
0.00048624776
0.00048621017
0.00048617089
0.00048612979
0.00048608715
0.00048604292
0.00048599745
0.00048595074
0.00048590316
0.00048585492
0.00048580631
0.00048575767
0.0004857093
0.00048566159
0.00048561486
0.00048556947
0.00048552575
0.00048548402
0.00048544456
0.00048540766
0.00048537351
0.00048534231
0.00048531421
0.00048528933
0.00048526772
0.00048524944
0.00048523448
0.00048522281
0.0004852144
0.00048520916
0.00048520701
0.00048520785
0.00048521156
0.00048521803
0.00048522711
0.00048523869
0.00048525262
0.00048526876
0.00048528698
0.0004853071
0.00048532898
0.00048535245
0.00048537733
0.00048540343
0.00048543056
0.00048545851
0.00048548705
0.00048551597
0.00048554502
0.00048557398
0.00048560263
0.00048563074
0.00048565812
0.00048568459
0.00048570999
0.00048573418
0.00048575707
0.00048577857
0.00048579865
0.00048581727
0.00048583445
0.00048585022
0.00048586463
0.00048587776
0.00048588969
0.00048590054
0.00048591042
0.00048591947
0.00048592787
0.00048593581
0.0004859435
0.0004859512
0.00048595928
0.00048596811
0.00048597826
0.00048599036
0.0004860053
0.00048602405
0.00048604805
0.00048607858
0.00048611784
0.00048616716
0.00048622962
0.00048630561
0.00048639924
0.0004865079
0.00048663653
0.00048677656
0.00048693108
0.00048668113
0.00048711769
0.00048670895
0.00048670242
0.00048669708
0.00048669034
0.00048668387
0.00048667653
0.00048666907
0.00048666092
0.00048665245
0.00048664333
0.00048663378
0.00048662353
0.00048661276
0.00048660124
0.0004865891
0.00048657612
0.00048656243
0.0004865478
0.00048653236
0.00048651585
0.00048649841
0.00048647978
0.00048646008
0.00048643905
0.00048641681
0.00048639309
0.00048636802
0.00048634133
0.00048631316
0.00048628324
0.00048625169
0.00048621846
0.00048618339
0.0004861467
0.0004861082
0.00048606815
0.00048602644
0.00048598338
0.00048593894
0.00048589349
0.00048584707
0.00048580006
0.00048575268
0.00048570527
0.00048565814
0.00048561163
0.00048556609
0.00048552186
0.00048547928
0.00048543865
0.00048540028
0.00048536441
0.00048533131
0.00048530114
0.00048527407
0.00048525022
0.00048522968
0.00048521249
0.00048519869
0.00048518825
0.00048518114
0.00048517732
0.00048517671
0.00048517922
0.00048518475
0.00048519321
0.00048520447
0.00048521839
0.00048523486
0.00048525373
0.00048527484
0.00048529806
0.00048532321
0.00048535011
0.00048537858
0.00048540843
0.00048543944
0.0004854714
0.00048550408
0.00048553722
0.00048557061
0.00048560397
0.00048563707
0.00048566968
0.00048570156
0.00048573253
0.00048576239
0.00048579099
0.00048581819
0.00048584391
0.00048586807
0.00048589061
0.00048591154
0.00048593087
0.00048594861
0.00048596485
0.00048597967
0.00048599316
0.00048600545
0.00048601667
0.00048602699
0.00048603656
0.00048604563
0.00048605441
0.00048606319
0.00048607234
0.00048608226
0.00048609351
0.00048610672
0.00048612274
0.00048614246
0.00048616721
0.0004861981
0.00048623703
0.0004862851
0.00048634481
0.00048641638
0.00048650289
0.0004866021
0.00048671708
0.00048684112
0.00048697466
0.00048670248
0.00048708349
0.00048667394
0.00048666704
0.00048666106
0.00048665381
0.00048664673
0.0004866388
0.0004866307
0.0004866219
0.00048661274
0.00048660291
0.00048659262
0.00048658162
0.00048657007
0.00048655774
0.00048654478
0.00048653095
0.00048651639
0.00048650087
0.00048648452
0.0004864671
0.00048644873
0.00048642916
0.00048640852
0.00048638655
0.00048636337
0.00048633873
0.00048631274
0.00048628517
0.00048625613
0.00048622541
0.00048619309
0.00048615918
0.00048612351
0.00048608631
0.00048604742
0.00048600712
0.00048596531
0.00048592233
0.00048587815
0.00048583317
0.00048578745
0.00048574138
0.0004856952
0.00048564922
0.00048560377
0.00048555919
0.00048551582
0.00048547398
0.00048543399
0.00048539613
0.00048536068
0.00048532787
0.00048529792
0.00048527099
0.00048524722
0.00048522671
0.00048520953
0.00048519572
0.0004851853
0.00048517826
0.00048517457
0.00048517418
0.00048517702
0.00048518303
0.0004851921
0.00048520416
0.00048521907
0.00048523672
0.00048525699
0.00048527972
0.00048530475
0.00048533194
0.0004853611
0.00048539202
0.00048542452
0.00048545837
0.00048549333
0.00048552919
0.00048556566
0.00048560249
0.00048563337
0.00048566056
0.00048568931
0.00048571945
0.0004857508
0.00048578318
0.00048581643
0.00048585037
0.00048588484
0.00048591972
0.00048595486
0.0004859853
0.00048600745
0.00048602784
0.00048604651
0.00048606354
0.00048607902
0.00048609307
0.00048610584
0.00048611747
0.00048612814
0.00048613807
0.00048614748
0.00048615663
0.00048616584
0.00048617547
0.00048618596
0.00048619785
0.00048621176
0.00048622849
0.00048624887
0.00048627406
0.00048630506
0.00048634344
0.0004863901
0.00048644698
0.00048651415
0.00048659374
0.0004866838
0.00048678601
0.00048689515
0.00048701039
0.00048671952
0.00048706448
0.00048665425
0.00048664709
0.00048664059
0.00048663296
0.0004866254
0.00048661703
0.00048660843
0.00048659914
0.00048658947
0.0004865791
0.00048656826
0.00048655669
0.00048654455
0.00048653162
0.00048651804
0.00048650358
0.00048648839
0.00048647222
0.00048645521
0.00048643713
0.00048641809
0.00048639786
0.00048637655
0.00048635392
0.00048633009
0.00048630482
0.00048627823
0.00048625008
0.00048622052
0.00048618931
0.00048615657
0.0004861223
0.00048608637
0.00048604899
0.00048601005
0.00048596981
0.00048592821
0.00048588559
0.00048584194
0.00048579767
0.00048575284
0.00048570784
0.00048566292
0.00048561839
0.00048557458
0.0004855318
0.00048549038
0.00048545063
0.00048541284
0.00048537728
0.00048534421
0.00048531383
0.00048528634
0.00048526188
0.00048524059
0.00048522255
0.00048520784
0.00048519648
0.00048518852
0.00048518393
0.00048518271
0.00048518482
0.0004851902
0.00048519881
0.00048521056
0.00048522538
0.00048524314
0.00048526374
0.00048528705
0.00048531293
0.00048534119
0.0004853717
0.00048540422
0.00048543856
0.0004854745
0.00048551178
0.00048555015
0.00048558936
0.00048562302
0.0004856478
0.00048566846
0.00048568736
0.00048570985
0.00048573585
0.0004857652
0.00048579777
0.00048583336
0.00048587179
0.00048591285
0.00048595632
0.00048600197
0.00048604475
0.00048608096
0.00048611702
0.00048613911
0.00048615647
0.00048617218
0.00048618637
0.0004861992
0.00048621084
0.00048622149
0.00048623137
0.00048624075
0.0004862499
0.00048625914
0.00048626887
0.0004862795
0.00048629157
0.00048630569
0.00048632259
0.00048634302
0.00048636803
0.00048639848
0.00048643567
0.00048648034
0.00048653399
0.00048659662
0.00048666969
0.00048675151
0.00048684285
0.00048693955
0.00048703993
0.00048673357
0.0004870529
0.00048664211
0.00048663476
0.00048662784
0.00048661992
0.00048661197
0.00048660325
0.00048659427
0.00048658459
0.00048657451
0.00048656373
0.00048655245
0.00048654044
0.00048652785
0.00048651445
0.00048650039
0.00048648545
0.00048646977
0.00048645311
0.0004864356
0.00048641701
0.00048639748
0.00048637675
0.00048635495
0.00048633185
0.00048630757
0.00048628186
0.00048625486
0.00048622634
0.00048619644
0.00048616495
0.00048613199
0.00048609757
0.00048606157
0.00048602422
0.0004859854
0.0004859454
0.00048590416
0.00048586202
0.000485819
0.00048577549
0.00048573156
0.00048568761
0.00048564388
0.00048560067
0.00048555829
0.00048551705
0.00048547727
0.00048543922
0.00048540319
0.00048536943
0.00048533817
0.0004853096
0.00048528393
0.00048526126
0.00048524174
0.00048522546
0.00048521247
0.00048520284
0.0004851966
0.00048519376
0.00048519432
0.00048519826
0.00048520556
0.00048521616
0.00048523001
0.00048524704
0.00048526715
0.00048529022
0.00048531614
0.00048534474
0.00048537586
0.00048540932
0.00048544489
0.00048548234
0.00048552142
0.00048556188
0.00048560341
0.00048563303
0.00048565058
0.00048566114
0.00048567563
0.00048569402
0.00048571623
0.00048574215
0.00048577165
0.00048580455
0.00048584065
0.00048587974
0.00048592158
0.00048596593
0.00048601254
0.00048606116
0.00048611155
0.00048616346
0.00048620292
0.00048623904
0.00048625852
0.00048627267
0.0004862854
0.00048629691
0.00048630741
0.00048631714
0.0004863264
0.00048633546
0.00048634466
0.0004863544
0.00048636511
0.0004863773
0.00048639154
0.0004864085
0.00048642888
0.00048645357
0.00048648331
0.00048651916
0.00048656171
0.00048661207
0.00048667015
0.00048673686
0.00048681076
0.00048689197
0.00048697723
0.00048706463
0.00048674518
0.0004870448
0.00048663354
0.00048662606
0.00048661877
0.00048661061
0.00048660234
0.00048659334
0.00048658403
0.00048657403
0.00048656362
0.00048655249
0.00048654086
0.00048652849
0.00048651552
0.00048650175
0.00048648731
0.00048647198
0.0004864559
0.00048643884
0.00048642094
0.00048640196
0.00048638204
0.00048636093
0.00048633877
0.00048631531
0.00048629068
0.00048626466
0.00048623738
0.00048620861
0.0004861785
0.00048614686
0.0004861138
0.00048607934
0.00048604338
0.00048600614
0.00048596753
0.00048592783
0.00048588699
0.00048584536
0.00048580295
0.00048576015
0.00048571705
0.00048567403
0.00048563131
0.0004855892
0.00048554799
0.00048550798
0.00048546946
0.00048543271
0.00048539799
0.00048536554
0.00048533557
0.00048530827
0.00048528384
0.00048526239
0.00048524405
0.00048522893
0.00048521711
0.00048520864
0.00048520359
0.00048520199
0.00048520384
0.00048520917
0.00048521795
0.00048523017
0.00048524577
0.00048526471
0.00048528688
0.00048531219
0.0004853405
0.00048537165
0.00048540546
0.00048544174
0.00048548025
0.00048552073
0.0004855629
0.00048560649
0.00048563724
0.00048564669
0.00048565203
0.00048566154
0.00048567524
0.00048569308
0.00048571498
0.00048574082
0.00048577046
0.00048580371
0.00048584035
0.00048588015
0.00048592284
0.00048596816
0.00048601583
0.00048606557
0.0004861171
0.00048617014
0.00048622446
0.00048627982
0.00048631977
0.00048635322
0.00048636575
0.00048637702
0.00048638725
0.00048639671
0.00048640569
0.0004864145
0.00048642348
0.00048643302
0.00048644355
0.00048645556
0.00048646958
0.00048648624
0.00048650615
0.0004865301
0.0004865587
0.00048659285
0.00048663298
0.00048667993
0.00048673357
0.00048679442
0.00048686123
0.00048693372
0.00048700925
0.00048708576
0.00048675513
0.0004870383
0.00048662666
0.00048661905
0.00048661145
0.00048660309
0.00048659454
0.00048658529
0.0004865757
0.00048656543
0.00048655472
0.0004865433
0.00048653136
0.00048651867
0.00048650539
0.00048649129
0.00048647653
0.00048646087
0.00048644446
0.00048642707
0.00048640884
0.00048638953
0.00048636928
0.00048634786
0.0004863254
0.00048630166
0.00048627677
0.00048625051
0.00048622302
0.00048619407
0.00048616383
0.00048613209
0.000486099
0.00048606456
0.00048602868
0.00048599159
0.0004859532
0.0004859138
0.00048587334
0.00048583217
0.0004857903
0.00048574812
0.0004857057
0.00048566343
0.00048562152
0.00048558026
0.00048553993
0.00048550082
0.00048546322
0.00048542738
0.00048539355
0.00048536196
0.00048533283
0.00048530634
0.00048528267
0.00048526196
0.00048524435
0.00048522994
0.00048521884
0.00048521113
0.00048520689
0.00048520616
0.00048520899
0.00048521541
0.00048522542
0.00048523903
0.00048525619
0.00048527688
0.00048530099
0.00048532842
0.00048535905
0.00048539271
0.00048542919
0.0004854683
0.00048550977
0.00048555332
0.00048559864
0.00048563615
0.00048564258
0.00048564223
0.00048564623
0.00048565467
0.00048566755
0.00048568482
0.00048570643
0.00048573224
0.00048576209
0.00048579577
0.00048583305
0.00048587366
0.00048591732
0.00048596373
0.00048601257
0.00048606355
0.00048611635
0.00048617067
0.00048622624
0.00048628278
0.00048634008
0.00048639566
0.00048643118
0.00048645215
0.00048646205
0.00048647117
0.00048647982
0.00048648831
0.000486497
0.00048650627
0.00048651653
0.00048652827
0.00048654197
0.00048655819
0.00048657749
0.00048660054
0.00048662786
0.00048666015
0.00048669776
0.00048674127
0.00048679049
0.00048684568
0.00048690574
0.00048697015
0.00048703681
0.00048710374
0.00048676355
0.00048703253
0.00048662057
0.00048661285
0.00048660498
0.00048659644
0.00048658763
0.00048657816
0.00048656832
0.0004865578
0.00048654682
0.00048653514
0.00048652293
0.00048650997
0.0004864964
0.00048648201
0.00048646696
0.00048645101
0.00048643431
0.00048641663
0.00048639811
0.00048637852
0.000486358
0.00048633632
0.00048631361
0.00048628963
0.00048626453
0.00048623808
0.00048621042
0.00048618134
0.00048615101
0.00048611921
0.00048608611
0.00048605171
0.00048601592
0.00048597899
0.0004859408
0.00048590167
0.00048586153
0.00048582074
0.0004857793
0.00048573761
0.00048569572
0.00048565401
0.00048561268
0.00048557202
0.0004855323
0.00048549378
0.00048545676
0.00048542147
0.00048538816
0.00048535705
0.00048532836
0.00048530227
0.00048527897
0.00048525862
0.00048524135
0.0004852273
0.00048521659
0.00048520932
0.00048520559
0.00048520548
0.00048520906
0.00048521637
0.00048522745
0.00048524232
0.00048526094
0.00048528329
0.0004853093
0.00048533885
0.00048537181
0.000485408
0.00048544722
0.00048548924
0.00048553376
0.0004855805
0.0004856291
0.00048563967
0.00048563315
0.00048563116
0.0004856338
0.00048564114
0.00048565321
0.00048566997
0.00048569134
0.00048571718
0.00048574732
0.00048578154
0.00048581958
0.00048586115
0.00048590592
0.00048595358
0.00048600377
0.00048605614
0.00048611036
0.00048616611
0.00048622306
0.00048628093
0.00048633946
0.0004863984
0.00048645754
0.00048650275
0.00048653277
0.00048654141
0.00048654957
0.00048655758
0.00048656579
0.00048657457
0.00048658435
0.00048659554
0.00048660864
0.00048662413