/*--------------------------------*- C++ -*----------------------------------*\
| =========                 |                                                 |
| \\      /  F ield         | foam-extend: Open Source CFD                    |
|  \\    /   O peration     | Version:     4.1                                |
|   \\  /    A nd           | Web:         http://www.foam-extend.org         |
|    \\/     M anipulation  |                                                 |
\*---------------------------------------------------------------------------*/
FoamFile
{
    version     2.0;
    format      ascii;
    class       volVectorField;
    location    "1.7";
    object      U;
}
// * * * * * * * * * * * * * * * * * * * * * * * * * * * * * * * * * * * * * //

dimensions      [0 1 -1 0 0 0 0];

internalField   nonuniform List<vector> 
16126
(
(0.11739995 -6.0543173e-06 0)
(0.117403 1.3737186e-05 0)
(0.11731121 2.9639754e-06 0)
(0.11731957 1.1318709e-05 0)
(0.11719541 9.8334904e-06 0)
(0.11716887 1.2737728e-05 0)
(0.11703245 1.4521798e-05 0)
(0.11696281 1.5801027e-05 0)
(0.11681529 1.8388713e-05 0)
(0.11670523 1.952756e-05 0)
(0.11654237 2.213733e-05 0)
(0.11639619 2.3503597e-05 0)
(0.11621373 2.594476e-05 0)
(0.11603501 2.7527276e-05 0)
(0.11583015 2.9773483e-05 0)
(0.11562167 3.1464631e-05 0)
(0.11539329 3.3518637e-05 0)
(0.11515763 3.5219183e-05 0)
(0.11490626 3.7105732e-05 0)
(0.1146465 3.8787279e-05 0)
(0.11437446 4.0585982e-05 0)
(0.11409483 4.2289763e-05 0)
(0.11380654 4.4020764e-05 0)
(0.11351318 4.5543764e-05 0)
(0.11321549 4.6765422e-05 0)
(0.11291685 4.7363962e-05 0)
(0.11261933 4.7074091e-05 0)
(0.11232651 4.6135674e-05 0)
(0.11204141 4.4973761e-05 0)
(0.11176777 4.4496834e-05 0)
(0.11151104 4.4830639e-05 0)
(0.11127533 4.3549921e-05 0)
(0.11106593 3.7899215e-05 0)
(0.11088632 2.9595403e-05 0)
(0.110741 2.8945064e-05 0)
(0.1106408 3.8237516e-05 0)
(0.11059143 3.9351444e-05 0)
(0.11060322 2.6986239e-05 0)
(0.11068577 1.5563554e-05 0)
(0.11083191 8.2228931e-06 0)
(0.11104503 1.4659159e-06 0)
(0.11132747 -5.2273411e-06 0)
(0.11168336 -1.2298137e-05 0)
(0.11211587 -1.9683194e-05 0)
(0.11262816 -2.7369344e-05 0)
(0.1132226 -3.5285345e-05 0)
(0.11390112 -4.3383169e-05 0)
(0.11466484 -5.160166e-05 0)
(0.11551424 -5.9886946e-05 0)
(0.11644891 -6.8182887e-05 0)
(0.11746767 -7.643784e-05 0)
(0.11856841 -8.460234e-05 0)
(0.11974814 -9.2632613e-05 0)
(0.12100297 -0.0001004889 0)
(0.12232812 -0.00010813678 0)
(0.12371798 -0.00011554712 0)
(0.12516613 -0.0001226946 0)
(0.12666545 -0.00012955696 0)
(0.12820819 -0.00013611427 0)
(0.12978615 -0.0001423463 0)
(0.13139074 -0.00014823153 0)
(0.13301318 -0.00015374659 0)
(0.1346447 -0.00015886388 0)
(0.13627662 -0.00016355164 0)
(0.13790065 -0.0001677727 0)
(0.13950893 -0.00017148496 0)
(0.1410943 -0.00017463964 0)
(0.14265036 -0.00017718119 0)
(0.14417158 -0.00017904694 0)
(0.14565339 -0.00018016539 0)
(0.14709218 -0.00018045557 0)
(0.14848526 -0.00017982808 0)
(0.1498308 -0.00017818536 0)
(0.15112772 -0.0001754268 0)
(0.15237554 -0.00017145505 0)
(0.15357429 -0.0001661862 0)
(0.15472434 -0.00015956006 0)
(0.15582642 -0.00015155519 0)
(0.15688153 -0.0001421968 0)
(0.15789111 -0.00013156801 0)
(0.15885711 -0.00011980977 0)
(0.15978223 -0.00010711977 0)
(0.16067016 -9.3738571e-05 0)
(0.16152576 -7.9941816e-05 0)
(0.16235525 -6.6008605e-05 0)
(0.16316636 -5.2212422e-05 0)
(0.16396834 -3.878827e-05 0)
(0.16477196 -2.5933154e-05 0)
(0.16558951 -1.3778798e-05 0)
(0.16643457 -2.4050886e-06 0)
(0.16732211 8.1907446e-06 0)
(0.16826823 1.8065565e-05 0)
(0.16929035 2.7370087e-05 0)
(0.17040684 3.6303109e-05 0)
(0.17163771 4.5178497e-05 0)
(0.17300384 5.4344089e-05 0)
(0.17452849 6.4310759e-05 0)
(0.17623587 7.557051e-05 0)
(0.17815425 8.8821505e-05 0)
(0.18031295 0.00010452256 0)
(0.18274902 0.00012329716 0)
(0.18550086 0.00014487615 0)
(0.18862239 0.00016883833 0)
(0.19216952 0.0001921856 0)
(0.19623034 0.00021086346 0)
(0.20089556 0.00021443331 0)
(0.20632275 0.0001896737 0)
(0.21266966 0.00010946176 0)
(0.22022976 -5.7816551e-05 0)
(0.22927787 -0.00037053355 0)
(0.24035431 -0.00088878824 0)
(0.25390177 -0.0017185001 0)
(0.27086514 -0.0029479713 0)
(0.2918359 -0.00473852 0)
(0.3183523 -0.0071750614 0)
(0.35089549 -0.010466979 0)
(0.39183988 -0.014611308 0)
(0.44072661 -0.019872848 0)
(0.5013816 -0.025970907 0)
(0.57016938 -0.033382736 0)
(0.65490588 -0.040701764 0)
(0.74101686 -0.049853795 0)
(0.85366738 -0.051318037 0)
(0.92415188 -0.062803739 0)
(0.34234685 -9.2224031e-06 0)
(0.34233006 5.8124455e-05 0)
(0.34221244 4.1204532e-05 0)
(0.34216332 7.5960183e-05 0)
(0.34199179 8.261842e-05 0)
(0.34188307 0.00010280584 0)
(0.34167426 0.00011796217 0)
(0.34150264 0.00013341171 0)
(0.34125723 0.00015068474 0)
(0.34102616 0.00016527962 0)
(0.34074115 0.00018268653 0)
(0.34045489 0.00019752922 0)
(0.34012777 0.00021454052 0)
(0.33979023 0.00022965565 0)
(0.33942033 0.00024604536 0)
(0.33903555 0.00026102715 0)
(0.33862449 0.00027646496 0)
(0.33819755 0.00029064928 0)
(0.33774964 0.00030452787 0)
(0.33728766 0.00031695422 0)
(0.33681045 0.00032826016 0)
(0.33632352 0.00033757642 0)
(0.33582842 0.00034492938 0)
(0.33533055 0.00034976183 0)
(0.33483363 0.00035201918 0)
(0.33434383 0.00035135211 0)
(0.33386718 0.00034775429 0)
(0.3334115 0.00034046337 0)
(0.33298463 0.00032885785 0)
(0.33259517 0.00031040484 0)
(0.3322521 0.00028461166 0)
(0.33196468 0.00025422766 0)
(0.33174781 0.00022249357 0)
(0.3316209 0.00018838675 0)
(0.33159952 0.00013580176 0)
(0.33170013 6.1785293e-05 0)
(0.33193655 -1.4290143e-05 0)
(0.33228959 -8.9955524e-05 0)
(0.33276818 -0.00016830331 0)
(0.33338667 -0.00024830761 0)
(0.33415497 -0.00033268001 0)
(0.33508157 -0.00042148627 0)
(0.33617431 -0.00051476257 0)
(0.33743989 -0.0006119831 0)
(0.33888415 -0.0007125933 0)
(0.34051147 -0.00081585706 0)
(0.34232488 -0.00092098123 0)
(0.34432562 -0.0010270592 0)
(0.34651317 -0.0011331192 0)
(0.34888498 -0.0012381118 0)
(0.35143639 -0.0013409379 0)
(0.35416053 -0.0014404562 0)
(0.35704829 -0.00153551 0)
(0.36008828 -0.0016249446 0)
(0.36326697 -0.001707636 0)
(0.36656872 -0.0017825179 0)
(0.36997604 -0.0018486104 0)
(0.37346978 -0.00190505 0)
(0.37702953 -0.0019511206 0)
(0.38063393 -0.0019862789 0)
(0.38426115 -0.0020101807 0)
(0.38788931 -0.0020227019 0)
(0.39149706 -0.0020239508 0)
(0.39506401 -0.0020142752 0)
(0.39857126 -0.0019942589 0)
(0.40200186 -0.0019647095 0)
(0.40534121 -0.0019266318 0)
(0.40857741 -0.001881193 0)
(0.41170145 -0.0018296769 0)
(0.41470738 -0.0017734277 0)
(0.41759232 -0.0017137894 0)
(0.42035629 -0.001652047 0)
(0.42300206 -0.0015893681 0)
(0.42553477 -0.0015267648 0)
(0.42796156 -0.0014650697 0)
(0.43029118 -0.0014049446 0)
(0.43253363 -0.0013469102 0)
(0.43469983 -0.0012914143 0)
(0.4368015 -0.0012389045 0)
(0.43885107 -0.0011899271 0)
(0.44086181 -0.0011451964 0)
(0.44284806 -0.0011056639 0)
(0.44482552 -0.0010725257 0)
(0.44681158 -0.0010472233 0)
(0.44882565 -0.0010313776 0)
(0.45088942 -0.0010267493 0)
(0.453027 -0.0010351411 0)
(0.45526511 -0.0010583731 0)
(0.45763307 -0.001098203 0)
(0.46016278 -0.0011563627 0)
(0.46288883 -0.0012345164 0)
(0.46584835 -0.0013343608 0)
(0.46908127 -0.0014576054 0)
(0.47263023 -0.0016061412 0)
(0.47654115 -0.0017820113 0)
(0.48086308 -0.0019876908 0)
(0.48564948 -0.0022260136 0)
(0.4909577 -0.0025006801 0)
(0.49685143 -0.0028160544 0)
(0.50339938 -0.0031781513 0)
(0.51067979 -0.0035941506 0)
(0.51877691 -0.0040743799 0)
(0.52778967 -0.0046311564 0)
(0.53782284 -0.0052827804 0)
(0.54900386 -0.0060506893 0)
(0.56146182 -0.0069674149 0)
(0.57536091 -0.0080694218 0)
(0.5908522 -0.0094126749 0)
(0.60814198 -0.01105465 0)
(0.62738362 -0.013084579 0)
(0.64882235 -0.01557943 0)
(0.67255545 -0.018664124 0)
(0.69885061 -0.022408549 0)
(0.72761276 -0.026955482 0)
(0.75911048 -0.032289638 0)
(0.79276382 -0.038533491 0)
(0.82887273 -0.045428472 0)
(0.86573049 -0.053079593 0)
(0.903974 -0.060662908 0)
(0.93922328 -0.068569709 0)
(0.97382656 -0.074241699 0)
(0.99686552 -0.080426225 0)
(1.0165909 -0.074779457 0)
(1.01203 -0.080172261 0)
(0.54139878 -8.0454621e-06 0)
(0.54138732 0.00011597332 0)
(0.54126798 0.00010224251 0)
(0.54120671 0.00016805673 0)
(0.54103594 0.00018793464 0)
(0.54090911 0.0002304499 0)
(0.54069841 0.00026222958 0)
(0.5405087 0.00029702789 0)
(0.54025822 0.00033203536 0)
(0.54001143 0.00036488488 0)
(0.53972004 0.00040010966 0)
(0.53942186 0.00043250048 0)
(0.5390899 0.00046675329 0)
(0.53874609 0.00049844523 0)
(0.53837627 0.00053083419 0)
(0.53799354 0.00056078591 0)
(0.53759142 0.00059016184 0)
(0.53717849 0.00061681725 0)
(0.53675299 0.00064159772 0)
(0.53632158 0.00066297439 0)
(0.53588574 0.00068112225 0)
(0.53545184 0.00069482712 0)
(0.53502402 0.00070372364 0)
(0.53460933 0.00070653931 0)
(0.53421406 0.00070236644 0)
(0.53384652 0.00068955308 0)
(0.53351483 0.0006664831 0)
(0.53322872 0.00063231823 0)
(0.53299812 0.00058688394 0)
(0.53283573 0.00053062082 0)
(0.53275893 0.00046340939 0)
(0.53278478 0.00037858404 0)
(0.53292766 0.00026572956 0)
(0.53320322 0.00012608141 0)
(0.53362336 -2.6013069e-05 0)
(0.53416505 -0.00018663766 0)
(0.5348393 -0.00035303187 0)
(0.53567102 -0.00052678915 0)
(0.53667177 -0.0007146194 0)
(0.53785686 -0.00091462316 0)
(0.53923733 -0.0011262076 0)
(0.54082286 -0.0013486344 0)
(0.54262196 -0.001581082 0)
(0.54464159 -0.0018221908 0)
(0.54688728 -0.0020703876 0)
(0.54936258 -0.0023237439 0)
(0.55206899 -0.0025801181 0)
(0.55500564 -0.0028371021 0)
(0.55816912 -0.0030920937 0)
(0.56155327 -0.0033423002 0)
(0.56514909 -0.0035847976 0)
(0.56894468 -0.0038165708 0)
(0.57292521 -0.0040345838 0)
(0.57707303 -0.0042358446 0)
(0.58136787 -0.0044174879 0)
(0.58578705 -0.00457686 0)
(0.59030586 -0.0047116056 0)
(0.59489801 -0.0048197557 0)
(0.59953611 -0.004899811 0)
(0.60419228 -0.0049508137 0)
(0.60883873 -0.0049724076 0)
(0.61344845 -0.0049648825 0)
(0.61799581 -0.0049291921 0)
(0.62245721 -0.004866952 0)
(0.62681162 -0.0047804078 0)
(0.63104113 -0.0046723781 0)
(0.63513128 -0.0045461645 0)
(0.6390714 -0.0044054398 0)
(0.64285476 -0.0042541103 0)
(0.64647857 -0.0040961629 0)
(0.64994389 -0.0039355017 0)
(0.6532554 -0.0037757961 0)
(0.65642101 -0.0036203398 0)
(0.65945146 -0.0034719582 0)
(0.66235988 -0.003332957 0)
(0.66516128 -0.0032051461 0)
(0.66787215 -0.0030899144 0)
(0.67051017 -0.0029883837 0)
(0.67309395 -0.0029015759 0)
(0.67564298 -0.0028306229 0)
(0.6781776 -0.0027769236 0)
(0.68071915 -0.0027422905 0)
(0.68329016 -0.0027289889 0)
(0.68591451 -0.0027397643 0)
(0.68861766 -0.0027777313 0)
(0.69142679 -0.0028463134 0)
(0.6943709 -0.002949072 0)
(0.69748087 -0.0030896545 0)
(0.70078943 -0.0032716537 0)
(0.70433103 -0.0034986376 0)
(0.70814183 -0.0037740708 0)
(0.71225944 -0.0041014492 0)
(0.71672289 -0.0044842781 0)
(0.72157234 -0.004926306 0)
(0.72684913 -0.0054315193 0)
(0.73259538 -0.0060044883 0)
(0.73885431 -0.0066502946 0)
(0.74566951 -0.0073750955 0)
(0.75308585 -0.0081858968 0)
(0.76114786 -0.0090915677 0)
(0.76990172 -0.01010223 0)
(0.77939188 -0.011231185 0)
(0.78966511 -0.012493429 0)
(0.80076323 -0.013909418 0)
(0.81273147 -0.015501535 0)
(0.82560277 -0.017301513 0)
(0.83941541 -0.019342051 0)
(0.85417914 -0.021671478 0)
(0.86991337 -0.024333898 0)
(0.88657429 -0.027398323 0)
(0.9041404 -0.030912195 0)
(0.92245507 -0.034960787 0)
(0.94142483 -0.039560548 0)
(0.96067356 -0.044787672 0)
(0.98001688 -0.050537073 0)
(0.99867336 -0.056825892 0)
(1.0164365 -0.063235115 0)
(1.0317707 -0.069700903 0)
(1.044814 -0.075066428 0)
(1.0525138 -0.079441374 0)
(1.0565225 -0.079601276 0)
(1.0507233 -0.077537212 0)
(1.0403394 -0.062593281 0)
(1.0190169 -0.047409138 0)
(0.70455522 -1.7104421e-05 0)
(0.70459277 0.00016014056 0)
(0.70450134 0.0001490187 0)
(0.7044842 0.00024159977 0)
(0.70436148 0.00027290291 0)
(0.70428551 0.00033507899 0)
(0.70413734 0.00038036429 0)
(0.70401114 0.00043157177 0)
(0.70383681 0.00048003585 0)
(0.70366925 0.00052723041 0)
(0.70346946 0.00057505845 0)
(0.7032689 0.00061994345 0)
(0.70304703 0.00066529597 0)
(0.70282223 0.00070732452 0)
(0.70258467 0.00074856682 0)
(0.70234585 0.00078603205 0)
(0.70210228 0.00082107158 0)
(0.70186219 0.00085140124 0)
(0.70162607 0.00087736448 0)
(0.70140095 0.00089703606 0)
(0.70119009 0.00090992858 0)
(0.70100047 0.00091409812 0)
(0.70083744 0.00090855331 0)
(0.7007087 0.00089169078 0)
(0.7006215 0.000862344 0)
(0.70058478 0.00081916314 0)
(0.70060877 0.00076125917 0)
(0.70070572 0.00068671474 0)
(0.70088821 0.00059302063 0)
(0.70116884 0.00047216867 0)
(0.70155733 0.00031992619 0)
(0.70206838 0.00014183013 0)
(0.70270136 -5.6393719e-05 0)
(0.70344401 -0.00027321803 0)
(0.70430397 -0.00050301286 0)
(0.70530908 -0.00074845554 0)
(0.70647288 -0.0010186315 0)
(0.70781556 -0.0013121724 0)
(0.70934781 -0.0016264996 0)
(0.71108015 -0.0019600935 0)
(0.71302278 -0.002311881 0)
(0.7151843 -0.0026802709 0)
(0.71757187 -0.003063448 0)
(0.72019078 -0.0034589291 0)
(0.72304446 -0.0038638519 0)
(0.72613399 -0.0042748274 0)
(0.72945804 -0.0046880864 0)
(0.73301253 -0.0050994447 0)
(0.73679055 -0.0055044036 0)
(0.74078214 -0.0058981878 0)
(0.74497435 -0.0062758499 0)
(0.74935119 -0.0066323618 0)
(0.75389382 -0.0069627427 0)
(0.75858071 -0.0072621863 0)
(0.76338799 -0.0075262081 0)
(0.76828982 -0.0077507915 0)
(0.77325886 -0.0079325332 0)
(0.77826684 -0.0080687809 0)
(0.78328509 -0.0081577551 0)
(0.78828522 -0.0081986472 0)
(0.79323969 -0.00819169 0)
(0.79812244 -0.0081381952 0)
(0.80290946 -0.0080405496 0)
(0.80757926 -0.0079021744 0)
(0.81211337 -0.0077274388 0)
(0.81649661 -0.0075215365 0)
(0.82071736 -0.0072903189 0)
(0.82476771 -0.0070400991 0)
(0.82864343 -0.0067774274 0)
(0.83234389 -0.0065088562 0)
(0.8358719 -0.0062406993 0)
(0.83923342 -0.0059788202 0)
(0.84243724 -0.0057284462 0)
(0.84549463 -0.0054940565 0)
(0.84841898 -0.0052793297 0)
(0.85122548 -0.0050871949 0)
(0.85393077 -0.0049199418 0)
(0.85655277 -0.0047794315 0)
(0.85911041 -0.0046673139 0)
(0.86162356 -0.0045852992 0)
(0.86411289 -0.0045353482 0)
(0.8665999 -0.0045198694 0)
(0.86910679 -0.0045417574 0)
(0.87165658 -0.0046044296 0)
(0.87427299 -0.0047117013 0)
(0.87698049 -0.0048677192 0)
(0.87980419 -0.0050767483 0)
(0.88276978 -0.0053431032 0)
(0.88590339 -0.0056709471 0)
(0.88923137 -0.006064312 0)
(0.89278015 -0.0065269698 0)
(0.89657584 -0.0070625532 0)
(0.90064408 -0.0076744885 0)
(0.90500955 -0.0083662169 0)
(0.90969585 -0.0091411503 0)
(0.9147249 -0.010003 0)
(0.92011693 -0.01095571 0)
(0.92588958 -0.012003987 0)
(0.93205824 -0.013153077 0)
(0.93863455 -0.014409679 0)
(0.94562732 -0.0157814 0)
(0.95303978 -0.017278473 0)
(0.96087182 -0.018912411 0)
(0.96911441 -0.02069931 0)
(0.97775468 -0.022656617 0)
(0.98676426 -0.024809459 0)
(0.9961106 -0.027182836 0)
(1.0057323 -0.029813792 0)
(1.0155647 -0.032732749 0)
(1.0254872 -0.035987354 0)
(1.0353833 -0.039599097 0)
(1.0450269 -0.043612742 0)
(1.0542276 -0.047998676 0)
(1.062581 -0.052765133 0)
(1.0698275 -0.057741082 0)
(1.0752811 -0.062856016 0)
(1.0787288 -0.067635533 0)
(1.079054 -0.071959199 0)
(1.0764976 -0.074730846 0)
(1.0692795 -0.076142968 0)
(1.0590434 -0.073504309 0)
(1.0434622 -0.068852896 0)
(1.0261523 -0.054151727 0)
(1.009968 -0.037793247 0)
(0.82878676 -5.3213546e-05 0)
(0.82892637 0.00016979358 0)
(0.82889796 0.00015978682 0)
(0.82898071 0.00027292142 0)
(0.82895468 0.00031101566 0)
(0.82899046 0.00038649319 0)
(0.82896299 0.00043937838 0)
(0.8289675 0.0005007887 0)
(0.82893678 0.00055636164 0)
(0.82892292 0.00061128162 0)
(0.82889097 0.00066461769 0)
(0.82886987 0.00071448465 0)
(0.82884241 0.00076276863 0)
(0.82882539 0.00080638093 0)
(0.82881143 0.00084693958 0)
(0.82881125 0.00088163827 0)
(0.82882305 0.00091118525 0)
(0.82885474 0.00093321081 0)
(0.8289079 0.00094757728 0)
(0.82898943 0.00095221567 0)
(0.82910316 0.00094638234 0)
(0.82925618 0.00092822098 0)
(0.82945456 0.00089644901 0)
(0.82970613 0.00084886996 0)
(0.83001833 0.0007835166 0)
(0.83039991 0.00069694714 0)
(0.83085876 0.00058478056 0)
(0.83140383 0.00044469318 0)
(0.83204315 0.00027583616 0)
(0.83278663 8.1551427e-05 0)
(0.8336237 -0.00013806643 0)
(0.83455532 -0.00038370765 0)
(0.83559311 -0.00065068453 0)
(0.83675734 -0.00094377205 0)
(0.83806197 -0.0012714121 0)
(0.83952591 -0.0016332097 0)
(0.84115929 -0.0020240361 0)
(0.84297104 -0.0024432004 0)
(0.8449709 -0.0028904377 0)
(0.84716824 -0.0033637105 0)
(0.84957106 -0.0038610254 0)
(0.85218584 -0.0043797015 0)
(0.85501727 -0.0049166689 0)
(0.85806796 -0.0054680958 0)
(0.86133837 -0.0060295885 0)
(0.86482644 -0.0065960775 0)
(0.8685275 -0.0071619621 0)
(0.87243407 -0.0077211177 0)
(0.87653579 -0.0082670317 0)
(0.88081942 -0.0087928944 0)
(0.88526891 -0.0092917583 0)
(0.88986554 -0.0097566907 0)
(0.89458822 -0.010180963 0)
(0.89941376 -0.01055824 0)
(0.90431729 -0.010882781 0)
(0.90927273 -0.011149633 0)
(0.9142533 -0.011354818 0)
(0.91923201 -0.011495492 0)
(0.92418223 -0.01157008 0)
(0.92907819 -0.011578372 0)
(0.93389547 -0.011521575 0)
(0.93861145 -0.011402323 0)
(0.94320567 -0.011224629 0)
(0.94766015 -0.010993797 0)
(0.95195962 -0.01071627 0)
(0.95609166 -0.010399451 0)
(0.96004681 -0.010051465 0)
(0.96381852 -0.0096809042 0)
(0.9674031 -0.00929654 0)
(0.97079964 -0.0089070408 0)
(0.97400977 -0.0085206883 0)
(0.97703755 -0.0081451393 0)
(0.97988924 -0.0077872227 0)
(0.9825731 -0.0074528283 0)
(0.98509919 -0.0071468581 0)
(0.98747924 -0.0068732993 0)
(0.98972646 -0.0066353487 0)
(0.99185539 -0.0064356518 0)
(0.99388177 -0.0062765321 0)
(0.99582239 -0.006160287 0)
(0.99769494 -0.0060893836 0)
(0.99951786 -0.0060666662 0)
(1.0013102 -0.0060953961 0)
(1.0030913 -0.0061793261 0)
(1.004881 -0.0063225311 0)
(1.0066989 -0.0065293602 0)
(1.0085648 -0.0068041781 0)
(1.010498 -0.0071513043 0)
(1.0125172 -0.0075747666 0)
(1.0146407 -0.0080783166 0)
(1.0168855 -0.0086652449 0)
(1.0192673 -0.0093385166 0)
(1.0218006 -0.010100668 0)
(1.0244977 -0.010954055 0)
(1.027369 -0.011900816 0)
(1.0304223 -0.012943203 0)
(1.0336625 -0.014083487 0)
(1.0370914 -0.015324451 0)
(1.0407077 -0.016669186 0)
(1.0445057 -0.018121899 0)
(1.0484759 -0.019687372 0)
(1.0526032 -0.021372382 0)
(1.0568683 -0.023184406 0)
(1.0612432 -0.025134238 0)
(1.0656951 -0.027232924 0)
(1.0701773 -0.029496726 0)
(1.0746373 -0.031939897 0)
(1.078998 -0.034584343 0)
(1.0831772 -0.037442855 0)
(1.0870477 -0.0405386 0)
(1.0904851 -0.043867062 0)
(1.0932826 -0.04743805 0)
(1.0952694 -0.051190791 0)
(1.096124 -0.055092711 0)
(1.0956669 -0.058948967 0)
(1.0934283 -0.062654802 0)
(1.0893668 -0.065743602 0)
(1.0828247 -0.068078383 0)
(1.0742499 -0.068652829 0)
(1.0627224 -0.067619512 0)
(1.049724 -0.062738747 0)
(1.034331 -0.055599554 0)
(1.0187156 -0.041064707 0)
(1.0063656 -0.024409891 0)
(0.9168992 -0.0001382418 0)
(0.91718437 0.00010968073 0)
(0.91724232 9.4762432e-05 0)
(0.91746033 0.00021743808 0)
(0.91756196 0.00025651223 0)
(0.91774743 0.0003373482 0)
(0.91787671 0.00039061726 0)
(0.91805173 0.00045359598 0)
(0.91820285 0.00050739397 0)
(0.91838282 0.00056055539 0)
(0.9185577 0.00060953057 0)
(0.91875569 0.00065417797 0)
(0.91896102 0.00069486926 0)
(0.91918974 0.00072936614 0)
(0.91943559 0.00075838558 0)
(0.91970874 0.00077948295 0)
(0.92000809 0.00079279215 0)
(0.92034116 0.00079602612 0)
(0.92070986 0.00078859427 0)
(0.92112072 0.00076822734 0)
(0.92157759 0.00073352221 0)
(0.92208666 0.0006815219 0)
(0.92265278 0.0006101829 0)
(0.92328252 0.0005173513 0)
(0.92398171 0.00040089549 0)
(0.92475688 0.00025927559 0)
(0.92561137 9.2116507e-05 0)
(0.92654363 -0.00010252049 0)
(0.92755724 -0.00032691245 0)
(0.92865315 -0.00057826757 0)
(0.92985144 -0.00085723659 0)
(0.93115986 -0.0011712261 0)
(0.93259261 -0.0015251281 0)
(0.93416301 -0.0019184978 0)
(0.93587969 -0.0023477279 0)
(0.93774898 -0.0028131261 0)
(0.93977972 -0.0033156321 0)
(0.94198137 -0.0038537985 0)
(0.9443613 -0.0044254858 0)
(0.94692602 -0.0050280448 0)
(0.94968073 -0.0056584523 0)
(0.95262894 -0.0063129257 0)
(0.95577227 -0.0069870597 0)
(0.95911008 -0.0076755662 0)
(0.96263943 -0.0083724425 0)
(0.96635483 -0.0090709021 0)
(0.97024817 -0.0097635392 0)
(0.97430865 -0.010442387 0)
(0.97852287 -0.011099098 0)
(0.98287489 -0.011725097 0)
(0.98734646 -0.012311788 0)
(0.99191728 -0.01285077 0)
(0.99656535 -0.013334071 0)
(1.0012673 -0.013754378 0)
(1.0059991 -0.014105276 0)
(1.0107359 -0.014381458 0)
(1.0154532 -0.014578917 0)
(1.0201268 -0.014695105 0)
(1.0247336 -0.014729045 0)
(1.0292514 -0.014681407 0)
(1.0336597 -0.014554518 0)
(1.0379398 -0.01435233 0)
(1.0420749 -0.01408033 0)
(1.0460504 -0.013745399 0)
(1.0498536 -0.013355621 0)
(1.0534742 -0.012920056 0)
(1.0569039 -0.012448467 0)
(1.0601365 -0.01195104 0)
(1.0631677 -0.011438069 0)
(1.0659951 -0.010919666 0)
(1.0686181 -0.010405472 0)
(1.0710381 -0.0099044218 0)
(1.0732579 -0.0094245494 0)
(1.075282 -0.0089728879 0)
(1.0771167 -0.0085554242 0)
(1.0787698 -0.0081771802 0)
(1.0802507 -0.0078423262 0)
(1.0815705 -0.0075544168 0)
(1.0827413 -0.0073165944 0)
(1.0837771 -0.0071318786 0)
(1.0846926 -0.0070033222 0)
(1.0855036 -0.006934239 0)
(1.0862265 -0.0069281972 0)
(1.0868779 -0.0069890719 0)
(1.0874749 -0.0071208817 0)
(1.0880341 -0.0073277616 0)
(1.0885719 -0.0076136908 0)
(1.0891039 -0.0079824592 0)
(1.0896449 -0.0084373799 0)
(1.0902083 -0.0089813506 0)
(1.0908064 -0.0096166381 0)
(1.0914497 -0.010345028 0)
(1.0921469 -0.011167688 0)
(1.0929044 -0.012085418 0)
(1.0937264 -0.013098557 0)
(1.0946146 -0.01420731 0)
(1.0955678 -0.015411701 0)
(1.0965818 -0.016712063 0)
(1.0976492 -0.018108832 0)
(1.0987588 -0.019603261 0)
(1.099896 -0.021196979 0)
(1.1010412 -0.022893186 0)
(1.102171 -0.024695548 0)
(1.1032549 -0.026610318 0)
(1.1042581 -0.028643686 0)
(1.1051347 -0.030805685 0)
(1.1058344 -0.0331039 0)
(1.1062877 -0.035551007 0)
(1.1064226 -0.038150232 0)
(1.1061335 -0.040910858 0)
(1.1053213 -0.043815614 0)
(1.1038276 -0.046855589 0)
(1.1015332 -0.049958315 0)
(1.098211 -0.053073651 0)
(1.0937672 -0.0560124 0)
(1.0878982 -0.058671012 0)
(1.080666 -0.060643473 0)
(1.0716885 -0.06183434 0)
(1.0614432 -0.061425829 0)
(1.0494899 -0.059608968 0)
(1.037016 -0.054646183 0)
(1.0239702 -0.047753239 0)
(1.0116546 -0.035241445 0)
(1.0034075 -0.02019348 0)
(0.97526868 -0.00028203572 0)
(0.97572383 -2.8250285e-05 0)
(0.97587528 -4.6265086e-05 0)
(0.97623982 7.5850485e-05 0)
(0.97647493 0.00010809376 0)
(0.97681749 0.00018456228 0)
(0.97710793 0.000230268 0)
(0.97745817 0.00028709008 0)
(0.97779326 0.00033211198 0)
(0.97816835 0.00037631127 0)
(0.97854864 0.0004139087 0)
(0.97896241 0.00044611469 0)
(0.97939416 0.00047197901 0)
(0.97985944 0.00048993465 0)
(0.98035232 0.000499865 0)
(0.98088234 0.0004995755 0)
(0.9814485 0.00048861658 0)
(0.98205763 0.00046469991 0)
(0.98271139 0.00042681209 0)
(0.98341547 0.00037268919 0)
(0.98417277 0.00030090678 0)
(0.9849884 0.00020972199 0)
(0.98586348 9.7408929e-05 0)
(0.98680168 -3.8698508e-05 0)
(0.9878057 -0.00020054817 0)
(0.9888787 -0.00038954698 0)
(0.99002596 -0.00060597015 0)
(0.99125743 -0.00085227755 0)
(0.99257933 -0.0011318698 0)
(0.9940003 -0.0014505884 0)
(0.99553124 -0.0018110146 0)
(0.9971808 -0.002211639 0)
(0.99895498 -0.0026527312 0)
(1.0008595 -0.0031357614 0)
(1.002902 -0.0036628474 0)
(1.0050907 -0.0042335473 0)
(1.0074321 -0.0048456387 0)
(1.0099317 -0.0054973611 0)
(1.0125944 -0.006186368 0)
(1.015424 -0.00690925 0)
(1.0184226 -0.0076619538 0)
(1.0215909 -0.0084394337 0)
(1.0249269 -0.0092358372 0)
(1.028427 -0.010044323 0)
(1.0320846 -0.010857225 0)
(1.0358911 -0.01166605 0)
(1.0398352 -0.012461663 0)
(1.0439032 -0.013234411 0)
(1.0480795 -0.013974353 0)
(1.052346 -0.014671457 0)
(1.0566833 -0.015315868 0)
(1.0610705 -0.015898156 0)
(1.0654856 -0.01640958 0)
(1.0699063 -0.016842347 0)
(1.0743098 -0.017189846 0)
(1.078674 -0.017446859 0)
(1.082977 -0.017609736 0)
(1.087198 -0.017676524 0)
(1.0913173 -0.017647048 0)
(1.0953169 -0.017522943 0)
(1.0991798 -0.017307627 0)
(1.102891 -0.017006225 0)
(1.106437 -0.016625442 0)
(1.1098059 -0.016173389 0)
(1.1129872 -0.015659366 0)
(1.115972 -0.015093615 0)
(1.118753 -0.01448704 0)
(1.1213238 -0.01385092 0)
(1.1236796 -0.013196604 0)
(1.1258168 -0.012535232 0)
(1.127733 -0.011877455 0)
(1.1294271 -0.011233225 0)
(1.1308996 -0.010611608 0)
(1.1321521 -0.010020699 0)
(1.1331881 -0.00946757 0)
(1.1340126 -0.008958352 0)
(1.1346324 -0.0084983182 0)
(1.1350561 -0.0080921034 0)
(1.1352937 -0.0077438554 0)
(1.1353571 -0.0074575002 0)
(1.1352593 -0.0072368544 0)
(1.1350146 -0.0070857999 0)
(1.134638 -0.0070082576 0)
(1.1341451 -0.0070083336 0)
(1.1335518 -0.0070900542 0)
(1.1328735 -0.0072573957 0)
(1.1321255 -0.0075139678 0)
(1.1313221 -0.0078630409 0)
(1.1304765 -0.0083072376 0)
(1.1296009 -0.008848629 0)
(1.1287057 -0.0094884566 0)
(1.1277999 -0.010227351 0)
(1.1268906 -0.011065143 0)
(1.1259828 -0.012001185 0)
(1.1250793 -0.013034322 0)
(1.1241809 -0.01416324 0)
(1.1232857 -0.015386327 0)
(1.1223892 -0.016702116 0)
(1.1214846 -0.018109137 0)
(1.1205617 -0.019606566 0)
(1.1196081 -0.021193778 0)
(1.1186071 -0.022871315 0)
(1.1175395 -0.024639873 0)
(1.1163804 -0.026501932 0)
(1.1151022 -0.028459371 0)
(1.1136685 -0.030516464 0)
(1.1120399 -0.032674366 0)
(1.110163 -0.034937047 0)
(1.1079833 -0.037298851 0)
(1.1054216 -0.039757197 0)
(1.1024075 -0.042285019 0)
(1.0988271 -0.044860417 0)
(1.0946059 -0.047405744 0)
(1.08959 -0.049862032 0)
(1.0837444 -0.052050506 0)
(1.0768769 -0.053868347 0)
(1.0690927 -0.054953213 0)
(1.0601651 -0.055212182 0)
(1.0505047 -0.053949911 0)
(1.0398824 -0.051308106 0)
(1.0291309 -0.045963253 0)
(1.0184403 -0.038841081 0)
(1.0085153 -0.027751581 0)
(1.0022182 -0.014817091 0)
(1.0114382 -0.00049246351 0)
(1.0120573 -0.00025523201 0)
(1.0123 -0.00027655907 0)
(1.012814 -0.00016386952 0)
(1.0131755 -0.00014149903 0)
(1.0136655 -7.5427462e-05 0)
(1.0140997 -4.2438786e-05 0)
(1.0146054 1.541394e-06 0)
(1.0151006 3.1298706e-05 0)
(1.0156446 5.9634815e-05 0)
(1.0162005 7.9103897e-05 0)
(1.0167975 9.2076516e-05 0)
(1.0174196 9.6548475e-05 0)
(1.0180819 9.1613091e-05 0)
(1.0187782 7.6523637e-05 0)
(1.0195173 4.9440655e-05 0)
(1.0202977 9.556285e-06 0)
(1.0211251 -4.5219098e-05 0)
(1.0220001 -0.00011607423 0)
(1.0229272 -0.00020512924 0)
(1.0239081 -0.00031385443 0)
(1.0249467 -0.00044386987 0)
(1.0260478 -0.00059693366 0)
(1.027216 -0.00077575913 0)
(1.0284557 -0.00098260466 0)
(1.029772 -0.0012207657 0)
(1.031171 -0.0014941509 0)
(1.0326596 -0.0018050294 0)
(1.0342444 -0.0021547228 0)
(1.0359312 -0.0025445726 0)
(1.0377242 -0.0029763954 0)
(1.0396294 -0.0034532995 0)
(1.0416535 -0.0039775141 0)
(1.0438031 -0.0045494687 0)
(1.0460836 -0.0051681797 0)
(1.0484993 -0.005833107 0)
(1.0510546 -0.0065430742 0)
(1.0537533 -0.0072956721 0)
(1.0565979 -0.0080875489 0)
(1.0595893 -0.0089143285 0)
(1.062727 -0.009770724 0)
(1.0660083 -0.010650373 0)
(1.0694286 -0.011545945 0)
(1.072981 -0.01244907 0)
(1.0766562 -0.013350502 0)
(1.0804428 -0.014240186 0)
(1.0843273 -0.015107486 0)
(1.0882939 -0.015941363 0)
(1.0923254 -0.016730645 0)
(1.096403 -0.017464279 0)
(1.1005067 -0.018131622 0)
(1.104616 -0.018722715 0)
(1.1087099 -0.019228561 0)
(1.1127677 -0.01964137 0)
(1.1167689 -0.019954789 0)
(1.120694 -0.020164079 0)
(1.1245241 -0.020266253 0)
(1.1282419 -0.02026017 0)
(1.1318312 -0.020146565 0)
(1.1352773 -0.019928042 0)
(1.1385667 -0.019609002 0)
(1.1416875 -0.019195537 0)
(1.1446288 -0.018695277 0)
(1.1473809 -0.018117195 0)
(1.1499352 -0.017471389 0)
(1.152284 -0.016768835 0)
(1.1544204 -0.016021117 0)
(1.1563383 -0.015240166 0)
(1.1580323 -0.01443797 0)
(1.1594982 -0.013626334 0)
(1.1607324 -0.012816621 0)
(1.1617324 -0.012019572 0)
(1.1624969 -0.011245131 0)
(1.1630263 -0.010502373 0)
(1.1633222 -0.0097994421 0)
(1.163388 -0.009143623 0)
(1.1632292 -0.0085413798 0)
(1.162853 -0.0079985447 0)
(1.1622684 -0.0075204081 0)
(1.1614862 -0.0071119545 0)
(1.1605189 -0.0067778788 0)
(1.1593803 -0.0065228344 0)
(1.158085 -0.0063513131 0)
(1.1566483 -0.0062676652 0)
(1.155086 -0.00627589 0)
(1.1534136 -0.0063797142 0)
(1.1516464 -0.0065822635 0)
(1.1497988 -0.006886156 0)
(1.1478844 -0.0072931315 0)
(1.1459156 -0.0078042803 0)
(1.1439031 -0.0084197481 0)
(1.1418565 -0.0091390123 0)
(1.1397833 -0.009960669 0)
(1.1376892 -0.010882814 0)
(1.135578 -0.011902848 0)
(1.1334514 -0.013017805 0)
(1.1313092 -0.014224386 0)
(1.1291489 -0.015519485 0)
(1.126966 -0.016899939 0)
(1.1247532 -0.018363081 0)
(1.1225014 -0.019906409 0)
(1.120198 -0.021528426 0)
(1.1178285 -0.023227712 0)
(1.1153737 -0.025004266 0)
(1.1128123 -0.026857423 0)
(1.1101159 -0.028788181 0)
(1.1072545 -0.030794461 0)
(1.1041865 -0.032875739 0)
(1.1008707 -0.035022422 0)
(1.0972467 -0.037226158 0)
(1.0932632 -0.039456505 0)
(1.0888356 -0.041685979 0)
(1.0839141 -0.043838729 0)
(1.0783878 -0.045854918 0)
(1.0722452 -0.04757373 0)
(1.0653546 -0.048902812 0)
(1.0578204 -0.049534903 0)
(1.0495075 -0.049395635 0)
(1.0407549 -0.047923077 0)
(1.0314964 -0.045229176 0)
(1.0223574 -0.040304213 0)
(1.0137277 -0.033780739 0)
(1.0060299 -0.024166569 0)
(1.0014109 -0.012710543 0)
(1.0324679 -0.00075834148 0)
(1.033218 -0.00055461787 0)
(1.0335257 -0.00058271456 0)
(1.0341554 -0.00048600619 0)
(1.0346129 -0.00047429724 0)
(1.0352204 -0.00042185913 0)
(1.0357685 -0.00040360433 0)
(1.0363984 -0.00037592112 0)
(1.0370192 -0.00036436162 0)
(1.0376948 -0.00035517082 0)
(1.0383856 -0.00035674519 0)
(1.0391217 -0.00036591597 0)
(1.0398863 -0.00038542281 0)
(1.0406947 -0.00041566179 0)
(1.0415405 -0.00045784661 0)
(1.0424322 -0.00051351869 0)
(1.0433683 -0.00058375968 0)
(1.0443545 -0.00067050208 0)
(1.0453917 -0.00077513303 0)
(1.0464844 -0.00089984895 0)
(1.0476348 -0.0010465537 0)
(1.0488474 -0.0012181761 0)
(1.0501258 -0.0014170389 0)
(1.0514746 -0.0016453881 0)
(1.0528979 -0.0019055968 0)
(1.0544005 -0.002200065 0)
(1.0559865 -0.0025309967 0)
(1.0576601 -0.002901211 0)
(1.059426 -0.0033135679 0)
(1.0612895 -0.0037715422 0)
(1.0632562 -0.0042772751 0)
(1.0653311 -0.0048315854 0)
(1.0675186 -0.0054354186 0)
(1.0698224 -0.0060894266 0)
(1.0722465 -0.0067938485 0)
(1.0747946 -0.0075475582 0)
(1.0774691 -0.008348175 0)
(1.0802713 -0.0091925626 0)
(1.0832013 -0.01007651 0)
(1.086258 -0.010994609 0)
(1.0894381 -0.011940363 0)