/*--------------------------------*- C++ -*----------------------------------*\
| =========                 |                                                 |
| \\      /  F ield         | foam-extend: Open Source CFD                    |
|  \\    /   O peration     | Version:     4.1                                |
|   \\  /    A nd           | Web:         http://www.foam-extend.org         |
|    \\/     M anipulation  |                                                 |
\*---------------------------------------------------------------------------*/
FoamFile
{
    version     2.0;
    format      ascii;
    class       volScalarField;
    location    "1.5";
    object      p;
}
// * * * * * * * * * * * * * * * * * * * * * * * * * * * * * * * * * * * * * //

dimensions      [0 2 -2 0 0 0 0];

internalField   nonuniform List<scalar> 
4393
(
-46.396306
-92.940377
-146.68218
-201.44973
-258.41583
-317.89102
-380.25806
-445.82638
-514.82018
-587.34962
-663.38278
-742.71744
-824.95583
-909.48579
-995.47264
-1081.8644
-1167.4114
-1250.6967
-1330.1742
-1404.2071
-1471.1047
-1529.1572
-1576.6702
-1612.006
-1633.6374
-1640.2209
-1630.7022
-1604.4609
-1561.3899
-1501.9889
-1427.4685
-1339.7337
-1241.2782
-1135.0019
-1023.9846
-911.26046
-799.62842
-691.52066
-588.93394
-493.41619
-406.09462
-327.73021
-258.78339
-199.47999
-149.88132
-109.95644
-79.486025
-57.559378
-43.356727
-45.144177
-92.354732
-145.96989
-200.5863
-257.38337
-316.70384
-378.94408
-444.4256
-513.38444
-585.9428
-662.08037
-741.605
-824.12595
-909.03358
-995.48997
-1082.4342
-1168.6028
-1252.5627
-1332.7507
-1407.5142
-1475.1479
-1533.9272
-1582.1414
-1618.1309
-1640.3394
-1647.3902
-1638.1935
-1612.0541
-1568.8012
-1508.9276
-1433.6496
-1344.9071
-1245.2596
-1137.6924
-1025.3757
-911.42333
-798.69438
-689.65769
-586.32445
-490.2392
-402.51349
-323.88572
-254.79369
-195.45041
-145.90871
-106.0773
-75.685338
-54.590705
-43.994181
-44.340024
-91.458283
-144.7121
-198.96792
-255.41431
-314.42365
-376.41441
-441.73038
-510.6307
-583.26128
-659.62462
-739.5482
-822.65464
-908.33813
-995.75286
-1083.818
-1171.2406
-1256.5532
-1338.1579
-1414.3702
-1483.4561
-1543.6633
-1593.2485
-1630.5093
-1653.8287
-1661.7499
-1653.0947
-1627.0847
-1583.4574
-1522.6339
-1445.8246
-1355.0386
-1252.9721
-1142.7889
-1027.8454
-911.41848
-796.48743
-685.59148
-580.76592
-483.54275
-394.99592
-315.81217
-246.37552
-186.85529
-137.26087
-97.406933
-66.983519
-46.432905
-37.652028
-43.549463
-90.163024
-142.80918
-196.48676
-252.38936
-310.91796
-372.51984
-437.57074
-506.36457
-579.08375
-655.76658
-736.27195
-820.24461
-907.08626
-995.93997
-1085.6946
-1175.0117
-1262.3704
-1346.1197
-1424.5279
-1495.8199
-1558.2047
-1609.8947
-1649.1267
-1674.1956
-1683.5222
-1675.7819
-1650.0453
-1605.9018
-1543.6657
-1464.5343
-1370.623
-1264.8446
-1150.648
-1031.6855
-911.49081
-793.22904
-679.54526
-572.50749
-473.62392
-383.90728
-303.96358
-234.09304
-174.38979
-124.78819
-85.013299
-54.750829
-34.667203
-26.524734
-42.724529
-88.546236
-140.33982
-193.21346
-248.36835
-306.23629
-367.30003
-431.97677
-500.60703
-573.42306
-650.51297
-731.7802
-816.90177
-905.29138
-996.07742
-1088.106
-1179.9735
-1270.0833
-1356.7107
-1438.0601
-1512.3048
-1577.6072
-1632.1274
-1674.0276
-1701.4898
-1712.7729
-1706.3506
-1681.0727
-1636.3031
-1572.1881
-1489.8915
-1391.6737
-1280.7595
-1161.0116
-1036.5087
-911.14831
-788.35198
-670.90333
-560.90463
-459.82017
-368.56933
-287.64145
-217.21776
-157.28319
-107.67045
-68.022378
-38.032272
-18.420252
-10.665503
-41.716199
-86.497848
-137.19258
-189.0314
-243.22432
-300.23831
-360.59885
-424.77491
-493.16658
-566.07123
-643.64329
-725.8471
-812.40548
-902.75134
-995.99542
-1090.9264
-1186.0518
-1279.6718
-1369.9633
-1455.0503
-1533.0456
-1602.0621
-1660.2046
-1705.5518
-1736.1501
-1750.0535
-1745.4676
-1720.9393
-1675.5106
-1609.0728
-1522.7178
-1418.8923
-1301.2531
-1174.2404
-1042.523
-910.48999
-781.8976
-659.69737
-546.01749
-442.24598
-349.16487
-267.1
-196.06878
-135.90534
-86.308317
-46.821079
-17.106105
2.1535919
9.6907495
-40.574624
-84.089162
-133.43237
-183.98973
-236.98463
-292.92507
-352.38704
-415.90203
-483.94383
-556.8921
-634.9871
-718.27426
-806.54026
-899.24812
-995.48914
-1093.977
-1193.0998
-1291.0193
-1385.7846
-1475.4217
-1557.9776
-1631.5205
-1694.1064
-1743.7315
-1778.2907
-1795.5907
-1793.4922
-1770.1376
-1724.1176
-1654.94
-1563.5562
-1452.641
-1326.4386
-1190.1838
-1049.3455
-908.96177
-773.20968
-645.2314
-527.15833
-420.25393
-325.10526
-241.81825
-170.19624
-109.88092
-60.407221
-21.197179
8.1608284
27.07603
34.441627
-39.165472
-81.16869
-128.89955
-177.9239
-229.47702
-284.1132
-342.46649
-405.1422
-472.70318
-545.63091
-624.27461
-708.78606
-799.03997
-894.54594
-994.37594
-1097.1468
-1201.0862
-1304.171
-1404.2844
-1499.3346
-1587.3035
-1666.2281
-1734.1352
-1788.9517
-1828.4156
-1850.0458
-1851.2722
-1829.7091
-1783.324
-1711.052
-1613.5848
-1493.8648
-1356.932
-1209.1118
-1056.9524
-906.33531
-761.95159
-627.14258
-503.9963
-393.57863
-296.20299
-211.68349
-139.54947
-79.204052
-29.987395
8.8223159
37.739999
56.289265
63.492353
-37.633486
-77.895606
-123.74242
-170.95846
-220.79429
-273.85609
-330.84351
-392.44735
-459.3364
-532.11654
-611.27387
-697.09877
-789.58718
-888.32109
-992.35788
-1100.1907
-1209.8323
-1319.0103
-1425.3921
-1526.7468
-1620.998
-1706.1796
-1780.3261
-1841.3267
-1886.7719
-1913.8594
-1919.4922
-1900.6058
-1854.3159
-1778.7059
-1674.0051
-1543.4508
-1393.1677
-1230.9892
-1064.9197
-901.92864
-747.31828
-604.61345
-475.77778
-361.57354
-261.93619
-176.29879
-103.84672
-43.693682
5.0492738
43.272445
71.616734
89.731696
96.752843
-35.729312
-73.971028
-117.64023
-162.76076
-210.59046
-261.79014
-317.13142
-377.40212
-443.3951
-515.86619
-595.47156
-682.6805
-777.65511
-880.08863
-989.03588
-1102.8325
-1219.1995
-1335.5237
-1449.1872
-1557.7943
-1659.2282
-1751.5666
-1832.9133
-1901.1783
-1953.8368
-1987.7454
-1999.1807
-1984.2188
-1938.827
-1859.8271
-1746.644
-1602.8043
-1435.9284
-1255.9616
-1072.8833
-895.05746
-728.48823
-576.82564
-441.77567
-323.64536
-221.85502
-135.34742
-62.884593
-3.2374181
44.745552
82.144228
109.74053
127.3176
134.11965
-33.779998
-69.774599
-110.97946
-153.70175
-199.20912
-248.21986
-301.58259
-360.19282
-424.98626
-496.89736
-576.79144
-665.36708
-763.01348
-869.5949
-984.19083
-1104.9401
-1229.1644
-1353.7791
-1475.785
-1592.594
-1702.084
-1802.4508
-1891.9605
-1968.6378
-2029.9066
-2072.2829
-2091.3258
-2082.0348
-2038.8526
-1956.7454
-1833.7556
-1673.6177
-1486.0466
-1284.0001
-1080.1565
-884.6564
-704.26954
-542.64148
-401.01048
-279.01529
-175.38294
-88.434186
-16.41881
42.290117
89.137463
125.40866
152.0344
168.93601
175.46713
-31.304686
-64.718688
-103.11894
-143.10569
-185.93826
-232.39016
-283.38958
-339.94946
-403.16804
-474.19096
-554.13937
-644.00385
-744.48311
-855.7038
-976.82398
-1105.7405
-1239.2212
-1373.5131
-1505.093
-1631.1436
-1749.5944
-1858.8666
-1957.5203
-2043.8369
-2115.3042
-2168.1361
-2197.1154
-2195.9082
-2156.9768
-2072.6016
-1938.4617
-1758.2456
-1544.6573
-1315.0518
-1085.8252
-869.36108
-673.19089
-500.70834
-352.36225
-226.82903
-121.91628
-35.168364
35.772196
92.982451
138.22528
172.99969
198.38523
214.44299
220.63891
-28.918507
-59.548224
-94.857582
-131.79162
-171.60325
-215.11895
-263.34602
-317.42075
-378.62127
-448.3379
-527.99923
-618.96086
-722.3365
-838.64991
-967.23626
-1105.7042
-1250.0425
-1395.5341
-1537.9248
-1674.1348
-1802.2526
-1921.0934
-2029.7026
-2126.8289
-2210.2141
-2275.8573
-2317.7023
-2327.8602
-2296.3119
-2211.4443
-2064.9442
-1859.8241
-1613.1396
-1348.8506
-1088.5073
-847.2839
-633.32508
-449.33531
-294.49212
-166.11154
-60.801245
24.845007
93.887271
148.89646
191.96672
224.80739
248.63764
263.65514
269.44075
-25.818181
-53.269213
-85.097237
-118.58449
-154.94472
-195.04581
-239.96825
-290.97381
-349.53634
-417.32793
-496.14602
-587.80022
-693.95821
-815.74693
-952.86682
-1102.6159
-1259.8831
-1418.5365
-1573.2789
-1720.7298
-1859.306
-1988.4398
-2107.8862
-2217.1271
-2314.4413
-2395.7809
-2454.2295
-2480.1786
-2460.6864
-2378.6433
-2219.0253
-1982.7308
-1693.2607
-1384.8462
-1086.1994
-815.88196
-582.21426
-386.47397
-225.86064
-95.803565
8.6251969
91.967945
158.07245
210.02971
250.26072
280.66674
302.58587
316.34293
321.63419
-22.973686
-47.084916
-75.163802
-104.88972
-137.43823
-173.7099
-214.84968
-262.24135
-317.56395
-382.80558
-460.19683
-552.0956
-660.88357
-788.5779
-935.5644
-1098.8475
-1271.7236
-1445.9152
-1614.5825
-1774.0084
-1923.2398
-2062.6809
-2193.1138
-2315.1535
-2428.1066
-2528.2219
-2607.7645
-2655.2975
-2654.671
-2581.2854
-2408.9144
-2133.1842
-1787.237
-1421.9603
-1075.9442
-771.69296
-516.71418
-309.65543
-144.72397
-14.787359
87.000126
166.49556
228.39264
276.29882
312.93181
340.34679
359.96629
372.22482
376.9312
-19.220808
-39.549033
-63.459419
-88.995471
-117.24154
-149.10337
-185.7669
-228.71914
-279.83852
-341.45494
-416.30095
-507.3867
-617.99255
-751.43726
-909.37358
-1088.694
-1280.4136
-1472.9885
-1657.3092
-1829.3627
-1989.3966
-2139.3195
-2281.2605
-2417.3576
-2548.5429
-2671.7888
-2778.5382
-2855.5013
-2883.5546
-2828.7144
-2646.446
-2320.3489
-1897.86
-1458.2491
-1053.3793
-710.0195
-432.84493
-215.96496
-49.174617
78.04972
174.87218
248.60473
304.79355
347.51299
379.71269
403.53953
420.45034
430.96258
434.99026
-15.897681
-32.353915
-51.871258
-72.921928
-96.495688
-123.48653
-155.10287
-192.91823
-239.00285
-296.05514
-367.39275
-456.79295
-568.61343
-707.99986
-878.84197
-1078.4003
-1294.3367
-1509.9146
-1712.492
-1897.771
-2068.1033
-2227.6216
-2380.0362
-2529.4043
-2679.3363
-2828.5845
-2968.1905
-3083.3846
-3153.1761
-3133.121
-2949.1142
-2558.3821
-2028.6084
-1490.3109
-1012.0287
-624.49542
-325.62602
-102.04921
62.775716
183.71719
272.61659
338.29038
387.05792
423.34593
450.22713
469.85018
483.63928
492.15838
495.41439
-11.474581
-23.583227
-38.284623
-54.42538
-72.829543
-94.336535
-120.13142
-151.81975
-191.60189
-242.50891
-308.48392
-394.15298
-505.04796
-648.72573
-832.91941
-1056.49
-1302.2526
-1545.1453
-1767.1303
-1963.9132
-2141.8513
-2308.7245
-2470.1433
-2632.4705
-2803.6274
-2985.6993
-3169.316
-3337.5014
-3468.9385
-3510.3171
-3343.2329
-2869.9664
-2183.4193
-1512.2612
-942.24145
-506.54517
-188.94771
35.791363
193.03439
302.96908
380.31916
435.28696
474.75651
503.30719
523.97445
538.78959
549.06121
555.35428
557.75144
-7.5371493
-15.39447
-25.21061
-36.268835
-49.202431
-64.757395
-84.049698
-108.66601
-140.87966
-184.02842
-242.78058
-322.80371
-430.89148
-577.60073
-777.08871
-1032.6403
-1320.0759
-1600.3369
-1846.8236
-2055.5273
-2240.0964
-2413.9779
-2584.1676
-2758.3098
-2950.309
-3167.6713
-3400.7662
-3629.6271
-3838.92
-3978.4499
-3867.0441
-3293.2248
-2367.0992
-1514.8271
-829.79443
-344.76036
-15.548516
201.36217
343.15146
436.08399
497.62817
538.97856
567.19797
586.71663
600.31826
609.77075
616.17173
620.0349
621.49749
-2.4900557
-5.6588756
-10.113118
-15.584875
-22.457374
-31.353589
-43.280505
-59.74681
-82.994679
-116.52479
-165.67793
-237.23398
-338.97035
-484.31347
-697.23576
-991.37641
-1332.9192
-1658.5904
-1928.9323
-2140.8871
-2321.816
-2494.236
-2665.4241
-2841.8766
-3047.7651
-3301.9971
-3597.9691
-3913.1166
-4240.34
-4552.1457
-4581.9476
-3902.4665
-2588.4745
-1482.5727
-652.94154
-123.97283
202.80114
398.08339
513.87882
582.56471
623.57748
648.30545
663.38452
672.68681
678.48229
682.11118
684.35913
685.63371
686.10342
2.9646043
3.9687307
4.5341839
4.3535957
3.3626747
1.1267766
-3.148227
-10.747856
-23.665256
-45.254071
-81.33598
-140.04428
-230.10559
-367.08739
-589.39292
-934.20859
-1356.9266
-1749.5625
-2053.5733
-2265.5082
-2438.4675
-2610.0423
-2787.0779
-2968.0292
-3192.6388
-3498.776
-3882.1406
-4311.9803
-4762.7941
-5290.388
-5572.6189
-4824.192
-2836.3753
-1375.5726
-376.4547
175.25083
474.40529
628.03393
704.50149
740.75637
756.39672
761.68198
761.98393
760.11953
757.55704
755.04286
752.95496
751.54346
750.98525
8.2819143
13.247226
19.293601
25.117242
30.97077
36.620963
41.533926
44.701416
44.454194
37.757456
18.432497
-23.524122
-98.063656
-219.8859
-443.51189
-852.77719
-1396.3142
-1875.2126
-2209.3209
-2391.3158
-2529.0035
-2684.0478
-2861.0821
-3026.3602
-3237.3322
-3572.2357
-4022.5424
-4560.6334
-5088.5701
-5959.1624
-6822.3706
-6298.1036
-3072.9633
-1170.2403
36.951332
572.95212
805.22083
890.32974
911.92221
907.41865
893.34582
876.95142
861.33223
847.72408
836.52054
827.73127
821.2505
817.13063
815.53783
17.845342
25.847068
36.73444
47.677881
59.361211
71.73368
84.553149
97.171573
108.43106
116.14756
114.88841
93.653811
41.61032
-49.390079
-244.24946
-714.39091
-1440.736
-2032.1904
-2411.7463
-2543.7151
-2641.4952
-2785.2719
-2980.05
-3112.1019
-3275.4027
-3676.3065
-4223.2021
-4960.6158
-5678.1315
-7241.6034
-8880.5804
-9066.5819
-3576.8511
-1037.4078
635.59243
1099.3217
1197.4993
1179.0849
1129.6081
1077.3538
1030.6427
991.41488
959.48462
934.06431
914.27601
899.30427
888.51921
881.75394
879.15169
22.141895
30.861501
46.082429
62.163684
80.077891
99.996756
122.16422
146.60546
173.11014
201.08413
227.26772
240.57284
225.8496
180.39491
45.788844
-482.57772
-1554.026
-2310.0083
-2772.1834
-2768.403
-2748.6575
-2811.4929
-3020.3218
-3098.411
-3206.2394
-3761.6793
-4231.8596
-5184.1951
-6469.7594
-7862.1829
-9587.6001
-12101.488
-4821.2248
-71.8227
1723.0861
1812.1053
1641.2152
1478.8085
1346.2647
1243.2308
1163.5799
1101.9763
1054.3292
1017.6384
989.7062
968.8897
954.04375
944.78534
941.23198
36.943002
46.512125
66.418094
87.250235
110.66342
136.97264
166.78236
200.57738
238.70051
281.48832
327.39082
365.13756
371.54677
347.06247
293.93877
-190.52529
-1816.7649
-2614.7538
-3114.0865
-2768.7575
-2626.7635
-2730.3202
-3127.1833
-3269.3149
-3301.9595
0
0
0
0
0
0
0
0
6202.4287
3402.4865
2582.4979
2068.2311
1755.8485
1545.1136
1396.0773
1286.9913
1205.4461
1143.77
1096.9883
1061.741
1035.6589
1017.1458
1005.6326
1001.2183
35.365017
42.14177
63.958605
86.9749
113.07481
142.57937
176.38787
215.45201
260.8142
314.12957
377.264
445.59823
502.2691
560.32353
710.99362
553.71293
-1995.1933
-2773.9114
-3647.6485
-2964.8864
-3042.5087
-3011.8622
0
0
0
0
0
0
0
0
0
0
10128.855
6285.9282
4123.7985
3000.2132
2361.2278
1969.1091
1708.9916
1527.5141
1396.2433
1299.0054
1225.9591
1170.8254
1129.4295
1098.8712
1077.2156
1063.7608
1058.6036
44.269785
54.91788
80.889875
106.88644
136.03289
168.88391
206.69244
250.88791
303.25408
366.79706
446.81728
545.73334
652.74033
753.76375
842.64117
567.94862
-3108.3288
-3577.3902
-3203.0756
0
0
0
0
0
0
0
0
0
0
0
1779.4832
3363.3866
5755.2976
5235.6398
3961.0822
3099.9631
2506.9887
2107.6176
1830.5534
1632.9066
1488.3559
1380.6658
1299.5116
1238.1407
1192.0027
1157.912
1133.7374
1118.7117
1112.9512
22.191678
42.123744
66.289267
91.166026
118.59701
149.35535
184.51385
225.23577
272.81874
329.47603
399.11548
477.50696
536.7112
535.08021
557.03277
702.27048
0
0
0
0
0
0
-1132.7564
-1104.24
-1012.0548
-918.34532
-790.92265
-496.18839
-95.899525
696.08158
2025.3502
3360.8498
4750.2222
4489.3548
3714.4376
3058.4158
2552.4555
2182.0512
1911.3053
1711.5421
1562.251
1449.4405
1363.6102
1298.27
1248.914
1212.3202
1186.3083
1170.1176
1163.9067
19.967102
49.968746
74.881398
100.41969
127.80313
157.86335
191.24964
228.39492
269.25699
313.05351
357.48148
396.1012
405.59603
337.34849
141.0319
-339.22352
-1285.0145
-1228.0302
-1147.6921
-1101.0952
-1051.7194
-1022.2709
-1011.0622
-804.01055
-839.4303
-583.94745
-363.14573
-205.46977
258.18626
903.91655
1959.344
3048.4269
3955.8633
3851.3671
3403.8913
2933.2771
2528.2071
2205.8069
1956.5288
1765.2721
1618.3975
1505.2642
1418.0002
1350.905
1299.8529
1261.7991
1234.6479
1217.7103
1211.2067
20.660139
46.440125
72.037991
97.853033
125.13147
154.62361
186.90979
222.35561
260.94663
301.7728
341.61095
373.23894
384.26644
352.56711
204.60369
-228.5874
-792.86832
-921.52063
-963.13078
-966.75613
-888.42869
-842.96933
-819.21885
-692.49378
-621.66231
-418.2804
-179.91064
76.941151
510.05359
1095.6041
1895.3212
2720.7805
3334.2151
3356.2876
3105.2269
2776.7925
2463.0689
2193.5687
1973.3919
1797.5006
1658.3571
1548.8031
1462.9119
1396.0638
1344.7349
1306.2151
1278.5997
1261.323
1254.6813
14.958457
36.158925
58.688506
81.146054
104.10889
127.81559
152.27103
177.11468
201.44408
223.29415
238.44471
239.66081
217.64949
158.54799
14.384801
-284.58776
-607.50367
-733.04669
-785.10716
-794.88957
-753.74612
-704.11631
-642.89811
-538.44617
-424.59105
-238.96801
-12.24603
269.11289
667.81795
1186.9192
1822.4478
2450.1556
2888.8799
2966.5202
2834.5256
2612.6279
2375.866
2157.4079
1968.9569
1812.183
1684.2925
1581.2146
1498.9438
1434.0339
1383.6731
1345.5837
1318.1242
1300.8873
1294.2517
23.817123
46.399208
70.110821
93.542609
117.39517
141.77532
166.50208
190.94615
213.78789
232.45945
242.2779
236.21215
205.47594
134.83073
-7.8620641
-237.16182
-460.74033
-580.38398
-635.96728
-645.13706
-616.44609
-568.9219
-497.9288
-395.12657
-265.0338
-83.635418
138.44017
415.3756
776.27646
1223.0186
1734.7723
2221.0551
2556.6163
2658.0282
2599.1681
2454.4583
2279.8433
2106.8329
1949.4962
1813.2448
1698.5938
1603.9295
1526.9402
1465.3038
1416.9409
1380.0478
1353.2864
1336.4253
1329.9244
11.971144
29.845749
49.914796
69.883268
89.852729
109.70235
129.12365
147.44544
163.41839
174.79702
177.88505
167.58442
137.11685
74.094629
-40.637327
-204.09483
-359.38427
-457.32201
-506.65922
-514.82456
-489.53482
-440.62584
-366.32562
-263.2534
-129.20652
46.28147
261.15791
524.48298
848.95996
1231.6256
1647.9432
2032.1543
2301.3582
2411.0594
2397.6693
2308.1362
2182.8101
2048.6433
1920.1147
1804.2225
1703.6122
1618.4758
1547.8808
1490.4957
1444.93
1409.8525
1384.24
1368.0382
1361.7814
21.378903
40.580239
60.768418
80.247475
99.297483
117.65033
134.79219
149.83036
161.31578
166.96658
163.54361
147.10224
112.59217
51.747882
-44.107185
-166.1767
-279.56609
-356.69052
-396.26269
-401.03965
-375.78304
-325.33516
-249.29801
-145.92079
-12.425567
156.12895
360.38527
605.34089
895.26875
1223.7394
1567.2095
1877.8871
2101.4267
2211.6729
2226.6879
2176.3542
2089.4833
1987.7464
1884.8123
1788.1308
1701.506
1626.3543
1562.7917
1510.305
1468.1112
1435.3186
1411.2085
1395.8932
1389.9688
11.812302
27.888975
45.845844
63.464052
80.638669
97.015206
112.06437
124.93335
134.291
138.1452
133.82199
118.11809
87.025427
35.171836
-40.532343
-130.97511
-214.07517
-272.38767
-301.41414
-301.20186
-274.04917
-222.23359
-145.64434
-43.135756
87.358399
248.26311
440.36077
665.64349
923.91839
1207.0874
1494.5496
1751.5671
1942.0751
2049.2582
2082.0179
2059.5269
2002.309
1927.301
1846.5487
1767.4185
1694.1597
1628.9584
1572.6803
1525.4523
1486.9991
1456.8177
1434.4682
1420.2096
1414.6842
17.10558
33.176763
50.125288
66.235529
81.54968
95.685981
108.09171
117.94708
124.07003
124.83387
118.22261
101.93626
73.231045
29.136272
-30.500287
-97.90904
-158.67409
-201.00901
-219.94139
-214.10141
-184.13602
-130.93306
-54.365546
46.348455
172.48429
325.14777
504.54101
710.61088
940.78624
1186.5363
1430.6285
1647.7371
1813.3942
1915.9968
1959.7637
1957.0839
1922.5853
1869.3538
1807.5252
1744.0255
1683.1644
1627.5323
1578.4925
1536.6461
1502.1234
1474.75
1454.3299
1441.2442
1436.1643
11.919037
26.291474
41.996216
57.075486
71.361034
84.425009
95.712307
104.44973
109.5851
109.7648
103.41866
88.859878
64.310512
28.43246
-17.516344
-67.217088
-110.77649
-139.76631
-149.54257
-138.11011
-105.11751
-50.660042
25.477268
123.79889
244.93813
389.17188
556.03052
744.17117
949.85719
1164.8729
1375.1211
1561.9808
1708.4024
1805.9606
1856.437
1867.8836
1850.7504
1815.0946
1769.2481
1719.4295
1669.8227
1623.1525
1581.0867
1544.5581
1514.0069
1489.5259
1471.1246
1459.279
1454.6722
13.633738
27.293818
41.771743
55.416948
68.147615
79.568515
89.17801
96.308832
100.10003
99.50736
93.388577
80.600359
60.123328
31.63627
-3.0733133
-38.978177
-69.017678
-86.935959
-88.649743
-71.981952
-36.050931
19.482605
94.898632
190.48495
306.40596
442.37381
597.36158
769.26603
953.89206
1143.7195
1327.3318
1490.8627
1622.0925
1714.6746
1769.1088
1790.6477
1786.7822
1765.2225
1732.7454
1694.754
1655.1806
1616.73
1581.2223
1549.8066
1523.1486
1501.5511
1485.1901
1474.6093
1470.487
11.310606
23.957349
37.541029
50.363521
62.262126
72.843185
81.642985
88.081502
91.456869
90.976001
85.837704
75.334166
59.019474
37.199505
11.802927
-13.143686
-32.403411
-41.164938
-35.936897
-14.580844
24.022027
80.425349
154.92696
247.63991
358.39445
486.51297
630.57483
788.07705
954.77071
1123.9705
1286.4492
1431.7188
1550.7764
1638.7053
1695.3338
1724.0893
1730.3631
1720.0647
1698.6791
1670.8154
1640.0602
1609.0203
1579.5576
1552.9482
1530.0135
1511.2154
1496.8602
1487.5337
1483.8937
11.367289
23.228513
35.822192
47.619901
58.498468
68.104056
76.034346
81.809686
84.883
84.678976
80.671246
72.485319
60.071087
44.079707
26.383499
10.23894
-0.33563499
-1.5403085
9.5809342
35.01816
75.952751
133.01833
206.49202
296.34548
402.1729
523.03306
657.25973
802.18695
953.73215
1106.0468
1251.6462
1382.4568
1491.669
1575.3848
1633.0885
1667.0057
1681.0335
1679.7087
1667.4607
1648.1885
1625.0938
1600.6373
1576.6515
1554.4735
1535.0248
1518.884
1506.4561
1498.346
1495.1757
10.302577
21.446722
33.31655
44.425939
54.63836
63.629519
71.053406
76.522589
79.626812
79.974773
77.264089
71.378093
62.540358
51.584984
40.255991
31.230475
27.691433
32.701464
48.763564
77.675292
120.58294
178.11992
250.51727
337.63227
438.89428
553.19195
678.72808
812.82151
951.66181
1090.1689
1222.2236
1341.4936
1442.6967
1522.6786
1580.757
1618.3588
1638.3135
1644.1165
1639.3464
1627.2934
1610.7782
1592.0833
1572.9781
1554.8112
1538.5623
1524.8925
1514.2802
1507.3288
1504.6086
9.900578
20.40895
31.569501
41.996621
51.574158
60.015104
67.029527
72.313443
75.572609
76.564011
75.158818
71.428544
65.773878
59.11042
53.032673
49.782475
51.947731
62.045344
82.203593
114.01991
158.55651
216.40246
287.72969
372.3033
469.4394
577.92465
695.91184
820.79035
949.05826
1076.3055
1197.4736
1307.4964
1402.1763
1478.9094
1536.9438
1577.1709
1601.6546
1613.1029
1614.4166
1608.3739
1597.4498
1583.7346
1568.9146
1554.3191
1540.9549
1529.5404
1520.6094
1514.748
1512.4558
9.3164864
19.297353
29.907817
39.823521
48.936881
56.994974
63.759877
69.002096
72.526239
74.210171
74.060659
72.287109
69.402612
66.347642
64.575072
65.997876
72.771113
87.00235
110.51492
144.71806
190.57078
248.59706
318.90616
401.18955
494.68739
598.13201
709.67844
826.82982
946.38809
1064.5068
1176.9455
1279.5649
1368.9482
1442.9032
1500.6586
1542.7446
1570.6748
1586.5638
1592.7789
1591.6753
1585.4274
1575.9396
1564.807
1553.3229
1542.5004
1533.0971
1525.6944
1520.8507
1518.9667
8.8954233
18.419141
28.550236
38.028479
46.758888
54.520124
61.11984
66.391257
70.219198
72.576266
73.571486
73.511784
72.978353
72.906357
74.624033
79.795238
90.25633
107.80599
134.02304
170.15034
217.04238
275.15234
344.52955
424.80759
515.17718
614.34796
720.50727
831.28684
943.76492
1054.556
1160.045
1256.7739
1341.8923
1413.517
1470.8828
1514.2755
1544.8134
1564.1674
1574.2898
1577.1943
1574.802
1568.8498
1560.8403
1552.0247
1543.4071
1535.7694
1529.7413
1525.857
1524.3772
8.509784
17.676889
27.440237
36.589202
45.037997
52.593634
59.103453
64.453149
68.592121
71.566517
73.561499
74.95172
76.357843
78.696242
83.191528
91.320165
104.68361
124.84852
153.2015
190.84549
238.53971
296.67025
365.23336
443.81814
531.58444
627.23856
729.01373
834.66658
941.51194
1046.5303
1146.5785
1238.6967
1320.4455
1390.1714
1447.1262
1491.4302
1523.9192
1545.9352
1559.1133
1565.1972
1565.9011
1562.8182
1557.366
1550.7535
1543.9668
1537.8021
1532.9544
1529.9732
1528.9199
8.1407663
17.035866
26.5174
35.418574
43.659321
51.071369
57.53484
62.9771
67.39721
70.896259
73.714339
76.271928
79.211479
83.427085
90.061473
100.45272
116.03145
138.19302
168.17746
206.97581
255.2671
313.3796
381.26556
458.48088
544.16693
637.03664
735.3709
837.0357
939.53702
1040.1356
1136.0358
1224.6364
1303.7919
1372.0169
1428.5832
1473.5003
1507.4054
1531.4031
1546.8928
1555.4128
1558.5153
1557.6786
1554.2498
1549.404
1544.1107
1539.169
1535.355
1533.3101
1532.821
7.7685736
16.537214
25.841571
34.58205
42.685127
50.006503
56.453316
61.984998
66.637354
70.550961
74.003977
77.446678
81.532425
87.134275
95.333098
107.36878
124.55328
148.16159
179.32786
218.95973
267.6744
325.7549
393.11991
469.30195
553.43214
644.23358
740.02895
838.7711
938.10989
1035.5088
1128.4171
1214.4813
1291.7585
1358.8811
1415.1386
1460.4686
1495.3738
1520.7941
1537.9619
1548.2671
1553.143
1553.981
1552.074
1548.5718
1544.4276
1540.412
1537.3496
1536.1329
1536.4195
7.2652117
16.101743
25.325736
33.98133
42.003798
49.273307
55.717779
61.318818
66.136325
70.335915
74.219067
78.253123
83.095672
89.604022
98.819135
111.9209
130.14777
154.69613
186.62985
226.80111
275.78531
333.83464
400.84527
476.3348
559.42903
648.85996
742.9804
839.80272
937.07226
1032.3839
1123.3425
1207.7508
1283.7932
1350.1768
1406.2043
1451.7702
1487.2939
1513.6108
1531.8468
1543.2951
1549.3109
1551.226
1550.293
1547.6474
1544.2362
1540.7753
1538.0845
1537.6575
1539.8521
6.0427676
15.769898
25.044879
33.692887
41.6847
48.932503
55.378432
61.016287
65.918265
70.262509
74.362243
78.693554
83.916889
90.884367
100.62173
114.27289
133.02852
158.04802
190.36542
230.80602
279.92435
337.95694
404.78846
479.92897
562.50169
651.24349
744.52286
840.38273
936.61677
1030.8856
1120.8713
1204.4537
1279.8799
1345.8946
1401.8076
1447.4933
1483.3307
1510.1043
1528.8881
1540.9283
1547.5366
1550.0143
1549.6018
1547.438
1544.4802
1541.4034
1538.9933
1539.52
1545.3637
-2228.0128
-2483.3298
-2698.9497
-2880.7723
-3023.2917
-3105.8064
-3108.3288
-3029.8518
-2858.2633
-2665.0047
-3203.1441
-3203.0756
-3195.9479
-3184.5959
-3170.1656
-3157.1538
-3145.1495
-3154.6341
-3155.2945
-3128.0689
-3181.1635
-3179.9834
-3165.0545
-3147.967
-3130.9614
-3121.9402
-3103.5542
-3110.7249
-3097.4466
-3043.8538
-3135.1142
-3132.4387
-3124.0227
-3115.5701
-3107.0098
-3110.2728
-3099.3232
-3097.1602
-3083.5295
-3046.4936
-3075.5968
-3074.1836
-3069.667
-3063.8516
-3055.5187
-3056.2458
-3055.7653
-3055.0129
-3053.4149
-3057.0732
-3027.3509
-3026.5721
-3020.5841
-3010.1319
-2994.4448
-2964.8864
-2987.105
-2999.7032
-3006.6514
-3020.256
-3010.1096
-3011.881
-3015.0591
-3018.3892
-3028.8928
-3004.2652
-3004.2943
-3001.0413
-2986.4901
-2963.8163
-3025.2596
-3027.02
-3033.3743
-3042.5087
-3066.9247
-3074.4882
-3054.7881
-3028.5355
-2998.6015
-2963.1802
-3846.9946
-3859.3825
-3830.3807
-3785.9822
-3748.4297
-3716.3638
-3694.8545
-3681.1166
-3672.1617
-3673.8906
-2986.5044
-2985.2561
-2977.6909
-2961.6398
-2922.4153
-2947.2975
-2958.9628
-2960.7508
-2949.8089
-2922.2903
-3008.8427
-3011.8622
-3018.1559
-3037.9984
-3015.1714
-3005.8197
-3001.149
-2993.1407
-2978.6701
-2963.1771
-3045.2366
-3047.4951
-3052.0908
-3075.9775
-3089.1736
-3065.6934
-3039.4132
-3019.4344
-3000.7742
-2984.4451
-2994.3706
-2990.5302
-2971.2916
-2945.5321
-2968.2761
-2986.2218
-2998.1468
-3006.2273
-3009.0586
-3016.5348
-3027.6017
-3030.1552
-3029.1459
-2991.827
-3001.2015
-3015.085
-3026.2877
-3034.0225
-3037.5823
-3047.6119
-3152.586
-3160.4621
-3184.7842
-3182.9627
-3154.9085
-3127.1833
-3106.6638
-3091.5248
-3076.4102
-3059.4935
-3138.8559
-3134.0516
-3126.7011
-3147.0197
-3147.3867
-3141.3802
-3135.065
-3129.6467
-3123.7491
-3125.819
-3160.2148
-3159.5064
-3135.1665
-3145.3303
-3156.7704
-3164.8583
-3169.224
-3171.0038
-3170.3149
-3175.095
-3275.3592
-3287.8224
-3283.7664
-3269.3149
-3253.8766
-3241.7278
-3232.9025
-3227.0403
-3220.1869
-3211.6259
-3280.8597
-3284.9073
-3292.4348
-3284.3557
-3274.6727
-3269.113
-3268.8098
-3273.1847
-3278.1676
-3290.4293
-3185.0793
-3170.9539
-3188.2906
-3214.1767
-3243.6328
-3272.2769
-3299.1756
-3323.6658
-3343.7413
-3368.6515
-3325.5796
-3301.9595
-3311.4867
-3331.6687
-3358.2882
-3383.3862
-3405.7091
-3424.0128
-3436.424
-3452.0602
-3701.0565
-3692.0798
-3661.3022
-3627.1263
-3601.9281
-3582.3178
-3570.1118
-3562.8534
-3556.6562
-3553.7316
-3014.4689
-3012.9598
-3007.74
-2996.3745
-2990.8999
-2998.6699
-2998.3647
-2992.8814
-2983.4723
-2982.2797
-3536.7345
-3545.3226
-3559.8529
-3607.0583
-3663.1128
-3714.9726
-3736.0956
-3718.1059
-3634.9756
-3463.7002
-3265.0608
-3265.3229
-3268.2841
-3273.0182
-3273.9783
-3272.9435
-3270.9604
-3265.6717
-3261.6658
-3215.4963
-3178.5537
-3226.0158
-3287.7262
-3392.0379
-3503.1019
-3589.876
-3632.1141
-3592.7395
-3445.429
-3213.5619
-3475.9452
-3485.9669
-3506.991
-3543.7092
-3577.3902
-3606.1368
-3614.8908
-3614.181
-3578.6875
-3466.7782
-3363.2309
-3367.5598
-3381.7264
-3405.59
-3426.4481
-3443.9952
-3452.0916
-3441.6979
-3429.3414
-3378.0329
11318.04
10714.823
10128.855
9489.2309
8832.1555
8178.8701
7544.5344
6936.1601
6346.7417
5769.7287
8300.4235
8223.1663
8099.9865
7838.4142
7500.6013
7110.2373
6688.6241
6253.6442
5815.533
5359.1855
-3707.3538
-3725.7897
-3743.3439
-3749.4697
-3758.3027
-3761.6793
-3766.5599
-3770.0534
-3771.4152
-3774.9313
-3704.0844
-3707.929
-3743.328
-3774.6257
-3813.7674
-3841.007
-3864.9914
-3881.0641
-3889.7424
-3893.9523
-3945.4255
-3938.1453
-3954.3185
-3961.834
-3990.1886
-4008.5501
-4028.3731
-4041.3488
-4046.7709
-4042.3235
-4221.3829
-4211.0153
-4225.2737
-4215.8164
-4231.8596
-4233.7071
-4240.2069
-4241.2358
-4237.6498
-4233.2765
-4543.8903
-4525.7289
-4537.4696
-4510.3982
-4514.1635
-4496.2832
-4483.8004
-4463.7491
-4436.0625
-4403.6857
-4900.1405
-4872.8944
-4882.4991
-4836.043
-4827.5957
-4789.0763
-4756.2235
-4712.7784
-4658.0899
-4597.8634
-5280.8825
-5242.4057
-5251.0459
-5184.1951
-5164.6341
-5106.5185
-5055.1051
-4991.6161
-4915.3443
-4830.0187
-5681.8744
-5629.7706
-5638.5977
-5549.5447
-5518.721
-5440.4697
-5369.7897
-5287.3388
-5197.3517
-5114.7892
-6104.0277
-6034.8743
-6044.7275
-5930.7031
-5887.2293
-5786.8009
-5692.4241
-5582.3844
-5457.0633
-5321.457
-6547.4437
-6457.3231
-6469.7594
-6328.0865
-6270.8322
-6147.9316
-6029.7634
-5895.6444
-5746.0348
-5584.2738
-7018.2363
-6901.0707
-6916.8412
-6743.3329
-6669.1895
-6521.5866
-6375.684
-6213.4569
-6034.9661
-5849.0963
-7515.2775
-7365.0107
-7387.1351
-7178.6734
-7084.5159
-6910.4475
-6732.6556
-6536.5764
-6317.9622
-6080.6906