/*--------------------------------*- C++ -*----------------------------------*\
| =========                 |                                                 |
| \\      /  F ield         | foam-extend: Open Source CFD                    |
|  \\    /   O peration     | Version:     4.1                                |
|   \\  /    A nd           | Web:         http://www.foam-extend.org         |
|    \\/     M anipulation  |                                                 |
\*---------------------------------------------------------------------------*/
FoamFile
{
    version     2.0;
    format      ascii;
    class       volScalarField;
    location    "1.5";
    object      p;
}
// * * * * * * * * * * * * * * * * * * * * * * * * * * * * * * * * * * * * * //

dimensions      [0 2 -2 0 0 0 0];

internalField   nonuniform List<scalar> 
4393
(
-46.418282
-92.981837
-146.74665
-201.53774
-258.52854
-318.02973
-380.42427
-446.0217
-515.04627
-587.60815
-663.67529
-743.04527
-825.31998
-909.88683
-995.91059
-1082.3387
-1167.9206
-1251.2389
-1330.7467
-1404.8064
-1471.7268
-1529.7976
-1577.3242
-1612.6687
-1634.3036
-1640.8858
-1631.361
-1605.1091
-1562.0235
-1502.6044
-1428.0629
-1340.3045
-1241.8238
-1135.5211
-1024.4771
-911.72635
-800.06839
-691.93582
-589.32577
-493.78642
-406.44519
-328.06317
-259.10091
-199.78425
-150.17454
-110.24082
-79.763735
-57.832793
-43.628496
-45.166118
-92.396017
-146.03406
-200.67392
-257.4956
-316.84201
-379.10971
-444.62032
-513.60996
-586.20083
-662.37248
-741.93258
-824.49007
-909.43483
-995.92841
-1082.9093
-1169.1132
-1253.1063
-1333.3248
-1408.1154
-1475.7721
-1534.5699
-1582.7977
-1618.7958
-1641.0079
-1648.0572
-1638.8543
-1612.7041
-1569.4365
-1509.5445
-1434.2452
-1345.4789
-1245.8059
-1138.2122
-1025.8684
-911.88923
-799.13416
-690.07248
-586.71575
-490.60878
-402.86331
-324.21786
-255.11033
-195.75375
-146.20099
-106.36071
-75.962076
-54.863142
-44.264971
-44.361879
-91.499264
-144.77578
-199.05486
-255.52572
-314.56089
-376.57905
-441.92411
-510.8553
-583.51853
-659.9162
-739.87559
-823.01898
-908.74011
-996.1926
-1084.2949
-1171.7535
-1257.0999
-1338.7356
-1414.9754
-1484.0846
-1544.3105
-1593.9094
-1631.1788
-1654.5016
-1662.4212
-1653.7595
-1627.7384
-1584.096
-1523.2537
-1446.4225
-1355.6123
-1253.5198
-1143.3095
-1028.3385
-911.8843
-796.92672
-686.00543
-581.15609
-483.91097
-395.34419
-316.14263
-246.69037
-187.15678
-137.55125
-97.688421
-67.258314
-46.703389
-37.920861
-43.57116
-90.203519
-142.87206
-196.57263
-252.49946
-311.05371
-372.68288
-437.76284
-506.58764
-579.33968
-656.05719
-736.59887
-820.60911
-907.48917
-996.3815
-1086.1743
-1175.5282
-1262.9216
-1346.7028
-1425.1391
-1496.4549
-1558.8587
-1610.5626
-1649.8032
-1674.8753
-1684.1999
-1676.4527
-1650.7046
-1606.5454
-1544.2898
-1465.1359
-1371.1996
-1265.3944
-1151.17
-1032.1792
-911.95649
-793.66757
-679.95792
-572.89593
-473.99006
-384.2532
-304.29149
-234.4052
-174.68849
-125.07572
-85.291889
-55.022703
-34.934753
-26.790629
-42.746026
-88.586098
-140.40167
-193.29793
-248.47673
-306.37008
-367.46095
-432.16674
-500.82807
-573.67725
-650.8023
-732.1065
-817.26651
-905.69558
-996.52142
-1088.5893
-1180.495
-1270.6407
-1357.301
-1438.6794
-1512.9486
-1578.2705
-1632.8047
-1674.7135
-1702.1786
-1713.4593
-1707.0295
-1681.7394
-1636.9534
-1572.8181
-1490.4981
-1392.2541
-1281.3121
-1161.5353
-1037.0031
-911.61376
-788.78944
-671.31421
-561.29071
-460.18348
-368.91208
-287.96592
-217.5263
-157.57814
-107.95415
-68.297096
-38.300245
-18.683886
-10.927477
-41.737448
-86.536909
-137.25311
-189.11407
-243.33048
-300.36955
-360.75701
-424.96206
-493.38493
-566.32305
-643.93084
-726.17245
-812.77038
-903.15702
-996.44242
-1091.4144
-1186.5796
-1280.2371
-1370.5628
-1455.68
-1533.7006
-1602.7372
-1660.8939
-1706.2496
-1736.8505
-1750.751
-1746.1569
-1721.6155
-1676.1694
-1609.7102
-1523.3306
-1419.4777
-1301.8093
-1174.7663
-1043.0183
-910.95511
-782.33366
-660.10594
-546.40053
-442.60568
-349.50357
-267.42011
-196.37274
-136.19558
-86.587209
-47.090936
-17.369188
1.8948619
9.4336842
-40.595518
-84.127194
-133.49123
-184.07014
-237.08801
-293.05312
-352.54174
-416.08563
-484.15876
-557.14089
-635.27231
-718.59829
-806.90519
-899.65548
-995.93972
-1094.4707
-1193.6353
-1291.5943
-1386.3956
-1476.0642
-1558.6466
-1632.2101
-1694.8106
-1744.4439
-1779.0053
-1796.3016
-1794.1941
-1770.8254
-1724.7868
-1655.5866
-1564.1767
-1453.2326
-1326.9993
-1190.7123
-1049.8418
-909.42641
-773.64394
-645.63708
-527.53759
-420.60918
-325.439
-242.13305
-170.49465
-110.16544
-60.680308
-21.461179
7.9036276
26.823193
34.190458
-39.186016
-81.205574
-128.95649
-178.00166
-229.57711
-284.23743
-342.61702
-405.32147
-472.91388
-545.8759
-624.55681
-709.10828
-799.4047
-894.9551
-994.83063
-1097.647
-1201.6308
-1304.7575
-1404.9091
-1499.9927
-1587.9893
-1666.9352
-1734.8571
-1789.6816
-1829.1471
-1850.7729
-1851.9892
-1830.4108
-1784.0058
-1711.7096
-1614.2146
-1494.4637
-1357.4979
-1209.6436
-1057.4499
-906.79928
-762.3836
-627.5447
-504.37098
-393.92851
-296.5308
-211.99196
-139.84129
-79.481839
-30.253657
8.565183
37.489683
56.043318
63.248074
-37.653457
-77.930961
-123.79691
-171.03292
-220.89031
-273.97562
-330.98888
-392.62124
-459.54181
-532.3567
-611.55214
-697.41844
-789.95127
-888.73202
-992.81714
-1100.6985
-1210.3876
-1319.6105
-1426.0331
-1527.4233
-1621.7037
-1706.9075
-1781.069
-1842.0774
-1887.5234
-1914.6054
-1920.2268
-1901.3237
-1855.0125
-1779.3765
-1674.646
-1544.0584
-1393.7398
-1231.5247
-1065.4184
-902.39169
-747.74751
-605.01127
-476.14698
-361.91706
-262.25703
-176.59988
-104.1309
-43.963681
4.7908731
43.023198
71.374306
89.493632
96.516444
-35.748823
-74.004852
-117.69212
-162.8316
-210.68193
-261.90434
-317.27087
-377.56977
-443.59426
-516.10055
-595.74497
-682.99687
-778.0181
-880.50128
-989.5002
-1103.3492
-1219.7674
-1336.14
-1449.8474
-1558.4924
-1659.9573
-1752.3189
-1833.6807
-1901.9531
-1954.6116
-1988.5133
-1999.9357
-1984.9557
-1939.5407
-1860.513
-1747.2978
-1603.4223
-1436.508
-1256.5014
-1073.3834
-895.51928
-728.91403
-577.21829
-442.13837
-323.98144
-222.16776
-135.64
-63.160024
-3.49854
44.496073
81.903903
109.50701
127.08842
133.89213
-33.798643
-69.806266
-111.02793
-153.76798
-199.2949
-248.32743
-301.71467
-360.35265
-425.17755
-497.12427
-577.05843
-665.6788
-763.37438
-870.00881
-984.66044
-1105.4664
-1229.7465
-1354.414
-1476.4676
-1593.3175
-1702.8405
-1803.2316
-1892.7566
-1969.4405
-2030.708
-2073.0759
-2092.1042
-2082.7933
-2039.5861
-1957.4492
-1834.4247
-1674.2478
-1486.6348
-1284.5448
-1080.658
-885.11656
-704.69114
-543.02796
-401.36555
-279.34272
-175.68637
-88.71706
-16.684328
42.038988
88.89798
125.1783
151.81079
168.7167
175.24946
-31.322738
-64.74838
-103.16402
-143.16717
-186.01802
-232.49056
-283.51358
-340.1006
-403.35043
-474.40929
-554.39881
-644.30989
-744.84119
-856.11877
-977.29938
-1106.278
-1239.82
-1374.1697
-1505.8018
-1631.8968
-1750.3829
-1859.6805
-1958.3494
-2044.6717
-2116.136
-2168.9577
-2197.9203
-2196.6912
-2157.7331
-2073.3259
-1939.1488
-1758.8901
-1545.2555
-1315.6022
-1086.3282
-869.81903
-673.60734
-501.08744
-352.70837
-227.14646
-122.20908
-35.440253
35.51781
92.742472
137.9969
172.78034
198.17254
214.23454
220.43207
-28.935362
-59.575043
-94.898117
-131.84694
-171.67534
-215.21033
-263.45985
-317.56087
-378.79224
-448.54501
-528.24845
-619.25872
-722.68968
-839.06454
-967.71703
-1106.2535
-1250.6598
-1396.2157
-1538.6638
-1674.9223
-1803.0782
-1921.9456
-2030.5697
-2127.7002
-2211.0804
-2276.7109
-2318.537
-2328.671
-2297.0941
-2212.1927
-2065.6524
-1860.4857
-1613.7499
-1349.4074
-1089.0116
-847.73892
-633.73522
-449.70565
-294.82781
-166.41748
-61.081964
24.585461
93.645285
148.66881
191.75054
224.60009
248.43687
263.45852
269.24571
-25.834194
-53.293444
-85.133374
-118.63365
-155.00894
-195.12775
-240.07127
-291.10207
-349.69485
-417.5226
-496.38369
-588.08861
-694.30552
-816.16095
-953.3537
-1103.179
-1260.5223
-1419.2475
-1574.0536
-1721.5577
-1860.1749
-1989.3366
-2108.7973
-2218.0403
-2315.3465
-2396.6704
-2455.0974
-2481.0204
-2461.4981
-2379.4194
-2219.7586
-1983.413
-1693.8852
-1385.4105
-1086.705
-816.33307
-582.61664
-386.83386
-226.18415
-96.09634
8.3581316
91.722193
157.84419
209.81561
250.05786
280.47255
302.39802
316.15909
321.45188
-22.988283
-47.105641
-75.194296
-104.93114
-137.49268
-173.78014
-214.93925
-262.35468
-317.7065
-382.98393
-460.41878
-552.37028
-661.22107
-788.98818
-936.05561
-1099.4244
-1272.3865
-1446.6592
-1615.398
-1774.8825
-1924.1585
-2063.6289
-2194.075
-2316.1137
-2429.0551
-2529.1511
-2608.6689
-2656.1737
-2655.5159
-2582.0939
-2409.678
-2133.8915
-1787.8788
-1422.5333
-1076.4507
-772.13889
-517.10696
-310.00284
-145.0333
-15.065082
86.748423
166.26513
228.17948
276.0995
312.7434
340.16672
359.79232
372.0547
376.76253
-19.234014
-39.566161
-63.484033
-89.028748
-117.28562
-149.1611
-185.84196
-228.81624
-279.96355
-341.61514
-416.50512
-507.64556
-618.31851
-751.84311
-909.87011
-1089.2877
-1281.1055
-1473.7729
-1658.1742
-1830.2921
-1990.3743
-2140.3279
-2282.2801
-2418.3716
-2549.5402
-2672.7619
-2779.4826
-2856.4152
-2884.4367
-2829.5607
-2647.2465
-2321.0876
-1898.523
-1458.8322
-1053.8862
-710.45848
-433.22582
-216.29746
-49.467436
77.789156
174.63769
248.39124
304.59689
347.32969
379.53982
403.37461
420.29118
430.80705
434.83611
-15.90957
-32.367278
-51.889503
-72.946233
-96.528202
-123.53011
-155.16129
-192.99638
-239.10697
-296.19303
-367.57416
-457.03028
-568.92197
-708.39615
-879.34044
-1079.01
-1295.0593
-1510.7439
-1713.4131
-1898.7629
-2069.1474
-2228.6989
-2381.122
-2530.4777
-2680.386
-2829.6042
-2969.177
-3084.3384
-3154.0993
-3134.0115
-2949.9605
-2559.1612
-2029.2982
-1490.906
-1012.535
-624.92508
-325.99207
-102.36386
62.502091
183.47612
272.40131
338.09553
386.8792
423.17988
450.07089
469.70136
483.49582
492.01828
495.27556
-11.483943
-23.591297
-38.294755
-54.438751
-72.848243
-94.363369
-120.17014
-151.87533
-191.68089
-242.61966
-308.63707
-394.3628
-505.33331
-649.10829
-833.41864
-1057.1184
-1303.0128
-1546.0302
-1768.1211
-1964.9812
-2142.9746
-2309.8851
-2471.3083
-2633.6121
-2804.7358
-2986.7705
-3170.3483
-3338.4986
-3469.907
-3511.2594
-3344.1371
-2870.7988
-2184.1437
-1512.8705
-942.74557
-506.96221
-189.29516
35.498129
192.78304
302.75008
380.1252
435.11246
474.59716
503.15959
523.83588
538.65779
548.93428
555.2304
557.62871
-7.5459647
-15.3993
-25.214429
-36.272725
-49.208426
-64.768256
-84.069148
-108.6991
-140.93316
-184.11106
-242.90353
-322.98269
-431.14935
-577.96585
-777.58748
-1033.29
-1320.8805
-1601.2878
-1847.8982
-2056.6841
-2241.3074
-2415.2345
-2585.4245
-2759.5253
-2951.4778
-3168.7941
-3401.8417
-3630.6656
-3839.9345
-3979.451
-3868.0223
-3294.1307
-2367.8702
-1515.4539
-830.29382
-345.16019
-15.872511
201.09463
342.92592
435.88984
497.45771
538.82615
567.05938
586.58863
600.19832
609.65681
616.06209
619.92793
621.39153
-2.4940715
-5.6554569
-10.105379
-15.573945
-22.445143
-31.342577
-43.274083
-59.749638
-83.013285
-116.56781
-165.75642
-237.3645
-339.18062
-484.6419
-697.71926
-992.03974
-1333.7676
-1659.6117
-1930.1033
-2142.1469
-2323.1202
-2495.6061
-2666.7933
-2843.1725
-3048.9951
-3303.1743
-3599.0879
-3914.1979
-4241.4075
-4553.2179
-4583.0238
-3903.4788
-2589.3117
-1483.2207
-653.43139
-124.34882
202.50686
397.84665
513.68298
582.39836
623.43275
648.17683
663.26802
672.57948
678.38186
682.01586
684.26745
685.54429
686.01484
2.9587741
3.9729402
4.5461755
4.3726477
3.3871707
1.1544774
-3.1203923
-10.724301
-23.652605
-45.26146
-81.374666
-140.13115
-230.27365
-367.38865
-589.87794
-934.91076
-1357.854
-1750.6936
-2054.8903
-2266.9254
-2439.881
-2611.5593
-2788.5991
-2969.4141
-3193.9265
-3500.013
-3883.2976
-4313.0926
-4763.9037
-5291.5205
-5573.8107
-4825.3581
-2837.3024
-1376.2423
-376.92622
174.90799
474.14865
627.83394
704.3396
740.62081
756.27986
761.57871
761.89071
760.03381
757.47689
754.96681
752.8818
751.47209
750.91456
8.2851009
13.26528
19.323451
25.157862
31.020509
36.677699
41.594917
44.762863
44.510177
37.799581
18.451857
-23.539435
-98.147021
-220.10669
-443.94225
-853.4645
-1397.2823
-1876.4152
-2210.7434
-2392.8798
-2530.4289
-2685.6839
-2862.7831
-3027.8154
-3238.6405
-3573.532
-4023.7143
-4561.7464
-5089.7122
-5960.3614
-6823.7185
-6299.5149
-3074.0133
-1170.9519
36.506273
572.65447
805.0116
890.17318
911.79864
907.31676
893.25878
876.87489
861.2633
847.66074
836.4613
827.67501
821.19633
817.07774
815.48543
17.84113
25.859666
36.761676
47.719654
59.41651
71.801221
84.631355
97.258275
108.52208
116.23556
114.96626
93.715123
41.619747
-49.538609
-244.67566
-715.15156
-1441.8804
-2033.6104
-2413.3734
-2545.7127
-2643.0186
-2787.1995
-2982.1464
-3113.6802
-3276.6778
-3677.6992
-4224.3718
-4961.7037
-5679.306
-7242.8544
-8882.093
-9068.3532
-3578.1302
-1038.2198
635.1928
1099.0917
1197.3505
1178.979
1129.527
1077.2881
1030.5871
991.36616
959.44076
934.02392
914.23812
899.26817
888.48434
881.71983
879.11786
22.150575
30.895212
46.13669
62.238148
80.17144
100.10815
122.29196
146.74766
173.26269
201.23825
227.41484
240.71434
225.96296
180.34529
45.408444
-483.2846
-1555.1591
-2311.4997
-2773.6628
-2771.0093
-2749.6661
-2813.1455
-3022.6414
-3099.9061
-3207.1641
-3763.2639
-4232.9951
-5185.2224
-6470.8436
-7863.4481
-9589.1446
-12103.541
-4823.2662
-72.515374
1722.8303
1811.9823
1641.1417
1478.7597
1346.2291
1243.203
1163.5568
1101.9561
1054.3109
1017.6213
989.68993
968.87398
954.02838
944.77018
941.21689
36.937082
46.53321
66.46005
87.313936
110.74797
137.07729
166.90644
200.72067
238.86191
281.66246
327.5744
365.35475
371.82631
347.26599
293.74138
-191.10976
-1818.0787
-2617.1355
-3115.4967
-2772.7582
-2626.8088
-2732.5434
-3131.7563
-3271.128
-3302.4343
0
0
0
0
0
0
0
0
6202.3747
3402.4557
2582.495
2068.2381
1755.859
1545.1248
1396.0879
1287.001
1205.4545
1143.7773
1096.9946
1061.7464
1035.6636
1017.15
1005.6364
1001.222
35.366745
42.182714
64.028365
87.07501
113.20482
142.7396
176.57914
215.67642
261.07459
314.42439
377.58998
445.98912
502.79937
560.82552
710.68055
552.80409
-1996.7858
-2776.9631
-3646.906
-2968.638
-3044.3366
-3012.325
0
0
0
0
0
0
0
0
0
0
10129.574
6286.2533
4123.9543
3000.3238
2361.3124
1969.1776
1709.0488
1527.5627
1396.2854
1299.0423
1225.9919
1170.8549
1129.4565
1098.8962
1077.2392
1063.7835
1058.626
44.263789
54.950223
80.949991
106.97751
136.15429
169.0359
206.87556
251.10402
303.50597
367.08023
447.11643
546.08836
653.28859
754.39097
842.1955
568.47271
-3108.2264
-3581.5994
-3205.2815
0
0
0
0
0
0
0
0
0
0
0
1780.6713
3364.5938
5756.116
5236.0892
3961.3819
3100.168
2507.1426
2107.7396
1830.6538
1632.9916
1488.4293
1380.7304
1299.5693
1238.1931
1192.0509
1157.9571
1133.7802
1118.7531
1112.992
22.191597
42.166303
66.370957
91.284837
118.75228
149.54713
184.74309
225.50515
273.13226
329.82962
399.49974
478.02711
537.53005
536.24745
558.10666
702.38623
0
0
0
0
0
0
-1132.068
-1103.5237
-1011.306
-917.55665
-790.08551
-495.29935
-94.947764
697.08336
2026.4393
3361.9101
4750.9868
4489.8571
3714.8016
3058.6861
2552.665
2182.2198
1911.4451
1711.661
1562.3542
1449.5316
1363.6919
1298.3445
1248.9829
1212.3849
1186.37
1170.1774
1163.9657
19.953978
50.022139
74.970418
100.54372
127.96146
158.05661
191.47948
228.66473
269.57179
313.4178
357.89958
396.56214
406.14894
338.09164
142.01736
-338.13615
-1284.4182
-1227.4752
-1147.1017
-1100.4784
-1051.0816
-1021.6131
-1010.3644
-803.28959
-838.68258
-583.18214
-362.34547
-204.61778
259.08236
904.85411
1960.2922
3049.3229
3956.565
3851.8962
3404.2976
2933.5967
2528.4612
2206.0151
1956.7036
1765.4219
1618.5283
1505.3804
1418.1049
1351.0008
1299.9418
1261.8829
1234.7279
1217.788
1211.2834
20.663321
46.485383
72.120207
97.971696
125.28627
154.81499
187.13895
222.62475
261.25889
302.13392
342.03484
373.73545
384.81852
353.15801
205.21508
-227.92304
-792.30595
-920.95953
-962.54834
-966.15105
-887.80319
-842.32064
-818.54981
-691.80047
-620.9441
-417.54077
-179.14375
77.742465
510.88648
1096.4658
1896.1863
2721.5877
3334.885
3356.8263
3105.6563
2777.1427
2463.3569
2193.8096
1973.597
1797.6781
1658.5133
1548.9427
1463.0383
1396.1799
1344.843
1306.3173
1278.6975
1261.418
1254.7752
14.99658
36.230562
58.79693
81.290931
104.2907
128.03533
152.53028
177.41573
201.78975
223.68893
238.89666
240.1809
218.24866
159.21402
15.074507
-283.91274
-606.90391
-732.46517
-784.51887
-794.28676
-753.12558
-703.47451
-642.23532
-537.76249
-423.88678
-238.24357
-11.499015
269.88337
668.60799
1187.7217
1823.2418
2450.896
2889.52
2967.0582
2834.9716
2613.0007
2376.181
2157.6757
1969.188
1812.3851
1684.4718
1581.3757
1499.0905
1434.1692
1383.7995
1345.7034
1318.2389
1300.999
1294.3622
23.838352
46.444855
70.189813
93.656065
117.54411
141.96084
166.72577
191.21025
214.09552
232.81491
242.68412
236.66971
205.98844
135.39718
-7.2598747
-236.55161
-460.15535
-579.80632
-635.38363
-644.54127
-615.83498
-568.29308
-497.28141
-394.46036
-264.34949
-82.933302
139.16059
416.11302
777.02615
1223.7716
1735.5097
2221.745
2557.2296
2658.5597
2599.6222
2454.8458
2280.1774
2107.1223
1949.7492
1813.4685
1698.7938
1604.1104
1527.1057
1465.4571
1417.0846
1380.1841
1353.4175
1336.5529
1330.0507
12.024187
29.927665
50.032129
70.035659
90.040906
109.9271
129.38599
147.74673
163.76056
175.18252
178.31547
168.06132
137.63824
74.653942
-40.055606
-203.50821
-358.80776
-456.74803
-506.07948
-514.23401
-488.93046
-440.00598
-365.68962
-262.60124
-128.53893
46.963775
261.85406
525.19053
849.67386
1232.3369
1648.6358
2032.8053
2301.9484
2411.5827
2398.1272
2308.535
2183.159
2048.9505
1920.3864
1804.4649
1703.8306
1618.6746
1548.0637
1490.6657
1445.0899
1410.0046
1384.3864
1368.181
1361.9228
21.407243
40.632385
60.85403
80.367638
99.453474
117.84331
135.02348
150.10154
161.62877
167.32345
163.9452
147.54829
113.08077
52.273257
-43.557385
-165.61581
-279.0039
-356.12529
-395.69049
-400.45714
-375.18785
-324.72599
-248.67446
-145.2831
-11.774612
156.79201
361.05869
606.02151
895.95132
1224.4155
1567.8659
1878.5071
2101.9966
2212.1871
2227.1462
2176.7602
2089.8432
1988.0673
1885.0994
1788.3893
1701.7407
1626.5692
1562.9904
1510.4905
1468.2862
1435.4854
1411.3695
1396.0504
1390.1245
11.864121
27.968608
45.959682
63.61153
80.820403
97.231791
112.3165
125.22187
134.61693
138.50945
134.22462
118.55882
87.501978
35.679299
-40.002687
-130.43223
-213.5253
-271.83122
-300.84952
-300.62695
-273.46246
-221.6343
-145.03234
-42.511541
87.993785
248.90817
441.01328
666.3
924.5737
1207.7339
1495.1765
1752.1619
1942.6277
2049.7634
2082.4748
2059.9377
2002.6777
1927.6331
1846.8489
1767.6911
1694.4088
1629.1879
1572.8934
1525.652
1487.188
1456.9983
1434.6426
1420.3801
1414.8533
17.140338
33.237272
50.219932
66.364677
81.714201
95.886581
108.32909
118.22196
124.38307
125.1854
118.61202
102.36217
73.690736
29.625074
-29.989286
-97.382615
-158.13697
-200.46262
-219.38539
-213.53487
-183.55818
-130.34362
-53.764733
46.959895
173.1051
325.77617
505.1745
711.2459
941.41784
1187.1577
1431.2308
1648.3109
1813.9317
1916.4934
1960.2182
1957.4975
1922.9607
1869.6947
1807.8362
1744.31
1683.4261
1627.7746
1578.7186
1536.8588
1502.3253
1474.9434
1454.517
1441.4273
1436.3459
11.965856
26.365668
42.104118
57.216502
71.53563
84.633596
95.955323
104.72761
109.89823
110.11326
103.80177
89.276389
64.757976
28.906974
-17.020048
-66.704111
-110.25054
-139.22934
-148.995
-137.55178
-104.54827
-50.080032
26.067512
124.39839
245.54544
389.78502
556.64686
744.78718
950.46823
1165.4729
1375.703
1562.5371
1708.9268
1806.4494
1856.8886
1868.2986
1851.1306
1815.443
1769.5681
1719.7244
1670.0955
1623.4064
1581.3245
1544.7826
1514.2205
1489.731
1471.3234
1459.4737
1454.8654
13.672501
27.359532
41.871592
55.550657
68.315597
79.771029
89.415262
96.580939
100.40696
99.848733
93.763336
81.00691
60.559244
32.098105
-2.589789
-38.477024
-68.502158
-86.408142
-88.110495
-71.431704
-35.490038
20.053617
95.478937
191.07335
307.00084
442.97308
597.96254
769.86526
954.48527
1144.3014
1327.8965
1491.4041
1622.6057
1715.1562
1769.5573
1791.0633
1787.166
1765.5767
1733.0728
1695.0575
1655.463
1616.994
1581.4705
1550.0417
1523.3729
1501.7669
1485.3996
1474.8147
1470.6908
11.353729
24.027789
37.645046
50.500462
62.432244
73.046626
81.879857
88.351816
91.760472
91.312413
86.205838
75.732462
59.445714
37.650712
12.275643
-12.652821
-31.897332
-40.645602
-35.405537
-14.038304
24.575002
80.987914
155.49803
248.21811
358.97804
487.09975
631.16213
788.66157
955.34852
1124.5369
1286.9994
1432.2477
1551.2799
1639.1805
1695.7792
1724.5049
1730.7496
1720.4238
1699.0129
1671.1264
1640.351
1609.2932
1579.8152
1553.1928
1530.2474
1511.4409
1497.0794
1487.7488
1484.1072
11.407397
23.295952
35.923399
47.754241
58.666056
68.304862
76.26827
82.076512
85.182338
85.010135
81.033
72.876067
60.48879
44.521717
26.846864
10.720716
0.162007
-1.0287686
10.104926
35.553459
76.498312
133.57305
207.0546
296.91438
402.74627
523.60867
657.83494
802.75862
954.29668
1106.6001
1252.184
1382.975
1492.164
1575.8542
1633.531
1667.4209
1681.4219
1680.0716
1667.7998
1648.5059
1625.3917
1600.918
1576.9173
1554.7266
1535.2674
1519.1182
1506.6841
1498.5699
1495.3981
10.343681
21.515168
33.418401
44.560431
54.805527
63.829257
71.285536
76.786801
79.922614
80.301396
77.620358
71.762408
62.950775
52.019174
40.711355
31.704401
28.181619
33.205973
49.280814
78.203928
121.12168
178.66746
251.07215
338.19282
439.45855
553.75769
679.2927
813.38206
952.21494
1090.711
1222.7509
1342.0027
1443.1846
1523.143
1581.1967
1618.7734
1638.7033
1644.4824
1639.6899
1627.6162
1611.0824
1592.3708
1573.251
1555.0717
1538.8125
1525.1345
1514.516
1507.5606
1504.8389
9.9405907
20.476316
31.670229
42.129903
51.739921
60.213127
67.259507
72.574945
75.865018
76.886466
75.510141
71.807194
66.177993
59.537878
53.481135
50.249609
52.431377
62.543591
82.714773
114.54251
159.08909
216.94354
288.27767
372.8564
469.99563
578.48174
696.46727
821.34131
949.60167
1076.8381
1197.9922
1307.9978
1402.658
1479.3695
1537.3811
1577.5848
1602.0454
1613.4712
1614.7637
1608.7012
1597.7592
1584.0279
1569.1938
1554.5861
1541.2119
1529.7892
1520.8521
1514.9868
1512.693
9.3564728
19.36464
30.008241
39.956219
49.101724
57.191677
63.988068
69.261268
72.815708
74.529027
74.407721
72.660902
69.801379
66.769398
65.017689
66.459206
73.249109
87.495123
111.02075
145.23532
191.0979
249.13243
319.44807
401.73615
495.23664
598.68165
710.22602
827.37265
946.92331
1065.0315
1177.4567
1280.06
1369.4248
1443.3596
1501.0937
1543.1578
1571.0662
1586.9341
1593.1289
1592.0065
1585.7413
1576.2379
1565.0915
1553.5955
1542.7631
1533.3519
1525.9431
1521.0955
1519.21
8.9349103
18.485893
28.65
38.160357
46.922687
54.715494
61.34634
66.648313
70.50607
72.892007
73.914912
73.881465
73.37262
73.323347
75.061759
80.251683
90.729528
108.29407
134.52425
170.66298
217.56477
275.68278
345.06625
425.34863
515.72048
614.89129
721.04823
831.82286
944.29331
1055.0741
1160.5501
1257.2636
1342.3646
1413.9702
1471.316
1514.688
1545.2053
1564.5392
1574.6422
1577.5286
1575.1196
1569.1522
1561.1293
1552.3021
1543.6747
1536.0292
1529.9951
1526.107
1524.6257
8.5490752
17.743394
27.539599
36.720497
45.200992
52.787934
59.328569
64.70846
68.87685
71.879695
73.901947
75.318041
76.748438
79.109341
83.625251
91.772591
105.15284
125.33269
153.69884
191.35424
239.05812
297.19655
365.76569
444.35454
532.12282
627.7767
729.54926
835.19704
942.03481
1047.0431
1147.0787
1239.1822
1320.9143
1390.622
1447.5578
1491.8422
1524.3114
1546.3081
1559.4676
1565.534
1566.2217
1563.124
1557.6587
1551.0348
1544.2384
1538.066
1533.2125
1530.2275
1529.1727
8.1797819
17.102036
26.616299
35.549266
43.821542
51.264689
57.758732
63.230909
67.680135
71.207319
74.05236
76.635545
79.599145
83.837101
90.492028
100.90197
116.49752
138.67407
168.67169
207.48142
255.7823
313.90257
381.79439
459.01357
544.70139
637.57065
735.90214
837.56179
940.05554
1040.6441
1136.5321
1225.1184
1304.2579
1372.4655
1429.0134
1473.9117
1507.7978
1531.7769
1547.2486
1555.7515
1558.8382
1557.987
1554.5453
1549.6884
1544.3856
1539.4363
1535.6164
1533.5678
1533.0772
7.8074527
16.603214
25.940198
34.712362
42.846838
50.199159
56.676366
62.237766
66.919012
70.860518
74.340267
77.808354
81.917975
87.542038
95.76131
107.81565
125.01697
148.64028
179.81974
219.46297
268.18719
326.27536
393.6461
469.83185
553.96365
644.7645
740.557
839.29395
938.62519
1036.0143
1128.9106
1214.9608
1292.2225
1359.3282
1415.5679
1460.8796
1495.7664
1521.1685
1538.3188
1548.6073
1553.4676
1554.2914
1552.3717
1548.8584
1544.7049
1540.6817
1537.6135
1536.3931
1536.6783
7.3041477
16.167646
25.424097
34.111282
42.165053
49.465396
55.940134
61.570748
66.416992
70.644324
74.554056
78.613363
83.479673
90.010159
99.245685
112.36614
130.60988
155.17325
187.12016
227.30277
276.29648
334.35342
401.36969
476.86285
559.95859
649.38884
743.50633
840.32342
937.58544
1032.8874
1123.8341
1208.2288
1284.2558
1350.6229
1406.633
1452.1809
1487.6865
1513.9856
1532.2043
1543.6362
1549.6367
1551.5378
1550.5922
1547.9355
1544.5151
1541.0466
1538.3501
1537.9195
1540.1126
6.0814476
15.835429
25.143096
33.822695
41.845778
49.124367
55.600503
61.267863
66.198508
70.570426
74.696675
79.053179
84.300239
91.289856
101.04768
114.71744
133.48983
158.52433
190.85491
231.30686
280.43468
338.47485
405.31198
480.45606
563.03025
651.77132
745.04771
840.90233
937.12886
1031.388
1121.362
1204.9308
1280.3419
1346.3402
1402.2359
1447.9039
1483.7234
1510.4793
1529.246
1541.2698
1547.8629
1550.3266
1549.9016
1547.727
1544.7599
1541.6756
1539.2598
1539.7828
1545.625
-2227.7592
-2483.6259
-2699.54
-2881.4847
-3023.9684
-3106.2155
-3108.2264
-3029.2221
-2857.2794
-2664.004
-3205.3895
-3205.2815
-3198.436
-3187.4491
-3173.3348
-3160.5821
-3148.7463
-3158.213
-3158.8151
-3131.4108
-3183.0318
-3181.9073
-3167.153
-3150.1897
-3133.2746
-3124.2838
-3105.9912
-3113.2083
-3100.0767
-3046.5506
-3137.8424
-3135.1803
-3126.5771
-3117.8814
-3109.0879
-3112.1
-3101.0044
-3098.9718
-3085.5706
-3048.7087
-3078.1503
-3076.7157
-3072.1702
-3066.2528
-3057.7473
-3058.1473
-3057.813
-3057.1428
-3055.6643
-3059.4012
-3030.1696
-3029.3772
-3023.6164
-3013.4552
-2998.2003
-2968.638
-2990.802
-3003.1028
-3009.7485
-3023.0973
-3013.4133
-3015.1074
-3018.3591
-3021.7463
-3032.663
-3008.5371
-3008.2151
-3004.5879
-2989.6697
-2966.6816
-3027.9236
-3029.5544
-3035.6403
-3044.3366
-3068.3867
-3076.1032
-3056.722
-3030.7045
-3000.8676
-2965.4637
-3848.4532
-3860.7655
-3831.7267
-3787.3171
-3749.7573
-3717.6921
-3696.1888
-3682.4626
-3673.5227
-3675.2648
-2986.9819
-2985.7898
-2977.9089
-2960.9538
-2921.5856
-2946.9465
-2958.9513
-2961.144
-2950.6582
-2923.5512
-3009.2486
-3012.325
-3018.6883
-3037.9317
-3013.9716
-3005.2511
-3001.2994
-2993.8839
-2979.8938
-2964.7521
-3048.5072
-3050.9597
-3056.1377
-3080.7269
-3093.4965
-3069.4243
-3042.6923
-3022.4078
-3003.5389
-2987.0532
-2999.66
-2995.8313
-2976.9424
-2951.6615
-2974.5985
-2992.0795
-3003.3185
-3010.7384
-3013.0015
-3020.019
-3033.2657
-3035.7261
-3034.8625
-2997.9713
-3007.1047
-3020.7175
-3031.5176
-3038.7507
-3041.8001
-3051.3648
-3156.8906
-3164.6846
-3188.918
-3187.4471
-3159.5474
-3131.7563
-3111.0629
-3095.67
-3080.2526
-3063.0197
-3141.9785
-3137.1438
-3129.6602
-3149.8313
-3150.4251
-3144.6324
-3138.4099
-3132.9748
-3126.9768
-3128.8791
-3162.756
-3162.0354
-3137.7509
-3147.905
-3159.3507
-3167.4868
-3171.9069
-3173.7107
-3173.0012
-3177.7026
-3277.1167
-3289.52
-3285.4692
-3271.128
-3255.8062
-3243.7654
-3235.0338
-3229.2402
-3222.4249
-3213.8645
-3282.4893
-3286.5608
-3294.0154
-3285.9375
-3276.2944
-3270.7944
-3270.5592
-3275.0004
-3280.0411
-3292.3435
-3186.3253
-3172.2153
-3189.5517
-3215.4286
-3244.9019
-3273.5989
-3300.5728
-3325.1456
-3345.2985
-3370.2637
-3326.0535
-3302.4343
-3312.0418
-3332.3494
-3359.1128
-3384.3607
-3406.8262
-3425.2575
-3437.776
-3453.4908
-3701.6752
-3692.6558
-3661.9571
-3627.886
-3602.8072
-3583.3219
-3571.2318
-3564.0739
-3557.9589
-3555.0929
-3016.6791
-3015.1535
-3009.7384
-2998.1202
-2992.6342
-2999.893
-2999.5302
-2994.1796
-2984.9473
-2983.9236
-3540.5389
-3549.1357
-3563.57
-3610.8538
-3667.0294
-3718.861
-3739.9432
-3721.8042
-3638.1034
-3466.2539
-3268.7591
-3268.994
-3271.9435
-3276.8115
-3277.9223
-3277.0262
-3275.0649
-3269.9203
-3265.7626
-3219.2855
-3179.5268
-3227.553
-3289.6674
-3394.3705
-3505.6958
-3592.5215
-3635.0772
-3595.2079
-3447.0645
-3214.6357
-3480.2776
-3490.3211
-3511.2519
-3547.9511
-3581.5994
-3610.259
-3618.8301
-3618.3253
-3582.5473
-3470.1581
-3367.3459
-3371.7359
-3385.9155
-3409.8737
-3430.8346
-3448.4905
-3456.6161
-3446.1972
-3433.5795
-3381.828
11318.721
10715.546
10129.574
9489.9387
8832.8455
8179.5386
7545.1798
6936.7832
6347.3436
5770.3036
8301.8479
8224.531
8101.259
7839.607
7501.7186
7111.2844
6689.606
6254.5657
5816.3985
5360.0006
-3709.5011
-3727.9367
-3745.3445
-3751.3108
-3759.9996
-3763.2639
-3768.0593
-3771.4951
-3772.8203
-3776.312
-3705.8523
-3709.7036
-3745.0498
-3776.2806
-3815.3395
-3842.5112
-3866.4376
-3882.4676
-3891.1151
-3895.3029
-3946.5159
-3939.2804
-3955.5093
-3963.0864
-3991.4663
-4009.846
-4029.6729
-4042.6492
-4048.0685
-4043.6186
-4222.4236
-4212.0686
-4226.3375
-4216.9239
-4232.9951
-4234.877
-4241.3996
-4242.4482
-4238.8762
-4234.5151
-4544.8771
-4526.7374
-4538.4826
-4511.4474
-4515.2332
-4497.3863
-4484.9282
-4464.9012
-4437.2337
-4404.873
-4901.1059
-4873.8837
-4883.4908
-4837.0695
-4828.6375
-4790.1486
-4757.3177
-4713.8956
-4659.2261
-4599.0151
-5281.85
-5243.3996
-5252.0397
-5185.2224
-5165.6723
-5107.5836
-5056.1881
-4992.7192
-4916.4638
-4831.1518
-5682.8606
-5630.7855
-5639.6102
-5550.5891
-5519.7722
-5441.5442
-5370.8779
-5288.443
-5198.469
-5115.9186
-6105.0444
-6035.9219
-6045.771
-5931.7767
-5888.306
-5787.8972
-5693.5297
-5583.5012
-5458.188
-5322.5876
-6548.5007
-6458.4129
-6470.8436
-6329.1987
-6271.9445
-6149.0598
-6030.8968
-5896.7847
-5747.1785
-5585.4192
-7019.3418
-6902.2108
-6917.9748
-6744.4921
-6670.3458
-6522.7549
-6376.8536
-6214.6287
-6036.1372
-5850.2667
-7516.4406
-7366.2092
-7388.3267
-7179.8873
-7085.7243
-6911.6638
-6733.8689
-6537.7865
-6319.1653
-6081.8852
-8058.1151
-7863.4481
-7892.398
-7643.191