/*--------------------------------*- C++ -*----------------------------------*\
| =========                 |                                                 |
| \\      /  F ield         | foam-extend: Open Source CFD                    |
|  \\    /   O peration     | Version:     4.1                                |
|   \\  /    A nd           | Web:         http://www.foam-extend.org         |
|    \\/     M anipulation  |                                                 |
\*---------------------------------------------------------------------------*/
FoamFile
{
    version     2.0;
    format      ascii;
    class       surfaceScalarField;
    location    "1.5";
    object      phi;
}
// * * * * * * * * * * * * * * * * * * * * * * * * * * * * * * * * * * * * * //

dimensions      [0 3 -1 0 0 0 0];

internalField   nonuniform List<scalar> 
8438
(
-0.59745642
0.0016726571
-0.59919434
0.0017379123
-0.60096712
0.0017727792
-0.60278376
0.0018166461
-0.60465403
0.001870269
-0.60658836
0.0019343256
-0.60859614
0.0020077859
-0.610685
0.0020888604
-0.61286006
0.0021750531
-0.61512323
0.0022631743
-0.61747257
0.0023493372
-0.61990156
0.0024289924
-0.62239859
0.0024970309
-0.62494657
0.002547976
-0.62752283
0.0025762594
-0.63009941
0.0025765855
-0.63264364
0.0025442302
-0.63511898
0.002475341
-0.63748605
0.0023670661
-0.6397036
0.0022175458
-0.64172943
0.0020258375
-0.64352126
0.0017918234
-0.64503745
0.0015161925
-0.64623801
0.0012005615
-0.6470858
0.0008477872
-0.64754828
0.00046248258
-0.64759968
5.1399162e-05
-0.6472226
-0.00037707576
-0.64641205
-0.00081055515
-0.64517948
-0.0012325727
-0.64355375
-0.0016257222
-0.64158092
-0.0019728358
-0.63932202
-0.0022588946
-0.63684909
-0.0024729313
-0.63423985
-0.0026092418
-0.63157222
-0.0026676271
-0.62891949
-0.0026527345
-0.62634668
-0.0025728106
-0.62390845
-0.0024382315
-0.62164832
-0.0022601233
-0.61959906
-0.0020492635
-0.61778373
-0.0018153271
-0.61621728
-0.0015664521
-0.61490813
-0.0013091503
-0.61385935
-0.001048778
-0.61306915
-0.00079020234
-0.61253383
-0.00053531985
-0.61225854
-0.00027529321
-1.3586476e-05
-0.61124858
0.0031375157
-0.61270678
0.0031961122
-0.61419209
0.0032580874
-0.61571777
0.0033423227
-0.61729626
0.0034487607
-0.61893877
0.0035768363
-0.62065515
0.0037241634
-0.62245336
0.0038870689
-0.62433886
0.00406055
-0.62631391
0.004238227
-0.62837688
0.0044123105
-0.63052155
0.0045736573
-0.63273648
0.0047119676
-0.63500467
0.0048161675
-0.63730339
0.0048749744
-0.63960445
0.0048776444
-0.64187482
0.0048146056
-0.64407756
0.004678076
-0.64617282
0.0044623278
-0.64811893
0.0041636557
-0.64987329
0.0037801959
-0.65139317
0.0033117086
-0.6526365
0.0027595186
-0.65356269
0.0021267492
-0.65413384
0.0014189409
-0.65431642
0.00064505774
-0.6540837
-0.00018131731
-0.65341984
-0.0010409383
-0.65232168
-0.0019087108
-0.65080014
-0.0027541104
-0.64888326
-0.0035426022
-0.64661676
-0.0042393365
-0.64406203
-0.0048136271
-0.64129191
-0.0052430495
-0.63838515
-0.0055160012
-0.6354206
-0.0056321834
-0.63247214
-0.0056011895
-0.62960507
-0.0054398857
-0.62687393
-0.0051693655
-0.62432193
-0.0048121253
-0.62198136
-0.0043898384
-0.61987483
-0.0039218499
-0.61801694
-0.0034243472
-0.61641587
-0.0029102215
-0.61507493
-0.0023897131
-0.61399438
-0.0018707518
-0.61317372
-0.0013559858
-0.61260466
-0.00084434456
-0.00037345095
-0.61229375
0.0045522419
-0.61370671
0.0046090657
-0.61514445
0.0046958282
-0.61662193
0.0048198042
-0.61815245
0.0049792786
-0.6197478
0.0051721923
-0.62141833
0.005394691
-0.62317249
0.0056412316
-0.62501631
0.0059043642
-0.62695266
0.0061745794
-0.62898056
0.0064402153
-0.63109442
0.0066875098
-0.63328332
0.0069008753
-0.63553062
0.0070634677
-0.63781371
0.0071580589
-0.64010428
0.0071682135
-0.64236899
0.0070793124
-0.64457044
0.0068795338
-0.64666837
0.0065602583
-0.6486207
0.0061159778
-0.65038445
0.0055439451
-0.6519165
0.0048437604
-0.65317419
0.0040172159
-0.65411606
0.0030686178
-0.65470285
0.0020057268
-0.65489914
0.00084134862
-0.65467578
-0.00040467523
-0.6540127
-0.0017040216
-0.65290243
-0.0030189836
-0.65135389
-0.0043026455
-0.64939498
-0.0055015147
-0.64707313
-0.0065611899
-0.64445315
-0.0074336049
-0.64161244
-0.0080837591
-0.63863457
-0.008493873
-0.63560268
-0.0086640654
-0.63259394
-0.0086099353
-0.62967558
-0.0083582474
-0.62690291
-0.0079420351
-0.62431888
-0.007396154
-0.62195486
-0.0067538549
-0.61983218
-0.0060445333
-0.61796395
-0.0052925711
-0.61635699
-0.0045171867
-0.61501366
-0.0037330418
-0.61393412
-0.002950292
-0.61311664
-0.0021734659
-0.61255271
-0.0014082743
-0.00068121021
-0.61265065
0.0059375861
-0.61404324
0.0060016537
-0.61546126
0.0061138485
-0.61691966
0.0062782057
-0.61843221
0.0064918266
-0.6200114
0.0067513915
-0.62166836
0.0070516464
-0.62341238
0.0073852512
-0.62525039
0.0077423774
-0.62718624
0.0081104229
-0.62921985
0.0084738256
-0.63134642
0.0088140806
-0.63355561
0.0091100678
-0.63583094
0.0093388019
-0.63814953
0.0094766453
-0.64048231
0.0095009929
-0.64279479
0.0093917917
-0.64504822
0.0091329678
-0.64720095
0.0087129878
-0.64920963
0.00812465
-0.65103013
0.0073644527
-0.65261824
0.0064318681
-0.65393002
0.0053289947
-0.65492232
0.0040609184
-0.65555358
0.002636992
-0.65578534
0.0010730994
-0.65558459
-0.00060541674
-0.65492723
-0.0023613898
-0.65380205
-0.0041441555
-0.65221544
-0.0058892554
-0.65019497
-0.0075219903
-0.64779068
-0.0089654819
-0.64507279
-0.010151496
-0.64212591
-0.011030635
-0.63904126
-0.01157852
-0.63590876
-0.011796568
-0.63281057
-0.011708126
-0.6298169
-0.011351914
-0.62698411
-0.010774832
-0.62435464
-0.010025618
-0.62195837
-0.0091501282
-0.61981454
-0.0081883659
-0.61793402
-0.0071730872
-0.61632151
-0.0061296963
-0.61497768
-0.0050768691
-0.6139011
-0.0040268734
-0.61308817
-0.0029863989
-0.61253349
-0.0019629493
-0.00096975383
-0.61307529
0.0072958804
-0.61444465
0.007371017
-0.61584041
0.0075096046
-0.6172777
0.0077154958
-0.61877078
0.0079849071
-0.62033293
0.0083135487
-0.62197622
0.0086949327
-0.62371103
0.0091200663
-0.62554552
0.0095768614
-0.62748479
0.010049689
-0.62953002
0.010519062
-0.63167751
0.010961573
-0.63391769
0.011350239
-0.6362343
0.011655417
-0.63860405
0.011846397
-0.64099678
0.011893716
-0.64337632
0.011771333
-0.64570199
0.011458642
-0.64793022
0.010941215
-0.65001595
0.010210382
-0.65191365
0.0092621484
-0.65357775
0.0080959736
-0.65496285
0.0067140892
-0.65602375
0.0051218242
-0.656716
0.0033292359
-0.65699706
0.0013541595
-0.6568288
-0.00077367102
-0.65618133
-0.0030088646
-0.65503786
-0.0052876274
-0.65340071
-0.0075264011
-0.65129664
-0.0096260587
-0.64877922
-0.011482902
-0.64592639
-0.013004329
-0.64283319
-0.014123835
-0.63960182
-0.014809885
-0.63633178
-0.015066615
-0.63311214
-0.014927762
-0.63001702
-0.014447031
-0.62710392
-0.013687933
-0.62441434
-0.012715204
-0.6219758
-0.011588665
-0.61980455
-0.010359615
-0.6179083
-0.0090693342
-0.61628885
-0.0077491464
-0.61494444
-0.006421282
-0.61387147
-0.0050998476
-0.61306499
-0.003792872
-0.61252111
-0.0025068276
-0.0012460673
-0.61361266
0.0086219381
-0.61495236
0.0087107196
-0.61631982
0.0088770594
-0.61773033
0.0091260057
-0.61919872
0.0094533027
-0.62073919
0.009854013
-0.62236491
0.010320658
-0.62408766
0.010842813
-0.62591711
0.011406315
-0.62786005
0.01199263
-0.62991934
0.012578343
-0.63209274
0.013134973
-0.63437176
0.013629263
-0.63674057
0.014024232
-0.63917537
0.014281196
-0.64164452
0.014362864
-0.64410962
0.014236431
-0.64652736
0.013876383
-0.64885162
0.013265479
-0.65103522
0.012393979
-0.65303092
0.011257847
-0.65479171
0.0098567713
-0.65627057
0.0081929462
-0.65741999
0.0062712476
-0.65819198
0.0041012166
-0.65853886
0.0017010418
-0.65841575
-0.00089678084
-0.65778489
-0.0036397247
-0.65662154
-0.0064509752
-0.65492193
-0.0092260159
-0.65271104
-0.011836942
-0.65004692
-0.014147022
-0.64701811
-0.016033144
-0.64373416
-0.017407781
-0.64031244
-0.018231602
-0.63686538
-0.018513677
-0.63349111
-0.018302038
-0.63026848
-0.017669656
-0.627256
-0.016700416
-0.62449339
-0.015477807
-0.62200474
-0.01407732
-0.61980202
-0.012562332
-0.61788862
-0.010982736
-0.61626236
-0.0093754074
-0.61491806
-0.0077655846
-0.61384927
-0.0061686381
-0.61304938
-0.0045927569
-0.61251413
-0.0030420771
-0.0015152484
-0.61426589
0.0099120195
-0.61556999
0.010014823
-0.61690275
0.010209814
-0.61828016
0.010503419
-0.61971785
0.010890989
-0.62123105
0.011367216
-0.62283431
0.01192392
-0.62454104
0.012549538
-0.62636282
0.013228103
-0.62830856
0.013938365
-0.63038326
0.014653039
-0.63258668
0.015338393
-0.63491183
0.015954422
-0.63734355
0.016455947
-0.63985745
0.016795097
-0.64242001
0.016925419
-0.64498983
0.016806254
-0.64752013
0.016406683
-0.6499615
0.015706848
-0.65226413
0.014696606
-0.65437892
0.01337264
-0.65625747
0.011735326
-0.65785123
0.0097867022
-0.65911032
0.0075303336
-0.65998273
0.0049736276
-0.6604146
0.0021329123
-0.66035243
-0.0009589511
-0.65974801
-0.0042441435
-0.65856549
-0.0076334949
-0.65679197
-0.010999532
-0.65444904
-0.014179874
-0.65160009
-0.016995974
-0.64834795
-0.019285281
-0.64482207
-0.020933662
-0.64116036
-0.021893315
-0.63749231
-0.022181722
-0.63392747
-0.021866877
-0.63055016
-0.021046969
-0.62741935
-0.019831224
-0.6245718
-0.018325354
-0.62202663
-0.016622495
-0.61979009
-0.014798869
-0.61785992
-0.012912905
-0.61622887
-0.011006458
-0.61488743
-0.0091070229
-0.61382568
-0.0072303879
-0.61303465
-0.0053837862
-0.6125083
-0.003568428
-0.0017786
-0.6150294
0.011157683
-0.61629065
0.011276077
-0.61758192
0.011501084
-0.61891963
0.011841129
-0.62032024
0.012291597
-0.62180018
0.012847151
-0.62337554
0.013499282
-0.62506167
0.014235672
-0.62687249
0.015038925
-0.6288195
0.01588537
-0.63091044
0.016743981
-0.63314769
0.017575647
-0.63552635
0.018333077
-0.63803225
0.018961844
-0.64064044
0.019403294
-0.64331498
0.019599959
-0.64601052
0.019501792
-0.64867565
0.019071811
-0.65125672
0.018287917
-0.65370077
0.017140658
-0.65595679
0.015628656
-0.65797524
0.013753775
-0.65970643
0.011517896
-0.66109835
0.0089222538
-0.66209475
0.0059700295
-0.66263454
0.002672698
-0.66265354
-0.00093995062
-0.66208994
-0.004807741
-0.66089262
-0.0088308155
-0.65903519
-0.012856961
-0.65653297
-0.016682091
-0.65345548
-0.020073472
-0.64992469
-0.022816062
-0.64609724
-0.024761113
-0.64213871
-0.025851848
-0.63820082
-0.026119609
-0.63440711
-0.025660595
-0.63084768
-0.024606398
-0.62758086
-0.023098036
-0.62463856
-0.021267656
-0.62203287
-0.019228186
-0.61976244
-0.0170693
-0.61781778
-0.014857569
-0.61618532
-0.012638913
-0.61485036
-0.010441982
-0.61379892
-0.0082818314
-0.61301911
-0.0061635977
-0.6125025
-0.0040850339
-0.0020363023
-0.61590429
0.012355532
-0.61711671
0.012488498
-0.61835961
0.012743981
-0.61965053
0.01313205
-0.62100697
0.013648039
-0.62244671
0.01428689
-0.62398761
0.015040179
-0.62564726
0.015895326
-0.62744234
0.016834006
-0.62938754
0.017830564
-0.63149405
0.018850495
-0.63376766
0.019849254
-0.63620631
0.020771729
-0.63879745
0.021552979
-0.64151564
0.022121488
-0.64432189
0.022406207
-0.64716561
0.022345512
-0.64998924
0.021895443
-0.65273365
0.021032327
-0.65534214
0.01974915
-0.65776188
0.018048389
-0.65994279
0.015934691
-0.66183489
0.01340999
-0.66338466
0.010472031
-0.66453174
0.0071171049
-0.6652069
0.0033478593
-0.66533304
-0.00081380941
-0.66483083
-0.0053099496
-0.66362836
-0.010033289
-0.66167939
-0.014805929
-0.65898823
-0.01937325
-0.65563081
-0.023430898
-0.65175489
-0.026691981
-0.64755448
-0.028961524
-0.6432325
-0.030173821
-0.63896944
-0.030382673
-0.63490553
-0.029724509
-0.63113644
-0.028375487
-0.62771781
-0.026516664
-0.62467393
-0.024311534
-0.62200716
-0.02189496
-0.61970617
-0.019370286
-0.61775242
-0.016811325
-0.61612467
-0.014266658
-0.61480208
-0.011764576
-0.61376598
-0.0093179304
-0.61300107
-0.0069285047
-0.61249624
-0.0045898585
-0.002287597
-0.61688392
0.013493643
-0.61803878
0.013643356
-0.61922555
0.013930756
-0.62046203
0.014368531
-0.62176665
0.014952652
-0.62315857
0.015678809
-0.62465759
0.016539203
-0.62628388
0.017521615
-0.62805733
0.018607458
-0.62999649
0.019769724
-0.63211686
0.02097087
-0.63442863
0.022161015
-0.63693364
0.023276739
-0.6396218
0.024241148
-0.64246748
0.024967164
-0.64542784
0.025366572
-0.64844531
0.025362976
-0.651454
0.024904134
-0.65438758
0.023965905
-0.65718489
0.022546464
-0.6597916
0.020655101
-0.66215818
0.018301274
-0.6642357
0.015487507
-0.66597047
0.012206798
-0.6672986
0.008445237
-0.66814217
0.0041914279
-0.6684088
-0.00054717629
-0.66799691
-0.0057218457
-0.66680662
-0.011223575
-0.66476273
-0.016849823
-0.66185061
-0.022285364
-0.65815189
-0.027129614
-0.65384929
-0.030994584
-0.64918891
-0.033621907
-0.64442436
-0.034938365
-0.6397731
-0.035033937
-0.63539473
-0.034102879
-0.63138913
-0.032381089
-0.62780583
-0.030099966
-0.62465755
-0.02745981
-0.6219333
-0.024619208
-0.61960893
-0.021694659
-0.61765471
-0.018765538
-0.61604037
-0.015881002
-0.61473801
-0.013066935
-0.61372377
-0.010332177
-0.61297856
-0.0076737121
-0.61248848
-0.00507994
-0.0025311231
-0.6179673
0.01457131
-0.6190591
0.014735156
-0.62018252
0.015054171
-0.62135677
0.015542785
-0.62260141
0.016197292
-0.6239371
0.017014498
-0.62538572
0.017987827
-0.62697029
0.019106179
-0.62871441
0.020351584
-0.63064125
0.021696557
-0.6327716
0.023101226
-0.6351213
0.024510715
-0.63769754
0.025852975
-0.64049401
0.027037616
-0.64348542
0.027958572
-0.64662426
0.028505413
-0.64984352
0.028582242
-0.65306597
0.028126582
-0.65621569
0.027115622
-0.65922624
0.025557018
-0.66204252
0.023471382
-0.66461725
0.020875997
-0.66690469
0.017774955
-0.66885312
0.01415522
-0.67039652
0.0099886455
-0.67144807
0.0052429787
-0.67189807
-9.7179939e-05
-0.67161679
-0.0060031295
-0.67046725
-0.01237311
-0.66833226
-0.018984811
-0.66516529
-0.025452338
-0.66105067
-0.031244235
-0.65621903
-0.035826222
-0.65099045
-0.038850493
-0.64568795
-0.040240856
-0.64057635
-0.040145542
-0.63583668
-0.038842548
-0.63156981
-0.036647955
-0.62781373
-0.033856047
-0.62456401
-0.03070953
-0.62179163
-0.027391595
-0.61945612
-0.024030165
-0.6175143
-0.020707358
-0.61592537
-0.017469932
-0.61465362
-0.014338689
-0.61366954
-0.011316249
-0.61295013
-0.0083931236
-0.61247868
-0.0055513898
-0.0027650046
-0.61915107
0.015571581
-0.62016895
0.015753032
-0.62121993
0.016105152
-0.62232288
0.016645736
-0.62349809
0.017372504
-0.62476762
0.01828403
-0.62615552
0.019375727
-0.62768791
0.020638567
-0.62939264
0.022056319
-0.63129832
0.02360223
-0.63343228
0.025235188
-0.63581759
0.026896024
-0.63846869
0.028504079
-0.64138508
0.029954
-0.64454298
0.031116473
-0.64788927
0.031851707
-0.65134413
0.032037103
-0.65481443
0.031596876
-0.65821116
0.03051235
-0.66146147
0.028807338
-0.66451066
0.026520566
-0.66731617
0.023681504
-0.66983856
0.020297351
-0.67203124
0.016347895
-0.67382872
0.011786131
-0.67513582
0.0065500734
-0.67582225
0.00058925331
-0.67572527
-0.0061001075
-0.67466091
-0.013437467
-0.67245055
-0.021195173
-0.6689943
-0.028908586
-0.66437148
-0.035867055
-0.65887925
-0.041318455
-0.65294515
-0.044784597
-0.64698829
-0.046197712
-0.6413337
-0.045800134
-0.63618429
-0.043991958
-0.63163561
-0.041196636
-0.62770568
-0.03778598
-0.62436519
-0.034050016
-0.62156116
-0.030195626
-0.6192328
-0.026358522
-0.61732098
-0.022619176
-0.61577307
-0.019017846
-0.61454491
-0.015566852
-0.61360118
-0.012259974
-0.61291494
-0.0090793598
-0.61246687
-0.0059994647
-0.0029869245
-0.62042515
0.016498215
-0.62136472
0.016692602
-0.62233598
0.01707641
-0.62335938
0.017669135
-0.62445615
0.018469273
-0.62564971
0.019477593
-0.62696629
0.020692307
-0.6284353
0.022107572
-0.63008929
0.023710313
-0.63196319
0.025476133
-0.63409226
0.027364254
-0.63650868
0.029312442
-0.63923661
0.031232014
-0.64228421
0.033001597
-0.64563132
0.034463581
-0.64921829
0.035438674
-0.65294761
0.035766428
-0.65670352
0.035352787
-0.66037882
0.034187643
-0.66389296
0.03232148
-0.66719387
0.029821473
-0.67024775
0.026735388
-0.67302601
0.023075608
-0.67549197
0.01881386
-0.67758501
0.013879173
-0.67920363
0.0081686899
-0.68019543
0.0015810515
-0.68035787
-0.0059376682
-0.67944638
-0.014348959
-0.67719602
-0.023445536
-0.67341899
-0.032685609
-0.6681721
-0.041113952
-0.66184586
-0.047644689
-0.65502862
-0.051601837
-0.64827383
-0.052952499
-0.64198219
-0.052091778
-0.63637528
-0.049598865
-0.63153194
-0.046039978
-0.62743755
-0.041880375
-0.62402746
-0.0374601
-0.62121741
-0.033005678
-0.61892178
-0.02865415
-0.61706308
-0.024477876
-0.61557577
-0.020505161
-0.61440696
-0.016735656
-0.61351565
-0.013151288
-0.61287122
-0.0097237872
-0.61245205
-0.0064186346
-0.0031941767
-0.62179328
0.01732821
-0.62264134
0.017540664
-0.62352246
0.017957527
-0.6244557
0.018602373
-0.62546245
0.019476024
-0.62656715
0.02058229
-0.62779803
0.021923195
-0.62918788
0.023497417
-0.63077435
0.025296789
-0.63259965
0.02730143
-0.63470857
0.02947317
-0.6371448
0.031748675
-0.63994553
0.034032742
-0.64313191
0.036187976
-0.64669137
0.038023041
-0.65055755
0.039304858
-0.65460867
0.039817544
-0.65869628
0.039440402
-0.66268737
0.038178733
-0.66649205
0.036126156
-0.6700644
0.033393826
-0.67338485
0.030055838
-0.67644111
0.026131867
-0.67921237
0.021585121
-0.68164907
0.016315871
-0.68364744
0.010167061
-0.68503224
0.0029658495
-0.68555468
-0.0054152321
-0.68489599
-0.015007641
-0.68267248
-0.025669052
-0.67855317
-0.036804913
-0.67253478
-0.047132343
-0.6651394
-0.055040071
-0.65720462
-0.059536616
-0.64947332
-0.060683797
-0.6424392
-0.059125904
-0.63633189
-0.055706173
-0.63119396
-0.051177903
-0.62695953
-0.046114811
-0.62351482
-0.040904806
-0.62073561
-0.035784886
-0.61850677
-0.030882993
-0.61673036
-0.026254284
-0.61532739
-0.021908131
-0.61423648
-0.017826567
-0.61341143
-0.013976339
-0.61281857
-0.010316644
-0.61243451
-0.0068026974
-0.0033837341
-0.62322207
0.018070557
-0.62397553
0.018294125
-0.62475921
0.018741214
-0.6255936
0.019436759
-0.62650042
0.020382843
-0.62750492
0.021586792
-0.62863718
0.023055457
-0.6299333
0.024793532
-0.63143635
0.026799839
-0.6331967
0.02906178
-0.63527048
0.031546953
-0.63771566
0.034193857
-0.64058639
0.036903471
-0.64392276
0.039524346
-0.64772631
0.041826586
-0.65192481
0.043503364
-0.65636219
0.044254925
-0.66084113
0.043919338
-0.6651904
0.042528003
-0.66930825
0.040244002
-0.67316098
0.037246559
-0.67675185
0.033646706
-0.68009286
0.029472878
-0.68318796
0.024680217
-0.68600944
0.019137351
-0.68845983
0.012617448
-0.69034232
0.0048483437
-0.69135569
-0.0044018661
-0.69109343
-0.015269899
-0.68901336
-0.027749122
-0.68455462
-0.041263647
-0.67757589
-0.054111075
-0.66878216
-0.0638338
-0.65941433
-0.068904449
-0.65048328
-0.069614843
-0.6425923
-0.067016879
-0.63595405
-0.06234443
-0.63054246
-0.056589493
-0.62621365
-0.050443621
-0.62278722
-0.044331234
-0.62008931
-0.038482799
-0.6179709
-0.033001397
-0.61631241
-0.027912782
-0.61502167
-0.023198861
-0.61402978
-0.018818465
-0.6132864
-0.014719714
-0.61275579
-0.010847253
-0.61241355
-0.00714494
-0.0035523338
-0.62474642
0.0186964
-0.62539077
0.018938478
-0.62606656
0.019417001
-0.62679132
0.020161524
-0.62758583
0.02117735
-0.62847534
0.022476307
-0.62949115
0.024071264
-0.63067221
0.025974592
-0.63206687
0.028194499
-0.63373423
0.030729138
-0.63574353
0.033556259
-0.63817018
0.036620501
-0.64109006
0.039823352
-0.64457042
0.043004702
-0.64863835
0.04589452
-0.65322059
0.048085605
-0.65811366
0.049147998
-0.66304719
0.048852861
-0.66779411
0.047274927
-0.67223928
0.044689177
-0.67637317
0.041380441
-0.6802355
0.037509042
-0.6838718
0.033109178
-0.68731935
0.028127767
-0.69058473
0.022402728
-0.6935875
0.015620218
-0.69611073
0.0073715713
-0.69779433
-0.0027182606
-0.69813366
-0.014930568
-0.69639111
-0.029491677
-0.69164848
-0.046006273
-0.68346936
-0.062290201
-0.67279946
-0.074503697
-0.66156539
-0.080138515
-0.65115532
-0.080024915
-0.64229128
-0.075880925
-0.63511662
-0.069519087
-0.62948468
-0.06222143
-0.6251365
-0.054791806
-0.62180388
-0.047663848
-0.61925358
-0.0410331
-0.61729966
-0.034955314
-0.61580114
-0.02941131
-0.61465435
-0.02434565
-0.61378472
-0.019688089
-0.61313959
-0.015364849
-0.61268249
-0.011304352
-0.61238906
-0.0074383681
-0.0036965949
-0.62627572
0.019219468
-0.62680873
0.019471486
-0.62736879
0.019977056
-0.62797396
0.0207667
-0.62864409
0.021847477
-0.629404
0.023236221
-0.63028571
0.02495297
-0.63133067
0.027019557
-0.63259244
0.029456263
-0.63413949
0.032276192
-0.63605642
0.035473181
-0.63844011
0.039004198
-0.64139406
0.0427773
-0.64502326
0.046633906
-0.64939904
0.0502703
-0.65445904
0.0531456
-0.65993313
0.054622094
-0.66543665
0.054356378
-0.6706558
0.052494079
-0.67545688
0.049490253
-0.6798715
0.045795064
-0.68399384
0.041631379
-0.6879112
0.037026534
-0.69170211
0.031918683
-0.69542827
0.026128882
-0.69905175
0.019243696
-0.70234975
0.010669577
-0.70490677
-0.00016124194
-0.70611518
-0.013722158
-0.70501899
-0.030587866
-0.7001571
-0.050868163
-0.69048535
-0.071961955
-0.67721647
-0.087772576
-0.66350983
-0.093845155
-0.65127391
-0.092260829
-0.64133505
-0.085819786
-0.63366481
-0.077189325
-0.62791478
-0.067971463
-0.62366167
-0.059044914
-0.62052609
-0.050799435
-0.61820743
-0.043351753
-0.6164826
-0.036680152
-0.61519197
-0.030701936
-0.61422385
-0.025313771
-0.61350116
-0.020410781
-0.61297136
-0.015894649
-0.61259916
-0.011676551
-0.61236152
-0.0076760047
-0.0038131651
-0.62790278
0.019605626
-0.62831006
0.019878766
-0.62874559
0.020412582
-0.62922241
0.021243524
-0.62975767
0.022382737
-0.63037458
0.023853132
-0.63110468
0.025683065
-0.63199062
0.027905494
-0.63308974
0.030555382
-0.63447888
0.033665339
-0.63625858
0.037252881
-0.6385506
0.041296217
-0.64149116
0.045717864
-0.64523402
0.050376759
-0.64992285
0.054959135
-0.65553391
0.058756661
-0.6617058
0.060793975
-0.66787302
0.060523601
-0.67358988
0.058210938
-0.67870219
0.054602565
-0.68332097
0.050413843
-0.68763225
0.045942662
-0.69178142
0.041175701
-0.6958976
0.036034866
-0.70012901
0.030360293
-0.70451652
0.023631202
-0.70884328
0.01499634
-0.71260037
0.0035958489
-0.71507595
-0.011246577
-0.71512347
-0.030540345
-0.7105217
-0.055469934
-0.69904616
-0.083437496
-0.68204044
-0.10477829
-0.66500311
-0.11088249
-0.65052146
-0.10674248
-0.63945414
-0.096887104
-0.6314096
-0.085233865
-0.6257155
-0.073665566
-0.62172328
-0.063037132
-0.61892025
-0.053602458
-0.61693576
-0.045336251
-0.61551422
-0.038101684
-0.61448389
-0.031732274
-0.61373081
-0.026066843
-0.61317999
-0.020961608
-0.61278231
-0.016292326
-0.61250594
-0.011952919
-0.61233069
-0.00785126
-0.0038989013
-0.62935685
0.019866792
-0.62963504
0.02015696
-0.62993644
0.020713983
-0.63027198
0.021579066
-0.63065546
0.022766212
-0.63110723
0.024304909
-0.63165692
0.026232745
-0.63234684
0.02859542
-0.63323674
0.031445283
-0.63441089
0.034839486
-0.63598714
0.038829132
-0.63811829
0.043427365
-0.64098225
0.048581825
-0.6447948
0.054189313
-0.64981546
0.059979792
-0.65612193
0.065063131
-0.66323443
0.067906479
-0.67028931
0.06757848
-0.67663447
0.064556091
-0.682086
0.060054101
-0.68689608
0.055223922
-0.69139325
0.050439825
-0.69578365
0.045566109
-0.70022113
0.040472343
-0.70496286
0.035102019
-0.71017172
0.028840065
-0.71566847
0.020493091
-0.72085543
0.0087828013
-0.72494398
-0.0071580215
-0.72677579
-0.028708532
-0.72320934
-0.059036391
-0.70977709
-0.096869744
-0.68721725
-0.12733813
-0.66564109
-0.13245865
-0.6484308
-0.12395277
-0.63629281
-0.10902509
-0.62812939
-0.093397285
-0.62276714
-0.07902782
-0.61926551
-0.066538761
-0.61696573
-0.055902239
-0.61543501
-0.046866967
-0.61439804
-0.039138651
-0.6136823
-0.032448016
-0.61318026
-0.026568888
-0.61282498
-0.021316889
-0.61257484
-0.016542466
-0.61240407
-0.012123687
-0.61229697
-0.0079583573
-0.0039510724
-0.63051134
0.019964878
-0.63064023
0.020285845
-0.63079049
0.020864246
-0.63096648
0.021755059
-0.63117721
0.022976936
-0.6314392
0.024566897
-0.63177888
0.026572432
-0.63223661
0.029053152
-0.63287219
0.032080857
-0.63377392
0.035741221
-0.63507384
0.040129051
-0.63695755
0.045311077
-0.63964982
0.051274095
-0.64343
0.057969488
-0.64871745
0.065267242
-0.65581116
0.072156848
-0.66409295
0.076188268
-0.67218303
0.075668562
-0.67911819
0.071491251
-0.68467128
0.065607187
-0.68935922
0.059911866
-0.69374262
0.05482322
-0.69810154
0.049925036
-0.70256561
0.044936408
-0.70757939
0.040115804
-0.71356289
0.03482356
-0.72047382
0.027404025
-0.7277051
0.016014078
-0.73425367
-0.00060945269
-0.73917858
-0.023783617
-0.73830817
-0.059906801
-0.7234738
-0.11170411
-0.69246542
-0.15834652
-0.66468327
-0.16024079
-0.64429133
-0.14434471
-0.6313843
-0.12193212
-0.62357787
-0.10120371
-0.61896282
-0.083642871
-0.61625568
-0.069245904
-0.61466353
-0.057494388
-0.61371841
-0.047812084
-0.61314935
-0.039707712
-0.6128005
-0.032796869
-0.61258225
-0.026787135
-0.61244305
-0.021456096
-0.61235324
-0.016632271
-0.61229589
-0.012181035
-0.61226146
-0.0079927957
-0.0039675776
-0.63009876
0.01986302
-0.6300476
0.020234691
-0.63001433
0.020830978
-0.62999457
0.021735293
-0.62999032
0.022972688
-0.63001151
0.024588084
-0.63007739
0.026638321
-0.63022091
0.029196663
-0.63049498
0.032354929
-0.63098309
0.036229332
-0.63182158
0.040967542
-0.63322757
0.046717073
-0.63548686
0.053533378
-0.63894737
0.061430005
-0.64423528
0.070555149
-0.65212454
0.080046107
-0.66193051
0.085994235
-0.67132656
0.085064611
-0.67890598
0.079070677
-0.6843319
0.0710331
-0.68862146
0.064201426
-0.69271372
0.058915482
-0.69701304
0.054224353
-0.70147863
0.049401997
-0.70680589
0.045443069
-0.71382871
0.041846375
-0.72256866
0.03614398
-0.73259386
0.026039273
-0.74188039
0.0086770784
-0.7505065
-0.015157504
-0.75419532
-0.056217981
-0.74045397
-0.12544546
-0.69640231
-0.20239817
-0.66054283
-0.19610028
-0.63702615
-0.16786138
-0.6241475
-0.13481077
-0.61751265
-0.10783856
-0.61423589
-0.086919632
-0.61270229
-0.070779498
-0.61204607
-0.058150612
-0.61182019
-0.048037961
-0.61179648
-0.039731422
-0.61185937
-0.03273398
-0.61195098
-0.026695523
-0.61204304
-0.02136404
-0.6121224
-0.01655291
-0.61218354
-0.012119898
-0.61222453
-0.0079518052
-0.0039471564
-0.62620066
0.019531258
-0.62591255
0.019946583
-0.62562023
0.020538657
-0.62531713
0.021432193
-0.62499795
0.022653505
-0.62466396
0.02425409
-0.624324
0.026298368
-0.62399941
0.02887207
-0.6237317
0.032087224
-0.62359424
0.036091869
-0.62371946
0.041092766
-0.62435266
0.047350268
-0.62586329
0.055044009
-0.62866783
0.064234542
-0.6335553
0.075442621
-0.64215202
0.088642832
-0.65402009
0.097862308
-0.66484998
0.095894499
-0.67272757
0.086948261
-0.67703524
0.075340775
-0.67987751
0.067043699
-0.68278563
0.061823601
-0.68639024
0.057828959
-0.69001189
0.053023644
-0.69447816
0.049909338
-0.70158786
0.048956075
-0.71113435
0.045690477
-0.72407875
0.038983671
-0.73554689
0.020145221
-0.74984114
-0.00086325058
-0.76242822
-0.04363091
-0.75914263
-0.12873105
-0.69457291
-0.26696789
-0.65072257
-0.23995062
-0.62529651
-0.19328745
-0.61395787
-0.14614942
-0.60975986
-0.11203656
-0.60860751
-0.088071982
-0.60868249
-0.07070452
-0.60919083
-0.057642275
-0.60980193
-0.047426862
-0.61038378
-0.03914957
-0.61088906
-0.032228703
-0.61130596
-0.026278622
-0.61163686
-0.021033134
-0.61188897
-0.016300805
-0.61207016
-0.011938704
-0.61218722
-0.0078347506
-0.0038895725
-0.61277263
0.018711434
-0.61204192
0.019215866
-0.61129508
0.019791823
-0.61050524
0.020642356
-0.60965469
0.021802945
-0.60873134
0.02333075
-0.60772692
0.025293945
-0.60664078
0.027785928
-0.6054874
0.030933843
-0.60430615
0.034910617
-0.60318381
0.039970426
-0.60232874
0.046495204
-0.60215508
0.054870348
-0.60313479
0.065214249
-0.60600543
0.078313264
-0.61371277
0.096350174
-0.62750567
0.1116552
-0.63866144
0.10705027
-0.64542578
0.093712604
-0.64630156
0.076216557
-0.64570547
0.066447605
-0.64563802
0.061756159
-0.64724051
0.059431448
-0.64828369
0.054066826
-0.64942857
0.051054221
-0.65615281
0.055680309
-0.66606345
0.055601117
-0.6838323
0.056752529
-0.69887842
0.035191332
-0.72784961
0.028107945
-0.75025774
-0.02122278
-0.77321226
-0.10577653
-0.67714243
-0.36303772
-0.63075876
-0.28633428
-0.60621848
-0.21782772
-0.59991795
-0.15244995
-0.60026429
-0.11169022
-0.60224771
-0.086088567
-0.60437247
-0.068579753
-0.60623119
-0.05578356
-0.60775495
-0.0459031
-0.6089712
-0.037933324
-0.60992793
-0.031271965
-0.61067112
-0.025535437
-0.61123889
-0.020465366
-0.61166101
-0.015878686
-0.61195978
-0.011639926
-0.61215112
-0.0076434166
-0.0037957399
-0.58476205
0.017467675
-0.58349246
0.017946281
-0.58212371
0.01842307
-0.58065163
0.019170273
-0.57905
0.020201318
-0.57728796
0.021568709
-0.57532888
0.023334864
-0.57313291
0.025589959
-0.57066246
0.028463389
-0.56789028
0.032138444
-0.56481501
0.036895155
-0.56154395
0.043224146
-0.55852098
0.051847374
-0.55651476
0.063208028
-0.55613055
0.077929056
-0.56150949
0.10172912
-0.58046612
0.13061183
-0.59262027
0.11920442
-0.59888574
0.099978072
-0.59399578
0.071326591
-0.58774714
0.060198967
-0.58242605
0.056435075
-0.5815455
0.0585509
-0.57951711
0.052038438
-0.57388516
0.045422267
-0.58520553
0.032533845
-0.59563967
0.037448895
-0.60470536
0.040321824
-0.6034575
0.020482544
-0.63527838
0.039884934
-0.71435157
0.019777678
-0.6691792
-0.054711638
-0.60684556
-0.22707344
-0.57379858
-0.31938126
-0.57150777
-0.22011854
-0.58113655
-0.14282117
-0.5894521
-0.10337467
-0.59561841
-0.079922256
-0.60008637
-0.064111794
-0.60336075
-0.052509182
-0.60579613
-0.043467716
-0.60762927
-0.036100187
-0.60901852
-0.029882712
-0.61007173
-0.024482233
-0.61086353
-0.019673564
-0.61144606
-0.015296153
-0.61185565
-0.011230344
-0.61211694
-0.0073821261
-0.0036677717
-0.52678912
0.015056322
-0.52429157
0.015448732
-0.52163887
0.015770368
-0.51878882
0.016320222
-0.51568717
0.017099662
-0.51226611
0.018147656
-0.50844
0.019508749
-0.50410371
0.021253671
-0.49913308
0.023492759
-0.49339025
0.026395619
-0.48673224
0.030237141
-0.47905487
0.035546781
-0.47055464
0.043347142
-0.4621977
0.054851088
-0.45432957
0.070060924
-0.4475825
0.094982053
-0.47076825
0.15379758
-0.46998113
0.1184173
-0.4609116
0.090908542
-0.42702664
0.03744164
-0.39551475
0.028687076
-0.36812639
0.02904671
-0.30361523
0.020805687
-0.16318845
0.013489928
-0.041244068
0.0077883331
0
0
0
0