/*--------------------------------*- C++ -*----------------------------------*\
| =========                 |                                                 |
| \\      /  F ield         | foam-extend: Open Source CFD                    |
|  \\    /   O peration     | Version:     4.1                                |
|   \\  /    A nd           | Web:         http://www.foam-extend.org         |
|    \\/     M anipulation  |                                                 |
\*---------------------------------------------------------------------------*/
FoamFile
{
    version     2.0;
    format      ascii;
    class       volScalarField;
    location    "1.5";
    object      rAU;
}
// * * * * * * * * * * * * * * * * * * * * * * * * * * * * * * * * * * * * * //

dimensions      [0 0 1 0 0 0 0];

internalField   nonuniform List<scalar> 
4393
(
0.00022764059
0.00022726699
0.00022690116
0.0002265275
0.00022614389
0.00022574892
0.00022534019
0.00022491653
0.00022447709
0.00022402165
0.00022355083
0.00022306613
0.00022257003
0.00022206609
0.00022155866
0.00022105389
0.00022055757
0.00022007669
0.00021961888
0.00021919171
0.00021880292
0.0002184602
0.00021817103
0.0002179426
0.00021778157
0.00021769386
0.00021768412
0.00021768412
0.00021775565
0.00021790957
0.00021814404
0.00021845407
0.00021883147
0.0002192652
0.00021974199
0.00022024733
0.00022076638
0.00022128496
0.00022179026
0.00022227125
0.00022271897
0.00022312649
0.00022348873
0.00022380226
0.00022406496
0.00022427587
0.00022443503
0.00022454298
0.00022458509
0.00022450846
0.00022418818
0.00022388284
0.00022356846
0.00022324228
0.00022290265
0.00022254735
0.00022217551
0.00022178672
0.00022138135
0.00022096066
0.00022052693
0.00022008354
0.00021963494
0.00021918646
0.00021874511
0.00021831749
0.00021791119
0.00021753428
0.00021719461
0.00021690004
0.00021665824
0.00021647663
0.00021636221
0.00021632129
0.00021635929
0.00021644595
0.00021641889
0.00021646209
0.00021658895
0.00021680098
0.00021709665
0.00021747081
0.0002179147
0.00021841634
0.00021896147
0.00021953459
0.00022012021
0.00022070375
0.00022127228
0.00022181493
0.00022232298
0.00022278984
0.00022321076
0.0002235825
0.00022390292
0.00022417115
0.00022438868
0.00022454273
0.00022400334
0.00022369489
0.00022339499
0.00022308353
0.0002227578
0.00022241631
0.00022205703
0.00022167939
0.0002212834
0.00022086993
0.00022044091
0.00021999937
0.00021954955
0.00021909692
0.00021864778
0.00021821015
0.00021779152
0.0002174002
0.00021704482
0.00021673354
0.00021647441
0.00021627516
0.0002161432
0.00021608544
0.00021610804
0.00021621607
0.00021630282
0.00021618377
0.00021614551
0.00021619505
0.00021633731
0.00021657397
0.00021690247
0.00021731567
0.00021780201
0.00021834661
0.00021893252
0.00021954224
0.00022015903
0.00022076778
0.00022135568
0.00022191236
0.0002224299
0.00022290256
0.00022332636
0.00022369866
0.00022401837
0.0002242856
0.00022448066
0.00022364816
0.00022334511
0.00022304513
0.00022273055
0.00022239891
0.00022204891
0.0002216787
0.00022128795
0.00022087698
0.00022044714
0.00022000091
0.0002195421
0.00021907584
0.00021860862
0.00021814791
0.00021770286
0.00021728202
0.00021689466
0.00021655007
0.00021625691
0.00021602353
0.00021585786
0.00021576743
0.0002157593
0.00021583973
0.00021601376
0.00021609528
0.00021589019
0.00021576762
0.00021573811
0.00021581036
0.00021598959
0.00021627595
0.00021666368
0.00021714126
0.00021769256
0.00021829856
0.00021893924
0.00021959528
0.00022024919
0.00022088614
0.00022149416
0.00022206412
0.00022258945
0.00022306565
0.00022348988
0.00022386094
0.00022417787
0.00022442249
0.00022328642
0.00022298753
0.00022268788
0.0002223705
0.00022203309
0.00022167448
0.00022129296
0.00022088836
0.00022046128
0.00022001344
0.00021954786
0.00021906906
0.00021858309
0.00021809752
0.00021762106
0.00021716416
0.00021673662
0.00021634872
0.00021601057
0.00021573135
0.00021551973
0.00021538386
0.0002153315
0.00021536995
0.00021550584
0.00021574454
0.00021583162
0.00021553607
0.00021532524
0.00021521368
0.00021521451
0.00021533703
0.00021558437
0.00021595207
0.00021642812
0.00021699443
0.00021762911
0.00021830895
0.00021901155
0.00021971677
0.00022040764
0.00022107064
0.00022169559
0.00022227526
0.00022280485
0.00022328151
0.00022370394
0.000224071
0.00022436681
0.00022290887
0.00022261468
0.00022231641
0.00022199717
0.00022165478
0.00022128811
0.0002208955
0.0002204769
0.00022003307
0.00021956603
0.0002190793
0.00021857803
0.0002180692
0.00021756154
0.00021706513
0.00021659191
0.00021615308
0.00021576016
0.0002154241
0.00021515467
0.00021496082
0.00021485094
0.00021483305
0.00021491488
0.00021510367
0.00021540559
0.00021551334
0.00021512151
0.00021481679
0.0002146184
0.0002145447
0.00021460994
0.00021482076
0.00021517393
0.00021565634
0.00021624699
0.00021692011
0.00021764843
0.00021840584
0.00021916921
0.00021991934
0.00022064122
0.0002213238
0.00022195946
0.00022254338
0.00022307294
0.00022354703
0.00022396494
0.0002243126
0.000222516
0.00022222718
0.00022193132
0.00022161123
0.00022126469
0.00022089057
0.00022048715
0.0002200544
0.00021959315
0.00021910564
0.00021859575
0.00021806926
0.00021753405
0.0002170001
0.00021647904
0.00021598451
0.00021552942
0.00021512669
0.00021478825
0.00021452438
0.00021434432
0.00021425659
0.00021426948
0.0002143913
0.00021463023
0.00021499371
0.00021514246
0.00021464708
0.00021424099
0.0002139489
0.00021379563
0.00021380166
0.00021397793
0.00021432249
0.00021482032
0.00021544626
0.00021616931
0.00021695703
0.00021777885
0.00021860822
0.00021942364
0.00022020869
0.0002209517
0.00022164495
0.0002222839
0.00022286641
0.0002233919
0.00022386051
0.00022425959
0.00022210981
0.00022182772
0.00022153544
0.00022121552
0.00022086569
0.00022048469
0.00022007071
0.00021962359
0.00021914414
0.00021863467
0.00021809932
0.00021754442
0.00021697877
0.00021641366
0.00021586249
0.00021534096
0.00021486402
0.00021444622
0.0002141006
0.00021383794
0.00021366755
0.00021359796
0.00021363768
0.00021379569
0.00021408146
0.00021450431
0.00021472055
0.00021411268
0.00021359556
0.00021320037
0.00021296003
0.0002129031
0.00021304616
0.00021338862
0.00021391246
0.00021458662
0.00021537313
0.00021623293
0.0002171301
0.00021803426
0.00021892153
0.00021977432
0.00022058062
0.000221333
0.00022202755
0.0002226629
0.00022323935
0.00022375809
0.00022420774
0.00022169198
0.00022141748
0.00022112987
0.00022081118
0.00022045899
0.00022007181
0.00021964761
0.000219186
0.00021868761
0.00021815466
0.00021759142
0.00021700468
0.00021640408
0.00021580235
0.00021521494
0.00021466001
0.00021415501
0.00021371656
0.00021335885
0.00021309302
0.00021292822
0.00021287273
0.00021293511
0.00021312506
0.00021345367
0.00021393286
0.00021425052
0.0002135194
0.00021287901
0.00021236819
0.00021203015
0.00021190427
0.00021201481
0.0002123627
0.00021292538
0.00021366348
0.00021452963
0.00021547638
0.0002164614
0.00021745008
0.00021841621
0.00021934134
0.00022021359
0.00022102626
0.00022177648
0.00022246408
0.00022309053
0.00022365828
0.0002241572
0.00022126455
0.0002209995
0.00022071797
0.00022040172
0.00022004818
0.00021965559
0.00021922159
0.00021874541
0.00021822733
0.0002176693
0.00021707553
0.00021645308
0.00021581239
0.00021516771
0.00021453684
0.00021394103
0.00021340092
0.00021293561
0.00021256063
0.00021228724
0.00021212402
0.00021207852
0.00021215905
0.00021237601
0.00021274245
0.00021327368
0.00021373574
0.00021286862
0.00021208972
0.00021144686
0.00021099637
0.00021079251
0.00021087036
0.00021123275
0.00021185021
0.00021267158
0.00021363691
0.0002146881
0.00021577521
0.00021685909
0.00021791142
0.0002189134
0.00021985391
0.00022072755
0.00022153303
0.00022227175
0.0002229467
0.00022356177
0.00022410824
0.00022083013
0.00022057514
0.0002203008
0.00021998817
0.00021963438
0.00021923729
0.00021879407
0.00021830343
0.00021776508
0.00021718045
0.00021655346
0.00021589121
0.00021520481
0.00021451007
0.00021382755
0.00021318234
0.00021259922
0.00021210048
0.00021170314
0.00021141819
0.00021125292
0.0002112135
0.00021130753
0.00021154586
0.00021194383
0.00021252105
0.00021318154
0.00021216354
0.00021122737
0.00021043112
0.00020984791
0.00020955278
0.00020959666
0.0002099849
0.00021067746
0.00021160637
0.00021269469
0.00021387089
0.00021507618
0.00021626672
0.00021741264
0.00021849559
0.000219506
0.00022044054
0.00022130006
0.00022208804
0.00022280931
0.00022346945
0.00022406125
0.00022038972
0.00022014734
0.00021988196
0.00021957446
0.00021922182
0.00021882144
0.00021836994
0.00021786529
0.00021730638
0.00021669386
0.00021603098
0.0002153246
0.00021458624
0.00021383322
0.00021308931
0.00021238447
0.00021174897
0.0002112094
0.0002107844
0.00021048409
0.00021031343
0.00021027628
0.00021037874
0.00021063181
0.00021105325
0.00021166798
0.00021248797
0.00021140874
0.00021029277
0.00020931566
0.00020857195
0.00020816617
0.00020817326
0.00020860214
0.00020939636
0.0002104637
0.00021170423
0.00021302961
0.00021437107
0.00021568035
0.00021692697
0.00021809422
0.00021917518
0.00022016951
0.00022108093
0.00022191543
0.00022268008
0.00022338233
0.00022401668
0.00021994849
0.00021971881
0.00021946344
0.00021916242
0.00021881228
0.0002184099
0.00021795115
0.00021743309
0.0002168535
0.00021621187
0.00021551041
0.00021475529
0.00021395803
0.00021313731
0.00021232049
0.00021154385
0.00021084521
0.00021025696
0.00020979967
0.00020948154
0.00020930365
0.00020926603
0.00020937229
0.00020963287
0.00021006791
0.00021070868
0.00021159522
0.00021061223
0.00020928938
0.00020809624
0.00020715387
0.000206609
0.00020657408
0.00020706365
0.00020799502
0.00020924066
0.00021066943
0.00021217232
0.00021366971
0.00021510992
0.00021646351
0.00021771709
0.00021886787
0.00021991954
0.00022087946
0.00022175672
0.00022256092
0.00022330159
0.00022397506
0.00021950516
0.00021929151
0.00021904837
0.00021875576
0.00021841009
0.00021800768
0.00021754355
0.00021701362
0.00021641425
0.0002157433
0.00021500138
0.00021419341
0.0002133303
0.00021243156
0.00021152844
0.00021066535
0.00020989064
0.00020924491
0.00020875099
0.00020841355
0.00020822737
0.00020818675
0.00020829152
0.00020855063
0.0002089863
0.00020963712
0.00021055612
0.00020978579
0.00020822419
0.00020677045
0.00020557697
0.00020485083
0.00020476484
0.00020534336
0.00020646037
0.00020793643
0.00020959799
0.00021131118
0.00021298566
0.0002145684
0.00021603363
0.00021737362
0.0002185915
0.00021969634
0.00022069994
0.00022161499
0.00022245392
0.00022322851
0.00022393702
0.00021907048
0.00021887236
0.00021864245
0.00021835984
0.00021802045
0.0002176199
0.00021715221
0.00021661194
0.00021599364
0.00021529304
0.00021450845
0.00021364274
0.00021270536
0.00021171574
0.00021070897
0.00020973999
0.00020887229
0.00020815859
0.00020762465
0.00020726905
0.00020707667
0.00020703334
0.00020713342
0.00020738298
0.00020780509
0.00020844619
0.00020937508
0.00020894599
0.00020710942
0.00020533971
0.00020382306
0.0002028521
0.00020269925
0.00020340826
0.00020477851
0.00020655389
0.00020850318
0.00021046405
0.00021233725
0.00021407233
0.00021565115
0.0002170748
0.00021835456
0.00021950625
0.000220547
0.00022149353
0.00022236132
0.00022316446
0.00022390319
0.00021863598
0.00021845735
0.00021824312
0.00021797275
0.00021764212
0.00021724622
0.00021677801
0.00021623046
0.00021559601
0.00021486762
0.00021404047
0.00021311437
0.00021209613
0.00021100349
0.00020987444
0.00020877719
0.00020779733
0.00020700584
0.00020643209
0.00020606427
0.00020587141
0.00020582696
0.00020591818
0.0002061467
0.00020653472
0.00020713686
0.00020804147
0.00020811852
0.00020596555
0.00020381229
0.00020187411
0.000200561
0.00020031285
0.00020121597
0.00020293557
0.00020510219
0.00020740649
0.00020965635
0.00021174869
0.00021364235
0.00021533252
0.00021683318
0.00021816633
0.00021935604
0.00022042547
0.00022139572
0.00022228538
0.00022311085
0.00022387425
0.00021822452
0.00021806422
0.00021786677
0.00021761071
0.0002172915
0.00021690339
0.00021643812
0.00021588685
0.00021523945
0.0002144854
0.00021361561
0.00021262542
0.00021151738
0.00021030506
0.00020902677
0.00020776684
0.00020664391
0.0002057577
0.00020514273
0.00020477041
0.0002045851
0.00020454315
0.00020462402
0.00020482372
0.00020515984
0.00020569332
0.00020653492
0.00020733196
0.00020482218
0.00020220864
0.00019971698
0.00019791038
0.0001975128
0.0001987118
0.00020091981
0.00020360118
0.00020634157
0.00020892368
0.0002112514
0.0002133036
0.0002150967
0.00021666255
0.00021803665
0.0002192526
0.00022034015
0.00022132485
0.00022222831
0.00022306904
0.00022385088
0.00021781552
0.00021767778
0.00021749948
0.00021726
0.00021695498
0.00021657807
0.00021611976
0.00021556932
0.00021491381
0.00021413867
0.00021322934
0.00021217512
0.00021097253
0.00020962761
0.0002081736
0.00020671245
0.00020541295
0.00020442127
0.00020377881
0.00020342913
0.00020327639
0.00020325207
0.0002033275
0.00020349173
0.00020375028
0.00020416606
0.00020487699
0.00020604449
0.00020373922
0.0002005764
0.00019735639
0.00019481897
0.00019416278
0.00019582629
0.0001987262
0.00020208864
0.0002053599
0.00020831503
0.00021088526
0.00021308586
0.00021496481
0.00021657746
0.00021797536
0.00021920259
0.00022029555
0.00022128397
0.00022219212
0.00022304029
0.00022383369
0.00021746666
0.00021734977
0.00021719199
0.00021697202
0.00021668535
0.000216325
0.0002158803
0.00021533853
0.00021468369
0.00021389647
0.00021295523
0.00021184058
0.00021054027
0.00020904823
0.00020738206
0.0002056578
0.00020412083
0.00020299586
0.00020233318
0.00020203178
0.00020193045
0.00020192633
0.00020198787
0.00020210281
0.00020225538
0.00020250454
0.00020302079
0.00020405081
0.00020278369
0.00019900774
0.00019485507
0.00019121689
0.00019006671
0.00019247572
0.00019636515
0.00020063217
0.00020453907
0.00020789667
0.00021069963
0.00021302312
0.00021495924
0.0002165923
0.00021799165
0.00021921189
0.00022029547
0.00022127558
0.00022217848
0.00022302565
0.00022382323
0.00021719909
0.00021710743
0.00021697411
0.00021677816
0.00021651541
0.00021617835
0.00021575513
0.00021523103
0.00021458686
0.00021379818
0.00021283501
0.00021166648
0.00021026897
0.00020862107
0.00020670917
0.00020464801
0.0002028004
0.00020153088
0.00020089708
0.0002007276
0.00020075066
0.00020081545
0.00020089867
0.00020100046
0.00020105808
0.00020110311
0.00020133576
0.00020206489
0.0002023304
0.0001978297
0.00019245864
0.00018713156
0.00018496612
0.00018857958
0.00019388904
0.00019935202
0.00020399564
0.00020775657
0.00021075345
0.00021315217
0.00021510201
0.00021671999
0.00021809308
0.00021928497
0.00022034264
0.00022130143
0.00022218855
0.00022302589
0.00022381992
0.00021725846
0.00021719493
0.00021709207
0.00021692793
0.00021669868
0.00021639656
0.0002160091
0.00021552023
0.00021490827
0.00021414429
0.0002131895
0.00021199801
0.0002105295
0.00020874349
0.00020657157
0.00020407857
0.00020179819
0.00020036198
0.0001998171
0.00019989051
0.00020011567
0.00020027565
0.00020037197
0.00020045608
0.00020037458
0.00020009685
0.00019988548
0.00020010387
0.00020118749
0.00019740749
0.00019066742
0.00018292336
0.00017862154
0.00018417124
0.00019147472
0.00019845882
0.00020390083
0.00020800736
0.00021111307
0.00021350934
0.0002154121
0.0002169701
0.00021828435
0.00021942416
0.00022043829
0.00022136224
0.00022222283
0.0002230414
0.00022382401
0.00021801659
0.00021798802
0.00021793024
0.00021781604
0.00021764167
0.00021739926
0.00021707629
0.0002166559
0.00021611432
0.00021541815
0.00021451881
0.00021334984
0.00021184382
0.00020993932
0.00020749644
0.00020442633
0.00020148969
0.00019989397
0.00019959347
0.00020019015
0.00020083208
0.00020121682
0.00020139324
0.00020158835
0.00020150577
0.00020093641
0.00020031721
0.00019986222
0.00020080874
0.00019976825
0.00019130295
0.00018002758
0.00017095494
0.00017966526
0.00018948615
0.00019827787
0.00020449394
0.00020878521
0.00021184588
0.00021412467
0.00021590142
0.00021734646
0.00021856604
0.00021962892
0.00022058168
0.00022145746
0.00022228103
0.00022307211
0.00022383556
0.00022066557
0.00022071406
0.00022074425
0.00022072405
0.00022065161
0.00022051996
0.00022031782
0.00022002928
0.00021963059
0.00021908697
0.00021834454
0.00021731874
0.00021590678
0.00021402616
0.00021147602
0.0002077995
0.00020389761
0.00020238031
0.00020273885
0.00020452006
0.00020601949
0.00020692178
0.00020733289
0.00020798205
0.00020832334
0.00020732551
0.00020618882
0.00020432384
0.00020495923
0.00020348607
0.00019650467
0.00018118735
0.00016222754
0.00017631622
0.00018870461
0.000199503
0.00020615429
0.00021025083
0.00021300786
0.0002150124
0.00021656956
0.00021784457
0.00021893331
0.00021989527
0.0002207699
0.00022158515
0.00022236199
0.00022311744
0.00022385437
0.00022643005
0.00022657348
0.0002267365
0.00022686448
0.00022695519
0.00022700373
0.00022700292
0.00022694194
0.00022680246
0.00022655482
0.00022614799
0.0002254841
0.00022440044
0.00022273288
0.00022023686
0.00021578387
0.00020958301
0.00020826421
0.0002094993
0.00021350767
0.00021646958
0.00021836389
0.00021897809
0.00022040555
0.0002220987
9.3007402e-05
9.5435561e-05
9.769171e-05
9.9880526e-05
0.00010287854
9.4462576e-05
8.6206086e-05
0.00010657
0.0001793421
0.00019344027
0.00020413295
0.00020945947
0.00021253893
0.00021460923
0.00021615521
0.00021739744
0.00021844919
0.00021937509
0.00022021549
0.00022099777
0.00022174194
0.00022246367
0.0002231763
0.00022388004
0.00023926829
0.00023971647
0.00024021798
0.00024070467
0.00024118562
0.00024166494
0.00024214746
0.00024263691
0.00024313213
0.00024362239
0.00024407496
0.00024439699
0.00024436776
0.00024365229
0.0002420352
0.00023810297
0.00022684794
0.00022938757
0.0002355048
0.00025025893
0.00026141858
0.00027022632
0.00012828712
0.00016685578
0.00032252723
0.00046152158
0.00049956686
0.00049956686
0.00049956686
0.00049956686
0.00049956686
0.00045031418
0.00033650299
6.8076227e-05
0.00021298098
0.00021346676
0.00021438373
0.00021549861
0.00021654007
0.00021748423
0.00021834253
0.0002191336
0.00021987424
0.00022057846
0.00022125804
0.00022192321
0.00022258325
0.00022324715
0.0002239119
0.00026432351
0.00026533343
0.00026648853
0.00026768622
0.00026894706
0.00027029565
0.0002717661
0.00027340143
0.00027525481
0.00027739378
0.00027990474
0.00028288493
0.00028643605
0.00029061288
0.00029526274
0.00030242904
0.00027351824
0.00030512686
0.00035670289
0.00037249495
0.00027876003
0.00032116377
0.00049956686
0.00049956686
0.00049956686
0.00049956686
0.00049956686
0.00049956686
0.00049956686
0.00049956686
0.00041262925
0.00041826152
0.00010203634
0.00026660088
0.0002311471
0.00022210254
0.00021927991
0.00021853882
0.00021855771
0.00021888477
0.00021934404
0.0002198627
0.00022040931
0.00022097059
0.00022154196
0.00022212336
0.00022271728
0.00022332804
0.00022394911
0.00030202437
0.00030416863
0.00030629973
0.00030850263
0.00031085187
0.00031342026
0.00031629376
0.0003195856
0.00032345517
0.00032814606
0.00033405428
0.00034175397
0.00035177551
0.00036477967
0.00038493449
0.0004014987
0.00025755478
0.00025304218
0.00026395377
0.00048903668
0.00047869207
0.00048839441
0.00047869827
0.00047372128
0.00047746494
0.00045865683
0.00045171775
0.00045351454
0.0004409334
0.00043651652
0.00010691485
0.00010766748
0.00021976393
0.00025235286
0.00023695361
0.00022741538
0.00022311995
0.00022122269
0.00022045259
0.00022024752
0.00022034065
0.00022060004
0.00022095762
0.00022137735
0.0002218401
0.00022233628
0.00022286191
0.00022341672
0.00022399067
0.00028851049
0.000289028
0.00028921768
0.0002894046
0.00028959074
0.00028980804
0.00029008247
0.00029045086
0.00029096616
0.00029170589
0.00029279221
0.000293833
0.00029477696
0.00029554516
0.00029291099
0.00010293664
0.00037622392
0.00047077525
0.0004726496
0.00049383693
0.0004861379
0.00048245028
0.00012420913
0.00012127838
0.00010076856
0.00010005199
0.00010062667
0.00010197028
0.00010292468
0.00010451886
0.00020120306
0.00020767055
0.0002180725
0.00023900397
0.0002396343
0.00023076542
0.00022596141
0.00022342027
0.00022211125
0.00022149541
0.00022128261
0.00022131349
0.00022149816
0.00022178477
0.00022214312
0.00022255576
0.00022301312
0.00022351084
0.00022403547
0.00022325669
0.00022309052
0.00022280419
0.00022252759
0.00022226848
0.00022204398
0.00022187005
0.00022177002
0.00022177618
0.00022193338
0.00022230656
0.00022208582
0.00022115435
0.00021940773
0.00021671991
0.00021313833
9.5858074e-05
9.9099892e-05
9.9867125e-05
9.977194e-05
0.00010014758
0.00010017429
0.00021253727
0.00021081109
0.00020892714
0.00020554092
0.00020443219
0.00020387545
0.00020210393
0.00020212143
0.00020330088
0.00020900555
0.00021822722
0.00023216578
0.00023801876
0.00023248522
0.00022786056
0.00022509234
0.00022347876
0.00022258162
0.00022213493
0.0002219781
0.00022201338
0.0002221806
0.00022244246
0.00022277593
0.00022316704
0.00022360801
0.00022408238
0.00021927219
0.0002193524
0.00021947885
0.00021961422
0.00021976974
0.00021995755
0.00022019023
0.00022048384
0.00022085768
0.00022133458
0.00022186231
0.00022155996
0.00022080452
0.00021956879
0.00021779588
0.00021498246
0.00021250124
0.00021402386
0.00021587425
0.00021421253
0.00021237933
0.00021121337
0.00021005653
0.00020833455
0.00020730053
0.00020568286
0.00020477642
0.00020420166
0.00020347538
0.00020394354
0.0002059267
0.00021088183
0.00021854051
0.00022809984
0.00023382378
0.00023318477
0.00022902331
0.00022628856
0.00022455075
0.00022348714
0.00022287771
0.00022257707
0.00022249016
0.00022255495
0.00022273088
0.00022299157
0.00022332007
0.00022370597
0.00022413027
0.00021789747
0.00021797688
0.00021810194
0.00021824037
0.00021839505
0.00021857354
0.00021878435
0.00021903859
0.00021934877
0.00021972859
0.00021997162
0.00021947936
0.00021872109
0.00021764675
0.00021622001
0.00021438512
0.00021325537
0.00021410748
0.00021526707
0.00021349321
0.00021189973
0.0002106804
0.00020952359
0.00020830838
0.00020735335
0.00020629414
0.0002056435
0.00020528257
0.00020520779
0.00020608298
0.00020832584
0.00021261407
0.00021875218
0.00022560745
0.00023029309
0.00023231085
0.00022962962
0.0002270836
0.00022534973
0.00022421237
0.00022350345
0.00022310113
0.00022291989
0.00022290058
0.00022300261
0.00022319832
0.00022346907
0.00022380266
0.00022417812
0.00021721955
0.00021734034
0.00021747978
0.00021763047
0.0002177984
0.00021798997
0.00021821139
0.00021847015
0.00021877326
0.00021912612
0.00021920826
0.00021876497
0.00021811335
0.00021722338
0.00021607488
0.0002148161
0.00021418988
0.00021469393
0.00021503742
0.00021340977
0.00021201203
0.00021085987
0.00020980214
0.00020882038
0.00020800007
0.00020726426
0.0002068454
0.00020673027
0.00020702598
0.00020811854
0.00021033023
0.00021398677
0.00021886457
0.0002240032
0.00022785697
0.00023021297
0.00022984852
0.00022756146
0.00022591274
0.00022477034
0.00022401387
0.00022354727
0.00022329798
0.00022321283
0.00022325352
0.00022339276
0.00022361143
0.00022389631
0.000224225
0.00021693016
0.00021700288
0.00021711852
0.00021725331
0.00021740534
0.00021757813
0.00021777547
0.00021800227
0.0002182624
0.00021855735
0.0002185171
0.00021812747
0.00021759491
0.00021690784
0.00021607882
0.00021528507
0.00021497203
0.00021536064
0.00021499441
0.00021359303
0.00021236738
0.00021132062
0.00021038693
0.00020956629
0.00020889169
0.00020837329
0.00020813222
0.00020820486
0.00020870823
0.00020988339
0.00021194825
0.00021504547
0.00021894549
0.00022293786
0.00022613374
0.00022829865
0.000229299
0.00022779575
0.00022628026
0.00022518054
0.00022441672
0.00022391713
0.00022362318
0.00022348928
0.00022348091
0.00022357245
0.00022374514
0.00022398547
0.00022427011
0.00021678733
0.00021690006
0.00021702527
0.0002171606
0.00021731005
0.00021747669
0.00021766223
0.00021786851
0.00021809559
0.00021834031
0.00021824365
0.00021789482
0.00021744254
0.00021689152
0.00021628183
0.0002157723
0.00021563016
0.00021596014
0.00021504737
0.00021385776
0.00021279429
0.00021186805
0.00021105864
0.00021037363
0.00020983589
0.00020947797
0.00020937515
0.00020957998
0.00021019385
0.00021137278
0.00021325268
0.00021587809
0.00021903759
0.00022222847
0.00022490328
0.00022685204
0.00022808583
0.00022785234
0.00022649189
0.00022546509
0.00022472323
0.00022421554
0.00022389677
0.00022372937
0.00022368345
0.00022373578
0.00022386872
0.000224069
0.00022431282
0.00021671366
0.0002167834
0.00021688944
0.00021701234
0.00021714961
0.00021730235
0.00021747075
0.00021765501
0.00021785323
0.00021805993
0.00021796327
0.00021767797
0.000217322
0.00021690847
0.00021648577
0.00021617876
0.00021615227
0.00021618093
0.00021513964
0.0002141383
0.00021322683
0.00021242497
0.00021173522
0.00021117091
0.00021075477
0.00021052234
0.00021052803
0.00021082443
0.00021149161
0.00021263123
0.00021432132
0.00021655559
0.00021915286
0.00022176003
0.00022401921
0.00022575612
0.00022694516
0.00022750446
0.00022658182
0.00022564576
0.00022494607
0.0002244492
0.00022412178
0.00022393401
0.00022386086
0.00022388197
0.00022398126
0.0002241461
0.00022435265
0.00021666006
0.00021675128
0.00021685775
0.0002169735
0.0002171001
0.00021723854
0.00021738791
0.00021754704
0.00021771257
0.00021787775
0.00021779243
0.00021755439
0.00021727193
0.00021696396
0.00021667822
0.00021650829
0.00021655947
0.00021610866
0.00021525309
0.0002144163
0.00021364513
0.00021296456
0.00021238841
0.00021193399
0.00021162476
0.0002114939
0.00021158432
0.00021194229
0.00021262795
0.00021370641
0.0002152172
0.0002171298
0.00021929532
0.00022146334
0.00022338833
0.00022492998
0.0002260484
0.00022677358
0.0002265802
0.00022574283
0.0002250981
0.00022462576
0.00022430235
0.00022410511
0.00022401373
0.00022401088
0.00022408228
0.00022421627
0.00022438927
0.00021662755
0.00021669386
0.00021678846
0.00021689545
0.00021701263
0.00021713971
0.00021727479
0.00021741569
0.00021755807
0.00021769445
0.0002176441
0.00021745596
0.00021724201
0.00021702335
0.00021684278
0.00021676989
0.00021670778
0.00021608793
0.00021538528
0.00021469143
0.00021404787
0.00021348143
0.00021301115
0.00021265653
0.00021244085
0.00021239363
0.00021254977
0.00021294736
0.00021362998
0.0002146378
0.00021598596
0.00021763441
0.00021946332
0.00022129203
0.00022294558
0.00022431227
0.00022534882
0.00022606485
0.00022637888
0.00022577383
0.00022519147
0.00022475306
0.00022444322
0.00022424528
0.00022414328
0.00022412287
0.00022417171
0.00022427927
0.00022442247
0.00021660339
0.00021667549
0.00021676556
0.00021686374
0.00021696969
0.00021708304
0.00021720148
0.00021732233
0.00021744093
0.00021754992
0.00021753431
0.00021738782
0.00021722998
0.00021708178
0.00021697951
0.00021694971
0.0002166439
0.00021610921
0.00021553458
0.00021496511
0.00021443662
0.00021397551
0.00021360262
0.00021333809
0.00021320405
0.00021322624
0.00021343311
0.00021385473
0.00021452157
0.00021545683
0.00021666094
0.00021809206
0.00021965455
0.00022121544
0.00022264631
0.0002238584
0.00022481015
0.0002254998
0.00022595163
0.00022575405
0.00022523726
0.00022483873
0.00022454935
0.00022435753
0.00022425117
0.00022421872
0.00022424978
0.00022433508
0.00022445217
0.00021659215
0.00021665194
0.00021673421
0.00021682498
0.00021692228
0.00021702515
0.00021713085
0.00021723638
0.00021733698
0.00021742566
0.00021744587
0.00021733663
0.00021722603
0.00021713373
0.00021708987
0.00021696857
0.00021660038
0.00021616518
0.00021569929
0.00021523838
0.00021481307
0.000214448
0.00021416387
0.00021398027
0.00021391751
0.00021399767
0.00021424374
0.00021467863
0.00021532284
0.00021618809
0.00021726641
0.00021851802
0.00021986658
0.00022121227
0.00022245856
0.00022353478
0.00022440329
0.00022505636
0.0002255077
0.00022566372
0.00022524521
0.00022488986
0.00022462564
0.00022444506
0.00022433934
0.0002242995
0.000224317
0.00022438384
0.0002244784
0.00021658815
0.0002166465
0.00021672318
0.00021680616
0.0002168941
0.00021698599
0.00021707897
0.00021717004
0.00021725465
0.00021732645
0.00021736655
0.00021729802
0.00021722573
0.00021717673
0.00021711288
0.00021690011
0.00021659931
0.00021624886
0.00021587653
0.00021551089
0.0002151779
0.00021489984
0.00021469616
0.0002145851
0.00021458479
0.00021471381
0.00021499043
0.00021543156
0.0002160502
0.00021685043
0.00021781989
0.00021892246
0.00022009694
0.00022126701
0.00022235875
0.00022331566
0.00022410472
0.00022471553
0.00022515504
0.00022544141
0.00022522369
0.00022491289
0.00022467676
0.00022451109
0.0002244099
0.00022436647
0.00022437402
0.00022442587
0.00022450124
0.00021659265
0.00021664453
0.0002167154
0.00021679188
0.00021687213
0.00021695498
0.00021703752
0.00021711688
0.00021718886
0.00021724793
0.000217287
0.00021726726
0.00021722563
0.00021717681
0.00021706249
0.00021687273
0.00021663135
0.0002163543
0.00021606344
0.00021578187
0.00021553154
0.00021533212
0.00021520125
0.0002151553
0.00021521004
0.0002153808
0.00021568176
0.00021612488
0.00021671762
0.00021745907
0.00021833489
0.00021931305
0.0002203442
0.00022136902
0.00022233004
0.00022318191
0.00022389627
0.00022446196
0.00022488181
0.00022516839
0.00022518001
0.00022491364
0.00022470711
0.00022455879
0.00022446499
0.00022442099
0.00022442164
0.00022446154
0.00022452083
0.00021660308
0.00021665171
0.0002167176
0.00021678782
0.0002168607
0.00021693512
0.00021700826
0.00021707749
0.00021713909
0.00021718836
0.00021721953
0.00021722476
0.00021719886
0.00021713609
0.00021702809
0.00021687688
0.00021668845
0.00021647586
0.00021625668
0.00021604979
0.00021587368
0.00021574542
0.00021568052
0.00021569328
0.00021579703
0.00021600409
0.0002163251
0.00021676801
0.00021733618
0.00021802549
0.00021882104
0.0002196948
0.00022060662
0.00022150979
0.00022235908
0.000223118
0.00022376259
0.00022428204
0.00022467683
0.00022495573
0.00022509733
0.00022489703
0.00022472062
0.00022459111
0.00022450674
0.00022446448
0.0002244607
0.00022449127
0.00022453735
0.00021661891
0.00021666357
0.00021672498
0.00021678984
0.00021685641
0.00021692361
0.00021698882
0.0002170497
0.0002171031
0.00021714515
0.00021717131
0.00021717655
0.00021715578
0.00021710458
0.00021702035
0.00021690499
0.00021676416
0.0002166088
0.00021645331
0.00021631324
0.00021620411
0.00021614048
0.00021613568
0.00021620181
0.00021634979
0.0002165892
0.00021692758
0.00021736963
0.00021791567
0.00021855954
0.00021928653
0.00022007224
0.00022088375
0.00022168384
0.00022243664
0.00022311273
0.00022369218
0.00022416524
0.00022453119