/*--------------------------------*- C++ -*----------------------------------*\
| =========                 |                                                 |
| \\      /  F ield         | foam-extend: Open Source CFD                    |
|  \\    /   O peration     | Version:     4.1                                |
|   \\  /    A nd           | Web:         http://www.foam-extend.org         |
|    \\/     M anipulation  |                                                 |
\*---------------------------------------------------------------------------*/
FoamFile
{
    version     2.0;
    format      ascii;
    class       volVectorField;
    location    "1.5";
    object      U;
}
// * * * * * * * * * * * * * * * * * * * * * * * * * * * * * * * * * * * * * //

dimensions      [0 1 -1 0 0 0 0];

internalField   nonuniform List<vector> 
4393
(
(146.05299 -0.15642766 0)
(146.6013 -0.16285776 0)
(147.01536 -0.16586765 0)
(147.45633 -0.16951381 0)
(147.90712 -0.17391687 0)
(148.37263 -0.17916239 0)
(148.85508 -0.18517231 0)
(149.35661 -0.19180052 0)
(149.87883 -0.19884152 0)
(150.42265 -0.20603249 0)
(150.9881 -0.21305344 0)
(151.57418 -0.21953045 0)
(152.17869 -0.22504439 0)
(152.79812 -0.22914684 0)
(153.42758 -0.23138306 0)
(154.06084 -0.23131992 0)
(154.6904 -0.22857346 0)
(155.30773 -0.22283029 0)
(155.90347 -0.21385872 0)
(156.46768 -0.20150884 0)
(156.99009 -0.18570565 0)
(157.4603 -0.16644128 0)
(157.86798 -0.14377263 0)
(158.20304 -0.11782982 0)
(158.45593 -0.088838713 0)
(158.61795 -0.057154549 0)
(158.68178 -0.023283728 0)
(158.64222 0.012107094 0)
(158.49595 0.04794304 0)
(158.2438 0.082809177 0)
(157.89075 0.1152595 0)
(157.44614 0.14388319 0)
(156.92333 0.16745192 0)
(156.33895 0.18507293 0)
(155.71166 0.19628769 0)
(155.06082 0.20109157 0)
(154.40516 0.19987999 0)
(153.76174 0.19334571 0)
(153.14528 0.18235782 0)
(152.56776 0.16784817 0)
(152.03848 0.15072117 0)
(151.56417 0.13179252 0)
(151.14939 0.11175608 0)
(150.79691 0.091185356 0)
(150.50808 0.070584409 0)
(150.28336 0.050411569 0)
(150.12216 0.030821957 0)
(150.02089 0.011712836 0)
(149.97388 -0.0031750471 0)
(149.47602 -0.39469725 0)
(149.94513 -0.40563703 0)
(150.29114 -0.41372388 0)
(150.66088 -0.42425216 0)
(151.04025 -0.4373374 0)
(151.43425 -0.4530157 0)
(151.84522 -0.4710172 0)
(152.27543 -0.49089688 0)
(152.72655 -0.51204287 0)
(153.19958 -0.53367472 0)
(153.69464 -0.55484136 0)
(154.2108 -0.57442892 0)
(154.74592 -0.59118552 0)
(155.29652 -0.60376757 0)
(155.85772 -0.61080849 0)
(156.42325 -0.61100275 0)
(156.98554 -0.60319014 0)
(157.53595 -0.58642179 0)
(158.06503 -0.55999446 0)
(158.56272 -0.52345167 0)
(159.01865 -0.4765632 0)
(159.42232 -0.41930218 0)
(159.7633 -0.35184018 0)
(160.03137 -0.2745762 0)
(160.21682 -0.18821075 0)
(160.31074 -0.09386177 0)
(160.30559 0.0068228075 0)
(160.19577 0.11160134 0)
(159.97914 0.21739679 0)
(159.6564 0.32039745 0)
(159.23231 0.41640864 0)
(158.71603 0.50123511 0)
(158.12096 0.57118649 0)
(157.46387 0.62355557 0)
(156.76368 0.65692338 0)
(156.03999 0.67122248 0)
(155.31172 0.66757712 0)
(154.59605 0.64799667 0)
(153.90768 0.61501434 0)
(153.25856 0.57134814 0)
(152.65786 0.51963068 0)
(152.11222 0.46222377 0)
(151.62608 0.40111488 0)
(151.20214 0.33790666 0)
(150.84182 0.27391734 0)
(150.54542 0.21020512 0)
(150.31212 0.14705882 0)
(150.14083 0.084314155 0)
(150.03531 0.028565484 0)
(149.74138 -0.62902967 0)
(150.19529 -0.63818684 0)
(150.53035 -0.65031508 0)
(150.88824 -0.66728294 0)
(151.25581 -0.68893946 0)
(151.63812 -0.71506286 0)
(152.03767 -0.74514409 0)
(152.45683 -0.77842506 0)
(152.89741 -0.81388446 0)
(153.36056 -0.85022178 0)
(153.84654 -0.88584828 0)
(154.3546 -0.91889696 0)
(154.88274 -0.94726169 0)
(155.42759 -0.96867456 0)
(155.98433 -0.98082322 0)
(156.54667 -0.98149708 0)
(157.10701 -0.96873545 0)
(157.6566 -0.94094315 0)
(158.18587 -0.89694843 0)
(158.68467 -0.83599978 0)
(159.14253 -0.75772302 0)
(159.54888 -0.66207389 0)
(159.89317 -0.54932297 0)
(160.16501 -0.42010217 0)
(160.35441 -0.27553198 0)
(160.45205 -0.11743288 0)
(160.44988 0.051424002 0)
(160.34167 0.22715567 0)
(160.12378 0.40470539 0)
(159.79625 0.57783373 0)
(159.36359 0.73944198 0)
(158.83518 0.88233371 0)
(158.22505 1.0001515 0)
(157.55103 1.0882422 0)
(156.83322 1.1441999 0)
(156.09238 1.1679679 0)
(155.34836 1.1615415 0)
(154.61897 1.1284168 0)
(153.91925 1.0729536 0)
(153.26118 0.99978767 0)
(152.65377 0.91337033 0)
(152.10335 0.81765846 0)
(151.61404 0.71594848 0)
(151.18822 0.61085028 0)
(150.82699 0.5043811 0)
(150.53022 0.39796865 0)
(150.29664 0.29212709 0)
(150.12699 0.18715411 0)
(150.02927 0.087388643 0)
(149.83393 -0.85790431 0)
(150.27991 -0.86765418 0)
(150.61037 -0.88387304 0)
(150.96345 -0.90738263 0)
(151.32644 -0.93779493 0)
(151.70452 -0.97465987 0)
(152.10037 -1.0172354 0)
(152.51658 -1.0644656 0)
(152.95515 -1.1149385 0)
(153.41746 -1.1668496 0)
(153.90403 -1.2179807 0)
(154.41432 -1.2657067 0)
(154.94649 -1.3070452 0)
(155.49728 -1.3387638 0)
(156.06185 -1.3575498 0)
(156.63378 -1.3602276 0)
(157.20522 -1.3439841 0)
(157.76712 -1.3065434 0)
(158.30954 -1.2462511 0)
(158.82202 -1.1620597 0)
(159.29381 -1.0534501 0)
(159.71406 -0.92034432 0)
(160.07195 -0.7630678 0)
(160.35674 -0.58240549 0)
(160.55796 -0.37978058 0)
(160.66563 -0.15756373 0)
(160.67081 0.080536792 0)
(160.56631 0.32915821 0)
(160.34744 0.58108562 0)
(160.01343 0.82730158 0)
(159.56839 1.0574636 0)
(159.022 1.2609919 0)
(158.38934 1.4285031 0)
(157.68986 1.5531596 0)
(156.94556 1.631507 0)
(156.17901 1.6636062 0)
(155.41153 1.652546 0)
(154.6619 1.6035807 0)
(153.94562 1.5231597 0)
(153.27471 1.4180564 0)
(152.6579 1.2947036 0)
(152.10108 1.1587649 0)
(151.6078 1.0149225 0)
(151.17992 0.86685078 0)
(150.81806 0.71730835 0)
(150.52152 0.56817673 0)
(150.28874 0.42048385 0)
(150.12118 0.27527576 0)
(150.02714 0.13499036 0)
(149.94295 -1.0812993 0)
(150.38085 -1.0925864 0)
(150.70598 -1.1130156 0)
(151.05369 -1.1431833 0)
(151.41166 -1.1825307 0)
(151.78521 -1.2304186 0)
(152.17724 -1.2858851 0)
(152.59056 -1.3475867 0)
(153.02749 -1.4137282 0)
(153.48972 -1.482002 0)
(153.97807 -1.5495498 0)
(154.49229 -1.6129601 0)
(155.0308 -1.6683246 0)
(155.59048 -1.7113742 0)
(156.16644 -1.7377065 0)
(156.75209 -1.7430917 0)
(157.33921 -1.7237945 0)
(157.91828 -1.6768267 0)
(158.4789 -1.6000606 0)
(159.01016 -1.4921917 0)
(159.50093 -1.3526017 0)
(159.94004 -1.1812085 0)
(160.31634 -0.97838735 0)
(160.61871 -0.74502769 0)
(160.83606 -0.48276727 0)
(160.95755 -0.19441489 0)
(160.9731 0.1154951 0)
(160.87414 0.44022448 0)
(160.65447 0.77047495 0)
(160.31206 1.0942724 0)
(159.85036 1.3976026 0)
(159.27939 1.6659246 0)
(158.61571 1.8862699 0)
(157.88111 2.0492482 0)
(157.10034 2.1502665 0)
(156.29855 2.1896725 0)
(155.49911 2.1719848 0)
(154.72211 2.1046065 0)
(153.98362 1.9964333 0)
(153.29565 1.8566452 0)
(152.66649 1.6938198 0)
(152.10132 1.5153895 0)
(151.60293 1.3273987 0)
(151.17244 1.1344916 0)
(150.80975 0.94002709 0)
(150.51359 0.74619854 0)
(150.28213 0.55430193 0)
(150.11703 0.36552479 0)
(150.02585 0.181147 0)
(150.08057 -1.302159 0)
(150.5085 -1.3154752 0)
(150.8268 -1.3403013 0)
(151.16769 -1.3773494 0)
(151.51931 -1.4259557 0)
(151.8871 -1.4853493 0)
(152.27424 -1.5543871 0)
(152.68384 -1.6314721 0)
(153.11857 -1.7144537 0)
(153.58053 -1.800539 0)
(154.07096 -1.8862284 0)
(154.59001 -1.9672973 0)
(155.13644 -2.0388512 0)
(155.7073 -2.0954854 0)
(156.29772 -2.1315793 0)
(156.90084 -2.1417106 0)
(157.50795 -2.1211081 0)
(158.10894 -2.0660082 0)
(158.69273 -1.9738053 0)
(159.24784 -1.8429726 0)
(159.76269 -1.672834 0)
(160.22575 -1.4633148 0)
(160.62553 -1.2147942 0)
(160.95046 -0.92814956 0)
(161.18875 -0.60504786 0)
(161.32849 -0.24850852 0)
(161.3581 0.13632241 0)
(161.26721 0.54141866 0)
(161.0475 0.95531035 0)
(160.69508 1.3627819 0)
(160.21234 1.7455439 0)
(159.60965 2.0842594 0)
(158.90555 2.3615559 0)
(158.12512 2.5649627 0)
(157.29688 2.6886523 0)
(156.44955 2.7335533 0)
(155.60921 2.7061477 0)
(154.79759 2.6165917 0)
(154.03141 2.476774 0)
(153.32254 2.298701 0)
(152.67855 2.0933721 0)
(152.10365 1.8701373 0)
(151.59955 1.6364507 0)
(151.16634 1.3979002 0)
(150.80297 1.1583811 0)
(150.50742 0.92032085 0)
(150.27741 0.68505949 0)
(150.11441 0.45342615 0)
(150.02513 0.22561728 0)
(150.24745 -1.5139748 0)
(150.66384 -1.5296154 0)
(150.97381 -1.5591065 0)
(151.3063 -1.6033693 0)
(151.65004 -1.6616661 0)
(152.01065 -1.7331379 0)
(152.39159 -1.8164998 0)
(152.79636 -1.9099394 0)
(153.22806 -2.0109846 0)
(153.68929 -2.1163792 0)
(154.18182 -2.2219845 0)
(154.70635 -2.3227337 0)
(155.26207 -2.4126736 0)
(155.84633 -2.4851429 0)
(156.45427 -2.5331369 0)
(157.07871 -2.5498617 0)
(157.71031 -2.5293665 0)
(158.33811 -2.4670487 0)
(158.95019 -2.3598528 0)
(159.53433 -2.2061225 0)
(160.07843 -2.0052293 0)
(160.5706 -1.7571721 0)
(160.99904 -1.4623212 0)
(161.35173 -1.1214265 0)
(161.61617 -0.73596463 0)
(161.77915 -0.30886544 0)
(161.82726 0.15443189 0)
(161.74778 0.64487332 0)
(161.5295 1.1489251 0)
(161.16584 1.6478154 0)
(160.6575 2.1181784 0)
(160.0151 2.5346906 0)
(159.2598 2.8743719 0)
(158.42113 3.120898 0)
(157.53284 3.2670752 0)
(156.62836 3.314842 0)
(155.73727 3.2733889 0)
(154.88333 3.1564327 0)
(154.0839 2.9795473 0)
(153.35043 2.7580629 0)
(152.68946 2.5056949 0)
(152.10384 2.2338368 0)
(151.59386 1.9513588 0)
(151.15826 1.6647309 0)
(150.79486 1.378307 0)
(150.50066 1.0946827 0)
(150.27278 0.81515478 0)
(150.11211 0.54015499 0)
(150.02455 0.26910065 0)
(150.44293 -1.7243462 0)
(150.84525 -1.7423281 0)
(151.14526 -1.7765051 0)
(151.46771 -1.8280894 0)
(151.80197 -1.8963196 0)
(152.15387 -1.9803037 0)
(152.52719 -2.0786724 0)
(152.92587 -2.189456 0)
(153.35355 -2.3099155 0)
(153.81342 -2.436373 0)
(154.30794 -2.5640668 0)
(154.83848 -2.6870635 0)
(155.40484 -2.7982706 0)
(156.00479 -2.8896159 0)
(156.63352 -2.9524863 0)
(157.28347 -2.9784606 0)
(157.94447 -2.9601948 0)
(158.60444 -2.8921465 0)
(159.25033 -2.7708438 0)
(159.86903 -2.5946281 0)
(160.44782 -2.3630639 0)
(160.9745 -2.0763117 0)
(161.43704 -1.7347127 0)
(161.82313 -1.3387304 0)
(162.11949 -0.88934864 0)
(162.31155 -0.38898973 0)
(162.38364 0.1570755 0)
(162.32008 0.73911814 0)
(162.10579 1.3416637 0)
(161.73036 1.9420714 0)
(161.19177 2.5108738 0)
(160.50066 3.0150957 0)
(159.68159 3.4244128 0)
(158.77018 3.7175583 0)
(157.80726 3.8858615 0)
(156.83253 3.9329684 0)
(155.88001 3.8718896 0)
(154.97577 3.7210437 0)
(154.13767 3.5006227 0)
(153.37635 3.2299133 0)
(152.69683 2.9256899 0)
(152.10008 2.6015033 0)
(151.58456 2.2675964 0)
(151.14732 1.9311853 0)
(150.78478 1.5969064 0)
(150.49283 1.2673286 0)
(150.26777 0.9435005 0)
(150.10981 0.62535722 0)
(150.02401 0.31165852 0)
(150.66644 -1.9198197 0)
(151.05316 -1.9403808 0)
(151.34163 -1.9796493 0)
(151.6523 -2.0391169 0)
(151.97535 -2.1180126 0)
(152.3168 -2.2154588 0)
(152.68084 -2.3300607 0)
(153.07188 -2.459758 0)
(153.49419 -2.6016098 0)
(153.95169 -2.75157 0)
(154.44769 -2.9042787 0)
(154.98441 -3.0529142 0)
(155.56249 -3.189151 0)
(156.18027 -3.3033149 0)
(156.83313 -3.3848874 0)
(157.51301 -3.4234664 0)
(158.20867 -3.4100167 0)
(158.90652 -3.3379281 0)
(159.59206 -3.2033925 0)
(160.25101 -3.0049766 0)
(160.87003 -2.7426933 0)
(161.43668 -2.4170412 0)
(161.93894 -2.0283577 0)
(162.36434 -1.5766535 0)
(162.69904 -1.0620457 0)
(162.92697 -0.48589754 0)
(163.0298 0.14733544 0)
(162.98824 0.82785395 0)
(162.78203 1.538652 0)
(162.39532 2.2529778 0)
(161.82187 2.9339827 0)
(161.07171 3.5386925 0)
(160.17381 4.0268737 0)
(159.17221 4.37073 0)
(158.11736 4.5600299 0)
(157.05727 4.601208 0)
(156.03149 4.5126957 0)
(155.06864 4.3191655 0)
(154.18673 4.0466223 0)
(153.39497 3.7190632 0)
(152.69613 3.356688 0)
(152.08871 2.9752913 0)
(151.56879 2.5864022 0)
(151.13139 2.1978123 0)
(150.77122 1.8142431 0)
(150.48288 1.4380344 0)
(150.26173 1.0697956 0)
(150.10714 0.70884715 0)
(150.0234 0.35324689 0)
(150.91773 -2.1172087 0)
(151.28554 -2.1402256 0)
(151.56061 -2.1844337 0)
(151.85762 -2.2516932 0)
(152.16757 -2.3412873 0)
(152.49669 -2.4524198 0)
(152.84958 -2.5837522 0)
(153.23121 -2.7332263 0)
(153.64654 -2.8977983 0)
(154.10039 -3.073143 0)
(154.59707 -3.2533637 0)
(155.13992 -3.4307576 0)
(155.73066 -3.5956885 0)
(156.36849 -3.7366708 0)
(157.04911 -3.840911 0)
(157.76393 -3.8955501 0)
(158.50025 -3.8894451 0)
(159.24248 -3.8147444 0)
(159.97411 -3.6674421 0)
(160.67944 -3.446681 0)
(161.34445 -3.1533031 0)
(161.95669 -2.7883986 0)
(162.50442 -2.3523439 0)
(162.97544 -1.8444832 0)
(163.35557 -1.2635718 0)
(163.62729 -0.60916775 0)
(163.76928 0.11599415 0)
(163.75783 0.90295474 0)
(163.56594 1.7338353 0)
(163.17009 2.5777429 0)
(162.55741 3.3889403 0)
(161.73619 4.1111637 0)
(160.7411 4.6904481 0)
(159.62785 5.0901523 0)
(158.46023 5.2985341 0)
(157.29722 5.3265441 0)
(156.18512 5.2003839 0)
(155.15515 4.9531015 0)
(154.2248 4.6180282 0)
(153.4009 4.2247306 0)
(152.68301 3.7971686 0)
(152.06637 3.353366 0)
(151.54408 2.9059321 0)
(151.10869 2.4629503 0)
(150.75295 2.0289355 0)
(150.47001 1.6057335 0)
(150.25416 1.1932982 0)
(150.10388 0.79019783 0)
(150.02267 0.39368738 0)
(151.19491 -2.2894133 0)
(151.5428 -2.3150169 0)
(151.80286 -2.3645517 0)
(152.08435 -2.4402096 0)
(152.37924 -2.541343 0)
(152.69399 -2.6673032 0)
(153.03365 -2.8168989 0)
(153.40376 -2.9881855 0)
(153.8101 -3.1781384 0)
(154.25851 -3.3822708 0)
(154.75455 -3.5942351 0)
(155.30294 -3.8054724 0)
(155.90683 -4.0049564 0)
(156.56667 -4.1791355 0)
(157.27874 -4.3124382 0)
(158.03386 -4.3888488 0)
(158.81744 -4.3944656 0)
(159.61113 -4.3199037 0)
(160.39571 -4.1611501 0)
(161.15368 -3.9184508 0)
(161.87034 -3.5940553 0)
(162.53354 -3.1900481 0)
(163.13238 -2.7069768 0)
(163.65545 -2.1433349 0)
(164.08871 -1.4959564 0)
(164.41343 -0.7616633 0)
(164.60501 0.059732682 0)
(164.63449 0.96148433 0)
(164.46621 1.92601 0)
(164.06591 2.9186333 0)
(163.41036 3.8831237 0)
(162.50397 4.7453058 0)
(161.38874 5.4316498 0)
(160.13694 5.8931866 0)
(158.83099 6.1170148 0)
(157.5444 6.1213658 0)
(156.3316 5.9436611 0)
(155.22608 5.6282005 0)
(154.24361 5.2175201 0)
(153.38722 4.7476887 0)
(152.652 4.2466748 0)
(152.02892 3.7345714 0)
(151.50742 3.224716 0)
(151.07713 2.7250782 0)
(150.72859 2.2395838 0)
(150.45335 1.7692548 0)
(150.24457 1.313132 0)
(150.09981 0.86885064 0)
(150.02177 0.43271466 0)
(151.49948 -2.4722106 0)
(151.82301 -2.5004799 0)
(152.06587 -2.5553014 0)
(152.32962 -2.6393101 0)
(152.60719 -2.7520062 0)
(152.9052 -2.8929692 0)
(153.22912 -3.0612603 0)
(153.58513 -3.25518 0)
(153.97992 -3.4718764 0)
(154.42051 -3.7068607 0)
(154.91394 -3.95347 0)
(155.46668 -4.2023641 0)
(156.08376 -4.4410931 0)
(156.76741 -4.6537936 0)
(157.51497 -4.8215171 0)
(158.31672 -4.9241542 0)
(159.15551 -4.9441375 0)
(160.00917 -4.8701885 0)
(160.85472 -4.6986908 0)
(161.67227 -4.4319159 0)
(162.44653 -4.0744799 0)
(163.16614 -3.6301011 0)
(163.82172 -3.0997178 0)
(164.40349 -2.480754 0)
(164.89836 -1.767377 0)
(165.2868 -0.95235645 0)
(165.54087 -0.030872082 0)
(165.62475 0.99445203 0)
(165.49352 2.1080621 0)
(165.09732 3.2729487 0)
(164.39684 4.4208972 0)
(163.3886 5.4533813 0)
(162.1239 6.2682134 0)
(160.69903 6.7987058 0)
(159.22289 7.0318526 0)
(157.78829 6.9976426 0)
(156.45912 6.7498193 0)
(155.27012 6.3477975 0)
(154.23336 5.8455697 0)
(153.34602 5.2866132 0)
(152.59704 4.7029421 0)
(151.97193 4.1163066 0)
(151.4557 3.5401985 0)
(151.03461 2.9819025 0)
(150.69678 2.4442608 0)
(150.43208 1.9270787 0)
(150.23252 1.4281914 0)
(150.09475 0.94409734 0)
(150.02065 0.46998509 0)
(151.82603 -2.61234 0)
(152.12507 -2.6428349 0)
(152.34917 -2.7027636 0)
(152.59327 -2.7951449 0)
(152.85141 -2.9196497 0)
(153.13037 -3.0761802 0)
(153.43604 -3.2641911 0)
(153.77525 -3.4824135 0)
(154.15566 -3.7283945 0)
(154.58566 -3.9978942 0)
(155.07403 -4.2841716 0)
(155.62935 -4.577281 0)
(156.25912 -4.8634106 0)
(156.96811 -5.1241912 0)
(157.75543 -5.3365726 0)
(158.61096 -5.4750031 0)
(159.5142 -5.5167927 0)
(160.43749 -5.4480676 0)
(161.35256 -5.2660595 0)
(162.23637 -4.9762769 0)
(163.07325 -4.5869117 0)
(163.85343 -4.1040119 0)
(164.57017 -3.5290752 0)
(165.21652 -2.8582137 0)
(165.78151 -2.0821428 0)
(166.24571 -1.1880583 0)
(166.57793 -0.16441826 0)
(166.73487 0.99252354 0)
(166.65994 2.2719559 0)
(166.28244 3.6374635 0)
(165.53809 5.0081779 0)
(164.40823 6.2524332 0)
(162.95571 7.2248704 0)
(161.31244 7.8323763 0)
(159.62583 8.0644531 0)
(158.01429 7.9701507 0)
(156.55207 7.6271183 0)
(155.27293 7.114995 0)
(154.1821 6.5018007 0)
(153.268 5.8391236 0)
(152.51127 5.1626771 0)
(151.89054 4.4950782 0)
(151.38562 3.8491017 0)
(150.97898 3.2305715 0)
(150.65618 2.640626 0)
(150.40541 2.0773896 0)
(150.2176 1.5371662 0)
(150.08853 1.0150962 0)
(150.01928 0.5050874 0)
(152.17935 -2.7796882 0)
(152.44814 -2.8133189 0)
(152.65096 -2.8790947 0)
(152.87285 -2.9805471 0)
(153.10887 -3.1176142 0)
(153.36579 -3.2906233 0)
(153.64986 -3.4995577 0)
(153.96856 -3.7437528 0)
(154.33055 -4.0213736 0)
(154.74574 -4.3286838 0)
(155.22496 -4.6591113 0)
(155.77938 -5.0022863 0)
(156.41968 -5.3431061 0)
(157.15424 -5.6604988 0)
(157.98515 -5.9263842 0)
(158.90247 -6.1077828 0)
(159.88126 -6.174575 0)
(160.88602 -6.1091996 0)
(161.88088 -5.9106359 0)
(162.83858 -5.5898884 0)
(163.74344 -5.1610509 0)
(164.5885 -4.6340079 0)
(165.37094 -4.0115376 0)
(166.08813 -3.2886278 0)
(166.73286 -2.4519072 0)
(167.28709 -1.481029 0)
(167.71683 -0.35460895 0)
(167.97091 0.94106556 0)
(167.97937 2.4040385 0)
(167.64427 4.0039213 0)
(166.86295 5.6489799 0)
(165.5883 7.1629781 0)
(163.89643 8.3337598 0)
(161.97378 9.0269824 0)
(160.02507 9.2407503 0)
(158.20236 9.055167 0)
(156.59013 8.5831031 0)
(155.21677 7.9310007 0)
(154.07572 7.1835812 0)
(153.14267 6.4007169 0)
(152.38728 5.6208198 0)
(151.77975 4.8660332 0)
(151.29389 4.1471578 0)
(150.90818 3.4675423 0)
(150.60555 2.8258706 0)
(150.37265 2.2180638 0)
(150.19946 1.6385477 0)
(150.08101 1.0808848 0)
(150.01763 0.53755196 0)
(152.54658 -2.8777336 0)
(152.78604 -2.9127521 0)
(152.96609 -2.982751 0)
(153.16381 -3.0916505 0)
(153.37544 -3.2396467 0)
(153.60772 -3.4275769 0)
(153.86723 -3.6561119 0)
(154.16202 -3.9254352 0)
(154.5018 -4.2346756 0)
(154.89812 -4.5810562 0)
(155.36418 -4.9586954 0)
(155.91427 -5.3573035 0)
(156.563 -5.7609494 0)
(157.32379 -6.1461446 0)
(158.20365 -6.4791514 0)
(159.19383 -6.7171513 0)
(160.26349 -6.8192773 0)
(161.36559 -6.7626689 0)
(162.45282 -6.5494888 0)
(163.49204 -6.1995296 0)
(164.46827 -5.7356874 0)
(165.37925 -5.1727291 0)
(166.22809 -4.5143058 0)
(167.01857 -3.7533817 0)
(167.7499 -2.8710189 0)
(168.40793 -1.8364753 0)
(168.95706 -0.61458149 0)
(169.33809 0.82229774 0)
(169.46705 2.4854437 0)
(169.21163 4.3584197 0)
(168.41095 6.3451791 0)
(166.96507 8.2114874 0)
(164.96277 9.6394154 0)
(162.67647 10.426516 0)
(160.39867 10.593404 0)
(158.32484 10.270964 0)
(156.54688 9.6242191 0)
(155.07977 8.7944843 0)
(153.89774 7.8854528 0)
(152.9584 6.9643725 0)
(152.21727 6.0703171 0)
(151.63453 5.2228545 0)
(151.17744 4.4290786 0)
(150.82036 3.6885889 0)
(150.54384 2.9967441 0)
(150.33322 2.3466991 0)
(150.17782 1.7306573 0)
(150.07209 1.1404025 0)
(150.01568 0.56686321 0)
(152.94191 -3.0289026 0)
(153.14515 -3.0678636 0)
(153.29987 -3.1444318 0)
(153.47087 -3.2630944 0)
(153.65533 -3.4244793 0)
(153.85969 -3.6301376 0)
(154.09067 -3.8816822 0)
(154.35676 -4.1804576 0)
(154.66861 -4.5269447 0)
(155.03947 -4.9198074 0)
(155.48518 -5.3543803 0)
(156.02362 -5.82089 0)
(156.67424 -6.3029032 0)
(157.4573 -6.7747253 0)
(158.38781 -7.1960025 0)
(159.46055 -7.5099925 0)
(160.63728 -7.6587041 0)
(161.85387 -7.6100781 0)
(163.04603 -7.3708712 0)
(164.17268 -6.9745262 0)
(165.22139 -6.4575326 0)
(166.19793 -5.8418559 0)
(167.11393 -5.1329056 0)
(167.98175 -4.3230649 0)
(168.80991 -3.389484 0)
(169.59117 -2.2903817 0)
(170.28946 -0.9731083 0)
(170.83738 0.60928477 0)
(171.1382 2.48848 0)
(171.02001 4.676695 0)
(170.23671 7.0921545 0)
(168.59186 9.4310438 0)
(166.1783 11.20491 0)
(163.40839 12.090633 0)
(160.71386 12.163267 0)
(158.34338 11.6369 0)
(156.38812 10.754035 0)
(154.83543 9.6998621 0)
(153.62945 8.5978499 0)
(152.70286 7.5197435 0)
(151.99353 6.5016833 0)
(151.45031 5.5575657 0)
(151.03364 4.6885022 0)
(150.71412 3.8888199 0)
(150.47034 3.1495991 0)
(150.28679 2.4606657 0)
(150.15254 1.81169 0)
(150.06173 1.192522 0)
(150.01341 0.5924761 0)
(153.33672 -3.0744957 0)
(153.50557 -3.1135842 0)
(153.63341 -3.1928096 0)
(153.77551 -3.3170219 0)
(153.93012 -3.487156 0)
(154.10333 -3.7054224 0)
(154.30185 -3.9743746 0)
(154.5345 -4.2966002 0)
(154.8128 -4.6741604 0)
(155.15172 -5.1076295 0)
(155.57011 -5.594302 0)
(156.09008 -6.1257923 0)
(156.73686 -6.6861555 0)
(157.53979 -7.2489519 0)
(158.52658 -7.7679797 0)
(159.70015 -8.1687617 0)
(161.01314 -8.3677708 0)
(162.37531 -8.3192653 0)
(163.69576 -8.0394047 0)
(164.92157 -7.5853015 0)
(166.04535 -7.0160009 0)
(167.08546 -6.3636512 0)
(168.06472 -5.6342188 0)
(169.00571 -4.8179504 0)
(169.93039 -3.8861969 0)
(170.84448 -2.7794599 0)
(171.71582 -1.4158539 0)
(172.47123 0.28261954 0)
(173.00647 2.3758533 0)
(173.1104 4.919205 0)
(172.41531 7.8739043 0)
(170.5492 10.863748 0)
(167.57762 13.124129 0)
(164.14728 14.102143 0)
(160.92099 14.001496 0)
(158.20468 13.171818 0)
(156.07002 11.970672 0)
(154.45235 10.635092 0)
(153.25041 9.3056425 0)
(152.36368 8.052364 0)
(151.70909 6.9026602 0)
(151.22341 5.8604497 0)
(150.86073 4.9180366 0)
(150.58869 4.0627692 0)
(150.38476 3.2804881 0)
(150.2333 2.5571893 0)
(150.12362 1.8797785 0)
(150.04992 1.2360923 0)
(150.01084 0.61383772 0)
(153.76084 -3.2080992 0)
(153.8876 -3.2528608 0)
(153.98636 -3.3397271 0)
(154.0975 -3.4741295 0)
(154.21998 -3.657574 0)
(154.35917 -3.8933243 0)
(154.52153 -4.1854086 0)
(154.71589 -4.5383696 0)
(154.95421 -4.9567838 0)
(155.25291 -5.4443857 0)
(155.63377 -6.0020237 0)
(156.12349 -6.6243166 0)
(156.75351 -7.2971465 0)
(157.56426 -7.9951549 0)
(158.6028 -8.6678184 0)
(159.88885 -9.2167864 0)
(161.36502 -9.5155714 0)
(162.90088 -9.49141 0)
(164.3639 -9.1725733 0)
(165.68447 -8.6506751 0)
(166.86663 -8.0171486 0)
(167.9513 -7.3141018 0)
(168.97791 -6.5424163 0)
(169.98179 -5.6881206 0)
(171.00452 -4.721466 0)
(172.07425 -3.568179 0)
(173.16721 -2.1166209 0)
(174.20199 -0.25925523 0)
(175.06017 2.0871687 0)
(175.51864 5.0296978 0)
(175.04385 8.6532193 0)
(172.9576 12.555626 0)
(169.21125 15.537801 0)
(164.85119 16.575828 0)
(160.94405 16.170903 0)
(157.83452 14.890287 0)
(155.53716 13.26242 0)
(153.89443 11.578452 0)
(152.73949 9.9862849 0)
(151.92966 8.5428089 0)
(151.35865 7.2579702 0)
(150.95173 6.1200917 0)
(150.65819 5.1094126 0)
(150.44421 4.2045671 0)
(150.28744 3.3853145 0)
(150.17304 2.6334702 0)
(150.09126 1.9330788 0)
(150.03675 1.2699937 0)
(150.00797 0.63041402 0)
(154.14128 -3.1921522 0)
(154.22733 -3.2351979 0)
(154.29517 -3.3216325 0)
(154.37262 -3.4577979 0)
(154.45939 -3.645751 0)
(154.55987 -3.8897008 0)
(154.67994 -4.1949344 0)
(154.82803 -4.5676423 0)
(155.01616 -5.0145461 0)
(155.2618 -5.5422572 0)
(155.58984 -6.1552591 0)
(156.03234 -6.8515126 0)
(156.62781 -7.6189075 0)
(157.42984 -8.4349287 0)
(158.51482 -9.2497656 0)
(159.93621 -9.9380924 0)
(161.6291 -10.306398 0)
(163.39986 -10.237261 0)
(165.0484 -9.7864424 0)
(166.47993 -9.107208 0)
(167.72007 -8.3494942 0)
(168.84753 -7.5718757 0)
(169.92261 -6.7676619 0)
(170.98848 -5.9218438 0)
(172.10751 -5.0183834 0)
(173.34023 -3.9709833 0)
(174.67701 -2.6209027 0)
(176.02618 -0.79786509 0)
(177.27596 1.6439367 0)
(178.23895 4.9129058 0)
(178.20926 9.3243729 0)
(175.97768 14.531487 0)
(171.14835 18.670672 0)
(165.43992 19.681383 0)
(160.66642 18.749385 0)
(157.13013 16.795997 0)
(154.72112 14.600893 0)
(153.12238 12.494201 0)
(152.07705 10.60774 0)
(151.39256 8.966019 0)
(150.93985 7.549327 0)
(150.63558 6.3236479 0)
(150.42725 5.2537999 0)
(150.28203 4.308219 0)
(150.17947 3.4600494 0)
(150.10676 2.6868396 0)
(150.05587 1.9698762 0)
(150.02241 1.2932031 0)
(150.00485 0.64172134 0)
(154.45445 -3.2995371 0)
(154.49059 -3.3538136 0)
(154.52357 -3.4515143 0)
(154.56307 -3.6000597 0)
(154.60938 -3.8019521 0)
(154.66565 -4.0624822 0)
(154.73688 -4.3885073 0)
(154.83082 -4.7885253 0)
(154.95899 -5.2726181 0)
(155.13909 -5.8524163 0)
(155.39844 -6.5397849 0)
(155.77448 -7.3415308 0)
(156.31198 -8.2533268 0)
(157.07615 -9.2624864 0)
(158.18255 -10.333813 0)
(159.74686 -11.319862 0)
(161.70609 -11.916558 0)
(163.7642 -11.911536 0)
(165.61019 -11.400565 0)
(167.11276 -10.622484 0)
(168.33922 -9.8171025 0)
(169.43484 -9.0544103 0)
(170.48836 -8.2977643 0)
(171.54168 -7.5086355 0)
(172.68438 -6.6870285 0)
(174.04033 -5.7221539 0)
(175.64248 -4.3731766 0)
(177.40126 -2.3783557 0)
(179.21961 0.47245825 0)
(180.99479 4.3237969 0)
(181.86189 9.7668256 0)
(179.76396 16.831951 0)
(173.45416 22.954116 0)
(165.74272 23.679012 0)
(159.90145 21.823574 0)
(155.94817 18.865397 0)
(153.54023 15.929339 0)
(152.0971 13.326791 0)
(151.24844 11.126423 0)
(150.74973 9.2910791 0)
(150.45494 7.7558991 0)
(150.27859 6.4574439 0)
(150.17136 5.3423308 0)
(150.10487 4.3680033 0)
(150.06279 3.5010138 0)
(150.03568 2.7149509 0)
(150.01811 1.9887088 0)
(150.00715 1.3048678 0)
(150.00154 0.64736109 0)
(154.3904 -3.2237718 0)
(154.36593 -3.2735364 0)
(154.35683 -3.3626436 0)
(154.35006 -3.5024194 0)
(154.34649 -3.696658 0)
(154.34734 -3.9522683 0)
(154.35601 -4.2780961 0)
(154.37839 -4.68535 0)
(154.42396 -5.1877827 0)
(154.50842 -5.8021141 0)
(154.65922 -6.5476231 0)
(154.91844 -7.440014 0)
(155.33665 -8.4800777 0)
(155.9871 -9.6587376 0)
(157.03587 -10.96147 0)
(158.71623 -12.230584 0)
(161.00418 -12.981879 0)
(163.43719 -12.811201 0)
(165.51804 -11.924714 0)
(167.05924 -10.715563 0)
(168.202 -9.6041831 0)
(169.21129 -8.6645068 0)
(170.22093 -7.7947038 0)
(171.25037 -6.8991921 0)
(172.41219 -6.0547805 0)
(173.92988 -5.1974102 0)
(175.89649 -4.0122749 0)
(178.20371 -2.1991181 0)
(180.67537 0.51134046 0)
(183.36771 4.0122717 0)
(185.58974 9.8477563 0)
(184.21258 19.137038 0)
(175.98957 28.857269 0)
(165.32191 28.715491 0)
(158.33883 25.413543 0)
(154.09426 21.013628 0)
(151.90498 17.145356 0)
(150.78745 13.994396 0)
(150.24986 11.485984 0)
(150.00763 9.4819973 0)
(149.91265 7.8555106 0)
(149.8886 6.5080221 0)
(149.89661 5.3668695 0)
(149.91706 4.3789939 0)
(149.94023 3.5052188 0)
(149.96152 2.7159952 0)
(149.97889 1.9885001 0)
(149.99134 1.3043814 0)
(149.99812 0.64705506 0)
(153.47982 -3.2531081 0)
(153.38113 -3.3266636 0)
(153.31375 -3.4352812 0)
(153.24066 -3.5951732 0)
(153.16437 -3.8104251 0)
(153.08373 -4.0888429 0)
(152.99987 -4.4402154 0)
(152.91599 -4.8771613 0)
(152.83843 -5.4156002 0)
(152.77932 -6.0757936 0)
(152.76447 -6.8840974 0)
(152.84099 -7.8693756 0)
(153.06683 -9.0474573 0)
(153.51349 -10.425137 0)
(154.39376 -12.047148 0)
(156.1388 -13.835837 0)
(158.84627 -15.083957 0)
(161.75363 -14.968169 0)
(164.03449 -13.943026 0)
(165.42656 -12.550889 0)
(166.21986 -11.486318 0)
(166.91251 -10.750861 0)
(167.70798 -10.146472 0)
(168.52873 -9.4730246 0)
(169.44843 -9.0195103 0)
(170.8605 -8.8500312 0)
(172.96338 -8.294658 0)
(175.6527 -7.0457521 0)
(178.56744 -4.4794618 0)
(182.42457 -0.73055132 0)
(187.15326 7.227322 0)
(188.23985 20.224199 0)
(177.92294 36.674934 0)
(163.24359 34.962522 0)
(155.59241 29.529993 0)
(151.34976 23.09767 0)
(149.73571 18.087977 0)
(149.18413 14.384604 0)
(149.09675 11.618516 0)
(149.18613 9.5002991 0)
(149.33006 7.826912 0)
(149.4784 6.4637319 0)
(149.61191 5.321026 0)
(149.7245 4.33768 0)
(149.81551 3.470737 0)
(149.88643 2.6889223 0)
(149.93932 1.9686879 0)
(149.97542 1.2914557 0)
(149.99467 0.64067815 0)
(150.28024 -3.1526791 0)
(150.03342 -3.2185974 0)
(149.86199 -3.3030547 0)
(149.67381 -3.4326369 0)
(149.47364 -3.6125586 0)
(149.25669 -3.8516461 0)
(149.02048 -4.1607572 0)
(148.76361 -4.5546571 0)
(148.48644 -5.053368 0)
(148.19266 -5.6844501 0)
(147.89777 -6.4882416 0)
(147.64321 -7.5209196 0)
(147.48383 -8.8355195 0)
(147.45929 -10.462605 0)
(147.78284 -12.498002 0)
(149.20044 -15.025622 0)
(152.17819 -17.043965 0)
(155.42517 -16.580236 0)
(157.57862 -14.738374 0)
(158.32716 -12.176329 0)
(158.22609 -10.347158 0)
(158.16077 -9.1876393 0)
(158.39423 -8.4335181 0)
(158.59431 -7.5270105 0)
(158.71352 -7.0269011 0)
(159.6635 -7.0194506 0)
(161.77772 -5.9980698 0)
(164.94735 -4.8768807 0)
(168.68126 -1.9597607 0)
(175.05965 4.1641141 0)
(184.04382 12.172593 0)
(189.64909 24.09155 0)
(176.91781 49.622799 0)
(157.54306 45.379553 0)
(150.91272 34.310653 0)
(147.40232 24.787531 0)
(146.95674 18.486565 0)
(147.31569 14.346154 0)
(147.83416 11.448969 0)
(148.32289 9.3102372 0)
(148.73387 7.6533769 0)
(149.06578 6.3168605 0)
(149.32874 5.2013477 0)
(149.5344 4.24262 0)
(149.693 3.3970622 0)
(149.81293 2.6336383 0)
(149.90067 1.9293336 0)
(149.95989 1.266179 0)
(149.9913 0.6282841 0)
(143.50566 -2.9163474 0)
(143.10554 -3.0085542 0)
(142.79533 -3.1098705 0)
(142.44709 -3.2592378 0)
(142.07253 -3.4615679 0)
(141.66242 -3.726999 0)
(141.20872 -4.067849 0)
(140.70204 -4.501278 0)
(140.13198 -5.0510431 0)
(139.48658 -5.7498312 0)
(138.75918 -6.6453062 0)
(137.97234 -7.8084332 0)
(137.17948 -9.3126085 0)
(136.38995 -11.168372 0)
(135.75623 -13.432541 0)
(136.49892 -16.527351 0)
(140.13771 -19.641723 0)
(144.25045 -18.158634 0)
(146.43098 -15.434415 0)
(146.25366 -11.953234 0)
(144.63044 -10.765109 0)
(143.25129 -10.888883 0)
(142.63163 -11.359255 0)
(142.03833 -10.886551 0)
(141.1667 -10.37307 0)
(141.99341 -10.532495 9.2119893e-18)
(143.27591 -11.925373 -2.0329185e-19)
(145.58284 -13.592748 0)
(146.67196 -7.4764619 1.0013908e-17)
(144.03769 -14.512452 -7.4975699e-18)
(161.53517 -10.13629 4.4265854e-18)
(180.41223 5.4381952 -9.8913099e-18)
(167.92457 72.280861 6.3404432e-18)
(142.12735 58.020498 0)
(140.66629 37.118968 0)
(141.63412 24.701266 0)
(143.57058 17.826158 0)
(145.29826 13.688802 0)
(146.55464 10.909621 0)
(147.47723 8.8885777 0)
(148.16029 7.3278337 0)
(148.67267 6.0661276 0)
(149.0604 5.0085099 0)
(149.35479 4.0950125 0)
(149.57744 3.2853873 0)
(149.74366 2.5511446 0)
(149.86425 1.8711915 0)
(149.94526 1.22905 0)
(149.98814 0.61012016 0)
(129.52844 -2.8669037 0)
(128.74415 -2.9422098 0)
(128.14031 -3.0059286 0)
(127.466 -3.1072936 0)
(126.74116 -3.2482176 0)