/*--------------------------------*- C++ -*----------------------------------*\
| =========                 |                                                 |
| \\      /  F ield         | foam-extend: Open Source CFD                    |
|  \\    /   O peration     | Version:     4.1                                |
|   \\  /    A nd           | Web:         http://www.foam-extend.org         |
|    \\/     M anipulation  |                                                 |
\*---------------------------------------------------------------------------*/
FoamFile
{
    version     2.0;
    format      ascii;
    class       regIOobject;
    location    "1.75/uniform";
    object      profilingInfo;
}
// * * * * * * * * * * * * * * * * * * * * * * * * * * * * * * * * * * * * * //

profilingInfo
(

    {
        id              14;
        parentId        11;
        description     "Foam::Time::writeObject - outputTime";
        calls           15;
        totalTime       0.36583;
        childTime       0;
        onStack         1;
    }

    {
        id              11;
        parentId        1;
        description     "Foam::Time::writeObject";
        calls           1500;
        totalTime       0.369805;
        childTime       0.36583;
        onStack         1;
    }

    {
        id              1;
        description     "application::main";
        calls           1;
        totalTime       50.938908;
        childTime       43.558541;
        onStack         1;
    }

    {
        id              12;
        parentId        1;
        description     "FO::forces::execute";
        calls           1499;
        totalTime       0.887249;
        childTime       0;
        onStack         0;
    }

    {
        id              13;
        parentId        1;
        description     "FO::probes::execute";
        calls           1499;
        totalTime       0.079604;
        childTime       0;
        onStack         0;
    }

    {
        id              2;
        parentId        1;
        description     "functionObjectList::read";
        calls           1;
        totalTime       0.000479;
        childTime       0;
        onStack         0;
    }

    {
        id              3;
        parentId        1;
        description     "fvMatrix::solve_U";
        calls           1500;
        totalTime       3.565934;
        childTime       3.164619;
        onStack         0;
    }

    {
        id              8;
        parentId        1;
        description     "fvMatrix::solve_p";
        calls           6000;
        totalTime       38.65547;
        childTime       37.776172;
        onStack         0;
    }

    {
        id              5;
        parentId        4;
        description     "lduMatrix::smoother_Ux";
        calls           1500;
        totalTime       1.26103;
        childTime       0;
        onStack         0;
    }

    {
        id              7;
        parentId        6;
        description     "lduMatrix::smoother_Uy";
        calls           1500;
        totalTime       1.537903;
        childTime       0;
        onStack         0;
    }

    {
        id              4;
        parentId        3;
        description     "lduMatrix::solver_Ux";
        calls           1500;
        totalTime       1.471274;
        childTime       1.26103;
        onStack         0;
    }

    {
        id              6;
        parentId        3;
        description     "lduMatrix::solver_Uy";
        calls           1500;
        totalTime       1.693345;
        childTime       1.537903;
        onStack         0;
    }

    {
        id              9;
        parentId        8;
        description     "lduMatrix::solver_p";
        calls           6000;
        totalTime       37.776172;
        childTime       9.045045;
        onStack         0;
    }

    {
        id              10;
        parentId        9;
        description     "lduMatrix::solver_topLevelCorr";
        calls           55999;
        totalTime       9.045045;
        childTime       0;
        onStack         0;
    }
);


// ************************************************************************* //
