/*--------------------------------*- C++ -*----------------------------------*\
| =========                 |                                                 |
| \\      /  F ield         | foam-extend: Open Source CFD                    |
|  \\    /   O peration     | Version:     4.1                                |
|   \\  /    A nd           | Web:         http://www.foam-extend.org         |
|    \\/     M anipulation  |                                                 |
\*---------------------------------------------------------------------------*/
FoamFile
{
    version     2.0;
    format      ascii;
    class       volScalarField;
    location    "0.7";
    object      p;
}
// * * * * * * * * * * * * * * * * * * * * * * * * * * * * * * * * * * * * * //

dimensions      [0 2 -2 0 0 0 0];

internalField   nonuniform List<scalar> 
4242
(
-12527.915
-12281.874
-11905.353
-11468.65
-10960.533
-10377.738
-9715.5642
-8973.4582
-8156.0098
-7274.5553
-6348.0835
-5402.2137
-4468.3276
-3586.1765
-2791.5097
-2027.1037
-15489.891
-15197.645
-14724.574
-14187.144
-13580.294
-12904.745
-12159.885
-11348.245
-10474.876
-9548.0802
-8580.0245
-7586.6701
-6587.9735
-5611.3179
-4691.9248
-3830.5981
-19058.142
-18747.081
-18216.333
-17615.668
-16934.96
-16172.988
-15328.624
-14405.074
-13408.99
-12351.021
-11245.757
-10110.981
-8966.5216
-7834.1446
-6739.2978
-5721.2757
-22607.238
-22294.963
-21717.227
-21055.464
-20303.379
-19457.795
-18517.085
-17483.724
-16363.796
-15168.24
-13913.05
-12618.742
-11309.059
-10008.963
-8740.9574
-7544.0938
-24653.153
-24366.519
-23784.654
-23103.621
-22331.958
-21463.709
-20496.172
-19430.543
-18272.014
-17030.952
-15722.722
-14367.157
-12987.462
-11608.611
-10251.311
-8922.9597
-24452.02
-24230.456
-23718.883
-23093.189
-22388.592
-21599.291
-20721.623
-19755.243
-18702.411
-17569.443
-16366.834
-15108.879
-13812.778
-12498.047
-11184.746
-9892.0783
-22010.263
-21894.126
-21550.74
-21080.754
-20543.016
-19942.217
-19274.756
-18538.229
-17730.268
-16850.2
-15900.473
-14886.936
-13818.202
-12705.082
-11559.86
-10395.695
-18672.309
-18619.271
-18462.675
-18201.338
-17862.624
-17467.739
-17028.31
-16547.331
-16021.234
-15443.708
-14807.898
-14108.052
-13340.178
-12502.236
-11594.347
-10623.623
-16036.307
-16020.248
-15975.72
-15847.315
-15650.896
-15424.509
-15155.267
-14844.664
-14505.619
-14144.063
-13753.869
-13322.176
-12830.613
-12258.582
-11588.487
-10809.115
-14618.824
-14615.543
-14590.278
-14553.595
-14491.298
-14315.084
-14065.035
-13835.581
-13624.708
-13410.531
-13194.42
-12968.716
-12694.399
-12324.488
-11826.086
-11179.252
-14029.747
-14026.633
-13997.646
-13923.074
-13804.347
-13679.395
-13556.318
-13375.281
-13171.812
-13066.922
-13109.182
-13180.326
-13134.143
-12902.759
-12469.167
-11818.121
-14331.4
-14310.238
-14242.194
-14129.33
-13989.994
-13839.515
-13689.585
-13615.191
-13681.783
-13966.141
-14733.083
-15210.767
-15132.857
-14679.756
-13974.53
-13006.982
1341.7684
1474.3794
1679.7592
1907.7209
2159.0707
2432.291
2723.2436
3025.73
3331.3628
3629.6283
3908.3768
4154.2789
4351.7888
4484.0236
4556.2319
4630.0503
5563.2471
5643.021
5767.1368
5903.1884
6048.9998
6202.1018
6357.7691
6509.4113
6648.3632
6763.9991
6844.2887
6876.5671
6847.5818
6743.5048
6558.5502
6323.5895
9436.514
9474.6136
9533.6265
9594.477
9652.9268
9704.7777
9743.8587
9762.2205
9750.1836
9696.7358
9590.3921
9420.0861
9175.0454
8845.1608
8433.7512
7990.1201
12369.779
12378.455
12390.386
12395.764
12389.383
12365.566
12316.866
12234.116
12106.633
11922.824
11671.195
11341.056
10921.992
10405.568
9802.179
9175.0544
14048.409
14043.081
14031.132
14007.031
13965.319
13899.441
13801.157
13660.595
13466.569
13207.335
12871.62
12449.064
11929.986
11310.62
10622.217
9966.5143
-10725.351
-10497.902
-10089.521
-9624.4931
-9101.63
-8519.7281
-7879.2245
-7183.9557
-6440.5919
-5659.0374
-4852.003
-4035.0023
-3225.1588
-2441.7335
-1706.6401
-1043.5527
14341.711
14333.619
14316.614
14286.086
14236.674
14161.769
14053.259
13901.583
13696.02
13425.356
13078.926
12647.82
12126.051
11512.883
10819.47
10082.07
14129.705
14119.457
14098.759
14063.506
14008.437
13927.059
13811.532
13652.749
13440.636
13164.769
12815.299
12383.98
11865.081
11257.599
10572.907
9850.2918
13038.792
13040.089
13038.678
13025.815
12995.535
12941.329
12855.055
12727.042
12546.447
12302.024
11983.15
11580.179
11083.43
10488.308
9827.1838
9212.3749
10288.568
10315.011
10354.506
10390.822
10418.765
10432.962
10426.058
10388.898
10310.741
10179.902
9984.8352
9714.4351
9355.8917
8895.7713
8352.0443
7838.1691
6288.9582
6357.1995
6461.6342
6573.5777
6689.7359
6806.4566
6917.7711
7015.7462
7090.4538
7130.4066
7123.5611
7057.73
6917.6825
6684.27
6371.623
6123.8862
1397.2419
1518.8169
1704.3897
1909.2756
2133.3923
2374.9764
2629.7347
2891.2833
3150.7757
3396.9812
3616.9285
3796.6226
3920.1205
3969.0846
3936.8054
3849.6138
-3818.3037
-3631.9497
-3349.6141
-3035.9445
-2686.7154
-2302.8522
-1887.9299
-1447.8024
-991.07447
-528.93273
-74.752925
356.39037
746.43023
1073.1993
1333.3429
1588.552
-5664.2345
-5665.1742
-5669.1018
-5679.6076
-5697.2985
-5724.2486
-5759.2036
-5779.6092
-5740.3849
-5636.1829
-5377.6443
-5033.3118
-5134.5521
-4701.1471
-3889.8503
-2966.2064
-6415.1316
-6407.8379
-6398.1658
-6394.2149
-6399.6044
-6417.8807
-6463.891
-6552.4132
-6614.5832
-6407.6151
-5994.0433
-5500.9345
-5080.3784
-4617.9775
-4067.5259
-3497.723
-6850.3882
-6835.9993
-6807.8793
-6773.3807
-6739.2745
-6720.5929
-6705.8249
-6613.9207
-6451.1208
-6218.3932
-5895.3088
-5514.0137
-5114.5752
-4713.5866
-4308.5608
-3916.9486
-7051.0272
-7034.2015
-6996.7617
-6956.3414
-6902.2759
-6778.1642
-6600.2136
-6419.7228
-6225.6735
-6004.0491
-5751.0472
-5465.2644
-5147.4279
-4798.8467
-4421.5259
-4021.5183
-7789.2127
-7770.4725
-7726.3189
-7624.5097
-7475.8726
-7309.4029
-7120.9332
-6908.0695
-6674.0535
-6417.2124
-6130.6378
-5805.9347
-5437.1633
-5022.5326
-4566.4055
-4077.1651
-9750.5602
-9701.3353
-9560.4696
-9348.7954
-9097.822
-8816.5904
-8506.8055
-8167.8735
-7796.0515
-7385.5698
-6931.7011
-6432.4061
-5888.916
-5306.2233
-4694.5662
-4060.5651
-12429.502
-12324.24
-12032.316
-11648.767
-11221.061
-10750.254
-10232.738
-9667.2718
-9053.372
-8392.333
-7688.7031
-6949.971
-6185.5935
-5407.2457
-4629.6106
-3859.2829
-13782.842
-13601.627
-13198.96
-12716.402
-12178.773
-11580.079
-10917.993
-10193.957
-9411.936
-8579.2807
-7707.2895
-6810.4569
-5905.0595
-5008.7197
-4137.0625
-3289.0934
-13035.292
-12817.194
-12385.619
-11885.832
-11323.785
-10695.092
-9999.3947
-9240.1022
-8423.8237
-7561.1194
-6666.267
-5756.7856
-4851.3359
-3969.2036
-3128.9413
-2351.2271
-8124.2994
-7908.8707
-7545.4935
-7130.0457
-6662.7988
-6145.1447
-5577.8542
-4964.0679
-4309.0516
-3620.8831
-2910.624
-2192.3698
-1483.7622
-809.55752
-197.61353
363.81096
-5846.8573
-5665.562
-5381.9739
-5052.2981
-4668.9684
-4229.4488
-3730.9254
-3173.7902
-2562.7584
-1908.5185
-1227.9873
-543.71228
116.28325
716.85009
1234.3288
1739.7721
-18035.62
-17992.405
-17880.59
-17729.894
-17564.625
-17399.58
-17250.428
-17136.85
-17082.062
-17111.568
-17079.555
-17072.724
-16950.492
-16586.497
-15878.179
-14792.392
-19580.993
-19500.653
-19346.948
-19177.316
-19009.716
-18851.204
-18714.736
-18618.943
-18586.823
-18643.697
-18814.171
-19095.372
-19275.015
-18865.221
-17763.797
-16127.848
-19775.472
-19676.574
-19509.364
-19333.896
-19159.782
-18993.624
-18848.458
-18741.71
-18693.574
-18725.62
-18857.418
-19101.585
-19260.561
-18977.068
-17939.238
-16164.418
-18129.214
-18038.271
-17895.798
-17748.166
-17601.479
-17462.341
-17341.012
-17249.858
-17202.696
-17214.87
-17300.007
-17438.414
-17473.736
-17259.116
-16511.35
-15107.653
-15232.493
-15168.165
-15066.858
-14961.486
-14857.791
-14760.679
-14677.489
-14616.94
-14588.677
-14600.86
-14658.982
-14756.733
-14838.702
-14737.482
-14238.176
-13246.546
-12047.398
-12009.548
-11948.052
-11884.38
-11823.562
-11768.832
-11724.793
-11696.887
-11690.873
-11710.474
-11756.049
-11820.724
-11874.38
-11841.889
-11595.641
-11026.851
-9315.4435
-9296.9198
-9265.4531
-9233.2098
-9203.9967
-9179.8932
-9163.7187
-9158.4222
-9166.1557
-9187.3279
-9219.7929
-9253.6702
-9265.1428
-9218.1113
-9046.7187
-8665.9523
-7264.4105
-7256.3628
-7241.9641
-7227.5078
-7215.6685
-7207.8302
-7205.3062
-7208.8963
-7218.5011
-7231.9691
-7242.1327
-7233.3972
-7187.9376
-7086.0409
-6897.0096
-6608.3202
-5856.9018
-5853.4216
-5846.7676
-5840.185
-5835.4541
-5833.3931
-5834.4427
-5838.3224
-5841.9265
-5838.146
-5814.9988
-5757.7756
-5649.9205
-5467.2162
-5183.5953
-4800.6006
-4983.5612
-4983.0266
-4981.3435
-4979.8914
-4979.587
-4979.5216
-4977.6328
-4971.6592
-4958.4833
-4931.2683
-4878.3973
-4779.9047
-4603.2097
-4307.0393
-3864.5116
-3307.1475
-4547.4367
-4549.9423
-4552.2092
-4553.0581
-4552.3447
-4550.2432
-4545.3536
-4534.4153
-4513.0609
-4476.87
-4416.6903
-4299.1895
-4056.0284
-3670.1637
-3161.7495
-2324.2596
-4499.943
-4506.0785
-4516.9667
-4529.7604
-4544.3973
-4561.6966
-4582.4532
-4606.3461
-4629.4211
-4652.4999
-4696.5491
-4739.3844
-4454.6977
-3910.4204
-2956.7639
-2007.7848
-7834.0543
-7509.9157
-7284.4227
-6858.378
-6361.3336
-5809.6931
-5209.4795
-4566.9029
-3892.7381
-3203.5308
-2518.8276
-1862.4615
-1267.1554
-748.08205
-209.48139
-2088.3041
-1794.663
-1616.786
-1300.6266
-931.19274
-525.41478
-88.260203
375.32055
854.12889
1333.515
1796.2608
2221.1332
2579.5661
2869.016
3166.9846
-5091.5077
-5091.4369
-5091.7158
-5100.5413
-5110.7378
-5114.6412
-5104.5745
-5060.281
-4942.286
-4803.0813
-5083.5997
-5040.2108
-4175.6741
-3221.2793
-2230.3891
-16175.911
-15833.584
-15636.082
-15493.282
-15370.182
-15278.467
-15256.003
-15324.126
-15810.564
-16331.136
-16159.498
-15765.557
-15311.191
-14665.134
-13657.499
-8346.7811
-2493.3503
-5087.1996
-16236.887
-4004.7978
-189.89964
4973.8404
-259.64056
-1259.4122
-1038.2266
2664.1081
1098.1364
2327.5365
113.22881
3173.2728
151.2272
2575.5666
-2390.9228
884.26973
-2473.1966
1400.5781
-8337.7443
-10112.937
460.7262
-1307.4769
2694.7907
2377.5234
1327.5921
2867.6347
-535.75511
-1032.9113
-2117.4011
-553.7644
-3377.521
-715.38453
3267.5204
231.36273
-2124.5114
3055.421
-398.70122
54.044898
2990.3634
1611.9969
-462.65006
-2181.01
-151.80762
1074.0688
47.227671
2312.3281
4359.2567
-826.54346
2720.6892
950.7364
2230.6912
-9222.1062
6963.4732
2304.0259
2583.4747
-5497.9438
-2224.4543
-197.70013
758.51318
2459.6311
-1033.5328
-927.6046
939.73745
2217.782
1616.7347
-2733.8383
-187.24964
506.43918
-1351.2374
-803.71125
-849.61026
-679.77261
-2577.095
-50.10111
38.261391
-208.35476
2388.7178
-3246.1002
-614.9731
39.98063
316.88379
-3792.4478
-9274.5243
-3460.0335
-952.17155
1205.846
-1492.2599
2580.0168
-30.034593
-2432.0315
-192.33189
-1291.4327
225.36656
5187.8426
1379.3512
1875.9647
3604.0866
-9.3653777
5284.5508
-2663.0051
2327.4368
59.060753
-456.98287
103.65868
19.384326
-612.60911
-2484.5891
-1049.782
21.511849
-588.83114
117.94928
-6144.8644
2769.8634
-838.49585
-1488.1496
241.3746
41.916089
3107.4557
239.82447
166.34046
3861.244
2491.2427
2517.6864
-4750.4265
261.82411
-13059.435
-11698.965
1718.8153
-12122.807
-3273.6208
2604.4105
-488.35636
-3954.4717
-591.67372
-184.79595
459.47822
-943.93493
4075.3654
2.0111373
-2789.654
-619.3534
2801.4141
-419.3295
-1667.728
-3915.1227
1.4759157
-0.2138563
-1147.3656
-3194.9273
-680.199
850.40371
2160.6291
-583.85409
-851.43248
3982.3708
-533.25438
2776.6748
-8817.7728
1836.2713
-405.31438
91.231596
-9498.897
-3507.0655
1985.0522
3785.0363
88.106946
-588.37734
-679.1223
2292.6471
-733.19283
136.22436
-2083.2631
5073.2209
-439.79005
332.50608
-546.48526
2916.9561
173.3987
145.34838
-1053.7186
-3175.8473
944.34946
-542.63152
-388.43097
-716.11068
-258.78743
1122.3375
1806.978
-3181.7289
-4745.271
-1628.5014
-254.98061
-850.91204
-2454.5144
-5295.0131
1511.9014
1383.4018
356.95634
530.63706
722.60931
4950.6088
925.19125
-32.297637
-6078.1414
297.65244
3347.0411
1311.4821
2415.4124
-386.71722
4331.932
-319.83573
-1016.7448
-1116.2897
1859.6968
2138.6194
-233.34379
-4.954625
42.404941
2724.3738
2007.0003
-4488.0227
-870.45161
-954.10103
1824.7888
-124.08499
1883.4807
-5854.8418
4043.6832
-109.38937
500.39926
-3025.1502
-5629.3634
3320.8503
-406.33898
1880.5271
-2547.0876
-777.10222
-187.15171
1719.4709
-1283.8586
-229.60336
-767.34878
124.9636
-133.73489
-1387.2155
4354.416
-22.430755
-2023.6049
2485.9747
-660.5453
-970.99189
1006.8645
4638.7628
-279.7187
-74.849612
-10418.98
-9.6158537
3595.8706
0.91392914
42.513612
-1184.646
-346.86236
-157.73762
-512.11601
-566.1488
-238.95305
-1513.357
-1142.1589
-481.43937
-323.513
1437.9228
546.4602
1606.3841
1738.5718
2491.1403
-1949.1676
-672.97806
4193.5046
3150.2109
-685.65975
-270.97304
-3460.0684
-482.64441
-1108.6851
-3303.0821
-6261.7599
-1341.7992
-737.01675
8.3330695
-287.48211
-662.25323
941.87769
-4474.6771
-32.285922
-0.25851131
2987.3639
2196.2612
-803.76702
2800.2604
32.598548
-17.186493
-2791.0626
336.07003
-1748.8859
4643.915
4179.5189
-520.98591
11.799107
269.89969
-686.79708
2095.9759
-7096.2124
-1403.9711
205.19866
-1216.2055
141.7741
-663.64041
132.6711
-1134.1079
4952.321
-1828.2894
1250.3588
2298.1352
66.972618
-151.67943
-52.347585
1951.5586
-2233.643
-618.62524
357.41526
26.23019
6552.7628
-5223.1097
282.88922
2654.9535
-806.99339
-180.62822
2083.5286
-137.66588
81.270341
-1276.2259
-2848.3929
633.99128
-1095.193
4372.6533
-37.420603
-172.05216
790.38509
-2503.4792
669.11517
123.25406
-13.790705
-2836.5192
-616.82074
841.86096
-2970.5005
-3565.604
-51.808608
-2792.9232
-13907.099
2433.708
-502.4586
3134.0121
202.50996
-12292.197
4044.8588
2169.0588
449.62067
-2018.5142
-411.97482
2688.1918
-268.00738
-3203.1838
4302.3777
528.06151
2150.1499
-707.57814
-6372.094
-1125.616
712.7445
-1243.8194
312.63922
3166.2734
2203.3491
-6565.2137
1339.479
5.443969
-3525.3219
-13.669114
2194.08
-4874.0306
336.66838
-446.9304
-812.90341
333.47567
-894.59976
-1200.5322
-365.33715
-298.53416
6496.9787
-1313.3209
-22.407244
-2653.4903
-1342.7042
-3024.3478
1525.3683
-2736.3095
-448.86869
-199.25487
2524.6628
-679.05471
1999.2967
2512.51
23.656724
-754.71909
1941.8269
2160.1311
846.22313
-82.994688
-1295.6414
-106.79206
-2269.7159
-308.16278
-1036.8823
2407.2423
3066.8371
4491.1738
-1078.5732
327.85839
2989.532
-758.84276
901.01719
2204.3417
572.47245
-1091.6198
-10407.543
2127.0929
468.10582
-2423.5072
582.13243
-322.8236
-5471.3485
-2235.7099
-356.98198
-919.64676
-2777.132
-1411.2177
310.848
-202.7794
-1073.3569
2648.5773
166.8119
-5471.8714
287.09284
159.81635
912.39036
-43.786081
2912.0548
60.339165
69.241041
2219.8924
944.72206
3140.1217
-147.15025
1126.7484
743.28133
2614.3425
1254.7522
2882.9636
2221.7445
-1708.9453
-11879.656
-652.13259
3517.4673
-651.42643
-690.18429
-1077.2621
-335.79059
214.53085
6996.6733
-544.74683
-1397.4714
-6118.0301
-2078.3572
-69.876989
-384.40295
-3761.3719
-605.98562
2907.9564
1185.1758
-5035.5008
-7393.5723
-22.39588
-1765.4603
-1322.5744
-239.58608
-2775.5095
193.27158
-324.33582
266.88244
-894.23549
-572.75832
1598.1309
5511.4168
812.40701
2188.8321
-1583.8981
-8871.165
-1257.6948
-158.06828
-4472.2101
-100.28512
81.579211
-671.97648
-1069.2101
-6595.2279
-3189.755
-679.83055
2448.1209
2585.2636
1470.4365
-389.07598
1728.9249
-3808.7811
-57.709007
-1219.8872
-387.52206
-5512.0494
-3368.7379
-2373.4843
2853.6898
865.93937
-2338.2943
3256.3498
361.66652
-2902.7131
2509.0855
2265.5339
999.69755
2498.0585
2452.3542
-9217.1281
-312.9313
-2691.1161
321.33619
500.40809
-5402.0829
2588.5899
1453.6997
-605.8854
809.98042
-454.28319
24.15257
42.641322
3038.3271
955.25834
1111.7773
-1390.1931
-3332.7389
3685.8902
-12038.982
-1140.4722
2259.9566
-11781.923
-23.872449
95.63365
-2801.4327
-2791.4874
-3087.8811
2502.4267
1347.3071
-283.18793
-2101.1512
-5967.8353
2628.9112
4289.8432
3241.9306
2888.6782
-292.70764
2691.9266
2271.64
3567.4591
1964.8897
4460.4561
-733.10324
2414.9322
3468.2248
-76.920257
-529.46919
-13.481005
1652.7579
2588.5209
1107.5059
-2077.2284
1233.4806
-702.56724
6815.6488
1506.3583
-97.970194
6658.5612
2812.7804
-1723.1092
-1026.1737
-6047.208
7219.2226
-2099.2308
-3705.9307
2244.9621
-619.24804
4129.2313
2065.7225
2959.3516
118.1989
18.568257
-6584.3556
3025.5527
7839.2471
2306.1932
-721.83623
1235.5823
-894.56437
-1400.6555
591.94961
-4436.9268
7152.0927
-3410.1177
-127.06659
-519.15888
4625.8268
5014.7784
-2290.2907
-2713.717
-1208.9176
2951.7901
-1896.2358
-606.02913
-69.167909
-315.8543
863.72541
2172.3509
-512.63543
-3247.1228
21.581535
-6538.015
-1175.4008
-3973.5704
1611.6178
559.29571
-786.05742
653.10645
5402.2989
-1383.3707
2374.1513
-131.72044
452.01974
1271.7487
-2174.3978
6957.0559
-463.93508
117.5807
1734.5504
200.22723
-3650.1923
-319.95935
-2173.5423
-378.57514
1223.0475
-4354.5457
-2577.9489
3097.2912
-2182.3478
1889.2597
2536.0038
1898.1173
4587.137
74.924617
3831.5489
-4430.6046
7454.2607
-4169.4054
1333.1047
252.84882
6689.3028
-2057.7315
-4.9465831
-748.76621
738.62417
453.54084
-2534.3906
1450.2966
1251.8117
-9191.3637
-1723.9669
-843.87215
-6335.276
-157.87629
-6567.6759
-5567.4985
-28.28356
629.0741
185.6013
-701.18604
2574.596
347.7715
-2691.3903
2344.4034
-322.54215
42.288519
429.51151
-1459.5981
-187.56982
-6540.5064
1573.3827
-4439.9136
-1130.5459
5334.6635
-5356.1055
-1001.564
-532.91904
-1170.1231
1396.4102
2887.9753
59.533195
-1537.628
-273.00322
4214.2162
2097.1096
-2473.9837
2431.1266
-13.04806
-473.05453
-7743.3153
-5726.7298
1299.3066
-4344.5979
-4952.3843
-792.10468
-6960.3024
1828.7016
192.83208
-599.35362
-83.325564
-924.40827
-1980.4422
104.59424
-8335.3553
-1176.5107
165.54749
-90.931795
-1419.3237
-1079.1526
-2227.3046
1889.6567
1684.0103
-2384.329
-1972.8193
831.78062
-709.10832
-453.37771
3419.0121
535.65832
1055.8283
-85.378497
1118.874
-1566.6504
267.0217
-2532.451
-6523.5116
451.68541
1662.2117
1760.854
1630.5713
-949.66956
471.48252
-689.11519
2381.4835
-647.94309
-770.04672
3282.6752
2433.3352
293.68666
4185.8606
-529.50914
9323.0999
-5748.9782
-2549.4448
-508.25712
24.773708
-2743.6306
2984.2183
-1452.4479
-467.25184
161.69023
104.27747
-6382.2923
-1730.3254
-473.28248
12.254627
12.782641
4226.9008
-132.13314
2141.481
2956.0954
3308.1832
2459.8046
1901.6076
2529.4095
-188.83534
67.290267
-2627.6768
-897.20638
-0.25065849
1903.1208
4200.7907
-894.6318
-1066.0747
709.39868
3104.5486
-897.14926
3252.0706
1475.0224
1425.634
6112.6435
470.69635
102.83376
-917.85245
26.418797
6.5999416
-240.16148
-509.79095
7297.2305
2350.8095
-240.68513
3221.4524
2017.3643
2043.6211
-237.79315
146.29539
3837.7753
-524.72993
1661.062
-393.03699
3530.5442
-974.43484
2365.008
-36.919175
-139.51859
-673.08043
-6267.3999
2310.0755
-4351.3435
-2248.1179
5.677862
-1350.9813
-2280.9844
2737.4238
-389.80769
1411.0076
6003.285
-1444.0498
7583.0184
-8849.4806
676.33605
653.89437
-409.74814
1356.2087
-673.41092
4060.4249
-1976.8827
2334.8771
-731.14253
-795.96594
-2827.6978
-4493.6559
1040.3961
35.940763
-1117.8607
3025.4201
913.30798
-5482.6459
-2712.4236
1570.4416
2240.7467
3342.587
-1821.1005
819.4874
1659.4566
-361.13683
604.10173
9069.4405
-4331.9406
-1189.923
-43.651356
5173.2449
2858.2648
-7791.0944
941.83219
-409.85024
1346.9977
-1071.5632
-4045.1799
-938.94643
1279.508
64.359363
2896.042
-6328.951
-160.01249
-146.02325
-882.94229
-2583.1184
-2325.9907
12.026959
2504.5586
-151.45928
1925.2199
-162.67412
2636.5914
3034.797
3728.4556
3286.6383
-1964.3324
-821.37288
-4627.7261
-803.26607
-10.717944
-1721.8035
-1684.6363
1275.5816
-613.1505
878.47506
2845.4088
-2862.6647
147.29313
-1785.3851
117.98739
-6368.7659
23.675196
262.44272
347.87643
-5924.0581
-1358.4934
-860.70108
-521.03834
1987.0126
3116.5213
1021.789
8336.5764
-1075.3822
234.68633
1971.8613
-723.97883
-1843.7869
-1457.4672
-2568.7155
-1863.8299
1083.2328
3817.0055
4893.0189
-6571.7796
249.79192
2773.5727
-7164.4032
-955.04397
-5884.204
-2988.1693
-7852.9504
1626.5479
544.29106
1341.1812
55.510372
-4256.772
-1961.2317
2262.5673
3721.059
917.68301
2960.2669
4376.0046
1913.6094
-3508.871
-244.88083
3271.4795
-926.13928
-835.44754
498.5018
331.25252
1775.4113
-1995.784
7544.2184
822.34304
-2181.5909
-15.489577
1105.2054
5890.8216
-1291.4351
-10152.077
95.007552
-1585.7765
-192.09556
593.51212
2283.6435
-1776.6224
209.48661
-1985.7986
-3737.174
2146.6201
3645.5021
-245.13706
-5931.8351
2192.4638
2680.5164
544.92529
-645.07846
-2433.1789
-2705.8713
-422.16355
102.78994
-1854.9691
-238.59742
1316.0912
3914.0157
2594.1706
-4087.714
-190.47835
1721.5473
-2447.8447
485.86774
5677.0627
-8676.3401
-217.52964
2959.5206
-1206.2938
2813.2961
246.7571
1507.5231
1654.9738
6456.257
-9176.3809
-3418.3285
52.369341
-2229.8211
130.69626
-3378.3238
89.645212
1733.5016
-4912.3593
-430.18626
2716.0464
-844.08509
-586.42877
-5889.2176
-2317.7015
-618.72116
-3422.0305
679.09917
-728.59857
3559.3856
-1886.2106
-90.852511
-8048.7665
-128.42221
-2305.302
-692.62343
-2344.4125
1773.6685
-2193.2374
2088.4814
737.99729
-2629.2599
-1396.3239
-4441.3781
54.512739
-462.68958
-5399.2582
-119.00727
243.44197
-321.87114
-719.1033
-6206.6133
-676.06208
6536.8606
-1653.704
2988.7678
1450.0172
67.834557
4322.9594
-533.17433
-646.72567
-8307.3629
101.29656
7651.5467
2123.2093
-1464.5989
-3006.7217
1449.0063
-2904.3506
-4529.8439
2507.1639
5312.6447
-1174.3864
-471.59506
101.20223
3273.9184
908.76958
-381.86944
-462.17522
-748.0429
68.614371
2376.6021
-24.890503
-626.49131
607.48867
-548.80431
-1442.6107
9115.0685
351.01364
-6143.656
-5716.0792
-3492.9022
1137.0704
-4591.3564
7189.7954
-129.18635
-4934.2812
-6572.6117
-652.30838
-5714.7838
-4501.8509
-1275.9446
18.703242
-5006.4254
-153.65231
-71.384153
-1067.8696
902.61429
283.2285
-2254.059
7847.5378
-4265.5625
2369.6609
-783.59861
3338.1154
1557.2272
-1612.6905
4471.3927
-8060.384
-5183.6328
3477.6715
-187.91879
-485.50273
2708.0003
-1268.3012
-337.58512
-6686.5072
-1873.1045
-635.55284
-617.72179
-662.55321
-221.53498
-2208.7844
18.626609
-582.35927
-5417.6121
-699.96361
409.19741
-1741.0126
-1.1918181
-1132.4982
-1474.5542
-149.99047
-621.28501
2343.4622
-8593.4866
2925.3637
316.6508
-10086.234
2445.7415
-1466.8768
-3079.2365
-703.8033
102.73707
-3976.9867
1718.5223
-257.17103
-7437.8093
-9.0694255
4080.7641
-2121.015
695.05592
-73.412272
1314.1361
-2429.9538
-6984.9788
275.74933
-10272.841
70.069016
-1123.0512
-4088.0033
2224.3782
-5070.5559
-463.01811
2858.4732
-279.32057
-3772.853
-605.15091
-930.60893
-385.43555
-828.1446
293.85342
-2087.6953
9003.2235
-645.37878
5288.502
-330.6837
6116.943
-4012.5436
-2354.7454
-407.05695
1145.661
1160.1478
4836.9626
-1329.0583
106.88028
3354.4212
1817.9089
16.187769
-7996.9876
-509.07477
4432.4293
1520.3505
-8.8780259
-2797.1825
-645.03153
-1048.1484
1622.2452
1199.4543
-3316.671
-1640.8863
2343.5061
-10156.439
2827.8388
-4850.7951
-73.88616
-1160.2349
2764.1269
-154.46835
6223.1063
2227.9091
-1444.2409
-241.55721
3889.7521
4012.8866
-9647.0694
-283.70758
-1815.2957
-7285.5407
8584.7202
-273.63238
600.47969
1602.4069
-248.91698
-106.81141
-8.6371699
-13667.918
2788.908
-16.847583
-391.57265
-2310.5155
1150.9545
-46.376429
-2568.2842
-436.90206
-261.43928
-628.77245
-1820.2953
-2159.1764
-4997.9134
856.29924
-80.304936
2450.4207
1375.4152
3437.7143
-5152.0013
-2147.5403
-7681.699
-9.0249083
1865.1136
1340.7157
-935.88761
-6289.8125
20.182392
-5134.5372
-4585.5367
-2524.5305
-5788.0337
-1302.9223
1936.3433
2218.9509
-35.693344
-2213.7886
112.42022
-945.74698
-2742.6403
3498.9826
-12337.26
2201.4867
3783.4105
35.639602
4808.518
7497.0188
1558.226
354.67845
-2319.0681
-8473.5164
-1614.5846
4078.9209
983.0248
-1730.0028
-2414.7073
3972.4368
4906.1979
171.00184
5.5503921
-5125.1815
-373.05139
5260.4531
700.65014
726.41471
-1488.6181
-3605.5089
-387.06728
3222.361
-10354.082
205.00363
1306.0441
1723.7277
5653.1208
113.53903
-654.60341
321.68684
2888.8661
-411.33917
12.842923
-6105.1426
71.884076
-631.31384
-1510.3693
-6.99099
-6608.9451
-80.061538
-13309.13
-178.08069
128.45643
2549.2922
-7384.1594
-257.9756
8.6946074
-1523.766
67.342357
470.93718
2306.9948
-1274.7475
1084.5933
1544.5632
-1154.7975
-1926.3883
-3717.0135
153.28487
55.033777
-127.25207
-930.89214
111.04866
1340.6956
610.52016
-162.22359
-5609.9138
2926.9708
2017.588
5219.4063
-1204.3288
-13.47567
-10723.041
3691.0867
-9987.9367
3237.7144
44.88751
-1139.0994
-2384.9992
-496.32747
-1234.3728
-3285.0068
-643.56113
1445.9888
57.768279
2425.8128
-189.09523
183.49886
-239.76316
-663.01107
4570.8534
8.3848788
-696.02198
-530.84741
2751.0694
134.08228
-377.90828
86.854655
-458.44151
-730.5546
6181.4087
-1392.7972
18.089055
-932.95066
3431.0131
-1742.7004
-111.55109
-3801.2486
2901.2791
-3649.2417
256.79833
-237.13218
3655.5888
134.24001
1168.6992
1.0494832
-1911.7499
-1479.1628
2665.2692
-2929.0568
6063.3464
-7981.7626
58.569326
-1044.5635
-4972.2561
-567.31902
6140.5549
2968.0508
-4319.2544
-2550.0823
-690.20006
-337.75093
3881.5817
9.7108192
2912.8156
4896.464
-198.54086
-530.27993
3928.643
-11309.947
613.824
-647.24526
1174.8321
-6313.7979
-1581.541
-119.26486
1996.1832
596.11739
-4773.8426
-1744.1625
140.11586
-515.23441
-2206.9216
-2794.0797
27.314483
-154.78067
-9411.9296
-2719.2956
175.79233
-1835.5485
493.9043
-512.61044
768.44229
-2716.6539
-6421.5025
-98.397553
7931.0564
3248.9007
730.94313
2086.4508
-4405.915
142.27917
-279.84695
-579.97384
-4128.9058
1115.2003
2339.0887
-8479.1004
-3500.2711
-935.83141
2640.4495
-1231.9422
-2045.7554
6934.8648
5158.9494
2038.3524
8585.9984
-4406.5731
-439.33704
66.956639
-3388.5961
8230.541
2682.7706
-1898.1159
-4521.2268
1968.2083
-190.96557
-102.31737
2731.9288
6725.605
-1316.2252
-2165.5813
-147.61269
-1462.7248
-838.49584
2614.7732
-7400.5595
221.97593
-3185.9115
3567.1382
-473.59414
-4850.6035
-2703.1845
-199.15147
-279.80551
-657.19156
-5652.6811
677.86855
2907.603
-9072.5269
2375.7298
-6927.804
-1099.4606
-2080.6359
-1587.9821
45.127296
3003.3916
2561.0523
-1555.0894
2593.1144
8433.1861
-5581.6663
1142.3939
3256.3823
-416.58125
3186.4745
6213.405
-1107.1124
-3547.7294
-899.83203
-7439.2198
-1897.6714
1960.8206
-1048.4797
47.475714
802.05161
-2132.6865
-1130.8575
5531.9632
-11159.789
-2387.1271
295.96096
-4051.4937
-625.8199
73.549818
1802.3163
-6613.3785
3064.6482
-819.79686
3772.5627
-1853.507
-137.56193
4569.3624
-2202.535
-11004.699
2726.4252
-2150.6678
-14439.952
-2498.1426
-7773.7134
-2588.6568
4297.2869
-4127.598
-4500.4889
-1978.7669
38.601769
343.69714
1614.5823
-528.74594
-6608.6222
370.53067
-2841.4387
826.39014
499.81928
-4233.7566
-406.31576
4580.5109
690.30323
2371.6418
2443.1771
-384.82374
2681.1887
-1406.0127
-10502.975
-6449.2495
-317.07219
-2355.5999
-628.72423
721.12596
-240.61197
-642.76122
573.36508
1984.0272
3590.6758
-316.29153
-1335.7368
2701.5153
87.53309
-676.75494
-634.78298
-3247.05
5750.4584
271.61325
-2618.3952
-410.89977
-696.26628
-53.247058
-652.27993
8667.8452
212.7632
-1529.6855
-6419.4425
6049.0959
-453.57631
-399.46904
1763.9793
2649.1438
3757.0003
-572.77767
1128.154
-3456.0816
3003.2207
2546.9198
1975.8509
-391.88986
4.6033275
3340.3389
-2939.4955
-957.54339
-1584.3873
-1657.2829
75.140448
1512.1008
5757.2643
-691.89905
217.04523
-1931.8379
1411.2855
-9546.0851
-2.4560984
-9286.9127
-8743.2174
-1921.5596
-1942.0632
-7860.5389
-2634.2714
157.53673
-3325.1597
7976.3193
-222.73843
-954.65639
-329.33137
-815.15233
-805.88702
-610.26607
-3582.0321
3254.5096
-2.097211
-169.51085
2839.0823
-408.21921
2245.3237
-4257.0584
1992.3124
-1212.3102
-212.26203
3759.263
-11754.606
3092.1623
-1847.1308
-12.87548
2558.2008
3.521188
-10.816489
1605.1468
227.5548
2520.038
-2688.3872
-1769.0363
144.08398
-134.54402
-3024.0909
-68.041312
-508.34306
1324.0672
-1527.8393
-1536.8134
1991.1715
-220.60685
-796.82781
3891.9072
-345.90247
10.32291
6883.2938
4980.3775
-593.69598
-532.22759
-110.89325
1207.9188
-1940.2199
3507.0676
-860.58795
-1129.7063
-107.33521
-657.06724
1399.8947
2354.2255
2564.5699
-3676.1819
2659.3013
-1407.312
-827.94246
-9.3118876
-128.17349
-2800.3479
-761.17724
-4014.3426
-2052.6512
2103.5046
7798.9295
-82.819115
-2.4510881
-1193.8246
-10573.84
19.21285
-5001.6488
-52.836525
360.87252
-191.11509
-5341.2436
-1535.664
-724.65313
-407.32075
1384.4244
-84.136163
-3657.9777
5292.1172
-13.113298
2236.3433
2624.0787
3348.2854
2703.7295
2193.4775
-1011.5415
3454.5082
-1423.396
-990.1355
-5152.3016
4162.3516
2592.0185
-6614.5939
137.7869
-13392.079
3301.9962
-672.19259
-551.24507
-177.28784
2535.5506
-1951.8796
9.5217543
1861.1324
2948.8523
2917.8732
-969.8234
61.35195
839.2873
2583.6687
-165.53202
-33.428613
-1123.1101
-743.26571
-3360.9533
-1.1233202
-1653.6516
474.341
6.2951089
1211.0874
-76.702457
5673.8082
3283.3909
-758.32845
-8246.3338
2777.4214
4917.4378
-3505.4892
-1612.9937
-793.5891
-4054.2546
-487.21875
-2549.7217
2206.5828
-2005.8167
-7129.1801
-173.53209
-558.96816
318.12782
161.42399
5559.0634
-6306.6206
-171.96923
-11570.023
-548.27658
-602.36888
-1433.1574
-425.9831
6289.6426
3030.2471
-895.65751
-356.72932
-2652.703
-251.67757
-808.52791
-4.2666584
84.941568
-151.85276
-774.82022
511.67153
1249.5963
-1386.8973
3097.0358
2957.9559
608.5432
2005.3092
-264.6743
-3368.2398
-2004.1895
-8359.85
3283.7924
580.17582
1870.6534
2174.0856
2825.724
2030.7342
-23.958804
-1055.4655
-562.27851
-4711.6849
-732.55302
-53.46864
-14545.279
-1174.2362
-7743.0641
-1246.3612
-746.7121
-420.1309
-165.3587
-2455.4414
-526.34203
-779.18833
-1601.2209
4907.4483
-3644.9182
-3110.437
6643.7924
-211.31764
-865.48887
1646.5993
-37.563917
-681.08504
3088.9487
-2028.0438
3595.1424
-11392.471
-2316.9545
-1222.6406
-720.59288
-639.83729
-399.7952
-1827.0292
154.08927
-1381.336
-2521.4619
388.81551
-419.91579
-453.87999
-10534.262
2327.3571
7626.5349
-513.60771
1644.2778
308.27489
-1317.95
-280.9984
-2529.7552
-141.32654
-1346.7309
2341.839
2557.4512
2475.9308
-2198.0714
-1195.6266
-110.19542
-1758.9169
-64.175775
-280.11827
-2744.9839
-13786.307
2799.3145
-380.1521
2831.0224
-2008.6391
-2099.6321
-704.0726
105.53495
2921.4478
3184.6391
-189.69488
-1778.5803
-2966.8259
-5998.7475
201.84284
-119.3027
-1634.9221
-908.9273
-870.74293
-173.94401
5557.2063
30.974075
-1502.7942
1174.6737
-4990.7705
2425.9547
-720.83758