/*--------------------------------*- C++ -*----------------------------------*\
| =========                 |                                                 |
| \\      /  F ield         | foam-extend: Open Source CFD                    |
|  \\    /   O peration     | Version:     4.1                                |
|   \\  /    A nd           | Web:         http://www.foam-extend.org         |
|    \\/     M anipulation  |                                                 |
\*---------------------------------------------------------------------------*/
FoamFile
{
    version     2.0;
    format      ascii;
    class       surfaceScalarField;
    location    "0.7";
    object      phi;
}
// * * * * * * * * * * * * * * * * * * * * * * * * * * * * * * * * * * * * * //

dimensions      [0 3 -1 0 0 0 0];

internalField   nonuniform List<scalar> 
6703
(
0.00023530546
0.014140559
-0.014375864
-0.0023914085
0.02623517
-0.023608456
-0.0060268378
0.03287926
-0.029243831
-0.010202316
0.039202526
-0.035027048
-0.014976126
0.046461501
-0.041687692
-0.0204026
0.054951091
-0.049524616
-0.026536181
0.064868085
-0.058734505
-0.033437302
0.076427358
-0.069526238
-0.04117861
0.089869814
-0.082128505
-0.049855621
0.10546457
-0.096787564
-0.059592227
0.12351961
-0.113783
-0.070545721
0.14439229
-0.1334388
-0.082909409
0.16851428
-0.15615059
-0.096928229
0.19644741
-0.18242859
-0.11290499
0.22898758
-0.21301081
0.26724636
-0.24924244
-0.13090892
-0.00037075831
0.014511317
-0.0021112943
0.027975706
-0.0046884768
0.035456443
-0.007752991
0.04226704
-0.011383917
0.050092427
-0.015683141
0.059250315
-0.020764456
0.0699494
-0.026752708
0.08241561
-0.033787856
0.096904962
-0.042032692
0.11370941
-0.051683176
0.13317009
-0.062985713
0.15569483
-0.076256021
0.18178459
-0.091885016
0.21207641
-0.11028996
0.24739252
0.28868392
-0.13172753
0.00038965048
0.014121666
-6.3021955e-05
0.028428379
-0.0014326711
0.036826092
-0.0032923373
0.044126706
-0.0055664896
0.052366579
-0.0083019825
0.061985808
-0.011582384
0.073229801
-0.015518476
0.086351703
-0.020243654
0.10163014
-0.025916863
0.11938262
-0.032726738
0.13997997
-0.040898469
0.16386656
-0.050704622
0.19159074
-0.062475987
0.22384777
-0.0765841
0.26150063
0.30548494
-0.093385118
0.0011780256
0.012943641
0.0020028174
0.027603587
0.0019316721
0.036897237
0.0013367683
0.04472161
0.00047983233
0.053223515
-0.00060990696
0.063075548
-0.0019972615
0.074617156
-0.0037692378
0.088123679
-0.0060293706
0.10389027
-0.0089081645
0.12226141
-0.012567615
0.14363942
-0.017204177
0.16850312
-0.023048082
0.19743465
-0.030355148
0.23115484
-0.039341053
0.27048654
0.31609108
-0.049947186
0.0023300711
0.01061357
0.0049671372
0.024966521
0.0067621292
0.035102245
0.0078369781
0.043646761
0.0085759981
0.052484495
0.0091796857
0.06247186
0.0097100451
0.074086796
0.010145516
0.087688208
0.010414503
0.10362129
0.010410708
0.12226521
0.0099947558
0.14405537
0.0089941469
0.16950373
0.0072064402
0.19922236
0.0044059895
0.23395529
0.00035028279
0.27454225
0.32187629
-0.0054349288
0.0040525097
0.00656106
0.0094160026
0.019603028
0.014137054
0.030381193
0.017873947
0.039909869
0.020928207
0.049430236
0.023643385
0.059756682
0.026253434
0.071476748
0.028876908
0.085064733
0.031539888
0.10095831
0.034199941
0.11960515
0.036761372
0.14149394
0.039084788
0.16718031
0.040994993
0.19731215
0.042290808
0.23265947
0.042769891
0.27406316
0.32230611
0.042340071
0.0069544391
-0.00039337905
0.015782284
0.010775183
0.02438809
0.021775388
0.032093746
0.032204213
0.038764911
0.042759071
0.044581576
0.053940017
0.049830653
0.066227671
0.054785779
0.080109607
0.059659172
0.096084914
0.06457991
0.11468442
0.069588669
0.13648518
0.074644914
0.16212407
0.079644643
0.19231242
0.084447909
0.22785621
0.088893165
0.26961791
0.31844196
0.092757315
0.0044437959
-0.0048371749
0.016973644
-0.0017546656
0.030891382
0.0078576496
0.043611195
0.0194844
0.055491282
0.030878984
0.066364968
0.043066331
0.0761861
0.056406539
0.085074495
0.071221212
0.093262181
0.087897228
0.10100429
0.10694231
0.10853235
0.12895712
0.11600969
0.15464673
0.12351114
0.18481097
0.13103883
0.22032852
0.13854384
0.26211289
0.31102126
0.14596454
-0.00069148838
-0.0041456865
0.0051180095
-0.0075641634
0.018313735
-0.0053380753
0.038402798
-0.00060466312
0.057988683
0.011293099
0.075706346
0.025348668
0.092425153
0.039687731
0.10806402
0.05558235
0.12253355
0.073427698
0.13586411
0.093611743
0.14818781
0.11663342
0.15966042
0.14317412
0.17046964
0.17400175
0.18085133
0.20994683
0.19106436
0.25189986
0.30073631
0.2013493
-0.0017532425
-0.002392444
-0.0038576137
-0.0054597923
-0.00044133964
-0.0087543493
0.010821333
-0.011867336
0.029942907
-0.007828475
0.05622708
-0.00093550527
0.083534722
0.012380089
0.10922432
0.029892749
0.13361385
0.049038173
0.15669105
0.070534538
0.17799948
0.095324987
0.19711537
0.12405824
0.21400934
0.15710778
0.22906594
0.19489023
0.24295352
0.23801228
0.28710795
0.25658188
-0.0018608934
-0.00053155055
-0.003343467
-0.0039772185
-0.004014185
-0.0080836312
-0.0040879509
-0.01179357
0.0027961321
-0.014712558
0.018695971
-0.016835344
0.043577913
-0.012501852
0.077198095
-0.003727433
0.11486644
0.011369824
0.15269325
0.032707727
0.18738573
0.060632509
0.21776327
0.093680694
0.24394387
0.13092719
0.26643362
0.17240048
0.28591883
0.21852707
0.26926058
0.3037662
-0.00051505331
-1.6497207e-05
0.0019427104
-0.0064349822
0.0055024652
-0.011643386
0.009446215
-0.01573732
0.0137253
-0.018991643
0.018489451
-0.021599495
0.029427961
-0.023440362
0.049853197
-0.024152669
0.083376299
-0.022153278
0.13187963
-0.015795601
0.16551728
0.026994859
0.19416059
0.065037382
0.21933627
0.10575151
0.24027819
0.15145856
0.25699728
0.20180798
0.25590923
0.27034863
-0.0017190563
-0.010742599
0.012461655
-0.0040386993
-0.01826234
0.020581983
-0.0069274624
-0.022545746
0.025434509
-0.010501239
-0.026855588
0.030429365
-0.014792724
-0.031855108
0.036146593
-0.019912902
-0.037712574
0.042832752
-0.025993891
-0.044559756
0.050640745
-0.033187725
-0.052539358
0.059733192
-0.041644289
-0.061811432
0.070267996
-0.051510602
-0.072556924
0.082423236
-0.062926208
-0.084983325
0.096398931
-0.076020448
-0.099334389
0.11242863
-0.090919227
-0.11590619
0.13080496
-0.10779833
-0.13505908
0.15193818
-0.12706381
-0.15718186
0.17644734
-0.18276294
0.20554307
-0.14984394
-0.0017119031
-0.009030696
-0.004909613
-0.01506463
-0.008943446
-0.018511913
-0.013785135
-0.0220139
-0.019555725
-0.026084518
-0.026411277
-0.030857022
-0.034533831
-0.036437202
-0.044132658
-0.042940531
-0.055448536
-0.050495554
-0.068758881
-0.059246579
-0.084383628
-0.069358577
-0.10269254
-0.081025476
-0.12411636
-0.094482369
-0.14915092
-0.11002452
-0.1782951
-0.12803768
-0.14908732
-0.21197072
-0.0021272385
-0.0069034574
-0.0057653508
-0.011426518
-0.010281403
-0.013995861
-0.015680125
-0.016615177
-0.022100239
-0.019664404
-0.029716624
-0.023240637
-0.038731931
-0.027421895
-0.049378729
-0.032293733
-0.061922904
-0.037951379
-0.076668125
-0.044501358
-0.093962204
-0.052064498
-0.11420661
-0.060781071
-0.13786989
-0.070819089
-0.16550504
-0.082389365
-0.19781774
-0.095724979
-0.11105624
-0.23584883
-0.0023935582
-0.0045098993
-0.0063080367
-0.0075120395
-0.011150134
-0.0091537639
-0.016954167
-0.010811144
-0.023871685
-0.012746886
-0.03208928
-0.015023042
-0.041822126
-0.017689049
-0.053315068
-0.020800791
-0.066844414
-0.024422033
-0.082720153
-0.028625619
-0.10128932
-0.033495327
-0.12294267
-0.039127724
-0.14812758
-0.045634177
-0.17736643
-0.053150522
-0.21118935
-0.061902054
-0.072319044
-0.24992654
-0.0026520522
-0.0018578471
-0.0067639863
-0.0034001054
-0.011834156
-0.0040835941
-0.017938544
-0.0047067565
-0.025240718
-0.0054447116
-0.033940697
-0.0063230634
-0.044270661
-0.0073590849
-0.05649546
-0.0085759911
-0.070914413
-0.01000308
-0.087864178
-0.011675855
-0.10772301
-0.013636498
-0.13091474
-0.015935986
-0.15791102
-0.018637899
-0.18925361
-0.021807932
-0.22573143
-0.025424237
-0.029137842
-0.26891263
0.00060426897
0.011434363
-0.012038632
0.00064060838
0.024119837
-0.024156176
-0.00019506745
0.03186222
-0.031026544
-0.00153326
0.03843665
-0.037098457
-0.0032274439
0.045690385
-0.043996201
-0.0053005593
0.05414721
-0.052074095
-0.0078297945
0.064058029
-0.061528793
-0.01091619
0.075659383
-0.072572987
-0.014684838
0.089216162
-0.085447514
-0.019288642
0.10503599
-0.10043219
-0.024888518
0.1234587
-0.11785882
-0.031702441
0.14494775
-0.13813382
-0.040013806
0.17008872
-0.16177735
-0.050180474
0.19965461
-0.18948794
-0.062634097
0.2346657
-0.22221208
0.27627643
-0.26107523
-0.077835304
-0.0025780761
0.00072022901
-0.0072204978
0.0012423163
-0.012879363
0.0015752709
-0.019513979
0.0019278598
-0.027289909
0.0023312181
-0.036409681
0.002796709
-0.047102161
0.0033333951
-0.059626806
0.0039486532
-0.074277651
0.0046477655
-0.091386539
0.0054330328
-0.11132578
0.0063027476
-0.13451197
0.0072502019
-0.16141275
0.008262879
-0.19253756
0.0093168739
-0.22835068
0.010388882
0.011411184
-0.2688997
-0.0029346993
0.0036549283
-0.0079471823
0.0062547993
-0.013939622
0.0075677106
-0.020870454
0.0088586921
-0.028904938
0.010365702
-0.038240148
0.012131919
-0.049095088
0.014188336
-0.061716396
0.016569961
-0.076383976
0.019315345
-0.093416468
0.022465525
-0.1131766
0.026062881
-0.13607721
0.030150814
-0.16258864
0.034774309
-0.19323451
0.039962741
-0.22849024
0.045644613
0.051509406
-0.26858846
-0.0027838002
0.0064387285
-0.0070462012
0.0105172
-0.012266905
0.012788414
-0.018509426
0.015101214
-0.025934094
0.017790369
-0.034736976
0.0209348
-0.045145061
0.024596421
-0.057417491
0.028842391
-0.071848073
0.033745927
-0.088768863
0.039386315
-0.10855526
0.045849282
-0.13163227
0.053227822
-0.15848044
0.061622476
-0.18966121
0.071143512
-0.22597324
0.081956643
0.094384112
-0.26884795
-0.0024170961
0.0088558246
-0.0063828799
0.014482984
-0.011279205
0.017684739
-0.017139559
0.020961568
-0.024117099
0.024767909
-0.032399556
0.029217258
-0.042202673
0.034399537
-0.053771416
0.040411134
-0.067381824
0.047356335
-0.083343318
0.055347808
-0.10200231
0.064508277
-0.12374924
0.07497475
-0.14903583
0.086909061
-0.17840359
0.10051127
-0.21246305
0.11601611
0.13345917
-0.25153811
-0.0021476926
0.011003517
-0.0058294903
0.018164782
-0.010395676
0.022250925
-0.015851989
0.02641788
-0.022340017
0.031255937
-0.030037324
0.036914565
-0.039149177
0.04351139
-0.049910752
0.05117271
-0.06259054
0.060036123
-0.077495195
0.070252463
-0.094977365
0.081990447
-0.11544851
0.095445896
-0.13939509
0.11085564
-0.16740007
0.12851626
-0.20026256
0.14887859
0.17296718
-0.23977057
-0.0017656066
0.012769124
-0.0050353042
0.021434479
-0.0091559086
0.02637153
-0.014103728
0.0313657
-0.020004508
0.037156717
-0.027019313
0.04392937
-0.035336471
0.051828548
-0.045173214
0.061009453
-0.056780581
0.07164349
-0.070450223
0.083922104
-0.086523117
0.098063341
-0.10540194
0.11432472
-0.12757247
0.13302617
-0.15363359
0.15457738
-0.18419271
0.17943772
0.20800674
-0.21923227
-0.0017905087
0.014559633
-0.0041449454
0.023788916
-0.0071208456
0.02934743
-0.010831163
0.035076017
-0.01529186
0.041617415
-0.02061894
0.04925645
-0.02695086
0.058160467
-0.034440164
0.068498758
-0.043246656
0.080449982
-0.053523639
0.094199087
-0.065417275
0.10995698
-0.079062188
0.12796963
-0.094579709
0.14854369
-0.11209599
0.17209367
-0.13185825
0.19919998
0.2307056
-0.15455712
-0.0015210494
0.0027443093
-0.0012232599
-0.004975253
0.0059859912
-0.0025317876
-0.0089607065
0.0078874805
-0.003902027
-0.013280959
0.0094212527
-0.0051009997
-0.018036997
0.011004223
-0.0062481851
-0.023136101
0.012838585
-0.0077394811
-0.028581631
0.015000752
-0.0095552216
-0.032729596
0.015755736
-0.011607771
-0.026005952
0.0069974353
-0.013721079
-0.0043362161
-0.0061728558
-0.01549688
0.039363845
-0.029195062
-0.014505
0.097767729
-0.049385887
-0.009017997
0.12567775
-0.078206553
0.05029653
0.15741408
-0.1088975
0.077161171
0.19081804
-0.14152156
0.1081176
-0.17692669
0.14220249
0.22554223
2.279607e-05
0.0027215133
-0.00029978858
0.0063085759
-0.00096422114
0.0085519131
-0.0018990051
0.010356037
-0.0030030524
0.01210827
-0.0027398075
0.01257534
0.0040695702
0.0081913741
0.021055932
-0.0012306262
0.047718424
-0.019665056
0.081598506
-0.040052938
0.1140281
-0.06162466
0.15039263
-0.08575041
0.18519092
-0.11300484
0.22025296
-0.14395954
0.25744127
-0.17870987
-0.21796203
0.29847661
0.00014053451
0.0025809788
5.8489453e-05
0.0063906209
-0.00011956493
0.0087299675
0.0010496168
0.0091868549
0.0076625361
0.0054953508
0.021718435
-0.0014805584
0.043463533
-0.013553724
0.071501937
-0.02926903
0.098248224
-0.046411344
0.1238151
-0.065619815
0.14937157
-0.087181131
0.1749259
-0.11130474
0.20041263
-0.13849157
0.22594603
-0.16949294
0.25252284
-0.20528668
-0.2472308
0.28179161
-0.00069481404
0.0032757928
-0.0012466134
0.0069424203
0.0029909942
0.0044923598
0.013515146
-0.0013372966
0.030323044
-0.011312548
0.052348853
-0.023506367
0.075172931
-0.036377802
0.096435229
-0.050531328
0.11644116
-0.066417271
0.13514079
-0.084319447
0.15258118
-0.10462153
0.16908392
-0.12780748
0.18512809
-0.15453574
0.20131751
-0.18568236
0.21842476
-0.22239394
-0.26606412
0.23725808
-0.00012245875
0.0033982516
0.0064516773
0.00036828422
0.01912613
-0.0081820932
0.036074239
-0.018285405
0.053119027
-0.028357336
0.068632796
-0.039020135
0.082963755
-0.050708761
0.096157987
-0.06372556
0.10818642
-0.078445705
0.11917326
-0.095306285
0.12937089
-0.11481916
0.13915581
-0.13759239
0.14897293
-0.16435286
0.15927686
-0.19598629
0.17049295
-0.23361002
-0.27851589
0.18294472
0.0040971012
-0.00069884966
0.015599397
-0.011134011
0.028005391
-0.020588088
0.03920927
-0.029489285
0.049354183
-0.038502249
0.058456971
-0.048122923
0.066553518
-0.058805308
0.073802326
-0.070974368
0.080422808
-0.085066187
0.086661921
-0.1015454
0.092751531
-0.12090877
0.098893652
-0.14373451
0.10524357
-0.17070278
0.11190921
-0.20265193
0.11895378
-0.24065459
-0.28586626
0.12630414
0.0059770612
-0.0066759109
0.013129149
-0.018286099
0.020108874
-0.027567813
0.026291584
-0.035671995
0.031593293
-0.043803958
0.036198443
-0.052728074
0.04033995
-0.062946815
0.044224962
-0.07485938
0.048001718
-0.088842943
0.051748255
-0.10529194
0.055467179
-0.1246277
0.059117461
-0.14738479
0.062619818
-0.17420513
0.065873162
-0.20590527
0.068770703
-0.24355213
-0.28832173
0.071226172
0.0031323439
-0.0098082548
0.0072921171
-0.022445873
0.010750031
-0.031025727
0.013312953
-0.038234916
0.015306157
-0.045797162
0.017018379
-0.054440296
0.018610944
-0.06453938
0.020140173
-0.076388609
0.021586133
-0.090288904
0.022872136
-0.10657794
0.023880587
-0.12563615
0.024473934
-0.14797814
0.024471341
-0.17420254
0.023666044
-0.20509997
0.021811016
-0.2416971
-0.28500376
0.018493046
0.0016261085
0.0033000725
0.0041365661
0.0043383
0.0042315228
0.0039384369
0.0034570858
0.0027278601
0.0016551188
0.00011317451
-0.0020642734
-0.0050946683
-0.0092084909
-0.014653853
-0.021685254
-0.030412578
-0.00013936429
-0.011899268
-0.0015478895
-0.022747651
-0.0038034442
-0.02877099
-0.0065407708
-0.034361131
-0.0097820775
-0.040754894
-0.013616076
-0.048240096
-0.018145076
-0.056999793
-0.023481883
-0.067236181
-0.029756007
-0.079173391
-0.037119743
-0.093068453
-0.045761327
-0.10921724
-0.05592687
-0.12796828
-0.067949754
-0.14975447
-0.08226971
-0.17516799
-0.099399697
-0.20508209
-0.24073244
-0.11974248
0.00041021682
-0.012309485
-0.0019101743
-0.02042726
-0.0053259452
-0.025355219
-0.0092769812
-0.030410095
-0.013786803
-0.036245072
-0.018902518
-0.043124381
-0.024674093
-0.051228219
-0.031154862
-0.060755411
-0.038415236
-0.071913017
-0.046547721
-0.084935968
-0.055675333
-0.10008963
-0.065960711
-0.1176829
-0.077617247
-0.13809793
-0.090939738
-0.1618455
-0.10629586
-0.18972597
-0.22320738
-0.12382092
0.0030694651
-0.0031170444
4.7579314e-05
0.0064931391
-0.010040245
0.006616571
0.010141485
-0.015553793
0.011905448
0.013924879
-0.019879878
0.016096484
0.018101956
-0.023668793
0.019491717
0.022981624
-0.027189765
0.022310097
0.028896607
-0.03041911
0.024504126
0.03618539
-0.033061859
0.025773076
0.045314014
-0.034523505
0.025394882
0.055109991
-0.033733005
0.023937028
0.08987879
-0.022298631
-0.012470168
0.13317093
0.005137411
-0.048429552
0.17397883
0.046424511
-0.087232411
0.20879284
0.09602553
-0.13083954
0.23754204
0.15028261
-0.17903182
0.20724266
-0.23157346
0.26187285
0.0029244885
-0.0060415329
0.0068321792
-0.013947936
0.010382529
-0.019104143
0.013684959
-0.023182308
0.01709557
-0.027079405
0.020983765
-0.031077959
0.025693767
-0.035129112
0.031593587
-0.038961679
0.039102493
-0.042032411
0.048759379
-0.04338989
0.068083561
-0.041622813
0.10033811
-0.027117136
0.13789415
0.0088684696
0.17952891
0.054390771
0.22271516
0.10709637
0.16245998
0.26749783
0.0019169882
-0.007958521
0.0039211821
-0.01595213
0.0053843328
-0.020567293
0.0065278132
-0.024325788
0.0076656671
-0.028217259
0.0089912718
-0.032403564
0.010641713
-0.036779553
0.01275962
-0.041079586
0.015553864
-0.044826655
0.019359838
-0.047195864
0.024568644
-0.046831619
0.040996979
-0.04354547
0.068426942
-0.018561493
0.10167732
0.021140396
0.13668801
0.072085671
0.12334215
0.17580584
0.00073943157
-0.0086979525
0.00083667359
-0.016049371
0.00025471404
-0.019985334
-0.00070679653
-0.023364277
-0.0019294666
-0.026994589
-0.0034017662
-0.030931264
-0.0051270421
-0.035054277
-0.0070880783
-0.039118549
-0.009226857
-0.042687876
-0.011408593
-0.045014127
-0.013261633
-0.04497858
-0.016381525
-0.040425577
-0.0057305167
-0.029212502
0.017251337
-0.0018414581
0.04825168
0.041085329
0.087557147
0.084036687
-0.00047803559
-0.0082199169
-0.0020564111
-0.014470996
-0.0042998466
-0.017741898
-0.0070039633
-0.020660161
-0.01018624
-0.023812312
-0.013896424
-0.027221081
-0.018175037
-0.030775664
-0.023028105
-0.034265482
-0.028384734
-0.037331247
-0.034025655
-0.039373206
-0.039541652
-0.039462582
-0.044043327
-0.035923903
-0.04658091
-0.026674918
-0.040691325
-0.0077310423
-0.023018748
0.023412752
0.063725346
0.00081305377
-0.0013574357
-0.0068624812
-0.003813254
-0.012015178
-0.0068561947
-0.014698957
-0.010448329
-0.017068026
-0.014644187
-0.019616454
-0.019502197
-0.02236307
-0.025067957
-0.025209904
-0.031356949
-0.02797649
-0.038322279
-0.030365917
-0.045789468
-0.031906016
-0.053395146
-0.031856905
-0.060318662
-0.029000386
-0.065533214
-0.021460366
-0.066377622
-0.0068866344
-0.05994693
0.016982061
0.050327284
-0.046548868
-0.0016709866
-0.0051914946
-0.0043866417
-0.0092995224
-0.0076551844
-0.011430415
-0.011481061
-0.01324215
-0.015930978
-0.015166537
-0.021068546
-0.017225502
-0.026947906
-0.019330544
-0.033589723
-0.021334672
-0.040935744
-0.023019895
-0.048834962
-0.024006798
-0.057013962
-0.023677905
-0.064884999
-0.021129349
-0.071416794
-0.01492857
-0.07484451
-0.0034589189
-0.073632463
0.015770014
0.0445846
-0.067889779
-0.0015775007
-0.0036139939
-0.0041681533
-0.0067088698
-0.0072876893
-0.0083108785
-0.010950381
-0.0095794574
-0.015229077
-0.010887842
-0.020201056
-0.012253523
-0.025899064
-0.013632536
-0.032318998
-0.014914738
-0.039412346
-0.015926547
-0.04704074
-0.016378404
-0.054936647
-0.015781998
-0.062496237
-0.013569759
-0.068499184
-0.0089256221
-0.071600973
-0.00035713023
-0.069844991
0.014014033
0.03579706
-0.061057451
-0.0012607823
-0.0023532115
-0.0034794489
-0.0044902031
-0.0062326566
-0.0055576708
-0.0095596187
-0.0062524952
-0.013560926
-0.0068865339
-0.018247437
-0.0075670118
-0.023682998
-0.0081969752
-0.029973766
-0.0086239701
-0.037068524
-0.0088317881
-0.044798962
-0.0086479661
-0.052723342
-0.007857618
-0.060111984
-0.0061811158
-0.065844044
-0.0031935625
-0.068151356
0.0019501815
-0.064313138
0.010175815
0.022667219
-0.051183298
-0.00101649
-0.0013367215
-0.0029406021
-0.0025660909
-0.0053593015
-0.0031389713
-0.0083638907
-0.0032479059
-0.012319354
-0.0029310707
-0.017245572
-0.0026407936
-0.023120343
-0.0023222042
-0.029892307
-0.001852006
-0.037576498
-0.0011475964
-0.046089347
-0.00013511712
-0.055119594
0.0011726298
-0.063934539
0.0026338285
-0.071053658
0.0039255566
-0.073534843
0.0044313675
-0.068105263
0.0047462345
-0.0045435932
-0.040894451
-0.0012958792
-4.0842287e-05
-0.0039570451
9.5075075e-05
-0.0075730625
0.00047704618
-0.011864909
0.0010439403
-0.01676054
0.0019645611
-0.022427682
0.0030263483
-0.028941463
0.004191577
-0.036260719
0.00546725
-0.044448915
0.0070405997
-0.053779504
0.0091954721
-0.064712534
0.012105661
-0.07645919
0.014380485
-0.083589462
0.011055829
-0.072968777
-0.0061893171
-0.041299409
-0.026923134
-0.059133107
0.013290106
-0.0012654793
0.0012246371
-0.003676084
0.0025056798
-0.0070121601
0.0038131223
-0.010896088
0.0049278686
-0.01486776
0.0059362324
-0.019076367
0.0072349563
-0.023651246
0.0087664561
-0.028619513
0.010435517
-0.033719047
0.012140133
-0.038200303
0.013676728
-0.041274587
0.015179946
-0.046367331
0.019473228
-0.0094686749
-0.025842827
0.04258841
-0.058246402
0.10021421
-0.084548936
-0.11233223
0.15341334
0.00036422829
-0.00018376847
0.00046782701
0.00051679592
0.00044651893
0.00017835266
-0.0003956846
-0.0014231644
-0.0031016874
-0.0056901644
-0.0095161907
-0.014985356
-0.022592264
-0.032927187
-0.046738022
-0.065274859
0.00030689405
-0.00015217056
0.00038618396
0.0004054542
0.00030697477
1.5345298e-05
-0.00057212858
-0.0015943475
-0.0032393683
-0.0057520997
-0.0094427981
-0.014697072
-0.021990038
-0.031897357
-0.045175982
-0.062840295
-2.4730578e-05
-1.3771656e-06
-0.00011363524
-0.00028676634
-0.00059871904
-0.0011032438
-0.0018920092
-0.0030642636
-0.0046452093
-0.0064653608
-0.0057904149
0.0046648167
0.02911852
0.048033289
0.071601957
0.10147222
0.0002126709
-3.1082112e-05
0.00047473251
0.00083389651
0.0013339703
0.0020445728
0.0031083372
0.0047287436
0.0079703471
0.016111774
0.030636465
0.047244295
0.065763395
0.086382416
0.10915857
0.13349434
0.429804
-0.68010049
0.25029649
1.3515588
-1.3910339
0.039475063
0.18207802
-0.46629882
0.2842208
1.3515588
-0.20151853
0.1289996
0.072518936
-1.3201049
0.86226118
0.45784368
-0.17315519
0.64770325
-0.47454806
1.166611
0.43919278
-1.6058038
1.2113697
0.30170128
-1.513071
0.20046617
-0.26574103
-0.27106186
0.20822156
0.60971304
0.98353874
-1.5932518
-0.55937814
-0.56051219
1.1198903
-1.1952413
0.52621786
0.66902348
-0.23884165
0.60935097
-0.37050932
0.65029694
-0.16528424
-0.48501269
1.1183045
-1.1347353
0.016430721
0.092522397
0.29803106
-0.39055346
0.25949042
-0.32847845
0.068988032
0.93017228
-0.30843271
-0.62173957
-0.14893134
-0.052587199
-1.1592551
0.59987699
-1.4217422
1.4086712
0.013070973
0.10604598
1.280127
-1.386173
0.0032536786
-0.84351789
0.84026421
0.65072651
0.32779925
-0.97852576
-0.62424606
-0.96823282
1.5924789
0.98025991
-0.31017609
-0.67008382
0.26428318
1.0232742
-1.2875574
-0.37624205
0.86755425
-0.49131221
1.0819828
-0.43125629
0.2830929
-0.20447739
-0.078615504
-0.0095488382
1.2968426
-1.2872938
1.0058394
-0.0041655428
-1.0016738
0.14947024
-0.91180066
0.76233043
1.4206062
-1.1883294
-0.23227677
0.99806057
-0.88016873
-0.11789184
-0.72181203
0.87128226
0.82695281
-0.49786456
-0.32908826
-1.3159092
0.24408746
1.0718218
-0.092567826
-0.059555103
0.15212293
1.1413252
-0.32522117
-0.81610407
1.166611
-0.37673033
0.83136414
-0.45463381
1.2113697
-0.1095791
0.55295883
-0.44337973
-0.27717711
1.0494971
-0.77231997
-1.4669362
0.62177963
0.84515655
-1.166611
1.7548794
-0.58826837
-1.2113697
1.7635263
-0.55215656
0.56809524
-0.13104856
-0.43704668
-0.57658321
0.2758304
0.30075281
0.20952957
-0.40971655
0.20018698
0.13141384
0.17417473
-0.30558857
-0.52860345
0.91116199
-0.38255854
0.10887365
0.85734363
-0.96621728
0.1387309
-0.29488209
0.15615119
-0.83533609
0.54289119
0.2924449
-1.5782578
0.17255759
1.4057002
1.3374062
-0.45037836
-0.88702782
1.2726399
0.064766319
0.8392244
0.61023062
-1.449455
0.77852075
0.65252156
-1.4310423
-0.34302514
0.74995999
-0.40693485
-0.013936061
-0.55952286
0.57345892
-1.004516
1.0603379
-0.055821917
0.54358162
-1.0498217
0.50624009
0.75692645
0.3526925
-1.109619
-0.17448698
0.96271344
-0.78822647
-1.4557556
1.1785785
-0.0071631077
0.56608628
-0.55892317
0.40814825
0.24214868
-0.65886993
0.32742669
0.33144324
0.77331182
1.0205177
-1.7938295
1.3972005
-1.3014943
-0.09570621
0.078257779
-0.64099126
0.90762676
-0.26663551
0.70679827
-0.52250975
-0.18428852
1.5684153
-1.4060318
-0.16238352
1.1688596
-1.0503752
-0.11848443
0.3698071
-0.64428298
0.27447588
-0.40007594
0.15121114
0.2488648
0.18229289
-0.55853494
-1.9010073
1.3542062
0.5468011
0.37740844
0.7408961
0.38920936
-1.4113634
1.022154
-0.67200682
1.1316079
-0.45960109
-0.14864209
-0.96438919
1.1130313
0.43020927
-0.21494809
-0.21526118
0.07226335
1.3249371
0.86711725
-0.019990699
-0.84712655
-1.1215676
0.38798512
0.73358253
0.063800963
0.54747651
-0.61127748
0.4502552
0.37669761
0.65313489
0.38343888
-1.0365738
0.67088751
-0.25463583
-0.41625168
-0.70911696
-0.74989377
0.44157098
-0.25949296
-0.017923232
-0.29914424
0.31706747
-0.45629887
0.85573211
-0.39943324
-0.51101738
1.2843292
-0.92038449
1.2279254
-0.30754087
-0.9715569
-0.15001075
0.11186311
0.88619747
1.3426527
-1.2565403
-0.08611243
-0.78684479
-0.40839655
-1.7246629
1.146079
0.57858385
-1.9138037
1.3923291
0.52147459
0.88116435
-0.38160262
-0.49956173
0.15071238
-0.5274427
0.29154547
-0.82014892
-0.012976513
0.64874768
-0.63577116
0.46658116
-0.64106814
-0.21724253
0.1246747
0.23494117
0.69523111
1.0468084
0.52160691
0.57404401
-0.58702052
0.57178921
0.880634
-1.4524232
1.5908033
-0.9445542
-0.64624906
-0.31502686
0.7065973
-0.39157044
-0.021055184
0.23058475
0.28862324
-0.1572094
-0.28564888
0.20755671
0.078092178
1.7097552
-1.719304
0.15909413
0.094713488
-0.25380762
0.22753027
-0.22671722
-1.1313638
1.1992085
-0.067844662
-0.39979088
0.27947761
0.12031328
0.75602513
-0.53538907
-0.22063606
-0.83702342
0.77816334
0.058860075
0.29025301
-0.1515221
-0.16885773
0.39406337
-0.22520564
-0.83535379
1.467218
-0.63186419
0.55319962
0.58812562
1.0440819
-0.50050027
0.51084527
0.37031908
-0.52450497
0.41492587
1.0175321
-1.1661741
-0.41843528
0.40051205
0.91941841
0.42323429
0.78399815
-1.6207183
0.83672014
0.5002217
0.2431917
-0.1141921
-0.46804498
0.89784899
1.2668431
-1.2668431
-0.35824867
-0.1794455
1.0465627
-0.026717535
-0.61427372
-0.058311594
1.0249128
-0.96660119
-0.61185286
1.4510773
-0.63804332
1.4165641
1.3733184
-0.79665071
-0.57666774
0.69963516
0.45968345
-0.7747103
0.99860772
-1.2890696
0.29046185
0.88059647
-0.87734279
0.1680193
-0.086621395
-1.0146804
1.1013018
1.5644643
0.27024348
-1.8347078
-0.61654497
1.1883342
-0.61185645
0.75782099
-0.53198895
0.71493367
-0.072759973
0.72589486
0.010261157
0.54173114
-0.5519923
-0.87137106
-0.060541941
0.931913
0.56249274
-1.3978465
-1.4359032
1.3775916
0.90255627
0.39897064
-1.3015269
-0.052371586
-0.59055273
0.64292432
-0.5566476
1.1663606
-0.99300815
0.29750744
0.69550071
0.55442043
-0.49061947
0.37829233
-0.67911767
0.30082534
0.89929328
-1.0275732
0.12827988
0.92523482
0.44808363
-1.5116333
0.78982129
0.06044971
1.1084099
1.0341557
0.77702545
-1.4012715
-0.23520941
0.60501652
-1.0702425
0.83287623
0.23736627
-1.1069852
1.0546136
0.65349902
0.71626217
-1.3697612
0.73329162
-0.16720534
-0.11521602
0.49350835
-0.33163459
-0.73860791
-0.1914767
-0.32499631
0.51647301
0.50328007
-0.91397876
0.41069869
0.10586407
0.59527955
-0.70114362
-1.0406697
0.2603478
0.78032192
0.19494158
1.2495897
-1.4445313
-1.0893405
-0.47640763
1.5657481
0.23538884
0.74487107
-0.19530354
0.31593521
-0.12063167
-0.9658857
-0.16884957
1.1988663
-1.0928203
1.0197874
-0.12049414
-0.48829728
-0.47423364
0.96253092
-0.6794338
-0.31696573
0.99639953
-0.10144863
0.46694855
-0.36549993
-0.072887798
0.90576402
-0.16593248
-0.51174661
0.67767909
0.63108594
-0.01092969
-0.62015625
-0.80268907
0.75119283
0.051496232
-0.99236399
0.56183723
0.43052676
-0.89869651
0.56706192
0.59284371
-1.1533559
1.5644643
0.16827583
0.38355157
-0.55182741
1.5784791
-1.1744277
-0.40405144
-1.1239818
1.3223302
-0.5654037
-0.87173179
-0.25963205
0.041541103
-0.83407416
0.79253306
-1.1199602
1.3149018
0.47651486
-1.0466963
0.57018143
0.57193368
0.78345552
-1.3553892
-0.68293803
0.53320807
-0.72468477
0.18051673
-0.34937446
-1.2003786
-0.52428427
1.0668571
-0.10414366
1.0793362
-0.90087491
-0.1784613
0.92327218
0.73793157
-1.6612038
0.17796629
-0.67583084
-0.38765244
0.18803282
0.19961962
-0.40427651
0.57255235
-0.51474249
1.4380147
-1.3807833
1.4149596
-0.034176253
0.048217655
0.34584572
-0.26372415
0.068420602
0.39027972
-0.38518183
-0.0050978948
0.28217015
-1.4818652
1.199695
-0.453656
-0.017319476
0.47097548
-0.16477294
-0.70683172
0.87160466
0.61074902
0.1225426
0.22461473
1.1643188
-1.3889335
-0.62477475
0.29977844
1.0755311
0.22947513
-1.3050062
0.020536621
1.2290531
0.65509056
0.42689225
1.2441452
-0.41339088
-0.83075435
-0.36762129
-0.29124864
-1.1906547
0.3751682
0.81548646
0.10408276
-0.5710559
0.46697314
-0.82096054
0.83603209
-0.015071547
-0.18972035
1.1955597
1.163834
-1.7308515
0.56701748
0.77471394
0.22055738
-0.99527132
-0.46873765
-0.027470466
0.49620812
-0.14984576
-0.35035889
0.50020465
0.45151021
0.19089321
1.3875859
-0.50251306
0.97902791
0.45688001
-0.1973896
0.88257374
0.11527593
-0.99784967
0.4568321
-0.44657094
-0.60446879
0.43853631
1.5924514
-0.14063042
1.3278193
-1.1871888
0.13115312
-1.3194825
-1.3658841
0.77998157
0.58590254
1.5611005
-0.45500971
-0.83405986
-1.1135822
-0.20232701
-0.93352564
1.2862181
-0.57391861
-0.74618625
1.2809282
-1.016645
-1.217466
1.170962
0.046503947
-0.85618337
0.87261409
-0.41277757
-0.3899115
0.10065286
0.97868335
-0.008325897
-0.82869752
-0.72766322
-0.26534493
-0.16479637
1.365089
-1.2002926
-0.4784033
0.58248605
-0.88092647
0.92945957
-0.048533098
-0.047555081
-1.2437302
1.2912852
0.76826278
-0.17124088
-0.5970219
0.48190027
-0.35622779
-0.12567248
1.1298759
-1.1952971
0.06542125
0.09964009
0.84586342
-0.94550351
0.75738027
-0.61438019
-0.14300008
-0.30959952
0.38387698
-0.074277458
0.030717413
-0.17964875
-0.081171948
-1.0081686
-0.073117909
-0.93139811
-0.62696264
1.3045516
-1.3521066
-0.57340948
-0.2619266
-0.051148571
0.3096044
-0.25845583
0.73181287
-0.57322631
-0.15858656
0.23589803
-0.90570477
0.66980673
0.015906792
0.37437293
-0.41066187