/*--------------------------------*- C++ -*----------------------------------*\
| =========                 |                                                 |
| \\      /  F ield         | foam-extend: Open Source CFD                    |
|  \\    /   O peration     | Version:     4.1                                |
|   \\  /    A nd           | Web:         http://www.foam-extend.org         |
|    \\/     M anipulation  |                                                 |
\*---------------------------------------------------------------------------*/
FoamFile
{
    version     2.0;
    format      ascii;
    class       volScalarField;
    location    "0.5";
    object      p;
}
// * * * * * * * * * * * * * * * * * * * * * * * * * * * * * * * * * * * * * //

dimensions      [0 2 -2 0 0 0 0];

internalField   nonuniform List<scalar> 
16126
(
-6.662315
-7.8686094
-10.547293
-13.453538
-16.507031
-19.654325
-22.875157
-26.162476
-29.516013
-32.939377
-36.438671
-40.021771
-43.697933
-47.477557
-51.372037
-55.393647
-59.555459
-63.871253
-68.355442
-73.02298
-77.889276
-82.970086
-88.281407
-93.839356
-99.660039
-105.75941
-112.15314
-118.85644
-125.88388
-133.24927
-140.96545
-149.04412
-157.4956
-166.32872
-175.55055
-185.16623
-195.17875
-205.58877
-216.39437
-227.59085
-239.17054
-251.12254
-263.43258
-276.08272
-289.05121
-302.31226
-315.83587
-329.58759
-343.52837
-357.6144
-371.79693
-386.02215
-400.23106
-414.35939
-428.3375
-442.09042
-455.53778
-468.594
-481.16832
-493.16509
-504.48405
-515.02077
-524.66716
-533.31214
-540.84248
-547.14379
-552.10161
-555.60274
-557.53673
-557.79752
-556.28517
-552.90774
-547.58319
-540.24118
-530.82498
-519.29329
-505.62209
-489.80609
-471.85925
-451.81536
-429.72741
-405.66892
-379.74314
-352.07273
-322.78657
-292.02817
-259.95716
-226.74476
-192.57061
-157.61987
-122.0803
-86.139552
-49.98258
-13.789235
22.267835
58.025001
93.329124
128.03873
162.0248
195.17128
227.37529
258.54722
288.61075
317.50211
345.16637
371.55846
396.64723
420.41203
442.83952
463.92381
483.66599
502.07368
519.16074
534.94673
549.45631
562.72071
574.78965
585.74726
595.67654
604.51965
612.13602
619.45137
630.46019
647.3386
-4.9481348
-7.4979127
-10.388968
-13.373978
-16.45582
-19.614287
-22.839031
-26.126727
-29.478674
-32.899215
-36.394826
-39.973589
-43.644883
-47.419188
-51.307955
-55.32351
-59.478965
-63.788143
-68.265501
-72.92604
-77.785215
-82.858836
-88.162957
-93.713751
-99.52739
-105.61989
-112.007
-118.70398
-125.7255
-133.08543
-140.79669
-148.87107
-157.31897
-166.14929
-175.36919
-184.9839
-194.99651
-205.40773
-216.21575
-227.41596
-239.00076
-250.95935
-263.27752
-275.93743
-288.91741
-302.19176
-315.73053
-329.49935
-343.45927
-357.56652
-371.77242
-386.02322
-400.25997
-414.41842
-428.42897
-442.21665
-455.70109
-468.79664
-481.41249
-493.45288
-504.81738
-515.40135
-525.09643
-533.79121
-541.37207
-547.72411
-552.73234
-556.28292
-558.2647
-558.57086
-557.10066
-553.76131
-548.46987
-541.15516
-531.75983
-520.2423
-506.57859
-490.76284
-472.80867
-452.75043
-430.64356
-406.5644
-380.60545
-352.87947
-323.52279
-292.68626
-260.53198
-227.23277
-192.96967
-157.92917
-122.30034
-86.272056
-50.030402
-13.756238
22.376915
58.204694
93.573383
128.34106
162.37839
195.56911
227.81022
259.01188
289.09714
318.00138
345.67311
372.0721
397.16604
420.93173
443.35543
464.43114
484.15977
502.54851
519.61044
535.3637
549.83084
563.04046
575.03728
585.88862
595.64424
604.24392
611.66181
618.70188
627.40105
636.48306
-3.8769785
-7.0241438
-10.155477
-13.254959
-16.390234
-19.574344
-22.811203
-26.103778
-29.456266
-32.874406
-36.365375
-39.937619
-43.600718
-47.365271
-51.242816
-55.245747
-59.387257
-63.681259
-68.142316
-72.785556
-77.626586
-82.681386
-87.966203
-93.497424
-99.291452
-105.36456
-111.73274
-118.41154
-125.41592
-132.76003
-140.45709
-148.51915
-156.95693
-165.7796
-174.99459
-184.60737
-194.62128
-205.03727
-215.8537
-227.06617
-238.66722
-250.64621
-262.98903
-275.67794
-288.69134
-302.00356
-315.5847
-329.4004
-343.41168
-357.57478
-371.84095
-386.1564
-400.46211
-414.69373
-428.78157
-442.65049
-456.21997
-469.40415
-482.11193
-494.24724
-505.70924
-516.39278
-526.18892
-534.98551
-542.66809
-549.12077
-554.22743
-557.87297
-559.94485
-560.33471
-558.9402
-555.66687
-550.43015
-543.15749
-533.79048
-522.28587
-508.61777
-492.77894
-474.78272
-454.66334
-432.47699
-408.30169
-382.2336
-354.3872
-324.89704
-293.91426
-261.60316
-228.13905
-193.70548
-158.49148
-122.68857
-86.487968
-50.077904
-13.641169
22.647056
58.621043
94.126012
129.01928
163.17107
196.46494
228.79798
260.08066
290.23631
319.20055
346.92165
373.35962
398.48405
422.27356
444.71545
465.8047
485.5432
503.93909
521.00622
536.76328
551.23342
564.44623
576.44509
587.28365
596.98684
605.52331
613.00683
620.03372
627.01147
631.64553
-3.3929787
-6.6820762
-9.9279979
-13.102949
-16.279937
-19.484993
-22.730564
-26.024453
-29.373489
-32.784839
-36.266473
-39.827289
-43.477137
-47.22679
-51.087911
-55.073006
-59.19537
-63.469027
-67.908666
-72.529556
-77.347462
-82.378545
-87.639251
-93.146186
-98.91599
-104.96519
-111.31005
-117.9664
-124.9495
-132.2738
-139.95285
-147.999
-156.42331
-165.23527
-174.44263
-184.0512
-194.0646
-204.48412
-215.3084
-226.53333
-238.15173
-250.1532
-262.52387
-275.24625
-288.29892
-301.65642
-315.28901
-329.1625
-343.23805
-357.472
-371.81573
-386.21551
-400.61238
-414.94203
-429.13473
-443.11531
-456.80313
-470.11213
-482.95095
-495.22312
-506.82731
-517.65773
-527.60458
-536.55473
-544.39249
-551.00054
-556.2611
-560.05719
-562.27417
-562.80138
-561.53403
-558.37519
-553.23806
-546.04803
-536.7438
-525.27959
-511.62734
-495.7785
-477.74506
-457.56038
-435.28004
-410.98158
-384.76316
-356.74279
-327.05761
-295.86135
-263.32164
-229.61734
-194.93581
-159.46984
-123.41466
-86.965022
-50.312437
-13.642626
22.866685
59.047648
94.743806
129.81125
164.11939
197.55139
230.00435
261.38909
291.62968
320.66289
348.43775
374.91461
400.06391
423.86535
446.30714
467.38507
487.10162
505.46533
522.49
538.19386
552.59945
565.73558
577.64097
588.355
597.88842
606.24319
613.59486
620.30829
626.1112
629.14157
-3.1652433
-6.457883
-9.7510046
-12.97063
-16.177136
-19.398278
-22.650137
-25.943408
-29.286811
-32.688677
-36.157672
-39.703118
-43.335132
-47.064673
-50.903549
-54.864403
-58.96067
-63.206532
-67.616858
-72.207125
-76.993334
-81.991909
-87.21959
-92.693305
-98.430039
-104.44669
-110.75991
-117.38594
-124.34045
-131.63835
-139.2936
-147.31901
-155.72607
-164.52473
-173.72315
-183.32758
-193.34204
-203.7682
-214.60511
-225.84897
-237.49296
-249.52698
-261.93744
-274.7071
-287.81478
-301.23524
-314.93891
-328.89175
-343.05507
-357.38534
-371.83401
-386.34742
-400.86664
-415.32736
-429.65981
-443.7887
-457.63321
-471.10702
-484.11839
-496.57034
-508.36084
-519.38323
-529.52663
-538.67656
-546.71572
-553.5249
-558.9841
-562.97388
-565.37677
-566.07906
-564.97271
-561.95762
-556.9442
-549.8543
-540.6229
-529.20159
-515.55993
-499.68734
-481.59445
-461.31403
-438.90156
-414.43499
-388.01397
-359.75908
-329.81051
-298.32567
-265.47652
-231.44672
-196.42859
-160.61999
-124.22112
-87.431457
-50.446877
-13.457009
23.357036
59.824606
95.787038
131.09881
165.62828
199.2581
231.88532
263.42112
293.79037
322.93106
350.79356
377.33962
402.54122
426.37968
448.84463
469.93316
489.64878
508.00065
525.00263
540.6723
555.03095
568.10465
579.92465
590.51555
599.87866
608.03014
615.11835
621.28417
626.07723
628.29856
-3.0422169
-6.2965136
-9.5972935
-12.835559
-16.056639
-19.284972
-22.537064
-25.82483
-29.158097
-32.545998
-35.997747
-39.523028
-43.132205
-46.836421
-50.647642
-54.578653
-58.643047
-62.855182
-67.230123
-71.783576
-76.531801
-81.491514
-86.679776
-92.11387
-97.811166
-103.78897
-110.06437
-116.65408
-123.57423
-130.84023
-138.46655
-146.46651
-154.85214
-163.63388
-172.82045
-182.41859
-192.43285
-202.86539
-213.71573
-224.98056
-236.65348
-248.72483
-261.18142
-274.00638
-287.17889
-300.67401
-314.4625
-328.51058
-342.77981
-357.22686
-371.80339
-386.45589
-401.12554
-415.74811
-430.25382
-444.56733
-458.60766
-472.28819
-485.51679
-498.19585
-510.22256
-521.48918
-531.88351
-541.2894
-549.58753
-556.65632
-562.37301
-566.61498
-569.26122
-570.19407
-569.3014
-566.47929
-561.63389
-554.68189
-545.55437
-534.199
-520.58199
-504.69002
-486.53176
-466.13898
-443.56714
-418.89525
-392.22523
-363.68094
-333.40661
-301.56446
-268.33199
-233.8989
-198.46387
-162.23117
-125.40729
-88.197694
-50.803792
-13.420153
23.767854
60.586058
96.873046
132.48131
167.27797
201.14512
233.97984
265.69389
296.21317
325.47705
353.43752
380.05812
405.31282
429.18499
451.6663
472.75572
492.45853
510.78532
527.75103
543.37391
557.67547
570.68061
582.41572
592.89782
602.12858
610.1311
617.00441
622.73834
626.88341
628.68611
-2.9758224
-6.1868007
-9.47726
-12.718197
-15.942976
-19.171412
-22.418779
-25.697057
-29.016488
-32.386634
-35.817049
-39.317673
-42.899067
-46.572539
-50.350206
-54.245015
-58.270742
-62.441949
-66.773948
-71.282724
-75.984856
-80.897417
-86.037869
-91.423926
-97.073429
-103.00418
-109.23382
-115.77958
-122.65821
-129.88568
-137.47708
-145.44636
-153.80615
-162.56752
-171.7398
-181.33034
-191.34429
-201.78439
-212.65072
-223.9405
-235.64785
-247.7636
-260.27502
-273.16566
-286.41511
-299.99881
-313.88783
-328.04874
-342.44335
-357.02861
-371.75639
-386.57336
-401.42084
-416.2347
-430.94518
-445.47688
-459.74864
-473.67358
-487.15905
-500.10679
-512.41307
-523.96893
-534.66061
-544.37002
-552.97549
-560.3526
-566.37531
-570.91724
-573.8531
-575.06053
-574.42247
-571.83041
-567.18501
-560.39744
-551.39369
-540.11664
-526.52834
-510.61203
-492.37391
-471.84434
-449.07855
-424.1567
-397.18324
-368.28589
-337.61382
-305.33521
-271.63437
-236.70841
-200.76378
-164.01263
-126.66917
-88.946183
-51.051848
-13.186767
24.458499
61.705502
98.389491
134.36056
169.48432
203.64218
236.73132
268.6642
299.36802
328.78384
356.86561
383.57903
408.90036
432.81527
455.31765
476.40851
496.09487
514.38872
531.30587
546.86505
561.08758
573.99669
585.61455
595.95411
605.01967
612.83527
619.46067
624.81763
628.52383
630.08422
-2.9343361
-6.1029593
-9.3732735
-12.605359
-15.824198
-19.045274
-22.28201
-25.545793
-28.846799
-32.194708
-35.599232
-39.070463
-42.6191
-46.256582
-49.995168
-53.847967
-57.828944
-61.952887
-66.235373
-70.692695
-75.341787
-80.200123
-85.285606
-90.616439
-96.210989
-102.08763
-108.26458
-114.75973
-121.59046
-128.77345
-136.32445
-144.25813
-152.58785
-161.32539
-170.48079
-180.06213
-190.07525
-200.52358
-211.40786
-222.72596
-234.47262
-246.63927
-259.21372
-272.18007
-285.51839
-299.20459
-313.21017
-327.50208
-342.04252
-356.78875
-371.69293
-386.70199
-401.75746
-416.79533
-431.74592
-446.53379
-461.07765
-475.29029
-489.07858
-502.3435
-514.9803
-526.87863
-537.92294
-547.99291
-556.96412
-564.70886
-571.09722
-575.99836
-579.28191
-580.81995
-580.48955
-578.17649
-573.7746
-567.18865
-558.3385
-547.16124
-533.61385
-517.67542
-499.34914
-478.66368
-455.67405
-430.46177
-403.13428
-373.82385
-342.68556
-309.89476
-275.64391
-240.13902
-203.59586
-166.23595
-128.28273
-89.957725
-51.477124
-13.048669
25.130975
62.87836
100.02488
136.41791
171.9214
206.41611
239.79942
271.98483
302.90117
332.49165
360.71275
387.53293
412.9314
436.89678
459.42585
480.52232
500.19566
518.45985
535.33228
550.83267
564.98254
577.80384
589.31564
599.52845
608.44738
616.09116
622.49132
627.54781
630.953
632.36207
-2.9085604
-6.0383032
-9.2842413
-12.500571
-15.706718
-18.914607
-22.135725
-25.380534
-28.658825
-31.980156
-35.354231
-38.791184
-42.301789
-45.897584
-49.590957
-53.395179
-57.324417
-61.393714
-65.618944
-70.016755
-74.604485
-79.400066
-84.421911
-89.688779
-95.219645
-101.03353
-107.14933
-113.58566
-120.36066
-127.49175
-134.99551
-142.8874
-151.18158
-159.89066
-169.0255
-178.59497
-188.60572
-199.06194
-209.96514
-221.31392
-233.10372
-245.32662
-257.97109
-271.02182
-284.45944
-298.26039
-312.39666
-326.83567
-341.54002
-356.46735
-371.5702
-386.79578
-402.08588
-417.37668
-432.59863
-447.6763
-462.52829
-477.06709
-491.19908
-504.82449
-517.83743
-530.1261
-541.57298
-552.05527
-561.44548
-569.61218
-576.4211
-581.73626
-585.42149
-587.34244
-587.36949
-585.3814
-581.26423
-574.91515
-566.2466
-555.1888
-541.69259
-525.73201
-507.30653
-486.44269
-463.19514
-437.6469
-409.90889
-380.11865
-348.43826
-315.05153
-280.16059
-243.98197
-206.74242
-168.6746
-130.01278
-90.988783
-51.828225
-12.747194
26.050525
64.375688
102.05525
138.93347
174.87245
209.75228
243.47069
275.9424
307.09822
336.8839
365.25888
392.19486
417.67444
441.68969
464.24075
485.33454
504.98341
523.20395
540.01569
555.44005
569.49958
582.21609
593.60772
603.68496
612.45391
619.92812
626.12315
630.93911
634.12936
635.43692
-2.8942187
-5.9879285
-9.207113
-12.402749
-15.590721
-18.78022
-21.980962
-25.202372
-28.453682
-31.744159
-35.083372
-38.48141
-41.949058
-45.497917
-49.140483
-52.890186
-56.761404
-60.769446
-64.930513
-69.261636
-73.780603
-78.505849
-83.456354
-88.651497
-94.110924
-99.854375
-105.90152
-112.27178
-118.98412
-126.05683
-133.50739
-141.35214
-149.60618
-158.28304
-167.39449
-176.95031
-186.95805
-197.42279
-208.34691
-219.72981
-231.56776
-243.85358
-256.57649
-269.72185
-283.27094
-297.2008
-311.484
-326.08847
-340.97731
-356.10861
-371.4353
-386.90497
-402.45973
-418.03602
-433.56444
-448.96965
-464.17014
-479.07817
-493.59962
-507.63392
-521.07404
-533.80656
-545.71184
-556.66437
-566.53323
-575.18283
-582.47397
-588.26486
-592.41269
-594.77576
-595.21679
-593.60612
-589.82088
-583.74959
-575.296
-564.38217
-550.95169
-534.9726
-516.43989
-495.37749
-471.83947
-445.91053
-417.70551
-387.36806
-355.0684
-321.00022
-285.3769
-248.42726
-210.39089
-171.51339
-132.04164
-92.219382
-52.283098
-12.45847
27.042592
66.024285
104.3086
141.73639
178.16783
213.48243
247.57849
280.37238
311.79733
341.80219
370.34993
397.41612
422.98737
447.05975
469.63733
490.73073
510.3557
528.53181
545.28113
560.62712
574.59368
587.20316
598.47384
608.41714
617.04016
624.35327
630.36571
634.98734
638.01759
639.25269
-2.8835594
-5.9425893
-9.1336848
-12.305315
-15.470976
-18.637765
-21.81385
-25.007622
-28.227656
-31.482816
-34.782436
-38.136482
-41.555698
-45.051712
-48.63711
-52.325478
-56.131415
-60.070515
-64.159337
-68.415339
-72.8568
-77.502722
-82.37271
-87.486837
-92.865496
-98.529232
-104.49857
-110.79382
-117.43488
-124.44102
-131.83068
-139.62124
-147.8288
-156.46791
-165.55138
-175.08999
-185.0923
-195.56437
-206.50952
-217.92811
-229.81727
-242.17069
-254.97839
-268.22648
-281.897
-295.96763
-310.4116
-325.19741
-340.28873
-355.64415
-371.21709
-386.95557
-402.80207
-418.69337
-434.56032
-450.32771
-465.91404
-481.23137
-496.18513
-510.674
-524.58979
-537.81743
-550.23506
-561.71422
-572.12032
-581.31324
-589.14829
-595.47722
-600.14979
-603.016
-603.92968
-602.75155
-599.3486
-593.59908
-585.39662
-574.65375
-561.30551
-545.31278
-526.6652
-505.38346
-481.52084
-455.16383
-426.4317
-395.47515
-362.47377
-327.6327
-291.17844
-253.35405
-214.414
-174.61889
-134.23018
-93.505322
-52.69329
-12.030716
28.261273
67.979495
106.94042
144.9812
181.96001
217.75588
252.26801
285.4148
317.13245
347.3735
376.1051
403.30737
428.9716
453.0986
475.69705
496.78193
516.37306
534.49367
551.16907
566.4254
580.28863
592.78254
603.92665
613.73399
622.21291
629.37268
635.22199
639.68293
642.5887
643.76906
-2.8823112
-5.9087126
-9.0711901
-12.216551
-15.356775
-18.497377
-21.645205
-24.807664
-27.992635
-31.208512
-34.46432
-37.769837
-41.135719
-44.573588
-48.096102
-51.716996
-55.451094
-59.314294
-63.323537
-67.496742
-71.852728
-76.41111
-81.192186
-86.216785
-91.506127
-97.081641
-102.96479
-109.17688
-115.73882
-122.67097
-129.99285
-137.72294
-145.87848
-154.47516
-163.52691
-173.04564
-183.04102
-193.5202
-204.48756
-215.94449
-227.88909
-240.31602
-253.21618
-266.57655
-280.37994
-294.6048
-309.22505
-324.20986
-339.5235
-355.12516
-370.96877
-387.00287
-403.1704
-419.40851
-435.6484
-451.81506
-467.82709
-483.59641
-499.02809
-514.02009
-528.46308
-542.24032
-555.22761
-567.29342
-578.29919
-588.09987
-596.54477
-603.47852
-608.7426
-612.17764
-613.62735
-612.94155
-609.97577
-604.59643
-596.68546
-586.1443
-572.89795
-556.89884
-538.1302
-516.60877
-492.3867
-465.55235
-436.22998
-404.57828
-370.78762
-335.07633
-297.68602
-258.87618
-218.91844
-178.09063
-136.67093
-94.932483
-53.138443
-11.537826
29.637896
70.17735
109.89097
148.61197
186.19651
222.52338
257.49306
291.02648
323.06342
353.56077
382.49059
409.83823
435.60038
459.78322
482.40069
503.47276
523.02387
541.08148
557.67467
572.83286
586.58471
598.95623
609.96905
619.63852
627.97487
634.98823
640.68998
645.01411
647.81863
648.9554
-2.8804115
-5.8739656
-9.00708
-12.12432
-15.236458
-18.347735
-21.463854
-24.591297
-27.737238
-30.909556
-34.116911
-37.368845
-40.675882
-44.04961
-47.502744
-51.049162
-54.703921
-58.483244
-62.404481
-66.486053
-70.747366
-75.208712
-79.891141
-84.816316
-90.006364
-95.483685
-101.27078
-107.39002
-113.86348
-120.71265
-127.95827
-135.62005
-143.71646
-152.26443
-161.27913
-170.77372
-180.75908
-191.24355
-202.23269
-213.729
-225.73168
-238.23642
-251.2351
-264.71564
-278.66171
-293.0526
-307.86298
-323.06276
-338.61688
-354.48516
-370.62217
-386.97699
-403.4931
-420.10816
-436.75376
-453.35524
-469.83138
-486.09412
-502.04826
-517.59115
-532.6124
-546.99363
-560.60828
-573.32166
-584.99102
-595.46604
-604.58957
-612.19843
-618.12499
-622.19942
-624.25395
-624.12611
-621.65835
-616.70351
-609.13002
-598.82644
-585.70604
-569.71129
-550.81779
-529.03747
-504.4209
-477.05839
-447.07977
-414.65279
-379.98018
-343.29541
-304.85745
-264.94473
-223.84858
-181.86657
-139.29602
-96.427903
-53.541454
-10.899616
31.254605
72.700804
113.24289
152.70994
190.95622
227.86056
263.32524
297.27436
329.65204
360.42029
389.55692
417.05336
442.91252
467.14678
489.77606
510.82603
530.32646
548.30966
564.80907
579.85795
593.48829
605.729
616.60447
626.13285
634.3269
641.19896
646.76462
650.96842
653.6869
654.78722
-2.8878394
-5.8501501
-8.9539574
-12.042004
-15.124245
-18.203881
-21.285609
-24.375043
-27.478652
-30.603766
-33.758641
-36.952538
-40.195812
-43.49999
-46.877823
-50.34333
-53.911807
-57.599813
-61.42514
-65.406744
-69.56467
-73.919937
-78.494418
-83.310684
-88.391846
-93.761367
-99.442871
-105.45992
-111.83582
-118.59334
-125.75453
-133.34044
-141.37088
-149.86415
-158.83678
-168.30328
-178.27586
-188.76418
-199.77506
-211.31225
-223.37612
-235.96349
-249.06732
-262.67654
-276.77578
-291.34521
-306.36034
-321.79186
-337.60545
-353.76164
-370.21565
-386.91722
-403.81044
-420.83354
-437.91864
-454.99153
-471.97131
-488.77006
-505.29247
-521.43541
-537.08755
-552.12893
-566.43071
-579.85493
-592.2545
-603.47354
-613.34794
-621.7061
-628.37038
-633.15935
-635.89233
-636.39312
-634.4894
-630.01852
-622.83338
-612.80762
-599.84087
-583.86386
-564.84308
-542.78463
-517.73695
-489.79229
-459.08664
-425.79803
-390.14326
-352.37315
-312.76661
-271.62375
-229.25849
-185.991
-142.14035
-98.017747
-53.920568
-10.127333
33.106169
75.549658
117.00005
157.28218
196.24856
233.77854
269.77675
304.17124
336.91127
367.96491
397.3166
424.96476
450.91937
475.19984
497.83287
518.85057
538.2887
556.18508
572.57812
587.50555
601.00326
613.10369
623.83461
633.2174
641.26793
648.00164
653.43892
657.5333
660.17556
661.24396
-2.8936203
-5.8239704
-8.8980584
-11.955888
-15.006572
-18.052375
-21.097073
-24.145447
-27.203261
-30.277275
-33.375302
-36.506288
-39.680386
-42.909036
-46.205014
-49.582473
-53.056956
-56.645379
-60.366003
-64.238364
-68.283193
-72.522301
-76.978454
-81.675208
-86.636749
-91.887694
-97.452893
-103.3572
-109.62526
-116.28124
-123.34861
-130.84988
-138.80632
-147.23772
-156.16209
-165.59541
-175.55133
-186.04095
-197.07245
-208.65093
-220.77806
-233.45188
-246.66651
-260.41197
-274.67391
-289.43347
-304.66707
-320.34621
-336.43739
-352.9019
-369.69569
-386.76921
-404.06725
-421.52873
-439.08642
-456.66669
-474.18913
-491.56616
-508.70253
-525.49486
-541.83104
-557.58973
-572.63985
-586.84023
-600.03938
-612.07558
-622.77738
-631.96409
-639.44721
-645.03253
-648.52493
-649.73279
-648.46711
-644.54758
-637.80932
-628.10872
-615.32948
-599.3886
-580.24172
-557.88782
-532.37252
-503.78997
-472.28296
-438.04111
-401.29727
-362.3221
-321.41738
-278.90808
-235.13395
-190.44095
-145.17289
-99.663891
-54.231678
-9.1721444
35.244828
78.77825
121.21765
162.38357
202.12713
240.32871
276.8961
311.76221
344.88244
376.23193
405.80282
433.60151
459.64605
483.96378
506.58901
527.56108
546.92244
564.71708
580.98899
595.78089
609.13318
621.08236
631.65999
640.89115
648.79522
655.3913
660.7046
664.69622
667.26831
668.30759
-2.9086177
-5.8084796
-8.8532757
-11.880528
-14.898693
-17.909185
-20.914908
-23.919834
-26.929015
-29.948615
-32.985974
-36.049683
-39.149664
-42.297244
-45.505207
-48.787836
-52.160922
-55.641759
-59.249104
-63.003112
-66.925253
-71.038192
-75.365656
-79.93227
-84.763383
-89.884863
-95.322888
-101.10371
-107.25344
-113.79774
-120.76164
-128.16921
-136.04334
-144.4054
-153.27502
-162.66977
-172.60487
-183.09296
-194.14374
-205.76375
-217.95605
-230.72
-244.05098
-257.94018
-272.37437
-287.3357
-302.80153
-318.74429
-335.13131
-351.92469
-369.08118
-386.55201
-404.28277
-422.21314
-440.27668
-458.40052
-476.50491
-494.50281
-512.2993
-529.79096
-546.86517
-563.39942
-579.26061
-594.30443
-608.37497
-621.30453
-632.91394
-643.01283
-651.40096
-657.87013
-662.20911
-664.20915
-663.66251
-660.36881
-654.1428
-644.82096
-632.2685
-616.3862
-597.11688
-574.45081
-548.42992
-519.15013
-486.76167
-451.46725
-413.51797
-373.20722
-330.86295
-286.8386
-241.5035
-195.233
-148.39901
-101.36149
-54.461016
-8.01276
37.697937
82.418543
125.93085
168.05125
208.62985
247.54883
284.72009
320.08242
353.59853
385.25182
415.04329
442.98843
469.11445
493.45756
516.06062
536.971
556.23861
573.91424
590.0481
604.68848
617.88076
629.66599
640.07996
649.15175
656.90463
663.36155
668.55236
672.44464
674.94988
675.96161
-2.9228193
-5.7917085
-8.8072886
-11.803652
-14.78847
-17.762306
-20.727205
-23.686331
-26.644009
-29.605784
-32.578485
-35.570317
-38.59094
-41.651542
-44.764902
-47.945426
-51.209165
-54.573807
-58.058637
-61.684473
-65.473577
-69.449535
-73.637114
-78.062092
-82.751077
-87.731289
-93.030346
-98.676015
-104.69597
-111.11753
-117.96738
-125.27129
-133.05387
-141.33825
-150.14577
-159.49572
-169.40504
-179.88803
-190.95599
-202.61705
-214.87576
-227.7329
-241.18521
-255.22512
-269.84057
-285.01481
-300.72622
-316.94815
-333.64884
-350.79124
-368.33296
-386.22609
-404.41706
-422.84648
-441.44883
-460.15215
-478.8776
-497.53893
-516.04184
-534.28319
-552.1502
-569.5195
-586.25624
-602.21321
-617.23014
-631.13329
-643.7355
-654.83617
-664.22245
-671.6709
-676.95246
-679.83924
-680.10245
-677.51899
-671.88028
-662.99988
-650.72142
-634.92669
-615.5432
-592.55069
-565.98627
-535.94735
-502.59235
-466.1387
-426.85828
-385.0705
-341.13329
-295.43276
-248.37204
-200.35997
-151.80039
-103.08238
-54.572047
-6.6059403
40.513737
86.522118
131.19303
174.33893
215.80959
255.48991
293.29699
329.17684
363.10079
395.06186
425.07117
453.15462
479.34965
503.70247
526.26542
547.09474
566.24856
583.78518
599.7616
614.23219
627.24784
638.85454
649.09267
657.99558
665.59062
671.90474
676.97211
680.76587
683.20555
684.19039
-2.9459243
-5.7854053
-8.7726371
-11.738381
-14.689609
-17.626036
-20.548845
-23.460375
-26.364202
-29.265213
-32.169693
-35.085424
-38.021765
-40.989743
-44.002112
-47.073395
-50.219908
-53.459748
-56.81276
-60.300469
-63.945986
-67.773882
-71.810045
-76.081496
-80.616198
-85.442833
-90.590572
-96.088814
-101.96694
-108.25401
-114.97853
-122.1681
-129.8492
-138.04682
-146.78416
-156.08239
-165.96028
-176.43389
-187.51632
-199.21734
-211.54314
-224.49602
-238.07415
-252.27132
-267.0767
-282.47468
-298.44471
-314.96112
-331.99308
-349.50445
-367.45372
-385.7939
-404.47238
-423.43077
-442.60462
-461.92309
-481.3085
-500.67568
-519.93128
-538.97286
-557.68785
-575.95247
-593.6305
-610.57216
-626.61306
-641.57343
-655.25792
-667.45524
-677.93912
-686.46962
-692.798
-696.6751
-697.84857
-696.06961
-691.10299
-682.73579
-670.78658
-655.11482
-635.62977
-612.2984
-585.15155
-554.28779
-519.87441
-482.14543
-441.39643
-397.97656
-352.27822
-304.72495
-255.75857
-205.82615
-155.36769
-104.80511
-54.53305
-4.9116247
43.738635
91.139788
137.05759
181.301
223.72028
264.20423
302.67656
339.09197
373.43196
405.70067
435.92087
464.13017
490.37758
514.72039
537.22146
557.94681
576.96356
594.33819
610.13507
624.4152
637.23538
648.64695
658.69512
667.41777
674.84645
681.0121
685.95291
689.64689
692.02072
692.97865
-2.9700577
-5.7803166
-8.7399591
-11.675535
-14.593169
-17.491677
-20.371348
-23.233666
-26.08142
-28.918802
-31.75151
-34.586861
-37.433884
-40.303412
-43.208157
-46.162753
-49.183784
-52.28978
-55.501176
-58.840249
-62.331018
-65.999117
-69.871634
-73.976931
-78.344431
-83.00439
-87.98765
-93.325371
-99.048763
-105.18879
-111.77588
-118.83963
-126.4085
-134.50949
-143.16783
-152.40668
-162.24676
-172.70608
-183.79961
-195.53893
-207.93196
-220.98264
-234.69066
-249.05123
-264.05484
-279.68709
-295.9285
-312.75444
-330.13505
-348.0351
-366.41402
-385.22576
-404.41876
-423.93574
-443.71349
-463.68251
-483.76651
-503.88179
-523.93635
-543.8289
-563.44763
-582.66884
-601.35551
-619.35573
-636.50135
-652.60677
-667.46839
-680.86383
-692.55267
-702.2772
-709.76705
-714.74947
-716.94571
-716.07793
-711.88048
-704.10995
-692.55571
-677.05093
-657.48317
-633.80382
-606.03575
-574.27805
-538.70768
-499.57732
-457.20957
-411.98774
-364.34378
-314.74428
-263.67537
-211.62773
-159.08241
-106.49831
-54.301862
-2.8791327
47.429546
96.332506
143.5875
189.00064
232.42385
273.75121
312.91472
349.87953
384.63909
417.21042
447.62955
475.94733
502.22569
526.53425
548.94743
569.54197
588.39477
605.58118
621.17351
635.23987
647.84338
659.04102
668.88311
677.4122
684.66414
690.67376
695.48301
699.07423
701.38064
702.31109
-3.0028643
-5.7857818
-8.7193058
-11.625694
-14.510244
-17.370838
-20.206824
-23.018788
-25.808683
-28.579958
-31.337677
-34.088645
-36.841516
-39.606903
-42.397449
-45.22789
-48.115083
-51.078006
-54.137716
-57.317292
-60.641721
-64.137774
-67.833831
-71.75969
-75.946348
-80.425752
-85.230545
-90.393779
-95.948634
-101.92811
-108.36472
-115.29017
-122.73508
-130.72862
-139.29815
-148.46899
-158.26397
-168.70319
-179.8036
-191.57875
-204.0384
-217.18823
-231.02957
-245.55913
-260.76877
-276.64535
-293.17052
-310.3207
-328.06699
-346.37511
-365.20542
-384.51288
-404.24702
-424.35179
-444.76535
-465.41978
-486.2405
-507.14562
-528.04499
-548.83901
-569.41725
-589.65678
-609.4204
-628.55476
-646.88848
-664.23045
-680.36895
-695.07027
-708.07909
-719.1188
-727.8955
-734.11008
-737.45433
-737.61776
-734.29999
-727.22242
-716.14043
-700.85623
-681.23146
-657.19863
-628.77036
-596.04549
-559.21137
-518.54172
-474.39002
-427.17882
-377.38565
-325.52658
-272.13862
-217.76226
-162.92515
-108.1278
-53.83206
-0.45246584
51.649375
102.16755
150.85209
197.50724
241.98797
284.1955
324.07207
361.59531
396.77271
429.6361
460.2366
488.64
514.92261
539.16768
561.46233
581.89496
600.55307
617.52153
632.88117
646.70764
659.07074
670.03339
679.6512
687.9715
695.03448
700.87876
705.54975
709.03374
711.27013
712.1721
-3.0389146
-5.7955994
-8.7046219
-11.583145
-14.435499
-17.258554
-20.050659
-22.811442
-25.541966
-28.244877
-30.92455
-33.587225
-36.241141
-38.896648
-41.5663
-44.264923
-47.009649
-49.81992
-52.717455
-55.726179
-58.872118
-62.183256
-65.68936
-69.421772
-73.41318
-77.697349
-82.308857
-87.282786
-92.654434
-98.458976
-104.73117
-111.505
-118.81337
-126.68776
-135.15787
-144.25128
-153.9931
-164.40566
-175.50807
-187.31594
-199.84101
-213.09084
-227.06847
-241.7722
-257.19535
-273.32604
-290.14711
-307.63603
-325.76484
-344.50022
-363.80347
-383.63056
-403.93215
-424.65352
-445.73438
-467.10857
-488.70359
-510.43978
-532.22937
-553.97509
-575.56863
-596.88864
-617.79863
-638.14458
-657.75264
-676.42681
-693.9475
-710.06956
-724.5222
-737.00882
-747.21037
-754.79794
-759.43041
-760.76089
-758.44933
-752.1765
-741.65815
-726.65999
-707.01277
-682.62593
-653.49908
-619.7297
-581.51629
-539.15627
-493.03846
-443.63064
-391.46291
-337.10842
-281.16269
-224.22317
-166.87043
-109.65183
-53.068591
2.4336196
56.47048
108.72149
158.92958
206.89838
252.4878
295.60835
336.21484
374.29985
409.88719
443.02575
473.78377
502.24378
528.49808
552.64495
574.78536
595.02036
613.44886
630.16591
645.26138
658.81887
670.9152
681.61944
690.99263
699.08697
705.94698
711.61494
716.13946
719.51048
721.67334
722.54547
-3.0837926
-5.8166914
-8.7034833
-11.555981
-14.377526
-17.163911
-19.912415
-22.621639
-25.291686
-27.924334
-30.5232
-33.093904
-35.644211
-38.184171
-40.726217
-43.285249
-45.878673
-48.526415
-51.250886
-54.076911
-57.031622
-60.144303
-63.446206
-66.970333
-70.751183
-74.824477
-79.226869
-83.995623
-89.168304
-94.782427
-100.87514
-107.48286
-114.64097
-122.3834
-130.74233
-139.7478
-149.42735
-159.80568
-170.90421
-182.74079
-195.32925
-208.67915
-222.79536
-237.67785
-253.32144
-269.71559
-286.84431
-304.68611
-323.21399
-342.39551
-362.1929
-382.56314
-403.45804
-424.82427
-446.60323
-468.73079
-491.13683
-513.74441
-536.46872
-559.2156
-581.8797
-604.34223
-626.46843
-648.10472
-669.07573
-689.18141
-708.19485
-725.8596
-741.88893
-755.9653
-767.74296
-776.85945
-782.9369
-785.58803
-784.42732
-779.08872
-769.24171
-754.60899
-734.98427
-710.24895
-680.38612
-645.49036
-605.77203
-561.55529
-513.26954
-461.43476
-406.64194
-349.5302
-290.76243
-231.00138
-170.88776
-111.02166
-51.948
5.8536212
61.974828
116.08046
167.90729
217.26015
264.00613
308.06769
349.41505
388.05847
424.04079
457.43043
488.31502
516.79579
542.98279
566.99074
588.93572
608.93239
627.0919
643.52011
658.31641
671.57274
683.37319
693.79317
702.89926
710.74854
717.38982
722.8689
727.23736
730.48853
732.5736
733.41418
-3.1341756
-5.8454773
-8.7126782
-11.541483
-14.334115
-17.085196
-19.790853
-22.448579
-25.057439
-27.618264
-30.133841