/*--------------------------------*- C++ -*----------------------------------*\
| =========                 |                                                 |
| \\      /  F ield         | foam-extend: Open Source CFD                    |
|  \\    /   O peration     | Version:     4.1                                |
|   \\  /    A nd           | Web:         http://www.foam-extend.org         |
|    \\/     M anipulation  |                                                 |
\*---------------------------------------------------------------------------*/
FoamFile
{
    version     2.0;
    format      ascii;
    class       surfaceScalarField;
    location    "0.5";
    object      phi;
}
// * * * * * * * * * * * * * * * * * * * * * * * * * * * * * * * * * * * * * //

dimensions      [0 3 -1 0 0 0 0];

internalField   nonuniform List<scalar> 
31929
(
-0.042653578
5.4564069e-05
-0.042716007
6.2429901e-05
-0.042780291
6.4283165e-05
-0.042845419
6.5128726e-05
-0.042910973
6.5553884e-05
-0.042976765
6.5791935e-05
-0.043042689
6.5923369e-05
-0.043108674
6.5985014e-05
-0.043174668
6.5994476e-05
-0.043240633
6.5964821e-05
-0.043306537
6.5904276e-05
-0.043372359
6.5822344e-05
-0.043438086
6.5726227e-05
-0.043503711
6.562553e-05
-0.043569239
6.5528027e-05
-0.043634683
6.5444003e-05
-0.043700065
6.5381845e-05
-0.043765417
6.5352249e-05
-0.043830781
6.5363744e-05
-0.043896208
6.5426842e-05
-0.043961758
6.5549537e-05
-0.044027499
6.5741438e-05
-0.044093508
6.6009252e-05
-0.044159869
6.636094e-05
-0.04422667
6.6801185e-05
-0.044294006
6.7335606e-05
-0.044361972
6.7966217e-05
-0.044430668
6.8695721e-05
-0.044500191
6.9522955e-05
-0.044570638
7.0447311e-05
-0.044642102
7.1464134e-05
-0.044714671
7.2568963e-05
-0.044788426
7.3754848e-05
-0.044863438
7.5012043e-05
-0.044939769
7.6331333e-05
-0.045017469
7.7699471e-05
-0.045096573
7.9104273e-05
-0.045177103
8.052972e-05
-0.045259064
8.1961274e-05
-0.045342445
8.3380836e-05
-0.045427217
8.477229e-05
-0.045513334
8.611642e-05
-0.04560073
8.7395885e-05
-0.045689322
8.8592111e-05
-0.045779009
8.9687151e-05
-0.045869672
9.066345e-05
-0.045961177
9.1504076e-05
-0.04605337
9.2193125e-05
-0.046146085
9.2715518e-05
-0.046239143
9.3057525e-05
-0.046332349
9.3206726e-05
-0.046425502
9.3152138e-05
-0.046518386
9.2884249e-05
-0.046610781
9.2395257e-05
-0.04670246
9.1678693e-05
-0.04679319
9.0729775e-05
-0.046882735
8.9545197e-05
-0.046970858
8.8123102e-05
-0.047057321
8.6462977e-05
-0.047141887
8.4565779e-05
-0.04722432
8.2433503e-05
-0.04730439
8.0069488e-05
-0.047381868
7.7478229e-05
-0.047456533
7.4665407e-05
-0.047528171
7.1637933e-05
-0.047596575
6.8403993e-05
-0.047661549
6.4973324e-05
-0.047722906
6.1357057e-05
-0.047780474
5.7568207e-05
-0.047834096
5.3621753e-05
-0.04788363
4.9534841e-05
-0.047928957
4.5326922e-05
-0.047969977
4.1019903e-05
-0.048006615
3.6637978e-05
-0.048038823
3.2207885e-05
-0.048066582
2.7758878e-05
-0.048089905
2.3322732e-05
-0.048108839
1.8933688e-05
-0.048123465
1.4626051e-05
-0.0481339
1.0435881e-05
-0.048140301
6.400401e-06
-0.048142851
2.5496504e-06
-0.04814173
-1.1205019e-06
-0.048137141
-4.5889734e-06
-0.048129361
-7.7798653e-06
-0.048118725
-1.0636115e-05
-0.048105597
-1.3128299e-05
-0.04809036
-1.5236882e-05
-0.048073411
-1.6949035e-05
-0.048055153
-1.8257891e-05
-0.048035991
-1.9162333e-05
-0.048016324
-1.9666711e-05
-0.047996543
-1.9780601e-05
-0.047977025
-1.9518313e-05
-0.047958127
-1.8898357e-05
-0.047940184
-1.7942818e-05
-0.047923507
-1.6676669e-05
-0.04790838
-1.5127085e-05
-0.047895058
-1.3322679e-05
-0.047883765
-1.1292928e-05
-0.047874697
-9.0675066e-06
-0.047868022
-6.6755839e-06
-0.047863876
-4.1451832e-06
-0.047862371
-1.5050434e-06
-0.047863578
1.2066079e-06
-0.047867536
3.9578805e-06
-0.047874277
6.741568e-06
-0.04788383
9.5525816e-06
-0.047896207
1.2377242e-05
-0.047911409
1.52019e-05
-0.047929423
1.8014049e-05
-0.047950226
2.0802425e-05
-0.047973782
2.3556591e-05
-0.048000048
2.6266129e-05
-0.048028968
2.8919192e-05
-0.048060469
3.1500993e-05
-0.048094464
3.3995338e-05
-0.048130844
3.6380256e-05
-0.04816944
3.8596191e-05
-0.048209905
4.0464892e-05
-0.048251629
4.172391e-05
-0.048294404
4.2774241e-05
-0.048339599
4.5195815e-05
4.7490617e-05
-0.049030682
7.618557e-05
-0.04904959
8.1337794e-05
-0.049068974
8.3667596e-05
-0.049088753
8.4907835e-05
-0.049108788
8.5588529e-05
-0.049128964
8.5968087e-05
-0.049149202
8.6161756e-05
-0.049169446
8.6228542e-05
-0.049189651
8.6199211e-05
-0.049209782
8.6096443e-05
-0.049229814
8.5935561e-05
-0.049249724
8.5733208e-05
-0.049269501
8.5503056e-05
-0.049289138
8.5262126e-05
-0.049308635
8.5025356e-05
-0.049328002
8.4811262e-05
-0.049347257
8.4636169e-05
-0.049366424
8.4519611e-05
-0.049385539
8.447844e-05
-0.049404644
8.4532103e-05
-0.049423791
8.4696698e-05
-0.04944304
8.4990202e-05
-0.049462457
8.5426507e-05
-0.049482117
8.6020661e-05
-0.049502099
8.6782894e-05
-0.049522487
8.7723944e-05
-0.04954337
8.8849061e-05
-0.049564838
9.0163494e-05
-0.049586981
9.1666461e-05
-0.049609891
9.3356855e-05
-0.049633654
9.5227152e-05
-0.049658354
9.7269006e-05
-0.049684069
9.9469538e-05
-0.049710868
0.00010181112
-0.049738812
0.0001042757
-0.049767951
0.00010683875
-0.049798323
0.00010947622
-0.049829951
0.00011215794
-0.049862845
0.00011485497
-0.049896997
0.00011753277
-0.049932384
0.000120159
-0.049968964
0.00012269651
-0.050006679
0.00012511056
-0.050045451
0.00012736442
-0.050085186
0.00012942224
-0.050125771
0.00013124884
-0.050167078
0.00013281014
-0.050208958
0.00013407389
-0.050251252
0.00013500948
-0.050293784
0.00013558883
-0.050336363
0.00013578639
-0.050378791
0.00013557942
-0.050420854
0.00013494812
-0.050462335
0.00013387597
-0.050503006
0.00013234929
-0.050542634
0.00013035769
-0.050580982
0.00012789381
-0.050617813
0.00012495328
-0.050652884
0.00012153451
-0.050685957
0.00011763886
-0.050716794
0.00011326999
-0.050745158
0.0001084343
-0.050770821
0.00010314063
-0.050793556
9.7400276e-05
-0.050813145
9.122713e-05
-0.050829379
8.4637742e-05
-0.050842057
7.7651748e-05
-0.050850992
7.0291785e-05
-0.050856008
6.2584228e-05
-0.050856946
5.4559455e-05
-0.050853663
4.6252234e-05
-0.050846038
3.7702e-05
-0.050833971
2.8953053e-05
-0.050817388
2.0054393e-05
-0.05079624
1.1060338e-05
-0.050770511
2.0300674e-06
-0.050740214
-6.9748059e-06
-0.050705394
-1.5886572e-05
-0.050666135
-2.4632205e-05
-0.050622562
-3.3138005e-05
-0.05057483
-4.1330966e-05
-0.050523139
-4.914131e-05
-0.050467767
-5.649241e-05
-0.050409044
-6.331231e-05
-0.050347278
-6.9545888e-05
-0.050282773
-7.5141152e-05
-0.050215851
-8.0050458e-05
-0.050146851
-8.4236288e-05
-0.050076129
-8.7671916e-05
-0.050004045
-9.0341541e-05
-0.049930967
-9.2240406e-05
-0.04985726
-9.3374146e-05
-0.049783282
-9.3758602e-05
-0.049709381
-9.3418824e-05
-0.049635891
-9.2388086e-05
-0.049563127
-9.0706706e-05
-0.049491383
-8.842071e-05
-0.04942093
-8.5580663e-05
-0.049352013
-8.2239957e-05
-0.049284852
-7.8453896e-05
-0.049219641
-7.427828e-05
-0.049156548
-6.9768269e-05
-0.049095716
-6.4977606e-05
-0.049037262
-5.9958519e-05
-0.048981299
-5.4757194e-05
-0.048927925
-4.9415643e-05
-0.048877207
-4.3976384e-05
-0.048829177
-3.8477547e-05
-0.048783849
-3.2951021e-05
-0.048741222
-2.742508e-05
-0.048701283
-2.1924603e-05
-0.048664009
-1.6471694e-05
-0.048629366
-1.1086429e-05
-0.048597312
-5.788426e-06
-0.048567793
-5.9907582e-07
-0.048540749
4.4569832e-06
-0.048516106
9.3516753e-06
-0.04849377
1.404448e-05
-0.048473603
1.8429129e-05
-0.048455393
2.2254904e-05
-0.048438977
2.5307709e-05
-0.04842448
2.8277851e-05
-0.048410061
3.0776447e-05
2.4519589e-05
-0.049714056
8.8879457e-05
-0.049724255
9.1536557e-05
-0.049733891
9.3303635e-05
-0.049743398
9.4415377e-05
-0.049752878
9.5068227e-05
-0.04976233
9.5419708e-05
-0.049771731
9.5562493e-05
-0.049781057
9.5554953e-05
-0.04979029
9.5432496e-05
-0.049799418
9.5224052e-05
-0.049808433
9.4951181e-05
-0.049817337
9.4637204e-05
-0.049826137
9.4302327e-05
-0.049834845
9.397058e-05
-0.049843484
9.366377e-05
-0.04985208
9.3407686e-05
-0.04986067
9.3225655e-05
-0.049869294
9.3144435e-05
-0.049878004
9.3187618e-05
-0.049886853
9.3381369e-05
-0.049895904
9.3747762e-05
-0.049905224
9.4310467e-05
-0.049914886
9.5088057e-05
-0.049924965
9.6099738e-05
-0.04993554
9.7358621e-05
-0.049946694
9.8877598e-05
-0.049958508
0.00010066258
-0.049971063
0.00010271859
-0.049984439
0.00010504297
-0.049998714
0.00010763179
-0.05001396
0.00011047292
-0.050030243
0.00011355246
-0.050047624
0.00011685043
-0.050066154
0.00012034062
-0.050085874
0.00012399565
-0.050106815
0.00012777991
-0.050128997
0.00013165783
-0.050152425
0.0001355861
-0.050177092
0.00013952259
-0.050202978
0.00014341812
-0.050230045
0.00014722603
-0.050258242
0.00015089372
-0.050287503
0.00015437152
-0.050317746
0.00015760739
-0.050348874
0.00016055053
-0.050380777
0.00016315117
-0.050413328
0.00016536116
-0.050446389
0.00016713496
-0.050479809
0.0001684294
-0.050513425
0.00016920487
-0.050547064
0.00016942534
-0.050580543
0.00016905873
-0.050613672
0.00016807707
-0.050646253
0.00016645695
-0.050678083
0.00016417892
-0.050708953
0.00016122814
-0.050738653
0.00015759391
-0.05076697
0.00015326965
-0.050793688
0.00014825267
-0.050818593
0.00014254424
-0.050841472
0.00013614891
-0.050862113
0.00012907494
-0.050880306
0.00012133396
-0.050895847
0.00011294108
-0.050908535
0.00010391501
-0.050918175
9.4278324e-05
-0.050924582
8.4057956e-05
-0.050927575
7.3285305e-05
-0.050926988
6.1997229e-05
-0.050922665
5.023658e-05
-0.050914466
3.8052892e-05
-0.050902267
2.5502672e-05
-0.050885963
1.2649714e-05
-0.050865474
-4.3475676e-07
-0.050840742
-1.3671371e-05
-0.050811738
-2.6973997e-05
-0.050778465
-4.0247984e-05
-0.050740958
-5.3393743e-05
-0.050699284
-6.630661e-05
-0.050653544
-7.8877952e-05
-0.050603876
-9.099844e-05
-0.050550458
-0.00010255947
-0.050493498
-0.00011345269
-0.050433233
-0.00012357667
-0.050369938
-0.00013284136
-0.050303914
-0.00014116551
-0.050235485
-0.00014847875
-0.050164997
-0.0001547248
-0.050092806
-0.00015986281
-0.05001928
-0.00016386796
-0.049944788
-0.00016673191
-0.049869701
-0.0001684617
-0.04979438
-0.00016907971
-0.049719176
-0.0001686221
-0.049644427
-0.00016713736
-0.049570449
-0.00016468456
-0.049497539
-0.00016133132
-0.049425967
-0.00015715217
-0.049355981
-0.00015222583
-0.049287801
-0.00014663395
-0.049221621
-0.00014045891
-0.049157607
-0.00013378225
-0.049095901
-0.00012668332
-0.049036621
-0.00011923818
-0.048979861
-0.00011151703
-0.048925692
-0.00010358523
-0.048874164
-9.5503832e-05
-0.048825314
-8.7327628e-05
-0.048779161
-7.9104573e-05
-0.048735709
-7.0876995e-05
-0.048694952
-6.2681842e-05
-0.048656872
-5.4551815e-05
-0.048621442
-4.6516388e-05
-0.048588626
-3.8603969e-05
-0.048558381
-3.084452e-05
-0.048530653
-2.3271138e-05
-0.048505379
-1.5922395e-05
-0.048482476
-8.8576348e-06
-0.048461836
-2.2113992e-06
-0.04844337
3.7885147e-06
-0.048427118
9.0564382e-06
-0.048412977
1.4136752e-05
-0.048399263
1.7062292e-05
1.2376438e-05
-0.049768105
9.9183119e-05
-0.049777175
0.00010060686
-0.049785714
0.00010184272
-0.049794018
0.00010271901
-0.049802203
0.00010325303
-0.0498103
0.00010351748
-0.049818311
0.00010357313
-0.049826225
0.00010346922
-0.049834034
0.00010324081
-0.04984173
0.0001029204
-0.049849313
0.00010253445
-0.049856788
0.00010211221
-0.049864166
0.00010168004
-0.049871464
0.0001012687
-0.049878707
0.00010090666
-0.049885926
0.00010062674
-0.049893159
0.00010045907
-0.049900452
0.00010043734
-0.049907856
0.00010059162
-0.049915429
0.00010095445
-0.049923235
0.00010155357
-0.049931343
0.00010241796
-0.049939825
0.00010357054
-0.04994876
0.0001050343
-0.049958226
0.00010682488
-0.049968305
0.00010895699
-0.04997908
0.00011143688
-0.04999063
0.00011426906
-0.050003036
0.00011744873
-0.050016373
0.00012096891
-0.050030713
0.0001248127
-0.050046121
0.00012896047
-0.050062656
0.00013338508
-0.050080367
0.00013805169
-0.050099295
0.00014292358
-0.050119469
0.00014795409
-0.050140907
0.00015309623
-0.050163615
0.00015829371
-0.050187584
0.00016349132
-0.050212791
0.00016862546
-0.0502392
0.00017363536
-0.05026676
0.00017845321
-0.050295403
0.00018301464
-0.050325048
0.00018725257
-0.050355599
0.00019110148
-0.050386945
0.00019449724
-0.050418962
0.00019737785
-0.050451511
0.00019968462
-0.050484444
0.00020136199
-0.050517598
0.00020235893
-0.050550802
0.00020262898
-0.050583874
0.00020213073
-0.050616625
0.000200828
-0.050648858
0.00019869042
-0.050680372
0.00019569265
-0.050710959
0.00019181516
-0.050740409
0.00018704371
-0.050768508
0.00018136926
-0.050795043
0.00017478763
-0.050819799
0.00016729972
-0.05084256
0.00015891051
-0.050863115
0.00014962968
-0.050881252
0.00013947121
-0.050896765
0.00012845351
-0.050909449
0.00011659962
-0.050919109
0.00010393756
-0.050925552
9.0501077e-05
-0.050928596
7.6329797e-05
-0.05092807
6.1470587e-05
-0.050923812
4.5978443e-05
-0.050915676
2.991738e-05
-0.050903534
1.3360665e-05
-0.050887276
-3.6085036e-06
-0.050866813
-2.0897208e-05
-0.050842083
-3.8401863e-05
-0.050813049
-5.6007941e-05
-0.050779707
-7.359045e-05
-0.050742084
-9.1016327e-05
-0.050700245
-0.00010814566
-0.05065429
-0.00012483333
-0.050604356
-0.00014093242
-0.050550619
-0.0001562961
-0.050493291
-0.00017078059
-0.050432617
-0.00018425068
-0.050368875
-0.00019658315
-0.050302373
-0.00020766784
-0.050233441
-0.00021741041
-0.050162431
-0.00022573515
-0.050089707
-0.0002325868
-0.050015644
-0.00023793148
-0.049940618
-0.00024175734
-0.049865007
-0.00024407322
-0.049789178
-0.00024490851
-0.049713489
-0.00024431115
-0.049638281
-0.00024234559
-0.049563875
-0.00023909048
-0.04949057
-0.00023463594
-0.049418641
-0.00022908132
-0.049348335
-0.00022253155
-0.049279874
-0.00021509545
-0.04921345
-0.00020688279
-0.04914923
-0.00019800218
-0.049087354
-0.00018855912
-0.049027938
-0.00017865442
-0.048971073
-0.00016838194
-0.048916829
-0.00015782917
-0.048865257
-0.00014707642
-0.048816388
-0.00013619586
-0.048770242
-0.00012525116
-0.04872682
-0.00011429838
-0.048686116
-0.00010338617
-0.048648111
-9.2557294e-05
-0.048612777
-8.1849975e-05
-0.048580081
-7.1300339e-05
-0.04854998
-6.0945088e-05
-0.048522428
-5.0823608e-05
-0.048497367
-4.0982692e-05
-0.048474727
-3.1497589e-05
-0.04845443
-2.2509336e-05
-0.048436447
-1.4194054e-05
-0.048420793
-6.5977827e-06
-0.048407247
5.9089665e-07
-0.048395184
4.999094e-06
4.282672e-06
-0.049769833
0.00010868612
-0.049778772
0.00010954567
-0.049787331
0.00011040213
-0.049795661
0.00011104899
-0.049803844
0.0001114362
-0.049811913
0.00011158604
-0.049819873
0.0001115334
-0.049827721
0.00011131725
-0.049835451
0.00011097029
-0.049843057
0.00011052704
-0.049850541
0.00011001785
-0.049857906
0.00010947737
-0.049865164
0.00010893785
-0.049872332
0.00010843663
-0.049879434
0.0001080089
-0.049886502
0.00010769458
-0.049893574
0.00010753074
-0.049900694
0.0001075582
-0.049907916
0.00010781369
-0.049915298
0.00010833636
-0.049922905
0.00010915983
-0.049930805
0.00011031865
-0.049939075
0.00011184032
-0.049947793
0.00011375181
-0.049957039
0.00011607154
-0.049966898
0.00011881619
-0.049977454
0.00012199255
-0.04998879
0.00012560475
-0.050000987
0.00012964598
-0.050014124
0.00013410626
-0.050028276
0.00013896396
-0.050043509
0.00014419375
-0.050059885
0.00014976126
-0.050077457
0.00015562297
-0.050096266
0.00016173267
-0.050116344
0.00016803252
-0.050137712
0.0001744639
-0.050160375
0.0001809573
-0.050184328
0.00018744419
-0.050209549
0.00019384628
-0.050236002
0.00020008835
-0.050263636
0.00020608706
-0.050292384
0.00021176303
-0.050322165
0.00021703376
-0.050352883
0.00022181872
-0.050384425
0.00022603905
-0.050416665
0.00022961859
-0.050449466
0.00023248523
-0.050482675
0.00023457075
-0.050516128
0.00023581245
-0.050549652
0.00023615325
-0.050583064
0.00023554226
-0.050616171
0.00023393498
-0.050648775
0.000231294
-0.05068067
0.00022758805
-0.050711648
0.00022279294
-0.050741495
0.00021689091
-0.050769996
0.00020987048
-0.050796935
0.0002017261
-0.050822093
0.00019245827
-0.050845255
0.00018207246
-0.050866205
0.00017057979
-0.050884731
0.00015799653
-0.050900621
0.00014434427
-0.050913672
0.00012965023
-0.050923682
0.00011394769
-0.050930458
9.7276895e-05
-0.050933814
7.9685362e-05
-0.050933573
6.1229705e-05
-0.050929571
4.1976755e-05
-0.050921658
2.2004586e-05
-0.050909701
1.4031247e-06
-0.050893583
-1.97262e-05
-0.050873212
-4.1268103e-05
-0.05084852
-6.3093936e-05
-0.050819468
-8.5060581e-05
-0.050786046
-0.00010701211
-0.050748281
-0.00012878145
-0.050706234
-0.00015019255
-0.050660005
-0.00017106256
-0.050609731
-0.00019120585
-0.05055559
-0.00021043689
-0.050497796
-0.00022857462
-0.050436599
-0.00024544786
-0.050372283
-0.00026089931
-0.050305162
-0.00027478885
-0.050235576
-0.00028699683
-0.050163884
-0.00029742729
-0.05009046
-0.00030601007
-0.05001569
-0.00031270209
-0.049939959
-0.00031748819
-0.049863653
-0.00032037941
-0.049787148
-0.00032141287
-0.04971081
-0.00032064912
-0.049634986
-0.00031816961
-0.049560003
-0.00031407371
-0.049486164
-0.00030847517
-0.049413746
-0.00030149936
-0.049342999
-0.00029327851
-0.049274145
-0.00028394967
-0.049207377
-0.00027365094
-0.04914286
-0.00026251887
-0.049080733
-0.00025068581
-0.04902111
-0.00023827824
-0.048964077
-0.00022541409
-0.048909704
-0.00021220291
-0.048858036
-0.00019874459
-0.048809103
-0.00018512875
-0.048762919
-0.00017143448
-0.048719487
-0.00015773117
-0.048678794
-0.00014407856
-0.048640823
-0.00013052868
-0.048605546
-0.0001171273
-0.048572929
-0.00010391646
-0.048542937
-9.0937097e-05
-0.048515529
-7.8231768e-05
-0.048490661
-6.5851503e-05
-0.048468282
-5.3876077e-05
-0.04844836
-4.2431298e-05
-0.04843091
-3.1644605e-05
-0.048415925
-2.1582882e-05
-0.048403312
-1.2021663e-05
-0.048393088
-5.22537e-06
-1.7148569e-06
-0.049770388
0.00011784272
-0.049779278
0.00011843545
-0.049787911
0.00011903512
-0.049796347
0.00011948477
-0.049804631
0.00011972071
-0.049812786
0.00011974108
-0.049820817
0.000119564
-0.04982872
0.0001192204
-0.04983649
0.00011874052
-0.049844124
0.00011816034
-0.049851619
0.00011751366
-0.049858982
0.00011684021
-0.049866222
0.00011617796
-0.049873357
0.0001155709
-0.049880409
0.00011506099
-0.04988741
0.00011469547
-0.049894397
0.00011451857
-0.049901418
0.00011457848
-0.049908523
0.00011491895
-0.049915773
0.00011558601
-0.049923232
0.00011661953
-0.049930974
0.00011805992
-0.049939073
0.00011993959
-0.049947611
0.0001222898
-0.049956671
0.00012513204
-0.04996634
0.00012848521
-0.049976705
0.00013235687
-0.049987851
0.00013675094
-0.049999864
0.00014165873
-0.050012825
0.00014706738
-0.050026811
0.00015295058
-0.050041895
0.00015927724
-0.050058139
0.00016600575
-0.0500756
0.00017308377
-0.050094323
0.00018045543
-0.050114342
0.00018805151
-0.05013568
0.00019580149
-0.050158345
0.00020362234
-0.050182332
0.00021143186
-0.050207623
0.00021913668
-0.050234181
0.00022664674
-0.050261957
0.00023386276
-0.050290884
0.00024068989
-0.05032088
0.00024702981
-0.050351847
0.00025278649
-0.050383674
0.00025786598
-0.050416233
0.00026217754
-0.050449383
0.00026563529
-0.050482971
0.00026815803
-0.050516829
0.00026967111
-0.050550783
0.00027010663
-0.050584645
0.00026940405
-0.05061822
0.00026751045
-0.050651307
0.00026438133
-0.050683699
0.0002599795
-0.050715182
0.00025427615
-0.050745541
0.00024725008
-0.050774558
0.00023888748
-0.050802014
0.0002291815
-0.050827688
0.00021813237
-0.050851361
0.00020574611
-0.050872817
0.00019203525
-0.050891839
0.0001770183
-0.050908214
0.00016071991
-0.050921735
0.00014317126
-0.050932198
0.00012441054
-0.050939406
0.00010448414
-0.050943167
8.3446991e-05
-0.050943302
6.1365023e-05
-0.050939642
3.831635e-05
-0.05093203
1.4392378e-05
-0.050920326
-1.0300968e-05
-0.050904408
-3.5643694e-05
-0.050884178
-6.1498848e-05
-0.05085956
-8.7711695e-05
-0.05083051
-0.00011411062
-0.050797014
-0.00014050792
-0.050759094
-0.00016670161
-0.050716808
-0.00019247829
-0.050670255
-0.00021761575
-0.050619573
-0.00024188791
-0.050564941
-0.00026506874
-0.050506578
-0.00028693777
-0.05044474
-0.00030728588
-0.050379719
-0.00032592038
-0.050311838
-0.00034266969
-0.050241447
-0.00035738755
-0.050168918
-0.0003699567
-0.050094636
-0.00038029154
-0.050018999
-0.00038833958
-0.049942405
-0.00039408258
-0.04986525
-0.00039753434
-0.049787922
-0.00039874056
-0.049710796
-0.00039777556
-0.049634226
-0.00039473913
-0.049558547
-0.00038975275
-0.049484067
-0.00038295535
-0.049411066
-0.00037449982
-0.049339798
-0.00036454715
-0.049270484
-0.00035326396
-0.049203317
-0.00034081792
-0.049138461
-0.00032737451
-0.049076053
-0.00031309386
-0.049016202
-0.00029812886
-0.048958994
-0.00028262193
-0.048904492
-0.00026670501
-0.048852739
-0.00025049795
-0.04880376
-0.00023410796
-0.048757565
-0.00021762946
-0.048714151
-0.00020114489
-0.048673505
-0.0001847247
-0.048635604
-0.00016842963
-0.048600419
-0.00015231213
-0.048567917
-0.00013641896
-0.04853806
-0.00012079367
-0.048510812
-0.0001054801
-0.048486133
-9.0529934e-05
-0.048463991
-7.6018109e-05
-0.048444377
-6.2045583e-05
-0.048427317
-4.8704387e-05
-0.048412816
-3.6084716e-05
-0.048400952
-2.3885429e-05
-0.048391986
-1.4190953e-05
-6.6111305e-06
-0.049773066
0.00012685664
-0.04978194
0.00012730985
-0.049790639
0.00012773422
-0.049799175
0.00012802056
-0.049807566
0.00012811106
-0.04981582
0.00012799515
-0.049823937
0.00012768187
-0.049831914
0.00012719711
-0.049839743
0.00012656956
-0.04984742
0.00012583678
-0.049854942
0.00012503593
-0.049862313
0.00012421176
-0.049869544
0.00012340799
-0.049876648
0.00012267534
-0.04988365
0.00012206276
-0.049890579
0.00012162505
-0.049897475
0.00012141392
-0.049904381
0.00012148532
-0.049911353
0.00012189033
-0.049918449
0.00012268233
-0.049925738
0.00012390782
-0.049933291
0.00012561349
-0.049941189
0.00012783705
-0.049949513
0.00013061444
-0.049958352
0.00013397056
-0.049967793
0.00013792686
-0.049977928
0.00014249192
-0.049988847
0.00014766969
-0.050000638
0.00015344977
-0.050013387
0.0001598165
-0.050027176
0.00016673896
-0.050042079
0.00017418029
-0.050058165
0.00018209155
-0.050075492
0.0001904114
-0.050094111
0.00019907416
-0.050114058
0.00020799892
-0.05013536
0.00021710293
-0.050158027
0.00022628927
-0.050182057
0.00023546164
-0.050207431
0.00024451111
-0.050234117
0.00025333232
-0.050262063
0.00026180948
-0.050291205
0.00026983178
-0.05032146
0.00027728452
-0.050352729
0.00028405567
-0.050384899
0.00029003564
-0.05041784
0.00029511868
-0.050451409
0.0002992047
-0.05048545
0.0003021991
-0.050519794
0.000304015
-0.050554261
0.00030457341
-0.050588661
0.00030380395
-0.050622796
0.00030164518
-0.05065646
0.00029804544
-0.050689442
0.00029296166
-0.050721526
0.00028636048
-0.050752494
0.00027821736
-0.050782123
0.00026851631
-0.05081019
0.00025724935
-0.050836475
0.00024441653
-0.050860753
0.00023002452
-0.050882805
0.00021408731
-0.050902412
0.00019662558
-0.050919359
0.00017766689
-0.050933434
0.0001572461
-0.05094443
0.00013540599
-0.050952144
0.00011219857
-0.050956383
8.7685665e-05
-0.05095696
6.1941866e-05
-0.050953699
3.5055922e-05
-0.050946439
7.1319027e-06
-0.050935031
-2.1709117e-05
-0.050919346
-5.1328176e-05
-0.050899278
-8.1566806e-05
-0.050874745
-0.00011224472
-0.050845695
-0.00014316119
-0.050812107
-0.00017409589
-0.050773997
-0.00020481084
-0.050731422
-0.00023505381
-0.050684476
-0.00026456144
-0.050633299
-0.00029306519
-0.050578072
-0.00032029624
-0.050519017
-0.00034599211
-0.0504564
-0.0003699034
-0.05039052
-0.00039179994
-0.050321713
-0.00041147681
-0.050250341
-0.00042875952
-0.05017679
-0.00044350831
-0.05010146
-0.0004556214
-0.050024763
-0.00046503668
-0.049947112
-0.00047173308
-0.049868919
-0.00047572785
-0.049790583
-0.00047707637
-0.04971249
-0.0004758681
-0.049635007
-0.00047222276
-0.049558474
-0.00046628577
-0.049483206
-0.00045822307
-0.049409489
-0.00044821687
-0.049337577
-0.0004364587
-0.049267695
-0.00042314643
-0.049200034
-0.00040847875
-0.049134757
-0.00039265136
-0.049071998
-0.00037585326
-0.049011862
-0.0003582646
-0.048954431
-0.00034005281
-0.048899764
-0.0003213726
-0.048847898
-0.00030236398
-0.048798854
-0.0002831518
-0.048752638
-0.00026384556
-0.048709242
-0.00024454035
-0.04866865
-0.00022531677
-0.048630837
-0.00020624342
-0.04859577
-0.00018737842
-0.048563417
-0.0001687719
-0.048533743
-0.00015046856
-0.048506711
-0.00013251179
-0.04848229
-0.00011495059
-0.048460459
-9.7849644e-05
-0.048441219
-8.1285451e-05
-0.048424596
-6.5327189e-05
-0.04841061
-5.0070476e-05
-0.048399444
-3.5051512e-05
-0.048391371
-2.2264684e-05
-1.0861654e-05
-0.049777588
0.0001358157
-0.049786472
0.00013619393
-0.049795233
0.0001364956
-0.049803859
0.00013664644
-0.049812348
0.00013659981
-0.049820697
0.00013634433
-0.049828901
0.00013588528
-0.04983695
0.00013524629
-0.049844836
0.00013445573
-0.049852552
0.00013355324
-0.049860096
0.0001325795
-0.049867469
0.00013158441
-0.049874678
0.00013061761
-0.04988174
0.00012973674
-0.049888675
0.00012899801
-0.049895514
0.00012846408
-0.049902295
0.00012819455
-0.049909063
0.0001282535
-0.049915872
0.00012869985
-0.049922785
0.00012959473
-0.049929869
0.00013099176
-0.049937199
0.00013294438
-0.049944858
0.00013549605
-0.049952932
0.00013868782
-0.04996151
0.00014254839
-0.049970685
0.00014710211
-0.049980552
0.00015235892
-0.049991205
0.000158323
-0.050002738
0.00016498246
-0.05001524
0.00017231898
-0.050028799
0.00018029705
-0.050043492
0.00018887402
-0.050059394
0.00019799351
-0.050076568
0.00020758507
-0.050095067
0.0002175729
-0.050114932
0.00022786412
-0.050136192
0.00023836338
-0.050158862
0.00024895942
-0.050182942
0.00025954136
-0.050208415
0.00026998419
-0.05023525
0.00028016664
-0.050263396
0.00028995586
-0.050292789
0.00029922442
-0.050323345
0.00030784066
-0.050354965
0.00031567594
-0.050387534
0.00032260445
-0.05042092
0.00032850488
-0.050454978
0.00033326239
-0.050489547
0.00033676861
-0.050524456
0.00033892402
-0.050559521
0.00033963824
-0.050594548
0.00033883085
-0.050629335
0.00033643175
-0.050663671
0.00033238209
-0.050697343
0.00032663292
-0.050730129
0.00031914646
-0.050761806
0.00030989495
-0.05079215
0.00029886041
-0.050820935
0.00028603386
-0.050847934
0.00027141539
-0.050872922
0.00025501239
-0.050895675
0.00023684036
-0.050915971
0.00021692207
-0.050933592
0.00019528783
-0.050948322
0.00017197583
-0.050959949
0.00014703298
-0.050968267
0.00012051631
-0.050973075
9.2493886e-05
-0.050974181
6.304809e-05
-0.050971403
3.2277473e-05
-0.050964569
2.9810585e-07
-0.050953523
-3.2754459e-05
-0.050938128
-6.6723361e-05
-0.050918267
-0.00010142791
-0.050893849
-0.00013666247
-0.050864814
-0.0001721968
-0.050831133
-0.00020777701
-0.050792816
-0.00024312777
-0.050749913
-0.00027795625
-0.050702519
-0.00031195573
-0.050650772
-0.00034481274
-0.050594855
-0.00037621292
-0.050534998
-0.00040584886
-0.050471474
-0.00043342802
-0.050404593
-0.00045868018
-0.050334705
-0.0004813648
-0.050262188
-0.00050127717
-0.050187442
-0.00051825363
-0.050110888
-0.00053217538
-0.050032955
-0.00054297043
-0.049954073
-0.00055061521
-0.049874669
-0.00055513129
-0.04979516
-0.00055658507
-0.049715946
-0.00055508285
-0.049637402
-0.00055076629
-0.049559881
-0.00054380689
-0.049483704
-0.00053439982
-0.049409162
-0.00052275886
-0.049336513
-0.0005091082
-0.04926598
-0.00049367889
-0.049197757
-0.00047670242
-0.049132002
-0.00045840625
-0.049068846
-0.00043900953
-0.04900839
-0.00041872065
-0.04895071
-0.00039773281
-0.048895858
-0.00037622394
-0.048843868
-0.00035435452
-0.048794752
-0.00033226706
-0.048748512
-0.00031008596
-0.048705134
-0.00028791858
-0.048664596
-0.000265855
-0.048626868
-0.0002439709
-0.048591918
-0.0002223289
-0.048559709
-0.00020098114
-0.048530205
-0.0001799719
-0.048503375
-0.00015934198
-0.048479191
-0.00013913427
-0.048457641
-0.00011939984
-0.048438734
-0.00010019297
-0.048422496
-8.156475e-05
-0.048408969
-6.3597467e-05
-0.04839838
-4.5641042e-05
-0.048390934
-2.9710744e-05
-1.4705199e-05
-0.049783927
0.00014477603
-0.049792849
0.00014511613
-0.049801684
0.00014533009
-0.049810404
0.00014536703
-0.049818996
0.0001451914
-0.049827446
0.00014479459
-0.049835742
0.00014418142
-0.049843871
0.00014337539
-0.049851821
0.00014240575
-0.049859583
0.00014131485
-0.049867151
0.00014014728
-0.049874525
0.00013895832
-0.049881711
0.00013780381
-0.049888723
0.0001367486
-0.049895581
0.00013585652
-0.049902316
0.00013519851
-0.049908964
0.00013484249
-0.049915571
0.00013486117
-0.049922193
0.00013532183
-0.049928892
0.00013629391
-0.049935739
0.00013783866
-0.049942812
0.00014001684
-0.049950194
0.00014287819
-0.049957976
0.00014646935
-0.04996625
0.00015082329
-0.049975116
0.00015596768
-0.049984671
0.00016191415
-0.049995016
0.00016866742
-0.050006248
0.00017621433
-0.050018463
0.00018453401
-0.050031752
0.00019358642
-0.050046201
0.00020332312
-0.050061888
0.00021368017
-0.05007888
0.00022457778
-0.050097237
0.00023592977
-0.050117004
0.00024763094
-0.050138214
0.00025957286
-0.050160884
0.00027162947
-0.050185017
0.00028367471
-0.0502106
0.00029556689
-0.050237601
0.00030716816
-0.050265973
0.00031832792
-0.05029565
0.00032890144
-0.050326549
0.00033873934
-0.050358569
0.00034769568
-0.050391592
0.0003556278
-0.050425485
0.00036239814
-0.0504601
0.00036787659
-0.050495272
0.00037194045
-0.050530825
0.00037447715
-0.050566571
0.0003753846
-0.050602312
0.00037457209
-0.050637841
0.0003719607
-0.050672944
0.00036748437
-0.050707399
0.00036108835
-0.050740983
0.00035273051
-0.050773468
0.0003423801
-0.050804625
0.00033001735
-0.050834224
0.00031563255
-0.050862034
0.00029922602
-0.050887828
0.00028080605
-0.050911377
0.00026038968
-0.050932457
0.00023800177
-0.050950845
0.00021367514
-0.05096632
0.00018745099
-0.050978667
0.00015937979
-0.050987673
0.00012952287
-0.050993133
9.7953777e-05
-0.050994847
6.4761638e-05
-0.050992623
3.0053716e-05
-0.050986282
-6.0426553e-06
-0.050975658
-4.337861e-05
-0.050960601
-8.177995e-05
-0.050940985
-0.00012104412
-0.050916708
-0.0001609401
-0.050887697
-0.00020120762
-0.050853916
-0.00024155825
-0.050815366
-0.00028167772
-0.050772091
-0.00032123051
-0.050724183
-0.00035986396
-0.050671779
-0.00039721666
-0.050615067
-0.00043292539
-0.050554281
-0.00046663435
-0.050489705
-0.00049800446
-0.050421663
-0.00052672232
-0.050350519