/*--------------------------------*- C++ -*----------------------------------*\
| =========                 |                                                 |
| \\      /  F ield         | foam-extend: Open Source CFD                    |
|  \\    /   O peration     | Version:     4.1                                |
|   \\  /    A nd           | Web:         http://www.foam-extend.org         |
|    \\/     M anipulation  |                                                 |
\*---------------------------------------------------------------------------*/
FoamFile
{
    version     2.0;
    format      ascii;
    class       volScalarField;
    location    "0.5";
    object      rAU;
}
// * * * * * * * * * * * * * * * * * * * * * * * * * * * * * * * * * * * * * //

dimensions      [0 0 1 0 0 0 0];

internalField   nonuniform List<scalar> 
16126
(
0.00013372979
0.00013355751
0.0001334108
0.000133263
0.00013311345
0.00013296419
0.00013281385
0.0001326642
0.00013251377
0.00013236427
0.00013221418
0.0001320652
0.00013191578
0.00013176758
0.00013161902
0.00013147173
0.0001313241
0.00013117772
0.00013103093
0.00013088528
0.00013073909
0.00013059383
0.00013044781
0.00013030247
0.00013015606
0.00013000999
0.00012986249
0.00012971496
0.0001295656
0.0001294158
0.00012926378
0.00012911052
0.00012895583
0.00012879836
0.00012863953
0.00012847762
0.0001283141
0.00012814732
0.00012797878
0.00012780691
0.00012763329
0.00012745652
0.00012727773
0.00012709661
0.00012691342
0.00012672837
0.00012654169
0.00012635379
0.00012616486
0.00012597532
0.00012578556
0.000125596
0.00012540704
0.00012521927
0.00012503304
0.00012484889
0.00012466732
0.00012448884
0.00012431391
0.00012414316
0.00012397696
0.00012381584
0.00012366028
0.00012351073
0.00012336762
0.00012323133
0.00012310237
0.00012298096
0.00012286749
0.00012276222
0.00012266541
0.00012257722
0.00012249792
0.00012242749
0.00012236603
0.00012231351
0.00012226986
0.00012223491
0.00012220856
0.0001221904
0.00012218017
0.00012217745
0.00012217745
0.00012218188
0.00012219305
0.00012221037
0.00012223319
0.00012226077
0.00012229235
0.00012232711
0.00012236437
0.00012240322
0.00012244291
0.00012248269
0.0001225218
0.00012255956
0.00012259527
0.00012262844
0.00012265841
0.0001226847
0.0001227069
0.00012272461
0.00012273749
0.00012274539
0.0001227452
0.00012273697
0.00012272325
0.00012270401
0.00012267921
0.00012264898
0.00012261327
0.00012257219
0.00012252584
0.00012247433
0.00012241776
0.00012235643
0.00012229042
0.00012222001
0.00012214555
0.00012206774
0.0001219877
0.00012190589
0.00012181966
0.000121704
0.00012050832
0.00012043454
0.00012039494
0.00012035704
0.0001203185
0.0001202806
0.00012024184
0.00012020375
0.0001201649
0.00012012685
0.00012008815
0.00012005034
0.00012001195
0.00011997452
0.00011993656
0.00011989958
0.00011986205
0.00011982545
0.00011978824
0.00011975187
0.00011971474
0.00011967829
0.00011964088
0.00011960392
0.00011956575
0.00011952775
0.00011948825
0.00011944859
0.00011940711
0.00011936514
0.00011932101
0.0001192757
0.00011922905
0.0001191798
0.00011912932
0.000119076
0.00011902127
0.00011896356
0.00011890434
0.0001188421
0.00011877838
0.00011871185
0.00011864358
0.0001185733
0.00011850124
0.00011842761
0.00011835261
0.00011827663
0.00011819985
0.00011812266
0.0001180454
0.00011796848
0.00011789226
0.00011781728
0.00011774387
0.00011767254
0.00011760373
0.00011753794
0.00011747558
0.00011741724
0.00011736327
0.00011731418
0.00011727039
0.00011723235
0.00011720046
0.00011717508
0.00011715668
0.00011714549
0.00011714186
0.00011714605
0.0001171583
0.00011717875
0.00011720766
0.000117245
0.00011729084
0.00011734516
0.0001173935
0.00011744808
0.00011751108
0.00011758221
0.00011766132
0.00011774812
0.0001178381
0.00011793273
0.00011803407
0.00011814166
0.00011825504
0.00011837364
0.00011849688
0.0001186241
0.00011875476
0.00011888808
0.00011902341
0.00011916008
0.0001192974
0.00011943473
0.0001195714
0.00011970692
0.00011984062
0.00011997202
0.00012010064
0.00012022605
0.00012034783
0.00012046578
0.00012057677
0.00012068067
0.00012077978
0.00012087397
0.00012096313
0.00012104735
0.0001211265
0.00012120066
0.00012126986
0.00012133417
0.00012139287
0.00012143828
0.0001214794
0.0001215165
0.00012154995
0.0001215805
0.00012160892
0.00012163413
0.00012165677
0.0001216707
0.00011921151
0.00011915936
0.00011913657
0.00011911652
0.00011909659
0.00011907783
0.00011905858
0.00011904032
0.00011902153
0.00011900373
0.00011898544
0.00011896815
0.00011895036
0.00011893355
0.0001189162
0.00011889975
0.00011888265
0.00011886632
0.00011884917
0.00011883259
0.00011881497
0.00011879767
0.00011877907
0.00011876049
0.00011874029
0.0001187198
0.00011869736
0.00011867429
0.00011864895
0.00011862265
0.00011859378
0.0001185633
0.0001185311
0.00011849594
0.00011845925
0.00011841947
0.00011837805
0.00011833351
0.00011828733
0.0001182381
0.00011818739
0.00011813392
0.00011807883
0.00011802188
0.00011796335
0.0001179035
0.00011784256
0.00011778094
0.00011771886
0.0001176567
0.00011759484
0.00011753366
0.00011747353
0.00011741499
0.00011735834
0.00011730406
0.00011725258
0.00011720433
0.00011715973
0.0001171193
0.00011708335
0.00011705234
0.00011702666
0.00011700669
0.0001169928
0.0001169853
0.00011698462
0.00011699094
0.00011700455
0.00011702569
0.00011705455
0.00011709124
0.00011713596
0.00011718758
0.00011722392
0.00011726811
0.00011730584
0.00011734946
0.00011740129
0.00011746121
0.00011752922
0.00011760518
0.0001176889
0.00011778014
0.00011787856
0.00011798378
0.00011809532
0.00011821269
0.0001183353
0.00011846251
0.00011859378
0.00011872832
0.00011886547
0.00011900453
0.0001191448
0.00011928559
0.00011942618
0.00011956605
0.00011970449
0.00011984095
0.00011997492
0.00012010592
0.00012023349
0.00012035736
0.00012047711
0.0001205925
0.00012070331
0.00012080934
0.00012091044
0.00012100661
0.00012109767
0.00012118363
0.00012126447
0.00012134022
0.00012141009
0.00012146633
0.00012151788
0.00012156489
0.00012160755
0.00012163734
0.00012166219
0.00012168314
0.00012170444
0.00012171418
0.00011909049
0.00011904464
0.00011902458
0.00011900667
0.00011898885
0.00011897232
0.00011895543
0.00011893962
0.00011892337
0.00011890818
0.00011889253
0.00011887793
0.00011886284
0.00011884872
0.00011883405
0.00011882024
0.00011880572
0.0001187919
0.00011877717
0.0001187629
0.00011874745
0.00011873219
0.00011871545
0.00011869857
0.00011867988
0.0001186607
0.00011863937
0.00011861719
0.00011859253
0.00011856671
0.0001185381
0.00011850768
0.00011847534
0.00011843988
0.00011840271
0.0001183623
0.00011832013
0.00011827472
0.00011822761
0.0001181774
0.00011812567
0.0001180712
0.00011801513
0.00011795726
0.00011789793
0.00011783738
0.00011777591
0.00011771393
0.0001176517
0.00011758962
0.0001175281
0.00011746754
0.00011740834
0.00011735102
0.00011729594
0.00011724355
0.00011719433
0.0001171487
0.00011710707
0.00011706998
0.00011703775
0.00011701082
0.00011698959
0.00011697444
0.00011696573
0.00011696375
0.00011696893
0.00011698144
0.00011700156
0.0001170295
0.00011706544
0.00011710945
0.00011715623
0.00011718368
0.00011719563
0.0001172154
0.00011724321
0.00011727921
0.00011732365
0.00011737644
0.00011743768
0.00011750728
0.00011758511
0.00011767098
0.00011776459
0.00011786559
0.00011797357
0.00011808801
0.00011820838
0.00011833402
0.0001184644
0.0001185987
0.00011873626
0.00011887634
0.0001190182
0.00011916111
0.00011930433
0.00011944727
0.00011958917
0.00011972945
0.00011986753
0.00012000291
0.00012013506
0.00012026368
0.0001203883
0.00012050865
0.00012062446
0.00012073553
0.00012084165
0.00012094281
0.00012103881
0.00012112963
0.00012121525
0.00012129565
0.00012137082
0.00012144088
0.00012150574
0.00012156545
0.00012161987
0.00012166005
0.00012169361
0.00012172045
0.00012173793
0.00012173712
0.00011906894
0.00011902537
0.00011900605
0.00011898834
0.00011897056
0.00011895407
0.00011893726
0.00011892158
0.00011890551
0.00011889055
0.00011887517
0.00011886086
0.00011884609
0.0001188323
0.00011881796
0.00011880448
0.00011879027
0.00011877672
0.00011876221
0.00011874811
0.00011873277
0.00011871753
0.00011870071
0.00011868364
0.00011866465
0.00011864503
0.00011862312
0.00011860023
0.00011857469
0.00011854784
0.00011851805
0.00011848629
0.00011845246
0.00011841536
0.00011837641
0.00011833411
0.00011828993
0.00011824242
0.00011819313
0.00011814068
0.00011808669
0.00011802995
0.00011797164
0.00011791158
0.00011785013
0.00011778759
0.00011772425
0.00011766058
0.00011759686
0.00011753353
0.00011747101
0.00011740974
0.00011735012
0.00011729274
0.00011723793
0.00011718621
0.00011713802
0.00011709384
0.00011705407
0.00011701927
0.00011698976
0.00011696598
0.00011694833
0.0001169372
0.00011693293
0.00011693582
0.00011694628
0.00011696447
0.00011699066
0.00011702504
0.00011706776
0.00011711888
0.00011713929
0.00011713569
0.00011713964
0.00011715146
0.00011717143
0.00011719978
0.0001172368
0.00011728248
0.00011733699
0.00011740029
0.00011747232
0.00011755294
0.00011764189
0.00011773888
0.0001178435
0.00011795528
0.00011807367
0.00011819804
0.00011832782
0.00011846221
0.0001186005
0.00011874191
0.00011888569
0.00011903105
0.0001191772
0.00011932351
0.00011946916
0.00011961352
0.00011975597
0.00011989594
0.00012003288
0.00012016643
0.00012029609
0.00012042155
0.00012054251
0.00012065873
0.00012076998
0.00012087624
0.00012097727
0.00012107306
0.00012116355
0.00012124872
0.00012132853
0.00012140308
0.00012147226
0.00012153604
0.00012159427
0.00012164669
0.00012169315
0.00012173222
0.00012175582
0.00012174968
0.00011905105
0.00011900841
0.00011898947
0.0001189718
0.00011895393
0.00011893731
0.0001189204
0.00011890465
0.00011888857
0.00011887363
0.00011885832
0.00011884412
0.00011882948
0.00011881586
0.00011880168
0.00011878837
0.00011877432
0.00011876092
0.00011874653
0.00011873249
0.00011871716
0.00011870185
0.00011868488
0.00011866756
0.0001186482
0.00011862809
0.00011860556
0.0001185819
0.00011855545
0.00011852753
0.0001184965
0.00011846335
0.00011842798
0.00011838918
0.00011834839
0.00011830411
0.00011825783
0.00011820811
0.00011815653
0.00011810172
0.00011804533
0.00011798617
0.00011792545
0.00011786303
0.00011779928
0.00011773453
0.00011766912
0.00011760355
0.00011753811
0.00011747329
0.00011740953
0.0001173473
0.00011728704
0.00011722933
0.00011717457
0.00011712325
0.00011707587
0.0001170329
0.00011699477
0.00011696203
0.00011693501
0.00011691417
0.0001168999
0.0001168926
0.00011689259
0.00011690018
0.00011691577
0.00011693951
0.00011697165
0.00011701238
0.00011706181
0.00011710517
0.00011709158
0.0001170798
0.00011707557
0.00011707929
0.00011709131
0.0001171119
0.00011714144
0.00011717998
0.00011722776
0.00011728481
0.00011735111
0.00011742658
0.00011751102
0.00011760416
0.00011770563
0.00011781497
0.00011793164
0.000118055
0.00011818449
0.00011831926
0.00011845857
0.00011860163
0.00011874761
0.0001188957
0.00011904505
0.00011919498
0.0001193446
0.00011949325
0.00011964025
0.00011978498
0.00011992684
0.00012006543
0.00012020021
0.00012033083
0.00012045697
0.00012057836
0.00012069474
0.00012080607
0.00012091211
0.00012101282
0.00012110814
0.00012119803
0.00012128246
0.0001213615
0.00012143504
0.00012150304
0.00012156533
0.0001216217
0.00012167194
0.00012171706
0.00012175153
0.00012174908
0.00011903009
0.0001189878
0.00011896904
0.00011895137
0.0001189334
0.00011891665
0.00011889961
0.00011888379
0.00011886767
0.00011885273
0.00011883748
0.00011882336
0.00011880886
0.00011879539
0.0001187814
0.00011876828
0.00011875442
0.0001187412
0.00011872696
0.00011871305
0.00011869778
0.00011868247
0.00011866542
0.00011864792
0.00011862828
0.00011860776
0.00011858469
0.00011856034
0.00011853305
0.00011850413
0.00011847193
0.00011843745
0.00011840057
0.00011836011
0.0001183175
0.00011827124
0.00011822286
0.00011817091
0.000118117
0.00011805978
0.00011800091
0.00011793924
0.00011787601
0.00011781109
0.0001177449
0.0001176778
0.00011761016
0.0001175425
0.00011747516
0.00011740865
0.00011734345
0.00011728005
0.00011721893
0.00011716069
0.00011710575
0.00011705463
0.00011700785
0.00011696588
0.00011692917
0.0001168983
0.00011687359
0.00011685551
0.00011684446
0.00011684082
0.00011684495
0.00011685712
0.00011687773
0.00011690693
0.00011694496
0.00011699199
0.00011704812
0.00011706415
0.00011703696
0.00011701685
0.00011700431
0.00011699981
0.00011700376
0.00011701651
0.00011703852
0.0001170699
0.00011711095
0.00011716178
0.00011722244
0.00011729289
0.00011737298
0.00011746247
0.00011756102
0.00011766819
0.00011778344
0.00011790613
0.00011803566
0.00011817117
0.00011831189
0.00011845697
0.00011860554
0.00011875674
0.00011890965
0.00011906354
0.00011921748
0.00011937072
0.00011952255
0.0001196723
0.00011981931
0.00011996315
0.00012010322
0.00012023916
0.0001203706
0.00012049726
0.00012061886
0.00012073532
0.0001208464
0.00012095205
0.00012105219
0.00012114679
0.00012123579
0.00012131928
0.00012139712
0.00012146928
0.00012153561
0.00012159595
0.00012165007
0.00012169915
0.00012173767
0.00012174112
0.00011900606
0.00011896384
0.00011894509
0.00011892736
0.00011890929
0.00011889241
0.00011887527
0.00011885937
0.00011884322
0.0001188283
0.00011881312
0.00011879913
0.00011878478
0.00011877152
0.00011875775
0.00011874488
0.00011873128
0.00011871831
0.00011870431
0.00011869059
0.00011867548
0.00011866026
0.00011864323
0.00011862565
0.00011860582
0.00011858499
0.00011856146
0.00011853652
0.00011850846
0.00011847861
0.00011844531
0.00011840954
0.0001183712
0.0001183291
0.00011828467
0.00011823644
0.00011818592
0.00011813171
0.00011807541
0.0001180157
0.00011795427
0.00011788999
0.00011782412
0.00011775657
0.00011768779
0.00011761817
0.00011754811
0.00011747817
0.00011740873
0.00011734032
0.00011727346
0.00011720868
0.00011714647
0.00011708747
0.00011703212
0.00011698097
0.00011693455
0.00011689337
0.00011685787
0.00011682865
0.00011680605
0.00011679053
0.00011678251
0.00011678237
0.00011679045
0.00011680705
0.00011683255
0.00011686709
0.00011691092
0.00011696418
0.00011702698
0.00011701158
0.00011697586
0.00011694719
0.00011692614
0.00011691324
0.00011690896
0.00011691374
0.0001169281
0.00011695224
0.00011698653
0.00011703115
0.00011708619
0.00011715169
0.00011722754
0.00011731354
0.00011740937
0.00011751461
0.00011762871
0.00011775102
0.00011788092
0.00011801751
0.00011815998
0.00011830744
0.00011845895
0.0001186136
0.00011877041
0.00011892859
0.00011908714
0.00011924526
0.00011940218
0.00011955717
0.00011970953
0.0001198588
0.00012000433
0.00012014571
0.00012028257
0.00012041458
0.00012054146
0.00012066312
0.00012077929
0.00012088992
0.00012099493
0.00012109429
0.00012118792
0.00012127593
0.00012135817
0.00012143462
0.00012150516
0.00012156967
0.0001216279
0.00012168139
0.00012172455
0.00012173394
0.00011897902
0.0001189367
0.00011891786
0.0001189
0.00011888178
0.00011886476
0.00011884749
0.00011883151
0.00011881533
0.00011880044
0.00011878534
0.00011877148
0.00011875732
0.00011874428
0.00011873079
0.00011871821
0.00011870492
0.00011869227
0.00011867858
0.00011866515
0.00011865028
0.00011863525
0.00011861833
0.00011860077
0.00011858084
0.0001185598
0.00011853593
0.00011851047
0.00011848174
0.00011845104
0.0001184167
0.00011837971
0.00011833995
0.00011829624
0.00011825002
0.00011819981
0.00011814714
0.00011809063
0.00011803188
0.00011796961
0.00011790552
0.00011783851
0.00011776987
0.00011769955
0.00011762801
0.00011755569
0.00011748303
0.00011741062
0.00011733886
0.00011726834
0.0001171996
0.0001171332
0.00011706967
0.00011700968
0.00011695369
0.00011690229
0.00011685601
0.00011681539
0.00011678089
0.00011675312
0.00011673243
0.00011671929
0.00011671412
0.00011671732
0.00011672922
0.00011675011
0.0001167804
0.0001168202
0.00011686976
0.00011692922
0.00011699637
0.00011695327
0.00011690879
0.00011687135
0.00011684158
0.00011682008
0.00011680741
0.00011680406
0.00011681065
0.00011682746
0.00011685492
0.0001168933
0.00011694277
0.0001170034
0.00011707513
0.00011715781
0.00011725114
0.00011735471
0.00011746796
0.00011759022
0.00011772085
0.00011785891
0.00011800354
0.00011815378
0.00011830866
0.00011846717
0.00011862827
0.00011879111
0.00011895463
0.00011911797
0.00011928028
0.00011944079
0.00011959875
0.00011975365
0.00011990481
0.00012005178
0.00012019417
0.00012033163
0.00012046385
0.00012059074
0.00012071203
0.00012082763
0.0001209375
0.00012104158
0.00012113981
0.00012123231
0.00012131894
0.0001213997
0.00012147451
0.00012154327
0.00012160577
0.00012166397
0.00012171205
0.00012172728
0.00011894927
0.00011890674
0.0001188877
0.00011886966
0.00011885125
0.00011883407
0.00011881667
0.0001188006
0.00011878439
0.00011876953
0.00011875452
0.00011874082
0.00011872688
0.00011871411
0.00011870094
0.00011868872
0.00011867581
0.00011866356
0.00011865026
0.00011863721
0.00011862268
0.00011860794
0.00011859124
0.00011857381
0.00011855391
0.00011853276
0.00011850863
0.00011848276
0.00011845345
0.00011842197
0.00011838667
0.00011834851
0.00011830737
0.00011826207
0.00011821405
0.00011816185
0.000118107
0.00011804813
0.00011798687
0.00011792194
0.00011785508
0.00011778522
0.00011771366
0.00011764039
0.00011756592
0.00011749071
0.00011741522
0.00011734011
0.00011726581
0.00011719293
0.00011712206
0.00011705379
0.00011698869
0.00011692746
0.00011687058
0.00011681866
0.00011677228
0.00011673199
0.00011669826
0.00011667171
0.00011665271
0.00011664176
0.00011663926
0.00011664561
0.00011666117
0.00011668622
0.00011672116
0.00011676611
0.00011682133
0.00011688693
0.00011694924
0.00011688928
0.00011683578
0.00011678931
0.00011675057
0.00011672024
0.00011669895
0.00011668728
0.00011668594
0.00011669527
0.00011671582
0.00011674791
0.00011679178
0.00011684758
0.0001169153
0.0001169948
0.00011708583
0.00011718797
0.00011730066
0.0001174232
0.00011755493
0.00011769485
0.00011784204
0.00011799549
0.00011815414
0.00011831692
0.00011848273
0.00011865063
0.00011881949
0.00011898838
0.0001191564
0.00011932272
0.00011948655
0.00011964731
0.0001198043
0.00011995704
0.0001201051
0.00012024813
0.00012038579
0.00012051799
0.00012064444
0.00012076508
0.00012087983
0.00012098867
0.00012109154
0.00012118855
0.00012127961
0.00012136472
0.00012144386
0.00012151696
0.00012158385
0.00012164694
0.00012170006
0.000121721
0.00011891681
0.00011887399
0.00011885469
0.00011883639
0.00011881775
0.00011880037
0.00011878282
0.00011876665
0.0001187504
0.00011873557
0.00011872067
0.00011870714
0.00011869345
0.000118681
0.00011866819
0.00011865639
0.00011864394
0.00011863216
0.00011861935
0.00011860677
0.0001185927
0.00011857836
0.00011856199
0.00011854481
0.00011852504
0.0001185039
0.00011847963
0.00011845346
0.00011842366
0.0001183915
0.0001183553
0.00011831603
0.00011827356
0.0001182267
0.0001181769
0.0001181227
0.00011806563
0.00011800435
0.0001179405
0.00011787282
0.00011780308
0.00011773022
0.00011765559
0.0001175792
0.0001175016
0.00011742328
0.00011734476
0.00011726672
0.00011718963
0.00011711414
0.00011704089
0.00011697049
0.00011690356
0.00011684082
0.0001167828
0.00011673013
0.00011668341
0.00011664319
0.00011661001
0.00011658447
0.00011656696
0.00011655799
0.00011655798
0.00011656732
0.00011658638
0.00011661546
0.00011665494
0.00011670496
0.00011676576
0.00011683747
0.00011688924
0.00011682004
0.00011675723
0.00011670144
0.00011665346
0.00011661403
0.00011658387
0.00011656366
0.00011655418
0.00011655588
0.00011656938
0.0001165951
0.00011663336
0.00011668435
0.00011674814
0.00011682462
0.00011691355
0.00011701451
0.00011712695
0.00011725014
0.00011738335
0.00011752555
0.00011767575
0.00011783286
0.00011799575
0.00011816327
0.00011833422
0.0001185076
0.0001186822
0.00011885702
0.0001190311
0.00011920354
0.00011937349
0.00011954034
0.00011970336
0.00011986204
0.00012001591
0.0001201646
0.00012030778
0.00012044534
0.00012057699
0.00012070267
0.00012082231
0.0001209359
0.00012104339
0.00012114492
0.00012124041
0.00012132989
0.00012141339
0.00012149088
0.00012156225
0.00012163032
0.0001216885
0.00012171501
0.00011888187
0.00011883867
0.00011881901
0.00011880041
0.00011878149
0.00011876387
0.00011874614
0.00011872986
0.00011871357
0.00011869877
0.00011868398
0.00011867066
0.00011865724
0.00011864515
0.00011863277
0.00011862145
0.00011860954
0.00011859832
0.0001185861
0.0001185741
0.00011856059
0.00011854677
0.00011853086
0.00011851405
0.00011849454
0.00011847354
0.00011844924
0.00011842288
0.00011839269
0.00011835993
0.00011832292
0.00011828259
0.00011823883
0.00011819043
0.00011813885
0.00011808262
0.00011802331
0.00011795955
0.00011789302
0.00011782248
0.00011774972
0.00011767371
0.00011759583
0.00011751613
0.00011743518
0.00011735353
0.00011727173
0.0001171905
0.00011711035
0.00011703199
0.00011695607
0.00011688327
0.00011681423
0.00011674971
0.00011669027
0.00011663657
0.00011658923
0.00011654886
0.00011651597
0.00011649121
0.00011647497
0.00011646777
0.00011647005
0.00011648221
0.00011650461
0.00011653757
0.00011658147
0.00011663645
0.00011670276
0.00011678054
0.00011682426
0.00011674551
0.00011667308
0.00011660766
0.00011655013
0.0001165013
0.00011646199
0.00011643296
0.00011641511
0.00011640897
0.00011641526
0.0001164345
0.00011646708
0.00011651328
0.0001165732
0.00011664678
0.00011673381
0.00011683386
0.00011694637
0.00011707056
0.00011720567
0.0001173506
0.00011750427
0.00011766553
0.00011783315
0.00011800589
0.00011818247
0.00011836179
0.00011854257
0.00011872372
0.00011890422
0.00011908311
0.00011925949
0.00011943271
0.00011960198
0.00011976677
0.00011992661
0.0001200811
0.00012022989
0.00012037288
0.00012050978
0.00012064053
0.00012076508
0.00012088342
0.00012099554
0.00012110158
0.00012120149
0.00012129536
0.00012138323
0.00012146513
0.00012154101
0.00012161411
0.00012167732
0.00012170925
0.00011884441
0.00011880077
0.00011878071
0.00011876172
0.00011874248
0.00011872459
0.00011870665
0.00011869022
0.00011867388
0.00011865912
0.00011864446
0.00011863135
0.00011861825
0.00011860656
0.00011859467
0.00011858391
0.00011857261
0.00011856206
0.00011855052
0.00011853923
0.00011852641
0.00011851324
0.00011849792
0.00011848161
0.00011846251
0.00011844176
0.00011841758
0.00011839114
0.00011836067
0.00011832742
0.00011828967
0.00011824836
0.00011820335
0.00011815344
0.00011810009
0.00011804183
0.00011798021
0.00011791392
0.00011784462
0.0001177711
0.00011769517
0.00011761585
0.00011753453
0.00011745131
0.0001173668
0.00011728158
0.00011719624
0.00011711155
0.00011702807
0.00011694654
0.00011686767
0.00011679217
0.00011672073
0.00011665414
0.00011659299
0.00011653799
0.00011648979
0.00011644899
0.00011641615
0.00011639193
0.00011637675
0.00011637113
0.0001163755
0.0001163903
0.00011641589
0.00011645258
0.00011650078
0.00011656063
0.00011663238
0.00011671618
0.00011675467
0.00011666602
0.00011658362
0.00011650823
0.0001164408
0.00011638223
0.00011633344
0.00011629529
0.00011626878
0.00011625455
0.00011625344
0.00011626605
0.00011629287
0.00011633425
0.00011639035
0.00011646116
0.00011654648
0.00011664589
0.00011675879
0.00011688438
0.00011702183
0.00011716996
0.00011732762
0.00011749354
0.00011766642
0.0001178449
0.00011802762
0.00011821337
0.00011840078
0.0001185887
0.00011877601
0.0001189617
0.00011914482
0.00011932466
0.00011950042
0.00011967152
0.00011983747
0.00011999786
0.00012015236
0.00012030084
0.00012044302
0.00012057887
0.00012070833
0.00012083142
0.00012094815
0.00012105869
0.00012116301
0.00012126124
0.00012135347
0.00012143978
0.00012152019
0.00012159828
0.00012166647
0.00012170368
0.0001188046
0.00011876044
0.00011873989
0.00011872046
0.00011870084
0.00011868262
0.00011866444
0.00011864785
0.00011863144
0.00011861671
0.00011860219
0.00011858932
0.00011857658
0.00011856534
0.00011855399
0.00011854387
0.00011853328
0.00011852349
0.00011851276
0.00011850229
0.00011849028
0.0001184779
0.00011846332
0.00011844767
0.00011842911
0.00011840877
0.00011838482
0.00011835844
0.00011832781
0.00011829416
0.00011825577
0.00011821354
0.00011816734
0.00011811595
0.00011806082
0.00011800049
0.00011793654
0.00011786762
0.00011779545
0.00011771883
0.00011763958
0.00011755677
0.00011747181
0.00011738484
0.00011729651
0.00011720745
0.0001171183
0.00011702986
0.00011694275
0.00011685775
0.00011677561
0.00011669711
0.00011662294
0.00011655398
0.00011649083
0.00011643424
0.00011638487
0.00011634338
0.00011631034
0.00011628642
0.00011627206
0.00011626779
0.00011627407
0.00011629132
0.00011631994
0.00011636022
0.00011641259
0.0001164772
0.00011655432
0.0001166441
0.00011668048
0.00011658158
0.00011648885
0.00011640311
0.00011632539
0.00011625671
0.00011619807
0.00011615044
0.00011611494
0.00011609235
0.00011608358
0.00011608938
0.00011611031
0.00011614683
0.00011619914
0.0001162673
0.00011635111
0.00011645016
0.00011656381
0.00011669121
0.00011683146
0.00011698331
0.00011714549
0.00011731665
0.00011749536
0.00011768015
0.00011786956
0.00011806227
0.00011825681
0.00011845195
0.0001186465
0.00011883937
0.00011902956
0.00011921631
0.00011939879
0.0001195764
0.00011974863
0.00011991507
0.00012007536
0.00012022939
0.0001203769
0.00012051785
0.00012065223
0.00012078006
0.00012090137
0.00012101637
0.00012112508
0.00012122764
0.00012132421
0.0001214149
0.00012149979
0.00012158285
0.00012165592
0.00012169828
0.00011876242
0.00011871769
0.00011869658
0.00011867665
0.00011865658
0.00011863799
0.00011861952
0.00011860275
0.00011858625
0.00011857155
0.00011855717
0.00011854458
0.00011853222
0.00011852148
0.00011851075
0.00011850135
0.00011849157
0.00011848265
0.00011847285
0.00011846334
0.0001184523
0.00011844086
0.00011842716
0.00011841232
0.00011839447
0.00011837469
0.00011835114
0.00011832495
0.00011829429
0.00011826037
0.00011822142
0.00011817836
0.00011813101
0.00011807817
0.00011802127
0.00011795886
0.0001178925
0.00011782089
0.00011774574
0.00011766587
0.00011758314
0.00011749664
0.00011740783
0.00011731687
0.00011722447
0.00011713129
0.00011703802
0.00011694553
0.00011685446
0.00011676566
0.00011667994
0.0001165981
0.0001165209
0.00011644923
0.00011638377
0.00011632528
0.00011627447
0.00011623201
0.0001161985
0.00011617464
0.00011616087
0.00011615774
0.00011616572
0.00011618524
0.0001162167
0.00011626042
0.00011631684
0.00011638611
0.00011646851
0.00011656423
0.00011660199
0.00011649245
0.00011638897
0.00011629246
0.00011620405
0.00011612482
0.00011605591
0.00011599841
0.00011595354
0.00011592223
0.00011590553
0.00011590428
0.00011591917
0.00011595075
0.0001159993
0.00011606491
0.0001161474
0.00011624637
0.00011636113
0.00011649079
0.00011663435
0.00011679047
0.00011695777
0.00011713477
0.00011731992
0.00011751164
0.00011770832
0.00011790855
0.00011811076
0.00011831361
0.00011851584
0.00011871628
0.00011891389
0.00011910786
0.00011929731
0.00011948163
0.0001196603
0.0001198329
0.00011999907
0.00012015871
0.00012031158
0.00012045765
0.00012059693
0.00012072947
0.00012085533
0.00012097476
0.0001210878
0.00012119466
0.00012129551
0.00012139053
0.00012147986
0.00012156781
0.00012164566
0.00012169304
0.00011871801
0.00011867261
0.00011865086
0.00011863035
0.00011860977
0.00011859076
0.00011857196
0.00011855496
0.00011853835
0.00011852367
0.00011850945
0.00011849714
0.00011848521
0.00011847504
0.000118465
0.00011845639
0.00011844752
0.0001184396
0.00011843086
0.00011842245
0.00011841252
0.00011840219
0.00011838955
0.0001183757
0.00011835871
0.00011833967
0.00011831667
0.00011829082
0.00011826028
0.00011822619
0.0001181868
0.00011814298
0.00011809455
0.00011804029
0.00011798162
0.0001179171
0.00011784829
0.00011777389
0.00011769564
0.00011761238
0.00011752599
0.00011743559
0.00011734269
0.00011724748
0.00011715072
0.00011705313
0.00011695543
0.00011685855
0.00011676319
0.00011667025
0.00011658058
0.00011649505
0.00011641446
0.00011633977
0.00011627166
0.00011621095
0.00011615839
0.00011611467
0.00011608042
0.00011605635
0.00011604293
0.00011604072
0.00011605019
0.0001160718
0.00011610594
0.00011615294
0.00011621326
0.00011628708
0.00011637469
0.00011647628
0.00011651929
0.00011639868
0.00011628402
0.00011617631
0.00011607673
0.00011598649
0.00011590684
0.00011583901
0.00011578435
0.00011574393
0.00011571895
0.00011571038
0.00011571905
0.00011574558
0.00011579036
0.00011585351
0.0001159349
0.00011603408
0.00011615036
0.00011628274
0.00011643016
0.00011659114
0.0001167642
0.0001169477
0.00011713996
0.00011733926
0.00011754387
0.00011775223
0.00011796267
0.00011817376
0.00011838414
0.00011859258
0.00011879797
0.00011899946
0.00011919615
0.0001193874
0.00011957268
0.00011975156
0.0001199237
0.00012008901
0.00012024725
0.00012039844
0.0001205426
0.00012067982
0.00012081018
0.00012093398
0.0001210513
0.00012116238
0.00012126744
0.00012136673
0.00012146042
0.00012155316
0.00012163569
0.00012168795
0.00011867136
0.00011862522
0.00011860276
0.0001185816
0.00011856044
0.00011854094
0.00011852176
0.00011850449
0.00011848775
0.00011847308
0.00011845902
0.00011844703
0.00011843556
0.000118426
0.00011841673
0.00011840902
0.00011840117
0.00011839437
0.00011838683
0.00011837968
0.00011837104
0.00011836199
0.0001183506
0.00011833791
0.00011832198
0.00011830385
0.00011828159
0.00011825625
0.00011822597
0.00011819186
0.00011815214
0.00011810765
0.00011805821
0.00011800256
0.00011794213
0.00011787547
0.00011780415
0.00011772687
0.00011764539
0.00011755858
0.00011746834
0.00011737383
0.00011727658
0.00011717685
0.00011707543
0.0001169731
0.00011687063
0.000116769
0.00011666899
0.00011657153
0.00011647756
0.00011638797
0.00011630363
0.00011622554
0.00011615444
0.00011609119
0.00011603656
0.00011599129
0.00011595601
0.00011593148
0.00011591817
0.00011591664
0.0001159274
0.00011595089
0.00011598753
0.00011603766
0.00011610174
0.00011617998
0.00011627269
0.00011638009
0.00011643261
0.0001163005
0.0001161742
0.00011605478
0.00011594352
0.00011584176
0.00011575085
0.00011567217
0.00011560723
0.00011555725
0.00011552359
0.00011550737
0.00011550956
0.00011553091
0.00011557189
0.00011563268
0.00011571316
0.00011581288
0.00011593109
0.00011606672
0.00011621859
0.00011638509
0.00011656459
0.00011675531
0.0001169554
0.000117163
0.00011737621
0.00011759337
0.00011781265
0.00011803254
0.00011825157
0.00011846845
0.000118682
0.00011889134
0.00011909554
0.00011929393
0.00011948597
0.00011967126
0.00011984944
0.00012002046
0.0001201841
0.00012034039
0.0001204894
0.00012063125