/*--------------------------------*- C++ -*----------------------------------*\
| =========                 |                                                 |
| \\      /  F ield         | foam-extend: Open Source CFD                    |
|  \\    /   O peration     | Version:     4.1                                |
|   \\  /    A nd           | Web:         http://www.foam-extend.org         |
|    \\/     M anipulation  |                                                 |
\*---------------------------------------------------------------------------*/
FoamFile
{
    version     2.0;
    format      ascii;
    class       volVectorField;
    location    "0.5";
    object      U;
}
// * * * * * * * * * * * * * * * * * * * * * * * * * * * * * * * * * * * * * //

dimensions      [0 1 -1 0 0 0 0];

internalField   nonuniform List<vector> 
16126
(
(132.09045 -0.09157337 0)
(132.32421 -0.1015037 0)
(132.51851 -0.10378478 0)
(132.71955 -0.10481202 0)
(132.92223 -0.10534029 0)
(133.12589 -0.10565271 0)
(133.33011 -0.10584583 0)
(133.5346 -0.10596144 0)
(133.7392 -0.10602148 0)
(133.94376 -0.10604016 0)
(134.14818 -0.10602864 0)
(134.35237 -0.10599693 0)
(134.55627 -0.10595485 0)
(134.75987 -0.1059123 0)
(134.96315 -0.10587944 0)
(135.16614 -0.10586668 0)
(135.3689 -0.10588456 0)
(135.57151 -0.10594363 0)
(135.77408 -0.10605428 0)
(135.97676 -0.1062266 0)
(136.17972 -0.10647011 0)
(136.38317 -0.10679363 0)
(136.58732 -0.10720507 0)
(136.79243 -0.10771123 0)
(136.99876 -0.10831768 0)
(137.2066 -0.10902854 0)
(137.41624 -0.10984638 0)
(137.62799 -0.11077211 0)
(137.84215 -0.11180491 0)
(138.05904 -0.1129421 0)
(138.27893 -0.11417921 0)
(138.50212 -0.11550985 0)
(138.72886 -0.11692597 0)
(138.9594 -0.11841761 0)
(139.19394 -0.11997321 0)
(139.43266 -0.12157967 0)
(139.67569 -0.12322248 0)
(139.92311 -0.1248859 0)
(140.17498 -0.12655314 0)
(140.43128 -0.12820659 0)
(140.69195 -0.12982799 0)
(140.95688 -0.13139875 0)
(141.22588 -0.13290006 0)
(141.49874 -0.13431326 0)
(141.77516 -0.13562001 0)
(142.05481 -0.13680249 0)
(142.33729 -0.13784366 0)
(142.62215 -0.13872744 0)
(142.9089 -0.13943886 0)
(143.197 -0.13996421 0)
(143.48587 -0.14029118 0)
(143.77489 -0.14040891 0)
(144.06342 -0.14030805 0)
(144.35079 -0.1399808 0)
(144.63629 -0.13942085 0)
(144.91921 -0.13862341 0)
(145.19883 -0.13758508 0)
(145.4744 -0.13630387 0)
(145.7452 -0.134779 0)
(146.01048 -0.13301095 0)
(146.26952 -0.1310013 0)
(146.52158 -0.12875272 0)
(146.76596 -0.12626894 0)
(147.00195 -0.12355478 0)
(147.22889 -0.12061617 0)
(147.44611 -0.11746029 0)
(147.65299 -0.1140957 0)
(147.84893 -0.1105325 0)
(148.03339 -0.10678256 0)
(148.20584 -0.10285981 0)
(148.36582 -0.098780389 0)
(148.51293 -0.094562864 0)
(148.64682 -0.090228451 0)
(148.76722 -0.085801256 0)
(148.87394 -0.081308196 0)
(148.96687 -0.076777904 0)
(149.046 -0.072239304 0)
(149.11142 -0.067720277 0)
(149.16334 -0.063250893 0)
(149.20205 -0.058863719 0)
(149.22799 -0.054588435 0)
(149.24166 -0.050441919 0)
(149.24374 -0.046428821 0)
(149.2347 -0.042614257 0)
(149.21526 -0.039108509 0)
(149.18642 -0.035978636 0)
(149.14928 -0.033255687 0)
(149.10501 -0.030958546 0)
(149.0548 -0.029098333 0)
(148.99991 -0.027679471 0)
(148.9416 -0.026700052 0)
(148.88111 -0.026152125 0)
(148.81968 -0.026022088 0)
(148.75849 -0.026291216 0)
(148.69869 -0.026936271 0)
(148.64135 -0.027930195 0)
(148.58747 -0.029242843 0)
(148.53799 -0.030841738 0)
(148.49372 -0.032692761 0)
(148.45542 -0.034760776 0)
(148.42374 -0.03701019 0)
(148.39923 -0.039405414 0)
(148.38238 -0.04191055 0)
(148.37356 -0.044486855 0)
(148.37307 -0.047092094 0)
(148.38107 -0.049704871 0)
(148.39764 -0.052327896 0)
(148.42289 -0.054955219 0)
(148.45688 -0.057567887 0)
(148.49965 -0.060145183 0)
(148.55115 -0.062665938 0)
(148.61135 -0.065108194 0)
(148.68014 -0.067448089 0)
(148.75741 -0.06965788 0)
(148.84301 -0.071702806 0)
(148.93676 -0.073537503 0)
(149.0384 -0.075103379 0)
(149.14753 -0.076316419 0)
(149.2636 -0.077007976 0)
(149.38662 -0.076842188 0)
(149.51718 -0.075471449 0)
(149.65303 -0.073228784 0)
(149.77778 -0.069495546 0)
(149.87054 -0.054219217 0)
(151.9464 -0.1434671 0)
(152.02472 -0.15768932 0)
(152.08339 -0.16229376 0)
(152.14428 -0.16456759 0)
(152.20608 -0.16577402 0)
(152.26847 -0.1664521 0)
(152.33116 -0.16681764 0)
(152.39394 -0.16697076 0)
(152.45666 -0.16696525 0)
(152.5192 -0.16683582 0)
(152.58147 -0.16660954 0)
(152.64339 -0.16631088 0)
(152.70492 -0.1659641 0)
(152.76601 -0.16559431 0)
(152.82666 -0.1652278 0)
(152.88689 -0.16489213 0)
(152.94673 -0.16461583 0)
(153.00626 -0.16442809 0)
(153.06557 -0.16435828 0)
(153.12477 -0.16443546 0)
(153.18402 -0.16468776 0)
(153.24349 -0.16514184 0)
(153.30336 -0.1658223 0)
(153.36387 -0.16675105 0)
(153.42525 -0.16794681 0)
(153.48776 -0.16942455 0)
(153.55166 -0.17119502 0)
(153.61724 -0.17326436 0)
(153.68477 -0.17563373 0)
(153.75453 -0.17829902 0)
(153.82681 -0.18125073 0)
(153.90186 -0.18447375 0)
(153.97995 -0.18794764 0)
(154.0613 -0.19164632 0)
(154.14611 -0.19553853 0)
(154.23456 -0.19958806 0)
(154.32678 -0.20375405 0)
(154.42287 -0.20799154 0)
(154.52288 -0.21225188 0)
(154.62682 -0.21648346 0)
(154.73463 -0.22063221 0)
(154.84623 -0.22464243 0)
(154.96144 -0.22845735 0)
(155.08007 -0.23202011 0)
(155.20184 -0.23527427 0)
(155.32643 -0.23816466 0)
(155.45348 -0.24063803 0)
(155.58254 -0.24264374 0)
(155.71315 -0.24413434 0)
(155.84478 -0.24506606 0)
(155.97686 -0.24539928 0)
(156.10878 -0.24509886 0)
(156.23992 -0.2441344 0)
(156.36959 -0.2424804 0)
(156.49711 -0.24011631 0)
(156.62176 -0.23702652 0)
(156.74282 -0.23320025 0)
(156.85954 -0.22863141 0)
(156.97118 -0.22331839 0)
(157.07699 -0.21726392 0)
(157.17624 -0.21047483 0)
(157.26819 -0.20296191 0)
(157.35211 -0.19473983 0)
(157.4273 -0.18582718 0)
(157.49307 -0.17624653 0)
(157.54875 -0.16602466 0)
(157.59371 -0.15519295 0)
(157.62735 -0.14378775 0)
(157.6491 -0.13185096 0)
(157.65844 -0.11943071 0)
(157.6549 -0.10658182 0)
(157.63806 -0.09336639 0)
(157.60759 -0.079854195 0)
(157.56321 -0.066122641 0)
(157.50474 -0.052255824 0)
(157.43206 -0.038342117 0)
(157.34517 -0.02447589 0)
(157.24417 -0.010770616 0)
(157.12924 0.0026609049 0)
(157.00071 0.01570649 0)
(156.85903 0.02825764 0)
(156.70474 0.040222195 0)
(156.5385 0.05152863 0)
(156.36138 0.062074875 0)
(156.17438 0.071719488 0)
(155.9784 0.080347247 0)
(155.77442 0.087877878 0)
(155.56346 0.094252405 0)
(155.34661 0.099430136 0)
(155.12497 0.10338793 0)
(154.89969 0.10611985 0)
(154.67189 0.10763658 0)
(154.44271 0.1079646 0)
(154.21325 0.10714478 0)
(153.98455 0.10523082 0)
(153.75764 0.10228733 0)
(153.53344 0.098387842 0)
(153.31285 0.093612601 0)
(153.09666 0.088046526 0)
(152.8856 0.08177721 0)
(152.6803 0.074893055 0)
(152.48132 0.067481553 0)
(152.28915 0.059628747 0)
(152.1042 0.051421683 0)
(151.92677 0.042949303 0)
(151.75724 0.03428645 0)
(151.59588 0.02548131 0)
(151.44281 0.016575024 0)
(151.29811 0.0076118374 0)
(151.16179 -0.0013678311 0)
(151.03384 -0.010328406 0)
(150.91419 -0.019238709 0)
(150.80275 -0.028070567 0)
(150.69941 -0.036795917 0)
(150.60403 -0.045382458 0)
(150.51644 -0.053790968 0)
(150.43641 -0.061980351 0)
(150.36361 -0.069868388 0)
(150.29766 -0.077219873 0)
(150.23866 -0.083508095 0)
(150.18684 -0.088335838 0)
(150.13998 -0.09289102 0)
(150.08864 -0.095693379 0)
(150.02999 -0.078420575 0)
(154.0855 -0.17120159 0)
(154.13019 -0.1793775 0)
(154.16008 -0.18383574 0)
(154.18973 -0.18640946 0)
(154.21916 -0.18788116 0)
(154.24852 -0.18869917 0)
(154.27776 -0.18909249 0)
(154.30681 -0.18918405 0)
(154.33558 -0.18904718 0)
(154.36405 -0.18873264 0)
(154.39217 -0.18828174 0)
(154.41994 -0.18773261 0)
(154.44737 -0.18712334 0)
(154.4745 -0.18649338 0)
(154.50136 -0.18588407 0)
(154.52805 -0.18533861 0)
(154.55466 -0.18490171 0)
(154.58131 -0.18461902 0)
(154.60813 -0.18453644 0)
(154.6353 -0.18469927 0)
(154.663 -0.18515133 0)
(154.69142 -0.18593408 0)
(154.72078 -0.18708566 0)
(154.75132 -0.18863996 0)
(154.78327 -0.1906258 0)
(154.81689 -0.19306604 0)
(154.85243 -0.19597687 0)
(154.89014 -0.19936714 0)
(154.93027 -0.20323782 0)
(154.97307 -0.20758153 0)
(155.01878 -0.21238229 0)
(155.0676 -0.21761528 0)
(155.11974 -0.22324699 0)
(155.17537 -0.22923518 0)
(155.23463 -0.23552916 0)
(155.29763 -0.24207041 0)
(155.36447 -0.24879289 0)
(155.43517 -0.25562402 0)
(155.50973 -0.2624852 0)
(155.58811 -0.26929307 0)
(155.67023 -0.27596022 0)
(155.75594 -0.28239659 0)
(155.84506 -0.28851031 0)
(155.93736 -0.29420918 0)
(156.03257 -0.29940165 0)
(156.13037 -0.30399808 0)
(156.23038 -0.30791182 0)
(156.3322 -0.31106031 0)
(156.43537 -0.313366 0)
(156.53941 -0.31475722 0)
(156.6438 -0.31516888 0)
(156.74799 -0.31454304 0)
(156.85139 -0.31282936 0)
(156.9534 -0.30998531 0)
(157.0534 -0.30597633 0)
(157.15076 -0.30077578 0)
(157.24481 -0.29436479 0)
(157.33491 -0.28673204 0)
(157.42038 -0.27787344 0)
(157.50057 -0.26779186 0)
(157.57481 -0.25649678 0)
(157.64243 -0.24400413 0)
(157.70279 -0.23033611 0)
(157.75523 -0.21552125 0)
(157.79914 -0.19959461 0)
(157.8339 -0.18259819 0)
(157.85891 -0.16458148 0)
(157.87361 -0.14560222 0)
(157.87746 -0.12572741 0)
(157.86996 -0.10503438 0)
(157.85064 -0.083611922 0)
(157.8191 -0.061561064 0)
(157.77498 -0.038995465 0)
(157.71799 -0.016039808 0)
(157.64791 0.007171153 0)
(157.56461 0.030478876 0)
(157.46804 0.05371632 0)
(157.35826 0.076714488 0)
(157.23544 0.09928791 0)
(157.09983 0.12124465 0)
(156.9518 0.14239019 0)
(156.79185 0.16253153 0)
(156.62057 0.1814823 0)
(156.43865 0.19908312 0)
(156.24689 0.21519813 0)
(156.04618 0.22969332 0)
(155.83751 0.24244726 0)
(155.62191 0.25336291 0)
(155.40047 0.26237011 0)
(155.17432 0.26942652 0)
(154.9446 0.27451763 0)
(154.71248 0.27765616 0)
(154.47907 0.27888063 0)
(154.2455 0.27825334 0)
(154.01283 0.27585776 0)
(153.78208 0.27179546 0)
(153.5542 0.26618283 0)
(153.33007 0.25914752 0)
(153.11049 0.25082499 0)
(152.89619 0.24135507 0)
(152.68781 0.23087869 0)
(152.4859 0.21953474 0)
(152.29095 0.20745756 0)
(152.10336 0.19477503 0)
(151.92345 0.18160701 0)
(151.75147 0.16806971 0)
(151.58762 0.15427525 0)
(151.43202 0.14032101 0)
(151.28477 0.12628888 0)
(151.14589 0.11225016 0)
(151.01538 0.098266455 0)
(150.89321 0.08439068 0)
(150.7793 0.070668632 0)
(150.67355 0.057142073 0)
(150.57586 0.043852408 0)
(150.48607 0.03084195 0)
(150.40397 0.018159327 0)
(150.3293 0.0058756092 0)
(150.26183 -0.0057971349 0)
(150.20169 -0.016449824 0)
(150.14856 -0.025982735 0)
(150.10046 -0.035826933 0)
(150.05409 -0.04351052 0)
(150.01544 -0.036820855 0)
(154.25781 -0.19494377 0)
(154.29598 -0.19892129 0)
(154.32262 -0.20198413 0)
(154.34868 -0.20403439 0)
(154.37421 -0.20526102 0)
(154.39945 -0.20589356 0)
(154.42443 -0.20609564 0)
(154.44912 -0.20597727 0)
(154.4735 -0.20561629 0)
(154.49753 -0.20507385 0)
(154.52121 -0.2044036 0)
(154.54455 -0.20365689 0)
(154.56756 -0.20288535 0)
(154.59029 -0.20214222 0)
(154.6128 -0.20148267 0)
(154.63519 -0.20096364 0)
(154.65756 -0.20064329 0)
(154.68004 -0.20058024 0)
(154.70277 -0.20083265 0)
(154.72594 -0.20145719 0)
(154.74973 -0.20250789 0)
(154.77434 -0.20403502 0)
(154.79999 -0.20608397 0)
(154.82693 -0.2086941 0)
(154.85539 -0.21189771 0)
(154.88562 -0.21571903 0)
(154.91788 -0.22017338 0)
(154.95242 -0.22526633 0)
(154.98949 -0.23099324 0)
(155.02934 -0.23733855 0)
(155.07219 -0.24427574 0)
(155.11825 -0.25176697 0)
(155.16772 -0.25976333 0)
(155.22077 -0.26820499 0)
(155.27753 -0.2770215 0)
(155.33813 -0.28613268 0)
(155.40262 -0.29544902 0)
(155.47105 -0.30487301 0)
(155.54341 -0.31429982 0)
(155.61966 -0.32361885 0)
(155.69971 -0.33271476 0)
(155.78341 -0.34146913 0)
(155.87059 -0.34976162 0)
(155.96101 -0.35747176 0)
(156.0544 -0.36448026 0)
(156.15043 -0.3706705 0)
(156.24875 -0.37592998 0)
(156.34895 -0.38015156 0)
(156.45057 -0.38323473 0)
(156.55314 -0.38508659 0)
(156.65614 -0.38562275 0)
(156.75902 -0.38476799 0)
(156.8612 -0.38245677 0)
(156.96209 -0.37863356 0)
(157.06106 -0.37325285 0)
(157.15748 -0.36627915 0)
(157.25071 -0.35768675 0)
(157.34009 -0.34745937 0)
(157.42494 -0.33558982 0)
(157.50461 -0.32207954 0)
(157.57844 -0.30693825 0)
(157.64575 -0.29018371 0)
(157.70588 -0.27184164 0)
(157.7582 -0.25194581 0)
(157.80207 -0.23053846 0)
(157.83685 -0.2076709 0)
(157.86195 -0.18340451 0)
(157.87679 -0.15781179 0)
(157.88082 -0.13097792 0)
(157.87351 -0.1030027 0)
(157.8544 -0.074002219 0)
(157.82305 -0.044109528 0)
(157.77909 -0.013474361 0)
(157.72221 0.017736933 0)
(157.65218 0.049326715 0)
(157.56884 0.081094511 0)
(157.47213 0.11281612 0)
(157.36207 0.14425159 0)
(157.23882 0.17514993 0)
(157.10262 0.20525085 0)
(156.95384 0.23428957 0)
(156.79297 0.26199971 0)
(156.62062 0.28811508 0)
(156.4375 0.31238596 0)
(156.2444 0.33459035 0)
(156.04226 0.35453101 0)
(155.83206 0.37203852 0)
(155.61486 0.38697722 0)
(155.39178 0.39924845 0)
(155.16397 0.40879225 0)
(154.93259 0.41558774 0)
(154.69882 0.41965229 0)
(154.46381 0.42103968 0)
(154.2287 0.4198372 0)
(153.99456 0.416162 0)
(153.76243 0.41015691 0)
(153.53328 0.40198568 0)
(153.30798 0.39182822 0)
(153.08735 0.37987567 0)
(152.87212 0.36632577 0)
(152.66292 0.35137837 0)
(152.46032 0.33523139 0)
(152.26479 0.31807716 0)
(152.07672 0.30009842 0)
(151.89644 0.28146454 0)
(151.72418 0.26233271 0)
(151.56015 0.24284995 0)
(151.40445 0.22314988 0)
(151.25718 0.20335145 0)
(151.11836 0.18356051 0)
(150.98799 0.16387149 0)
(150.86601 0.14436962 0)
(150.75236 0.12513433 0)
(150.64695 0.10624452 0)
(150.54966 0.087784578 0)
(150.46035 0.069848568 0)
(150.37884 0.052548992 0)
(150.30491 0.036060382 0)
(150.23845 0.020704611 0)
(150.1795 0.0069248234 0)
(150.12743 -0.0050664343 0)
(150.08084 -0.015970499 0)
(150.03945 -0.021817602 0)
(150.01008 -0.016871791 0)
(154.26452 -0.21445436 0)
(154.30101 -0.21671631 0)
(154.3276 -0.21886624 0)
(154.35375 -0.22045382 0)
(154.37933 -0.22142609 0)
(154.40451 -0.22187 0)
(154.42936 -0.22188634 0)
(154.45387 -0.22156257 0)
(154.47802 -0.22097267 0)
(154.50179 -0.22018243 0)
(154.52518 -0.21925437 0)
(154.54819 -0.21825096 0)
(154.57084 -0.21723643 0)
(154.59319 -0.21627762 0)
(154.61528 -0.215444 0)
(154.63722 -0.21480729 0)
(154.6591 -0.21444068 0)
(154.68106 -0.21441781 0)
(154.70325 -0.21481153 0)
(154.72584 -0.21569264 0)
(154.74902 -0.21712847 0)
(154.773 -0.2191814 0)
(154.798 -0.22190752 0)
(154.82427 -0.22535514 0)
(154.85205 -0.22956356 0)
(154.8816 -0.23456176 0)
(154.91318 -0.24036738 0)
(154.94704 -0.24698572 0)
(154.98346 -0.25440905 0)
(155.02267 -0.26261588 0)
(155.06491 -0.27157084 0)
(155.11041 -0.28122427 0)
(155.15936 -0.29151251 0)
(155.21195 -0.30235818 0)
(155.26831 -0.31367052 0)
(155.32857 -0.32534652 0)
(155.3928 -0.33727148 0)
(155.46106 -0.34932065 0)
(155.53333 -0.36136012 0)
(155.60957 -0.3732488 0)
(155.6897 -0.38483965 0)
(155.77359 -0.39598188 0)
(155.86104 -0.40652234 0)
(155.95184 -0.41630781 0)
(156.0457 -0.42518658 0)
(156.14229 -0.43301048 0)
(156.24127 -0.43963651 0)
(156.3422 -0.44492861 0)
(156.44464 -0.44875906 0)
(156.5481 -0.45100985 0)
(156.65206 -0.45157377 0)
(156.75597 -0.45035526 0)
(156.85923 -0.44727101 0)
(156.96124 -0.44225039 0)
(157.06138 -0.43523549 0)
(157.15901 -0.4261811 0)
(157.25346 -0.41505435 0)
(157.34407 -0.40183437 0)
(157.43018 -0.3865117 0)
(157.51111 -0.36908784 0)
(157.58617 -0.34957474 0)
(157.65472 -0.32799449 0)
(157.71607 -0.30437924 0)
(157.76958 -0.27877132 0)
(157.8146 -0.25122378 0)
(157.8505 -0.22180122 0)
(157.87666 -0.1905811 0)
(157.8925 -0.15765505 0)
(157.89746 -0.12313121 0)
(157.891 -0.087136858 0)
(157.87263 -0.049820273 0)
(157.84191 -0.011351306 0)
(157.79846 0.028080175 0)
(157.74195 0.068256104 0)
(157.67213 0.10894289 0)
(157.58882 0.14987258 0)
(157.49195 0.19075512 0)
(157.38155 0.23128099 0)
(157.25775 0.27112444 0)
(157.12081 0.30994887 0)
(156.97108 0.34741317 0)
(156.80906 0.38317754 0)
(156.63536 0.41690942 0)
(156.45069 0.44829359 0)
(156.25589 0.47704075 0)
(156.05189 0.50289254 0)
(155.83971 0.52562787 0)
(155.62044 0.54506912 0)
(155.39521 0.56108623 0)
(155.1652 0.5735991 0)
(154.93163 0.58257821 0)
(154.69568 0.58804359 0)
(154.45855 0.5900624 0)
(154.22137 0.58874518 0)
(153.98527 0.58424107 0)
(153.75129 0.57673225 0)
(153.52041 0.56642778 0)
(153.29352 0.5535573 0)
(153.07145 0.53836466 0)
(152.85493 0.52110183 0)
(152.64459 0.50202318 0)
(152.441 0.48138049 0)
(152.24462 0.45941845 0)
(152.05584 0.43637046 0)
(151.87498 0.41245485 0)
(151.70227 0.38787329 0)
(151.53789 0.36280969 0)
(151.38195 0.33742852 0)
(151.23452 0.31187438 0)
(151.09563 0.28627301 0)
(150.96525 0.26073282 0)
(150.84335 0.23534726 0)
(150.72984 0.21019841 0)
(150.62464 0.18536222 0)
(150.52763 0.16091437 0)
(150.4387 0.13693623 0)
(150.35768 0.11352966 0)
(150.28445 0.090860283 0)
(150.21898 0.069208321 0)
(150.16127 0.048903641 0)
(150.11076 0.030175926 0)
(150.06688 0.012686813 0)
(150.03068 0.001056486 0)
(150.00738 -0.0024536848 0)
(154.2668 -0.234605 0)
(154.30257 -0.23603027 0)
(154.32926 -0.23750183 0)
(154.35571 -0.23862315 0)
(154.38162 -0.23926825 0)
(154.4071 -0.23944844 0)
(154.43219 -0.23922045 0)
(154.45689 -0.23865222 0)
(154.48119 -0.23781289 0)
(154.50507 -0.23677163 0)
(154.52852 -0.23559883 0)
(154.55154 -0.23436751 0)
(154.57416 -0.23315407 0)
(154.59643 -0.23203854 0)
(154.61839 -0.23110425 0)
(154.64015 -0.23043714 0)
(154.6618 -0.23012464 0)
(154.68347 -0.23025448 0)
(154.70532 -0.23091316 0)
(154.72752 -0.23218438 0)
(154.75027 -0.23414739 0)
(154.77377 -0.23687526 0)
(154.79826 -0.24043324 0)
(154.82399 -0.24487708 0)
(154.8512 -0.25025153 0)
(154.88016 -0.25658887 0)
(154.91115 -0.26390772 0)
(154.94442 -0.2722118 0)
(154.98026 -0.28148927 0)
(155.01891 -0.29171183 0)
(155.06062 -0.30283461 0)
(155.10563 -0.3147957 0)
(155.15414 -0.32751659 0)
(155.20635 -0.34090245 0)
(155.2624 -0.35484259 0)
(155.32243 -0.36921184 0)
(155.38653 -0.38387121 0)
(155.45473 -0.39866982 0)
(155.52706 -0.41344603 0)
(155.60346 -0.42802975 0)
(155.68387 -0.44224392 0)
(155.76813 -0.45590711 0)
(155.85608 -0.46883521 0)
(155.94749 -0.48084408 0)
(156.04207 -0.49175151 0)
(156.1395 -0.50137954 0)
(156.23941 -0.50955648 0)
(156.34138 -0.51611893 0)
(156.44495 -0.5209135 0)
(156.54963 -0.52379839 0)
(156.65489 -0.5246447 0)
(156.76015 -0.52333738 0)
(156.86484 -0.51977603 0)
(156.96834 -0.51387525 0)
(157.07 -0.50556477 0)
(157.16918 -0.49478933 0)
(157.26521 -0.48150824 0)
(157.35742 -0.46569492 0)
(157.44512 -0.44733618 0)
(157.52765 -0.42643162 0)
(157.60432 -0.40299299 0)
(157.67444 -0.37704386 0)
(157.73735 -0.34861944 0)
(157.79238 -0.31776681 0)
(157.83888 -0.2845456 0)
(157.87622 -0.24902906 0)
(157.90375 -0.21130578 0)
(157.9209 -0.17148122 0)
(157.92707 -0.12968131 0)
(157.92172 -0.086055223 0)
(157.90435 -0.040777536 0)
(157.8745 0.0059507516 0)
(157.83176 0.053899499 0)
(157.77578 0.10280452 0)
(157.70629 0.15237193 0)
(157.62311 0.2022767 0)
(157.52613 0.25216389 0)
(157.41538 0.30165237 0)
(157.29097 0.3503393 0)
(157.15315 0.39780652 0)
(157.00228 0.44362822 0)
(156.83887 0.4873796 0)
(156.66351 0.52864673 0)
(156.47697 0.56703765 0)
(156.28007 0.60219196 0)
(156.0738 0.63378872 0)
(155.85918 0.6615543 0)
(155.63735 0.68526932 0)
(155.40949 0.70477367 0)
(155.1768 0.71996943 0)
(154.94054 0.73082169 0)
(154.70193 0.73735729 0)
(154.46219 0.73966176 0)
(154.22251 0.73787457 0)
(153.98403 0.73218312 0)
(153.74781 0.72281569 0)
(153.51486 0.7100338 0)
(153.28607 0.69412422 0)
(153.06229 0.675391 0)
(152.84424 0.65414786 0)
(152.63258 0.63071103 0)
(152.42784 0.60539284 0)
(152.2305 0.57849616 0)
(152.04094 0.55030961 0)
(151.85946 0.52110389 0)
(151.68628 0.49112952 0)
(151.52157 0.46061504 0)
(151.36543 0.42976549 0)
(151.21792 0.39876211 0)
(151.07904 0.36776314 0)
(150.94877 0.33690536 0)
(150.82704 0.3063067 0)
(150.71379 0.27606979 0)
(150.6089 0.2462867 0)
(150.51228 0.21704376 0)
(150.4238 0.18842749 0)
(150.34332 0.16053998 0)
(150.27075 0.13353093 0)
(150.20609 0.10761187 0)
(150.14934 0.082984198 0)
(150.10005 0.059816362 0)
(150.05832 0.037556454 0)
(150.02573 0.020519256 0)
(150.00599 0.0087114113 0)
(154.27523 -0.25236212 0)
(154.31069 -0.25340675 0)
(154.3375 -0.25444593 0)
(154.36423 -0.25519754 0)
(154.39046 -0.25553428 0)
(154.41626 -0.25543487 0)
(154.44164 -0.2549295 0)
(154.4666 -0.25407172 0)
(154.4911 -0.25292629 0)
(154.51514 -0.25156493 0)
(154.53869 -0.25006509 0)
(154.56177 -0.24850991 0)
(154.58439 -0.24698796 0)
(154.6066 -0.24559297 0)
(154.62844 -0.24442298 0)
(154.65001 -0.24357934 0)
(154.6714 -0.24316526 0)
(154.69276 -0.24328428 0)
(154.71422 -0.24403845 0)
(154.73598 -0.24552645 0)
(154.75822 -0.24784159 0)
(154.78116 -0.25106982 0)
(154.80505 -0.25528771 0)
(154.83013 -0.26056055 0)
(154.85666 -0.26694052 0)
(154.88493 -0.27446498 0)
(154.9152 -0.28315508 0)
(154.94777 -0.29301431 0)
(154.9829 -0.30402772 0)
(155.02087 -0.31616087 0)
(155.06195 -0.32935974 0)
(155.10636 -0.34355013 0)
(155.15435 -0.35863828 0)
(155.2061 -0.37451113 0)
(155.26179 -0.39103696 0)
(155.32154 -0.40806694 0)
(155.38547 -0.42543602 0)
(155.45362 -0.44296514 0)
(155.52601 -0.46046262 0)
(155.60261 -0.4777269 0)
(155.68334 -0.49454826 0)
(155.76807 -0.51071192 0)
(155.85662 -0.52600004 0)
(155.94876 -0.54019486 0)
(156.04421 -0.55308102 0)
(156.14264 -0.56444828 0)
(156.24367 -0.57409397 0)
(156.34688 -0.58182529 0)
(156.45181 -0.58746145 0)
(156.55795 -0.59083548 0)
(156.66476 -0.59179574 0)
(156.77166 -0.59020716 0)
(156.87805 -0.58595202 0)
(156.9833 -0.57893045 0)
(157.08678 -0.56906055 0)
(157.18781 -0.55627813 0)
(157.28572 -0.54053626 0)
(157.37982 -0.52180454 0)
(157.46943 -0.50006832 0)
(157.55385 -0.47532778 0)
(157.6324 -0.44759723 0)
(157.70439 -0.41690454 0)
(157.76914 -0.38329092 0)
(157.82596 -0.34681117 0)
(157.87421 -0.30753436 0)
(157.91323 -0.26554523 0)
(157.94239 -0.2209461 0)
(157.96106 -0.17385887 0)
(157.96866 -0.12442964 0)
(157.96462 -0.072831758 0)
(157.94842 -0.019268064 0)
(157.91959 0.036026974 0)
(157.87767 0.092786959 0)
(157.82231 0.15071155 0)
(157.75321 0.20945489 0)
(157.67016 0.26863302 0)
(157.57304 0.32782529 0)
(157.46185 0.38657848 0)
(157.33671 0.44441235 0)
(157.19783 0.50082731 0)
(157.04558 0.55531331 0)
(156.88047 0.60736042 0)
(156.70312 0.6564708 0)
(156.51428 0.70217146 0)
(156.31484 0.74402623 0)
(156.10579 0.78164652 0)
(155.88821 0.81470109 0)
(155.66326 0.84292434 0)
(155.43217 0.86612232 0)
(155.19621 0.88417624 0)
(154.95665 0.89704343 0)
(154.71479 0.90475583 0)
(154.47187 0.90741611 0)
(154.22913 0.90519189 0)
(153.98773 0.89830831 0)
(153.74876 0.88703944 0)
(153.51326 0.87169889 0)
(153.28214 0.85263021 0)
(153.05625 0.83019715 0)
(152.83633 0.80477454 0)
(152.62302 0.77673965 0)
(152.41687 0.74646452 0)
(152.21833 0.71430918 0)
(152.02779 0.68061596 0)
(151.84552 0.64570513 0)
(151.67174 0.60987196 0)
(151.50661 0.57338457 0)
(151.3502 0.53648263 0)
(151.20255 0.49937727 0)
(151.06367 0.46225208 0)
(150.93351 0.42526501 0)
(150.81201 0.38855154 0)
(150.69908 0.35222891 0)
(150.59461 0.31640136 0)
(150.49849 0.28116573 0)
(150.41062 0.24661938 0)
(150.33087 0.21287617 0)
(150.25919 0.18008924 0)
(150.19557 0.14844862 0)
(150.13999 0.1181327 0)
(150.09216 0.089349255 0)
(150.05252 0.061266877 0)
(150.02265 0.037964726 0)
(150.00518 0.018120669 0)
(154.28941 -0.27194575 0)
(154.32479 -0.27278147 0)
(154.35173 -0.27351919 0)
(154.3787 -0.27396595 0)
(154.40523 -0.27401615 0)
(154.43134 -0.27364031 0)
(154.457 -0.27285635 0)
(154.4822 -0.27171022 0)
(154.50691 -0.27026503 0)
(154.53109 -0.26859595 0)
(154.55475 -0.26678775 0)
(154.57786 -0.26493365 0)
(154.60046 -0.26313438 0)
(154.62256 -0.26149732 0)
(154.64424 -0.26013519 0)
(154.66556 -0.25916473 0)
(154.68664 -0.25870491 0)
(154.7076 -0.25887506 0)
(154.7286 -0.25979273 0)
(154.74981 -0.26157152 0)
(154.77145 -0.26431876 0)
(154.79373 -0.26813316 0)
(154.8169 -0.27310258 0)
(154.84122 -0.27930173 0)
(154.86696 -0.28679019 0)
(154.8944 -0.29561035 0)
(154.92384 -0.30578586 0)
(154.95558 -0.31731999 0)
(154.9899 -0.3301947 0)
(155.02708 -0.34436949 0)
(155.06741 -0.35978125 0)
(155.11115 -0.37634367 0)
(155.15852 -0.39394784 0)
(155.20974 -0.41246267 0)
(155.265 -0.43173555 0)
(155.32444 -0.45159422 0)
(155.38817 -0.4718477 0)
(155.45626 -0.49228896 0)
(155.52873 -0.51269639 0)
(155.60556 -0.53283703 0)
(155.68668 -0.55246857 0)
(155.77195 -0.57134284 0)
(155.86119 -0.58920824 0)
(155.95419 -0.6058132 0)
(156.05065 -0.62090903 0)
(156.15025 -0.63425292 0)
(156.25259 -0.64561086 0)
(156.35725 -0.65476025 0)
(156.46376 -0.66149241 0)
(156.57159 -0.66561462 0)
(156.68021 -0.66695192 0)
(156.78901 -0.66534848 0)
(156.89739 -0.66066854 0)
(157.0047 -0.6527969 0)
(157.11029 -0.64163903 0)
(157.21348 -0.62712076 0)
(157.31358 -0.60918765 0)
(157.40989 -0.58780411 0)
(157.50172 -0.56295234 0)
(157.58837 -0.53463128 0)
(157.66913 -0.5028556 0)
(157.74331 -0.46765505 0)
(157.81021 -0.42907409 0)
(157.86916 -0.38717211 0)
(157.91947 -0.34202427 0)
(157.96049 -0.29372314 0)
(157.99156 -0.24238089 0)
(158.01205 -0.18813199 0)
(158.02136 -0.13113859 0)
(158.0189 -0.071594327 0)
(158.00412 -0.0097267849 0)
(157.97651 0.054199478 0)
(157.93561 0.11987334 0)
(157.88102 0.18694246 0)
(157.81243 0.25500795 0)
(157.72959 0.3236247 0)
(157.63235 0.39230319 0)
(157.52071 0.46051392 0)
(157.39473 0.52769411 0)
(157.25465 0.59325683 0)
(157.10082 0.65660177 0)
(156.93375 0.71712821 0)
(156.75408 0.77424919 0)
(156.56258 0.82740637 0)
(156.36018 0.87608448 0)
(156.14788 0.91982463 0)
(155.92684 0.95823622 0)
(155.69825 0.99100674 0)
(155.4634 1.017909 0)
(155.22361 1.038805 0)
(154.98021 1.0536477 0)
(154.73455 1.062478 0)
(154.48793 1.0654211 0)
(154.24162 1.0626785 0)
(153.99683 1.0545197 0)
(153.75469 1.0412714 0)
(153.51624 1.0233062 0)
(153.28243 1.0010313 0)
(153.05412 0.97487668 0)
(152.83205 0.94528444 0)
(152.61686 0.91269844 0)
(152.4091 0.87755534 0)
(152.20921 0.84027675 0)
(152.01756 0.80126271 0)
(151.83441 0.7608865 0)
(151.65997 0.71949104 0)
(151.49436 0.67738633 0)
(151.33765 0.63484804 0)
(151.18986 0.59211726 0)
(151.05097 0.54940147 0)
(150.92093 0.50687644 0)
(150.79965 0.46468944 0)
(150.68703 0.42296327 0)
(150.58296 0.38180136 0)
(150.48733 0.34129344 0)
(150.40003 0.30152392 0)
(150.32096 0.2625861 0)
(150.25008 0.22459671 0)
(150.18738 0.1876897 0)
(150.13288 0.15199647 0)
(150.08638 0.11770934 0)
(150.04849 0.083650954 0)
(150.02063 0.053905417 0)
(150.00467 0.026461693 0)
(154.30903 -0.28941113 0)
(154.34447 -0.29013416 0)
(154.3716 -0.2906525 0)
(154.39884 -0.29083412 0)
(154.42568 -0.29059822 0)
(154.45211 -0.28991803 0)
(154.47808 -0.28880776 0)
(154.50355 -0.28731062 0)
(154.52848 -0.28549054 0)
(154.55284 -0.28342728 0)
(154.5766 -0.28121355 0)
(154.59975 -0.27895326 0)
(154.62231 -0.27675994 0)
(154.64431 -0.27475549 0)
(154.66579 -0.27306839 0)
(154.68683 -0.27183206 0)
(154.70754 -0.27118263 0)
(154.72804 -0.2712568 0)
(154.7485 -0.2721893 0)
(154.7691 -0.2741104 0)
(154.79004 -0.27714315 0)
(154.81155 -0.28140081 0)
(154.83388 -0.28698415 0)
(154.85732 -0.2939789 0)
(154.88213 -0.30245345 0)
(154.90862 -0.31245646 0)
(154.9371 -0.32401516 0)
(154.96786 -0.33713339 0)
(155.00123 -0.35179061 0)
(155.0375 -0.36794053 0)
(155.07697 -0.38551101 0)
(155.1199 -0.40440332 0)
(155.16656 -0.42449289 0)
(155.21716 -0.44562978 0)
(155.27192 -0.46763944 0)
(155.33098 -0.49032484 0)
(155.39448 -0.51346761 0)
(155.46249 -0.53683098 0)
(155.53504 -0.56016159 0)
(155.61212 -0.58319315 0)
(155.69366 -0.60564869 0)
(155.77954 -0.62724462 0)
(155.86958 -0.6476935 0)
(155.96355 -0.66670802 0)
(156.06116 -0.68400423 0)
(156.16208 -0.69930507 0)
(156.26592 -0.71234365 0)
(156.37223 -0.72286631 0)
(156.48054 -0.73063548 0)
(156.59031 -0.73543203 0)
(156.70098 -0.73705734 0)
(156.81195 -0.73533488 0)
(156.92259 -0.73011122 0)
(157.03224 -0.72125665 0)
(157.14024 -0.70866515 0)
(157.24588 -0.69225405 0)
(157.34847 -0.6719632 0)
(157.4473 -0.64775378 0)
(157.54166 -0.61960708 0)
(157.63083 -0.58752304 0)
(157.7141 -0.551519 0)
(157.79076 -0.51162878 0)
(157.86012 -0.46790211 0)
(157.92147 -0.42040478 0)
(157.97413 -0.36921949 0)
(158.01742 -0.31444769 0)
(158.05068 -0.25621204 0)
(158.07326 -0.19466004 0)
(158.08453 -0.12996956 0)
(158.08388 -0.062353959 0)
(158.07072 0.007934995 0)
(158.04454 0.080603606 0)
(158.00483 0.15531328 0)
(157.95115 0.23166951 0)
(157.88316 0.30922144 0)
(157.80058 0.38746276 0)
(157.70324 0.46583392 0)
(157.59108 0.54372699 0)
(157.46417 0.62049321 0)
(157.32271 0.69545366 0)
(157.16707 0.76791201 0)
(156.99774 0.83716989 0)
(156.81539 0.9025437 0)
(156.62081 0.9633822 0)
(156.41496 1.0190837 0)
(156.19891 1.0691124 0)
(155.97383 1.1130122 0)
(155.74101 1.1504189 0)
(155.50179 1.1810682 0)
(155.25754 1.2048008 0)
(155.00969 1.2215635 0)
(154.75961 1.2314069 0)
(154.50869 1.2344791 0)
(154.25824 1.2310179 0)
(154.00952 1.2213394 0)
(153.7637 1.2058261 0)
(153.52185 1.1849129 0)
(153.28494 1.1590741 0)
(153.05383 1.1288094 0)
(152.82929 1.0946312 0)
(152.61195 1.057053 0)
(152.40235 1.0165789 0)
(152.20093 0.97369427 0)
(152.00803 0.92885893 0)
(151.82391 0.88250088 0)
(151.64873 0.83501246 0)
(151.48262 0.78674747 0)
(151.32561 0.73801978 0)
(151.1777 0.68910321 0)
(151.03886 0.64023262 0)
(150.909 0.59160604 0)
(150.78803 0.54338803 0)
(150.67583 0.4957138 0)
(150.57228 0.44869407 0)
(150.47725 0.4024208 0)
(150.39065 0.356975 0)
(150.31236 0.3124377 0)
(150.24236 0.2688975 0)
(150.18064 0.22644405 0)
(150.12722 0.18516411 0)
(150.08197 0.14519588 0)
(150.04558 0.1049825 0)
(150.01924 0.068765456 0)
(150.00434 0.034108009 0)
(154.33342 -0.30896906 0)
(154.36907 -0.30964382 0)
(154.39643 -0.31001617 0)
(154.42397 -0.30999076 0)
(154.45114 -0.30950815 0)
(154.4779 -0.30854896 0)
(154.50418 -0.30712905 0)
(154.52994 -0.30529284 0)
(154.5551 -0.30310743 0)
(154.57964 -0.30065852 0)
(154.60351 -0.29804752 0)
(154.6267 -0.29538947 0)
(154.64921 -0.29281113 0)
(154.67107 -0.29044929 0)
(154.69232 -0.28844861 0)
(154.71303 -0.28695965 0)
(154.73332 -0.28613625 0)
(154.7533 -0.28613306 0)
(154.77314 -0.28710262 0)
(154.79302 -0.28919248 0)
(154.81316 -0.29254216 0)
(154.83379 -0.29728008 0)
(154.85518 -0.30352066 0)