/*--------------------------------*- C++ -*----------------------------------*\
| =========                 |                                                 |
| \\      /  F ield         | foam-extend: Open Source CFD                    |
|  \\    /   O peration     | Version:     4.1                                |
|   \\  /    A nd           | Web:         http://www.foam-extend.org         |
|    \\/     M anipulation  |                                                 |
\*---------------------------------------------------------------------------*/
FoamFile
{
    version     2.0;
    format      ascii;
    class       volScalarField;
    location    "1.3";
    object      p;
}
// * * * * * * * * * * * * * * * * * * * * * * * * * * * * * * * * * * * * * //

dimensions      [0 2 -2 0 0 0 0];

internalField   nonuniform List<scalar> 
4393
(
-46.327305
-92.910469
-146.66627
-201.44998
-258.43163
-317.92297
-380.30767
-445.89636
-514.91468
-587.47465
-663.54652
-742.93068
-825.23229
-909.84234
-995.92923
-1082.4436
-1168.1373
-1251.5937
-1331.2646
-1405.509
-1472.6302
-1530.9103
-1578.646
-1614.1904
-1636.0073
-1642.7457
-1633.3449
-1607.1805
-1564.1438
-1504.7354
-1430.168
-1342.3505
-1243.7821
-1137.3686
-1026.1964
-913.30605
-801.50239
-693.22292
-590.4689
-494.79194
-407.32217
-328.82274
-259.75572
-200.34808
-150.66188
-110.66629
-80.14264
-58.181333
-43.965088
-45.075421
-92.324972
-145.95394
-200.58623
-257.3985
-316.73471
-378.99212
-444.49338
-513.476
-586.06399
-662.23922
-741.81218
-824.39515
-909.38172
-995.93725
-1083.0036
-1169.3192
-1253.4511
-1333.8343
-1408.8121
-1476.6727
-1535.6835
-1584.1241
-1620.3258
-1642.7229
-1649.9307
-1640.8531
-1614.7913
-1571.573
-1511.6911
-1436.3644
-1347.5372
-1247.7743
-1140.0674
-1027.5932
-913.47219
-800.56942
-691.35906
-587.85687
-491.61104
-403.73603
-324.97238
-255.75951
-196.3115
-146.68194
-106.77957
-76.334219
-55.204837
-44.594689
-44.271734
-91.427531
-144.69457
-198.96569
-255.42666
-314.45099
-376.45798
-441.79254
-510.71523
-583.37373
-659.77277
-739.74251
-822.90869
-908.669
-996.1812
-1084.3677
-1171.9379
-1257.4247
-1339.2286
-1415.6609
-1484.9807
-1545.427
-1595.2466
-1632.7268
-1656.241
-1664.324
-1655.7906
-1629.8591
-1586.2655
-1525.4315
-1448.5701
-1357.6951
-1255.5082
-1145.1801
-1030.0739
-913.47345
-798.36412
-687.29062
-582.29283
-484.9064
-396.20813
-316.88687
-247.32813
-187.70228
-138.01934
-98.094019
-67.616918
-47.031387
-38.236823
-43.481411
-90.131738
-142.7904
-196.48249
-252.39875
-310.9412
-372.5579
-437.62563
-506.43968
-579.18417
-655.89965
-736.44776
-820.47654
-907.39154
-996.33993
-1086.2145
-1175.6796
-1263.2157
-1347.1702
-1425.8068
-1497.3433
-1559.979
-1611.9152
-1651.3778
-1676.6509
-1686.1465
-1678.5324
-1652.8759
-1608.7651
-1546.5151
-1467.3265
-1373.3195
-1267.4132
-1153.0637
-1033.9306
-913.55477
-795.10795
-681.24075
-574.02581
-474.97498
-385.10373
-305.02009
-235.02564
-175.21546
-125.52442
-85.677507
-55.360937
-35.242156
-27.085913
-42.655821
-88.513601
-140.31885
-193.20606
-248.37346
-306.25384
-367.33061
-432.02193
-500.6696
-573.50754
-650.62605
-731.9314
-817.10412
-905.56222
-996.43888
-1088.585
-1180.6011
-1270.8923
-1357.7329
-1439.3226
-1513.8265
-1579.3962
-1634.1791
-1676.3251
-1704.0044
-1715.4662
-1709.1759
-1683.9801
-1639.2417
-1575.1083
-1492.7472
-1394.4244
-1283.3718
-1163.4599
-1038.7756
-913.22386
-790.23332
-672.59335
-562.41091
-461.15387
-369.74428
-288.67328
-218.12335
-158.08016
-108.37681
-68.655931
-38.611213
-18.963744
-11.195112
-41.646902
-86.463997
-137.16947
-189.02075
-243.2248
-300.24948
-360.62085
-424.80871
-493.21428
-566.1365
-643.73196
-725.96784
-812.57077
-902.97842
-996.3073
-1091.3523
-1186.6262
-1280.4325
-1370.9474
-1456.29
-1534.5638
-1603.8692
-1662.2961
-1707.9091
-1738.7415
-1752.8362
-1748.3897
-1723.946
-1678.5464
-1612.0839
-1525.6549
-1421.7122
-1303.9209
-1176.7299
-1044.8169
-912.57945
-783.78118
-661.37963
-547.50777
-443.5571
-350.31213
-268.10031
-196.94004
-136.666
-86.977008
-47.416062
-17.645902
1.6495709
9.2007316
-40.504417
-84.053707
-133.40663
-183.97524
-236.97972
-292.92889
-352.39917
-415.92275
-483.97435
-556.93503
-635.0471
-718.35884
-806.66093
-899.42176
-995.73954
-1094.3359
-1193.6064
-1291.7176
-1386.7189
-1476.6309
-1559.4902
-1633.3495
-1696.2478
-1746.164
-1780.9786
-1798.4856
-1796.5356
-1773.2683
-1727.2745
-1658.0642
-1566.5941
-1455.5463
-1329.1743
-1192.7229
-1051.6714
-911.06702
-775.09471
-646.90299
-528.62803
-421.53666
-326.21816
-242.77977
-171.02554
-110.5974
-61.030246
-21.745535
7.6682577
26.619568
33.999288
-39.094411
-81.131694
-128.87123
-177.90553
-229.46656
-284.10933
-342.46814
-405.1488
-472.71488
-545.649
-624.30224
-708.82913
-799.10848
-894.65589
-994.55163
-1097.4227
-1201.5073
-1304.7895
-1405.154
-1500.5034
-1588.8068
-1668.0828
-1736.3374
-1791.4769
-1831.2223
-1853.0787
-1854.4646
-1832.9918
-1786.6289
-1714.3138
-1616.7448
-1496.8727
-1359.7486
-1211.7095
-1059.3152
-908.45767
-763.83653
-628.79971
-505.44001
-394.8264
-297.27419
-212.59842
-140.32872
-79.868154
-30.556511
8.3288192
37.302859
55.888541
63.105862
-37.561514
-77.856947
-123.71134
-170.93595
-220.77793
-273.84401
-330.83396
-392.43882
-459.32779
-532.10756
-611.26573
-697.09521
-789.59601
-888.35661
-992.44426
-1100.3654
-1210.1471
-1319.528
-1426.1789
-1527.8625
-1622.4872
-1708.0641
-1782.6019
-1843.965
-1889.7235
-1917.06
-1922.8652
-1904.0723
-1857.799
-1782.1328
-1677.3109
-1546.5804
-1396.0792
-1233.6544
-1067.3238
-904.06863
-749.20059
-606.25133
-477.18909
-362.7789
-262.95762
-177.15871
-104.56739
-44.29685
4.5425575
42.842211
71.243343
89.394961
96.430427
-35.656588
-73.930979
-117.60678
-162.73459
-210.56872
-261.77042
-317.1112
-377.37884
-443.36622
-515.82951
-595.42586
-682.62669
-777.59784
-880.03922
-989.01723
-1102.8848
-1219.3827
-1335.9143
-1449.8677
-1558.8404
-1660.6964
-1753.4852
-1835.2778
-1903.9538
-1956.964
-1991.1485
-2002.7712
-1987.9058
-1942.5228
-1863.4504
-1750.122
-1606.0767
-1438.9499
-1258.7033
-1075.3324
-897.21457
-730.3641
-578.43812
-443.14692
-324.79977
-222.81767
-136.14319
-63.53758
-3.7707007
44.310005
81.785846
109.43933
127.05319
133.8696
-33.70658
-69.733122
-110.94354
-153.67173
-199.18172
-248.19212
-301.55123
-360.15422
-424.93632
-496.83167
-576.7059
-665.25897
-762.88311
-869.44892
-984.04895
-1104.8442
-1229.1844
-1354.0091
-1476.3294
-1593.5491
-1703.5223
-1804.4085
-1894.4323
-1971.5798
-2033.2459
-2075.9287
-2095.1766
-2085.9847
-2042.8009
-1960.6007
-1837.4362
-1677.0564
-1489.1942
-1286.8275
-1082.6536
-886.82871
-706.13355
-544.22081
-402.33256
-280.10894
-176.27683
-89.155909
-16.994454
41.83607
88.78212
125.13088
151.81389
168.75228
175.29774
-31.230985
-64.676479
-103.08159
-143.07321
-185.90694
-232.3565
-283.3496
-339.89845
-403.10022
-474.09942
-554.0165
-643.84239
-744.27747
-855.45343
-976.54218
-1105.4689
-1239.041
-1373.5415
-1505.4634
-1631.9804
-1750.9907
-1860.869
-1960.1217
-2046.981
-2118.8995
-2172.0727
-2201.2779
-2200.1719
-2161.2237
-2076.73
-1942.3797
-1761.8773
-1547.9487
-1317.9741
-1088.3722
-871.54485
-675.03552
-502.24475
-353.62425
-227.85066
-122.73026
-35.805257
35.284181
92.617415
137.95945
172.81141
198.25402
214.34833
220.55849
-28.844698
-59.50538
-94.818769
-131.7564
-171.56753
-215.07876
-263.29672
-317.35665
-378.53496
-448.21976
-527.83768
-618.74321
-722.0497
-838.28301
-966.79141
-1105.219
-1249.6108
-1395.304
-1538.0694
-1674.8156
-1803.5903
-1923.1477
-2032.4627
-2130.2208
-2214.1218
-2280.1459
-2322.2327
-2332.4901
-2300.9102
-2215.8938
-2069.14
-1863.6795
-1616.5945
-1351.8764
-1091.1042
-849.47295
-635.14023
-450.81661
-295.68107
-167.04822
-61.522886
24.304628
93.497787
148.6306
191.79991
224.71761
248.60432
263.6579
269.45755
-25.744586
-53.226561
-85.058395
-118.54865
-154.90747
-195.00288
-239.91459
-290.90302
-349.43955
-417.19276
-495.95637
-587.53707
-693.59921
-815.26651
-952.24822
-1101.8851
-1259.1466
-1417.9837
-1573.1378
-1721.2116
-1860.567
-1990.5569
-2110.8431
-2220.8242
-2318.7287
-2400.4926
-2459.2003
-2485.2438
-2465.6988
-2383.4703
-2223.5469
-1986.846
-1696.901
-1387.984
-1088.844
-818.06691
-583.9865
-387.88497
-226.96109
-96.640486
8.0096765
91.536714
157.79302
209.87356
250.20265
280.68451
302.65901
316.45135
321.75633
-22.901732
-47.043856
-75.126099
-104.85397
-137.39968
-173.66403
-214.79119
-262.16334
-317.4564
-382.6534
-459.97899
-551.78596
-660.44909
-787.97366
-934.74377
-1097.8121
-1270.5911
-1444.9326
-1614.0568
-1774.2183
-1924.3886
-2064.868
-2196.3134
-2319.228
-2432.8571
-2533.441
-2613.2577
-2660.8769
-2660.171
-2586.557
-2413.8198
-2137.6028
-1791.0877
-1425.2177
-1078.6309
-773.86021
-518.4259
-310.97738
-145.71771
-15.50765
86.505932
166.18703
228.23533
276.26319
312.99228
340.48112
360.15434
372.447
377.16664
-19.149411
-39.508721
-63.422581
-88.960269
-117.20318
-149.05753
-185.70862
-228.64185
-279.73203
-341.30222
-416.07615
-507.05632
-617.51237
-750.73842
-908.36358
-1087.327
-1278.8105
-1471.4763
-1656.3093
-1829.2434
-1990.4178
-2141.6095
-2284.7796
-2421.9129
-2553.8656
-2677.6185
-2784.6502
-2861.6866
-2889.628
-2834.5105
-2651.8063
-2325.1252
-1901.9506
-1461.6323
-1056.0978
-712.14979
-434.4733
-217.17484
-50.040236
77.465139
174.51596
248.43334
304.77091
347.6089
379.9015
403.79934
420.76155
431.30636
435.34668
-15.832322
-32.320565
-51.841485
-72.892961
-96.462564
-123.44515
-155.04877
-192.84554
-238.90183
-295.90737
-367.16725
-456.44813
-568.09445
-707.21055
-877.62209
-1076.617
-1292.0947
-1507.6569
-1710.817
-1897.1723
-2068.9094
-2230.0046
-2383.94
-2534.5542
-2685.3581
-2835.1449
-2975.034
-3090.2845
-3159.9239
-3139.5377
-2955.0193
-2563.5867
-2032.9751
-1493.8239
-1014.7622
-626.56207
-327.14164
-103.119
62.063117
183.28965
272.41635
338.27128
387.1828
423.58441
450.55395
470.24411
484.08158
492.63125
495.89911
-11.409889
-23.550058
-38.254658
-54.395277
-72.794683
-94.293779
-120.07776
-151.7514
-191.51181
-242.38013
-308.28225
-393.83015
-504.54316
-647.91893
-831.55689
-1054.2864
-1299.2532
-1541.9604
-1764.6404
-1962.7794
-2142.4606
-2311.3061
-2474.617
-2638.4367
-2810.5504
-2993.1474
-3177.0207
-3345.2336
-3476.478
-3517.4688
-3349.7986
-2875.6953
-2188.1089
-1515.9052
-944.96378
-508.51155
-190.31305
34.895485
192.50343
302.72212
380.29407
435.4358
475.04184
503.69913
524.44867
539.32591
549.64212
555.96331
558.37135
-7.4884812
-15.379338
-25.199075
-36.255983
-49.183847
-64.73107
-84.014516
-108.62106
-140.82222
-183.94533
-242.63506
-322.53886
-430.44431
-576.83819
-775.63465
-1029.9465
-1316.0321
-1595.7913
-1843.1298
-2053.5887
-2240.3113
-2416.6815
-2589.2752
-2765.2482
-2958.2966
-3176.1316
-3409.4623
-3638.3112
-3847.369
-3986.4704
-3874.4219
-3299.6181
-2372.1794
-1518.6004
-832.46594
-346.57658
-16.71603
200.68046
342.83448
436.04303
497.79815
539.31114
567.65648
587.27253
600.94875
610.45722
616.89823
620.78657
622.25889
-2.4451408
-5.6425424
-10.097133
-15.563926
-22.428422
-31.316855
-43.237795
-59.701142
-82.949727
-116.47555
-165.58938
-237.0422
-338.62288
-483.70469
-695.8612
-988.25673
-1327.5908
-1652.2244
-1923.7073
-2138.0947
-2321.6827
-2497.2872
-2671.5907
-2850.302
-3057.2703
-3311.7412
-3607.8761
-3922.9402
-4249.8429
-4561.1877
-4590.3434
-3909.7439
-2594.0498
-1486.4641
-655.49986
-125.57045
201.89119
397.66297
513.81149
582.75646
623.9627
648.83725
664.02838
673.4165
679.27724
682.95484
685.2375
686.53384
687.01196
2.9692065
3.9465085
4.5121921
4.3394275
3.3588033
1.1314698
-3.1394769
-10.742717
-23.677091
-45.294703
-81.3833
-140.03014
-229.99418
-366.85747
-588.43002
-930.82084
-1349.8888
-1740.4641
-2046.0841
-2261.6818
-2437.7596
-2613.3478
-2794.4552
-2978.2043
-3203.8995
-3509.7332
-3893.2432
-4323.0193
-4773.4429
-5300.6052
-5582.27
-4832.6783
-2842.574
-1379.5413
-378.80301
173.96338
473.82612
627.92833
704.72176
741.20779
757.01667
762.42746
762.82423
761.03182
758.52369
756.04989
753.99065
752.59708
752.04581
8.2595494
13.225181
19.285142
25.128943
31.000953
36.662768
41.576155
44.728025
44.438837
37.666057
18.269024
-23.673686
-98.156919
-220.07585
-443.24351
-849.34888
-1387.0344
-1862.1712
-2198.6178
-2386.6665
-2527.4151
-2687.4683
-2870.1997
-3039.068
-3251.2953
-3584.5968
-4035.1706
-4573.3023
-5100.5865
-5970.6761
-6833.5422
-6308.3759
-3080.0354
-1174.3484
34.924483
572.09225
805.0599
890.59745
912.46837
908.15532
894.21821
877.92336
862.37856
848.82645
837.66498
828.90681
822.44804
818.34191
816.75441
17.724585
25.758286
36.66116
47.626498
59.327487
71.709962
84.527924
97.128968
108.34163
115.95818
114.56929
93.285863
41.22254
-50.32372
-245.70141
-712.29246
-1429.1747
-2013.5207
-2395.4596
-2538.9088
-2638.947
-2789.3781
-2992.6069
-3128.3141
-3293.31
-3689.3797
-4237.0285
-4974.7269
-5691.18
-7254.3716
-8893.444
-9079.5445
-3585.5345
-1041.8715
634.10058
1099.0778
1197.8643
1179.7863
1130.5154
1078.3976
1031.7821
992.62348
960.74451
935.36257
915.60293
900.65226
889.88206
883.12604
880.52736
21.908977
30.75751
46.027778
62.164525
80.125853
100.08088
122.26629
146.69776
173.14135
200.95001
226.84431
239.87176
224.93802
178.44386
41.880876
-482.67645
-1537.8121
-2281.8457
-2745.8167
-2768.6326
-2746.1655
-2814.2934
-3034.5448
-3115.4704
-3229.4363
-3773.8144
-4246.1792
-5199.8802
-6484.9792
-7876.5009
-9601.5575
-12116.528
-4833.1628
-74.95072
1722.8537
1812.761
1642.217
1479.9933
1347.5591
1244.5971
1164.9961
1103.4284
1055.8077
1019.1364
991.21872
970.41278
955.57423
946.3204
942.76881
36.526165
46.348419
66.302031
87.180995
110.62278
136.94383
166.74099
200.49038
238.5155
281.09578
326.63933
364.06455
370.53763
345.34852
288.34126
-195.13062
-1796.7154
-2582.0599
-3076.1008
-2781.3815
-2614.9734
-2724.4163
-3149.6875
-3299.5434
-3335.4071
0
0
0
0
0
0
0
0
6203.7674
3404.1308
2584.1561
2069.9077
1757.5339
1546.8047
1397.772
1288.6884
1207.1445
1145.4692
1098.6879
1063.4406
1037.3583
1018.845
1007.3316
1002.9173
34.789648
41.946244
63.84092
86.951942
113.1381
142.72569
176.60793
215.73119
261.12626
314.38687
377.2759
445.28455
502.05118
558.92238
700.41595
536.8856
-1971.9047
-2732.5415
-3568.8381
-2975.1663
-3041.4717
-3022.1015
0
0
0
0
0
0
0
0
0
0
10135.19
6290.4198
4126.8527
3002.7812
2363.5421
1971.2801
1711.0722
1529.5335
1398.2192
1300.949
1227.8784
1172.726
1131.3159
1100.7468
1079.0834
1065.6237
1060.4647
43.821917
54.803612
80.831911
106.90836
136.12235
169.02988
206.87317
251.07125
303.38977
366.74635
446.26628
544.50222
651.45719
751.20191
830.44001
567.18242
-3055.7785
-3537.0857
-3192.2684
0
0
0
0
0
0
0
0
0
0
0
1789.4247
3373.2019
5762.7632
5240.7671
3965.0751
3103.2422
2509.8598
2110.2347
1833.0022
1635.2384
1490.6028
1382.8496
1301.6474
1240.2399
1194.0739
1159.9622
1135.7726
1120.7374
1114.9732
22.174923
42.023416
66.289136
91.282305
118.83559
149.70814
184.96369
225.76088
273.39107
330.00182
399.45884
478.16345
538.6292
539.4735
561.79475
693.21828
0
0
0
0
0
0
-1122.2774
-1094.2357
-1002.3667
-908.83631
-781.49115
-486.80034
-86.500071
705.42494
2034.8272
3369.7883
4757.3263
4494.9147
3718.9584
3062.2234
2555.7881
2185.0626
1914.0924
1714.1676
1564.757
1451.856
1365.9566
1300.5632
1251.1665
1214.5421
1188.5083
1172.3038
1166.0875
20.006595
50.086838
75.10496
100.75166
128.24178
158.40012
191.87245
229.093
270.02242
313.87231
358.37144
396.99282
406.93243
340.80057
148.90165
-326.02922
-1261.4924
-1209.4632
-1132.3568
-1087.7759
-1039.7609
-1011.221
-1000.3563
-793.66531
-829.46763
-574.42338
-353.86204
-196.26646
267.26253
912.87679
1968.0299
3056.5727
3962.7756
3857.1518
3408.7692
2937.4881
2531.9177
2209.1597
1959.6201
1768.1689
1621.147
1507.9006
1420.5491
1353.386
1302.2817
1264.1886
1237.0092
1220.0538
1213.5432
20.603464
46.440838
72.144928
98.083366
125.49081
155.10879
187.51249
223.0653
261.7516
302.67458
342.68219
374.52737
385.81892
354.67036
208.32125
-219.97488
-777.82564
-906.87089
-949.47842
-954.14991
-876.68549
-831.89249
-808.9162
-682.5868
-612.0926
-409.03327
-170.90148
85.793093
518.75548
1104.1675
1903.6426
2728.5491
3341.0491
3362.207
3110.3437
2781.2917
2467.0834
2197.2124
1976.7528
1800.6444
1661.3328
1551.6476
1465.6536
1398.725
1347.3339
1308.767
1281.1176
1263.8195
1257.1694
15.125057
36.443099
59.118356
81.734091
104.86737
128.75508
153.40382
178.45859
203.02673
225.16868
240.72356
242.50362
221.36516
163.43227
20.963689
-274.854
-594.60861
-720.00526
-772.59873
-783.08004
-742.55186
-693.41699
-632.70056
-528.63442
-415.11749
-229.7941
-3.3139031
277.84106
676.34337
1195.228
1830.455
2457.6415
2895.6243
2972.5099
2839.8217
2617.3512
2380.1294
2161.2985
1972.5546
1815.5496
1687.4763
1584.2533
1501.8674
1436.8666
1386.4351
1348.2918
1320.7933
1303.5318
1296.8866
23.815369
46.487509
70.328868
93.907392
117.91768
142.46445
167.36844
192.00664
215.07316
234.02717
244.21913
238.65725
208.7054
139.21973
-1.7017697
-228.43784
-449.80382
-568.83076
-624.48058
-634.01272
-605.74949
-558.63732
-488.03634
-385.56364
-255.77027
-74.640753
147.20091
423.9218
784.60382
1231.0989
1742.5249
2228.3296
2563.2772
2664.0514
2604.5877
2459.3509
2284.3023
2110.9311
1953.3001
1816.8106
1701.9674
1607.1481
1530.0342
1468.2986
1419.8579
1382.9052
1356.1006
1339.212
1332.7005
12.182664
30.224514
50.476486
70.637461
90.812451
110.88167
130.53965
149.12156
165.39021
177.12009
180.63964
170.89026
141.16272
79.135614
-34.18019
-195.81775
-349.5833
-446.86011
-496.05282
-504.35216
-479.31358
-430.6999
-356.7041
-253.91353
-120.13251
55.108045
269.75495
532.85753
857.10301
1239.5062
1655.4924
2039.2668
2307.9456
2417.0974
2403.1773
2313.1655
2187.43
2052.9181
1924.0981
1807.9656
1707.1577
1621.8597
1551.1333
1493.6426
1447.9934
1412.8517
1387.1924
1370.9608
1364.6925
21.434667
40.783415
61.149822
80.823341
100.08372
118.66515
136.05881
151.38069
163.19604
169.24348
166.30582
150.46717
116.72737
56.861087
-37.741629
-158.38464
-270.59203
-347.06259
-386.38205
-391.15613
-366.02859
-315.77744
-239.96625
-136.81877
-3.5522858
164.77892
368.81655
613.55064
903.24257
1231.4457
1574.5917
1884.8699
2107.9491
2217.7136
2232.258
2181.4893
2094.2335
1992.1675
1888.9508
1792.0306
1705.2064
1629.8893
1566.1907
1513.5937
1471.3121
1438.4516
1414.2919
1398.9449
1393.0081
12.018982
28.295437
46.464641
64.302777
81.710084
98.335331
113.65403
126.82096
136.51675
140.76544
136.91186
121.78042
91.395059
40.410929
-34.242482
-123.55801
-205.70817
-263.41269
-292.13401
-291.82729
-264.71394
-213.01762
-136.59135
-34.266612
96.032543
256.7367
448.62855
673.69554
931.73649
1214.6408
1501.7917
1758.4427
1948.5404
2055.2951
2087.6329
2064.7455
2007.1687
1931.8466
1850.8221
1771.457
1697.9991
1632.6308
1576.2139
1528.8724
1490.3282
1460.0761
1437.6747
1423.3829
1417.8447
17.224383
33.494515
50.666665
67.013793
82.580756
96.989323
109.69187
119.87588
126.36935
127.55804
121.43852
105.7278
77.702165
34.403365
-24.327839
-90.809343
-150.7816
-192.56002
-211.16335
-205.17217
-175.18104
-122.03591
-45.579015
54.992093
180.96408
333.44912
512.65092
718.51398
948.46163
1193.9546
1437.7511
1654.522
1819.8086
1922.0258
1965.4108
1962.368
1927.5351
1874.0044
1811.9141
1748.1857
1687.128
1631.3289
1582.1491
1540.1873
1505.5715
1478.1253
1457.6516
1444.5315
1439.4383
12.11504
26.714391
42.66076
57.989614
72.538155
85.882684
97.473297
106.54366
112.05061
112.65101
106.78469
92.777551
68.8624
33.70334
-11.460125
-60.377554
-103.25619
-131.73849
-141.18179
-129.56436
-96.500541
-42.054212
34.014671
132.22842
253.23161
397.30781
563.99003
751.93476
957.40214
1172.1713
1382.1403
1568.6877
1714.7714
1811.9795
1862.1074
1873.2197
1855.7747
1819.8355
1773.7372
1723.6971
1673.8969
1627.0611
1584.8551
1548.2101
1517.5645
1493.0094
1474.5533
1462.6725
1458.052
13.798137
27.694798
42.429799
56.342198
69.354154
81.074129
91.005049
98.485337
102.66108
102.49569
96.853442
84.598935
64.718053
36.885911
2.8690387
-32.35694
-61.800709
-79.253981
-80.639179
-63.766752
-27.73277
27.825024
103.20643
198.71439
314.52379
450.35343
605.17973
776.90014
961.31823
1150.9112
1334.2607
1497.5016
1628.4209
1720.682
1774.7958
1796.025
1791.8679
1770.0398
1737.3206
1699.1149
1659.3528
1620.7387
1585.0916
1553.5594
1526.8064
1505.134
1488.7174
1478.1008
1473.9645
11.506759
24.405714
38.258287
51.357603
63.545976
74.433577
83.561058
90.353456
94.114708
94.057457
89.384547
79.392706
63.637242
42.416645
17.639286
-6.707922
-25.437141
-33.768527
-28.220758
-6.6496131
32.077914
88.531969
163.02576
255.68493
366.34907
494.34695
638.26174
795.59209
962.08924
1131.0671
1293.2987
1438.2982
1557.0684
1644.7008
1701.0327
1729.4998
1735.4998
1724.947
1703.3294
1675.258
1644.3191
1613.1183
1583.5176
1556.7922
1533.7623
1514.8889
1500.4777
1491.1151
1487.4609
11.558219
23.682549
36.557785
48.645064
59.825519
69.748685
78.016002
84.151972
87.613979
87.830788
84.278451
76.584076
64.696472
49.258179
32.122999
16.516405
6.4231537
5.6186615
17.049071
42.706114
83.779958
140.91592
214.40288
304.22278
409.97798
530.73322
664.82629
809.59358
960.95373
1113.0589
1258.4257
1388.9837
1497.9282
1581.3683
1638.7956
1672.4426
1686.2123
1684.6458
1672.1754
1652.702
1629.4282
1604.8142
1580.6923
1558.3991
1538.8556
1522.6395
1510.1554
1502.009
1498.8245
10.506147
21.92377
34.084408
45.49168
56.013503
65.328735
73.09469
78.92735
82.4198
83.183484
80.917347
75.504014
67.164084
56.723195
45.908833
37.374057
34.277386
39.662397
56.022843
85.1556
128.21212
185.83396
258.26108
345.35905
446.56425
560.77085
686.18571
820.13051
958.7968
1097.1062
1228.9417
1347.9744
1448.9268
1528.6505
1586.4696
1623.817
1643.5272
1649.0998
1644.1162
1631.8685
1615.1788
1596.3295
1577.0902
1558.8093
1542.4662
1528.7213
1518.0529
1511.065
1508.3307
10.10668
20.89726
32.357652
43.091189
52.98581
61.757293
69.118553
74.768345
78.414846
79.816725
78.845525
75.571167
70.389996
64.20911
58.608928
55.812861
58.389688
68.84131
89.287656
121.32416
166.01581
223.95721
295.32701
379.89696
476.98919
585.39537
703.27233
828.01259
956.11678
1083.1772
1204.1381
1313.9369
1408.3805
1484.8703
1542.6599
1582.6459
1606.897
1618.1248
1619.2329
1613.0016
1601.9074
1588.0411
1573.0891
1558.3809
1544.9233
1533.434
1524.447
1518.5493
1516.2428
9.5285723
19.799035
30.716384
40.94494
50.381065
58.774319
65.889204
71.498385
75.408141
77.497166
77.771762
76.439084
74.007463
71.4092
70.085087
71.933221
79.093585
93.661555
117.45298
151.87441
197.88599
256.01542
326.37695
408.66742
502.13211
605.50791
716.95379
833.97621
953.38003
1071.3217
1183.5637
1285.9707
1375.1299
1448.8541
1506.3769
1548.2331
1575.9408
1591.6179
1597.6343
1596.3476
1589.9336
1580.2977
1569.0351
1557.4397
1546.5246
1537.0471
1529.5886
1524.7088
1522.8106
9.1108189
18.930339
29.374448
39.171161
48.229211
56.329456
63.281603
68.920559
73.132247
75.889472
77.300189
77.668589
77.570943
77.934778
80.077903
85.65189
96.480807
114.35316
140.84105
177.18428
224.23744
282.45609
351.89326
432.18687
522.53204
621.64257
727.7096
838.36827
950.70001
1061.3225
1166.6239
1263.15
1348.0546
1419.4589
1476.6022
1519.7746
1550.0984
1569.2478
1579.1776
1581.9038
1579.3491
1573.2513
1565.1138
1556.1883
1547.4789
1539.7675
1533.6839
1529.7636
1528.2697
8.7285413
18.196491
28.277718
37.749563
46.529775
54.427312
61.291257
67.008599
71.529392
74.899514
77.302642
79.110396
80.938504
83.69623
88.599035
97.112993
110.82923
131.30565
159.92277
197.78031
245.63689
303.88004
372.50878
451.11574
538.86459
634.46545
736.15519
841.69393
948.39981
1053.2567
1153.1249
1245.0483
1326.5916
1396.1055
1452.8461
1496.9375
1529.2193
1551.0366
1564.0272
1569.937
1570.4815
1567.2554
1561.6769
1554.9556
1548.0779
1541.84
1536.9372
1533.9202
1532.8528
8.3618967
17.561815
27.365038
36.592522
45.167571
52.923658
59.742401
65.552168
70.35235
74.243425
77.463707
80.430485
83.781349
88.403724
95.432094
106.19553
122.11567
144.58014
174.82337
213.83313
262.28741
320.51526
388.471
465.71349
551.38747
644.20939
742.46368
844.01981
946.38719
1046.83
1142.5562
1230.9684
1309.925
1377.9446
1434.303
1479.0136
1512.7171
1536.5209
1551.8271
1560.1762
1563.122
1562.144
1558.5903
1553.6368
1548.2532
1543.2387
1539.3699
1537.2893
1536.7861
7.9913192
17.06784
26.696744
35.766112
44.205649
51.872652
58.675577
64.574646
69.605719
73.908541
77.75931
81.60501
86.094203
92.093565
100.6764
113.07469
130.5924
154.49732
185.91838
225.75993
274.63786
332.83553
400.27324
476.48602
560.60804
651.36574
747.0852
845.72278
944.93178
1042.1793
1134.9181
1220.7986
1297.8818
1364.8039
1420.8583
1465.9863
1500.6939
1525.9238
1542.9113
1553.048
1557.7691
1558.4674
1556.4367
1552.8274
1548.5935
1544.5055
1541.3884
1540.1362
1540.4089
7.4891366
16.635848
26.186112
35.172231
43.532487
51.148544
57.949526
63.917678
69.112809
73.699557
77.977326
82.410115
87.650787
94.550562
104.14333
117.60198
136.15713
160.99801
193.18385
233.56359
282.71115
340.87877
407.96395
483.48655
566.57517
655.96503
750.01228
846.73276
943.8753
1039.0384
1129.8306
1214.0583
1289.9099
1356.0962
1411.9238
1457.2907
1492.6194
1518.7484
1536.806
1548.0875
1553.9499
1555.7263
1554.6703
1551.9182
1548.4177
1544.8846
1542.1394
1541.6769
1543.8576
6.2660819
16.304572
25.907421
34.886907
43.217238
50.812099
57.614781
63.619658
68.898798
73.629293
78.122234
82.850357
88.469494
95.826031
105.93884
119.94325
139.02325
164.33302
196.90118
237.54966
286.83141
344.98285
411.88984
487.06455
569.63294
658.33497
751.54248
847.30185
943.41027
1037.532
1127.3528
1210.7562
1285.9932
1351.8122
1407.5269
1453.0151
1488.6589
1515.2458
1533.8523
1545.7266
1552.1821
1554.5215
1553.9864
1551.7165
1548.6695
1545.5206
1543.0562
1543.5474
1549.3772
-2211.7275
-2460.1506
-2669.9685
-2846.2897
-2983.0998
-3059.43
-3055.7785
-2972.2112
-2799.1237
-2611.1384
-3192.1129
-3192.2684
-3185.7105
-3175.2724
-3162.2142
-3151.4267
-3139.4671
-3150.4463
-3147.61
-3116.0957
-3175.662
-3174.7323
-3160.397
-3144.8674
-3130.0364
-3124.4526
-3108.2302
-3112.9603
-3096.2584
-3038.9347
-3130.1234
-3127.2568
-3118.893
-3110.8448
-3102.5041
-3106.0314
-3097.06
-3093.8381
-3079.2638
-3040.772
-3067.1012
-3065.9973
-3061.6707
-3055.2947
-3045.1401
-3040.2046
-3044.4912
-3046.6877
-3047.1799
-3051.0129
-3028.0716
-3027.4176
-3023.0962
-3015.1055
-3003.7933
-2975.1663
-2995.2609
-3005.3705
-3009.9848
-3020.8972
-3019.1294
-3020.8362
-3024.9243
-3029.6488
-3044.0035
-3025.0459
-3021.1557
-3012.816
-2993.8329
-2967.6434
-3030.765
-3031.7138
-3035.7856
-3041.4717
-3061.3846
-3068.3428
-3051.0037
-3027.1411
-2998.3928
-2963.3297
-3859.4529
-3873.2987
-3845.591
-3802.1057
-3765.1864
-3733.4317
-3711.9896
-3698.0922
-3688.8123
-3690.0359
-2987.8348
-2987.14
-2981.5392
-2968.8984
-2930.2383
-2952.87
-2963.189
-2964.3317
-2953.0069
-2925.3191
-3018.6132
-3022.1015
-3029.6274
-3052.1829
-3034.04
-3022.1262
-3013.4254
-3002.222
-2985.5028
-2968.5268
-3051.8709
-3053.4869
-3056.3992
-3077.9158
-3090.159
-3068.4952
-3043.8045
-3024.6129
-3006.2195
-2989.8114
-2995.7977
-2991.85
-2970.7759
-2942.2859
-2966.6558
-2987.1216
-3001.3955
-3011.3924
-3015.4962
-3023.5872
-3039.3978
-3042.8914
-3042.7181
-3004.3274
-3012.1847
-3026.094
-3037.5205
-3045.2903
-3048.705
-3058.4672
-3177.6268
-3186.4692
-3211.9143
-3211.6591
-3180.9537
-3149.6875
-3126.3212
-3109.0267
-3092.1783
-3073.736
-3160.2255
-3155.1904
-3145.8951
-3166.6145
-3168.6953
-3163.2302
-3156.336
-3149.7494
-3142.382
-3142.8545
-3188.6833
-3188.8618
-3165.2036
-3173.5522
-3183.9426
-3190.8579
-3193.6448
-3193.6142
-3191.0672
-3194.0907
-3303.9732
-3316.6135
-3315.003
-3299.5434
-3281.8742
-3267.6109
-3256.9177
-3249.3442
-3240.8661
-3230.7714
-3295.8335
-3298.4455
-3305.6551
-3299.905
-3292.6646
-3288.6583
-3289.0587
-3293.4289
-3297.8413
-3309.1015
-3205.4661
-3190.8687
-3208.4536
-3234.6826
-3264.6787
-3293.7266
-3320.6304
-3344.6631
-3363.8955
-3387.6763
-3359.2722
-3335.4071
-3343.681
-3361.9365
-3386.3976
-3409.3872
-3429.7818
-3446.3233
-3457.1277
-3471.2635
-3732.1004
-3723.8175
-3691.6423
-3655.581
-3628.2687
-3606.5591
-3592.4827
-3583.6039
-3576.0205
-3571.8827
-3011.3668
-3009.591
-3002.5497
-2988.1673
-2977.2851
-2987.3906
-2989.9866
-2987.7326
-2980.9021
-2981.1009
-3494.6324
-3503.2423
-3518.549
-3565.257
-3620.3244
-3669.8909
-3688.4098
-3667.3154
-3580.0227
-3406.1698
-3247.5588
-3247.5243
-3249.6615
-3253.1043
-3252.8099
-3250.582
-3247.3083
-3245.624
-3239.5745
-3190.6986
-3142.6888
-3188.6893
-3249.7721
-3352.0878
-3460.0752
-3542.906
-3584.999
-3540.5525
-3386.3872
-3153.4316
-3440.3697
-3449.9555
-3470.324
-3505.2913
-3537.0857
-3563.4432
-3569.8259
-3568.8593
-3531.5849
-3417.5088
-3336.721
-3340.7408
-3353.9994
-3376.1747
-3395.4994
-3411.622
-3419.0224
-3407.7424
-3393.5573
-3340.1874
11324.219
10721.209
10135.19
9495.4739
8838.2767
8184.8555
7550.3844
6941.8874
6352.3569
5775.2015
8311.0713
8233.4227
8109.7012
7847.6626
7509.4157
7118.6535
6696.6763
6261.3662
5822.9558
5366.346
-3712.1742
-3730.0477
-3749.3876
-3757.8112
-3768.7803
-3773.8144
-3779.9116
-3784.1601
-3785.9041
-3789.4678
-3714.1822
-3717.9423
-3753.4348
-3785.1052
-3825.0344
-3853.0375
-3877.7402
-3894.3326
-3903.3329
-3907.6419
-3958.6234
-3951.2607
-3967.4129
-3974.7778
-4003.2335
-4021.6675
-4041.6594
-4054.746
-4060.2263
-4055.7461
-4236.2693
-4225.8046
-4239.9959
-4230.2534
-4246.1792
-4247.7901
-4254.1515
-4255.0037
-4251.2374
-4246.625
-4559.7159
-4541.4572
-4553.0999
-4525.6798
-4529.2437
-4510.9918
-4498.2247
-4477.8426
-4449.8366
-4417.1045
-4916.3496
-4889.0082
-4898.5045
-4851.6861
-4843.0189
-4804.0823
-4770.8897
-4727.045
-4671.9635
-4611.3072
-5297.1161
-5258.5525
-5267.0841
-5199.8802
-5180.1091
-5121.5748
-5069.8117
-5005.9042
-4929.2089
-4843.422
-5697.9119
-5645.7329
-5654.4574
-5565.0708
-5534.0572
-5455.4066
-5384.3885
-5301.5296
-5211.1243
-5128.1044
-6119.7509
-6050.5346
-6060.2929
-5945.956
-5902.3126
-5801.5107
-5706.8116
-5596.3809
-5470.6488
-5334.5974
-6562.7997
-6472.6285
-6484.9792
-6343.013
-6285.6055
-6162.3573
-6043.8808
-5909.3876
-5759.3736
-5597.1702
-7033.221
-6916.0152
-6931.7094
-6757.9225
-6683.6365
-6535.7097
-6389.5097
-6226.9259
-6048.0452
-5861.7445
-7529.9157
-7379.6165
-7401.6759
-7192.9453
-7098.6492
-6924.2757
-6746.1897
-6549.7633
-6330.7666
-6093.0815
-8071.234
-7876.5009