/*--------------------------------*- C++ -*----------------------------------*\
| =========                 |                                                 |
| \\      /  F ield         | foam-extend: Open Source CFD                    |
|  \\    /   O peration     | Version:     4.1                                |
|   \\  /    A nd           | Web:         http://www.foam-extend.org         |
|    \\/     M anipulation  |                                                 |
\*---------------------------------------------------------------------------*/
FoamFile
{
    version     2.0;
    format      ascii;
    class       surfaceScalarField;
    location    "1.3";
    object      phi;
}
// * * * * * * * * * * * * * * * * * * * * * * * * * * * * * * * * * * * * * //

dimensions      [0 3 -1 0 0 0 0];

internalField   nonuniform List<scalar> 
8438
(
-0.59738675
0.0016667118
-0.5991191
0.0017323506
-0.60088673
0.0017676234
-0.60269865
0.001811923
-0.60456466
0.001866014
-0.60649525
0.0019305807
-0.60849985
0.0020046008
-0.61058614
0.002086293
-0.61275931
0.0021731693
-0.61502136
0.002262048
-0.61737041
0.002349049
-0.61980003
0.002429627
-0.62229871
0.0024986738
-0.62484941
0.0025507066
-0.62742956
0.0025801429
-0.63001122
0.0025816608
-0.63256171
0.0025504968
-0.63504446
0.0024827461
-0.63741996
0.0023754961
-0.63964678
0.0022268244
-0.64168251
0.0020357312
-0.64348457
0.0018020552
-0.64501103
0.0015264613
-0.64622159
0.0012105638
-0.64707883
0.00085723787
-0.64754996
0.00047113054
-0.647609
5.9043417e-05
-0.64723845
-0.00037055328
-0.64643321
-0.00080524229
-0.64520469
-0.0012285225
-0.64358177
-0.0016229124
-0.64161058
-0.0019711956
-0.63935226
-0.002258316
-0.63687898
-0.00247328
-0.63426861
-0.0026103682
-0.63159924
-0.0026693762
-0.62894428
-0.0026549543
-0.62636893
-0.0025753582
-0.62392795
-0.0024409767
-0.621665
-0.0022629512
-0.61961292
-0.0020520747
-0.61779489
-0.0018180363
-0.6162259
-0.0015689872
-0.61491445
-0.0013114501
-0.61386366
-0.0010507902
-0.61307178
-0.0007918814
-0.61253517
-0.00053660566
-0.61225899
-0.00027618025
-1.4042617e-05
-0.61118
0.0031256753
-0.61263263
0.0031849766
-0.61411275
0.0032477482
-0.61563367
0.0033328425
-0.61720787
0.0034402111
-0.61884659
0.0035693013
-0.62055973
0.0037177423
-0.62235532
0.0038818771
-0.62423887
0.0040567196
-0.62621272
0.0042359063
-0.62827534
0.0044116618
-0.63042056
0.0045748521
-0.63263707
0.0047151796
-0.63490792
0.0048215601
-0.63721046
0.0048826832
-0.63951656
0.0048877535
-0.64179318
0.0048271196
-0.64400333
0.0046928939
-0.64610705
0.0044792242
-0.64806251
0.0041822758
-0.64982684
0.0038000676
-0.65135706
0.0033322701
-0.65261075
0.0027801583
-0.65354704
0.0021468507
-0.65412773
0.001437925
-0.65431901
0.00066241765
-0.65409398
-0.00016598918
-0.65343661
-0.0010279286
-0.65234366
-0.0018981874
-0.65082606
-0.0027461201
-0.64891189
-0.0035370909
-0.64664692
-0.0042361587
-0.64409267
-0.0048125644
-0.64132212
-0.0052438318
-0.63841416
-0.0055183283
-0.6354478
-0.0056357446
-0.63249707
-0.0056056806
-0.62962741
-0.0054450211
-0.6268935
-0.0051748864
-0.62433864
-0.0048178031
-0.62199524
-0.0043954757
-0.619886
-0.003927278
-0.61802557
-0.0034294234
-0.61642219
-0.0029148245
-0.61507924
-0.0023937394
-0.61399701
-0.0018741113
-0.61317506
-0.0013585586
-0.61260512
-0.0008461196
-0.00037436376
-0.61222285
0.0045346945
-0.61363049
0.0045926163
-0.6150633
0.0046805595
-0.61653626
0.0048058028
-0.6180627
0.0049666481
-0.61965445
0.0051610567
-0.62132191
0.0053851979
-0.62307359
0.0056335535
-0.62491556
0.0058986991
-0.62685081
0.0061711503
-0.62887841
0.0064392674
-0.63099287
0.0066893041
-0.63318337
0.0069056783
-0.63543334
0.0070715338
-0.63772026
0.0071696039
-0.64001588
0.0071833778
-0.64228688
0.0070981176
-0.64449583
0.0069018397
-0.64660234
0.0065857318
-0.64856414
0.0061440845
-0.65033804
0.0055739663
-0.65188061
0.0048748375
-0.65314886
0.0040484125
-0.654101
0.0030989905
-0.65469747
0.0020343912
-0.65490259
0.00086753331
-0.65468699
-0.0003815884
-0.65403045
-0.0016844615
-0.65292544
-0.0030031987
-0.65138086
-0.0042907069
-0.64942461
-0.0054933339
-0.64710423
-0.0065565396
-0.64448465
-0.0074321476
-0.6416434
-0.0080850797
-0.63866422
-0.0084975115
-0.63563042
-0.0086695482
-0.6326193
-0.0086168002
-0.62969825
-0.0083660626
-0.62692273
-0.0079504108
-0.62433579
-0.0074047476
-0.62196889
-0.0067623715
-0.61984345
-0.006052722
-0.61797265
-0.0053002201
-0.61636336
-0.0045241166
-0.615018
-0.0037390992
-0.61393677
-0.0029553437
-0.61311799
-0.0021773337
-0.61255317
-0.0014109421
-0.00068258208
-0.61257802
0.0059143737
-0.61396532
0.005979914
-0.61537842
0.0060936648
-0.61683231
0.0062596877
-0.61834077
0.0064751082
-0.61991635
0.0067366359
-0.6215702
0.0070390487
-0.62331169
0.0073750407
-0.62514781
0.0077348187
-0.62708247
0.0081058151
-0.6291157
0.0084724996
-0.63124279
0.0088163924
-0.6334535
0.009116385
-0.63573145
0.0093494817
-0.63805384
0.0094919995
-0.6403917
0.009521237
-0.64271057
0.0094169822
-0.64497166
0.0091629383
-0.64713323
0.0087473022
-0.64915174
0.0081625868
-0.6509828
0.0074050295
-0.65258187
0.0064739033
-0.65390465
0.0053711973
-0.65490765
0.0041019891
-0.65554897
0.0026757169
-0.65578987
0.0011084251
-0.65559713
-0.00057432914
-0.65494647
-0.0023351165
-0.65382664
-0.0041230263
-0.65224399
-0.0058733578
-0.65022613
-0.0075111919
-0.64782321
-0.0089594613
-0.64510558
-0.010149783
-0.642158
-0.011032655
-0.63907188
-0.011583639
-0.63593729
-0.011804139
-0.63283657
-0.01171752
-0.62984008
-0.011362548
-0.62700431
-0.010786181
-0.62437183
-0.010037226
-0.6219726
-0.0091616029
-0.61982595
-0.0081993765
-0.61794281
-0.0071833554
-0.61632794
-0.006138987
-0.61498206
-0.0050849817
-0.61390377
-0.0040336339
-0.61308953
-0.0029915726
-0.61253396
-0.0019665164
-0.0009715878
-0.61300061
0.0072669884
-0.61436466
0.0073439608
-0.61575547
0.0074844741
-0.6171882
0.0076924207
-0.61867715
0.0079640503
-0.62023562
0.008295111
-0.62187573
0.008679156
-0.62360792
0.0091072364
-0.62544041
0.0095673093
-0.62737839
0.010043792
-0.62942313
0.01051724
-0.63157102
0.010964283
-0.6338126
0.011357961
-0.63613174
0.011668626
-0.63850526
0.011865522
-0.6409031
0.011919072
-0.64328916
0.011803039
-0.64562274
0.011496524
-0.64786018
0.010984739
-0.64995622
0.010258631
-0.65186504
0.0093138492
-0.65354072
0.0081495844
-0.65493745
0.0067679217
-0.65600964
0.0051741821
-0.65671247
0.0033785418
-0.6570031
0.0013990546
-0.65684316
-0.00073426017
-0.65620261
-0.0029756657
-0.65506459
-0.005261049
-0.65343141
-0.0075065377
-0.65132988
-0.0096127206
-0.64881369
-0.011475657
-0.64596092
-0.013002555
-0.64286679
-0.014126777
-0.63963371
-0.014816719
-0.63636135
-0.015076502
-0.63313897
-0.014939896
-0.63004085
-0.014460669
-0.62712462
-0.013702415
-0.62443189
-0.012729956
-0.62199029
-0.011603201
-0.61981614
-0.010373528
-0.61791722
-0.0090822815
-0.61629536
-0.0077608415
-0.61494886
-0.0064314807
-0.61387416
-0.0051083378
-0.61306637
-0.0037993655
-0.61252158
-0.0025113023
-0.0012483672
-0.61353549
0.0085873499
-0.61486985
0.008678315
-0.61623231
0.0088469395
-0.61763821
0.0090983195
-0.6191024
0.0094282405
-0.6206391
0.0098318117
-0.62226155
0.010301606
-0.62398156
0.01082725
-0.62580889
0.01139464
-0.6277504
0.011985298
-0.62980903
0.012575869
-0.63198267
0.013137921
-0.63426294
0.013638236
-0.63663416
0.014039844
-0.63907266
0.01430402
-0.64154694
0.014393353
-0.6440187
0.014274799
-0.64644466
0.013922478
-0.6487786
0.013318681
-0.65097312
0.012453159
-0.65298068
0.011321408
-0.65475386
0.0099227611
-0.65624516
0.0082592197
-0.65740663
0.0063356556
-0.65818986
0.0041617742
-0.65854686
0.0017560544
-0.65843249
-0.00084863837
-0.65780882
-0.0035993362
-0.65665104
-0.006418823
-0.65495539
-0.009202189
-0.65274694
-0.011821176
-0.65008384
-0.014138751
-0.64705483
-0.016031568
-0.64376967
-0.01741194
-0.64034593
-0.018240455
-0.63689626
-0.018526175
-0.63351897
-0.018317182
-0.6302931
-0.017686535
-0.62727729
-0.016718228
-0.62451138
-0.015495864
-0.62201954
-0.014095045
-0.61981382
-0.012579243
-0.61789767
-0.010998434
-0.61626895
-0.0093895581
-0.61492253
-0.0077779048
-0.61385199
-0.0061788817
-0.61305077
-0.0046005854
-0.6125146
-0.0030474683
-0.0015180185
-0.61418574
0.0098717066
-0.61548446
0.0099770318
-0.61681217
0.010174655
-0.61818491
0.010471057
-0.61961831
0.010861642
-0.62112765
0.011341154
-0.62272752
0.011901475
-0.62443138
0.012531105
-0.62625089
0.013214147
-0.62819501
0.013929422
-0.63026886
0.014649718
-0.63247231
0.015341376
-0.63479852
0.015964446
-0.63723247
0.016473787
-0.63974996
0.016821508
-0.64231764
0.016961036
-0.64489428
0.016851439
-0.64743315
0.016461346
-0.64988477
0.015770298
-0.6521991
0.014767491
-0.65432668
0.01344899
-0.65621863
0.011814708
-0.65782584
0.0098664382
-0.65909794
0.007607748
-0.65998243
0.0050462702
-0.6604251
0.0021987169
-0.66037215
-0.00090158046
-0.65977524
-0.004196251
-0.65859843
-0.0075956297
-0.65682886
-0.01097176
-0.6544882
-0.014161833
-0.65164002
-0.016986937
-0.64838735
-0.019284238
-0.64485987
-0.020939414
-0.64119576
-0.021904572
-0.63752473
-0.022197199
-0.63395655
-0.021885363
-0.63057571
-0.021067377
-0.62744133
-0.019852605
-0.62459029
-0.01834691
-0.62204177
-0.016643558
-0.61980213
-0.014818891
-0.61786913
-0.012931435
-0.61623556
-0.011023122
-0.61489196
-0.0091215037
-0.61382843
-0.0072424106
-0.61303605
-0.0053929661
-0.61250878
-0.0035747451
-0.0017818449
-0.61494579
0.011111618
-0.61620162
0.011232859
-0.6174878
0.011460832
-0.61882076
0.011804023
-0.62021699
0.012257874
-0.62169296
0.012817117
-0.62326479
0.01347331
-0.6249479
0.014214211
-0.62675625
0.015022502
-0.62870143
0.015874602
-0.63079129
0.016739576
-0.63302832
0.017578407
-0.63540777
0.018343893
-0.63791565
0.018981673
-0.64052726
0.019433114
-0.64320687
0.01964065
-0.64590937
0.019553938
-0.64858347
0.019135442
-0.65117547
0.018362298
-0.65363217
0.017224192
-0.65590212
0.015718943
-0.65793522
0.013847808
-0.65968114
0.011612358
-0.66108724
0.0090138499
-0.66209674
0.0060557704
-0.66264813
0.0027501047
-0.66267695
-0.00087276379
-0.66212122
-0.0047519832
-0.66092975
-0.0087870912
-0.65907622
-0.01282529
-0.65657607
-0.016661984
-0.653499
-0.020064007
-0.64996726
-0.022815978
-0.64613775
-0.024768927
-0.64217634
-0.025865984
-0.63823502
-0.026138513
-0.63443756
-0.025682826
-0.63087426
-0.024630676
-0.6276036
-0.023123267
-0.62465758
-0.021292929
-0.62204838
-0.019252754
-0.61977472
-0.017092556
-0.61782713
-0.014879019
-0.61619211
-0.01265815
-0.61485495
-0.010458664
-0.6138017
-0.0082956583
-0.61302052
-0.0061741443
-0.61250298
-0.0040922854
-0.0020400256
-0.61581676
0.012303687
-0.61702371
0.01243981
-0.61826146
0.012698575
-0.61954755
0.013090118
-0.62089952
0.01360984
-0.62233516
0.014252758
-0.62387238
0.015010527
-0.62552882
0.015870652
-0.62732122
0.016814901
-0.62926434
0.017817722
-0.63136948
0.018844723
-0.63364255
0.019851479
-0.63608166
0.020783003
-0.63867447
0.021574473
-0.6413958
0.022154452
-0.644207
0.022451847
-0.64705779
0.022404728
-0.64989082
0.021968476
-0.65264696
0.021118438
-0.65526925
0.019846476
-0.65770432
0.018154015
-0.65990143
0.016044918
-0.6618098
0.013520727
-0.66337518
0.010579234
-0.66453657
0.0072171575
-0.66522429
0.0034378229
-0.66536093
-0.00073612229
-0.66486699
-0.005245921
-0.66367052
-0.0099835611
-0.66172537
-0.014770443
-0.659036
-0.019351356
-0.65567857
-0.023421436
-0.65180116
-0.026693391
-0.6475981
-0.028971986
-0.64327266
-0.030191419
-0.63900563
-0.030405546
-0.6349375
-0.029750957
-0.63116414
-0.028404032
-0.62774135
-0.026546063
-0.6246935
-0.024340771
-0.62202304
-0.021923218
-0.61971869
-0.019396909
-0.61776192
-0.016835788
-0.61613154
-0.01428853
-0.61480671
-0.011783497
-0.61376878
-0.0093335849
-0.61300249
-0.0069404319
-0.61249673
-0.0045980518
-0.0022918019
-0.61679198
0.013435993
-0.61794133
0.01358916
-0.6191229
0.01388014
-0.62035447
0.014321694
-0.6216545
0.014909869
-0.62304219
0.015640442
-0.62453736
0.016505704
-0.62616024
0.017493526
-0.62793077
0.018585429
-0.62986757
0.019754522
-0.63198624
0.020963397
-0.63429709
0.022162327
-0.63680214
0.023288057
-0.63949155
0.024263877
-0.64233998
0.025002884
-0.64530505
0.025416916
-0.64832962
0.025429303
-0.65134817
0.02498702
-0.6542944
0.024064669
-0.65710687
0.022658949
-0.65973063
0.020777775
-0.66211529
0.018429582
-0.66421097
0.015616403
-0.66596306
0.012331328
-0.66730694
0.0085610393
-0.66816417
0.0042950528
-0.66844209
-0.00045820602
-0.66803891
-0.0056491041
-0.66685475
-0.011167717
-0.66481453
-0.016810662
-0.66190384
-0.022262049
-0.65820457
-0.027120704
-0.65389981
-0.030998156
-0.64923606
-0.033635734
-0.64446735
-0.034960129
-0.63981147
-0.035061421
-0.63542833
-0.034134099
-0.63141801
-0.032414354
-0.62783018
-0.03013389
-0.62467767
-0.027493281
-0.62194954
-0.024651351
-0.61962166
-0.021724786
-0.61766435
-0.018793104
-0.61604731
-0.015905566
-0.61474268
-0.013088129
-0.61372658
-0.010349678
-0.61297999
-0.0076870291
-0.61248896
-0.0050890791
-0.0025358111
-0.61787055
0.014507837
-0.6189568
0.014675413
-0.62007494
0.014998282
-0.6212442
0.015490953
-0.62248414
0.016149809
-0.62381545
0.016971749
-0.62526004
0.017950296
-0.62684097
0.019074453
-0.6285819
0.020326364
-0.63050605
0.021678674
-0.63263433
0.023091672
-0.63498267
0.024510668
-0.63755844
0.025863828
-0.64035559
0.027061026
-0.64334921
0.027996502
-0.64649235
0.028560055
-0.64971865
0.028655606
-0.6529514
0.028219768
-0.65611483
0.027228102
-0.65914219
0.025686309
-0.6619776
0.023613187
-0.66457271
0.021024693
-0.66688061
0.017924296
-0.66884841
0.014299129
-0.67040925
0.01012188
-0.6714757
0.0053615065
-0.67193784
3.9373362e-06
-0.67166573
-0.005921219
-0.67052242
-0.01231103
-0.66839089
-0.018942187
-0.66522486
-0.025428079
-0.661109
-0.031236564
-0.65627437
-0.035832785
-0.65104154
-0.038868566
-0.64573403
-0.040267635
-0.64061706
-0.040178396
-0.63587198
-0.038879177
-0.63159988
-0.036686451
-0.62783889
-0.033894885
-0.62458465
-0.030747521
-0.62180818
-0.027427824
-0.61946903
-0.02406393
-0.61752402
-0.020738114
-0.61593235
-0.01749724
-0.6146583
-0.014362184
-0.61367237
-0.011335608
-0.61295156
-0.0084078348
-0.61247916
-0.0055614751
-0.0027701756
-0.6190493
0.015502286
-0.62006162
0.015687728
-0.62110729
0.016043952
-0.62220518
0.016588842
-0.62337559
0.017320219
-0.6246406
0.018236761
-0.62602429
0.019333988
-0.62755282
0.020602981
-0.62925409
0.022027632
-0.63115674
0.02358133
-0.63328821
0.025223138
-0.63567166
0.026894114
-0.63832169
0.028513866
-0.64123806
0.02997739
-0.64439742
0.031155865
-0.64774737
0.031910007
-0.65120901
0.032117243
-0.65469001
0.031700765
-0.65810167
0.030639761
-0.66137077
0.028955415
-0.66444164
0.026684056
-0.66727037
0.023853423
-0.669816
0.020469931
-0.67203053
0.016513656
-0.67384743
0.011938779
-0.67517084
0.0066849212
-0.67587007
0.00070316029
-0.67578245
-0.0060088395
-0.67472432
-0.013369155
-0.67251711
-0.021149396
-0.6690612
-0.028883993
-0.66443628
-0.035861485
-0.65894003
-0.041329037
-0.6530006
-0.044807996
-0.6470377
-0.046230528
-0.64137685
-0.04583925
-0.6362213
-0.044034725
-0.63166683
-0.041240927
-0.62773156
-0.037830149
-0.62438626
-0.03409282
-0.62157795
-0.030236139
-0.61924583
-0.026396051
-0.61733075
-0.022653194
-0.61578005
-0.019047935
-0.61454958
-0.015592662
-0.61360399
-0.012281192
-0.61291637
-0.009095461
-0.61246735
-0.0060104908
-0.0029925748
-0.62031773
0.0164231
-0.62125171
0.016621706
-0.62221759
0.017009834
-0.62323582
0.017607078
-0.62432765
0.018412046
-0.62551651
0.019425621
-0.62682866
0.020646133
-0.62829353
0.022067852
-0.62994372
0.023677826
-0.6318142
0.025451805
-0.63394026
0.027349204
-0.6363542
0.029308047
-0.6390803
0.031239969
-0.64212694
0.033024035
-0.64547444
0.034503361
-0.64906403
0.035499595
-0.65279952
0.035852734
-0.65656638
0.035467628
-0.66025794
0.03433132
-0.66379322
0.032490693
-0.6671189
0.030009739
-0.67019946
0.026933984
-0.67300434
0.023274807
-0.67549508
0.0190044
-0.6776098
0.014053496
-0.67924633
0.0083214519
-0.6802521
0.0017089298
-0.68042459
-0.0058363448
-0.67951936
-0.014274388
-0.67727175
-0.023397005
-0.6734943
-0.032661442
-0.66824423
-0.041111553
-0.66191271
-0.047660565
-0.65508882
-0.051631885
-0.64832677
-0.052992579
-0.64202782
-0.052138194
-0.63641396
-0.049648591
-0.63156421
-0.046090676
-0.62746405
-0.041930308
-0.62404886
-0.03750801
-0.62123434
-0.033050659
-0.61893484
-0.02869555
-0.61707282
-0.02451521
-0.61558271
-0.020538049
-0.61441159
-0.016763779
-0.61351843
-0.013174353
-0.61287262
-0.0097412648
-0.61245253
-0.0064305901
-0.0032003001
-0.62167957
0.017247284
-0.62252203
0.017464165
-0.62339772
0.017885532
-0.62432572
0.01853507
-0.6253274
0.019413732
-0.62642723
0.020525454
-0.62765348
0.021872381
-0.62903894
0.023453311
-0.63062131
0.025260193
-0.63244279
0.027273288
-0.63454821
0.029454623
-0.63698132
0.031741155
-0.63977939
0.034038035
-0.64296373
0.036208378
-0.6465222
0.038061834
-0.65038953
0.039366925
-0.65444577
0.039908976
-0.65854441
0.039566265
-0.6625533
0.038340215
-0.666382
0.036319392
-0.66998298
0.033610714
-0.6733344
0.030285409
-0.67642145
0.026361854
-0.67922101
0.021803965
-0.68168201
0.016514489
-0.68370003
0.010339475
-0.68509979
0.0031086854
-0.68563264
-0.0053034918
-0.6849801
-0.014926922
-0.6827588
-0.02561831
-0.67863812
-0.036782118
-0.67261524
-0.047134436
-0.66521298
-0.055062829
-0.65726992
-0.059574946
-0.64952988
-0.060732612
-0.64248725
-0.059180822
-0.63637207
-0.055763771
-0.63122709
-0.05123566
-0.62698645
-0.046170947
-0.62353637
-0.040958097
-0.62075253
-0.035834495
-0.61851974
-0.030928343
-0.61673998
-0.026294961
-0.61533422
-0.021943813
-0.61424102
-0.017856981
-0.61341415
-0.014001223
-0.61281994
-0.010335472
-0.61243497
-0.0068155619
-0.0033903194
-0.62310189
0.017983894
-0.62384977
0.01821204
-0.624628
0.018663766
-0.62545706
0.019364129
-0.62635869
0.02031536
-0.62735815
0.021524918
-0.62848555
0.022999781
-0.629777
0.024744763
-0.63127561
0.026758796
-0.63303172
0.029029398
-0.63510145
0.031524357
-0.63754278
0.03418248
-0.64040987
0.036905126
-0.64374286
0.039541369
-0.64754357
0.041862544
-0.65174101
0.043564371
-0.65618172
0.044349678
-0.66067135
0.044055896
-0.66504016
0.042709031
-0.66918561
0.040464838
-0.67307178
0.037496889
-0.67669903
0.033912657
-0.68007603
0.029738848
-0.68320369
0.024931628
-0.68605245
0.019363248
-0.6885243
0.012811328
-0.69042269
0.0050070804
-0.69144677
-0.0042794201
-0.69119042
-0.015183273
-0.68911185
-0.027696871
-0.6846506
-0.041243369
-0.67766576
-0.054119278
-0.66886317
-0.063865422
-0.65948503
-0.068953086
-0.65054347
-0.069674165
-0.64264261
-0.067081685
-0.63599549
-0.062410896
-0.63057617
-0.056654976
-0.62624074
-0.050506377
-0.62280869
-0.044390144
-0.62010604
-0.038537153
-0.61798364
-0.033050734
-0.61632181
-0.027956792
-0.61502832
-0.023237302
-0.61403418
-0.018851123
-0.61328904
-0.014746369
-0.61275712
-0.01086739
-0.612414
-0.007158684
-0.0035593657
-0.62461928
0.018604031
-0.62525806
0.018850818
-0.62592837
0.01933407
-0.62664772
0.020083488
-0.62743691
0.021104548
-0.62832122
0.022409223
-0.62933195
0.024010515
-0.6305081
0.02592091
-0.63189801
0.028148712
-0.63356077
0.03069215
-0.63556553
0.033529123
-0.63798763
0.036604581
-0.64090291
0.039820399
-0.64437844
0.043016901
-0.64844129
0.045925391
-0.65301941
0.048142498
-0.65791297
0.049243232
-0.66285629
0.048999215
-0.66762478
0.047477522
-0.67210202
0.04494208
-0.67627531
0.04167018
-0.6801807
0.037818045
-0.68385933
0.033417481
-0.68734446
0.028416758
-0.69064034
0.022659126
-0.69366629
0.015837282
-0.69620618
0.0075469746
-0.69790065
-0.0025849573
-0.69824548
-0.01483844
-0.69650356
-0.029438791
-0.69175707
-0.045989859
-0.68356988
-0.062306468
-0.67288862
-0.074546679
-0.66164171
-0.080200001
-0.65121899
-0.08009688
-0.64234349
-0.075957191
-0.6351589
-0.069595481
-0.62951858
-0.062295297
-0.6251634
-0.054861552
-0.62182499
-0.047728556
-0.61926989
-0.041092252
-0.61731201
-0.035008622
-0.6158102
-0.029458595
-0.61466073
-0.024386774
-0.61378894
-0.019722913
-0.61314211
-0.015393204
-0.61268375
-0.011325742
-0.61238949
-0.0074529511
-0.0037040522
-0.62614163
0.019121633
-0.62666918
0.019378365
-0.62722378
0.019888672
-0.62782351
0.020683221
-0.62848823
0.021769262
-0.62924278
0.023163782
-0.63011922
0.024886954
-0.63115904
0.026960722
-0.63241577
0.029405442
-0.63395785
0.032234235
-0.63586972
0.035440997
-0.63824813
0.038982988
-0.64119638
0.042768645
-0.64481906
0.046639579
-0.64918681
0.050293148
-0.65423817
0.053193856
-0.65970797
0.054713031
-0.6652191
0.054510346
-0.67046204
0.052720459
-0.67530088
0.049780924
-0.67976247
0.046131771
-0.68393643
0.041992003
-0.68790432
0.037385371
-0.69173913
0.032251569
-0.69549947
0.026419473
-0.69914775
0.019485554
-0.70246294
0.010862173
-0.70503079
-1.7106125e-05
-0.70624403
-0.0136252
-0.70514739
-0.030535433
-0.70028011
-0.050857139
-0.69059798
-0.071988597
-0.67731456
-0.087830101
-0.66359183
-0.093922733
-0.65134068
-0.092348026
-0.6413886
-0.085909276
-0.63370735
-0.077276732
-0.62794833
-0.068054312
-0.62368795
-0.05912193
-0.62054649
-0.050870022
-0.61822306
-0.043415676
-0.61649434
-0.036737342
-0.61520056
-0.030752383
-0.61422987
-0.02535746
-0.61350512
-0.020447659
-0.61297372
-0.015924607
-0.61260034
-0.011699118
-0.61236192
-0.0076913752
-0.0038210213
-0.62776223
0.019502391
-0.6281641
0.019780233
-0.62859416
0.020318736
-0.62906547
0.021154524
-0.62959518
0.022298975
-0.63020655
0.023775157
-0.63093116
0.025611564
-0.63181171
0.027841265
-0.63290554
0.030499277
-0.63428946
0.033618149
-0.63606377
0.037215311
-0.63834996
0.041269181
-0.64128398
0.045702664
-0.64501887
0.050374468
-0.64969658
0.054970857
-0.65529314
0.05879041
-0.66145363
0.060873527
-0.66762484
0.060681551
-0.67336863
0.058464254
-0.67852675
0.054939045
-0.68320223
0.050807246
-0.68757598
0.046365755
-0.69178592
0.04159531
-0.69595339
0.036419039
-0.70022246
0.030688544
-0.70463533
0.02389843
-0.70897905
0.015205892
-0.71274552
0.0037493629
-0.71522421
-0.011146516
-0.71526994
-0.030489701
-0.71066116
-0.055465914
-0.69917264
-0.083477121
-0.68214828
-0.10485446
-0.66509065
-0.11098037
-0.65059061
-0.10684806
-0.63950815
-0.096991739
-0.63145156
-0.085333323
-0.62574801
-0.073757866
-0.62174838
-0.063121551
-0.61893953
-0.053678877
-0.6169504
-0.045404806
-0.61552516
-0.038162582
-0.61449184
-0.031785702
-0.61373637
-0.026112928
-0.61318364
-0.021000392
-0.61278448
-0.016323764
-0.61250703
-0.011976569
-0.61233105
-0.0078673535
-0.0039071234
-0.62920988
0.019758765
-0.62948293
0.020053285
-0.62977899
0.020614788
-0.63010903
0.021484567
-0.63048691
0.022676856
-0.63093305
0.0242213
-0.63147711
0.026155624
-0.63216149
0.028525638
-0.63304595
0.031383734
-0.63421472
0.034786918
-0.63578537
0.03878597
-0.63791025
0.043394053
-0.64076682
0.048559232
-0.64456994
0.054177594
-0.64957577
0.059976689
-0.6558592
0.065073839
-0.66294838
0.067962702
-0.66999954
0.067732711
-0.67637473
0.064839442
-0.68188264
0.060446962
-0.68676079
0.055685395
-0.69133367
0.050938633
-0.69579796
0.046059603
-0.70029616
0.040917234
-0.7050794
0.035471783
-0.71031311
0.029132145
-0.71582642
0.020719203
-0.72102259
0.0089455376
-0.72511371
-0.0070553983
-0.72694219
-0.028661223
-0.72336719
-0.059040912
-0.70991935
-0.096924966
-0.68733567
-0.12743813
-0.66573364
-0.13258239
-0.64850115
-0.12408056
-0.63634602
-0.10914686
-0.62816969
-0.093509659
-0.62279775
-0.079129807
-0.6192888
-0.066630501
-0.61698341
-0.055984265
-0.61544833
-0.046939881
-0.61440793
-0.039202982
-0.61368946
-0.032504174
-0.61318524
-0.026617145
-0.61282825
-0.02135739
-0.61257678
-0.01657523
-0.61240504
-0.012148307
-0.6122973
-0.0079750973
-0.0039596216
-0.63036059
0.019852366
-0.63048451
0.020177201
-0.63062951
0.020759789
-0.6308
0.021655057
-0.63100506
0.022881915
-0.63126129
0.024477532
-0.6315952
0.026489534
-0.63204721
0.028977649
-0.6326772
0.032013727
-0.63357351
0.035683229
-0.63486788
0.040080334
-0.63674525
0.045271422
-0.63942981
0.051243793
-0.64320012
0.057947908
-0.64847012
0.065246684
-0.65553056
0.072134276
-0.66377137
0.07620352
-0.67184493
0.07580627
-0.67881507
0.071809579
-0.68444224
0.066074131
-0.68921285
0.060456008
-0.69368915
0.055414936
-0.69813927
0.050509721
-0.70267516
0.045453122
-0.70773296
0.040529587
-0.71373576
0.035134945
-0.72066012
0.027643565
-0.72789804
0.016183455
-0.73444607
-0.0005073712
-0.7393653
-0.023741984
-0.73848518
-0.059921036
-0.72363339
-0.11177676
-0.69259487
-0.15847665
-0.66477952
-0.16039774
-0.64436091
-0.14449917
-0.6314349
-0.12207287
-0.62361509
-0.10132947
-0.61899049
-0.083754402
-0.61627641
-0.069344578
-0.61467911
-0.057581572
-0.61373006
-0.047888924
-0.61315796
-0.03977509
-0.61280671
-0.032855422
-0.61258657
-0.026837285
-0.61244587
-0.021498085
-0.61235492
-0.016666183
-0.61229673
-0.012206491
-0.61226174
-0.0080100932
-0.0039764086
-0.62994739
0.019747799
-0.62989222
0.020122035
-0.62985442
0.020721991
-0.62982978
0.021630408
-0.6298204
0.022872544
-0.62983631
0.024493436
-0.62989685
0.026550078
-0.63003508
0.029115876
-0.6303041
0.032282744
-0.63078756
0.036166688
-0.63162164
0.040914417
-0.63302263
0.04667241
-0.63527534
0.053496506
-0.63872746
0.061400029
-0.64399752
0.070516738
-0.65184078
0.079977542
-0.6615773
0.08594004
-0.67093265
0.085161615
-0.67855177
0.0794287
-0.68408188
0.071604248
-0.68846836
0.064842481
-0.69267139
0.059617967
-0.69708244
0.054920778
-0.70163095
0.050001631
-0.70700381
0.045902448
-0.71403182
0.042162953
-0.72278062
0.036392364
-0.73281076
0.026213594
-0.74209281
0.0087746882
-0.75071041
-0.015124393
-0.75438826
-0.056243182
-0.74063023
-0.12553478
-0.69654135
-0.20256553
-0.66063974
-0.19629935
-0.63709193
-0.16804698
-0.62419307
-0.13497174
-0.61754504
-0.10797749
-0.61425944
-0.087040008
-0.61271969
-0.070884326
-0.61205902
-0.058242242
-0.61182982
-0.048118122
-0.61180357
-0.039801344
-0.61186447
-0.032794516
-0.61195453
-0.026747234
-0.61204536
-0.021407253
-0.61212378
-0.016587762
-0.61218423
-0.012146041
-0.61222476
-0.0079695609
-0.003956219
-0.6260598
0.019415494
-0.62576924
0.019831481
-0.62547385
0.020426601
-0.62516723
0.021323781
-0.6248442
0.022549516
-0.62450615
0.024155389
-0.62416208
0.026206012
-0.62383352
0.028787314
-0.62356226
0.032011483
-0.623422
0.036026429
-0.62354524
0.041037652
-0.6241762
0.047303374
-0.62568257
0.055002869
-0.62848184
0.064199305
-0.63335563
0.075390526
-0.64189417
0.088516077
-0.6536507
0.097696573
-0.66440173
0.095912649
-0.6723216
0.087348569
-0.67679211
0.076074755
-0.67973713
0.067787502
-0.68277133
0.062652165
-0.68651862
0.05866807
-0.69023325
0.053716268
-0.69474896
0.050418157
-0.7018277
0.049241686
-0.7113737
0.045938369
-0.72431924
0.039159137
-0.73577329
0.020228738
-0.75005155
-0.00084613618
-0.76262542
-0.04366931
-0.75933085
-0.12882935
-0.69471556
-0.26718082
-0.65081478
-0.24020013
-0.62535404
-0.19350773
-0.61399517
-0.1463306
-0.60978536
-0.1121873
-0.60862567
-0.088199703
-0.60869576
-0.07081423
-0.60920066
-0.057737345
-0.60980922
-0.047509557
-0.61038914
-0.039221422
-0.61089292
-0.032290741
-0.61130864
-0.026331513
-0.61163862
-0.021077272
-0.61189001
-0.01633637
-0.61207069
-0.011965368
-0.61218739
-0.0078528549
-0.0038988114
-0.61264768
0.018601503
-0.61191974
0.01910354
-0.6111751
0.019681963
-0.61038702
0.0205357
-0.60953788
0.021700376
-0.6086157
0.023233205
-0.60761233
0.025202644
-0.60652739
0.027702377
-0.60537574
0.030859828
-0.60419735
0.034848041
-0.60307973
0.039920032
-0.60223093
0.04645457
-0.60206291
0.054834855
-0.60305111
0.065187501
-0.60593146
0.078270881
-0.61358598
0.096170596
-0.62720536
0.11131595
-0.63822371
0.106931
-0.64500416
0.094129024
-0.646174
0.077244591
-0.64567108
0.067284585
-0.64573988
0.062720967
-0.64753314
0.060461331
-0.64863983
0.054822962
-0.64983242
0.051610744
-0.65642538
0.055834649
-0.66631542
0.055828411
-0.68407595
0.056919666
-0.69908589
0.035238683
-0.72803659
0.028104566
-0.75043237
-0.021273531
-0.77340192
-0.1058598
-0.67727962
-0.36330312
-0.63083302
-0.28664673
-0.60625843
-0.21808232
-0.59994219
-0.15264684
-0.60028048
-0.11184901
-0.60225921
-0.086220971
-0.60438092
-0.068692515
-0.60623749
-0.055880778
-0.60775966
-0.045987388
-0.60897468
-0.0380064
-0.60993046
-0.031334964
-0.61067288
-0.02558909
-0.61124005
-0.020510106
-0.6116617
-0.015914717
-0.61196013
-0.011666935
-0.61215124
-0.0076617531
-0.0038050965
-0.58470201
0.017374759
-0.58344581
0.01784734
-0.58208994
0.018326086
-0.58063005
0.019075811
-0.57903993
0.02011026
-0.57728883
0.021482103
-0.57534045
0.023254267
-0.57315556
0.025517482
-0.57069746
0.028401734
-0.56794039
0.032090965
-0.56488512
0.036864771
-0.56164058
0.043210026
-0.55864798
0.051842253
-0.55667771
0.063217232
-0.55634255
0.077935724
-0.56169353
0.10152158
-0.58033782
0.12996024
-0.59228681
0.11887998
-0.598478
0.10032022
-0.59427174
0.073038339
-0.58805629
0.061069133
-0.58279904
0.057463712
-0.58217215
0.059834449
-0.5801186
0.052769413
-0.57454848
0.046040622
-0.5857046
0.032626309
-0.59607834
0.037599597
-0.60503574
0.040429835
-0.60366048
0.02050619
-0.63539645
0.039912464
-0.71447229
0.01979328
-0.66929243
-0.054715795
-0.60693304
-0.22726018
-0.57381597
-0.31976379
-0.57151547
-0.22038281
-0.58114277
-0.14301954
-0.58945709
-0.10353469
-0.59562242
-0.080055646
-0.60008956
-0.064225368
-0.60336327
-0.052607069
-0.6057981
-0.043552559
-0.60763077
-0.036173726
-0.60901964
-0.029946096
-0.61007253
-0.024536205
-0.61086407
-0.019718566
-0.61144639
-0.015332393
-0.61185581
-0.011257512
-0.61211699
-0.0074005731
-0.0036771847
-0.52689803
0.015007097
-0.52444731
0.015396621
-0.52184249
0.015721266
-0.51904017
0.016273492
-0.51598588
0.017055966
-0.51261218
0.018108403
-0.50883427
0.019476358
-0.5045484
0.021231616
-0.49963231
0.023485646
-0.49395076
0.026409407
-0.48736438
0.030278391
-0.47977352
0.035619174
-0.47137598
0.043444707
-0.46313993
0.054981183
-0.45544883
0.070244625
-0.44890481
0.094977556
-0.47166323
0.15271866
-0.47098906
0.11820582
-0.46177016
0.091101312
-0.42963237
0.040900554
-0.39768543
0.029122189
-0.37024758
0.030025871
-0.30566965
0.021363038
-0.16492853
0.013517155
-0.042269914
0.0079379866
0
0
0
0
0
0
0
0
0
0
0
0
0
0