/*--------------------------------*- C++ -*----------------------------------*\
| =========                 |                                                 |
| \\      /  F ield         | foam-extend: Open Source CFD                    |
|  \\    /   O peration     | Version:     4.1                                |
|   \\  /    A nd           | Web:         http://www.foam-extend.org         |
|    \\/     M anipulation  |                                                 |
\*---------------------------------------------------------------------------*/
FoamFile
{
    version     2.0;
    format      ascii;
    class       volScalarField;
    location    "1.3";
    object      rAU;
}
// * * * * * * * * * * * * * * * * * * * * * * * * * * * * * * * * * * * * * //

dimensions      [0 0 1 0 0 0 0];

internalField   nonuniform List<scalar> 
4393
(
0.00022765344
0.00022728104
0.00022691633
0.0002265437
0.00022616102
0.00022576687
0.00022535886
0.00022493579
0.00022449679
0.00022404165
0.00022357096
0.00022308621
0.00022258986
0.00022208545
0.00022157734
0.00022107165
0.00022057418
0.00022009193
0.00021963254
0.00021920364
0.000218813
0.00021846835
0.00021817725
0.00021794693
0.0002177841
0.00021769473
0.00021768352
0.00021768352
0.00021775377
0.00021790662
0.00021814025
0.00021844967
0.00021882666
0.00021926019
0.00021973695
0.0002202424
0.00022076169
0.00022128061
0.00022178631
0.00022226776
0.00022271597
0.00022312397
0.00022348669
0.00022380068
0.0002240638
0.00022427507
0.00022443454
0.00022454273
0.000224585
0.00022452202
0.00022420285
0.00022389854
0.00022358509
0.00022325974
0.00022292083
0.00022256613
0.00022219477
0.00022180631
0.0002214011
0.0002209804
0.00022054647
0.00022010267
0.00021965344
0.00021920408
0.00021876162
0.00021833265
0.00021792479
0.00021754615
0.00021720461
0.00021690807
0.00021666429
0.00021648074
0.00021636447
0.00021632186
0.00021635835
0.00021644664
0.00021641938
0.0002164611
0.0002165867
0.0002167977
0.00021709257
0.00021746616
0.00021790969
0.00021841116
0.00021895629
0.00021952957
0.00022011545
0.00022069936
0.00022126832
0.00022181144
0.00022231999
0.00022278735
0.00022320876
0.00022358097
0.00022390181
0.00022417042
0.00022438826
0.00022454256
0.00022401864
0.00022371117
0.00022341215
0.00022310149
0.00022277645
0.00022243554
0.00022207672
0.00022169941
0.00022130359
0.00022089013
0.00022046092
0.000220019
0.00021956858
0.0002191151
0.00021866487
0.0002182259
0.00021780568
0.00021741258
0.00021705523
0.00021674189
0.00021648064
0.0002162793
0.00021614534
0.00021608574
0.00021610671
0.00021621334
0.0002163063
0.00021618536
0.00021614538
0.00021619343
0.00021633443
0.00021657009
0.00021689784
0.00021731052
0.00021779657
0.00021834108
0.00021892706
0.00021953701
0.00022015412
0.0002207633
0.00022135168
0.00022190887
0.00022242695
0.00022290014
0.00022332446
0.00022369724
0.0002240174
0.00022428502
0.0002244804
0.000223665
0.00022336284
0.00022306366
0.00022274979
0.00022241875
0.00022206924
0.00022169939
0.00022130886
0.00022089795
0.00022046799
0.00022002145
0.00021956209
0.00021909506
0.00021862681
0.00021816479
0.00021771816
0.00021729551
0.0002169061
0.00021655929
0.00021626383
0.00021602813
0.00021586021
0.00021576769
0.00021575768
0.00021583649
0.00021600921
0.00021610005
0.00021589281
0.00021576827
0.00021573702
0.00021580779
0.00021598581
0.00021627123
0.00021665831
0.00021713548
0.0002176866
0.00021829261
0.00021893348
0.00021958982
0.00022024416
0.0002208816
0.00022149016
0.00022206069
0.0002225866
0.00022306336
0.00022348815
0.00022385973
0.00022417711
0.00022442214
0.00022330483
0.00022300676
0.00022270784
0.00022239109
0.0002220542
0.000221696
0.00022131476
0.00022091029
0.00022048316
0.00022003508
0.00021956906
0.00021908958
0.00021860267
0.00021811588
0.00021763791
0.0002171792
0.00021674957
0.00021635935
0.0002160187
0.0002157369
0.00021552272
0.0002153844
0.0002153298
0.00021536631
0.00021550058
0.00021573804
0.00021583767
0.00021553967
0.00021532658
0.00021521302
0.00021521213
0.00021533324
0.00021557947
0.00021594638
0.00021642191
0.00021698796
0.0002176226
0.0002183026
0.0002190055
0.00021971115
0.00022040254
0.00022106611
0.00022169167
0.00022227197
0.00022280218
0.00022327946
0.00022370249
0.00022407008
0.00022436638
0.00022292894
0.00022263549
0.00022233788
0.0002220192
0.00022167726
0.00022131092
0.00022091851
0.00022049995
0.00022005598
0.00021958861
0.00021910131
0.00021859923
0.00021808931
0.00021758025
0.00021708212
0.00021660684
0.00021616564
0.00021577009
0.00021543122
0.00021515888
0.00021496218
0.00021484962
0.00021482931
0.0002149091
0.00021509626
0.00021539699
0.00021552063
0.00021512603
0.00021481875
0.00021461806
0.00021454239
0.00021460602
0.00021481556
0.0002151678
0.0002156496
0.00021623993
0.00021691298
0.00021764144
0.00021839916
0.00021916297
0.00021991364
0.00022063614
0.00022131937
0.00022195571
0.00022254032
0.00022307056
0.00022354533
0.00022396385
0.00022431208
0.0002225378
0.00022224966
0.00022195439
0.00022163479
0.00022128865
0.00022091478
0.00022051149
0.0002200787
0.00021961723
0.00021912929
0.00021861873
0.0002180913
0.00021755485
0.00021701934
0.00021649634
0.0002159995
0.00021554175
0.00021513604
0.00021479441
0.00021452728
0.00021434403
0.00021425332
0.00021426358
0.00021438323
0.0002146205
0.00021498284
0.00021515099
0.00021465246
0.00021424347
0.00021394878
0.00021379328
0.00021379746
0.00021397229
0.0002143158
0.00021481293
0.0002154385
0.00021616147
0.00021694933
0.00021777147
0.00021860132
0.00021941732
0.00022020304
0.00022094676
0.00022164075
0.00022228045
0.0002228637
0.00022338994
0.00022385925
0.00022425898
0.00022213343
0.00022185195
0.0002215602
0.00022124071
0.00022089121
0.00022051041
0.00022009649
0.00021964926
0.00021916951
0.00021865953
0.00021812341
0.00021756747
0.00021700045
0.00021643361
0.00021588031
0.00021535621
0.00021487628
0.00021445513
0.0002141059
0.00021383954
0.00021366554
0.00021359262
0.00021362946
0.00021378515
0.00021406921
0.00021449097
0.00021473029
0.00021411886
0.00021359845
0.00021320032
0.00021295747
0.00021289848
0.00021303994
0.00021338123
0.00021390431
0.00021457808
0.00021536449
0.00021622445
0.00021712198
0.00021802666
0.00021891456
0.00021976807
0.00022057515
0.00022132833
0.00022202369
0.00022265986
0.00022323714
0.00022375666
0.00022420704
0.00022171751
0.00022144355
0.00022115641
0.0002208381
0.00022048618
0.00022009914
0.00021967493
0.00021921315
0.0002187144
0.00021818087
0.0002176168
0.00021702892
0.00021642683
0.00021582322
0.00021523348
0.00021467572
0.0002141674
0.00021372516
0.00021336335
0.00021309331
0.00021292442
0.00021286519
0.00021292437
0.00021311181
0.00021343865
0.00021391681
0.00021426146
0.0002135263
0.00021288218
0.00021236808
0.00021202722
0.00021189906
0.00021200784
0.00021235447
0.00021291634
0.00021365402
0.00021452009
0.00021546705
0.00021645248
0.00021744174
0.00021840857
0.00021933448
0.00022020757
0.00022102111
0.00022177222
0.00022246071
0.00022308807
0.00022365667
0.00022415641
0.00022129205
0.00022102749
0.00022074638
0.00022043045
0.00022007712
0.00021968463
0.00021925057
0.00021877418
0.00021825568
0.00021769701
0.00021710234
0.00021647867
0.0002158364
0.00021518972
0.00021455634
0.00021395745
0.00021341364
0.00021294407
0.00021256443
0.00021228623
0.00021211832
0.00021206857
0.00021214554
0.00021235977
0.00021272437
0.00021325464
0.00021374785
0.00021287615
0.00021209305
0.00021144651
0.0002109929
0.00021078652
0.00021086245
0.00021122349
0.00021184012
0.00021266109
0.00021362639
0.00021467784
0.00021576544
0.00021684997
0.00021790307
0.00021890591
0.00021984733
0.00022072192
0.00022152836
0.00022226804
0.00022294398
0.00022355999
0.00022410737
0.00022085968
0.00022060512
0.00022033114
0.00022001878
0.00021966516
0.00021926812
0.00021882481
0.00021833391
0.00021779511
0.0002172098
0.00021658186
0.00021591834
0.0002152303
0.00021453345
0.00021384828
0.00021319973
0.00021261252
0.00021210899
0.00021170632
0.00021141583
0.00021124517
0.00021120091
0.00021129092
0.00021152627
0.00021192234
0.0002124987
0.00021319367
0.00021217158
0.00021123068
0.00021043033
0.00020984367
0.0002095458
0.00020958762
0.00020997445
0.00021066617
0.00021159473
0.00021268308
0.00021385962
0.00021506549
0.00021625679
0.00021740357
0.00021848746
0.00021949886
0.00022043442
0.00022129498
0.000222084
0.00022280634
0.00022346749
0.00022406028
0.00022042134
0.00022017933
0.00021991425
0.00021960698
0.00021925446
0.0002188541
0.00021840247
0.00021789753
0.00021733814
0.0002167249
0.00021606105
0.00021535338
0.00021461333
0.00021385816
0.00021311147
0.00021240307
0.00021176309
0.0002112181
0.00021078699
0.00021048026
0.00021030337
0.00021026063
0.00021035855
0.00021060835
0.00021102783
0.00021164184
0.00021247987
0.00021141711
0.00021029587
0.00020931421
0.00020856671
0.00020815795
0.00020816285
0.00020859028
0.00020938369
0.00021045076
0.00021169143
0.00021301728
0.00021435943
0.00021566956
0.00021691715
0.00021808543
0.00021916748
0.00022016291
0.00022107544
0.00022191106
0.00022267686
0.0002233802
0.00022401562
0.00021998229
0.00021975292
0.00021949781
0.00021919698
0.00021884693
0.00021844454
0.00021798564
0.00021746727
0.00021688719
0.00021624485
0.00021554242
0.00021478601
0.00021398708
0.0002131642
0.00021234457
0.00021156421
0.00021086069
0.00021026634
0.000209802
0.00020947639
0.00020929122
0.00020924714
0.00020934823
0.00020960523
0.00021003829
0.00021067854
0.0002115658
0.00021062082
0.00020929206
0.00020809386
0.00020714735
0.00020659928
0.00020656206
0.00020705016
0.00020798079
0.00020922628
0.00021065534
0.00021215884
0.00021365707
0.00021509826
0.00021645294
0.00021770766
0.0002188596
0.00021991246
0.00022087357
0.00022175202
0.00022255745
0.00022329929
0.00022397392
0.00021954122
0.00021932784
0.00021908491
0.00021879246
0.00021844686
0.00021804442
0.00021758012
0.00021704987
0.00021645
0.00021577835
0.00021503548
0.00021422626
0.00021336153
0.00021246069
0.00021155479
0.0002106879
0.00020990792
0.00020925531
0.00020875321
0.00020840697
0.00020821223
0.00020816406
0.00020826291
0.0002085181
0.00020895182
0.00020960241
0.00021052256
0.00020979439
0.00020822617
0.00020676686
0.00020556886
0.00020483929
0.00020475091
0.000205328
0.00020644439
0.00020792048
0.00020958251
0.0002112965
0.00021297198
0.00021455585
0.00021602229
0.00021736354
0.00021858269
0.00021968879
0.00022069366
0.00022160998
0.00022245022
0.00022322605
0.00022393578
0.00021910883
0.00021891092
0.00021868119
0.00021839871
0.00021805937
0.00021765877
0.00021719091
0.00021665031
0.00021603154
0.00021533026
0.00021454477
0.00021367788
0.00021273898
0.00021174741
0.00021073804
0.00020976532
0.00020889205
0.00020817059
0.00020762706
0.00020726104
0.0002070585
0.00020700626
0.00020709953
0.00020734481
0.0002077651
0.00020840638
0.00020933699
0.00020895433
0.00020711039
0.00020533455
0.00020381303
0.00020283841
0.0002026831
0.00020339076
0.00020476058
0.00020653621
0.00020848622
0.00021044811
0.00021232251
0.0002140589
0.00021563907
0.00021706409
0.00021834521
0.00021949826
0.00022054035
0.00022148822
0.00022235739
0.00022316184
0.00022390187
0.00021867667
0.00021849821
0.00021828413
0.00021801386
0.00021768327
0.00021728732
0.00021681894
0.00021627108
0.00021563616
0.00021490712
0.00021407914
0.00021315196
0.00021213234
0.00021103797
0.00020990665
0.00020880595
0.00020782035
0.00020702009
0.00020643499
0.00020605468
0.00020584967
0.00020579467
0.00020587802
0.00020610193
0.00020648841
0.00020709137
0.00020799844
0.00020812626
0.00020596513
0.00020380518
0.00020186176
0.0002005448
0.00020029414
0.00020119604
0.00020291547
0.00020508265
0.00020738797
0.00020963912
0.0002117329
0.00021362805
0.00021531972
0.00021682186
0.00021815648
0.00021934762
0.00022041847
0.00022139012
0.00022228123
0.00022310807
0.00022387286
0.00021826753
0.00021810735
0.00021791002
0.00021765404
0.00021733485
0.00021694669
0.00021648125
0.00021592967
0.00021528183
0.00021452718
0.00021365663
0.00021266551
0.0002115563
0.0002103426
0.00020906262
0.0002077999
0.00020667137
0.00020577532
0.00020514677
0.00020475932
0.00020455938
0.0002045048
0.00020457648
0.00020477124
0.00020510633
0.00020564154
0.00020648656
0.0002073387
0.00020481992
0.00020219915
0.00019970192
0.00019789129
0.00019749116
0.00019868912
0.00020089733
0.00020357966
0.00020632145
0.00020890517
0.00021123458
0.00021328847
0.00021508322
0.00021665068
0.00021802633
0.0002192438
0.00022033284
0.00022131899
0.00022222396
0.00022306612
0.0002238494
0.0002178607
0.00021772305
0.00021754485
0.00021730545
0.00021700046
0.0002166235
0.00021616504
0.00021561432
0.00021495839
0.00021418268
0.00021327269
0.00021221768
0.00021101415
0.00020966824
0.00020821333
0.00020675056
0.00020544606
0.00020444333
0.00020378424
0.00020341587
0.00020324538
0.00020320582
0.00020327045
0.00020342953
0.00020368804
0.00020410699
0.00020482258
0.00020602174
0.00020373447
0.00020056403
0.0001973382
0.0001947966
0.00019413782
0.00019580052
0.0001987011
0.00020206504
0.00020533814
0.00020829525
0.00021086746
0.00021306996
0.00021495072
0.0002165651
0.00021796464
0.00021919345
0.00022028794
0.00022127788
0.00022218759
0.00022303724
0.00022383215
0.00021751399
0.00021739713
0.00021723942
0.00021701952
0.00021673288
0.00021637248
0.00021592764
0.0002153856
0.00021473035
0.00021394259
0.00021300075
0.00021188549
0.0002105845
0.00020909195
0.00020742603
0.00020570221
0.00020416186
0.00020302479
0.00020234141
0.00020201662
0.00020189392
0.00020187135
0.00020192011
0.00020202981
0.00020218392
0.00020243836
0.00020296073
0.00020399774
0.00020277601
0.000198992
0.00019483339
0.00019119094
0.00019003807
0.00019244649
0.00019633724
0.00020060642
0.00020451572
0.00020787571
0.00021068095
0.00021300655
0.00021494463
0.00021657952
0.00021798059
0.00021920246
0.00022028762
0.00022126929
0.00022217379
0.00022302249
0.00022382163
0.00021724799
0.00021715637
0.00021702312
0.00021682725
0.00021656454
0.00021622744
0.00021580409
0.00021527974
0.00021463517
0.00021384596
0.00021288224
0.00021171325
0.00021031532
0.00020866728
0.00020675694
0.00020469929
0.00020285144
0.00020156904
0.00020090854
0.00020070865
0.00020070602
0.00020074814
0.00020081582
0.00020091254
0.00020097439
0.0002010284
0.00020126908
0.00020200688
0.000202319
0.0001978101
0.00019243327
0.00018710199
0.00018493361
0.00018854655
0.00019385815
0.00019932415
0.0002039708
0.00020773457
0.00021073403
0.00021313506
0.000215087
0.00021670689
0.00021808175
0.00021927532
0.00022033461
0.00022129498
0.00022218374
0.00022302264
0.00022381826
0.00021730846
0.00021724486
0.00021714198
0.00021697782
0.00021674852
0.00021644628
0.0002160586
0.00021556938
0.00021495691
0.00021419226
0.00021323678
0.00021204477
0.00021057591
0.00020878985
0.00020662072
0.00020413598
0.0002018615
0.00020041277
0.00019983244
0.00019986429
0.00020005978
0.00020019215
0.00020026945
0.00020034954
0.00020027658
0.00020001442
0.000199813
0.00020004163
0.00020115454
0.0001973838
0.00019063848
0.00018289066
0.0001785855
0.00018413421
0.00019144079
0.00019842894
0.0002038747
0.00020798454
0.00021109311
0.00021349186
0.00021539682
0.00021695678
0.00021827285
0.00021941436
0.00022043012
0.00022135567
0.00022221792
0.00022303808
0.00022382231
0.0002180657
0.00021803698
0.00021797895
0.00021786451
0.00021768984
0.00021744709
0.00021712367
0.0002167027
0.00021616032
0.00021546313
0.0002145627
0.00021339292
0.00021188652
0.00020998177
0.00020754244
0.00020448733
0.00020156769
0.00019996155
0.00019961246
0.00020014709
0.00020075863
0.00020110992
0.0002012611
0.00020145462
0.00020138616
0.00020084567
0.00020023771
0.00019979477
0.00020075569
0.0001997399
0.00019127086
0.00017999302
0.00017091639
0.00017962438
0.00018944933
0.00019824627
0.00020446689
0.0002087619
0.00021182565
0.00021410704
0.00021588603
0.00021733306
0.00021855446
0.00021961904
0.00022057343
0.00022145082
0.00022227605
0.00022306873
0.00022383383
0.00022071367
0.00022076134
0.00022079034
0.00022076892
0.0002206952
0.00022056222
0.00022035865
0.00022006851
0.00021966799
0.0002191222
0.00021837735
0.00021734936
0.00021593579
0.00021405282
0.00021150362
0.00020784957
0.00020398574
0.0002024635
0.00020275656
0.00020442951
0.00020590696
0.00020676648
0.00020713795
0.0002077977
0.0002081612
0.00020722725
0.00020610096
0.00020425127
0.00020490875
0.0002034555
0.00019647146
0.0001811535
0.00016218807
0.0001762715
0.00018866583
0.00019947062
0.00020612701
0.00021022752
0.00021298772
0.00021499487
0.00021655426
0.00021783123
0.00021892176
0.0002198854
0.00022076165
0.00022157847
0.00022235697
0.00022311402
0.00022385262
0.00022646795
0.00022660881
0.00022676832
0.00022689279
0.00022698
0.00022702505
0.00022702068
0.00022695593
0.00022681224
0.00022655969
0.00022614704
0.00022547674
0.00022438704
0.00022271166
0.00022020902
0.00021578777
0.00020967699
0.0002083615
0.00020951602
0.00021328118
0.0002162617
0.00021811039
0.00021865476
0.00022013317
0.00022184804
9.2934543e-05
9.5424928e-05
9.7674308e-05
9.9860274e-05
0.00010286255
9.4451742e-05
8.6191531e-05
0.00010657577
0.00017929446
0.00019340268
0.00020410164
0.00020943295
0.00021251621
0.00021458955
0.00021613804
0.0002173824
0.00021843605
0.00021936368
0.00022020571
0.00022098956
0.00022173529
0.00022245865
0.00022317288
0.00022387827
0.00023927375
0.00023971179
0.0002402009
0.00024067501
0.00024114326
0.00024160971
0.00024207889
0.00024255414
0.00024303374
0.00024350616
0.00024393788
0.00024423582
0.00024418064
0.00024343437
0.00024177604
0.00023784686
0.00022680846
0.00022926895
0.00023526119
0.00024917785
0.00026057408
0.00026927802
0.00012792853
0.00016604308
0.00032006941
0.00046058669
0.00049956686
0.00049956686
0.00049956686
0.00049956686
0.00049956686
0.00045031169
0.00033648448
6.8071618e-05
0.00021294487
0.00021343709
0.00021435869
0.000215477
0.00021652121
0.00021746766
0.00021832795
0.00021912079
0.00021986307
0.00022056885
0.00022124994
0.00022191662
0.00022257827
0.00022324374
0.00022391014
0.0002643348
0.00026531505
0.00026643807
0.00026760366
0.00026883231
0.00027014835
0.00027158531
0.00027318535
0.00027500032
0.00027709571
0.00027955493
0.00028247035
0.00028593456
0.00028997498
0.00029435436
0.00030118372
0.00027313324
0.00030384017
0.00035476344
0.00037245818
0.00027894613
0.00032407941
0.00049956686
0.00049956686
0.00049956686
0.00049956686
0.00049956686
0.00049956686
0.00049956686
0.00049956686
0.00041265367
0.00041830213
0.00010204675
0.00026656257
0.00023111578
0.00022207625
0.00021925712
0.00021851879
0.00021853998
0.00021886902
0.00021933007
0.00021985035
0.00022039847
0.00022096122
0.00022153404
0.00022211689
0.00022271237
0.00022332466
0.00022394736
0.0003021384
0.00030423747
0.00030633028
0.00030849828
0.00031081601
0.00031335606
0.00031620424
0.00031947362
0.00032332338
0.00032799672
0.00033389025
0.00034158418
0.00035169587
0.00036473672
0.00038497815
0.00040311899
0.00025492691
0.00025632167
0.00026456937
0.00049183713
0.00047809201
0.00048795355
0.00047870062
0.000473724
0.00047746643
0.00045866216
0.00045172473
0.00045352182
0.00044094596
0.00043653586
0.00010693187
0.00010768288
0.00021982367
0.00025237468
0.00023693098
0.00022739357
0.00022309996
0.00022120456
0.00022043622
0.00022023277
0.00022032742
0.00022058825
0.00022094721
0.00022136829
0.0002218324
0.00022232997
0.00022285709
0.0002234134
0.00022398894
0.00028883867
0.00028937243
0.00028958999
0.00028980323
0.00029001304
0.00029025038
0.00029054092
0.00029092145
0.00029144503
0.00029218967
0.00029327725
0.00029436787
0.00029537168
0.00029614479
0.0002935765
0.0001031843
0.00037653477
0.00047142122
0.00047289486
0.00049382101
0.00048613065
0.00048244691
0.00012422067
0.00012128788
0.0001007766
0.00010006133
0.00010063719
0.00010198149
0.00010293584
0.00010453034
0.00020122772
0.00020770233
0.00021811833
0.0002390576
0.00023961764
0.00023074774
0.00022594428
0.00022340418
0.00022209637
0.00022148178
0.00022127022
0.00022130234
0.00022148823
0.00022177608
0.00022213569
0.00022254964
0.00022300844
0.00022350759
0.00022403378
0.00022330128
0.00022313334
0.00022284363
0.00022256203
0.00022229637
0.00022206387
0.00022188059
0.00022176988
0.00022176399
0.00022190756
0.00022226487
0.0002221063
0.00022118535
0.00021945807
0.00021680466
0.00021326447
9.598373e-05
9.9159227e-05
9.9872327e-05
9.9778735e-05
0.00010015404
0.00010018097
0.00021254475
0.00021081724
0.00020893229
0.00020554649
0.00020443894
0.0002038842
0.00020211597
0.00020213743
0.00020332235
0.00020903473
0.00021826561
0.00023220905
0.0002380318
0.00023247138
0.00022784618
0.0002250783
0.00022346543
0.00022256916
0.00022212345
0.00022196766
0.000222004
0.00022217232
0.00022243535
0.00022277003
0.00022316251
0.00022360486
0.00022408073
0.00021922454
0.00021930238
0.00021942645
0.00021955979
0.00021971351
0.00021989962
0.00022013055
0.00022042215
0.00022079344
0.00022126685
0.00022182726
0.00022156726
0.0002208204
0.00021959639
0.00021783756
0.00021505168
0.00021260849
0.0002141098
0.00021594182
0.0002142059
0.00021237701
0.00021121311
0.00021005909
0.00020833715
0.00020730426
0.00020568818
0.00020478342
0.0002042108
0.00020348738
0.00020395912
0.00020594695
0.0002109083
0.00021857325
0.00022813587
0.00023385961
0.00023317389
0.0002290114
0.00022627646
0.00022453893
0.00022347588
0.00022286718
0.00022256736
0.00022248137
0.00022254713
0.00022272411
0.00022298593
0.00022331572
0.00022370293
0.00022412868
0.00021784034
0.00021791873
0.00021804254
0.0002181799
0.00021833364
0.00021851124
0.00021872106
0.00021897401
0.00021928239
0.00021965964
0.00021997242
0.00021948699
0.00021873909
0.00021767751
0.00021626495
0.00021445026
0.0002133376
0.00021417987
0.00021528552
0.00021347971
0.00021189206
0.0002106764
0.00020952267
0.00020830927
0.00020735618
0.0002062989
0.00020565023
0.00020529158
0.00020521958
0.00020609809
0.00020834504
0.00021263817
0.00021878083
0.0002256386
0.00023032444
0.00023232037
0.00022961994
0.00022707331
0.00022533938
0.0002242023
0.00022349387
0.00022309219
0.0002229117
0.00022289325
0.00022299622
0.00022319296
0.00022346491
0.00022379975
0.00022417659
0.00021716332
0.00021728242
0.00021742043
0.00021756994
0.00021773681
0.00021792737
0.00021814769
0.00021840511
0.00021870649
0.00021905704
0.00021920671
0.00021876967
0.00021812675
0.00021724741
0.00021611181
0.00021486883
0.00021425325
0.000214754
0.00021500898
0.0002133919
0.00021200083
0.00021085325
0.000209799
0.00020881983
0.00020800191
0.00020726832
0.00020685168
0.00020673895
0.00020703737
0.00020813303
0.00021034827
0.00021400868
0.00021888986
0.00022403043
0.00022788451
0.0002302395
0.00022984067
0.00022755278
0.00022590376
0.00022476141
0.00022400523
0.0002235391
0.00022329042
0.000223206
0.00022324752
0.00022338771
0.00022360749
0.00022389353
0.00022422353
0.00021687435
0.0002169464
0.00021706114
0.00021719506
0.00021734628
0.00021751827
0.00021771476
0.00021794051
0.0002181993
0.0002184925
0.00021851726
0.00021813378
0.00021760897
0.0002169308
0.00021611215
0.00021532954
0.0002150234
0.00021541122
0.0002149645
0.00021357276
0.00021235396
0.00021131223
0.00021038239
0.00020956478
0.00020889284
0.00020837686
0.00020813814
0.00020821322
0.00020871919
0.00020989719
0.00021196513
0.00021506547
0.00021896812
0.00022296207
0.00022615834
0.00022832261
0.00022930637
0.00022778856
0.00022627256
0.00022517269
0.000224409
0.00022390973
0.00022361625
0.00022348296
0.00022347532
0.00022356771
0.00022374142
0.00022398284
0.00022426871
0.00021673362
0.00021684505
0.0002169692
0.00021710361
0.00021725222
0.00021741807
0.00021760278
0.00021780816
0.00021803418
0.00021827763
0.00021824282
0.00021789991
0.00021745471
0.00021691163
0.00021631071
0.0002158097
0.0002156728
0.00021596399
0.00021501768
0.00021383662
0.00021277973
0.00021185858
0.00021105319
0.00021037144
0.00020983653
0.00020948115
0.00020938075
0.00020958799
0.00021020434
0.00021138584
0.00021326839
0.00021589637
0.00021905797
0.00022225014
0.00022492533
0.00022687365
0.00022810638
0.00022784641
0.00022648534
0.00022545826
0.00022471639
0.00022420888
0.00022389047
0.00022372357
0.00022367828
0.00022373137
0.00022386524
0.00022406652
0.0002243115
0.00021666155
0.00021673076
0.00021683612
0.00021695834
0.00021709496
0.00021724706
0.00021741479
0.00021759831
0.00021779568
0.00021800141
0.00021796274
0.00021768282
0.00021733302
0.00021692629
0.00021651077
0.00021621035
0.00021618807
0.0002161434
0.00021511097
0.00021411719
0.00021321186
0.00021241495
0.00021172923
0.00021116828
0.00021075503
0.00021052519
0.00021053331
0.00021083206
0.00021150158
0.00021264354
0.00021433594
0.00021657235
0.00021917135
0.00022177961
0.00022403916
0.00022577578
0.00022696399
0.0002275103
0.00022657634
0.00022563989
0.00022494006
0.00022444327
0.00022411609
0.00022392873
0.00022385611
0.00022387789
0.00022397803
0.00022414379
0.00022435142
0.00021661005
0.00021670042
0.00021680619
0.00021692133
0.00021704738
0.0002171853
0.00021733418
0.00021749281
0.00021765781
0.00021782245
0.00021779129
0.00021755827
0.00021728137
0.00021697934
0.00021669962
0.00021653502
0.00021658977
0.00021607409
0.00021522591
0.00021439575
0.00021363022
0.00021295437
0.00021238217
0.00021193109
0.00021162476
0.00021149649
0.00021158929
0.00021194953
0.00021263738
0.00021371797
0.00021523079
0.0002171452
0.00021931216
0.00022148109
0.00022340642
0.00022494786
0.00022606562
0.00022678979
0.00022657568
0.00022573784
0.00022509289
0.00022462053
0.00022429727
0.00022410034
0.0002240094
0.00022400713
0.0002240793
0.00022421413
0.00022438812
0.00021657931
0.0002166452
0.00021673934
0.00021684588
0.00021696264
0.00021708933
0.00021722405
0.00021736461
0.00021750666
0.00021764276
0.00021764243
0.00021745886
0.00021724985
0.00021703637
0.00021686089
0.00021679245
0.00021670363
0.00021605619
0.00021535982
0.0002146718
0.00021403338
0.00021347136
0.00021300487
0.00021265351
0.00021244067
0.000212396
0.00021255446
0.00021295422
0.00021363888
0.00021464864
0.00021599859
0.0002176486
0.00021947873
0.00022130822
0.00022296207
0.00022432861
0.00022536462
0.00022607979
0.00022638353
0.00022576968
0.00022518701
0.0002247485
0.00022443873
0.00022424102
0.00022413937
0.00022411946
0.00022416897
0.0002242773
0.0002244214
0.00021655701
0.00021662863
0.00021671831
0.00021681617
0.00021692184
0.00021703497
0.00021715322
0.00021727394
0.00021739247
0.00021750148
0.00021753178
0.00021738948
0.00021723609
0.00021709243
0.00021699455
0.00021694148
0.0002166095
0.00021608013
0.00021551094
0.00021494661
0.00021442279
0.00021396579
0.00021359649
0.00021333509
0.00021320381
0.00021322846
0.00021343757
0.00021386123
0.00021452998
0.000215467
0.00021667269
0.00021810517
0.0002196687
0.00022123025
0.00022266138
0.00022387334
0.00022482463
0.00022551354
0.00022596443
0.00022575066
0.00022523352
0.00022483482
0.00022454544
0.00022435376
0.00022424768
0.00022421565
0.0002242473
0.00022433327
0.0002244512
0.00021654745
0.00021660699
0.00021668903
0.00021677959
0.00021687674
0.00021697952
0.00021708518
0.00021719074
0.00021729147
0.0002173804
0.00021743325
0.00021733696
0.00021723037
0.0002171421
0.00021709656
0.00021693326
0.00021656921
0.00021613863
0.00021567748
0.00021522115
0.00021480006
0.00021443879
0.00021415804
0.00021397741
0.00021391729
0.00021399981
0.000214248
0.00021468483
0.0002153308
0.00021619765
0.00021727738
0.00021853017
0.00021987962
0.00022122586
0.00022247238
0.00022354848
0.00022441658
0.000225069
0.0002255195
0.00022566741
0.00022524215
0.00022488658
0.00022462229
0.00022444178
0.00022433627
0.00022429677
0.00022431477
0.00022438222
0.00022447751
0.00021654512
0.00021660328
0.00021667983
0.00021676274
0.00021685067
0.00021694262
0.00021703572
0.000217127
0.00021721192
0.00021728419
0.00021733542
0.00021729694
0.00021722827
0.00021718002
0.00021709613
0.00021686819
0.00021657109
0.00021622471
0.00021585658
0.00021549502
0.00021516586
0.00021489129
0.00021469076
0.0002145825
0.00021458469
0.00021471594
0.00021499457
0.0002154375
0.00021605776
0.00021685944
0.00021783015
0.00021893374
0.00022010898
0.00022127952
0.00022237144
0.00022332823
0.00022411692
0.00022472713
0.00022516589
0.00022545137
0.00022522127
0.00022491021
0.00022467395
0.00022450829
0.00022440723
0.00022436407
0.00022437205
0.00022442442
0.00022450044
0.00021655117
0.00021660301
0.00021667387
0.0002167504
0.00021683077
0.0002169138
0.00021699662
0.00021707634
0.00021714881
0.00021720852
0.00021724843
0.00021724956
0.00021721078
0.00021716022
0.00021703076
0.0002168439
0.00021660585
0.00021633244
0.00021604532
0.00021576741
0.00021552056
0.00021532435
0.00021519639
0.00021515306
0.00021521014
0.000215383
0.00021568583
0.00021613062
0.00021672484
0.00021746759
0.00021834451
0.00021932357
0.00022035536
0.00022138057
0.00022234172
0.00022319346
0.00022390747
0.00022447261
0.00022489176
0.00022517752
0.00022517821
0.00022491153
0.00022470483
0.00022455645
0.00022446273
0.00022441893
0.00022441993
0.00022446026
0.00022452012
0.0002165631
0.00021661178
0.00021667778
0.00021674817
0.0002168213
0.00021689604
0.0002169696
0.00021703934
0.00021710159
0.00021715166
0.00021718382
0.00021719146
0.00021716747
0.00021710507
0.00021699937
0.00021685087
0.0002166655
0.00021645618
0.00021624036
0.00021603678
0.00021586383
0.00021573851
0.0002156763
0.00021569149
0.00021579741
0.00021600642
0.00021632916
0.00021677361
0.00021734313
0.0002180336
0.00021883012
0.00021970464
0.000220617
0.00022152048
0.00022236985
0.00022312862
0.00022377286
0.0002242918
0.00022468595
0.0002249641
0.00022510018
0.00022489548
0.00022471885
0.00022458924
0.00022450488
0.00022446275
0.00022445923
0.00022449016
0.00022453673
0.00021658032
0.00021662515
0.00021668678
0.00021675193
0.00021681887
0.00021688652
0.00021695228
0.00021701382
0.000217068
0.00021711099
0.00021713827
0.00021714486
0.00021712571
0.00021707642
0.00021699442
0.00021688161
0.0002167436
0.00021659122
0.00021643878
0.00021630171
0.00021619545
0.00021613451
0.00021613217
0.00021620055
0.00021635053
0.00021659174
0.00021693171
0.00021737516
0.0002179224
0.0002185673
0.00021929514
0.00022008149
0.00022089344
0.00022169376
0.00022244658
0.0002231225
0.00022370161
0.00022417417
0.00022453951
0.00022480394
0.00022497842