/*--------------------------------*- C++ -*----------------------------------*\
| =========                 |                                                 |
| \\      /  F ield         | foam-extend: Open Source CFD                    |
|  \\    /   O peration     | Version:     4.1                                |
|   \\  /    A nd           | Web:         http://www.foam-extend.org         |
|    \\/     M anipulation  |                                                 |
\*---------------------------------------------------------------------------*/
FoamFile
{
    version     2.0;
    format      ascii;
    class       volVectorField;
    location    "1.3";
    object      U;
}
// * * * * * * * * * * * * * * * * * * * * * * * * * * * * * * * * * * * * * //

dimensions      [0 1 -1 0 0 0 0];

internalField   nonuniform List<vector> 
4393
(
(146.03705 -0.15594046 0)
(146.58346 -0.16240372 0)
(146.99628 -0.16544749 0)
(147.43603 -0.1691295 0)
(147.88572 -0.17357129 0)
(148.35025 -0.178859 0)
(148.83184 -0.18491521 0)
(149.33266 -0.19159447 0)
(149.85433 -0.19869196 0)
(150.39777 -0.20594548 0)
(150.96304 -0.21303558 0)
(151.54916 -0.21958866 0)
(152.15395 -0.22518558 0)
(152.77391 -0.22937739 0)
(153.40418 -0.23170814 0)
(154.03853 -0.2317425 0)
(154.66949 -0.22909324 0)
(155.2885 -0.22344275 0)
(155.88619 -0.21455439 0)
(156.45258 -0.20227318 0)
(156.97736 -0.18651956 0)
(157.45006 -0.16728219 0)
(157.86026 -0.14461613 0)
(158.19783 -0.11865139 0)
(158.45311 -0.089615437 0)
(158.61736 -0.057866486 0)
(158.6832 -0.023915458 0)
(158.64538 0.011564859 0)
(158.50056 0.047499612 0)
(158.24955 0.082470103 0)
(157.89735 0.11502328 0)
(157.45327 0.14374409 0)
(156.93072 0.16740104 0)
(156.34636 0.18509916 0)
(155.71888 0.19637859 0)
(155.06768 0.20123424 0)
(154.41152 0.20006175 0)
(153.76752 0.19355464 0)
(153.1504 0.18258311 0)
(152.57219 0.16808026 0)
(152.04221 0.1509518 0)
(151.56722 0.13201467 0)
(151.1518 0.11196382 0)
(150.79872 0.091373666 0)
(150.50937 0.070749034 0)
(150.28418 0.050548838 0)
(150.12262 0.030927002 0)
(150.02108 0.011785261 0)
(149.97393 -0.0031378182 0)
(149.46034 -0.39324252 0)
(149.92756 -0.40427075 0)
(150.27232 -0.41245573 0)
(150.64083 -0.42308951 0)
(151.01909 -0.43628906 0)
(151.41209 -0.452092 0)
(151.82221 -0.4702303 0)
(152.25169 -0.49026094 0)
(152.70225 -0.51157406 0)
(153.17489 -0.53339115 0)
(153.66975 -0.55476277 0)
(154.18593 -0.57457616 0)
(154.7213 -0.59157956 0)
(155.27242 -0.60442806 0)
(155.83441 -0.61175154 0)
(156.40102 -0.61223813 0)
(156.96469 -0.60471799 0)
(157.51679 -0.58822944 0)
(158.04782 -0.56205433 0)
(158.54771 -0.52572065 0)
(159.00602 -0.47898406 0)
(159.41221 -0.42180693 0)
(159.75574 -0.35435477 0)
(160.02634 -0.27702597 0)
(160.21421 -0.19052543 0)
(160.31037 -0.095979768 0)
(160.30724 0.0049504979 0)
(160.19916 0.11000833 0)
(159.98396 0.216104 0)
(159.66235 0.31941334 0)
(159.23906 0.41572714 0)
(158.7233 0.5008388 0)
(158.12846 0.57104898 0)
(157.47137 0.62364412 0)
(156.77097 0.65720152 0)
(156.0469 0.67165241 0)
(155.31813 0.66812177 0)
(154.60185 0.64862113 0)
(153.91281 0.61568692 0)
(153.263 0.5720408 0)
(152.66161 0.52031912 0)
(152.11528 0.46288721 0)
(151.62849 0.40173569 0)
(151.20396 0.33846987 0)
(150.8431 0.27441014 0)
(150.54624 0.21061638 0)
(150.31258 0.1473738 0)
(150.14103 0.084531483 0)
(150.03535 0.028677259 0)
(149.72509 -0.62661522 0)
(150.17719 -0.63591988 0)
(150.51105 -0.64821093 0)
(150.86778 -0.66535402 0)
(151.23429 -0.6872002 0)
(151.61565 -0.71353032 0)
(152.01439 -0.74383843 0)
(152.43286 -0.77736982 0)
(152.87291 -0.8131066 0)
(153.33569 -0.84975153 0)
(153.8215 -0.88571876 0)
(154.32958 -0.91914325 0)
(154.85799 -0.94791935 0)
(155.40335 -0.96977718 0)
(155.96089 -0.98239882 0)
(156.52432 -0.98356326 0)
(157.08605 -0.9712937 0)
(157.63733 -0.94397329 0)
(158.16858 -0.90040469 0)
(158.66961 -0.83980971 0)
(159.1299 -0.76178988 0)
(159.5388 -0.66628234 0)
(159.88568 -0.55354736 0)
(160.1601 -0.42421578 0)
(160.35196 -0.27941575 0)
(160.45188 -0.12098257 0)
(160.45175 0.048292175 0)
(160.3453 0.22449982 0)
(160.12885 0.40255888 0)
(159.80245 0.57620598 0)
(159.3706 0.73832164 0)
(158.84268 0.88169076 0)
(158.23278 0.99994105 0)
(157.55873 1.0884087 0)
(156.84069 1.1446816 0)
(156.09944 1.1687012 0)
(155.35488 1.162464 0)
(154.62487 1.12947 0)
(153.92446 1.0740847 0)
(153.26567 1.00095 0)
(152.65755 0.91452366 0)
(152.10644 0.81876848 0)
(151.61647 0.71698615 0)
(151.19004 0.61179098 0)
(150.82828 0.50520377 0)
(150.53105 0.39865499 0)
(150.2971 0.29265271 0)
(150.12719 0.18751676 0)
(150.02932 0.087575169 0)
(149.81722 -0.85458475 0)
(150.26139 -0.86454421 0)
(150.59066 -0.8809859 0)
(150.94258 -0.90473442 0)
(151.30451 -0.93540511 0)
(151.68164 -0.97255197 0)
(152.07667 -1.0154374 0)
(152.49218 -1.0630104 0)
(152.9302 -1.1138638 0)
(153.39214 -1.1661981 0)
(153.87851 -1.2177992 0)
(154.3888 -1.2660452 0)
(154.92122 -1.3079552 0)
(155.47251 -1.3402947 0)
(156.03786 -1.3597438 0)
(156.61088 -1.3631131 0)
(157.18372 -1.3475668 0)
(157.74735 -1.3107979 0)
(158.2918 -1.2511148 0)
(158.80659 -1.1674309 0)
(159.2809 -1.0591911 0)
(159.70381 -0.92628999 0)
(160.0644 -0.76903789 0)
(160.35187 -0.58821828 0)
(160.55566 -0.38526587 0)
(160.66569 -0.16257324 0)
(160.67298 0.07612157 0)
(160.57028 0.3254202 0)
(160.35289 0.57807249 0)
(160.02002 0.82502674 0)
(159.57578 1.0559096 0)
(159.02987 1.2601144 0)
(158.3974 1.4282368 0)
(157.69786 1.5534245 0)
(156.95328 1.6322143 0)
(156.18628 1.6646646 0)
(155.41823 1.653867 0)
(154.66793 1.6050814 0)
(153.95093 1.5247657 0)
(153.27928 1.4197022 0)
(152.66174 1.2963331 0)
(152.10421 1.1603305 0)
(151.61026 1.016384 0)
(151.18177 0.86817422 0)
(150.81936 0.7184647 0)
(150.52236 0.5691408 0)
(150.28921 0.42122185 0)
(150.12138 0.27578472 0)
(150.02719 0.1352521 0)
(149.92573 -1.0770388 0)
(150.36183 -1.0885973 0)
(150.68576 -1.109312 0)
(151.03229 -1.1397849 0)
(151.3892 -1.1794617 0)
(151.76179 -1.2277088 0)
(152.15297 -1.2835701 0)
(152.56558 -1.3457087 0)
(153.00194 -1.4123356 0)
(153.46376 -1.48115 0)
(153.95188 -1.5492995 0)
(154.46609 -1.6133774 0)
(155.00482 -1.6694781 0)
(155.56496 -1.7133309 0)
(156.14169 -1.7405257 0)
(156.72842 -1.7468155 0)
(157.31697 -1.7284358 0)
(157.89781 -1.6823571 0)
(158.46055 -1.6064009 0)
(158.99421 -1.4992087 0)
(159.48763 -1.3601126 0)
(159.92954 -1.1889928 0)
(160.30871 -0.98620353 0)
(160.61391 -0.75263288 0)
(160.83396 -0.48993484 0)
(160.95793 -0.20094874 0)
(160.97568 0.10975041 0)
(160.87859 0.43537514 0)
(160.66045 0.76658153 0)
(160.31919 1.0913503 0)
(159.85827 1.3956262 0)
(159.28775 1.6648333 0)
(158.62422 1.8859753 0)
(157.8895 2.0496427 0)
(157.10839 2.1512318 0)
(156.3061 2.191088 0)
(155.50604 2.1737336 0)
(154.72832 2.1065806 0)
(153.98908 1.998536 0)
(153.30033 1.8587924 0)
(152.6704 1.6959398 0)
(152.1045 1.5174217 0)
(151.60543 1.3292922 0)
(151.17431 1.1362038 0)
(150.81107 0.94152135 0)
(150.51444 0.74744324 0)
(150.2826 0.55525427 0)
(150.11723 0.36618127 0)
(150.0259 0.18148452 0)
(150.06274 -1.2969805 0)
(150.48886 -1.3106245 0)
(150.80596 -1.3357942 0)
(151.14566 -1.3732087 0)
(151.49619 -1.4222104 0)
(151.86301 -1.4820354 0)
(152.24928 -1.5515479 0)
(152.65814 -1.6291588 0)
(153.09228 -1.712726 0)
(153.55379 -1.7994648 0)
(154.04396 -1.8858839 0)
(154.56295 -1.9677657 0)
(155.10955 -2.04022 0)
(155.68085 -2.0978424 0)
(156.27201 -2.1350051 0)
(156.8762 -2.1462664 0)
(157.48477 -2.1268193 0)
(158.08758 -2.0728473 0)
(158.67358 -1.9816783 0)
(159.23123 -1.8517135 0)
(159.7489 -1.6822106 0)
(160.21495 -1.4730442 0)
(160.6178 -1.2245662 0)
(160.94576 -0.93765251 0)
(161.18693 -0.61399254 0)
(161.32929 -0.25664656 0)
(161.36122 0.1291862 0)
(161.27229 0.53541671 0)
(161.05414 0.95051585 0)
(160.70289 1.3592105 0)
(160.22092 1.7431595 0)
(159.61864 2.0829816 0)
(158.91464 2.3612695 0)
(158.13401 2.565529 0)
(157.30537 2.6899198 0)
(156.45746 2.7353688 0)
(155.61642 2.7083641 0)
(154.80402 2.6190743 0)
(154.03704 2.4794034 0)
(153.32734 2.3013741 0)
(152.68256 2.0960019 0)
(152.10689 1.872651 0)
(151.60209 1.6387874 0)
(151.16823 1.4000091 0)
(150.80431 1.1602189 0)
(150.50828 0.92184997 0)
(150.27789 0.6862286 0)
(150.11461 0.45423158 0)
(150.02517 0.22603126 0)
(150.2289 -1.5078555 0)
(150.64347 -1.5238817 0)
(150.95222 -1.5537758 0)
(151.28351 -1.5984672 0)
(151.62615 -1.6572259 0)
(151.98576 -1.729201 0)
(152.36581 -1.8131169 0)
(152.76981 -1.9071706 0)
(153.20088 -2.0089001 0)
(153.66162 -2.1150601 0)
(154.15385 -2.2215222 0)
(154.67826 -2.3232294 0)
(155.23411 -2.4142362 0)
(155.81876 -2.4878842 0)
(156.4274 -2.5371635 0)
(157.05289 -2.55526 0)
(157.68595 -2.5361813 0)
(158.31564 -2.4752589 0)
(158.93004 -2.3693512 0)
(159.5169 -2.2167078 0)
(160.06403 -2.0166129 0)
(160.55944 -1.7689992 0)
(160.9912 -1.4742014 0)
(161.34716 -1.1329688 0)
(161.61469 -0.74680896 0)
(161.7805 -0.31870592 0)
(161.83107 0.14583292 0)
(161.75364 0.63767345 0)
(161.53698 1.1432092 0)
(161.1745 1.6435971 0)
(160.6669 2.1154077 0)
(160.02486 2.5332634 0)
(159.26958 2.8741417 0)
(158.43063 3.1216899 0)
(157.54184 3.2687004 0)
(156.63669 3.3171108 0)
(155.74482 3.2761215 0)
(154.89003 3.159466 0)
(154.08972 2.9827385 0)
(153.35538 2.7612905 0)
(152.69357 2.5088569 0)
(152.10715 2.2368488 0)
(151.59644 1.9541511 0)
(151.16018 1.6672454 0)
(150.79621 1.3804944 0)
(150.50153 1.0965002 0)
(150.27326 0.81654328 0)
(150.11231 0.5411109 0)
(150.0246 0.2695918 0)
(150.42355 -1.7172963 0)
(150.82403 -1.735716 0)
(151.1228 -1.7703499 0)
(151.44404 -1.8224195 0)
(151.77719 -1.8911724 0)
(152.12806 -1.9757265 0)
(152.50046 -2.074723 0)
(152.89834 -2.1862037 0)
(153.32534 -2.3074415 0)
(153.78467 -2.4347714 0)
(154.27883 -2.5634452 0)
(154.8092 -2.6875427 0)
(155.37562 -2.7999829 0)
(155.97589 -2.8927012 0)
(156.60527 -2.9570837 0)
(157.25625 -2.9846907 0)
(157.91871 -2.9681315 0)
(158.58063 -2.901783 0)
(159.22898 -2.7820632 0)
(159.85059 -2.6071915 0)
(160.43267 -2.3766179 0)
(160.96289 -2.0904167 0)
(161.42907 -1.7488838 0)
(161.81873 -1.3524839 0)
(162.11847 -0.90224297 0)
(162.31357 -0.40065497 0)
(162.38829 0.14692283 0)
(162.3269 0.7306631 0)
(162.11429 1.3350014 0)
(161.74004 1.9372101 0)
(161.20218 2.5077453 0)
(160.51136 3.013567 0)
(159.6922 3.4243004 0)
(158.78041 3.7186447 0)
(157.81686 3.8879144 0)
(156.84135 3.9357573 0)
(155.88794 3.8751984 0)
(154.98275 3.7246794 0)
(154.1437 3.5044186 0)
(153.38146 3.2337293 0)
(152.70104 2.9294102 0)
(152.10347 2.6050332 0)
(151.58719 2.2708584 0)
(151.14928 1.9341152 0)
(150.78615 1.59945 0)
(150.49371 1.2694389 0)
(150.26826 0.94511103 0)
(150.11001 0.62646509 0)
(150.02406 0.31222751 0)
(150.6461 -1.9118222 0)
(151.03097 -1.9328759 0)
(151.3182 -1.9726568 0)
(151.62764 -2.0326671 0)
(151.94955 -2.1121462 0)
(152.28994 -2.2102277 0)
(152.65303 -2.3255291 0)
(153.04323 -2.4560031 0)
(153.46481 -2.5987231 0)
(153.92172 -2.7496583 0)
(154.41729 -2.9034656 0)
(154.95377 -3.0533406 0)
(155.53182 -3.1909745 0)
(156.14984 -3.3067076 0)
(156.80327 -3.3900283 0)
(157.48413 -3.4305216 0)
(158.18124 -3.4191029 0)
(158.88111 -3.3490644 0)
(159.56925 -3.216458 0)
(160.23136 -3.0196913 0)
(160.85399 -2.7586279 0)
(161.42456 -2.4336542 0)
(161.93084 -2.0450504 0)
(162.36019 -1.5928313 0)
(162.69858 -1.0771721 0)
(162.92982 -0.49953105 0)
(163.03548 0.13552663 0)
(162.99622 0.81808199 0)
(162.79176 1.5310199 0)
(162.40624 2.2474839 0)
(161.83346 2.9305357 0)
(161.0835 3.5371244 0)
(160.1854 4.0269565 0)
(159.18327 4.3721961 0)
(158.12765 4.5625963 0)
(157.06664 4.6045972 0)
(156.03985 4.5166519 0)
(155.07595 4.3234637 0)
(154.19299 4.0510716 0)
(153.40023 3.7235057 0)
(152.70045 3.3609955 0)
(152.09217 2.9793601 0)
(151.57147 2.5901487 0)
(151.13337 2.2011677 0)
(150.7726 1.8171494 0)
(150.48377 1.4404414 0)
(150.26222 1.0716306 0)
(150.10734 0.7101083 0)
(150.02345 0.35389432 0)
(150.89632 -2.1082698 0)
(151.26227 -2.1318252 0)
(151.53609 -2.1765924 0)
(151.83185 -2.2444434 0)
(152.14063 -2.3346732 0)
(152.46867 -2.4464986 0)
(152.82058 -2.5785948 0)
(153.20131 -2.7289185 0)
(153.61586 -2.8944418 0)
(154.06905 -3.0708577 0)
(154.56523 -3.2522896 0)
(155.10775 -3.4310569 0)
(155.69837 -3.5975465 0)
(156.33634 -3.7402964 0)
(157.01741 -3.8465317 0)
(157.73312 -3.9033922 0)
(158.47086 -3.8996866 0)
(159.21517 -3.8274472 0)
(159.94957 -3.6824891 0)
(160.65835 -3.4637467 0)
(161.32736 -3.171867 0)
(161.94396 -2.8077946 0)
(162.49619 -2.3718336 0)
(162.9716 -1.8633379 0)
(163.35581 -1.2811434 0)
(163.63116 -0.62493578 0)
(163.77621 0.10240954 0)
(163.76721 0.89179553 0)
(163.57713 1.7252099 0)
(163.18247 2.5716335 0)
(162.5704 3.3852264 0)
(161.74926 4.1096351 0)
(160.75381 4.6908232 0)
(159.63986 5.0921036 0)
(158.4713 5.3017183 0)
(157.30719 5.33063 0)
(156.19393 5.2050714 0)
(155.1628 4.9581318 0)
(154.23131 4.6231863 0)
(153.40633 4.2298421 0)
(152.68744 3.8020945 0)
(152.06989 3.357996 0)
(151.5468 2.9101782 0)
(151.11069 2.4667409 0)
(150.75434 2.0322107 0)
(150.4709 1.6084407 0)
(150.25465 1.1953596 0)
(150.10408 0.79161324 0)
(150.02272 0.39441363 0)
(151.17232 -2.2795207 0)
(151.51835 -2.3057151 0)
(151.77714 -2.3558611 0)
(152.05736 -2.432163 0)
(152.35106 -2.5339867 0)
(152.66471 -2.6606979 0)
(153.00333 -2.8111206 0)
(153.37249 -2.9833266 0)
(153.77799 -3.1743091 0)
(154.22569 -3.3796016 0)
(154.72113 -3.5928804 0)
(155.26909 -3.8056144 0)
(155.87274 -4.006808 0)
(156.53258 -4.1829447 0)
(157.24496 -4.31849 0)
(158.00085 -4.3974475 0)
(158.78578 -4.4058768 0)
(159.58158 -4.3342574 0)
(160.36913 -4.1783462 0)
(161.13088 -3.9381149 0)
(161.85201 -3.6155569 0)
(162.52013 -3.2125673 0)
(163.12404 -2.7296027 0)
(163.65204 -2.1651753 0)
(164.08985 -1.5162322 0)
(164.41855 -0.77976578 0)
(164.61344 0.044231588 0)
(164.64554 0.9488593 0)
(164.47913 1.9163722 0)
(164.08 2.9119362 0)
(163.42497 3.8792106 0)
(162.51852 4.7439163 0)
(161.40274 5.4324382 0)
(160.15003 5.8957524 0)
(158.84292 6.120943 0)
(157.55503 6.1262624 0)
(156.3409 5.9491771 0)
(155.23407 5.6340418 0)
(154.25036 5.2234481 0)
(153.39281 4.7535147 0)
(152.65653 4.2522517 0)
(152.0325 3.7397849 0)
(151.51017 3.2294764 0)
(151.07915 2.7293132 0)
(150.72999 2.2432328 0)
(150.45424 1.7722648 0)
(150.24506 1.315421 0)
(150.10001 0.8704207 0)
(150.02181 0.43351984 0)
(151.47566 -2.4613685 0)
(151.79732 -2.4902645 0)
(152.03891 -2.5457324 0)
(152.30138 -2.630421 0)
(152.57775 -2.7438459 0)
(152.87462 -2.8856029 0)
(153.19746 -3.05477 0)
(153.55248 -3.2496655 0)
(153.94637 -3.467457 0)
(154.38616 -3.703678 0)
(154.87891 -3.9516935 0)
(155.43111 -4.2021968 0)
(156.04781 -4.4427771 0)
(156.7313 -4.6576203 0)
(157.47899 -4.8278393 0)
(158.28131 -4.9333788 0)
(159.12133 -4.9566554 0)
(159.97711 -4.8862351 0)
(160.82582 -4.7182019 0)
(161.64756 -4.4544608 0)
(162.42687 -4.0992894 0)
(163.15207 -3.6561593 0)
(163.81343 -3.1258935 0)
(164.40079 -2.5059499 0)
(164.90075 -1.7906553 0)
(165.29359 -0.97300557 0)
(165.55127 -0.048411432 0)
(165.63777 0.98031611 0)
(165.50848 2.097404 0)
(165.11341 3.2657057 0)
(164.41333 4.4168722 0)
(163.40484 5.4522558 0)
(162.13936 6.2695648 0)
(160.71331 6.8020446 0)
(159.23575 7.0366765 0)
(157.79962 7.0034842 0)
(156.46892 6.7562753 0)
(155.27845 6.3545375 0)
(154.24032 5.8523338 0)
(153.35174 5.2932014 0)
(152.60165 4.709203 0)
(151.97555 4.1221253 0)
(151.45846 3.5454864 0)
(151.03664 2.9865891 0)
(150.69818 2.4482873 0)
(150.43297 1.9303927 0)
(150.23301 1.4307081 0)
(150.09495 0.94582168 0)
(150.02069 0.47086891 0)
(151.80083 -2.6005459 0)
(152.098 -2.6317193 0)
(152.32082 -2.6923443 0)
(152.56361 -2.7854546 0)
(152.82052 -2.9107388 0)
(153.09829 -3.0681166 0)
(153.40284 -3.2570609 0)
(153.74101 -3.4763214 0)
(154.12045 -3.7234651 0)
(154.54955 -3.9942757 0)
(155.03713 -4.2820425 0)
(155.59177 -4.5768592 0)
(156.221 -4.8649614 0)
(156.92962 -5.1280439 0)
(157.7168 -5.3431503 0)
(158.57262 -5.4848382 0)
(159.47687 -5.5304493 0)
(160.40222 -5.4659405 0)
(161.32065 -5.2881498 0)
(162.20912 -5.0020898 0)
(163.05173 -4.6155051 0)
(163.83834 -4.1341238 0)
(164.56171 -3.5592977 0)
(165.21443 -2.8871949 0)
(165.78516 -2.108757 0)
(166.25422 -1.2114838 0)
(166.59035 -0.18412571 0)
(166.75021 0.97680258 0)
(166.67727 2.2602733 0)
(166.30085 3.6297314 0)
(165.55675 5.0041514 0)
(164.42642 6.2517272 0)
(162.97282 7.2269706 0)
(161.32804 7.8366824 0)
(159.63969 8.0703549 0)
(158.02634 7.9770945 0)
(156.56236 7.6346408 0)
(155.28158 7.1227304 0)
(154.18926 6.5094709 0)
(153.27383 5.8465225 0)
(152.51593 5.1696537 0)
(151.89418 4.5015213 0)
(151.38838 3.8549277 0)
(150.981 3.2357146 0)
(150.65757 2.6450311 0)
(150.40629 2.0810069 0)
(150.21808 1.5399091 0)
(150.08873 1.0169735 0)
(150.01932 0.50604907 0)
(152.1526 -2.7669481 0)
(152.41953 -2.8012775 0)
(152.62106 -2.867766 0)
(152.84164 -2.9699623 0)
(153.0764 -3.1078245 0)
(153.33209 -3.2816997 0)
(153.615 -3.4915904 0)
(153.9326 -3.7368519 0)
(154.29355 -4.0156693 0)
(154.70776 -4.3243305 0)
(155.18608 -4.6562964 0)
(155.73969 -5.0012423 0)
(156.37927 -5.3441219 0)
(157.11322 -5.6639417 0)
(157.94369 -5.9327561 0)
(158.86091 -6.1177796 0)
(159.84035 -6.189015 0)
(160.84705 -6.1287323 0)
(161.84547 -5.9353812 0)
(162.80839 -5.6192767 0)
(163.71985 -5.193913 0)
(164.57236 -4.6687598 0)
(165.3625 -4.0464059 0)
(166.08702 -3.3219265 0)
(166.73823 -2.4822779 0)
(167.29785 -1.5075378 0)
(167.73183 -0.37669766 0)
(167.98899 0.92366256 0)
(167.99946 2.3913351 0)
(167.66536 3.9957752 0)
(166.88412 5.6450893 0)
(165.60871 7.1628841 0)
(163.91539 8.3368392 0)
(161.99083 9.0324944 0)
(160.03998 9.2479488 0)
(158.21514 9.0633955 0)
(156.60089 8.5918342 0)
(155.2257 7.9398353 0)
(154.08302 7.1922294 0)
(153.14856 6.4089734 0)
(152.39195 5.6285407 0)
(151.78337 4.8731165 0)
(151.29663 4.1535288 0)
(150.91016 3.4731433 0)
(150.60692 2.8306526 0)
(150.37351 2.2219811 0)
(150.19993 1.6415137 0)
(150.08121 1.0829125 0)
(150.01767 0.53859006 0)
(152.51824 -2.8640308 0)
(152.75585 -2.8997971 0)
(152.93461 -2.9705566 0)
(153.131 -3.080248 0)
(153.34134 -3.2290903 0)
(153.57237 -3.4179418 0)
(153.83066 -3.6474937 0)
(154.12429 -3.9179491 0)
(154.46296 -4.2284558 0)
(154.85821 -4.5762579 0)
(155.32326 -4.955506 0)
(155.87238 -5.3559588 0)
(156.5202 -5.7617466 0)
(157.2801 -6.1494666 0)
(158.1591 -6.4855559 0)
(159.14863 -6.7275109 0)
(160.21841 -6.8347478 0)
(161.32214 -6.7842711 0)
(162.41312 -6.5775194 0)
(163.45825 -6.2333049 0)
(164.44215 -5.7737273 0)
(165.36188 -5.2130375 0)
(166.21977 -4.5546459 0)
(167.01875 -3.7916514 0)
(167.75744 -2.9055951 0)
(168.42144 -1.8663352 0)
(168.97513 -0.63918712 0)
(169.35938 0.80316683 0)
(169.49036 2.4717485 0)
(169.23582 4.3499603 0)
(168.43498 6.3415934 0)
(166.988 8.212242 0)
(164.98379 9.6437606 0)
(162.69507 10.433528 0)
(160.41467 10.602162 0)
(158.33832 10.280688 0)
(156.55805 9.6343153 0)
(155.08891 8.8045268 0)
(153.90512 7.89515 0)
(152.9643 6.9735296 0)
(152.2219 6.0788054 0)
(151.6381 5.2305879 0)
(151.18011 4.4359964 0)
(150.82229 3.6946446 0)
(150.54517 3.0018974 0)
(150.33406 2.3509103 0)
(150.17828 1.733841 0)
(150.07229 1.1425766 0)
(150.01572 0.5679756 0)
(152.91185 -3.014314 0)
(153.11326 -3.0540236 0)
(153.26668 -3.1313448 0)
(153.43634 -3.2507862 0)
(153.61949 -3.4130017 0)
(153.82256 -3.6195654 0)
(154.05228 -3.8721111 0)
(154.31715 -4.1720029 0)
(154.62782 -4.5197388 0)
(154.99754 -4.914 0)
(155.44213 -5.3501501 0)
(155.97946 -5.8184683 0)
(156.62898 -6.302588 0)
(157.41089 -6.7769002 0)
(158.34007 -7.2012603 0)
(159.41144 -7.5194161 0)
(160.58746 -7.673951 0)
(161.80519 -7.6327935 0)
(163.00126 -7.4016971 0)
(164.13466 -7.0126561 0)
(165.19237 -6.501083 0)
(166.17928 -5.8883123 0)
(167.10598 -5.1794143 0)
(167.98371 -4.3669437 0)
(168.82023 -3.4287416 0)
(169.60804 -2.3238952 0)
(170.31117 -1.0003945 0)
(170.86241 0.58837427 0)
(171.16523 2.4738415 0)
(171.04776 4.6680491 0)
(170.26403 7.0890753 0)
(168.61767 9.4329341 0)
(166.20163 11.21088 0)
(163.42865 12.099514 0)
(160.73093 12.173902 0)
(158.35749 11.648362 0)
(156.39961 10.765666 0)
(154.84468 9.7112224 0)
(153.63683 8.6086617 0)
(152.70868 7.529836 0)
(151.99807 6.5109537 0)
(151.45378 5.5659512 0)
(151.03623 4.6959616 0)
(150.71598 3.8953216 0)
(150.47161 3.1551137 0)
(150.28759 2.4651612 0)
(150.15298 1.8150835 0)
(150.06191 1.1948367 0)
(150.01345 0.59365981 0)
(153.30493 -3.0588806 0)
(153.47199 -3.0987529 0)
(153.59856 -3.178769 0)
(153.73932 -3.3038025 0)
(153.8926 -3.4748184 0)
(154.06448 -3.6940519 0)
(154.2617 -3.9640789 0)
(154.49308 -4.2875064 0)
(154.77014 -4.6664103 0)
(155.10784 -5.1013746 0)
(155.52501 -5.5897128 0)
(156.04373 -6.1230883 0)
(156.68921 -6.6856217 0)
(157.49069 -7.2509344 0)
(158.47558 -7.7730266 0)
(159.64676 -8.1781251 0)
(160.95774 -8.3837581 0)
(162.32012 -8.344446 0)
(163.64453 -8.0749151 0)
(164.87813 -7.6300281 0)
(166.0126 -7.0673693 0)
(167.06516 -6.4184331 0)
(168.05725 -5.6887326 0)
(169.00997 -4.8687557 0)
(169.9442 -3.9308923 0)
(170.86543 -2.816952 0)
(171.74186 -1.4459102 0)
(172.50064 0.25996246 0)
(173.03778 2.3603579 0)
(173.14222 4.9105348 0)
(172.4464 7.8715681 0)
(170.5783 10.86712 0)
(167.60353 13.132177 0)
(164.1693 14.113354 0)
(160.9391 14.01439 0)
(158.21928 13.185291 0)
(156.08167 11.984015 0)
(154.46156 10.647875 0)
(153.25765 9.3176236 0)
(152.36933 8.0634145 0)
(151.71346 6.9127158 0)
(151.22672 5.8694793 0)
(150.86319 4.9260239 0)
(150.59045 4.0697011 0)
(150.38595 3.2863486 0)
(150.23405 2.5619554 0)
(150.12403 1.8833711 0)
(150.05009 1.2385402 0)
(150.01087 0.61508885 0)
(153.72745 -3.1918112 0)
(153.85246 -3.2373395 0)
(153.94993 -3.324966 0)
(154.05972 -3.4601492 0)
(154.18085 -3.6444295 0)
(154.31868 -3.881096 0)
(154.47969 -4.1741985 0)
(154.67271 -4.5282968 0)
(154.90974 -4.9479767 0)
(155.20716 -5.436969 0)
(155.58673 -5.9961211 0)
(156.07509 -6.6200918 0)
(156.70369 -7.2948297 0)
(157.51278 -7.9949975 0)
(158.54891 -8.6701952 0)
(159.83132 -9.2230238 0)
(161.30363 -9.5288742 0)
(162.83827 -9.5159038 0)
(164.30528 -9.2103969 0)
(165.63515 -8.7003637 0)
(166.83026 -8.0752227 0)
(167.93 -7.3766518 0)
(168.97217 -6.6047961 0)
(169.98997 -5.7458668 0)
(171.0235 -4.7715759 0)
(172.10078 -3.6095918 0)
(173.19882 -2.1494645 0)
(174.23689 -0.283672 0)
(175.09636 2.0709933 0)
(175.55508 5.0211999 0)
(175.07923 8.6518824 0)
(172.99048 12.560869 0)
(169.24008 15.548499 0)
(164.87502 16.589962 0)
(160.96305 16.18652 0)
(157.84942 14.906075 0)
(155.54875 13.277653 0)
(153.90343 11.592748 0)
(152.74645 9.9994714 0)
(151.93503 8.5548217 0)
(151.36275 7.2687981 0)
(150.95482 6.1297445 0)
(150.66047 5.1179041 0)
(150.44584 4.211906 0)
(150.28855 3.3914997 0)
(150.17373 2.638489 0)
(150.09163 1.9368566 0)
(150.03691 1.2725653 0)
(150.00801 0.63172771 0)
(154.10622 -3.1746422 0)
(154.19066 -3.218432 0)
(154.25726 -3.3056251 0)
(154.33337 -3.442587 0)
(154.41878 -3.6314125 0)
(154.51789 -3.8763367 0)
(154.63657 -4.1826688 0)
(154.78329 -4.5566173 0)
(154.97009 -5.004913 0)
(155.21443 -5.5341551 0)
(155.54113 -6.1488039 0)
(155.9822 -6.8468481 0)
(156.57613 -7.616251 0)
(157.37637 -8.4344533 0)
(158.45839 -9.251514 0)
(159.87445 -9.9432097 0)
(161.56053 -10.319198 0)
(163.32743 -10.264303 0)
(164.97958 -9.8315258 0)
(166.4223 -9.1679925 0)
(167.67815 -8.420554 0)
(168.82384 -7.6483149 0)
(169.91791 -6.8432899 0)
(171.00055 -5.9905355 0)
(172.13187 -5.0762762 0)
(173.3724 -4.0172831 0)
(174.71413 -2.6567775 0)
(176.06642 -0.82377958 0)
(177.31759 1.6273614 0)
(178.28048 4.9048235 0)
(178.24941 9.3242935 0)
(176.01486 14.539036 0)
(171.18044 18.684777 0)
(165.46555 19.69924 0)
(160.68607 18.768301 0)
(157.145 16.814429 0)
(154.73238 14.618177 0)
(153.13092 12.510072 0)
(152.08355 10.622139 0)
(151.39751 8.9789731 0)
(150.94359 7.5608943 0)
(150.63838 6.3338876 0)
(150.4293 5.2627603 0)
(150.28349 4.3159327 0)
(150.18046 3.4665318 0)
(150.10738 2.6920885 0)
(150.0562 1.9738223 0)
(150.02255 1.2958869 0)
(150.00489 0.64309173 0)
(154.4184 -3.2818888 0)
(154.45303 -3.3368702 0)
(154.48479 -3.4352932 0)
(154.52296 -3.5845852 0)
(154.56791 -3.7872887 0)
(154.62277 -4.0487204 0)
(154.69259 -4.3757614 0)
(154.78511 -4.7769304 0)
(154.91191 -5.2623181 0)
(155.09069 -5.8435269 0)
(155.3487 -6.5323464 0)
(155.72328 -7.3355467 0)
(156.25924 -8.2488456 0)
(157.02176 -9.259427 0)
(158.12509 -10.331454 0)
(159.68226 -11.318476 0)
(161.63051 -11.921679 0)
(163.68058 -11.933782 0)
(165.5296 -11.447057 0)
(167.04656 -10.689702 0)
(168.29271 -9.8960941 0)
(169.41061 -9.1400814 0)
(170.48769 -8.3825982 0)
(171.56139 -7.5845636 0)
(172.7178 -6.7492979 0)
(174.08088 -5.7703237 0)
(175.6869 -4.4104852 0)
(177.44811 -2.4052337 0)
(179.26713 0.45565419 0)
(181.04157 4.316443 0)
(181.90695 9.7683494 0)
(179.80578 16.842265 0)
(173.48983 22.972628 0)
(165.77 23.701628 0)
(159.92129 21.846465 0)
(155.96254 18.886793 0)
(153.55076 15.948794 0)
(152.10489 13.344251 0)
(151.25426 11.141998 0)
(150.75411 9.3049209 0)
(150.45822 7.7681488 0)
(150.28103 6.4682167 0)
(150.17314 5.3517124 0)
(150.10614 4.376051 0)
(150.06364 3.5077593 0)
(150.03621 2.7204028 0)
(150.0184 1.992803 0)
(150.00727 1.3076503 0)
(150.00157 0.6487813 0)
(154.35391 -3.2045338 0)
(154.32836 -3.2547805 0)
(154.31823 -3.3444917 0)
(154.31029 -3.4849487 0)
(154.3055 -3.6799874 0)
(154.30507 -3.9365392 0)
(154.31243 -4.2634706 0)
(154.3335 -4.6720044 0)
(154.37781 -5.1758927 0)
(154.46111 -5.7918054 0)
(154.6108 -6.5388854 0)
(154.86883 -7.4327325 0)
(155.28581 -8.4742244 0)
(155.93529 -9.6542737 0)
(156.98171 -10.956982 0)
(158.65309 -12.224762 0)
(160.92366 -12.981483 0)
(163.34126 -12.833227 0)
(165.42357 -11.981688 0)
(166.98436 -10.801848 0)
(168.15203 -9.7027881 0)
(169.18761 -8.7720899 0)
(170.22604 -7.9018939 0)
(171.28001 -6.9934665 0)
(172.45668 -6.1295857 0)
(173.97935 -5.2517824 0)
(175.94759 -4.0542599 0)
(178.25664 -2.2285937 0)
(180.72826 0.49438338 0)
(183.41898 4.0060458 0)
(185.6389 9.8508284 0)
(184.25861 19.150014 0)
(176.02863 28.880994 0)
(165.35013 28.743895 0)
(158.35812 25.441121 0)
(154.10745 21.038262 0)
(151.91428 17.167017 0)
(150.79415 14.013383 0)
(150.25478 11.502643 0)
(150.01128 9.4966329 0)
(149.91537 7.8683579 0)
(149.89062 6.5192552 0)
(149.89808 5.3766112 0)
(149.9181 4.3873254 0)
(149.94093 3.5121869 0)
(149.96195 2.7216184 0)
(149.97913 1.9927193 0)
(149.99144 1.3072471 0)
(149.99814 0.64851729 0)
(153.44551 -3.2349307 0)
(153.34636 -3.3088981 0)
(153.27829 -3.4181753 0)
(153.20439 -3.5787803 0)
(153.12718 -3.7948213 0)
(153.04557 -4.0741127 0)
(152.9607 -4.4264657 0)
(152.87581 -4.8645266 0)
(152.79731 -5.4042445 0)
(152.73748 -6.0658752 0)
(152.72206 -6.875647 0)
(152.79795 -7.862257 0)
(153.02306 -9.0415891 0)
(153.4699 -10.420542 0)
(154.34981 -12.040974 0)
(156.08483 -13.822099 0)
(158.76606 -15.067862 0)
(161.64635 -14.976679 0)
(163.92598 -13.999543 0)
(165.34706 -12.652281 0)
(166.17216 -11.597641 0)
(166.89349 -10.874426 0)
(167.72455 -10.269538 0)
(168.57551 -9.5749737 0)
(169.51105 -9.0953995 0)
(170.92277 -8.896747 0)
(173.02203 -8.3320147 0)
(175.71202 -7.0715066 0)
(178.62474 -4.4927685 0)
(182.47805 -0.73451212 0)
(187.20366 7.2329256 0)
(188.2882 20.240026 0)
(177.96428 36.705012 0)
(163.27098 34.998892 0)
(155.61004 29.563251 0)
(151.36084 23.125775 0)
(149.74316 18.111751 0)
(149.18935 14.404947 0)
(149.10052 11.636094 0)
(149.18892 9.5155878 0)
(149.33213 7.8402427 0)
(149.47993 6.4753337 0)
(149.61302 5.3310544 0)
(149.72528 4.3462366 0)
(149.81604 3.4778816 0)
(149.88676 2.694681 0)
(149.9395 1.9730061 0)
(149.9755 1.2943876 0)
(149.99468 0.64217377 0)
(150.24868 -3.1328923 0)
(150.00325 -3.1984511 0)
(149.83234 -3.2831268 0)
(149.64465 -3.4130713 0)
(149.44487 -3.5935424 0)
(149.22822 -3.8333954 0)
(148.99227 -4.143545 0)
(148.73564 -4.5388137 0)
(148.4588 -5.0392684 0)
(148.16562 -5.6724499 0)
(147.87169 -6.4784389 0)
(147.6182 -7.5128714 0)
(147.45994 -8.8283103 0)
(147.43898 -10.455567 0)
(147.76908 -12.486456 0)
(149.18092 -14.996714 0)
(152.12182 -17.000163 0)
(155.32265 -16.572296 0)
(157.46717 -14.807274 0)
(158.26242 -12.326009 0)
(158.2056 -10.481596 0)
(158.16879 -9.3284678 0)
(158.4471 -8.5761344 0)
(158.68019 -7.642426 0)
(158.81019 -7.1177967 0)
(159.74397 -7.0636031 0)
(161.84109 -6.0409796 0)
(165.00877 -4.9095164 0)
(168.73603 -1.9774676 0)
(175.1069 4.1611837 0)
(184.0884 12.180508 0)
(189.69538 24.110752 0)
(176.96042 49.660789 0)
(157.56532 45.428323 0)
(150.92605 34.350384 0)
(147.40989 24.818823 0)
(146.96156 18.512046 0)
(147.31902 14.367511 0)
(147.83657 11.467208 0)
(148.32467 9.3259889 0)
(148.7352 7.6670484 0)
(149.06677 6.3287221 0)
(149.32947 5.2115787 0)
(149.53491 4.251336 0)
(149.69335 3.4043321 0)
(149.81315 2.6394937 0)
(149.90079 1.9337228 0)
(149.95994 1.2691585 0)
(149.99132 0.62980378 0)
(143.48787 -2.9003771 0)
(143.09267 -2.9922615 0)
(142.78549 -3.0943501 0)
(142.44035 -3.2446063 0)
(142.06868 -3.447938 0)
(141.66132 -3.7144617 0)
(141.21023 -4.0565104 0)
(140.70615 -4.4912497 0)
(140.13887 -5.0424248 0)
(139.49681 -5.7426747 0)
(138.77375 -6.6394104 0)
(137.99223 -7.8030184 0)
(137.2053 -9.3064548 0)
(136.42622 -11.162536 0)
(135.81191 -13.426285 0)
(136.55868 -16.501548 0)
(140.13889 -19.582824 0)
(144.17048 -18.149771 0)
(146.32833 -15.508725 0)
(146.24992 -12.146301 0)
(144.70435 -10.877316 0)
(143.33226 -11.048692 0)
(142.75902 -11.574833 0)
(142.19714 -11.057292 0)
(141.34057 -10.473304 0)
(142.13348 -10.548318 9.2340309e-18)
(143.3899 -11.976143 -1.9945754e-19)
(145.67889 -13.632138 0)
(146.73972 -7.4872324 1.0036026e-17)
(144.07293 -14.522054 -7.5106442e-18)
(161.5596 -10.141882 4.4323917e-18)
(180.44258 5.4350586 -9.8946332e-18)
(167.97361 72.329583 6.3777236e-18)
(142.13729 58.074375 0)
(140.66973 37.162152 0)
(141.63627 24.733907 0)
(143.57204 17.852389 0)
(145.2994 13.710623 0)
(146.55553 10.928178 0)
(147.47794 8.904561 0)
(148.16084 7.3416818 0)
(148.67309 6.0781276 0)
(149.06072 5.0188513 0)
(149.35503 4.1038173 0)
(149.5776 3.292728 0)
(149.74376 2.5570555 0)
(149.86431 1.875622 0)
(149.94528 1.2320575 0)
(149.98814 0.61165409 0)
(129.54654 -2.8522538 0)
(128.77689 -2.9259797 0)
(128.18428 -2.9893687 0)
(127.52177 -3.0903791 0)
(126.80855 -3.2310481 0)
(126.02572 -3.4186323 0)
(125.15521 -3.6612441 0)