/*--------------------------------*- C++ -*----------------------------------*\
| =========                 |                                                 |
| \\      /  F ield         | foam-extend: Open Source CFD                    |
|  \\    /   O peration     | Version:     4.1                                |
|   \\  /    A nd           | Web:         http://www.foam-extend.org         |
|    \\/     M anipulation  |                                                 |
\*---------------------------------------------------------------------------*/
FoamFile
{
    version     2.0;
    format      ascii;
    class       volScalarField;
    location    "0.4";
    object      p;
}
// * * * * * * * * * * * * * * * * * * * * * * * * * * * * * * * * * * * * * //

dimensions      [0 2 -2 0 0 0 0];

internalField   nonuniform List<scalar> 
4242
(
-7067.2799
-6882.2716
-6596.128
-6265.4705
-5882.5999
-5445.1942
-4950.6045
-4398.9084
-3793.9251
-3144.944
-2467.0969
-1780.9098
-1112.2676
-494.9027
45.889467
578.17401
-9676.6068
-9451.736
-9078.7524
-8654.0726
-8177.8477
-7651.6441
-7076.5292
-6455.7522
-5794.3375
-5099.6374
-4381.5101
-3652.3896
-2927.8755
-2230.208
-1586.2326
-990.40843
-12696.011
-12461.789
-12045.56
-11571.858
-11038.426
-10444.2
-9789.4747
-9077.7351
-8315.0823
-7510.6967
-6676.9577
-5828.35
-4980.5779
-4151.1456
-3359.6255
-2631.6707
-15609.227
-15378.229
-14929.216
-14409.043
-13822.338
-13164.989
-12436.527
-11640.009
-10781.63
-9871.3849
-8922.8266
-7951.868
-6976.2197
-6014.7977
-5084.9403
-4211.1784
-16988.781
-16791.492
-16364.659
-15853.74
-15280.355
-14638.35
-13925.243
-13141.929
-12291.856
-11382.279
-10423.946
-9430.7186
-8419.0746
-7407.0096
-6409.8451
-5426.389
-16385.987
-16261.142
-15932.612
-15504.743
-15022.091
-14484.376
-13888.225
-13232.429
-12516.635
-11742.715
-10915.176
-10041.086
-9130.1374
-8194.6091
-7249.6047
-6302.8053
-14275.294
-14219.418
-14047.385
-13782.57
-13463.648
-13101.057
-12696.155
-12248.318
-11754.074
-11208.754
-10608.261
-9950.3373
-9235.5181
-8467.742
-7656.0436
-6805.8621
-12350.671
-12336.805
-12288.587
-12162.082
-11975.391
-11758.205
-11507.074
-11219.051
-10895.897
-10534.934
-10128.076
-9664.8412
-9135.4288
-8533.3075
-7858.6662
-7118.2548
-11518.113
-11511.954
-11493.733
-11463.309
-11392.335
-11242.372
-11043.46
-10838.516
-10611.056
-10344.756
-10032.861
-9664.7218
-9225.7964
-8703.1999
-8091.9943
-7396.8379
-11566.617
-11557.273
-11530.539
-11488.234
-11444.484
-11404.649
-11335.548
-11178.761
-10966.418
-10747.526
-10486.058
-10143.796
-9701.1717
-9145.0575
-8475.0928
-7716.6237
-12079.804
-12066.11
-12035.509
-11995.428
-11952.362
-11909.307
-11881.956
-11889.006
-11898.663
-11817.801
-11596.382
-11222.911
-10666.468
-9917.2951
-8972.6357
-7877.1642
-12382.778
-12364.389
-12336.223
-12309.146
-12286.743
-12272.274
-12270.53
-12287.466
-12339.517
-12408.872
-12421.577
-12464.475
-11977.915
-10959.219
-9594.8578
-7997.3857
-2559.8876
-2380.3641
-2107.3624
-1804.9366
-1469.7677
-1103.3806
-709.87983
-295.41976
131.56733
560.59955
979.48734
1374.7156
1730.3635
2028.5672
2268.9701
2502.2371
2330.8324
2447.8123
2626.9588
2824.7394
3040.5608
3272.2607
3515.147
3762.47
4005.1381
4231.8527
4429.7369
4585.2451
4684.4332
4712.0408
4658.7158
4552.3444
6942.0612
7006.9015
7106.5649
7213.6099
7324.5801
7435.7407
7541.0858
7632.6611
7700.5264
7733.1165
7718.1339
7643.546
7497.5717
7268.5729
6957.2636
6612.1264
10674.41
10698.88
10735.751
10769.843
10796.03
10809.041
10801.697
10765.033
10688.438
10560.191
10368.452
10102.013
9749.6362
9300.9449
8764.2266
8201.5799
13172.811
13173.364
13171.26
13158.744
13130.117
13079.025
12997.485
12875.913
12703.401
12468.389
12159.654
11766.709
11278.766
10688.41
10022.51
9393.1823
-16891.657
-16591.759
-16074.32
-15488.437
-14825.52
-14084.327
-13263.973
-12367.734
-11402.649
-10379.969
-9315.1705
-8227.2456
-7137.5394
-6069.9022
-5052.4415
-4120.7198
14131.74
14122.097
14102.842
14070.091
14018.659
13942.065
13832.384
13680.283
13475.28
13206.345
12862.915
12436.068
11919.071
11308.868
10611.587
9859.1764
14224.241
14216.329
14199.794
14170.004
14121.457
14047.362
13939.397
13787.791
13581.686
13309.875
12961.918
12529.369
12006.992
11395.257
10707.805
9985.6925
13739.934
13733.838
13720.553
13694.864
13651.304
13583.258
13482.515
13339.338
13142.822
12881.652
12545.097
12123.389
11607.481
10995.385
10321.427
9684.8414
11909.327
11917.969
11929.592
11934.305
11926.726
11901.05
11849.794
11763.867
11632.806
11445.448
11190.916
10858.879
10437.682
9917.053
9315.8948
8735.9881
8766.5933
8805.5617
8865.7278
8927.7946
8987.4437
9040.4602
9080.7149
9100.3473
9089.8284
9038.4142
8935.029
8768.5311
8525.111
8189.5264
7780.0372
7423.7596
4641.6338
4723.4609
4850.66
4990.515
5141.013
5299.9458
5462.9125
5623.6548
5773.7884
5902.8803
5998.9859
6049.1242
6038.4733
5951.6403
5788.8481
5580.6394
135.4657
272.11149
483.39381
719.05371
980.3634
1266.2457
1572.9615
1894.5146
2222.3535
2545.4094
2850.6352
3123.4664
3346.4858
3499.598
3587.5114
3682.972
-8195.6861
-8198.5573
-8180.6678
-8110.3316
-7973.1996
-7771.8496
-7512.0781
-7215.0668
-6960.8757
-6846.751
-6990.2223
-7656.7627
-8371.3338
-8797.1276
-8989.4251
-8989.9404
-7750.362
-7760.2983
-7765.7116
-7739.2477
-7660.9023
-7552.7496
-7436.0673
-7285.2911
-7021.8686
-6736.6536
-6653.4227
-6869.3982
-7226.9965
-7565.5718
-7821.8904
-7977.2362
-8650.8197
-8650.8647
-8643.1741
-8625.3896
-8594.3536
-8512.4613
-8323.0051
-8086.0864
-7890.4107
-7739.2123
-7627.4263
-7577.0915
-7586.2625
-7616.8472
-7621.655
-7561.4707
-10220.234
-10199.178
-10162.753
-10093.109
-9942.623
-9733.9637
-9514.7606
-9284.6941
-9049.3699
-8821.3749
-8605.8113
-8400.1653
-8195.1956
-7974.1837
-7715.611
-7395.3019
-12730.997
-12681.279
-12561.669
-12362.375
-12108.98
-11817.89
-11500.994
-11165.59
-10811.752
-10435.093
-10029.883
-9591.4211
-9116.8222
-8604.3216
-8052.6903
-7460.4941
-16430.558
-16334.87
-16059.087
-15671.133
-15230.048
-14745.971
-14216.99
-13641.335
-13016.694
-12341.536
-11617.409
-10849.482
-10045.863
-9216.1521
-8370.4308
-7514.9387
-19673.372
-19490.212
-19039.484
-18482.498
-17862.338
-17173.848
-16412.773
-15579.416
-14676.276
-13709.325
-12688.892
-11629.033
-10546.359
-9458.7343
-8383.8246
-7333.7329
-20904.407
-20644.453
-20100.956
-19463.474
-18746.111
-17942.384
-17049.975
-16071.046
-15011.317
-13881.404
-12697.184
-11478.917
-10249.693
-9033.4668
-7850.0083
-6703.1322
-19675.837
-19383.972
-18832.633
-18200.982
-17484.943
-16680.798
-15787.432
-14808.146
-13750.154
-12625.246
-11450.078
-10245.818
-9036.6981
-7848.2676
-6704.5935
-5637.7283
-13829.096
-13551.012
-13092.684
-12569.785
-11977.665
-11316.854
-10586.489
-9788.9583
-8929.496
-8017.1313
-7065.3099
-6091.8105
-5118.8988
-4176.8253
-3301.6247
-2484.7417
-11251.788
-11012.686
-10642.154
-10209.763
-9704.6736
-9123.4122
-8461.1958
-7717.7967
-6898.7571
-6016.9599
-5093.3142
-4155.6447
-3237.776
-2381.234
-1618.9033
-890.10044
-12246.008
-12226.71
-12198.907
-12175.638
-12162.953
-12166.703
-12193.661
-12249.824
-12340.804
-12478.476
-12638.788
-12599.853
-12334.221
-11040.405
-9360.3759
-7547.3496
-10866.939
-10866.159
-10872.108
-10891.744
-10929.678
-10990.775
-11079.279
-11197.42
-11351.107
-11557.406
-11808.438
-11929.573
-11516.261
-10469.526
-8991.4942
-7156.1324
-8526.5461
-8537.8051
-8561.1442
-8601.951
-8666.4592
-8761.1284
-8891.5032
-9060.6211
-9267.7444
-9508.1275
-9757.826
-9932.4978
-9850.3216
-9337.9789
-8298.8539
-6812.1046
-7453.4397
-7466.6924
-7491.0281
-7529.0109
-7585.058
-7664.371
-7772.3869
-7913.7267
-8090.3414
-8298.0574
-8520.0885
-8713.9362
-8796.2252
-8643.3945
-8130.6378
-7258.0536
-8069.6438
-8075.701
-8087.3657
-8109.0547
-8145.4076
-8201.3473
-8282.1512
-8392.7211
-8536.1645
-8711.4125
-8909.2968
-9107.2712
-9261.0443
-9294.9594
-9117.1047
-8698.0218
-10186.974
-10169.342
-10141.099
-10113.32
-10090.988
-10078.55
-10081.658
-10106.733
-10160.14
-10246.646
-10366.879
-10513.747
-10666.832
-10782.06
-10807.008
-10746.794
-12712.309
-12664.434
-12585.75
-12498.53
-12407.419
-12316.157
-12230.71
-12158.928
-12110.387
-12095.59
-12124.316
-12203.516
-12334.176
-12502.238
-12661.087
-12763.963
-14654.463
-14583.062
-14460.255
-14322.349
-14174.277
-14019.028
-13862.992
-13715.291
-13588.196
-13497.053
-13459.38
-13493.329
-13616.04
-13835.14
-14108.638
-14329.799
-15398.521
-15324.147
-15181.679
-15017.856
-14841.837
-14655.232
-14464.263
-14279.151
-14114.548
-13990.255
-13931.397
-13967.772
-14133.417
-14463.442
-14945.135
-15257.903
-14640.437
-14585.118
-14459.392
-14305.106
-14139.322
-13963.702
-13782.346
-13604.021
-13442.607
-13318.631
-13260.81
-13306.804
-13503.666
-13889.321
-14416.565
-14716.184
-12660.517
-12631.372
-12549.408
-12428.666
-12285.697
-12125.084
-11950.693
-11770.017
-11595.265
-11445.347
-11348.554
-11346.959
-11527.33
-12011.963
-12677.813
-13164.41
-10793.987
-10782.289
-10750.087
-10666.574
-10528.169
-10345.283
-10129.3
-9891.9847
-9647.3366
-9412.6263
-9210.671
-9011.5606
-9066.9892
-9425.7669
-10017.57
-10545.449
-3284.1399
-2996.6089
-2816.3503
-2495.5719
-2119.7305
-1706.1297
-1260.4406
-787.69809
-298.6773
192.40542
668.92459
1109.9322
1486.1268
1789.9073
2119.2089
-6598.2718
-6262.6769
-6039.6616
-5622.131
-5136.0305
-4597.6239
-4012.1263
-3385.3061
-2728.3417
-2058.0879
-1394.6358
-762.34859
-193.51151
304.11002
804.56744
-9570.4187
-9608.713
-9428.3445
-9161.9456
-8887.4398
-8611.5522
-8352.2512
-8136.7892
-7969.2038
-8149.3784
-8438.1412
-8610.3397
-8791.6773
-9132.5552
-9480.2002
-12299.909
-12240.032
-12237.967
-12237.245
-12244.221
-12268.62
-12314.076
-12373.931
-12445.285
-12675.486
-12763.067
-12297.372
-10962.663
-9360.3138
-7564.7429
-3682.0391
-7117.2664
-9552.1729
-12380.207
-5286.6661
-956.91118
3878.3253
-958.16295
-11847.033
-228.83357
1475.241
1796.5056
1544.0301
2266.6815
950.39619
-412.76267
2951.8997
-1317.1456
1971.4376
-6235.7655
269.83971
-3678.7947
-3275.6479
-1140.0333
-11727.973
3009.3856
1613.0286
1969.9287
2199.5658
-1078.2962
-792.61279
-607.31904
-1317.9202
-1395.6604
-991.24303
1265.145
-774.92234
-1041.6072
2555.7848
-990.16645
-605.41964
2449.1172
227.32928
614.78434
-2353.5731
-236.26337
1777.555
-1993.5197
1523.4588
4661.5723
-745.69578
2067.7232
1681.5225
1412.7343
-5105.0377
6881.9995
3658.2623
828.94366
-3219.8137
-1368.8644
1525.7985
1730.3031
1729.9069
-977.98672
-981.89294
1675.8424
1389.2449
425.57543
-6930.9427
884.8696
-101.62192
-740.41296
349.39019
-719.67302
-852.23005
-5944.6453
-509.61093
-206.89755
3.5762235
1628.8123
-4891.6283
-1227.2215
-291.45121
1208.5993
-487.4279
-4629.1325
-1384.3505
-717.25095
57.01298
-554.83022
1732.2992
99.418997
-6370.0875
8.3705983
-1338.1767
89.231462
4914.5774
-72.359159
2486.1215
2627.1579
58.210364
4179.9021
-8483.5804
2929.8072
-206.67296
-943.18252
161.28857
-523.55294
-981.83065
-1334.1118
-74.129905
-150.0684
709.25587
-1999.395
-3689.1602
3414.6948
363.84873
-2264.8004
-1412.4767
-273.77373
3699.1325
266.8898
-358.01508
3254.7417
3859.002
673.15118
-13143.704
-731.32933
-6184.3009
-8199.0316
606.45854
-6381.852
-7521.3377
3087.672
1344.6546
-2091.9672
44.488463
-242.5395
-373.593
421.03403
4443.5738
140.78547
-7910.7225
-905.83597
2219.9191
-944.15926
-11097.391
-4698.8348
-46.622386
-26.201105
-1335.0027
-5862.4071
-468.9543
1603.0769
1317.564
-763.63299
-911.92458
3434.761
-127.06147
2081.9784
-4632.9306
669.77497
-132.49366
83.782199
-6255.085
-6760.3717
2593.0527
2973.5897
1160.9347
-40.271027
-480.23874
1371.199
-2269.9699
-357.70086
-4132.0889
4697.5696
-2142.5626
-577.60871
-681.15019
2346.1377
1102.5303
-345.86351
-795.74098
-661.53081
1787.1196
-1988.954
-1556.9217
-500.6179
-2042.4025
1919.6002
2684.887
-1157.598
-1487.2967
-1406.9219
12.019634
-402.03738
-885.20359
-9925.3356
413.99927
2012.2324
-615.63432
28.913852
1559.3723
5212.8083
1795.6013
-1889.406
-2906.5148
1451.3323
3002.9029
2083.3578
2824.4306
-129.03457
3434.3429
295.07868
-743.92055
-683.83489
786.2367
1201.0525
23.923357
-260.03258
-201.7301
2094.9247
2861.4825
-1667.9128
99.493077
214.95579
840.35376
50.687218
525.66838
-8041.1356
3078.6923
66.275826
-727.11517
-2327.8704
-10322.255
4278.8061
-22.964366
155.00971
-890.39151
-425.55803
-262.9824
2584.2889
-870.13245
11.489604
-698.35845
6.4748694
-426.64363
-57.263262
3727.5097
1140.7791
-1007.5671
1760.5784
429.02942
716.32813
2202.4649
4971.1213
284.94216
-290.62977
-3109.9474
-39.590857
2761.1058
-1720.444
-185.77303
-807.69811
-988.78246
-65.90522
-81.158294
-176.5433
790.2827
-589.38176
-368.81943
-1230.4492
217.52567
270.26568
1637.5856
434.51417
719.14129
2960.3545
-4050.553
-580.84138
3515.4421
3101.2766
-948.47043
-668.26644
-8390.2225
-1161.6514
-107.77048
-1432.6167
-4132.9919
-12277.085
-754.85811
1031.6575
-2403.7671
-1002.5876
1860.715
-3416.941
-1979.7565
69.789718
4031.308
536.10907
-437.27056
2237.0216
-196.20353
-902.68026
-444.48477
-1406.762
-339.79123
3891.6568
5314.0783
1097.9227
-190.83409
1290.7036
-908.8053
2575.3911
-3176.8748
-824.55989
53.516377
-285.5147
1243.8317
-560.14023
-2346.3339
-111.84165
5952.0742
-1426.5571
-911.33838
2810.305
31.736503
8.3939277
-183.09395
699.44224
-92.931458
450.71297
-19.946162
-191.84459
6966.5535
-442.31855
1943.1178
1999.5664
-1541.7943
-1926.5473
693.09024
12.596568
-294.53797
-263.93109
-636.24311
-563.44546
-511.08079
3299.8408
153.49413
-750.63002
-1439.7531
-243.04164
-842.21384
-97.624892
-120.16543
-8589.4501
-3297.6768
1896.8397
-2840.4639
-1680.0566
-936.34527
-977.602
-6273.6436
1666.1567
-1604.7082
2045.0539
-471.2778
-7123.3553
4218.5325
2741.9749
-2474.5308
-4844.2778
357.23606
2965.6725
-2239.2797
-700.37581
5663.6043
2107.9093
1263.1619
-1871.1852
-4507.7035
308.09687
-1804.2779
601.50062
-875.39864
2945.8814
2715.2632
-1191.5378
-174.67675
1005.3371
-6478.88
-172.70961
1256.8937
-2487.8854
-428.26135
-1511.3233
-3233.3307
-327.81202
648.31226
-844.61417
-1731.9446
-1893.471
6413.954
-413.4667
-50.895922
-6912.7041
0.78238698
-1376.9536
2337.7094
-7499.0305
-746.24779
-281.31523
1812.2858
-716.48122
804.42866
1802.08
-171.41944
-982.5275
817.10363
1302.2198
1608.9922
137.35218
-896.56892
-78.21678
-1557.8165
-1702.7309
-873.0585
1652.8724
3061.3407
3938.9011
-2983.1946
-482.31252
2681.1031
-725.33722
1660.7955
1345.8773
-488.99483
-78.482939
-9218.9984
1203.9226
-122.38882
-695.67861
-1218.2087
629.63563
-3170.3977
-7240.4664
855.32173
-247.81654
-1020.632
-496.18427
-342.93917
-94.212749
-847.33316
1998.5944
-172.10009
-2378.9618
-1548.43
-499.60821
-530.13822
-2205.5088
721.35082
952.84505
-345.20434
1386.0712
1683.6136
3323.3997
-366.67376
-7.2153579
1564.1253
1847.6761
1916.6237
2331.9451
3115.4829
-2048.4743
-6847.3887
-519.27326
3830.6086
-1359.5763
-660.72239
-119.36521
-29.143416
-385.09747
7058.2284
-1010.5729
-781.49753
-2761.873
-1274.234
-91.249305
-1817.8358
-1742.0789
-979.79689
2167.3141
1863.8381
-2829.893
-4435.8618
-73.747281
-568.40097
-827.02985
-2322.433
-8361.0905
1143.0574
-3002.4921
-507.59748
-887.47399
-2841.9604
614.89046
3832.4741
1598.0206
1297.7829
-450.92022
-5722.0468
-974.88391
-104.50674
-4168.542
-261.93445
-319.89755
-1367.7946
-952.20913
-2863.8849
-6342.8069
-623.44025
1713.7378
1269.772
2080.0922
-59.102523
424.9985
-316.62748
-340.9486
-3534.6463
-681.47092
-2774.8913
-435.90179
-6482.323
3127.8059
1651.5154
-5921.8046
2940.4841
-65.633851
-7555.6513
3056.0649
1460.9351
1718.7985
1783.9465
1701.4025
-6077.1935
-1404.7126
-846.0218
-332.12302
-1404.4666
-12718.443
1899.2357
2176.0944
-2222.804
-465.79435
649.95586
333.59539
-220.12307
2795.2645
-886.70085
-77.108976
-15.6953
-6573.9016
4016.8998
-5605.9734
139.12895
1023.3001
-6074.6288
-1667.2453
-311.41359
-6683.1291
-4133.354
-2411.8425
1735.6215
2009.3185
997.93289
-311.30021
-3248.1179
3036.0307
3769.4749
3879.002
1728.3377
-1984.6744
1887.2665
2929.8473
4153.7076
2471.0159
5068.0498
84.765506
1665.0477
2407.8896
-356.69341
-866.23059
-2310.2065
2413.291
3319.0734
2985.7641
-4839.8662
2071.9805
-823.33364
7107.2114
2773.3436
85.886027
6852.7164
3019.8977
-1864.6517
-79.028461
-4963.6311
6661.0545
-525.07762
-6298.7631
2717.7254
-993.00972
4794.2349
2962.3346
2716.7229
-820.54459
-56.932621
-6667.397
2745.8563
6805.9589
1475.9684
-778.66093
2423.311
-1908.0534
-12773.668
-510.53509
-2244.9961
6938.5486
-4474.6368
41.174007
502.19001
3961.9104
3531.9141
-7230.4817
-1161.9729
-208.11519
2570.4419
-9984.0979
-2853.9711
-1181.9125
-1837.7086
1613.2732
1333.8759
-1623.9503
-998.75664
917.76179
-2046.1768
-950.4867
-2048.417
2436.2027
-480.91981
-706.98496
-1283.359
6378.3138
624.11509
1442.1486
88.990419
52.429174
1961.6952
-2245.5814
6614.1323
-891.95579
26.921156
2376.586
-393.79298
-1238.5917
18.909983
-1401.4861
403.918
117.39349
-1466.3702
-690.45058
4415.2625
-10530.417
969.16739
1641.4186
-124.39873
3258.4585
-297.37397
3995.848
-779.94354
8262.5339
-7616.6055
290.71176
-2175.387
5284.619
-9715.2788
62.431174
-271.90481
2649.2787
1283.06
-7794.2028
2146.0641
2536.8447
-3326.35
-4746.808
-90.193085
-3790.6347
9.860133
-3516.1391
-1747.0417
-225.27078
-1031.944
-253.52013
-294.68845
2868.3999
-782.60432
-6006.9754
1539.0994
640.1674
98.930914
1336.3498
-869.09695
-1258.628
-3322.7362
586.32472
-12449.558
-1004.7118
3719.6532
-2920.3275
-501.58803
-902.19791
-3643.9585
2023.0957
2826.8204
91.272991
-2168.9519
26.34931
2776.7724
2523.3811
-1470.9104
1437.916
221.79603
737.83882
-3212.4736
-6872.8601
1948.4684
-7053.4298
-9915.0021
185.11175
-4251.9049
2378.285
1193.583
-1903.0439
-359.95503
-768.18783
-1531.1346
-327.51129
-1759.2505
-54.041028
-72.012189
122.87138
490.27703
-79.863704
-2598.8139
477.20359
608.51979
-9401.7737
-350.32122
-866.98323
-3403.2498
-1962.7346
4538.6042
87.902163
1783.353
-919.98354
1841.8571
-3805.0415
-2469.3394
-5630.9984
-3521.0013
-644.86315
663.02589
-170.04692
326.94749
-843.38424
1337.7812
-1271.6573
2670.9359
-1082.4574
12.987651
2003.0042
2749.5164
-855.8515
3908.8873
-1736.0347
9097.483
-7375.5637
-1458.4063
-809.16882
-292.90941
-411.04995
3193.1643
-920.45634
419.28133
-177.15925
-135.36919
-1680.1206
-839.87602
296.28658
-315.7176
-146.61376
3804
15.380355
2561.7916
3128.6328
2761.4237
2741.5598
2611.5438
1692.6315
-255.07801
-3186.9494
-3341.5961
-859.714
-33.744664
988.38578
3975.662
-1795.4275
-2908.0102
-2742.5478
2849.6872
-692.21431
2999.5632
2104.2158
187.21295
4478.0544
1295.7737
1013.4305
-1661.3128
220.66005
-82.89439
-449.54827
-382.62097
6867.2374
1088.6314
721.38795
2282.033
1083.1346
1131.5187
448.1409
-216.16559
2911.3481
579.64746
465.60309
-1529.9611
2198.1794
-310.65808
1481.2911
901.08776
107.62266
-339.23628
-3108.4613
2634.4313
-1069.9626
-1485.0235
205.18566
79.107656
-4879.6757
1707.6186
-1909.6855
362.73023
6885.0414
-477.71577
6308.7996
-3766.1496
-630.23053
1468.4748
-859.30642
2147.4667
124.29326
3376.789
-158.20927
2694.6752
-780.90933
-1665.8194
-6265.0568
-1959.853
1908.6154
-143.31408
-799.59789
2821.7942
-299.72124
-7254.9718
-1570.9771
545.21765
2631.0996
1990.8845
-323.29054
1649.0311
674.41887
-2901.8121
1439.42
9017.719
-2325.6224
19.019394
391.55177
6368.15
1865.1291
-4799.9399
-205.26971
307.01093
297.33243
14.2782
-1433.3008
-1086.3137
1950.5336
-2552.7478
772.48261
-6070.008
487.90575
-395.87074
-1045.4092
-640.66565
-724.38702
175.34332
1754.8687
-321.97768
959.7701
945.66197
3261.1667
2312.4201
4130.0491
2674.5084
-4509.6182
-2927.4871
-216.88694
-1911.1459
-174.18686
-4229.1929
-3544.9377
22.386399
453.9082
-591.3619
2832.9377
-3822.31
111.90175
-1265.1366
1012.8684
-13235.336
1213.9624
-452.7731
43.248833
-3533.4266
-941.97623
342.88645
190.60058
1009.6803
2071.2298
1775.8118
8276
239.3888
-539.1891
950.49567
-1248.6555
-4398.4024
-3524.049
-4064.605
-3145.4201
-289.1578
3900.4662
5785.9609
-3881.6184
-403.86596
3333.8847
-4351.7773
-766.77353
-1562.5843
-422.77448
-4379.9809
2283.868
1521.1872
2029.1113
-213.33035
-3977.8939
-815.92339
3039.1824
5324.244
-1658.9106
1564.4413
5263.5143
904.50586
-447.06015
-468.18467
3636.0627
-1696.1722
-646.74503
-226.04895
-429.24448
738.63109
-10504.707
7782.4124
-1320.2109
-8872.0115
-332.33696
-916.08249
5393.5813
-3247.3269
-10672.254
-1022.5679
414.3874
-354.68044
-3001.1192
1421.4865
-676.37725
202.0939
-4708.9031
-927.93067
2532.9918
4817.2764
-1608.5997
-2205.2625
3399.5047
1064.076
1419.3148
-453.90856
-5481.1812
-588.78945
-841.81462
1682.4244
-1223.457
-446.02612
2033.3179
3071.7793
1845.478
-2162.6581
-261.39773
-297.63287
-1008.7317
53.162175
4320.0903
-11883.096
-246.87347
2778.6751
-1263.7804
3253.1001
434.67917
435.41482
2282.7711
5163.6635
-5900.8476
-3378.3957
-285.31915
-235.71382
80.986564
-6605.3084
-272.42932
2777.8285
-2136.2086
124.16184
1973.4432
-1230.7297
-1129.0881
-3418.8579
-5236.506
-381.99795
-1551.4964
1828.5745
-697.82198
4019.5762
-4494.8121
-1870.072
-11498.091
-643.53932
-9455.4954
-297.10363
-2820.3716
2583.6623
209.81187
1222.047
1514.2291
-2940.3453
-947.34835
-2109.3621
-235.03711
422.68204
-3126.4485
-2340.3822
-135.32898
-959.82154
-515.79442
-3553.1417
-513.16953
6173.8787
-4331.5671
4627.523
-980.31643
-366.25391
3160.5637
-1031.8105
-1074.0581
-5205.2229
-882.29054
7719.127
1141.4509
-3857.9004
-1321.0307
2060.0746
-5981.605
-403.74224
1211.7601
4099.2335
-704.59828
-665.47114
-374.94993
3410.7535
-223.37673
155.06888
-312.45282
-2780.4125
-42.75014
1518.9068
-949.05315
420.28996
1654.1941
129.38493
-2083.6766
9246.1507
1313.291
-9537.2117
-1938.5981
-3330.667
1839.9943
-637.63157
6201.1293
-157.54659
-5627.6505
-10032.335
-1765.8631
-11146.023
-2391.019
-384.20803
77.763996
-1024.0791
-410.83974
-84.379903
-995.90408
2426.8691
-2973.5819
-5280.4316
8433.4125
-2363.1235
2764.6941
-2975.9886
2441.4178
2590.196
-645.66608
4691.1422
-12857.441
-640.2503
2258.4339
-453.8088
-114.71984
1637.5707
-1075.8377
-377.59175
-3747.4769
-4794.3919
-68.148367
-822.80356
-442.48146
194.37858
-1581.4578
-305.68788
-332.04187
-2876.0384
-730.79556
-609.93445
-723.83191
-29.42291
-208.33181
-3152.6801
1171.5604
347.07572
1555.6073
-5352.8946
3309.4217
-646.67905
-2502.2161
3299.8516
-100.97211
-6266.734
-506.99013
-2079.0006
-2085.347
2288.385
-385.75605
-4565.3647
17.968633
3903.1657
-2665.0874
2035.8808
57.276649
289.23334
-5320.399
-12299.21
-721.66209
-3687.6084
-247.51003
-54.728482
-2102.6754
2582.5817
-5314.2525
-138.72886
2134.7554
-177.31404
-2039.9178
-2680.9014
-156.50334
-607.72941
236.56628
-1122.5239
-562.749
8614.4695
-151.27575
5556.0178
-1933.1009
5939.1891
-2205.7659
-6837.8144
-1500.4181
1837.8656
1844.3555
3402.4245
-2009.9333
144.55946
3854.7458
2389.3122
-311.2827
-1610.4405
-186.09147
3159.7193
2163.9349
-35.090002
-206.58637
-399.65778
-771.20905
587.39622
2647.6507
-13465.152
-12560.5
1344.955
-5844.4266
1998.471
-2637.8752
-838.32872
-859.37989
1378.8735
56.650112
6445.7327
891.49866
-1235.4947
-3.1159343
3220.4176
4772.2746
-4786.4857
648.51494
-1100.3847
-9341.8817
7672.5371
107.34767
1590.6504
2720.606
-275.52744
-137.64905
-2026.2509
-4798.9713
2966.3388
-122.60332
-900.5623
-4219.3314
2415.7333
126.55681
-1553.702
-339.47546
-22.925351
-261.56573
-270.16899
-10926.558
-2666.8115
-777.03441
-192.9806
1192.3067
298.25931
3131.9095
-5983.8964
-2472.7791
-3229.4551
-36.908048
3041.8077
-435.86462
-3316.3104
-2651.9577
103.66863
-14645.453
-2502.9729
-6738.1377
-3340.8818
109.67059
3046.1656
2644.4157
-344.69134
-5541.0242
150.05395
-1348.7965
-12784.621
3525.8989
-4652.0071
2807.8226
3502.6894
-208.88321
5431.008
7979.3397
2158.262
287.22362
-45.350384
-7389.82
114.87625
3763.8541
2143.4615
421.51679
-1494.0255
5245.3421
3893.4225
-342.32171
-33.371735
-2862.2668
81.641296
3764.6994
1624.1428
1901.3801
-4000.348
-818.65149
-2460.3331
4607.782
-6707.4187
-1173.4852
-985.0097
-443.94163
5234.239
58.403585
-201.2495
-718.61255
2417.6839
-852.10964
185.79923
-3349.3721
-283.3529
63.829921
-4267.0856
-1967.4095
-3910.956
-90.948755
-6347.9
813.14412
-474.51104
1748.5433
-7746.5261
-242.56227
-109.69815
-1039.1082
-168.58453
-592.5259
1500.4696
-1320.1041
1793.0171
2142.9918
-3497.2825
-4652.8863
-1867.8798
381.92643
-187.77934
-61.972606
-952.16484
-500.55119
2330.9144
-2647.5186
272.20197
-2975.2313
3776.4706
508.45226
4662.4688
-911.72834
-358.94941
-5934.2856
2478.5141
-6694.7696
3293.8181
-237.52986
-1607.8433
114.52786
968.26003
-343.127
-7797.1521
-783.39119
2066.165
-323.52786
2775.5878
40.398562
361.47994
125.23221
56.711105
3568.3664
957.15108
309.78768
431.56916
1995.7875
-917.30967
-620.74571
-255.91276
-69.107621
-1394.9542
6658.8784
-1717.723
-121.07282
-1330.6141
2931.3536
-2804.8946
-1732.4758
-2687.122
2276.1552
-7043.8959
-318.6311
110.90657
2582.5711
-284.948
2579.0709
-337.55352
-1349.7103
-537.99496
2878.0234
-1528.4096
7207.792
-4244.7655
-2020.5721
-2279.4292
-2124.5239
-3412.5739
6853.5169
2670.0661
-15428.597
-4769.5931
-674.82751
-51.669906
3390.1161
-49.604154
2802.3697
4328.3138
-24.272623
-2479.0242
3955.1091
-3289.2681
1889.6329
-652.58978
1855.5135
-13882.673
-1547.3913
148.54724
1108.0431
1396.6623
-2399.9203
-4228.9149
57.460821
-1227.2167
-5430.2948
-902.51735
-142.36823
-468.25058
-8956.2017
-1198.6415
-427.44211
-1523.7848
-639.52344
-164.09265
1628.5803
-1634.8964
-3866.9312
-2116.8008
8241.163
3225.4925
1514.3604
1210.659
-4341.689
182.77429
-2573.1047
-1456.8487
-1869.34
1809.3214
1559.923
-4001.1564
-1847.6081
-1603.45
2000.3813
-3469.5274
-14335.951
6289.5625
5102.0367
765.39414
8853.1603
-14511.65
-2911.5989
-214.44566
-7552.8916
7595.1217
1536.4989
-4526.3155
-2064.0643
890.73626
7.4864135
102.31725
3259.2961
7633.637
-1635.941
-3761.5103
-828.4371
-3130.0177
1178.9766
1715.0124
-1558.8439
-2415.8081
-3867.1546
1443.6257
-750.13996
-2747.5129
251.48203
1972.4542
-560.50873
-540.14821
-2783.9453
2711.1185
675.184
-5238.5546
1610.9816
-13718.857
-3956.7017
-765.64618
-689.25818
12.782893
3075.2128
2831.4626
-3258.506
1925.1932
7984.9057
-5173.0526
86.473663
1917.7094
-100.60885
2376.791
5916.226
-443.26596
-2502.7723
49.768258
-4642.0773
-2515.138
2506.0937
-75.298535
-182.76649
2532.4606
-3063.6575
-1887.2606
5447.0187
-4854.3973
-1208.6201
1179.4145
-404.76443
-114.65184
-276.68498
826.61076
-3810.8487
2922.6514
-2293.5437
3581.4942
-4653.9795
-392.17195
3654.4551
-8472.32
-5116.9673
1849.2527
-5080.5143
-5456.6664
-5445.7589
-4681.2008
-5655.0636
4501.8936
-2109.0882
-2526.7833
-766.34222
-231.80589
-2456.6608
338.14273
-1235.8868
-2602.2287
-842.4893
-1399.4028
-352.90178
-62.076807
-2331.7611
-1009.5507
3406.7935
-356.7418
3905.5267
412.06845
955.87247
3450.5676
-1543.4379
-7046.231
-5228.1509
675.93712
-5972.9863
-828.65321
-420.42158
-2612.7347
-481.11676
1397.4526
1065.283
3541.9985
106.95065
-1773.8926
1757.5723
327.83926
-585.32903
-1725.6958
-1459.6758
4546.0518
1137.8885
131.27808
773.17318
-60.494927
78.83231
-535.56805
7934.1796
316.78595
-13568.482
-3911.5397
6054.6926
-1461.4585
-754.31397
807.09744
1959.3688
4754.0913
-318.94568
-517.84531
-1939.383
2922.5758
1596.8125
2539.5775
-1934.8077
-86.058026
3122.8198
-1879.7678
-1258.9043
-8.3708659
236.19378
-413.52308
-409.79285
6397.6003
-1735.2488
-420.00836
-11427.305
400.11661
-2354.3169
-70.299547
-2165.4475
-5956.8043
514.15805
-4555.0889
-4961.7293
-1629.666
1413.4318
-8167.8534
7595.7348
-988.59004
-1456.6772
-294.96065
589.52848
468.48864
209.33015
-1944.7516
2487.1593
42.050708
-2006.3613
2328.3137
46.588
2981.0138
-4213.7709
2471.5386
-2042.0239
205.38322
2507.4409
-4673.3714
1825.3116
-10474.91
-319.23437
2785.1448
95.109102
190.69288
2547.736
-385.19024
1478.2049
-5645.7494
-1763.69
-1842.3673
-2010.7226
-8680.3312
501.71065
-669.4788
1978.6224
-385.11218
-989.09702
2446.234
-487.65042
-974.25926
3736.927
253.45406
-70.03926
7410.57
4210.9569
1333.2578
-261.01639
-1285.3915
132.72251
-2659.6069
2551.3234
-1413.9305
341.61514
-74.917744
-140.50428
-143.07161
3831.7307
624.07575
-2113.1533
2848.4002
-660.04616
328.00813
29.167535
-2471.1526
-14884.889
495.50235
-1690.9028
-1209.7353
2601.7651
7581.7458
-112.96242
-83.681281
-853.88808
-5262.7187
-100.7963
-4115.3673
-364.73604
-310.39912
-1568.9339
-2760.9213
-14212.856
-1245.9023
-1575.7025
19.311219
-1452.945
-7468.6438
4574.7266
-30.556995
3377.7946
1075.0039
3427.1133
4065.0692
238.97207
-3600.3415
3010.6384
-305.66778
955.66676
-14999.585
3083.341
1920.5177
-2945.3022
1647.0816
-5315.8075
3152.3519
-1838.4682
237.08936
321.39665
1839.9573
338.45167
-87.528052
3156.3502
1375.3963
2513.5798
-1431.7396
-273.66813
2282.0986
1876.9398
-995.47658
36.463508
-492.03479
-663.27244
-1833.8371
47.565623
-3601.2672
1815.9208
-333.60392
2300.6446
-325.41104
5507.4213
2192.723
-553.71187
-10070.41
1498.9305
4809.0272
-1846.2395
-511.65421
-1117.5607
-2213.7033
16.003506
-1065.977
1167.1538
-9237.3646
-4016.2877
746.00839
-159.05369
-536.89277
-323.58656
5312.0374
-5230.9708
-5.8143002
-6972.577
250.95897
-363.31264
782.87301
-1640.54
5193.7995
2586.5588
158.21373
-626.09819
-5723.4664
-29.774652
-1291.4135
64.366889
53.76961
-429.22153
-1050.2141
-2274.834
1972.49
-1365.9915
2145.1864
2544.6386
1421.1921
1099.7731
-517.67084
-1576.8254
-13156.708
-4886.5154
4171.0419
-3419.474
221.16336
1030.3811
4412.0804
-210.57555
13.025991
-1902.063
-312.21103
-3898.7686
290.35232
-399.46481
-5432.8428
-46.858685
-4874.5139
-384.62842
-2637.7339
-1221.8443
-335.8654
-3415.4373
464.00398
359.63088
-1456.4122
3588.7275
-1466.1084
-1635.5723
5542.0495
238.18007
740.84252
2202.2438
-348.07738
300.22154
2641.1496
-1475.6884
3198.9678
-7458.3488
-6303.6043
-227.18825
-486.39708
-453.2439
-128.04048
-1958.4792
-835.67055
-3665.9186
-1560.946
1572.8725
-537.09015
614.35299
-5759.1666
1538.6799
6956.5223
-418.44547
2331.6581
-436.1557
-2269.6877
-2168.0465
-1496.0821
-394.6344
-619.50072
1208.3359
3734.0765
772.50834
-11271.824
-1444.8244
-606.84979
-1318.3626
-54.744199
1395.6306
-2244.7512
-4736.3375
2823.5054
87.835725
2860.2875
-1399.6753
-1506.3229
168.46796
260.09257
2461.1934
3674.3367
226.86952
273.96113
-6176.665
-5856.9773
86.357996
-360.61677
-1273.1611
-2791.0375
286.19192
-695.72264
5720.5827
-204.17105
-122.03238
2825.1057
-2864.0629
1387.0767
-618.01339
-641.7377