/*--------------------------------*- C++ -*----------------------------------*\
| =========                 |                                                 |
| \\      /  F ield         | foam-extend: Open Source CFD                    |
|  \\    /   O peration     | Version:     4.1                                |
|   \\  /    A nd           | Web:         http://www.foam-extend.org         |
|    \\/     M anipulation  |                                                 |
\*---------------------------------------------------------------------------*/
FoamFile
{
    version     2.0;
    format      ascii;
    class       surfaceScalarField;
    location    "0.4";
    object      phi;
}
// * * * * * * * * * * * * * * * * * * * * * * * * * * * * * * * * * * * * * //

dimensions      [0 3 -1 0 0 0 0];

internalField   nonuniform List<scalar> 
6703
(
0.00041602988
0.012365261
-0.012781291
-0.0019508318
0.02334327
-0.020976408
-0.0054168705
0.029440887
-0.025974848
-0.0094383637
0.03513359
-0.031112097
-0.014049346
0.041648899
-0.037037917
-0.019302699
0.049268566
-0.044015212
-0.025255351
0.058174416
-0.052221764
-0.031968617
0.068569375
-0.06185611
-0.039517812
0.080679429
-0.073130234
-0.047998138
0.094765492
-0.086285166
-0.057532004
0.11113066
-0.1015968
-0.068273587
0.13013171
-0.11939013
-0.080410566
0.1522012
-0.14006422
-0.094170297
0.17787726
-0.16411753
-0.10992324
0.20787999
-0.19212704
0.24321956
-0.22535284
-0.12778996
-0.00022048843
0.01258575
-0.0017123467
0.024835128
-0.0040557851
0.031784325
-0.0068951349
0.03797294
-0.010271374
0.045025138
-0.01428407
0.053281261
-0.019046312
0.062936658
-0.024681822
0.074204885
-0.031331981
0.087329588
-0.039160274
0.10259378
-0.048363614
0.120334
-0.059188364
0.14095646
-0.071949293
0.16496213
-0.087050764
0.19297873
-0.10490477
0.22573399
0.26413032
-0.12581553
0.00050151207
0.012084238
0.00035712068
0.024979519
-0.00068100758
0.032822453
-0.0022401776
0.03953211
-0.0041903024
0.046975263
-0.0065653511
0.05565631
-0.0094513844
0.065822692
-0.01295893
0.077712431
-0.017216224
0.091586882
-0.022361081
0.10773864
-0.028582401
0.12655532
-0.036109246
0.14848331
-0.045217445
0.17407033
-0.056249562
0.20401085
-0.069647289
0.23913172
0.28026215
-0.085779125
0.0014304233
0.010653814
0.0027906744
0.023619268
0.0033102122
0.032302915
0.0032053159
0.039637006
0.002780433
0.047400145
0.0021322948
0.056304448
0.0012423486
0.066712638
4.0413115e-05
0.078914366
-0.0015798141
0.093207109
-0.003767208
0.10992604
-0.0067074949
0.12949561
-0.010598891
0.1523747
-0.015666323
0.17913776
-0.022159511
0.21050404
-0.030349439
0.24732165
0.2902377
-0.04032499
0.0027822342
0.0078715802
0.0064764038
0.019925099
0.0094284874
0.029350832
0.011504821
0.037560672
0.01303945
0.045865517
0.014291671
0.055052227
0.015389452
0.065614857
0.016361116
0.077942702
0.01716555
0.092402675
0.01771698
0.10937461
0.017899729
0.12931286
0.017547117
0.15272731
0.016462187
0.18022269
0.014426876
0.21253935
0.011173188
0.25057534
0.29520526
0.0062056318
0.0054192589
0.0024523212
0.011733393
0.013610965
0.017864073
0.023220151
0.023197498
0.032227247
0.027711834
0.041351181
0.031602438
0.051161623
0.035083646
0.062133649
0.038327532
0.074698815
0.04143989
0.089290317
0.044454323
0.10636017
0.047350389
0.12641679
0.050049539
0.15002816
0.052431766
0.17784046
0.054356225
0.21061489
0.055678666
0.2492529
0.29461893
0.056264997
0.0045859842
-0.002133663
0.015325531
0.0028714178
0.026059391
0.012486292
0.035761371
0.022525267
0.044576756
0.032535797
0.052503122
0.043235257
0.059586449
0.055050322
0.065959054
0.068326211
0.071795808
0.083453562
0.077272611
0.10088337
0.082545252
0.12114415
0.087727353
0.14484606
0.092885482
0.17268233
0.098053962
0.20544641
0.10324768
0.24405918
0.28949396
0.10837264
0.0004084492
-0.0025421122
0.0075631084
-0.0042832415
0.021007363
-0.00095796269
0.037026413
0.0065062168
0.052207315
0.017354894
0.06593133
0.029511242
0.078593436
0.042388215
0.090227489
0.056692159
0.10082519
0.072855859
0.11046876
0.091239807
0.1193261
0.11228681
0.1276389
0.13653326
0.13570272
0.16461851
0.14384779
0.19730135
0.15242181
0.23548517
0.28016299
0.16175278
-0.0011756145
-0.0013664977
-0.0011860139
-0.0042728421
0.0043834244
-0.006527401
0.016619818
-0.0057301766
0.035056128
-0.0010814162
0.056764263
0.0078031071
0.078000705
0.021151774
0.097470748
0.037222116
0.11558971
0.054736892
0.13228984
0.074539685
0.14749968
0.097076965
0.16134709
0.12268585
0.17417137
0.15179424
0.1865359
0.18493681
0.1992137
0.22280736
0.26630885
0.21306784
-0.00051887722
-0.00084762042
-0.00086870649
-0.0039230128
-0.00094335307
-0.0064527544
0.0014515304
-0.00812506
0.0095744065
-0.0092042922
0.025152344
-0.0077748303
0.048188874
-0.0018847565
0.076514637
0.0088963531
0.10467116
0.02658037
0.13068413
0.048526714
0.15477602
0.072985071
0.17685537
0.1006065
0.19704628
0.13160333
0.21597205
0.16601103
0.23492725
0.20385217
0.24529877
0.25593733
0.00097039701
-0.0018180174
0.002340835
-0.0052934507
0.0036051916
-0.007717111
0.0048565998
-0.0093764682
0.0063033178
-0.01065101
0.010202414
-0.011673926
0.02073165
-0.012413993
0.040588621
-0.010960617
0.069848495
-0.0026795036
0.10262927
0.015745943
0.1339574
0.041656935
0.1632812
0.071282705
0.19087692
0.10400761
0.21684192
0.14004604
0.24280949
0.17788459
0.2170625
0.27104575
0.0016853043
-0.0035033217
0.0037322292
-0.0073403757
0.005216106
-0.0092009877
0.0064222044
-0.010582566
0.0076554379
-0.011884244
0.0090847172
-0.013103206
0.01076725
-0.014096525
0.014409189
-0.014602557
0.025918436
-0.01418875
0.052587307
-0.010922928
0.095339891
-0.0010956496
0.11920687
0.047415725
0.1400486
0.083165875
0.1619125
0.11818214
0.18448934
0.15530775
0.193461
0.20809085
-0.0016384478
-0.012366852
0.0140053
-0.0038945074
-0.020890195
0.023146254
-0.006758316
-0.025757149
0.028620958
-0.010341699
-0.030670138
0.034253522
-0.01466024
-0.036370095
0.040688635
-0.019828165
-0.043045474
0.0482134
-0.025983043
-0.050845448
0.057000325
-0.033277749
-0.05993039
0.067225097
-0.041866501
-0.070477259
0.07906601
-0.05189196
-0.082681916
0.092707375
-0.063483799
-0.096762527
0.10835437
-0.076755843
-0.11296651
0.12623855
-0.091813538
-0.13158372
0.14664142
-0.10878653
-0.15298983
0.16996283
-0.12814492
-0.17754628
0.19690467
-0.20575255
0.22850514
-0.15089751
-0.0017054378
-0.010661414
-0.004923738
-0.017671895
-0.0089871704
-0.021693717
-0.01386243
-0.025794879
-0.019673964
-0.030558561
-0.02658193
-0.036137508
-0.034773401
-0.042653977
-0.044463234
-0.050240557
-0.055897219
-0.059043274
-0.069355751
-0.069223384
-0.085157543
-0.080960734
-0.10366434
-0.09445971
-0.12528974
-0.10995832
-0.1505134
-0.12776618
-0.17983402
-0.14822565
-0.17187303
-0.21371355
-0.0021351906
-0.0085262236
-0.0058083016
-0.013998784
-0.010361376
-0.017140643
-0.015797088
-0.020359167
-0.022257419
-0.024098229
-0.029920803
-0.028474124
-0.03899379
-0.033580989
-0.049713329
-0.039521019
-0.062349851
-0.046406752
-0.077210879
-0.054362356
-0.094645685
-0.063525927
-0.11505189
-0.074053507
-0.13888453
-0.086125685
-0.16668157
-0.099969137
-0.19906397
-0.11584324
-0.13393249
-0.23700451
-0.002426345
-0.0060998786
-0.0063929584
-0.01003217
-0.011278926
-0.012254675
-0.017116366
-0.014521727
-0.024059363
-0.017155232
-0.032297338
-0.020236149
-0.042048943
-0.023829384
-0.053564044
-0.028005918
-0.067126282
-0.032844514
-0.083055821
-0.038432817
-0.10171264
-0.044869106
-0.12350188
-0.052264271
-0.14888436
-0.060743201
-0.17838167
-0.070471829
-0.21255129
-0.081673618
-0.094891815
-0.25159197
-0.0027120243
-0.0033878543
-0.0069309506
-0.0058132438
-0.012093007
-0.0070926188
-0.018249372
-0.008365362
-0.025560322
-0.0098442821
-0.034223394
-0.011573077
-0.044468306
-0.013584472
-0.056559245
-0.015914978
-0.070798503
-0.018605256
-0.087531323
-0.021699997
-0.10715248
-0.025247949
-0.1301133
-0.029303448
-0.15692684
-0.033929665
-0.18819486
-0.039203804
-0.22478805
-0.045080432
-0.05116664
-0.26851322
0.000533199
0.013320053
-0.013853252
0.0003295683
0.027364263
-0.027160632
-0.00077761608
0.035664608
-0.034557424
-0.0023515071
0.04280313
-0.041229239
-0.0042911433
0.050812798
-0.048873162
-0.0066426188
0.060172559
-0.057821084
-0.0094899622
0.071131619
-0.068284276
-0.012920226
0.08392016
-0.080489897
-0.017056504
0.098829437
-0.094693159
-0.022047565
0.11617513
-0.11118407
-0.02807374
0.13632594
-0.13029976
-0.035357784
0.15972831
-0.15244427
-0.044182568
0.18695265
-0.17812786
-0.054907369
0.21877065
-0.20804585
-0.067914648
0.25624967
-0.24324239
0.30069211
-0.28493706
-0.083669701
-0.0027791355
-0.00060871879
-0.0074860139
-0.0011063654
-0.013155606
-0.0014230266
-0.019773559
-0.0017474091
-0.02750596
-0.0021118813
-0.036551334
-0.0025277036
-0.047133083
-0.0030027232
-0.059504763
-0.003543298
-0.073955371
-0.0041546475
-0.090814558
-0.0048408108
-0.11045802
-0.005604492
-0.13331465
-0.0064468158
-0.15987722
-0.0073670917
-0.19072032
-0.0083607078
-0.22631651
-0.0094842428
-0.010674071
-0.26680908
-0.0025710912
0.0019623724
-0.0071490718
0.0034716152
-0.012764275
0.0041921766
-0.019393771
0.0048820868
-0.027200461
0.0056948085
-0.036383636
0.0066554712
-0.04716872
0.0077823613
-0.05980991
0.0090978923
-0.074592878
0.01062832
-0.091837184
0.012403496
-0.1118988
0.014457128
-0.13517386
0.016828238
-0.16210507
0.019564119
-0.19314935
0.022683571
-0.22878611
0.026152516
0.029777272
-0.26923745
-0.0027245047
0.0046868772
-0.0070390496
0.00778616
-0.012337322
0.0094904488
-0.01866822
0.011212985
-0.026189852
0.013216441
-0.035097196
0.015562815
-0.045615576
0.018300742
-0.058001456
0.021483772
-0.072544735
0.025171599
-0.089571987
0.029430748
-0.10945057
0.034335707
-0.13259258
0.039970252
-0.15945796
0.046429501
-0.19058105
0.053806657
-0.22670511
0.062276579
0.072159854
-0.26908769
-0.0024695421
0.0071564192
-0.0064761442
0.011792762
-0.011410412
0.014424717
-0.017304021
0.017106593
-0.024308347
0.020220767
-0.032608739
0.023863207
-0.042417795
0.028109797
-0.053976545
0.033042523
-0.067556487
0.03875154
-0.08346242
0.045336681
-0.10203704
0.052910327
-0.12366976
0.061602976
-0.14881451
0.071574244
-0.17803167
0.083023819
-0.21191273
0.096157638
0.11104328
-0.25079616
-0.0021572579
0.0093136771
-0.0058327658
0.01546827
-0.010386136
0.018978087
-0.015822342
0.0225428
-0.022280422
0.026678847
-0.029934915
0.0315177
-0.038987601
0.037162483
-0.049669746
0.043724668
-0.062245752
0.051327546
-0.077018346
0.060109276
-0.094336784
0.070228766
-0.11460977
0.081875966
-0.1383207
0.095285169
-0.16602457
0.11072769
-0.19856276
0.12869582
0.15012551
-0.23764499
-0.0017664254
0.011080102
-0.0050213534
0.018723198
-0.0091147292
0.023071463
-0.01402647
0.027454541
-0.019879743
0.032532119
-0.026832343
0.0384703
-0.035068369
0.045398509
-0.044800415
0.053456714
-0.056275529
0.062802661
-0.069783075
0.073616821
-0.085664916
0.086110607
-0.10432924
0.10054029
-0.12627387
0.11722981
-0.15209853
0.13655235
-0.1823774
0.1589747
0.18487701
-0.2171289
-0.0018587168
0.012938819
-0.0042719609
0.021136442
-0.0072618047
0.026061306
-0.010946706
0.031139442
-0.015361922
0.036947335
-0.020620847
0.043729225
-0.026856089
0.051633751
-0.03422062
0.060821246
-0.042870754
0.071452795
-0.052964081
0.083710148
-0.064655116
0.097801642
-0.078090101
0.11397527
-0.093403356
0.13254306
-0.11076287
0.15391186
-0.13031919
0.17853102
0.207384
-0.15282619
-0.0029167473
-8.7945294e-05
0.0030046926
-0.0058482044
0.0015155124
0.0014159448
-0.0066463741
0.0047806434
-0.0039824737
-0.0063574874
0.0089881949
-0.0092770816
-0.0052706188
0.012996458
-0.014083326
-0.0035318266
0.016627855
-0.018366647
0.00085388452
0.017763988
-0.022149699
0.01235222
0.01389456
-0.025392896
0.034136432
0.0061820462
-0.027966258
0.070353768
-0.0076246521
-0.028592684
0.12320633
-0.028437209
-0.024415355
0.17041209
-0.056874369
0.0096686123
0.21254239
-0.090828287
0.04869799
0.25075768
-0.13007965
0.09186436
0.28410088
-0.17523911
0.14189591
-0.22716196
0.19990723
0.31135562
-0.0032592301
0.0031712848
-0.0075606153
0.0058168976
-0.010935276
0.0081553044
-0.013208864
0.011261783
-0.011786472
0.011574065
-0.0035176692
0.0083590515
0.014127272
0.00011904687
0.042004596
-0.013982764
0.079973118
-0.031786476
0.12400321
-0.05165474
0.16966289
-0.074096896
0.21309372
-0.1003052
0.25342772
-0.13116229
0.29070889
-0.16736082
0.32523587
-0.20976608
-0.25960161
0.35767552
-0.0013945597
0.0045658446
-0.0038308727
0.0082532106
-0.0040539975
0.0083784293
0.0020715772
0.0051362084
0.016169857
-0.0025242145
0.038547655
-0.014018746
0.066915996
-0.028249294
0.096522276
-0.043589044
0.12546706
-0.060731256
0.15389081
-0.080078493
0.18182618
-0.10203227
0.20876675
-0.12724577
0.23422404
-0.15661958
0.25808236
-0.19121914
0.28060423
-0.23228795
-0.28125809
0.3022607
-0.00087815554
0.0054440002
0.0024460125
0.0049290426
0.012459669
-0.0016352273
0.029271865
-0.011675988
0.049931704
-0.023184053
0.071170519
-0.035257561
0.091310172
-0.048388947
0.11061078
-0.062889654
0.12897536
-0.079095836
0.14635554
-0.097458667
0.16287715
-0.11855388
0.17873053
-0.14309914
0.19408807
-0.17197712
0.20911831
-0.20624938
0.2239861
-0.24715574
-0.29601701
0.23874502
0.0027331595
0.0027108407
0.013560527
-0.0058983249
0.028747785
-0.016822485
0.044239809
-0.027168012
0.058690026
-0.037634269
0.072104936
-0.048672471
0.084413637
-0.060697649
0.095677606
-0.074153623
0.10610702
-0.089525255
0.11599286
-0.1073445
0.12564596
-0.12820699
0.13533573
-0.15278891
0.14523277
-0.18187416
0.155386
-0.21640261
0.16573737
-0.25750711
-0.30640554
0.17612591
0.0065995113
-0.0038886706
0.017222424
-0.016521237
0.027503773
-0.027103835
0.036911659
-0.036575898
0.045249732
-0.045972342
0.0526145
-0.056037239
0.059263779
-0.067346927
0.06549275
-0.080382594
0.071578167
-0.095610672
0.077732325
-0.11349866
0.084078252
-0.13455292
0.090641941
-0.1593526
0.097359093
-0.18859131
0.10409622
-0.22313973
0.11066799
-0.26407889
-0.31254578
0.11680823
0.005216749
-0.0091054196
0.011544001
-0.02284849
0.017337756
-0.03289759
0.022117606
-0.041355747
0.026114346
-0.049969083
0.029689189
-0.059612082
0.033129256
-0.070786994
0.036606707
-0.083860045
0.040203014
-0.099206978
0.043915141
-0.11721078
0.047672995
-0.13831077
0.05135151
-0.16303112
0.054780561
-0.19202036
0.057757572
-0.22611674
0.060065336
-0.26638666
-0.31408886
0.06160841
0.002783388
-0.011888808
0.0060730813
-0.026138183
0.0085189136
-0.035343422
0.01018986
-0.043026694
0.011498462
-0.051277684
0.012696912
-0.060810532
0.013880679
-0.071970761
0.01505772
-0.085037086
0.016188175
-0.10033743
0.017175116
-0.11819772
0.017884184
-0.13901984
0.018142509
-0.16328944
0.017740409
-0.19161826
0.016436694
-0.22481303
0.013965452
-0.26391541
-0.31002721
0.0099038077
0.001431245
0.0026573247
0.0029785107
0.0027549466
0.0022900606
0.0016520879
0.00081294563
-0.00030398055
-0.0018119771
-0.0038345723
-0.0065284746
-0.010089601
-0.014755218
-0.020797599
-0.028463338
-0.037798439
-0.00026856687
-0.013584685
-0.0018893339
-0.025539865
-0.0043509997
-0.032095758
-0.0072793321
-0.038300907
-0.010734426
-0.045418069
-0.014806645
-0.053748864
-0.019597854
-0.063493066
-0.025220177
-0.074867574
-0.031799812
-0.088113524
-0.039485239
-0.10349864
-0.048460638
-0.12132436
-0.058968823
-0.14193609
-0.071342326
-0.16575436
-0.086014708
-0.19337346
-0.10352576
-0.22573135
-0.26416518
-0.12429764
0.00024336384
-0.013828049
-0.0023248297
-0.022971671
-0.0058955849
-0.028525003
-0.0099830502
-0.034213441
-0.01463358
-0.040767539
-0.019894745
-0.048487699
-0.025814006
-0.057573805
-0.032442957
-0.068238623
-0.039847964
-0.080708517
-0.048120281
-0.095226323
-0.05738152
-0.11206313
-0.067791788
-0.13152582
-0.079561571
-0.15398457
-0.092997119
-0.17993792
-0.10842948
-0.21029899
-0.2465993
-0.12599535
0.00055811127
-0.0041141437
0.0035560324
0.00092885732
-0.0078079195
0.0074371735
0.0011841554
-0.009547654
0.0092923559
0.0013671118
-0.010857793
0.010674837
0.0015025025
-0.012115961
0.01198057
0.0015624068
-0.013261844
0.01320194
0.001486235
-0.014121362
0.014197534
0.0012119802
-0.014426013
0.014700268
0.00084318017
-0.013776839
0.014145639
0.00082838186
-0.011768681
0.01178348
0.00079466683
-0.0073594446
0.0073931598
0.024242845
0.0060944655
-0.029542643
0.051854106
0.043363333
-0.070974594
0.08008765
0.075093981
-0.10332753
0.10866862
0.10814845
-0.13672942
0.13947615
-0.17079341
0.13998588
0.00021224132
-0.004326385
-0.00088593768
-0.0067097404
-0.0029447884
-0.0074888031
-0.0057286352
-0.0080739461
-0.0092250531
-0.0086195432
-0.013464397
-0.0090225001
-0.018480344
-0.0091054144
-0.024309666
-0.0085966907
-0.031031277
-0.0070552285
-0.038948683
-0.0038512749
-0.048448134
0.0021400066
-0.054472602
0.012118934
-0.039982686
0.028873417
-0.016309322
0.051420618
0.01623829
0.075600837
0.10041686
0.055297585
-0.0031278143
-0.0011985707
-0.0084010258
-0.0014365288
-0.014763971
-0.0011258579
-0.022148415
-0.00068950167
-0.030648248
-0.00011971006
-0.040338516
0.00066776784
-0.051230986
0.0017870553
-0.063227253
0.0033995766
-0.076046139
0.0057636571
-0.0891788
0.0092813862
-0.10158635
0.014547553
-0.11183712
0.022369704
-0.11662015
0.033656446
-0.11416299
0.048963465
-0.1054302
0.06686804
0.084908724
-0.089922064
-0.0035841774
0.0023856067
-0.0091648656
0.0041441595
-0.015692163
0.0054014398
-0.023173479
0.0067918142
-0.031753599
0.0084604103
-0.041582732
0.010496901
-0.052798364
0.013002688
-0.065509491
0.016110703
-0.079747631
0.020001798
-0.095400768
0.024934523
-0.11211785
0.031264638
-0.12915018
0.039402026
-0.14517052
0.049676789
-0.15847105
0.062263998
-0.16779054
0.076187527
0.090260089
-0.1731419
-0.0025862783
0.0049718851
-0.0068697482
0.0084276295
-0.012133108
0.0106648
-0.018350168
0.013008874
-0.025637689
0.015747932
-0.034135584
0.018994796
-0.043983194
0.022850298
-0.055301766
0.027429276
-0.068165214
0.032865247
-0.082542305
0.039311614
-0.098214298
0.04693663
-0.1146903
0.055878033
-0.13113056
0.06611704
-0.14633118
0.077464621
-0.15856909
0.08842544
0.098109853
-0.16641885
-0.001533691
0.0065055761
-0.0046507666
0.011544705
-0.0086270955
0.014641129
-0.013352115
0.017733894
-0.0189081
0.021303916
-0.025408235
0.025494932
-0.032966108
0.03040817
-0.041680021
0.036143189
-0.051608375
0.042793601
-0.062726956
0.050430195
-0.07485646
0.059066134
-0.087564049
0.068585623
-0.1000459
0.078598894
-0.11094831
0.088367028
-0.11849835
0.095975478
0.098476912
-0.11886541
-0.00037387649
0.0068794526
-0.0020606607
0.013231489
-0.0045709018
0.01715137
-0.0076156089
0.020778601
-0.011189851
0.024878158
-0.015360947
0.029666028
-0.020197731
0.035244955
-0.025755408
0.041700866
-0.032056338
0.049094531
-0.039057041
0.057430898
-0.046592057
0.06660115
-0.05428693
0.076280496
-0.061445888
0.085757851
-0.066901242
0.093822382
-0.070117808
0.099192045
0.0908392
-0.062480096
0.00072038331
0.0061590693
0.0007111407
0.013240732
-2.7917378e-05
0.017890428
-0.0011579513
0.021908635
-0.0025447914
0.026264999
-0.0041662568
0.031287493
-0.0060278615
0.03710656
-0.0081259617
0.043798966
-0.010429465
0.051398034
-0.012858024
0.059859457
-0.015250747
0.068993873
-0.017314186
0.078343936
-0.018679743
0.087123409
-0.018580802
0.093723441
-0.011693353
0.092304595
0.060104399
0.019041448
0.0018576966
0.0043013727
0.0037174533
0.011380975
0.0049916124
0.016616269
0.0058653075
0.02103494
0.0066370569
0.025493249
0.0074996179
0.030424932
0.008577179
0.036028999
0.0099842704
0.042391875
0.011869471
0.049512833
0.014455987
0.057272942
0.01808879
0.06536107
0.023280298
0.073152428
0.031028417
0.07937529
0.044313658
0.080438199
0.071707315
0.064910938
0.017401304
0.11441041
0.0030824574
0.0012189154
0.0068546619
0.0076087708
0.010362825
0.013108106
0.013451323
0.017946442
0.016350465
0.022594108
0.01938978
0.027385617
0.022888788
0.032529991
0.02716915
0.038111512
0.032602816
0.044079168
0.039677511
0.050198247
0.0490879
0.055950681
0.061887072
0.060353256
0.079933349
0.061329013
0.11016969
0.050201862
0.15786635
0.017214279
-0.03800481
0.21327246
0.0028282399
-0.0016093245
0.0078837619
0.0025532488
0.01304844
0.0079434272
0.017741649
0.013253234
0.022094836
0.01824092
0.026485229
0.022995223
0.031367115
0.027648105
0.037241165
0.032237462
0.044684844
0.03663549
0.054432413
0.040450677
0.067644774
0.04273832
0.087769863
0.040228167
0.12316563
0.025933248
0.1782773
-0.0049098066
0.24894199
-0.053450412
-0.11452466
0.32546184
0.001387994
-0.0029973184
0.0052718685
-0.0013306257
0.0090129831
0.0042023126
0.01263868
0.0096275368
0.016314753
0.014564847
0.020299598
0.019010378
0.024909511
0.023038192
0.030479968
0.026667006
0.037324941
0.029790516
0.045705191
0.032070428
0.055383147
0.033060364
0.087821575
0.0077897392
0.13908367
-0.025328847
0.1982037
-0.064029833
0.25451955
-0.10976627
-0.16349813
0.30349302
0.00031756212
-0.00015752797
0.00040402072
0.00043136663
0.0003407846
5.4797616e-05
-0.00053321544
-0.0015680794
-0.0032455185
-0.005820536
-0.0096156897
-0.015030546
-0.022551706
-0.03275738
-0.046353399
-0.064322233
0.00035183417
-0.00017725114
0.00044778943
0.00048786969
0.00040896529
0.00013466544
-0.00043881385
-0.0014523403
-0.0030948466
-0.0056137945
-0.0093225546
-0.014609822
-0.021952977
-0.031928066
-0.045322388
-0.063416545
9.2693285e-05
-7.3741387e-06
0.00031253214
0.00066298728
0.0011445087
0.0017882403
0.0026767341
0.003950844
0.0057751024
0.0092528464
0.017897856
0.035356207
0.05872535
0.086559877
0.11868952
0.15509861
0.00014950853
-5.2710731e-05
0.00024087671
0.00033314688
0.00042947359
0.00052820756
0.00062921589
0.00072692721
0.00068381624
0.0015443686
0.0078418792
0.025714961
0.037906242
0.05276086
0.071339193
0.094006784
0.16109041
-0.60936989
0.44827948
1.3253038
-1.37185
0.046546212
0.16770862
-0.48359923
0.31589061
1.3253038
-0.42541148
0.10415327
0.32125821
-1.3527688
0.7309347
0.62183413
-0.19290722
0.67320505
-0.48029783
1.1649716
0.44028299
-1.6052545
1.2132677
0.30042035
-1.5136881
0.1788639
-0.24318613
-0.29479073
0.23137418
0.56286693
1.1213505
-1.6842174
-0.533102
-0.58236561
1.1154676
-1.2102619
0.46823844
0.74202344
-0.24120094
0.59053188
-0.34933094
0.66367462
-0.055719162
-0.60795545
1.1351204
-1.1534389
0.01831848
0.030963018
0.2929431
-0.32390612
0.13282219
-0.22163583
0.088813646
0.96604891
-0.32910469
-0.63694422
-0.26186031
-0.16355116
-1.1492751
0.61617314
-1.4222886
1.4086005
0.013688065
0.10846574
1.278764
-1.3872297
0.019647713
-0.8587944
0.83914668
0.88048487
0.10732877
-0.98781364
-0.64925989
-0.99226091
1.6415208
0.94304449
-0.28758467
-0.65545981
0.22536623
1.0155612
-1.2409274
-0.36325555
0.82298122
-0.45972567
1.1237123
-0.24322746
0.30551634
-0.2276513
-0.077865043
-0.022145294
1.3007886
-1.2786433
1.0473288
-0.047243409
-1.0000854
0.1718253
-0.92774175
0.75591645
1.3803299
-1.1643424
-0.21598754
1.0857553
-1.2478062
0.16205087
-0.71148407
0.88330937
0.85659756
-0.51864826
-0.3379493
-1.2923331
0.236358
1.0559751
0.41384259
-0.19809818
-0.21574441
1.1866635
-0.6538619
-0.5328016
1.1649716
-0.39214899
0.87684838
-0.48469939
1.2132677
-0.14284567
0.55523479
-0.41238912
-0.32336345
1.0978168
-0.77445332
-1.4727472
0.63418514
0.83856206
-1.1649716
1.7496979
-0.58472634
-1.2132677
1.7693388
-0.55607112
0.51299935
-0.15578437
-0.35721499
-0.57674465
0.23898517
0.33775948
0.20751443
-0.38742982
0.17991539
0.13303788
0.19323948
-0.32627736
-0.54512414
0.86349538
-0.31837124
0.18482165
0.85363056
-1.0384522
0.1351677
-0.27481103
0.13964333
-0.8152942
0.52218071
0.29311349
-1.5777114
0.16954567
1.4081657
1.4177275
-0.48757153
-0.93015593
1.3161127
0.10161476
0.83244218
0.61316231
-1.4456045
0.78562247
0.65016574
-1.4357882
-0.34919843
0.76820322
-0.4190048
0.036287325
-0.65344543
0.61715811
-0.98496052
1.0376173
-0.052656786
0.74518912
-1.0489804
0.30379126
0.69716824
0.29423458
-0.99140282
-0.17642484
0.94690961
-0.77048477
-1.4996979
1.1763344
-0.63492379
1.0514632
-0.41653945
0.32721528
0.33645933
-0.32531433
0.45473079
-0.12941647
0.80314499
1.0073764
-1.8105214
1.4040182
-1.2932708
-0.11074746
0.077711406
-0.47928128
0.87077741
-0.39149613
1.0317167
-0.29282244
-0.73889426
1.5925995
-1.4329917
-0.15960781
1.1558931
-1.0335777
-0.12231535
0.48603328
-0.52224776
0.036214487
-0.32679299
0.086979918
0.23981307
0.16158436
-0.52483991
-1.9489541
1.3807233
0.56823075
0.37812894
0.75699149
0.41101016
-1.4184102
1.0074001
-0.69704731
1.1476261
-0.45057876
-0.20095632
-0.96174155
1.1626979
0.49710101
-0.31030319
-0.18679783
0.082962111
1.3210561
0.97010324
-0.061797849
-0.90830539
-1.140267
0.57612984
0.56413714
0.098845671
0.53642975
-0.63527542
0.46715538
0.38944219
0.65759974
0.36137427
-1.018974
0.69604596
-0.28538605
-0.41065991
-0.68020188
-0.82869951
0.46070516
-0.29299654
-0.062408406
-0.36011512
0.42252353
-0.42451444
0.83904181
-0.41452738
-0.48361413
1.2867591
-0.8977508
1.1908272
-0.29307638
-0.80658387
-0.33368311
-0.120457
1.2062123
1.2887242
-1.2013971
-0.087327131
-0.75172723
-0.45853465
-1.7129362
1.1473002
0.56563595
-1.9128294
1.3840305
0.52879891
0.85062784
-0.37074417
-0.47988368
0.16867289
-0.56082189
0.22079463
-0.76591876
0.013646944
0.62184649
-0.63549343
0.45007881
-0.62650365
0.19725395
0.21658864
0.26102713
0.70502179
1.0688571
0.5237424
0.57409412
-0.56044717
0.2415821
0.88831529
-1.1298974
1.665641
-0.95059791
-0.71504305
-0.35354758
0.72925335
-0.37570577
-0.0070107612
0.21452519
0.30512404
-0.17208615
0.20764534
0.0044109346
-0.21205627
1.6973392
-1.7194844
0.1089969
0.072294932
-0.18129183
0.075558792
-0.24197765
-1.1572384
1.2233417
-0.066103362
-0.2985305
0.21124545
0.08728505
0.70540319
-0.71516695
0.0097637593
-0.84039007
0.7610709
0.07931917
0.27377799
-0.1386103
-0.38811737
0.4406516
-0.05253423
-0.78870301
1.3439918
-0.55528875
0.25489481
0.93176868
1.1778943
-0.43270522
0.49161765
0.35901019
-0.53090951
0.38806384
1.009671
-1.2106273
-0.51777005
0.45536164
0.88149874
0.40722544
0.79970596
-1.6238004
0.82409444
0.48257912
0.3577769
-0.25362363
-0.6142922
0.77538262
1.249993
-1.249993
-0.34948035
-0.17786503
1.1479683
0.22063054
-0.69991181
-0.071158749
1.0304973
-0.95933856
-0.61147392
1.4439161
-0.63870599
1.4243285
1.3141909
-0.75640434
-0.55778658
0.39679291
0.43868569
-0.79223327
0.96018999
-1.2171645
0.25697455
0.89524052
-0.8755928
0.18620637
-0.095487391
-1.0353678
1.1308552
1.5424312
0.26521187
-1.807643
-0.7116912
0.9532733
-0.53989418
0.70164696
-0.59989431
0.77602022
-0.054866467
0.71246621
0.033990844
0.54088591
-0.57487675
-0.85411006
-0.052332139
0.90644219
0.50547141
-1.2941744
-1.4451007
1.3739419
0.92452927
0.393665
-1.3181943
-0.099116854
-0.57017247
0.66928933
-0.63174589
1.1946128
-1.0311678
0.39009467
0.64107314
0.57498749
-0.47614182
-0.053874132
-0.6553623
0.70923643
1.0133712
-1.1833197
0.16994859
0.9073469
0.40684402
-1.5171249
0.80564081
0.063975662
1.0919174
1.0338951
0.79459821
-1.4438581
-0.018363281
0.50439656
-1.0492279
0.82673706
0.22249089
-1.1345012
1.0353844
0.61502597
0.75396932
-1.3689953
0.84028169
0.21118155
-0.85441658
0.80054245
-0.31144954
-0.73777841
-0.17054969
-0.33073279
0.50128247
0.3513588
-0.71479485
0.36343605
-0.032297012
0.53995453
-0.50765752
-1.1061842
0.22473013
0.88145407
0.16301204
1.2506345
-1.4136465
-0.92861099
-0.58240345
1.5110144
0.20758451
0.73545997
-0.036908057
-0.24231575
0.27922381
-0.98225
-0.17118891
1.1990416
-1.0905759
1.1693722
-0.15600106
-0.72520413
-0.16553527
0.8907394
-0.6783778
-0.30143812
0.97981593
-0.13218655
0.47226435
-0.3400778
-0.056540387
0.88327745
-0.64811558
-0.38213587
1.0302514
0.50356505
0.10197229
-0.60553735
-0.77990332
0.7212349
0.058668426
-1.0007101
0.54508426
0.45562589
-0.88280944
0.5713599
0.56812051
-1.1504861
1.5424312
0.19752426
0.37940707
-0.57693133
1.4113608
-1.1208003
-0.29056052
-1.1543559
1.1985516
-0.50138334
-0.88462211
-0.27261624
0.031389276
-0.83797193
0.80658266
-1.1151464
1.2781584
0.67611962
-1.1738481
0.49772847
0.58728967
0.77843234
-1.365722
-0.67304125
0.52478089
-0.69533058
-0.059791617
-0.32832575
-1.1962131
-0.51672306
1.0423742
-0.095464551
1.0917316
-0.91600455
-0.17572704
0.90298965
0.76573315
-1.6687228
0.17908857
-0.69773683
0.18980371
-0.045497329
-0.14430638
-0.40045983
0.59798409
-0.55470065
1.4576903
-1.4101128
1.4227729
-0.012660114
0.23086936
0.20978225
0.14313926
-0.18004732
0.36054957
-0.37779235
0.017242773
0.28714547
-1.4234453
1.1362998
-0.48307299
-0.013429419
0.49650241
-0.17140376
-0.66944606
0.84084982
0.41557052
0.42471117
0.2988644
1.1144643
-1.4133287
-0.61236822
0.28163543
1.1125748
0.22788475
-1.3404595
0.033204126
1.2174304
0.54308072
0.58063161
1.0240689
-0.041773078
-0.9822958
-0.31307885
-0.012235479
-1.1562102
0.3560214
0.80018882
0.13920635
-0.60297526
0.46376891
-0.80126423
0.80996484
-0.0087006041
-0.14912698
1.1964558
1.1616918
-1.734904
0.57321218
0.61540219
0.21657969
-0.83198188
-0.44026194
-0.029668728
0.46993067
-0.13098783
-0.34655891
0.47754674
0.42304823
0.061973694
1.3493871
-0.37990042
1.05602
0.2556838
-0.12286161
0.67081637
0.35232358
-1.0231399
0.48005181
-0.44606097
-0.98743504
0.33931946
1.5946661
-0.14653687
1.3671247
-1.2205879
0.12197814
-1.2863205
-1.3490822
0.6791656
0.66991661
1.4656614
-0.39826209
-0.81890246
-1.0935154
-0.19881769
-0.81004838
1.104283
-0.69707822
-0.65569061
1.2386165
-1.0132502
-0.90901536
0.95466217
-0.04564681
-0.87414329
0.89246177
-0.39218287
-0.38772045
0.09826932
0.99346227
-0.037616291
-0.80277378
-0.66459461
-0.3665732
-0.25779434
1.3663545
-1.1085601
-0.46685431
0.60606066
-0.89873564
0.9239802
-0.025244559
0.035219653
-1.3341688
1.2989491
0.86654548
-0.23707042
-0.62947506
0.61142611
-0.7329504
0.12152429
1.1157236
-1.3304352
0.2147116
-0.1265601
0.98341785
-0.85685774
0.72684035
-0.57578272
-0.15105763
0.1083309
-0.078686437
-0.029644464
0.10683407
-0.36869438
0.1539975
-1.0826085
-0.075607477
-0.90935304
-1.2365525
1.4131585
-1.3779388
-0.56881507
-0.24647913
-0.13428432
-0.25990485
0.39418917
0.76356248
-0.610214
-0.15334848
0.008829402
-0.8746762
0.8658468
-0.00084787886
0.36139745
-0.43063954
-0.052433446
0.72303694
-0.30746642
-0.67959375
-0.94420665
0.46447685
-0.009746054
0.32548918
-1.6973392
1.37185
0.97243591
-0.45008818
-0.52234773
-0.17009527
-0.69630046
0.86639573
-0.64510324