/*--------------------------------*- C++ -*----------------------------------*\
| =========                 |                                                 |
| \\      /  F ield         | foam-extend: Open Source CFD                    |
|  \\    /   O peration     | Version:     4.1                                |
|   \\  /    A nd           | Web:         http://www.foam-extend.org         |
|    \\/     M anipulation  |                                                 |
\*---------------------------------------------------------------------------*/
FoamFile
{
    version     2.0;
    format      ascii;
    class       volVectorField;
    location    "0.4";
    object      U;
}
// * * * * * * * * * * * * * * * * * * * * * * * * * * * * * * * * * * * * * //

dimensions      [0 1 -1 0 0 0 0];

internalField   nonuniform List<vector> 
4242
(
(95.973303 90.874323 2.2059385e-15)
(145.97886 130.3555 7.0650401e-18)
(155.05638 132.65276 -1.1213104e-15)
(155.08635 130.21588 8.9670358e-16)
(154.71007 126.79138 1.235587e-17)
(154.2059 122.9349 3.3203976e-18)
(153.62427 118.59174 0)
(152.9644 113.77774 2.5935925e-16)
(152.23238 108.47977 -4.117761e-16)
(151.441 102.7127 1.5381435e-16)
(150.62169 96.507971 -7.9746128e-17)
(149.81972 89.922877 6.7307669e-17)
(149.10451 83.031107 1.7161389e-17)
(148.61134 75.859576 -7.2556787e-18)
(148.5508 68.515663 5.7957966e-18)
(148.60236 61.532086 0)
(103.76741 75.415818 0)
(168.90321 116.64239 -1.5686072e-17)
(180.66751 118.81703 1.4664326e-15)
(180.09524 116.81228 -1.1988292e-15)
(178.67782 113.89798 -2.0498975e-17)
(177.07981 110.64696 6.7684343e-16)
(175.3757 106.9863 -4.5147249e-17)
(173.57581 102.92463 -8.1488996e-16)
(171.70511 98.456153 7.409163e-17)
(169.78798 93.593864 2.3939558e-16)
(167.86024 88.364474 0)
(165.96389 82.814979 -1.8102277e-17)
(164.1546 77.005846 -1.2549051e-17)
(162.5305 70.969063 -7.6112918e-17)
(161.18197 64.701106 9.7773171e-17)
(160.01512 58.662138 1.3503352e-17)
(108.07142 57.825833 -3.3605935e-17)
(184.42174 96.516861 -5.1576856e-15)
(201.47704 99.33619 2.0595934e-15)
(201.37111 98.464802 -1.4248915e-17)
(199.51912 96.505498 -1.2459142e-15)
(197.34821 94.240462 1.0239508e-15)
(194.97359 91.640241 -1.3962581e-17)
(192.40926 88.712116 2.166294e-17)
(189.68742 85.437084 -7.947445e-18)
(186.84438 81.818221 -2.5264244e-17)
(183.93182 77.864254 2.443843e-16)
(181.01152 73.594508 -1.8486001e-16)
(178.15631 69.044656 -2.6960882e-16)
(175.46206 64.248056 2.3661041e-16)
(172.97829 59.271897 -2.3221869e-17)
(170.62469 54.300939 -6.1594141e-17)
(108.22328 40.376071 -1.0320222e-17)
(192.96553 72.51076 -6.3265766e-18)
(216.54424 75.771209 -1.1483327e-15)
(218.6734 76.227491 9.9024501e-16)
(216.79525 75.411054 -1.2882335e-17)
(214.17489 74.20472 6.4360533e-16)
(211.25941 72.762758 -5.0551666e-16)
(208.09864 71.113239 -8.1694485e-16)
(204.70771 69.214611 5.775614e-17)
(201.10298 67.029016 1.0468558e-15)
(197.40912 64.572527 -4.0419478e-16)
(193.67318 61.815269 0)
(189.97624 58.759015 2.2091813e-17)
(186.42131 55.411346 -1.6833442e-16)
(183.03833 51.877382 8.4378466e-17)
(179.6549 48.367439 -1.5937114e-16)
(93.86052 21.383096 1.1116736e-17)
(182.36353 44.375921 -1.6685244e-15)
(214.35281 47.984452 1.2091167e-15)
(222.24282 50.066993 -6.944443e-18)
(222.55964 50.983625 1.7054216e-17)
(220.67747 51.220147 -4.7798679e-18)
(218.07719 51.146977 -5.105136e-16)
(215.12858 50.905194 1.3119863e-17)
(211.92272 50.493636 3.1738786e-16)
(208.48143 49.875213 -2.4715481e-16)
(204.89006 49.036706 2.1143912e-16)
(201.18956 47.928671 0)
(197.44318 46.514064 1.2767728e-16)
(193.74277 44.750862 -9.563882e-17)
(190.15879 42.618223 2.9338202e-17)
(186.47477 40.349869 0)
(61.935245 6.1579753 -1.6761207e-15)
(145.41761 18.4472 4.3224392e-16)
(188.85287 21.689154 5.5329841e-16)
(207.70593 24.792885 -4.1009041e-16)
(214.70121 27.545861 3.647838e-19)
(216.41534 29.575057 1.3665598e-16)
(215.76951 31.065368 1.1041553e-16)
(214.04582 32.223021 -4.451877e-18)
(211.78493 33.139069 -4.1989685e-18)
(209.19149 33.832043 -1.6950777e-16)
(206.37958 34.302893 1.8304527e-16)
(203.4016 34.515548 -6.3662534e-18)
(200.29701 34.425356 -1.9225215e-17)
(197.12094 33.984303 -4.6023892e-17)
(193.934 33.122693 -3.2838001e-20)
(190.62256 32.080397 2.2623038e-17)
(-5.4213641 -0.69199043 -8.9466801e-16)
(85.559403 2.3041979 -4.8462078e-16)
(136.75217 3.4875714 7.8520072e-16)
(167.92629 5.7658198 -3.5044718e-16)
(186.51587 8.9412228 1.3661919e-16)
(197.03405 12.167316 1.3262898e-20)
(202.50659 15.075808 1.6942878e-16)
(204.85707 17.59018 -7.6796639e-17)
(205.3271 19.693721 -9.3194344e-18)
(204.67444 21.397926 4.3375286e-17)
(203.35815 22.730881 -7.0037393e-17)
(201.63009 23.7131 6.0658222e-17)
(199.61239 24.352143 -1.6563465e-17)
(197.37293 24.646264 -8.0054177e-17)
(194.9589 24.544243 3.2846616e-17)
(192.32578 24.166041 4.6358564e-17)
(-30.962616 4.8269144 -2.1074524e-17)
(-30.247898 6.2004529 2.9204231e-15)
(41.388074 0.38194894 -1.5047738e-15)
(97.221743 -2.736944 8.2534235e-16)
(132.30831 -2.2589255 -5.3642728e-16)
(156.28154 -0.0061802704 0)
(172.83436 2.894608 2.9311637e-16)
(183.92299 5.9397491 -2.3347145e-16)
(190.9588 8.8631598 -5.5883064e-18)
(195.03877 11.459549 0)
(197.03008 13.589366 -2.478632e-17)
(197.58626 15.197305 1.3633125e-17)
(197.16326 16.295333 -9.828139e-17)
(196.06257 16.943814 1.9759319e-16)
(194.47976 17.197233 -1.5094681e-16)
(192.51946 17.259929 -4.5214045e-17)
(-20.461798 5.6743512 1.3528764e-17)
(-39.764287 12.580732 -1.1403521e-17)
(-46.299819 15.341411 0)
(-15.70461 9.6550907 3.950564e-17)
(40.774461 0.84606262 1.444105e-17)
(88.286949 -4.1734636 5.5576196e-16)
(120.83487 -4.7956927 -3.7495082e-16)
(144.62819 -3.1967021 0)
(162.20475 -0.73430312 -4.0122787e-20)
(174.85197 1.933916 -1.9626195e-17)
(183.52036 4.4618027 1.5737826e-17)
(188.99189 6.6043773 1.3509428e-17)
(191.95878 8.223877 2.1071197e-17)
(193.03279 9.3171574 1.5112177e-16)
(192.73698 9.9694995 -1.9577269e-16)
(191.55299 10.52143 1.141634e-16)
(-8.3347709 3.2020332 0)
(-29.078999 14.227495 6.3014382e-15)
(-40.68423 19.918955 -1.0224645e-14)
(-43.133721 21.340416 4.3955876e-15)
(-39.724433 21.329579 -2.8146937e-17)
(-15.406567 15.555661 -7.0710475e-17)
(31.701731 4.9896487 1.3301369e-15)
(77.26069 -2.7884331 -8.1033849e-16)
(110.77817 -5.5230042 -4.6400574e-16)
(136.49414 -5.6603812 3.7473923e-16)
(155.94181 -4.6764672 0)
(169.95183 -3.2730574 -2.4714864e-16)
(179.31393 -1.8069936 1.365666e-16)
(184.81706 -0.43626919 0)
(187.26474 0.85797401 0)
(187.62196 2.5268312 0)
(-10.429571 7.3485877 1.4283256e-14)
(-30.432871 22.42704 -5.6098304e-15)
(-39.53021 28.915911 0)
(-40.944631 30.239541 -2.9279957e-17)
(-38.723149 29.472567 -3.1317868e-15)
(-34.625453 28.262433 2.841413e-15)
(-28.786968 27.505537 2.2200954e-15)
(-11.037226 22.711119 5.0919218e-17)
(31.882361 10.655586 -1.0329351e-15)
(74.789292 -0.034931459 3.6429085e-17)
(107.79978 -6.7570682 0)
(133.6579 -10.983853 -5.7679012e-16)
(152.63431 -13.120945 7.9408268e-17)
(165.25529 -13.510117 3.488726e-16)
(172.52138 -12.527112 0)
(176.62261 -8.6517548 4.7256501e-17)
(-17.372242 16.588808 4.8161547e-18)
(-37.227885 35.744279 1.0878636e-14)
(-43.191132 41.33953 -4.5962736e-15)
(-42.331387 41.31641 -4.0598305e-15)
(-39.247866 39.422961 3.6259998e-15)
(-35.198723 36.74381 -3.3455952e-15)
(-30.393901 33.516762 2.9436336e-15)
(-24.639516 30.0169 2.5647849e-15)
(-17.90448 25.571576 -2.4671072e-15)
(11.509426 13.444246 0)
(58.421185 0.29453545 0)
(92.310785 -9.7754252 0)
(116.27176 -18.778575 8.2750304e-17)
(134.08188 -24.001377 0)
(146.02576 -25.242445 3.12905e-16)
(154.70529 -21.061081 -5.3965152e-16)
(90.099263 -109.97143 7.3512652e-16)
(126.93606 -147.08272 -2.2174301e-20)
(133.08208 -148.31946 -3.2618913e-16)
(133.49692 -146.30018 2.6590274e-16)
(133.28545 -142.94943 -1.3138928e-18)
(133.06097 -138.99376 6.9619204e-18)
(132.88639 -134.4695 0)
(132.79362 -129.33492 6.3119289e-18)
(132.80705 -123.55995 2.7695487e-17)
(132.95513 -117.14612 -1.4033216e-17)
(133.26454 -110.13334 4.1800393e-17)
(133.75323 -102.59917 -3.5182758e-17)
(134.44881 -94.644298 -2.146525e-17)
(135.42066 -86.411685 1.7778647e-17)
(136.60433 -78.073638 3.8788691e-17)
(137.53214 -70.258935 0)
(61.690288 -97.302149 0)
(89.481976 -133.69922 4.1238342e-18)
(94.774722 -135.05062 -4.7050434e-16)
(95.924158 -132.61419 3.7626321e-16)
(97.040006 -129.46352 5.8503556e-18)
(98.377466 -125.84833 -3.066983e-16)
(99.949797 -121.75777 -1.8133687e-17)
(101.77895 -117.16232 4.5616217e-16)
(103.87968 -112.0437 -1.2853542e-17)
(106.25872 -106.39829 -1.7084518e-16)
(108.91043 -100.24299 0)
(111.8153 -93.618987 2.2049579e-17)
(114.9425 -86.592114 1.8776443e-17)
(118.29291 -79.253352 1.7282931e-16)
(121.79412 -71.665783 -2.3626563e-16)
(125.20901 -64.075718 -3.9592692e-17)
(41.392727 -86.779154 -9.9917231e-18)
(59.503172 -118.04609 3.4251489e-15)
(63.728272 -119.22274 -1.3305445e-15)
(65.519027 -116.95433 1.0489158e-17)
(67.426809 -114.09555 8.7596959e-16)
(69.664125 -110.82617 -6.9681216e-16)
(72.253725 -107.13064 1.1220127e-17)
(75.223057 -102.98359 -1.8407692e-17)
(78.592019 -98.369908 4.1323831e-18)
(82.368619 -93.289314 2.4871324e-17)
(86.543365 -87.761296 -2.773172e-16)
(91.088691 -81.827515 2.0782522e-16)
(95.96788 -75.549509 3.9754807e-16)
(101.16681 -69.014367 -3.5303192e-16)
(106.59746 -62.313506 5.086134e-17)
(111.87909 -55.725425 1.7623342e-16)
(23.380882 -68.814605 8.8582985e-18)
(33.941039 -93.787447 6.4986252e-18)
(37.35492 -94.819047 1.141001e-15)
(39.670598 -92.940627 -9.1143279e-16)
(42.251982 -90.604707 1.2282804e-17)
(45.262206 -87.952867 -5.8323867e-16)
(48.73475 -84.970704 4.3084759e-16)
(52.700985 -81.640688 7.4836073e-16)
(57.182381 -77.953728 -1.0072018e-17)
(62.183381 -73.912407 -1.009008e-15)
(67.68414 -69.534351 4.0311262e-16)
(73.641572 -64.852688 0)
(80.004495 -59.912415 -2.8657641e-17)
(86.731831 -54.77385 2.4680572e-16)
(93.654411 -49.578601 -1.2426743e-16)
(100.28897 -44.425472 3.0408727e-16)
(10.122703 -45.958318 -1.0258078e-17)
(15.46484 -63.686591 2.1566098e-15)
(18.308404 -64.43784 -1.6188118e-15)
(20.999338 -63.018867 8.8448441e-18)
(24.084378 -61.31172 -2.1698914e-17)
(27.66905 -59.420683 6.1993159e-18)
(31.793902 -57.33113 6.3667717e-16)
(36.494077 -55.030767 8.5586515e-18)
(41.794115 -52.514576 -3.7423847e-16)
(47.700156 -49.785832 3.1336386e-16)
(54.19329 -46.857188 -2.5807865e-16)
(61.23444 -43.749696 0)
(68.788515 -40.486804 -1.7888033e-16)
(76.830329 -37.119806 1.3136001e-16)
(85.109106 -33.635081 -4.6602253e-17)
(92.766027 -30.325017 0)
(120.09066 -65.252589 0)
(203.29545 -106.35595 3.1197856e-15)
(220.32961 -108.41841 -4.926057e-15)
(219.46738 -107.35256 2.0314625e-15)
(217.18585 -105.14692 1.3359679e-17)
(214.57303 -102.67828 3.6879306e-18)
(211.74708 -99.870022 9.2553235e-16)
(208.70404 -96.732676 -7.8574878e-16)
(205.45991 -93.250388 -5.4608862e-16)
(202.04037 -89.41188 4.119289e-16)
(198.48726 -85.220146 0)
(194.86623 -80.695814 -1.9726199e-16)
(191.27731 -75.887141 1.5583489e-16)
(187.88129 -70.856346 0)
(184.90887 -65.720768 0)
(182.52584 -60.708652 0)
(2.6177123 -22.269853 1.8895525e-15)
(5.2441176 -32.463861 -7.2635225e-16)
(7.9417275 -32.707099 -1.0381808e-15)
(11.004357 -31.688779 7.7433955e-16)
(14.518837 -30.611795 7.6457026e-18)
(18.532464 -29.508587 -2.389929e-16)
(23.082646 -28.348026 -1.9284715e-16)
(28.199609 -27.110223 1.8359424e-18)
(33.901659 -25.782853 2.0490841e-18)
(40.189531 -24.35845 2.7899093e-16)
(47.039314 -22.833312 -2.9933129e-16)
(54.398822 -21.206771 4.4356171e-18)
(62.20391 -19.475984 2.7577193e-17)
(70.347857 -17.62611 7.7141562e-17)
(78.730215 -15.679576 5.7380668e-20)
(87.044658 -13.576517 -4.3855551e-17)
(1.5089467 8.8535124 1.0226449e-15)
(3.7141642 13.120677 8.1439843e-16)
(6.3527104 12.224975 -1.732573e-15)
(9.3991221 10.878956 8.5112727e-16)
(12.942662 9.7644877 -3.3314396e-16)
(17.028985 8.8051088 -3.0326475e-20)
(21.691737 7.9280287 -4.0093458e-16)
(26.958102 7.092995 1.6704267e-16)
(32.841575 6.2751546 1.7233598e-17)
(39.334374 5.4576513 -9.4744431e-17)
(46.402102 4.6287412 1.3971196e-16)
(53.980766 3.7802997 -1.2233125e-16)
(61.980645 2.9052797 2.8927195e-17)
(70.281035 1.9928566 1.5576208e-16)
(78.671277 0.99328088 -6.2950251e-17)
(86.858575 0.07278132 -9.2184449e-17)
(7.693404 32.603328 1.9215854e-17)
(12.098345 45.688696 -2.6143395e-15)
(14.754679 45.963837 1.9181969e-15)
(17.505809 44.575246 -1.4401283e-15)
(20.712554 42.998585 1.1316485e-15)
(24.447534 41.299206 0)
(28.745742 39.454162 -6.982452e-16)
(33.636157 37.447173 5.4511757e-16)
(39.134887 35.270361 1.1936325e-17)
(45.237032 32.923853 0)
(51.911497 30.415948 5.1149868e-17)
(59.10756 27.761006 -2.6567376e-17)
(66.77476 24.972756 1.9304264e-16)
(74.821263 22.015933 -3.8232449e-16)
(82.947508 19.003084 2.775036e-16)
(90.338019 15.991174 8.3486898e-17)
(19.414557 55.470729 -1.0540637e-17)
(28.282525 76.098883 7.8566548e-18)
(31.339132 76.787401 0)
(33.687778 74.965252 -2.4141846e-17)
(36.343917 72.761053 -1.1796087e-17)
(39.441838 70.285897 -7.0147728e-16)
(43.013678 67.519547 5.8227347e-16)
(47.085964 64.443049 0)
(51.674344 61.047189 -3.8738058e-18)
(56.775761 57.335492 3.2155869e-17)
(62.362402 53.326907 -3.0749063e-17)
(68.386395 49.055482 -1.746487e-17)
(74.818434 44.559142 -3.9322401e-17)
(81.626741 39.887873 -2.6029053e-16)
(88.630724 35.051775 3.2178476e-16)
(95.052936 30.414369 -1.8759464e-16)
(35.964308 74.126689 0)
(51.612742 101.30395 -2.4055869e-15)
(55.360477 102.21391 3.6931048e-15)
(57.186714 99.994018 -1.4452776e-15)
(59.151613 97.251691 1.0669961e-17)
(61.455183 94.132054 2.8937039e-17)
(64.120898 90.614719 -7.8709916e-16)
(67.173218 86.674922 6.308081e-16)
(70.630537 82.299878 4.7146312e-16)
(74.500006 77.494017 -4.3397563e-16)
(78.771956 72.284284 0)
(83.424128 66.721109 3.1937701e-16)
(88.467805 60.858905 -1.8394045e-16)
(93.943725 54.748235 0)
(99.744782 48.608033 0)
(105.00021 42.919519 0)
(54.915149 85.566951 -3.1614032e-15)
(79.470148 118.06517 1.1470592e-15)
(84.20837 119.18844 0)
(85.42984 116.76656 3.3454784e-18)
(86.623041 113.70145 6.2627878e-16)
(88.053669 110.19639 -5.2767566e-16)
(89.736389 106.24071 -4.3408234e-16)
(91.693322 101.81012 -1.7830903e-17)
(93.943522 96.892952 3.3246189e-16)
(96.501607 91.494649 -2.0859971e-17)
(99.375281 85.643243 0)
(102.56859 79.390975 3.7310538e-16)
(106.10275 72.803188 -4.915007e-17)
(109.99456 65.933752 -2.5752466e-16)
(114.16898 59.009966 0)
(118.31395 52.354018 -3.3866923e-17)
(81.191605 98.244878 2.661623e-17)
(114.54466 132.19045 -1.2676555e-16)
(119.99368 133.12686 6.5792528e-17)
(120.51651 131.04728 1.1863295e-16)
(120.48562 127.83097 -9.3985375e-17)
(120.46108 124.03109 1.4217873e-16)
(120.50839 119.69393 -1.2555864e-16)
(120.66323 114.7863 -1.2837363e-16)
(120.95745 109.28603 1.1154201e-16)
(121.43243 103.20436 0)
(122.12861 96.586736 0)
(123.08299 89.514265 0)
(124.34616 82.088856 -1.0859163e-17)
(125.96962 74.372379 0)
(127.8509 66.568067 -1.4229956e-16)
(129.17375 59.453928 2.7977463e-16)
(20.606094 20.218243 4.4721297e-15)
(11.124703 14.230327 1.6781053e-17)
(-13.20866 -7.7270038 -3.0472879e-15)
(-33.180365 -25.587333 2.4127427e-15)
(-44.405452 -35.720162 3.1404788e-17)
(-49.135138 -40.565863 2.9806118e-17)
(-48.65876 -41.918286 0)
(-43.789857 -42.595057 9.5030533e-16)
(-34.49277 -43.469136 -1.3569365e-15)
(-7.467437 -39.199346 4.2264741e-16)
(34.229054 -32.368583 -2.9500475e-16)
(78.655965 -26.21548 2.0629108e-16)
(115.58063 -20.905345 -3.7747599e-18)
(145.05363 -16.043019 -3.3777912e-17)
(168.10716 -11.761375 -1.1799013e-16)
(185.97123 -8.6808966 0)
(-18.255117 -9.8286125 0)
(-29.946168 -14.876698 -2.594057e-17)
(-39.578585 -19.766156 2.2251562e-15)
(-50.547406 -26.059072 -1.7269415e-15)
(-57.209729 -30.382661 -3.9208608e-17)
(-59.302654 -33.260542 1.7629192e-15)
(-41.044317 -27.830236 -2.4820024e-17)
(1.2856117 -15.586348 -1.4350628e-15)
(46.84422 -4.8097607 7.1698221e-17)
(84.715826 -1.0437189 2.7174487e-16)
(115.79839 -2.3787195 0)
(142.04358 -5.2656405 -1.9010079e-17)
(163.36156 -7.7266481 -3.2936918e-17)
(179.69989 -9.2745195 -1.8461052e-16)
(191.52148 -9.8325033 2.7411235e-16)
(199.73038 -9.7716582 3.8720301e-17)
(-34.680098 -16.306034 1.0088983e-20)
(-54.832415 -24.928872 -6.7098542e-15)
(-61.688947 -27.658327 2.9689935e-15)
(-66.190312 -30.159499 -2.388804e-17)
(-37.225388 -22.264529 -1.8927251e-15)
(11.701829 -10.275229 1.0214223e-15)
(61.126847 -0.49259946 -1.0585084e-17)
(97.9839 2.9608294 1.3548265e-17)
(126.70291 2.7010821 -7.3492563e-18)
(148.96835 0.4074304 -1.4767241e-17)
(165.96653 -2.8833849 1.7616874e-16)
(178.86706 -6.4283682 -1.2918901e-16)
(188.47349 -9.5419954 -2.6410607e-16)
(195.3653 -11.735206 2.3954977e-16)
(200.0739 -12.740256 -4.6471632e-17)
(203.15929 -12.673055 -1.5773333e-16)
(-51.163304 -17.106467 -1.0413412e-17)
(-75.022307 -24.992757 -9.531444e-18)
(-45.826481 -18.048361 -1.5316093e-15)
(16.302237 -6.4028953 8.5205658e-16)
(72.222349 1.9843688 -8.6068348e-18)
(112.16466 4.9000792 3.291528e-16)
(141.60375 4.6135976 -2.2192812e-16)
(162.94907 2.5251922 -3.6098055e-16)
(177.95142 -0.55103913 8.8520664e-18)
(188.11092 -4.0605252 4.878258e-16)
(194.6969 -7.5453531 -1.9991648e-16)
(198.79642 -10.656178 0)
(201.26989 -13.131542 1.6892062e-17)
(202.7238 -14.80169 -1.4575617e-16)
(203.53023 -15.572647 7.586062e-17)
(203.88761 -15.565147 -2.0287773e-16)
(-54.542557 -10.723715 1.0413412e-17)
(-1.2048228 -4.8063421 -1.8908222e-15)
(75.533683 2.5637154 1.0329491e-15)
(125.05407 4.6647875 -4.4001007e-18)
(158.20353 3.8232424 1.0060495e-17)
(179.9231 1.3851853 -2.9205607e-18)
(193.49885 -1.7965867 -2.7340892e-16)
(201.45953 -5.1987855 4.6688873e-19)
(205.7001 -8.4799069 1.7218117e-16)
(207.58969 -11.457246 -1.4695486e-16)
(208.0746 -14.04558 1.2763834e-16)
(207.77119 -16.21175 0)
(207.05099 -17.927055 9.4817342e-17)
(206.12656 -19.143137 -7.2392105e-17)
(205.10467 -19.785592 2.7730945e-17)
(203.96259 -19.859958 0)
(8.9444421 -0.3759489 -1.7409095e-15)
(106.89969 -2.9080821 4.3777908e-16)
(163.59132 -2.7502387 5.0933819e-16)
(194.63944 -4.6943349 -3.6143926e-16)
(210.56279 -7.8279893 3.035941e-19)
(217.83916 -10.988273 1.1620739e-16)
(220.42425 -13.827901 9.4204916e-17)
(220.56009 -16.340326 -3.253038e-18)
(219.46714 -18.577938 -3.0746679e-18)
(217.7539 -20.578062 -1.5012338e-16)
(215.70694 -22.356998 1.6450861e-16)
(213.45634 -23.891432 -4.7467375e-18)
(211.07804 -25.121269 -1.6876829e-17)
(208.65327 -25.961474 -4.3721827e-17)
(206.26375 -26.311218 -3.1709125e-20)
(203.86272 -26.088495 2.3604123e-17)
(74.138446 -7.4107833 -8.7867166e-16)
(171.67603 -21.390177 -4.4502965e-16)
(215.52873 -23.194203 9.2141065e-16)
(231.13846 -25.8558 -4.6462369e-16)
(235.19169 -28.177339 1.9472146e-16)
(234.81997 -29.87132 1.7079523e-20)
(232.79648 -31.199643 2.477381e-16)
(230.0833 -32.361678 -1.1461138e-16)
(227.04797 -33.423001 -1.5281561e-17)
(223.78316 -34.369647 5.7665043e-17)
(220.32066 -35.15939 -9.4004082e-17)
(216.70272 -35.724264 7.6869244e-17)
(213.00239 -35.991376 -2.1761931e-17)
(209.3395 -35.883707 -9.6089211e-17)
(205.83996 -35.338893 3.868408e-17)
(202.49691 -34.383325 5.090415e-17)
(105.73237 -24.607535 -1.883321e-17)
(204.05021 -49.547618 1.8756152e-15)
(236.64944 -51.874206 -1.3884226e-15)
(242.5655 -53.526225 1.0636463e-15)
(241.55483 -54.011331 -9.1484063e-16)
(238.8595 -54.026642 0)
(235.63068 -53.853103 5.8302504e-16)
(232.04 -53.565171 -4.8306542e-16)
(228.19486 -53.169025 -1.0960431e-17)
(224.10093 -52.615099 0)
(219.7959 -51.857829 -4.2258044e-17)
(215.34991 -50.847364 2.126725e-17)
(210.87228 -49.545198 -1.4448631e-16)
(206.52422 -47.910151 2.8002467e-16)
(202.45573 -45.935069 -1.9980761e-16)
(198.69151 -43.692979 -5.4114783e-17)
(118.86485 -44.935746 1.1804816e-17)
(210.8682 -79.222031 -7.1985763e-18)
(234.69274 -81.539579 0)
(235.84801 -81.850638 -7.1675081e-18)
(233.59564 -80.829711 -1.3420745e-17)
(230.70358 -79.53544 7.2222386e-16)
(227.50407 -78.012117 -6.4086396e-16)
(223.97388 -76.261779 0)
(220.20922 -74.292469 4.6754557e-17)
(216.19272 -72.052262 3.3370312e-17)
(211.97384 -69.519194 2.9295311e-17)
(207.6326 -66.682596 -5.9512529e-17)
(203.28962 -63.553448 3.2684544e-17)
(199.11721 -60.157363 1.8970938e-16)
(195.28033 -56.616972 -2.2088761e-16)
(191.80866 -53.145092 1.2131205e-16)
(112.30839 -82.141427 8.0407434e-15)
(183.0872 -126.46919 -2.6296908e-15)
(195.30334 -128.32292 0)
(194.70528 -126.37282 -1.0950945e-17)
(193.3048 -123.39646 -1.1673905e-15)
(191.6519 -120.07728 1.0089403e-15)
(189.8534 -116.33466 6.9006967e-16)
(187.90958 -112.17628 -3.1943513e-17)
(185.82533 -107.59603 -4.8399797e-16)
(183.60918 -102.59658 2.3192811e-17)
(181.27855 -97.198893 0)
(178.8678 -91.443193 -3.2110001e-16)
(176.44557 -85.395319 8.2320422e-17)
(174.18882 -79.111074 1.882659e-16)
(172.44263 -72.694904 0)
(171.02672 -66.427607 1.1307311e-17)
(107.84495 -102.80955 2.5600363e-17)
(162.30583 -144.9358 4.4524286e-15)
(171.38071 -146.67216 -1.7143015e-15)
(171.03589 -143.90079 -1.2544187e-15)
(170.35986 -140.13089 1.0110589e-15)
(169.52894 -135.97136 -7.5865689e-16)
(168.59526 -131.32799 6.2541303e-16)
(167.54032 -126.19389 4.1004126e-16)
(166.35864 -120.57165 -3.6742497e-16)
(165.05602 -114.46364 0)
(163.65204 -107.89374 0)
(162.186 -100.91085 0)
(160.73512 -93.588252 7.9432943e-18)
(159.50871 -86.000715 0)
(158.82467 -78.268936 4.5906979e-17)
(158.76292 -71.092875 -6.5762625e-17)
(-23.633862 28.894013 6.552494e-15)
(-41.148299 49.470236 2.1216911e-17)
(-43.271234 51.16422 -4.9074186e-15)
(-41.380922 49.005311 4.2605527e-15)
(-38.64494 45.999048 5.4628852e-17)
(-35.472643 42.39806 5.0034157e-17)
(-31.807185 38.131529 0)
(-27.459321 33.098878 2.431096e-15)
(-22.161128 27.125955 -4.3299045e-15)
(-16.792172 19.041942 2.0146738e-15)
(-13.361947 7.4522697 -2.0381328e-15)
(7.2699995 -6.6103882 1.9212842e-15)
(62.387634 -27.441268 -5.6710259e-18)
(79.53562 -40.938611 -1.0289938e-16)
(94.046419 -44.676063 -2.5016682e-16)
(107.54195 -41.271395 0)
(-23.753601 36.884151 0)
(-35.21375 53.269827 -3.7482611e-17)
(-35.690879 51.953933 3.785867e-15)
(-34.417078 47.711778 -2.9631533e-15)
(-33.019032 42.71295 -5.5528935e-17)
(-31.484556 36.914979 1.917436e-15)
(-29.63987 30.139468 1.4465939e-17)
(-27.206585 22.224425 -2.6366702e-15)
(-24.112477 12.740893 1.1985368e-16)
(-20.557792 1.1013563 9.7205302e-16)
(-16.356505 -13.966453 0)
(-9.663413 -30.527952 -8.6435855e-17)
(7.2154145 -42.806198 -1.4899436e-16)
(24.862439 -54.183479 -7.3793265e-16)
(40.436733 -59.603892 1.1518324e-15)
(58.236386 -57.387154 1.1216206e-16)
(-14.915103 26.994194 2.8055942e-18)
(-19.55497 31.470641 -7.0887077e-15)
(-19.902088 25.407129 2.4759644e-15)
(-20.649042 19.032273 -1.337198e-17)
(-22.057246 12.931934 -1.3921055e-15)
(-23.96791 6.7931466 1.080701e-15)
(-26.210407 0.40088135 -1.3087984e-17)
(-28.606555 -6.3873587 2.1683657e-17)
(-30.860744 -13.7335 -2.5233794e-17)
(-32.73745 -21.835255 -3.1621364e-17)
(-33.676391 -30.777784 4.7500442e-16)
(-32.593862 -40.614416 -3.4260629e-16)
(-28.329272 -50.982404 -6.9996239e-16)
(-20.862888 -60.550104 6.3663534e-16)
(-11.607295 -65.988484 -1.1368984e-16)
(-2.8366497 -65.86058 -2.9362711e-16)
(0.9203006 -8.2955461 -7.9834395e-18)
(0.64996224 -14.602244 -6.0533368e-18)
(-1.249595 -18.458486 -1.066467e-15)
(-3.8672988 -21.76507 8.1372666e-16)
(-7.0034861 -24.952415 -9.956474e-18)
(-10.614116 -28.207503 5.05001e-16)
(-14.662126 -31.649193 -3.6254822e-16)
(-19.085519 -35.379765 -6.5864227e-16)
(-23.784081 -39.502998 -1.3306964e-17)
(-28.564318 -44.14101 9.2647768e-16)
(-33.158869 -49.39607 -3.7593602e-16)
(-37.127384 -55.201425 0)
(-39.940289 -61.215643 3.6848125e-17)
(-40.943314 -66.649166 -2.886045e-16)
(-39.88742 -70.047001 1.482051e-16)
(-37.16371 -70.45676 -3.6598115e-16)
(6.1205484 -36.122501 6.802328e-18)
(7.5065068 -51.897723 -1.3608046e-15)
(5.6703999 -55.92531 1.0177723e-15)
(3.0859578 -58.122999 -5.9179356e-18)
(-0.0046863099 -59.913014 1.4739668e-17)
(-3.5998899 -61.556367 -4.310796e-18)
(-7.6939001 -63.147876 -4.2395862e-16)
(-12.261892 -64.749898 -1.5020883e-17)
(-17.246545 -66.408936 2.5746055e-16)
(-22.537028 -68.157348 -2.3645513e-16)
(-27.929615 -70.004259 1.9768493e-16)
(-33.147507 -71.877855 0)
(-37.780486 -73.517032 1.7074119e-16)
(-41.253308 -74.593357 -1.3074643e-16)
(-43.088155 -73.863721 5.4077631e-17)
(-42.315436 -71.00201 0)
(4.0886028 -58.051609 -1.045553e-15)
(4.3480556 -83.878444 3.9090731e-16)
(2.2722256 -88.65934 5.9632004e-16)
(0.022500237 -89.970694 -4.6924902e-16)
(-2.5331098 -90.575705 -4.9504997e-18)
(-5.4795469 -90.840423 1.5513834e-16)
(-8.8214459 -90.829587 1.2999414e-16)
(-12.551895 -90.562213 4.0653338e-19)
(-16.635838 -90.03247 5.443646e-19)
(-20.994133 -89.207649 -2.1343949e-16)
(-25.480901 -88.015476 2.4236728e-16)
(-29.87101 -86.312636 1.5467688e-18)
(-33.825048 -83.825999 -2.0313174e-17)
(-36.713817 -80.267509 -8.1435528e-17)
(-37.858579 -74.443911 -7.8776226e-20)
(-37.208615 -65.890196 6.9365184e-17)
(-2.880182 -68.249418 -6.3132855e-16)
(-6.1469051 -105.10983 -4.6685752e-16)
(-8.8583275 -111.53041 1.1014073e-15)
(-10.489802 -112.31374 -5.8761909e-16)
(-12.15104 -112.0944 2.4605092e-16)
(-14.028833 -111.41304 2.1385659e-20)
(-16.115801 -110.31164 3.2495979e-16)
(-18.405846 -108.76667 -1.3971841e-16)
(-20.869289 -106.72035 -1.4613888e-17)
(-23.437908 -104.07403 9.1076428e-17)
(-25.985334 -100.6722 -1.3436684e-16)
(-28.32717 -96.270063 1.3488949e-16)
(-30.192295 -90.474375 -2.9821602e-17)
(-31.253372 -82.788294 -2.1515154e-16)
(-30.544453 -72.533282 9.9432495e-17)
(-27.02887 -58.730466 2.1370779e-16)
(-10.867272 -66.121762 -1.7142765e-17)
(-19.482119 -111.66693 2.1428988e-15)
(-23.668127 -122.08366 -1.7683521e-15)
(-24.617507 -123.20273 1.4499853e-15)
(-25.149224 -122.63158 -1.2208457e-15)
(-25.718189 -121.52293 0)
(-26.281251 -119.93856 8.2682544e-16)
(-26.819176 -117.82546 -6.7094775e-16)
(-27.290469 -115.09028 -1.9309034e-17)
(-27.621189 -111.5911 0)
(-27.68921 -107.11403 -7.6101825e-17)
(-27.321892 -101.34479 4.522141e-17)
(-26.437383 -93.841283 -3.6258323e-16)
(-24.980517 -84.122725 8.0732665e-16)
(-22.202667 -72.010454 -7.4833252e-16)
(-5.3439477 -48.216813 -3.4516098e-16)
(-15.56358 -52.697241 1.2252811e-17)
(-30.368136 -102.56718 -8.1703772e-18)
(-37.043476 -118.36084 0)
(-38.137194 -121.96671 3.1397634e-17)
(-37.735075 -122.08286 1.7695089e-17)
(-37.03675 -121.14539 1.0057905e-15)
(-36.101542 -119.6561 -8.8597549e-16)
(-34.877508 -117.63315 0)
(-33.284278 -114.97934 1.9094647e-19)
(-31.204054 -111.53313 -6.1424934e-17)
(-28.464719 -107.06531 5.3044038e-17)
(-24.829822 -101.23 4.5461717e-17)
(-20.153499 -93.646733 8.1369397e-17)
(-13.781215 -83.239894 6.825874e-16)
(-2.6723615 -66.771908 -9.9824799e-16)
(27.794292 -39.412047 6.1769876e-16)
(-12.45548 -28.995326 0)
(-32.428045 -77.467273 4.1516661e-15)
(-42.91839 -99.341665 -5.8914304e-15)
(-45.967913 -107.93329 2.3166298e-15)
(-45.773927 -110.77119 -1.5264093e-17)
(-44.387908 -111.10099 -4.8642556e-17)
(-42.34459 -110.24785 1.3446763e-15)
(-39.69376 -108.64835 -1.1250607e-15)
(-36.327093 -106.36143 -8.5061653e-16)
(-32.044993 -103.27793 8.0186413e-16)
(-26.558267 -99.190352 0)
(-19.495356 -93.807383 -6.5870489e-16)
(-10.494403 -86.770208 3.8684839e-16)
(1.9720014 -76.33529 0)
(25.707549 -56.280032 0)
(64.654725 -29.768279 0)
(0.46786534 0.46626684 1.3987422e-14)
(-22.859135 -42.072772 -4.1993796e-15)
(-37.950153 -68.306869 0)
(-45.390151 -82.951195 -1.4404328e-17)
(-47.869708 -90.442078 -1.5484138e-15)
(-47.516947 -93.562017 1.3493777e-15)
(-45.433607 -94.147847 1.0440372e-15)
(-42.040139 -93.206398 1.231564e-17)
(-37.383917 -91.180565 -8.1951452e-16)
(-31.275257 -88.163425 4.3426426e-17)
(-23.292753 -84.037695 0)
(-12.452613 -78.518324 -9.4230803e-16)
(2.9188985 -71.032997 8.7708744e-17)
(32.188125 -55.106136 6.3722644e-16)
(73.046926 -33.839404 0)
(112.93719 -15.894476 8.0322861e-17)
(22.407154 26.868408 -1.7325163e-18)
(5.7537005 5.114149 9.8734159e-15)
(-17.581498 -26.255908 -2.9358117e-15)
(-33.473041 -47.400296 -2.0482892e-15)
(-41.794251 -59.418921 1.5882488e-15)
(-44.623022 -65.378513 -1.2987437e-15)
(-43.800666 -67.569622 1.0760254e-15)
(-40.492407 -67.491815 8.3433548e-16)
(-35.278431 -65.993451 -7.7793525e-16)
(-28.292424 -63.356124 0)
(-20.431841 -59.881797 0)
(-5.0504746 -53.627916 0)
(32.664336 -41.162589 7.4967113e-17)
(77.278541 -28.560124 0)
(117.8273 -17.545913 3.4560284e-16)
(153.60247 -9.8202715 -6.3403824e-16)
(115.50914 132.90225 0)
(121.26024 134.27971 0)
(122.12094 132.39845 0)
(122.5469 129.27536 8.2764779e-19)
(122.97244 125.64105 -6.2316817e-18)
(123.5131 121.43903 5.9165024e-18)
(124.20122 116.66582 0)
(125.05905 111.27931 -3.6960433e-18)
(126.10104 105.28353 0)
(127.33425 98.719637 0)
(128.75514 91.671281 0)
(130.36729 84.251925 9.7900615e-18)
(132.21431 76.567793 0)
(134.21488 68.716426 -1.8139732e-17)
(136.06047 61.716413 0)
(126.34011 -145.62586 0)
(133.10244 -147.44241 0)
(134.15202 -145.66865 0)
(134.67076 -142.44932 1.6993352e-18)
(135.13383 -138.7128 -1.1843264e-17)
(135.67018 -134.41574 1.7414134e-17)
(136.30631 -129.53003 0)
(137.03896 -124.02242 3.8495151e-18)
(137.86368 -117.8661 0)
(138.77233 -111.08401 0)
(139.74985 -103.7387 0)
(140.79134 -95.930312 -9.8953404e-18)
(141.96486 -87.762074 0)
(143.40102 -79.590967 -1.0704783e-17)
(144.90621 -72.241439 0)
(8.9222223 7.3797979 0)
(-16.377081 -24.22814 0)
(-32.959437 -45.064838 0)
(-41.590501 -56.990455 6.644409e-18)
(-44.509858 -62.800484 -4.5923419e-17)
(-43.645143 -64.710306 6.6614516e-17)
(-40.057069 -64.267855 0)
(-34.336825 -62.338096 3.3710619e-18)
(-26.017366 -60.089654 0)
(-14.356766 -57.069783 0)
(41.999488 -39.064266 0)
(90.785133 -27.182576 -2.1823498e-18)
(128.13048 -19.718472 0)
(156.87047 -13.596531 1.1296985e-16)
(179.65067 -9.4397676 0)
(-39.907964 47.482264 0)
(-41.980147 49.152906 0)
(-40.199987 47.106262 0)
(-37.619544 44.095302 1.3801284e-17)
(-34.565748 40.548973 -1.0939935e-16)
(-30.975485 36.437254 1.7454736e-16)
(-26.686123 31.626343 0)
(-21.345954 25.785651 -3.4395555e-21)
(-14.759438 19.306994 0)
(-7.0180612 9.7270534 0)
(70.386348 -9.0374277 0)
(102.5844 -20.821682 1.2069402e-18)
(120.14459 -27.954345 0)
(132.4406 -30.322891 1.4691517e-16)
(141.81459 -27.154107 0)