/*--------------------------------*- C++ -*----------------------------------*\
| =========                 |                                                 |
| \\      /  F ield         | foam-extend: Open Source CFD                    |
|  \\    /   O peration     | Version:     4.1                                |
|   \\  /    A nd           | Web:         http://www.foam-extend.org         |
|    \\/     M anipulation  |                                                 |
\*---------------------------------------------------------------------------*/
FoamFile
{
    version     2.0;
    format      ascii;
    class       regIOobject;
    location    "2.3/uniform";
    object      profilingInfo;
}
// * * * * * * * * * * * * * * * * * * * * * * * * * * * * * * * * * * * * * //

profilingInfo
(

    {
        id              14;
        parentId        11;
        description     "Foam::Time::writeObject - outputTime";
        calls           23;
        totalTime       2.314298;
        childTime       0;
        onStack         1;
    }

    {
        id              11;
        parentId        1;
        description     "Foam::Time::writeObject";
        calls           4600;
        totalTime       2.330391;
        childTime       2.314298;
        onStack         1;
    }

    {
        id              1;
        description     "application::main";
        calls           1;
        totalTime       2849.4869;
        childTime       2779.2272;
        onStack         1;
    }

    {
        id              12;
        parentId        1;
        description     "FO::forces::execute";
        calls           4599;
        totalTime       12.30952;
        childTime       0;
        onStack         0;
    }

    {
        id              13;
        parentId        1;
        description     "FO::probes::execute";
        calls           4599;
        totalTime       0.285308;
        childTime       0;
        onStack         0;
    }

    {
        id              2;
        parentId        1;
        description     "functionObjectList::read";
        calls           1;
        totalTime       0.000455;
        childTime       0;
        onStack         0;
    }

    {
        id              3;
        parentId        1;
        description     "fvMatrix::solve_U";
        calls           4600;
        totalTime       14.539617;
        childTime       11.247923;
        onStack         0;
    }

    {
        id              8;
        parentId        1;
        description     "fvMatrix::solve_p";
        calls           18400;
        totalTime       2749.7619;
        childTime       2745.102;
        onStack         0;
    }

    {
        id              5;
        parentId        4;
        description     "lduMatrix::smoother_Ux";
        calls           4600;
        totalTime       3.529346;
        childTime       0;
        onStack         0;
    }

    {
        id              7;
        parentId        6;
        description     "lduMatrix::smoother_Uy";
        calls           4600;
        totalTime       3.683707;
        childTime       0;
        onStack         0;
    }

    {
        id              4;
        parentId        3;
        description     "lduMatrix::solver_Ux";
        calls           4600;
        totalTime       5.688235;
        childTime       3.529346;
        onStack         0;
    }

    {
        id              6;
        parentId        3;
        description     "lduMatrix::solver_Uy";
        calls           4600;
        totalTime       5.559688;
        childTime       3.683707;
        onStack         0;
    }

    {
        id              9;
        parentId        8;
        description     "lduMatrix::solver_p";
        calls           18400;
        totalTime       2745.102;
        childTime       297.50756;
        onStack         0;
    }

    {
        id              10;
        parentId        9;
        description     "lduMatrix::solver_topLevelCorr";
        calls           1711406;
        totalTime       297.50756;
        childTime       0;
        onStack         0;
    }
);


// ************************************************************************* //
