/*--------------------------------*- C++ -*----------------------------------*\
| =========                 |                                                 |
| \\      /  F ield         | foam-extend: Open Source CFD                    |
|  \\    /   O peration     | Version:     4.1                                |
|   \\  /    A nd           | Web:         http://www.foam-extend.org         |
|    \\/     M anipulation  |                                                 |
\*---------------------------------------------------------------------------*/
FoamFile
{
    version     2.0;
    format      ascii;
    class       volScalarField;
    location    "0.85";
    object      p;
}
// * * * * * * * * * * * * * * * * * * * * * * * * * * * * * * * * * * * * * //

dimensions      [0 2 -2 0 0 0 0];

internalField   nonuniform List<scalar> 
4393
(
-46.419185
-92.983548
-146.74931
-201.54138
-258.53319
-318.03545
-380.4311
-446.0297
-515.05551
-587.61867
-663.68714
-743.05848
-825.33457
-909.90281
-995.92793
-1082.3573
-1167.9405
-1251.26
-1330.7687
-1404.8293
-1471.7505
-1529.8218
-1577.3487
-1612.6934
-1634.3283
-1640.9103
-1631.3851
-1605.1328
-1562.0466
-1502.6267
-1428.0844
-1340.3252
-1241.8436
-1135.5399
-1024.4949
-911.7433
-800.08443
-691.951
-589.34014
-493.80004
-406.45814
-328.07551
-259.11272
-199.7956
-150.18553
-110.2515
-79.774195
-57.843109
-43.638757
-45.167019
-92.39772
-146.03672
-200.67755
-257.50024
-316.84771
-379.11652
-444.62831
-513.61918
-586.21133
-662.38432
-741.94579
-824.50467
-909.45082
-995.94578
-1082.928
-1169.1331
-1253.1274
-1333.3469
-1408.1384
-1475.7958
-1534.5942
-1582.8223
-1618.8206
-1641.0327
-1648.0818
-1638.8785
-1612.7279
-1569.4596
-1509.567
-1434.2668
-1345.4997
-1245.8257
-1138.231
-1025.8863
-911.90618
-799.15019
-690.08764
-586.7301
-490.62238
-402.87623
-324.23017
-255.12211
-195.76508
-146.21194
-106.37136
-75.972504
-54.873426
-44.2752
-44.362776
-91.500957
-144.77842
-199.05846
-255.53033
-314.56655
-376.58583
-441.93206
-510.8645
-583.52902
-659.92803
-739.8888
-823.0336
-908.75615
-996.21003
-1084.3137
-1171.7735
-1257.1211
-1338.7579
-1414.9985
-1484.1085
-1544.3349
-1593.9342
-1631.2038
-1654.5265
-1662.4459
-1653.7838
-1627.7623
-1584.1193
-1523.2762
-1446.4442
-1355.6331
-1253.5396
-1143.3284
-1028.3564
-911.90123
-796.94273
-686.02056
-581.1704
-483.92452
-395.35705
-316.15488
-246.70209
-187.16804
-137.56214
-97.699009
-67.268678
-46.71361
-37.931027
-43.572051
-90.205195
-142.87467
-196.5762
-252.50402
-311.05933
-372.68961
-437.77075
-506.59679
-579.35013
-656.069
-736.61209
-820.62377
-907.50527
-996.39903
-1086.1932
-1175.5484
-1262.943
-1346.7253
-1425.1625
-1496.479
-1558.8834
-1610.5876
-1649.8284
-1674.9004
-1684.2248
-1676.4772
-1650.7286
-1606.5687
-1544.3124
-1465.1577
-1371.2205
-1265.4143
-1151.1889
-1032.1971
-911.97341
-793.68354
-679.973
-572.91018
-474.00354
-384.26598
-304.30365
-234.41683
-174.69967
-125.08651
-85.302383
-55.032971
-34.944878
-26.800699
-42.74691
-88.587752
-140.40424
-193.30144
-248.48124
-306.37563
-367.46761
-432.17458
-500.83716
-573.68765
-650.81409
-732.11972
-817.28121
-905.71176
-996.53908
-1088.6084
-1180.5154
-1270.6624
-1357.3238
-1438.7031
-1512.9731
-1578.2955
-1632.8301
-1674.739
-1702.204
-1713.4845
-1707.0543
-1681.7637
-1636.977
-1572.841
-1490.52
-1392.2751
-1281.3321
-1161.5542
-1037.021
-911.63067
-788.80537
-671.32922
-561.30487
-460.19686
-368.92475
-287.97797
-217.53781
-157.58919
-107.96482
-68.307462
-38.310386
-18.693884
-10.93742
-41.738324
-86.538536
-137.25564
-189.11752
-243.33491
-300.37501
-360.76359
-424.96981
-493.39393
-566.33339
-643.94259
-726.18567
-812.78512
-903.1733
-996.46023
-1091.4337
-1186.6003
-1280.2591
-1370.586
-1455.7042
-1533.7256
-1602.7627
-1660.9197
-1706.2755
-1736.8763
-1750.7765
-1746.182
-1721.6401
-1676.1933
-1609.7333
-1523.3527
-1419.4988
-1301.8294
-1174.7853
-1043.0362
-910.97199
-782.34953
-660.12086
-546.41458
-442.61892
-349.5161
-267.43201
-196.3841
-136.20647
-86.597719
-47.101143
-17.37917
1.885024
9.4239011
-40.596381
-84.128784
-133.4937
-184.07352
-237.09235
-293.05848
-352.5482
-416.09326
-484.16766
-557.15115
-635.28401
-718.61151
-806.91998
-899.67188
-995.95773
-1094.4903
-1193.6564
-1291.6167
-1386.4193
-1476.0889
-1558.6721
-1632.2361
-1694.8369
-1744.4703
-1779.0316
-1796.3277
-1794.2197
-1770.8503
-1724.811
-1655.6099
-1564.199
-1453.2539
-1327.0194
-1190.7314
-1049.8597
-909.44325
-773.65974
-645.65189
-527.5515
-420.62227
-325.45137
-242.14477
-170.50582
-110.17614
-60.690627
-21.471195
7.8938379
26.813547
34.180866
-39.186867
-81.207124
-128.95889
-178.00495
-229.58133
-284.24267
-342.62334
-405.32896
-472.92265
-545.88605
-624.56843
-709.12148
-799.41953
-894.97163
-994.84886
-1097.6669
-1201.6523
-1304.7805
-1404.9333
-1500.018
-1588.0154
-1666.9619
-1734.8841
-1789.7087
-1829.174
-1850.7995
-1852.0152
-1830.4362
-1784.0304
-1711.7332
-1614.2372
-1494.4852
-1357.5182
-1209.6627
-1057.4678
-906.81607
-762.3993
-627.55938
-504.38472
-393.94141
-296.54296
-212.00347
-139.85224
-79.492318
-30.263751
8.5553921
37.480117
56.033896
63.238706
-37.654288
-77.932458
-123.79923
-171.03608
-220.8944
-273.98069
-330.99502
-392.62856
-459.55041
-532.36671
-611.56366
-697.43159
-789.96614
-888.74869
-992.83563
-1100.7188
-1210.4096
-1319.6341
-1426.0581
-1527.4493
-1621.7306
-1706.9349
-1781.0967
-1842.1051
-1887.551
-1914.6325
-1920.2534
-1901.3496
-1855.0375
-1779.4006
-1674.6689
-1544.0802
-1393.7603
-1231.5439
-1065.4364
-902.40843
-747.76309
-605.02579
-476.16053
-361.92975
-262.26896
-176.61114
-104.1416
-43.973902
4.7810369
43.013665
71.364998
89.484466
96.507333
-35.749638
-74.006296
-117.69434
-162.83464
-210.68586
-261.90923
-317.27682
-377.57688
-443.60267
-516.11037
-595.75636
-683.00996
-778.03301
-880.5181
-989.51898
-1103.3699
-1219.79
-1336.1642
-1449.8731
-1558.5194
-1659.9851
-1752.3473
-1833.7093
-1901.9817
-1954.6399
-1988.5412
-1999.963
-1984.9821
-1939.5663
-1860.5375
-1747.3211
-1603.4444
-1436.5286
-1256.5207
-1073.4013
-895.53594
-728.92948
-577.23262
-442.15169
-323.99387
-222.17941
-135.65097
-63.170428
-3.5084691
44.486529
81.894661
109.49799
127.07954
133.8833
-33.799428
-69.807634
-111.03004
-153.77086
-199.29863
-248.33209
-301.72036
-360.3595
-425.1857
-497.13386
-577.06964
-665.69178
-763.38929
-870.02577
-984.67953
-1105.4876
-1229.7698
-1354.4391
-1476.4943
-1593.3455
-1702.8694
-1803.261
-1892.7862
-1969.47
-2030.7372
-2073.1046
-2092.1322
-2082.8204
-2039.6123
-1957.4742
-1834.4484
-1674.2702
-1486.6557
-1284.5642
-1080.676
-885.13314
-704.70642
-543.04206
-401.3786
-279.35485
-175.6977
-88.72771
-16.694403
42.029388
88.888764
125.16938
151.80209
168.70814
175.24096
-31.3235
-64.749677
-103.166
-143.16988
-186.02153
-232.49497
-283.519
-340.10715
-403.35828
-474.41861
-554.40979
-644.32272
-744.85608
-856.13588
-977.31881
-1106.2998
-1239.844
-1374.1958
-1505.8296
-1631.926
-1750.413
-1859.7111
-1958.3802
-2044.7023
-2116.1663
-2168.9873
-2197.9491
-2196.7191
-2157.7599
-2073.3515
-1939.173
-1758.9129
-1545.2767
-1315.6218
-1086.3462
-869.8355
-673.62243
-501.10128
-352.72112
-227.15826
-122.22005
-35.450537
35.508102
92.733238
137.98804
172.77178
198.1642
214.22634
220.42392
-28.936083
-59.57624
-94.899945
-131.84944
-171.67858
-215.21442
-263.46491
-317.56705
-378.7997
-448.55396
-528.25911
-619.27133
-722.70448
-839.08175
-967.7368
-1106.2759
-1250.6847
-1396.2429
-1538.693
-1674.9529
-1803.1097
-1921.9777
-2030.6019
-2127.7321
-2211.1118
-2276.7415
-2318.5667
-2328.6997
-2297.1217
-2212.219
-2065.6773
-1860.509
-1613.7714
-1349.4272
-1089.0296
-847.75525
-633.75007
-449.71918
-294.84019
-166.42888
-61.092534
24.575587
93.635986
148.65998
191.74208
224.59193
248.42892
263.4507
269.23794
-25.834882
-53.294545
-85.135042
-118.63592
-155.01191
-195.13151
-240.07595
-291.10784
-349.70188
-417.53113
-496.39397
-588.10094
-694.32019
-816.17824
-953.37385
-1103.2021
-1260.5482
-1419.276
-1574.0843
-1721.59
-1860.2082
-1989.3703
-2108.831
-2218.0735
-2315.3791
-2396.7021
-2455.1281
-2481.05
-2461.5265
-2379.4466
-2219.7842
-1983.4368
-1693.9072
-1385.4304
-1086.723
-816.34924
-582.6312
-386.84702
-226.19611
-96.107298
8.3480158
91.712775
157.83534
209.80723
250.04984
280.46481
302.39048
316.15168
321.44452
-22.988922
-47.106619
-75.195767
-104.93315
-137.4953
-173.78349
-214.94346
-262.35993
-317.71299
-382.99191
-460.42855
-552.38218
-661.23548
-789.00546
-936.07608
-1099.4483
-1272.4136
-1446.6893
-1615.4305
-1774.9167
-1924.1938
-2063.6645
-2194.1104
-2316.1485
-2429.0891
-2529.184
-2608.7007
-2656.2043
-2655.5453
-2582.122
-2409.7045
-2133.9161
-1787.9012
-1422.5535
-1076.4687
-772.15485
-517.12118
-310.01558
-145.04478
-15.075536
86.738817
166.25622
228.17113
276.09159
312.73584
340.15944
359.78523
372.04773
376.75561
-19.234599
-39.567007
-63.485289
-89.03046
-117.28787
-149.164
-185.84565
-228.82091
-279.96942
-341.62248
-416.51427
-507.65693
-618.33256
-751.86033
-909.89093
-1089.3124
-1281.134
-1473.8049
-1658.2089
-1830.3287
-1990.4119
-2140.3658
-2282.3176
-2418.4081
-2549.5755
-2672.7961
-2779.5155
-2856.4468
-2884.4671
-2829.5899
-2647.2741
-2321.1131
-1898.5461
-1458.8526
-1053.9041
-710.47418
-433.23962
-216.30969
-49.478368
77.779271
174.62866
248.38289
304.58908
347.32231
379.53278
403.36782
420.28457
430.80056
434.82965
-15.910105
-32.367988
-51.890531
-72.947626
-96.530046
-123.53251
-155.1644
-193.00038
-239.11211
-296.1996
-367.58254
-457.04093
-568.93547
-708.41312
-879.36151
-1079.0356
-1295.0895
-1510.7781
-1713.4504
-1898.8023
-2069.1878
-2228.7394
-2381.1617
-2530.5161
-2680.4229
-2829.6396
-2969.2111
-3084.3711
-3154.1309
-3134.0419
-2949.9894
-2559.1879
-2029.322
-1490.9267
-1012.5528
-624.94043
-326.00536
-102.37548
62.491798
183.46688
272.3929
338.08778
386.87198
423.17306
450.06438
469.69509
483.48971
492.01228
495.2696
-11.484386
-23.591815
-38.295492
-54.439753
-72.849593
-94.365175
-120.17255
-151.87853
-191.68512
-242.62525
-308.64443
-394.37248
-505.346
-649.1248
-833.43982
-1057.1449
-1303.0448
-1546.0671
-1768.1617
-1965.0239
-2143.0182
-2309.9286
-2471.3506
-2633.6524
-2804.7743
-2986.8073
-3170.3836
-3338.5325
-3469.9398
-3511.2913
-3344.1678
-2870.8271
-2184.1685
-1512.8916
-942.7633
-506.97712
-189.30781
35.487222
192.77349
302.74157
380.11749
435.10537
474.59056
503.15337
523.82994
538.65206
548.9287
555.22492
557.62327
-7.5463722
-15.399685
-25.214923
-36.273373
-49.209309
-64.76948
-84.070855
-108.70148
-140.93647
-184.11563
-242.90981
-322.99127
-431.16107
-577.98176
-777.60871
-1033.3176
-1320.9148
-1601.328
-1847.9427
-2056.7308
-2241.355
-2415.2817
-2585.4696
-2759.5676
-2951.5179
-3168.8323
-3401.8781
-3630.7005
-3839.9685
-3979.4845
-3868.0552
-3294.1613
-2367.8965
-1515.4756
-830.31134
-345.17451
-15.884385
201.08457
342.91721
435.88214
497.45077
538.81978
567.05345
586.58304
600.19298
609.65166
616.05707
619.923
621.38662
-2.4943086
-5.6555553
-10.105472
-15.57408
-22.445395
-31.343041
-43.274887
-59.750957
-83.015364
-116.57098
-165.7611
-237.37134
-339.19063
-484.65641
-697.73982
-992.06793
-1333.8042
-1659.6558
-1930.1525
-2142.1983
-2323.1719
-2495.6575
-2666.8417
-2843.2167
-3049.0364
-3303.2138
-3599.1252
-3914.2338
-4241.4429
-4553.2536
-4583.0597
-3903.5128
-2589.34
-1483.243
-653.44857
-124.36234
202.49597
397.83761
513.67525
582.39156
623.42664
648.17123
663.26281
672.57455
678.37715
682.01131
684.26301
685.53992
686.01049
2.9585176
3.9729165
4.546283
4.3728506
3.3874054
1.1546598
-3.1203774
-10.724619
-23.653498
-45.263263
-81.377815
-140.13632
-230.28202
-367.40197
-589.89821
-934.94033
-1357.8945
-1750.7436
-2054.9466
-2266.9837
-2439.9381
-2611.6163
-2788.652
-2969.4602
-3193.9688
-3500.0541
-3883.3358
-4313.129
-4763.9401
-5291.5578
-5573.8501
-4825.397
-2837.3335
-1376.2653
-376.94278
174.89556
474.13899
627.82609
704.33297
740.61501
756.27466
761.57393
761.88625
760.02958
757.47283
754.96288
752.87796
751.46829
750.91079
8.285185
13.265739
19.324169
25.158792
31.021589
36.678853
41.596045
44.763826
44.510763
37.79949
18.450745
-23.542093
-98.152451
-220.11709
-443.96016
-853.49328
-1397.3254
-1876.4703
-2210.8055
-2392.944
-2530.4885
-2685.7459
-2862.8405
-3027.8618
-3238.6817
-3573.5747
-4023.7524
-4561.7822
-5089.7491
-5960.4004
-6823.7629
-6299.5617
-3074.0482
-1170.9762
36.490586
572.64352
805.00347
890.16674
911.79325
907.31205
893.25454
876.87097
861.25962
847.65723
836.45791
827.67171
821.19309
817.07454
815.48224
17.841048
25.860003
36.762377
47.720706
59.417877
71.802859
84.633208
97.260262
108.52405
116.23726
114.96744
93.715445
41.617886
-49.545893
-244.69193
-715.18105
-1441.9301
-2033.6769
-2413.4474
-2545.7926
-2643.086
-2787.2737
-2982.214
-3113.7278
-3276.7153
-3677.7455
-4224.4095
-4961.738
-5679.3436
-7242.8947
-8882.1425
-9068.4114
-3578.1721
-1038.2474
635.17856
1099.0829
1197.3443
1178.9742
1129.523
1077.2845
1030.5839
991.36314
959.43788
934.02115
914.23542
899.26552
888.48173
881.71723
879.11526
22.151072
30.89633
46.138349
62.240323
80.174095
100.11124
122.29545
146.75146
173.26669
201.24215
227.41838
240.71748
225.96471
180.34149
45.394823
-483.31049
-1555.2113
-2311.5764
-2773.7415
-2771.1046
-2749.7192
-2813.2126
-3022.7114
-3099.9496
-3207.185
-3763.3187
-4233.0318
-5185.2539
-6470.8769
-7863.488
-9589.1945
-12103.608
-4823.3343
-72.53904
1722.8207
1811.977
1641.138
1478.7567
1346.2266
1243.2007
1163.5546
1101.954
1054.3089
1017.6192
989.68792
968.87198
954.02638
944.76819
941.2149
36.937221
46.533921
66.461322
87.315789
110.75038
137.08025
166.90993
200.72469
238.86643
281.66732
327.57955
365.3609
371.83402
347.27079
293.73535
-191.12627
-1818.1365
-2617.243
-3115.5821
-2772.8843
-2626.8436
-2732.6429
-3131.9039
-3271.1622
-3302.4352
0
0
0
0
0
0
0
0
6202.3719
3402.4533
2582.4935
2068.2369
1755.858
1545.1237
1396.0869
1286.9998
1205.4533
1143.7761
1096.9933
1061.7451
1035.6623
1017.1486
1005.635
1001.2206
35.36741
42.184244
64.030709
87.078197
113.20884
142.74447
176.58488
215.68311
261.08231
314.4331
377.59964
446.00079
502.81513
560.83987
710.67221
552.78515
-1996.854
-2777.0993
-3646.9579
-2968.7692
-3044.4259
-3012.3644
0
0
0
0
0
0
0
0
0
0
10129.597
6286.2623
4123.958
3000.326
2361.3138
1969.1784
1709.0492
1527.5629
1396.2853
1299.042
1225.9915
1170.8544
1129.4559
1098.8955
1077.2385
1063.7827
1058.6252
44.264057
54.951326
80.951896
106.9803
136.15794
169.04042
206.88098
251.11039
303.51339
367.08857
447.12527
546.09901
653.30517
754.40951
842.18142
568.49566
-3108.2514
-3581.7747
-3205.3795
0
0
0
0
0
0
0
0
0
0
0
1780.7091
3364.6323
5756.1414
5236.1024
3961.3903
3100.1732
2507.1461
2107.7422
1830.6557
1632.9929
1488.4302
1380.731
1299.5696
1238.1933
1192.051
1157.9571
1133.7801
1118.7529
1112.9918
22.191697
42.167803
66.373604
91.288547
118.75703
149.55292
184.74996
225.51318
273.14157
329.84008
399.5111
478.04245
537.55406
536.28029
558.1352
702.40331
0
0
0
0
0
0
-1132.0482
-1103.5027
-1011.2836
-917.53276
-790.05986
-495.27184
-94.918034
697.11486
2026.4737
3361.9437
4751.0105
4489.8721
3714.8121
3058.6935
2552.6704
2182.2239
1911.4482
1711.6634
1562.356
1449.533
1363.6931
1298.3454
1248.9836
1212.3854
1186.3704
1170.1778
1163.9661
19.953515
50.023741
74.973062
100.54738
127.96612
158.06228
191.48622
228.67263
269.58098
313.42839
357.91171
396.57555
406.16494
338.11211
142.04463
-338.10018
-1284.4033
-1227.4613
-1147.0864
-1100.4619
-1051.0639
-1021.5945
-1010.3444
-803.26862
-838.6605
-583.15922
-362.32121
-204.59167
259.1101
904.88336
1960.3218
3049.3509
3956.5865
3851.912
3404.3094
2933.6056
2528.468
2206.0204
1956.7078
1765.4253
1618.5311
1505.3826
1418.1068
1351.0024
1299.9432
1261.884
1234.729
1217.789
1211.2844
20.663453
46.486842
72.122762
97.975313
125.29093
154.82071
187.14577
222.63274
261.26814
302.14458
342.04732
373.75006
384.83474
353.17504
205.23364
-227.90187
-792.29069
-920.94468
-962.53291
-966.13476
-887.78598
-842.30244
-818.53061
-691.78026
-620.92288
-417.51867
-179.12061
77.766875
510.91207
1096.4924
1896.2132
2721.6127
3334.9054
3356.8424
3105.6688
2777.1526
2463.3648
2193.8159
1973.6021
1797.6824
1658.5168
1548.9456
1463.0409
1396.1822
1344.845
1306.319
1278.6991
1261.4195
1254.7767
14.997676
36.23269
58.800151
81.295222
104.29608
128.0418
152.53791
177.42458
201.79989
223.70047
238.90986
240.19603
218.266
159.23323
15.095046
-283.89262
-606.88716
-732.44926
-784.50281
-794.27017
-753.10827
-703.45637
-642.21629
-537.7426
-423.86603
-238.22199
-11.476553
269.90673
668.63211
1187.7464
1823.2662
2450.9187
2889.5394
2967.0742
2834.9847
2613.0113
2376.1897
2157.6829
1969.194
1812.3901
1684.476
1581.3794
1499.0937
1434.172
1383.8021
1345.7057
1318.2411
1301.001
1294.3642
23.838992
46.446241
70.192188
93.659451
117.54853
141.96633
166.73238
191.21803
214.10456
232.82532
242.69598
236.68303
206.0033
135.41359
-7.242153
-236.53385
-460.13889
-579.79031
-635.36751
-644.52472
-615.81784
-568.27524
-497.26281
-394.441
-264.32939
-82.912473
139.18215
416.13526
777.04889
1223.7945
1735.5322
2221.7659
2557.248
2658.5755
2599.6354
2454.8569
2280.1867
2107.1302
1949.7559
1813.4742
1698.7987
1604.1147
1527.1095
1465.4605
1417.0877
1380.187
1353.4201
1336.5554
1330.0532
12.025766
29.930109
50.035621
70.04018
90.046473
109.93373
129.39372
147.75558
163.77059
175.19379
178.32801
168.07516
137.65333
74.670135
-40.038661
-203.4913
-358.79144
-456.73194
-506.06328
-514.21747
-488.91342
-439.98833
-365.67134
-262.58231
-128.51936
46.983948
261.8748
525.21174
849.69538
1232.3584
1648.6568
2032.8249
2301.966
2411.5982
2398.1405
2308.5464
2183.1688
2048.959
1920.3936
1804.4712
1703.8361
1618.6795
1548.068
1490.6696
1445.0935
1410.0079
1384.3895
1368.184
1361.9258
21.408085
40.633932
60.856566
80.371189
99.458074
117.84899
135.03027
150.10948
161.63792
167.33384
163.95686
147.5612
113.09487
52.288414
-43.541501
-165.59974
-278.98795
-356.10935
-395.67438
-400.44072
-375.17098
-324.7086
-248.65651
-145.26459
-11.755569
156.81155
361.07867
606.04182
895.97177
1224.4358
1567.8857
1878.5257
2102.0135
2212.2022
2227.1595
2176.7718
2089.8533
1988.0761
1885.1071
1788.3962
1701.7468
1626.5746
1562.9952
1510.4949
1468.2902
1435.4893
1411.3731
1396.0539
1390.1279
11.865677
27.970986
45.963069
63.615903
80.825776
97.238179
112.32392
125.23034
134.62647
138.52006
134.23632
118.57157
87.515728
35.693921
-39.987439
-130.41668
-213.50966
-271.81545
-300.83353
-300.61065
-273.44576
-221.61714
-145.01471
-42.493437
88.01234
248.92713
441.03257
666.31949
924.59322
1207.7532
1495.1952
1752.1796
1942.644
2049.7782
2082.4881
2059.9494
2002.6881
1927.6423
1846.8571
1767.6984
1694.4153
1629.1937
1572.8987
1525.6568
1487.1925
1457.0026
1434.6467
1420.3841
1414.8572
17.141372
33.239064
50.222732
66.36849
81.71905
95.892481
108.33606
118.23
124.39221
125.19563
118.62332
102.37448
73.70398
29.639132
-29.974611
-97.367552
-158.12166
-200.44707
-219.36958
-213.51874
-183.54168
-130.32671
-53.747411
46.977623
173.1232
325.79459
505.19316
711.26468
941.43656
1187.1761
1431.2487
1648.3278
1813.9475
1916.5079
1960.2313
1957.5093
1922.9712
1869.7042
1807.8447
1744.3176
1683.433
1627.7809
1578.7243
1536.8641
1502.3302
1474.948
1454.5214
1441.4316
1436.3502
11.967264
26.36788
42.107325
57.22068
71.540788
84.639745
95.962469
104.73576
109.90738
110.12341
103.81289
89.288423
64.770866
28.920615
-17.005805
-66.689425
-110.23551
-139.21401
-148.97936
-137.53582
-104.53196
-50.063364
26.084545
124.41577
245.56312
389.80296
556.66495
744.80532
950.48626
1165.4907
1375.7202
1562.5535
1708.9422
1806.4636
1856.9016
1868.3105
1851.1413
1815.4526
1769.5768
1719.7323
1670.1027
1623.413
1581.3306
1544.7882
1514.2258
1489.736
1471.3282
1459.4784
1454.87
13.67366
27.361481
41.874548
55.554609
68.320552
79.776992
89.422233
96.588913
100.41592
99.858669
93.774201
81.018653
60.571798
32.111378
-2.5759146
-38.462666
-68.487404
-86.393041
-88.09506
-71.415935
-35.473934
20.070054
95.495696
191.0904
307.01815
442.99057
597.98014
769.88285
954.5027
1144.3185
1327.9131
1491.42
1622.6206
1715.1701
1769.5702
1791.0751
1787.1768
1765.5866
1733.0818
1695.0657
1655.4705
1617.0009
1581.4769
1550.0477
1523.3785
1501.7723
1485.4047
1474.8197
1470.6958
11.355025
24.029887
37.648134
50.504516
62.437268
73.052622
81.886822
88.359742
91.769345
91.322207
86.216513
75.743968
59.45799
37.66368
12.289211
-12.638745
-31.882825
-40.630713
-35.390293
-14.022722
24.59091
81.004131
155.51454
248.23487
358.995
487.11685
631.17928
788.67868
955.36544
1124.5535
1287.0155
1432.2631
1551.2945
1639.1942
1695.792
1724.5167
1730.7605
1720.4338
1699.022
1671.1349
1640.3588
1609.3004
1579.8219
1553.1991
1530.2534
1511.4466
1497.0848
1487.7541
1484.1125
11.4086
23.297957
35.926399
47.758215
58.671003
68.310779
76.275147
82.084335
85.191086
85.019777
81.043491
72.887357
60.500823
44.534424
26.860169
10.734543
0.17628991
-1.014079
10.119986
35.568861
76.514031
133.58906
207.07087
296.93087
402.76292
523.62542
657.8517
802.7753
954.31315
1106.6163
1252.1996
1382.9901
1492.1784
1575.8677
1633.5436
1667.4326
1681.4328
1680.0817
1667.8092
1648.5145
1625.3997
1600.9254
1576.9243
1554.7331
1535.2736
1519.1242
1506.6898
1498.5755
1495.4037
10.344918
21.517206
33.421424
44.564412
54.810465
63.835145
71.292362
76.79455
79.93126
80.310908
77.630694
71.773517
62.962602
52.031661
40.724437
31.718013
28.195703
33.22048
49.295702
78.21916
121.13723
178.68328
251.0882
338.20906
439.47492
553.77413
679.30913
813.39837
952.23104
1090.7267
1222.7663
1342.0174
1443.1987
1523.1563
1581.2093
1618.7851
1638.7142
1644.4926
1639.6994
1627.625
1611.0906
1592.3785
1573.2582
1555.0785
1538.819
1525.1407
1514.522
1507.5664
1504.8447
9.9417941
20.478321
31.673218
42.133848
51.744817
60.218964
67.266271
72.582615
75.873567
76.895859
75.520336
71.818143
66.189644
59.550178
53.494026
50.263035
52.445285
62.557932
82.729502
114.55758
159.10447
216.95918
288.29353
372.87242
470.01176
578.49792
696.4834
821.35731
949.61745
1076.8535
1198.0072
1308.0123
1402.6718
1479.3827
1537.3935
1577.5965
1602.0563
1613.4815
1614.7732
1608.7102
1597.7676
1584.0357
1569.2012
1554.5931
1541.2186
1529.7956
1520.8584
1514.9929
1512.699
9.3576773
19.366645
30.011223
39.960148
49.106594
57.197477
63.99478
69.268871
72.824173
74.538318
74.417795
72.671714
69.81288
66.781538
65.030418
66.472473
73.262863
87.509317
111.03534
145.25026
191.11313
249.14792
319.46376
401.75199
495.25257
598.6976
710.2419
827.38839
946.93882
1065.0467
1177.4715
1280.0742
1369.4384
1443.3726
1501.106
1543.1694
1571.0772
1586.9444
1593.1386
1592.0155
1585.7498
1576.2459
1565.0991
1553.6027
1542.77
1533.3585
1525.9495
1521.1018
1519.2162
8.9361004
18.487883
28.652963
38.164263
46.927528
54.721256
61.353004
66.655855
70.51446
72.90121
73.924885
73.892162
73.383996
73.335355
75.074353
80.264815
90.743152
108.30814
134.53871
170.67779
217.57987
275.69813
345.08179
425.3643
515.73623
614.90704
721.0639
831.83838
944.3086
1055.089
1160.5647
1257.2777
1342.3781
1413.9832
1471.3282
1514.6996
1545.2163
1564.5495
1574.6519
1577.5377
1575.1282
1569.1603
1561.137
1552.3094
1543.6817
1536.036
1530.0016
1526.1134
1524.6321
8.5502605
17.745377
27.542552
36.724387
45.20581
52.793664
59.335193
64.715952
68.885179
71.888824
73.911835
75.328644
76.759712
79.121241
83.637734
91.785613
105.16636
125.34665
153.7132
191.36895
239.07312
297.21179
365.78111
444.37008
532.13842
627.79228
729.56477
835.21239
942.04992
1047.0579
1147.0931
1239.1961
1320.9277
1390.6349
1447.57
1491.8538
1524.3224
1546.3185
1559.4774
1565.5432
1566.2304
1563.1322
1557.6665
1551.0422
1544.2456
1538.0729
1533.2192
1530.2341
1529.1792
8.1809595
17.104009
26.619239
35.553139
43.826338
51.270392
57.765321
63.238358
67.688413
71.216388
74.06218
76.646073
79.610338
83.848916
90.504424
100.9149
116.51094
138.68795
168.68596
207.49604
255.79722
313.91772
381.80971
459.029
544.71687
637.58611
735.91751
837.577
940.07051
1040.6588
1136.5464
1225.1322
1304.2712
1372.4783
1429.0256
1473.9232
1507.8088
1531.7872
1547.2584
1555.7608
1558.847
1557.9953
1554.5532
1549.6959
1544.3928
1539.4432
1535.6232
1533.5745
1533.0838
7.8086268
16.605183
25.94313
34.716225
42.85162
50.204843
56.682931
62.245185
66.927253
70.869545
74.350037
77.818827
81.929108
87.55379
95.773641
107.82851
125.03034
148.6541
179.83395
219.47753
268.20203
326.29043
393.66134
469.84721
553.97904
644.77987
740.57227
839.30905
938.64006
1036.0289
1128.9247
1214.9746
1292.2357
1359.3409
1415.58
1460.8911
1495.7774
1521.1789
1538.3286
1548.6166
1553.4764
1554.2998
1552.3797
1548.866
1544.7122
1540.6888
1537.6204
1536.3999
1536.685
7.3053242
16.169613
25.42702
34.115134
42.169821
49.471063
55.946678
61.578142
66.425204
70.653317
74.56379
78.623796
83.490763
90.021867
99.257971
112.37896
130.6232
155.18702
187.13433
227.31728
276.31128
334.36844
401.38489
476.87815
559.97392
649.40415
743.52154
840.33846
937.60024
1032.9018
1123.8482
1208.2424
1284.269
1350.6356
1406.6451
1452.1925
1487.6975
1513.996
1532.2142
1543.6455
1549.6455
1551.5462
1550.6002
1547.9432
1544.5224
1541.0537
1538.3571
1537.9263
1540.1194
6.0826166
15.837384
25.146015
33.826542
41.850541
49.130026
55.607037
61.275245
66.206707
70.579404
74.706392
79.063594
84.311311
91.301546
101.05995
114.73024
133.50313
158.53808
190.86906
231.32135
280.44946
338.48985
405.32715
480.47133
563.04555
651.78659
745.06288
840.91733
937.14362
1031.4025
1121.3761
1204.9445
1280.355
1346.3528
1402.2481
1447.9155
1483.7343
1510.4897
1529.2559
1541.2792
1547.8718
1550.3351
1549.9097
1547.7346
1544.7672
1541.6827
1539.2667
1539.7896
1545.6318
-2227.762
-2483.6513
-2699.5785
-2881.5301
-3024.0152
-3106.2558
-3108.2514
-3029.2305
-2857.2749
-2663.9953
-3205.489
-3205.3795
-3198.5437
-3187.5691
-3173.4654
-3160.7208
-3148.8909
-3158.3559
-3158.9573
-3131.5481
-3183.1158
-3181.9932
-3167.2449
-3150.2856
-3133.3729
-3124.3818
-3106.0916
-3113.3117
-3100.1864
-3046.6636
-3137.9573
-3135.2958
-3126.6861
-3117.9819
-3109.1806
-3112.1846
-3101.0833
-3099.0561
-3085.6626
-3048.8063
-3078.2616
-3076.8261
-3072.279
-3066.3584
-3057.8487
-3058.2428
-3057.909
-3057.2395
-3055.7631
-3059.5015
-3030.2803
-3029.4873
-3023.7318
-3013.5767
-2998.3306
-2968.7692
-2990.9321
-3003.226
-3009.8646
-3023.2074
-3013.5343
-3015.2259
-3018.4785
-3021.8656
-3032.789
-3008.6723
-3008.3453
-3004.7114
-2989.7861
-2966.7915
-3028.0322
-3029.6599
-3035.7395
-3044.4259
-3068.4686
-3076.1863
-3056.8132
-3030.8012
-3000.966
-2965.5616
-3848.5015
-3860.8103
-3831.7696
-3787.3592
-3749.7988
-3717.7335
-3696.2302
-3682.5044
-3673.565
-3675.3076
-2987.0289
-2985.8384
-2977.945
-2960.9572
-2921.5862
-2946.9635
-2958.9804
-2961.1861
-2950.7138
-2923.6185
-3009.2859
-3012.3644
-3018.7292
-3037.949
-3013.9487
-3005.2519
-3001.3265
-2993.9321
-2979.9583
-2964.8275
-3048.6399
-3051.1
-3056.2997
-3080.9136
-3093.669
-3069.5761
-3042.8278
-3022.5318
-3003.6546
-2987.1621
-2999.8638
-2996.0354
-2977.1612
-2951.8968
-2974.8407
-2992.3048
-3003.5182
-3010.913
-3013.1542
-3020.1535
-3033.4754
-3035.931
-3035.075
-2998.2036
-3007.3251
-3020.926
-3031.7101
-3038.9239
-3041.954
-3051.5012
-3157.0223
-3164.8114
-3189.0397
-3187.5849
-3159.6948
-3131.9039
-3111.2067
-3095.8072
-3080.3813
-3063.1396
-3142.0518
-3137.2149
-3129.7257
-3149.8874
-3150.4929
-3144.7137
-3138.5004
-3133.0703
-3127.0737
-3128.9742
-3162.8059
-3162.0837
-3137.7991
-3147.9554
-3159.4033
-3167.5445
-3171.9713
-3173.781
-3173.0756
-3177.7783
-3277.1523
-3289.554
-3285.4999
-3271.1622
-3255.8461
-3243.8112
-3235.0855
-3229.2971
-3222.486
-3213.9284
-3282.5414
-3286.6155
-3294.069
-3285.9878
-3276.3422
-3270.8415
-3270.6073
-3275.0504
-3280.0937
-3292.3987
-3186.3613
-3172.2521
-3189.5885
-3215.4647
-3244.9377
-3273.6354
-3300.611
-3325.1865
-3345.3422
-3370.3101
-3326.0542
-3302.4352
-3312.0463
-3332.3594
-3359.129
-3384.383
-3406.8543
-3425.2907
-3437.8136
-3453.532
-3701.6822
-3692.6609
-3661.9658
-3627.8996
-3602.8263
-3583.3467
-3571.2616
-3564.1081
-3557.9966
-3555.1332
-3016.7856
-3015.2598
-3009.8402
-2998.2175
-2992.7379
-2999.9796
-2999.6103
-2994.2585
-2985.0273
-2984.0056
-3540.699
-3549.2962
-3563.7268
-3611.0135
-3667.1937
-3719.0252
-3740.107
-3721.9641
-3638.245
-3466.3756
-3268.9103
-3269.1444
-3272.0939
-3276.9674
-3278.0842
-3277.1936
-3275.2341
-3270.0928
-3265.9302
-3219.4427
-3179.5838
-3227.6304
-3289.7593
-3394.477
-3505.8131
-3592.6424
-3635.2091
-3595.3245
-3447.1543
-3214.7049
-3480.4551
-3490.4996
-3511.4273
-3548.1266
-3581.7747
-3610.4323
-3618.9981
-3618.5003
-3582.7129
-3470.3071
-3367.5137
-3371.906
-3386.0864
-3410.0487
-3431.0139
-3448.6744
-3456.8013
-3446.3818
-3433.7556
-3381.9889
11318.743
10715.569
10129.597
9489.9611
8832.8673
8179.5596
7545.2
6936.8026
6347.3622
5770.3214
8301.8938
8224.575
8101.3
7839.6452
7501.7544
7111.3178
6689.6372
6254.5948
5816.4258
5360.0261
-3709.5824
-3728.0182
-3745.4192
-3751.378
-3760.0598
-3763.3187
-3768.1099
-3771.5428
-3772.8661
-3776.3565
-3705.917
-3709.7685
-3745.1125
-3776.3401
-3815.3951
-3842.5635
-3866.4869
-3882.5146
-3891.1605
-3895.3472
-3946.5514
-3939.3178
-3955.5489
-3963.1284
-3991.5092
-4009.8895
-4029.7163
-4042.6923
-4048.1113
-4043.6611
-4222.4567
-4212.1021
-4226.3714
-4216.9596
-4233.0318
-4234.915
-4241.4385
-4242.4878
-4238.9162
-4234.5555
-4544.9075
-4526.7686
-4538.514
-4511.4803
-4515.2669
-4497.4214
-4484.9642
-4464.9382
-4437.2715
-4404.9115
-4901.1351
-4873.9138
-4883.521
-4837.1012
-4828.6699
-4790.1822
-4757.3522
-4713.9311
-4659.2624
-4599.0521
-5281.879
-5243.4297
-5252.0698
-5185.2539
-5165.7042
-5107.6167
-5056.2221
-4992.754
-4916.4994
-4831.1881
-5682.8903
-5630.8162
-5639.6409
-5550.6211
-5519.8046
-5441.5775
-5370.9119
-5288.4777
-5198.5044
-5115.9546
-6105.0752
-6035.9538
-6045.8028
-5931.8097
-5888.3392
-5787.9313
-5693.5643
-5583.5364
-5458.2236
-5322.6236
-6548.533
-6458.4463
-6470.8769
-6329.2331
-6271.979
-6149.095
-6030.9323
-5896.8206
-5747.2148
-5585.4557
-7019.3758
-6902.2461
-6918.0099
-6744.5282
-6670.3819
-6522.7916
-6376.8905
-6214.6658
-6036.1745
-5850.304
-7516.4768
-7366.2467
-7388.3639
-7179.9255
-7085.7623
-6911.7023
-6733.9073
-6537.825
-6319.2037
-6081.9234
-8058.1537
-7863.488
-7892.4377
-7643.2315