/*--------------------------------*- C++ -*----------------------------------*\
| =========                 |                                                 |
| \\      /  F ield         | foam-extend: Open Source CFD                    |
|  \\    /   O peration     | Version:     4.1                                |
|   \\  /    A nd           | Web:         http://www.foam-extend.org         |
|    \\/     M anipulation  |                                                 |
\*---------------------------------------------------------------------------*/
FoamFile
{
    version     2.0;
    format      ascii;
    class       surfaceScalarField;
    location    "0.85";
    object      phi;
}
// * * * * * * * * * * * * * * * * * * * * * * * * * * * * * * * * * * * * * //

dimensions      [0 3 -1 0 0 0 0];

internalField   nonuniform List<scalar> 
8438
(
-0.59743992
0.0016735897
-0.59917882
0.0017388938
-0.60095263
0.0017738141
-0.60277037
0.0018177387
-0.60464179
0.0018714222
-0.60657733
0.0019355412
-0.6085864
0.0020090643
-0.6106766
0.0020902003
-0.61285305
0.0021764509
-0.61511767
0.0022646243
-0.6174685
0.0023508305
-0.61989902
0.0024305173
-0.62239759
0.0024985724
-0.62494711
0.0025495161
-0.62752489
0.0025777774
-0.63010294
0.0025780587
-0.63264858
0.002545635
-0.63512523
0.0024766535
-0.6374935
0.0023682639
-0.63971211
0.0022186088
-0.64173886
0.002026749
-0.64353143
0.001792571
-0.64504819
0.0015167683
-0.64624916
0.0012009623
-0.64709717
0.0008480147
-0.64755971
0.00046254238
-0.64761101
5.1300476e-05
-0.64723369
-0.00037732135
-0.64642276
-0.00081093359
-0.64518969
-0.0012330674
-0.64356338
-0.001626315
-0.64158987
-0.0019735073
-0.63933024
-0.002259625
-0.63685654
-0.0024737007
-0.63424651
-0.0026100308
-0.6315781
-0.0026684174
-0.62892459
-0.00265351
-0.62635103
-0.0025735571
-0.62391209
-0.0024389371
-0.62165131
-0.0022607786
-0.61960145
-0.0020498615
-0.61778559
-0.0018158625
-0.61621867
-0.0015669215
-0.61490912
-0.0013095517
-0.61386
-0.0010491107
-0.61306954
-0.00079046625
-0.61253402
-0.00053551585
-0.6122586
-0.00027542267
-1.3650042e-05
-0.61123212
0.003139368
-0.61269129
0.0031980639
-0.61417763
0.0032601475
-0.61570439
0.0033444986
-0.61728402
0.0034510583
-0.61892774
0.0035792595
-0.62064539
0.0037267132
-0.62244493
0.0038897428
-0.62433182
0.0040633413
-0.62630832
0.004241124
-0.62837279
0.004415296
-0.63051898
0.0045767076
-0.63273546
0.0047150529
-0.6350052
0.0048192516
-0.63730543
0.0048780157
-0.63960797
0.0048805973
-0.64187976
0.0048174219
-0.64408381
0.0046807078
-0.64618028
0.0044647295
-0.64812746
0.0041657866
-0.64988273
0.0037820223
-0.65140336
0.0033132052
-0.65264727
0.0027606696
-0.65357385
0.0021275486
-0.65414523
0.0014193919
-0.65432786
0.00064517173
-0.65409504
-0.00018152149
-0.65343092
-0.0010414359
-0.65233238
-0.0019094724
-0.65081035
-0.002755103
-0.64889287
-0.0035437897
-0.6466257
-0.0042406808
-0.64407024
-0.0048150885
-0.64129935
-0.0052445881
-0.6383918
-0.0055175784
-0.63542646
-0.0056337631
-0.63247723
-0.0056027391
-0.62960941
-0.0054413769
-0.62687757
-0.0051707749
-0.62432491
-0.0048134341
-0.62198374
-0.0043910325
-0.61987669
-0.003922919
-0.61801832
-0.0034252846
-0.61641685
-0.0029110233
-0.61507558
-0.0023903776
-0.61399477
-0.0018712792
-0.61317391
-0.0013563776
-0.61260473
-0.00084460343
-0.00037357803
-0.61227766
0.0045550103
-0.61369158
0.0046119818
-0.61513034
0.0046989052
-0.61660889
0.0048230533
-0.61814054
0.0049827092
-0.61973709
0.0051758104
-0.62140888
0.0053984987
-0.62316436
0.005645226
-0.62500956
0.0059085358
-0.62694735
0.0061789114
-0.62897673
0.0064446824
-0.6310921
0.006692077
-0.63328255
0.006905498
-0.63553139
0.0070680917
-0.63781599
0.0071626215
-0.64010804
0.0071726456
-0.64237416
0.007083541
-0.64457694
0.0068834861
-0.64667607
0.0065638648
-0.64862946
0.0061191767
-0.65039413
0.005546685
-0.65192692
0.004846003
-0.65318519
0.0040189375
-0.65412745
0.0030698093
-0.65471445
0.0020063933
-0.65491079
0.00084150784
-0.65468732
-0.0004049947
-0.65402397
-0.0017047824
-0.6529133
-0.0030201415
-0.65136425
-0.0043041508
-0.64940473
-0.0055033132
-0.64708219
-0.006563224
-0.64446146
-0.0074358145
-0.64161997
-0.0080860842
-0.63864129
-0.0084962549
-0.6356086
-0.0086664495
-0.63259907
-0.0086122722
-0.62967995
-0.0083604948
-0.62690657
-0.0079441577
-0.62432188
-0.0073981238
-0.62195726
-0.0067556509
-0.61983404
-0.0060461405
-0.61796534
-0.0052939797
-0.61635798
-0.0045183911
-0.61501431
-0.0037340398
-0.61393451
-0.0029510837
-0.61311683
-0.0021740541
-0.61255277
-0.0014086629
-0.00068140102
-0.61263452
0.0059412684
-0.61402807
0.0060055318
-0.6154471
0.0061179403
-0.61690658
0.0062825268
-0.61842026
0.0064963898
-0.62000065
0.0067562059
-0.62165887
0.0070567157
-0.62340422
0.0073905722
-0.62524362
0.0077479388
-0.62718091
0.0081162031
-0.62921602
0.0084797916
-0.63134413
0.0088201863
-0.63355489
0.0091162539
-0.63583179
0.0093449957
-0.63815193
0.0094827621
-0.64048622
0.0095069389
-0.64280015
0.0093974678
-0.64505494
0.0091382743
-0.6472089
0.0087178301
-0.64921867
0.0081289433
-0.65104011
0.0073681271
-0.65262898
0.0064348715
-0.65394134
0.0053312951
-0.65493403
0.0040625039
-0.65556551
0.0026378702
-0.6557973
0.0010732949
-0.65559643
-0.00060586479
-0.65493878
-0.0023624307
-0.65381319
-0.0041457296
-0.65222605
-0.0058912958
-0.65020493
-0.0075244241
-0.64779993
-0.0089682313
-0.64508126
-0.01015448
-0.64213357
-0.011033773
-0.6390481
-0.011581731
-0.63591477
-0.011799779
-0.63281577
-0.01171127
-0.62982133
-0.011354935
-0.62698781
-0.010777681
-0.62435767
-0.01002826
-0.62196079
-0.0091525348
-0.61981641
-0.0081905176
-0.61793542
-0.0071749716
-0.6163225
-0.0061313064
-0.61497834
-0.0050782025
-0.61390149
-0.0040279308
-0.61308836
-0.0029871841
-0.61253356
-0.001963468
-0.00097000849
-0.61305902
0.0073004758
-0.61442935
0.0073758571
-0.61582612
0.007514712
-0.61726448
0.0077208908
-0.6187587
0.0079906071
-0.62032206
0.008319566
-0.62196662
0.0087012732
-0.62370277
0.0091267276
-0.62553866
0.0095838305
-0.6274794
0.010056941
-0.62952617
0.010526555
-0.63167523
0.010969252
-0.63391701
0.011358029
-0.63623524
0.011663226
-0.63860659
0.011854117
-0.64100088
0.011901227
-0.64338192
0.011778508
-0.645709
0.011465352
-0.6479385
0.010947337
-0.65002537
0.010215807
-0.65192403
0.0092667868
-0.65358891
0.0080997583
-0.6549746
0.0067169794
-0.6560359
0.0051238061
-0.65672835
0.0033303201
-0.65700943
0.0013543788
-0.65684103
-0.0007742658
-0.65619326
-0.0030102084
-0.65504934
-0.0052896444
-0.65341163
-0.0075290065
-0.65130689
-0.0096291605
-0.64878872
-0.011486402
-0.64593508
-0.013008124
-0.64284103
-0.014127819
-0.63960881
-0.014813959
-0.6363379
-0.015070683
-0.63311743
-0.014931741
-0.63002152
-0.014450847
-0.62710767
-0.013691529
-0.6244174
-0.012718532
-0.62197824
-0.011591693
-0.61980644
-0.010362319
-0.61790971
-0.0090717002
-0.61628985
-0.0077511664
-0.6149451
-0.0064229535
-0.61387186
-0.0051011723
-0.61306519
-0.0037938554
-0.61252118
-0.002507477
-0.001246386
-0.61359622
0.0086274463
-0.61493689
0.0087165214
-0.61630536
0.0088831832
-0.61771694
0.0091324772
-0.61918648
0.0094601441
-0.62072816
0.0098612408
-0.62235516
0.010328282
-0.62407927
0.010850831
-0.62591015
0.011414714
-0.62785459
0.012001381
-0.62991543
0.0125874
-0.63209045
0.013144268
-0.63437113
0.013638707
-0.63674162
0.014033713
-0.63917808
0.014290582
-0.64164886
0.014372005
-0.64411552
0.01424517
-0.64653473
0.013884558
-0.64886033
0.013272938
-0.65104511
0.012400584
-0.6530418
0.011263486
-0.65480341
0.0098613629
-0.65628287
0.0081964402
-0.65743269
0.0062736281
-0.65820487
0.0041024991
-0.65855176
0.0017012684
-0.65842848
-0.00089754595
-0.65779729
-0.0036414008
-0.65663346
-0.0064534691
-0.65493325
-0.0092292246
-0.65272165
-0.011840754
-0.65005674
-0.014151316
-0.64702707
-0.016037793
-0.64374223
-0.017412658
-0.64031961
-0.01823658
-0.63687165
-0.018518641
-0.63349651
-0.018306884
-0.63027306
-0.017674296
-0.62725981
-0.01670478
-0.6244965
-0.01548184
-0.62200721
-0.014080983
-0.61980393
-0.012565599
-0.61789004
-0.01098559
-0.61626336
-0.0093778415
-0.61491872
-0.0077675969
-0.61384966
-0.0061702316
-0.61304958
-0.0045939392
-0.6125142
-0.0030428575
-0.0015156313
-0.61424924
0.0099184381
-0.6155543
0.010021586
-0.61688807
0.010216955
-0.61826656
0.010510969
-0.6197054
0.010898978
-0.62121982
0.011375663
-0.62282438
0.01193284
-0.62453248
0.012558931
-0.62635572
0.013237957
-0.62830299
0.01394865
-0.63037929
0.014663701
-0.63258438
0.015349357
-0.63491126
0.015965582
-0.63734471
0.016467171
-0.63986036
0.016806226
-0.64242463
0.016936273
-0.6449961
0.016816639
-0.64752794
0.016416402
-0.64997072
0.015715714
-0.65227458
0.014704452
-0.65439042
0.013379327
-0.65626982
0.011740756
-0.65786419
0.0097908162
-0.65912368
0.0075331148
-0.65999628
0.0049750977
-0.66042814
0.0021331252
-0.66036577
-0.00095991581
-0.65976098
-0.0042461877
-0.65857794
-0.0076365071
-0.65680378
-0.01100339
-0.65446008
-0.014184446
-0.65161028
-0.017001116
-0.64835724
-0.019290842
-0.64483041
-0.020939486
-0.64116774
-0.021899251
-0.63749875
-0.022187629
-0.633933
-0.021872631
-0.63055483
-0.021052468
-0.62742323
-0.019836383
-0.62457495
-0.018330114
-0.62202913
-0.01662681
-0.61979202
-0.01480271
-0.61786135
-0.012916255
-0.61622988
-0.011009312
-0.6148881
-0.0091093791
-0.61382608
-0.0072322521
-0.61303485
-0.0053851684
-0.61250837
-0.0035693399
-0.0017790474
-0.6150125
0.011165011
-0.61627471
0.011283799
-0.617567
0.011509242
-0.61890579
0.011849761
-0.62030755
0.012300736
-0.62178872
0.012856827
-0.62336539
0.013509512
-0.62505292
0.014246462
-0.62686522
0.015050264
-0.6288138
0.015897227
-0.6309064
0.016756299
-0.63314538
0.01758834
-0.63552583
0.018346027
-0.63803355
0.018974895
-0.64064358
0.019416259
-0.64331993
0.019612623
-0.64601722
0.019513922
-0.64868398
0.01908317
-0.65126654
0.018298276
-0.65371191
0.017149816
-0.65596903
0.015636448
-0.65798835
0.013760081
-0.65972019
0.011522648
-0.66111251
0.0089254363
-0.66210908
0.0059716728
-0.66264883
0.0026728705
-0.66266759
-0.00094115116
-0.66210358
-0.0048101969
-0.66090569
-0.0088343956
-0.65904756
-0.012861524
-0.65654452
-0.016687483
-0.65346611
-0.020079527
-0.64993435
-0.022822601
-0.64610589
-0.024767951
-0.64214634
-0.025858804
-0.63820745
-0.026126515
-0.63441277
-0.025667307
-0.63085245
-0.024612794
-0.62758481
-0.023104023
-0.62464176
-0.021273164
-0.6220354
-0.019233168
-0.61976438
-0.017073726
-0.61781922
-0.014861423
-0.61618634
-0.01264219
-0.61485103
-0.010444685
-0.61379932
-0.0082839675
-0.6130193
-0.0061651802
-0.61250257
-0.0040860774
-0.0020368141
-0.6158871
0.012363765
-0.61710048
0.012497177
-0.61834439
0.012753154
-0.6196364
0.013141764
-0.620994
0.013658335
-0.62243497
0.014297803
-0.6239772
0.015051734
-0.62563827
0.015907535
-0.62743486
0.01684686
-0.62938167
0.017844036
-0.6314899
0.018864524
-0.63376531
0.019863748
-0.63620583
0.020786553
-0.63879889
0.021567956
-0.64151903
0.0221364
-0.64432721
0.022420799
-0.6471728
0.022359507
-0.64999818
0.021908555
-0.65274419
0.021044283
-0.65535408
0.019759707
-0.65777498
0.01805735
-0.65995682
0.015941916
-0.66184957
0.0134154
-0.66339975
0.010475613
-0.66454697
0.0071189023
-0.66522206
0.0033479583
-0.66534792
-0.00081528933
-0.66484525
-0.0053128684
-0.66364215
-0.010037494
-0.66169242
-0.014811259
-0.65900037
-0.019379532
-0.65564196
-0.023437942
-0.65176498
-0.026699578
-0.64756347
-0.028969456
-0.64324041
-0.030181872
-0.63897627
-0.030390646
-0.63491135
-0.029732233
-0.63114132
-0.028382826
-0.62772183
-0.026523513
-0.62467717
-0.024317817
-0.62200971
-0.021900628
-0.61970813
-0.019375309
-0.61775386
-0.016815691
-0.61612569
-0.014270364
-0.61480274
-0.011767627
-0.61376637
-0.0093203393
-0.61300127
-0.006930288
-0.61249631
-0.0045910337
-0.0022881732
-0.61686642
0.013502778
-0.61802223
0.013652988
-0.61921002
0.013940942
-0.62044759
0.014379326
-0.62175336
0.014964106
-0.62314652
0.015690967
-0.62464688
0.016552098
-0.62627461
0.017535265
-0.62804961
0.018621862
-0.62999043
0.019784856
-0.63211258
0.020986671
-0.63442622
0.022177386
-0.6369332
0.023293533
-0.63962341
0.024258165
-0.64247116
0.024984151
-0.64543359
0.02538323
-0.64845306
0.025378976
-0.65146364
0.024919134
-0.65439894
0.023979579
-0.65719775
0.022558521
-0.65980571
0.020665308
-0.66217326
0.018309466
-0.66425145
0.015493597
-0.66598662
0.012210776
-0.66731488
0.0084471624
-0.66815833
0.0041914117
-0.66842463
-0.00054898846
-0.66801221
-0.0057252875
-0.66682123
-0.011228471
-0.6647765
-0.016855995
-0.66186341
-0.022292618
-0.65816362
-0.027137737
-0.65385986
-0.031003334
-0.64919829
-0.033631026
-0.64443257
-0.034947598
-0.63978016
-0.035043053
-0.63540071
-0.034111681
-0.63139411
-0.032389422
-0.62780991
-0.030107716
-0.62466083
-0.027466897
-0.62193588
-0.024625582
-0.6196109
-0.021700293
-0.61765616
-0.018770422
-0.61604139
-0.015885139
-0.61473868
-0.013070336
-0.61372416
-0.010334859
-0.61297875
-0.0076756953
-0.61248854
-0.0050812461
-0.0025317633
-0.61794945
0.014581335
-0.6190422
0.014745733
-0.62016662
0.015065364
-0.62134195
0.015554659
-0.62258775
0.016209907
-0.62392469
0.017027907
-0.62537467
0.018002074
-0.62696069
0.019121292
-0.6287064
0.020367571
-0.63063495
0.021713397
-0.63276714
0.023118865
-0.6351188
0.024529051
-0.63769712
0.025871849
-0.64049576
0.027056805
-0.64348939
0.027977785
-0.64663047
0.028524302
-0.64985191
0.028600415
-0.6530764
0.028143633
-0.65622798
0.02713116
-0.65924016
0.025570697
-0.66205778
0.023482925
-0.66463352
0.020885212
-0.66692167
0.017781744
-0.66887048
0.014159582
-0.67041398
0.0099906644
-0.67146536
0.005242796
-0.67191496
-9.9387351e-05
-0.67163309
-0.0060071636
-0.67048279
-0.012378772
-0.66834688
-0.018991905
-0.66517884
-0.025460655
-0.66106304
-0.031253539
-0.65623014
-0.035836236
-0.65100025
-0.038860911
-0.64569648
-0.040251375
-0.64058364
-0.04015589
-0.63584282
-0.0388525
-0.6315749
-0.036657338
-0.62781788
-0.033864738
-0.62456733
-0.030717448
-0.62179422
-0.027398692
-0.61945809
-0.02403642
-0.61751575
-0.020712767
-0.61592638
-0.017474503
-0.61465428
-0.014342441
-0.61366994
-0.011319203
-0.61295032
-0.0083953057
-0.61247875
-0.0055528258
-0.0027657083
-0.61913287
0.015582494
-0.62015169
0.015764548
-0.62120367
0.016117346
-0.6223077
0.016658684
-0.62348407
0.017386278
-0.62475485
0.018298694
-0.62614412
0.019391338
-0.62767799
0.020655163
-0.62938434
0.02207392
-0.63129177
0.023620828
-0.63342763
0.025254733
-0.635815
0.026916417
-0.6384683
0.028525153
-0.64138701
0.029975508
-0.64454731
0.031138085
-0.64789602
0.031873015
-0.65135325
0.032057644
-0.65482578
0.031616166
-0.65822454
0.030529918
-0.66147662
0.028822774
-0.66452724
0.026533545
-0.66733382
0.0236918
-0.66985694
0.020304855
-0.67204997
0.01635262
-0.6738475
0.011788193
-0.67515436
0.0065496558
-0.67584033
0.00058657689
-0.67574268
-0.0061048106
-0.67467747
-0.013443977
-0.6724661
-0.021203277
-0.66900869
-0.028918067
-0.66438457
-0.035877657
-0.65889095
-0.041329863
-0.65295541
-0.044796445
-0.64699715
-0.046209638
-0.64134122
-0.045811818
-0.63619058
-0.044003142
-0.63164079
-0.04120713
-0.62770987
-0.037795656
-0.62436852
-0.034058793
-0.62156375
-0.030203463
-0.61923477
-0.026365406
-0.61732242
-0.022625112
-0.61577407
-0.019022852
-0.61454556
-0.015570952
-0.61360157
-0.012263196
-0.61291513
-0.009081738
-0.61246693
-0.0060010284
-0.0029876905
-0.62040654
0.016509996
-0.62134703
0.016705041
-0.62231928
0.017089592
-0.62334374
0.017683148
-0.62444166
0.018484199
-0.62563648
0.019493511
-0.62695443
0.020709286
-0.62842493
0.022125667
-0.63008057
0.023729558
-0.63195628
0.025496535
-0.63408732
0.027385776
-0.63650589
0.029334991
-0.63923616
0.031255422
-0.64228625
0.033025594
-0.64563596
0.034487793
-0.64922557
0.035462626
-0.65295749
0.035789572
-0.65671587
0.035374543
-0.6603934
0.034207446
-0.66390946
0.032338839
-0.66721193
0.029836007
-0.67026696
0.026746835
-0.67304595
0.023083846
-0.67551225
0.018818921
-0.67760528
0.013881219
-0.67922358
0.0081679585
-0.68021482
0.0015778158
-0.6803765
-0.0059431333
-0.67946407
-0.014356406
-0.6772126
-0.023454744
-0.67343431
-0.032696362
-0.66818598
-0.041125986
-0.6618582
-0.047657644
-0.65503937
-0.051615272
-0.64828303
-0.052965976
-0.64198993
-0.052104916
-0.6363817
-0.049611371
-0.63153719
-0.046051648
-0.62744177
-0.041891077
-0.6240308
-0.037469762
-0.62121999
-0.033014269
-0.61892373
-0.028661668
-0.6170645
-0.024484339
-0.61557676
-0.020510597
-0.61440761
-0.0167401
-0.61351603
-0.013154776
-0.61287141
-0.0097263579
-0.61245211
-0.0064203236
-0.0031950038
-0.62177421
0.01734085
-0.62262318
0.017554016
-0.62350528
0.017971686
-0.62443957
0.01861744
-0.62544747
0.019492096
-0.62655342
0.020599459
-0.62778568
0.021941547
-0.62917703
0.023517025
-0.63076518
0.025317706
-0.63259233
0.027323682
-0.63470329
0.02949674
-0.63714179
0.031773486
-0.639945
0.034058628
-0.64313405
0.036214652
-0.64669634
0.038050083
-0.65056543
0.039331714
-0.65461942
0.039843565
-0.65870977
0.03946489
-0.66270333
0.038201006
-0.66651012
0.036145626
-0.67008416
0.033410049
-0.67340584
0.03006851
-0.67646284
0.026140847
-0.67923438
0.021590469
-0.68167098
0.016317814
-0.68366893
0.010165912
-0.68505306
0.0029619461
-0.68557464
-0.0054215615
-0.68491492
-0.015016122
-0.6826902
-0.02567946
-0.67856951
-0.036817053
-0.67254954
-0.04714596
-0.66515243
-0.055054757
-0.65721587
-0.059551827
-0.64948285
-0.060698992
-0.64244714
-0.059140629
-0.63633841
-0.0557201
-0.63119924
-0.051190815
-0.62696374
-0.046126582
-0.62351813
-0.040915375
-0.62073815
-0.03579424
-0.61850868
-0.030891147
-0.61673174
-0.02626127
-0.61532835
-0.021913992
-0.6142371
-0.017831347
-0.61341179
-0.013980084
-0.61281875
-0.010319402
-0.61243457
-0.0068045076
-0.0033846201
-0.62320252
0.018084032
-0.62395687
0.018308368
-0.62474151
0.018756331
-0.62557693
0.019452863
-0.62648488
0.020400046
-0.62749063
0.021605202
-0.62862426
0.023075177
-0.62992189
0.024814657
-0.63142663
0.026822446
-0.63318886
0.029085919
-0.63526476
0.031572635
-0.63771231
0.034221032
-0.64058567
0.03693199
-0.64392493
0.039553912
-0.64773157
0.041856725
-0.65193329
0.043533432
-0.65637387
0.044284149
-0.66085586
0.043946879
-0.66520789
0.04255303
-0.66932806
0.040265805
-0.67318264
0.037264628
-0.67677482
0.03366069
-0.68011658
0.029482602
-0.68321189
0.024685782
-0.68603316
0.01913908
-0.688483
0.012615752
-0.6903647
0.0048436446
-0.69137709
-0.0044091745
-0.6911137
-0.015279509
-0.68903234
-0.027760821
-0.6845721
-0.041277287
-0.67759162
-0.054126444
-0.66879594
-0.063850441
-0.65942609
-0.068921668
-0.65049313
-0.069631958
-0.64260041
-0.067033346
-0.63596063
-0.062359883
-0.63054773
-0.056603712
-0.62621782
-0.050456495
-0.62279047
-0.044342726
-0.62009179
-0.038492919
-0.61797276
-0.033010181
-0.61631374
-0.027920282
-0.6150226
-0.023205135
-0.61403038
-0.018823571
-0.61328675
-0.014723707
-0.61275596
-0.01085019
-0.61241361
-0.0071468662
-0.0035532763
-0.62472635
0.018710689
-0.62537158
0.018953591
-0.6260483
0.019433055
-0.62677408
0.020178646
-0.6275697
0.021195667
-0.62846044
0.022495944
-0.62947761
0.024092343
-0.63066019
0.025997233
-0.63205655
0.028218807
-0.63372583
0.030755196
-0.63573731
0.033584116
-0.63816642
0.036650146
-0.6410891
0.039854669
-0.64457258
0.043037397
-0.64864392
0.045928064
-0.65322974
0.048119247
-0.6581264
0.049180813
-0.66306336
0.048883838
-0.66781337
0.047303042
-0.67226113
0.044713559
-0.67639702
0.041400522
-0.68026076
0.03752443
-0.68389779
0.033119632
-0.68734544
0.028133434
-0.69061045
0.022404084
-0.6936125
0.015617806
-0.69613478
0.0073659177
-0.69781727
-0.0027266812
-0.69815537
-0.014941408
-0.69641145
-0.029504746
-0.69166722
-0.046021512
-0.68348616
-0.062307502
-0.67281404
-0.074522566
-0.66157767
-0.080158031
-0.65116544
-0.080044191
-0.64229948
-0.075899304
-0.63512319
-0.069536175
-0.62948989
-0.062237017
-0.62514057
-0.05480581
-0.62180703
-0.047676268
-0.61925597
-0.041043977
-0.61730143
-0.034964714
-0.61580241
-0.029419307
-0.61465523
-0.02435232
-0.61378529
-0.019693506
-0.61313992
-0.015369078
-0.61268265
-0.011307458
-0.61238911
-0.0074404036
-0.0036975905
-0.62625515
0.019234551
-0.626789
0.019487442
-0.62734997
0.019994019
-0.62795613
0.020784811
-0.62862734
0.02186688
-0.62938846
0.023257057
-0.6302715
0.024975386
-0.63131796
0.027043697
-0.63258142
0.029482265
-0.63413041
0.032304181
-0.63604954
0.03550325
-0.63843579
0.039036396
-0.64139269
0.04281157
-0.64502527
0.046669979
-0.6494048
0.050307596
-0.65446879
0.053183236
-0.65994694
0.054658956
-0.66545434
0.054391247
-0.67067699
0.05252569
-0.67548094
0.049517506
-0.67989776
0.045817348
-0.68402163
0.041648297
-0.6879397
0.037037699
-0.69173055
0.031924291
-0.69545612
0.026129655
-0.69907868
0.019240361
-0.70237554
0.010662781
-0.7049313
-0.00017092089
-0.7061384
-0.013734309
-0.7050408
-0.03060235
-0.70017724
-0.050885066
-0.69050337
-0.071981373
-0.67723192
-0.087794024
-0.66352261
-0.09386734
-0.65128423
-0.092282563
-0.64134327
-0.08584027
-0.63367129
-0.077208156
-0.62791984
-0.067988467
-0.62366559
-0.059060062
-0.62052908
-0.050812774
-0.61820969
-0.043363369
-0.61648426
-0.036690143
-0.61519316
-0.030710406
-0.61422467
-0.025320815
-0.61350168
-0.020416488
-0.61297166
-0.015899097
-0.61259931
-0.011679815
-0.61236157
-0.0076781417
-0.00381421
-0.6278817
0.019621444
-0.62828979
0.019895525
-0.62872619
0.020430419
-0.62920396
0.021262591
-0.62974028
0.022403191
-0.63035835
0.023875133
-0.63108975
0.025706781
-0.63197715
0.0279311
-0.63307794
0.030583055
-0.63446901
0.033695248
-0.63625094
0.037285182
-0.63854558
0.041331037
-0.64148926
0.045755246
-0.64523577
0.050416494
-0.64992877
0.055000591
-0.65554433
0.058798798
-0.66172081
0.060835436
-0.66789247
0.060562912
-0.67361332
0.058246543
-0.67872882
0.054633004
-0.68334996
0.050438486
-0.68766291
0.04596125
-0.69181274
0.041187525
-0.69592858
0.036040133
-0.7001591
0.03036017
-0.7045454
0.023626666
-0.70887077
0.014988154
-0.71262648
0.0035847806
-0.7151007
-0.011260084
-0.71514681
-0.030556245
-0.71054338
-0.055488489
-0.69906557
-0.083459183
-0.68205683
-0.10480277
-0.66501634
-0.11090783
-0.65053186
-0.10676704
-0.63946223
-0.096909898
-0.63141585
-0.085254537
-0.6257203
-0.073684017
-0.62172695
-0.063053414
-0.61892304
-0.053616688
-0.61693784
-0.045348568
-0.61551575
-0.038112231
-0.61448497
-0.031741181
-0.61373156
-0.026074231
-0.61318047
-0.020967581
-0.61278259
-0.016296974
-0.61250608
-0.011956325
-0.61233073
-0.0078534887
-0.0038999906
-0.62933535
0.019883352
-0.62961431
0.020174489
-0.62991654
0.020732647
-0.63025298
0.021599037
-0.63063746
0.022787663
-0.63109034
0.024328019
-0.63164127
0.026257705
-0.6323326
0.028622435
-0.63322412
0.031474572
-0.63440014
0.034871274
-0.6359786
0.038863641
-0.63811239
0.043464825
-0.64097957
0.048622429
-0.64479606
0.054232976
-0.64982131
0.060025843
-0.65613285
0.065110339
-0.66325059
0.067953173
-0.67031053
0.06762286
-0.67666028
0.064596292
-0.68211536
0.060088079
-0.68692787
0.055250999
-0.69142693
0.050460311
-0.69581799
0.04557858
-0.7002547
0.040476848
-0.70499511
0.035100573
-0.71020245
0.028834014
-0.7156975
0.020483197
-0.72088284
0.0087701235
-0.72496997
-0.0071729537
-0.72680049
-0.028725728
-0.72323257
-0.0590564
-0.70979804
-0.096893713
-0.68723463
-0.12736618
-0.66565467
-0.13248779
-0.64844111
-0.1239806
-0.6363006
-0.1090504
-0.62813527
-0.093419867
-0.62277158
-0.079047714
-0.61926885
-0.066556137
-0.61696823
-0.055917306
-0.61543687
-0.046879932
-0.6143994
-0.039149702
-0.61368326
-0.032457318
-0.61318091
-0.026576582
-0.6128254
-0.021323097
-0.61257508
-0.01654729
-0.61240419
-0.012127218
-0.61229701
-0.0079606666
-0.0039522008
-0.63048964
0.019982039
-0.63061921
0.020304065
-0.63077024
0.020883676
-0.63094708
0.021775873
-0.63115873
0.022999318
-0.63142176
0.024591042
-0.6317626
0.026598548
-0.63222164
0.029081475
-0.63285872
0.032111649
-0.63376221
0.035774769
-0.63506422
0.040165651
-0.63695048
0.045351085
-0.63964598
0.051317932
-0.64343032
0.058017314
-0.64872284
0.065318362
-0.65582228
0.072209782
-0.66411005
0.076240946
-0.67220588
0.075718688
-0.67914636
0.071536769
-0.68470343
0.065645147
-0.68939358
0.05994115
-0.69377921
0.054845947
-0.69813883
0.049938194
-0.70260134
0.044939359
-0.70761309
0.040112322
-0.71359471
0.03481564
-0.72050352
0.027392008
-0.72773299
0.015999589
-0.73428021
-0.00062573432
-0.73920405
-0.023801888
-0.73833262
-0.059927832
-0.72349629
-0.11173004
-0.69248376
-0.15837871
-0.66469699
-0.16027456
-0.64430126
-0.14437633
-0.63139152
-0.12196014
-0.62358318
-0.10122821
-0.61896675
-0.083664148
-0.61625859
-0.069264291
-0.61466569
-0.057510208
-0.61372
-0.047825618
-0.61315051
-0.039719199
-0.61280132
-0.032806508
-0.61258281
-0.02679509
-0.6124434
-0.021462503
-0.61235345
-0.016637244
-0.61229599
-0.012184672
-0.61226149
-0.0079951727
-0.0039687388
-0.63007786
0.019880856
-0.63002735
0.020253549
-0.62999475
0.020851076
-0.62997571
0.02175683
-0.62997225
0.022995862
-0.62999431
0.024613105
-0.63006118
0.026665417
-0.63020581
0.029226097
-0.63048117
0.032387012
-0.63097082
0.036264418
-0.63181118
0.041006014
-0.63321951
0.046759417
-0.63548191
0.053580328
-0.63894675
0.061482156
-0.64424019
0.070611802
-0.65213581
0.080105399
-0.66194857
0.086053706
-0.67135098
0.085121101
-0.67893644
0.079122226
-0.68436703
0.071075736
-0.68865755
0.06423168
-0.69275242
0.058940817
-0.69705262
0.05423839
-0.70151514
0.049401877
-0.7068391
0.045436289
-0.7138598
0.041836331
-0.72259697
0.036129184
-0.73261993
0.026022549
-0.74190531
0.0086596448
-0.75053071
-0.015176486
-0.75421958
-0.056238962
-0.7404775
-0.12547212
-0.69642122
-0.20243499
-0.66055618
-0.1961396
-0.63703528
-0.16789723
-0.62415384
-0.13484158
-0.61751714
-0.1078649
-0.61423913
-0.086942159
-0.61270467
-0.070798759
-0.61204781
-0.058167062
-0.61182147
-0.048051964
-0.6117974
-0.039743263
-0.61186002
-0.03274389
-0.61195142
-0.026703686
-0.61204332
-0.021370606
-0.61212257
-0.016558
-0.61218362
-0.012123619
-0.61222455
-0.007954236
-0.0039483436
-0.62618328
0.01954947
-0.62589563
0.0199659
-0.62560383
0.020559275
-0.62530129
0.021454295
-0.62498272
0.022677293
-0.6246494
0.024279783
-0.62431019
0.026326206
-0.62398643
0.028902335
-0.62371968
0.03212026
-0.62358335
0.036128093
-0.62370997
0.041132628
-0.62434489
0.047394345
-0.62585797
0.055093403
-0.62866646
0.06429065
-0.63355957
0.075504906
-0.64216289
0.088708718
-0.65403847
0.097929288
-0.66487508
0.095957715
-0.67275852
0.087005665
-0.67707234
0.075389558
-0.67991181
0.067071144
-0.68282337
0.061852376
-0.68643018
0.057845206
-0.69004616
0.053017853
-0.6945068
0.049896932
-0.70161484
0.048944367
-0.71115757
0.04567192
-0.72409918
0.038964154
-0.73556691
0.020127378
-0.74986135
-0.00088204699
-0.76245014
-0.043650168
-0.75916651
-0.12875575
-0.69459122
-0.26701028
-0.65073474
-0.23999609
-0.62530423
-0.19332773
-0.61396287
-0.14618294
-0.60976326
-0.11206451
-0.6086099
-0.088095516
-0.60868421
-0.07072445
-0.60919208
-0.057659194
-0.60980284
-0.047441206
-0.61038444
-0.039161667
-0.61088952
-0.032238807
-0.61130627
-0.026286934
-0.61163706
-0.021039812
-0.61188908
-0.01630598
-0.61207022
-0.011942485
-0.61218723
-0.0078372197
-0.0038907781
-0.61276631
0.01873032
-0.61203605
0.019235644
-0.61128961
0.019812835
-0.61050012
0.020664808
-0.60964988
0.021827048
-0.60872681
0.023356721
-0.60772263
0.025322025
-0.6066367
0.027816401
-0.60548351
0.030967072
-0.60430249
0.034947071
-0.60318049
0.040010632
-0.60232596
0.046539807
-0.60215342
0.054920868
-0.60313633
0.065273557
-0.60601296
0.078381534
-0.61372703
0.096422794
-0.62752807
0.11173033
-0.63869116
0.1071208
-0.64545779
0.093772303
-0.64634568
0.076277441
-0.64573761
0.066463081
-0.64567458
0.061789343
-0.64728141
0.059452034
-0.64831252
0.054048963
-0.64944535
0.051029766
-0.65617037
0.055669384
-0.66607544
0.055576992
-0.68384081
0.056729524
-0.69888852
0.035175091
-0.72786053
0.028089964
-0.75027246
-0.02123824
-0.7732353
-0.10579291
-0.67715916
-0.36308642
-0.630768
-0.28638724
-0.6062235
-0.21787224
-0.59992096
-0.15248548
-0.60026626
-0.11171921
-0.60224907
-0.086112703
-0.60437345
-0.068600069
-0.6062319
-0.055800745
-0.60775547
-0.045917636
-0.60897157
-0.037945564
-0.6099282
-0.031282179
-0.6106713
-0.025543834
-0.611239
-0.02047211
-0.61166107
-0.015883909
-0.61195982
-0.011643742
-0.61215113
-0.0076459081
-0.0037969563
-0.58478024
0.017486862
-0.58351085
0.017966247
-0.5821422
0.018444191
-0.58067008
0.019192688
-0.57906826
0.020225229
-0.57730587
0.021594327
-0.57534627
0.023362429
-0.57314963
0.025619756
-0.57067835
0.028495789
-0.56790524
0.032173968
-0.56482903
0.036934416
-0.56155698
0.043267761
-0.55853311
0.051897001
-0.5565281
0.063268541
-0.55614923
0.078002672
-0.56153218
0.10180574
-0.58049341
0.13069155
-0.59265776
0.11928515
-0.59891101
0.10002555
-0.59405402
0.07142046
-0.58776449
0.060173549
-0.58244339
0.056468247
-0.58157615
0.058584792
-0.57952827
0.052001081
-0.57387563
0.045377128
-0.5851941
0.03252934
-0.59561874
0.037438511
-0.60467873
0.040312837
-0.60342361
0.020480199
-0.6352499
0.039878135
-0.71434548
0.019774409
-0.66918712
-0.054713914
-0.60685875
-0.22710827
-0.57379937
-0.31944663
-0.57150803
-0.22016358
-0.58113688
-0.14285662
-0.58945237
-0.10340372
-0.59561863
-0.079946449
-0.60008654
-0.064132158
-0.60336088
-0.052526404
-0.60579624
-0.043482281
-0.60762935
-0.036112452
-0.60901858
-0.029892945
-0.61007177
-0.024490646
-0.61086356
-0.019680321
-0.61144608
-0.015301386
-0.61185565
-0.011234168
-0.61211694
-0.0073846229
-0.0036689906
-0.52687266
0.01507688
-0.52437591
0.015469499
-0.52172355
0.015791834
-0.51887337
0.016342509
-0.5157711
0.017122961
-0.51234894
0.01817216
-0.50852119
0.01953468
-0.50418271
0.021281281
-0.49920929
0.023522366
-0.493463
0.026427675
-0.48680073
0.030272151
-0.47911796
0.035584989
-0.47061064
0.043389682
-0.46224686
0.054904756
-0.45437973
0.070135541
-0.44763042
0.095056437
-0.47081058
0.15387171
-0.47005271
0.11852728
-0.46091521
0.090888047
-0.42709593
0.037601184
-0.39543291
0.028510528
-0.36803841
0.029073754
-0.3034846
0.020768454
-0.16299316
0.013454096
-0.041143363
0.0077703548
0
0
0
0
0
0
0
0
0
0
0
0
0
0