/*--------------------------------*- C++ -*----------------------------------*\
| =========                 |                                                 |
| \\      /  F ield         | foam-extend: Open Source CFD                    |
|  \\    /   O peration     | Version:     4.1                                |
|   \\  /    A nd           | Web:         http://www.foam-extend.org         |
|    \\/     M anipulation  |                                                 |
\*---------------------------------------------------------------------------*/
FoamFile
{
    version     2.0;
    format      ascii;
    class       volScalarField;
    location    "0.85";
    object      rAU;
}
// * * * * * * * * * * * * * * * * * * * * * * * * * * * * * * * * * * * * * //

dimensions      [0 0 1 0 0 0 0];

internalField   nonuniform List<scalar> 
4393
(
0.00022764408
0.00022727027
0.00022690423
0.00022653034
0.00022614649
0.00022575127
0.00022534229
0.00022491835
0.00022447862
0.00022402289
0.00022355177
0.00022306676
0.00022257036
0.0002220661
0.00022155838
0.00022105331
0.00022055672
0.00022007558
0.00021961753
0.00021919016
0.00021880119
0.00021845832
0.00021816903
0.00021794053
0.00021777944
0.00021769171
0.00021768198
0.00021768198
0.00021775355
0.00021790753
0.00021814208
0.00021845222
0.00021882973
0.00021926359
0.00021974053
0.00022024602
0.00022076522
0.00022128395
0.00022178938
0.00022227051
0.00022271837
0.000223126
0.00022348835
0.00022380198
0.00022406476
0.00022427573
0.00022443495
0.00022454294
0.00022458507
0.00022451166
0.00022419118
0.00022388563
0.00022357102
0.0002232446
0.00022290471
0.00022254914
0.00022217703
0.00022178795
0.00022138228
0.00022096129
0.00022052726
0.00022008356
0.00021963466
0.00021918589
0.00021874427
0.00021831638
0.00021790984
0.00021753272
0.00021719288
0.00021689815
0.00021665623
0.00021647454
0.00021636007
0.00021631914
0.00021635715
0.00021644382
0.00021641674
0.00021645995
0.00021658685
0.00021679895
0.0002170947
0.00021746897
0.00021791298
0.00021841475
0.00021896002
0.00021953329
0.00022011906
0.00022070274
0.00022127142
0.00022181421
0.00022232239
0.00022278936
0.00022321039
0.00022358223
0.00022390273
0.00022417103
0.00022438861
0.00022454271
0.00022400629
0.00022369763
0.00022339749
0.0002230858
0.00022275983
0.00022241807
0.00022205851
0.00022168059
0.0002212843
0.00022087053
0.0002204412
0.00021999935
0.00021954923
0.0002190963
0.00021864687
0.00021820898
0.00021779009
0.00021739856
0.00021704299
0.00021673156
0.0002164723
0.00021627297
0.00021614095
0.00021608318
0.00021610579
0.00021621387
0.00021630064
0.00021618155
0.00021614327
0.00021619283
0.00021633514
0.00021657187
0.00021690048
0.00021731379
0.00021780026
0.000218345
0.00021893106
0.00021954094
0.00022015788
0.00022076679
0.00022135484
0.00022191166
0.00022242933
0.00022290212
0.00022332602
0.00022369842
0.00022401821
0.00022428551
0.00022448062
0.00022365094
0.00022334766
0.00022304745
0.00022273262
0.00022240072
0.00022205045
0.00022167995
0.0002212889
0.00022087762
0.00022044746
0.00022000092
0.00021954178
0.00021907522
0.0002186077
0.00021814669
0.00021770137
0.0002172803
0.00021689273
0.00021654797
0.00021625468
0.0002160212
0.00021585547
0.00021576502
0.0002157569
0.00021583738
0.00021601149
0.00021609302
0.00021588787
0.00021576527
0.00021573576
0.00021580805
0.00021598734
0.00021627379
0.00021666163
0.00021713934
0.00021769079
0.00021829694
0.00021893779
0.00021959399
0.00022024807
0.00022088518
0.00022149335
0.00022206346
0.00022258892
0.00022306524
0.00022348959
0.00022386074
0.00022417774
0.00022442244
0.00022328905
0.00022298993
0.00022269003
0.00022237239
0.0002220347
0.00022167581
0.00022129398
0.00022088908
0.00022046167
0.0002200135
0.00021954759
0.00021906846
0.00021858216
0.00021809628
0.00021761953
0.00021716237
0.00021673459
0.0002163465
0.00021600819
0.00021572885
0.00021551715
0.00021538125
0.0002153289
0.0002153674
0.00021550337
0.00021574218
0.00021582928
0.00021553364
0.00021532276
0.00021521119
0.00021521204
0.00021533461
0.00021558203
0.00021594985
0.00021642603
0.00021699249
0.00021762732
0.00021830734
0.00021901011
0.00021971551
0.00022040655
0.00022106972
0.00022169483
0.00022227465
0.00022280437
0.00022328116
0.0002237037
0.00022407085
0.00022436675
0.00022291136
0.00022261692
0.0002223184
0.00022199889
0.00022165621
0.00022128924
0.00022089631
0.00022047738
0.00022003321
0.00021956583
0.00021907875
0.00021857714
0.00021806797
0.00021755999
0.00021706328
0.00021658978
0.00021615072
0.00021575761
0.00021542141
0.00021515187
0.00021495798
0.00021484809
0.00021483024
0.00021491215
0.00021510106
0.00021540312
0.00021551089
0.00021511895
0.00021481416
0.00021461573
0.00021454204
0.00021460734
0.00021481823
0.00021517151
0.00021565406
0.00021624486
0.00021691815
0.00021764665
0.00021840425
0.00021916781
0.00021991813
0.00022064019
0.00022132294
0.00022195876
0.00022254284
0.00022307254
0.00022354675
0.00022396477
0.00022431252
0.00022251835
0.00022222928
0.00022193315
0.00022161278
0.00022126595
0.0002208915
0.00022048776
0.00022005466
0.00021959306
0.00021910518
0.00021859492
0.00021806807
0.00021753251
0.00021699822
0.00021647685
0.00021598204
0.00021552672
0.0002151238
0.00021478522
0.00021452128
0.00021434119
0.00021425348
0.00021426644
0.00021438837
0.00021462745
0.00021499111
0.00021513988
0.00021464436
0.00021423819
0.00021394605
0.00021379278
0.00021379885
0.0002139752
0.00021431987
0.00021481783
0.00021544393
0.00021616717
0.00021695508
0.0002177771
0.00021860668
0.0002194223
0.00022020755
0.00022095075
0.00022164417
0.00022228329
0.00022286595
0.00022339157
0.00022386031
0.0002242595
0.00022211203
0.00022182968
0.00022153713
0.00022121691
0.00022086678
0.00022048545
0.00022007112
0.00021962363
0.00021914381
0.00021863395
0.00021809821
0.00021754294
0.00021697691
0.00021641145
0.00021585995
0.00021533814
0.00021486095
0.00021444297
0.00021409723
0.0002138345
0.0002136641
0.00021359456
0.00021363439
0.00021379255
0.00021407851
0.00021450158
0.00021471781
0.00021410979
0.00021359256
0.00021319731
0.00021295696
0.00021290006
0.0002130432
0.00021338578
0.00021390976
0.0002145841
0.0002153708
0.00021623081
0.00021712819
0.00021803257
0.00021892005
0.00021977306
0.00022057957
0.00022133214
0.00022202686
0.00022266238
0.00022323898
0.00022375786
0.00022420763
0.00022169409
0.00022141932
0.00022113142
0.00022081244
0.00022045992
0.00022007239
0.00021964782
0.00021918583
0.00021868704
0.00021815369
0.00021759004
0.00021700289
0.00021640189
0.00021579979
0.00021521203
0.0002146568
0.00021415156
0.00021371292
0.00021335509
0.00021308921
0.00021292443
0.00021286903
0.00021293155
0.00021312168
0.00021345052
0.00021392997
0.0002142476
0.0002135163
0.00021287578
0.0002123649
0.00021202684
0.00021190099
0.00021201161
0.00021235962
0.00021292246
0.00021366073
0.00021452709
0.00021547407
0.00021645932
0.00021744824
0.00021841461
0.00021933996
0.00022021243
0.00022102531
0.00022177573
0.00022246351
0.00022309013
0.00022365802
0.00022415708
0.00022126655
0.00022100122
0.0002207194
0.00022040284
0.00022004896
0.00021965601
0.00021922162
0.00021874504
0.00021822654
0.00021766808
0.00021707387
0.00021645098
0.00021580986
0.00021516478
0.00021453355
0.00021393743
0.00021339705
0.00021293155
0.00021255646
0.00021228304
0.00021211986
0.00021207447
0.00021215519
0.00021237238
0.00021273909
0.00021327063
0.00021373261
0.00021286529
0.00021208626
0.00021144332
0.0002109928
0.00021078897
0.0002108669
0.00021122941
0.00021184704
0.00021266861
0.00021363416
0.0002146856
0.00021577297
0.0002168571
0.00021790968
0.00021891191
0.00021985265
0.00022072652
0.00022153221
0.00022227112
0.00022294625
0.00022356149
0.00022410811
0.00022083204
0.00022057676
0.00022030212
0.00021998916
0.00021963501
0.00021923754
0.00021879392
0.00021830287
0.00021776407
0.00021717898
0.00021655152
0.0002158888
0.00021520194
0.00021450677
0.00021382386
0.00021317831
0.00021259491
0.00021209598
0.00021169853
0.00021141356
0.00021124835
0.00021120909
0.00021130333
0.00021154195
0.00021194025
0.00021251782
0.00021317817
0.00021215995
0.00021122363
0.0002104273
0.00020984406
0.00020954895
0.00020959292
0.00020998129
0.00021067404
0.00021160317
0.00021269173
0.00021386819
0.00021507375
0.00021626458
0.00021741077
0.00021849399
0.00021950464
0.00022043942
0.00022129917
0.00022208736
0.00022280883
0.00022346914
0.0002240611
0.00022039153
0.00022014885
0.00021988316
0.00021957532
0.00021922231
0.00021882154
0.00021836962
0.00021786453
0.00021730515
0.00021669213
0.00021602875
0.00021532187
0.00021458301
0.00021382953
0.00021308518
0.00021237997
0.00021174418
0.00021120441
0.0002107793
0.00021047898
0.00021030843
0.00021027146
0.0002103742
0.0002106276
0.00021104942
0.00021166456
0.00021248468
0.00021140486
0.00021028873
0.00020931154
0.0002085678
0.00020816205
0.00020816922
0.00020859824
0.00020939266
0.00021046024
0.00021170104
0.00021302671
0.00021436847
0.00021567805
0.00021692496
0.00021809249
0.00021917373
0.00022016832
0.00022107997
0.0002219147
0.00022267956
0.000223382
0.00022401652
0.00021995022
0.00021972024
0.00021946455
0.00021916318
0.00021881266
0.00021840986
0.00021795067
0.00021743214
0.00021685206
0.00021620991
0.0002155079
0.00021475224
0.00021395445
0.00021313321
0.00021231592
0.00021153888
0.00021083992
0.00021025145
0.00020979406
0.00020947594
0.00020929817
0.00020926079
0.00020936737
0.00020962835
0.00021006382
0.00021070506
0.00021159208
0.00021060804
0.00020928502
0.00020809179
0.00020714938
0.00020660455
0.00020656973
0.00020705945
0.00020799104
0.00020923694
0.00021066601
0.00021216921
0.00021366693
0.00021510746
0.00021646137
0.00021771526
0.00021886632
0.00021991826
0.00022087844
0.00022175594
0.00022256036
0.00022330123
0.00022397489
0.00021950682
0.00021929287
0.00021904939
0.00021875642
0.00021841036
0.00021800752
0.00021754293
0.0002170125
0.0002164126
0.00021574109
0.0002149986
0.00021419004
0.00021332634
0.00021242703
0.00021152339
0.00021065986
0.00020988479
0.00020923882
0.0002087448
0.00020840739
0.00020822137
0.00020818104
0.00020828618
0.00020854576
0.00020898194
0.0002096333
0.00021055283
0.00020978125
0.00020821948
0.00020676566
0.00020557214
0.00020484603
0.00020476014
0.00020533884
0.00020645609
0.00020793245
0.00020959433
0.00021130787
0.0002129827
0.00021456579
0.00021603136
0.00021737167
0.00021858986
0.00021969498
0.00022069886
0.00022161416
0.00022245333
0.00022322813
0.00022393683
0.00021907209
0.00021887365
0.00021864341
0.00021836043
0.00021802063
0.00021761963
0.00021715146
0.00021661066
0.00021599181
0.00021529062
0.00021450541
0.00021363905
0.00021270102
0.00021171078
0.00021070343
0.00020973395
0.00020886585
0.0002081519
0.00020761784
0.00020726229
0.00020707011
0.00020702711
0.00020712765
0.00020737775
0.00020780046
0.00020844216
0.00020937164
0.00020894107
0.00020710434
0.00020533455
0.00020381787
0.00020284694
0.00020269419
0.00020340339
0.00020477391
0.00020654962
0.00020849927
0.00021046052
0.00021233411
0.00021406957
0.00021564875
0.00021707275
0.00021835283
0.00021950482
0.00022054586
0.00022149266
0.00022236069
0.00022316406
0.00022390299
0.00021863754
0.0002184586
0.00021824402
0.00021797326
0.00021764221
0.00021724585
0.00021677714
0.00021622904
0.000215594
0.00021486498
0.00021403716
0.00021311036
0.0002120914
0.00021099806
0.00020986835
0.00020877054
0.00020779024
0.00020699846
0.00020642459
0.00020605684
0.00020586422
0.00020582017
0.00020591193
0.0002061411
0.0002065298
0.00020713262
0.00020803789
0.00020811317
0.00020596007
0.00020380674
0.00020186854
0.00020055545
0.00020030741
0.00020121074
0.00020293065
0.00020509763
0.00020740234
0.00020965261
0.00021174538
0.00021363945
0.00021533
0.00021683102
0.00021816452
0.00021935454
0.00022042427
0.0002213948
0.00022228471
0.00022311042
0.00022387405
0.00021822603
0.00021806542
0.00021786762
0.00021761116
0.00021729151
0.00021690293
0.00021643714
0.00021588529
0.00021523727
0.00021448256
0.00021361205
0.0002126211
0.00021151227
0.00021029916
0.00020902013
0.00020775955
0.00020663613
0.00020574959
0.00020513449
0.00020476227
0.00020457724
0.00020453575
0.00020461727
0.00020481773
0.00020515464
0.0002056889
0.00020653123
0.00020732617
0.00020481628
0.0002022027
0.00019971102
0.00019790445
0.00019750696
0.00019870618
0.00020091454
0.00020359632
0.00020633717
0.00020891975
0.00021124792
0.00021330056
0.00021509407
0.00021666031
0.00021803476
0.00021925104
0.00022033891
0.00022132389
0.00022222761
0.00022306859
0.00022385066
0.000217817
0.00021767894
0.00021750028
0.0002172604
0.00021695494
0.00021657753
0.00021611869
0.00021556765
0.00021491149
0.00021413564
0.00021322555
0.00021217051
0.00021096704
0.00020962122
0.00020816635
0.00020670447
0.0002054044
0.00020441235
0.00020376974
0.00020342019
0.0002032678
0.000203244
0.0002033202
0.00020348535
0.00020374483
0.00020416149
0.00020487322
0.00020603996
0.00020373289
0.00020057006
0.00019735006
0.00019481265
0.00019415652
0.00019582026
0.00019872056
0.00020208349
0.00020535526
0.0002083109
0.00021088163
0.00021308269
0.00021496208
0.00021657514
0.00021797341
0.00021920098
0.00022029426
0.00022128297
0.0002221914
0.00022303982
0.00022383346
0.00021746809
0.00021735087
0.00021719274
0.00021697236
0.00021668524
0.00021632439
0.00021587914
0.00021533675
0.00021468124
0.00021389327
0.00021295122
0.00021183568
0.0002105344
0.00020904134
0.00020737419
0.0002056491
0.00020411148
0.00020298607
0.00020232321
0.000202022
0.00020192112
0.00020191755
0.00020198
0.00020209609
0.00020224975
0.00020249989
0.00020301703
0.00020404779
0.00020277697
0.00019900107
0.00019484843
0.00019121022
0.00019006003
0.00019246926
0.00019635915
0.00020062672
0.00020453421
0.00020789237
0.00021069587
0.00021301985
0.00021495643
0.00021658991
0.00021798965
0.00021921024
0.00022029414
0.00022127455
0.00022217774
0.00022302517
0.00022382299
0.00021720044
0.00021710847
0.00021697478
0.00021677842
0.00021651522
0.00021617765
0.00021575387
0.00021522915
0.00021458428
0.00021379483
0.00021283081
0.00021166134
0.00021026276
0.00020861369
0.00020670067
0.00020463853
0.0002027902
0.0002015202
0.00020088615
0.00020071691
0.0002007406
0.00020080593
0.00020089021
0.0002009935
0.00020105242
0.00020109855
0.00020133218
0.00020206208
0.00020232338
0.00019782279
0.00019245181
0.00018712466
0.00018495906
0.00018857268
0.00019388266
0.0001993463
0.00020399057
0.00020775212
0.00021074958
0.00021314882
0.00021509915
0.00021671756
0.00021809104
0.00021928329
0.00022034129
0.00022130039
0.00022218779
0.0002230254
0.00022381968
0.00021725956
0.0002171957
0.00021709249
0.00021692794
0.00021669825
0.00021639562
0.00021600761
0.00021551812
0.00021490547
0.00021414071
0.00021318505
0.00021199257
0.00021052289
0.00020873554
0.00020656229
0.00020406819
0.00020178703
0.00020035032
0.0001998051
0.00019987877
0.000200105
0.00020026541
0.00020036296
0.00020044915
0.00020036927
0.0002000927
0.00019988247
0.00020010166
0.00020118329
0.00019740067
0.00019066072
0.0001829165
0.00017861427
0.00018416393
0.00019146797
0.00019845284
0.00020389559
0.0002080028
0.00021110912
0.00021350594
0.00021540919
0.00021696763
0.00021828228
0.00021942245
0.00022043692
0.00022136118
0.00022222206
0.0002230409
0.00022382377
0.0002180169
0.00021798805
0.00021792993
0.00021781535
0.00021764053
0.00021739764
0.00021707413
0.00021665315
0.00021611089
0.00021541396
0.00021451376
0.00021334382
0.0002118366
0.00020993062
0.0002074862
0.00020441492
0.00020147745
0.00019988131
0.00019958046
0.0002001772
0.0002008214
0.00020120611
0.00020138375
0.00020158203
0.00020150154
0.00020093319
0.0002003154
0.00019986122
0.000200808
0.00019976191
0.00019129678
0.00018002113
0.00017094766
0.00017965763
0.00018947909
0.00019827167
0.00020448858
0.00020878058
0.0002118419
0.00021412125
0.0002158985
0.00021734398
0.00021856396
0.00021962721
0.0002205803
0.00022145639
0.00022228025
0.0002230716
0.00022383531
0.00022066368
0.00022071185
0.00022074169
0.00022072112
0.00022064827
0.00022051618
0.00022031356
0.00022002449
0.00021962523
0.00021908094
0.00021833777
0.00021731112
0.00021589804
0.00021401574
0.00021146365
0.00020778586
0.00020388315
0.00020236551
0.00020272428
0.00020450408
0.00020600899
0.0002069099
0.00020732193
0.00020797696
0.00020832163
0.000207324
0.0002061894
0.00020432521
0.0002049602
0.00020348409
0.00019649984
0.00018118201
0.00016222047
0.00017630827
0.00018869738
0.00019949672
0.00020614891
0.00021024621
0.00021300391
0.00021500901
0.00021656667
0.00021784211
0.00021893124
0.00021989356
0.00022076853
0.00022158408
0.0002223612
0.00022311692
0.00022385412
0.00022642288
0.00022656605
0.00022672874
0.00022685638
0.00022694674
0.00022699492
0.00022699374
0.00022693237
0.00022679244
0.0002265443
0.00022613688
0.00022547231
0.00022438771
0.0002227183
0.00022021976
0.00021576601
0.00020956538
0.00020824595
0.00020948455
0.00021348462
0.00021646262
0.00021835303
0.00021896612
0.0002204051
0.00022210384
9.3007869e-05
9.5433547e-05
9.7691776e-05
9.988228e-05
0.00010288252
9.4463764e-05
8.6204506e-05
0.00010657305
0.00017933337
0.00019343332
0.00020412684
0.00020945421
0.00021253441
0.00021460536
0.00021615189
0.0002173946
0.00021844677
0.00021937305
0.00022021381
0.00022099641
0.00022174087
0.00022246289
0.00022317579
0.00022387978
0.0002392452
0.00023969284
0.00024019379
0.00024067998
0.0002411605
0.00024163946
0.00024212167
0.00024261087
0.00024310589
0.00024359598
0.00024404841
0.00024437045
0.00024434131
0.00024362483
0.00024200447
0.00023807284
0.00022682197
0.0002293542
0.00023549177
0.00025021054
0.0002614433
0.00027023588
0.00012828146
0.00016688469
0.00032276205
0.00046160019
0.00049956686
0.00049956686
0.00049956686
0.00049956686
0.00049956686
0.00045031234
0.00033649819
6.8075248e-05
0.00021297363
0.00021346073
0.00021437865
0.00021549427
0.00021653633
0.00021748102
0.00021833977
0.00021913124
0.00021987225
0.00022057681
0.00022125669
0.00022192216
0.00022258248
0.00022324664
0.00022391165
0.00026426749
0.00026527597
0.00026642964
0.0002676261
0.00026888592
0.0002702337
0.00027170355
0.00027333848
0.00027519165
0.00027733056
0.0002798416
0.00028282219
0.00028637359
0.00029054765
0.00029517988
0.00030233778
0.00027345744
0.00030500931
0.00035659752
0.00037255648
0.00027821166
0.00031966697
0.00049956686
0.00049956686
0.00049956686
0.00049956686
0.00049956686
0.00049956686
0.00049956686
0.00049956686
0.00041263408
0.0004182696
0.00010203825
0.00026658996
0.00023113978
0.00022209685
0.00021927515
0.00021853473
0.00021855417
0.0002188817
0.00021934139
0.00021986043
0.00022040738
0.00022096898
0.00022154065
0.00022212233
0.00022271652
0.00022332753
0.00022394886
0.00030195215
0.00030409459
0.00030622472
0.0003084272
0.00031077655
0.0003133456
0.00031622029
0.00031951391
0.00032338589
0.00032807985
0.00033399201
0.00034169813
0.00035173118
0.00036474629
0.00038492168
0.00040158204
0.00025701322
0.00025319844
0.00026336186
0.00048921183
0.00047848807
0.00048855755
0.00047869855
0.00047372165
0.00047746535
0.00045865806
0.0004517193
0.00045351621
0.00044093613
0.00043652057
0.00010691835
0.00010767083
0.0002197766
0.00025235697
0.00023694812
0.0002274105
0.00022311567
0.00022121893
0.0002204493
0.00022024463
0.00022033814
0.00022059787
0.00022095577
0.0002213758
0.00022183883
0.00022233528
0.00022286116
0.00022341623
0.00022399043
0.00028856618
0.00028908443
0.00028927429
0.00028946075
0.00028964589
0.00028986167
0.00029013409
0.00029050002
0.00029101241
0.00029174888
0.00029283156
0.00029387697
0.00029481586
0.00029557369
0.00029293139
0.00010292876
0.0003762283
0.0004708242
0.00047253299
0.0004938369
0.00048613825
0.00048245083
0.00012420999
0.00012127927
0.00010077013
0.00010005417
0.00010062905
0.00010197287
0.0001029273
0.00010452167
0.00020120904
0.00020767831
0.00021808314
0.00023901601
0.00023962996
0.00023076129
0.00022595765
0.00022341688
0.00022210823
0.00022149273
0.00022128025
0.00022131144
0.0002214964
0.00022178328
0.00022214189
0.00022255479
0.0002230124
0.00022351036
0.00022403523
0.00022327555
0.00022310772
0.0002228193
0.00022254054
0.00022227922
0.0002220525
0.00022187635
0.00022177412
0.00022177811
0.00022193322
0.0002223044
0.00022209458
0.00022116324
0.00021941689
0.00021672866
0.00021314665
9.5859266e-05
9.9101808e-05
9.9869099e-05
9.9773922e-05
0.00010014966
0.00010017643
0.00021253994
0.00021081376
0.00020892992
0.00020554389
0.00020443544
0.00020387908
0.0002021081
0.00020212631
0.00020330676
0.00020901295
0.00021823643
0.00023217566
0.00023802129
0.00023248187
0.00022785732
0.00022508934
0.00022347602
0.00022257915
0.00022213274
0.00022197618
0.00022201171
0.00022217918
0.0002224413
0.000222775
0.00022316635
0.00022360755
0.00022408214
0.00021926608
0.00021934595
0.00021947232
0.00021960768
0.00021976326
0.0002199512
0.00022018408
0.00022047798
0.00022085219
0.00022132954
0.00022186427
0.00022156905
0.0002208136
0.00021957762
0.00021780373
0.00021498967
0.00021250685
0.00021402908
0.00021587932
0.00021421464
0.00021238157
0.00021121575
0.00021005911
0.00020833727
0.00020730345
0.00020568601
0.00020477983
0.00020420543
0.00020347961
0.00020394839
0.00020593239
0.00021088866
0.00021854845
0.00022810812
0.00023383166
0.00023318201
0.00022902056
0.00022628593
0.0002245483
0.0002234849
0.0002228757
0.00022257528
0.0002224886
0.00022255361
0.00022272977
0.00022299068
0.00022331941
0.00022370552
0.00022413005
0.00021788915
0.00021796873
0.00021809408
0.00021823284
0.00021838788
0.00021856676
0.00021877798
0.00021903267
0.00021934332
0.00021972366
0.00021997951
0.00021948746
0.00021872933
0.00021765495
0.00021622765
0.00021439202
0.00021326115
0.00021411274
0.00021527046
0.00021349519
0.00021190188
0.00021068272
0.00020952611
0.00020831109
0.00020735629
0.00020629731
0.00020564695
0.00020528635
0.000205212
0.00020608773
0.00020833128
0.00021262036
0.0002187592
0.00022561468
0.00023030007
0.00023231271
0.00022962732
0.00022708132
0.00022534756
0.00022421035
0.00022350161
0.00022309948
0.00022291844
0.00022289933
0.00022300157
0.00022319748
0.00022346843
0.00022380223
0.00022417791
0.00021721086
0.00021733183
0.00021747156
0.00021762261
0.00021779092
0.00021798292
0.00021820479
0.00021846403
0.00021876766
0.00021912109
0.00021921509
0.00021877197
0.00021812039
0.00021723036
0.00021608151
0.00021482225
0.00021419537
0.00021469901
0.000215039
0.00021341158
0.00021201404
0.00021086209
0.00020980456
0.00020882302
0.00020800294
0.00020726737
0.00020684878
0.00020673397
0.00020703008
0.0002081231
0.00021033535
0.0002139925
0.00021887078
0.00022400955
0.00022786312
0.00023021871
0.00022984658
0.0002275595
0.00022591084
0.00022476854
0.0002240122
0.00022354576
0.00022329664
0.00022321167
0.00022325254
0.00022339198
0.00022361083
0.00022389591
0.00022422479
0.0002169216
0.00021699469
0.0002171107
0.00021724587
0.00021739831
0.00021757153
0.00021776933
0.00021799662
0.00021825726
0.00021855276
0.00021852339
0.00021813391
0.00021760139
0.00021691422
0.00021608491
0.00021529075
0.00021497724
0.0002153655
0.0002149958
0.00021359469
0.00021236927
0.00021132273
0.00021038926
0.00020956884
0.00020889448
0.00020837631
0.00020813551
0.00020820846
0.00020871217
0.00020988774
0.00021195305
0.00021505072
0.00021895107
0.00022294353
0.00022613927
0.00022830385
0.00022930041
0.0002277941
0.00022627861
0.00022517894
0.00022441523
0.00022391576
0.00022362195
0.0002234882
0.00022348
0.00022357171
0.00022374457
0.00022398508
0.00022426991
0.00021677896
0.00021689196
0.00021701752
0.00021715323
0.00021730309
0.00021747018
0.00021765618
0.00021786296
0.00021809057
0.00021833586
0.00021824922
0.00021790054
0.00021744832
0.00021689724
0.00021628735
0.00021577753
0.00021563506
0.00021596291
0.0002150486
0.00021385928
0.00021279607
0.00021187006
0.00021106088
0.00021037609
0.00020983858
0.0002094809
0.00020937833
0.00020958344
0.00021019762
0.00021137689
0.00021325714
0.00021588289
0.00021904262
0.00022223355
0.00022490824
0.00022685673
0.00022809014
0.00022785093
0.00022649046
0.00022546369
0.0002247219
0.00022421431
0.00022389565
0.00022372839
0.00022368261
0.0002237351
0.0002238682
0.00022406864
0.00022431264
0.00021670566
0.0002167758
0.00021688222
0.00021700551
0.00021714318
0.00021729634
0.00021746519
0.00021764992
0.00021784863
0.00021805586
0.00021796835
0.00021768317
0.00021732724
0.00021691367
0.00021649083
0.00021618359
0.00021615685
0.00021618168
0.00021514075
0.00021413972
0.0002132285
0.00021242688
0.00021173736
0.00021117328
0.00021075736
0.00021052516
0.00021053108
0.00021082774
0.00021149519
0.0002126351
0.00021432547
0.00021655999
0.00021915743
0.00022176463
0.0002240237
0.00022576039
0.00022694911
0.00022750555
0.0002265806
0.00022564455
0.00022494489
0.0002244481
0.00022412077
0.00022393312
0.00022386009
0.00022388134
0.00022398077
0.00022414577
0.00022435248
0.0002166524
0.00021674394
0.00021685077
0.0002169669
0.00021709391
0.00021723277
0.00021738259
0.0002175422
0.00021770822
0.00021787392
0.00021779697
0.00021755906
0.00021727665
0.00021696867
0.00021668283
0.00021651275
0.00021656374
0.00021610932
0.0002152541
0.00021441762
0.00021364671
0.00021296639
0.00021239047
0.00021193627
0.00021162725
0.00021149661
0.00021158725
0.00021194545
0.00021263134
0.00021371004
0.00021522106
0.00021713385
0.00021929948
0.0002214675
0.00022339239
0.00022493385
0.000226052
0.00022677686
0.00022657917
0.00022574178
0.00022509707
0.00022462478
0.00022430145
0.00022410431
0.00022401303
0.0002240103
0.00022408183
0.00022421597
0.00022438911
0.00021662028
0.00021668697
0.00021678194
0.0002168893
0.00021700687
0.00021713435
0.00021726986
0.00021741121
0.00021755406
0.00021769092
0.00021764819
0.00021746017
0.00021724628
0.00021702763
0.00021684699
0.000216774
0.00021670993
0.00021608853
0.00021538623
0.00021469268
0.00021404938
0.00021348318
0.00021301312
0.00021265872
0.00021244324
0.00021239622
0.00021255256
0.00021295036
0.00021363318
0.0002146412
0.00021598955
0.00021763814
0.00021946712
0.00022129582
0.00022294928
0.0002243158
0.00022535212
0.00022606786
0.00022637972
0.00022577295
0.00022519058
0.00022475221
0.00022444242
0.00022424456
0.00022414265
0.00022412234
0.0002241713
0.00022427899
0.00022442232
0.00021659648
0.00021666891
0.00021675934
0.0002168579
0.00021696423
0.00021707799
0.00021719685
0.00021731814
0.00021743719
0.00021754665
0.00021753795
0.00021739158
0.00021723382
0.00021708564
0.00021698334
0.00021695156
0.00021664408
0.00021610977
0.00021553548
0.00021496629
0.00021443807
0.00021397719
0.00021360452
0.00021334019
0.00021320635
0.00021322872
0.00021343578
0.00021385757
0.00021452459
0.00021546001
0.00021666426
0.00021809549
0.00021965803
0.0002212189
0.00022264968
0.00022386161
0.00022481316
0.00022550256
0.00022595412
0.00022575331
0.00022523651
0.00022483799
0.00022454865
0.0002243569
0.00022425061
0.00022421825
0.00022424941
0.00022433482
0.00022445204
0.0002165856
0.00021664574
0.00021672837
0.0002168195
0.00021691718
0.00021702044
0.00021712654
0.00021723249
0.00021733353
0.00021742266
0.00021744909
0.00021733998
0.00021722947
0.00021713721
0.00021709335
0.00021696835
0.00021660056
0.00021616573
0.00021570015
0.00021523952
0.00021481446
0.00021444962
0.0002141657
0.00021398228
0.00021391971
0.00021400004
0.00021424628
0.00021468133
0.00021532569
0.00021619107
0.00021726951
0.00021852119
0.00021986978
0.00022121543
0.00022246164
0.00022353772
0.00022440604
0.00022505888
0.00022550998
0.00022566436
0.00022524459
0.00022488924
0.00022462504
0.0002244445
0.00022433885
0.00022429908
0.00022431667
0.00022438361
0.00022447828
0.00021658195
0.00021664064
0.00021671766
0.00021680101
0.00021688932
0.00021698159
0.00021707497
0.00021716644
0.00021725146
0.0002173237
0.00021736696
0.00021730098
0.00021722879
0.00021717986
0.00021711428
0.00021689995
0.00021659953
0.00021624941
0.00021587738
0.000215512
0.00021517925
0.00021490141
0.00021469793
0.00021458705
0.0002145869
0.00021471608
0.00021499285
0.00021543411
0.00021605288
0.00021685322
0.00021782277
0.00021892538
0.00022009987
0.0002212699
0.00022236156
0.00022331833
0.00022410723
0.00022471783
0.00022515713
0.00022544326
0.00022522318
0.00022491238
0.00022467625
0.00022451061
0.00022440947
0.0002243661
0.00022437373
0.00022442566
0.00022450113
0.00021658679
0.00021663902
0.00021671023
0.00021678707
0.00021686768
0.0002169509
0.00021703382
0.00021711357
0.00021718595
0.00021724543
0.00021728491
0.00021726903
0.00021722801
0.00021717789
0.00021706202
0.00021687264
0.0002166316
0.00021635487
0.00021606429
0.00021578297
0.00021553286
0.00021533365
0.00021520296
0.00021515718
0.00021521207
0.00021538298
0.00021568407
0.0002161273
0.00021672014
0.00021746168
0.00021833756
0.00021931576
0.0002203469
0.00022137167
0.00022233261
0.00022318435
0.00022389856
0.00022446406
0.00022488371
0.00022517008
0.00022517962
0.00022491322
0.0002247067
0.00022455839
0.00022446463
0.00022442068
0.00022442139
0.00022446136
0.00022452074
0.00021659757
0.00021664653
0.00021671276
0.00021678333
0.00021685657
0.00021693134
0.00021700486
0.00021707446
0.00021713645
0.00021718611
0.00021721767
0.00021722446
0.0002171993
0.00021713538
0.00021702774
0.00021687687
0.00021668876
0.00021647646
0.00021625754
0.00021605089
0.00021587499
0.00021574692
0.00021568219
0.00021569511
0.00021579899
0.00021600618
0.0002163273
0.00021677031
0.00021733856
0.00021802794
0.00021882353
0.00021969731
0.00022060911
0.00022151222
0.00022236143
0.00022312023
0.00022376467
0.00022428395
0.00022467856
0.00022495727
0.0002250978
0.00022489672
0.0002247203
0.00022459079
0.00022450644
0.00022446422
0.00022446048
0.00022449111
0.00022453727
0.00021661373
0.00021665872
0.00021672047
0.00021678567
0.00021685259
0.00021692015
0.00021698571
0.00021704696
0.00021710072
0.00021714314
0.00021716966
0.00021717527
0.00021715486
0.00021710401
0.00021702011
0.00021690507
0.00021676454
0.00021660944
0.0002164542
0.00021631435
0.00021620541
0.00021614196
0.00021613731
0.00021620359
0.00021635169
0.00021659121
0.00021692969
0.00021737182
0.00021791792
0.00021856184
0.00021928886
0.00022007456
0.00022088604
0.00022168608
0.00022243878
0.00022311476
0.00022369407
0.00022416697
0.00022453275
0.00022479771