/*--------------------------------*- C++ -*----------------------------------*\
| =========                 |                                                 |
| \\      /  F ield         | foam-extend: Open Source CFD                    |
|  \\    /   O peration     | Version:     4.1                                |
|   \\  /    A nd           | Web:         http://www.foam-extend.org         |
|    \\/     M anipulation  |                                                 |
\*---------------------------------------------------------------------------*/
FoamFile
{
    version     2.0;
    format      ascii;
    class       volScalarField;
    location    "0.4";
    object      p;
}
// * * * * * * * * * * * * * * * * * * * * * * * * * * * * * * * * * * * * * //

dimensions      [0 2 -2 0 0 0 0];

internalField   nonuniform List<scalar> 
16796
(
-1.7359696
-3.855183
-6.0673317
-8.3026511
-10.575507
-12.895746
-15.273654
-17.719717
-20.244676
-22.859562
-25.575734
-28.404916
-31.359238
-34.451265
-37.694043
-41.101129
-44.686632
-48.46524
-52.452265
-56.663661
-61.116068
-65.826827
-70.814013
-76.096448
-81.693722
-87.626197
-93.915017
-100.58209
-107.6501
-115.14244
-123.08321
-131.49716
-140.4096
-149.84634
-159.83355
-170.39766
-181.56516
-193.36247
-205.81564
-218.95016
-232.79063
-247.3604
-262.68119
-278.77269
-295.65201
-313.33315
-331.82641
-351.13769
-371.26782
-392.21173
-413.95764
-436.48617
-459.76945
-483.77014
-508.44049
-533.72135
-559.5413
-585.8157
-612.44594
-639.31877
-666.30572
-693.26286
-720.03064
-746.4342
-772.28385
-797.37607
-821.49487
-844.4136
-865.89731
-885.70547
-903.59535
-919.32565
-932.66072
-943.37486
-951.25699
-956.11531
-957.78216
-956.11866
-951.01824
-942.40982
-930.26058
-914.57792
-895.41021
-872.84675
-847.01651
-818.08595
-786.25596
-751.7579
-714.84906
-675.80761
-634.92729
-592.51199
-548.87044
-504.31113
-459.13759
-413.64425
-368.11283
-322.80934
-277.98179
-233.85846
-190.64685
-148.53315
-107.68221
-68.237954
-30.324166
5.9544209
40.510842
73.274438
104.18928
133.21257
160.31296
185.46898
208.66743
229.90199
249.17191
266.48061
281.83379
295.23765
306.70101
316.24391
323.89545
329.63725
333.31384
334.79951
-1.7325158
-3.8474892
-6.0552457
-8.2861356
-10.5545
-12.870169
-15.243412
-17.684698
-20.204751
-22.814587
-25.525548
-28.349342
-31.298081
-34.384316
-37.621076
-41.021903
-44.60089
-48.372712
-52.352666
-56.556694
-61.001424
-65.704189
-70.683053
-75.956835
-81.545121
-87.468272
-93.747438
-100.40454
-107.46226
-114.94401
-122.87394
-131.2768
-140.17797
-149.6033
-159.57901
-170.13162
-181.2877
-193.07377
-205.51601
-218.64004
-232.4706
-247.03124
-262.34387
-278.42839
-295.30217
-312.97947
-331.47088
-350.78264
-370.9159
-391.86596
-413.62141
-436.1633
-459.46414
-483.48701
-508.18456
-533.49804
-559.3564
-585.67531
-612.35645
-639.28676
-666.33789
-693.36591
-720.21115
-746.69847
-772.63776
-797.82488
-822.04302
-845.06455
-866.65326
-886.56727
-904.56221
-920.39508
-933.82833
-944.63434
-952.60005
-957.53171
-959.25981
-957.64401
-952.57668
-943.98565
-931.83735
-916.1387
-896.93807
-874.32511
-848.42955
-819.419
-787.49579
-752.893
-715.86988
-676.70667
-635.69927
-593.15372
-549.38084
-504.69105
-459.38971
-413.77282
-368.12344
-322.70869
-277.77743
-233.55855
-190.25994
-148.06795
-107.14739
-67.641998
-29.675237
6.6486032
41.243084
74.038133
104.97845
134.02188
161.13774
186.30519
209.51165
230.75141
250.02424
267.33409
282.68712
296.08995
307.55176
317.09288
324.74268
330.48302
334.15861
335.64387
-1.725734
-3.8322809
-6.0312786
-8.2533348
-10.512742
-12.8193
-15.183244
-17.61501
-20.125291
-22.725068
-25.425652
-28.238719
-31.176346
-34.251055
-37.475843
-40.86422
-44.43025
-48.188582
-52.154482
-56.343872
-60.773356
-65.460247
-70.422596
-75.679208
-81.249667
-87.154334
-93.414366
-100.0517
-107.08905
-114.54987
-122.45834
-130.8393
-139.71821
-149.121
-159.07405
-169.60399
-180.73761
-192.50159
-204.92237
-218.02584
-231.83704
-246.37988
-261.67666
-277.74772
-294.6109
-312.28102
-330.76924
-350.08242
-370.22241
-391.18521
-412.96017
-435.52912
-458.86538
-482.93284
-507.68494
-533.06372
-558.99883
-585.4066
-612.18925
-639.23409
-666.41302
-693.5821
-720.58143
-747.23534
-773.35285
-798.72863
-823.14428
-846.37016
-868.1677
-888.29222
-906.49622
-922.53324
-936.16201
-947.15104
-955.28334
-960.36121
-962.21134
-960.69026
-955.68784
-947.12975
-934.9808
-919.24713
-899.97709
-877.26117
-851.23072
-822.05574
-789.9416
-755.12499
-717.86916
-678.45865
-637.19377
-594.38495
-550.34723
-505.39503
-459.83726
-413.97311
-368.0883
-322.45213
-277.31509
-232.90724
-189.43713
-147.09137
-106.03464
-66.41023
-28.340865
8.070106
42.737352
75.592026
106.58012
135.66082
162.80476
187.99242
211.21247
232.46037
251.73704
269.04743
284.39863
297.79807
309.25567
318.79235
326.43799
332.17488
335.84815
337.33242
-1.7155411
-3.8094574
-5.9953184
-8.2041253
-10.450097
-12.742986
-15.092978
-17.51046
-20.006075
-22.590756
-25.275764
-28.072725
-30.993671
-34.051072
-37.25788
-40.627559
-44.174128
-47.912192
-51.856978
-56.024371
-60.43094
-65.09397
-70.031489
-75.262287
-80.805935
-86.6828
-92.914047
-99.521639
-106.52833
-113.95763
-121.8338
-130.18178
-139.02714
-148.39598
-158.31486
-168.81064
-179.91035
-191.641
-204.02938
-217.10177
-230.8837
-245.39959
-260.67234
-276.72294
-293.56998
-311.22906
-329.71223
-349.02731
-369.17714
-390.15883
-411.96287
-434.57226
-457.96155
-482.09583
-506.92979
-532.40661
-558.45703
-584.99839
-611.93368
-639.15087
-666.52217
-693.90367
-721.13514
-748.0401
-774.42632
-800.08662
-824.80025
-848.33457
-870.44742
-890.88993
-909.40989
-925.75561
-939.68024
-950.94645
-959.3313
-964.63116
-966.66706
-965.29064
-960.38783
-951.88092
-939.73228
-923.94678
-904.57273
-881.70183
-855.46792
-826.04459
-793.64186
-758.50189
-720.89404
-681.1094
-639.45497
-596.24788
-551.80962
-506.4606
-460.51524
-414.27748
-368.03713
-322.06672
-276.61924
-231.92647
-188.19798
-145.62072
-104.35916
-64.555881
-26.332482
10.209134
44.985329
77.929119
108.98847
138.12459
165.31012
190.52753
213.76738
235.02695
254.30881
271.61946
286.96739
300.36128
311.81212
321.34176
328.98084
334.71231
338.3819
339.86462
-1.701953
-3.779074
-5.9474634
-8.1386503
-10.366756
-12.641467
-14.972905
-17.371392
-19.847505
-22.412111
-25.076406
-27.851951
-30.750712
-33.785096
-36.967991
-40.3128
-43.833483
-47.544585
-51.461283
-55.599408
-59.975486
-64.606763
-69.511235
-74.707667
-80.215621
-86.055462
-92.24837
-98.81634
-105.78218
-113.16947
-121.00257
-129.30655
-138.10714
-147.43066
-157.3039
-167.75401
-178.80838
-190.49441
-202.83936
-215.87006
-229.61266
-244.09226
-259.33255
-275.35541
-292.18038
-309.82415
-328.29993
-347.61681
-367.77899
-388.78502
-410.62694
-433.28931
-456.74831
-480.97072
-505.91281
-531.51938
-557.72264
-584.44125
-611.57936
-639.02575
-666.65316
-694.31775
-721.85884
-749.09896
-775.8442
-801.88502
-826.99748
-850.94498
-873.48057
-894.34977
-913.29401
-930.0546
-944.37714
-956.01643
-964.74145
-970.34058
-972.62716
-971.44613
-966.67798
-958.2404
-946.09245
-930.23723
-910.72303
-887.64322
-861.13498
-831.37685
-798.58513
-763.00945
-724.9275
-684.63921
-642.46073
-598.71822
-553.74188
-507.86027
-461.39514
-414.6569
-367.94073
-321.52354
-275.66161
-230.58897
-186.51646
-143.63146
-102.09808
-62.057867
-23.630874
13.082995
48.00242
81.062956
112.21525
141.42322
168.66226
193.91748
217.18201
238.45552
257.74285
275.05256
290.39499
303.78048
315.22148
324.74104
332.37082
338.09463
341.75906
343.23961
-1.685116
-3.7413107
-5.8879067
-8.0571109
-10.262924
-12.514954
-14.823239
-17.198022
-19.649796
-22.189346
-24.827786
-27.576596
-30.447661
-33.453307
-36.606344
-39.920096
-43.408447
-47.085874
-50.967482
-55.06904
-59.407017
-63.998609
-68.861771
-74.01524
-79.478561
-85.272094
-91.417041
-97.935431
-104.85013
-112.18482
-119.96398
-128.21284
-136.95733
-146.22401
-156.03999
-166.43277
-177.43017
-189.0601
-201.35041
-214.32858
-228.02154
-242.45526
-257.6544
-273.64195
-290.43865
-308.06254
-326.52828
-345.84655
-366.02328
-387.05881
-408.94711
-431.67475
-455.21997
-479.55162
-504.62805
-530.39608
-556.7898
-583.7296
-611.12107
-638.85412
-666.80216
-694.8215
-722.751
-750.41197
-777.60848
-804.12803
-829.74276
-854.21111
-877.28012
-898.68827
-918.16898
-935.45467
-950.28139
-962.39391
-971.55097
-977.53072
-980.13668
-979.20508
-974.60938
-966.26132
-954.11567
-938.17327
-918.48232
-895.1383
-868.28269
-838.10033
-804.81563
-768.68777
-730.00508
-689.07888
-646.23695
-601.81702
-556.1604
-509.60599
-462.48488
-415.1156
-367.80017
-320.82095
-274.4383
-228.88903
-184.38553
-141.1156
-99.242811
-58.907346
-20.227199
16.700309
51.79684
85.001206
116.26747
145.56302
172.86672
198.16702
221.46032
242.74931
262.04166
279.34852
294.68257
308.05625
319.48381
328.98983
336.60722
342.32089
345.97848
347.45618
-1.6647628
-3.6958868
-5.8163993
-7.9592996
-10.138438
-12.363326
-14.643906
-16.990319
-19.412963
-21.922522
-24.530013
-27.246816
-30.084719
-33.055952
-36.173227
-39.449777
-42.899394
-46.536467
-50.376019
-54.433741
-58.726033
-63.270028
-68.083632
-73.185543
-78.595282
-84.333209
-90.420539
-96.879344
-103.73256
-111.00398
-118.71821
-126.90067
-135.57755
-144.77568
-154.52253
-164.84604
-175.77453
-187.33651
-199.5605
-212.47482
-226.10728
-240.4849
-255.63352
-271.57741
-288.3388
-305.9373
-324.38937
-343.70756
-363.89988
-384.96888
-406.91082
-429.71472
-453.36133
-477.82201
-503.05769
-529.01761
-555.63825
-582.84209
-610.53657
-638.61301
-666.94574
-695.39135
-723.78821
-751.95629
-779.69728
-806.79522
-833.01756
-858.11682
-881.83278
-903.89543
-924.02846
-941.95348
-957.39487
-970.0851
-979.77034
-986.21618
-989.21401
-988.58921
-984.20642
-975.97003
-963.82944
-947.78264
-927.87766
-904.2126
-876.9342
-846.23511
-812.34972
-775.54903
-736.13455
-694.43158
-650.78229
-605.53863
-559.05553
-511.68455
-463.76817
-415.6348
-367.59472
-319.93685
-272.92642
-226.80347
-181.78216
-138.05068
-95.771821
-55.083959
-16.102495
21.07849
56.384363
89.757952
121.15751
150.55471
177.93259
203.28375
226.60847
247.91314
267.20886
284.5099
299.83177
313.1894
324.59922
334.08765
341.68909
347.38979
351.03866
352.51274
-1.6413969
-3.6434306
-5.7336269
-7.8459448
-9.9940664
-12.187395
-14.435756
-16.749177
-19.137941
-21.612617
-24.184106
-26.863674
-29.662994
-32.594182
-35.669839
-38.903087
-42.307612
-45.897699
-49.688274
-53.694936
-57.934001
-62.422529
-67.178365
-72.22016
-77.567407
-83.240455
-89.260535
-95.649766
-102.43116
-109.62862
-117.26693
-125.37172
-133.96942
-143.08723
-152.75301
-162.9952
-173.84269
-185.3247
-197.47053
-210.30944
-223.87027
-238.18127
-253.26962
-269.16112
-285.87969
-303.44682
-321.881
-341.19706
-361.40538
-382.51111
-404.51326
-427.40369
-451.16612
-475.77494
-501.19409
-527.37577
-554.25928
-581.76968
-609.81665
-638.29329
-667.07513
-696.01921
-724.96348
-753.72643
-782.10711
-809.8856
-836.82397
-862.66781
-887.14843
-909.98581
-930.89212
-949.57617
-965.74841
-979.1266
-989.44185
-996.44464
-999.91175
-999.65526
-995.52915
-987.42884
-975.29715
-959.12858
-938.97091
-914.9253
-887.14489
-855.83171
-821.23224
-783.63174
-743.34761
-700.72208
-656.11458
-609.89415
-562.43204
-514.09495
-465.23888
-416.20398
-367.31023
-318.85423
-271.10682
-224.31175
-178.68505
-134.4152
-91.663883
-50.567186
-11.237276
26.235731
61.781697
95.348297
126.89882
156.41001
183.86995
209.27608
232.63333
253.95244
273.24853
290.53955
305.84432
319.1807
330.56768
340.03379
347.61519
353.29966
356.93767
358.40725
-1.6144017
-3.5832427
-5.6389026
-7.7163916
-9.8291899
-11.986573
-14.198236
-16.474076
-18.824241
-21.259171
-23.789634
-26.426765
-29.182103
-32.067636
-35.095834
-38.279694
-41.632777
-45.169249
-48.903922
-52.852288
-57.030567
-61.45573
-66.145549
-71.118618
-76.394392
-81.993205
-87.936303
-94.245847
-100.94494
-108.05759
-115.60878
-123.62436
-132.13106
-141.15646
-150.72887
-160.87728
-171.63124
-183.02073
-195.07598
-207.82726
-221.30462
-235.53768
-250.55515
-266.38457
-283.05178
-300.58042
-318.99134
-338.3019
-358.52529
-379.66963
-401.73707
-424.72281
-448.614
-473.38856
-499.01395
-525.44589
-552.62697
-580.48538
-608.93348
-637.86658
-667.16175
-696.67671
-726.24911
-755.69594
-784.81338
-813.3771
-841.14309
-867.84907
-893.21666
-916.95424
-938.76068
-958.32981
-975.35579
-989.53913
-1000.5931
-1008.2504
-1012.2704
-1012.4492
-1008.628
-1000.6915
-988.57455
-972.2674
-951.81743
-927.32944
-898.96407
-866.93452
-831.50164
-792.96768
-751.66889
-707.96757
-662.24364
-614.8863
-566.28605
-516.82731
-466.88193
-416.80367
-366.92375
-317.54751
-268.95216
-221.38552
-175.06557
-130.18088
-86.891586
-45.330911
-5.6070596
32.194632
68.009396
101.79065
133.50761
163.14298
190.69073
216.15394
239.54292
260.87347
280.16532
297.44067
312.72214
326.03095
337.38899
346.82726
354.38389
360.04841
363.67311
365.13718
-1.5846223
-3.5163803
-5.5333825
-7.5718712
-9.6451117
-11.762238
-13.932798
-16.166541
-18.473467
-20.863868
-23.348361
-25.937933
-28.643975
-31.478326
-34.453311
-37.581782
-40.87716
-44.353475
-48.025408
-51.908329
-56.018344
-60.372324
-64.987953
-69.883756
-75.079142
-80.594421
-86.450848
-92.670627
-99.276941
-106.29395
-113.74679
-121.66158
-130.0654
-138.98619
-148.45278
-158.49477
-169.14243
-180.4266
-192.37848
-205.02952
-218.41111
-232.55435
-247.48971
-263.24665
-279.85318
-297.33534
-315.71662
-335.0173
-355.25369
-376.43728
-398.57384
-421.66234
-445.69389
-470.65044
-496.50356
-523.21299
-550.72526
-578.97217
-607.86934
-637.31478
-667.18746
-697.34616
-727.62839
-757.84968
-787.80319
-817.2598
-845.96878
-873.65904
-900.04125
-924.81064
-947.65083
-968.23846
-986.24884
-1001.3624
-1013.2718
-1021.6887
-1026.3521
-1027.0392
-1023.5759
-1015.8343
-1003.7397
-987.27724
-966.49364
-941.49791
-912.45951
-879.60475
-843.21141
-803.60167
-761.13401
-716.19427
-669.18634
-620.52299
-570.61709
-519.87366
-468.68278
-417.41383
-366.41078
-315.98884
-266.43227
-217.99324
-170.89167
-125.3159
-81.424004
-39.345613
0.81586466
38.980793
75.09074
109.10585
141.00223
170.76952
198.4084
223.92849
247.34625
268.68319
287.96435
305.21671
320.46718
333.7408
345.06274
354.46672
361.99311
367.63342
371.242
372.69944
-1.5511845
-3.4418405
-5.4160682
-7.4114174
-9.4409012
-11.513495
-13.638581
-15.825746
-18.084824
-20.425941
-22.859549
-25.396467
-28.047921
-30.825585
-33.74162
-36.808715
-40.040135
-43.449753
-47.052106
-50.862423
-54.896679
-59.171631
-63.704859
-68.514808
-73.620825
-79.04319
-84.803157
-90.92297
-97.425895
-104.33622
-111.6793
-119.4815
-127.77024
-136.57391
-145.92187
-155.84438
-166.37249
-177.53795
-189.37308
-201.91058
-215.18329
-229.224
-244.06505
-259.73806
-276.27343
-293.69987
-312.0438
-331.32874
-351.57451
-372.79639
-395.00418
-418.20115
-442.38286
-467.53589
-493.63647
-520.64902
-548.52456
-577.19918
-606.59235
-636.6053
-667.11947
-697.99507
-729.06976
-760.15774
-791.04908
-821.50956
-851.28115
-880.08307
-907.61376
-933.55372
-957.56929
-979.31756
-998.45227
-1014.6308
-1027.5217
-1036.8127
-1042.2187
-1043.4946
-1040.4487
-1032.9376
-1020.8756
-1004.2417
-983.08159
-957.50921
-927.70417
-893.90814
-856.4186
-815.58108
-771.77996
-725.42851
-676.95847
-626.80991
-575.42154
-523.22195
-470.62211
-418.00907
-365.74114
-314.1445
-263.51105
-214.09754
-166.12567
-119.78313
-75.225245
-32.577207
8.0633351
46.62349
83.052236
117.31752
149.40341
179.30744
207.03802
232.61214
256.0532
277.38921
296.65111
313.87127
329.0814
342.31076
353.58818
362.95041
370.44028
376.05149
379.64077
381.09027
-1.5151236
-3.3609209
-5.2883816
-7.2365465
-9.2181656
-11.242041
-13.317376
-15.453574
-17.66029
-19.947465
-22.32537
-24.804637
-27.396312
-30.111882
-32.963329
-35.963161
-39.124465
-42.460946
-45.986972
-49.717615
-53.668705
-57.856861
-62.29955
-67.015117
-72.022837
-77.342946
-82.996686
-89.006335
-95.395237
-102.18782
-109.40963
-117.08731
-125.24864
-133.92248
-143.13875
-152.9284
-163.32333
-174.3563
-186.06077
-198.47081
-211.62087
-225.54551
-240.27917
-255.85579
-272.30839
-289.6686
-307.9661
-327.22796
-347.47788
-368.73536
-391.01471
-414.32397
-438.66373
-464.02577
-490.39164
-517.73105
-546.00026
-575.1403
-605.07516
-635.70997
-666.92924
-698.59508
-730.54575
-762.59433
-794.52782
-826.10672
-857.06516
-887.11182
-915.9317
-943.18888
-968.53038
-991.59119
-1012.0006
-1029.3895
-1043.3991
-1053.689
-1059.9466
-1061.9006
-1059.3381
-1052.0983
-1040.0821
-1023.2609
-1001.6795
-975.457
-944.78499
-909.92283
-871.19098
-828.96206
-783.65056
-735.70149
-685.57881
-633.75399
-580.69534
-526.85839
-472.67771
-418.56023
-364.88022
-311.97586
-260.14726
-209.65582
-160.72475
-113.54046
-68.254712
-24.987253
16.171153
55.155541
91.923501
126.45196
158.73411
188.77645
216.59612
242.21841
265.67453
286.99968
306.23142
323.40806
338.56662
351.74104
362.96415
372.27603
379.72219
385.29875
388.86511
390.30519
-1.475493
-3.2725444
-5.1492607
-7.0462424
-8.9759393
-10.946962
-12.968318
-15.049213
-17.199101
-19.427726
-21.745156
-24.161824
-26.688571
-29.336686
-32.117947
-35.044667
-38.129738
-41.38667
-44.829649
-48.473571
-52.334099
-56.427702
-60.771709
-65.384353
-70.284817
-75.49328
-81.030963
-86.920163
-93.184296
-99.847921
-106.93678
-114.47781
-122.49915
-131.03014
-140.1013
-149.74431
-159.99195
-170.87804
-182.43729
-194.70524
-207.71801
-221.51213
-236.12424
-251.59082
-267.94773
-285.22979
-303.4702
-322.69993
-342.94696
-364.23541
-386.58457
-410.00781
-434.5113
-460.09267
-486.73944
-514.42736
-543.11864
-572.76004
-603.28083
-634.59082
-666.57824
-699.10782
-732.01887
-765.12375
-798.20655
-831.02234
-863.29705
-894.728
-924.98554
-953.71567
-980.54392
-1005.0805
-1026.927
-1045.6845
-1060.9626
-1072.3887
-1079.6185
-1082.3502
-1080.346
-1073.4243
-1061.4706
-1044.4472
-1022.3975
-995.4466
-963.79959
-927.73646
-887.60425
-843.807
-796.79401
-747.04697
-695.0669
-641.36126
-586.43214
-530.76561
-474.8228
-419.03284
-363.78759
-309.43821
-256.29346
-204.61936
-154.64015
-106.5402
-60.46664
-16.532602
25.179336
64.613478
101.73737
136.53822
169.01957
199.19808
227.10068
252.76192
276.2217
297.52319
316.71125
333.83072
348.92444
362.03145
373.18895
382.44064
389.83491
395.37053
398.90988
400.33888
-1.433326
-3.1780126
-5.0001393
-6.8420411
-8.7158561
-10.629991
-12.593238
-14.614591
-16.703287
-18.868853
-21.121138
-23.470357
-25.927131
-28.502527
-31.208107
-34.055963
-37.058774
-40.229839
-43.58314
-47.133376
-50.896023
-54.88738
-59.12462
-63.625842
-68.410124
-73.497567
-78.909354
-84.667789
-90.796348
-97.319715
-104.26383
-111.65589
-119.52444
-127.89929
-136.81158
-146.29376
-156.37952
-167.1038
-178.50262
-190.61306
-203.47304
-217.12117
-231.59646
-246.93809
-263.18499
-280.3754
-298.54635
-317.73304
-337.96809
-359.28071
-381.69565
-405.23214
-429.90256
-455.71103
-482.65178
-510.70737
-539.84678
-570.02335
-601.17251
-633.2096
-666.02744
-699.4941
-733.45065
-767.7092
-802.05127
-836.22655
-869.9524
-902.91414
-934.76629
-965.13507
-993.62226
-1019.8105
-1043.2703
-1063.5688
-1080.2796
-1092.9934
-1101.3293
-1104.9505
-1103.5893
-1097.0397
-1085.1693
-1067.9298
-1045.3623
-1017.5988
-984.85979
-947.44914
-905.7446
-860.18658
-811.26455
-759.50248
-705.44388
-649.63741
-592.6235
-534.9227
-477.02592
-419.38687
-362.41663
-306.48033
-251.89565
-198.93298
-147.81693
-98.728799
-51.809877
-7.1652293
35.132236
75.037611
112.52989
147.60803
180.28724
210.59561
238.57099
264.25823
287.70679
308.96867
328.09666
345.14275
360.15612
373.1813
384.26026
393.44055
400.77369
406.26128
409.76901
411.18507
-1.38778
-3.0763895
-4.8401211
-6.6231147
-8.4371616
-10.290446
-12.191531
-14.149178
-16.172393
-18.270466
-20.453013
-22.73001
-25.111839
-27.609331
-30.233805
-32.99712
-35.911715
-38.990663
-42.247717
-45.69736
-49.354861
-53.236324
-57.358747
-61.740074
-66.399255
-71.356295
-76.63232
-82.249624
-88.231728
-94.603424
-101.39084
-108.62144
-116.32416
-124.52928
-133.26859
-142.57532
-152.4841
-163.03103
-174.25351
-186.19023
-198.881
-212.36661
-226.6886
-241.88904
-258.01009
-275.09368
-293.18095
-312.31167
-332.52349
-353.85112
-376.3253
-399.97167
-424.80948
-450.85002
-478.095
-506.53465
-536.1456
-566.88871
-598.70657
-631.52102
-665.23046
-699.70723
-734.79499
-770.30631
-806.02056
-841.68228
-877.00013
-911.64679
-945.25987
-977.44415
-1007.7753
-1035.8054
-1061.0702
-1083.0985
-1101.4232
-1115.5927
-1125.1842
-1129.8208
-1129.1989
-1123.0838
-1111.3229
-1093.8546
-1070.7171
-1042.0501
-1008.0919
-969.17366
-925.70881
-878.17968
-827.12215
-773.10879
-716.73186
-658.58693
-599.25794
-539.30421
-479.24986
-419.5757
-360.71368
-303.04369
-246.89247
-192.53435
-140.19335
-90.046438
-42.227529
3.1680236
46.078712
86.472139
124.34042
159.69583
192.56675
222.99401
251.0276
276.72374
300.14241
321.34522
340.39362
357.34736
372.26241
385.18928
396.17498
405.27124
412.53284
417.96444
421.43542
422.83645
-1.3397414
-2.9688062
-4.670468
-6.3908301
-8.1413239
-9.9298968
-11.764867
-13.654746
-15.608291
-17.634542
-19.742859
-21.942963
-24.244978
-26.659478
-29.197523
-31.870713
-34.691235
-37.671905
-40.82623
-44.168453
-47.713614
-51.4776
-55.477209
-59.730207
-64.255391
-69.072651
-74.203031
-79.668793
-85.493485
-91.701988
-98.320598
-105.37706
-112.90064
-120.92215
-129.47399
-138.59017
-148.30634
-158.65974
-169.68921
-181.43512
-193.93924
-207.24467
-221.3956
-236.4371
-252.41483
-269.37461
-287.36197
-306.42157
-326.59648
-347.92736
-370.45145
-394.2014
-419.20394
-445.47834
-473.0346
-501.87147
-531.97427
-563.3124
-595.83671
-629.47669
-664.13744
-699.69667
-736.00165
-772.86629
-810.06853
-847.34811
-884.40503
-920.89891
-956.44944
-990.63828
-1023.0127
-1053.0908
-1080.3699
-1104.3355
-1124.4743
-1140.2867
-1151.3013
-1157.095
-1157.3218
-1151.7143
-1140.095
-1122.387
-1098.6244
-1068.9554
-1033.6388
-993.03742
-947.60565
-897.87444
-844.43314
-787.91024
-728.95378
-668.21278
-606.32038
-543.87942
-481.45089
-419.54532
-358.61711
-299.06161
-241.21454
-185.35339
-131.70038
-80.426559
-31.656639
14.525681
58.072278
98.965217
137.2116
172.83875
205.88982
236.41982
264.49216
290.17556
313.54149
334.66199
353.6079
370.44729
385.24345
398.05325
408.92911
417.92712
425.10556
430.47232
433.90081
435.28449
-1.2885749
-2.8545906
-4.4905773
-6.1446768
-7.8279291
-9.5480278
-11.313028
-13.131178
-15.010968
-16.961168
-18.990866
-21.109508
-23.326945
-25.653469
-28.099865
-30.677453
-33.39814
-36.274471
-39.319681
-42.54775
-45.973462
-49.612463
-53.481328
-57.597617
-61.979952
-66.648076
-71.622929
-76.926716
-82.582983
-88.616684
-95.054261
-101.9237
-109.25463
-117.07833
-125.42783
-134.33795
-143.84531
-153.98837
-164.80742
-176.34455
-188.64357
-201.74998
-215.71071
-230.57404
-246.38925
-263.2063
-281.07537
-300.04634
-320.16809
-341.48766
-364.04931
-387.89331
-413.05459
-439.56113
-467.43211
-496.6758
-527.28725
-559.24556
-592.51108
-627.02221
-662.69207
-699.40506
-737.01328
-775.33311
-814.14195
-853.1754
-892.12506
-930.6372
-968.31273
-1004.7086
-1039.3412
-1071.6916
-1101.2139
-1127.3455
-1149.5206
-1167.185
-1179.8116
-1186.9228
-1188.1239
-1183.1087
-1171.6708
-1153.714
-1129.268
-1098.4898
-1061.662
-1019.1837
-971.55699
-919.36887
-863.27046
-803.95452
-742.13298
-678.51565
-613.79124
-548.61132
-483.57766
-419.23319
-356.05632
-294.45833
-234.78353
-177.31152
-122.26109
-69.795415
-20.027841
26.97187
71.171248
112.56902
151.18934
187.0765
220.29015
250.90102
278.98728
304.63133
327.91712
348.92798
367.74484
384.44467
399.09858
411.77017
422.51757
431.4015
438.48384
443.77593
447.1556
448.51936
-1.2349609
-2.7346342
-4.3014688
-5.8857841
-7.4982132
-9.1461817
-10.837466
-12.580033
-14.382089
-16.252117
-18.198915
-20.231638
-22.359839
-24.593514
-26.943147
-29.419759
-32.034958
-34.800989
-37.730793
-40.838062
-44.1373
-47.643885
-51.37414
-55.345394
-59.57606
-64.085709
-68.895146
-74.02649
-79.503259
-85.350445
-91.594612
-98.263968
-105.38846
-112.99985
-121.13177
-129.81982
-139.10161
-149.01682
-159.60721
-170.91664
-182.99102
-195.8783
-209.62828
-224.29255
-239.92421
-256.57753
-274.30763
-293.1699
-313.21941
-334.51005
-357.09362
-381.01862
-406.32888
-433.06193
-461.24705
-490.9031
-522.03596
-554.63576
-588.67368
-624.09848
-660.83282
-698.76929
-737.76631
-777.64413
-818.1808
-859.1087
-900.1115
-940.82217
-980.82213
-1019.6422
-1056.7653
-1091.6321
-1123.6488
-1152.199
-1176.6578
-1196.4083
-1210.8597
-1219.4714
-1221.7909
-1217.4672
-1206.2588
-1188.0474
-1162.8557
-1130.8513
-1092.3436
-1047.7738
-997.69923
-942.77185
-883.71411
-821.29274
-756.29278
-689.49321
-621.64544
-553.45541
-485.56993
-418.56706
-352.95058
-289.14795
-227.51131
-168.32087
-111.79
-58.07157
-7.2649866
40.576565
85.438869
127.33978
166.32282
202.45133
235.8033
266.46686
294.53635
320.10903
343.28238
364.15186
382.80919
399.34083
413.82614
426.33584
436.93406
445.68634
452.65829
457.86488
461.18876
462.52977
-1.178492
-2.6085505
-4.1028527
-5.6139752
-7.1521159
-8.7244159
-10.338356
-12.001607
-13.722073
-15.507932
-17.367675
-19.310145
-21.34458
-23.480658
-25.728543
-28.098933
-30.603112
-33.253006
-36.061235
-39.041175
-42.207025
-45.573867
-49.157739
-52.975709
-57.045955
-61.387837
-66.021996
-70.970429
-76.25659
-81.905479
-87.943748
-94.399788
-101.30385
-108.68812
-116.58683
-125.03634
-134.07525
-143.74444
-154.08714
-165.14902
-176.9781
-189.62486
-203.14205
-217.58469
-233.00981
-249.47625
-267.04427
-285.77508
-305.7303
-326.97112
-349.55739
-373.5465
-398.99192
-425.94155
-454.43579
-484.50515
-516.16767
-549.42583
-584.26316
-620.64045
-658.49159
-697.71911
-738.18955
-779.72866
-822.11671
-865.08407
-908.30736
-951.40651
-993.94303
-1035.4202
-1075.2853
-1112.9346
-1147.722
-1178.9706
-1205.9888
-1228.0887
-1244.6061
-1254.9271
-1258.531
-1255.0148
-1244.095
-1225.6262
-1199.6228
-1166.2637
-1125.889
-1078.9891
-1026.185
-968.20415
-905.85158
-839.97923
-771.45589
-701.13917
-629.85114
-558.3584
-487.35721
-417.46351
-349.20766
-283.03316
-219.29881
-158.28342
-100.19237
-45.165356
6.7152303
55.415836
100.94346
143.33785
182.66444
219.0079
252.46658
283.14772
311.16331
336.62676
359.65009
380.34174
398.8049
415.13608
429.42331
441.74478
452.17089
460.77213
467.618
472.72721
475.98765
477.30283
-1.1196528
-2.4770073
-3.8955268
-5.3301656
-6.7906689
-8.2838789
-9.8169657
-11.397284
-13.032423
-14.730237
-16.498891
-18.346897
-20.283159
-22.317016
-24.45829
-26.717333
-29.105086
-31.633123
-34.313723
-37.159918
-40.185572
-43.405439
-46.835245
-50.491762
-54.392894
-58.557763
-63.006801
-67.761847
-72.846255
-78.284989
-84.104749
-90.334072
-97.003471
-104.14553
-111.79502
-119.98906
-128.76718
-138.17146
-148.24662
-159.04009
-170.60207
-182.98558
-196.24639
-210.44304
-225.63665
-241.89075
-259.27098
-277.84468
-297.68035
-318.84692
-341.41286
-365.44501
-391.00728
-418.15884
-446.9522
-477.43076
-509.626
-543.55431
-579.21323
-616.57739
-655.59385
-696.17714
-738.20394
-781.50757
-825.8724
-871.02844
-916.6465
-962.3341
-1007.6327
-1052.0171
-1094.8964
-1135.6192
-1173.4813
-1207.7388
-1237.6249
-1262.3707
-1281.2277
-1293.4971
-1298.5778
-1296.0048
-1285.4454
-1266.7212
-1239.8357
-1204.9802
-1162.5305
-1113.0335
-1057.1848
-995.79954
-929.77831
-860.0714
-787.64363
-713.44205
-638.36832
-563.2565
-488.85699
-415.82633
-344.72234
-276.00398
-210.03495
-147.09005
-87.363502
-30.978344
22.003636
71.572051
117.75846
160.62764
200.2697
236.79312
270.31877
300.97481
328.89246
354.20251
377.03257
397.50492
415.73488
431.82949
445.88588
457.99002
468.21876
476.64774
483.35035
488.34923
491.5379
492.82388
-1.0582296
-2.33986
-3.6794659
-5.0344596
-6.414109
-7.8249416
-9.2738001
-10.767709
-12.313922
-13.919955
-15.593628
-17.343103
-19.17693
-21.104087
-23.134034
-25.276754
-27.542817
-29.943426
-32.490486
-35.196659
-38.075442
-41.141231
-44.409405
-47.896406
-51.619827
-55.598508
-59.852636
-64.403848
-69.275351
-74.492029
-80.080583
-86.069648
-92.489949
-99.374414
-106.75833
-114.67951
-123.17838
-132.2982
-142.08513
-152.58837
-163.86028
-175.95644
-188.9357
-202.86018
-217.79518
-233.8091
-250.97315
-269.36105
-289.04854
-310.11269
-332.63109
-356.68075
-382.33671
-409.67036
-438.7474
-469.62533
-502.35058
-536.95504
-573.45212
-611.83227
-652.05794
-694.05799
-737.72165
-782.89224
-829.36051
-876.85825
-925.05214
-973.53843
-1021.8389
-1069.3988
-1115.5874
-1159.7014
-1200.9736
-1238.5851
-1271.6848
-1299.4115
-1320.9199
-1335.4122
-1342.1925
-1340.7228
-1330.6111
-1311.6391
-1283.7964
-1247.2879
-1202.5304
-1150.1368
-1090.8896
-1025.7061
-955.59806
-881.62936
-804.87499
-726.3838
-647.14699
-568.07353
-489.97289
-413.54467
-339.37469
-267.93619
-199.59532
-134.61952
-73.187939
-15.402796
38.698923
89.134056
135.96252
179.27756
219.19704
255.85593
289.39989
319.97995
347.74809
372.85383
395.44138
415.64764
433.60072
449.41865
463.20804
475.06285
485.0666
493.30016
499.84085
504.71533
507.82322
509.07636
-0.9945604
-2.1976131
-3.4553108
-4.7276275
-6.0233357
-7.3486334
-8.7100207
-10.114176
-11.568
-13.078652
-14.653589
-16.300606
-18.027877
-19.843999
-21.758046
-23.779612
-25.918868
-28.18662
-30.59437
-33.154383
-35.879756
-38.784493
-41.883592
-45.193122
-48.73033
-52.513729
-56.563216
-60.900179
-65.547627
-70.530313
-75.874885
-81.610018
-87.766593
-94.377829
-101.47946
-109.10994
-117.31056
-126.12567
-135.60284
-145.79303
-156.75071
-168.53405
-181.20496
-194.82919
-209.47633
-225.21974
-242.13639
-260.30661
-279.81368
-300.74325
-323.18253
-347.21929
-372.94053
-400.43077
-429.77002
-461.03123
-494.27726
-529.55728
-566.90258
-606.32168
-647.79487
-691.26795
-736.64554
-783.78377
-832.48263
-882.47828
-933.43556
-984.94111
-1036.4978
-1087.5213
-1137.3387
-1185.1917
-1230.2439
-1271.5938
-1308.2951
-1339.3818
-1363.8974
-1380.9291
-1389.6685
-1389.4906
-1379.9324
-1360.7275
-1331.8475
-1293.5122
-1246.1856
-1190.5577
-1127.5129
-1058.0877
-983.42342
-904.71545
-823.16543
-739.93801
-656.12513
-572.71872
-490.59231
-410.49089
-333.02817
-258.68973
-187.84085
-120.7374
-57.538676
1.6788819
56.907977
108.19732
155.63945
199.35991
239.50767
276.24706
309.75094
340.19519
367.75423