/*--------------------------------*- C++ -*----------------------------------*\
| =========                 |                                                 |
| \\      /  F ield         | foam-extend: Open Source CFD                    |
|  \\    /   O peration     | Version:     4.1                                |
|   \\  /    A nd           | Web:         http://www.foam-extend.org         |
|    \\/     M anipulation  |                                                 |
\*---------------------------------------------------------------------------*/
FoamFile
{
    version     2.0;
    format      ascii;
    class       surfaceScalarField;
    location    "0.4";
    object      phi;
}
// * * * * * * * * * * * * * * * * * * * * * * * * * * * * * * * * * * * * * //

dimensions      [0 3 -1 0 0 0 0];

internalField   nonuniform List<scalar> 
32976
(
-0.24552728
2.3153576e-05
-0.24555052
2.323612e-05
-0.24557393
2.3419347e-05
-0.24559764
2.3707303e-05
-0.24562174
2.4100471e-05
-0.24564634
2.4600703e-05
-0.24567155
2.5209445e-05
-0.24569748
2.5929343e-05
-0.24572424
2.6762609e-05
-0.24575196
2.7712693e-05
-0.24578074
2.878256e-05
-0.24581072
2.9976467e-05
-0.24584201
3.1298124e-05
-0.24587477
3.2752595e-05
-0.24590911
3.4344312e-05
-0.24594519
3.6079138e-05
-0.24598315
3.796219e-05
-0.24602315
4.0000103e-05
-0.24606535
4.2198622e-05
-0.24610992
4.4565099e-05
-0.24615702
4.7105818e-05
-0.24620685
4.9828759e-05
-0.24625959
5.2740611e-05
-0.24631544
5.5849846e-05
-0.2463746
5.9163364e-05
-0.24643729
6.2689924e-05
-0.24650373
6.643637e-05
-0.24657414
7.0411459e-05
-0.24664876
7.4621611e-05
-0.24672784
7.9075185e-05
-0.24681162
8.3777685e-05
-0.24690035
8.8736173e-05
-0.24699431
9.3956062e-05
-0.24709375
9.9440544e-05
-0.24719894
0.00010519429
-0.24731016
0.0001112173
-0.24742767
0.00011751119
-0.24755174
0.00012407193
-0.24768264
0.00013089687
-0.24782062
0.00013797653
-0.24796592
0.00014530249
-0.24811878
0.00015285837
-0.24827941
0.00016062729
-0.24844799
0.0001685856
-0.2486247
0.00017670523
-0.24880965
0.00018495231
-0.24900294
0.00019328662
-0.2492046
0.00020166145
-0.24941462
0.00021002225
-0.24963293
0.0002183069
-0.24985937
0.00022644487
-0.25009373
0.00023435682
-0.25033568
0.00024195426
-0.25058482
0.00024913982
-0.25084063
0.00025580621
-0.25110247
0.00026183734
-0.25136957
0.00026710822
-0.25164106
0.00027148569
-0.25191589
0.00027482922
-0.25219288
0.00027699273
-0.25247071
0.00027782517
-0.25274788
0.00027717366
-0.25302277
0.00027488539
-0.25329358
0.00027081067
-0.25355838
0.00026480624
-0.25381512
0.0002567389
-0.25406161
0.00024649013
-0.25429557
0.00023395931
-0.25451464
0.00021906935
-0.25471641
0.00020177068
-0.25489846
0.00018204572
-0.25505837
0.00015991296
-0.2551938
0.00013543082
-0.2553025
0.0001086997
-0.25538236
7.9864481e-05
-0.25543148
4.9114831e-05
-0.25544816
1.6685314e-05
-0.25543102
-1.7145379e-05
-0.25537896
-5.2063176e-05
-0.25529123
-8.7722129e-05
-0.25516748
-0.00012374948
-0.25500773
-0.00015975376
-0.2548124
-0.00019533372
-0.25458231
-0.0002300878
-0.25431869
-0.00026362371
-0.25402312
-0.00029556792
-0.25369754
-0.00032557446
-0.25334421
-0.00035333271
-0.25296564
-0.000378574
-0.25256456
-0.00040107641
-0.25214389
-0.00042066886
-0.25170666
-0.00043723108
-0.25125597
-0.00045069508
-0.25079492
-0.0004610426
-0.25032662
-0.00046830219
-0.24985408
-0.00047254498
-0.2493802
-0.00047387939
-0.24890775
-0.00047244637
-0.24843934
-0.0004684115
-0.24797738
-0.0004619608
-0.24752408
-0.00045329387
-0.24708147
-0.00044261848
-0.24665132
-0.0004301453
-0.24623524
-0.00041608423
-0.2458346
-0.00040063865
-0.24545059
-0.00038400402
-0.24508423
-0.00036636436
-0.24473634
-0.00034789039
-0.2444076
-0.00032873802
-0.24409855
-0.00030904815
-0.24380961
-0.00028894487
-0.24354107
-0.00026853681
-0.24329315
-0.00024791674
-0.24306599
-0.00022716229
-0.24285965
-0.0002063367
-0.24267416
-0.00018549012
-0.2425095
-0.00016465986
-0.24236563
-0.00014387244
-0.24224249
-0.00012314429
-0.24214
-0.00010248318
-0.24205812
-8.1889524e-05
-0.24199676
-6.1357789e-05
-0.24195588
-4.0876779e-05
-2.0430573e-05
-0.24553733
4.6260248e-05
-0.24556052
4.6425936e-05
-0.24558389
4.6792175e-05
-0.24560755
4.7367632e-05
-0.24563161
4.8153319e-05
-0.24565616
4.9152952e-05
-0.24568132
5.0369431e-05
-0.2457072
5.1808048e-05
-0.24573391
5.3473228e-05
-0.24576157
5.5371868e-05
-0.24579029
5.7509901e-05
-0.24582021
5.9895842e-05
-0.24585145
6.253711e-05
-0.24588414
6.5443838e-05
-0.24591842
6.862489e-05
-0.24595444
7.2091998e-05
-0.24599233
7.5855401e-05
-0.24603226
7.9928374e-05
-0.24607438
8.4322417e-05
-0.24611887
8.9052245e-05
-0.24616589
9.413044e-05
-0.24621564
9.9572979e-05
-0.24626829
0.00010539326
-0.24632405
0.00011160825
-0.24638312
0.00011823177
-0.24644571
0.00012528139
-0.24651204
0.00013277082
-0.24658235
0.00014071762
-0.24665686
0.0001491347
-0.24673583
0.00015803882
-0.24681949
0.00016744107
-0.24690811
0.00017735564
-0.24700195
0.00018779346
-0.24710127
0.00019876101
-0.24720634
0.00021026775
-0.24731744
0.0002223138
-0.24743483
0.00023490253
-0.24755878
0.00024802605
-0.24768957
0.0002616792
-0.24782743
0.00027584325
-0.24797263
0.0002905015
-0.24812539
0.00030562145
-0.24828594
0.00032116956
-0.24845445
0.00033709874
-0.2486311
0.00035335311
-0.24881601
0.00036986517
-0.24900928
0.00038655474
-0.24921095
0.00040332864
-0.249421
0.000420078
-0.24963937
0.0004366788
-0.24986592
0.00045299013
-0.25010042
0.00046885348
-0.25034255
0.00048409196
-0.25059192
0.00049851082
-0.25084801
0.00051189542
-0.25111019
0.00052401342
-0.2513777
0.00053461456
-0.25164964
0.00054343208
-0.251925
0.00055018432
-0.25220258
0.00055457843
-0.25248107
0.00055631137
-0.25275897
0.00055507625
-0.25303465
0.00055056616
-0.25330632
0.00054248023
-0.25357205
0.00053053028
-0.25382976
0.00051444811
-0.25407726
0.00049399473
-0.25431227
0.00046896692
-0.25453241
0.0004392085
-0.25473525
0.00040461839
-0.25491837
0.00036515967
-0.25507932
0.00032086777
-0.25521575
0.00027185834
-0.25532538
0.00021833146
-0.25540609
0.0001605767
-0.25545595
9.897395e-05
-0.25547326
3.3993484e-05
-0.2554566
-3.3806912e-05
-0.25540487
-0.00010379654
-0.25531731
-0.00017528032
-0.25519355
-0.00024750924
-0.25503361
-0.00031969649
-0.2548379
-0.00039103545
-0.25460727
-0.0004607188
-0.25434294
-0.00052795778
-0.25404651
-0.00059200149
-0.25371993
-0.00065215449
-0.25336547
-0.00070779266
-0.25298566
-0.00075837638
-0.25258328
-0.00080346028
-0.25216125
-0.00084270148
-0.25172262
-0.00087585942
-0.25127052
-0.00090279875
-0.25080807
-0.00092348426
-0.2503384
-0.00093797484
-0.24986453
-0.00094641496
-0.24938939
-0.00094902389
-0.24891575
-0.00094608619
-0.24844622
-0.00093793562
-0.24798324
-0.00092494687
-0.24752901
-0.00090752159
-0.24708555
-0.00088607763
-0.24665466
-0.00086103833
-0.24623792
-0.00083282525
-0.24583671
-0.00080184666
-0.24545222
-0.00076849468
-0.24508544
-0.00073313823
-0.24473721
-0.00069611943
-0.2444082
-0.00065775055
-0.24409894
-0.00061831361
-0.24380982
-0.00057805683
-0.24354116
-0.00053719735
-0.24329316
-0.00049592051
-0.24306594
-0.00045438125
-0.24285957
-0.00041270561
-0.24267407
-0.00037099345
-0.24250941
-0.00032931891
-0.24236555
-0.00028773446
-0.24224242
-0.00024627245
-0.24213995
-0.00020494787
-0.24205808
-0.00016376097
-0.24199674
-0.0001227001
-0.24195588
-8.1742441e-05
-4.0855798e-05
-0.24555674
6.9276152e-05
-0.24557984
6.9524551e-05
-0.24560312
7.0073166e-05
-0.24562669
7.0935186e-05
-0.24565064
7.2112111e-05
-0.2456751
7.3609523e-05
-0.24570016
7.5431775e-05
-0.24572594
7.7586803e-05
-0.24575255
8.0081247e-05
-0.2457801
8.2925452e-05
-0.24580872
8.6128321e-05
-0.24583853
8.9702626e-05
-0.24586965
9.3659501e-05
-0.24590222
9.8014148e-05
-0.24593638
0.00010277988
-0.24597226
0.00010797429
-0.24601002
0.00011361276
-0.2460498
0.00011971522
-0.24609178
0.00012629894
-0.24613611
0.00013338601
-0.24618298
0.00014099536
-0.24623256
0.00014915098
-0.24628504
0.00015787303
-0.24634061
0.000167187
-0.2463995
0.00017711373
-0.24646189
0.00018767961
-0.24652803
0.00019890534
-0.24659813
0.00021081737
-0.24667243
0.00022343517
-0.24675117
0.00023678406
-0.24683461
0.00025088084
-0.24692301
0.00026574701
-0.24701661
0.00028139915
-0.2471157
0.00029784727
-0.24722054
0.00031510582
-0.2473314
0.00033317529
-0.24744856
0.00035206111
-0.24757228
0.00037175182
-0.24770284
0.00039224009
-0.2478405
0.00041349828
-0.2479855
0.00043550183
-0.24813808
0.00045820253
-0.24829846
0.00048155063
-0.24846684
0.00050547605
-0.24864338
0.0005298956
-0.24882822
0.00055470863
-0.24902146
0.00057979549
-0.24922315
0.00060501701
-0.24943328
0.00063021045
-0.2496518
0.00065519032
-0.24987855
0.00067974568
-0.25011334
0.00070363913
-0.25035585
0.00072660553
-0.25060569
0.0007483528
-0.25086236
0.0007685588
-0.25112522
0.00078687462
-0.25139353
0.00080292416
-0.2516664
0.00081630621
-0.25194281
0.0008265969
-0.25222159
0.00083335509
-0.2525014
0.00083612393
-0.25278077
0.00083444034
-0.25305804
0.00082784074
-0.25333143
0.00081587013
-0.25359899
0.0007980921
-0.25385865
0.00077409984
-0.25410818
0.00074353007
-0.25434529
0.00070607296
-0.25456757
0.00066148926
-0.25477257
0.00060962246
-0.25495782
0.00055041269
-0.25512087
0.00048390918
-0.25525929
0.0004102823
-0.25537079
0.00032983016
-0.2554532
0.00024298645
-0.25550455
0.00015032187
-0.2555231
5.2544104e-05
-0.2555074
-4.9507273e-05
-0.25545631
-0.0001548798
-0.25536907
-0.00026252304
-0.25524527
-0.00037130463
-0.25508494
-0.00048003456
-0.25488848
-0.00058749245
-0.25465674
-0.00069245663
-0.25439097
-0.00079373353
-0.25409278
-0.00089018698
-0.25376417
-0.00098076513
-0.25340744
-0.0010645245
-0.25302516
-0.0011406501
-0.25262015
-0.0012084702
-0.25219539
-0.0012674687
-0.25175396
-0.0013172847
-0.25129904
-0.0013577172
-0.25083381
-0.0013887167
-0.25036141
-0.0014103762
-0.24988491
-0.0014229179
-0.24940725
-0.0014266772
-0.24893125
-0.0014220874
-0.24845953
-0.0014096559
-0.24799453
-0.0013899515
-0.24753847
-0.0013635826
-0.24709336
-0.0013311819
-0.24666101
-0.0012933895
-0.24624299
-0.0012508419
-0.24584069
-0.0012041554
-0.24545526
-0.001153921
-0.2450877
-0.0011006944
-0.24473883
-0.0010449903
-0.2444093
-0.00098727812
-0.24409964
-0.0009279815
-0.24381022
-0.00086747276
-0.24354134
-0.00080607733
-0.24329319
-0.00074407259
-0.24306588
-0.0006816901
-0.24285947
-0.00061911787
-0.24267396
-0.00055650453
-0.24250932
-0.00049396
-0.24236549
-0.00043156165
-0.2422424
-0.00036935664
-0.24213999
-0.00030736604
-0.24205816
-0.0002455888
-0.24199685
-0.00018400607
-0.24195601
-0.00012258237
-6.1267911e-05
-0.245585
9.2156027e-05
-0.24560796
9.2486737e-05
-0.2456311
9.3216829e-05
-0.24565453
9.4363993e-05
-0.24567835
9.5930226e-05
-0.24570266
9.7922971e-05
-0.24572758
0.00010034804
-0.24575321
0.00010321601
-0.24577966
0.00010653573
-0.24580706
0.00011032101
-0.24583552
0.00011458371
-0.24586515
0.00011934087
-0.2458961
0.00012460733
-0.24592849
0.00013040339
-0.24596246
0.00013674679
-0.24599814
0.00014366102
-0.2460357
0.00015116662
-0.24607527
0.00015929019
-0.24611703
0.0001680548
-0.24616113
0.00017748996
-0.24620776
0.00018762095
-0.24625709
0.00019847986
-0.24630931
0.00021009365
-0.24636462
0.00022249643
-0.24642322
0.0002357161
-0.24648533
0.00024978802
-0.24655116
0.00026473997
-0.24662095
0.00028060743
-0.24669493
0.00029741661
-0.24677335
0.00031520155
-0.24685646
0.00033398497
-0.24694451
0.0003537959
-0.24703776
0.00037465689
-0.2471365
0.00039658173
-0.24724098
0.00041959022
-0.24735149
0.00044368363
-0.2474683
0.00046886982
-0.24759168
0.00049513423
-0.24772191
0.00052246787
-0.24785925
0.00055083476
-0.24800395
0.00058020307
-0.24815625
0.00061050948
-0.24831639
0.00064168871
-0.24848456
0.00067364843
-0.24866095
0.00070627882
-0.24884569
0.00073944685
-0.24903888
0.00077299414
-0.2492406
0.00080673625
-0.24945085
0.00084045729
-0.24966957
0.0008739109
-0.24989664
0.00090681668
-0.25013186
0.00093885875
-0.25037494
0.00096968398
-0.25062549
0.00099890304
-0.25088302
0.0010260861
-0.25114691
0.0010507672
-0.25141643
0.0010724435
-0.2516907
0.0010905781
-0.25196871
0.0011046033
-0.25224928
0.0011139274
-0.25253109
0.0011179371
-0.25281266
0.0011160097
-0.25309234
0.0011075211
-0.25336833
0.0010918577
-0.25363867
0.0010684299
-0.25390126
0.0010366868
-0.25415386
0.0009961351
-0.25439414
0.00094635225
-0.25461966
0.00088700983
-0.25482793
0.00081789
-0.25501642
0.00073890446
-0.25518262
0.00065011144
-0.25532407
0.00055173226
-0.2554384
0.00044416054
-0.25552339
0.00032797318
-0.255577
0.00020393253
-0.25559744
7.2986255e-05
-0.25558321
-6.3739621e-05
-0.25553313
-0.0002049635
-0.25544638
-0.00034927074
-0.25532255
-0.00049513494
-0.25516163
-0.00064095098
-0.25496405
-0.00078507195
-0.25473066
-0.00092584881
-0.25446272
-0.0010616704
-0.25416191
-0.0011910033
-0.25383024
-0.0013124286
-0.25347009
-0.0014246746
-0.2530841
-0.0015266442
-0.25267513
-0.0016174347
-0.25224625
-0.0016963546
-0.25180061
-0.0017629231
-0.25134145
-0.0018168756
-0.25087202
-0.0018581524
-0.25039551
-0.0018868864
-0.24991504
-0.0019033847
-0.24943361
-0.0019081061
-0.24895406
-0.0019016411
-0.24847903
-0.0018846789
-0.24801099
-0.00185799
-0.24755218
-0.0018223978
-0.24710461
-0.0017787561
-0.24667007
-0.0017279281
-0.24625014
-0.0016707708
-0.24584618
-0.0016081126
-0.24545935
-0.001540747
-0.24509063
-0.0014694191
-0.2447408
-0.0013948182
-0.24441051
-0.0013175721
-0.24410024
-0.0012382465
-0.24381038
-0.0011573379
-0.24354118
-0.0010752796
-0.24329281
-0.0009924403
-0.24306537
-0.0009091271
-0.2428589
-0.0008255887
-0.24267338
-0.00074202108
-0.24250878
-0.00065856838
-0.24236501
-0.00057533127
-0.24224199
-0.00049237005
-0.24213965
-0.00040971018
-0.24205789
-0.00032734764
-0.24199664
-0.00024525473
-0.24195584
-0.00016338165
-8.1659179e-05
-0.2456226
0.00011485483
-0.24564538
0.00011526774
-0.24566834
0.0001161782
-0.24569159
0.00011760863
-0.24571522
0.00011956161
-0.24573934
0.00012204645
-0.24576407
0.00012507041
-0.2457895
0.00012864671
-0.24581575
0.00013278644
-0.24584293
0.00013750682
-0.24587117
0.00014282271
-0.24590059
0.00014875539
-0.2459313
0.00015532346
-0.24596345
0.00016255226
-0.24599717
0.00017046403
-0.2460326
0.00017908815
-0.24606988
0.00018845033
-0.24610917
0.00019858386
-0.24615064
0.00020951766
-0.24619444
0.0002212887
-0.24624074
0.00023392868
-0.24628974
0.00024747783
-0.24634162
0.00026197
-0.24639657
0.00027744801
-0.2464548
0.00029394696
-0.24651652
0.00031151127
-0.24658196
0.00033017598
-0.24665134
0.00034998576
-0.2467249
0.0003709738
-0.24680288
0.00039318306
-0.24688553
0.00041664249
-0.24697313
0.00044138897
-0.24706592
0.00046745133
-0.24716419
0.0004948476
-0.2472682
0.00052360334
-0.24737824
0.0005537211
-0.24749458
0.00058521174
-0.2476175
0.00061805822
-0.24774729
0.00065225055
-0.2478842
0.00068774515
-0.2480285
0.00072450368
-0.24818044
0.0007624486
-0.24834025
0.00080149998
-0.24850814
0.00084154415
-0.24868431
0.00088244569
-0.2488689
0.00092404016
-0.24906204
0.00096613144
-0.2492638
0.0010084908
-0.24947419
0.0010508502
-0.24969318
0.0010929033
-0.24992067
0.0011343008
-0.25015646
0.0011746492
-0.25040028
0.0012135075
-0.25065177
0.0012503895
-0.25091044
0.0012847572
-0.2511757
0.0013160271
-0.25144682
0.0013435686
-0.25172295
0.0013667076
-0.25200308
0.00138473
-0.25228604
0.0013968909
-0.25257052
0.0014024166
-0.25285503
0.0014005208
-0.25313792
0.0013904135
-0.25341738
0.0013713165
-0.25369143
0.0013424804
-0.25395795
0.0013032028
-0.25421467
0.0012528524
-0.2544592
0.0011908859
-0.25468907
0.0011168775
-0.25490172
0.0010305398
-0.25509456
0.00093174854
-0.25526502
0.00082056443
-0.25541054
0.00069725445
-0.25552868
0.00056230422
-0.25561714
0.00041643246
-0.2556738
0.00026059419
-0.2556968
9.5980596e-05
-0.25568455
-7.5989328e-05
-0.25563582
-0.00025369504
-0.25554974
-0.00043534569
-0.25542587
-0.00061900647
-0.25526418
-0.00080264093
-0.25506509
-0.00098415836
-0.25482948
-0.0011614646
-0.25455863
-0.0013325134
-0.25425428
-0.001495358
-0.25391851
-0.001648198
-0.25355376
-0.0017894213
-0.25316277
-0.0019176395
-0.25274849
-0.002031713
-0.25231407
-0.0021307721
-0.25186278
-0.0022142163
-0.25139793
-0.0022817207
-0.25092286
-0.0023332214
-0.25044085
-0.002368899
-0.24995508
-0.0023891547
-0.24946861
-0.0023945815
-0.24898431
-0.0023859379
-0.24850488
-0.0023641062
-0.2480328
-0.0023300696
-0.24757032
-0.0022848762
-0.24711947
-0.0022296107
-0.24668203
-0.0021653674
-0.24625957
-0.0020932307
-0.24585344
-0.0020142471
-0.24546477
-0.0019294173
-0.24509451
-0.0018396793
-0.24474342
-0.0017458994
-0.24441213
-0.0016488654
-0.24410109
-0.0015492857
-0.24381065
-0.0014477809
-0.24354104
-0.0013448917
-0.2432924
-0.0012410769
-0.24306481
-0.0011367179
-0.24285828
-0.0010321221
-0.24267277
-0.00092753102
-0.24250821
-0.0008231209
-0.24236453
-0.00071901354
-0.24224162
-0.0006152801
-0.24213938
-0.00051194822
-0.24205772
-0.00040900864
-0.24199655
-0.00030642261
-0.24195581
-0.00020412381
-0.00010202116
-0.24566935
0.00013732992
-0.24569191
0.00013782335
-0.24571464
0.00013891244
-0.24573766
0.00014062375
-0.24576106
0.00014296027
-0.24578494
0.00014593313
-0.24580942
0.00014955108
-0.24583461
0.00015382996
-0.2458606
0.00015878308
-0.24588753
0.00016443111
-0.2459155
0.00017079188
-0.24594463
0.00017789094
-0.24597506
0.00018575061
-0.24600691
0.00019440134
-0.24604031
0.00020386985
-0.24607542
0.00021419141
-0.24611236
0.00022539696
-0.24615131
0.00023752651
-0.2461924
0.00025061487
-0.24623582
0.00026470651
-0.24628173
0.00027983963
-0.24633032
0.00029606266
-0.24638176
0.00031341647
-0.24643627
0.00033195268
-0.24649404
0.00035171372
-0.24655528
0.00037275327
-0.24662022
0.00039511381
-0.24668908
0.00041884941
-0.24676211
0.0004440005
-0.24683954
0.00047061928
-0.24692164
0.00049874125
-0.24700866
0.00052841153
-0.24710088
0.00055966569
-0.24719856
0.00059252647
-0.24730198
0.00062702579
-0.24741143
0.00066316808
-0.24752718
0.00070096789
-0.24764953
0.00074040649
-0.24777875
0.00078147372
-0.24791513
0.00082411929
-0.24805892
0.00086829937
-0.2482104
0.00091392325
-0.2483698
0.00096089747
-0.24853734
0.0010090882
-0.24871323
0.0010583357
-0.24889763
0.0011084453
-0.24909069
0.0011591845
-0.24929248
0.0012102815
-0.24950305
0.0012614173
-0.24972237
0.0013122265
-0.24995036
0.0013622924
-0.25018686
0.001411144
-0.2504316
0.0014582536
-0.25068425
0.0015030377
-0.25094434
0.0015448505
-0.25121131
0.0015829899
-0.25148443
0.0016166963
-0.25176288
0.0016451562
-0.25204566
0.0016675068
-0.25233161
0.0016828462
-0.25261943
0.0016902359
-0.25290763
0.0016887202
-0.25319456
0.0016773369
-0.25347838
0.0016551359
-0.25375709
0.0016211991
-0.25402856
0.0015746637
-0.25429045
0.0015147503
-0.25454035
0.0014407844
-0.25477571
0.0013522321
-0.25499389
0.0012487262
-0.25519224
0.001130097
-0.25536808
0.00099639877
-0.25551876
0.00084793734
-0.25564174
0.00068528564
-0.25573461
0.00050930221
-0.25579515
0.00032113575
-0.2558214
0.00012222542
-0.25581168
-8.5708553e-05
-0.25576468
-0.00030069415
-0.25567947
-0.00052054928
-0.25555557
-0.00074291233
-0.25539291
-0.00096529484
-0.25519193
-0.00118514
-0.25495351
-0.0013998858
-0.254679
-0.0016070287
-0.25437017
-0.0018041873
-0.2540292
-0.0019891613
-0.25365864
-0.0021599831
-0.25326132
-0.0023149609
-0.25284032
-0.0024527107
-0.25239891
-0.0025721813
-0.25194048
-0.002672653
-0.25146845
-0.0027537449
-0.25098628
-0.0028153965
-0.25049733
-0.0028578463
-0.25000488
-0.0028816021
-0.24951206
-0.0028874043
-0.2490218
-0.0028761939
-0.24853685
-0.0028490603
-0.24805971
-0.0028072134
-0.24759264
-0.0027519388
-0.24713769
-0.0026845639
-0.24669663
-0.0026064244
-0.24627102
-0.0025188412
-0.24586218
-0.002423086
-0.24547123
-0.0023203726
-0.24509907
-0.0022118362
-0.24474645
-0.0020985232
-0.24441393
-0.001981383
-0.24410195
-0.0018612674
-0.24381081
-0.0017389215
-0.24354071
-0.0016149921
-0.24329176
-0.001490027
-0.243064
-0.0013644794
-0.2428574
-0.0012387139
-0.24267192
-0.0011130147
-0.24250745
-0.00098758745
-0.24236389
-0.00086257238
-0.24224113
-0.00073804873
-0.24213903
-0.00061404341
-0.2420575
-0.00049053914
-0.24199644
-0.00036748336
-0.24195577
-0.00024479044
-0.00012234444
-0.24572542
0.00015953419
-0.2457477
0.00016010885
-0.24577017
0.00016137507
-0.24579291
0.00016336448
-0.24581603
0.00016608069
-0.24583963
0.00016953672
-0.24586382
0.00017374278
-0.24588871
0.00017871734
-0.2459144
0.00018447593
-0.24594101
0.00019104265
-0.24596866
0.00019843834
-0.24599746
0.00020669279
-0.24602754
0.00021583208
-0.24605903
0.00022589174
-0.24609207
0.000236903
-0.24612678
0.00024890707
-0.24616333
0.00026194012
-0.24620185
0.00027604892
-0.24624251
0.00029127423
-0.24628547
0.00030766807
-0.24633091
0.00032527523
-0.24637899
0.00034415243
-0.24642993
0.00036434767
-0.24648389
0.0003859215
-0.24654111
0.00040892388
-0.24660177
0.0004334179
-0.24666611
0.00045945371
-0.24673436
0.00048709507
-0.24680674
0.00051638994
-0.24688353
0.00054740011
-0.24696495
0.00058016808
-0.24705129
0.0006147476
-0.2471428
0.00065118156
-0.24723978
0.00068949801
-0.24734249
0.00072973585
-0.24745122
0.00077190218
-0.24756627
0.00081601606
-0.24768792
0.00086205798
-0.24781646
0.0009100186
-0.24795219
0.00095984207
-0.24809537
0.0010114802
-0.24824628
0.0010648305
-0.24840517
0.0011197871
-0.24857227
0.0011761978
-0.24874782
0.0012338797
-0.24893198
0.0012926096
-0.24912492
0.0013521202
-0.24932674
0.0014120981
-0.24953749
0.0014721747
-0.24975719
0.0015319274
-0.24998577
0.0015908726
-0.25022309
0.0016484635
-0.25046893
0.0017040859
-0.25072295
0.0017570596
-0.25098473
0.0018066306
-0.25125372
0.0018519775
-0.25152923
0.0018922104
-0.25181045
0.0019263741
-0.25209639
0.0019534537
-0.25238593
0.001972386
-0.25267776
0.0019820626
-0.25297039
0.0019813517
-0.25326217
0.0019691111
-0.25355124
0.0019442094
-0.25383559
0.0019055503
-0.25411303
0.0018520986
-0.25438119
0.0017829149
-0.25463759
0.0016971807
-0.2548796
0.0015942409
-0.2551045
0.0014736357
-0.25530955
0.0013351376
-0.25549193
0.0011787839
-0.2556489
0.0010049105
-0.25577779
0.00081417146
-0.25587605
0.00060756237
-0.25594134
0.00038642663
-0.25597157
0.00015245655
-0.25596496
-9.2316528e-05
-0.2559201
-0.00034555394
-0.25583599
-0.00060466385
-0.25571207
-0.00086683516
-0.25554826
-0.0011291018
-0.25534499
-0.0013884134
-0.25510316
-0.0016417116
-0.25482418
-0.0018860079
-0.25450991
-0.0021184607
-0.25416262
-0.0023364464
-0.25378498
-0.0025376227
-0.25337996
-0.0027199806
-0.25295079
-0.0028818821
-0.25250088
-0.0030220904
-0.25203377
-0.0031397676
-0.25155303
-0.0032344827
-0.25106224
-0.0033061881
-0.25056489
-0.0033551932
-0.25006437
-0.0033821273
-0.24956388
-0.0033878957
-0.24906643
-0.0033736391
-0.24857482
-0.0033406717
-0.24809159
-0.0032904469
-0.24761902
-0.0032245039
-0.24715916
-0.0031444271
-0.24671378
-0.0030518061
-0.24628441
-0.0029482089
-0.24587235
-0.0028351412
-0.24547869
-0.0027140368
-0.24510429
-0.0025862332
-0.24474985
-0.0024529604
-0.24441591
-0.0023153313
-0.24410283
-0.0021743423
-0.24381089
-0.0020308621
-0.24354024
-0.001885643
-0.24329095
-0.0017393194
-0.24306301
-0.0015924147
-0.24285638
-0.0014453472
-0.24267095
-0.0012984408
-0.24250661
-0.0011519277
-0.24236322
-0.0010059629
-0.24224064
-0.00086063035
-0.24213873
-0.00071595282
-0.24205737
-0.00057190159
-0.24199644
-0.00042840699
-0.24195587
-0.00028536072
-0.00014261843
-0.2457903
0.00018142872
-0.24581227
0.00018208145
-0.24583442
0.00018352225
-0.24585684
0.00018578637
-0.24587963
0.00018887777
-0.24590291
0.0001928113
-0.24592676
0.00019759861
-0.24595131
0.0002032608
-0.24597665
0.00020981563
-0.2460029
0.00021729062
-0.24603017
0.00022570961
-0.24605858
0.00023510664
-0.24608826
0.00024551156
-0.24611933
0.00025696499
-0.24615193
0.00026950268
-0.2461862
0.00028317181
-0.24622227
0.00029801382
-0.2462603
0.00031408227
-0.24630045
0.00033142393
-0.24634288
0.00035009844
-0.24638777
0.00037015728
-0.24643528
0.00039166555
-0.24648561
0.00041467852
-0.24653896
0.00043926582
-0.24659552
0.00046548513
-0.24665551
0.00049340915
-0.24671915
0.00052309602
-0.24678667
0.00055461943
-0.24685832
0.00058803526
-0.24693433
0.00062341529
-0.24701498
0.00066080945
-0.24710051
0.00070028073
-0.24719121
0.00074187988
-0.24728735
0.00078564099
-0.24738923
0.00083161068
-0.24749712
0.00087979963
-0.24761134
0.00093023234
-0.24773217
0.0009828896
-0.24785992
0.0010377641
-0.24799487
0.0010947956
-0.24813732
0.0011539331
-0.24828756
0.0012150636
-0.24844584
0.0012780709
-0.24861243
0.0013427854
-0.24878755
0.0014090033
-0.24897142
0.0014764747
-0.24916419
0.0015448991
-0.24936602
0.0016139235
-0.24957698
0.0016831316
-0.24979709
0.0017520448
-0.25002634
0.0018201148
-0.25026459
0.0018867196
-0.25051167
0.0019511598
-0.25076727
0.0020126589
-0.25103099
0.0020703544
-0.25130232
0.0021233053
-0.2515806
0.0021704892
-0.25186503
0.002210807
-0.25215466
0.002243088
-0.25244838
0.0022661029
-0.25274488
0.0022785671
-0.2530427
0.0022791652
-0.25334015
0.0022665656
-0.25363539
0.0022394455
-0.25392636
0.0021965175
-0.25421082
0.0021365613
-0.25448637
0.0020584627
-0.25475043
0.0019612437
-0.2550003
0.0018441124
-0.25523317
0.0017065009
-0.25544614
0.0015481089
-0.2556363
0.0013689437
-0.25580075
0.0011693602
-0.25593666
0.00095008582
-0.25604135
0.00071224941
-0.25611231
0.00045738984
-0.25614731
0.00018745843
-0.25614444
-9.5190811e-05
-0.25610216
-0.00038783447
-0.25601937
-0.00068744889
-0.25589546
-0.00099074627
-0.25573031
-0.0012942519
-0.25552434
-0.0015943884
-0.25527848
-0.0018875671
-0.25499421
-0.0021702806
-0.25467347
-0.0024391955
-0.25431868
-0.0026912373
-0.25393264
-0.0029236661
-0.25351848
-0.0031341381
-0.25307961
-0.0033207506
-0.25261963
-0.0034820763
-0.25214223
-0.0036171612
-0.25165119
-0.003725531
-0.25115021
-0.0038071632
-0.25064295
-0.0038624539
-0.2501329
-0.0038921732
-0.24962339
-0.0038974111
-0.2491175
-0.0038795299
-0.24861808
-0.0038400896
-0.24812772
-0.0037808075
-0.24764873
-0.0037034952
-0.24718314
-0.0036100111
-0.24673274
-0.0035022136
-0.24629902
-0.0033819302
-0.24588325
-0.0032509112
-0.24548646
-0.0031108179
-0.2451095
-0.002963196
-0.244753
-0.0028094629
-0.24441743
-0.0026508975
-0.24410313
-0.0024886413
-0.24381031
-0.0023236861
-0.24353907
-0.0021568879
-0.24328942
-0.0019889659
-0.24306132
-0.0018205102
-0.24285468
-0.0016519897
-0.24266936
-0.0014837646
-0.2425052
-0.0013160892
-0.24236203
-0.0011491296
-0.24223969
-0.00098297029
-0.24213802
-0.00081762594
-0.24205686
-0.00065305241
-0.24199611
-0.00048915897
-0.24195566
-0.00032581084
-0.00016283103
-0.24586444
0.00020296445
-0.24588606
0.00020369676
-0.24590784
0.00020531023
-0.2459299
0.00020784536
-0.24595233
0.00021130685
-0.24597523
0.00021571139
-0.24599871
0.00022107213
-0.24602286
0.00022741275
-0.2460478
0.00023475326
-0.24607363
0.00024312459
-0.24610047
0.00025255359
-0.24612845
0.00026307854
-0.24615767
0.00027473308
-0.24618826
0.00028756291
-0.24622037
0.00030160837
-0.24625412
0.00031692256
-0.24628966
0.00033355227
-0.24632714
0.00035155789
-0.2463667
0.00037099227
-0.24640853
0.00039192273
-0.24645278
0.00041440753
-0.24649963
0.00043852029
-0.24654928
0.00046432369
-0.24660191
0.00049189661
-0.24665773
0.00052130465
-0.24671695
0.00055263039
-0.24677979
0.00058594021
-0.24684649
0.00062131811
-0.24691729
0.00065882828
-0.24699242
0.00069855291
-0.24707216
0.00074054996
-0.24715678
0.00078489221
-0.24724653
0.00083163896
-0.24734172
0.00088083112
-0.24744264
0.00093252395
-0.24754957
0.00098673265
-0.24766283
0.0010434883
-0.24778271
0.0011027731
-0.24790953
0.0011645832
-0.24804359
0.0012288555
-0.24818519
0.0012955376
-0.24833464
0.001364508
-0.24849221
0.0014356415
-0.24865818
0.0015087537
-0.2488328
0.0015836216
-0.24901629
0.0016599706
-0.24920886
0.0017374694
-0.24941067
0.0018157274
-0.24962182
0.0018942828
-0.24984237
0.0019726031
-0.25007234
0.0020500767
-0.25031163
0.0021260086
-0.25056008
0.0021996147
-0.25081745
0.0022700233
-0.25108335
0.0023362635
-0.25135732
0.0023972735
-0.25163873
0.0024518972
-0.25192681
0.0024988887
-0.25222064
0.0025369174
-0.25251912
0.0025645827
-0.25282097
0.0025804166
-0.25312472
0.0025829114
-0.25342869
0.002570536
-0.25373101
0.0025417633
-0.25402959
0.0024951017
-0.25432216
0.0024291294
-0.25460624
0.0023425407
-0.25487917
0.0022341799
-0.25513816
0.0021030998
-0.25538026
0.0019486057
-0.25560246
0.001770307
-0.25580168
0.0015681645
-0.25597486
0.0013425387
-0.256119
0.001094221
-0.25623122
0.0008244679
-0.25630884
0.0005350143
-0.25634946
0.00022807688
-0.25635099
-9.3654736e-05
-0.25631178
-0.00042705128
-0.25623059
-0.00076863135
-0.25610674
-0.0011145979
-0.25594006
-0.0014609308
-0.25573097
-0.001803486
-0.25548043
-0.0021381031
-0.25519
-0.0024607157
-0.25486173
-0.002767461
-0.25449819
-0.0030547803
-0.25410234
-0.0033195088
-0.25367754
-0.0035589476
-0.25322737
-0.0037709163
-0.25275565
-0.0039537926
-0.25226631
-0.0041065082
-0.25176328
-0.004228555
-0.25125049
-0.0043199504
-0.25073175
-0.0043811967
-0.2502107
-0.0044132272
-0.24969077
-0.0044173418
-0.24917515
-0.0043951492
-0.24866676
-0.0043484807
-0.24816822
-0.0042793415
-0.24768188
-0.0041898379
-0.24720977
-0.0040821218
-0.24675365
-0.0039583377
-0.24631499
-0.0038205872
-0.24589502
-0.0036708763
-0.24549474
-0.0035111031
-0.24511491
-0.0033430279
-0.24475611
-0.0031682596
-0.24441876
-0.0029882453
-0.24410313
-0.002804272
-0.24380936
-0.0026174539
-0.2435375
-0.0024287489
-0.24328751
-0.0022389576
-0.24305929
-0.0020487337
-0.24285268
-0.0018585924
-0.24266752
-0.0016689257
-0.24250361
-0.0014800058
-0.24236073
-0.0012920049
-0.2422387
-0.0011050037
-0.24213732
-0.00091900385
-0.24205643
-0.00073394128
-0.24199589
-0.00054969979
-0.24195559
-0.00036611365
-0.0001829685
-0.24594765
0.00022410604
-0.24596887
0.00022491364
-0.24599026
0.00022669642
-0.24601191
0.00022949822
-0.24603393
0.00023332402
-0.24605641
0.0002381923
-0.24607945
0.00024411766
-0.24610317
0.00025112638
-0.24612765
0.00025924071
-0.24615302
0.00026849498
-0.24617939
0.00027891904
-0.24620687
0.00029055542
-0.24623558
0.00030344156
-0.24626564
0.00031762825
-0.24629719
0.00033316042
-0.24633037
0.00035009714
-0.24636531
0.00036849059