/*--------------------------------*- C++ -*----------------------------------*\
| =========                 |                                                 |
| \\      /  F ield         | foam-extend: Open Source CFD                    |
|  \\    /   O peration     | Version:     4.1                                |
|   \\  /    A nd           | Web:         http://www.foam-extend.org         |
|    \\/     M anipulation  |                                                 |
\*---------------------------------------------------------------------------*/
FoamFile
{
    version     2.0;
    format      ascii;
    class       volVectorField;
    location    "0.4";
    object      U;
}
// * * * * * * * * * * * * * * * * * * * * * * * * * * * * * * * * * * * * * //

dimensions      [0 1 -1 0 0 0 0];

internalField   nonuniform List<vector> 
16796
(
(152.21595 -0.0047373182 0)
(152.23432 -0.0047543354 0)
(152.24854 -0.0047922393 0)
(152.26315 -0.0048517753 0)
(152.27795 -0.0049331234 0)
(152.29303 -0.0050365843 0)
(152.30845 -0.0051625412 0)
(152.32429 -0.0053114568 0)
(152.3406 -0.0054838768 0)
(152.35747 -0.0056804247 0)
(152.37497 -0.0059018081 0)
(152.39316 -0.0061488114 0)
(152.41214 -0.0064223028 0)
(152.43197 -0.0067232256 0)
(152.45275 -0.0070526064 0)
(152.47456 -0.0074115434 0)
(152.49749 -0.0078012157 0)
(152.52163 -0.0082228687 0)
(152.54708 -0.0086778241 0)
(152.57395 -0.0091674611 0)
(152.60234 -0.0096932272 0)
(152.63236 -0.010256615 0)
(152.66413 -0.010859172 0)
(152.69776 -0.011502472 0)
(152.73338 -0.012188125 0)
(152.77112 -0.012917743 0)
(152.81111 -0.013692944 0)
(152.8535 -0.014515312 0)
(152.89842 -0.015386403 0)
(152.94603 -0.016307688 0)
(152.99647 -0.017280558 0)
(153.04991 -0.018306259 0)
(153.10651 -0.019385881 0)
(153.16642 -0.020520311 0)
(153.22981 -0.021710162 0)
(153.29686 -0.022955761 0)
(153.36772 -0.024257047 0)
(153.44257 -0.025613547 0)
(153.52157 -0.027024263 0)
(153.60489 -0.028487637 0)
(153.69267 -0.030001418 0)
(153.78506 -0.031562622 0)
(153.88222 -0.03316738 0)
(153.98425 -0.034810882 0)
(154.09127 -0.036487236 0)
(154.20337 -0.03818937 0)
(154.32062 -0.039908912 0)
(154.44306 -0.041636079 0)
(154.5707 -0.043359564 0)
(154.7035 -0.045066429 0)
(154.84142 -0.046742008 0)
(154.98432 -0.048369827 0)
(155.13204 -0.049931539 0)
(155.28437 -0.051406888 0)
(155.441 -0.052773705 0)
(155.6016 -0.054007936 0)
(155.76571 -0.055083727 0)
(155.93284 -0.055973556 0)
(156.10239 -0.056648433 0)
(156.27367 -0.057078166 0)
(156.4459 -0.057231705 0)
(156.61821 -0.057077569 0)
(156.78963 -0.056584361 0)
(156.9591 -0.055721369 0)
(157.12547 -0.054459251 0)
(157.28749 -0.0527708 0)
(157.44385 -0.050631783 0)
(157.59316 -0.04802182 0)
(157.73397 -0.044925307 0)
(157.86481 -0.041332333 0)
(157.98417 -0.037239569 0)
(158.09053 -0.032651086 0)
(158.18243 -0.027579065 0)
(158.25843 -0.022044328 0)
(158.31717 -0.016076668 0)
(158.35741 -0.0097149679 0)
(158.37801 -0.0030071602 0)
(158.37802 0.0039902422 0)
(158.35666 0.011213616 0)
(158.31337 0.018591389 0)
(158.24779 0.026046219 0)
(158.15982 0.033496834 0)
(158.0496 0.040859888 0)
(157.91751 0.048051925 0)
(157.7642 0.054991393 0)
(157.59053 0.061600611 0)
(157.39762 0.067807617 0)
(157.18676 0.073547809 0)
(156.95944 0.078765307 0)
(156.71729 0.083414008 0)
(156.46207 0.087458269 0)
(156.19565 0.090873247 0)
(155.91991 0.093644856 0)
(155.63679 0.095769423 0)
(155.34823 0.09725303 0)
(155.05613 0.098110631 0)
(154.76232 0.098364987 0)
(154.46856 0.098045466 0)
(154.17653 0.097186792 0)
(153.88778 0.09582777 0)
(153.60375 0.094010049 0)
(153.32575 0.091776956 0)
(153.05495 0.089172427 0)
(152.79242 0.086240062 0)
(152.53905 0.0830223 0)
(152.29567 0.079559756 0)
(152.06293 0.075890668 0)
(151.84141 0.072050493 0)
(151.63158 0.068071613 0)
(151.4338 0.063983157 0)
(151.24838 0.059810911 0)
(151.07553 0.055577327 0)
(150.91542 0.051301581 0)
(150.76813 0.046999696 0)
(150.63374 0.042684711 0)
(150.51228 0.038366886 0)
(150.40374 0.034053911 0)
(150.30811 0.02975116 0)
(150.22537 0.025461937 0)
(150.15543 0.021187742 0)
(150.09817 0.016928553 0)
(150.05355 0.012683072 0)
(150.02216 0.0084488627 0)
(150.00495 0.0042224948 0)
(152.2222 -0.01440348 0)
(152.24053 -0.014454822 0)
(152.25473 -0.014568564 0)
(152.26931 -0.014747087 0)
(152.28408 -0.014990942 0)
(152.29913 -0.015301033 0)
(152.31452 -0.015678507 0)
(152.33033 -0.016124751 0)
(152.34661 -0.016641397 0)
(152.36345 -0.017230314 0)
(152.38091 -0.017893621 0)
(152.39907 -0.018633665 0)
(152.41801 -0.01945305 0)
(152.4378 -0.020354601 0)
(152.45854 -0.021341394 0)
(152.48031 -0.022416722 0)
(152.5032 -0.023584119 0)
(152.5273 -0.024847319 0)
(152.55271 -0.026210287 0)
(152.57953 -0.02767716 0)
(152.60787 -0.029252283 0)
(152.63784 -0.030940135 0)
(152.66955 -0.032745365 0)
(152.70313 -0.034672703 0)
(152.73869 -0.03672699 0)
(152.77637 -0.038913072 0)
(152.8163 -0.041235824 0)
(152.85862 -0.043700023 0)
(152.90348 -0.046310359 0)
(152.95102 -0.049071284 0)
(153.00139 -0.05198701 0)
(153.05476 -0.055061324 0)
(153.11128 -0.058297561 0)
(153.17112 -0.06169844 0)
(153.23444 -0.06526589 0)
(153.30141 -0.069000979 0)
(153.3722 -0.072903632 0)
(153.44697 -0.076972554 0)
(153.5259 -0.081204887 0)
(153.60914 -0.085596112 0)
(153.69686 -0.090139651 0)
(153.78919 -0.094826741 0)
(153.88629 -0.099645992 0)
(153.98827 -0.1045832 0)
(154.09525 -0.10962094 0)
(154.20733 -0.11473826 0)
(154.32456 -0.11991033 0)
(154.44699 -0.12510809 0)
(154.57464 -0.13029793 0)
(154.70748 -0.13544134 0)
(154.84544 -0.14049462 0)
(154.98841 -0.14540863 0)
(155.13624 -0.1501286 0)
(155.28869 -0.15459401 0)
(155.44549 -0.15873851 0)
(155.60627 -0.16249009 0)
(155.77062 -0.16577122 0)
(155.93801 -0.16849931 0)
(156.10786 -0.17058722 0)
(156.27949 -0.17194412 0)
(156.45211 -0.17247643 0)
(156.62485 -0.17208917 0)
(156.79675 -0.17068745 0)
(156.96673 -0.16817828 0)
(157.13365 -0.16447263 0)
(157.29626 -0.15948777 0)
(157.45323 -0.1531498 0)
(157.60318 -0.14539631 0)
(157.74466 -0.13617922 0)
(157.87616 -0.12546761 0)
(157.99618 -0.11325042 0)
(158.10321 -0.099539025 0)
(158.19574 -0.084369471 0)
(158.27234 -0.067804137 0)
(158.33164 -0.049932884 0)
(158.37237 -0.030873511 0)
(158.3934 -0.010771724 0)
(158.39375 0.01020011 0)
(158.37265 0.031847263 0)
(158.32951 0.053955017 0)
(158.26398 0.076292453 0)
(158.17595 0.098617061 0)
(158.06555 0.12068024 0)
(157.93318 0.14223311 0)
(157.77948 0.16303255 0)
(157.60532 0.18284696 0)
(157.41183 0.20146181 0)
(157.2003 0.21868442 0)
(156.97225 0.23434811 0)
(156.72931 0.2483152 0)
(156.47326 0.26047913 0)
(156.20597 0.27076542 0)
(155.92936 0.27913159 0)
(155.64538 0.28556607 0)
(155.35596 0.29008635 0)
(155.06301 0.2927363 0)
(154.76839 0.29358305 0)
(154.47388 0.29271345 0)
(154.18113 0.29023033 0)
(153.89172 0.28624877 0)
(153.60708 0.28089238 0)
(153.32853 0.2742899 0)
(153.05724 0.26657196 0)
(152.79427 0.2578683 0)
(152.54053 0.24830533 0)
(152.29681 0.23800408 0)
(152.0638 0.22707865 0)
(151.84205 0.21563489 0)
(151.63203 0.20376957 0)
(151.4341 0.19156984 0)
(151.24856 0.1791129 0)
(151.07562 0.16646608 0)
(150.91544 0.15368695 0)
(150.76811 0.1408237 0)
(150.6337 0.12791565 0)
(150.51222 0.11499379 0)
(150.40368 0.1020815 0)
(150.30805 0.089195228 0)
(150.22532 0.076345237 0)
(150.1554 0.063536424 0)
(150.09814 0.050769148 0)
(150.05353 0.038039981 0)
(150.02215 0.025342159 0)
(150.00495 0.012665964 0)
(152.23419 -0.023838096 0)
(152.25244 -0.023923501 0)
(152.26658 -0.024112635 0)
(152.2811 -0.024409621 0)
(152.29582 -0.024815381 0)
(152.31081 -0.025331429 0)
(152.32614 -0.025959678 0)
(152.34189 -0.026702436 0)
(152.35811 -0.027562426 0)
(152.37488 -0.02854276 0)
(152.39227 -0.029646968 0)
(152.41037 -0.030878965 0)
(152.42923 -0.032243086 0)
(152.44896 -0.03374404 0)
(152.46962 -0.035386955 0)
(152.49131 -0.037177316 0)
(152.51411 -0.039121015 0)
(152.53812 -0.041224276 0)
(152.56344 -0.043493707 0)
(152.59017 -0.045936206 0)
(152.61842 -0.048559014 0)
(152.64828 -0.051369602 0)
(152.67989 -0.054375721 0)
(152.71336 -0.057585259 0)
(152.74881 -0.061006291 0)
(152.78637 -0.064646902 0)
(152.82618 -0.068515226 0)
(152.86837 -0.072619237 0)
(152.9131 -0.076966766 0)
(152.96051 -0.081565248 0)
(153.01074 -0.086421723 0)
(153.06397 -0.091542525 0)
(153.12035 -0.096933237 0)
(153.18004 -0.10259842 0)
(153.24321 -0.10854133 0)
(153.31004 -0.11476378 0)
(153.38068 -0.12126568 0)
(153.45531 -0.12804493 0)
(153.5341 -0.13509682 0)
(153.61721 -0.14241388 0)
(153.7048 -0.1499852 0)
(153.79702 -0.15779625 0)
(153.894 -0.16582812 0)
(153.99589 -0.17405722 0)
(154.1028 -0.18245459 0)
(154.21482 -0.1909854 0)
(154.33202 -0.19960835 0)
(154.45445 -0.2082751 0)
(154.58212 -0.21692971 0)
(154.71503 -0.22550807 0)
(154.8531 -0.23393741 0)
(154.99623 -0.24213591 0)
(155.14425 -0.25001231 0)
(155.29697 -0.25746572 0)
(155.45409 -0.26438558 0)
(155.61526 -0.27065175 0)
(155.78007 -0.27613493 0)
(155.948 -0.28069727 0)
(156.11847 -0.2841933 0)
(156.29079 -0.28647128 0)
(156.46419 -0.28737486 0)
(156.63779 -0.28674519 0)
(156.81064 -0.2844235 0)
(156.98165 -0.28025406 0)
(157.14967 -0.27408768 0)
(157.31346 -0.26578552 0)
(157.47167 -0.25522336 0)
(157.6229 -0.24229608 0)
(157.76569 -0.22692239 0)
(157.89854 -0.20904955 0)
(158.0199 -0.18865799 0)
(158.12824 -0.16576561 0)
(158.22204 -0.14043152 0)
(158.29985 -0.11275895 0)
(158.36026 -0.082897241 0)
(158.40198 -0.051042657 0)
(158.42386 -0.017438357 0)
(158.4249 0.017627582 0)
(158.4043 0.053828765 0)
(158.36146 0.090805039 0)
(158.29602 0.12816833 0)
(158.20785 0.16551098 0)
(158.0971 0.20241503 0)
(157.96415 0.2384621 0)
(157.80965 0.27324346 0)
(157.6345 0.30636999 0)
(157.43983 0.33748135 0)
(157.22696 0.36625424 0)
(156.99743 0.39240923 0)
(156.7529 0.41571595 0)
(156.49519 0.43599653 0)
(156.22618 0.45312725 0)
(155.94782 0.46703826 0)
(155.66209 0.4777118 0)
(155.37096 0.4851789 0)
(155.07635 0.48951494 0)
(154.78013 0.49083421 0)
(154.4841 0.48928397 0)
(154.18994 0.48503816 0)
(153.89922 0.47829099 0)
(153.61339 0.4692508 0)
(153.33376 0.45813421 0)
(153.06151 0.44516078 0)
(152.79769 0.43054834 0)
(152.54321 0.41450886 0)
(152.29887 0.39724511 0)
(152.06533 0.37894801 0)
(151.84314 0.35979451 0)
(151.63276 0.33994622 0)
(151.43455 0.31954848 0)
(151.2488 0.29872995 0)
(151.0757 0.27760263 0)
(150.9154 0.25626218 0)
(150.768 0.23478851 0)
(150.63355 0.21324667 0)
(150.51206 0.19168783 0)
(150.40352 0.17015034 0)
(150.30791 0.14866104 0)
(150.2252 0.12723643 0)
(150.15531 0.10588404 0)
(150.09808 0.084603826 0)
(150.0535 0.063389459 0)
(150.02214 0.042229094 0)
(150.00495 0.021105893 0)
(152.25187 -0.033430362 0)
(152.27001 -0.033550213 0)
(152.28407 -0.033815003 0)
(152.29851 -0.03423055 0)
(152.31313 -0.034798138 0)
(152.32804 -0.035519889 0)
(152.34328 -0.036398484 0)
(152.35893 -0.037437159 0)
(152.37506 -0.038639727 0)
(152.39174 -0.040010549 0)
(152.40903 -0.04155457 0)
(152.42702 -0.043277277 0)
(152.44578 -0.045184744 0)
(152.4654 -0.047283573 0)
(152.48594 -0.049580951 0)
(152.50751 -0.052084569 0)
(152.53019 -0.05480269 0)
(152.55408 -0.057744046 0)
(152.57926 -0.060917907 0)
(152.60585 -0.064333957 0)
(152.63395 -0.068002362 0)
(152.66367 -0.071933617 0)
(152.69512 -0.076138614 0)
(152.72842 -0.080628445 0)
(152.7637 -0.085414469 0)
(152.80108 -0.090508072 0)
(152.84071 -0.095920717 0)
(152.88272 -0.10166365 0)
(152.92725 -0.10774793 0)
(152.97445 -0.11418409 0)
(153.02448 -0.1209821 0)
(153.0775 -0.12815097 0)
(153.13366 -0.13569867 0)
(153.19314 -0.14363178 0)
(153.25609 -0.15195502 0)
(153.3227 -0.16067118 0)
(153.39313 -0.16978036 0)
(153.46754 -0.17927988 0)
(153.54612 -0.18916341 0)
(153.62903 -0.19942081 0)
(153.71642 -0.21003713 0)
(153.80846 -0.22099237 0)
(153.90529 -0.23226042 0)
(154.00704 -0.24380861 0)
(154.11383 -0.25559679 0)
(154.22576 -0.26757658 0)
(154.34291 -0.27969053 0)
(154.46534 -0.29187134 0)
(154.59306 -0.30404102 0)
(154.72606 -0.31611013 0)
(154.86429 -0.32797704 0)
(155.00765 -0.33952737 0)
(155.15599 -0.35063343 0)
(155.30909 -0.36115396 0)
(155.4667 -0.37093401 0)
(155.62846 -0.37980506 0)
(155.79396 -0.38758558 0)
(155.9627 -0.39408185 0)
(156.13409 -0.39908928 0)
(156.30746 -0.40239421 0)
(156.48204 -0.40377628 0)
(156.65695 -0.40301136 0)
(156.83122 -0.39987514 0)
(157.00379 -0.39414731 0)
(157.17348 -0.38561644 0)
(157.33904 -0.37408542 0)
(157.49912 -0.35937744 0)
(157.6523 -0.34134236 0)
(157.79708 -0.31986341 0)
(157.93195 -0.29486389 0)
(158.05533 -0.26631379 0)
(158.16567 -0.2342359 0)
(158.2614 -0.19871122 0)
(158.34103 -0.15988312 0)
(158.40312 -0.11796028 0)
(158.44636 -0.073217847 0)
(158.46953 -0.0259973 0)
(158.47162 0.023296347 0)
(158.45179 0.074202458 0)
(158.40942 0.12621235 0)
(158.34412 0.17877795 0)
(158.25577 0.23132315 0)
(158.14448 0.283257 0)
(158.01067 0.33398773 0)
(157.85498 0.38293719 0)
(157.67834 0.42955494 0)
(157.48189 0.47333142 0)
(157.26701 0.51380967 0)
(157.03525 0.55059506 0)
(156.78834 0.58336268 0)
(156.52811 0.6118622 0)
(156.25651 0.6359201 0)
(155.97552 0.65543931 0)
(155.68716 0.67039655 0)
(155.39344 0.68083761 0)
(155.09632 0.68687087 0)
(154.7977 0.68865966 0)
(154.4994 0.6864137 0)
(154.20311 0.68038007 0)
(153.91042 0.67083426 0)
(153.62279 0.65807131 0)
(153.34154 0.64239764 0)
(153.06785 0.62412343 0)
(152.80277 0.60355609 0)
(152.54719 0.58099442 0)
(152.3019 0.55672401 0)
(152.06757 0.53101342 0)
(151.84472 0.50411136 0)
(151.63381 0.47624473 0)
(151.43519 0.44761739 0)
(151.24911 0.41840956 0)
(151.07577 0.38877799 0)
(150.91531 0.35885635 0)
(150.76781 0.32875617 0)
(150.6333 0.29856802 0)
(150.51179 0.26836299 0)
(150.40326 0.23819419 0)
(150.30768 0.20809853 0)
(150.22502 0.17809846 0)
(150.15517 0.14820384 0)
(150.09799 0.11841391 0)
(150.05344 0.08871911 0)
(150.02212 0.059102203 0)
(150.00494 0.029538794 0)
(152.27527 -0.042752655 0)
(152.29327 -0.042906005 0)
(152.30722 -0.043245126 0)
(152.32154 -0.043777613 0)
(152.33605 -0.044505127 0)
(152.35084 -0.0454304 0)
(152.36596 -0.046556878 0)
(152.38149 -0.047888716 0)
(152.3975 -0.049430816 0)
(152.41404 -0.05118878 0)
(152.43121 -0.053168964 0)
(152.44906 -0.05537842 0)
(152.46768 -0.057824955 0)
(152.48715 -0.060517059 0)
(152.50754 -0.063463971 0)
(152.52896 -0.066675587 0)
(152.55147 -0.070162535 0)
(152.57519 -0.073936053 0)
(152.60019 -0.078008072 0)
(152.6266 -0.082391062 0)
(152.6545 -0.08709812 0)
(152.68402 -0.092142768 0)
(152.71526 -0.097539049 0)
(152.74834 -0.10330127 0)
(152.7834 -0.1094441 0)
(152.82055 -0.11598224 0)
(152.85993 -0.12293052 0)
(152.90169 -0.13030349 0)
(152.94596 -0.13811548 0)
(152.9929 -0.14638017 0)
(153.04265 -0.15511054 0)
(153.09539 -0.16431834 0)
(153.15127 -0.17401404 0)
(153.21045 -0.18420631 0)
(153.27312 -0.1949015 0)
(153.33943 -0.20610347 0)
(153.40956 -0.21781269 0)
(153.48369 -0.23002606 0)
(153.56199 -0.24273588 0)
(153.64462 -0.2559295 0)
(153.73176 -0.26958822 0)
(153.82356 -0.2836868 0)
(153.92017 -0.29819223 0)
(154.02173 -0.31306309 0)
(154.12837 -0.32824834 0)
(154.24019 -0.34368641 0)
(154.35728 -0.35930406 0)
(154.47969 -0.37501536 0)
(154.60746 -0.39072066 0)
(154.74059 -0.40630548 0)
(154.87903 -0.42163967 0)
(155.02269 -0.43657655 0)
(155.17144 -0.45095223 0)
(155.32506 -0.46458519 0)
(155.48331 -0.47727611 0)
(155.64584 -0.48880801 0)
(155.81226 -0.49894687 0)
(155.98207 -0.50744268 0)
(156.1547 -0.51403108 0)
(156.32947 -0.51843564 0)
(156.50562 -0.52037088 0)
(156.68227 -0.51954598 0)
(156.85845 -0.51566941 0)
(157.03309 -0.50845432 0)
(157.20502 -0.49762482 0)
(157.37295 -0.48292307 0)
(157.53553 -0.46411696 0)
(157.6913 -0.44100851 0)
(157.83876 -0.4134426 0)
(157.97635 -0.38131576 0)
(158.10245 -0.34458491 0)
(158.21546 -0.30327542 0)
(158.31379 -0.25748835 0)
(158.39588 -0.20740607 0)
(158.46024 -0.15329623 0)
(158.50551 -0.095513477 0)
(158.53043 -0.034499214 0)
(158.53393 0.029221841 0)
(158.51515 0.095051619 0)
(158.47341 0.1623291 0)
(158.40831 0.23034072 0)
(158.3197 0.29833588 0)
(158.2077 0.36554426 0)
(158.07273 0.43119428 0)
(157.91544 0.49453211 0)
(157.73679 0.55484025 0)
(157.53796 0.61145489 0)
(157.32037 0.66378136 0)
(157.08562 0.7113068 0)
(156.83549 0.75360996 0)
(156.57189 0.79036737 0)
(156.29681 0.8213563 0)
(156.01229 0.84645401 0)
(155.72041 0.86563421 0)
(155.42323 0.87896066 0)
(155.12275 0.88657857 0)
(154.82092 0.88870443 0)
(154.51957 0.88561468 0)
(154.22044 0.87763393 0)
(153.92514 0.86512303 0)
(153.63512 0.84846764 0)
(153.35172 0.82806744 0)
(153.07611 0.80432636 0)
(152.80934 0.77764397 0)
(152.55231 0.7484081 0)
(152.30578 0.7169888 0)
(152.0704 0.68373354 0)
(151.8467 0.64896362 0)
(151.63509 0.61297166 0)
(151.43592 0.57602019 0)
(151.24943 0.5383409 0)
(151.07579 0.50013489 0)
(150.91513 0.46157331 0)
(150.7675 0.4227986 0)
(150.63292 0.3839261 0)
(150.5114 0.34504592 0)
(150.40289 0.30622499 0)
(150.30736 0.26750937 0)
(150.22475 0.22892648 0)
(150.15497 0.19048754 0)
(150.09786 0.15219011 0)
(150.05337 0.11402052 0)
(150.02208 0.075955239 0)
(150.00494 0.037961356 0)
(152.30436 -0.052193201 0)
(152.32218 -0.052380751 0)
(152.33599 -0.052794787 0)
(152.35017 -0.053444556 0)
(152.36454 -0.054332077 0)
(152.37918 -0.055460691 0)
(152.39416 -0.056834614 0)
(152.40954 -0.058458927 0)
(152.42539 -0.060339622 0)
(152.44178 -0.062483552 0)
(152.45877 -0.064898491 0)
(152.47646 -0.067593065 0)
(152.4949 -0.070576826 0)
(152.51418 -0.073860163 0)
(152.53439 -0.077454385 0)
(152.55561 -0.081371606 0)
(152.57792 -0.085624843 0)
(152.60142 -0.090227863 0)
(152.62621 -0.09519529 0)
(152.65238 -0.10054241 0)
(152.68004 -0.10628529 0)
(152.70931 -0.11244053 0)
(152.74028 -0.11902537 0)
(152.7731 -0.12605741 0)
(152.80787 -0.13355467 0)
(152.84473 -0.14153527 0)
(152.88381 -0.15001748 0)
(152.92525 -0.15901928 0)
(152.96919 -0.16855839 0)
(153.0158 -0.17865175 0)
(153.06521 -0.18931551 0)
(153.1176 -0.20056434 0)
(153.17312 -0.21241137 0)
(153.23194 -0.2248676 0)
(153.29424 -0.23794122 0)
(153.36019 -0.25163742 0)
(153.42996 -0.26595733 0)
(153.50372 -0.28089774 0)
(153.58167 -0.29644985 0)
(153.66396 -0.31259893 0)
(153.75078 -0.32932284 0)
(153.84227 -0.34659155 0)
(153.93861 -0.36436556 0)
(154.03993 -0.3825951 0)
(154.14637 -0.40121872 0)
(154.25804 -0.42016208 0)
(154.37504 -0.4393366 0)
(154.49744 -0.45863817 0)
(154.62528 -0.47794584 0)
(154.75856 -0.49712048 0)
(154.89726 -0.5160037 0)
(155.04129 -0.53441672 0)
(155.19053 -0.55215954 0)
(155.3448 -0.56901037 0)
(155.50384 -0.58472532 0)
(155.66735 -0.59903857 0)
(155.83491 -0.611663 0)
(156.00606 -0.62229145 0)
(156.18023 -0.63059862 0)
(156.35674 -0.63624388 0)
(156.53485 -0.63887477 0)
(156.71368 -0.63813166 0)
(156.89226 -0.63365325 0)
(157.06951 -0.62508328 0)
(157.24424 -0.6120782 0)
(157.41516 -0.59431585 0)
(157.58088 -0.57150514 0)
(157.73994 -0.54339631 0)
(157.89077 -0.50979194 0)
(158.03179 -0.47055794 0)
(158.16133 -0.42563451 0)
(158.27773 -0.3750464 0)
(158.37934 -0.31891212 0)
(158.46454 -0.2574512 0)
(158.53179 -0.1909894 0)
(158.57964 -0.11996105 0)
(158.60679 -0.04490892 0)
(158.61209 0.033519754 0)
(158.59464 0.11458435 0)
(158.55371 0.19746514 0)
(158.48888 0.2812764 0)
(158.39996 0.36508545 0)
(158.28707 0.44793441 0)
(158.15063 0.52886349 0)
(157.99133 0.60693489 0)
(157.81014 0.68125624 0)
(157.60829 0.7510025 0)
(157.38727 0.81543537 0)
(157.14874 0.87391929 0)
(156.89455 0.92593353 0)
(156.62668 0.97108 0)
(156.34719 1.0090866 0)
(156.05822 1.0398063 0)
(155.7619 1.0632123 0)
(155.46035 1.0793897 0)
(155.15564 1.088525 0)
(154.84976 1.0908925 0)
(154.5446 1.0868406 0)
(154.2419 1.0767763 0)
(153.94331 1.061151 0)
(153.6503 1.0404456 0)
(153.36421 1.0151574 0)
(153.08622 0.98578783 0)
(152.81735 0.95283206 0)
(152.55851 0.91676964 0)
(152.31044 0.87805732 0)
(152.07377 0.83712318 0)
(151.849 0.79436231 0)
(151.63655 0.75013389 0)
(151.43671 0.70475951 0)
(151.24971 0.65852241 0)
(151.07571 0.61166788 0)
(150.91481 0.56440413 0)
(150.76703 0.51690396 0)
(150.63239 0.46930673 0)
(150.51086 0.42172079 0)
(150.40239 0.37422601 0)
(150.30693 0.32687666 0)
(150.2244 0.27970416 0)
(150.15471 0.23272012 0)
(150.09769 0.18591944 0)
(150.05327 0.13928334 0)
(150.02204 0.092780998 0)
(150.00493 0.046369896 0)
(152.33915 -0.06133498 0)
(152.35676 -0.061555328 0)
(152.37041 -0.062042298 0)
(152.38442 -0.062806903 0)
(152.39862 -0.06385154 0)
(152.41309 -0.065180157 0)
(152.42789 -0.066797734 0)
(152.44308 -0.068710272 0)
(152.45874 -0.07092485 0)
(152.47494 -0.073449565 0)
(152.49174 -0.076293601 0)
(152.50922 -0.079467155 0)
(152.52746 -0.082981518 0)
(152.54652 -0.086848974 0)
(152.5665 -0.091082902 0)
(152.58748 -0.095697635 0)
(152.60955 -0.10070858 0)
(152.63279 -0.10613204 0)
(152.65731 -0.11198534 0)
(152.68321 -0.11828659 0)
(152.71058 -0.12505486 0)
(152.73955 -0.13230985 0)
(152.77021 -0.14007202 0)
(152.8027 -0.1483623 0)
(152.83713 -0.15720214 0)
(152.87364 -0.16661311 0)
(152.91235 -0.17661703 0)
(152.95342 -0.18723535 0)
(152.99698 -0.19848932 0)
(153.04318 -0.21039927 0)
(153.09218 -0.22298465 0)
(153.14415 -0.23626322 0)
(153.19924 -0.25025097 0)
(153.25762 -0.26496143 0)
(153.31948 -0.28040489 0)
(153.38498 -0.29658816 0)
(153.45431 -0.31351332 0)
(153.52764 -0.3311774 0)
(153.60516 -0.34957092 0)
(153.68704 -0.36867745 0)
(153.77346 -0.38847189 0)
(153.86459 -0.40891993 0)
(153.96059 -0.42997605 0)
(154.06162 -0.45158276 0)
(154.16781 -0.47366877 0)
(154.2793 -0.49614756 0)
(154.39618 -0.51891585 0)
(154.51855 -0.54185194 0)
(154.64645 -0.56481418 0)
(154.7799 -0.58763938 0)
(154.9189 -0.61014138 0)
(155.06336 -0.63210975 0)
(155.21319 -0.6533087 0)
(155.36822 -0.6734763 0)
(155.52821 -0.69232412 0)
(155.69286 -0.7095372 0)
(155.86179 -0.72477486 0)
(156.03453 -0.73767195 0)
(156.21054 -0.74784111 0)
(156.38915 -0.7548759 0)
(156.56961 -0.75835496 0)
(156.75106 -0.75784737 0)
(156.93252 -0.75291923 0)
(157.1129 -0.74314147 0)
(157.29101 -0.72809908 0)
(157.46553 -0.70740145 0)
(157.63506 -0.68069395 0)
(157.79809 -0.64767035 0)
(157.95302 -0.60808613 0)
(158.09819 -0.56177188 0)
(158.23191 -0.50864669 0)
(158.35244 -0.44873083 0)
(158.45805 -0.38215715 0)
(158.54705 -0.30918024 0)
(158.61782 -0.23018311 0)
(158.66883 -0.14568034 0)
(158.6987 -0.056318116 0)
(158.70622 0.037130005 0)
(158.69041 0.13377579 0)
(158.65049 0.23263471 0)
(158.58599 0.33264045 0)
(158.4967 0.43266881 0)
(158.38275 0.53156423 0)
(158.24453 0.62816828 0)
(158.08277 0.72134899 0)
(157.8985 0.81002963 0)
(157.69299 0.89321551 0)
(157.46779 0.97001773 0)
(157.22466 1.0396728 0)
(156.96552 1.1015571 0)
(156.69246 1.1551965 0)
(156.40763 1.20027 0)
(156.11325 1.2366083 0)
(155.81153 1.2641878 0)
(155.5047 1.28312 0)
(155.19487 1.293638 0)
(154.88409 1.2960805 0)
(154.57431 1.2908742 0)
(154.26732 1.2785153 0)
(153.96478 1.2595519 0)
(153.66818 1.2345662 0)
(153.37886 1.2041584 0)
(153.098 1.1689323 0)
(152.82664 1.1294824 0)
(152.56564 1.0863834 0)
(152.31574 1.0401813 0)
(152.07754 0.99138664 0)
(151.85152 0.94046964 0)
(151.63807 0.88785674 0)
(151.43746 0.83392885 0)
(151.24988 0.77902061 0)
(151.07547 0.72342103 0)
(150.91429 0.66737465 0)
(150.76636 0.61108366 0)
(150.63166 0.55471036 0)
(150.51014 0.49838014 0)
(150.40173 0.44218453 0)
(150.30636 0.38618471 0)
(150.22395 0.33041478 0)
(150.15438 0.2748854 0)
(150.09746 0.21958753 0)
(150.05315 0.164496 0)
(150.02199 0.10957141 0)
(150.00491 0.054760286 0)
(152.37962 -0.07054458 0)
(152.39698 -0.07079843 0)
(152.41044 -0.071358807 0)
(152.42425 -0.072238348 0)
(152.43825 -0.073439805 0)
(152.45252 -0.074967734 0)
(152.46711 -0.076827879 0)
(152.4821 -0.079027166 0)
(152.49754 -0.081573764 0)
(152.51352 -0.084477014 0)
(152.53009 -0.087747521 0)
(152.54733 -0.091397054 0)
(152.56532 -0.095438655 0)
(152.58413 -0.099886512 0)
(152.60385 -0.10475608 0)
(152.62456 -0.11006394 0)
(152.64634 -0.1158279 0)
(152.66929 -0.12206681 0)
(152.6935 -0.12880073 0)
(152.71907 -0.13605066 0)
(152.74611 -0.14383866 0)
(152.77472 -0.1521876 0)
(152.80502 -0.16112123 0)
(152.83713 -0.17066385 0)
(152.87117 -0.18084044 0)
(152.90726 -0.19167611 0)
(152.94555 -0.2031963 0)
(152.98618 -0.21542611 0)
(153.02928 -0.22839042 0)
(153.07502 -0.24211311 0)
(153.12354 -0.25661711 0)
(153.17501 -0.27192349 0)
(153.2296 -0.28805133 0)
(153.28747 -0.30501696 0)
(153.34881 -0.32283306 0)
(153.4138 -0.34150838 0)
(153.48261 -0.36104631 0)
(153.55543 -0.38144455 0)
(153.63244 -0.40269334 0)
(153.71383 -0.42477506 0)
(153.79978 -0.44766218 0)
(153.89047 -0.47131659 0)
(153.98608 -0.49568744 0)
(154.08675 -0.52071008 0)
(154.19265 -0.54630402 0)
(154.30391 -0.57237127 0)
(154.42065 -0.59879448 0)
(154.54297 -0.62543505 0)
(154.67093 -0.65213128 0)
(154.80457 -0.67869648 0)
(154.94389 -0.70491725 0)
(155.08885 -0.73055195 0)
(155.23935 -0.75532926 0)
(155.39525 -0.77894726 0)
(155.55632 -0.80107283 0)
(155.7223 -0.82134158 0)
(155.8928 -0.83935851 0)
(156.0674 -0.85469949 0)
(156.24554 -0.86691362 0)
(156.42659 -0.87552672 0)
(156.60979 -0.8800461 0)
(156.7943 -0.8799666 0)
(156.97913 -0.87477811 0)
(157.16319 -0.86397471 0)
(157.34527 -0.84706524 0)
(157.52403 -0.82358549 0)
(157.69804 -0.79311173 0)
(157.86575 -0.75527541 0)
(158.02551 -0.70977891 0)
(158.1756 -0.65641159 0)
(158.31427 -0.59506585 0)
(158.43969 -0.52575246 0)
(158.55005 -0.44861452 0)
(158.64357 -0.36393877 0)
(158.71854 -0.27216412 0)
(158.77332 -0.17388575 0)
(158.80645 -0.069855581 0)
(158.81662 0.039022006 0)
(158.80277 0.15170385 0)
(158.76408 0.2670315 0)
(158.7 0.38374775 0)
(158.6103 0.50052518 0)
(158.49508 0.61599792 0)
(158.35477 0.72879598 0)
(158.19011 0.83758054 0)
(158.00216 0.9410786 0)
(157.7923 1.0381153 0)
(157.56215 1.1276424 0)
(157.31355 1.2087619 0)
(157.04855 1.2807431 0)
(156.76933 1.343034 0)
(156.47816 1.3952651 0)
(156.17737 1.4372476 0)
(155.86928 1.4689654 0)
(155.5562 1.4905621 0)
(155.24033 1.5023248 0)
(154.9238 1.504664 0)
(154.60859 1.4980928 0)
(154.29655 1.4832047 0)
(153.98938 1.4606521 0)
(153.68857 1.4311258 0)
(153.39549 1.3953354 0)
(153.11131 1.3539926 0)
(152.83704 1.3077963 0)
(152.57355 1.2574201 0)
(152.32154 1.2035024 0)
(152.08158 1.1466387 0)
(151.85414 1.0873757 0)
(151.63955 1.0262081 0)
(151.43807 0.96357657 0)
(151.24985 0.89986693 0)
(151.07499 0.83541143 0)
(150.91352 0.77049014 0)
(150.76543 0.70533357 0)
(150.63069 0.64012573 0)
(150.5092 0.57500767 0)
(150.40088 0.51008114 0)
(150.30564 0.44541271 0)
(150.22338 0.38103766 0)
(150.15396 0.31696415 0)
(150.09719 0.25317768 0)
(150.05299 0.18964521 0)
(150.02192 0.12631728 0)
(150.0049 0.063127841 0)
(152.42576 -0.079439953 0)
(152.44284 -0.079725872 0)
(152.45607 -0.080357549 0)
(152.46966 -0.081349333 0)
(152.48344 -0.082704351 0)
(152.49747 -0.084427764 0)
(152.51183 -0.086526078 0)
(152.52658 -0.089007138 0)
(152.54178 -0.091880197 0)
(152.5575 -0.095155843 0)
(152.57381 -0.098846094 0)
(152.59079 -0.10296429 0)
(152.6085 -0.10752523 0)
(152.62702 -0.112545 0)
(152.64644 -0.11804115 0)
(152.66683 -0.12403249 0)
(152.68829 -0.13053925 0)
(152.7109 -0.13758287 0)
(152.73476 -0.14518616 0)
(152.75996 -0.15337299 0)
(152.78662 -0.1621685 0)
(152.81483 -0.17159875 0)
(152.84471 -0.18169084 0)
(152.87639 -0.19247254 0)
(152.90997 -0.20397238 0)
(152.9456 -0.21621915 0)
(152.9834 -0.22924202 0)
(153.02353 -0.24306986 0)
(153.06611 -0.25773134 0)
(153.11131 -0.27325409 0)
(153.15928 -0.28966474 0)
(153.21018 -0.30698787 0)
(153.26419 -0.32524595 0)
(153.32148 -0.34445841 0)
(153.38223 -0.36464067 0)
(153.44661 -0.38580382 0)
(153.51482 -0.40795301 0)
(153.58705 -0.43108705 0)
(153.66348 -0.45519648 0)
(153.74431 -0.48026304 0)
(153.82972 -0.50625738 0)
(153.9199 -0.53313834 0)
(154.01503 -0.56085041 0)
(154.11529 -0.58932257 0)
(154.22084 -0.61846593 0)
(154.33182 -0.64817186 0)
(154.44838 -0.67830979 0)
(154.57062 -0.70872506 0)
(154.69863 -0.73923674 0)
(154.83246 -0.76963541 0)
(154.97214 -0.79968117 0)
(155.11764 -0.82910171 0)
(155.26888 -0.85759067 0)
(155.42575 -0.88480637 0)
(155.58804 -0.91037101 0)
(155.7555 -0.93387044 0)
(155.9278 -0.95485474 0)
(156.10449 -0.97283968 0)
(156.28506 -0.98730926 0)
(156.46888 -0.99771948 0)
(156.65522 -1.0035036 0)
(156.84322 -1.0040788 0)
(157.03191 -0.99885493 0)
(157.22019 -0.98724436 0)
(157.40684 -0.96867451 0)
(157.59049 -0.94260159 0)
(157.76966 -0.90852629 0)
(157.94278 -0.86601093 0)
(158.10814 -0.81469775 0)
(158.26395 -0.75432789 0)
(158.40836 -0.6847604 0)
(158.53947 -0.60599058 0)
(158.65538 -0.51816674 0)
(158.75419 -0.42160425 0)
(158.83406 -0.31679601 0)
(158.89327 -0.20441804 0)
(158.93023 -0.085330487 0)
(158.94353 0.039426459 0)
(158.93202 0.16864709 0)
(158.89478 0.30098968 0)
(158.83122 0.43499391 0)
(158.74107 0.56911518 0)
(158.6244 0.70176233 0)
(158.48165 0.83133833 0)
(158.31361 0.95628232 0)
(158.1214 1.0751108 0)
(157.90646 1.1864562 0)
(157.67053 1.2891007 0)
(157.41556 1.3820039 0)
(157.14372 1.4643232 0)
(156.85733 1.5354265 0)
(156.55879 1.5948969 0)
(156.25055 1.6425292 0)
(155.93507 1.6783204 0)
(155.61474 1.7024535 0)
(155.29188 1.715278 0)
(154.96869 1.7172856 0)
(154.64723 1.7090853 0)
(154.32939 1.6913774 0)
(154.01689 1.664928 0)
(153.71128 1.6305446 0)
(153.4139 1.5890538 0)
(153.12593 1.5412819 0)
(152.84836 1.4880377 0)
(152.58205 1.4300982 0)
(152.32766 1.3681978 0)
(152.08574 1.3030191 0)
(151.8567 1.2351873 0)
(151.64086 1.1652661 0)
(151.43842 1.093756 0)
(151.2495 1.021094 0)
(151.07417 0.94765466 0)
(150.91241 0.87375257 0)
(150.76419 0.79964518 0)
(150.62942 0.72553667 0)
(150.508 0.65158207 0)
(150.39982 0.57789161 0)
(150.30475 0.50453546 0)
(150.22267 0.43154825 0)
(150.15344 0.35893387 0)
(150.09684 0.28667058 0)
(150.0528 0.21471573 0)
(150.02184 0.1430081 0)
(150.00488 0.071467229 0)
(152.47754 -0.088341065 0)
(152.49431 -0.088659361 0)
(152.50729 -0.089362201 0)
(152.52063 -0.090465544 0)
(152.53415 -0.091972878 0)
(152.54793 -0.093889963 0)
(152.56203 -0.096224068 0)
(152.57651 -0.098983954 0)
(152.59143 -0.10217996 0)
(152.60687 -0.10582392 0)
(152.62289 -0.10992926 0)
(152.63956 -0.11451091 0)
(152.65696 -0.11958541 0)
(152.67516 -0.12517075 0)
(152.69424 -0.13128659 0)
(152.71429 -0.13795399 0)
(152.73538 -0.14519561 0)
(152.75761 -0.15303548 0)