/*--------------------------------*- C++ -*----------------------------------*\
| =========                 |                                                 |
| \\      /  F ield         | foam-extend: Open Source CFD                    |
|  \\    /   O peration     | Version:     4.1                                |
|   \\  /    A nd           | Web:         http://www.foam-extend.org         |
|    \\/     M anipulation  |                                                 |
\*---------------------------------------------------------------------------*/
FoamFile
{
    version     2.0;
    format      ascii;
    class       volScalarField;
    location    "1.15";
    object      p;
}
// * * * * * * * * * * * * * * * * * * * * * * * * * * * * * * * * * * * * * //

dimensions      [0 2 -2 0 0 0 0];

internalField   nonuniform List<scalar> 
4393
(
-46.15373
-92.441533
-145.88573
-200.34844
-256.99636
-316.14053
-378.16518
-443.38333
-512.02517
-584.20959
-659.91615
-738.95661
-820.94899
-905.29752
-991.18279
-1077.5651
-1163.202
-1246.6778
-1326.4407
-1400.8418
-1468.1731
-1526.7034
-1574.7155
-1610.5486
-1632.6534
-1639.6673
-1630.52
-1604.5784
-1561.729
-1502.4695
-1428.0104
-1340.2608
-1241.7217
-1135.3026
-1024.0946
-911.14345
-799.25982
-690.88686
-588.03113
-492.24906
-404.67495
-326.07548
-256.91567
-197.42485
-147.66691
-107.61213
-77.043189
-55.051995
-40.824894
-44.903865
-91.859309
-145.1779
-199.49003
-255.96893
-314.95769
-376.85394
-441.98265
-510.58577
-582.79422
-658.59929
-737.82316
-820.0914
-904.81146
-991.1615
-1078.0936
-1164.3521
-1248.5052
-1328.9839
-1404.1232
-1472.1995
-1531.4664
-1580.1892
-1616.6847
-1639.3744
-1646.8615
-1638.0396
-1612.2033
-1569.1747
-1509.4424
-1434.2241
-1345.4642
-1245.7294
-1138.0154
-1025.5033
-911.31932
-798.33427
-689.02815
-585.42208
-489.06917
-401.08807
-322.22289
-252.91595
-193.38375
-143.68163
-103.71947
-73.228387
-52.068852
-41.447749
-44.104348
-90.967785
-143.92697
-197.87975
-254.00817
-312.68454
-374.32825
-439.28624
-507.82338
-580.09432
-656.11345
-735.72323
-818.56368
-904.04753
-991.34668
-1079.3948
-1166.9078
-1252.4198
-1334.3268
-1410.9306
-1480.4777
-1541.1921
-1591.3054
-1629.0901
-1652.9061
-1661.2761
-1653.0041
-1627.3018
-1583.9003
-1523.2173
-1446.4643
-1355.6553
-1253.4943
-1143.1556
-1028.0075
-911.3395
-796.14324
-684.96942
-579.86347
-482.36608
-393.55831
-314.13259
-244.47736
-184.76533
-135.00828
-95.021972
-64.498282
-43.882067
-35.076345
-43.320122
-89.681717
-142.03653
-195.41312
-250.99819
-309.19205
-370.44238
-435.12757
-503.54698
-575.89169
-652.2123
-732.38364
-816.06948
-902.69236
-991.41565
-1081.1451
-1170.5528
-1258.1201
-1342.1892
-1421.0129
-1492.7942
-1555.7163
-1607.9638
-1647.7468
-1673.3356
-1683.1298
-1675.7858
-1650.365
-1606.4504
-1544.3536
-1465.2735
-1371.3306
-1265.4464
-1151.081
-1031.8997
-911.44946
-792.90858
-678.93406
-571.60446
-472.43677
-382.45086
-302.25837
-232.16379
-172.26448
-122.49701
-82.587361
-52.222927
-32.072679
-23.904977
-42.502168
-88.076453
-139.58354
-192.15942
-246.99781
-304.52911
-365.23568
-429.53673
-497.7777
-570.19937
-646.90257
-727.80793
-812.61373
-900.7577
-991.39225
-1083.3839
-1175.3422
-1265.6735
-1352.645
-1434.4434
-1509.2167
-1575.098
-1630.2162
-1672.7041
-1700.7177
-1712.4934
-1706.4847
-1681.5328
-1636.9962
-1573.0187
-1490.7661
-1392.5047
-1281.469
-1161.5341
-1036.7928
-911.15704
-788.06262
-670.30582
-559.99985
-458.61802
-367.08686
-285.90116
-215.24627
-155.11006
-105.32724
-65.541319
-35.447069
-15.767107
-7.9866214
-41.50363
-86.044321
-136.45922
-188.00482
-241.88303
-298.55845
-358.55518
-422.34323
-490.32687
-562.81167
-639.96519
-721.77039
-807.97427
-898.03802
-991.10164
-1085.9793
-1181.1951
-1275.0532
-1365.7212
-1451.3017
-1529.8775
-1599.5274
-1658.3206
-1704.3033
-1735.4935
-1749.9213
-1745.771
-1721.5815
-1676.3906
-1610.0874
-1523.7668
-1419.8819
-1302.1006
-1174.8769
-1042.8954
-910.56139
-781.64646
-659.11579
-545.10906
-441.02349
-347.64824
-265.31441
-194.04318
-133.67132
-83.899111
-44.270315
-14.448594
4.8806174
12.44411
-40.37347
-83.655378
-132.72755
-182.99805
-235.68133
-291.28184
-350.37288
-413.48571
-481.0972
-553.59455
-631.23138
-714.07332
-801.93474
-894.31255
-990.33437
-1088.7464
-1187.9583
-1286.1374
-1381.3212
-1471.5091
-1554.7123
-1628.9579
-1692.2613
-1742.5812
-1777.7821
-1795.6452
-1794.0087
-1771.0081
-1725.2311
-1656.1841
-1564.822
-1453.8273
-1327.4565
-1190.9602
-1049.8254
-909.10845
-773.00339
-644.66719
-526.24334
-419.00474
-323.54539
-239.97619
-168.10385
-107.57222
-57.917468
-18.561631
10.906076
29.892565
37.285171
-38.979392
-80.760795
-128.23206
-176.97813
-228.22446
-282.52029
-340.4954
-402.75316
-469.85789
-542.29756
-620.43457
-704.44247
-794.22775
-889.34112
-988.90042
-1091.5646
-1195.5903
-1298.9618
-1399.5474
-1495.2218
-1583.9222
-1663.6365
-1732.3436
-1787.9278
-1828.0932
-1850.3326
-1852.0521
-1830.8603
-1784.7234
-1712.5762
-1615.1147
-1495.2898
-1358.1556
-1210.0559
-1057.5598
-906.56979
-761.79603
-626.59599
-503.07049
-392.29491
-294.58942
-209.77259
-137.37654
-76.806005
-27.401805
11.55833
40.588911
59.211371
66.442194
-37.46472
-77.51816
-123.11965
-170.0686
-219.60473
-272.32742
-328.93004
-390.09921
-456.50302
-528.75203
-607.34472
-692.59444
-784.53354
-882.79415
-986.49236
-1094.1771
-1203.8998
-1313.3988
-1420.3216
-1522.3935
-1617.482
-1703.561
-1778.6086
-1840.4646
-1886.6821
-1914.4319
-1920.5936
-1902.0975
-1856.0604
-1780.5673
-1675.8521
-1545.1615
-1394.6361
-1232.1311
-1065.6755
-902.26327
-747.21836
-604.08331
-474.8352
-360.24581
-260.25689
-174.30525
-101.57831
-41.190618
7.7468
46.125262
74.585772
92.775889
99.825518
-35.582419
-73.632167
-117.07429
-161.94265
-209.48312
-260.34769
-315.29923
-375.11849
-440.59463
-512.48546
-591.4577
-678.00402
-772.32767
-874.18331
-982.70177
-1096.2936
-1212.7328
-1329.421
-1443.7132
-1553.1554
-1655.5586
-1748.9272
-1831.2974
-1900.5224
-1954.0351
-1988.6656
-2000.6706
-1986.1197
-1940.984
-1862.0905
-1748.8683
-1604.8538
-1437.6853
-1257.3341
-1073.8093
-895.50411
-728.44741
-576.30876
-440.80816
-322.26196
-220.09596
-133.25575
-60.504345
-0.61251662
47.572029
85.130909
112.84674
130.50088
137.33215
-33.658647
-69.480714
-110.48016
-152.96856
-198.2005
-246.88313
-299.85339
-357.99613
-422.23932
-493.5154
-572.69694
-660.50473
-757.37341
-863.24229
-977.2902
-1097.7579
-1222.0408
-1347.0752
-1469.8237
-1587.6182
-1698.2425
-1799.8022
-1890.4833
-1968.244
-2030.4608
-2073.6245
-2093.2848
-2084.4265
-2041.4996
-1959.4853
-1836.4266
-1676.067
-1488.1415
-1285.6393
-1081.2757
-885.22618
-704.28932
-542.13211
-400.00721
-277.56198
-173.52784
-86.226956
-13.908777
45.054924
92.110875
128.54701
155.29538
172.27585
178.83686
-31.21215
-64.47799
-102.70042
-142.47768
-185.05482
-231.1916
-281.8011
-337.88105
-400.5166
-470.84577
-549.99149
-638.96271
-738.50612
-848.83939
-969.25145
-1097.7799
-1231.297
-1366.0794
-1498.5491
-1625.7768
-1745.5671
-1856.2302
-1956.2324
-2043.7777
-2116.3003
-2169.9912
-2199.6317
-2198.8767
-2160.2015
-2075.9032
-1941.6599
-1761.1659
-1547.147
-1316.998
-1087.1614
-870.06372
-673.27004
-500.19739
-351.30892
-225.28843
-119.94612
-32.825904
38.431728
95.906599
141.36465
176.30828
201.81919
217.95731
224.18369
-28.864291
-59.373832
-94.536656
-131.2892
-170.86934
-214.08713
-261.93086
-315.51614
-376.10118
-445.06102
-523.81783
-613.73761
-715.98071
-831.17943
-958.8427
-1096.7762
-1241.1188
-1387.1964
-1530.6741
-1668.3107
-1798.0264
-1918.5005
-2028.6708
-2127.1962
-2211.7584
-2278.3372
-2320.8828
-2331.5073
-2300.2155
-2215.4071
-2068.7645
-1863.2998
-1616.091
-1351.1488
-1090.085
-848.12699
-633.45861
-448.80937
-293.37025
-164.46251
-58.69387
27.344848
96.717922
152.0008
195.29207
228.30552
252.26327
267.36225
273.17874
-25.795728
-53.159416
-84.880298
-118.22366
-154.38707
-194.2191
-238.77688
-289.29492
-347.21835
-414.19372
-492.00018
-582.44353
-687.22875
-807.60795
-943.51312
-1092.522
-1249.7423
-1409.1065
-1565.1973
-1714.3965
-1854.8887
-1985.9446
-2107.2021
-2218.0388
-2316.6625
-2399.0139
-2458.1995
-2484.6256
-2465.3858
-2383.3833
-2223.5812
-1986.8642
-1696.7534
-1387.5478
-1088.0436
-816.86973
-582.392
-385.91399
-224.64648
-94.020519
10.895504
94.650072
161.09788
213.33656
253.79312
284.3744
306.42233
320.26143
325.58378
-23.013727
-47.077225
-75.092562
-104.71541
-137.10547
-173.14155
-213.94079
-260.85225
-315.51537
-379.87961
-456.14145
-546.63242
-653.74833
-779.6421
-925.00946
-1087.2593
-1260.0113
-1435.0871
-1605.4676
-1767.0751
-1918.6281
-2060.3432
-2192.8886
-2316.7581
-2431.1667
-2532.3631
-2612.6677
-2660.6817
-2660.3001
-2586.9385
-2414.3438
-2138.1026
-1791.3687
-1425.1243
-1078.0795
-772.8245
-516.91883
-309.03515
-143.38741
-12.83949
89.463088
169.38781
231.63859
279.8319
316.69323
344.28452
364.03305
376.3735
381.11091
-19.281268
-39.600647
-63.49914
-88.985635
-117.12777
-148.80703
-185.17713
-227.68205
-278.14721
-338.84696
-412.45963
-501.93575
-610.52257
-741.66638
-897.43288
-1075.3086
-1266.7917
-1460.4909
-1647.0306
-1821.8389
-1984.6852
-2137.2774
-2281.6685
-2419.8601
-2552.6486
-2677.0226
-2784.5351
-2861.9748
-2890.2637
-2835.439
-2652.9186
-2326.2153
-1902.7545
-1461.9442
-1055.8281
-711.28603
-433.04946
-215.24882
-47.677758
80.199217
177.56192
251.73804
308.28783
351.29737
383.72591
407.72833
424.76707
435.36025
439.41859
-16.068042
-32.573106
-52.138996
-73.19835
-96.72722
-123.59404
-154.97144
-192.38154
-237.82573
-293.92571
-363.92115
-451.48564
-560.85951
-697.26492
-865.13628
-1062.6287
-1278.1376
-1495.1645
-1700.6845
-1889.518
-2063.2888
-2225.9433
-2381.2206
-2533.0287
-2684.737
-2835.1328
-2975.4676
-3091.1197
-3161.1384
-3141.1022
-2956.844
-2565.4137
-2034.4286
-1494.6181
-1014.809
-625.87628
-325.79003
-101.18987
64.480023
186.11186
275.57187
341.69875
390.83027
427.40779
454.51549
474.31122
488.22557
496.82366
500.10959
-11.623758
-23.816222
-38.624101
-54.840017
-73.274044
-94.739349
-120.38296
-151.7516
-190.95893
-240.93235
-305.51048
-389.16477
-497.17218
-637.02415
-817.14724
-1037.7836
-1282.8758
-1527.7092
-1753.7159
-1955.186
-2137.3092
-2307.7675
-2472.4562
-2637.6153
-2810.6904
-2993.8271
-3178.0617
-3346.6429
-3478.3139
-3519.7651
-3352.4914
-2878.4591
-2190.3873
-1517.2768
-945.36149
-508.00179
-189.01256
36.856116
195.00413
305.65984
383.58352
439.00727
478.83831
507.67352
528.5616
543.54398
553.93641
560.30541
562.73134
-7.8781578
-15.907493
-25.917087
-37.13621
-50.191869
-65.805064
-85.053288
-109.4593
-141.19084
-183.44763
-240.76417
-318.60682
-423.31105
-565.04823
-758.78607
-1010.0103
-1296.3291
-1579.1322
-1831.1734
-2046.1844
-2235.8279
-2413.7081
-2587.6255
-2765.2388
-2959.4034
-3177.6731
-3411.2297
-3640.3895
-3849.9116
-3989.5923
-3878.1642
-3303.6028
-2375.5473
-1520.6744
-833.24571
-346.22724
-15.430825
202.71291
345.4569
439.12937
501.24956
543.05013
571.62175
591.41481
605.22771
614.83923
621.35461
625.28945
626.77918
-2.7352851
-6.085337
-10.778143
-16.472154
-23.54575
-32.600046
-44.607235
-61.013432
-83.940619
-116.70906
-164.49116
-233.84622
-331.83756
-470.87236
-675.66556
-963.46001
-1303.4131
-1632.5863
-1910.911
-2131.7843
-2318.8713
-2495.4879
-2670.6614
-2851.4633
-3059.7242
-3314.2763
-3610.2903
-3925.5222
-4252.9722
-4565.1535
-4595.4007
-3915.4301
-2598.9303
-1489.3972
-656.67403
-125.34085
203.21861
399.82283
516.60341
586.03055
627.60761
652.76923
668.18327
677.744
683.73698
687.51369
689.86757
691.2083
691.70308
2.4286449
3.1235868
3.3220261
2.78647
1.4429987
-1.1264019
-5.6862718
-13.465823
-26.329574
-47.396957
-82.267022
-138.88932
-225.0376
-354.11723
-564.58631
-899.5994
-1319.9697
-1717.1487
-2032.4739
-2257.3454
-2437.2963
-2612.6008
-2793.3365
-2980.3635
-3208.0353
-3513.4499
-3896.4049
-4326.2816
-4777.4981
-5305.7874
-5589.0335
-4840.586
-2849.3899
-1383.4478
-380.33479
174.15249
475.2824
630.28959
707.74153
744.71444
760.88954
766.57931
767.19012
765.56195
763.17878
760.79812
758.80559
757.45345
756.91777
7.882631
12.581593
18.256876
23.706017
29.166431
34.41369
38.931938
41.749632
41.310455
34.859463
16.522747
-23.640822
-94.584978
-207.03535
-413.32789
-807.07062
-1348.048
-1833.3007
-2183.5478
-2385.8486
-2531.0907
-2689.2567
-2868.6859
-3043.3165
-3258.6428
-3589.9541
-4038.836
-4576.6558
-5104.9139
-5975.9648
-6841.0051
-6318.7436
-3089.7123
-1179.5547
33.067971
572.36047
806.76843
893.25494
915.78445
911.94384
898.35524
882.32236
866.97662
853.57615
842.5294
833.85634
827.45836
823.38987
821.81658
17.139573
24.746544
35.099814
45.485439
56.548627
68.234351
80.30305
92.116298
102.58696
109.83513
108.88699
88.679102
38.959378
-42.16858
-211.93911
-656.29412
-1381.0951
-1980.9623
-2380.6206
-2547.0682
-2650.8808
-2795.7503
-2985.6482
-3132.3289
-3303.7642
-3695.5063
-4240.1806
-4977.4342
-5695.8741
-7260.056
-8903.5836
-9097.2399
-3603.8213
-1049.8175
632.09936
1099.6887
1200.0138
1182.859
1134.2041
1082.5192
1036.2193
997.29611
965.59492
940.34775
920.68966
905.81407
895.09738
888.37439
885.78823
21.409777
29.827651
44.546532
60.107234
77.428056
96.669159
118.06578
141.62758
167.14455
194.2869
220.47335
234.55216
220.62447
183.66827
84.292337
-397.40642
-1470.4784
-2240.4386
-2724.0495
-2788.3821
-2762.8136
-2821.7211
-3014.4521
-3124.8326
-3251.2169
-3785.1594
-4248.8472
-5202.4592
-6489.294
-7884.2478
-9613.9192
-12136.387
-4857.313
-85.140016
1722.0839
1814.317
1645.066
1483.6113
1351.6956
1249.1001
1169.7668
1108.3987
1060.9287
1024.3713
996.53933
975.79659
961.00302
951.77688
948.23583
36.118717
45.39593
64.684524
84.853498
107.47343
132.8275
161.47806
193.84516
230.1543
270.83477
315.16459
352.03598
355.15851
331.40389
322.30156
-74.929261
-1719.0843
-2555.76
-3055.3848
-2831.1037
-2639.3218
-2754.4948
-3142.3397
-3286.904
-3371.0316
0
0
0
0
0
0
0
0
6203.2189
3406.4375
2587.0883
2073.6295
1761.7915
1551.4478
1402.6956
1293.8201
1212.4328
1150.876
1104.1846
1069.0048
1042.9723
1024.4944
1013.0027
1008.5967
34.126314
40.708168
61.925839
84.329826
109.68153
138.26614
170.93539
208.58309
252.10976
303.08783
364.16596
431.50749
483.52436
535.53573
741.16204
736.43074
-1868.897
-2702.5636
-3498.3656
-3037.7209
-3078.1985
-3073.5159
0
0
0
0
0
0
0
0
0
0
10143.911
6294.7873
4130.6177
3007.0173
2368.1778
1976.2272
1716.2596
1534.905
1403.732
1306.5703
1233.5828
1178.4938
1137.1314
1106.5974
1084.959
1071.5145
1066.3615
43.601491
54.080876
79.466411
104.86165
133.2702
165.21928
201.90624
244.69426
295.17934
355.95227
432.50626
529.12267
631.45564
719.14783
848.65
751.53771
-2963.8353
-3612.0145
-3230.0978
0
0
0
0
0
0
0
0
0
0
0
1809.8412
3392.5911
5774.5658
5248.1249
3971.2896
3108.8964
2515.4606
2115.8964
1838.7524
1641.0726
1496.5086
1388.8135
1307.6571
1246.2851
1200.1459
1166.0539
1141.8783
1126.8515
1121.0907
21.694843
40.913513
64.583999
88.833542
115.48051
145.24292
179.15035
218.31642
263.86558
317.54024
383.53672
461.87422
519.27488
495.88859
518.36609
936.62407
0
0
0
0
0
0
-1095.4874
-1069.1052
-978.59926
-886.10727
-759.53056
-465.5821
-65.925722
724.9631
2052.7061
3385.7923
4769.9447
4503.5596
3726.3877
3068.976
2562.2532
2191.41
1920.3985
1720.4652
1571.0588
1458.1661
1372.2751
1306.8889
1257.4977
1220.8772
1194.8463
1178.6432
1172.4277
19.576267
49.939275
74.30333
99.236096
125.93701
155.25445
187.85171
224.18447
264.19937
307.22721
351.85739
391.83584
401.23585
327.1867
148.66981
-232.25024
-1197.968
-1161.5108
-1092.101
-1052.7695
-1008.6265
-982.78644
-972.69668
-768.98214
-805.46622
-551.58755
-332.01342
-175.01856
287.20614
931.53156
1986.4361
3072.5073
3975.0846
3866.9105
3417.232
2945.2168
2539.1675
2216.1509
1966.4615
1774.9199
1627.8403
1514.555
1427.1758
1359.9922
1308.8725
1270.7676
1243.5798
1226.6188
1220.1064
19.951678
45.724504
71.00758
96.415751
123.18889
152.0921
183.72649
218.47742
256.36661
296.82766
337.60283
371.51375
384.19537
357.36172
236.18403
-154.28087
-726.3793
-862.27165
-910.04243
-918.78394
-844.85955
-802.64041
-781.57564
-657.38047
-587.98293
-385.98665
-148.75424
107.19959
538.97956
1122.9639
1921.0623
2743.8764
3353.6387
3372.774
3119.5716
2789.7481
2475.0091
2204.7886
1984.0972
1807.8303
1668.4066
1558.6396
1472.5841
1405.6088
1354.1819
1315.5882
1287.9194
1270.6089
1263.9544
15.074734
36.206805
58.540864
80.736054
103.39748
126.78841
150.94077
175.51319
199.65539
221.69901
237.9376
240.79318
220.62063
168.27383
45.551681
-228.98472
-551.24559
-680.31268
-736.48505
-750.03733
-712.17779
-665.16678
-606.31037
-503.97435
-391.707
-207.49511
18.008791
298.24601
695.66451
1213.3325
1847.1758
2472.5542
2908.4486
2983.6631
2849.7378
2626.4446
2388.6612
2169.4055
1980.3658
1823.1467
1694.9149
1591.5721
1509.0941
1444.0223
1393.5361
1355.3514
1327.8231
1310.5426
1303.8906
23.665846
46.141234
69.775232
93.110988
116.86493
141.17646
165.9119
190.50296
213.75931
233.41798
245.07198
241.43733
213.82243
150.41894
22.530206
-192.39889
-412.63743
-532.96805
-590.78453
-602.59998
-576.47156
-531.20416
-462.26525
-361.29058
-232.72343
-52.700686
168.12565
443.83648
803.40828
1248.7146
1758.8128
2243.0272
2576.2831
2675.6318
2615.0371
2468.9612
2293.3301
2119.5083
1961.5378
1824.7915
1709.7515
1614.7798
1537.5469
1475.7182
1427.2053
1390.1979
1363.3537
1346.4399
1339.9192
12.30485
30.177438
50.274413
70.251892
90.244228
110.16124
129.73657
148.36088
164.91596
177.39762
182.29975
174.54719
147.84193
91.814727
-12.11644
-165.98174
-317.47694
-414.78301
-465.07826
-474.88377
-451.43119
-404.32587
-331.75119
-230.26638
-97.633893
76.549172
290.1984
552.29767
875.47228
1256.7353
1671.4728
2053.8497
2321.1068
2429.0158
2414.066
2323.2406
2196.898
2061.9203
1932.7244
1816.3017
1715.2661
1629.7882
1558.9194
1501.3161
1455.5791
1420.3703
1394.6623
1378.3999
1372.1202
21.544827
40.815171
61.169368
80.834954
100.11773
118.7815
136.35781
152.02089
164.44179
171.50975
170.07999
156.26048
125.52127
70.692865
-17.205421
-132.34421
-242.08771
-317.93451
-357.68944
-363.41716
-339.44956
-290.40675
-215.79237
-113.78586
18.421192
185.74885
388.81532
632.56907
921.23601
1248.3593
1590.3471
1899.3864
2121.2351
2229.895
2243.4952
2191.9495
2104.0754
2001.5325
1897.9259
1800.6922
1713.6163
1638.0969
1574.236
1521.5095
1479.1261
1446.1876
1421.9711
1406.5879
1400.6378
12.268373
28.519945
46.733498
64.625068
82.128307
98.922719
114.52594
128.15386
138.58367
143.95375
141.67071
128.64209
101.2138
54.494009
-15.118086
-100.25441
-180.05158
-236.80169
-265.50774
-265.72267
-239.41409
-188.6534
-113.21273
-11.871402
117.47234
277.24395
468.21241
692.34092
949.40882
1231.2972
1517.379
1772.9202
1961.9301
2067.6911
2099.1591
2075.5347
2017.348
1941.5371
1860.114
1780.4159
1706.6876
1641.0988
1584.5031
1537.0176
1498.3596
1468.0198
1445.5542
1431.2216
1425.6682
17.501422
33.842266
51.174488
67.703195
83.503081
98.223429
111.35496
122.13947
129.48237
131.85118
127.29162
113.60881
88.297247
48.547747
-6.2708057
-69.444662
-127.28232
-167.98432
-186.29362
-180.52045
-151.05923
-98.62173
-22.9666
76.762708
201.88184
353.50968
531.8456
736.82226
965.85347
1210.3959
1453.2064
1668.9731
1833.2817
1934.594
1977.1723
1973.4303
1938.0035
1883.9779
1821.4828
1757.4132
1696.0716
1640.038
1590.6659
1548.548
1513.808
1486.2657
1465.7214
1452.5564
1447.4465
12.482736
27.215773
43.389115
58.970917
73.832076
87.576044
99.689204
109.45336
115.88671
117.70506
113.3878
101.33144
79.885323
47.718001
5.7024886
-40.502558
-81.46905
-108.84368
-117.8212
-106.20458
-73.456384
-19.527788
55.899164
153.3994
273.64868
416.94441
582.82284
769.93766
974.54663
1188.4293
1397.4882
1583.1193
1728.313
1824.69
1874.0659
1884.5146
1866.4947
1830.0643
1783.555
1733.1684
1683.0733
1635.992
1593.5828
1556.7718
1525.9932
1501.3348
1482.8026
1470.8732
1466.2347
14.202104
28.309153
43.356923
57.611378
71.026119
83.234299
93.771483
102.01714
107.16545
108.2238
104.08847
93.670576
76.009349
50.725086
19.311089
-13.63583
-41.377012
-57.736954
-58.558766
-41.537184
-5.6563558
49.537305
124.41216
219.32005
334.46763
469.59163
623.67718
794.62529
978.2423
1167.0096
1349.5168
1511.9153
1642.0166
1733.5079
1786.9169
1807.5149
1802.802
1780.4909
1747.3577
1708.8016
1668.7395
1629.872
1594.0132
1562.3069
1535.4137
1513.6319
1497.1344
1486.4662
1482.3107
11.976741
25.146048
39.374683
52.880682
65.538548
76.981136
86.777794
94.38729
99.150076
100.31077
97.095882
88.826224
75.070177
56.055006
33.485981
11.094118
-6.110136
-13.388644
-7.2253154
14.597875
53.294827
109.5079
183.6086
275.76667
385.85271
513.21559
656.45091
813.06526
978.81638
1147.0254
1308.4752
1452.6951
1570.7074
1657.6222
1713.2903
1741.1556
1746.6188
1735.593
1713.5632
1685.1381
1653.8957
1622.435
1592.6161
1565.71
1542.5341
1523.5462
1509.0501
1499.6332
1495.9588
12.063905
24.518022
37.833461
50.391512
62.103897
72.640505
81.627761
88.617737
93.095523
94.512909
92.361928
86.278004
76.198615
62.695966
47.47234
33.573938
24.860136
25.058795
37.128384
63.106615
104.2413
161.23388
234.42172
323.82569
429.07744
549.26271
682.73399
826.83854
977.50422
1128.8925
1273.5309
1403.3631
1511.6004
1594.3669
1651.166
1684.2377
1697.4883
1695.4593
1682.5812
1662.7525
1639.1728
1614.2955
1589.9506
1567.4717
1547.7773
1531.4425
1518.8703
1510.6674
1507.4618
11.059002
22.856218
35.508887
47.437861
58.54104
68.515343
77.039387
83.751171
88.264311
90.2059
89.283549
85.378361
78.687641
69.971302
60.842302
53.826963
51.988163
58.325299
75.331508
104.83118
148.0163
205.57153
277.77664
364.53107
465.29833
578.99353
703.83955
837.17082
975.18995
1112.8293
1243.9834
1362.3363
1462.6247
1541.7126
1598.9345
1635.73
1654.9377
1660.0582
1654.6724
1642.0705
1625.0727
1605.9575
1586.4915
1568.021
1551.5232
1537.6563
1526.8969
1519.8509
1517.0947
10.690598
21.905792
33.905512
45.206557
55.725486
65.193968
73.343024
79.888929
84.554898
87.109534
87.427083
85.569434
81.905268
77.283222
73.195918
71.772178
75.506963
86.862603
107.95148
140.38441
185.2545
243.1892
314.39963
398.68677
495.39756
603.34404
720.69961
844.8707
972.3702
1098.802
1219.1224
1328.2809
1422.097
1497.9832
1555.2022
1594.6571
1618.4206
1629.2062
1629.9176
1623.3343
1611.9319
1597.7981
1582.6167
1567.7159
1554.1006
1542.4866
1533.4065
1527.4491
1525.1203
10.145197
20.878174
32.373722
43.206878
53.301643
62.421471
70.346128
76.862049
81.786223
85.002857
86.516499
86.522072
85.499242
84.329649
84.384851
87.490264
95.727242
111.15622
135.58191
170.4183
216.64475
274.81391
345.06647
427.12444
520.25564
623.21647
734.1826
850.67499
969.51152
1086.8608
1198.4974
1300.2976
1388.8602
1462.008
1518.9829
1560.3261
1587.5594
1602.8035
1608.4288
1606.7927
1600.0704
1590.166
1578.6726
1566.8824
1555.8073
1546.203
1538.6497
1533.7089
1531.7879
9.7511862
20.065435
31.120872
41.55347
51.298479
60.148905
67.927371
74.479588
79.698871
83.560225
86.166733
87.807995
89.032207
90.72301
94.142233
100.88378
112.7239
131.42024
158.53205
195.30143
242.59581
300.88976
370.25792
450.35997
540.41149
639.14486
744.76771
854.92997
966.72651
1076.7875
1181.5132
1277.4606
1361.7943
1432.6449
1489.2595
1531.9341
1561.7953
1580.5198
1590.0638
1592.4436
1589.5814
1583.2145
1574.845
1565.7231
1556.852
1549.0122
1542.8322
1538.8502
1537.333
9.3907202
19.379691
30.09882
40.231372
49.72071
58.38645
66.088648
72.722749
78.243648
82.696965
86.259376
89.286746
92.368033
96.374101
102.4739
112.08625
126.76214
148.03187
177.26248
215.55261
263.66929
322.01462
390.60548
469.05349
556.54101
651.79578
753.07088
858.14125
964.3387
1068.6598
1167.9766
1259.3444
1340.3378
1409.3165
1465.5441
1509.1505
1540.9793
1562.3788
1574.9882
1580.5541
1580.7923
1577.2971
1571.4858
1564.567
1557.5263
1551.1587
1546.1586
1543.0791
1541.9882
9.039946
18.781335
29.243202
39.150719
48.451918
56.989714
64.655188
71.383405
77.176747
82.13371
86.484219
90.629315
95.181212
100.99307
109.15946
120.96942
137.80987
161.04336
191.89069
231.3365
280.06409
338.41387
406.35523
483.46384
568.90169
661.40203
759.26514
860.37527
962.25557
1062.1829
1157.3772
1245.2519
1323.6751
1391.1743
1447.0322
1491.2678
1524.5262
1547.918
1562.8469
1570.8545
1573.4951
1572.2481
1568.4612
1563.3094
1557.7619
1552.6168
1548.6498
1546.5062
1545.9793
8.6821389
18.315494
28.618329
38.381929
47.560034
56.018455
63.673999
70.492324
76.51098
81.866439
86.825603
91.819049
97.471154
104.61731
114.29539
127.70268
146.11213
170.76798
202.78563
243.06494
292.22509
350.55857
417.99874
494.09589
578.00035
668.45467
763.8005
862.00887
960.74684
1057.4942
1149.7156
1235.0721
1311.6343
1378.0469
1433.61
1478.2707
1512.5393
1537.3615
1553.9747
1563.7717
1568.1885
1568.6181
1566.3538
1562.5459
1558.1474
1553.9281
1550.7124
1549.3967
1549.6455
8.1915719
17.902914
28.135532
37.82497
46.931761
55.345326
63.002375
69.88977
76.068156
81.698158
87.069408
92.629528
99.008134
107.02726
117.68848
132.13343
151.56281
177.14272
209.91993
250.7382
300.17349
358.48576
425.5843
501.00319
583.88645
672.98496
766.67019
862.9726
959.65473
1054.3278
1144.6121
1228.3249
1303.6636
1369.3476
1424.6901
1469.5947
1504.4884
1530.2127
1547.8981
1558.8412
1564.4002
1565.9082
1564.6186
1561.6674
1558.0019
1554.3371
1551.4928
1550.9666
1553.1233
6.9695659
17.57553
27.870185
37.558138
46.639155
55.034599
62.695102
69.619265
75.879594
81.648914
87.228351
93.074337
99.820107
108.28418
119.45354
134.4299
154.37164
180.41397
213.57076
254.65811
304.23027
362.53072
429.45644
504.53333
586.90239
675.31905
768.17036
863.51726
959.17066
1052.8076
1142.1255
1225.0184
1299.7469
1365.0673
1420.3003
1465.3289
1500.5398
1526.7237
1544.9592
1556.496
1562.6482
1564.719
1563.9501
1561.4809
1558.2687
1554.988
1552.4243
1552.8517
1558.6574
-2137.0018
-2392.4349
-2604.945
-2779.095
-2908.8435
-2975.5935
-2963.8353
-2866.3372
-2685.0412
-2495.7646
-3230.2244
-3230.0978
-3226.3218
-3220.6023
-3212.1873
-3205.8607
-3195.7062
-3205.6211
-3200.2666
-3162.1591
-3201.0104
-3199.7337
-3188.4982
-3175.3337
-3162.1451
-3157.5187
-3142.7292
-3147.8937
-3132.5978
-3074.3186
-3166.068
-3163.7208
-3152.4086
-3140.5757
-3128.683
-3128.4386
-3119.1505
-3117.4772
-3105.4552
-3067.8743
-3107.7789
-3105.8905
-3098.8471
-3089.097
-3075.6897
-3062.5035
-3071.3306
-3075.8093
-3077.5294
-3080.55
-3071.4921
-3071.4529
-3069.3459
-3065.0297
-3060.5033
-3037.7209
-3051.9927
-3056.3225
-3055.3184
-3060.1871
-3070.1047
-3071.695
-3075.91
-3081.3265
-3096.7092
-3085.9164
-3080.22
-3065.9916
-3040.9574
-3009.0838
-3077.1337
-3076.8514
-3077.5163
-3078.1985
-3090.7089
-3092.0739
-3080.1176
-3061.406
-3034.6795
-2999.1563
-3872.4445
-3884.816
-3858.0761
-3816.0065
-3780.1283
-3749.009
-3727.6632
-3713.4195
-3703.4799
-3703.772
-3027.6885
-3028.084
-3024.834
-3016.6925
-2981.8342
-3000.6146
-3008.834
-3007.8953
-2994.035
-2963.4925
-3069.2407
-3073.5159
-3082.3507
-3105.7556
-3092.8343
-3078.5821
-3064.6725
-3048.7669
-3027.9376
-3007.1493
-3089.2588
-3090.3811
-3091.0497
-3105.1003
-3119.3417
-3103.206
-3083.1323
-3065.4974
-3046.0711
-3027.1699
-3051.7
-3048.5592
-3034.9555
-3005.1477
-3029.7048
-3045.5603
-3053.9612
-3058.029
-3056.2816
-3058.6264
-3090.3878
-3091.73
-3100.9013
-3075.8671
-3074.3112
-3079.228
-3081.8998
-3081.8917
-3079.0998
-3083.7266
-3155.4978
-3158.4193
-3178.4444
-3186.8338
-3165.7131
-3142.3397
-3125.0741
-3112.3764
-3099.0404
-3083.4797
-3102.2791
-3094.4082
-3081.6197
-3096.198
-3106.5482
-3114.9563
-3122.0789
-3127.9187
-3130.6831
-3138.7826
-3132.2157
-3130.5168
-3099.0177
-3114.1895
-3130.8964
-3146.7377
-3160.3784
-3171.0702
-3177.7957
-3188.2077
-3300.8248
-3316.6701
-3305.5729
-3286.904
-3270.3011
-3257.9514
-3249.7015
-3245.0116
-3239.4127
-3231.7661
-3346.4804
-3353.9918
-3365.3513
-3350.2522
-3331.4237
-3317.7134
-3310.6572
-3309.7442
-3310.6935
-3319.8177
-3253.6702
-3239.3728
-3257.7787
-3282.3036
-3307.647
-3330.4789
-3350.9582
-3369.2576
-3383.8537
-3404.179
-3394.5195
-3371.0316
-3379.7423
-3397.6101
-3420.4021
-3440.6234
-3457.5166
-3470.3756
-3477.75
-3488.9231
-3750.4859
-3742.2593
-3712.127
-3677.4396
-3650.7057
-3628.8123
-3613.7581
-3603.3597
-3594.0006
-3588.0153
-3048.303
-3046.1347
-3037.0759
-3020.5993
-3004.9857
-3018.5592
-3022.7718
-3022.1807
-3016.44
-3016.1069
-3523.1421
-3532.5162
-3547.558
-3596.2407
-3653.3961
-3702.4332
-3720.1331
-3691.6833
-3584.8325
-3395.4808
-3302.4676
-3302.925
-3305.8558
-3312.056
-3314.9495
-3315.9164
-3314.3799
-3314.9998
-3303.1074
-3243.3939
-3096.6961
-3153.0571
-3221.187
-3327.9651
-3436.0675
-3512.8642
-3537.4151
-3485.3223
-3324.7269
-3085.5345
-3503.0584
-3514.4697
-3536.1394
-3574.9041
-3612.0145
-3643.7321
-3655.2547
-3640.3352
-3582.9704
-3448.2644
-3400.9146
-3406.2614
-3420.1386
-3443.9569
-3464.5858
-3480.9517
-3487.7506
-3479.6086
-3457.2596
-3387.7441
11331.794
10729.686
10143.911
9504.3446
8847.2028
8193.7695
7559.2468
6950.6846
6361.0526
5783.6116
8330.6786
8252.2539
8127.2913
7864.2478
7525.0911
7133.5135
6710.8013
6274.8253
5835.8036
5378.6358
-3723.7367
-3741.5492
-3760.3499
-3768.7083
-3779.8119
-3785.1594
-3791.4766
-3795.8131
-3797.4702
-3800.6804
-3719.426
-3723.3773
-3759.0761
-3791.3422
-3831.8131
-3860.5071
-3885.8073
-3902.9087
-3912.2585
-3916.6882
-3959.4877
-3952.63
-3969.3705
-3977.7639
-4007.0664
-4026.4632
-4047.2781
-4061.1092
-4067.1847
-4063.1491
-4236.9328
-4226.7858
-4241.2251
-4232.2819
-4248.8472
-4251.3115
-4258.4283
-4260.0215
-4256.9017
-4252.8621
-4560.3961
-4542.5089
-4554.2839
-4527.5528
-4531.5754
-4514.037
-4501.8899
-4482.1517
-4454.7209
-4422.5077
-4917.3352
-4890.4138
-4899.9757
-4853.7943
-4845.4549
-4807.12
-4774.4184
-4731.1064
-4676.5025
-4616.2691
-5298.6089
-5260.5106
-5269.0557
-5202.4592
-5182.9186
-5124.9031
-5073.529
-5010.0616
-4933.7637
-4848.3418
-5700.0667
-5648.3948
-5657.0888
-5568.2887
-5537.4291
-5459.231
-5388.5179
-5306.0185
-5215.9416
-5133.2576
-6122.6818
-6054.0161
-6063.7103
-5949.9441
-5906.3944
-5805.9893
-5711.5243
-5601.3732
-5475.8758
-5340.0332
-6566.615
-6477.0342
-6489.294
-6347.8832
-6290.5245
-6167.6285
-6049.3355
-5915.0686
-5765.2442
-5603.2207
-7038.0097
-6921.4366
-6937.0252
-6763.7759
-6689.5037
-6541.8862
-6395.8261
-6233.4189
-6054.6904
-5868.5739
-7535.7932
-7386.1551
-7408.0976
-7199.876
-7105.5637
-6931.4538
-6753.4638
-6557.1537
-6338.2359
-6100.6244
-8078.2908