/*--------------------------------*- C++ -*----------------------------------*\
| =========                 |                                                 |
| \\      /  F ield         | foam-extend: Open Source CFD                    |
|  \\    /   O peration     | Version:     4.1                                |
|   \\  /    A nd           | Web:         http://www.foam-extend.org         |
|    \\/     M anipulation  |                                                 |
\*---------------------------------------------------------------------------*/
FoamFile
{
    version     2.0;
    format      ascii;
    class       volScalarField;
    location    "1.15";
    object      p;
}
// * * * * * * * * * * * * * * * * * * * * * * * * * * * * * * * * * * * * * //

dimensions      [0 2 -2 0 0 0 0];

internalField   nonuniform List<scalar> 
4393
(
-46.418284
-92.981833
-146.74664
-201.53773
-258.52852
-318.02971
-380.42424
-446.02166
-515.04623
-587.60811
-663.67524
-743.04522
-825.31993
-909.88678
-995.91054
-1082.3386
-1167.9206
-1251.2388
-1330.7466
-1404.8063
-1471.7267
-1529.7975
-1577.3241
-1612.6686
-1634.3035
-1640.8856
-1631.3608
-1605.1089
-1562.0233
-1502.6042
-1428.0626
-1340.3043
-1241.8235
-1135.5208
-1024.4768
-911.72602
-800.06805
-691.93547
-589.3254
-493.78604
-406.4448
-328.06277
-259.1005
-199.78383
-150.17412
-110.24039
-79.763305
-57.83236
-43.628063
-45.16612
-92.396012
-146.03405
-200.67391
-257.49558
-316.84199
-379.10968
-444.62029
-513.60993
-586.20079
-662.37244
-741.93254
-824.49002
-909.43478
-995.92836
-1082.9092
-1169.1131
-1253.1062
-1333.3247
-1408.1153
-1475.772
-1534.5698
-1582.7976
-1618.7957
-1641.0078
-1648.0571
-1638.8541
-1612.704
-1569.4363
-1509.5443
-1434.245
-1345.4787
-1245.8056
-1138.2119
-1025.8681
-911.8889
-799.13382
-690.07213
-586.71538
-490.6084
-402.86292
-324.21746
-255.10992
-195.75333
-146.20057
-106.36028
-75.961645
-54.862709
-44.264538
-44.361881
-91.499259
-144.77577
-199.05485
-255.5257
-314.56086
-376.57901
-441.92407
-510.85526
-583.51849
-659.91616
-739.87554
-823.01893
-908.74006
-996.19255
-1084.2949
-1171.7534
-1257.0998
-1338.7355
-1414.9753
-1484.0845
-1544.3104
-1593.9093
-1631.1787
-1654.5015
-1662.4211
-1653.7593
-1627.7382
-1584.0958
-1523.2535
-1446.4223
-1355.6121
-1253.5195
-1143.3093
-1028.3382
-911.88397
-796.92637
-686.00508
-581.15572
-483.91059
-395.3438
-316.14223
-246.68996
-187.15636
-137.55082
-97.687992
-67.257882
-46.702956
-37.920427
-43.571161
-90.203514
-142.87205
-196.57262
-252.49944
-311.05368
-372.68284
-437.76281
-506.5876
-579.33964
-656.05715
-736.59882
-820.60907
-907.48912
-996.38145
-1086.1742
-1175.5281
-1262.9215
-1346.7027
-1425.139
-1496.4548
-1558.8586
-1610.5625
-1649.8031
-1674.8752
-1684.1997
-1676.4525
-1650.7044
-1606.5452
-1544.2896
-1465.1357
-1371.1994
-1265.3941
-1151.1697
-1032.1789
-911.95616
-793.66722
-679.95756
-572.89556
-473.98968
-384.25281
-304.29108
-234.40479
-174.68807
-125.07529
-85.291459
-55.022269
-34.934318
-26.790194
-42.746027
-88.586092
-140.40166
-193.29791
-248.47671
-306.37005
-367.46092
-432.1667
-500.82803
-573.6772
-650.80226
-732.10646
-817.26647
-905.69553
-996.52137
-1088.5893
-1180.4949
-1270.6406
-1357.3009
-1438.6793
-1512.9485
-1578.2704
-1632.8046
-1674.7134
-1702.1785
-1713.4591
-1707.0293
-1681.7393
-1636.9532
-1572.8179
-1490.4978
-1392.2539
-1281.3118
-1161.535
-1037.0028
-911.61344
-788.7891
-671.31385
-561.29034
-460.1831
-368.91168
-287.96552
-217.52589
-157.57772
-107.95373
-68.296664
-38.29981
-18.68345
-10.92704
-41.737449
-86.536903
-137.2531
-189.11405
-243.33046
-300.36952
-360.75698
-424.96202
-493.38488
-566.32301
-643.9308
-726.17241
-812.77034
-903.15697
-996.44237
-1091.4144
-1186.5796
-1280.237
-1370.5627
-1455.68
-1533.7006
-1602.7371
-1660.8938
-1706.2494
-1736.8504
-1750.7508
-1746.1567
-1721.6154
-1676.1692
-1609.71
-1523.3304
-1419.4775
-1301.809
-1174.766
-1043.018
-910.95478
-782.33331
-660.10558
-546.40016
-442.60529
-349.50317
-267.4197
-196.37233
-136.19515
-86.586779
-47.090502
-17.368751
1.8953005
9.4341232
-40.595519
-84.127187
-133.49121
-184.07012
-237.08799
-293.05309
-352.5417
-416.08559
-484.15871
-557.14085
-635.27227
-718.59825
-806.90515
-899.65544
-995.93967
-1094.4706
-1193.6352
-1291.5942
-1386.3955
-1476.0642
-1558.6465
-1632.2101
-1694.8104
-1744.4437
-1779.0052
-1796.3015
-1794.1939
-1770.8252
-1724.7866
-1655.5864
-1564.1765
-1453.2323
-1326.999
-1190.712
-1049.8415
-909.42608
-773.6436
-645.63672
-527.53722
-420.60879
-325.4386
-242.13264
-170.49423
-110.16501
-60.679875
-21.460742
7.9040673
26.823634
34.190899
-39.186017
-81.205566
-128.95647
-178.00164
-229.57708
-284.2374
-342.61698
-405.32143
-472.91383
-545.87585
-624.55676
-709.10824
-799.40465
-894.95505
-994.83058
-1097.647
-1201.6308
-1304.7575
-1404.909
-1499.9926
-1587.9892
-1666.9351
-1734.857
-1789.6815
-1829.147
-1850.7728
-1851.989
-1830.4106
-1784.0056
-1711.7094
-1614.2144
-1494.4635
-1357.4976
-1209.6433
-1057.4496
-906.79895
-762.38325
-627.54433
-504.3706
-393.92811
-296.53039
-211.99155
-139.84087
-79.481409
-30.253221
8.5656228
37.490125
56.043762
63.248518
-37.653457
-77.930952
-123.7969
-171.03289
-220.89028
-273.97558
-330.98884
-392.62119
-459.54176
-532.35666
-611.55209
-697.41839
-789.95122
-888.73197
-992.8171
-1100.6985
-1210.3876
-1319.6105
-1426.0331
-1527.4232
-1621.7036
-1706.9074
-1781.0689
-1842.0773
-1887.5233
-1914.6052
-1920.2266
-1901.3236
-1855.0123
-1779.3763
-1674.6457
-1544.0582
-1393.7395
-1231.5244
-1065.4181
-902.39136
-747.74715
-605.01091
-476.1466
-361.91667
-262.25663
-176.59946
-104.13048
-43.963247
4.7913122
43.023641
71.374752
89.494079
96.516892
-35.748823
-74.004843
-117.6921
-162.83157
-210.6819
-261.90431
-317.27083
-377.56972
-443.59422
-516.1005
-595.74492
-682.99682
-778.01806
-880.50124
-989.50016
-1103.3491
-1219.7673
-1336.1399
-1449.8473
-1558.4924
-1659.9572
-1752.3188
-1833.6807
-1901.953
-1954.6115
-1988.5132
-1999.9356
-1984.9555
-1939.5405
-1860.5128
-1747.2976
-1603.4221
-1436.5077
-1256.5011
-1073.3831
-895.51894
-728.91367
-577.21792
-442.13799
-323.98104
-222.16735
-135.63957
-63.159594
-3.4981025
44.496516
81.90435
109.50746
127.08887
133.89258
-33.798643
-69.806256
-111.02791
-153.76795
-199.29486
-248.32739
-301.71462
-360.3526
-425.1775
-497.12422
-577.05838
-665.67875
-763.37434
-870.00877
-984.6604
-1105.4664
-1229.7465
-1354.4139
-1476.4676
-1593.3175
-1702.8405
-1803.2316
-1892.7565
-1969.4404
-2030.7079
-2073.0758
-2092.1041
-2082.7931
-2039.586
-1957.449
-1834.4244
-1674.2476
-1486.6345
-1284.5445
-1080.6577
-885.11622
-704.69078
-543.02758
-401.36516
-279.34231
-175.68596
-88.716633
-16.683892
42.03943
88.898428
125.17875
151.81124
168.71716
175.24992
-31.322737
-64.748369
-103.164
-143.16714
-186.01798
-232.49052
-283.51354
-340.10055
-403.35038
-474.40924
-554.39876
-644.30984
-744.84115
-856.11874
-977.29935
-1106.278
-1239.8199
-1374.1697
-1505.8017
-1631.8968
-1750.3829
-1859.6804
-1958.3494
-2044.6716
-2116.1359
-2168.9576
-2197.9202
-2196.6911
-2157.7329
-2073.3257
-1939.1485
-1758.8898
-1545.2553
-1315.6019
-1086.3279
-869.81869
-673.60698
-501.08706
-352.70798
-227.14605
-122.20866
-35.439821
35.51825
92.742919
137.99735
172.78079
198.173
214.235
220.43253
-28.935361
-59.57503
-94.898094
-131.84691
-171.67529
-215.21028
-263.45979
-317.56082
-378.79218
-448.54496
-528.2484
-619.25867
-722.68964
-839.06451
-967.717
-1106.2535
-1250.6598
-1396.2156
-1538.6638
-1674.9223
-1803.0781
-1921.9456
-2030.5697
-2127.7001
-2211.0803
-2276.7108
-2318.5369
-2328.6708
-2297.094
-2212.1925
-2065.6522
-1860.4855
-1613.7496
-1349.4071
-1089.0113
-847.73857
-633.73485
-449.70526
-294.82741
-166.41707
-61.081536
24.585899
93.645731
148.66926
191.751
224.60056
248.43734
263.45899
269.24618
-25.834193
-53.293429
-85.133349
-118.63361
-155.0089
-195.1277
-240.07122
-291.10201
-349.69479
-417.52254
-496.38364
-588.08857
-694.30549
-816.16092
-953.35368
-1103.179
-1260.5222
-1419.2475
-1574.0536
-1721.5577
-1860.1749
-1989.3365
-2108.7972
-2218.0402
-2315.3464
-2396.6703
-2455.0973
-2481.0203
-2461.4979
-2379.4193
-2219.7584
-1983.4127
-1693.885
-1385.4102
-1086.7047
-816.33272
-582.61627
-386.83346
-226.18374
-96.095918
8.3585654
91.722637
157.84464
209.81607
250.05833
280.47302
302.39849
316.15956
321.45235
-22.988281
-47.105624
-75.194268
-104.9311
-137.49263
-173.78008
-214.93919
-262.35462
-317.70644
-382.98387
-460.41872
-552.37023
-661.22104
-788.98815
-936.05559
-1099.4244
-1272.3865
-1446.6592
-1615.398
-1774.8825
-1924.1585
-2063.6289
-2194.075
-2316.1137
-2429.0551
-2529.151
-2608.6688
-2656.1736
-2655.5157
-2582.0937
-2409.6778
-2133.8913
-1787.8785
-1422.533
-1076.4504
-772.13853
-517.10659
-310.00245
-145.03288
-15.064653
86.748864
166.26558
228.17994
276.09996
312.74386
340.1672
359.79279
372.05517
376.76301
-19.234011
-39.566143
-63.484002
-89.028706
-117.28557
-149.16104
-185.84189
-228.81617
-279.96348
-341.61507
-416.50506
-507.64551
-618.31848
-751.84309
-909.8701
-1089.2877
-1281.1055
-1473.7729
-1658.1742
-1830.2921
-1990.3743
-2140.3279
-2282.2801
-2418.3716
-2549.5401
-2672.7618
-2779.4825
-2856.415
-2884.4365
-2829.5606
-2647.2463
-2321.0874
-1898.5228
-1458.8319
-1053.8858
-710.45813
-433.22544
-216.29706
-49.467014
77.789592
174.63814
248.3917
304.59736
347.33017
379.5403
403.37509
420.29166
430.80753
434.83659
-15.909567
-32.367258
-51.889469
-72.946187
-96.528145
-123.53005
-155.16122
-192.9963
-239.1069
-296.19296
-367.5741
-457.03022
-568.92193
-708.39613
-879.34044
-1079.01
-1295.0594
-1510.744
-1713.4131
-1898.7629
-2069.1475
-2228.699
-2381.122
-2530.4777
-2680.3859
-2829.6041
-2969.1769
-3084.3383
-3154.0992
-3134.0113
-2949.9603
-2559.161
-2029.2979
-1490.9057
-1012.5347
-624.92472
-325.99168
-102.36345
62.502521
183.47656
272.40176
338.09599
386.87968
423.18036
450.07137
469.70185
483.4963
492.01877
495.27605
-11.483939
-23.591274
-38.294718
-54.4387
-72.848181
-94.363298
-120.17006
-151.87525
-191.68081
-242.61958
-308.637
-394.36274
-505.33327
-649.10827
-833.41865
-1057.1184
-1303.0128
-1546.0302
-1768.1212
-1964.9813
-2142.9746
-2309.8851
-2471.3084
-2633.6121
-2804.7358
-2986.7704
-3170.3483
-3338.4985
-3469.9069
-3511.2593
-3344.1369
-2870.7986
-2184.1434
-1512.8702
-942.74524
-506.96184
-189.29476
35.49855
192.78348
302.75053
380.12567
435.11293
474.59764
503.16008
523.83637
538.65828
548.93477
555.23089
557.6292
-7.5459606
-15.399276
-25.214389
-36.27267
-49.208359
-64.768178
-84.069063
-108.69901
-140.93306
-184.11097
-242.90345
-322.98263
-431.1493
-577.96583
-777.58749
-1033.2901
-1320.8806
-1601.2878
-1847.8983
-2056.6841
-2241.3075
-2415.2346
-2585.4245
-2759.5253
-2951.4778
-3168.7941
-3401.8417
-3630.6655
-3839.9344
-3979.4508
-3868.0222
-3294.1305
-2367.87
-1515.4536
-830.29348
-345.15981
-15.872102
201.09506
342.92637
435.89031
497.45819
538.82663
567.05987
586.58913
600.19882
609.65731
616.06259
619.92844
621.39203
-2.4940655
-5.6554295
-10.105334
-15.573883
-22.445069
-31.342491
-43.273987
-59.749535
-83.013178
-116.56771
-165.75632
-237.36441
-339.18056
-484.64187
-697.71927
-992.03979
-1333.7677
-1659.6118
-1930.1034
-2142.147
-2323.1203
-2495.6063
-2666.7933
-2843.1725
-3048.9951
-3303.1742
-3599.0879
-3914.1979
-4241.4074
-4553.2178
-4583.0237
-3903.4787
-2589.3115
-1483.2204
-653.43105
-124.34843
202.50729
397.8471
513.68345
582.39883
623.43323
648.17732
663.26852
672.57998
678.38237
682.01637
684.26795
685.54479
686.01535
2.9587794
3.9729684
4.5462233
4.3727126
3.3872505
1.1545703
-3.1202879
-10.724187
-23.652485
-45.261338
-81.374548
-140.13105
-230.27357
-367.38862
-589.87796
-934.91084
-1357.8541
-1750.6938
-2054.8905
-2266.9256
-2439.8812
-2611.5594
-2788.5992
-2969.4142
-3193.9265
-3500.013
-3883.2976
-4313.0925
-4763.9036
-5291.5205
-5573.8106
-4825.3581
-2837.3022
-1376.2421
-376.92587
174.90839
474.14909
627.8344
704.34008
740.6213
756.28036
761.57921
761.89122
760.03432
757.4774
754.96732
752.88231
751.4726
750.91507
8.2851096
13.265314
19.323507
25.157936
31.020599
36.677804
41.595035
44.762993
44.510316
37.799724
18.452
-23.5393
-98.146908
-220.10663
-443.94226
-853.46458
-1397.2825
-1876.4153
-2210.7436
-2392.8801
-2530.429
-2685.6841
-2862.7833
-3027.8155
-3238.6405
-3573.532
-4023.7142
-4561.7463
-5089.7121
-5960.3613
-6823.7185
-6299.5149
-3074.0132
-1170.9517
36.50664
572.6549
805.01205
890.17366
911.79913
907.31726
893.25929
876.8754
861.26382
847.66126
836.46182
827.67553
821.19685
817.07826
815.48595
17.841136
25.859698
36.761731
47.719729
59.416602
71.80133
84.63148
97.258415
108.52223
116.23572
114.96642
93.715287
41.619895
-49.538522
-244.67568
-715.15167
-1441.8806
-2033.6106
-2413.3737
-2545.7131
-2643.0188
-2787.1998
-2982.1468
-3113.6803
-3276.6778
-3677.6992
-4224.3718
-4961.7036
-5679.3059
-7242.8543
-8882.093
-9068.3533
-3578.1301
-1038.2196
635.19319
1099.0921
1197.351
1178.9795
1129.5275
1077.2886
1030.5876
991.36669
959.44128
934.02445
914.23865
899.2687
888.48487
881.72035
879.11838
22.150586
30.895254
46.136756
62.238236
80.171547
100.10827
122.29211
146.74782
173.26287
201.23844
227.41502
240.71453
225.96315
180.34541
45.408436
-483.28471
-1555.1593
-2311.5
-2773.6631
-2771.01
-2749.6661
-2813.1457
-3022.6418
-3099.9062
-3207.164
-3763.264
-4232.995
-5185.2223
-6470.8435
-7863.4481
-9589.1447
-12103.541
-4823.2665
-72.515094
1722.8307
1811.9828
1641.1422
1478.7602
1346.2297
1243.2035
1163.5573
1101.9566
1054.3115
1017.6218
989.69047
968.87451
954.02891
944.77071
941.21742
36.937087
46.533248
66.460115
87.314022
110.74807
137.07741
166.90658
200.72083
238.86208
281.66264
327.57459
365.35495
371.82654
347.26619
293.74142
-191.10987
-1818.0789
-2617.1361
-3115.4969
-2772.7594
-2626.8084
-2732.5438
-3131.7576
-3271.1282
-3302.4341
0
0
0
0
0
0
0
0
6202.3753
3402.4563
2582.4955
2068.2386
1755.8595
1545.1253
1396.0885
1287.0015
1205.4551
1143.7778
1096.9952
1061.747
1035.6642
1017.1505
1005.6369
1001.2225
35.366756
42.182764
64.028442
87.075114
113.20494
142.73975
176.57931
215.67662
261.07481
314.42462
377.59022
445.98938
502.79968
560.82583
710.68053
552.80383
-1996.7861
-2776.9639
-3646.9054
-2968.6391
-3044.337
-3012.3248
0
0
0
0
0
0
0
0
0
0
10129.575
6286.2539
4123.9549
3000.3244
2361.313
1969.1782
1709.0493
1527.5633
1396.286
1299.0428
1225.9924
1170.8555
1129.4571
1098.8967
1077.2398
1063.784
1058.6266
44.263798
54.95027
80.950071
106.97762
136.15443
169.03606
206.87575
251.10423
303.5062
367.08046
447.11664
546.08857
653.28884
754.39121
842.19534
568.47306
-3108.2259
-3581.6008
-3205.2821
0
0
0
0
0
0
0
0
0
0
0
1780.6723
3364.5948
5756.1169
5236.0899
3961.3826
3100.1686
2507.1432
2107.7402
1830.6544
1632.9921
1488.4299
1380.7309
1299.5698
1238.1936
1192.0515
1157.9577
1133.7808
1118.7536
1112.9926
22.191614
42.166354
66.371047
91.284966
118.75245
149.54733
184.74333
225.50542
273.13254
329.8299
399.5
478.02736
537.53035
536.24778
558.10692
702.38625
0
0
0
0
0
0
-1132.0673
-1103.523
-1011.3052
-917.55585
-790.08466
-495.29847
-94.946856
697.08431
2026.4403
3361.9111
4750.9877
4489.8579
3714.8023
3058.6868
2552.6656
2182.2204
1911.4457
1711.6616
1562.3548
1449.5321
1363.6925
1298.3451
1248.9835
1212.3854
1186.3705
1170.178
1163.9662
19.953999
50.022196
74.970523
100.54387
127.96166
158.05684
191.47974
228.66501
269.57208
313.41808
357.89984
396.5624
406.14922
338.09196
142.01788
-338.13522
-1284.4163
-1227.4742
-1147.1014
-1100.4783
-1051.0813
-1021.6128
-1010.3639
-803.2889
-838.68181
-583.18133
-362.34462
-204.6169
259.08327
904.85505
1960.2931
3049.3238
3956.5658
3851.8969
3404.2983
2933.5973
2528.4618
2206.0157
1956.7042
1765.4225
1618.5289
1505.381
1418.1055
1351.0014
1299.9424
1261.8834
1234.7285
1217.7886
1211.284
20.663337
46.485441
72.120307
97.971836
125.28645
154.8152
187.13919
222.62502
261.25918
302.13423
342.03516
373.73581
384.81896
353.15852
205.21574
-227.92215
-792.30475
-920.95879
-962.54792
-966.15068
-887.80271
-842.32009
-818.54923
-691.79979
-620.94334
-417.53998
-179.14293
77.743314
510.88735
1096.4667
1896.1872
2721.5886
3334.8858
3356.827
3105.657
2777.1433
2463.3576
2193.8102
1973.5976
1797.6787
1658.5139
1548.9432
1463.0389
1396.1805
1344.8436
1306.3178
1278.698
1261.4186
1254.7758
14.996602
36.230631
58.797043
81.291085
104.2909
128.03556
152.53055
177.41602
201.79007
223.68928
238.89706
240.18135
218.2492
159.21465
15.075217
-283.91195
-606.90299
-732.46447
-784.51834
-794.28627
-753.12504
-703.47395
-642.23471
-537.76182
-423.88604
-238.24279
-11.49821
269.8842
668.60883
1187.7226
1823.2427
2450.8968
2889.5208
2967.0589
2834.9723
2613.0013
2376.1816
2157.6764
1969.1886
1812.3857
1684.4724
1581.3763
1499.0911
1434.1698
1383.8001
1345.704
1318.2395
1300.9996
1294.3628
23.838375
46.44492
70.189918
93.656208
117.54428
141.96105
166.72601
191.21051
214.09581
232.81524
242.68448
236.67013
205.98892
135.39773
-7.2592435
-236.5509
-460.15457
-579.80565
-635.38307
-644.54074
-615.83443
-568.2925
-497.28079
-394.45968
-264.34877
-82.932543
139.16137
416.11383
777.02697
1223.7724
1735.5106
2221.7458
2557.2303
2658.5604
2599.6229
2454.8465
2280.178
2107.123
1949.7498
1813.4691
1698.7944
1604.111
1527.1063
1465.4577
1417.0852
1380.1847
1353.418
1336.5535
1330.0513
12.024222
29.927745
50.03225
70.035818
90.0411
109.92732
129.38624
147.747
163.76086
175.18285
178.31584
168.06174
137.63871
74.654482
-40.055
-203.50755
-358.80706
-456.7474
-506.07892
-514.23348
-488.92991
-440.00539
-365.689
-262.60057
-128.53822
46.964518
261.85482
525.19131
849.67466
1232.3377
1648.6366
2032.8061
2301.9491
2411.5834
2398.1279
2308.5357
2183.1597
2048.9512
1920.387
1804.4656
1703.8312
1618.6752
1548.0643
1490.6663
1445.0905
1410.0052
1384.387
1368.1815
1361.9234
21.407273
40.632457
60.854142
80.367787
99.453656
117.84352
135.02371
150.10179
161.62906
167.32376
163.94556
147.5487
113.08123
52.273776
-43.556807
-165.6152
-279.00326
-356.12468
-395.68993
-400.4566
-375.18729
-324.7254
-248.67383
-145.28243
-11.77391
156.79274
361.05944
606.02228
895.95209
1224.4163
1567.8667
1878.5079
2101.9973
2212.1878
2227.1469
2176.7609
2089.8439
1988.0679
1885.1
1788.39
1701.7414
1626.5698
1562.991
1510.4911
1468.2868
1435.486
1411.37
1396.0509
1390.125
11.864159
27.968691
45.959805
63.611689
80.820593
97.232008
112.31674
125.22213
134.61722
138.50977
134.22499
118.55923
87.502442
35.679812
-40.00213
-130.43164
-213.52471
-271.83065
-300.84897
-300.62641
-273.4619
-221.63371
-145.03172
-42.510882
87.994476
248.90889
441.01402
666.30074
924.57445
1207.7346
1495.1772
1752.1626
1942.6284
2049.7641
2082.4755
2059.9384
2002.6784
1927.6337
1846.8496
1767.6917
1694.4094
1629.1885
1572.894
1525.6526
1487.1886
1456.9989
1434.6432
1420.3807
1414.8539
17.140371
33.237348
50.220049
66.364829
81.714384
95.88679
108.32932
118.22221
124.38335
125.18572
118.61239
102.36259
73.691199
29.625579
-29.988747
-97.382057
-158.13641
-200.46207
-219.38485
-213.53434
-183.55763
-130.34303
-53.764117
46.960546
173.10578
325.77688
505.17522
711.24664
941.41858
1187.1584
1431.2316
1648.3116
1813.9324
1916.4941
1960.2189
1957.4981
1922.9613
1869.6954
1807.8368
1744.3106
1683.4267
1627.7753
1578.7192
1536.8594
1502.3259
1474.944
1454.5176
1441.4279
1436.3465
11.965893
26.365748
42.104238
57.216657
71.535814
84.633806
95.955556
104.72786
109.89851
110.11358
103.80214
89.276804
64.758436
28.907471
-17.019524
-66.703576
-110.25
-139.22881
-148.99447
-137.55125
-104.54772
-50.079458
26.068121
124.39903
245.54611
389.78571
556.64757
744.7879
950.46895
1165.4737
1375.7037
1562.5378
1708.9275
1806.4501
1856.8893
1868.2993
1851.1313
1815.4436
1769.5687
1719.725
1670.0961
1623.407
1581.3251
1544.7832
1514.2211
1489.7316
1471.324
1459.4743
1454.866
13.672535
27.359607
41.871706
55.550806
68.315775
79.771232
89.415489
96.58119
100.40724
99.84905
93.763698
81.007319
60.559695
32.098591
-2.5892802
-38.476505
-68.501638
-86.407626
-88.109981
-71.431183
-35.489497
20.054186
95.47954
191.07398
307.0015
442.97376
597.96324
769.86597
954.48598
1144.3021
1327.8972
1491.4048
1622.6064
1715.1569
1769.5579
1791.0639
1787.1666
1765.5774
1733.0734
1695.0582
1655.4636
1616.9946
1581.4711
1550.0423
1523.3735
1501.7675
1485.4002
1474.8153
1470.6914
11.353763
24.027865
37.64516
50.500609
62.432418
73.046825
81.880079
88.352061
91.760747
91.312724
86.206192
75.732861
59.446154
37.651184
12.276137
-12.652317
-31.896826
-40.645099
-35.405032
-14.037789
24.575537
80.988477
155.49863
248.21874
358.97869
487.10042
631.16282
788.66227
955.34922
1124.5377
1287.0001
1432.2484
1551.2806
1639.1812
1695.7799
1724.5055
1730.7502
1720.4244
1699.0135
1671.1271
1640.3517
1609.2938
1579.8158
1553.1934
1530.248
1511.4415
1497.08
1487.7494
1484.1079
11.407429
23.296025
35.923509
47.754383
58.666224
68.305054
76.268484
82.076749
85.182604
85.010437
81.033344
72.876456
60.489219
44.522177
26.847345
10.721207
0.16250069
-1.0282749
10.105423
35.553968
76.498842
133.57361
207.05519
296.915
402.74692
523.60934
657.83562
802.75931
954.29737
1106.6008
1252.1846
1382.9757
1492.1647
1575.8549
1633.5316
1667.4215
1681.4225
1680.0722
1667.8005
1648.5065
1625.3924
1600.9186
1576.9179
1554.7272
1535.268
1519.1188
1506.6847
1498.5705
1495.3987
10.343714
21.51524
33.418509
44.560569
54.805691
63.829443
71.285742
76.787031
79.922872
80.30169
77.620694
71.762787
62.951193
52.019624
40.711825
31.704881
28.182103
33.206459
49.281305
78.204432
121.12221
178.66801
251.07273
338.19343
439.45919
553.75835
679.29338
813.38274
952.21562
1090.7116
1222.7516
1342.0033
1443.1853
1523.1437
1581.1974
1618.774
1638.7039
1644.4831
1639.6906
1627.6169
1611.083
1592.3714
1573.2516
1555.0723
1538.8132
1525.1351
1514.5166
1507.5612
1504.8395
9.9406223
20.476387
31.670334
42.130037
51.74008
60.213306
67.259707
72.575167
75.865269
76.886752
75.510468
71.807564
66.178402
59.538318
53.481595
50.250081
52.431853
62.54407
82.715258
114.54301
159.08961
216.94408
288.27825
372.85701
469.99626
578.4824
696.46794
821.34198
949.60235
1076.8388
1197.9928
1307.9985
1402.6586
1479.3702
1537.3817
1577.5854
1602.046
1613.4719
1614.7643
1608.7019
1597.7599
1584.0285
1569.1944
1554.5867
1541.2125
1529.7898
1520.8528
1514.9874
1512.6936
9.3565041
19.36471
30.008345
39.95635
49.101878
57.191852
63.988262
69.261485
72.815953
74.529307
74.408041
72.661264
69.80178
66.76983
65.018142
66.459671
73.249579
87.495596
111.02123
145.23582
191.09842
249.13297
319.44865
401.73676
495.23727
598.6823
710.22668
827.37332
946.92398
1065.0322
1177.4574
1280.0606
1369.4254
1443.3602
1501.0943
1543.1584
1571.0669
1586.9347
1593.1295
1592.0071
1585.7419
1576.2385
1565.0921
1553.5961
1542.7637
1533.3525
1525.9437
1521.0961
1519.2106
8.9349414
18.485962
28.650102
38.160486
46.922838
54.715665
61.34653
66.648525
70.506309
72.892282
73.915228
73.881822
73.373016
73.323773
75.062207
80.252142
90.729994
108.29454
134.52473
170.66347
217.56528
275.68332
345.06682
425.34923
515.72111
614.89194
721.04888
831.82352
944.29398
1055.0747
1160.5508
1257.2642
1342.3652
1413.9709
1471.3166
1514.6886
1545.206
1564.5398
1574.6429
1577.5292
1575.1202
1569.1528
1561.1299
1552.3028
1543.6753
1536.0298
1529.9957
1526.1076
1524.6263
8.549106
17.743462
27.5397
36.720624
45.20114
52.7881
59.328755
64.708668
68.877086
71.879966
73.902259
75.318395
76.748829
79.109763
83.625695
91.773047
105.1533
125.33316
153.69931
191.35473
239.05863
297.19709
365.76625
444.35513
532.12344
627.77734
729.54992
835.19771
942.03547
1047.0437
1147.0794
1239.1828
1320.9149
1390.6227
1447.5584
1491.8428
1524.312
1546.3088
1559.4682
1565.5347
1566.2223
1563.1246
1557.6593
1551.0354
1544.2391
1538.0666
1533.2131
1530.2281
1529.1733
8.1798125
17.102103
26.616399
35.549391
43.821687
51.264853
57.758914
63.231114
67.680369
71.207588
74.052669
76.635896
79.599534
83.83752
90.492469
100.90242
116.49798
138.67454
168.67216
207.48191
255.78281
313.90311
381.79495
459.01416
544.70201
637.57128
735.90279
837.56245
940.0562
1040.6448
1136.5328
1225.1191
1304.2585
1372.4662
1429.0141
1473.9123
1507.7985
1531.7775
1547.2492
1555.7521
1558.8388
1557.9877
1554.5459
1549.689
1544.3862
1539.4369
1535.617
1533.5684
1533.0778
7.8074831
16.60328
25.940296
34.712486
42.846982
50.199322
56.676547
62.23797
66.919244
70.860786
74.340575
77.808703
81.918362
87.542455
95.761748
107.8161
125.01743
148.64075
179.82021
219.46346
268.18769
326.27589
393.64666
469.83244
553.96426
644.76514
740.55764
839.2946
938.62585
1036.015
1128.9112
1214.9615
1292.2232
1359.3289
1415.5685
1460.8802
1495.767
1521.1691
1538.3194
1548.6079
1553.4683
1554.2921
1552.3724
1548.8591
1544.7055
1540.6823
1537.6141
1536.3938
1536.6789
7.3041778
16.167712
25.424193
34.111404
42.165195
49.465556
55.940314
61.57095
66.417223
70.644592
74.554364
78.613712
83.480059
90.010575
99.246123
112.36659
130.61034
155.17372
187.12063
227.30326
276.29698
334.35395
401.37025
476.86344
559.9592
649.38947
743.50698
840.32408
937.5861
1032.888
1123.8348
1208.2294
1284.2565
1350.6235
1406.6336
1452.1816
1487.6872
1513.9862
1532.205
1543.6368
1549.6373
1551.5384
1550.5928
1547.9361
1544.5157
1541.0472
1538.3507
1537.9201
1540.1132
6.0814771
15.835494
25.143191
33.822814
41.845919
49.124525
55.600681
61.268064
66.19874
70.570694
74.696984
79.053529
84.300625
91.290272
101.04812
114.71789
133.49029
158.52479
190.85539
231.30734
280.43519
338.47538
405.31254
480.45665
563.03086
651.77195
745.04835
840.90298
937.12951
1031.3887
1121.3627
1204.9315
1280.3425
1346.3408
1402.2366
1447.9045
1483.724
1510.4799
1529.2466
1541.2705
1547.8636
1550.3273
1549.9023
1547.7276
1544.7605
1541.6762
1539.2604
1539.7834
1545.6256
-2227.7588
-2483.6255
-2699.5397
-2881.4845
-3023.9682
-3106.2153
-3108.2259
-3029.2215
-2857.2786
-2664.0033
-3205.3901
-3205.2821
-3198.4367
-3187.45
-3173.3358
-3160.5831
-3148.7474
-3158.2141
-3158.8162
-3131.4117
-3183.0323
-3181.9078
-3167.1535
-3150.1904
-3133.2753
-3124.2845
-3105.9919
-3113.209
-3100.0774
-3046.5513
-3137.8431
-3135.1811
-3126.5778
-3117.882
-3109.0884
-3112.1005
-3101.0049
-3098.9723
-3085.5711
-3048.7093
-3078.1509
-3076.7163
-3072.1708
-3066.2534
-3057.7478
-3058.1477
-3057.8135
-3057.1433
-3055.6649
-3059.4017
-3030.1703
-3029.378
-3023.6173
-3013.4562
-2998.2015
-2968.6391
-2990.8031
-3003.1038
-3009.7494
-3023.098
-3013.4143
-3015.1083
-3018.3601
-3021.7473
-3032.6641
-3008.5384
-3008.2163
-3004.5889
-2989.6706
-2966.6824
-3027.9243
-3029.5551
-3035.6408
-3044.337
-3068.3869
-3076.1034
-3056.7224
-3030.705
-3000.8681
-2965.4642
-3848.4532
-3860.7655
-3831.7267
-3787.3171
-3749.7573
-3717.6922
-3696.1888
-3682.4627
-3673.5228
-3675.2649
-2986.9817
-2985.7896
-2977.9086
-2960.9531
-2921.5849
-2946.946
-2958.9509
-2961.1438
-2950.6581
-2923.5514
-3009.2483
-3012.3248
-3018.6882
-3037.9313
-3013.9708
-3005.2505
-3001.2991
-2993.8838
-2979.8939
-2964.7523
-3048.508
-3050.9607
-3056.1388
-3080.7283
-3093.4978
-3069.4254
-3042.6932
-3022.4085
-3003.5396
-2987.0538
-2999.6616
-2995.8329
-2976.9441
-2951.6634
-2974.6005
-2992.0813
-3003.3201
-3010.7397
-3013.0026
-3020.0199
-3033.2674
-3035.7278
-3034.8643
-2997.9733
-3007.1065
-3020.7192
-3031.5192
-3038.7521
-3041.8013
-3051.3658
-3156.8918
-3164.6857
-3188.919
-3187.4484
-3159.5487
-3131.7576
-3111.0641
-3095.6711
-3080.2535
-3063.0206
-3141.9791
-3137.1443
-3129.6606
-3149.8317
-3150.4256
-3144.633
-3138.4106
-3132.9755
-3126.9775
-3128.8797
-3162.7564
-3162.0358
-3137.7513
-3147.9054
-3159.3511
-3167.4872
-3171.9074
-3173.7111
-3173.0017
-3177.703
-3277.1169
-3289.5201
-3285.4694
-3271.1282
-3255.8065
-3243.7656
-3235.0341
-3229.2405
-3222.4252
-3213.8648
-3282.4894
-3286.5609
-3294.0155
-3285.9376
-3276.2945
-3270.7945
-3270.5594
-3275.0006
-3280.0413
-3292.3437
-3186.3253
-3172.2153
-3189.5517
-3215.4286
-3244.902
-3273.5989
-3300.5728
-3325.1457
-3345.2986
-3370.2638
-3326.0532
-3302.4341
-3312.0416
-3332.3492
-3359.1127
-3384.3606
-3406.8262
-3425.2575
-3437.776
-3453.4909
-3701.675
-3692.6556
-3661.9569
-3627.8859
-3602.8071
-3583.3219
-3571.2318
-3564.0739
-3557.9589
-3555.0929
-3016.6796
-3015.154
-3009.7388
-2998.1205
-2992.6345
-2999.8931
-2999.5302
-2994.1797
-2984.9476
-2983.9239
-3540.5401
-3549.1369
-3563.5711
-3610.855
-3667.0306
-3718.8621
-3739.9443
-3721.8052
-3638.1043
-3466.2544
-3268.7603
-3268.9951
-3271.9446
-3276.8127
-3277.9235
-3277.0275
-3275.0662
-3269.9216
-3265.7639
-3219.2866
-3179.5268
-3227.5532
-3289.6678
-3394.371
-3505.6965
-3592.5222
-3635.078
-3595.2085
-3447.0648
-3214.6357
-3480.279
-3490.3225
-3511.2532
-3547.9524
-3581.6008
-3610.2603
-3618.8313
-3618.3266
-3582.5484
-3470.1591
-3367.3473
-3371.7372
-3385.9168
-3409.875
-3430.8359
-3448.4919
-3456.6175
-3446.1986
-3433.5808
-3381.8291
11318.722
10715.547
10129.575
9489.9395
8832.8463
8179.5394
7545.1806
6936.784
6347.3443
5770.3044
8301.849
8224.5321
8101.2601
7839.608
7501.7196
7111.2853
6689.607
6254.5666
5816.3994
5360.0014
-3709.5014
-3727.937
-3745.3447
-3751.311
-3759.9997
-3763.264
-3768.0594
-3771.4952
-3772.8204
-3776.312
-3705.8525
-3709.7037
-3745.05
-3776.2807
-3815.3396
-3842.5113
-3866.4376
-3882.4676
-3891.1151
-3895.303
-3946.5158
-3939.2804
-3955.5092
-3963.0863
-3991.4663
-4009.846
-4029.6729
-4042.6492
-4048.0685
-4043.6186
-4222.4235
-4212.0685
-4226.3374
-4216.9238
-4232.995
-4234.8769
-4241.3996
-4242.4482
-4238.8761
-4234.5151
-4544.877
-4526.7373
-4538.4824
-4511.4473
-4515.2331
-4497.3862
-4484.9281
-4464.9011
-4437.2336
-4404.873
-4901.1057
-4873.8836
-4883.4906
-4837.0694
-4828.6374
-4790.1485
-4757.3176
-4713.8955
-4659.226
-4599.015
-5281.8498
-5243.3995
-5252.0396
-5185.2223
-5165.6722
-5107.5835
-5056.188
-4992.7191
-4916.4638
-4831.1518
-5682.8605
-5630.7854
-5639.6101
-5550.589
-5519.7721
-5441.5441
-5370.8778
-5288.4429
-5198.4689
-5115.9185
-6105.0443
-6035.9218
-6045.7709
-5931.7766
-5888.3059
-5787.8971
-5693.5296
-5583.5011
-5458.188
-5322.5875
-6548.5006
-6458.4128
-6470.8435
-6329.1986
-6271.9444
-6149.0597
-6030.8967
-5896.7846
-5747.1785
-5585.4192
-7019.3417
-6902.2107
-6917.9747
-6744.492
-6670.3458
-6522.7549
-6376.8535
-6214.6286
-6036.1372
-5850.2666
-7516.4406
-7366.2092
-7388.3266
-7179.8873
-7085.7242
-6911.6638
-6733.8688
-6537.7864
-6319.1652
-6081.8851
-8058.1151
-7863.4481