/*--------------------------------*- C++ -*----------------------------------*\
| =========                 |                                                 |
| \\      /  F ield         | foam-extend: Open Source CFD                    |
|  \\    /   O peration     | Version:     4.1                                |
|   \\  /    A nd           | Web:         http://www.foam-extend.org         |
|    \\/     M anipulation  |                                                 |
\*---------------------------------------------------------------------------*/
FoamFile
{
    version     2.0;
    format      ascii;
    class       surfaceScalarField;
    location    "1.15";
    object      phi;
}
// * * * * * * * * * * * * * * * * * * * * * * * * * * * * * * * * * * * * * //

dimensions      [0 3 -1 0 0 0 0];

internalField   nonuniform List<scalar> 
8438
(
-0.59744043
0.0016735539
-0.59917929
0.0017388568
-0.60095307
0.0017737757
-0.60277077
0.0018176987
-0.60464215
0.0018713805
-0.60657764
0.0019354978
-0.60858666
0.0020090192
-0.61067682
0.0020901535
-0.61285322
0.0021764026
-0.61511779
0.0022645747
-0.61746857
0.0023507799
-0.61989904
0.0024304661
-0.62239756
0.0024985213
-0.62494703
0.0025494655
-0.62752475
0.0025777282
-0.63010277
0.0025780117
-0.63264836
0.0025455909
-0.63512497
0.0024766132
-0.6374932
0.002368228
-0.63971178
0.0022185779
-0.6417385
0.0020267236
-0.64353105
0.0017925513
-0.64504781
0.0015167544
-0.64624876
0.0012009543
-0.64709677
0.00084801223
-0.64755932
0.00046254516
-0.64761063
5.1308113e-05
-0.64723332
-0.0003773093
-0.6464224
-0.00081091764
-0.64518935
-0.0012330482
-0.64356306
-0.001626293
-0.64158957
-0.0019734832
-0.63932997
-0.0022595995
-0.6368563
-0.0024736743
-0.6342463
-0.0026100041
-0.63157791
-0.002668391
-0.62892442
-0.0026534843
-0.62635089
-0.0025735326
-0.62391197
-0.0024389141
-0.62165122
-0.0022607574
-0.61960137
-0.0020498422
-0.61778553
-0.0018158452
-0.61621862
-0.0015669064
-0.61490908
-0.0013095389
-0.61385998
-0.0010491001
-0.61306953
-0.00079045789
-0.61253402
-0.00053550968
-0.6122586
-0.00027541862
-1.364805e-05
-0.61123264
0.0031392969
-0.61269177
0.0031979902
-0.61417806
0.0032600709
-0.61570478
0.0033444189
-0.61728438
0.0034509752
-0.61892805
0.0035791729
-0.62064566
0.0037266232
-0.62244515
0.0038896494
-0.624332
0.0040632448
-0.62630845
0.0042410248
-0.62837286
0.0044151948
-0.630519
0.0045766053
-0.63273543
0.0047149504
-0.63500511
0.0048191503
-0.6373053
0.0048779171
-0.63960779
0.0048805029
-0.64187954
0.0048173334
-0.64408355
0.0046806268
-0.64617998
0.0044646574
-0.64812713
0.0041657246
-0.64988237
0.0037819713
-0.65140299
0.0033131658
-0.65264688
0.002760642
-0.65357346
0.0021275326
-0.65414483
0.0014193871
-0.65432746
0.00064517752
-0.65409465
-0.00018150596
-0.65343055
-0.0010414116
-0.65233202
-0.0019094404
-0.65081001
-0.0027550644
-0.64889255
-0.0035437458
-0.64662541
-0.0042406327
-0.64406997
-0.0048150374
-0.64129911
-0.0052445353
-0.63839159
-0.0055175251
-0.63542627
-0.0056337104
-0.63247706
-0.0056026878
-0.62960927
-0.0054413279
-0.62687745
-0.0051707289
-0.62432482
-0.0048133917
-0.62198367
-0.004390994
-0.61987663
-0.0039228847
-0.61801828
-0.0034252546
-0.61641682
-0.0029109978
-0.61507556
-0.0023903566
-0.61399476
-0.0018712625
-0.6131739
-0.0013563653
-0.61260473
-0.00084459535
-0.00037357405
-0.61227816
0.0045549042
-0.61369204
0.0046118718
-0.61513076
0.0046987909
-0.61660928
0.0048229344
-0.61814089
0.0049825852
-0.6197374
0.0051756813
-0.62140914
0.0053983644
-0.62316457
0.0056450865
-0.62500972
0.0059083916
-0.62694746
0.0061787631
-0.6289768
0.0064445309
-0.63109211
0.0066919237
-0.63328251
0.0069053444
-0.6355313
0.0070679397
-0.63781585
0.0071624735
-0.64010786
0.0071725038
-0.64237393
0.0070834081
-0.64457667
0.0068833644
-0.64667577
0.0065637565
-0.64862913
0.0061190837
-0.65039376
0.0055466086
-0.65192654
0.0048459441
-0.6531848
0.0040188963
-0.65412705
0.0030697856
-0.65471405
0.0020063866
-0.65491039
0.000841517
-0.65468692
-0.00040497089
-0.65402359
-0.0017047454
-0.65291294
-0.0030200929
-0.65136391
-0.0043040923
-0.64940441
-0.0055032467
-0.64708189
-0.0065631512
-0.64446119
-0.0074357374
-0.64161972
-0.0080860045
-0.63864107
-0.0084961745
-0.63560841
-0.0086663699
-0.6325989
-0.008612195
-0.62967981
-0.0083604211
-0.62690645
-0.0079440885
-0.62432178
-0.00739806
-0.62195718
-0.0067555931
-0.61983398
-0.006046089
-0.6179653
-0.0052939347
-0.61635794
-0.0045183528
-0.61501429
-0.0037340082
-0.6139345
-0.0029510587
-0.61311683
-0.0021740356
-0.61255277
-0.0014086508
-0.00068139505
-0.61263502
0.0059411274
-0.61402853
0.0060053857
-0.61544753
0.0061177884
-0.61690696
0.0062823687
-0.6184206
0.0064962251
-0.62000096
0.0067560342
-0.62165913
0.0070565368
-0.62340443
0.0073903865
-0.62524378
0.0077477466
-0.62718103
0.0081160053
-0.62921608
0.0084795893
-0.63134414
0.0088199813
-0.63355484
0.0091160483
-0.6358317
0.0093447921
-0.63815179
0.0094825636
-0.64048603
0.0095067486
-0.64279991
0.0093972893
-0.64505466
0.0091381109
-0.64720859
0.0087176847
-0.64921832
0.0081288185
-0.65103974
0.0073680248
-0.65262859
0.0064347928
-0.65394093
0.0053312402
-0.65493362
0.0040624727
-0.65556509
0.0026378617
-0.65579688
0.0010733079
-0.65559602
-0.00060583215
-0.65493839
-0.0023623804
-0.65381282
-0.0041456638
-0.65222569
-0.0058912167
-0.65020461
-0.0075243342
-0.64779962
-0.0089681331
-0.64508099
-0.010154376
-0.64213332
-0.011033665
-0.63904788
-0.011581622
-0.63591457
-0.011799672
-0.6328156
-0.011711166
-0.62982119
-0.011354836
-0.62698769
-0.010777589
-0.62435757
-0.010028174
-0.62196071
-0.0091524573
-0.61981635
-0.0081904487
-0.61793537
-0.0071749115
-0.61632247
-0.0061312553
-0.61497832
-0.0050781602
-0.61390148
-0.0040278974
-0.61308836
-0.0029871595
-0.61253356
-0.0019634519
-0.00097000051
-0.61305952
0.0073002999
-0.61442981
0.0073756748
-0.61582655
0.0075145225
-0.61726487
0.0077206935
-0.61875905
0.0079904013
-0.62032236
0.0083193514
-0.62196688
0.0087010495
-0.62370299
0.0091264951
-0.62553883
0.0095835897
-0.62747952
0.010056692
-0.62952623
0.010526301
-0.63167524
0.010968994
-0.63391696
0.01135777
-0.63623514
0.011662969
-0.63860644
0.011853867
-0.64100068
0.011900987
-0.64338167
0.011778282
-0.64570871
0.011465145
-0.64793818
0.010947153
-0.65002501
0.01021565
-0.65192364
0.0092666578
-0.65358851
0.0080996593
-0.65497418
0.006716911
-0.65603547
0.0051237677
-0.65672792
0.0033303106
-0.65700901
0.0013543963
-0.65684062
-0.0007742235
-0.65619285
-0.0030101438
-0.65504896
-0.0052895603
-0.65341127
-0.0075289058
-0.65130656
-0.0096290461
-0.64878841
-0.011486277
-0.6459348
-0.013007992
-0.64284078
-0.014127683
-0.63960858
-0.014813822
-0.6363377
-0.015070547
-0.63311726
-0.014931609
-0.63002138
-0.014450722
-0.62710755
-0.013691412
-0.6244173
-0.012718425
-0.62197816
-0.011591595
-0.61980638
-0.010362233
-0.61790967
-0.0090716248
-0.61628982
-0.0077511022
-0.61494508
-0.0064229006
-0.61387185
-0.0051011305
-0.61306518
-0.0037938246
-0.61252118
-0.0025074568
-0.001246376
-0.61359673
0.0086272355
-0.61493735
0.008716303
-0.61630579
0.0088829561
-0.61771734
0.0091322406
-0.61918683
0.0094598972
-0.62072846
0.0098609831
-0.62235543
0.010328013
-0.62407948
0.010850551
-0.62591032
0.011414424
-0.62785471
0.012001081
-0.6299155
0.012587092
-0.63209046
0.013143955
-0.63437108
0.013638392
-0.63674151
0.014033401
-0.63917792
0.014290277
-0.64164865
0.014371712
-0.64411526
0.014244895
-0.64653442
0.013884306
-0.64885998
0.013272714
-0.65104473
0.012400392
-0.6530414
0.01126333
-0.65480298
0.0098612434
-0.65628243
0.0081963581
-0.65743224
0.0062735828
-0.65820442
0.004102489
-0.65855132
0.0017012912
-0.65842805
-0.00089749301
-0.65779687
-0.0036413209
-0.65663307
-0.0064533655
-0.65493287
-0.0092291009
-0.6527213
-0.011840613
-0.65005642
-0.014151163
-0.64702678
-0.016037632
-0.64374197
-0.017412492
-0.64031938
-0.018236413
-0.63687145
-0.018518476
-0.63349633
-0.018306724
-0.63027291
-0.017674145
-0.62725968
-0.016704638
-0.6244964
-0.01548171
-0.62200713
-0.014080866
-0.61980387
-0.012565495
-0.61788999
-0.010985499
-0.61626333
-0.0093777643
-0.6149187
-0.0077675333
-0.61384965
-0.0061701814
-0.61304957
-0.0045939021
-0.61251419
-0.0030428332
-0.0015156193
-0.61424974
0.0099181926
-0.61555477
0.010021332
-0.61688851
0.010216691
-0.61826696
0.010510693
-0.61970575
0.010898689
-0.62122013
0.011375362
-0.62282464
0.011932525
-0.6245327
0.012558603
-0.62635589
0.013237617
-0.62830311
0.013948298
-0.63037935
0.01466334
-0.63258439
0.015348989
-0.6349112
0.01596521
-0.6373446
0.016466801
-0.63986019
0.016805864
-0.6424244
0.016935925
-0.64499582
0.016816312
-0.64752762
0.016416103
-0.64997035
0.015715448
-0.65227418
0.014704224
-0.65439
0.013379142
-0.65626937
0.011740615
-0.65786373
0.0097907205
-0.65912321
0.0075330631
-0.65999581
0.004975088
-0.66042767
0.0021331545
-0.66036531
-0.00095985089
-0.65976054
-0.004246091
-0.65857753
-0.0076363826
-0.65680339
-0.011003242
-0.65445972
-0.014184278
-0.65160995
-0.017000933
-0.64835693
-0.019290649
-0.64483014
-0.020939288
-0.6411675
-0.021899052
-0.63749854
-0.022187433
-0.63393282
-0.021872442
-0.63055468
-0.021052288
-0.6274231
-0.019836216
-0.62457485
-0.01832996
-0.62202905
-0.016626671
-0.61979195
-0.014802587
-0.61786131
-0.012916149
-0.61622985
-0.011009221
-0.61488808
-0.0091093046
-0.61382607
-0.0072321934
-0.61303484
-0.0053851251
-0.61250836
-0.0035693115
-0.0017790334
-0.61501302
0.011164731
-0.61627519
0.011283509
-0.61756744
0.011508939
-0.6189062
0.011849445
-0.62030791
0.012300407
-0.62178903
0.012856482
-0.62336566
0.013509151
-0.62505314
0.014246085
-0.6268654
0.015049872
-0.62881392
0.01589682
-0.63090646
0.016755881
-0.63314538
0.017587913
-0.63552577
0.018345595
-0.63803343
0.018974465
-0.6406434
0.019415836
-0.64331969
0.019612216
-0.64601692
0.01951354
-0.64868364
0.019082819
-0.65126616
0.018297965
-0.65371148
0.017149551
-0.65596857
0.015636233
-0.65798788
0.013759919
-0.6597197
0.011522539
-0.66111201
0.0089253789
-0.66210859
0.0059716644
-0.66264834
0.0026729077
-0.66266712
-0.00094107278
-0.66210313
-0.0048100817
-0.66090526
-0.0088342484
-0.65904715
-0.012861349
-0.65654415
-0.016687286
-0.65346577
-0.020079313
-0.64993404
-0.022822375
-0.64610561
-0.024767719
-0.64214609
-0.025858571
-0.63820724
-0.026126286
-0.63441259
-0.025667086
-0.6308523
-0.024612586
-0.62758468
-0.023103829
-0.62464166
-0.021272987
-0.62203532
-0.019233008
-0.61976432
-0.017073585
-0.61781917
-0.014861301
-0.61618631
-0.012642086
-0.61485101
-0.0104446
-0.6137993
-0.0082839002
-0.6130193
-0.0061651306
-0.61250256
-0.004086045
-0.0020367981
-0.61588763
0.01236345
-0.61710097
0.01249685
-0.61834484
0.012752814
-0.61963681
0.013141409
-0.62099436
0.013657964
-0.6224353
0.014297414
-0.62397747
0.015051327
-0.6256385
0.015907109
-0.62743504
0.016846416
-0.62938179
0.017843574
-0.63148996
0.018864048
-0.63376531
0.019863259
-0.63620577
0.020786058
-0.63879877
0.021567462
-0.64151884
0.022135913
-0.64432696
0.02242033
-0.64717248
0.022359064
-0.64999781
0.02190815
-0.65274377
0.021043924
-0.65535362
0.019759402
-0.65777449
0.018057104
-0.65995631
0.015941731
-0.66184905
0.013415278
-0.66339922
0.010475551
-0.66454645
0.0071188968
-0.66522155
0.003348005
-0.66534742
-0.0008151955
-0.66484477
-0.0053127327
-0.6636417
-0.010037322
-0.66169199
-0.014811056
-0.65899998
-0.019379304
-0.65564159
-0.023437694
-0.65176465
-0.026699316
-0.64756318
-0.028969187
-0.64324015
-0.030181603
-0.63897606
-0.030390382
-0.63491116
-0.02973198
-0.63114116
-0.028382587
-0.6277217
-0.026523291
-0.62467707
-0.024317615
-0.62200963
-0.021900447
-0.61970807
-0.019375149
-0.61775382
-0.016815552
-0.61612566
-0.014270246
-0.61480272
-0.011767531
-0.61376636
-0.0093202635
-0.61300126
-0.0069302322
-0.61249631
-0.0045909971
-0.0022881552
-0.61686695
0.013502429
-0.61802273
0.013652626
-0.61921048
0.013940565
-0.620448
0.014378932
-0.62175373
0.014963693
-0.62314685
0.015690533
-0.62464717
0.016551643
-0.62627485
0.017534788
-0.62804979
0.018621363
-0.62999056
0.019784337
-0.63211264
0.020986133
-0.63442622
0.022176835
-0.63693313
0.023292972
-0.63962327
0.024257602
-0.64247095
0.024983596
-0.64543332
0.025382693
-0.64845272
0.02537847
-0.65146324
0.02491867
-0.65439849
0.023979169
-0.65719726
0.022558174
-0.65980518
0.020665029
-0.66217271
0.018309259
-0.66425089
0.015493461
-0.66598605
0.01221071
-0.66731432
0.0084471613
-0.66815778
0.0041914699
-0.6684241
-0.00054887705
-0.66801171
-0.0057251292
-0.66682075
-0.011228272
-0.66477605
-0.016855761
-0.661863
-0.022292355
-0.65816324
-0.027137452
-0.65385952
-0.031003034
-0.64919799
-0.033630718
-0.6444323
-0.034947291
-0.63977993
-0.035042752
-0.63540052
-0.034111393
-0.63139396
-0.032389152
-0.62780978
-0.030107465
-0.62466073
-0.027466669
-0.6219358
-0.024625378
-0.61961083
-0.021700113
-0.61765612
-0.018770267
-0.61604136
-0.015885008
-0.61473866
-0.013070229
-0.61372415
-0.010334775
-0.61297875
-0.0076756333
-0.61248854
-0.0050812055
-0.0025317433
-0.61794999
0.014580952
-0.6190427
0.014745335
-0.62016708
0.01506495
-0.62134237
0.015554225
-0.62258813
0.016209452
-0.62392503
0.017027429
-0.62537496
0.018001571
-0.62696093
0.019120765
-0.62870659
0.020367018
-0.63063507
0.021712819
-0.6327672
0.023118264
-0.6351188
0.024528432
-0.63769705
0.025871217
-0.64049561
0.027056169
-0.64348917
0.027977156
-0.64663017
0.028523691
-0.64985154
0.028599839
-0.65307597
0.028143105
-0.6562275
0.027130693
-0.65923963
0.025570303
-0.66205721
0.023482611
-0.66463293
0.020884981
-0.66692107
0.017781597
-0.66886987
0.014159514
-0.67041338
0.00999067
-0.67146478
0.0052428683
-0.6719144
-9.9255584e-05
-0.67163255
-0.0060069798
-0.67048228
-0.012378543
-0.6683464
-0.018991637
-0.6651784
-0.025460355
-0.66106264
-0.031253214
-0.65622978
-0.035835894
-0.65099994
-0.038860561
-0.64569621
-0.040251026
-0.64058341
-0.04015555
-0.63584263
-0.038852176
-0.63157474
-0.036657034
-0.62781775
-0.033864458
-0.62456722
-0.030717194
-0.62179414
-0.027398465
-0.61945803
-0.024036221
-0.6175157
-0.020712595
-0.61592635
-0.017474359
-0.61465426
-0.014342322
-0.61366992
-0.01131911
-0.61295032
-0.0083952375
-0.61247874
-0.0055527812
-0.0027656863
-0.61913342
0.015582077
-0.6201522
0.015764115
-0.62120414
0.016116894
-0.62230813
0.016658211
-0.62348446
0.017385781
-0.6247552
0.018298172
-0.62614442
0.019390787
-0.62767823
0.020654583
-0.62938453
0.022073311
-0.6312919
0.023620189
-0.6334277
0.025254067
-0.635815
0.026915728
-0.63846822
0.028524447
-0.64138685
0.029974794
-0.64454707
0.031137375
-0.6478957
0.031872325
-0.65135285
0.032056991
-0.65482532
0.031615567
-0.65822401
0.030529391
-0.66147604
0.028822331
-0.66452662
0.026533194
-0.66733319
0.023691546
-0.66985629
0.020304696
-0.67204933
0.016352552
-0.67384686
0.011788208
-0.67515374
0.0065497452
-0.67583973
0.00058673167
-0.67574211
-0.0061045989
-0.67467694
-0.013443716
-0.6724656
-0.021202973
-0.66900823
-0.028917727
-0.66438415
-0.035877288
-0.65889057
-0.041329474
-0.65295509
-0.044796048
-0.64699687
-0.046209244
-0.64134098
-0.045811436
-0.63619038
-0.044002778
-0.63164062
-0.041206791
-0.62770974
-0.037795345
-0.62436842
-0.034058512
-0.62156367
-0.030203213
-0.6192347
-0.026365187
-0.61732238
-0.022624924
-0.61577404
-0.019022694
-0.61454554
-0.015570823
-0.61360156
-0.012263095
-0.61291513
-0.0090816638
-0.61246693
-0.0060009799
-0.0029876666
-0.62040709
0.016509545
-0.62134755
0.016704573
-0.62231976
0.017089104
-0.62334419
0.017682636
-0.62444207
0.018483661
-0.62563684
0.019492943
-0.62695474
0.020708687
-0.62842519
0.022125035
-0.63008077
0.023728892
-0.63195642
0.025495834
-0.63408739
0.027385042
-0.63650589
0.029334228
-0.63923608
0.031254636
-0.64228608
0.033024795
-0.6456357
0.034486995
-0.64922522
0.035461846
-0.65295707
0.035788833
-0.65671536
0.035373866
-0.66039282
0.03420685
-0.66390883
0.032338341
-0.66721126
0.029835617
-0.67026627
0.026746557
-0.67304525
0.023083678
-0.67551155
0.018818856
-0.67760459
0.013881247
-0.67922292
0.0081680687
-0.68021418
0.0015779975
-0.68037589
-0.0059428899
-0.6794635
-0.014356109
-0.67721207
-0.0234544
-0.67343382
-0.032695978
-0.66818554
-0.04112557
-0.66185781
-0.047657205
-0.65503903
-0.051614824
-0.64828274
-0.052965532
-0.64198969
-0.052104487
-0.6363815
-0.049610966
-0.63153702
-0.046051271
-0.62744163
-0.041890734
-0.62403069
-0.037469454
-0.62121991
-0.033013995
-0.61892367
-0.02866143
-0.61706446
-0.024484135
-0.61557672
-0.020510426
-0.61440759
-0.01673996
-0.61351602
-0.013154666
-0.6128714
-0.0097262777
-0.61245211
-0.0064202712
-0.003194978
-0.62177477
0.017340367
-0.62262371
0.017553514
-0.62350577
0.017971162
-0.62444003
0.01861689
-0.62544788
0.019491516
-0.62655379
0.020598847
-0.627786
0.0219409
-0.6291773
0.02351634
-0.63076539
0.025316982
-0.63259248
0.027322917
-0.63470337
0.029495935
-0.63714179
0.031772646
-0.63994491
0.034057758
-0.64313388
0.036213761
-0.64669607
0.038049188
-0.65056506
0.039330837
-0.65461896
0.03984273
-0.65870922
0.039464125
-0.6627027
0.038200335
-0.66650943
0.036145069
-0.67008343
0.033409618
-0.67340508
0.030068208
-0.67646208
0.026140672
-0.67923363
0.02159041
-0.68167024
0.016317859
-0.68366822
0.010166047
-0.68505238
0.0029621587
-0.68557399
-0.0054212831
-0.68491431
-0.015015786
-0.68268964
-0.025679074
-0.67856899
-0.036816622
-0.67254907
-0.047145492
-0.66515201
-0.055054263
-0.65721552
-0.059551323
-0.64948256
-0.060698493
-0.64244689
-0.05914015
-0.63633821
-0.05571965
-0.63119908
-0.0511904
-0.62696361
-0.046126205
-0.62351802
-0.040915038
-0.62073808
-0.035793943
-0.61850862
-0.030890889
-0.6167317
-0.02626105
-0.61532832
-0.021913807
-0.61423708
-0.017831197
-0.61341178
-0.013979967
-0.61281874
-0.010319316
-0.61243456
-0.0068044515
-0.0033845925
-0.62320309
0.018083517
-0.62395741
0.018307832
-0.62474202
0.018755771
-0.6255774
0.019452275
-0.62648531
0.020399426
-0.62749101
0.021604546
-0.62862459
0.023074481
-0.62992217
0.024813918
-0.63142685
0.026821662
-0.63318902
0.029085088
-0.63526485
0.031571758
-0.63771231
0.034220111
-0.64058558
0.036931029
-0.64392474
0.039552923
-0.64773128
0.041855724
-0.65193289
0.043532445
-0.65637336
0.044283206
-0.66085525
0.043946015
-0.66520719
0.042552275
-0.66932731
0.040265183
-0.67318184
0.037264153
-0.676774
0.033660366
-0.68011575
0.029482423
-0.68321108
0.024685735
-0.68603236
0.019139149
-0.68848224
0.012615918
-0.69036397
0.0048438929
-0.6913764
-0.0044088568
-0.69111305
-0.015279132
-0.68903173
-0.02776039
-0.68457155
-0.041276806
-0.67759112
-0.054125918
-0.6687955
-0.063849883
-0.65942573
-0.0689211
-0.65049282
-0.069631399
-0.64260016
-0.067032812
-0.63596042
-0.062359385
-0.63054757
-0.056603256
-0.62621769
-0.050456083
-0.62279037
-0.04434236
-0.62009171
-0.038492597
-0.6179727
-0.033009903
-0.6163137
-0.027920046
-0.61502257
-0.023204938
-0.61403036
-0.018823411
-0.61328674
-0.014723582
-0.61275596
-0.010850098
-0.6124136
-0.0071468066
-0.003553247
-0.62472694
0.018710143
-0.62537213
0.018953022
-0.62604882
0.01943246
-0.62677457
0.020178021
-0.62757015
0.021195006
-0.62846084
0.022495243
-0.62947796
0.0240916
-0.63066049
0.025996441
-0.63205679
0.028217964
-0.633726
0.0307543
-0.63573741
0.033583164
-0.63816643
0.036649139
-0.64108902
0.039853612
-0.64457239
0.0430363
-0.64864362
0.045926946
-0.65322931
0.048118135
-0.65812585
0.049179746
-0.66306269
0.04888286
-0.66781261
0.047302192
-0.67226029
0.044712866
-0.67639614
0.0414
-0.68025986
0.037524084
-0.68389689
0.033119455
-0.68734456
0.028133407
-0.69060959
0.022404183
-0.69361168
0.015618008
-0.696134
0.007366207
-0.69781654
-0.0027263202
-0.69815468
-0.014940986
-0.6964108
-0.029504267
-0.69166663
-0.046020978
-0.68348564
-0.062306913
-0.67281358
-0.074521938
-0.66157729
-0.080157391
-0.65116513
-0.080043565
-0.64229923
-0.075898711
-0.63512299
-0.069535626
-0.62948972
-0.062236519
-0.62514044
-0.054805364
-0.62180693
-0.047675874
-0.61925589
-0.041043632
-0.61730138
-0.034964417
-0.61580237
-0.029419055
-0.6146552
-0.024352111
-0.61378527
-0.019693336
-0.61313991
-0.015368945
-0.61268265
-0.011307362
-0.61238911
-0.0074403407
-0.0036975596
-0.62625575
0.019233975
-0.62678957
0.019486842
-0.6273505
0.019993391
-0.62795663
0.02078415
-0.6286278
0.02186618
-0.62938887
0.023256314
-0.63027187
0.024974594
-0.63131828
0.027042852
-0.63258168
0.029481363
-0.6341306
0.032303217
-0.63604965
0.035502221
-0.63843582
0.039035301
-0.64139261
0.042810411
-0.64502508
0.046668765
-0.64940448
0.050306346
-0.65446833
0.053181983
-0.65994633
0.054657748
-0.66545361
0.054390137
-0.67067615
0.05252473
-0.67548001
0.049516733
-0.67989679
0.045816777
-0.68402064
0.041647931
-0.68793871
0.03703753
-0.6917296
0.031924293
-0.69545521
0.026129793
-0.69907781
0.019240608
-0.70237472
0.010663118
-0.70493053
-0.00017051179
-0.70613767
-0.01373384
-0.70504011
-0.030601823
-0.70017662
-0.050884477
-0.69050281
-0.071980717
-0.67723144
-0.087793315
-0.66352221
-0.093866616
-0.65128391
-0.09228186
-0.64134301
-0.085839611
-0.63367109
-0.077207553
-0.62791968
-0.067987925
-0.62366547
-0.05905958
-0.62052899
-0.050812351
-0.61820962
-0.043363001
-0.61648421
-0.036689828
-0.61519312
-0.03071014
-0.61422464
-0.025320594
-0.61350167
-0.020416309
-0.61297165
-0.015898958
-0.6125993
-0.011679713
-0.61236157
-0.0076780757
-0.0038141776
-0.62788232
0.01962084
-0.62829037
0.019894895
-0.62872674
0.020429759
-0.62920448
0.021261894
-0.62974075
0.022402453
-0.63035879
0.023874348
-0.63109014
0.025705944
-0.63197749
0.027930204
-0.63307822
0.030582094
-0.63446922
0.033694218
-0.63625107
0.037284076
-0.63854562
0.041329851
-0.64148919
0.045753979
-0.64523558
0.050415153
-0.64992843
0.054999196
-0.65554383
0.058797384
-0.66172015
0.060834062
-0.66789166
0.060561649
-0.67361238
0.058245457
-0.6787278
0.054632143
-0.68334888
0.050437865
-0.68766182
0.045960866
-0.69181167
0.041187375
-0.69592755
0.036040179
-0.70015812
0.030360358
-0.70454447
0.023626966
-0.7088699
0.014988545
-0.71262565
0.0035852406
-0.71509993
-0.011259568
-0.71514608
-0.030555671
-0.71054271
-0.055487847
-0.69906497
-0.083458455
-0.68205632
-0.10480197
-0.66501593
-0.11090701
-0.65053154
-0.10676625
-0.63946198
-0.096909168
-0.63141566
-0.085253877
-0.62572016
-0.07368343
-0.62172684
-0.063052898
-0.61892295
-0.053616237
-0.61693777
-0.045348179
-0.6155157
-0.038111898
-0.61448494
-0.031740901
-0.61373154
-0.026074
-0.61318045
-0.020967394
-0.61278258
-0.016296829
-0.61250607
-0.011956219
-0.61233073
-0.00785342
-0.0038999569
-0.62933597
0.01988272
-0.62961491
0.02017383
-0.6299171
0.020731955
-0.63025352
0.021598307
-0.63063795
0.022786889
-0.6310908
0.024327194
-0.63164168
0.026256824
-0.63233296
0.028621489
-0.63322442
0.031473555
-0.63440038
0.034870178
-0.63597877
0.038862458
-0.63811246
0.043463547
-0.64097953
0.048621051
-0.64479588
0.054231499
-0.64982097
0.060024286
-0.65613233
0.065108741
-0.66324987
0.067951604
-0.67030963
0.067621415
-0.67665924
0.064595061
-0.68211422
0.060087123
-0.68692668
0.05525033
-0.69142573
0.050459914
-0.69581682
0.045578461
-0.7002536
0.040476959
-0.70499407
0.035100828
-0.71020148
0.028834375
-0.71569658
0.020483652
-0.72088198
0.0087706414
-0.72496916
-0.0071723883
-0.72679972
-0.028725112
-0.72323186
-0.059055713
-0.7097974
-0.096892914
-0.6872341
-0.12736527
-0.66565425
-0.13248685
-0.64844079
-0.12397971
-0.63630036
-0.1090496
-0.62813509
-0.093419149
-0.62277144
-0.079047082
-0.61926875
-0.066555587
-0.61696816
-0.05591683
-0.61543681
-0.046879523
-0.61439936
-0.039149354
-0.61368323
-0.032457026
-0.61318089
-0.026576341
-0.61282538
-0.021322903
-0.61257507
-0.016547139
-0.61240418
-0.012127109
-0.61229701
-0.0079605955
-0.0039521659
-0.63049027
0.019981384
-0.63061982
0.02030338
-0.63077082
0.020882956
-0.63094762
0.021775112
-0.63115924
0.022998509
-0.63142223
0.02459018
-0.63176303
0.026597625
-0.63222202
0.029080483
-0.63285905
0.03211058
-0.63376248
0.035773612
-0.63506442
0.040164396
-0.63695059
0.045349719
-0.63964598
0.051316442
-0.64343018
0.058015694
-0.64872252
0.065316628
-0.65582175
0.072207973
-0.66410929
0.076239146
-0.6722049
0.075717027
-0.67914521
0.071535367
-0.68470217
0.065644088
-0.68939229
0.059940444
-0.69377791
0.054845537
-0.69813757
0.049938123
-0.70260018
0.044939571
-0.70761202
0.040112667
-0.71359372
0.034816067
-0.7205026
0.027392537
-0.72773213
0.016000169
-0.73427939
-0.00062512484
-0.73920327
-0.023801239
-0.73833186
-0.059927114
-0.7234956
-0.11172918
-0.6924832
-0.15837767
-0.66469657
-0.16027348
-0.64430095
-0.14437532
-0.6313913
-0.12195925
-0.62358302
-0.10122743
-0.61896663
-0.083663475
-0.6162585
-0.06926371
-0.61466562
-0.057509709
-0.61371996
-0.047825192
-0.61315047
-0.039718838
-0.61280129
-0.032806206
-0.61258279
-0.026794841
-0.61244339
-0.021462303
-0.61235344
-0.016637089
-0.61229599
-0.012184559
-0.61226149
-0.0079950995
-0.0039687029
-0.63007847
0.019880178
-0.63002793
0.020252841
-0.6299953
0.020850332
-0.62997624
0.021756043
-0.62997275
0.022995025
-0.62999478
0.024612211
-0.63006162
0.026664459
-0.6302062
0.029225066
-0.63048152
0.032385897
-0.63097111
0.036263208
-0.63181141
0.041004694
-0.63321966
0.046757971
-0.63548195
0.053578731
-0.63894665
0.061480388
-0.6442399
0.070609877
-0.65213528
0.080103354
-0.66194776
0.086051629
-0.67134992
0.085119183
-0.67893518
0.079120628
-0.68436565
0.071074567
-0.68865619
0.064230975
-0.69275105
0.058940399
-0.69705132
0.05423839
-0.70151399
0.049402249
-0.70683809
0.045436763
-0.71385884
0.041836818
-0.72259611
0.036129805
-0.73261914
0.026023204
-0.74190456
0.0086602896
-0.75052998
-0.015175817
-0.75421884
-0.056238252
-0.74047678
-0.12547124
-0.69642064
-0.20243381
-0.66055577
-0.19613835
-0.637035
-0.16789609
-0.62415364
-0.1348406
-0.61751701
-0.10786407
-0.61423904
-0.086941447
-0.61270459
-0.070798152
-0.61204776
-0.058166544
-0.61182143
-0.048051523
-0.61179737
-0.039742892
-0.61186
-0.032743579
-0.61195141
-0.026703431
-0.61204331
-0.021370401
-0.61212256
-0.016557842
-0.61218362
-0.012123504
-0.61222455
-0.0079541612
-0.0039483069
-0.62618378
0.01954878
-0.62589611
0.019965176
-0.62560429
0.020558513
-0.62530174
0.021453487
-0.62498315
0.022676434
-0.6246498
0.024278866
-0.62431056
0.026325222
-0.62398677
0.028901274
-0.62371999
0.032119112
-0.62358362
0.036126844
-0.62371019
0.041131261
-0.62434506
0.04739284
-0.62585805
0.055091722
-0.62866641
0.064288749
-0.63355932
0.075502792
-0.6421624
0.088706427
-0.65403766
0.097926887
-0.66487397
0.095955496
-0.67275722
0.087003873
-0.67707092
0.075388273
-0.67991049
0.067070544
-0.68282203
0.061851935
-0.68642892
0.057845285
-0.69004515
0.053018479
-0.69450599
0.049897606
-0.70161404
0.048944864
-0.71115689
0.045672658
-0.72409859
0.0389649
-0.73556633
0.020128028
-0.74986075
-0.00088139331
-0.76244948
-0.043649524
-0.75916578
-0.12875495
-0.69459067
-0.26700892
-0.65073437
-0.23999465
-0.625304
-0.19332646
-0.61396272
-0.14618188
-0.60976316
-0.11206363
-0.60860983
-0.088094774
-0.60868416
-0.070723822
-0.60919204
-0.057658662
-0.60980281
-0.047440755
-0.61038442
-0.039161287
-0.6108895
-0.032238491
-0.61130626
-0.026286674
-0.61163706
-0.021039604
-0.61188908
-0.016305819
-0.61207022
-0.011942368
-0.61218723
-0.0078371438
-0.0038907409
-0.61276645
0.018729615
-0.61203619
0.019234909
-0.61128974
0.019812063
-0.61050024
0.020663991
-0.60964999
0.021826181
-0.60872692
0.023355796
-0.60772273
0.025321035
-0.60663679
0.027815336
-0.6054836
0.030965919
-0.60430257
0.034945816
-0.60318057
0.040009257
-0.60232601
0.046538288
-0.60215345
0.054919153
-0.60313625
0.065271557
-0.6060127
0.078379238
-0.61372654
0.096420269
-0.6275272
0.11172755
-0.63868991
0.10711821
-0.64545642
0.093770382
-0.6463441
0.076275948
-0.64573637
0.066462819
-0.64567329
0.061788852
-0.64728025
0.05945224
-0.6483118
0.054050034
-0.64944503
0.051030837
-0.65616989
0.055669727
-0.66607514
0.055577901
-0.68384062
0.056730382
-0.69888826
0.035175668
-0.72786023
0.028090579
-0.75027202
-0.021237733
-0.77323459
-0.10579238
-0.67715866
-0.36308484
-0.63076773
-0.28638558
-0.60622335
-0.21787084
-0.59992087
-0.15248436
-0.6002662
-0.1117183
-0.60224903
-0.086111943
-0.60437342
-0.06859943
-0.60623188
-0.055800205
-0.60775545
-0.04591718
-0.60897156
-0.03794518
-0.60992819
-0.031281859
-0.61067129
-0.025543571
-0.611239
-0.0204719
-0.61166107
-0.015883747
-0.61195982
-0.011643624
-0.61215113
-0.0076458315
-0.0037969188
-0.58477961
0.017486164
-0.58351022
0.017965519
-0.58214159
0.018443427
-0.58066948
0.019191883
-0.57906767
0.020224378
-0.5773053
0.021593422
-0.57534573
0.023361463
-0.57314911
0.025618719
-0.57067787
0.028494671
-0.5679048
0.032172751
-0.56482862
0.036933081
-0.56155662
0.043266285
-0.5585328
0.051895327
-0.55652775
0.063266513
-0.55614875
0.078000231
-0.56153157
0.1018031
-0.58049245
0.13068842
-0.59265626
0.11928202
-0.59890971
0.10002383
-0.59405221
0.071418456
-0.58776382
0.060174419
-0.58244276
0.056467796
-0.58157554
0.05858502
-0.57952821
0.052002702
-0.5738762
0.045378833
-0.58519465
0.03252948
-0.59561962
0.037438932
-0.60467977
0.040313194
-0.60342484
0.02048029
-0.63525091
0.039878378
-0.71434572
0.019774526
-0.66918688
-0.054713837
-0.60685833
-0.22710716
-0.57379935
-0.31944456
-0.57150803
-0.22016217
-0.58113688
-0.14285551
-0.58945237
-0.10340281
-0.59561862
-0.079945688
-0.60008654
-0.064131518
-0.60336088
-0.052525863
-0.60579623
-0.043481824
-0.60762935
-0.036112068
-0.60901858
-0.029892626
-0.61007177
-0.024490383
-0.61086356
-0.019680111
-0.61144608
-0.015301224
-0.61185565
-0.01123405
-0.61211694
-0.0073845463
-0.0036689531
-0.52686996
0.015076177
-0.52437323
0.015468784
-0.5217209
0.015791099
-0.51887076
0.016341746
-0.51576855
0.017122166
-0.51234646
0.018171326
-0.50851879
0.019533801
-0.50418043
0.02128035
-0.49920713
0.023521373
-0.49346098
0.026426608
-0.4867989
0.030270995
-0.47911635
0.035583736
-0.47060932
0.043388295
-0.46224582
0.054903018
-0.45437877
0.070133179
-0.44762977
0.0950541
-0.47080987
0.15386852
-0.47005112
0.11852327
-0.46091541
0.09088812
-0.42709565
0.037598697
-0.39543662
0.028515392
-0.36804259
0.029073763
-0.30348983
0.020770617
-0.16299997
0.01345489
-0.041147234
0.0077710215
0
0
0
0
0
0
0
0
0
0
0
0
0
0