/*--------------------------------*- C++ -*----------------------------------*\
| =========                 |                                                 |
| \\      /  F ield         | foam-extend: Open Source CFD                    |
|  \\    /   O peration     | Version:     4.1                                |
|   \\  /    A nd           | Web:         http://www.foam-extend.org         |
|    \\/     M anipulation  |                                                 |
\*---------------------------------------------------------------------------*/
FoamFile
{
    version     2.0;
    format      ascii;
    class       surfaceScalarField;
    location    "1.15";
    object      phi;
}
// * * * * * * * * * * * * * * * * * * * * * * * * * * * * * * * * * * * * * //

dimensions      [0 3 -1 0 0 0 0];

internalField   nonuniform List<scalar> 
8438
(
-0.59721659
0.0016652295
-0.59894786
0.0017312678
-0.60071471
0.0017668509
-0.60252608
0.0018113786
-0.60439173
0.0018656406
-0.60632208
0.0019303518
-0.60832661
0.0020045288
-0.61041304
0.0020864366
-0.61258668
0.0021736392
-0.61484969
0.0022630089
-0.61720041
0.002350716
-0.61963266
0.0024322549
-0.6221352
0.002502536
-0.62469126
0.0025560648
-0.62727847
0.0025872093
-0.62986903
0.0025905594
-0.63243027
0.0025612331
-0.63492546
0.002495192
-0.63731485
0.0023893943
-0.63955666
0.0022418108
-0.64160803
0.00205137
-0.64342591
0.0018178783
-0.64496792
0.0015420064
-0.64619333
0.0012254063
-0.64706434
0.00087101152
-0.64754788
0.00048354015
-0.64761775
6.9875174e-05
-0.64725636
-0.00036139422
-0.64645853
-0.00079782538
-0.64523565
-0.0012228873
-0.64361664
-0.001619004
-0.64164774
-0.0019689044
-0.63939025
-0.002257489
-0.63691652
-0.0024737315
-0.63430463
-0.0026118903
-0.63163288
-0.0026717501
-0.62897492
-0.002657961
-0.62639613
-0.0025787878
-0.62395149
-0.0024446362
-0.62168482
-0.0022666695
-0.61962912
-0.0020557052
-0.61780766
-0.0018214585
-0.61623555
-0.0015721057
-0.61492136
-0.0013141933
-0.61386825
-0.0010531077
-0.61307451
-0.00079374162
-0.61253653
-0.00053798071
-0.61225942
-0.00027710453
-1.4474294e-05
-0.61101192
0.0031227502
-0.61246345
0.0031827955
-0.61394278
0.0032461785
-0.61546312
0.0033317201
-0.6170369
0.0034394189
-0.61867533
0.0035687821
-0.62038832
0.0037175169
-0.62218394
0.00388206
-0.62406783
0.0040575308
-0.6260425
0.0042376761
-0.62810661
0.0044148253
-0.63025428
0.0045799276
-0.63247447
0.004722727
-0.63475053
0.004832119
-0.63706001
0.0048966947
-0.63937493
0.0049054799
-0.64166228
0.0048485799
-0.64388492
0.0047178318
-0.64600264
0.0045071171
-0.64797322
0.0042123818
-0.64975334
0.0038314983
-0.65129954
0.0033640723
-0.65256893
0.0028113927
-0.65352017
0.0021766557
-0.65411472
0.0014655608
-0.65431848
0.00068729208
-0.65410429
-0.00014430738
-0.65345598
-0.0010097033
-0.65237027
-0.0018835387
-0.65085813
-0.0027350312
-0.64894769
-0.0035294392
-0.64668487
-0.0042317231
-0.64413132
-0.0048110402
-0.6413602
-0.0052448489
-0.63845062
-0.0055214719
-0.63548179
-0.0056405779
-0.63252799
-0.0056117662
-0.62965484
-0.0054519405
-0.62691722
-0.0051822545
-0.62435861
-0.0048252792
-0.62201155
-0.0044027685
-0.61989886
-0.0039341479
-0.61803528
-0.003435681
-0.61642915
-0.0029203278
-0.61508386
-0.0023983884
-0.61399976
-0.0018778431
-0.61317643
-0.0013613179
-0.61260556
-0.00084797446
-0.00037523044
-0.61205622
0.0045305927
-0.61346305
0.0045896321
-0.61489533
0.0046784575
-0.61636794
0.0048043262
-0.61789413
0.004965613
-0.61948572
0.0051603697
-0.62115309
0.005384883
-0.6229048
0.0056337764
-0.62474706
0.0058997866
-0.62668298
0.0061736
-0.6287119
0.0064437416
-0.63082857
0.0066965996
-0.63302251
0.0069166648
-0.63527745
0.0070870581
-0.63757112
0.0071903674
-0.63987545
0.0072098076
-0.64215713
0.0071302613
-0.64437861
0.0069393135
-0.64649923
0.0066277346
-0.64847632
0.0061894736
-0.6502662
0.0056213741
-0.65182493
0.0049228007
-0.65310903
0.0040954945
-0.65407625
0.0031438795
-0.65468666
0.0020759673
-0.65490427
0.00090490531
-0.65469952
-0.00034906604
-0.65405204
-0.0016571748
-0.65295426
-0.0029813188
-0.65141508
-0.0042742107
-0.64946249
-0.0054820311
-0.64714412
-0.0065500915
-0.64452507
-0.0074300895
-0.64168308
-0.0080868476
-0.63870207
-0.0085024741
-0.63566561
-0.0086770406
-0.63265122
-0.0086261583
-0.62972651
-0.0083766525
-0.62694711
-0.007961651
-0.62435626
-0.007416125
-0.62198558
-0.0067734493
-0.61985659
-0.0060631419
-0.61798257
-0.0053097003
-0.61637045
-0.0045324461
-0.61502271
-0.0037461308
-0.61393957
-0.0029609849
-0.61311938
-0.0021815043
-0.61255361
-0.0014137443
-0.00068389188
-0.61241028
0.0059093636
-0.61379702
0.00597637
-0.61520981
0.0060912476
-0.61666352
0.0062580386
-0.61817187
0.0064739659
-0.61974737
0.0067358599
-0.62140114
0.0070386561
-0.6231426
0.0073752406
-0.62497886
0.0077360413
-0.62691399
0.0081087291
-0.62894825
0.0084780087
-0.63107725
0.0088255984
-0.6332911
0.0091305079
-0.63557376
0.0093697269
-0.63790278
0.0095193819
-0.64024936
0.0095563922
-0.64257911
0.0094600104
-0.64485312
0.0092133244
-0.64702933
0.008803937
-0.64906373
0.0082238797
-0.65091144
0.0074690788
-0.65252732
0.0065386836
-0.65386656
0.0054347311
-0.65488516
0.0041624837
-0.65554085
0.0027316544
-0.65579455
0.0011586084
-0.65561286
-0.00053075798
-0.65497138
-0.0022986611
-0.65385879
-0.0040939028
-0.65228148
-0.0058515235
-0.65026713
-0.0074963779
-0.64786602
-0.0089512006
-0.64514867
-0.010147438
-0.64220007
-0.011035455
-0.63911182
-0.01159072
-0.63597427
-0.011814593
-0.63286998
-0.011730443
-0.62986956
-0.011377081
-0.62702967
-0.010801539
-0.62439307
-0.010052719
-0.62198987
-0.0091766487
-0.61983952
-0.0082134987
-0.61795304
-0.0071961817
-0.61633524
-0.0061502405
-0.6149869
-0.005094471
-0.61390665
-0.0040412401
-0.61309096
-0.002997194
-0.61253441
-0.0019702904
-0.00097335254
-0.61283095
0.0072613976
-0.61419475
0.0073401698
-0.61558553
0.0074820289
-0.61701834
0.0076908452
-0.61850736
0.0079629904
-0.62006587
0.0082943637
-0.62170593
0.008678717
-0.62343804
0.0091073461
-0.62527049
0.0095684953
-0.62720866
0.010046897
-0.62925408
0.010523426
-0.63140347
0.010974993
-0.63364778
0.011374821
-0.63597133
0.011693271
-0.63835131
0.011899359
-0.64075792
0.011963009
-0.64315517
0.011857262
-0.64550223
0.01156038
-0.64775506
0.011056767
-0.6498679
0.010336719
-0.65179431
0.0093954841
-0.65348773
0.0082321038
-0.65490174
0.0068487472
-0.65599026
0.0052509982
-0.65670801
0.0034494101
-0.65701187
0.0014624654
-0.65686326
-0.00067937234
-0.65623201
-0.0029299108
-0.65510124
-0.0052246743
-0.65347329
-0.0074794652
-0.65137508
-0.0095945897
-0.64886042
-0.011465859
-0.6460076
-0.013000263
-0.64291206
-0.014130992
-0.63967646
-0.014826325
-0.63640072
-0.015090328
-0.63317438
-0.01495678
-0.63007195
-0.014479511
-0.62715127
-0.013722219
-0.62445414
-0.012749852
-0.62200833
-0.011622458
-0.61983027
-0.010391553
-0.61792784
-0.0090986165
-0.61630293
-0.0077751475
-0.61495388
-0.0064435261
-0.61387713
-0.0051179819
-0.61306784
-0.0038064896
-0.61252205
-0.0025160801
-0.0012506024
-0.61336344
0.0085816132
-0.61469795
0.0086746831
-0.61606076
0.0088448362
-0.61746705
0.0090971352
-0.61893157
0.0094275099
-0.62046845
0.0098312498
-0.6220909
0.010301166
-0.62381075
0.010827188
-0.62563782
0.01139557
-0.62757916
0.011988238
-0.62963799
0.012582257
-0.63181258
0.013149585
-0.63409504
0.013657281
-0.63647021
0.014068434
-0.63891491
0.01434406
-0.64139802
0.014446117
-0.64388136
0.014340609
-0.64632152
0.014000533
-0.64867185
0.013407102
-0.65088435
0.012549219
-0.65291074
0.011421868
-0.65470285
0.010024221
-0.65621253
0.0083584237
-0.65739124
0.0064297118
-0.65819013
0.0042482964
-0.65856088
0.0018332156
-0.65845815
-0.00078210328
-0.65784393
-0.0035441272
-0.65669341
-0.0063751983
-0.65500286
-0.0091700148
-0.65279747
-0.011799983
-0.65013555
-0.014127771
-0.64710605
-0.016029767
-0.64381897
-0.017418068
-0.64039219
-0.018253112
-0.63693861
-0.018543902
-0.63355686
-0.018338533
-0.63032622
-0.017710155
-0.62730554
-0.016742895
-0.62453487
-0.015520524
-0.62203851
-0.014118817
-0.61982864
-0.012601422
-0.61790878
-0.011018478
-0.61627685
-0.0094070737
-0.61492775
-0.0077926263
-0.61385508
-0.0061906517
-0.6130523
-0.0046092748
-0.61251509
-0.0030532886
-0.0015207428
-0.61401084
0.0098663377
-0.61531022
0.0099740564
-0.61663873
0.010173353
-0.61801226
0.010470663
-0.61944631
0.010861556
-0.62095604
0.011340984
-0.62255598
0.011901107
-0.62425958
0.012530783
-0.62607856
0.013214555
-0.62802208
0.013931749
-0.63009552
0.014655698
-0.6322992
0.015353272
-0.63462685
0.015984932
-0.63706411
0.016505688
-0.63958742
0.016867377
-0.64216395
0.017022642
-0.64475265
0.01692931
-0.64730664
0.016554525
-0.64977594
0.015876399
-0.65210975
0.014883027
-0.65425773
0.013569849
-0.65617013
0.011936625
-0.65779709
0.0099853756
-0.65908755
0.0077201747
-0.65998858
0.0051493218
-0.66044561
0.0022902499
-0.6604047
-0.00082301351
-0.65981741
-0.0041314185
-0.65864783
-0.0075447741
-0.65688318
-0.010934665
-0.65454526
-0.014137901
-0.65169781
-0.016975223
-0.6484441
-0.019283478
-0.64491409
-0.020948074
-0.64124627
-0.021920938
-0.63757069
-0.022219482
-0.63399742
-0.021911807
-0.63061122
-0.021096346
-0.62747148
-0.019882642
-0.62461524
-0.018376766
-0.62206184
-0.016672207
-0.61981775
-0.014845519
-0.6178808
-0.012955425
-0.61624384
-0.011044032
-0.61489743
-0.0091390411
-0.61383167
-0.007256409
-0.61303765
-0.0054032932
-0.61250929
-0.0035816527
-0.0017850798
-0.61476764
0.011107265
-0.61602474
0.011231152
-0.61731228
0.011460894
-0.61864653
0.011804911
-0.6200438
0.012258828
-0.62152042
0.012817605
-0.62309243
0.013473116
-0.62477518
0.014213536
-0.6265827
0.015022073
-0.62852672
0.015875765
-0.63061539
0.016744376
-0.63285172
0.017589595
-0.63523161
0.018364825
-0.63774193
0.019016005
-0.6403588
0.019484254
-0.64304721
0.019711049
-0.64576233
0.019644431
-0.64845271
0.0192449
-0.65106401
0.0184877
-0.65354209
0.017361102
-0.65583441
0.015862171
-0.65788983
0.013992052
-0.65965714
0.011752683
-0.66108298
0.0091460075
-0.66211004
0.0061763862
-0.66267652
0.0028567273
-0.6627178
-0.00078173071
-0.66217187
-0.0046773521
-0.66098759
-0.0087290527
-0.65913874
-0.012783508
-0.65664093
-0.016635712
-0.65356405
-0.020052108
-0.65003059
-0.022816933
-0.64619779
-0.024780883
-0.64223186
-0.025886862
-0.63828519
-0.02616615
-0.63448188
-0.025715117
-0.63091255
-0.024665678
-0.62763592
-0.023159272
-0.62468419
-0.021328492
-0.6220697
-0.019286703
-0.61979124
-0.017123975
-0.61783944
-0.014907225
-0.61620081
-0.012682662
-0.61486068
-0.010479174
-0.61380509
-0.0083119994
-0.61302219
-0.0061861895
-0.61250352
-0.0041003296
-0.0020437951
-0.61563496
0.012301088
-0.61684389
0.012440088
-0.61808367
0.012700671
-0.61937164
0.01309288
-0.62072513
0.013612316
-0.62216176
0.01425424
-0.62369931
0.015010656
-0.62535531
0.015869541
-0.62714651
0.016813274
-0.62908781
0.017817062
-0.63119082
0.018847386
-0.63346199
0.019860762
-0.63590024
0.020803075
-0.63849427
0.02161004
-0.64122007
0.022210058
-0.64403991
0.022530885
-0.64690398
0.022508497
-0.64975473
0.022095652
-0.65253222
0.021265186
-0.65517825
0.020007137
-0.65763813
0.018322052
-0.65985986
0.016213777
-0.6617916
0.013684429
-0.66337833
0.010732731
-0.66455847
0.007356531
-0.66526208
0.003560332
-0.66541165
-0.00063215373
-0.66492768
-0.0051613278
-0.6637383
-0.0099184336
-0.66179753
-0.014724271
-0.65911002
-0.019323228
-0.65575211
-0.023410012
-0.65187217
-0.026696875
-0.6476649
-0.028988159
-0.64333398
-0.030217778
-0.63906063
-0.030439496
-0.63498576
-0.029789994
-0.63120556
-0.028445874
-0.6277761
-0.026588733
-0.62472197
-0.024382626
-0.62204573
-0.021962944
-0.6197362
-0.0194335
-0.61777492
-0.016868508
-0.6161407
-0.014316874
-0.61481273
-0.011807151
-0.61377233
-0.0093523922
-0.61300424
-0.0069542817
-0.61249729
-0.0046072855
-0.0022961315
-0.61660615
0.013436044
-0.61775834
0.013592282
-0.61894274
0.013885071
-0.62017691
0.014327049
-0.62147906
0.014914468
-0.62286818
0.015643357
-0.6243639
0.016506377
-0.62598628
0.017491921
-0.62775522
0.018582213
-0.62968942
0.019751265
-0.63180479
0.020962756
-0.63411222
0.022168187
-0.63661469
0.023305547
-0.63930369
0.024299039
-0.64215542
0.025061784
-0.6451288
0.025504268
-0.64816739
0.025547085
-0.65120543
0.025133693
-0.65417557
0.02423533
-0.65701477
0.022846332
-0.65966634
0.020973622
-0.66207838
0.018625819
-0.66419979
0.015805841
-0.66597509
0.01250803
-0.66733908
0.0087205153
-0.66821303
0.0044342904
-0.66850438
-0.00034080442
-0.66811131
-0.0055544025
-0.66693409
-0.011095654
-0.66489789
-0.016760473
-0.66198847
-0.022232643
-0.65828795
-0.027110539
-0.65397968
-0.031005142
-0.6493106
-0.033657233
-0.64453525
-0.034993134
-0.63987192
-0.035102824
-0.63548098
-0.034180936
-0.63146288
-0.032463969
-0.62786759
-0.030184021
-0.62470813
-0.027542086
-0.62197369
-0.024697386
-0.61964022
-0.021766969
-0.61767807
-0.018830663
-0.61605695
-0.015937986
-0.614749
-0.013115108
-0.61373031
-0.010371081
-0.61298182
-0.0077027735
-0.61248955
-0.0050995571
-0.0025407273
-0.6176814
0.014511581
-0.6187715
0.014682381
-0.61989342
0.015006992
-0.62106613
0.015499758
-0.62230892
0.016157263
-0.62364222
0.016976651
-0.62508766
0.017951826
-0.62666809
0.019072349
-0.62840703
0.020321152
-0.63032771
0.021671939
-0.63245128
0.023086329
-0.63479431
0.024511216
-0.63736527
0.025876508
-0.6401598
0.027093568
-0.64315504
0.028057029
-0.64630592
0.028655144
-0.64954708
0.028788244
-0.65280155
0.028388171
-0.65599215
0.027425925
-0.65904995
0.02590413
-0.66191685
0.023840519
-0.66454263
0.021251602
-0.666879
0.01814221
-0.66887211
0.014501137
-0.6704545
0.010302907
-0.6715385
0.0055182928
-0.67201408
0.00013477393
-0.67175174
-0.0058167438
-0.67061507
-0.01223232
-0.6684871
-0.018888443
-0.66532168
-0.025398065
-0.66120364
-0.031228573
-0.65636436
-0.03584443
-0.65112487
-0.03889672
-0.64580933
-0.040308677
-0.64068355
-0.040228603
-0.63592944
-0.038935048
-0.63164849
-0.036744911
-0.62787914
-0.033953375
-0.62461722
-0.030804005
-0.62183386
-0.027480745
-0.61948868
-0.024112153
-0.61753849
-0.020780851
-0.61594248
-0.01753399
-0.61466492
-0.014392673
-0.61367626
-0.011359737
-0.61295347
-0.0084255641
-0.61247978
-0.0055732519
-0.0027757048
-0.61885547
0.015510834
-0.61987274
0.015699653
-0.62092326
0.016057508
-0.62202558
0.016602082
-0.62319971
0.017331387
-0.62446738
0.018244327
-0.62585235
0.01933679
-0.62738043
0.020600429
-0.62907927
0.022019996
-0.63097743
0.023570098
-0.6331025
0.025211399
-0.63547825
0.026886959
-0.63812052
0.028518786
-0.64103119
0.030004238
-0.64418972
0.031215559
-0.64754637
0.032011791
-0.65102374
0.032265609
-0.65452921
0.031893649
-0.65797213
0.030868839
-0.66127631
0.029208315
-0.66438316
0.026947362
-0.66724649
0.024114938
-0.66982382
0.020719538
-0.67206609
0.016743403
-0.67390618
0.012142994
-0.67524809
0.0068602097
-0.6759614
0.00084808258
-0.67588385
-0.0058942973
-0.67483211
-0.013284062
-0.67262794
-0.021092611
-0.66917188
-0.028854123
-0.66454374
-0.035856714
-0.65904147
-0.041346703
-0.65309379
-0.044844396
-0.6471212
-0.046281271
-0.64144994
-0.045899853
-0.63628394
-0.044101058
-0.6317194
-0.04130945
-0.62777477
-0.037897998
-0.624421
-0.034157778
-0.62160518
-0.030296564
-0.61926655
-0.026450782
-0.61734594
-0.022701459
-0.61579066
-0.019089271
-0.61455649
-0.015626844
-0.61360805
-0.012308176
-0.61291835
-0.0091152627
-0.61246799
-0.0060236187
-0.0029987425
-0.6201189
0.016437909
-0.62105915
0.0166399
-0.6220311
0.017029462
-0.62305491
0.017625893
-0.62415147
0.018427946
-0.62534383
0.019436688
-0.62665781
0.02065077
-0.6281224
0.022065017
-0.62976978
0.023667382
-0.63163467
0.025434982
-0.63375239
0.027329118
-0.63615572
0.02929029
-0.6388703
0.031233372
-0.64190714
0.033041077
-0.64525037
0.034558784
-0.64884508
0.035606504
-0.65259735
0.036017878
-0.65639232
0.035688621
-0.66012055
0.034597062
-0.66369692
0.032784685
-0.66706419
0.030314633
-0.67018408
0.027234834
-0.67302441
0.023559861
-0.67554565
0.019264642
-0.6776853
0.014282646
-0.67934119
0.0085161046
-0.68036124
0.0018681276
-0.68054356
-0.005711977
-0.67964427
-0.014183355
-0.67739909
-0.023337787
-0.67362067
-0.03263254
-0.66836621
-0.041111176
-0.66202706
-0.047685854
-0.65519301
-0.051678448
-0.64841926
-0.053055019
-0.64210804
-0.052211075
-0.63648206
-0.049727034
-0.63162088
-0.046170634
-0.62751027
-0.042008611
-0.62408575
-0.037582291
-0.62126309
-0.03311923
-0.6189566
-0.028757265
-0.61708871
-0.02456935
-0.61559376
-0.02058422
-0.61441878
-0.016801829
-0.61352264
-0.013204311
-0.61287468
-0.0097632191
-0.61245319
-0.0064451164
-0.0032071291
-0.62147528
0.017269569
-0.62232541
0.017490029
-0.62320861
0.017912664
-0.62414356
0.018560849
-0.62515128
0.019435662
-0.62625575
0.020541155
-0.6274847
0.02187972
-0.62887032
0.02345064
-0.6304497
0.025246763
-0.63226456
0.027249842
-0.63435952
0.029424075
-0.63677862
0.03170939
-0.63956043
0.03401518
-0.64272943
0.036210077
-0.64627871
0.038108072
-0.65014868
0.039476474
-0.65422281
0.040092001
-0.65835419
0.039820003
-0.66240675
0.038649618
-0.66628415
0.036662088
-0.66993351
0.03396399
-0.6733297
0.030631029
-0.67645636
0.026686523
-0.67928941
0.022097689
-0.6817771
0.016770339
-0.68381517
0.010554171
-0.68522914
0.0032820966
-0.68577138
-0.0051697332
-0.68512419
-0.014830542
-0.68290465
-0.025557335
-0.67878216
-0.036755029
-0.67275361
-0.047139722
-0.66534185
-0.055097616
-0.6573863
-0.059634
-0.64963215
-0.060809163
-0.64257502
-0.059268204
-0.63644584
-0.055856218
-0.6312879
-0.051328577
-0.62703562
-0.046260885
-0.62357533
-0.041042588
-0.62078269
-0.035911862
-0.61854245
-0.030997511
-0.61675649
-0.026355306
-0.61534566
-0.021995048
-0.61424844
-0.017899055
-0.61341849
-0.014034259
-0.61282206
-0.010359647
-0.61243565
-0.0068315263
-0.0033978294
-0.62289265
0.018015886
-0.62364999
0.018247367
-0.62443735
0.018700027
-0.62527492
0.019398419
-0.62618403
0.020344771
-0.62718943
0.02154655
-0.62832056
0.023010855
-0.62961277
0.024742851
-0.63110829
0.026742276
-0.63285666
0.02899821
-0.63491346
0.031480878
-0.63733659
0.034132524
-0.64018126
0.036859842
-0.64349122
0.039520044
-0.64727551
0.041892361
-0.65147162
0.043672585
-0.65593133
0.044551704
-0.66045983
0.04434851
-0.66488171
0.043071494
-0.66908588
0.040866261
-0.67302895
0.037907052
-0.67670734
0.034309422
-0.68012867
0.030107856
-0.68329317
0.02526219
-0.68617046
0.019647622
-0.68866277
0.013046484
-0.69057491
0.0051942367
-0.69160762
-0.0041370202
-0.69135582
-0.015082341
-0.68927829
-0.027634867
-0.68481443
-0.041218887
-0.67782263
-0.054131525
-0.66900835
-0.063911895
-0.65961484
-0.069027508
-0.65065623
-0.069767777
-0.64273824
-0.067186199
-0.63607495
-0.062519508
-0.630641
-0.056762527
-0.62629268
-0.050609196
-0.62284953
-0.044485746
-0.62013744
-0.03862395
-0.61800716
-0.033127792
-0.61633882
-0.02802364
-0.61504007
-0.023293798
-0.61404178
-0.01889735
-0.61329347
-0.014782564
-0.61275928
-0.010893839
-0.61241469
-0.0071761153
-0.003567571
-0.62440427
0.018646551
-0.62505401
0.018897109
-0.62573517
0.019381186
-0.62646481
0.020128062
-0.62726325
0.021143212
-0.62815519
0.022438491
-0.62917118
0.024026845
-0.63034922
0.025920891
-0.63173647
0.028129528
-0.63339077
0.030652508
-0.63538028
0.03347039
-0.63777968
0.036531923
-0.64066514
0.0397453
-0.64410754
0.042962447
-0.64814375
0.04592857
-0.65271464
0.048243468
-0.6576285
0.04946557
-0.66261899
0.049339001
-0.66745322
0.047905723
-0.67200227
0.045415306
-0.67624268
0.042147466
-0.68020604
0.038272773
-0.68393376
0.03383558
-0.68745917
0.028787604
-0.69078523
0.02297368
-0.69383152
0.016092774
-0.69638401
0.0077467294
-0.69808595
-0.0024350884
-0.6984343
-0.014733983
-0.69669269
-0.029376484
-0.691943
-0.045968572
-0.68374767
-0.062326851
-0.67305219
-0.074607375
-0.66178627
-0.080293434
-0.65134283
-0.080211212
-0.64244707
-0.07608196
-0.63524388
-0.069722702
-0.62958712
-0.062419286
-0.62521778
-0.05497853
-0.62186738
-0.047836145
-0.61930227
-0.041189067
-0.6173361
-0.035093953
-0.61582756
-0.029532188
-0.61467267
-0.024448681
-0.61379664
-0.019773382
-0.61314659
-0.01543261
-0.61268594
-0.011354495
-0.61239019
-0.0074718642
-0.0037129605
-0.62592375
0.019178368
-0.62646481
0.019438168
-0.62703246
0.019948832
-0.6276446
0.020740208
-0.62832068
0.021819286
-0.62908492
0.023202735
-0.62996851
0.024910429
-0.63101173
0.026964116
-0.63226657
0.029384365
-0.63379965
0.03218559
-0.63569375
0.035364492
-0.63804415
0.038882323
-0.64095318
0.042654326
-0.64452859
0.046537858
-0.64885414
0.05025412
-0.65388848
0.053277806
-0.65937951
0.054956601
-0.66494887
0.05490836
-0.67027494
0.053231798
-0.67520335
0.050343708
-0.67974504
0.046689155
-0.68398453
0.042512267
-0.68800657
0.037857614
-0.69188584
0.032666881
-0.69567824
0.026766076
-0.69934602
0.019760558
-0.70267157
0.011072275
-0.70524382
0.0001371644
-0.70645832
-0.013519485
-0.70536121
-0.03047359
-0.70049059
-0.050839191
-0.69079957
-0.072017876
-0.67749903
-0.087907914
-0.66375251
-0.094039952
-0.65147601
-0.092487712
-0.64149996
-0.086058007
-0.63379737
-0.077425291
-0.62802003
-0.068196629
-0.62374424
-0.059254323
-0.62058998
-0.050990405
-0.61825604
-0.043523007
-0.61651875
-0.036831241
-0.61521805
-0.030832889
-0.61424187
-0.025424864
-0.61351284
-0.020502411
-0.61297821
-0.015967239
-0.61260253
-0.011730179
-0.61236262
-0.0077117678
-0.0038306324
-0.62754031
0.019572762
-0.62795684
0.0198547
-0.6284017
0.020393686
-0.62888736
0.021225877
-0.62943055
0.02236247
-0.63005385
0.023826037
-0.6307879
0.025644477
-0.63167401
0.027850222
-0.63276753
0.03047789
-0.63414272
0.033560779
-0.63589735
0.037119118
-0.63815037
0.041135345
-0.64103462
0.045538574
-0.64470397
0.050207209
-0.64931709
0.054867244
-0.65488205
0.05884276
-0.66106545
0.061140001
-0.66731092
0.061153836
-0.67316252
0.059083393
-0.6784345
0.055615686
-0.68320562
0.051460276
-0.6876512
0.046957848
-0.6919183
0.042124719
-0.69613414
0.036882714
-0.7004366
0.031068544
-0.70486656
0.02419051
-0.70921699
0.015422709
-0.71298551
0.0039056865
-0.71546471
-0.01104029
-0.71550984
-0.030428459
-0.71089852
-0.05545051
-0.69940133
-0.083515062
-0.68235677
-0.10495247
-0.66526886
-0.11112786
-0.65073749
-0.10701909
-0.63962669
-0.097168806
-0.63154579
-0.085506192
-0.62582201
-0.073920406
-0.62180582
-0.063270511
-0.61898351
-0.053812718
-0.61698351
-0.045523011
-0.61554952
-0.038265224
-0.61450923
-0.031873185
-0.61374826
-0.026185837
-0.61319126
-0.021059403
-0.61278891
-0.01636959
-0.61250918
-0.01200991
-0.61233175
-0.0078892035
-0.0039174275
-0.62898323
0.01984871
-0.62927446
0.020145931
-0.62958815
0.020707376
-0.62993541
0.021573132
-0.63032975
0.022756809
-0.63079097
0.024287265
-0.63134775
0.02620125
-0.63204091
0.028543384
-0.6329278
0.031364781
-0.63408919
0.034722165
-0.63563887
0.038668799
-0.63772537
0.04322185
-0.64052002
0.048333218
-0.64423292
0.053920111
-0.6491393
0.059773628
-0.655366
0.065069458
-0.66247863
0.068252629
-0.66962511
0.068300313
-0.67614141
0.065599695
-0.68179647
0.061270745
-0.68678948
0.056453292
-0.69143898
0.051607343
-0.69596147
0.046647213
-0.70051493
0.041436164
-0.70533545
0.035889066
-0.71058315
0.029438214
-0.71609785
0.020937412
-0.72129173
0.0090995612
-0.72538087
-0.0069511453
-0.72720794
-0.028601388
-0.72363237
-0.059026081
-0.71017848
-0.096968954
-0.68757221
-0.12755874
-0.66593083
-0.13276924
-0.64865906
-0.12429085
-0.6364705
-0.10935736
-0.62826676
-0.093709941
-0.62287283
-0.07931433
-0.61934639
-0.066796956
-0.6170271
-0.056132002
-0.61548099
-0.047069122
-0.61443184
-0.039314378
-0.61370645
-0.032598571
-0.61319682
-0.026695467
-0.61283566
-0.021420567
-0.61258108
-0.016624167
-0.61240713
-0.012183862
-0.61229797
-0.00799836
-0.0039705984
-0.63013886
0.019958816
-0.63028119
0.020288259
-0.63044512
0.020871314
-0.63063447
0.021762481
-0.63085798
0.022980314
-0.63113171
0.024560992
-0.63148122
0.026550762
-0.63194536
0.029007525
-0.63258129
0.032000709
-0.63347287
0.035613747
-0.63474635
0.039942276
-0.63658138
0.045056886
-0.63919245
0.050944286
-0.64284266
0.057570327
-0.64796196
0.064892921
-0.65492602
0.072033521
-0.66319481
0.076521414
-0.67139753
0.076503039
-0.67855892
0.072761083
-0.68438404
0.067095866
-0.68929458
0.061363832
-0.69384693
0.056159687
-0.69834583
0.051146115
-0.70294378
0.046034116
-0.70804163
0.040986921
-0.71404804
0.035444616
-0.72096137
0.027850751
-0.72818848
0.016326667
-0.73473141
-0.00040821272
-0.73964986
-0.023682939
-0.73877491
-0.059901035
-0.72392503
-0.11181883
-0.69286388
-0.15861989
-0.66499646
-0.16063667
-0.64452819
-0.14475912
-0.63156314
-0.12232242
-0.62371296
-0.10156012
-0.61906499
-0.083962298
-0.61633288
-0.069529072
-0.61472157
-0.057743311
-0.61376159
-0.048029096
-0.61318092
-0.039895048
-0.61282297
-0.032956522
-0.61259762
-0.026920818
-0.61245293
-0.021565251
-0.61235901
-0.016718088
-0.61229872
-0.012244158
-0.61226238
-0.0080346993
-0.0039880262
-0.62973201
0.019878661
-0.62969944
0.020255688
-0.62968389
0.02085576
-0.62968163
0.021760223
-0.62969479
0.022993477
-0.62973304
0.024599237
-0.62981491
0.026632631
-0.62997189
0.029164514
-0.63025423
0.03228304
-0.63074004
0.036099558
-0.63155751
0.040759752
-0.63291556
0.046414933
-0.63508645
0.053115179
-0.638385
0.060868871
-0.64342661
0.069934537
-0.65110222
0.079709127
-0.66087417
0.086293368
-0.67040518
0.086034045
-0.67827816
0.080634066
-0.6840743
0.072892004
-0.6886216
0.065911131
-0.69288444
0.060422526
-0.69731052
0.055572193
-0.70193541
0.050659002
-0.70736065
0.046412164
-0.7143779
0.042461866
-0.72309957
0.036572424
-0.73310991
0.026337009
-0.7423861
0.008867978
-0.75100325
-0.015065786
-0.7546915
-0.056212789
-0.74094878
-0.12556154
-0.69684295
-0.20272572
-0.66087471
-0.1966049
-0.6372651
-0.16836873
-0.62432162
-0.13526589
-0.61764089
-0.10824085
-0.61433122
-0.087271973
-0.61277348
-0.071086806
-0.61209916
-0.058417635
-0.61185947
-0.048268791
-0.61182508
-0.039929437
-0.61187966
-0.032901935
-0.61196483
-0.026835652
-0.61205193
-0.021478146
-0.61212759
-0.016642433
-0.61218607
-0.012185674
-0.61222536
-0.0079954157
-0.0039684335
-0.62590601
0.019565677
-0.62563708
0.019986756
-0.62536408
0.020582756
-0.62508023
0.021476374
-0.62478048
0.022693728
-0.62446617
0.024284926
-0.62414579
0.026312254
-0.62383963
0.028858355
-0.62358695
0.032030359
-0.6234556
0.035968204
-0.62356723
0.040871384
-0.62415546
0.047003166
-0.62557526
0.054534972
-0.6281886
0.063482214
-0.63271806
0.074463999
-0.64095541
0.087946478
-0.6527711
0.098109056
-0.66377743
0.097040381
-0.67203331
0.08888994
-0.67688422
0.077742911
-0.68001406
0.069040978
-0.6830932
0.063501664
-0.68677636
0.059255351
-0.69059586
0.054478505
-0.69518455
0.05100085
-0.70221018
0.049487503
-0.71169003
0.046052274
-0.72459068
0.039237659
-0.73603577
0.020313067
-0.75030561
-0.00079594664
-0.76289183
-0.043626571
-0.75964827
-0.12880509
-0.69504689
-0.26732711
-0.65106442
-0.24058737
-0.62552772
-0.19390543
-0.61411899
-0.14667462
-0.60987541
-0.11248443
-0.60869212
-0.088455263
-0.60874513
-0.071033797
-0.60923729
-0.05792547
-0.60983618
-0.047669903
-0.61040866
-0.039356959
-0.61090668
-0.032403913
-0.61131796
-0.026424364
-0.61164457
-0.021151539
-0.61189346
-0.016393542
-0.61207236
-0.01200678
-0.61218793
-0.0078798383
-0.0039115667
-0.6125927
0.018776051
-0.61188785
0.0192819
-0.61116643
0.019861336
-0.6104026
0.020712546
-0.60957961
0.021870738
-0.60868616
0.023391479
-0.60771439
0.025340483
-0.60666348
0.027807442
-0.60554681
0.030913691
-0.60439951
0.034820907
-0.60329559
0.03976746
-0.60242538
0.046132956
-0.60218979
0.054299384
-0.60299073
0.064283153
-0.6053839
0.076857163
-0.61248911
0.095051694
-0.6262468
0.11186674
-0.63767351
0.10846709
-0.64485583
0.096072268
-0.64659552
0.0794826
-0.64624134
0.068686792
-0.64629392
0.063554248
-0.64773202
0.060693452
-0.64896518
0.055711667
-0.65026939
0.052305058
-0.65671693
0.055935047
-0.66647352
0.055808861
-0.68415324
0.056917378
-0.69916839
0.035328221
-0.7281148
0.028150468
-0.75055684
-0.021184534
-0.77366883
-0.1056931
-0.67764678
-0.36334916
-0.63108139
-0.28715276
-0.60641893
-0.21856789
-0.60005238
-0.15304117
-0.60035958
-0.11217724
-0.60231731
-0.086497531
-0.604424
-0.068927109
-0.60626942
-0.056080044
-0.60778314
-0.046156182
-0.60899168
-0.038148425
-0.60994244
-0.031453146
-0.61068101
-0.0256858
-0.61124524
-0.02058731
-0.61166471
-0.015974067
-0.61196159
-0.011709898
-0.61215171
-0.0076897206
-0.0038183251
-0.58501153
0.017569855
-0.58377447
0.018044838
-0.58243703
0.0185239
-0.58099594
0.01927145
-0.57942648
0.020301281
-0.5776993
0.021664302
-0.57577917
0.023420354
-0.57362713
0.025655395
-0.57120594
0.028492503
-0.56848691
0.032101878
-0.56545624
0.036736792
-0.56219265
0.042869362
-0.55912542
0.051232158
-0.55696618
0.062123907
-0.55595117
0.075842154
-0.56016367
0.099264201
-0.5790569
0.13075997
-0.59168154
0.12109173
-0.59817514
0.10256586
-0.59490928
0.076216741
-0.58856451
0.06234203
-0.58315704
0.058146778
-0.58161243
0.059148837
-0.57993138
0.054030619
-0.57388883
0.04626251
-0.58531567
0.032377831
-0.59554649
0.037415515
-0.60442027
0.040273664
-0.60294331
0.020459318
-0.63477291
0.039788515
-0.7141867
0.019730937
-0.66924788
-0.054739408
-0.60714121
-0.22770055
-0.57399266
-0.3203013
-0.57163144
-0.2209291
-0.58122724
-0.14344537
-0.58951987
-0.10388461
-0.59566932
-0.080348079
-0.60012465
-0.064471775
-0.60338943
-0.05281527
-0.60581741
-0.0437282
-0.60764479
-0.036321046
-0.60902955
-0.030068386
-0.61007926
-0.024636091
-0.61086837
-0.019798194
-0.61144889
-0.015393545
-0.61185703
-0.011301766
-0.61211739
-0.0074293582
-0.0036908085
-0.5281662
0.015212677
-0.52571823
0.015596864
-0.52311232
0.015917993
-0.52030753
0.016466654
-0.51725266
0.017246411
-0.51388364
0.018295284
-0.51011917
0.019655887
-0.50585887
0.021395095
-0.50098402
0.023617654
-0.4953643
0.02648216
-0.48885766
0.030230152
-0.48133181
0.035343506
-0.47296726
0.042867606
-0.46474409
0.053900743
-0.45644632
0.067544379
-0.44758838
0.090406261
-0.47117577
0.15434737
-0.47222973
0.12214569
-0.46279799
0.09313412
-0.43234677
0.045765529
-0.39895071
0.028945963
-0.36966958
0.02886565
-0.30593547
0.020008501
-0.16439253
0.0149936
-0.040463382
0.0072803158
0
0
0
0
0