/*--------------------------------*- C++ -*----------------------------------*\
| =========                 |                                                 |
| \\      /  F ield         | foam-extend: Open Source CFD                    |
|  \\    /   O peration     | Version:     4.1                                |
|   \\  /    A nd           | Web:         http://www.foam-extend.org         |
|    \\/     M anipulation  |                                                 |
\*---------------------------------------------------------------------------*/
FoamFile
{
    version     2.0;
    format      ascii;
    class       volScalarField;
    location    "1.15";
    object      rAU;
}
// * * * * * * * * * * * * * * * * * * * * * * * * * * * * * * * * * * * * * //

dimensions      [0 0 1 0 0 0 0];

internalField   nonuniform List<scalar> 
4393
(
0.00022769024
0.00022731808
0.00022695354
0.00022658103
0.00022619843
0.00022580432
0.00022539632
0.0002249732
0.00022453408
0.00022407872
0.00022360765
0.00022312232
0.00022262513
0.00022211958
0.00022160997
0.0002211024
0.00022060269
0.00022011785
0.00021965559
0.00021922358
0.00021882971
0.00021848179
0.00021818746
0.00021795406
0.00021778835
0.00021769638
0.00021768286
0.00021768286
0.00021775115
0.00021790238
0.00021813474
0.00021844324
0.00021881964
0.00021925287
0.00021972961
0.00022023527
0.00022075495
0.00022127441
0.00022178076
0.00022226292
0.00022271186
0.0002231206
0.00022348402
0.00022379864
0.00022406234
0.00022427409
0.00022443396
0.00022454245
0.00022458491
0.00022455782
0.00022423881
0.00022393462
0.00022362127
0.00022329599
0.00022295712
0.00022260243
0.00022223102
0.00022184242
0.00022143694
0.00022101578
0.00022058114
0.00022013631
0.00021968571
0.00021923458
0.00021878995
0.00021835843
0.00021794769
0.00021756591
0.00021722108
0.0002169212
0.00021667413
0.00021648742
0.00021636821
0.00021632294
0.00021635709
0.00021644796
0.00021642036
0.00021645981
0.00021658348
0.00021679292
0.00021708658
0.00021745931
0.00021790231
0.00021840355
0.00021894872
0.00021952226
0.00022010859
0.00022069309
0.00022126274
0.0002218066
0.00022231591
0.00022278403
0.00022320615
0.00022357902
0.00022390045
0.00022416955
0.00022438778
0.00022454238
0.00022405444
0.00022374701
0.000223448
0.00022313734
0.0002228123
0.00022247138
0.00022211252
0.00022173512
0.00022133912
0.00022092531
0.00022049554
0.00022005276
0.00021960112
0.00021914601
0.00021869371
0.00021825222
0.00021782909
0.00021743275
0.00021707196
0.00021675507
0.0002164903
0.00021628558
0.00021614848
0.00021608604
0.00021610453
0.00021620908
0.00021631174
0.00021618784
0.00021614522
0.00021619099
0.0002163301
0.00021656424
0.00021689087
0.00021730279
0.00021778843
0.00021833283
0.00021891897
0.0002195293
0.00022014698
0.00022075685
0.000221346
0.00022190402
0.00022242292
0.00022289692
0.00022332199
0.00022369546
0.00022401623
0.00022428433
0.00022448012
0.0002237013
0.00022339905
0.00022309978
0.00022278584
0.00022245475
0.00022210519
0.00022173529
0.00022134465
0.00022093353
0.00022050318
0.00022005599
0.00021959566
0.00021912723
0.00021865709
0.00021819268
0.00021774315
0.00021731716
0.00021692408
0.00021657342
0.00021627406
0.00021603457
0.00021586309
0.00021576734
0.00021575451
0.00021583096
0.00021600179
0.00021610719
0.00021589659
0.00021576903
0.00021573513
0.00021580366
0.00021597988
0.00021626392
0.00021665002
0.00021712661
0.0002176775
0.00021828359
0.0002189248
0.00021958171
0.00022023676
0.00022087503
0.00022148448
0.00022205593
0.00022258274
0.00022306036
0.00022348594
0.00022385825
0.00022417622
0.00022442177
0.00022334174
0.00022304344
0.00022274432
0.00022242742
0.00022209043
0.00022173216
0.00022135084
0.00022094626
0.00022051892
0.00022007044
0.00021960373
0.00021912318
0.0002186347
0.00021814579
0.00021766508
0.00021720306
0.00021676962
0.00021637524
0.00021603025
0.00021574413
0.00021552581
0.0002153837
0.00021532576
0.00021535945
0.00021549146
0.00021572722
0.00021584633
0.00021554455
0.00021532803
0.00021521144
0.00021520797
0.00021532697
0.00021557157
0.0002159373
0.0002164121
0.00021697782
0.00021761249
0.00021829281
0.00021899629
0.0002197027
0.00022039498
0.00022105954
0.00022168611
0.00022226742
0.00022279861
0.00022327681
0.00022370068
0.00022406897
0.00022436591
0.00022296648
0.00022267265
0.00022237472
0.00022205581
0.00022171371
0.00022134728
0.0002209548
0.00022053615
0.000220092
0.00021962425
0.00021913626
0.00021863304
0.00021812143
0.00021761001
0.0002171088
0.00021662976
0.00021618423
0.00021578394
0.00021544017
0.00021516301
0.00021496177
0.00021484513
0.00021482133
0.00021489827
0.00021508326
0.00021538248
0.00021553066
0.0002151318
0.00021482064
0.00021461653
0.00021453794
0.00021459915
0.00021480681
0.0002151577
0.00021563862
0.00021622854
0.00021690158
0.00021763037
0.00021838871
0.00021915336
0.00021990502
0.0002206286
0.00022131297
0.00022195045
0.00022253616
0.00022306745
0.00022354317
0.00022396252
0.0002243115
0.00022257597
0.00022228729
0.00022199157
0.00022167165
0.0002213253
0.00022095132
0.00022054799
0.00022011515
0.00021965357
0.00021916531
0.0002186541
0.00021812553
0.0002175873
0.00021704921
0.00021652279
0.0002160217
0.00021555901
0.0002151479
0.00021480072
0.00021452817
0.00021433989
0.00021424477
0.00021425135
0.0002143681
0.00021460328
0.00021496431
0.0002151622
0.0002146589
0.00021424556
0.00021394703
0.00021378824
0.00021378971
0.00021396242
0.00021430439
0.00021480054
0.00021542564
0.00021614859
0.00021693682
0.00021775965
0.00021859043
0.00021940753
0.00022019446
0.00022093945
0.00022163472
0.00022227566
0.00022286009
0.00022338743
0.00022385768
0.00022425829
0.0002221722
0.00022189001
0.00022159767
0.00022127776
0.00022092801
0.00022054709
0.00022013316
0.00021968598
0.00021920622
0.00021869604
0.00021815938
0.00021760236
0.00021703351
0.00021646392
0.00021590683
0.00021537794
0.00021489237
0.00021446505
0.00021410949
0.000213837
0.00021365741
0.00021357968
0.00021361261
0.00021376535
0.00021404741
0.00021446808
0.00021474252
0.00021412573
0.00021360046
0.00021319806
0.00021295154
0.00021288953
0.00021302864
0.00021336823
0.00021389023
0.00021456349
0.00021534991
0.00021621031
0.00021710862
0.00021801436
0.0002189035
0.00021975837
0.00022056687
0.00022132148
0.00022201824
0.00022265573
0.00022323426
0.00022375485
0.00022420624
0.00022175683
0.00022148196
0.00022119409
0.00022087526
0.00022052304
0.00022013589
0.00021971175
0.00021925013
0.00021875153
0.00021821798
0.00021765355
0.00021706473
0.00021646085
0.00021585435
0.00021526046
0.0002146973
0.00021418253
0.00021373319
0.00021336411
0.00021308711
0.00021291197
0.00021284745
0.00021290246
0.00021308689
0.00021341185
0.00021388916
0.0002142745
0.00021353335
0.00021288383
0.00021236498
0.00021202007
0.00021188858
0.00021199477
0.00021233954
0.00021290026
0.00021363744
0.00021450357
0.00021545107
0.00021643742
0.00021742789
0.00021839612
0.00021932357
0.00022019825
0.0002210134
0.00022176607
0.00022245604
0.0002230848
0.0002236546
0.00022415549
0.00022133185
0.00022106617
0.00022078416
0.0002204676
0.00022011393
0.00021972135
0.00021928744
0.00021881136
0.00021829324
0.00021773482
0.00021714007
0.0002165157
0.00021587177
0.00021522212
0.00021458424
0.00021397926
0.00021342805
0.00021295025
0.00021256221
0.00021227605
0.00021210111
0.00021204554
0.00021211806
0.00021232922
0.00021269209
0.00021322181
0.0002137615
0.0002128831
0.000212094
0.00021144223
0.00021098417
0.00021077415
0.00021084726
0.00021120631
0.00021182173
0.00021264222
0.00021360768
0.00021465981
0.00021574849
0.00021683442
0.00021788913
0.00021889371
0.00021983692
0.00022071329
0.00022152147
0.0002222628
0.00022294029
0.00022355766
0.00022410632
0.00022089964
0.00022064373
0.00022036867
0.00022005557
0.00021970155
0.00021930446
0.00021886141
0.00021837103
0.00021783287
0.00021724818
0.00021662055
0.00021595672
0.00021526727
0.00021456749
0.00021387746
0.00021322206
0.00021262629
0.00021211317
0.00021170072
0.00021140108
0.00021122246
0.00021117178
0.00021125704
0.00021148931
0.00021188385
0.00021246004
0.00021318029
0.00021217803
0.00021123058
0.0002104245
0.00020983299
0.00020953115
0.00020956992
0.00020995461
0.00021064511
0.00021157326
0.0002126619
0.00021383931
0.00021504648
0.0002162394
0.00021738802
0.00021847387
0.00021948727
0.00022042482
0.00022128732
0.00022207816
0.00022280223
0.00022346488
0.00022405911
0.00022046151
0.00022021791
0.00021995157
0.00021964344
0.00021929047
0.0002188901
0.00021843887
0.0002179347
0.00021737632
0.00021676417
0.00021610117
0.00021539374
0.00021465275
0.00021389482
0.00021314298
0.00021242686
0.00021177694
0.00021122069
0.00021077811
0.00021046078
0.00021027489
0.00021022508
0.00021031795
0.00021056468
0.0002109829
0.00021159719
0.00021243674
0.0002114228
0.00021029435
0.00020930644
0.00020855368
0.00020814061
0.00020814222
0.0002085674
0.00020935959
0.00021042635
0.0002116675
0.00021299444
0.00021433816
0.00021565019
0.00021689988
0.00021807037
0.00021915466
0.0002201523
0.00022106696
0.0002219046
0.0002226723
0.0002233773
0.00022401431
0.00022002253
0.00021979129
0.00021953471
0.00021923287
0.00021888234
0.00021847997
0.00021802164
0.00021750433
0.00021692572
0.00021628505
0.00021558419
0.00021482878
0.00021402962
0.00021320437
0.00021237938
0.00021159029
0.00021087512
0.00021026736
0.00020978944
0.00020945147
0.00020925606
0.00020920419
0.00020929995
0.00020955394
0.00020998611
0.00021062722
0.00021151665
0.00021062534
0.0002092887
0.00020808375
0.00020713154
0.00020657882
0.00020653805
0.00020702379
0.00020795323
0.00020919857
0.00021062836
0.00021213324
0.00021363335
0.00021507675
0.00021643383
0.00021769104
0.00021884549
0.00021990079
0.00022086426
0.00022174492
0.00022255243
0.00022329609
0.00022397247
0.00021958133
0.00021936582
0.00021912118
0.00021882757
0.0002184814
0.00021807902
0.00021761544
0.00021708657
0.00021648867
0.0002158194
0.000215079
0.00021427181
0.00021340787
0.00021250536
0.00021159405
0.00021071729
0.00020992351
0.00020925478
0.00020873641
0.00020837569
0.00020816934
0.00020811268
0.00020820596
0.00020845832
0.00020889168
0.00020954387
0.00021046702
0.00020979728
0.00020822053
0.00020675396
0.00020554987
0.00020481528
0.00020472306
0.00020529766
0.00020641293
0.00020788908
0.00020955216
0.00021126789
0.00021294563
0.00021453207
0.00021600126
0.0002173453
0.00021856724
0.00021967604
0.00022068349
0.00022160222
0.00022244472
0.00022322254
0.00022393419
0.00021914848
0.00021894806
0.00021871636
0.00021843253
0.00021809253
0.00021769202
0.00021722506
0.00021668622
0.00021607002
0.000215372
0.00021459012
0.00021372666
0.00021279007
0.00021179805
0.00021078351
0.00020979965
0.00020890988
0.0002081688
0.00020760555
0.00020722241
0.00020700672
0.00020694531
0.00020703286
0.00020727559
0.00020769621
0.00020834007
0.00020927469
0.00020895507
0.00020710198
0.00020531844
0.00020379043
0.00020281041
0.00020265091
0.00020335592
0.00020472472
0.00020650072
0.00020845216
0.00021041625
0.00021229335
0.00021403273
0.00021561602
0.00021704418
0.00021832839
0.0002194844
0.0002205293
0.0002214798
0.00022235141
0.00022315802
0.00022390013
0.00021871559
0.00021853439
0.00021831807
0.00021804626
0.00021771488
0.000217319
0.00021685166
0.00021630591
0.00021567421
0.00021494941
0.0002141264
0.0002132044
0.00021218915
0.00021109623
0.00020996041
0.00020884711
0.00020784148
0.00020701696
0.00020640765
0.00020600699
0.00020578723
0.0002057226
0.00020580029
0.0002060221
0.0002064099
0.00020701673
0.00020792911
0.00020812427
0.00020595342
0.00020378542
0.0002018352
0.0002005124
0.00020025709
0.00020115611
0.00020287469
0.00020504263
0.00020734989
0.00020960378
0.00021170077
0.00021359939
0.0002152946
0.00021680025
0.00021813827
0.00021933265
0.00022040654
0.00022138103
0.00022227477
0.00022310395
0.00022387097
0.00021830502
0.00021814154
0.00021794158
0.00021768377
0.00021736361
0.00021697546
0.00021651117
0.00021596206
0.00021531813
0.00021456888
0.00021370499
0.00021272132
0.00021161938
0.00021041018
0.00020912732
0.00020785051
0.00020669737
0.00020577092
0.00020511224
0.00020470039
0.00020448407
0.00020441978
0.00020448606
0.0002046792
0.00020501682
0.00020555763
0.0002064096
0.00020730208
0.00020480417
0.00020217532
0.00019967111
0.00019785419
0.00019744876
0.00019864345
0.00020085103
0.00020353465
0.00020627901
0.00020886612
0.00021119935
0.00021325724
0.000215056
0.00021662736
0.00021800674
0.00021922772
0.00022032004
0.00022130924
0.00022221702
0.00022306169
0.00022384737
0.00021789625
0.00021775521
0.00021757416
0.0002173327
0.00021702657
0.00021664953
0.0002161923
0.00021564435
0.00021499303
0.00021422397
0.00021332254
0.00021227772
0.00021108525
0.00020974836
0.00020829355
0.00020681507
0.00020547962
0.00020443803
0.00020374075
0.00020334279
0.0002031546
0.00020310618
0.0002031663
0.00020332436
0.0002035871
0.00020401415
0.0002047389
0.00020594845
0.00020371445
0.00020053595
0.00019730307
0.00019475469
0.00019408963
0.00019574833
0.00019864861
0.00020201456
0.00020529105
0.00020825232
0.00021082905
0.00021303614
0.0002149214
0.00021654008
0.00021794369
0.00021917629
0.00022027431
0.00022126748
0.00022218019
0.0002230325
0.00022382996
0.00021754786
0.00021742679
0.00021726569
0.0002170433
0.00021675514
0.0002163944
0.00021595066
0.00021541153
0.00021476148
0.00021398165
0.00021305058
0.00021194878
0.00021066385
0.00020918721
0.0002075271
0.00020578638
0.00020420644
0.00020301919
0.00020228692
0.00020192595
0.00020178493
0.00020175596
0.00020180176
0.00020191031
0.00020207036
0.00020233619
0.00020287038
0.00020391772
0.00020275117
0.00019895955
0.00019479426
0.0001911446
0.00018998391
0.00019238683
0.00019627776
0.00020054997
0.00020446368
0.00020782877
0.00021063933
0.00021297017
0.00021491327
0.00021655288
0.00021795834
0.00021918428
0.00022027318
0.00022125828
0.00022216595
0.00022301746
0.0002238193
0.00021727718
0.00021718155
0.00021704477
0.00021684619
0.00021658177
0.00021624417
0.00021582187
0.00021530058
0.00021466176
0.0002138818
0.00021293127
0.00021177951
0.00021040372
0.00020878148
0.00020688697
0.00020481192
0.00020291125
0.00020156239
0.00020083776
0.00020059209
0.00020057158
0.00020061256
0.00020068077
0.00020077502
0.00020084525
0.00020091646
0.00020117329
0.0002019238
0.00020228996
0.00019777433
0.00019239154
0.0001870526
0.00018487401
0.00018847837
0.00019379075
0.00019926125
0.00020391359
0.00020768359
0.00021068926
0.00021309623
0.00021505371
0.00021667873
0.0002180583
0.00021925618
0.00022031942
0.00022128341
0.00022217547
0.00022301734
0.0002238158
0.00021733325
0.00021726454
0.00021715743
0.00021698996
0.0002167583
0.00021645489
0.00021606762
0.00021558094
0.00021497408
0.00021421939
0.00021327931
0.00021210852
0.00021066877
0.00020892226
0.00020678701
0.00020428735
0.00020193927
0.00020040153
0.00019973716
0.00019971007
0.00019989251
0.00020003525
0.00020012161
0.00020019397
0.00020013119
0.00019989539
0.00019971548
0.00019995888
0.00020110241
0.00019734601
0.00019059628
0.00018284115
0.00017852275
0.00018405692
0.00019136459
0.00019835918
0.00020381222
0.00020792959
0.00021104536
0.00021345077
0.00021536179
0.00021692726
0.00021824832
0.00021939437
0.00022041426
0.00022134358
0.00022220927
0.00022303252
0.00022381973
0.00021807401
0.00021804061
0.00021797836
0.00021786051
0.00021768335
0.00021743926
0.00021711607
0.00021669754
0.00021616091
0.00021547465
0.00021459235
0.00021344879
0.00021197962
0.00021013298
0.00020776005
0.00020470104
0.00020167095
0.00019994201
0.00019948247
0.00019993468
0.0002005444
0.00020092295
0.00020110148
0.00020127103
0.00020121352
0.00020071895
0.00020014195
0.00019971787
0.00020068752
0.00019970502
0.00019123479
0.00017995118
0.00017085621
0.00017953757
0.00018936318
0.00019816924
0.0002043992
0.00020870326
0.00021177524
0.00021406397
0.00021584951
0.00021730238
0.00021852902
0.00021959833
0.000220557
0.00022143828
0.00022226706
0.00022306294
0.00022383112
0.00022069824
0.00022074046
0.00022076486
0.00022073964
0.00022066281
0.00022052751
0.00022032276
0.00022003325
0.00021963634
0.00021909952
0.00021837259
0.00021737368
0.00021600353
0.00021419936
0.0002117726
0.00020814844
0.0002040975
0.00020239463
0.00020254772
0.0002040874
0.00020559806
0.00020651671
0.00020698279
0.00020758196
0.0002079553
0.00020711429
0.00020603434
0.00020420881
0.00020486942
0.00020343734
0.00019646191
0.00018113619
0.00016213991
0.00017617253
0.00018856936
0.00019938665
0.00020605475
0.0002101658
0.00021293516
0.00021495024
0.00021651656
0.00021779964
0.0002188956
0.00021986411
0.00022074475
0.00022156557
0.00022234771
0.00022310805
0.00022384982
0.00022636943
0.00022650537
0.00022666072
0.00022678189
0.00022686639
0.00022690934
0.00022690372
0.00022683921
0.00022669854
0.00022645456
0.0002260619
0.00022542884
0.00022439612
0.00022282952
0.0002205542
0.00021628329
0.00020982558
0.00020822961
0.00020924997
0.00021275164
0.00021589233
0.00021785928
0.0002186781
0.00021994671
0.0002217872
9.2880215e-05
9.5417479e-05
9.7699212e-05
9.99097e-05
0.00010294578
9.4488766e-05
8.6184796e-05
0.00010663756
0.00017919705
0.00019329914
0.00020401299
0.00020935755
0.00021245239
0.00021453554
0.00021609238
0.00021734394
0.00021840385
0.00021933703
0.00022018401
0.00022097233
0.0002217221
0.00022244917
0.00022316675
0.00022387539
0.00023893088
0.00023936583
0.0002398531
0.00024032665
0.00024079472
0.00024126085
0.00024172922
0.00024220325
0.00024268175
0.0002431551
0.00024359649
0.00024392429
0.00024392023
0.00024328043
0.00024199157
0.00023861861
0.00022674212
0.00022855116
0.00023452292
0.00024759997
0.00025975571
0.00026908641
0.00012698194
0.00016767839
0.0003242203
0.00046194669
0.00049956686
0.00049956686
0.00049956686
0.00049956686
0.00049956686
0.00045029244
0.00033643492
6.8069837e-05
0.00021283448
0.00021334308
0.00021428095
0.00021541196
0.0002164665
0.00021742154
0.00021828913
0.00021908831
0.00021983617
0.00022054692
0.0002212325
0.00022190326
0.00022256863
0.00022323749
0.00022390718
0.00026349523
0.0002644616
0.00026557389
0.00026673122
0.00026795164
0.00026925739
0.0002706798
0.00027225889
0.00027404431
0.00027609913
0.00027850871
0.00028138129
0.00028481054
0.00028884606
0.0002938327
0.00030307969
0.000271836
0.00029941228
0.00035056495
0.00037865678
0.00027710314
0.00031449147
0.00049956686
0.00049956686
0.00049956686
0.00049956686
0.00049956686
0.00049956686
0.00049956686
0.00049956686
0.00041274029
0.00041843042
0.00010209389
0.00026630827
0.00023097795
0.00022197699
0.00021917824
0.00021845368
0.00021848542
0.00021882306
0.00021929136
0.00021981792
0.00022037157
0.00022093925
0.00022151653
0.00022210344
0.00022270264
0.00022331834
0.00022394436
0.00030119548
0.000303298
0.0003054061
0.00030759298
0.00030992954
0.00031248401
0.00031533771
0.00031859887
0.00032242052
0.00032703633
0.00033283272
0.00034040849
0.00035045889
0.00036309364
0.00038227768
0.00040227828
0.00024377945
0.00025779107
0.00025253059
0.00049497666
0.00047713637
0.0004865074
0.00047872548
0.00047375111
0.00047748014
0.00045869584
0.00045176361
0.00045355947
0.00044099585
0.00043659983
0.00010701005
0.00010775786
0.00022003608
0.00025239391
0.00023681311
0.00022730013
0.00022302377
0.00022114109
0.00022038279
0.00022018761
0.00022028929
0.00022055621
0.00022092056
0.00022134647
0.00022181496
0.00022231654
0.00022284734
0.00022340705
0.00022398592
0.00029060771
0.00029119478
0.00029144698
0.0002916774
0.00029188945
0.00029211604
0.00029238479
0.00029273341
0.00029321413
0.00029390235
0.00029490897
0.00029613373
0.0002970744
0.00029768773
0.00029484791
0.0001046398
0.00037840677
0.00047260468
0.00047016958
0.00049375684
0.00048610455
0.0004824352
0.00012433309
0.00012138503
0.00010085121
0.0001001346
0.00010070942
0.00010205738
0.00010301331
0.00010460726
0.00020138751
0.00020786869
0.00021828984
0.00023923062
0.00023951183
0.00023066096
0.00022587225
0.00022334349
0.00022204488
0.000221438
0.00022123308
0.00022127101
0.00022146208
0.0002217546
0.00022211846
0.00022253633
0.00022299874
0.00022350126
0.00022403075
0.00022359317
0.00022339705
0.00022306708
0.00022274602
0.0002224417
0.00022217073
0.00022194776
0.00022179413
0.00022173966
0.00022182577
0.00022211008
0.00022223471
0.00022137561
0.00021972469
0.00021718254
0.00021431164
9.6275003e-05
9.93869e-05
9.9972608e-05
9.987303e-05
0.00010024232
0.0001002657
0.00021271722
0.00021098449
0.00020909685
0.00020571056
0.00020459892
0.0002040396
0.00020226889
0.0002022877
0.00020346516
0.0002091863
0.00021842429
0.00023236163
0.00023804921
0.0002323942
0.00022777976
0.00022502134
0.00022341654
0.00022252727
0.00022208768
0.00022193733
0.00022197857
0.00022215135
0.00022241846
0.00022275694
0.00022315294
0.00022359859
0.00022407772
0.0002191601
0.00021923341
0.00021935572
0.00021948505
0.00021963216
0.00021980853
0.00022002608
0.00022030025
0.00022064987
0.00022109686
0.0002216665
0.00022171407
0.0002210239
0.00021987935
0.00021829676
0.00021570258
0.00021299049
0.00021436904
0.00021612292
0.00021439431
0.0002125598
0.00021138692
0.00021022492
0.00020849818
0.0002074581
0.00020583735
0.00020492875
0.00020435322
0.00020362861
0.00020409905
0.0002060854
0.00021105044
0.00021871739
0.00022827157
0.00023398037
0.00023310471
0.00022895083
0.00022622372
0.00022449312
0.00022343625
0.00022283309
0.00022253828
0.00022245686
0.00022252681
0.00022270769
0.00022297315
0.00022330634
0.00022369676
0.00022412571
0.00021773878
0.0002178201
0.0002179469
0.0002180847
0.00021823604
0.000218408
0.00021860864
0.00021884863
0.00021914004
0.00021949571
0.00021992927
0.00021962642
0.00021892184
0.00021792769
0.00021663846
0.00021490506
0.00021367525
0.00021443103
0.00021543805
0.00021363601
0.00021205085
0.00021083317
0.00020967658
0.00020845953
0.00020750118
0.00020643998
0.0002057883
0.00020542757
0.00020535453
0.00020623205
0.00020847839
0.00021277251
0.00021891387
0.00022576371
0.00023043755
0.00023233706
0.00022956592
0.00022702518
0.00022529698
0.00022416522
0.00022346171
0.00022306456
0.00022288828
0.00022287374
0.00022298038
0.00022318057
0.00022345578
0.00022379372
0.00022417368
0.00021704637
0.00021716873
0.00021731016
0.00021746132
0.00021762746
0.00021781455
0.00021802847
0.00021827657
0.00021856576
0.00021890134
0.00021927617
0.00021891346
0.00021831133
0.00021749057
0.00021643246
0.00021522262
0.00021454827
0.00021498995
0.0002151234
0.00021352423
0.00021214102
0.00021099578
0.00020994143
0.00020896047
0.00020813951
0.00020740324
0.00020698431
0.00020686981
0.0002071669
0.00020826112
0.00021047509
0.00021413444
0.0002190123
0.00022414526
0.00022798895
0.00023033213
0.00022979243
0.00022750924
0.00022586492
0.00022472708
0.00022397519
0.0002235131
0.00022326823
0.00022318741
0.00022323235
0.0002233758
0.00022359867
0.00022388769
0.0002242207
0.00021675629
0.00021683303
0.00021695117
0.00021708665
0.00021723731
0.00021740641
0.00021759754
0.00021781554
0.00021806432
0.00021834569
0.00021862127
0.00021826792
0.00021777937
0.00021714953
0.00021638227
0.00021561726
0.00021527988
0.00021562721
0.00021505485
0.00021368427
0.00021247703
0.00021144098
0.00021051345
0.00020969592
0.00020902269
0.0002085051
0.00020826473
0.00020833827
0.00020884279
0.00021001913
0.00021208528
0.00021518342
0.00021908197
0.00022306893
0.00022625617
0.00022841021
0.0002293216
0.00022774979
0.00022623738
0.00022514123
0.0002243812
0.00022388548
0.00022359542
0.0002234654
0.00022346092
0.00022355634
0.00022373296
0.00022397721
0.00022426598
0.00021661285
0.0002167287
0.00021685652
0.0002169932
0.00021714237
0.00021730689
0.00021748835
0.00021768866
0.00021790807
0.00021814397
0.00021834648
0.00021802993
0.0002176155
0.00021710947
0.00021654247
0.00021605204
0.00021589737
0.00021608424
0.00021509089
0.00021393155
0.00021288803
0.00021197461
0.00021117331
0.00021049318
0.00020995832
0.00020960223
0.0002095007
0.00020970663
0.00021032146
0.00021150113
0.00021338148
0.00021600655
0.00021916364
0.00022234926
0.00022501633
0.00022695556
0.00022817888
0.00022781199
0.00022645376
0.00022542972
0.00022469092
0.00022418648
0.00022387107
0.00022370712
0.0002236647
0.0002237206
0.0002238572
0.00022406115
0.00022430888
0.00021654429
0.00021661839
0.00021672734
0.00021685173
0.00021698902
0.00021714023
0.00021730556
0.00021748535
0.00021767802
0.0002178788
0.000218061
0.00021780418
0.00021748064
0.00021710265
0.0002167108
0.00021641785
0.00021638508
0.00021617378
0.00021517138
0.00021419868
0.00021330744
0.0002125195
0.00021183912
0.00021128097
0.00021086882
0.00021063903
0.00021064652
0.00021094421
0.00021161227
0.00021275233
0.00021444231
0.00021667549
0.00021926994
0.00022187211
0.00022412435
0.00022585286
0.00022703264
0.00022752369
0.0002265484
0.00022561428
0.00022491697
0.00022442277
0.00022409821
0.00022391346
0.00022384343
0.00022386778
0.00022397043
0.00022413869
0.00022434892
0.00021649426
0.00021658934
0.00021669894
0.00021681678
0.00021694429
0.00021708239
0.00021723027
0.00021738691
0.00021754935
0.00021771152
0.00021786141
0.00021767153
0.00021741653
0.00021713678
0.00021687424
0.00021671543
0.00021667931
0.00021609907
0.00021527718
0.00021446671
0.00021371518
0.00021304883
0.00021248274
0.00021203528
0.0002117308
0.00021160316
0.00021169575
0.00021205515
0.0002127416
0.00021382025
0.0002153305
0.00021724152
0.00021940396
0.00022156719
0.00022348583
0.00022501993
0.00022613003
0.0002268466
0.00022655115
0.00022571511
0.00022507217
0.00022460197
0.00022428095
0.0002240863
0.00022399767
0.00022399771
0.00022407218
0.00022420933
0.00022438575
0.00021646737
0.00021653821
0.00021663623
0.0002167456
0.00021686414
0.00021699159
0.0002171262
0.00021726599
0.00021740703
0.0002175425
0.00021766127
0.00021756309
0.00021737244
0.00021717657
0.00021701416
0.00021695058
0.00021669866
0.00021607798
0.00021540453
0.00021473454
0.00021410956
0.00021355713
0.00021309715
0.00021274993
0.00021253946
0.00021249585
0.00021265441
0.00021305353
0.00021373688
0.0002147447
0.00021609205
0.00021773864
0.00021956441
0.00022138857
0.00022303629
0.00022439614
0.0002254252
0.00022613341
0.00022639493
0.00022574983
0.00022516869
0.00022473191
0.00022442401
0.00022422825
0.00022412862
0.00022411078
0.00022416237
0.00022427282
0.00022441919
0.00021644826
0.00021652476
0.00021661854
0.00021671962
0.00021682764
0.00021694231
0.00021706143
0.00021718258
0.0002173015
0.0002174114
0.00021750204
0.00021748478
0.00021734682
0.00021721736
0.00021712984
0.00021700397
0.00021660676
0.00021610027
0.00021555103
0.00021500298
0.00021449178
0.00021404412
0.00021368143
0.00021342443
0.00021329583
0.00021332182
0.00021353125
0.0002139544
0.0002146219
0.000215557
0.00021676008
0.00021818918
0.00021974851
0.00022130505
0.00022273051
0.00022393634
0.00022488126
0.00022556377
0.00022600842
0.00022573356
0.00022521754
0.00022482019
0.00022453232
0.00022434229
0.00022423794
0.00022420773
0.00022424124
0.00022432914
0.00022444914
0.00021644272
0.0002165073
0.00021659357
0.00021668759
0.00021678748
0.00021689237
0.00021699966
0.0002171066
0.00021720881
0.00021729982
0.00021737046
0.00021739651
0.00021732986
0.00021724543
0.0002171431
0.00021691334
0.00021656933
0.00021615819
0.00021571442
0.00021527268
0.00021486325
0.00021451086
0.00021423658
0.00021406041
0.00021400311
0.00021408713
0.00021433578
0.00021477218
0.00021541697
0.00021628193
0.00021735908
0.00021860857
0.000219954
0.00022129555
0.00022253681
0.00022360727
0.00022446951
0.00022511604
0.00022556077
0.00022567685
0.00022522852
0.00022487391
0.00022461079
0.00022443162
0.00022432757
0.00022428963
0.00022430927
0.00022437844
0.00022447563
0.00021644442
0.00021650763
0.00021658859
0.00021667527
0.00021676637
0.000216861
0.00021695645
0.00021704994
0.00021713726
0.00021721253
0.00021726783
0.00021729314
0.00021727391
0.00021720508
0.00021706618
0.0002168542
0.00021657415
0.00021624444
0.00021589147
0.00021554292
0.00021522438
0.00021495811
0.00021476376
0.00021465985
0.00021466485
0.00021479765
0.00021507678
0.00021551932
0.00021613842
0.00021693824
0.00021790641
0.00021900679
0.00022017819
0.0002213443
0.00022243131
0.00022338287
0.00022416615
0.00022477092
0.00022520434
0.00022548468
0.00022520991
0.00022489948
0.00022466408
0.00022449945
0.00022439959
0.00022435774
0.00022436713
0.00022442101
0.00022449873
0.0002164549
0.00021651189
0.00021658731
0.00021666784
0.00021675174
0.00021683792
0.00021692366
0.00021700627
0.00021708188
0.0002171453
0.0002171899
0.00021720761
0.00021718931
0.00021712554
0.00021700825
0.00021683529
0.00021661193
0.00021635292
0.00021607904
0.00021581268
0.00021557541
0.00021538682
0.00021526463
0.00021522543
0.00021528521
0.00021545957
0.00021576287
0.00021620727
0.00021680033
0.00021754123
0.00021841565
0.00021939159
0.0002204197
0.00022144073
0.00022239729
0.00022324416
0.00022395315
0.00022451326
0.00022492746
0.00022520846
0.0002251691
0.00022490273
0.00022469658
0.00022454896
0.00022445615
0.00022441342
0.00022441559
0.00022445723
0.00022451859
0.00021647137
0.00021652522
0.00021659592
0.00021667055
0.00021674754
0.00021682586
0.00021690285
0.00021697606
0.00021704203
0.00021709638
0.00021713366
0.00021714757
0.00021713129
0.00021707827
0.00021698357
0.00021684729
0.00021667468
0.00021647788
0.00021627365
0.00021608027
0.0002159159
0.00021579747
0.00021574053
0.00021575953
0.00021586795
0.00021607833
0.00021640146
0.00021684545
0.00021741377
0.00021810239
0.00021889644
0.00021976793
0.00022067675
0.00022157626
0.00022242131
0.00022317554
0.00022381511
0.00022432938
0.00022471893
0.00022499266
0.00022510785
0.0002248886
0.00022471223
0.00022458308
0.00022449937
0.00022445806
0.00022445549
0.00022448753
0.00022453538
0.0002164933
0.00021654336
0.0002166098
0.00021667939
0.00021675047
0.00021682206
0.00021689168
0.00021695715
0.00021701554
0.00021706323
0.00021709594
0.00021710891
0.00021709729
0.0002170568
0.00021698478
0.00021688281
0.00021675598
0.00021661451
0.00021647221
0.00021634411
0.00021624546
0.00021619066
0.00021619306
0.00021626484
0.00021641705
0.00021665942
0.00021699963
0.00021744253
0.0002179885
0.00021863151
0.00021935689
0.00022014027
0.00022094881
0.00022174534
0.00022249408
0.00022316574
0.00022374049
0.0002242087
0.00022456978
0.00022483011