/*--------------------------------*- C++ -*----------------------------------*\
| =========                 |                                                 |
| \\      /  F ield         | foam-extend: Open Source CFD                    |
|  \\    /   O peration     | Version:     4.1                                |
|   \\  /    A nd           | Web:         http://www.foam-extend.org         |
|    \\/     M anipulation  |                                                 |
\*---------------------------------------------------------------------------*/
FoamFile
{
    version     2.0;
    format      ascii;
    class       volVectorField;
    location    "1.15";
    object      U;
}
// * * * * * * * * * * * * * * * * * * * * * * * * * * * * * * * * * * * * * //

dimensions      [0 1 -1 0 0 0 0];

internalField   nonuniform List<vector> 
4393
(
(145.99564 -0.15583104 0)
(146.5416 -0.16232799 0)
(146.95422 -0.16539699 0)
(147.39381 -0.16909744 0)
(147.84338 -0.17355305 0)
(148.30784 -0.17885249 0)
(148.78939 -0.18492157 0)
(149.29021 -0.19161859 0)
(149.81195 -0.19874299 0)
(150.35555 -0.20603694 0)
(150.92113 -0.21318506 0)
(151.50775 -0.2198169 0)
(152.11332 -0.22551478 0)
(152.7344 -0.2298287 0)
(153.36618 -0.2322986 0)
(154.00249 -0.23248196 0)
(154.63586 -0.22998191 0)
(155.25773 -0.22446998 0)
(155.85867 -0.21569908 0)
(156.42863 -0.2035056 0)
(156.95718 -0.18780423 0)
(157.43376 -0.1685811 0)
(157.84784 -0.14589184 0)
(158.18915 -0.11986966 0)
(158.44796 -0.090746891 0)
(158.61543 -0.058887807 0)
(158.68413 -0.024810621 0)
(158.64875 0.010803302 0)
(158.50596 0.046880912 0)
(158.25656 0.081999438 0)
(157.90551 0.11469644 0)
(157.46219 0.14355201 0)
(156.94001 0.16733092 0)
(156.35568 0.18513541 0)
(155.72794 0.19650378 0)
(155.07625 0.20143003 0)
(154.41942 0.20030981 0)
(153.77462 0.19383746 0)
(153.15662 0.18288461 0)
(152.5775 0.16838626 0)
(152.04661 0.15125022 0)
(151.57075 0.1322956 0)
(151.15453 0.11221948 0)
(150.80073 0.09159827 0)
(150.51075 0.070938561 0)
(150.28505 0.050700798 0)
(150.12309 0.03103922 0)
(150.02127 0.011860648 0)
(149.97396 -0.003102617 0)
(149.41944 -0.39286875 0)
(149.88621 -0.40399102 0)
(150.23076 -0.41225225 0)
(150.59911 -0.42294241 0)
(150.97725 -0.43618432 0)
(151.37016 -0.45202295 0)
(151.78021 -0.47019983 0)
(152.20968 -0.49028327 0)
(152.66027 -0.51167614 0)
(153.13304 -0.53361322 0)
(153.62817 -0.5551575 0)
(154.14481 -0.57520602 0)
(154.68092 -0.59251177 0)
(155.23311 -0.60572709 0)
(155.79658 -0.61346992 0)
(156.36512 -0.61440685 0)
(156.9312 -0.60733893 0)
(157.48616 -0.59127156 0)
(158.02045 -0.56545465 0)
(158.52393 -0.52938979 0)
(158.98607 -0.48281481 0)
(159.39617 -0.42568404 0)
(159.74361 -0.35816439 0)
(160.01799 -0.28066341 0)
(160.20941 -0.19390051 0)
(160.30882 -0.099020164 0)
(160.30855 0.0022966228 0)
(160.20292 0.10777126 0)
(159.98971 0.21429937 0)
(159.66964 0.31804349 0)
(159.24748 0.41477779 0)
(158.73242 0.50028314 0)
(158.13793 0.5708499 0)
(157.48084 0.62375656 0)
(156.78016 0.657575 0)
(156.05557 0.6722337 0)
(155.3261 0.66885753 0)
(154.60901 0.64946026 0)
(153.91908 0.61658231 0)
(153.26835 0.57295065 0)
(152.66603 0.52120766 0)
(152.11883 0.46372493 0)
(151.63123 0.40249925 0)
(151.20597 0.33914169 0)
(150.84449 0.27497787 0)
(150.54712 0.2110722 0)
(150.31305 0.14771084 0)
(150.14122 0.084758108 0)
(150.03539 0.028783182 0)
(149.68449 -0.62603264 0)
(150.13624 -0.63549025 0)
(150.46996 -0.64790524 0)
(150.82658 -0.66513827 0)
(151.19301 -0.6870501 0)
(151.57433 -0.71343389 0)
(151.97303 -0.74379964 0)
(152.39149 -0.77741175 0)
(152.83157 -0.81327393 0)
(153.29445 -0.85011166 0)
(153.78048 -0.88636068 0)
(154.28898 -0.92017328 0)
(154.81806 -0.94945276 0)
(155.36444 -0.97192545 0)
(155.9234 -0.98525355 0)
(156.48872 -0.98717947 0)
(157.05283 -0.97567623 0)
(157.60698 -0.94907005 0)
(158.14151 -0.90610843 0)
(158.64617 -0.84596779 0)
(159.11032 -0.76821939 0)
(159.5232 -0.67278723 0)
(159.87403 -0.55993453 0)
(160.15226 -0.43030834 0)
(160.34769 -0.28506201 0)
(160.45087 -0.12606117 0)
(160.4536 0.043869512 0)
(160.34959 0.22078578 0)
(160.13514 0.39957617 0)
(159.81029 0.57395082 0)
(159.37954 0.7367688 0)
(158.8523 0.88079493 0)
(158.2427 0.99963987 0)
(157.56861 1.0886264 0)
(156.85024 1.1453333 0)
(156.10842 1.1696974 0)
(155.36313 1.1637152 0)
(154.63225 1.1308906 0)
(153.93091 1.0755959 0)
(153.27116 1.0024823 0)
(152.66209 0.91601759 0)
(152.11008 0.82017521 0)
(151.61927 0.71826714 0)
(151.1921 0.61291731 0)
(150.8297 0.50615517 0)
(150.53194 0.39941865 0)
(150.29758 0.29321743 0)
(150.12738 0.18789642 0)
(150.02935 0.087752706 0)
(149.77629 -0.85382633 0)
(150.2202 -0.86399722 0)
(150.54939 -0.88060373 0)
(150.90124 -0.90446739 0)
(151.26314 -0.93521742 0)
(151.64025 -0.97242506 0)
(152.03526 -1.0153751 0)
(152.45074 -1.0630435 0)
(152.88877 -1.1140541 0)
(153.35076 -1.1666403 0)
(153.8373 -1.2186203 0)
(154.34793 -1.2673987 0)
(154.88094 -1.3100095 0)
(155.43317 -1.3432148 0)
(155.9999 -1.3636677 0)
(156.5748 -1.3681262 0)
(157.15006 -1.3536807 0)
(157.71661 -1.3179404 0)
(158.26447 -1.259132 0)
(158.78303 -1.1761023 0)
(159.26136 -1.0682526 0)
(159.6884 -0.93545921 0)
(160.0531 -0.77803802 0)
(160.34453 -0.59679719 0)
(160.552 -0.3932089 0)
(160.66538 -0.16971003 0)
(160.6756 0.069913871 0)
(160.57538 0.32021611 0)
(160.36 0.57390457 0)
(160.02867 0.82189028 0)
(159.5855 1.0537676 0)
(159.04023 1.2589017 0)
(158.40801 1.4278639 0)
(157.70836 1.553783 0)
(156.96338 1.6331829 0)
(156.19574 1.6661157 0)
(155.42688 1.6556729 0)
(154.67565 1.6071207 0)
(153.95765 1.5269269 0)
(153.28498 1.4218873 0)
(152.66645 1.2984587 0)
(152.10797 1.1623284 0)
(151.61315 1.0182005 0)
(151.18389 0.86976947 0)
(150.82082 0.71981084 0)
(150.52328 0.57022045 0)
(150.2897 0.42201999 0)
(150.12158 0.27632091 0)
(150.02723 0.13550291 0)
(149.88428 -1.0761638 0)
(150.32021 -1.0879905 0)
(150.64413 -1.1089091 0)
(150.99067 -1.1395182 0)
(151.34759 -1.1792816 0)
(151.7202 -1.227588 0)
(152.11138 -1.2835102 0)
(152.52396 -1.3457469 0)
(152.9603 -1.4125502 0)
(153.42212 -1.4816641 0)
(153.91033 -1.5502804 0)
(154.42477 -1.6150309 0)
(154.964 -1.6720335 0)
(155.52499 -1.7170165 0)
(156.10303 -1.7455358 0)
(156.69163 -1.7532737 0)
(157.28263 -1.7363647 0)
(157.86652 -1.6916624 0)
(158.43282 -1.6168752 0)
(158.97046 -1.5105532 0)
(159.46813 -1.3719702 0)
(159.91441 -1.2009837 0)
(160.2979 -0.99795807 0)
(160.60725 -0.76381708 0)
(160.83115 -0.5002672 0)
(160.95858 -0.21020842 0)
(160.97934 0.10172024 0)
(160.88479 0.42866547 0)
(160.66866 0.76123084 0)
(160.32893 1.0873494 0)
(159.86905 1.3929244 0)
(159.29911 1.6633435 0)
(158.63575 1.8855789 0)
(157.90084 2.0501961 0)
(157.11923 2.1525743 0)
(156.3162 2.1930508 0)
(155.51522 2.1761489 0)
(154.73648 2.109289 0)
(153.99615 2.0013924 0)
(153.30631 1.8616695 0)
(152.67532 1.6987302 0)
(152.10842 1.5200382 0)
(151.60843 1.3316666 0)
(151.17651 1.1382857 0)
(150.81258 0.94327593 0)
(150.51538 0.74884911 0)
(150.28311 0.55629318 0)
(150.11743 0.36687857 0)
(150.02594 0.18181083 0)
(150.02062 -1.296027 0)
(150.44671 -1.309991 0)
(150.76389 -1.3353973 0)
(151.10368 -1.3729608 0)
(151.45431 -1.4220455 0)
(151.82119 -1.4819147 0)
(152.20749 -1.5514683 0)
(152.61632 -1.6291614 0)
(153.05039 -1.7129043 0)
(153.51183 -1.7999705 0)
(154.00198 -1.8869279 0)
(154.52108 -1.9696124 0)
(155.06804 -2.04317 0)
(155.64005 -2.1022014 0)
(156.23244 -2.1410386 0)
(156.83846 -2.1541492 0)
(157.44953 -2.1365919 0)
(158.05553 -2.0843929 0)
(158.64531 -1.9947278 0)
(159.20722 -1.8658769 0)
(159.72944 -1.6970229 0)
(160.20017 -1.4880146 0)
(160.60763 -1.2392213 0)
(160.93997 -0.95156869 0)
(161.18519 -0.6268174 0)
(161.33118 -0.26810746 0)
(161.36622 0.11927982 0)
(161.27987 0.52717375 0)
(161.06377 0.94397848 0)
(160.71402 1.3543622 0)
(160.23304 1.7399332 0)
(159.63127 2.0812656 0)
(158.92733 2.360913 0)
(158.1464 2.5663495 0)
(157.31713 2.6917133 0)
(156.46835 2.7379213 0)
(155.62627 2.711464 0)
(154.81273 2.6225216 0)
(154.04455 2.4830173 0)
(153.33367 2.3049976 0)
(152.68773 2.0995033 0)
(152.11101 1.8759241 0)
(151.60524 1.6417503 0)
(151.17053 1.4026016 0)
(150.80588 1.1624002 0)
(150.50926 0.9235954 0)
(150.27842 0.68751773 0)
(150.11482 0.45509581 0)
(150.02521 0.22643587 0)
(150.18599 -1.5069394 0)
(150.60069 -1.5233348 0)
(150.90963 -1.5534928 0)
(151.24113 -1.5983364 0)
(151.58395 -1.6571612 0)
(151.94369 -1.7291482 0)
(152.3238 -1.8130639 0)
(152.72776 -1.907159 0)
(153.15873 -2.0090365 0)
(153.61931 -2.1155244 0)
(154.11138 -2.2225721 0)
(154.63575 -2.3251957 0)
(155.19175 -2.4175041 0)
(155.77694 -2.4928546 0)
(156.38667 -2.5441939 0)
(157.01395 -2.5645943 0)
(157.64958 -2.5478872 0)
(158.28263 -2.4891953 0)
(158.9011 -2.3851752 0)
(159.49256 -2.2339186 0)
(160.04463 -2.0346168 0)
(160.5451 -1.7871754 0)
(160.98182 -1.4919583 0)
(161.34248 -1.1497842 0)
(161.61431 -0.7622551 0)
(161.78391 -0.33245822 0)
(161.83772 0.13399631 0)
(161.76295 0.62787358 0)
(161.54834 1.1354884 0)
(161.18734 1.6379279 0)
(160.68068 2.1117039 0)
(160.03904 2.5313861 0)
(159.2837 2.8739045 0)
(158.4443 3.122867 0)
(157.55472 3.2710393 0)
(156.64854 3.3203476 0)
(155.75547 3.2799963 0)
(154.89939 3.1637353 0)
(154.09776 2.987184 0)
(153.36211 2.7657241 0)
(152.69906 2.5131227 0)
(152.11149 2.2408225 0)
(151.59975 1.9577377 0)
(151.16259 1.6703761 0)
(150.79786 1.3831235 0)
(150.50256 1.0986008 0)
(150.27381 0.81809369 0)
(150.11254 0.5421489 0)
(150.02464 0.27007801 0)
(150.37971 -1.716455 0)
(150.78053 -1.7352872 0)
(151.07964 -1.7702045 0)
(151.40121 -1.8224195 0)
(151.73465 -1.8912084 0)
(152.08574 -1.9757247 0)
(152.45825 -2.0746586 0)
(152.8561 -2.1861146 0)
(153.28294 -2.3074439 0)
(153.74201 -2.4350729 0)
(154.23585 -2.5643529 0)
(154.76594 -2.6894624 0)
(155.33228 -2.8034006 0)
(155.93285 -2.8981374 0)
(156.56313 -2.9650158 0)
(157.21581 -2.9954562 0)
(157.88091 -2.9818397 0)
(158.54641 -2.9182664 0)
(159.19917 -2.8008879 0)
(159.82583 -2.6277194 0)
(160.41334 -2.3980979 0)
(160.94909 -2.1120739 0)
(161.42067 -1.76999 0)
(161.8154 -1.372406 0)
(162.11973 -0.92047185 0)
(162.31885 -0.41681369 0)
(162.39694 0.13308377 0)
(162.33828 0.7192749 0)
(162.12774 1.3261007 0)
(161.75493 1.9307529 0)
(161.21792 2.5036226 0)
(160.52739 3.0116096 0)
(159.70803 3.4242824 0)
(158.7956 3.7202915 0)
(157.83107 3.8909184 0)
(156.85433 3.9397979 0)
(155.89952 3.8799618 0)
(154.99287 3.7298742 0)
(154.15234 3.5097867 0)
(153.38865 3.2390508 0)
(152.70688 2.9345053 0)
(152.10807 2.6097601 0)
(151.59068 2.2751104 0)
(151.15181 1.9378166 0)
(150.78788 1.6025513 0)
(150.49478 1.2719124 0)
(150.26884 0.94693527 0)
(150.11024 0.62768458 0)
(150.0241 0.31279904 0)
(150.60123 -1.9112472 0)
(150.98668 -1.9327558 0)
(151.2744 -1.9728338 0)
(151.58434 -2.032971 0)
(151.90667 -2.1124379 0)
(152.24738 -2.2104072 0)
(152.61064 -2.3255511 0)
(153.00082 -2.4558947 0)
(153.42219 -2.5986039 0)
(153.87871 -2.7497597 0)
(154.37376 -2.9041457 0)
(154.90969 -3.0550891 0)
(155.48734 -3.1943979 0)
(156.10534 -3.3124773 0)
(156.7594 -3.3987807 0)
(157.44184 -3.4427243 0)
(158.14165 -3.4349272 0)
(158.84537 -3.3683149 0)
(159.53837 -3.2385859 0)
(160.20609 -3.0438847 0)
(160.83474 -2.7839405 0)
(161.41143 -2.4591261 0)
(161.92364 -2.0697952 0)
(162.3585 -1.6160927 0)
(162.70183 -1.0983549 0)
(162.93732 -0.51821001 0)
(163.04651 0.11961858 0)
(163.01005 0.80508052 0)
(162.80766 1.5209514 0)
(162.42354 2.240282 0)
(161.85152 2.9260656 0)
(161.10171 3.5351845 0)
(160.20322 4.0272776 0)
(159.20023 4.3744484 0)
(158.1434 4.5664084 0)
(157.08092 4.6095833 0)
(156.0525 4.5224374 0)
(155.08692 4.3297047 0)
(154.2023 4.0574675 0)
(153.40795 3.7298041 0)
(152.70668 3.366993 0)
(152.09705 2.9848992 0)
(151.57516 2.5951127 0)
(151.13604 2.2054755 0)
(150.77442 1.8207499 0)
(150.4849 1.4433074 0)
(150.26283 1.0737423 0)
(150.10759 0.71151769 0)
(150.0235 0.35455522 0)
(150.85029 -2.1079939 0)
(151.21711 -2.1320324 0)
(151.49162 -2.177095 0)
(151.78806 -2.2450366 0)
(152.09743 -2.3351852 0)
(152.42592 -2.4467991 0)
(152.77808 -2.5786126 0)
(153.15882 -2.7286633 0)
(153.57311 -2.8940308 0)
(154.02577 -3.0705425 0)
(154.52118 -3.2524799 0)
(155.06282 -3.4323358 0)
(155.65262 -3.6006641 0)
(156.29012 -3.7461152 0)
(156.97148 -3.8559002 0)
(157.68857 -3.916958 0)
(158.42906 -3.917712 0)
(159.17753 -3.8497048 0)
(159.91735 -3.70828 0)
(160.63243 -3.4920322 0)
(161.30822 -3.2014532 0)
(161.93165 -2.8374959 0)
(162.49045 -2.40058 0)
(162.97189 -1.8902351 0)
(163.36143 -1.3055058 0)
(163.64129 -0.6462925 0)
(163.79003 0.084334487 0)
(163.78391 0.87714413 0)
(163.5959 1.7139911 0)
(163.20258 2.5637405 0)
(162.59114 3.3804951 0)
(161.76998 4.1078302 0)
(160.77392 4.6916289 0)
(159.65886 5.0951265 0)
(158.4888 5.3065122 0)
(157.32294 5.3367327 0)
(156.20779 5.2120385 0)
(155.17472 4.9655613 0)
(154.24136 4.6307322 0)
(153.4146 4.2372193 0)
(152.69409 3.8090774 0)
(152.07508 3.364413 0)
(151.5507 2.9159054 0)
(151.11351 2.4716942 0)
(150.75625 2.0363392 0)
(150.47209 1.61172 0)
(150.25529 1.1977734 0)
(150.10434 0.79322136 0)
(150.02277 0.39516817 0)
(151.12528 -2.2798111 0)
(151.47251 -2.3065301 0)
(151.73222 -2.3569776 0)
(152.01335 -2.4333339 0)
(152.30784 -2.534998 0)
(152.62209 -2.6613772 0)
(152.96108 -2.8113571 0)
(153.33029 -2.9830981 0)
(153.73549 -3.1737153 0)
(154.18249 -3.3789016 0)
(154.6769 -3.5925288 0)
(155.22356 -3.8062911 0)
(155.82586 -4.0094293 0)
(156.48466 -4.1886137 0)
(157.19681 -4.3283391 0)
(157.95378 -4.4123776 0)
(158.74151 -4.4262864 0)
(159.54188 -4.359885 0)
(160.33554 -4.2082959 0)
(161.10448 -3.9710498 0)
(161.83331 -3.6499668 0)
(162.50913 -3.2469933 0)
(163.12035 -2.762764 0)
(163.65497 -2.196026 0)
(164.09853 -1.5439914 0)
(164.43203 -0.80391849 0)
(164.63075 0.023962299 0)
(164.66558 0.93258655 0)
(164.50122 1.9040415 0)
(164.10333 2.9034208 0)
(163.44879 3.8743198 0)
(162.54213 4.742384 0)
(161.42548 5.4339004 0)
(160.17135 5.8997427 0)
(158.8624 6.1269252 0)
(157.57241 6.1336834 0)
(156.35607 5.9575116 0)
(155.24703 5.642823 0)
(154.2612 5.2322823 0)
(153.40168 4.7620843 0)
(152.66362 4.2603108 0)
(152.038 3.747151 0)
(151.5143 3.2360212 0)
(151.08211 2.7349528 0)
(150.73199 2.2479195 0)
(150.45549 1.7759788 0)
(150.24573 1.3181517 0)
(150.10028 0.87223656 0)
(150.02187 0.43437236 0)
(151.42726 -2.4623187 0)
(151.75048 -2.4917407 0)
(151.99325 -2.5474714 0)
(152.25689 -2.6321315 0)
(152.53427 -2.7452698 0)
(152.83194 -2.886522 0)
(153.15529 -3.0550286 0)
(153.51043 -3.2492009 0)
(153.90397 -3.466342 0)
(154.3429 -3.7021711 0)
(154.83428 -3.9502904 0)
(155.38466 -4.2016815 0)
(155.99933 -4.4442616 0)
(156.68101 -4.6625155 0)
(157.42773 -4.8376657 0)
(158.23068 -4.9493989 0)
(159.07348 -4.9794697 0)
(159.9343 -4.915543 0)
(160.79002 -4.7528363 0)
(161.62006 -4.4926754 0)
(162.4082 -4.139155 0)
(163.14215 -3.6958775 0)
(163.8117 -3.1639403 0)
(164.40638 -2.5411116 0)
(164.91259 -1.8220513 0)
(165.31052 -1.0000847 0)
(165.57219 -0.070912183 0)
(165.66161 0.9624231 0)
(165.53432 2.0840055 0)
(165.1404 3.2566475 0)
(164.44066 4.4119381 0)
(163.43174 5.4511558 0)
(162.16509 6.2718877 0)
(160.73725 6.8072386 0)
(159.25744 7.0440948 0)
(157.81881 7.0124627 0)
(156.48552 6.7661941 0)
(155.29252 6.3648576 0)
(154.252 5.8626116 0)
(153.36122 5.3030883 0)
(152.60918 4.7184363 0)
(151.98136 4.1305158 0)
(151.4628 3.5529056 0)
(151.03974 2.9929571 0)
(150.70028 2.4535625 0)
(150.43427 1.9345627 0)
(150.2337 1.4337703 0)
(150.09523 0.94785407 0)
(150.02075 0.47182367 0)
(151.75093 -2.602344 0)
(152.05012 -2.6340959 0)
(152.27441 -2.695001 0)
(152.51866 -2.7880504 0)
(152.77685 -2.9129598 0)
(153.05566 -3.0696828 0)
(153.36089 -3.2577497 0)
(153.69927 -3.4760029 0)
(154.07835 -3.7221543 0)
(154.50643 -3.9921986 0)
(154.99226 -4.2797079 0)
(155.54449 -4.5751368 0)
(156.17084 -4.8651675 0)
(156.87661 -5.1319618 0)
(157.66183 -5.3528177 0)
(158.51764 -5.5020286 0)
(159.42459 -5.5560597 0)
(160.35561 -5.4996254 0)
(161.28222 -5.3283698 0)
(162.18044 -5.0465403 0)
(163.03334 -4.6617105 0)
(163.82997 -4.1798825 0)
(164.56258 -3.6028295 0)
(165.22342 -2.9271193 0)
(165.80094 -2.1440993 0)
(166.27541 -1.2416813 0)
(166.61563 -0.20896932 0)
(166.77839 0.95727163 0)
(166.70737 2.2458618 0)
(166.33198 3.6202216 0)
(165.58805 4.9993029 0)
(164.45705 6.2512398 0)
(163.00193 7.2303935 0)
(161.35491 7.843363 0)
(159.66382 8.0795053 0)
(158.04749 7.9879125 0)
(156.58049 7.6463945 0)
(155.29681 7.1348007 0)
(154.20179 6.5213637 0)
(153.28393 5.8578615 0)
(152.5239 5.1801647 0)
(151.9003 4.5110141 0)
(151.39293 3.8632788 0)
(150.98424 3.2428526 0)
(150.65975 2.6509243 0)
(150.40764 2.0856533 0)
(150.2188 1.5433167 0)
(150.08901 1.0192306 0)
(150.01938 0.50711004 0)
(152.10112 -2.7700853 0)
(152.37049 -2.8049484 0)
(152.57384 -2.871617 0)
(152.79622 -2.9735945 0)
(153.0326 -3.110864 0)
(153.28963 -3.2837995 0)
(153.57348 -3.4924534 0)
(153.89146 -3.736269 0)
(154.2521 -4.0135815 0)
(154.66515 -4.3209145 0)
(155.14136 -4.6520607 0)
(155.69188 -4.9971381 0)
(156.32753 -5.341696 0)
(157.05728 -5.6654549 0)
(157.88441 -5.9409766 0)
(158.80064 -6.1352492 0)
(159.78264 -6.217099 0)
(160.79578 -6.1670482 0)
(161.8039 -5.9818691 0)
(162.77845 -5.6708393 0)
(163.70198 -5.2473199 0)
(164.56602 -4.7213005 0)
(165.36657 -4.0960197 0)
(166.10009 -3.3670535 0)
(166.75866 -2.5218331 0)
(167.32397 -1.5409601 0)
(167.7621 -0.40387848 0)
(168.02209 0.90255189 0)
(168.03435 2.3759949 0)
(167.70112 3.9859197 0)
(166.91988 5.6404643 0)
(165.64354 7.1632087 0)
(163.94831 8.3416426 0)
(162.02097 9.0410034 0)
(160.06679 9.2591875 0)
(158.23839 9.0763861 0)
(156.62062 8.6057113 0)
(155.2421 7.9538926 0)
(154.09641 7.205924 0)
(153.15927 6.4219073 0)
(152.40033 5.6404358 0)
(151.78977 4.8837892 0)
(151.30136 4.1628676 0)
(150.91352 3.4810907 0)
(150.60917 2.8371913 0)
(150.3749 2.2271225 0)
(150.20067 1.645279 0)
(150.0815 1.0854016 0)
(150.01773 0.53976075 0)
(152.46515 -2.8679838 0)
(152.70585 -2.9043648 0)
(152.88681 -2.975367 0)
(153.0854 -3.0848576 0)
(153.29773 -3.2330644 0)
(153.53045 -3.4208557 0)
(153.78997 -3.6489535 0)
(154.0842 -3.9176309 0)
(154.42263 -4.226177 0)
(154.8166 -4.572086 0)
(155.27913 -4.9498847 0)
(155.82436 -5.3498537 0)
(156.46693 -5.7568859 0)
(157.22081 -6.1486368 0)
(158.09449 -6.4924786 0)
(159.08155 -6.7458122 0)
(160.15354 -6.8664538 0)
(161.26473 -6.828915 0)
(162.36746 -6.6322652 0)
(163.42669 -6.2939072 0)
(164.42498 -5.8359239 0)
(165.35804 -5.2735338 0)
(166.2277 -4.6111737 0)
(167.03667 -3.8425392 0)
(167.78335 -2.9496665 0)
(168.45328 -1.9030723 0)
(169.01109 -0.66865826 0)
(169.39799 0.78057936 0)
(169.53057 2.4555968 0)
(169.27672 4.3398776 0)
(168.47573 6.3373297 0)
(167.02758 8.2135886 0)
(165.02102 9.6502712 0)
(162.72887 10.444283 0)
(160.44439 10.615921 0)
(158.36378 10.296246 0)
(156.5794 9.6506468 0)
(155.10647 8.8208335 0)
(153.91932 7.9108458 0)
(152.97556 6.9882055 0)
(152.23065 6.0921908 0)
(151.64474 5.2425155 0)
(151.185 4.4463748 0)
(150.82575 3.7034368 0)
(150.54748 3.0091051 0)
(150.33548 2.3565621 0)
(150.17903 1.7379741 0)
(150.07259 1.1453033 0)
(150.01578 0.5692588 0)
(152.85714 -3.0211473 0)
(153.06202 -3.0613826 0)
(153.21805 -3.1387694 0)
(153.39034 -3.2577487 0)
(153.57591 -3.4189791 0)
(153.7811 -3.6240296 0)
(154.01246 -3.8745453 0)
(154.27828 -4.1719362 0)
(154.58893 -4.5168239 0)
(154.95735 -4.9081473 0)
(155.3991 -5.3416927 0)
(155.93175 -5.8083396 0)
(156.57453 -6.2926642 0)
(157.34808 -6.7705963 0)
(158.2692 -7.2036667 0)
(159.33599 -7.5358857 0)
(160.51368 -7.7076451 0)
(161.7402 -7.683243 0)
(162.95083 -7.46504 0)
(164.10165 -7.0830378 0)
(165.17662 -6.5727973 0)
(166.17889 -5.9573474 0)
(167.11876 -5.2433708 0)
(168.00751 -4.4240537 0)
(168.85263 -3.4776223 0)
(169.64651 -2.3640234 0)
(170.35355 -1.0320815 0)
(170.90714 0.56443717 0)
(171.21128 2.4570051 0)
(171.09431 4.6578574 0)
(170.3103 7.0852886 0)
(168.6626 9.4355062 0)
(166.24374 11.219477 0)
(163.46652 12.113034 0)
(160.76379 12.190714 0)
(158.38524 11.666954 0)
(156.42257 10.784828 0)
(154.86334 9.7300642 0)
(153.65175 8.6265669 0)
(152.72041 7.546401 0)
(152.00712 6.5259305 0)
(151.4606 5.5792018 0)
(151.04122 4.7074245 0)
(150.71949 3.9049875 0)
(150.47395 3.1630087 0)
(150.28903 2.4713345 0)
(150.15374 1.8195913 0)
(150.06221 1.1978047 0)
(150.01352 0.59505735 0)
(153.24888 -3.065375 0)
(153.42041 -3.1058488 0)
(153.55011 -3.1860405 0)
(153.69403 -3.3107147 0)
(153.85026 -3.4808131 0)
(154.02478 -3.6985353 0)
(154.22413 -3.9664291 0)
(154.45691 -4.287099 0)
(154.73425 -4.6626922 0)
(155.07073 -5.0940255 0)
(155.48476 -5.5788613 0)
(155.99793 -6.1095133 0)
(156.63485 -6.6711753 0)
(157.42483 -7.239591 0)
(158.39763 -7.7716273 0)
(159.56088 -8.1945357 0)
(160.87247 -8.4227425 0)
(162.24536 -8.4052902 0)
(163.58817 -8.1520272 0)
(164.84375 -7.7149924 0)
(165.99924 -7.1522657 0)
(167.06955 -6.4983947 0)
(168.07632 -5.7615958 0)
(169.04124 -4.9329735 0)
(169.98482 -3.9848887 0)
(170.91218 -2.8603101 0)
(171.79206 -1.4794423 0)
(172.55262 0.23504784 0)
(173.09018 2.3431505 0)
(173.19489 4.9003654 0)
(172.49876 7.8683403 0)
(170.62927 10.871094 0)
(167.65122 13.143298 0)
(164.2117 14.130308 0)
(160.97527 14.034921 0)
(158.24933 13.207472 0)
(156.10614 12.006432 0)
(154.48119 10.669556 0)
(153.27316 9.3379481 0)
(152.38141 8.0820083 0)
(151.7227 6.9293743 0)
(151.23365 5.8841096 0)
(150.86823 4.9386056 0)
(150.59398 4.0802607 0)
(150.3883 3.2949418 0)
(150.23549 2.5686559 0)
(150.12479 1.8882565 0)
(150.05039 1.2417506 0)
(150.01094 0.61660138 0)
(153.67041 -3.2047145 0)
(153.79999 -3.2508354 0)
(153.90098 -3.3384827 0)
(154.01439 -3.4730173 0)
(154.13896 -3.6559453 0)
(154.27996 -3.8904916 0)
(154.44368 -4.1806376 0)
(154.63867 -4.5308852 0)
(154.87647 -4.9458219 0)
(155.17294 -5.4293628 0)
(155.54928 -5.9828254 0)
(156.03141 -6.6015569 0)
(156.64957 -7.2726172 0)
(157.44328 -7.9734469 0)
(158.4617 -8.6584781 0)
(159.73126 -9.2331009 0)
(161.20266 -9.5684031 0)
(162.75038 -9.5840853 0)
(164.24134 -9.2995538 0)
(165.59957 -8.7987589 0)
(166.82053 -8.1719733 0)
(167.94041 -7.4660809 0)
(168.9983 -6.6856235 0)
(170.02928 -5.8171038 0)
(171.07283 -4.8308665 0)
(172.15597 -3.6561932 0)
(173.25661 -2.1846949 0)
(174.29559 -0.30930152 0)
(175.1553 2.0535652 0)
(175.61411 5.0111841 0)
(175.13813 8.6492113 0)
(173.04826 12.56629 0)
(169.29422 15.562596 0)
(164.92252 16.611225 0)
(161.00268 16.211618 0)
(157.88166 14.932504 0)
(155.57455 13.303795 0)
(153.9238 11.617583 0)
(152.76236 10.022416 0)
(151.94729 8.5755673 0)
(151.37206 7.2872104 0)
(150.96175 6.1457942 0)
(150.66549 5.1316245 0)
(150.44935 4.2233674 0)
(150.29087 3.400793 0)
(150.17515 2.6457154 0)
(150.09238 1.9421178 0)
(150.03721 1.2760162 0)
(150.00807 0.63335444 0)
(154.04704 -3.1834649 0)
(154.13755 -3.2276734 0)
(154.20835 -3.3148278 0)
(154.28878 -3.4511549 0)
(154.37835 -3.6386893 0)
(154.48138 -3.8815695 0)
(154.60357 -4.184985 0)
(154.75308 -4.5550061 0)
(154.94144 -4.998244 0)
(155.18537 -5.5213526 0)
(155.50898 -6.1292244 0)
(155.94333 -6.8205311 0)
(156.52493 -7.5841709 0)
(157.3048 -8.400836 0)
(158.36078 -9.22837 0)
(159.75597 -9.9489483 0)
(161.43826 -10.366114 0)
(163.22146 -10.350607 0)
(164.90507 -9.9457083 0)
(166.38494 -9.2925812 0)
(167.67294 -8.539163 0)
(168.84111 -7.7537663 0)
(169.95143 -6.9361155 0)
(171.04855 -6.0714747 0)
(172.19133 -5.1416432 0)
(173.43761 -4.0660843 0)
(174.78073 -2.6919468 0)
(176.13269 -0.8486057 0)
(177.38325 1.6105958 0)
(178.3458 4.8950299 0)
(178.3149 9.3217737 0)
(176.08006 14.54561 0)
(171.24209 18.70235 0)
(165.51881 19.726075 0)
(160.72919 18.799098 0)
(157.17919 16.845889 0)
(154.75917 14.648551 0)
(153.15172 12.538368 0)
(152.09957 10.647879 0)
(151.40974 9.0019643 0)
(150.9528 7.5811051 0)
(150.6452 6.3513731 0)
(150.43422 5.2776205 0)
(150.28691 4.3282896 0)
(150.18273 3.4765159 0)
(150.10876 2.6998317 0)
(150.05693 1.9794518 0)
(150.02284 1.299573 0)
(150.00495 0.64483021 0)
(154.36079 -3.3041136 0)
(154.40108 -3.3600576 0)
(154.43729 -3.4588151 0)
(154.48013 -3.607671 0)
(154.52968 -3.809073 0)
(154.589 -4.0681765 0)
(154.66297 -4.3916555 0)
(154.75908 -4.7877716 0)
(154.88833 -5.2663183 0)
(155.0675 -5.8387334 0)
(155.32289 -6.5171414 0)
(155.69078 -7.3090274 0)
(156.21307 -8.2106258 0)
(156.94961 -9.2122045 0)
(158.01516 -10.289796 0)
(159.53917 -11.310975 0)
(161.47965 -11.969208 0)
(163.55161 -12.032588 0)
(165.44368 -11.580776 0)
(167.01128 -10.834078 0)
(168.29868 -10.027431 0)
(169.44085 -9.2511772 0)
(170.53252 -8.4788571 0)
(171.6211 -7.6716961 0)
(172.79041 -6.8199822 0)
(174.15785 -5.8214957 0)
(175.76211 -4.446904 0)
(177.52036 -2.4314455 0)
(179.33734 0.43725908 0)
(181.11116 4.3058632 0)
(181.97776 9.765785 0)
(179.87838 16.850079 0)
(173.56002 22.994476 0)
(165.82966 23.7359 0)
(159.96767 21.884446 0)
(155.99813 18.92417 0)
(153.57801 15.983909 0)
(152.12567 13.376276 0)
(151.27006 11.170661 0)
(150.76604 9.3302059 0)
(150.46714 7.7901649 0)
(150.28759 6.4871245 0)
(150.17786 5.3676906 0)
(150.10941 4.3892796 0)
(150.0658 3.5184125 0)
(150.03753 2.7286445 0)
(150.0191 1.9987872 0)
(150.00755 1.3115621 0)
(150.00163 0.65062728 0)
(154.29658 -3.2150489 0)
(154.27859 -3.2651447 0)
(154.27369 -3.3541639 0)
(154.27126 -3.4932567 0)
(154.27198 -3.6861819 0)
(154.2771 -3.9397107 0)
(154.2899 -4.2624803 0)
(154.3161 -4.6653996 0)
(154.36465 -5.1617829 0)
(154.45015 -5.767863 0)
(154.5987 -6.5029088 0)
(154.8512 -7.3832809 0)
(155.25468 -8.4096344 0)
(155.87265 -9.5742319 0)
(156.86452 -10.877667 0)
(158.48242 -12.191659 0)
(160.73829 -13.032727 0)
(163.18574 -12.959144 0)
(165.32635 -12.15715 0)
(166.95564 -10.992908 0)
(168.17506 -9.8708423 0)
(169.23303 -8.9083526 0)
(170.2789 -8.0154092 0)
(171.34705 -7.0994271 0)
(172.54065 -6.2114765 0)
(174.06651 -5.3026963 0)
(176.02868 -4.0849506 0)
(178.33176 -2.2475544 0)
(180.80033 0.48266868 0)
(183.49033 4.0008185 0)
(185.71217 9.850125 0)
(184.33644 19.156747 0)
(176.10697 28.904843 0)
(165.41613 28.787169 0)
(158.40702 25.488 0)
(154.14354 21.082479 0)
(151.94123 17.20733 0)
(150.8143 14.049323 0)
(150.2699 11.534276 0)
(150.0226 9.5241958 0)
(149.92378 7.8921371 0)
(149.89678 6.5395357 0)
(149.90249 5.3936591 0)
(149.92116 4.401383 0)
(149.94294 3.5234733 0)
(149.96318 2.7303306 0)
(149.97978 1.9990378 0)
(149.9917 1.3113714 0)
(149.99819 0.65046459 0)
(153.40397 -3.2692588 0)
(153.31147 -3.345145 0)
(153.24861 -3.4558419 0)
(153.18026 -3.6172017 0)
(153.1087 -3.8332029 0)
(153.03287 -4.1114012 0)
(152.95388 -4.4612268 0)
(152.87486 -4.8947943 0)
(152.80176 -5.4272693 0)
(152.74559 -6.0778436 0)
(152.73036 -6.8721129 0)
(152.80222 -7.8393097 0)
(153.0158 -8.9943329 0)
(153.42693 -10.341431 0)
(154.22852 -11.941843 0)
(155.87529 -13.772333 0)
(158.53082 -15.140194 0)
(161.45573 -15.144937 0)
(163.81584 -14.22351 0)
(165.33268 -12.891411 0)
(166.2263 -11.784302 0)
(166.96692 -11.002249 0)
(167.79158 -10.356705 0)
(168.65412 -9.6751583 0)
(169.61421 -9.1758411 0)
(171.02415 -8.9399856 0)
(173.10625 -8.3580048 0)
(175.78288 -7.0922066 0)
(178.68919 -4.5130256 0)
(182.54001 -0.75152593 0)
(187.26661 7.2169414 0)
(188.3617 20.232167 0)
(178.04789 36.723691 0)
(163.34266 35.053172 0)
(155.66042 29.62175 0)
(151.39608 23.177962 0)
(149.76878 18.157625 0)
(149.20813 14.444848 0)
(149.11446 11.670629 0)
(149.19927 9.5453278 0)
(149.33978 7.8656835 0)
(149.48552 6.4968957 0)
(149.61702 5.3490945 0)
(149.72805 4.3610597 0)
(149.81786 3.4897509 0)
(149.88787 2.7038255 0)
(149.94009 1.9796318 0)
(149.97573 1.2987068 0)
(149.99473 0.64421421 0)
(150.23058 -3.1458358 0)
(149.99284 -3.2102462 0)
(149.82729 -3.2929544 0)
(149.6454 -3.4200621 0)
(149.45175 -3.5967601 0)
(149.2418 -3.8316429 0)
(149.01324 -4.1352107 0)
(148.76483 -4.5217008 0)
(148.49688 -5.010301 0)
(148.21214 -5.627116 0)
(147.92391 -6.4108921 0)
(147.67286 -7.4180517 0)
(147.51254 -8.7011206 0)
(147.46078 -10.281888 0)
(147.68483 -12.264642 0)
(148.95142 -14.827243 0)
(151.85318 -17.037319 0)
(155.13041 -16.754971 0)
(157.38442 -15.064605 0)
(158.31354 -12.624719 0)
(158.34491 -10.685432 0)
(158.30631 -9.4644792 0)
(158.52668 -8.6740004 0)
(158.74697 -7.8114921 0)
(158.91376 -7.2491552 0)
(159.83369 -7.1141698 0)
(161.89222 -6.0549937 0)
(165.03519 -4.9177999 0)
(168.75348 -1.9827753 0)
(175.12218 4.1579468 0)
(184.11209 12.187741 0)
(189.74727 24.132268 0)
(177.04546 49.707626 0)
(157.63893 45.503694 0)
(150.97559 34.424181 0)
(147.44168 24.879777 0)
(146.98429 18.563419 0)
(147.3355 14.411134 0)
(147.84875 11.504404 0)
(148.33371 9.3576999 0)
(148.74188 7.6939824 0)
(149.07164 6.3514304 0)
(149.33295 5.2305035 0)
(149.53732 4.2668404 0)
(149.69493 3.4167197 0)
(149.81411 2.6490222 0)
(149.9013 1.9406218 0)
(149.96014 1.2736509 0)
(149.99136 0.63192726 0)
(143.55974 -2.9452444 0)
(143.17116 -3.0402528 0)
(142.86823 -3.1453936 0)
(142.52761 -3.298554 0)
(142.16069 -3.5046407 0)
(141.75872 -3.7735541 0)
(141.31396 -4.1172369 0)
(140.81744 -4.5522361 0)
(140.25923 -5.101296 0)
(139.6269 -5.7950712 0)
(138.9111 -6.6780166 0)
(138.13325 -7.8197877 0)
(137.3505 -9.2935611 0)
(136.54956 -11.090444 0)
(135.78882 -13.245414 0)
(136.27134 -16.330157 0)
(139.77281 -19.774201 0)
(143.93261 -18.542836 0)
(146.22088 -15.924862 0)
(146.32464 -12.621783 0)
(144.87576 -11.149419 0)
(143.43169 -11.251562 0)
(142.70042 -11.641482 0)
(142.11385 -11.089936 0)
(141.34308 -10.554261 0)
(142.08224 -10.467332 9.2513989e-18)
(143.2747 -11.907031 -2.1566676e-19)
(145.53625 -13.574657 0)
(146.57304 -7.4682702 1.0050715e-17)
(143.87441 -14.476623 -7.5237599e-18)
(161.43433 -10.117247 4.4395546e-18)
(180.39818 5.4386864 -9.8962869e-18)
(168.03963 72.439587 6.4596031e-18)
(142.17742 58.183999 0)
(140.71071 37.247991 0)
(141.66033 24.801503 0)
(143.59 17.908089 0)
(145.31265 13.75728 0)
(146.56543 10.967585 0)
(147.48533 8.9379255 0)
(148.16632 7.3698746 0)
(148.6771 6.101805 0)
(149.0636 5.0385256 0)
(149.35702 4.1198996 0)
(149.57892 3.3055557 0)
(149.74456 2.5669107 0)
(149.86473 1.8827542 0)
(149.94545 1.2366977 0)
(149.98818 0.61384868 0)
(129.85538 -2.8720708 0)
(129.08849 -2.9428873 0)
(128.4956 -3.0027064 0)
(127.83253 -3.0993067 0)
(127.11873 -3.2347067 0)
(126.33619 -3.4157091 0)
(125.46764 -3.6496608 0)