/*--------------------------------*- C++ -*----------------------------------*\
| =========                 |                                                 |
| \\      /  F ield         | foam-extend: Open Source CFD                    |
|  \\    /   O peration     | Version:     4.1                                |
|   \\  /    A nd           | Web:         http://www.foam-extend.org         |
|    \\/     M anipulation  |                                                 |
\*---------------------------------------------------------------------------*/
FoamFile
{
    version     2.0;
    format      ascii;
    class       surfaceScalarField;
    location    "0.4";
    object      phi;
}
// * * * * * * * * * * * * * * * * * * * * * * * * * * * * * * * * * * * * * //

dimensions      [0 3 -1 0 0 0 0];

internalField   nonuniform List<scalar> 
6703
(
5.5198229e-06
7.7421312e-06
-1.3261954e-05
9.7499435e-06
2.8207633e-05
-3.2437754e-05
1.2595341e-05
5.8534178e-05
-6.1379576e-05
1.2849386e-05
0.00010150942
-0.00010176346
8.3427432e-06
0.00015982889
-0.00015532224
-4.0928087e-06
0.00023539413
-0.00022295858
-2.8115091e-05
0.00032833305
-0.00030431076
-6.6389278e-05
0.00043594545
-0.00039767127
-0.000119774
0.00055392418
-0.00050053946
-0.00018687323
0.0006787391
-0.00061163987
-0.00026512504
0.00081047806
-0.00073222624
-0.00035259928
0.00095335031
-0.00086587607
-0.000449006
0.0011136252
-0.0010172184
-0.00055560673
0.0012976082
-0.0011910075
-0.00067468972
0.0015115759
-0.0013924929
0.0017631727
-0.0016293725
-0.00080848993
9.1935332e-08
7.6501959e-06
3.1634896e-07
2.7983219e-05
5.0722606e-07
5.8343301e-05
2.178373e-07
0.00010179881
-1.4805312e-06
0.00016152725
-6.2613443e-06
0.00024017495
-1.6805315e-05
0.00033887702
-3.7075751e-05
0.00045621589
-7.1340056e-05
0.00058818848
-0.00012243735
0.00072983639
-0.0001909991
0.00087903981
-0.00027642021
0.0010387714
-0.00037835619
0.0012155611
-0.00049766438
0.0014169164
-0.00063617502
0.0016500866
0.0019222372
-0.00079523952
3.2216695e-07
7.328029e-06
1.3648456e-06
2.6940541e-05
3.241785e-06
5.6466362e-05
5.8941058e-06
9.9146485e-05
8.9177379e-06
0.00015850362
1.130323e-05
0.00023778945
1.1128615e-05
0.00033905163
5.3178339e-06
0.00046202667
-1.0097548e-05
0.00060360387
-3.8854779e-05
0.00075859362
-8.3109842e-05
0.00092329487
-0.00014323692
0.0010988985
-0.00021865187
0.0012909761
-0.0003100724
0.001508337
-0.00041936314
0.0017593773
0.0020519179
-0.00054904379
7.4027863e-07
6.5877503e-06
3.2369789e-06
2.4443841e-05
8.0038589e-06
5.1699482e-05
1.5436775e-05
9.1713569e-05
2.5592623e-05
0.00014834777
3.7883211e-05
0.00022549887
5.0721893e-05
0.00032621295
6.1259227e-05
0.00045148934
6.5529192e-05
0.0005993339
5.9093763e-05
0.00076502905
3.8669214e-05
0.00094371942
3.4371994e-06
0.0011341305
-4.5699585e-05
0.0013401129
-0.0001080442
0.0015706816
-0.00018358757
0.0018349207
0.0021393271
-0.00027099686
1.0772246e-06
5.5105258e-06
4.8100563e-06
2.0711009e-05
1.2149193e-05
4.4360345e-05
2.4036985e-05
7.9825776e-05
4.1162459e-05
0.0001312223
6.3591608e-05
0.00020306972
9.0313961e-05
0.0002994906
0.00011884425
0.00042295904
0.00014514569
0.00057303247
0.00016416081
0.00074601393
0.00017126094
0.00093661929
0.0001639834
0.0011414081
0.00014243029
0.001361666
0.00010855533
0.0016045565
6.3591048e-05
0.001879885
0.0021969087
6.0094915e-06
1.291064e-06
4.2194618e-06
5.8577771e-06
1.6144296e-05
1.5038383e-05
3.517974e-05
3.0327689e-05
6.453647e-05
5.314553e-05
0.00010840446
8.4427239e-05
0.00017178801
0.00012405318
0.00025986466
0.00017025862
0.0003767536
0.00021931005
0.00052398104
0.00026580577
0.00069951821
0.00030389962
0.00089852543
0.00032918555
0.0011161221
0.00034003792
0.0013508136
0.0003378271
0.0016067674
0.0003251601
0.001892552
0.0022174122
0.0003046566
1.379314e-06
2.8401477e-06
6.3485106e-06
1.1175099e-05
1.6534915e-05
2.4993336e-05
3.3909671e-05
4.7161714e-05
6.0618494e-05
8.1695638e-05
9.8592673e-05
0.00013381383
0.0001489
0.00020955734
0.0002109392
0.0003147144
0.00028179214
0.00045312811
0.00035617806
0.00062513229
0.00042737096
0.00082733253
0.00048902867
0.0010544644
0.0005371668
0.0013026755
0.00057134429
0.0015725899
0.0005939014
0.0018699948
0.0022041488
0.00060716484
1.3327443e-06
1.5074035e-06
6.2242498e-06
6.2835936e-06
1.6449775e-05
1.4767811e-05
3.4311036e-05
2.9300452e-05
6.2575178e-05
5.3431496e-05
0.00010418545
9.220356e-05
0.00016162336
0.00015211942
0.00023592667
0.00024041108
0.00032565028
0.0003634045
0.00042632748
0.00052445508
0.00053094517
0.00072271485
0.00063153839
0.0009538712
0.00072142942
0.0012127844
0.00079724236
0.0014967769
0.00085948281
0.0018077544
0.002152434
0.00091119759
1.1653485e-06
3.4205499e-07
5.5379232e-06
1.9110189e-06
1.4878353e-05
5.4273809e-06
3.1606513e-05
1.2572292e-05
5.8878861e-05
2.6159148e-05
0.00010048559
5.0596835e-05
0.0001603495
9.2255512e-05
0.00024150117
0.00015925941
0.00034468268
0.00026022299
0.00046717546
0.00040196229
0.00060261845
0.00058727186
0.00074216477
0.00081432488
0.00087671196
0.0010782372
0.00099952898
0.0013739599
0.0011081566
0.0016991268
0.002056372
0.0012042186
8.9387348e-07
-5.5181848e-07
4.33664e-06
-1.5317476e-06
1.1897292e-05
-2.1332708e-06
2.5893581e-05
-1.423997e-06
4.960337e-05
2.4493588e-06
8.7343977e-05
1.2856229e-05
0.00014419611
3.540338e-05
0.00022512399
7.8331534e-05
0.00033383987
0.00015150712
0.00047048953
0.00026531262
0.00063047325
0.00042728814
0.00080490121
0.00063989693
0.0009828888
0.00090024965
0.0011548445
0.0012020042
0.0013159287
0.0015380426
0.0019034013
0.0014688994
5.1515931e-07
-1.0669778e-06
2.6399508e-06
-3.6565391e-06
7.5825758e-06
-7.0758958e-06
1.7289232e-05
-1.1130653e-05
3.481894e-05
-1.5080349e-05
6.4768972e-05
-1.7093803e-05
0.00011355957
-1.3387214e-05
0.00018889369
2.9974125e-06
0.00029708101
4.3319795e-05
0.00043996841
0.00012242522
0.0006145533
0.00025270325
0.00081259943
0.0004418508
0.0010227243
0.00069012476
0.0012334731
0.00099125546
0.0014361095
0.0013354061
0.0017109151
0.0016285958
1.6545734e-06
-2.7215512e-06
4.224191e-06
-6.2261567e-06
8.6547888e-06
-1.1506494e-05
1.6411502e-05
-1.8887366e-05
2.9950776e-05
-2.8619623e-05
5.326875e-05
-4.0411778e-05
9.2519389e-05
-5.2637852e-05
0.0001562028
-6.0686003e-05
0.0002530814
-5.3558804e-05
0.00038460406
-9.0974345e-06
0.00053284539
0.00010446192
0.00069844359
0.0002762526
0.0008770271
0.00051154124
0.0010593572
0.00080892537
0.0012345621
0.0011602013
0.0015508031
0.0013946741
-6.0759557e-06
-7.2729736e-06
1.3348929e-05
-1.2594743e-05
-2.6169685e-05
3.2688472e-05
-2.0897303e-05
-5.3548597e-05
6.1851157e-05
-3.210715e-05
-9.1242053e-05
0.0001024519
-4.7583845e-05
-0.00014061538
0.00015609207
-6.8981064e-05
-0.00020203464
0.00022343186
-9.8267567e-05
-0.00027445384
0.00030374034
-0.00013760376
-0.00035555007
0.00039488626
-0.00018878817
-0.00044276539
0.00049394979
-0.00025311833
-0.00053496973
0.00059929989
-0.00033141352
-0.00063352087
0.00071181607
-0.00042415834
-0.00074178002
0.00083452483
-0.00053167715
-0.00086370527
0.00097122409
-0.00065444264
-0.001002882
0.0011256475
-0.00079412108
-0.0011622863
0.0013019647
-0.0013448473
0.0015081723
-0.00095744601
-1.2007381e-06
-6.0722355e-06
-5.5445244e-06
-2.1825899e-05
-1.4431806e-05
-4.4661315e-05
-2.9529639e-05
-7.614422e-05
-5.273557e-05
-0.00011740945
-8.6085701e-05
-0.00016868451
-0.00013160334
-0.0002289362
-0.00019109181
-0.00029606159
-0.00026595739
-0.00036789981
-0.00035728246
-0.00044364466
-0.00046623333
-0.00052457001
-0.00059455629
-0.00061345705
-0.00074482765
-0.00071343391
-0.00092037889
-0.00082733078
-0.001124799
-0.00095786614
-0.0011084897
-0.0013611567
-1.3403619e-06
-4.7318736e-06
-6.1514322e-06
-1.7014828e-05
-1.6000751e-05
-3.4811997e-05
-3.2826209e-05
-5.9318762e-05
-5.8852406e-05
-9.1383253e-05
-9.6411176e-05
-0.00013112574
-0.00014767765
-0.00017766972
-0.00021442099
-0.00022931825
-0.00029794212
-0.00028437868
-0.00039931983
-0.00034226695
-0.00051986842
-0.00040402142
-0.00066153188
-0.00047179358
-0.00082703657
-0.00054792922
-0.0010198628
-0.00063450457
-0.0012443763
-0.00073335265
-0.00084581438
-0.0015070516
-1.5532347e-06
-3.1786389e-06
-7.1234367e-06
-1.1444626e-05
-1.8467372e-05
-2.3468061e-05
-3.7673977e-05
-4.0112157e-05
-6.7046647e-05
-6.2010583e-05
-0.00010887811
-8.929428e-05
-0.00016517785
-0.00012136998
-0.00023749177
-0.00015700433
-0.00032697866
-0.00019489179
-0.00043477061
-0.000234475
-0.00056241377
-0.00027637826
-0.00071212915
-0.00032207821
-0.00088684759
-0.00037321078
-0.0010901547
-0.00043119745
-0.0013258545
-0.00049765284
-0.00057565296
-0.0015960159
-1.6544484e-06
-1.5241905e-06
-7.5212488e-06
-5.5778261e-06
-1.9408106e-05
-1.1581204e-05
-3.9491568e-05
-2.0028695e-05
-7.0164251e-05
-3.13379e-05
-0.00011380179
-4.565674e-05
-0.000172506
-6.2665772e-05
-0.00024797767
-8.1532666e-05
-0.0003416444
-0.00010122505
-0.00045498631
-0.0001211331
-0.00058984957
-0.000141515
-0.00074859854
-0.00016332924
-0.00093411518
-0.00018769414
-0.0011498484
-0.00021546422
-0.0014009486
-0.00024655265
-0.00027845272
-0.0016981488
3.2803086e-07
7.3276127e-06
-7.6556436e-06
1.3911601e-06
2.6941324e-05
-2.8004453e-05
3.308405e-06
5.647271e-05
-5.8389955e-05
6.0260526e-06
9.9166644e-05
-0.00010188429
9.143733e-06
0.00015855138
-0.00016166906
1.1657074e-05
0.00023788542
-0.00024039876
1.1645153e-05
0.00033922242
-0.0003392105
6.0298484e-06
0.00046230122
-0.00045668591
-9.160521e-06
0.00060400535
-0.00058881498
-3.7672126e-05
0.00075915502
-0.00073064341
-8.1662745e-05
0.00092397928
-0.00087998866
-0.00014150716
0.0010995957
-0.0010397513
-0.0002166351
0.0012914941
-0.0012163662
-0.0003077453
0.0015084134
-0.0014173032
-0.00041668471
0.0017588818
-0.0016499424
0.0020508056
-0.0019217239
-0.00054576639
-1.5241621e-06
-2.8369123e-11
-7.1028778e-06
8.8964367e-10
-1.8687085e-05
3.0033913e-09
-3.8722036e-05
6.2563679e-09
-7.007024e-05
1.0302994e-08
-0.00011574056
1.3581269e-08
-0.00017841885
1.2512216e-08
-0.00025995282
1.3050955e-09
-0.00036115095
-2.6916455e-08
-0.00048220585
-7.8191756e-08
-0.00062356424
-1.5661342e-07
-0.00078662948
-2.6400234e-07
-0.00097392483
-3.9877735e-07
-0.001188831
-5.5808486e-07
-0.0014346215
-7.621161e-07
-1.1137015e-06
-0.0017119605
-1.5313862e-06
1.5313578e-06
-7.1336106e-06
5.603114e-06
-1.8762592e-05
1.1631985e-05
-3.8869316e-05
2.011298e-05
-7.0321463e-05
3.146245e-05
-0.00011613161
4.5823732e-05
-0.0001789871
6.2868002e-05
-0.00026073412
8.1748325e-05
-0.00036217485
0.00010141381
-0.00048348711
0.00012123407
-0.00062508872
0.000141445
-0.00078833176
0.00016297903
-0.00097564625
0.00018691571
-0.0011902375
0.00021403313
-0.0014351978
0.00024419822
0.0002755418
-0.0017118533
-1.6592747e-06
3.1906325e-06
-7.5418501e-06
1.148569e-05
-1.9458469e-05
2.3548604e-05
-3.9588779e-05
4.024329e-05
-7.0328134e-05
6.2201805e-05
-0.00011405432
8.954992e-05
-0.00017287025
0.00012168393
-0.00024847516
0.00015735323
-0.00034228894
0.00019522759
-0.00045577271
0.00023471785
-0.00059073664
0.00027640893
-0.00074948563
0.00032172802
-0.00093481873
0.00037224881
-0.0011500799
0.00042929427
-0.0014000702
0.0004941885
0.00056924735
-0.0016937757
-1.5428234e-06
4.7334559e-06
-7.0773605e-06
1.7020227e-05
-1.8351826e-05
3.4823069e-05
-3.7446874e-05
5.9338339e-05
-6.6659938e-05
9.1414869e-05
-0.00010828176
0.00013117174
-0.00016432312
0.00017772529
-0.00023632887
0.00022935899
-0.00032544429
0.00028434301
-0.00043276633
0.00034203989
-0.00055978344
0.00040342604
-0.00070864564
0.00047059022
-0.00088222321
0.00054582638
-0.0010841254
0.00063119646
-0.0013183756
0.00072843866
0.00083780781
-0.001586936
-1.3249753e-06
6.0584313e-06
-6.084112e-06
2.1779363e-05
-1.5832712e-05
4.4571669e-05
-3.2495664e-05
7.6001291e-05
-5.8286051e-05
0.00011720526
-9.5527387e-05
0.00016841307
-0.00014638989
0.00022858779
-0.00021263829
0.00029560738
-0.00029556383
0.00036726855
-0.00039622725
0.00044270331
-0.00051592604
0.00052312483
-0.00065661913
0.0006112833
-0.00082112002
0.00071032727
-0.001013104
0.00082318045
-0.0012377163
0.00095305091
0.0011062752
-0.0015061837
-1.1969216e-06
7.2553529e-06
-5.5259486e-06
2.610839e-05
-1.4381589e-05
5.342731e-05
-2.942359e-05
9.1043291e-05
-5.2541163e-05
0.00014032283
-8.5762897e-05
0.00020163481
-0.0001311091
0.00027393399
-0.00019039033
0.00035488862
-0.00026503729
0.00044191551
-0.00035618374
0.00053384977
-0.00046509429
0.00063203537
-0.0005937036
0.00073989261
-0.00074496024
0.00086158391
-0.00092294091
0.0010011611
-0.0011322191
0.0011623291
0.0013477363
-0.0013736801
-6.0723684e-06
1.3327721e-05
-1.2596009e-05
3.2632031e-05
-2.0910048e-05
6.1741349e-05
-3.2136282e-05
0.00010226952
-4.7631718e-05
0.00015581827
-6.9047382e-05
0.00022305047
-9.8351266e-05
0.00030323787
-0.00013771119
0.00039424854
-0.00018894487
0.00049314918
-0.00025339025
0.00059829515
-0.00033192956
0.00071057469
-0.00042513168
0.00083309473
-0.00053338842
0.00096984065
-0.00065705141
0.0011248241
-0.00079705824
0.0013023359
0.0015085698
-0.00095789175
1.6573468e-06
1.0742962e-06
-2.7316431e-06
4.2228617e-06
3.6847501e-06
-6.250265e-06
8.6370749e-06
7.1384898e-06
-1.1552703e-05
1.6354142e-05
1.1248992e-05
-1.8966059e-05
2.9810708e-05
1.5287998e-05
-2.8744564e-05
5.2972586e-05
1.7440302e-05
-4.0602179e-05
9.1953117e-05
1.3944514e-05
-5.2925046e-05
0.00015521954
-2.1311433e-06
-6.1135284e-05
0.000251559
-4.2030886e-05
-5.4308573e-05
0.00038258601
-0.000120612
-1.0415008e-05
0.00053033057
-0.00025036296
0.0001026184
0.0006952624
-0.00043894073
0.0002740089
0.00087296727
-0.00068654476
0.00050883989
0.0010539424
-0.00098665603
0.00080568095
0.0012262937
-0.0013286364
0.0011562851
-0.0016996208
0.0015429855
0.0013829289
5.1258613e-07
5.6171011e-07
2.6270363e-06
1.5702999e-06
7.5471365e-06
2.2183895e-06
1.721398e-05
1.5821483e-06
3.468189e-05
-2.1799123e-06
6.4545285e-05
-1.2423093e-05
0.00011323213
-3.4742328e-05
0.00018848486
-7.7383877e-05
0.00029666486
-0.00015021088
0.00043968651
-0.00026363366
0.00061455868
-0.00042523513
0.00081313167
-0.00063751373
0.0010241722
-0.00089758529
0.0012365973
-0.0011990812
0.0014429182
-0.0015349573
-0.0019011406
0.0016444381
8.9176748e-07
-3.3005736e-07
4.3279546e-06
-1.8658872e-06
1.1876785e-05
-5.3304409e-06
2.5856203e-05
-1.239727e-05
4.9547722e-05
-2.5871431e-05
8.727681e-05
-5.0152181e-05
0.00014413919
-9.1604706e-05
0.00022511388
-0.00015835857
0.00033395175
-0.00025904875
0.0004708434
-0.00040052531
0.00063122625
-0.00058561798
0.0008062304
-0.00081251788
0.0009849712
-0.0010763261
0.0011578383
-0.0013719483
0.0013198749
-0.001696994
-0.002054032
0.0014727663
1.1638502e-06
-1.4939075e-06
5.5317883e-06
-6.2338253e-06
1.4864673e-05
-1.4663326e-05
3.1584418e-05
-2.9117014e-05
5.8852356e-05
-5.3139369e-05
0.00010047022
-9.1770043e-05
0.00016038043
-0.00015151492
0.00024164064
-0.00023961878
0.00034502258
-0.00036243069
0.00046783072
-0.00052333344
0.00060371047
-0.00072149773
0.00074379635
-0.00095260375
0.00087893515
-0.0012114649
0.0010023111
-0.0014953242
0.0011113482
-0.0018060311
-0.0021503311
0.0012076473
1.3324774e-06
-2.8263849e-06
6.2241338e-06
-1.1125482e-05
1.6452312e-05
-2.4891504e-05
3.4322987e-05
-4.698769e-05
6.2611118e-05
-8.14275e-05
0.00010427264
-0.00013343156
0.00016180692
-0.00020904921
0.00023627264
-0.0003140845
0.00032624321
-0.00045240126
0.00042726063
-0.00062435086
0.00053230245
-0.00082653955
0.00063336881
-0.0010536701
0.0007237155
-0.0013018116
0.00079987537
-0.0015714841
0.00086226278
-0.0018684186
-0.0022019616
0.00091389328
1.3804191e-06
-4.206804e-06
6.354677e-06
-1.609974e-05
1.6553798e-05
-3.5090625e-05
3.395508e-05
-6.4388972e-05
6.0713698e-05
-0.00010818612
9.8773994e-05
-0.00017149186
0.00014921927
-0.00025949448
0.00021146297
-0.0003763282
0.00028259606
-0.00052353434
0.00035733642
-0.00069909123
0.00042894038
-0.00089814351
0.00049102769
-0.0011157574
0.00053955567
-0.0013503396
0.00057402542
-0.0016059538
0.00059677286
-0.001891166
-0.0022154546
0.00061026593
1.2937999e-06
-5.5006039e-06
5.8712386e-06
-2.0677178e-05
1.5075641e-05
-4.4295028e-05
3.0409125e-05
-7.9722456e-05
5.3301283e-05
-0.00013107828
8.4699081e-05
-0.00020288966
0.0001244945
-0.0002992899
0.00017093121
-0.00042276491
0.00022027753
-0.00057288067
0.00026712542
-0.00074593911
0.00030560793
-0.00093662602
0.00033128345
-0.0011414329
0.00034248231
-0.0013615384
0.00034053969
-0.0016040112
0.00032808634
-0.0018787127
-0.0021951463
0.000307778
1.0814547e-06
-6.5820586e-06
4.8299626e-06
-2.4425686e-05
1.2202122e-05
-5.1667187e-05
2.4147921e-05
-9.1668255e-05
4.1365457e-05
-0.00014829581
6.3930072e-05
-0.00022545427
9.0838782e-05
-0.00032619861
0.00011960932
-0.00045153545
0.00014620138
-0.00059947273
0.00016555202
-0.00076528976
0.00017301225
-0.00094408625
0.00016609081
-0.0011345115
0.00014486857
-0.0013403162
0.00011128701
-0.0015704296
6.6645842e-05
-0.0018340715
-0.0021379854
9.4849645e-06
7.4555414e-07
3.2611922e-06
8.0667155e-06
1.5565105e-05
2.5820677e-05
3.8251828e-05
5.1275643e-05
6.2041409e-05
6.6574028e-05
6.0439292e-05
4.0332323e-05
5.4165204e-06
-4.3405551e-05
-0.00010542181
-0.00018061148
-0.00026779129
9.7435474e-08
-7.753079e-06
3.4005232e-07
-2.824707e-05
5.6572762e-07
-5.8615631e-05
3.3162411e-07
-0.00010165019
-1.288477e-06
-0.00016004896
-5.9687344e-06
-0.00023571851
-1.6388743e-05
-0.00032879049
-3.6514832e-05
-0.00043655982
-7.061253e-05
-0.00055471728
-0.00012152905
-0.00067972689
-0.00018987068
-0.00081164703
-0.00027501623
-0.00095460573
-0.00037664337
-0.001114739
-0.00049569236
-0.0012982542
-0.00063413246
-0.0015115023
-0.00176223
-0.00079362645
5.529894e-06
-1.3282973e-05
9.7763477e-06
-3.2493524e-05
1.2648634e-05
-6.1487916e-05
1.2941757e-05
-0.00010194331
8.4851702e-06
-0.00015559238
-3.8980006e-06
-0.00022333534
-2.7879878e-05
-0.00030480861
-6.6134895e-05
-0.00039830481
-0.00011951714
-0.00050133504
-0.00018661104
-0.00061263299
-0.00026482091
-0.00073343716
-0.00035219059
-0.00086723606
-0.00044846047
-0.0010184691
-0.0005550417
-0.0011916729
-0.00067429889
-0.0013922451
-0.0016288266
-0.0008077022
-1.1649358e-06
-1.567529e-06
2.7324648e-06
-1.6448754e-06
-5.7891661e-06
6.2691057e-06
-1.120701e-06
-1.215233e-05
1.1628156e-05
1.0075057e-06
-2.1310737e-05
1.918253e-05
5.6242356e-06
-3.389576e-05
2.927903e-05
1.4054785e-05
-5.0248048e-05
4.1817499e-05
2.8393892e-05
-6.9908376e-05
5.5569269e-05
5.2275428e-05
-9.0666327e-05
6.6784791e-05
9.2796278e-05
-0.00010691685
6.6396e-05
0.00016442863
-0.00010694777
3.5315414e-05
0.0002922094
-6.8807781e-05
-5.8972986e-05
0.00046807646
3.3626501e-05
-0.00020949356
0.00067219294
0.00021634735
-0.00042046384
0.00088989823
0.00047395995
-0.00069166524
0.001108431
0.0007981455
-0.0010166782
0.0011716375
-0.0013852937
0.0013220872
3.6504277e-07
-1.9325718e-06
1.6850213e-06
-7.1091446e-06
4.4162901e-06
-1.4883599e-05
9.1592333e-06
-2.605368e-05
1.6681878e-05
-4.1418404e-05
2.7969389e-05
-6.1535559e-05
4.4343158e-05
-8.6282146e-05
6.7829768e-05
-0.00011415294
0.00010216287
-0.00014124995
0.00015508151
-0.00015986641
0.00024258974
-0.00015631601
0.00038292834
-0.0001067121
0.00057785468
2.142102e-05
0.0008134158
0.00023839884
0.0010869854
0.0005245759
0.00085727763
0.0014013452
3.795214e-07
-2.3120932e-06
1.6684883e-06
-8.3981115e-06
4.1676597e-06
-1.738277e-05
8.179188e-06
-3.0065208e-05
1.3948804e-05
-4.718802e-05
2.1613165e-05
-6.919992e-05
3.1205464e-05
-9.5874445e-05
4.2845339e-05
-0.00012579281
5.7346291e-05
-0.0001557509
7.7607632e-05
-0.00018012775
0.00011124088
-0.00018994925
0.00017515773
-0.00017062896
0.00029272559
-9.6146841e-05
0.00046332706
6.7797374e-05
0.00067724667
0.00031065629
0.00059392582
0.00094059848
1.1114825e-08
-2.323208e-06
-5.6195817e-08
-8.3308009e-06
-3.9043381e-07
-1.7048532e-05
-1.3244407e-06
-2.9131201e-05
-3.4149215e-06
-4.5097539e-05
-7.5033362e-06
-6.5111505e-05
-1.4713325e-05
-8.8664456e-05
-2.6280373e-05
-0.00011422576
-4.3043899e-05
-0.00013898737
-6.4383966e-05
-0.00015878769
-8.6318814e-05
-0.00016801441
-9.8009913e-05
-0.00015893786
-7.4129909e-05
-0.00012002684
2.0362308e-05
-2.6694844e-05
0.0001911202
0.00013989839
0.0003467735
0.00043827253
-7.2229252e-07
-1.6009155e-06
-3.3354287e-06
-5.7176647e-06
-8.7242061e-06
-1.1659755e-05
-1.8017792e-05
-1.9837616e-05
-3.2601574e-05
-3.0513756e-05
-5.4097916e-05
-4.3615164e-05
-8.4271753e-05
-5.8490618e-05
-0.00012475267
-7.374485e-05
-0.00017641065
-8.7329394e-05
-0.00023830268
-9.6895651e-05
-0.00030629119
-0.0001000259
-0.00037137935
-9.3849704e-05
-0.00041737112
-7.4035072e-05
-0.00041033408
-3.3731888e-05
-0.00030998638
3.9550695e-05
0.00014463799
-0.00010785087
-1.5829123e-06
-1.8003162e-08
-7.2354263e-06
-6.5150677e-08
-1.8760705e-05
-1.3447575e-07
-3.83655e-05
-2.3282071e-07
-6.8509982e-05
-3.6927462e-07
-0.00011156869
-5.5645766e-07
-0.00016924592
-8.1338243e-07
-0.00024182124
-1.1695291e-06
-0.00032748301
-1.6676276e-06
-0.00042201857
-2.3600908e-06
-0.00051875025
-3.2942179e-06
-0.00060811889
-4.4810605e-06
-0.00067632023
-5.8337351e-06
-0.00070302774
-7.0243815e-06
-0.00065650274
-6.974301e-06
-3.8758888e-07
-0.00051147717
-1.5784996e-06
1.5604965e-06
-7.2172097e-06
5.5735594e-06
-1.8716854e-05
1.1365168e-05
-3.8281339e-05
1.9331665e-05
-6.8369176e-05
2.9718562e-05
-0.00011135578
4.2430149e-05
-0.00016895051
5.6781347e-05
-0.000241443
7.1322961e-05
-0.00032703374
8.3923112e-05
-0.00042151211
9.2118282e-05
-0.00051816778
9.3361445e-05
-0.0006073431
8.4694265e-05
-0.00067506017
6.1883336e-05
-0.00070079635
1.87118e-05
-0.00065323463
-5.4536025e-05
-0.00014762267
-0.00050599955
-7.2814751e-07
2.288644e-06
-3.3615001e-06
8.206912e-06
-8.7899607e-06
1.6793629e-05
-1.8148347e-05
2.8690051e-05
-3.2828251e-05
4.4398466e-05
-5.4459022e-05
6.406092e-05
-8.4814187e-05
8.7136512e-05
-0.00012553431
0.00011204308
-0.00017749983
0.00013588863
-0.00023976303
0.00015438148
-0.00030812879
0.0001617272
-0.00037342863
0.0001499941
-0.0004192313
0.00010768601
-0.00041312196
1.2602467e-05
-0.00031239465
-0.00015526334
-0.00035966153
-0.00010035579
-1.2720745e-08
2.3013647e-06
-1.6095385e-07
8.3551451e-06
-6.5335257e-07
1.7286027e-05
-1.8457873e-06
2.9882486e-05
-4.3191082e-06
4.6871787e-05
-8.9397224e-06
6.8681534e-05
-1.6859492e-05
9.5056282e-05
-2.9352835e-05
0.00012453643
-4.7322586e-05
0.00015385839
-7.0256828e-05
0.00017731573
-9.4360868e-05
0.00018583124
-0.00010915106
0.00016478429
-9.0003199e-05
8.8538148e-05
-2.7974016e-06
-7.4603331e-05
0.00015907634
-0.00031713708
-0.0005928212
0.000392236
3.5972688e-07
1.9416379e-06
1.5786714e-06
7.1362005e-06
3.9361104e-06
1.4928589e-05
7.7076492e-06
2.6110947e-05
1.3107422e-05
4.1472015e-05
2.0234897e-05
6.1554059e-05
2.90778e-05
8.6213379e-05
3.9694155e-05
0.00011392007
5.2802429e-05
0.00014075011
7.1142071e-05
0.00015897608
0.00010205015
0.00015492316
0.00016198988
0.00010484456
0.00027384183
-2.3313793e-05
0.00043803436
-0.00023879586
0.00064278997
-0.0005218927
-0.00084734111
0.00089730988
3.6302915e-07
1.5786087e-06
1.6727132e-06
5.8265165e-06
4.3771092e-06
1.2224193e-05
9.0631681e-06
2.1424888e-05
1.6478292e-05
3.4056891e-05
2.7577374e-05
5.0454977e-05
4.3639383e-05
7.015137e-05
6.6631254e-05
9.0928199e-05
0.0001001969
0.00010718447
0.0001519334
0.00010723958
0.00023762375
6.923281e-05
0.00037542144
-3.2953133e-05
0.00056717728
-0.00021506962
0.00080006452
-0.00047168311
0.0010721619
-0.00079399009
-0.001160938
0.0013857588
-1.1640624e-06
2.7426712e-06
-1.6311324e-06
6.2935865e-06
-1.0821315e-06
1.1675192e-05
1.0801956e-06
1.9262561e-05
5.7318448e-06
2.9405242e-05
1.4180132e-05
4.200669e-05
2.8485829e-05
5.5845673e-05
5.2219114e-05
6.7194914e-05
9.2358115e-05
6.7045468e-05
0.00016315044
3.6447252e-05
0.00028974304
-5.735979e-05
0.00046434111
-0.0002075512
0.00066744505
-0.00041817357
0.00088464943
-0.00068888748
0.0011034861
-0.0010128267
-0.0013780523
0.0013206004
2.6004444e-07
-6.5767115e-08
6.2181757e-07
1.12788e-06
1.6239031e-06
1.7157935e-06
6.4290344e-07
-2.7798216e-06
-1.0170098e-05
-2.3514815e-05
-4.5166373e-05
-7.7947707e-05
-0.00012532549
-0.00019150889
-0.00028166592
-0.00040246862
2.6090488e-07
-6.5956228e-08
6.2414505e-07
1.1327343e-06
1.6324334e-06
1.7289564e-06
6.6068249e-07
-2.7578603e-06
-1.0143109e-05
-2.347621e-05
-4.5097297e-05
-7.7808522e-05
-0.00012505358
-0.000191079
-0.00028135938
-0.00040201375
5.4349627e-08
-1.1028105e-08
1.7683833e-07
4.7334071e-07
1.1340181e-06
2.5385284e-06
5.4591563e-06
1.1518786e-05
2.4255682e-05
5.0287927e-05
9.554654e-05
0.00016200424
0.00025267056
0.00036946403
0.00051292241
0.00067785556
5.3862658e-08
-1.0913638e-08
1.7552488e-07
4.7068895e-07
1.1300953e-06
2.535817e-06
5.4672345e-06
1.1566023e-05
2.4403219e-05
5.0621198e-05
9.6110131e-05
0.00016286917
0.00025394657
0.00037120671
0.00051472974
0.00068023911
0.0009824804
-0.003489088
0.0025066076
0.0075935051
-0.0079364342
0.00034292908
0.0011370615
-0.0031793722
0.0020423106
0.0075935051
-0.0024661534
9.3708571e-06
0.0024567826
-0.0082632058
0.0050948117
0.0031683941
-0.0012202909
0.0044716811
-0.0032513902
0.0073755235
0.003181476
-0.010556999
0.00767781
0.0022476962
-0.0099255062
0.001323539
-0.0017260076
-0.0019320241
0.0015300103
0.0035423804
0.0065468578
-0.010089238
-0.0036394655
-0.0038278251
0.0074672906
-0.0079485277
0.003711041
0.0042374867
-0.0016155984
0.0040524949
-0.0024368965
0.0039305083
1.9990076e-05
-0.0039504984
0.007592196
-0.0078280005
0.00023580449
0.0007108267
0.0018782188
-0.0025890455
0.001678853
-0.0020377953
0.00035894225
0.006481412
-0.0023120286
-0.0041693835
-0.00097744873
-0.0014887047
-0.0077031219
0.0040636564
-0.0094449915
0.0095194852
-7.4493768e-05
0.00078195076
0.0085243205
-0.0093062713
6.4805951e-05
-0.0057046493
0.0056398434
0.0045765299
0.0012520658
-0.0058285957
-0.004069081
-0.0060931495
0.01016223
0.0065944612
-0.0021393196
-0.0044551416
0.0013579014
0.0066855424
-0.0080434438
-0.0025101635
0.0058151079
-0.0033049444
0.0067345848
-0.0021580549
0.0020150399
-0.0015050625
-0.00050997739
-0.0001727985
0.0085758631
-0.0084030646
0.0065744994
0.00011773257
-0.006692232
0.0010730711
-0.0061499194
0.0050768483
0.0088438318
-0.00750522
-0.0013386118
0.007779937
-0.0082223562
0.0004424192
-0.0048020828
0.0058751538
0.0057303892
-0.0033971565
-0.0023332327
-0.0088949415
0.0017141235
0.007180818
0.0025483506
-0.0039415955
0.0013932449
0.010134051
-0.0043800201
-0.0057540311
0.0073755235
-0.0025382336
0.0058611834
-0.0033229499
0.00767781
-0.000812814
0.0036686989
-0.0028558849
-0.002001162
0.0067369077
-0.0047357457
-0.0098398372
0.0041793646
0.0056604726
-0.0073755235
0.011112415
-0.0037368911
-0.00767781
0.011205339
-0.0035275292
0.0036700687
-0.00063942169
-0.003030647
-0.0037900365
0.0016906258
0.0020994107
0.0013660474
-0.0026752508
0.0013092034
0.00089785675
0.0012623033
-0.0021601601
-0.0034326898
0.0061309926
-0.0026983028
0.00045069895
0.005824302
-0.0062750009
0.00090586143
-0.0019453182
0.0010394568
-0.0055704401
0.0035918607
0.0019785794
-0.010555009
0.0012167546
0.0093382539
0.0087025374
-0.003268543
-0.0054339944
0.007918448
0.0007840894
0.0054896387
0.0043282637
-0.0098179024
0.0051252172
0.0045847416
-0.0097099587
-0.0024632608
0.0051713274
-0.0027080667
0.00080318931
-0.004526101
0.0037229117
-0.0067840222
0.0071005751
-0.00031655295
0.0043656951
-0.007995678
0.0036299829
0.0044569758
0.0019813281
-0.0064383038
-0.0011092978
0.0064236608
-0.005314363
-0.009273453
0.007272291
-0.0025384978
0.0069804767
-0.0044419789
0.0017628629
0.0021676454
-0.0048514038
0.0044094952
0.00044190864
0.0049042121
0.0062934306
-0.011197643
0.0087797348
-0.0081368388
-0.00064289599
0.00055500855
-0.0027206188
0.0051826019
-0.0024619832
0.0068884825
-0.0033326948
-0.0035557877
0.0096870335
-0.0087166983
-0.00097033517
0.0079270099
-0.0070380446
-0.00088896526
0.0025569873
-0.0043311343
0.001774147
-0.002692669
0.0011384882
0.0015541808
0.0012278796
-0.0037380431
-0.010706931
0.0074583555
0.0032485759
0.0024252559
0.0051669401
0.0024889736
-0.0094228003
0.0069338267
-0.0046016759
0.0076987274
-0.0030970515
-0.0010174579
-0.0061065269
0.0071239848
0.0032691977
-0.0024696802
-0.00079951748
0.0004780933
0.0083016415
0.0054245742
0.0002817605
-0.0057063347
-0.0077310888
0.0030933671
0.0046377217
0.00055601773
0.0035838836
-0.0041399013
0.0032014429
0.0025289463
0.0043910277
0.0024931744
-0.0068842021
0.0046075258
-0.0018291568
-0.002778369
-0.0047510434
-0.0054024543
0.0030224034
-0.0018853419
-0.0009191355
-0.0018306993
0.0027498348
-0.002965822
0.0056765582
-0.0027107363
-0.0030747433
0.0079789554
-0.0058316838
0.0076700953
-0.0018384115
-0.006019562
-0.0017115268
-4.5767481e-05
0.0078257045
0.0083870492
-0.007742738
-0.00064431126
-0.005372744
-0.0025757837
-0.011462861
0.007545571
0.0039172904
-0.010625542
0.0075934269
0.0030321156
0.0058857169
-0.0025821378
-0.0033035791
0.0012458526
-0.0037840862
0.0021220168
-0.0055547066
-2.7788346e-05
0.0042631243
-0.0042353359
0.0031826995
-0.0042919973
-0.0018802925
0.0044286432
0.0018988426
0.0045825695
0.0065543689
0.0031326646
0.003815813
-0.0038436013
0.0030060201
0.0072145402
-0.01022056
0.010010363
-0.0057226822
-0.0042876804
-0.0022624579
0.0048144231
-0.0025519652
-0.00013933821
0.0015053856
0.00203121
-0.0011333533
0.0013050791
-6.636808e-05
-0.0012387111
0.0099826365
-0.010155435
0.00105059
0.00044160103
-0.001492191
0.00072025192
-0.00082810279
-0.00772045
0.0082710766
-0.00055062656
-0.0023999959
0.0015880441
0.00081195187
0.0038447628
-0.0042392319
0.00039446908
-0.0056001668
0.0051505046
0.0004496622
0.0019101288
-0.0010042673
-0.00051903525
0.0045746975
-0.0040556622
-0.0047425306
0.0086264788
-0.0038839481
0.0035312792
0.0066027719
0.0078100635
-0.0034443684
0.003443475
0.0024422419
-0.0034964722
0.0026836582
0.0064801528
-0.0074976107
-0.0035937103
0.0026745748
0.0058049802
0.0025820691
0.0052591294
-0.010831069
0.0055719399
0.003012148
0.0017507628
-0.0017413919
-0.0036641498
0.0046466302
0.006785178
-0.006785178
-0.0020861918
-0.0015073135
0.0069318877
0.0014864897
-0.0042071084
-0.00040894028
0.0062566229
-0.0058476826
-0.0040875119
0.0095771506
-0.0042600702
0.0093852874
0.0085157311
-0.0049949352
-0.0035207959
0.0043499847
0.0029805475
-0.0052430055
0.0058876459
-0.0076885784
0.0018009325
0.0059615961
-0.0058967902