/*--------------------------------*- C++ -*----------------------------------*\
| =========                 |                                                 |
| \\      /  F ield         | foam-extend: Open Source CFD                    |
|  \\    /   O peration     | Version:     4.1                                |
|   \\  /    A nd           | Web:         http://www.foam-extend.org         |
|    \\/     M anipulation  |                                                 |
\*---------------------------------------------------------------------------*/
FoamFile
{
    version     2.0;
    format      ascii;
    class       volVectorField;
    location    "0.4";
    object      U;
}
// * * * * * * * * * * * * * * * * * * * * * * * * * * * * * * * * * * * * * //

dimensions      [0 1 -1 0 0 0 0];

internalField   nonuniform List<vector> 
4242
(
(0.058178847 0.052869869 1.5640181e-19)
(0.17583829 0.15956831 1.0520844e-21)
(0.30364631 0.27402879 -1.7874327e-19)
(0.43848505 0.39306588 1.6377728e-19)
(0.57526763 0.51120819 3.1838683e-21)
(0.70696819 0.62050419 8.0034043e-22)
(0.82481435 0.71087417 0)
(0.91866754 0.77133133 7.6078482e-20)
(0.98354078 0.79646469 -1.2352548e-19)
(1.0209378 0.78843123 4.619151e-20)
(1.0379257 0.75584534 -2.3219221e-20)
(1.0430841 0.70891363 1.9085983e-20)
(1.0430234 0.65514531 5.7500795e-21)
(1.0419386 0.59821643 -1.6415313e-21)
(1.042597 0.53972486 4.461547e-21)
(1.0435544 0.48448499 0)
(0.064150304 0.042844716 0)
(0.19526586 0.13048415 -2.721461e-21)
(0.33865789 0.22639457 3.266962e-19)
(0.49128863 0.32836616 -2.9779141e-19)
(0.6478084 0.4325043 -5.6158656e-21)
(0.80002336 0.53271427 2.131577e-19)
(0.9372478 0.62063311 -1.0651259e-20)
(1.04808 0.68649164 -2.7437418e-19)
(1.124505 0.72234885 2.5216064e-20)
(1.1659174 0.72623588 7.9420877e-20)
(1.1797457 0.70367752 0)
(1.1771679 0.66421312 -5.8054948e-21)
(1.1675985 0.61626108 -3.1751135e-21)
(1.1566225 0.5646623 -1.7865123e-20)
(1.1470026 0.51154618 2.1192797e-20)
(1.1379773 0.46013958 2.7077821e-21)
(0.068101868 0.033642516 -1.7721009e-22)
(0.20795145 0.10291437 -1.0124025e-18)
(0.36179813 0.17958428 4.7657633e-19)
(0.52693026 0.26232109 -3.819436e-21)
(0.6982793 0.3485298 -3.7298423e-19)
(0.86782589 0.43397661 3.1971472e-19)
(1.0245759 0.51254864 -4.7248679e-21)
(1.1558952 0.5765835 7.5737892e-21)
(1.2510026 0.61849414 -2.3975586e-21)
(1.3046306 0.6333667 -8.8319908e-21)
(1.3216287 0.62284159 8.0742177e-20)
(1.3145341 0.59414983 -5.9419859e-20)
(1.2959212 0.55530641 -7.9203531e-20)
(1.2740368 0.51174248 6.626821e-20)
(1.2526679 0.46646189 -5.3403586e-21)
(1.2329778 0.42191061 -1.2026408e-20)
(0.066863385 0.022863733 -1.124598e-21)
(0.2055902 0.070703044 -1.3401747e-21)
(0.36012114 0.12509638 -3.0030173e-19)
(0.5285951 0.18562881 2.7970475e-19)
(0.7068287 0.25096394 -4.014023e-21)
(0.88753063 0.31851356 2.0798886e-19)
(1.0599801 0.38408606 -1.6162927e-19)
(1.2108687 0.44189188 -2.6894978e-19)
(1.327073 0.48536977 1.5925722e-20)
(1.4000197 0.50904378 3.3299997e-19)
(1.4303293 0.51142058 -1.2628908e-19)
(1.4279239 0.49602996 0)
(1.4060205 0.46847947 6.2061055e-21)
(1.3769831 0.43529521 -4.4787555e-20)
(1.3465943 0.40006377 2.1437358e-20)
(1.3163128 0.36518675 -3.5510889e-20)
(0.060073226 0.012186489 1.1246892e-21)
(0.18676585 0.038469895 -3.638851e-19)
(0.33077405 0.069964966 3.4353995e-19)
(0.4916479 0.10702863 -2.2828668e-21)
(0.66680985 0.1494777 6.2155091e-21)
(0.85048435 0.19632302 -1.8839107e-21)
(1.0329371 0.24532455 -2.0081774e-19)
(1.2007743 0.29271466 1.7848142e-21)
(1.3391616 0.33344797 1.2074696e-19)
(1.4361008 0.36229575 -9.1935088e-20)
(1.4874339 0.37588022 7.4924804e-20)
(1.4989495 0.37435674 0)
(1.4830247 0.36069994 3.9399238e-20)
(1.4534329 0.33961892 -2.7512992e-20)
(1.4190728 0.31451849 7.4523965e-21)
(1.3829334 0.28728688 0)
(0.049040152 0.0034914066 -1.6179258e-19)
(0.15481634 0.011720444 9.6813777e-20)
(0.27842549 0.023290361 1.8113956e-19)
(0.42108899 0.038943727 -1.6444038e-19)
(0.58239204 0.059258743 -1.6268342e-21)
(0.7589763 0.08452524 6.430408e-20)
(0.94322969 0.11432272 5.432938e-20)
(1.1228025 0.14706696 -1.4164952e-21)
(1.2820474 0.17978168 -1.6475663e-21)
(1.4058987 0.20844626 -7.6898868e-20)
(1.4851443 0.22916473 7.8298524e-20)
(1.5201114 0.23970015 -2.949656e-21)
(1.5198591 0.24005363 -7.3601984e-21)
(1.49779 0.23236397 -1.552247e-20)
(1.465292 0.21926377 -9.9702556e-24)
(1.4283847 0.2026129 5.9506243e-21)
(0.035438813 -0.0020325909 -7.9639022e-20)
(0.11443786 -0.0058104343 -9.5446028e-20)
(0.2104431 -0.0082925528 2.699091e-19)
(0.3262331 -0.0088161884 -1.6341277e-19)
(0.4636958 -0.0066280003 7.4471367e-20)
(0.62247499 -0.00080640691 7.5742689e-24)
(0.79820728 0.0095061448 1.0584239e-19)
(0.98111386 0.02469663 -4.6722274e-20)
(1.1562768 0.044166261 -5.5280053e-21)
(1.3066618 0.065995733 2.4185182e-20)
(1.4183558 0.087205362 -3.6800418e-20)
(1.4854486 0.10467745 2.8567887e-20)
(1.5115284 0.11613092 -7.8007248e-21)
(1.5071364 0.12088573 -3.0839326e-20)
(1.4842943 0.11962983 1.1437179e-20)
(1.4518158 0.11278823 1.3821509e-20)
(0.021207609 -0.0039422265 -1.7346459e-21)
(0.071296422 -0.012518062 3.6204243e-19)
(0.13615865 -0.021569493 -3.3976294e-19)
(0.21967797 -0.030892432 3.0576432e-19)
(0.32570701 -0.040132498 -2.7545925e-19)
(0.45692292 -0.04852809 0)
(0.61291234 -0.054846129 1.9851127e-19)
(0.78796876 -0.057479103 -1.6118088e-19)
(0.96992855 -0.054896986 -3.6694672e-21)
(1.1417208 -0.046420858 0)
(1.2859875 -0.032852233 -1.4565294e-20)
(1.3907048 -0.016461149 7.2380039e-21)
(1.4526418 -0.00032905716 -4.6712016e-20)
(1.4770433 0.01275126 8.4236855e-20)
(1.4739422 0.02126539 -5.7445511e-20)
(1.4536483 0.02449307 -1.4689992e-20)
(0.0084381206 -0.0026288307 1.1253842e-21)
(0.031694206 -0.0092597539 -1.3431792e-21)
(0.066311254 -0.017414154 0)
(0.11656609 -0.027504921 6.4051874e-21)
(0.1874831 -0.039938999 3.6328351e-21)
(0.28413672 -0.054796661 2.1887395e-19)
(0.41001918 -0.071513066 -1.9192578e-19)
(0.56449989 -0.088514443 0)
(0.74028922 -0.1031707 7.3115364e-22)
(0.92292965 -0.11248439 -1.1393027e-20)
(1.0938959 -0.11434965 9.6015064e-21)
(1.2362641 -0.10859961 6.4059121e-21)
(1.3397179 -0.097196778 1.0678593e-20)
(1.4024636 -0.083433867 6.5845129e-20)
(1.4297973 -0.070412276 -7.6063669e-20)
(1.4309282 -0.060023941 3.9533882e-20)
(-0.0015839075 0.00095800483 0)
(-0.00021460256 0.001310068 5.7598265e-19)
(0.0084992693 3.3610615e-05 -1.0813413e-18)
(0.028548806 -0.0038169113 4.8952993e-19)
(0.065161344 -0.01141081 -3.6448858e-21)
(0.12456803 -0.023903652 -1.1813443e-20)
(0.21318891 -0.042181793 3.2396156e-19)
(0.33538971 -0.066133615 -2.6673842e-19)
(0.49025616 -0.093777897 -1.9510889e-19)
(0.66886174 -0.12113865 1.7695819e-19)
(0.85468855 -0.14350149 0)
(1.0281978 -0.15734817 -1.1651259e-19)
(1.1728119 -0.16168676 6.2994281e-20)
(1.2789313 -0.15803532 0)
(1.344917 -0.1490254 0)
(1.3763582 -0.1362654 0)
(-0.0074320355 0.005041952 8.3546635e-19)
(-0.019877133 0.013994085 -5.0082212e-19)
(-0.029102309 0.022202861 0)
(-0.032186422 0.028607124 -3.1693263e-21)
(-0.024689842 0.031621195 -3.7385885e-19)
(-0.00012771607 0.029036511 3.4020847e-19)
(0.049861937 0.018237499 2.7026359e-19)
(0.13390074 -0.0028581358 5.3930558e-21)
(0.25559401 -0.033439858 -2.0467014e-19)
(0.41385405 -0.072008041 1.0307775e-20)
(0.59800639 -0.11423422 0)
(0.78905407 -0.15371069 -1.9059127e-19)
(0.96597811 -0.18487336 2.6123961e-20)
(1.1118616 -0.2049481 1.1537288e-19)
(1.217534 -0.21341727 0)
(1.2854626 -0.20546183 1.4172754e-20)
(-0.0090514261 0.0084313899 -6.7152726e-23)
(-0.026650275 0.025211708 8.937471e-19)
(-0.044358139 0.043017767 -4.2315613e-19)
(-0.0605926 0.06123605 -3.8461002e-19)
(-0.072701089 0.078841043 3.4143687e-19)
(-0.076371014 0.094214288 -3.0719696e-19)
(-0.064803288 0.1047448 2.6077603e-19)
(-0.027530121 0.10587641 2.1183616e-19)
(0.050877253 0.089841815 -1.9465158e-19)
(0.17969878 0.05188617 0)
(0.34711391 -0.0048718551 0)
(0.53759143 -0.073992164 0)
(0.73185379 -0.14260801 1.9534618e-20)
(0.9091054 -0.1993624 0)
(1.0529964 -0.23851653 9.1354392e-20)
(1.1590926 -0.25197041 -1.5578826e-19)
(0.053529573 -0.058755109 -3.8201543e-20)
(0.16057648 -0.17582146 -5.539295e-22)
(0.27366127 -0.29913245 4.5646251e-20)
(0.38884448 -0.42328374 -4.1798844e-20)
(0.50068427 -0.54111773 -1.7446087e-21)
(0.60271664 -0.64421712 6.6206202e-22)
(0.68862957 -0.72401749 0)
(0.75400872 -0.77381256 -4.5923335e-20)
(0.79812039 -0.7912826 8.922712e-20)
(0.8245091 -0.77981353 -3.8102405e-20)
(0.83950198 -0.7469152 4.1650487e-20)
(0.84937346 -0.70064913 -3.4250004e-20)
(0.85837484 -0.64689847 -6.589926e-21)
(0.86877429 -0.58889723 9.0171115e-21)
(0.88096152 -0.52878929 2.2787245e-20)
(0.8910698 -0.47214028 0)
(0.037292754 -0.055316556 0)
(0.11241481 -0.16547298 1.82049e-21)
(0.19372015 -0.28109912 -2.220388e-19)
(0.2788064 -0.39730819 2.0231671e-19)
(0.36387635 -0.50716317 3.6320858e-21)
(0.44411671 -0.60207196 -1.5949028e-19)
(0.51462055 -0.6733407 -3.4073882e-21)
(0.57195659 -0.7147863 2.3712072e-19)
(0.61566158 -0.72535747 -9.0849438e-21)
(0.64848545 -0.70978783 -8.4920406e-20)
(0.67493232 -0.67618824 0)
(0.69912804 -0.6322637 9.2081337e-21)
(0.72359795 -0.5830423 9.5693839e-21)
(0.74942561 -0.53093256 7.0214298e-20)
(0.77663904 -0.47698067 -9.1908799e-20)
(0.80338715 -0.4228519 -1.3541657e-20)
(0.024473602 -0.048914694 5.4491751e-22)
(0.074003636 -0.14618999 8.2363883e-19)
(0.12839786 -0.24806917 -3.8745515e-19)
(0.18639438 -0.3501167 3.1861016e-21)
(0.24586205 -0.44608352 3.099133e-19)
(0.30405832 -0.52830354 -2.6542807e-19)
(0.35813755 -0.58914674 4.159307e-21)
(0.40608792 -0.62339913 -6.9818415e-21)
(0.4476582 -0.63051897 2.4706075e-21)
(0.48450639 -0.61498255 9.476421e-21)
(0.51927844 -0.58398181 -1.0837372e-19)
(0.55429572 -0.54416913 7.8332981e-20)
(0.59087886 -0.49986873 1.4592876e-19)
(0.6295528 -0.45327559 -1.2326301e-19)
(0.67007614 -0.40564307 1.7872588e-20)
(0.7099633 -0.35872064 5.71937e-20)
(0.013234231 -0.037903654 9.6751229e-22)
(0.040526518 -0.11331427 1.1524337e-21)
(0.071872561 -0.19230485 2.5510925e-19)
(0.10705989 -0.27142487 -2.378458e-19)
(0.14537192 -0.34578842 3.4810226e-21)
(0.18573863 -0.4093798 -1.8263927e-19)
(0.22689301 -0.45621457 1.4204673e-19)
(0.26780111 -0.48223637 2.5513929e-19)
(0.30817801 -0.48708767 -2.4745264e-21)
(0.34865091 -0.47434339 -3.4951767e-19)
(0.39034088 -0.449672 1.3773301e-19)
(0.43418548 -0.41828103 0)
(0.48060942 -0.38353138 -9.6023288e-21)
(0.52963896 -0.34714307 7.8225195e-20)
(0.580493 -0.31020005 -3.7210709e-20)
(0.62995075 -0.27403189 8.733943e-20)
(0.0049187141 -0.022728103 -9.6767709e-22)
(0.015746928 -0.068416884 3.1649048e-19)
(0.029995288 -0.11690097 -2.9923771e-19)
(0.048246832 -0.16626538 1.9712964e-21)
(0.070872381 -0.21359219 -5.4045228e-21)
(0.098080284 -0.25501508 1.654408e-21)
(0.1298035 -0.28635214 1.838301e-19)
(0.16575843 -0.30437569 3.1729451e-21)
(0.2056746 -0.30824076 -1.1444387e-19)
(0.2494765 -0.30000152 9.710164e-20)
(0.29721545 -0.28353287 -7.9044451e-20)
(0.34883685 -0.2626235 0)
(0.40412633 -0.239736 -5.2740247e-20)
(0.46274798 -0.2159782 3.7136313e-20)
(0.52306819 -0.19185748 -1.288189e-20)
(0.57918164 -0.16841881 0)
(0.068124342 -0.033652065 0)
(0.20803244 -0.10295601 5.0971899e-19)
(0.36196017 -0.17967761 -9.5413734e-19)
(0.52720048 -0.26248898 4.3786328e-19)
(0.69868609 -0.34879648 3.3623044e-21)
(0.86839421 -0.43436586 1.4980132e-21)
(1.0253164 -0.51307728 2.5471626e-19)
(1.156794 -0.57725432 -2.1772457e-19)
(1.2520093 -0.61929349 -1.5311095e-19)
(1.3057368 -0.63429134 1.1278633e-19)
(1.3226827 -0.623816 0)
(1.3153559 -0.59508543 -4.6448782e-20)
(1.2963233 -0.55612013 3.6928958e-20)
(1.2739194 -0.51238176 0)
(1.2521822 -0.46680788 0)
(1.2324498 -0.42179028 0)
(0.0008222631 -0.0077397631 1.3807325e-19)
(0.0034450536 -0.023797016 -8.2787869e-20)
(0.0089343035 -0.041568811 -1.550479e-19)
(0.018305707 -0.060655959 1.4121407e-19)
(0.032636489 -0.080179916 1.6915656e-21)
(0.053081038 -0.098582893 -5.5852622e-20)
(0.080566435 -0.11364464 -4.850175e-20)
(0.11545148 -0.12301508 3.2410903e-22)
(0.15732722 -0.12530868 3.9444367e-22)
(0.20513701 -0.12102844 7.580273e-20)
(0.25758952 -0.11226894 -8.0853054e-20)
(0.31353287 -0.10134895 9.3597439e-22)
(0.3720441 -0.089711095 6.9958788e-21)
(0.43230138 -0.077780915 1.9208531e-20)
(0.49328723 -0.065371316 1.3733751e-23)
(0.55324906 -0.052456316 -1.0096897e-20)
(0.00082492657 0.0077488162 6.8534837e-20)
(0.0034566864 0.023832741 8.2159932e-20)
(0.0089657469 0.041641751 -2.3277555e-19)
(0.018370154 0.060774854 1.4126745e-19)
(0.032748567 0.080347205 -6.4589956e-20)
(0.053255978 0.098788417 -6.6023983e-24)
(0.080818581 0.11386012 -9.4215111e-20)
(0.11579259 0.12319439 4.104814e-20)
(0.1577646 0.1253975 4.2361321e-21)
(0.20567049 0.12097952 -2.4693148e-20)
(0.25820729 0.11205434 3.5918487e-20)
(0.31421067 0.10096581 -3.1302288e-20)
(0.37274846 0.089183923 6.9952707e-21)
(0.43296496 0.07716789 3.7557909e-20)
(0.4936867 0.064807407 -1.4488131e-20)
(0.55282817 0.052296588 -2.0373302e-20)
(0.0049446501 0.022856512 1.4976673e-21)
(0.015825499 0.068790064 -3.1877897e-19)
(0.030132344 0.11751587 2.9921952e-19)
(0.048445641 0.16710108 -2.6946675e-19)
(0.071132243 0.21460453 2.4292961e-19)
(0.098396019 0.25613393 0)
(0.13016583 0.28748443 -1.7820064e-19)
(0.16615527 0.30541527 1.4526591e-19)
(0.20609134 0.30908197 3.2092417e-21)
(0.24989273 0.30054951 0)
(0.29759859 0.2837055 1.4135373e-20)
(0.34914077 0.2623462 -7.2398489e-21)
(0.40429496 0.2389316 5.1898747e-20)
(0.46267075 0.21454016 -9.9341208e-20)
(0.52242558 0.18958783 6.8731993e-20)
(0.57748453 0.16501258 1.9773434e-20)
(0.013261761 0.037999127 -9.6684883e-22)
(0.040601958 0.11359034 1.1516547e-21)
(0.071978135 0.19276331 0)
(0.1071697 0.27205871 -5.1518616e-21)
(0.1454533 0.34657898 -2.8218729e-21)
(0.18575315 0.41029313 -1.8241301e-19)
(0.22679783 0.45719569 1.6041029e-19)
(0.26754895 0.48320318 0)
(0.30771476 0.48793149 -1.2236743e-21)
(0.34790966 0.47494198 9.4936312e-21)
(0.38923037 0.44991139 -9.1400016e-21)
(0.43258787 0.41807075 -5.0118063e-21)
(0.47844979 0.38278229 -1.1213389e-20)
(0.52702485 0.3456691 -7.1856695e-20)
(0.57744585 0.30764187 8.4658538e-20)
(0.62493948 0.27038739 -4.6771933e-20)
(0.024435218 0.048852504 0)
(0.073890523 0.14601821 -4.1210194e-19)
(0.12819347 0.24781048 7.7210043e-19)
(0.1860816 0.34980875 -3.4826256e-19)
(0.24542416 0.4457755 2.8160155e-21)
(0.30347525 0.52804476 8.2254063e-21)
(0.35737793 0.58896373 -2.3522214e-19)
(0.40509905 0.62326722 1.938404e-19)
(0.44636031 0.63034676 1.4819021e-19)
(0.48279629 0.61462907 -1.3580947e-19)
(0.51703517 0.58330616 0)
(0.55139628 0.5430782 9.8767972e-20)
(0.58733703 0.49828836 -5.4639162e-20)
(0.62586492 0.45102389 0)
(0.6669314 0.40268686 0)
(0.70511386 0.35690561 0)
(0.037184203 0.055161225 -3.9952325e-19)
(0.11210487 0.16502926 2.3915081e-19)
(0.19321056 0.28038565 0)
(0.27810946 0.39636744 9.539032e-22)
(0.36301468 0.50606017 1.7944969e-19)
(0.44311629 0.60088366 -1.6186763e-19)
(0.51349695 0.67213199 -1.36474e-19)
(0.57069933 0.71357705 -6.2306642e-21)
(0.61422953 0.72409925 1.0819956e-19)
(0.64682694 0.70837674 -6.8691567e-21)
(0.67302969 0.67452048 0)
(0.69706462 0.63030035 1.2176264e-19)
(0.7216815 0.58083411 -1.3728101e-20)
(0.74832183 0.52868052 -7.8519529e-20)
(0.77714799 0.47544843 0)
(0.80644447 0.42342749 -9.8391293e-21)
(0.053424809 0.058639107 1.0311011e-21)
(0.16026683 0.17547456 -9.4378076e-20)
(0.27314385 0.29854591 4.5000366e-20)
(0.38812792 0.42246473 4.4324718e-20)
(0.49979153 0.54009329 -3.8644087e-20)
(0.60168342 0.64303307 4.6547665e-20)
(0.68749463 0.72272832 -4.2335267e-20)
(0.7527989 0.77246131 -4.375038e-20)
(0.79683983 0.78987942 3.8584123e-20)
(0.8231522 0.7783371 0)
(0.83809643 0.745353 0)
(0.84803766 0.69905852 0)
(0.85737351 0.64544626 -4.2499175e-21)
(0.8685261 0.58787594 0)
(0.88180186 0.52859046 -4.8444453e-20)
(0.89240012 0.4726984 9.0970842e-20)
(-0.0090815707 -0.0084597089 3.7007549e-19)
(-0.026753172 -0.025304973 1.8457106e-21)
(-0.044558477 -0.043191231 -4.217064e-19)
(-0.060924463 -0.061508304 3.8756426e-19)
(-0.07321305 -0.079233881 5.7197395e-21)
(-0.077134307 -0.094753903 4.5756421e-21)
(-0.065926902 -0.10546957 0)
(-0.02919792 -0.10686175 2.1864801e-19)
(0.048590137 -0.091080165 -3.6741099e-19)
(0.17685116 -0.053309645 1.5217571e-19)
(0.34402696 0.0034281859 -1.263185e-19)
(0.53433682 0.072603712 1.0321386e-19)
(0.72842877 0.14134479 1.3745418e-21)
(0.90536333 0.19827046 -1.6099822e-20)
(1.0489086 0.23709257 -4.6784685e-20)
(1.156798 0.24549477 0)
(-0.0075135885 -0.0050974868 0)
(-0.02014174 -0.014169863 -3.9293495e-21)
(-0.029592128 -0.022520623 4.6799442e-19)
(-0.032954396 -0.029093693 -4.2800666e-19)
(-0.025804038 -0.032310149 -8.7998789e-21)
(-0.0016501238 -0.02995548 3.2775912e-19)
(0.047892118 -0.019398627 -1.4448813e-21)
(0.13153639 0.00149447 -4.6481804e-19)
(0.25287548 0.031876023 2.5677068e-20)
(0.41089556 0.070269411 1.5519261e-19)
(0.59497985 0.11236599 0)
(0.78614143 0.15174722 -1.2666461e-20)
(0.96331609 0.18277257 -1.8376829e-20)
(1.1095384 0.2024778 -9.3951679e-20)
(1.2155671 0.21009895 1.2600392e-19)
(1.2822167 0.20403718 1.45768e-20)
(-0.0016780227 -0.0010050566 -3.9040267e-22)
(-0.00051676019 -0.001458324 -1.1443495e-18)
(0.0079474321 -0.00030034165 5.4013297e-19)
(0.027702519 0.0034128848 -4.1058644e-21)
(0.063981864 0.010852779 -4.3203227e-19)
(0.12301767 0.023172673 3.7144444e-19)
(0.21125615 0.041268053 -5.3155921e-21)
(0.33311204 0.065046556 8.8130338e-21)
(0.48773855 0.092549242 -5.5100253e-21)
(0.66627336 0.11981195 -1.143785e-20)
(0.85222571 0.14211562 1.3405855e-19)
(1.0260285 0.15592154 -9.527823e-20)
(1.1710347 0.16021072 -1.6405846e-19)
(1.2775799 0.15646163 1.372148e-19)
(1.3439981 0.1473612 -2.0704246e-20)
(1.3749244 0.1366799 -5.5883575e-20)
(0.0083132602 0.0025855654 -1.1237809e-21)
(0.031307008 0.0091282185 -1.3412669e-21)
(0.065627533 0.017185206 -3.0601738e-19)
(0.11555516 0.02717002 2.8582905e-19)
(0.18612516 0.039491986 -4.0626701e-21)
(0.28243468 0.054236178 2.1851237e-19)
(0.40801413 0.070844791 -1.692364e-19)
(0.5622839 0.087751892 -2.9854122e-19)
(0.738004 0.10233219 6.3587195e-21)
(0.92074267 0.11158635 3.9357307e-19)
(1.0919584 0.11339973 -1.5231901e-19)
(1.2346669 0.10759403 0)
(1.3384628 0.096126958 1.0208862e-20)
(1.4014723 0.082285542 -7.3071821e-20)
(1.4289742 0.069169326 3.5122017e-20)
(1.4297911 0.05982175 -7.1242554e-20)
(0.021072042 0.0039145587 1.1236167e-21)
(0.070884558 0.012435318 -3.5892453e-19)
(0.13544685 0.021427242 3.3935504e-19)
(0.21865274 0.03068697 -2.2917216e-21)
(0.32437381 0.039861729 6.2423965e-21)
(0.45531713 0.048192294 -1.8850828e-21)
(0.61110905 0.054447882 -2.0460989e-19)
(0.78608389 0.057021565 -1.4304672e-21)
(0.96810378 0.054380749 1.2454017e-19)
(1.1400917 0.045841146 -1.00153e-19)
(1.2846437 0.032198796 8.1356523e-20)
(1.3896557 0.015722371 0)
(1.4518003 -0.00049444607 4.6827574e-20)
(1.4762543 -0.01364992 -3.2989502e-20)
(1.473065 -0.022230658 1.0842578e-20)
(1.4524663 -0.024556803 0)
(0.035303337 0.00202326 -1.6039636e-19)
(0.11403606 0.0057827137 9.6028856e-20)
(0.20976616 0.0082441255 1.7974273e-19)
(0.32528803 0.0087439522 -1.6331198e-19)
(0.46251333 0.006527667 -1.7193957e-21)
(0.62111648 0.00067169502 6.401124e-20)
(0.79676631 -0.0096846344 5.4467368e-20)
(0.97970697 -0.024932324 -1.1515727e-21)
(1.1550211 -0.044476239 -1.3867818e-21)
(1.3056444 -0.066398616 -7.8523715e-20)
(1.4176001 -0.087716518 8.0534036e-20)
(1.4848903 -0.10530183 -2.7398266e-21)
(1.5110134 -0.11684856 -7.794788e-21)
(1.5064722 -0.1216733 -1.6386467e-20)
(1.4833565 -0.12047993 -9.9389065e-24)
(1.4506194 -0.11284811 6.5596721e-21)
(0.048924196 -0.0034838845 -8.0282336e-20)
(0.15448138 -0.011700426 -9.6191012e-20)
(0.27787721 -0.023262274 2.7185244e-19)
(0.42035112 -0.038915313 -1.64446e-19)
(0.58151151 -0.059242168 7.4895086e-20)
(0.75802494 -0.084538102 7.5565959e-24)
(0.9422988 -0.11438801 1.0552429e-19)
(1.1219878 -0.14721103 -4.6842778e-20)
(1.2814266 -0.18002997 -5.6694714e-21)
(1.4055074 -0.20881882 2.3340798e-20)
(1.4849471 -0.22966786 -3.6143793e-20)
(1.5199884 -0.24031816 2.7343563e-20)
(1.5196166 -0.24073947 -7.361962e-21)
(1.4972315 -0.23308114 -2.9040129e-20)
(1.4643455 -0.21998169 1.0698304e-20)
(1.4272659 -0.20254327 1.1910646e-20)
(0.059994195 -0.012170371 -1.7420848e-21)
(0.1865465 -0.038428487 3.6684972e-19)
(0.33043129 -0.069907748 -3.4380502e-19)
(0.49121501 -0.1069705 3.0830981e-19)
(0.66633812 -0.14943992 -2.77414e-19)
(0.85004016 -0.19633309 0)
(1.0325922 -0.2454138 1.9469503e-19)
(1.2005902 -0.29291297 -1.5841412e-19)
(1.3391722 -0.33377731 -3.1822269e-21)
(1.4362985 -0.36276766 0)
(1.4877376 -0.37648162 -1.28654e-20)
(1.4992049 -0.37504438 5.9062928e-21)
(1.4830271 -0.3614085 -3.7962222e-20)
(1.4529978 -0.3403061 6.9064169e-20)
(1.4182025 -0.31513511 -4.4777488e-20)
(1.3819755 -0.28721529 -1.0722903e-20)
(0.066833699 -0.022852665 1.125913e-21)
(0.20551884 -0.070680857 -1.3417411e-21)
(0.3600306 -0.12507833 0)
(0.52851928 -0.18563593 -1.5418677e-21)
(0.70681152 -0.25102291 -3.3601577e-21)
(0.88762037 -0.31865494 1.9689231e-19)
(1.0602187 -0.38433947 -1.73305e-19)
(1.2112788 -0.44227869 0)
(1.3276473 -0.48589723 1.3119491e-20)
(1.4007282 -0.50971126 8.8319297e-21)
(1.431057 -0.512188 8.2170342e-21)
(1.4284999 -0.49682737 -1.503357e-20)
(1.406255 -0.46924566 8.3265379e-21)
(1.3767003 -0.43595807 4.2383967e-20)
(1.3458962 -0.40053583 -4.5057367e-20)
(1.3155346 -0.36508207 2.3185014e-20)
(0.064223824 -0.042892027 5.8895001e-19)
(0.19548945 -0.13063448 -3.5256153e-19)
(0.33904529 -0.2266646 0)
(0.49184901 -0.32876993 -1.794859e-21)
(0.648541 -0.43304951 -2.5351757e-19)
(0.80094361 -0.53341921 2.2934147e-19)
(0.93834134 -0.62149562 1.6721069e-19)
(1.0493127 -0.68749378 -8.6513384e-21)
(1.1258244 -0.72345841 -1.1756846e-19)
(1.1672541 -0.72740805 6.0775783e-21)
(1.180995 -0.70485132 0)
(1.1781683 -0.66530606 -5.9878117e-20)
(1.1681593 -0.61716695 1.9630331e-20)
(1.1566576 -0.56524771 2.8629445e-20)
(1.1466715 -0.5116362 0)
(1.137282 -0.45972623 -7.2770522e-22)
(0.058273063 -0.052953372 -1.0536579e-21)
(0.17611846 -0.15982081 3.7927253e-19)
(0.3041229 -0.27446414 -1.7953014e-19)
(0.43916048 -0.39369212 -1.6213333e-19)
(0.57613156 -0.51202224 1.4317583e-19)
(0.7079939 -0.62148641 -1.2482337e-19)
(0.82599006 -0.71201024 1.0801728e-19)
(0.91995153 -0.77257547 7.3057024e-20)
(0.98489357 -0.79777561 -6.5148028e-20)
(1.0223149 -0.7897799 0)
(1.0392467 -0.75719926 0)
(1.0441937 -0.7102014 0)
(1.0437102 -0.65623226 -2.1318748e-21)
(1.0420594 -0.59893573 0)
(1.0421417 -0.54008188 -8.923365e-21)
(1.0423909 -0.48463258 2.1474889e-20)
(-0.0097952586 0.010675733 3.4769043e-19)
(-0.029909963 0.032839814 1.5944951e-21)
(-0.051688229 0.057646201 -3.9591198e-19)
(-0.074423151 0.084635735 3.6400783e-19)
(-0.096773382 0.11281246 4.9521527e-21)
(-0.11639167 0.14033233 4.5748682e-21)
(-0.1295743 0.16421988 0)
(-0.13064151 0.17994353 2.0413357e-19)
(-0.11098958 0.18098438 -3.40684e-19)
(-0.057251842 0.15855849 1.4147086e-19)
(0.0533246 0.10283943 -1.1375941e-19)
(0.22473981 0.018399377 9.3096165e-20)
(0.42170011 -0.074572427 -7.3519817e-22)
(0.61980168 -0.16498272 -1.465698e-20)
(0.79780339 -0.24129487 -4.5005156e-20)
(0.94490724 -0.29224665 0)
(-0.0094647623 0.014304971 0)
(-0.028960186 0.04415176 -3.0715828e-21)
(-0.050189989 0.077755695 3.7261071e-19)
(-0.072572443 0.1146953 -3.4061e-19)
(-0.095013765 0.15386804 -7.1119915e-21)
(-0.11564605 0.19317077 2.6149422e-19)
(-0.13158666 0.2291346 -9.6226336e-22)
(-0.13870775 0.25667423 -3.7259944e-19)
(-0.13138221 0.26911405 1.9908847e-20)
(-0.10203637 0.25848526 1.2620841e-19)
(-0.040280432 0.21569654 0)
(0.068384304 0.13051967 -1.0086966e-20)
(0.23281949 0.0069624568 -1.650468e-20)
(0.41084838 -0.11872329 -8.9000258e-20)
(0.58168056 -0.22804838 1.1795569e-19)
(0.73268458 -0.30503824 1.3244529e-20)
(-0.0095148797 0.019510247 -1.5832625e-22)
(-0.028841789 0.059574205 -7.2649069e-19)
(-0.049535911 0.10374697 3.4300051e-19)
(-0.070994012 0.15112971 -2.2629132e-21)
(-0.092249163 0.19998269 -2.7523543e-19)
(-0.11184574 0.24748131 2.3779324e-19)
(-0.12780181 0.28954325 -2.9774282e-21)
(-0.13762938 0.32089586 5.0049534e-21)
(-0.13837229 0.33549783 -5.1097944e-21)
(-0.1265228 0.3271941 -6.8788656e-21)
(-0.0975227 0.29003779 9.6788783e-20)
(-0.04394074 0.21762822 -6.8170611e-20)
(0.049380949 0.10267403 -1.3411902e-19)
(0.19003374 -0.046585508 1.1202542e-19)
(0.33325824 -0.18684042 -1.9104363e-20)
(0.47171661 -0.28924477 -4.8857742e-20)
(-0.0078802205 0.02328271 -4.4372594e-22)
(-0.02373887 0.070027321 -5.3143425e-22)
(-0.040777037 0.11999746 -1.4580477e-19)
(-0.058586601 0.17161484 1.3648068e-19)
(-0.076552789 0.22241121 -1.6383683e-21)
(-0.093843743 0.26890575 1.0663115e-19)
(-0.10944367 0.30665357 -8.2615715e-20)
(-0.12223272 0.33060869 -1.5158348e-19)
(-0.13105493 0.3358921 -1.4322297e-21)
(-0.13463536 0.31876782 2.1216754e-19)
(-0.13124567 0.27713382 -8.4088744e-20)
(-0.11788655 0.20974656 0)
(-0.08655108 0.11455052 7.4957323e-21)
(-0.010319837 -0.013779736 -5.452034e-20)
(0.099371629 -0.15346403 2.6340476e-20)
(0.21322268 -0.25593202 -5.1142086e-20)
(-0.0043602737 0.021106112 4.4372594e-22)
(-0.013423045 0.062850416 -1.1712632e-19)
(-0.024156197 0.10646665 1.1092648e-19)
(-0.03668144 0.15013997 -9.1841452e-22)
(-0.051017691 0.1912566 2.2685699e-21)
(-0.067142009 0.22639915 -5.5432064e-22)
(-0.084972815 0.25160516 -7.1958637e-20)
(-0.10435644 0.26299121 -2.7579047e-21)
(-0.12497065 0.25771455 4.4961822e-20)
(-0.14604703 0.23483911 -4.1293495e-20)
(-0.16595129 0.19535204 3.3648609e-20)
(-0.18158739 0.14109393 0)
(-0.1872028 0.073537085 2.499701e-20)
(-0.1724845 -0.0060104024 -1.7892677e-20)
(-0.11916102 -0.094914905 7.2303012e-21)
(-0.036120843 -0.17634845 0)
(-0.001022736 0.010068758 -3.7313495e-20)
(-0.0039704801 0.030128547 2.2087914e-20)
(-0.0097180774 0.051251849 4.2718789e-20)
(-0.019160623 0.072517547 -3.9439154e-20)
(-0.033176999 0.09239629 -8.4000126e-22)
(-0.052635452 0.10863857 1.6034184e-20)
(-0.078072672 0.11848964 1.455179e-20)
(-0.10931022 0.11947658 2.340326e-22)
(-0.1451348 0.11061932 2.2638663e-22)
(-0.18319326 0.093148397 -2.4787248e-20)
(-0.22014812 0.069811374 2.7415589e-20)
(-0.2518394 0.043227673 7.6529438e-23)
(-0.27311164 0.014741199 -2.7325755e-21)
(-0.27719045 -0.015558366 -7.0488719e-21)
(-0.25466458 -0.048195019 -4.7123468e-24)
(-0.19865401 -0.081543005 2.550294e-21)
(-0.00099650796 -0.0097010878 -1.845058e-20)
(-0.0038911316 -0.029028361 -2.2715301e-20)
(-0.0095760821 -0.049366599 6.3833505e-20)
(-0.018945349 -0.069802337 -3.9355993e-20)
(-0.032877328 -0.088811698 1.8211023e-20)
(-0.052240207 -0.10414224 1.9008528e-24)
(-0.077571703 -0.11302026 2.8080998e-20)
(-0.10869638 -0.11293551 -1.1973466e-20)
(-0.14440562 -0.10286624 -1.1360958e-21)
(-0.18234997 -0.084032521 8.4976344e-21)
(-0.2191952 -0.059244825 -1.1620292e-20)
(-0.250798 -0.031291167 1.1201239e-20)
(-0.27201073 -0.0018432242 -2.7284761e-21)
(-0.27577175 0.028285831 -1.3468353e-20)
(-0.2515093 0.057742994 5.118881e-21)
(-0.19507514 0.079095444 5.998368e-21)
(-0.0042766901 -0.020684851 -6.0681509e-22)
(-0.013178999 -0.061597518 1.1724207e-19)
(-0.023752115 -0.10433806 -1.1003967e-19)
(-0.036124021 -0.14711279 1.0040307e-19)
(-0.050319931 -0.18732888 -9.0716221e-20)
(-0.066321776 -0.22158048 0)
(-0.084048979 -0.24589523 6.9495833e-20)
(-0.10334339 -0.25634803 -5.6358025e-20)
(-0.12387168 -0.25002308 -2.0512673e-21)
(-0.14484679 -0.22590013 0)
(-0.16461829 -0.18491205 -6.6273911e-21)
(-0.18009452 -0.12893874 3.8695953e-21)
(-0.18543016 -0.059718184 -2.5837748e-20)
(-0.16988398 0.020729701 4.6047274e-20)
(-0.11523111 0.10822457 -3.3302027e-20)
(-0.032135463 0.18554131 -8.1459362e-21)
(-0.0078056553 -0.023046971 4.395866e-22)
(-0.023522096 -0.069300006 -5.2651155e-22)
(-0.040433264 -0.11870926 0)
(-0.058140141 -0.16969299 3.1550687e-21)
(-0.076035993 -0.21977968 1.9948917e-21)
(-0.093296455 -0.26548266 1.0557781e-19)
(-0.10891006 -0.30234412 -9.2545714e-20)
(-0.12175711 -0.32529095 0)
(-0.13068134 -0.32939513 -6.9820851e-22)
(-0.13441793 -0.310848 -6.8242187e-21)
(-0.1312659 -0.26747542 4.7370145e-21)
(-0.1182501 -0.19808104 5.2804463e-21)
(-0.08763859 -0.10119235 6.2832072e-21)
(-0.014887672 0.025657301 4.6756142e-20)
(0.092761049 0.16524587 -5.5359661e-20)
(0.20757865 0.26052601 2.7621962e-20)
(-0.0095281184 -0.019528541 0)
(-0.02887144 -0.059581889 3.625112e-19)
(-0.049583247 -0.10367221 -6.8041563e-19)
(-0.071060116 -0.15087567 3.0851548e-19)
(-0.092336411 -0.19942866 -1.9937213e-21)
(-0.11196255 -0.2464871 -7.3702087e-21)
(-0.12796788 -0.28795647 2.0645001e-19)
(-0.1378812 -0.31855819 -1.7113407e-19)
(-0.13877133 -0.33224484 -1.2854245e-19)
(-0.12717879 -0.32284622 1.1597333e-19)
(-0.098653154 -0.28439495 0)
(-0.045916643 -0.21056102 -8.7501277e-20)
(0.046213987 -0.094585706 4.6615779e-20)
(0.18377999 0.053994281 0)
(0.32389631 0.19275055 0)
(0.46258298 0.2900754 0)
(-0.0095451056 -0.014426442 6.6119923e-19)
(-0.029184239 -0.044485744 -3.9599631e-19)
(-0.050545558 -0.078273319 0)
(-0.073036939 -0.11534359 -2.7213948e-21)
(-0.095555226 -0.15456596 -2.9573108e-19)
(-0.1162281 -0.19380951 2.6942402e-19)
(-0.13217866 -0.22958457 2.1423618e-19)
(-0.13930076 -0.25679881 5.0178287e-21)
(-0.13201214 -0.26878632 -1.6298804e-19)
(-0.10281932 -0.25760469 7.5665544e-21)
(-0.041465453 -0.21423464 0)
(0.0663667 -0.12871883 -1.6559318e-19)
(0.22945714 -0.0053448501 1.6743126e-20)
(0.40599782 0.12016885 1.040582e-19)
(0.57489143 0.22895672 0)
(0.72632154 0.30149425 1.3501404e-20)
(-0.0098414289 -0.010729591 2.565345e-22)
(-0.030044961 -0.033000497 8.3561261e-19)
(-0.051909944 -0.057922611 -3.9560829e-19)
(-0.074725874 -0.085032023 -3.5974102e-19)
(-0.097146331 -0.11332204 3.1967179e-19)
(-0.11682213 -0.14093601 -2.8674384e-19)
(-0.13005344 -0.16488246 2.427306e-19)
(-0.13118402 -0.18061543 1.9738374e-19)
(-0.11167701 -0.18161119 -1.8211917e-19)
(-0.058295216 -0.15910804 0)
(0.051511743 -0.10332914 0)
(0.22224553 -0.018651766 0)
(0.41860936 0.074641167 1.9199862e-20)
(0.61605332 0.16528788 0)
(0.7935052 0.24128481 8.4592165e-20)
(0.94683 0.28306894 -1.4806627e-19)
(0.18727849 0.19773876 0)