/*--------------------------------*- C++ -*----------------------------------*\
| =========                 |                                                 |
| \\      /  F ield         | foam-extend: Open Source CFD                    |
|  \\    /   O peration     | Version:     4.1                                |
|   \\  /    A nd           | Web:         http://www.foam-extend.org         |
|    \\/     M anipulation  |                                                 |
\*---------------------------------------------------------------------------*/
FoamFile
{
    version     2.0;
    format      ascii;
    class       volScalarField;
    location    "0.3";
    object      p;
}
// * * * * * * * * * * * * * * * * * * * * * * * * * * * * * * * * * * * * * //

dimensions      [0 2 -2 0 0 0 0];

internalField   nonuniform List<scalar> 
16126
(
0.00036896572
0.0012937782
0.0020775696
0.0029670707
0.0037802289
0.0046475589
0.0054758265
0.0063303715
0.00716509
0.0080117982
0.0088480879
0.0096891671
0.010524223
0.011360397
0.012192458
0.013023677
0.013851477
0.014677283
0.015499767
0.016319475
0.01713566
0.017948448
0.018757358
0.019562314
0.020362953
0.0211591
0.021950447
0.02273677
0.02351779
0.024293265
0.025062939
0.025826571
0.026583935
0.027334817
0.02807903
0.028816409
0.029546832
0.030270214
0.030986529
0.031695808
0.03239816
0.033093782
0.033782967
0.03446613
0.035143816
0.035816722
0.036485715
0.037151851
0.037816398
0.038480855
0.039146975
0.039816785
0.040492607
0.041177074
0.041873152
0.042584145
0.04331371
0.044065858
0.044844951
0.045655694
0.046503112
0.047392524
0.048329507
0.049319837
0.050369436
0.051484288
0.052670365
0.053933519
0.055279384
0.056713263
0.058240018
0.059863945
0.061588684
0.063417085
0.065351161
0.067391935
0.069539497
0.071792784
0.074149816
0.076607338
0.079161344
0.081806469
0.084536911
0.087345503
0.090224701
0.093164461
0.096157794
0.099195894
0.10226229
0.10534509
0.10843501
0.11152169
0.11459497
0.11764502
0.12066196
0.12363663
0.12655923
0.12942126
0.1322118
0.13492255
0.13753824
0.14004926
0.14242773
0.14465876
0.14668317
0.14847758
0.14992716
0.15104063
0.15170771
0.15219713
0.15243739
0.15294352
0.15373757
0.15612806
0.15958862
0.16655567
0.17454081
0.18869652
0.20131612
0.22645925
0.24043416
0.29109376
0.28753684
0.45663902
0.00036620845
0.0012955815
0.0020789703
0.0029683602
0.0037821989
0.0046491355
0.0054780202
0.0063323823
0.0071675546
0.0080142687
0.0088509147
0.0096921264
0.010527502
0.011363895
0.012196278
0.013027783
0.013855932
0.014682083
0.015504958
0.016325072
0.017141702
0.017954962
0.018764382
0.019569882
0.020371105
0.021167876
0.021959892
0.02274693
0.023528713
0.024305004
0.025075547
0.025840104
0.026598454
0.027350383
0.028095707
0.028834264
0.029565933
0.030290632
0.031008335
0.031719075
0.03242296
0.033120188
0.03381105
0.03449596
0.035175459
0.035850242
0.036521167
0.037189286
0.037855856
0.038522368
0.039190561
0.039862448
0.040540332
0.04122683
0.041924883
0.042637774
0.043369131
0.044122938
0.044903524
0.045715563
0.046564045
0.047454256
0.048391736
0.049382228
0.050431621
0.05154587
0.052730918
0.053992596
0.055336525
0.056767996
0.058291877
0.059912471
0.061633445
0.063457679
0.065387236
0.067423195
0.069565715
0.071813808
0.074165582
0.076617855
0.079166772
0.081806883
0.084533075
0.087336987
0.090215361
0.093156941
0.096143878
0.099169732
0.1022274
0.1053056
0.10839218
0.11147663
0.11454847
0.11759779
0.12061467
0.12358988
0.1265136
0.12937721
0.13216976
0.13488267
0.13750072
0.14001387
0.14239492
0.14462959
0.1466624
0.14847677
0.14997624
0.15121328
0.1520413
0.15258243
0.15291117
0.1536139
0.15467586
0.15737451
0.16124244
0.16856832
0.1770118
0.19129769
0.20428105
0.22838119
0.24307472
0.2836456
0.29193643
0.35195307
0.00035926372
0.0012954106
0.0020783507
0.0029682263
0.0037830153
0.0046496491
0.0054793403
0.0063335069
0.0071692409
0.0080159322
0.0088529831
0.0096942943
0.010529996
0.011366568
0.012199249
0.013030985
0.013859432
0.014685857
0.015509046
0.016329471
0.01714644
0.017960047
0.018769838
0.019575721
0.020377349
0.021174542
0.021966997
0.022754492
0.023536751
0.024313532
0.025084581
0.025849657
0.026608537
0.027361004
0.02810687
0.028845969
0.029578176
0.030303401
0.031021611
0.031732831
0.03243716
0.033134784
0.03382598
0.03451115
0.035190818
0.03586566
0.036536517
0.037204418
0.037870598
0.038536522
0.039203904
0.039874729
0.040551275
0.041236129
0.041932205
0.04264276
0.043371399
0.044122083
0.044899128
0.045707194
0.04655127
0.047436645
0.048368874
0.049353727
0.050397131
0.051505093
0.052683623
0.053938635
0.055275842
0.05670065
0.058218043
0.05983246
0.0615477
0.063366785
0.065291911
0.067324284
0.06946417
0.071710681
0.074061961
0.076514923
0.079065508
0.081708822
0.08443797
0.087250048
0.090128512
0.093062259
0.09605444
0.099092614
0.10216236
0.105252
0.10835056
0.11144727
0.11453169
0.11759374
0.12062344
0.12361145
0.126548
0.12942437
0.13222992
0.13495605
0.13758858
0.14011765
0.14251964
0.14478121
0.14685999
0.14874521
0.15034963
0.15165158
0.1525887
0.15341052
0.15411333
0.15520933
0.15675966
0.15988783
0.1641908
0.17161801
0.1800943
0.19358339
0.20598587
0.22739719
0.24162393
0.27504376
0.28832361
0.33208655
0.00035410441
0.0012966547
0.0020789108
0.0029698418
0.0037854969
0.0046522228
0.0054828229
0.0063370844
0.0071735729
0.0080205091
0.0088582099
0.0096999029
0.010536219
0.011373283
0.012206594
0.013038918
0.013868042
0.014695148
0.015519084
0.016340285
0.01715809
0.017972575
0.018783302
0.019590173
0.020392849
0.021191148
0.021984774
0.022773502
0.023557059
0.024335204
0.025107685
0.025874257
0.026634698
0.027388789
0.028136339
0.028877178
0.029611174
0.03033823
0.031058304
0.031771411
0.032477634
0.033177145
0.0338702
0.034557181
0.035238584
0.035915058
0.03658741
0.037256634
0.037923923
0.038590699
0.039258627
0.039929642
0.040605965
0.041290129
0.041984989
0.042693743
0.04341994
0.044167487
0.044940648
0.045744041
0.046582621
0.047461654
0.048386688
0.049363502
0.050398052
0.051496396
0.052664622
0.053908744
0.055234609
0.056647778
0.05815342
0.059756178
0.061460078
0.063268376
0.06518351
0.067206924
0.069339108
0.071579367
0.073926033
0.07637605
0.078925693
0.081569057
0.08430217
0.087111376
0.089993273
0.092943492
0.095945697
0.098991422
0.1020698
0.10516984
0.10828003
0.11138947
0.11448741
0.11756359
0.12060795
0.12361103
0.12656315
0.12945562
0.1322782
0.13502256
0.13767572
0.14022918
0.14266245
0.14496873
0.14710732
0.14906596
0.15080723
0.15237761
0.15372031
0.15499563
0.15625594
0.15797424
0.16017422
0.16379984
0.16847152
0.17581374
0.18404557
0.19640163
0.20782975
0.22599178
0.23855063
0.26240328
0.27361472
0.29171559
0.00034962704
0.001297506
0.0020787282
0.0029709405
0.0037872528
0.0046542952
0.005485714
0.0063401949
0.0071774012
0.0080246412
0.0088629733
0.0097050685
0.010541982
0.011379533
0.012213447
0.013046335
0.013876098
0.01470384
0.015528468
0.016350379
0.017168942
0.017984214
0.018795773
0.019603511
0.020407097
0.021206344
0.022000959
0.022790713
0.023575334
0.024354577
0.025128187
0.025895915
0.026657533
0.027412814
0.02816156
0.028903588
0.029638757
0.030366953
0.031088118
0.031802246
0.032509398
0.03320972
0.033903439
0.034590904
0.035272574
0.035949059
0.036621121
0.037289706
0.037955957
0.038621241
0.039287166
0.039955609
0.040628732
0.041309006
0.041999232
0.042702553
0.043422469
0.044162848
0.044927924
0.045722298
0.046550926
0.047419095
0.048332392
0.049296664
0.050317961
0.051402466
0.05255642
0.053786025
0.055097342
0.056496175
0.057987962
0.059577628
0.061269496
0.063067117
0.064973216
0.066989503
0.0691167
0.071354312
0.073700771
0.076153192
0.078707471
0.081358699
0.084098785
0.086922124
0.089820193
0.092782456
0.095802247
0.09886796
0.10196777
0.10508992
0.10822299
0.11135572
0.11447729
0.11757723
0.12064545
0.12367244
0.1266487
0.12956567
0.13241379
0.13518517
0.13786857
0.14045619
0.14293276
0.14528823
0.14750153
0.14957915
0.15148302
0.15324962
0.15486789
0.15652282
0.15824883
0.16044325
0.16312917
0.16707396
0.17193574
0.17903046
0.18687824
0.1980741
0.20861605
0.22433085
0.23612419
0.25550658
0.26689199
0.27921543
0.000347342
0.0012990003
0.0020797171
0.0029732094
0.0037902047
0.0046577768
0.0054900592
0.006344971
0.0071830004
0.0080307441
0.0088698591
0.0097125601
0.010550258
0.011388516
0.012223254
0.01305695
0.013887605
0.014716257
0.015541867
0.016364798
0.017184447
0.018000857
0.018813618
0.019622619
0.020427533
0.021228172
0.022024245
0.022815523
0.023601732
0.024382625
0.025157946
0.025927438
0.026690872
0.02744801
0.028198646
0.028942586
0.029679673
0.030409777
0.031132822
0.031848776
0.032557675
0.033259634
0.033954843
0.034643613
0.035326359
0.036003641
0.036676165
0.03734482
0.038010686
0.038675059
0.039339477
0.040005743
0.040675942
0.041352469
0.04203805
0.042735755
0.043449019
0.044181654
0.044937849
0.045722176
0.04653958
0.047395359
0.04829514
0.049244837
0.050250603
0.051318755
0.052455711
0.053667882
0.05496158
0.05634289
0.057817563
0.059390861
0.061067458
0.062851261
0.064745345
0.066751748
0.068871494
0.071104326
0.073448896
0.075902354
0.078460893
0.081118755
0.083870027
0.086705852
0.089619389
0.092601724
0.095641049
0.09872703
0.10184811
0.10499273
0.10814921
0.11130607
0.11445228
0.11757713
0.1206705
0.1237228
0.12672477
0.12966806
0.1325438
0.13534488
0.13806166
0.14068859
0.14321269
0.14563312
0.14793393
0.15012346
0.15219081
0.15418857
0.1561157
0.15812119
0.16024942
0.16283927
0.16589187
0.17002798
0.17493445
0.18166336
0.18898326
0.19890306
0.20824461
0.2211804
0.23106834
0.24502906
0.2536469
0.25982558
0.00034586808
0.0013000556
0.0020804497
0.0029750252
0.0037926535
0.0046607867
0.0054938794
0.0063492683
0.0071880857
0.0080363572
0.0088762286
0.0097195369
0.010557991
0.011396939
0.012232466
0.013066934
0.013898434
0.014727944
0.015554472
0.016378352
0.017199003
0.018016455
0.018830311
0.019640451
0.020446555
0.02124843
0.022045785
0.022838388
0.023625963
0.024408257
0.025185008
0.025955952
0.026720851
0.027479455
0.028231545
0.028976909
0.029715372
0.030446783
0.031171038
0.031888076
0.032597899
0.033300584
0.03399628
0.034685248
0.035367852
0.036044594
0.036716119
0.037383247
0.038046988
0.038708564
0.039369436
0.040031326
0.040696242
0.041366502
0.042044757
0.042734012
0.043437646
0.044159425
0.04490351
0.045674467
0.046477256
0.047317221
0.048200066
0.049131817
0.050118778
0.051167458
0.052284506
0.053476608
0.054750387
0.056112274
0.057568396
0.059124407
0.060785387
0.062555639
0.064438628
0.06643674
0.068551309
0.070782326
0.073128612
0.075587452
0.07815494
0.0808256
0.08359251
0.086448377
0.089384368
0.092390353
0.095456671
0.098571547
0.10172321
0.10489935
0.10808811
0.11127756
0.1144565
0.11761395
0.12073977
0.12382433
0.12685861
0.12983453
0.13274397
0.13558053
0.1383363
0.14100696
0.14358412
0.14606805
0.14845129
0.15074878
0.15295464
0.15511996
0.1572595
0.15951575
0.1619262
0.1647735
0.16805509
0.17227066
0.17715006
0.18352964
0.19041453
0.19935744
0.20791195
0.21908811
0.22811992
0.23948297
0.24727432
0.25142152
0.00034573358
0.001301333
0.0020821405
0.0029776117
0.0037960682
0.004664837
0.0054988394
0.006354839
0.0071945499
0.0080434974
0.0088842534
0.0097283279
0.010567691
0.011407502
0.012243993
0.013079426
0.01391197
0.014742555
0.015570227
0.016395297
0.017217206
0.018035974
0.018851211
0.019662796
0.020470412
0.021273862
0.022072858
0.022867164
0.023656502
0.024440613
0.02521923
0.025992082
0.026758919
0.027519479
0.02827353
0.02902084
0.029761215
0.030494477
0.031220493
0.03193917
0.032650471
0.033354429
0.034051145
0.034740825
0.035423773
0.036100423
0.036771349
0.037437294
0.038099183
0.038758151
0.039415568
0.040073063
0.040732548
0.041396249
0.042066728
0.04274691
0.0434401
0.044150006
0.044880752
0.045636885
0.046423377
0.047245613
0.048109378
0.049020817
0.0499864
0.051012846
0.052107064
0.053276048
0.054526775
0.05586607
0.05730049
0.058836142
0.060478574
0.062232555
0.064102002
0.066089715
0.068197404
0.070425348
0.072772619
0.075236582
0.077813493
0.080497596
0.08328236
0.08615933
0.089119933
0.092153834
0.095249749
0.098395901
0.10158016
0.10478996
0.1080131
0.11123726
0.11445098
0.11764299
0.12080309
0.12392155
0.12698962
0.12999949
0.13294378
0.13581689
0.13861255
0.14132828
0.14395859
0.14650743
0.14897205
0.15136988
0.15370592
0.15603204
0.15836657
0.16082942
0.16345601
0.16648051
0.16989124
0.1740861
0.17882729
0.18476378
0.19108281
0.19893669
0.20643089
0.21563176
0.22315404
0.2316455
0.23766358
0.24022995
0.00034611752
0.001302249
0.0020837927
0.0029798775
0.0037992279
0.0046685783
0.0055034944
0.0063601106
0.0072007095
0.0080503458
0.0088919799
0.0097368264
0.010577088
0.011417759
0.012255199
0.013091583
0.013925149
0.014756781
0.015585563
0.016411785
0.017234905
0.018054932
0.018871488
0.019684443
0.020493485
0.021298413
0.022098938
0.02289482
0.023685775
0.02447154
0.025251837
0.026026385
0.026794923
0.027557174
0.028312884
0.029061803
0.02980371
0.030538397
0.031265699
0.031985483
0.032697669
0.033402239
0.03409924
0.034788817
0.035471204
0.036146764
0.036815991
0.037479542
0.03813825
0.038793157
0.039445534
0.04009691
0.040749099
0.04140423
0.042064776
0.042733577
0.04341387
0.044109312
0.044823997
0.045562466
0.046329722
0.047131215
0.047972836
0.048860885
0.049802034
0.050803258
0.051871778
0.053014947
0.054240154
0.055554679
0.056965571
0.058479448
0.060102389
0.061839679
0.063695739
0.065673817
0.067776033
0.070002971
0.072353946
0.074826438
0.07741671
0.080118972
0.082926272
0.085830228
0.088821431
0.091888891
0.095021478
0.098206448
0.10143132
0.10468272
0.1079481
0.11121453
0.11447032
0.11770379
0.12090468
0.12406317
0.12717074
0.13021981
0.1332037
0.13611749
0.13895633
0.14171892
0.14440245
0.14701228
0.14955005
0.15203508
0.15447576
0.1569212
0.15939419
0.16200177
0.16477497
0.16790733
0.17138669
0.17553009
0.18013836
0.1857149
0.19161388
0.19868969
0.20550832
0.21347794
0.2202162
0.22719494
0.23240781
0.23417278
0.00034732373
0.0013032732
0.0020861979
0.0029827077
0.0038031962
0.0046731471
0.0055091053
0.0063664281
0.0072080238
0.0080584649
0.0089010939
0.0097468436
0.010588137
0.011429813
0.012268352
0.013105849
0.013940607
0.014773468
0.015603553
0.016431129
0.017255675
0.01807719
0.018895304
0.019709884
0.02052062
0.02132731
0.022129661
0.022927431
0.023720331
0.02450809
0.025290424
0.026067041
0.026837663
0.027601999
0.028359776
0.029110719
0.029854579
0.030591117
0.03132013
0.032041442
0.032754924
0.033460504
0.034158166
0.034847985
0.035530122
0.036204855
0.036872587
0.037533877
0.038189457
0.038840259
0.039487442
0.040132418
0.040776888
0.041422866
0.042072717
0.042729185
0.043395422
0.044075017
0.044772023
0.04549097
0.046236882
0.047015272
0.047832147
0.048693968
0.049607631
0.050580393
0.051619819
0.052733667
0.053929793
0.055215988
0.056599866
0.058088631
0.059688973
0.06140677
0.063247034
0.065213532
0.067308869
0.069533985
0.071888498
0.074369992
0.076974838
0.079696991
0.082529428
0.085463101
0.088488325
0.091593434
0.094766466
0.097994049
0.10126316
0.10455976
0.10787083
0.11118282
0.11448371
0.11776135
0.12100539
0.12420582
0.12735436
0.13044359
0.13346753
0.13642188
0.13930313
0.14211122
0.14484547
0.14751269
0.15011751
0.15267978
0.15521178
0.15775897
0.16034394
0.1630568
0.16592417
0.16910329
0.17257861
0.17659764
0.18098948
0.1861325
0.19150751
0.19772263
0.20368987
0.21032793
0.21598776
0.22142681
0.22560095
0.22690746
0.00034888058
0.0013040364
0.0020886515
0.0029853327
0.0038070681
0.0046775434
0.0055145807
0.0063726001
0.0072152089
0.008066464
0.0089100981
0.0097567628
0.010599095
0.011441784
0.012281427
0.01312004
0.013955987
0.014790076
0.015621455
0.016450375
0.017276332
0.018099314
0.018918962
0.019735135
0.020547528
0.021355932
0.022160056
0.022959648
0.023754418
0.024544084
0.025328351
0.026106916
0.026879486
0.027645749
0.028405411
0.02915817
0.029903747
0.030641867
0.031372284
0.032094777
0.032809161
0.033515306
0.034213126
0.034902624
0.035583875
0.036257069
0.036922509
0.037580652
0.038232115
0.038877715
0.039518488
0.040155725
0.040791
0.041426208
0.042063602
0.042705818
0.043355923
0.04401744
0.044694378
0.04539126
0.046113143
0.046865619
0.047654823
0.048487407
0.04937052
0.050311738
0.051319017
0.052400569
0.053564775
0.054820001
0.056174491
0.057636103
0.059212212
0.060909357
0.062733206
0.064688105
0.066777194
0.069001803
0.071361881
0.073855126
0.076477972
0.079224163
0.082086394
0.085055203
0.088120318
0.091269282
0.094489691
0.097767143
0.10108805
0.10443738
0.10780161
0.11116634
0.11451922
0.11784751
0.12114078
0.12438873
0.1275833
0.13071718
0.13378498
0.13678286
0.13970841
0.1425623
0.14534569
0.14806574
0.15072936
0.15335655
0.15596079
0.15858378
0.16124827
0.16403209
0.16695841
0.1701555
0.17360897
0.17751257
0.18172545
0.18653164
0.19152289
0.19712751
0.20253161
0.20831097
0.21332911
0.21786196
0.22143033
0.22237017
0.00035098788
0.0013048737
0.002091691
0.0029883942
0.0038116109
0.0046826121
0.0055208614
0.0063796424
0.0072233699
0.0080755323
0.0089202777
0.009767967
0.010611454
0.01145528
0.012296156
0.013136025
0.013973309
0.01480878
0.015641617
0.016472056
0.017299607
0.018124253
0.018945639
0.019763623
0.020577901
0.021388261
0.022194411
0.022996092
0.023793009
0.024584873
0.025371377
0.026152204
0.026927046
0.02769557
0.028457459
0.029212383
0.029960028
0.030700081
0.031432251
0.032156265
0.032871882
0.033578902
0.034277167
0.034966596
0.035647173
0.036318987
0.036982233
0.037637248
0.038284527
0.038924751
0.039558821
0.040187885
0.040813378
0.041437055
0.042061034
0.042687831
0.043320406
0.043962196
0.044617156
0.04528979
0.045985178
0.046708988
0.047467492
0.048267539
0.049116555
0.050022464
0.050993654
0.052038843
0.053167001
0.054387145
0.055708235
0.057138876
0.058687227
0.060360591
0.062165396
0.064106656
0.06618814
0.068411629
0.070777465
0.073283471
0.075926173
0.078698995
0.081594418
0.084602266
0.087711781
0.090909517
0.094182335
0.097514746
0.10089248
0.10429942
0.10772146
0.11114324
0.11455201
0.11793432
0.12127961
0.1245772
0.12781924
0.13099841
0.1341099
0.13715025
0.14011804
0.14301458
0.14584263
0.14860962
0.15132352
0.15400391
0.15666503
0.15934404
0.16206185
0.16488334
0.16782755
0.17099679
0.17437582
0.17811233
0.18208756
0.18650707
0.19104711
0.19599609
0.2007471
0.20563989
0.20991244
0.21358454
0.21653617
0.21731626
0.00035335817
0.0013055293
0.0020948149
0.0029913365
0.003816151
0.0046876067
0.0055271203
0.0063866503
0.0072315256
0.0080846051
0.0089304831
0.009779214
0.010623875
0.011468856
0.012310982
0.013152123
0.013990758
0.014827626
0.015661934
0.016493904
0.017323058
0.018149374
0.018972504
0.019792301
0.020608463
0.021420774
0.022228939
0.023032696
0.02383174
0.024625772
0.025414478
0.026197522
0.02697458
0.027745298
0.028509331
0.029266321
0.030015916
0.030757763
0.031491523
0.032216867
0.032933491
0.033641126
0.034339534
0.035028544
0.035708044
0.036378014
0.037038533
0.037689812
0.03833221
0.038966268
0.039592737
0.040212616
0.040827184
0.041438046
0.042047176
0.042656957
0.043270231
0.043890344
0.04452119
0.045167247
0.045833622
0.046526061
0.047250982
0.048015453
0.048827197
0.049694519
0.05062628
0.051631754
0.052720559
0.053902428
0.055187118
0.056584057
0.058102279
0.059749932
0.061534301
0.063461139
0.065534929
0.067757952
0.070131
0.072652035
0.075317681
0.078121014
0.081054284
0.084106556
0.087266505
0.090519556
0.093851888
0.097246642
0.10068883
0.10416093
0.10764826
0.11113424
0.11460572
0.11804838
0.12145153
0.124804
0.12809813
0.1313265
0.1344848
0.13756983
0.14058094
0.14351983
0.14639026
0.14919986
0.15195713
0.15468116
0.15738614
0.16010531
0.16285835
0.1657001
0.16864693
0.17178096
0.17508861
0.17868261
0.18246585
0.18658568
0.19078906
0.19526322
0.19955846
0.20384877
0.20762611
0.21073432
0.21326007
0.21384828
0.00035612921
0.0013062443
0.0020984002
0.0029946279
0.0038212461
0.004693155
0.0055340574
0.0063943871
0.0072405085
0.0080945818
0.0089416879
0.0097915533
0.01063749
0.011483733
0.012327222
0.013169755
0.014009869
0.014848267
0.01568419
0.01651784
0.017348759
0.018176914
0.019001967
0.019823766
0.020642013
0.021456486
0.022266888
0.023072952
0.023874368
0.024670826
0.025461999
0.026247538
0.027027099
0.027800306
0.028566787
0.02932615
0.030078009
0.030821962
0.031557621
0.032284597
0.033002519
0.033711041
0.034409838
0.035098644
0.035777239
0.036445485
0.037103333
0.037750853
0.038388256
0.039015923
0.039634441
0.040244636
0.040847614
0.041444808
0.042038023
0.042629486
0.043221901
0.043818498
0.04442309
0.045040114
0.045674691
0.046332638
0.04702052
0.047745628
0.048516007
0.049340371
0.050228103
0.05118909
0.052233678
0.053372403
0.054615925
0.055974611
0.057458501
0.059076714
0.060837529
0.062747555
0.064812112
0.067034058
0.06941472
0.071952218
0.074643269
0.07748053
0.080456012
0.08355777
0.086773899
0.090088422
0.093486712
0.096950302
0.1004634
0.10400687
0.10756537
0.11112089
0.11465986
0.11816689
0.12163116
0.12504087
0.12838855
0.13166657
0.13487111
0.1379991
0.14105064
0.14402776
0.1469349
0.14978026
0.15257163
0.15532718
0.15806096
0.16080185
0.16356739
0.16640274
0.16932107
0.17238671
0.17558637
0.17900344
0.18255706
0.18634817
0.1901782
0.19416037
0.19796465
0.20165979
0.20492313
0.20752394
0.20966819
0.21018642
0.00035911486
0.0013068338
0.0021020858
0.0029978609
0.0038263936
0.0046986975
0.0055410459
0.0064021658
0.007249569
0.0081046481
0.0089530107
0.0098040314
0.01065127
0.0114988
0.012343679
0.013187629
0.014029248
0.014869205
0.015706768
0.016542128
0.017374838
0.01820486
0.019031864
0.019855693
0.02067605
0.021492712
0.022305378
0.023113775
0.023917586
0.024716491
0.02551015
0.0262982
0.027080276
0.027855979
0.028624909
0.02938664
0.030140745
0.030886779
0.031624297
0.03235285
0.033071995
0.033781307
0.034480369
0.035168814
0.035846309
0.036512592
0.037167475
0.037810883
0.038442865
0.039063634
0.039673597
0.040273397
0.04086395
0.0414465
0.042022671
0.042594514
0.043164579
0.043735965
0.044312388
0.044898232
0.045498622
0.04611944
0.046767402
0.047450029
0.048175702
0.048953574
0.049793584
0.050706283
0.051702806
0.052794565
0.05399321
0.055310142
0.056756517
0.058342528
0.060077568
0.061969203
0.064023706
0.066244578
0.068633781
0.071189592
0.073908917
0.076783903
0.079806336
0.082963166
0.08624188
0.08962487
0.093096704
0.09663697
0.10022905
0.10385185
0.10748934
0.1111218
0.11473526
0.11831303
0.12184421
0.12531619
0.12872175
0.1320529
0.13530633
0.13847897
0.14157154
0.14458622
0.14752786
0.15040503
0.15322545
0.1560056
0.15875965
0.16151292
0.16428142
0.16710283
0.16998831
0.17298858
0.17609199
0.17935997
0.18272655
0.18625867
0.18980159
0.19341545
0.19685818
0.20012537
0.20301677
0.20525259
0.20710155
0.20750869
0.00036241216
0.0013074722
0.0021061416
0.0030013784
0.0038320009
0.0047046995
0.0055486053
0.0064105573
0.0072593309
0.0081154804
0.0089651843
0.0098174398
0.01066607
0.011514978
0.012361346
0.013206819
0.014050054
0.014891687
0.015731016
0.016568217
0.017402859
0.018234899
0.019064012
0.019890039
0.020712687
0.021531726
0.022346856
0.023157796
0.023964223
0.024765808
0.025562199
0.026353014
0.027137871
0.027916346
0.028688008
0.029452398
0.030209046
0.030957458
0.031697134
0.032427557
0.03314821
0.033858581
0.034558156
0.035246459
0.035923034
0.036587482
0.037239469
0.037878755
0.038505215
0.039118873
0.039719938
0.040308845
0.040886298
0.041453328
0.042011344
0.042562199
0.043108255
0.043652451
0.04419838
0.044750348
0.045313459
0.04589365
0.046497775
0.047133591
0.047809831
0.048536114
0.049322987
0.050181729
0.051124353
0.052163255
0.053311209
0.05458079
0.05598444
0.057533589
0.059238933
0.061109141
0.063151619
0.06537061
0.067768836
0.070344738
0.073095465
0.076012507
0.079087416
0.082305736
0.085654309
0.089113509
0.092667039
0.096292134
0.099971321
0.10368114
0.10740491
0.11112082
0.11481456
0.11846784
0.12206977
0.12560671
0.12907175
0.13245642
0.13575796
0.13897319
0.1421035
0.1451511
0.1481214
0.15102262
0.15386337
0.15665678
0.15941765
0.16216756
0.16492067
0.16770774
0.17053773
0.17344965
0.17643264
0.17953029
0.18268815
0.18594737
0.18918748
0.19243247
0.19550777
0.19836754
0.20090049
0.20282037
0.20442241
0.20479153
0.00036589419
0.0013080229
0.0021103039
0.0030048783
0.0038376914
0.0047107399
0.0055562599
0.0064190392
0.0072692215
0.0081264557
0.0089775331
0.009831047
0.010681101
0.011531415
0.012379304
0.013226331
0.014071217
0.014914562
0.015755695
0.016594776
0.017431391
0.018265491
0.019096758
0.01992503
0.020750016
0.021571484
0.022389131
0.023202671
0.024011774
0.024816101
0.025615286
0.026408934
0.027196641
0.027977958
0.028752426
0.029519548
0.030278813
0.031029677
0.031771581
0.032503943
0.033226166
0.033937649
0.034637778
0.035325963
0.03600162
0.03666421
0.037313239
0.037948297
0.038569073
0.039175391
0.039767248
0.040344853
0.040908683
0.041459531
0.041998576
0.042527445
0.043048291
0.043563869
0.044077624
0.044593759
0.045117342
0.045654345
0.046211753
0.046797553
0.047420842
0.048091719
0.048821375
0.049621859
0.050506134
0.051487651
0.052580414
0.053798278
0.055155108
0.056663695
0.058336197
0.060182512
0.062211338
0.064427749
0.066835378
0.069432837
0.07221764
0.075180506
0.078312861
0.081598621
0.085024045
0.088567118
0.092210719
0.095929244
0.099704419
0.10350991
0.10732845
0.1111357
0.11491713
0.11865249
0.12233105
0.12593788
0.12946653
0.13290788
0.13625981
0.13951891
0.14268726
0.14576696
0.14876402
0.15168592
0.15454272
0.15734519
0.16010716
0.16284835
0.16558146
0.16833197
0.17110753
0.17393829
0.17681485
0.17976761
0.18275216
0.185791
0.18879035
0.19174877
0.19454007
0.19709078
0.19934671
0.20102133
0.20241721
0.20271733
0.00036962952
0.0013086132
0.0021147678
0.0030086119
0.0038437633
0.0047171627
0.0055643939
0.006428036
0.0072797051
0.0081380791
0.0089906044
0.0098454451
0.010697001
0.011548801
0.012398298
0.013246971
0.014093606
0.014938766
0.015781813
0.016622892
0.017461607
0.0182979
0.019131464
0.019962134
0.020789621
0.021613691
0.022434039
0.023250374
0.02406236
0.024869648
0.02567186
0.026468585
0.027259397
0.028043824
0.028821376
0.02959152
0.0303537
0.03110732
0.031851761
0.032586369
0.033310466
0.034023356
0.034724319
0.035412642
0.036087604
0.036748512
0.037394706
0.038025586
0.038640639
0.039239467
0.039821833
0.040387697
0.040937277
0.0414711
0.041990079
0.042495578
0.042989506
0.04347439
0.043953492
0.044430874
0.044911534
0.045401448
0.045907715
0.046438544
0.047003401
0.047612889
0.048278894
0.049014303
0.049833132
0.050750012
0.051780346
0.052939443
0.054242814
0.055704826
0.057339352
0.059157725
0.061170186
0.063382775
0.065800235
0.068421344
0.071244099
0.074258224
0.077455023
0.080816354
0.084327874
0.087964599
0.091708597
0.095530777
0.099412132
0.10332281
0.10724512
0.11115163
0.11502776
0.11885088
0.1226106
0.12629044
0.12988458
0.13338305
0.13678454
0.14008532
0.14328824
0.14639529
0.14941305
0.15234868
0.15521214
0.15801447
0.16076596
0.16348575
0.16618467
0.16888361
0.17158886
0.17432323
0.17707836
0.17987434
0.18267481
0.18548898
0.18824435
0.19092378
0.19343856
0.19570318
0.19770439
0.19917182
0.20040102
0.20067689
0.00037352774
0.0013091411
0.0021193381
0.0030123531
0.0038499329
0.0047236497
0.0055726454
0.0064371496
0.0072903437
0.0081498735
0.0090038799
0.0098600725
0.010713163
0.011566481
0.012417621
0.013267976
0.014116398
0.014963414
0.015808418
0.016651543
0.017492406
0.018330946
0.019166864
0.019999992
0.020830045
0.021656787
0.022479911
0.023299123
0.024114079
0.024924421
0.025729762
0.026529672
0.027323707
0.028111371
0.028892142
0.029665452
0.030430701
0.031187242
0.031934393
0.03267143
0.033397591
0.034112085
0.034814083
0.035502744
0.036177209
0.036836626
0.037480156
0.038107006
0.038716446
0.039307847
0.039880719
0.040434758
0.040969899
0.041486382
0.041984826
0.042466304
0.042932447
0.043385525
0.043828578
0.044265496
0.044701175
0.045141565
0.045593857
0.046066463
0.046569216
0.047113231
0.047711113
0.048376627
0.049124913
0.049971861
0.050934388
0.052029381
0.053274165
0.054684827
0.056277167
0.058064098
0.060057635
0.062264884
0.064691925
0.067337704
0.070200896
0.073270051
0.07653659
0.079979948
0.083585378
0.087324322
0.091178219
0.095113728
0.099111315
0.10313683
0.10717237
0.11118674
0.11516558
0.11908336
0.12293033
0.12668806
0.13035167
0.1339101
0.13736308
0.14070641
0.1439439
0.14707733
0.15011397
0.15306069
0.15592734
0.15872561
0.16146387
0.16415883
0.16682155
0.16946919
0.17210737
0.17475341
0.17740024
0.18006049
0.18270452
0.18533217
0.18788714
0.19034175
0.19263364
0.19467068
0.19646487
0.19776166
0.19884458
0.19907534
0.00037763671
0.0013096998
0.0021241557
0.0030162857
0.0038564178
0.0047304534
0.0055812966
0.0064466935
0.00730148
0.0081622126
0.0090177649
0.0098753681
0.010730062
0.011584967
0.012437826
0.013289942
0.014140238
0.014989201
0.015836263
0.016681537
0.017524662
0.018365571
0.019203972
0.020039699
0.020872469
0.021702043
0.022528117
0.02335039
0.024168514
0.024982123
0.025790817
0.026594153
0.027391666
0.028182836
0.028967112
0.029743886
0.030512516
0.031272301
0.032022495
0.032762301
0.033490869
0.034207308
0.034910673
0.035599992
0.036274254
0.036932438
0.037573515
0.03819648
0.03880037
0.039384302
0.039947509
0.04048939
0.041009568
0.041507954
0.041984836
0.042440948
0.042877594
0.043296736
0.043701139
0.044094465
0.044481457
0.044867993
0.04526132
0.04567002
0.046104292
0.046575767
0.04709782
0.047685158
0.048354166
0.049122132
0.050007699
0.051029547
0.052207115
0.053558486
0.055101746
0.056851665
0.058822402
0.061022314
0.063459138
0.066131962
0.069040372
0.072171384
0.075516607
0.079052359
0.082763573
0.086617185
0.090594178
0.094655908
0.098782602
0.10293477
0.10709473
0.11122657
0.11531665
0.11933584
0.12327547
0.12711473
0.13085002
0.13446897
0.13797266
0.14135628
0.14462485
0.1477799
0.15082957
0.15378043
0.15664272
0.15942704
0.16214359
0.16480339
0.16741936
0.17000492
0.17256523
0.17511328
0.17764311
0.18016184
0.18264546
0.18508775
0.18744551
0.18968587
0.19176698
0.19359729
0.19520629
0.19636062
0.19732663
0.19754027
0.00038188954
0.001310213
0.0021290746
0.0030202398
0.0038630032
0.0047373324
0.0055900716
0.0064563631