/*--------------------------------*- C++ -*----------------------------------*\
| =========                 |                                                 |
| \\      /  F ield         | foam-extend: Open Source CFD                    |
|  \\    /   O peration     | Version:     4.1                                |
|   \\  /    A nd           | Web:         http://www.foam-extend.org         |
|    \\/     M anipulation  |                                                 |
\*---------------------------------------------------------------------------*/
FoamFile
{
    version     2.0;
    format      ascii;
    class       volScalarField;
    location    "0.3";
    object      rAU;
}
// * * * * * * * * * * * * * * * * * * * * * * * * * * * * * * * * * * * * * //

dimensions      [0 0 1 0 0 0 0];

internalField   nonuniform List<scalar> 
16126
(
0.00049375272
0.00049333648
0.00049333637
0.00049333629
0.00049333618
0.0004933361
0.00049333598
0.00049333589
0.00049333577
0.00049333566
0.00049333552
0.0004933354
0.00049333524
0.0004933351
0.00049333492
0.00049333475
0.00049333454
0.00049333435
0.0004933341
0.00049333387
0.00049333359
0.00049333331
0.00049333298
0.00049333266
0.00049333227
0.00049333189
0.00049333144
0.00049333098
0.00049333045
0.00049332992
0.0004933293
0.00049332865
0.00049332796
0.00049332717
0.00049332636
0.00049332544
0.00049332448
0.00049332341
0.00049332228
0.00049332102
0.00049331969
0.00049331823
0.00049331666
0.00049331497
0.00049331313
0.00049331116
0.00049330902
0.00049330673
0.00049330426
0.0004933016
0.00049329875
0.00049329569
0.00049329242
0.00049328893
0.00049328521
0.00049328125
0.00049327704
0.00049327259
0.00049326789
0.00049326295
0.00049325777
0.00049325235
0.00049324671
0.00049324086
0.00049323482
0.00049322862
0.00049322229
0.00049321586
0.00049320937
0.00049320287
0.0004931964
0.00049319002
0.00049318377
0.00049317772
0.00049317191
0.00049316641
0.00049316125
0.0004931565
0.00049315219
0.00049314835
0.00049314502
0.00049314222
0.00049313996
0.00049313825
0.00049313707
0.00049313641
0.0004931362
0.0004931362
0.00049313645
0.00049313723
0.00049313854
0.00049314038
0.00049314271
0.00049314549
0.00049314868
0.00049315223
0.00049315607
0.00049316018
0.00049316449
0.00049316898
0.00049317363
0.00049317842
0.00049318339
0.00049318863
0.00049319427
0.00049320052
0.00049320752
0.00049321519
0.00049322258
0.00049322256
0.00049320151
0.00049315377
0.00049306579
0.00049292135
0.00049270463
0.00049239982
0.00049199612
0.00049148254
0.00049085755
0.00049011285
0.00048926914
0.00048830987
0.00048738453
0.00048591085
0.00049040075
0.00048999011
0.00048998982
0.00048998959
0.00048998929
0.00048998902
0.00048998867
0.00048998836
0.00048998797
0.00048998761
0.00048998715
0.00048998673
0.0004899862
0.00048998571
0.0004899851
0.00048998452
0.00048998382
0.00048998313
0.00048998232
0.00048998152
0.00048998058
0.00048997964
0.00048997856
0.00048997746
0.00048997621
0.00048997492
0.00048997347
0.00048997198
0.0004899703
0.00048996856
0.00048996662
0.00048996457
0.0004899624
0.00048996
0.00048995749
0.00048995473
0.00048995183
0.00048994866
0.00048994532
0.00048994169
0.00048993787
0.00048993372
0.00048992933
0.00048992464
0.00048991964
0.00048991432
0.00048990866
0.00048990266
0.00048989629
0.00048988956
0.00048988244
0.00048987494
0.00048986703
0.00048985874
0.00048985005
0.00048984096
0.00048983149
0.00048982165
0.00048981145
0.00048980093
0.0004897901
0.00048977901
0.00048976769
0.0004897562
0.0004897446
0.00048973294
0.00048972131
0.00048970977
0.00048969841
0.00048968733
0.0004896766
0.00048966631
0.00048965658
0.00048964748
0.0004896391
0.00048963151
0.00048962478
0.00048961898
0.00048961416
0.00048961033
0.00048960752
0.00048960573
0.00048960495
0.00048960516
0.00048960629
0.00048960745
0.00048960901
0.00048961135
0.00048961439
0.00048961826
0.00048962291
0.00048962822
0.00048963412
0.00048964051
0.00048964728
0.00048965432
0.00048966151
0.00048966875
0.00048967591
0.00048968289
0.00048968955
0.00048969579
0.00048970148
0.00048970648
0.00048971059
0.00048971357
0.00048971503
0.0004897146
0.00048970214
0.000489672
0.00048961171
0.00048951452
0.00048936868
0.00048916412
0.00048889696
0.00048856701
0.00048818514
0.00048776179
0.00048732477
0.00048688882
0.00048651651
0.00048620566
0.00048615671
0.00048575267
0.00048838
0.00048797267
0.00048797227
0.00048797194
0.00048797149
0.00048797108
0.00048797056
0.00048797008
0.00048796949
0.00048796892
0.00048796824
0.00048796757
0.00048796678
0.000487966
0.00048796508
0.00048796417
0.00048796311
0.00048796205
0.00048796082
0.00048795958
0.00048795816
0.00048795671
0.00048795507
0.00048795339
0.00048795149
0.00048794954
0.00048794736
0.0004879451
0.00048794258
0.00048793996
0.00048793707
0.00048793401
0.00048793078
0.00048792723
0.00048792352
0.00048791946
0.0004879152
0.00048791058
0.00048790573
0.00048790048
0.00048789497
0.00048788904
0.00048788279
0.00048787614
0.0004878691
0.00048786165
0.00048785377
0.00048784548
0.00048783675
0.00048782758
0.00048781796
0.00048780791
0.00048779741
0.00048778649
0.00048777515
0.00048776341
0.00048775131
0.00048773886
0.0004877261
0.0004877131
0.00048769988
0.00048768652
0.00048767308
0.00048765963
0.00048764626
0.00048763306
0.00048762011
0.00048760752
0.00048759539
0.00048758382
0.00048757292
0.00048756278
0.00048755352
0.0004875452
0.00048753792
0.00048753175
0.00048752675
0.00048752295
0.0004875204
0.00048751909
0.00048751902
0.00048752018
0.00048752253
0.00048752601
0.00048752802
0.00048753026
0.00048753305
0.00048753684
0.00048754154
0.00048754704
0.00048755325
0.00048756005
0.00048756732
0.00048757495
0.00048758278
0.00048759067
0.00048759846
0.00048760598
0.00048761302
0.00048761938
0.00048762477
0.00048762889
0.00048763132
0.00048763162
0.00048762924
0.00048762176
0.00048760506
0.00048758146
0.00048754007
0.00048747773
0.00048738984
0.00048727028
0.00048711536
0.00048692398
0.00048670183
0.00048645742
0.00048620873
0.00048597021
0.00048577166
0.00048562406
0.00048558384
0.00048563441
0.00048593027
0.00048589986
0.00048768258
0.00048727634
0.00048727586
0.00048727545
0.00048727491
0.0004872744
0.00048727377
0.00048727317
0.00048727244
0.00048727173
0.00048727089
0.00048727006
0.00048726908
0.00048726811
0.00048726698
0.00048726585
0.00048726454
0.00048726321
0.0004872617
0.00048726016
0.00048725841
0.00048725662
0.00048725461
0.00048725253
0.00048725021
0.0004872478
0.00048724513
0.00048724235
0.00048723927
0.00048723607
0.00048723255
0.00048722882
0.00048722488
0.00048722058
0.00048721607
0.00048721117
0.00048720604
0.00048720048
0.00048719465
0.00048718837
0.00048718178
0.00048717473
0.0004871673
0.00048715943
0.00048715113
0.00048714238
0.00048713317
0.00048712351
0.00048711338
0.0004871028
0.00048709175
0.00048708026
0.00048706833
0.00048705599
0.00048704326
0.00048703018
0.00048701678
0.00048700311
0.00048698921
0.00048697517
0.00048696104
0.00048694689
0.00048693282
0.00048691891
0.00048690526
0.00048689196
0.00048687915
0.00048686691
0.00048685535
0.00048684459
0.00048683472
0.00048682585
0.00048681807
0.00048681145
0.00048680607
0.00048680198
0.00048679921
0.00048679778
0.00048679772
0.00048679898
0.00048680155
0.00048680538
0.00048681039
0.00048681306
0.00048681398
0.00048681601
0.00048681914
0.00048682327
0.00048682831
0.00048683418
0.00048684077
0.00048684795
0.00048685562
0.00048686361
0.0004868718
0.00048688
0.00048688804
0.00048689572
0.00048690281
0.00048690903
0.00048691407
0.00048691753
0.00048691894
0.00048691689
0.00048690359
0.00048688219
0.00048684764
0.00048680057
0.00048673778
0.00048665561
0.00048655136
0.00048642369
0.00048627456
0.0004861086
0.00048593641
0.00048576999
0.00048562818
0.00048552385
0.0004854813
0.00048550333
0.00048562943
0.00048582933
0.0004861988
0.00048619469
0.00048749382
0.00048708783
0.0004870873
0.00048708684
0.00048708623
0.00048708566
0.00048708495
0.00048708428
0.00048708346
0.00048708266
0.00048708171
0.00048708077
0.00048707967
0.00048707858
0.00048707731
0.00048707603
0.00048707457
0.00048707308
0.00048707138
0.00048706965
0.00048706769
0.00048706568
0.00048706342
0.00048706109
0.00048705849
0.00048705579
0.00048705281
0.00048704969
0.00048704627
0.00048704269
0.00048703876
0.00048703462
0.00048703023
0.00048702544
0.00048702043
0.000487015
0.00048700931
0.00048700316
0.00048699672
0.00048698979
0.00048698253
0.00048697478
0.00048696662
0.000486958
0.00048694892
0.00048693938
0.00048692936
0.00048691887
0.0004869079
0.00048689647
0.00048688458
0.00048687224
0.00048685949
0.00048684635
0.00048683285
0.00048681903
0.00048680494
0.00048679063
0.00048677618
0.00048676165
0.00048674713
0.0004867327
0.00048671845
0.00048670449
0.00048669093
0.00048667787
0.00048666544
0.00048665373
0.00048664287
0.00048663296
0.00048662411
0.0004866164
0.00048660993
0.00048660477
0.00048660096
0.00048659855
0.00048659755
0.00048659797
0.0004865998
0.00048660298
0.00048660747
0.00048661318
0.0004866174
0.00048661691
0.0004866173
0.00048661889
0.00048662164
0.00048662549
0.00048663036
0.00048663614
0.00048664276
0.00048665008
0.00048665797
0.00048666631
0.00048667495
0.00048668371
0.00048669243
0.00048670093
0.00048670897
0.00048671633
0.00048672275
0.00048672791
0.00048673146
0.00048672152
0.00048669761
0.00048666495
0.00048662162
0.00048656545
0.00048649446
0.00048640698
0.00048630273
0.000486183
0.00048605217
0.00048591691
0.00048578847
0.00048567821
0.00048560214
0.00048556924
0.00048559702
0.00048568247
0.00048585246
0.00048607695
0.00048641701
0.00048637318
0.00048745179
0.00048704581
0.00048704525
0.00048704475
0.00048704409
0.00048704348
0.00048704272
0.00048704199
0.00048704111
0.00048704025
0.00048703923
0.00048703822
0.00048703704
0.00048703586
0.0004870345
0.00048703312
0.00048703155
0.00048702994
0.00048702812
0.00048702626
0.00048702416
0.00048702199
0.00048701957
0.00048701707
0.00048701428
0.00048701139
0.00048700819
0.00048700485
0.00048700118
0.00048699734
0.00048699314
0.00048698871
0.00048698401
0.0004869789
0.00048697355
0.00048696775
0.00048696168
0.00048695513
0.00048694826
0.00048694089
0.00048693318
0.00048692494
0.00048691629
0.00048690716
0.00048689756
0.00048688747
0.00048687689
0.00048686584
0.0004868543
0.0004868423
0.00048682983
0.00048681693
0.00048680362
0.00048678994
0.00048677591
0.0004867616
0.00048674705
0.00048673233
0.0004867175
0.00048670267
0.0004866879
0.0004866733
0.00048665896
0.00048664501
0.00048663154
0.00048661868
0.00048660656
0.00048659527
0.00048658495
0.00048657569
0.00048656761
0.00048656078
0.00048655531
0.00048655124
0.00048654862
0.00048654749
0.00048654784
0.00048654965
0.00048655292
0.00048655756
0.0004865635
0.00048657066
0.00048657044
0.00048656873
0.00048656833
0.00048656923
0.00048657141
0.00048657481
0.00048657936
0.00048658497
0.00048659156
0.00048659901
0.00048660719
0.00048661599
0.00048662527
0.00048663488
0.00048664466
0.00048665449
0.00048666418
0.00048667358
0.00048668255
0.00048669092
0.00048669461
0.00048667555
0.00048664844
0.00048661256
0.00048656654
0.00048650908
0.00048643937
0.00048635713
0.00048626352
0.00048616111
0.00048605504
0.00048595191
0.00048586167
0.00048579351
0.00048575993
0.00048576659
0.00048582598
0.00048593267
0.00048610484
0.00048631588
0.00048660297
0.00048649676
0.00048744369
0.00048703767
0.00048703708
0.00048703655
0.00048703586
0.00048703521
0.00048703441
0.00048703364
0.00048703271
0.0004870318
0.00048703073
0.00048702966
0.00048702842
0.00048702718
0.00048702574
0.00048702428
0.00048702263
0.00048702093
0.00048701901
0.00048701704
0.00048701483
0.00048701255
0.00048701
0.00048700736
0.00048700442
0.00048700137
0.000486998
0.00048699449
0.00048699063
0.00048698659
0.00048698217
0.0004869775
0.00048697256
0.0004869672
0.00048696157
0.00048695549
0.00048694911
0.00048694223
0.00048693503
0.00048692731
0.00048691923
0.00048691061
0.00048690156
0.00048689201
0.00048688198
0.00048687145
0.00048686042
0.0004868489
0.0004868369
0.00048682441
0.00048681147
0.0004867981
0.00048678431
0.00048677016
0.00048675569
0.00048674095
0.00048672599
0.00048671089
0.00048669573
0.0004866806
0.00048666559
0.00048665079
0.00048663634
0.00048662233
0.00048660889
0.00048659613
0.00048658421
0.00048657322
0.00048656329
0.00048655453
0.00048654704
0.00048654092
0.00048653625
0.00048653308
0.00048653145
0.00048653138
0.00048653288
0.00048653591
0.00048654043
0.00048654636
0.00048655362
0.00048656034
0.00048655664
0.00048655394
0.00048655268
0.00048655283
0.00048655439
0.00048655732
0.00048656154
0.00048656699
0.00048657359
0.00048658121
0.00048658975
0.00048659909
0.00048660911
0.00048661968
0.00048663067
0.00048664199
0.00048665353
0.00048666521
0.000486677
0.0004866889
0.00048669022
0.00048666905
0.00048664078
0.00048660437
0.00048655897
0.00048650398
0.00048643944
0.00048636607
0.00048628584
0.00048620183
0.00048611898
0.00048604303
0.00048598194
0.00048594248
0.00048593389
0.00048595947
0.00048602841
0.0004861354
0.00048629368
0.00048648273
0.00048672481
0.0004865707
0.00048744213
0.00048703608
0.00048703547
0.0004870349
0.00048703418
0.0004870335
0.00048703267
0.00048703186
0.00048703089
0.00048702994
0.00048702882
0.0004870277
0.0004870264
0.0004870251
0.0004870236
0.00048702207
0.00048702034
0.00048701856
0.00048701656
0.0004870145
0.00048701219
0.0004870098
0.00048700714
0.00048700437
0.00048700131
0.00048699811
0.00048699459
0.00048699092
0.00048698689
0.00048698266
0.00048697806
0.00048697318
0.00048696802
0.00048696242
0.00048695655
0.0004869502
0.00048694354
0.00048693638
0.00048692887
0.00048692083
0.00048691241
0.00048690343
0.00048689401
0.00048688408
0.00048687365
0.00048686271
0.00048685125
0.0004868393
0.00048682685
0.00048681392
0.00048680052
0.00048678668
0.00048677244
0.00048675784
0.00048674292
0.00048672775
0.00048671238
0.00048669689
0.00048668137
0.00048666592
0.00048665062
0.0004866356
0.00048662097
0.00048660685
0.00048659338
0.00048658066
0.00048656887
0.00048655809
0.00048654847
0.00048654013
0.00048653316
0.00048652765
0.00048652371
0.00048652136
0.00048652065
0.0004865216
0.00048652419
0.00048652839
0.00048653414
0.00048654135
0.00048654991
0.000486554
0.0004865488
0.0004865451
0.00048654295
0.00048654235
0.0004865433
0.00048654577
0.0004865497
0.00048655502
0.00048656167
0.00048656952
0.00048657847
0.00048658843
0.00048659927
0.00048661089
0.00048662319
0.00048663611
0.0004866496
0.00048666365
0.00048667832
0.00048669373
0.00048669569
0.00048667417
0.00048664601
0.00048661051
0.00048656727
0.00048651626
0.00048645813
0.00048639424
0.00048632701
0.00048625966
0.00048619672
0.00048614298
0.00048610467
0.00048608658
0.00048609544
0.00048613296
0.0004862058
0.00048630906
0.00048645182
0.000486618
0.00048682001
0.0004866231
0.00048744168
0.00048703559
0.00048703496
0.00048703436
0.00048703362
0.00048703291
0.00048703204
0.0004870312
0.00048703019
0.0004870292
0.00048702804
0.00048702687
0.00048702552
0.00048702416
0.0004870226
0.00048702101
0.00048701921
0.00048701736
0.00048701528
0.00048701313
0.00048701073
0.00048700824
0.00048700547
0.00048700259
0.00048699941
0.00048699608
0.00048699242
0.0004869886
0.00048698441
0.00048698001
0.00048697522
0.00048697015
0.00048696478
0.00048695896
0.00048695286
0.00048694626
0.00048693934
0.0004869319
0.0004869241
0.00048691575
0.000486907
0.00048689768
0.00048688791
0.0004868776
0.00048686678
0.00048685543
0.00048684356
0.00048683118
0.00048681828
0.0004868049
0.00048679104
0.00048677673
0.00048676202
0.00048674695
0.00048673157
0.00048671593
0.00048670012
0.00048668421
0.00048666829
0.00048665247
0.00048663685
0.00048662154
0.00048660668
0.00048659239
0.00048657882
0.00048656608
0.00048655434
0.00048654372
0.00048653435
0.00048652635
0.00048651984
0.00048651491
0.00048651164
0.00048651008
0.00048651027
0.00048651222
0.00048651591
0.00048652128
0.00048652829
0.00048653681
0.00048654672
0.00048654767
0.00048654133
0.00048653661
0.00048653356
0.0004865322
0.00048653255
0.00048653458
0.00048653825
0.00048654348
0.00048655021
0.00048655833
0.00048656775
0.00048657836
0.00048659005
0.00048660275
0.00048661636
0.00048663085
0.00048664622
0.00048666252
0.00048667987
0.00048669847
0.00048670475
0.00048668341
0.00048665598
0.00048662203
0.00048658149
0.00048653475
0.00048648285
0.00048642754
0.00048637143
0.00048631768
0.00048627034
0.0004862333
0.00048621137
0.00048620787
0.0004862276
0.00048627132
0.00048634389
0.00048644121
0.00048656955
0.00048671669
0.00048688863
0.00048665924
0.0004874414
0.00048703528
0.00048703463
0.00048703401
0.00048703324
0.0004870325
0.0004870316
0.00048703072
0.00048702969
0.00048702865
0.00048702745
0.00048702624
0.00048702484
0.00048702343
0.00048702182
0.00048702017
0.0004870183
0.00048701638
0.00048701423
0.000487012
0.00048700951
0.00048700693
0.00048700406
0.00048700107
0.00048699777
0.00048699432
0.00048699053
0.00048698656
0.00048698221
0.00048697766
0.00048697269
0.00048696744
0.00048696187
0.00048695584
0.0004869495
0.00048694267
0.0004869355
0.00048692778
0.0004869197
0.00048691104
0.00048690198
0.00048689233
0.00048688219
0.00048687152
0.00048686031
0.00048684856
0.00048683627
0.00048682345
0.00048681011
0.00048679626
0.00048678193
0.00048676715
0.00048675194
0.00048673639
0.00048672051
0.00048670439
0.00048668811
0.00048667174
0.00048665537
0.00048663914
0.00048662314
0.00048660749
0.00048659235
0.00048657783
0.00048656409
0.00048655127
0.00048653953
0.000486529
0.00048651983
0.00048651214
0.00048650604
0.00048650164
0.00048649903
0.00048649824
0.00048649933
0.00048650228
0.00048650708
0.00048651366
0.00048652196
0.00048653184
0.00048654318
0.00048654085
0.00048653333
0.00048652756
0.00048652361
0.0004865215
0.00048652126
0.00048652287
0.0004865263
0.00048653147
0.00048653834
0.00048654678
0.00048655671
0.00048656803
0.00048658064
0.00048659445
0.00048660941
0.00048662551
0.00048664276
0.00048666124
0.00048668114
0.0004867027
0.00048671704
0.00048669639
0.00048667018
0.00048663823
0.00048660073
0.00048655833
0.00048651237
0.0004864648
0.00048641829
0.00048637586
0.00048634112
0.00048631726
0.00048630798
0.0004863155
0.00048634314
0.00048639093
0.00048646218
0.00048655325
0.0004866681
0.00048679731
0.00048694325
0.00048668649
0.00048744116
0.00048703502
0.00048703435
0.0004870337
0.00048703291
0.00048703214
0.00048703122
0.00048703031
0.00048702924
0.00048702817
0.00048702693
0.00048702568
0.00048702424
0.00048702278
0.00048702111
0.00048701941
0.00048701748
0.00048701549
0.00048701327
0.00048701096
0.00048700839
0.00048700572
0.00048700276
0.00048699967
0.00048699626
0.00048699269
0.00048698878
0.00048698467
0.00048698018
0.00048697547
0.00048697034
0.00048696491
0.00048695915
0.00048695292
0.00048694637
0.0004869393
0.00048693188
0.00048692391
0.00048691554
0.00048690659
0.00048689721
0.00048688723
0.00048687675
0.00048686572
0.00048685412
0.00048684197
0.00048682925
0.000486816
0.0004868022
0.00048678788
0.00048677306
0.00048675778
0.00048674207
0.00048672599
0.0004867096
0.00048669296
0.00048667616
0.00048665928
0.00048664243
0.00048662573
0.00048660929
0.00048659325
0.00048657775
0.00048656294
0.00048654898
0.000486536
0.0004865242
0.0004865137
0.00048650466
0.00048649722
0.00048649149
0.00048648759
0.0004864856
0.00048648558
0.00048648755
0.00048649152
0.00048649746
0.00048650529
0.00048651493
0.00048652624
0.00048653906
0.00048653329
0.00048652456
0.00048651771
0.00048651283
0.00048650996
0.00048650913
0.00048651034
0.00048651355
0.0004865187
0.00048652573
0.00048653453
0.00048654501
0.00048655707
0.00048657061
0.00048658555
0.00048660185
0.00048661949
0.00048663852
0.00048665904
0.00048668126
0.00048670545
0.00048672903
0.00048671163
0.00048668687
0.00048665707
0.00048662261
0.00048658432
0.0004865437
0.00048650279
0.00048646422
0.00048643084
0.00048640581
0.00048639176
0.00048639152
0.00048640652
0.00048643899
0.00048648851
0.00048655725
0.00048664214
0.00048674548
0.00048686007
0.00048698589
0.00048670745
0.00048744095
0.00048703478
0.0004870341
0.00048703342
0.00048703261
0.00048703181
0.00048703086
0.00048702993
0.00048702883
0.00048702773
0.00048702645
0.00048702516
0.00048702368
0.00048702217
0.00048702046
0.0004870187
0.00048701672
0.00048701468
0.00048701238
0.00048701001
0.00048700736
0.00048700461
0.00048700156
0.00048699837
0.00048699486
0.00048699119
0.00048698715
0.00048698292
0.00048697829
0.00048697343
0.00048696815
0.00048696254
0.0004869566
0.00048695017
0.00048694341
0.00048693613
0.00048692847
0.00048692024
0.00048691161
0.00048690236
0.00048689268
0.00048688238
0.00048687155
0.00048686015
0.00048684817
0.00048683562
0.00048682248
0.00048680878
0.00048679451
0.00048677971
0.00048676439
0.0004867486
0.00048673236
0.00048671574
0.0004866988
0.0004866816
0.00048666425
0.00048664682
0.00048662943
0.00048661221
0.00048659528
0.00048657878
0.00048656287
0.00048654769
0.00048653343
0.00048652024
0.0004865083
0.00048649777
0.00048648881
0.00048648156
0.00048647616
0.00048647272
0.00048647134
0.00048647206
0.00048647492
0.00048647992
0.00048648702
0.00048649614
0.00048650719
0.00048651999
0.00048653438
0.00048652497
0.00048651498
0.00048650702
0.00048650118
0.00048649755
0.00048649614
0.00048649696
0.00048649999
0.00048650515
0.00048651239
0.0004865216
0.00048653268
0.00048654553
0.00048656005
0.00048657616
0.00048659381
0.00048661301
0.00048663379
0.00048665628
0.00048668067
0.00048670727
0.00048673642
0.00048672966
0.00048670658
0.00048667908
0.00048664767
0.00048661333
0.00048657761
0.00048654258
0.00048651079
0.0004864849
0.00048646769
0.00048646135
0.000486468
0.00048648847
0.00048652413
0.00048657418
0.00048663984
0.0004867184
0.00048681097
0.00048691203
0.00048702049
0.000486724
0.00048744075
0.00048703456
0.00048703386
0.00048703316
0.00048703233
0.00048703151
0.00048703054
0.00048702958
0.00048702845
0.00048702732
0.00048702601
0.00048702469
0.00048702317
0.00048702162
0.00048701987
0.00048701806
0.00048701603
0.00048701393
0.00048701157
0.00048700914
0.00048700642
0.00048700359
0.00048700046
0.00048699718
0.00048699358
0.0004869898
0.00048698565
0.0004869813
0.00048697655
0.00048697155
0.00048696611
0.00048696035
0.00048695423
0.00048694762
0.00048694066
0.00048693316
0.00048692527
0.0004869168
0.0004869079
0.00048689838
0.0004868884
0.00048687777
0.00048686661
0.00048685485
0.00048684249
0.00048682953
0.00048681596
0.00048680181
0.00048678707
0.00048677178
0.00048675594
0.00048673961
0.00048672281
0.00048670563
0.0004866881
0.00048667032
0.00048665236
0.00048663434
0.00048661635
0.00048659856
0.00048658106
0.00048656404
0.00048654764
0.00048653203
0.0004865174
0.00048650391
0.00048649177
0.00048648113
0.00048647218
0.00048646507
0.00048645995
0.00048645692
0.00048645612
0.00048645757
0.00048646132
0.00048646737
0.00048647567
0.00048648613
0.00048649864
0.00048651302
0.00048652849
0.0004865158
0.00048650448
0.00048649536
0.00048648855
0.00048648413
0.00048648213
0.00048648258
0.00048648544
0.00048649064
0.00048649813
0.00048650778
0.0004865195
0.00048653317
0.00048654869
0.00048656597
0.00048658496
0.00048660566
0.00048662811
0.00048665242
0.00048667879
0.00048670752
0.00048673893
0.0004867494
0.00048672803
0.00048670278
0.00048667426
0.0004866435
0.0004866121
0.00048658207
0.00048655585
0.00048653591
0.0004865247
0.00048652402
0.00048653548
0.00048655947
0.00048659671
0.0004866462
0.00048670848
0.00048678118
0.00048686461
0.00048695445
0.00048704893
0.00048673758
0.00048744057
0.00048703437
0.00048703365
0.00048703293
0.00048703209
0.00048703125
0.00048703026
0.00048702927
0.00048702812
0.00048702696
0.00048702562
0.00048702427
0.00048702271
0.00048702113
0.00048701933
0.00048701748
0.0004870154
0.00048701325
0.00048701084
0.00048700835
0.00048700556
0.00048700267
0.00048699946
0.0004869961
0.00048699241
0.00048698853
0.00048698428
0.00048697982
0.00048697495
0.00048696982
0.00048696424
0.00048695832
0.00048695205
0.00048694526
0.00048693811
0.0004869304
0.00048692229
0.00048691358
0.00048690443
0.00048689463
0.00048688436
0.00048687342
0.00048686192
0.0004868498
0.00048683706
0.0004868237
0.0004868097
0.00048679509
0.00048677988
0.00048676408
0.00048674771
0.00048673082
0.00048671345
0.00048669567
0.00048667752
0.0004866591
0.00048664051
0.00048662183
0.0004866032
0.00048658477
0.00048656665
0.00048654903
0.00048653207
0.00048651595
0.00048650087
0.00048648701
0.00048647458
0.00048646377
0.00048645476
0.00048644772
0.00048644282
0.00048644017
0.00048643991
0.00048644208
0.00048644673
0.00048645385
0.00048646338
0.00048647524
0.00048648928
0.00048650532
0.00048652063
0.00048650573
0.00048649303
0.0004864827
0.00048647487
0.00048646965
0.00048646707
0.00048646716
0.00048646987
0.00048647516
0.00048648294
0.0004864931
0.00048650551
0.00048652006
0.00048653663
0.00048655512
0.00048657547
0.00048659768
0.00048662176
0.00048664782
0.00048667606
0.00048670674
0.00048674017
0.00048676891
0.00048675168
0.00048672867
0.00048670291
0.00048667548
0.00048664793
0.00048662226
0.00048660074
0.00048658567
0.00048657921
0.00048658286
0.00048659778
0.00048662406
0.00048666188
0.00048671009
0.00048676867
0.00048683552
0.00048691043
0.00048699004
0.00048707243
0.00048674867
0.00048744042
0.0004870342
0.00048703347
0.00048703274
0.00048703187
0.00048703101
0.00048703001
0.000487029
0.00048702782
0.00048702664
0.00048702528
0.00048702389
0.00048702231
0.00048702069
0.00048701886
0.00048701697
0.00048701485
0.00048701265
0.0004870102
0.00048700764
0.0004870048
0.00048700184
0.00048699856
0.00048699514
0.00048699136
0.0004869874
0.00048698305
0.00048697849
0.0004869735
0.00048696825
0.00048696254
0.00048695648
0.00048695005
0.00048694309
0.00048693577
0.00048692786
0.00048691954
0.00048691061
0.00048690121
0.00048689115
0.00048688059
0.00048686934
0.00048685751
0.00048684504
0.00048683192
0.00048681815
0.00048680372
0.00048678865
0.00048677295
0.00048675663
0.00048673971
0.00048672225
0.00048670427
0.00048668586
0.00048666706
0.00048664797
0.00048662868
0.00048660931
0.00048658997
0.00048657082
0.00048655201
0.00048653371
0.00048651611
0.0004864994
0.00048648378
0.00048646945
0.00048645666
0.00048644558
0.00048643644
0.00048642941
0.00048642467
0.00048642236
0.00048642261
0.00048642549
0.00048643104
0.00048643925
0.00048645006
0.00048646337
0.00048647904
0.00048649684
0.00048651121
0.00048649469
0.00048648052
0.00048646893
0.00048646005
0.00048645399
0.00048645082
0.00048645055
0.00048645315
0.00048645855
0.00048646667
0.00048647737
0.00048649052
0.00048650599
0.00048652364
0.00048654336
0.00048656506
0.00048658874
0.00048661438
0.0004866421
0.00048667204
0.00048670446
0.00048673964
0.00048677791
0.00048677654
0.00048675562
0.00048673237
0.00048670788
0.00048668367
0.00048666163
0.00048664392
0.00048663265
0.00048662975
0.00048663646
0.00048665363
0.00048668108
0.00048671866
0.00048676511
0.00048682004
0.00048688158
0.00048694915
0.0004870201
0.00048709243
0.00048675812
0.00048744029
0.00048703405
0.00048703332
0.00048703257
0.00048703169
0.00048703082
0.00048702979
0.00048702876
0.00048702757
0.00048702637
0.00048702498
0.00048702357
0.00048702196
0.00048702032
0.00048701845
0.00048701653
0.00048701437
0.00048701213
0.00048700963
0.00048700703
0.00048700414
0.00048700112
0.00048699778
0.00048699428
0.00048699043
0.00048698639
0.00048698196
0.0004869773
0.00048697221
0.00048696685
0.00048696102
0.00048695482
0.00048694825
0.00048694114
0.00048693364
0.00048692555
0.00048691703
0.00048690787
0.00048689824
0.00048688792
0.00048687708
0.00048686554
0.00048685339
0.00048684056
0.00048682706
0.00048681289
0.00048679802
0.00048678249
0.00048676629
0.00048674944
0.00048673196
0.0004867139
0.0004866953
0.00048667622
0.00048665674
0.00048663693
0.0004866169
0.00048659677
0.00048657666
0.00048655674
0.00048653716
0.0004865181
0.00048649977
0.00048648237
0.00048646613
0.00048645125
0.00048643799
0.00048642657
0.0004864172
0.00048641011
0.00048640547
0.00048640344
0.00048640417
0.00048640773
0.00048641418
0.0004864235
0.00048643564
0.00048645048
0.00048646785
0.00048648752
0.00048650086
0.0004864826
0.00048646689
0.00048645396
0.00048644397
0.00048643706
0.0004864333
0.00048643269
0.0004864352
0.00048644077
0.00048644928
0.00048646059
0.00048647455
0.000486491
0.00048650979
0.00048653079
0.00048655388
0.00048657904
0.00048660624
0.00048663556
0.00048666712
0.00048670116
0.00048673791
0.00048677767
0.000486803
0.00048678405
0.00048676312
0.00048674126
0.00048671996
0.00048670101
0.00048668644
0.0004866782
0.000486678
0.00048668688
0.00048670543
0.00048673329
0.00048677001
0.00048681429
0.00048686545
0.00048692179
0.00048698257
0.00048704567
0.00048710924
0.00048676604
0.00048744018
0.00048703393
0.00048703319
0.00048703242
0.00048703154
0.00048703065
0.00048702961
0.00048702857
0.00048702735
0.00048702613
0.00048702473
0.0004870233
0.00048702167
0.00048701999
0.0004870181
0.00048701615
0.00048701396
0.00048701169
0.00048700915
0.0004870065
0.00048700356
0.0004870005
0.0004869971
0.00048699355
0.00048698963
0.00048698552
0.00048698101
0.00048697626
0.00048697108
0.00048696562
0.00048695967
0.00048695336
0.00048694665
0.00048693939
0.00048693173
0.00048692347
0.00048691476
0.00048690539
0.00048689553
0.00048688497
0.00048687386
0.00048686202
0.00048684955
0.00048683638
0.00048682251
0.00048680793
0.00048679263
0.00048677663
0.00048675992
0.00048674252
0.00048672447
0.00048670579
0.00048668653
0.00048666676
0.00048664655
0.00048662597
0.00048660515
0.0004865842
0.00048656325
0.00048654248
0.00048652205
0.00048650215
0.000486483
0.00048646482
0.00048644784
0.00048643231
0.00048641849
0.00048640662
0.00048639694
0.0004863897
0.00048638508
0.00048638328
0.00048638446
0.00048638869
0.00048639605
0.00048640651
0.00048642003
0.00048643647
0.00048645565
0.00048647731
0.0004864895
0.00048646939
0.00048645203
0.00048643769
0.00048642654
0.00048641875
0.00048641437
0.00048641344
0.0004864159
0.00048642167
0.00048643063
0.00048644261
0.00048645744
0.00048647493
0.00048649491
0.00048651722
0.00048654172
0.00048656835
0.00048659706
0.0004866279
0.00048666098
0.00048669648
0.00048673461
0.00048677563
0.0004868176
0.00048681309
0.0004867942
0.00048677461
0.00048675575
0.00048673933
0.00048672724
0.00048672128
0.00048672299
0.00048673325