/*--------------------------------*- C++ -*----------------------------------*\
| =========                 |                                                 |
| \\      /  F ield         | foam-extend: Open Source CFD                    |
|  \\    /   O peration     | Version:     4.1                                |
|   \\  /    A nd           | Web:         http://www.foam-extend.org         |
|    \\/     M anipulation  |                                                 |
\*---------------------------------------------------------------------------*/
FoamFile
{
    version     2.0;
    format      ascii;
    class       volVectorField;
    location    "0.3";
    object      U;
}
// * * * * * * * * * * * * * * * * * * * * * * * * * * * * * * * * * * * * * //

dimensions      [0 1 -1 0 0 0 0];

internalField   nonuniform List<vector> 
16126
(
(0.29159056 -6.2408328e-06 0)
(0.29162482 -4.3871683e-07 0)
(0.29161605 -4.210998e-07 0)
(0.29164041 -2.4068385e-07 0)
(0.29163855 3.7329638e-07 0)
(0.29165609 1.0458782e-07 0)
(0.29166 6.049004e-07 0)
(0.29167427 4.4562025e-07 0)
(0.29168208 7.7734104e-07 0)
(0.29169546 7.3568402e-07 0)
(0.29170614 9.5924927e-07 0)
(0.29172005 9.9037495e-07 0)
(0.29173324 1.1563878e-06 0)
(0.2917486 1.2276923e-06 0)
(0.29176432 1.3658255e-06 0)
(0.29178183 1.4587044e-06 0)
(0.29180035 1.5842461e-06 0)
(0.29182062 1.6884953e-06 0)
(0.29184235 1.8083056e-06 0)
(0.29186599 1.9177411e-06 0)
(0.29189149 2.0337209e-06 0)
(0.29191917 2.1434957e-06 0)
(0.29194912 2.2542632e-06 0)
(0.29198161 2.3592502e-06 0)
(0.2920168 2.4607505e-06 0)
(0.29205498 2.5544607e-06 0)
(0.29209636 2.6399613e-06 0)
(0.29214124 2.7136712e-06 0)
(0.29218992 2.7733898e-06 0)
(0.29224272 2.8152878e-06 0)
(0.29229998 2.8358462e-06 0)
(0.29236208 2.8299995e-06 0)
(0.29242943 2.7933156e-06 0)
(0.29250247 2.7193632e-06 0)
(0.29258166 2.6018306e-06 0)
(0.29266752 2.4330037e-06 0)
(0.29276058 2.2046593e-06 0)
(0.29286142 1.9072307e-06 0)
(0.29297067 1.5304792e-06 0)
(0.29308899 1.0627265e-06 0)
(0.29321708 4.9146564e-07 0)
(0.2933557 -1.9692728e-07 0)
(0.29350563 -1.0176647e-06 0)
(0.29366772 -1.9862797e-06 0)
(0.29384283 -3.1199091e-06 0)
(0.29403189 -4.4362202e-06 0)
(0.29423583 -5.9537506e-06 0)
(0.29445563 -7.6913346e-06 0)
(0.2946923 -9.6679017e-06 0)
(0.29494683 -1.1902205e-05 0)
(0.29522024 -1.4412091e-05 0)
(0.29551353 -1.7214025e-05 0)
(0.29582766 -2.0322503e-05 0)
(0.29616355 -2.3748997e-05 0)
(0.29652203 -2.7501213e-05 0)
(0.29690384 -3.1582263e-05 0)
(0.29730959 -3.5989363e-05 0)
(0.29773974 -4.0712858e-05 0)
(0.29819452 -4.57353e-05 0)
(0.29867395 -5.1030017e-05 0)
(0.29917776 -5.6560338e-05 0)
(0.29970537 -6.2278895e-05 0)
(0.30025584 -6.8126667e-05 0)
(0.30082784 -7.4032839e-05 0)
(0.30141958 -7.991471e-05 0)
(0.30202886 -8.567849e-05 0)
(0.30265296 -9.1220121e-05 0)
(0.30328867 -9.6427297e-05 0)
(0.30393232 -0.00010118245 0)
(0.30457975 -0.00010536566 0)
(0.30522636 -0.00010885907 0)
(0.30586723 -0.00011155102 0)
(0.3064971 -0.00011334075 0)
(0.30711056 -0.00011414191 0)
(0.30770211 -0.00011388785 0)
(0.30826633 -0.00011253221 0)
(0.30879797 -0.00011005411 0)
(0.30929213 -0.00010645369 0)
(0.30974433 -0.00010175388 0)
(0.31015073 -9.5991275e-05 0)
(0.310508 -8.9187248e-05 0)
(0.31081371 -8.1412531e-05 0)
(0.31106595 -7.2451779e-05 0)
(0.31126388 -6.2771849e-05 0)
(0.31140708 -5.1080998e-05 0)
(0.31149808 -4.248911e-05 0)
(0.31153986 -4.2778022e-05 0)
(0.31153925 -4.341356e-05 0)
(0.31148954 -3.7388064e-05 0)
(0.3113855 -2.734979e-05 0)
(0.31122809 -1.6139891e-05 0)
(0.31101975 -4.5368814e-06 0)
(0.31076425 6.9408435e-06 0)
(0.31046597 1.8035206e-05 0)
(0.3101298 2.8586392e-05 0)
(0.30976067 3.8467732e-05 0)
(0.30936378 4.7643478e-05 0)
(0.30894354 5.6057513e-05 0)
(0.30850458 6.381594e-05 0)
(0.3080492 7.0951511e-05 0)
(0.30758007 7.7913323e-05 0)
(0.30709401 8.5131617e-05 0)
(0.30658885 9.4426209e-05 0)
(0.30604882 0.00010839587 0)
(0.30546394 0.00013355453 0)
(0.30480084 0.00017807563 0)
(0.30406689 0.00025623227 0)
(0.3032691 0.00036536801 0)
(0.3025985 0.00043489496 0)
(0.302383 0.00027152326 0)
(0.30351469 -0.00010529704 0)
(0.30660036 -0.00074222807 0)
(0.31307838 -0.0018532083 0)
(0.32416112 -0.0036341575 0)
(0.34194663 -0.0061914706 0)
(0.36737207 -0.0096936588 0)
(0.40289526 -0.014063415 0)
(0.44793341 -0.019497382 0)
(0.50592663 -0.025695436 0)
(0.57293026 -0.033161253 0)
(0.65644893 -0.040523079 0)
(0.7417838 -0.049721947 0)
(0.8539383 -0.051237007 0)
(0.92419531 -0.062770943 0)
(0.71935219 -2.139329e-05 0)
(0.71939725 -1.2710276e-05 0)
(0.7194085 -1.2939852e-05 0)
(0.71944502 -1.2674256e-05 0)
(0.71946483 -1.2399311e-05 0)
(0.71949879 -1.3364141e-05 0)
(0.71952557 -1.3529758e-05 0)
(0.71956073 -1.4685646e-05 0)
(0.7195938 -1.531703e-05 0)
(0.71963252 -1.6570471e-05 0)
(0.71967192 -1.758548e-05 0)
(0.71971588 -1.8989535e-05 0)
(0.71976218 -2.0338637e-05 0)
(0.71981282 -2.1957815e-05 0)
(0.71986691 -2.3630933e-05 0)
(0.7199256 -2.55245e-05 0)
(0.71998868 -2.7539956e-05 0)
(0.72005688 -2.9765198e-05 0)
(0.72013035 -3.2161013e-05 0)
(0.72020969 -3.4778053e-05 0)
(0.72029522 -3.7607224e-05 0)
(0.7203875 -4.0682654e-05 0)
(0.720487 -4.401117e-05 0)
(0.72059431 -4.7620606e-05 0)
(0.72070998 -5.1527028e-05 0)
(0.72083465 -5.5757033e-05 0)
(0.72096898 -6.033289e-05 0)
(0.72111369 -6.5282504e-05 0)
(0.72126953 -7.0633017e-05 0)
(0.72143729 -7.6415021e-05 0)
(0.72161781 -8.2659756e-05 0)
(0.721812 -8.9401735e-05 0)
(0.72202081 -9.6675422e-05 0)
(0.72224521 -0.0001045191 0)
(0.72248626 -0.00011297133 0)
(0.72274506 -0.00012207331 0)
(0.72302275 -0.00013186693 0)
(0.72332052 -0.00014239601 0)
(0.72363962 -0.00015370454 0)
(0.72398132 -0.00016583766 0)
(0.72434695 -0.00017883988 0)
(0.72473786 -0.000192755 0)
(0.72515542 -0.00020762584 0)
(0.72560103 -0.00022349149 0)
(0.72607608 -0.00024038809 0)
(0.72658197 -0.00025834593 0)
(0.72712005 -0.00027738861 0)
(0.72769164 -0.00029753054 0)
(0.728298 -0.00031877497 0)
(0.72894028 -0.0003411116 0)
(0.72961955 -0.00036451358 0)
(0.73033668 -0.00038893458 0)
(0.7310924 -0.00041430579 0)
(0.73188718 -0.00044053218 0)
(0.73272125 -0.00046748924 0)
(0.73359452 -0.00049501985 0)
(0.73450655 -0.00052293068 0)
(0.73545647 -0.00055098947 0)
(0.73644297 -0.00057892288 0)
(0.73746425 -0.00060641438 0)
(0.73851792 -0.0006331038 0)
(0.73960101 -0.00065858811 0)
(0.74070992 -0.0006824229 0)
(0.74184036 -0.00070412658 0)
(0.74298737 -0.00072318612 0)
(0.74414527 -0.0007390661 0)
(0.7453077 -0.00075121977 0)
(0.74646763 -0.00075910414 0)
(0.74761742 -0.00076219831 0)
(0.74874889 -0.00076002368 0)
(0.74985341 -0.00075216692 0)
(0.75092206 -0.00073830285 0)
(0.75194577 -0.00071821672 0)
(0.75291549 -0.00069182259 0)
(0.75382242 -0.00065918043 0)
(0.7546582 -0.00062050241 0)
(0.75541512 -0.00057616045 0)
(0.75608637 -0.00052667207 0)
(0.75666614 -0.00047270183 0)
(0.75714992 -0.0004150108 0)
(0.75753447 -0.00035450675 0)
(0.7578182 -0.00029206584 0)
(0.75800069 -0.00022898853 0)
(0.75808388 -0.00016572312 0)
(0.75806955 -0.00010606703 0)
(0.75796252 -4.7254552e-05 0)
(0.75775418 1.434552e-05 0)
(0.75744166 7.6617469e-05 0)
(0.75703647 0.0001399802 0)
(0.75655159 0.00020203682 0)
(0.75599636 0.00026064814 0)
(0.75538084 0.00031468868 0)
(0.75471534 0.0003634092 0)
(0.75401066 0.0004063128 0)
(0.75327803 0.00044317936 0)
(0.75252873 0.00047397463 0)
(0.7517742 0.0004990074 0)
(0.75102539 0.0005188205 0)
(0.75029325 0.00053455666 0)
(0.7495873 0.000547756 0)
(0.74891726 0.00056123584 0)
(0.74829004 0.00057842426 0)
(0.74771492 0.00060495943 0)
(0.74719865 0.00064497762 0)
(0.74676349 0.00070143968 0)
(0.74644391 0.00075822788 0)
(0.7463376 0.0007682924 0)
(0.74658781 0.00061753034 0)
(0.74751914 0.00015167399 0)
(0.74942123 -0.00087750062 0)
(0.75274961 -0.0027058188 0)
(0.75834046 -0.0056210384 0)
(0.76714657 -0.0098633884 0)
(0.77985941 -0.015591064 0)
(0.79737451 -0.022654905 0)
(0.819548 -0.030901954 0)
(0.84675947 -0.039759718 0)
(0.87714085 -0.049087259 0)
(0.91090657 -0.057955139 0)
(0.94322644 -0.066777182 0)
(0.97596686 -0.073082467 0)
(0.99788893 -0.079706028 0)
(1.0169563 -0.074373564 0)
(1.0120943 -0.079994285 0)
(0.92362379 -4.1141373e-05 0)
(0.92367583 -3.3851752e-05 0)
(0.92369744 -3.5096439e-05 0)
(0.92374324 -3.5608075e-05 0)
(0.92377616 -3.6864772e-05 0)
(0.92382232 -3.9259159e-05 0)
(0.9238641 -4.1327366e-05 0)
(0.9239143 -4.443615e-05 0)
(0.92396458 -4.7332298e-05 0)
(0.92402126 -5.0993356e-05 0)
(0.92408054 -5.4674813e-05 0)
(0.92414564 -5.8944639e-05 0)
(0.92421496 -6.3415591e-05 0)
(0.92429028 -6.8398944e-05 0)
(0.92437107 -7.3712843e-05 0)
(0.92445845 -7.9530018e-05 0)
(0.92455246 -8.5778658e-05 0)
(0.92465392 -9.2562588e-05 0)
(0.92476318 -9.9867877e-05 0)
(0.92488096 -0.00010776671 0)
(0.92500782 -0.00011627629 0)
(0.92514447 -0.00012545621 0)
(0.92529159 -0.00013534162 0)
(0.92544997 -0.000145989 0)
(0.92562039 -0.00015744507 0)
(0.92580371 -0.00016976783 0)
(0.92600083 -0.00018301248 0)
(0.92621271 -0.00019724062 0)
(0.92644034 -0.00021251424 0)
(0.92668477 -0.00022889933 0)
(0.92694713 -0.00024646318 0)
(0.92722856 -0.00026527647 0)
(0.92753029 -0.00028540989 0)
(0.92785356 -0.00030693743 0)
(0.92819969 -0.00032993233 0)
(0.92857003 -0.0003544692 0)
(0.92896597 -0.000380621 0)
(0.92938895 -0.00040846002 0)
(0.92984041 -0.00043805483 0)
(0.93032184 -0.00046947072 0)
(0.93083471 -0.00050276641 0)
(0.93138051 -0.00053799322 0)
(0.9319607 -0.00057519284 0)
(0.93257673 -0.00061439372 0)
(0.93322996 -0.00065560962 0)
(0.93392171 -0.00069883523 0)
(0.9346532 -0.0007440432 0)
(0.9354255 -0.00079117962 0)
(0.93623957 -0.00084015988 0)
(0.93709613 -0.00089086391 0)
(0.93799571 -0.00094313101 0)
(0.93893858 -0.00099675462 0)
(0.93992469 -0.0010514771 0)
(0.94095365 -0.0011069843 0)
(0.94202466 -0.0011629003 0)
(0.94313652 -0.0012187834 0)
(0.9442875 -0.0012741219 0)
(0.94547535 -0.0013283311 0)
(0.94669726 -0.0013807526 0)
(0.94794979 -0.001430654 0)
(0.94922886 -0.0014772315 0)
(0.95052972 -0.0015196151 0)
(0.9518469 -0.0015568762 0)
(0.95317427 -0.0015880395 0)
(0.954505 -0.0016120976 0)
(0.95583159 -0.0016280316 0)
(0.95714593 -0.0016348354 0)
(0.95843935 -0.0016315463 0)
(0.95970272 -0.0016172792 0)
(0.96092653 -0.0015912662 0)
(0.96210103 -0.001552897 0)
(0.9632164 -0.0015017601 0)
(0.9642629 -0.0014376804 0)
(0.96523105 -0.0013607511 0)
(0.96611184 -0.0012713583 0)
(0.96689694 -0.0011701919 0)
(0.96757885 -0.0010582477 0)
(0.96815115 -0.0009368079 0)
(0.96860865 -0.00080741755 0)
(0.96894754 -0.00067183237 0)
(0.96916547 -0.00053196813 0)
(0.96926157 -0.00038988246 0)
(0.9692368 -0.00024744065 0)
(0.96909208 -0.00010726241 0)
(0.96883301 3.1260765e-05 0)
(0.96845313 0.0001700022 0)
(0.96796892 0.00030624859 0)
(0.96739233 0.00043581594 0)
(0.96673636 0.00055594891 0)
(0.96601407 0.00066545859 0)
(0.96523809 0.00076323108 0)
(0.96442151 0.00084788862 0)
(0.96357806 0.00091836425 0)
(0.96272209 0.00097381629 0)
(0.9618686 0.0010137492 0)
(0.96103323 0.0010379088 0)
(0.96023254 0.0010464318 0)
(0.95948408 0.0010396876 0)
(0.95880733 0.0010185726 0)
(0.95822386 0.00098416146 0)
(0.95775993 0.00093825204 0)
(0.95744662 0.00088212883 0)
(0.95732581 0.00081673045 0)
(0.95744993 0.00073755316 0)
(0.95789363 0.00062997914 0)
(0.9587472 0.00045560831 0)
(0.96013109 0.00015113271 0)
(0.96215743 -0.00042158479 0)
(0.9649531 -0.0014469366 0)
(0.96867234 -0.0032081181 0)
(0.97351419 -0.0060561676 0)
(0.97961609 -0.010331648 0)
(0.98716601 -0.016211262 0)
(0.99606853 -0.023765818 0)
(1.0063706 -0.032675589 0)
(1.0174701 -0.042552826 0)
(1.0292164 -0.052506199 0)
(1.0400308 -0.062073472 0)
(1.0498606 -0.069888343 0)
(1.055415 -0.076049899 0)
(1.0580528 -0.077451958 0)
(1.0514383 -0.076234592 0)
(1.0405853 -0.061877257 0)
(1.0190562 -0.047095994 0)
(0.99459154 -6.1617813e-05 0)
(0.99464804 -5.7644646e-05 0)
(0.99467401 -6.0929193e-05 0)
(0.99472554 -6.315772e-05 0)
(0.99476521 -6.6645966e-05 0)
(0.99481857 -7.107154e-05 0)
(0.99486861 -7.5643849e-05 0)
(0.99492751 -8.127809e-05 0)
(0.99498747 -8.7057287e-05 0)
(0.99505445 -9.3751559e-05 0)
(0.99512498 -0.00010077718 0)
(0.99520212 -0.00010861907 0)
(0.9952845 -0.00011697205 0)
(0.99537383 -0.00012612228 0)
(0.99546974 -0.00013593658 0)
(0.99557336 -0.00014658973 0)
(0.99568484 -0.00015804536 0)
(0.99580507 -0.00017042283 0)
(0.99593449 -0.0001837393 0)
(0.99607392 -0.00019808986 0)
(0.99622399 -0.0002135223 0)
(0.99638553 -0.00023012373 0)
(0.99655932 -0.00024796087 0)
(0.99674625 -0.00026712094 0)
(0.99694722 -0.00028768365 0)
(0.99716321 -0.00030973993 0)
(0.99739523 -0.00033337919 0)
(0.99764436 -0.00035869723 0)
(0.99791171 -0.0003857907 0)
(0.99819847 -0.0004147599 0)
(0.99850587 -0.00044570615 0)
(0.99883519 -0.0004787328 0)
(0.99918776 -0.00051394229 0)
(0.99956495 -0.00055143795 0)
(0.99996818 -0.00059131967 0)
(1.0003989 -0.00063368538 0)
(1.0008586 -0.00067862682 0)
(1.0013488 -0.00072622994 0)
(1.0018709 -0.00077657038 0)
(1.0024265 -0.0008297131 0)
(1.0030172 -0.00088570735 0)
(1.0036443 -0.00094458501 0)
(1.0043092 -0.0010063559 0)
(1.0050134 -0.0010710036 0)
(1.0057581 -0.0011384814 0)
(1.0065444 -0.0012087066 0)
(1.0073733 -0.0012815553 0)
(1.0082456 -0.0013568563 0)
(1.009162 -0.0014343851 0)
(1.0101226 -0.0015138569 0)
(1.0111277 -0.0015949206 0)
(1.012177 -0.0016771513 0)
(1.0132697 -0.0017600447 0)
(1.0144047 -0.0018430104 0)
(1.0155806 -0.0019253671 0)
(1.0167953 -0.0020063385 0)
(1.0180462 -0.0020850509 0)
(1.01933 -0.0021605321 0)
(1.0206429 -0.0022317139 0)
(1.0219805 -0.0022974362 0)
(1.0233375 -0.0023564555 0)
(1.0247082 -0.0024074564 0)
(1.026086 -0.0024490682 0)
(1.0274638 -0.0024798851 0)
(1.0288337 -0.0024984926 0)
(1.0301875 -0.0025034987 0)
(1.0315161 -0.002493571 0)
(1.0328103 -0.0024674793 0)
(1.0340606 -0.0024241426 0)
(1.0352571 -0.0023626801 0)
(1.0363902 -0.0022824626 0)
(1.0374501 -0.002183163 0)
(1.0384274 -0.002064801 0)
(1.0393134 -0.0019277805 0)
(1.0400997 -0.0017729151 0)
(1.0407789 -0.0016014402 0)
(1.0413445 -0.001415009 0)
(1.0417914 -0.0012156674 0)
(1.0421155 -0.0010058161 0)
(1.0423142 -0.00078813207 0)
(1.0423864 -0.00056551257 0)
(1.0423327 -0.00034088778 0)
(1.0421544 -0.00011726199 0)
(1.0418568 0.00010311392 0)
(1.0414397 0.00031971152 0)
(1.0409198 0.00052746609 0)
(1.0403079 0.00072044643 0)
(1.0396161 0.00089796588 0)
(1.0388557 0.0010590516 0)
(1.0380396 0.0012015666 0)
(1.0371814 0.0013234551 0)
(1.036296 0.0014228351 0)
(1.0353985 0.001498154 0)
(1.0345054 0.0015480636 0)
(1.0336335 0.0015714706 0)
(1.0328015 0.001567323 0)
(1.0320293 0.0015346198 0)
(1.0313395 0.0014720342 0)
(1.0307583 0.0013778901 0)
(1.0303166 0.0012494276 0)
(1.0300533 0.0010828248 0)
(1.0300166 0.00087152592 0)
(1.0302695 0.00060633 0)
(1.0308884 0.00027029404 0)
(1.0319723 -0.00015989182 0)
(1.0336204 -0.00072756092 0)
(1.0359533 -0.0014998027 0)
(1.0390854 -0.0025975084 0)
(1.0431011 -0.0042074747 0)
(1.0480048 -0.0065984674 0)
(1.0537136 -0.0100243 0)
(1.0599464 -0.014740874 0)
(1.0663854 -0.020871669 0)
(1.0724626 -0.028410948 0)
(1.0777533 -0.036982525 0)
(1.0814678 -0.046125684 0)
(1.0833554 -0.054901316 0)
(1.0823307 -0.06277964 0)
(1.0786697 -0.06842639 0)
(1.0706192 -0.071988874 0)
(1.0597925 -0.070874054 0)
(1.0438306 -0.067268254 0)
(1.0262825 -0.053287517 0)
(1.0099877 -0.037421214 0)
(1.0138361 -8.4571943e-05 0)
(1.0138958 -8.433588e-05 0)
(1.0139231 -8.9744909e-05 0)
(1.0139773 -9.4259848e-05 0)
(1.0140196 -0.00010025124 0)
(1.0140762 -0.00010714153 0)
(1.0141297 -0.00011456443 0)
(1.0141924 -0.00012313121 0)
(1.0142565 -0.00013219324 0)
(1.0143279 -0.00014235779 0)
(1.0144033 -0.00015318473 0)
(1.0144857 -0.00016509053 0)
(1.0145738 -0.00017784899 0)
(1.0146692 -0.00019172718 0)
(1.0147716 -0.00020664153 0)
(1.0148823 -0.00022277247 0)
(1.0150014 -0.00024012127 0)
(1.0151297 -0.00025882573 0)
(1.0152679 -0.00027893672 0)
(1.0154166 -0.00030057503 0)
(1.0155768 -0.00032382172 0)
(1.0157491 -0.00034879416 0)
(1.0159344 -0.00037559336 0)
(1.0161336 -0.00040433983 0)
(1.0163478 -0.00043514882 0)
(1.0165779 -0.00046814651 0)
(1.0168249 -0.00050345868 0)
(1.0170901 -0.00054121718 0)
(1.0173745 -0.00058155492 0)
(1.0176795 -0.00062460758 0)
(1.0180063 -0.00067051118 0)
(1.0183561 -0.00071940175 0)
(1.0187305 -0.00077141283 0)
(1.0191308 -0.00082667557 0)
(1.0195585 -0.00088531409 0)
(1.020015 -0.0009474461 0)
(1.0205019 -0.0010131773 0)
(1.0210207 -0.0010826013 0)
(1.0215729 -0.0011557929 0)
(1.02216 -0.0012328075 0)
(1.0227836 -0.0013136734 0)
(1.0234451 -0.0013983898 0)
(1.0241458 -0.001486919 0)
(1.0248871 -0.0015791819 0)
(1.0256701 -0.001675051 0)
(1.0264959 -0.0017743431 0)
(1.0273654 -0.0018768124 0)
(1.0282792 -0.0019821422 0)
(1.0292377 -0.0020899373 0)
(1.0302412 -0.0021997154 0)
(1.0312893 -0.002310899 0)
(1.0323816 -0.0024228081 0)
(1.0335172 -0.0025346525 0)
(1.0346945 -0.002645526 0)
(1.0359117 -0.0027544015 0)
(1.0371664 -0.0028601287 0)
(1.0384554 -0.0029614332 0)
(1.0397753 -0.0030569192 0)
(1.0411215 -0.0031450764 0)
(1.0424893 -0.0032242894 0)
(1.0438729 -0.0032928535 0)
(1.045266 -0.0033489946 0)
(1.0466616 -0.003390895 0)
(1.0480521 -0.0034167256 0)
(1.0494292 -0.0034246832 0)
(1.0507843 -0.0034130358 0)
(1.052108 -0.0033801716 0)
(1.0533909 -0.0033246556 0)
(1.0546232 -0.0032452885 0)
(1.0557951 -0.0031411686 0)
(1.0568969 -0.0030117522 0)
(1.057919 -0.002856911 0)
(1.0588524 -0.002676981 0)
(1.0596886 -0.0024728009 0)
(1.0604198 -0.0022457352 0)
(1.0610393 -0.0019976823 0)
(1.0615414 -0.001731059 0)
(1.0619216 -0.001448769 0)
(1.0621767 -0.0011541462 0)
(1.0623051 -0.00085087212 0)
(1.0623068 -0.00054289751 0)
(1.062183 -0.00023423495 0)
(1.0619374 7.0924281e-05 0)
(1.0615737 0.00036954945 0)
(1.0611022 0.000655805 0)
(1.0605325 0.00092518559 0)
(1.0598739 0.001175864 0)
(1.0591364 0.0014039832 0)
(1.0583328 0.0016065898 0)
(1.0574768 0.0017809134 0)
(1.0565828 0.0019245349 0)
(1.0556661 0.0020350714 0)
(1.0547428 0.002110429 0)
(1.0538298 0.0021485632 0)
(1.0529455 0.0021475089 0)
(1.0521093 0.0021050349 0)
(1.0513432 0.0020185144 0)
(1.0506716 0.0018843347 0)
(1.0501234 0.0016975974 0)
(1.0497327 0.0014510926 0)
(1.0495416 0.0011349343 0)
(1.0496011 0.00073480366 0)
(1.0499753 0.00023186866 0)
(1.0507407 -0.00040047817 0)
(1.0519854 -0.0011945946 0)
(1.0538122 -0.0022023907 0)
(1.0563247 -0.0034977535 0)
(1.0595982 -0.0051843506 0)
(1.063664 -0.0073840746 0)
(1.0684277 -0.010266075 0)
(1.0736847 -0.014001365 0)
(1.07904 -0.018747823 0)
(1.0840231 -0.024533194 0)
(1.0879485 -0.031295504 0)
(1.0902846 -0.038664214 0)
(1.0903016 -0.046216052 0)
(1.0878438 -0.053101042 0)
(1.0822891 -0.058834807 0)
(1.0742182 -0.062197952 0)
(1.0628808 -0.063290559 0)
(1.049898 -0.059949667 0)
(1.0344526 -0.053891467 0)
(1.0187666 -0.040119691 0)
(1.0063725 -0.024001327 0)
(1.0181024 -0.0001076068 0)
(1.0181633 -0.00011099476 0)
(1.0181904 -0.00011843187 0)
(1.0182454 -0.00012548765 0)
(1.0182882 -0.00013400959 0)
(1.0183455 -0.0001435193 0)
(1.0183998 -0.00015383772 0)
(1.0184635 -0.00016542634 0)
(1.0185287 -0.00017781787 0)
(1.0186013 -0.00019151603 0)
(1.018678 -0.00020619223 0)
(1.0187617 -0.00022221716 0)
(1.0188513 -0.00023943148 0)
(1.0189483 -0.00025809204 0)
(1.0190526 -0.00027816022 0)
(1.0191651 -0.00029982564 0)
(1.0192862 -0.00032312532 0)
(1.0194168 -0.00034821694 0)
(1.0195573 -0.00037518422 0)
(1.0197086 -0.00040417416 0)
(1.0198714 -0.0004353006 0)
(1.0200467 -0.0004687112 0)
(1.0202351 -0.00050454079 0)
(1.0204378 -0.00054294289 0)
(1.0206555 -0.00058406774 0)
(1.0208895 -0.00062807619 0)
(1.0211407 -0.00067512963 0)
(1.0214103 -0.00072539505 0)
(1.0216994 -0.00077904055 0)
(1.0220095 -0.00083623593 0)
(1.0223416 -0.00089715039 0)
(1.0226972 -0.00096195097 0)
(1.0230777 -0.0010308002 0)
(1.0234845 -0.0011038549 0)
(1.0239191 -0.0011812608 0)
(1.024383 -0.0012631522 0)
(1.0248777 -0.0013496457 0)
(1.0254047 -0.0014408385 0)
(1.0259657 -0.0015368007 0)
(1.026562 -0.0016375731 0)
(1.0271953 -0.0017431584 0)
(1.027867 -0.0018535172 0)
(1.0285784 -0.0019685585 0)
(1.0293309 -0.0020881339 0)
(1.0301256 -0.0022120283 0)
(1.0309636 -0.0023399508 0)
(1.0318457 -0.0024715263 0)
(1.0327726 -0.0026062849 0)
(1.0337447 -0.0027436531 0)
(1.034762 -0.0028829433 0)
(1.0358244 -0.0030233447 0)
(1.0369313 -0.0031639152 0)
(1.0380816 -0.0033035729 0)
(1.0392738 -0.0034410909 0)
(1.040506 -0.0035750931 0)
(1.0417757 -0.0037040532 0)
(1.0430796 -0.0038262966 0)
(1.044414 -0.0039400073 0)
(1.0457746 -0.0040432384 0)
(1.0471561 -0.0041339287 0)
(1.0485527 -0.0042099252 0)
(1.0499581 -0.0042690122 0)
(1.051365 -0.0043089466 0)
(1.0527657 -0.0043275015 0)
(1.0541516 -0.0043225156 0)
(1.0555139 -0.0042919509 0)
(1.0568433 -0.0042339546 0)
(1.05813 -0.0041469276 0)
(1.0593641 -0.0040295947 0)
(1.0605356 -0.0038810769 0)
(1.0616348 -0.0037009585 0)
(1.0626519 -0.0034893518 0)
(1.0635779 -0.0032469467 0)
(1.0644043 -0.0029750522 0)
(1.0651233 -0.002675614 0)
(1.0657281 -0.0023512195 0)
(1.0662134 -0.0020050696 0)
(1.0665746 -0.0016409414 0)
(1.0668091 -0.0012631059 0)
(1.0669155 -0.00087625471 0)
(1.0668941 -0.00048535124 0)
(1.0667468 -9.5621767e-05 0)
(1.0664773 0.00028791002 0)
(1.0660916 0.00065936485 0)
(1.0655976 0.0010136055 0)
(1.0650029 0.0013457737 0)
(1.0643176 0.0016508532 0)
(1.0635534 0.0019253166 0)
(1.0627226 0.0021657811 0)
(1.0618388 0.0023688682 0)
(1.0609168 0.0025314872 0)
(1.0599719 0.0026506799 0)
(1.0590205 0.00272374 0)
(1.0580797 0.0027479125 0)
(1.0571678 0.0027203372 0)
(1.0563044 0.0026375662 0)
(1.0555111 0.0024952962 0)
(1.0548119 0.0022875811 0)
(1.0542344 0.002006318 0)
(1.0538109 0.0016400349 0)
(1.0535799 0.0011733321 0)
(1.0535868 0.00058531123 0)
(1.0538866 -0.00015041003 0)
(1.0545413 -0.0010670454 0)
(1.0556242 -0.0022055573 0)
(1.0572076 -0.0036166758 0)
(1.0593562 -0.0053542667 0)
(1.0620954 -0.0074890068 0)
(1.0654062 -0.010099141 0)
(1.0691677 -0.013282597 0)
(1.073161 -0.017109066 0)
(1.076996 -0.021637412 0)
(1.0802254 -0.026828295 0)
(1.0822362 -0.032584868 0)
(1.0825623 -0.038580006 0)
(1.0806178 -0.044479889 0)
(1.0763352 -0.049608895 0)
(1.0693667 -0.053627639 0)
(1.06035 -0.055567825 0)
(1.0490628 -0.055580575 0)
(1.0368967 -0.051982641 0)
(1.0239633 -0.046081059 0)
(1.0116659 -0.034295372 0)
(1.0034099 -0.019779442 0)
(1.0188977 -0.00013150573 0)
(1.0189591 -0.000138192 0)
(1.0189854 -0.00014760236 0)
(1.0190404 -0.00015729562 0)
(1.0190827 -0.00016833628 0)
(1.0191397 -0.00018057366 0)
(1.0191937 -0.00019382485 0)
(1.019257 -0.00020852527 0)
(1.0193219 -0.00022430798 0)
(1.0193942 -0.00024162459 0)
(1.0194706 -0.00026022727 0)
(1.019554 -0.0002804613 0)
(1.0196432 -0.00030222289 0)
(1.0197398 -0.00032576697 0)
(1.0198437 -0.00035109592 0)
(1.0199558 -0.00037841224 0)
(1.0200765 -0.00040778764 0)
(1.0202066 -0.00043940167 0)
(1.0203466 -0.00047337096 0)
(1.0204974 -0.00050987008 0)
(1.0206597 -0.0005490463 0)
(1.0208344 -0.00059107873 0)
(1.0210223 -0.00063613695 0)
(1.0212243 -0.00068440871 0)
(1.0214414 -0.00073608034 0)
(1.0216747 -0.00079134864 0)
(1.0219253 -0.00085041191 0)
(1.0221942 -0.0009134737 0)
(1.0224827 -0.00098073875 0)
(1.022792 -0.0010524125 0)
(1.0231235 -0.0011286989 0)
(1.0234784 -0.0012097978 0)
(1.0238582 -0.0012959024 0)
(1.0242644 -0.0013871969 0)
(1.0246984 -0.0014838503 0)
(1.0251617 -0.0015860158 0)
(1.0256559 -0.0016938224 0)
(1.0261826 -0.0018073729 0)
(1.0267433 -0.0019267344 0)
(1.0273395 -0.0020519351 0)
(1.0279728 -0.0021829535 0)
(1.0286446 -0.0023197133 0)
(1.0293565 -0.0024620714 0)
(1.0301097 -0.0026098113 0)
(1.0309054 -0.0027626308 0)
(1.0317447 -0.0029201318 0)
(1.0326285 -0.0030818094 0)
(1.0335576 -0.00324704 0)
(1.0345323 -0.0034150696 0)
(1.0355529 -0.0035850032 0)
(1.0366191 -0.0037557929 0)
(1.0377304 -0.0039262294 0)
(1.038886 -0.0040949331 0)
(1.0400843 -0.0042603481 0)
(1.0413234 -0.0044207396 0)
(1.0426008 -0.0045741933 0)
(1.0439134 -0.0047186209 0)
(1.0452576 -0.0048517693 0)
(1.0466289 -0.0049712365 0)
(1.0480221 -0.0050744944 0)
(1.0494316 -0.005158918 0)
(1.0508508 -0.0052218239 0)
(1.0522724 -0.0052605158 0)
(1.0536886 -0.0052723395 0)
(1.0550909 -0.0052547453 0)
(1.0564701 -0.0052053583 0)
(1.0578168 -0.0051220549 0)
(1.059121 -0.0050030446 0)
(1.0603726 -0.0048469529 0)
(1.0615614 -0.0046529052 0)
(1.062677 -0.0044206035 0)
(1.0637097 -0.0041503988 0)
(1.06465 -0.0038433446 0)
(1.0654889 -0.0035012406 0)
(1.0662185 -0.0031266462 0)
(1.0668317 -0.0027228829 0)
(1.0673227 -0.0022939932 0)
(1.067687 -0.0018446952 0)
(1.0679216 -0.0013802828 0)
(1.0680252 -0.00090653803 0)
(1.0679979 -0.00042958857 0)
(1.067842 4.4211734e-05 0)
(1.0675613 0.00050832014 0)
(1.0671616 0.00095639113 0)
(1.06665 0.0013817902 0)
(1.0660351 0.0017787351 0)
(1.0653269 0.0021422643 0)
(1.0645368 0.0024672282 0)
(1.0636777 0.0027492384 0)
(1.0627636 0.0029841412 0)
(1.0618095 0.0031683009 0)
(1.0608309 0.0032982171 0)
(1.0598444 0.0033706645 0)
(1.058867 0.0033822693 0)
(1.0579169 0.0033294356 0)
(1.0570133 0.0032077412 0)
(1.0561766 0.0030116039 0)
(1.0554295 0.0027333614 0)
(1.0547971 0.0023626587 0)
(1.0543075 0.0018851483 0)
(1.053993 0.0012819003 0)
(1.0538901 0.00052795035 0)
(1.0540405 -0.00040717979 0)
(1.0544888 -0.0015609525 0)
(1.0552828 -0.0029741562 0)
(1.056462 -0.0046920149 0)
(1.0580564 -0.0067580327 0)
(1.0600617 -0.0092157419 0)
(1.0624338 -0.012095581 0)
(1.0650419 -0.015427985 0)
(1.0676854 -0.019214849 0)
(1.0700386 -0.023443877 0)
(1.0717429 -0.028022669 0)
(1.0723202 -0.032834109 0)
(1.0714287 -0.037592105 0)
(1.0686465 -0.042038207 0)
(1.0639777 -0.045637137 0)
(1.0572321 -0.048143382 0)
(1.0489686 -0.048770332 0)
(1.0391589 -0.047637745 0)
(1.0288323 -0.043460967 0)
(1.0183382 -0.037225612 0)
(1.0084892 -0.026816486 0)
(1.0022141 -0.014403004 0)
(1.0190218 -0.00015496945 0)
(1.0190828 -0.00016462429 0)
(1.0191084 -0.0001758973 0)
(1.0191628 -0.00018820304 0)
(1.0192043 -0.00020168106 0)
(1.0192606 -0.00021663398 0)
(1.0193138 -0.00023274652 0)
(1.0193763 -0.00025051573 0)
(1.0194404 -0.00026961205 0)
(1.0195118 -0.00029047691 0)
(1.0195872 -0.00031291619 0)
(1.0196696 -0.00033726759 0)
(1.0197578 -0.00036347158 0)
(1.0198533 -0.00039178838 0)
(1.019956 -0.00042225649 0)
(1.0200668 -0.00045509408 0)
(1.0201861 -0.00049040525 0)
(1.0203148 -0.00052839229 0)
(1.0204532 -0.00056920359 0)
(1.0206024 -0.00061304135 0)
(1.020763 -0.00066008554 0)
(1.0209358 -0.00071054651 0)
(1.0211217 -0.00076462804 0)
(1.0213217 -0.0008225518 0)
(1.0215367 -0.0008845398 0)
(1.0217676 -0.00095082456 0)
(1.0220158 -0.001021641 0)
(1.0222821 -0.001097229 0)
(1.022568 -0.0011778299 0)
(1.0228745 -0.0012636847 0)
(1.0232031 -0.0013550324 0)
(1.023555 -0.0014521057 0)
(1.0239317 -0.001555129 0)
(1.0243347 -0.0016643144 0)
(1.0247654 -0.0017798552 0)
(1.0252254 -0.0019019243 0)
(1.0257162 -0.0020306644 0)
(1.0262395 -0.0021661855 0)
(1.0267967 -0.0023085535 0)
(1.0273896 -0.0024577864 0)
(1.0280196 -0.0026138407 0)
(1.0286883 -0.0027766063 0)
(1.0293971 -0.0029458914 0)
(1.0301475 -0.0031214147 0)
(1.0309407 -0.0033027913 0)
(1.0317778 -0.0034895202 0)
(1.0326599 -0.0036809717 0)
(1.0335878 -0.0038763731 0)
(1.0345619 -0.004074796 0)
(1.0355825 -0.0042751428 0)
(1.0366497 -0.0044761346 0)
(1.0377629 -0.0046763004 0)
(1.0389212 -0.0048739681 0)
(1.0401235 -0.0050672579 0)
(1.0413679 -0.0052540804 0)
(1.0426519 -0.005432137 0)
(1.0439727 -0.0055989277 0)
(1.0453265 -0.0057517634 0)
(1.0467091 -0.0058877864 0)
(1.0481155 -0.0060039986 0)
(1.0495397 -0.0060972988 0)
(1.0509755 -0.0061645288 0)
(1.0524154 -0.0062025294 0)
(1.0538516 -0.0062082073 0)
(1.0552754 -0.0061786094 0)
(1.0566776 -0.0061110075 0)
(1.0580485 -0.0060029878 0)
(1.0593777 -0.0058525475 0)
(1.0606549 -0.0056581906 0)
(1.0618695 -0.0054190248 0)
(1.0630108 -0.0051348481 0)
(1.0640684 -0.0048062309 0)
(1.0650325 -0.0044345737 0)
(1.0658935 -0.0040221558 0)
(1.066643 -0.0035721448 0)
(1.0672734 -0.0030885982 0)
(1.0677785 -0.0025764077 0)
(1.0681534 -0.0020412494 0)
(1.0683947 -0.0014894555 0)
(1.0685008 -0.0009279294 0)
(1.0684718 -0.00036394019 0)
(1.0683099 0.00019492352 0)
(1.0680186 0.00074104442 0)
(1.0676039 0.001266666 0)
(1.0670729 0.0017645247 0)
(1.0664343 0.0022276937 0)
(1.0656989 0.0026497251 0)
(1.0648784 0.0030249461 0)
(1.063986 0.0033482524 0)
(1.0630359 0.0036149056 0)
(1.0620431 0.0038207114 0)
(1.0610235 0.0039616789 0)
(1.0599935 0.004034122 0)
(1.0589701 0.0040341609 0)
(1.0579708 0.0039576283 0)
(1.057014 0.0037993588 0)
(1.0561191 0.0035528235 0)
(1.0553063 0.003209116 0)
(1.0545976 0.0027563175 0)
(1.0540167 0.002178204 0)
(1.0535894 0.0014537326 0)
(1.0533429 0.00055595382 0)
(1.0533067 -0.00054720513 0)
(1.053509 -0.0018928292 0)
(1.0539765 -0.0035191639 0)
(1.0547257 -0.0054634052 0)
(1.0557603 -0.0077528232 0)
(1.0570522 -0.010406259 0)
(1.0585421 -0.013421639 0)
(1.0601064 -0.016784794 0)
(1.0615741 -0.020445695 0)
(1.0626823 -0.024343373 0)
(1.0631574 -0.02835882 0)
(1.0626427 -0.032371468 0)
(1.060901 -0.036144271 0)
(1.0576373 -0.039492251 0)
(1.0528913 -0.04201529 0)
(1.046567 -0.043561648 0)
(1.039127 -0.043527458 0)
(1.0306688 -0.042017807 0)
(1.0219793 -0.038048557 0)
(1.0135799 -0.032285414 0)
(1.0059879 -0.023281714 0)
(1.0014056 -0.012313305 0)
(1.0190331 -0.00017859086 0)
(1.0190933 -0.0001909846 0)
(1.0191183 -0.0002041406 0)
(1.0191718 -0.00021903835 0)
(1.0192124 -0.00023493287 0)
(1.0192678 -0.00025261907 0)
(1.0193201 -0.00027158234 0)
(1.0193815 -0.0002924362 0)
(1.0194445 -0.000314844 0)
(1.0195147 -0.00033926763 0)
(1.0195889 -0.0003655456 0)
(1.01967 -0.00039402232 0)
(1.0197567 -0.00042467356 0)
(1.0198507 -0.00045777116 0)
(1.0199518 -0.00049338623 0)
(1.0200609 -0.00053175544 0)
(1.0201784 -0.00057301413 0)
(1.0203051 -0.0006173888 0)
(1.0204415 -0.00066505939 0)
(1.0205884 -0.00071625679 0)
(1.0207467 -0.00077119392 0)
(1.020917 -0.00083011332 0)
(1.0211003 -0.00089325361 0)
(1.0212974 -0.00096087133 0)
(1.0215094 -0.0010332252 0)
(1.0217373 -0.0011105844 0)
(1.0219821 -0.0011932219 0)
(1.022245 -0.0012814154 0)
(1.0225272 -0.0013754442 0)
(1.0228299 -0.0014755869 0)
(1.0231545 -0.0015821193 0)
(1.0235023 -0.0016953093 0)
(1.0238748 -0.0018154148 0)
(1.0242733 -0.0019426785 0)
(1.0246995 -0.002077321 0)