/*--------------------------------*- C++ -*----------------------------------*\
| =========                 |                                                 |
| \\      /  F ield         | foam-extend: Open Source CFD                    |
|  \\    /   O peration     | Version:     4.1                                |
|   \\  /    A nd           | Web:         http://www.foam-extend.org         |
|    \\/     M anipulation  |                                                 |
\*---------------------------------------------------------------------------*/
FoamFile
{
    version     2.0;
    format      ascii;
    class       volScalarField;
    location    "1.8";
    object      p;
}
// * * * * * * * * * * * * * * * * * * * * * * * * * * * * * * * * * * * * * //

dimensions      [0 2 -2 0 0 0 0];

internalField   nonuniform List<scalar> 
16126
(
-0.0001126464
7.0925784e-05
-0.00018486093
-4.931773e-05
-0.0002793814
-0.00022731235
-0.00043270604
-0.00046450852
-0.00066610427
-0.00077432808
-0.0009944491
-0.0011739867
-0.0014312842
-0.0016811105
-0.0019903139
-0.0023125898
-0.0026853361
-0.0030840358
-0.0035295479
-0.0040092006
-0.0045345754
-0.0050992057
-0.0057093132
-0.0063614556
-0.0070584085
-0.0077979883
-0.008580624
-0.0094045435
-0.010268279
-0.011170528
-0.012106839
-0.013075382
-0.014070799
-0.01509366
-0.016140177
-0.017202427
-0.018280648
-0.01937023
-0.020467954
-0.021567451
-0.022664708
-0.023753918
-0.024830241
-0.025888017
-0.026922065
-0.027926853
-0.028897103
-0.029827412
-0.030712513
-0.031547096
-0.032325907
-0.033043648
-0.033694993
-0.034274524
-0.034776709
-0.035195857
-0.035526091
-0.035761321
-0.035895236
-0.035921308
-0.035832808
-0.03562286
-0.035284497
-0.034810763
-0.034194816
-0.033430088
-0.032510425
-0.031430294
-0.030184957
-0.0287707
-0.027184996
-0.025426732
-0.023496312
-0.021395824
-0.01912904
-0.016701489
-0.014120307
-0.01139422
-0.0085332406
-0.0055485988
-0.0024523382
0.00074275605
0.0040236017
0.0073768369
0.01078925
0.014247735
0.017739666
0.021252818
0.024775655
0.028297283
0.031807584
0.035297328
0.038757975
0.042182214
0.04556307
0.048895372
0.052173449
0.055394575
0.058553749
0.061651388
0.064681951
0.067650867
0.070549987
0.073394715
0.076170944
0.078916664
0.081606143
0.084330274
0.087039831
0.08994697
0.092944745
0.096511751
0.10036846
0.10556001
0.11126016
0.11974619
0.12851891
0.14287472
0.15532258
0.18011767
0.19370319
0.24403199
0.24019932
0.40922927
-0.00011623264
7.1928119e-05
-0.00019271444
-5.4609565e-05
-0.00028849795
-0.00023693763
-0.00044394165
-0.00047732455
-0.00067991267
-0.00078989335
-0.001010962
-0.0011921694
-0.0014504946
-0.0017018448
-0.0020121387
-0.0023358065
-0.0027096649
-0.0031096258
-0.0035561906
-0.0040369061
-0.0045631012
-0.00512838
-0.0057387341
-0.0063907788
-0.0070872751
-0.0078262484
-0.008608301
-0.0094315738
-0.010293716
-0.011192745
-0.01212461
-0.01309064
-0.014087059
-0.015103522
-0.016134039
-0.017187983
-0.018263217
-0.019345677
-0.020435288
-0.021526186
-0.022614453
-0.023694284
-0.024760856
-0.025808569
-0.026832309
-0.027826639
-0.028786377
-0.029706232
-0.030581053
-0.031405657
-0.032174916
-0.032883662
-0.033526694
-0.034098716
-0.034594305
-0.035007868
-0.035333606
-0.035565488
-0.035697238
-0.035722336
-0.035634034
-0.035425411
-0.035089425
-0.034619022
-0.034007241
-0.033247374
-0.032333119
-0.031258789
-0.030019492
-0.028611369
-0.027031764
-0.025279452
-0.023354747
-0.021259669
-0.01899794
-0.016575052
-0.013998105
-0.011275789
-0.0084180677
-0.0054361025
-0.0023418456
0.00085203082
0.0041325823
0.0074865969
0.010901026
0.014362926
0.017859843
0.021379716
0.024911186
0.02844353
0.031966823
0.03547204
0.038950885
0.042396317
0.045801713
0.049162284
0.052472904
0.055731415
0.058933689
0.062080986
0.06516915
0.068204784
0.071181895
0.074117266
0.076999991
0.079868986
0.082702975
0.08559135
0.08849086
0.091605174
0.094836449
0.098638865
0.102753
0.1081664
0.11411083
0.12272955
0.13169893
0.14593955
0.15855214
0.18217226
0.19639202
0.23659026
0.24457358
0.30451422
-0.00014119847
8.8114428e-05
-0.00020389749
-4.7725047e-05
-0.00028932435
-0.00023222709
-0.00043931584
-0.00047149603
-0.00067204687
-0.00078178838
-0.0010005396
-0.0011813814
-0.0014375647
-0.0016881936
-0.0019965208
-0.0023190767
-0.0026909988
-0.0030894755
-0.0035340249
-0.0040129522
-0.0045371045
-0.0051005703
-0.005709348
-0.006360311
-0.0070559304
-0.0077938456
-0.0085740483
-0.009394214
-0.010253987
-0.011153845
-0.012089439
-0.013054228
-0.014033888
-0.015045572
-0.01609558
-0.017158731
-0.01823332
-0.019317906
-0.020409265
-0.021502257
-0.022592602
-0.023674703
-0.024743679
-0.025793991
-0.026820514
-0.027817839
-0.028780796
-0.02970412
-0.030582682
-0.031411332
-0.032184966
-0.032898446
-0.033546597
-0.03412414
-0.034625664
-0.035045577
-0.035378066
-0.035617074
-0.035756282
-0.035789108
-0.035708726
-0.035508117
-0.035180126
-0.034717571
-0.034113344
-0.033360587
-0.032452835
-0.031384239
-0.030149745
-0.028745342
-0.027168234
-0.02541708
-0.0234921
-0.021395251
-0.019130227
-0.016702525
-0.014119284
-0.011389264
-0.0085225206
-0.0055303355
-0.0024247859
0.00078131051
0.0040748689
0.0074425268
0.010871109
0.014347539
0.017859256
0.021394082
0.02494057
0.028487887
0.032026033
0.035545863
0.039039018
0.042498315
0.045917083
0.049290358
0.05261301
0.055882633
0.05909522
0.062251691
0.065348426
0.068391666
0.071377072
0.074321271
0.077217711
0.080105616
0.082973729
0.085911503
0.088895777
0.092124451
0.095534499
0.09954808
0.10395974
0.10964542
0.11593083
0.12465232
0.13374511
0.14734243
0.15954094
0.18062944
0.19451494
0.22767006
0.24073212
0.28445091
-0.00020272061
0.00010781675
-0.00023560462
-4.8659733e-05
-0.00030659952
-0.00024019015
-0.00045043763
-0.00048052936
-0.00068010632
-0.00078957996
-0.0010063937
-0.0011870392
-0.0014411643
-0.0016911341
-0.0019973911
-0.0023188122
-0.0026886812
-0.0030856548
-0.0035281207
-0.0040052256
-0.0045270577
-0.0050880507
-0.0056932654
-0.006339687
-0.0070295521
-0.007761364
-0.008537011
-0.0093554108
-0.010212508
-0.01110305
-0.01201707
-0.012968346
-0.013969367
-0.014992339
-0.016025847
-0.017078993
-0.018148358
-0.019227411
-0.020313448
-0.021401047
-0.022486154
-0.023563279
-0.024627637
-0.025673806
-0.026696756
-0.027691199
-0.02865207
-0.029574225
-0.030452644
-0.03128228
-0.032058127
-0.032775125
-0.03342816
-0.034011991
-0.034521214
-0.034950218
-0.035293135
-0.035543816
-0.035695814
-0.035742386
-0.035676507
-0.035490931
-0.035178248
-0.034731004
-0.034141801
-0.03340349
-0.032509314
-0.03145314
-0.030229652
-0.028834602
-0.027264982
-0.025519276
-0.023597561
-0.02150169
-0.019235275
-0.016803767
-0.01421427
-0.011475543
-0.008597634
-0.0055918488
-0.0024702771
0.00075421725
0.0040685347
0.0074592538
0.010913152
0.01441707
0.017958392
0.021524857
0.025104995
0.028687928
0.032263714
0.035823262
0.039358415
0.0428622
0.04632837
0.049752358
0.053129801
0.056458991
0.059737291
0.062966712
0.066145951
0.069282754
0.072376581
0.075445628
0.078489253
0.081546886
0.084615842
0.087780255
0.091028583
0.094538048
0.098261862
0.10256593
0.10727565
0.11313561
0.11955907
0.12808485
0.13693743
0.14948821
0.16083585
0.17880159
0.19112706
0.21479342
0.2258465
0.24391348
-0.00031005254
0.00013822762
-0.00028058542
-4.337305e-05
-0.00032366419
-0.00024002472
-0.0004540621
-0.00047820445
-0.00067566525
-0.0007823705
-0.00099536215
-0.0011735797
-0.0014234286
-0.0016704974
-0.0019722234
-0.0022898791
-0.0026546479
-0.0030467277
-0.0034831562
-0.0039539775
-0.0044685496
-0.0050218706
-0.0056198552
-0.0062603103
-0.0069453246
-0.0076723796
-0.0084399682
-0.0092417424
-0.010079305
-0.010962694
-0.011895889
-0.012859253
-0.013839029
-0.014847042
-0.015881834
-0.016934488
-0.018001835
-0.019079968
-0.020165433
-0.021253535
-0.022340054
-0.023419834
-0.02448815
-0.025539763
-0.026569735
-0.027572894
-0.028544253
-0.029478736
-0.030371357
-0.031217083
-0.032010883
-0.03274764
-0.033422142
-0.03402901
-0.03456266
-0.035017258
-0.035386677
-0.035664469
-0.035843861
-0.035917757
-0.035878759
-0.035719245
-0.035431421
-0.035007459
-0.034439605
-0.033720372
-0.0328427
-0.031800187
-0.030587286
-0.029199552
-0.027633825
-0.025888468
-0.023963469
-0.021860622
-0.0195835
-0.017137549
-0.01452988
-0.011769301
-0.0088659209
-0.0058311748
-0.0026772862
0.00058266232
0.0039353226
0.0073669477
0.010864023
0.014413025
0.018001033
0.021615416
0.02524442
0.028876825
0.032502452
0.036111911
0.039696882
0.043250149
0.046765431
0.050238048
0.053663846
0.057041084
0.060367654
0.06364564
0.066874923
0.070063438
0.073213078
0.076342266
0.079455092
0.082590544
0.085754448
0.089027006
0.092410535
0.096066347
0.099968509
0.10443442
0.10932412
0.11525832
0.12173606
0.13000893
0.13858956
0.15016401
0.16082939
0.17653233
0.18824223
0.20754367
0.21884747
0.23115722
-0.00045967454
0.00017325917
-0.00034455716
-4.3621114e-05
-0.00035503759
-0.0002493989
-0.00047021
-0.00048608553
-0.00068205202
-0.00078441949
-0.00099335368
-0.0011678979
-0.0014126741
-0.001655392
-0.0019512579
-0.002263666
-0.0026220954
-0.0030081939
-0.0034379453
-0.0039023753
-0.0044102
-0.0049569651
-0.0055461863
-0.0061750093
-0.0068436983
-0.0075507602
-0.0083030654
-0.0091050671
-0.0099508703
-0.010828594
-0.0117347
-0.012674892
-0.013650551
-0.014652031
-0.015673598
-0.016715026
-0.017772811
-0.01884264
-0.019921155
-0.021003681
-0.022086211
-0.02316382
-0.024232006
-0.025285767
-0.026320359
-0.027330804
-0.028312255
-0.029259759
-0.030168391
-0.031033141
-0.031848937
-0.032610564
-0.033312648
-0.033949585
-0.034515501
-0.035004217
-0.035409201
-0.035723559
-0.035940028
-0.036050996
-0.036048534
-0.035924478
-0.035670505
-0.035278274
-0.034739547
-0.034046399
-0.033191373
-0.032167727
-0.030969622
-0.029592386
-0.028032668
-0.026288698
-0.024360354
-0.022249362
-0.019959239
-0.017495412
-0.014864975
-0.012076769
-0.0091409424
-0.006069044
-0.0028734155
0.00043261846
0.0038355456
0.0073213118
0.010876075
0.014485881
0.018137418
0.021817573
0.025514216
0.029215691
0.032911559
0.036592142
0.040249078
0.043875134
0.04746426
0.051011928
0.054514518
0.057970752
0.061379605
0.06474391
0.068065301
0.071352586
0.074610282
0.077857167
0.081100891
0.084378556
0.087700304
0.091138205
0.094699422
0.098522708
0.1025892
0.10716383
0.11212663
0.11798542
0.12431182
0.1321092
0.14013858
0.15047431
0.16001015
0.17301061
0.18288529
0.19681502
0.20539063
0.21155933
-0.00063544598
0.00021918301
-0.00041391611
-3.6084242e-05
-0.00038111235
-0.00024720402
-0.00047536847
-0.00047964208
-0.00067393772
-0.00076984521
-0.0009736952
-0.0011426062
-0.0013809398
-0.0016177125
-0.0019064242
-0.0022117939
-0.0025617713
-0.0029390553
-0.0033584314
-0.0038114026
-0.0043054871
-0.0048356849
-0.0054093499
-0.0060262441
-0.0066888779
-0.0073962835
-0.0081421876
-0.0089234508
-0.0097432534
-0.010602798
-0.011502279
-0.012434334
-0.013393301
-0.014380403
-0.015392713
-0.016425914
-0.017476772
-0.018541529
-0.019616762
-0.020698332
-0.021782338
-0.022864255
-0.023939784
-0.025004211
-0.026052974
-0.02708127
-0.028084353
-0.029057318
-0.029995217
-0.030892945
-0.031745259
-0.032546692
-0.033291543
-0.033973805
-0.034587135
-0.035124817
-0.035579736
-0.035944371
-0.036210803
-0.036370753
-0.036415622
-0.036336593
-0.036124715
-0.035771061
-0.03526686
-0.034603713
-0.033773751
-0.032769895
-0.03158603
-0.030217278
-0.02866013
-0.026912719
-0.024974855
-0.022848249
-0.020536414
-0.018044833
-0.015380658
-0.012552874
-0.0095717715
-0.0064491798
-0.0031976989
0.00016893961
0.0036367043
0.0071908728
0.010817048
0.014500557
0.018227503
0.021984055
0.025757526
0.029535592
0.033307339
0.0370625
0.040792333
0.044489081
0.048146465
0.051759763
0.055325537
0.058842453
0.062309919
0.065730885
0.069107966
0.07245013
0.075763653
0.079067238
0.082371428
0.085711974
0.089103433
0.092612388
0.096252303
0.10014559
0.10428306
0.10888846
0.11386357
0.11962257
0.12580667
0.13321288
0.14083461
0.15026661
0.15911087
0.17044541
0.17954717
0.19093905
0.198735
0.20288472
-0.00081955561
0.00026816287
-0.00048902648
-2.9515965e-05
-0.00041460978
-0.00025008114
-0.00048702251
-0.00047753883
-0.0006695169
-0.00075675323
-0.00095478538
-0.001116396
-0.0013470666
-0.0015756118
-0.001854725
-0.0021505072
-0.0024900096
-0.002856826
-0.0032651995
-0.0037076406
-0.0041922439
-0.0047164781
-0.0052813675
-0.0058836759
-0.0065265121
-0.007209229
-0.0079343509
-0.0087019984
-0.0095099965
-0.010353799
-0.011231446
-0.012142975
-0.013086994
-0.014059307
-0.015056412
-0.016076154
-0.017115426
-0.018170853
-0.019239242
-0.020316742
-0.02139975
-0.022484076
-0.023565721
-0.024640265
-0.025703377
-0.026750451
-0.027776853
-0.028777733
-0.029748104
-0.030682745
-0.0315762
-0.032422704
-0.033216167
-0.033950111
-0.03461764
-0.035211424
-0.035723669
-0.036146136
-0.036470155
-0.036686679
-0.036786341
-0.036759572
-0.036596696
-0.036288107
-0.035824406
-0.035196633
-0.034396426
-0.033416294
-0.032249775
-0.030891726
-0.029338432
-0.027587894
-0.025639823
-0.023495911
-0.021159665
-0.018636645
-0.015934088
-0.013061175
-0.010028397
-0.006847923
-0.0035327109
-9.712903e-05
0.0034444833
0.007076844
0.010784887
0.014553156
0.018367021
0.022211779
0.026074056
0.029940709
0.033800289
0.037641911
0.041456608
0.045236517
0.048975509
0.052668753
0.056313026
0.059907235
0.063451568
0.066949373
0.070404325
0.073825744
0.077221279
0.080609188
0.08400149
0.087431228
0.090914136
0.094508837
0.098229551
0.10217982
0.10635275
0.11093178
0.11583193
0.12138401
0.12728431
0.1341508
0.1411612
0.14949763
0.15730212
0.16669215
0.17431896
0.1828647
0.18890967
0.19147915
-0.00099477083
0.0003183352
-0.00055590563
-1.2368593e-05
-0.00043424306
-0.00023616593
-0.000481891
-0.0004570179
-0.00064770807
-0.00072563135
-0.00091733259
-0.0010703586
-0.0012926953
-0.0015127935
-0.0017832487
-0.002069888
-0.0023988941
-0.0027545056
-0.0031501776
-0.0035785996
-0.004046839
-0.0045516894
-0.005097924
-0.0056844258
-0.006313088
-0.0069828165
-0.0076920182
-0.0084393352
-0.0092254502
-0.010049659
-0.01091121
-0.011806813
-0.012733623
-0.013690445
-0.014674701
-0.015683615
-0.016714431
-0.01776412
-0.018829712
-0.019907816
-0.020995095
-0.022087762
-0.023182088
-0.02427395
-0.025359211
-0.026433422
-0.027492011
-0.028530113
-0.029542631
-0.030524145
-0.031468898
-0.032370737
-0.033223086
-0.034018901
-0.034750644
-0.035410272
-0.03598923
-0.036478472
-0.036868499
-0.037149422
-0.037311037
-0.037342959
-0.037234728
-0.036976007
-0.03655672
-0.035967306
-0.03519887
-0.034243476
-0.03309429
-0.031745889
-0.030194336
-0.028437504
-0.026475025
-0.024308601
-0.021941781
-0.019380277
-0.016631499
-0.013704937
-0.010611379
-0.0073635473
-0.0039748034
-0.00046002894
0.0031655004
0.0068853258
0.01068365
0.014543945
0.018450841
0.022388629
0.026343261
0.030300715
0.034249005
0.03817652
0.042073853
0.045932279
0.049745193
0.053507622
0.057216734
0.060871343
0.064471899
0.068021866
0.071525711
0.07499275
0.078431755
0.081860638
0.085292852
0.088759698
0.092278675
0.095902958
0.099648991
0.10360647
0.10777286
0.11230029
0.11711843
0.12249154
0.12816849
0.13462641
0.14120907
0.14878941
0.15595932
0.16416371
0.17105183
0.17811885
0.18338762
0.18516443
-0.0011480906
0.00036535277
-0.00061943743
2.2573862e-06
-0.00045635244
-0.00022546724
-0.00047933219
-0.0004378214
-0.00062540728
-0.00069195963
-0.0008766098
-0.0010198398
-0.0012328984
-0.0014423996
-0.0017014025
-0.0019761992
-0.0022927464
-0.0026356397
-0.0030180578
-0.0034331848
-0.0038879433
-0.00437947
-0.0049104459
-0.0054791438
-0.0060877162
-0.0067356686
-0.0074241861
-0.0081526989
-0.0089204127
-0.0097252938
-0.010566171
-0.011442042
-0.01235137
-0.013291879
-0.014261241
-0.015257418
-0.016277994
-0.017320394
-0.018381993
-0.019459783
-0.020550773
-0.021651535
-0.022758647
-0.023868267
-0.024976469
-0.026078955
-0.027171217
-0.028248375
-0.029305222
-0.030336129
-0.031335037
-0.032295393
-0.033210128
-0.034071618
-0.034871664
-0.035601493
-0.036251759
-0.03681258
-0.037273581
-0.037623989
-0.037852702
-0.037948457
-0.037899937
-0.037695994
-0.037325791
-0.036779076
-0.036046333
-0.035119097
-0.033990071
-0.03265348
-0.031105098
-0.029342623
-0.027365559
-0.025175611
-0.022776357
-0.020173696
-0.017375218
-0.014390798
-0.011231605
-0.0079108716
-0.0044425889
-0.00084303375
0.0028723662
0.0066866515
0.010582932
0.014543623
0.018552363
0.022592241
0.026648322
0.03070542
0.034750826
0.03877192
0.042758923
0.046703286
0.050598869
0.054440256
0.058224285
0.061949874
0.065618252
0.069233002
0.072799081
0.076325909
0.079822811
0.08330685
0.086791795
0.090306099
0.093866888
0.097520404
0.10128206
0.1052267
0.10935201
0.11378033
0.11845038
0.12356752
0.12892097
0.13486767
0.14088015
0.14757901
0.15389665
0.16077826
0.16660285
0.17214154
0.1763829
0.17770037
-0.0012748412
0.0004107608
-0.00066910446
2.5045218e-05
-0.00046497044
-0.00020163276
-0.00046215408
-0.00040354629
-0.00058798974
-0.00064275386
-0.00081980554
-0.00095235868
-0.0011556074
-0.0013542556
-0.0016021002
-0.0018649284
-0.0021685717
-0.0024977119
-0.0028651871
-0.0032643048
-0.0037017264
-0.0041747663
-0.0046872249
-0.0052380299
-0.0058289246
-0.0064591651
-0.0071287673
-0.0078370436
-0.0085841874
-0.0093694485
-0.01019218
-0.011050747
-0.011943567
-0.01286937
-0.013826344
-0.01481263
-0.015826197
-0.016864841
-0.017926271
-0.019007895
-0.020107044
-0.02122066
-0.022345596
-0.02347828
-0.024614963
-0.025751471
-0.02688333
-0.028005613
-0.029112967
-0.03019953
-0.031258909
-0.032284122
-0.033267581
-0.034201054
-0.035075653
-0.035881847
-0.036609465
-0.037247754
-0.03778543
-0.038210786
-0.038511779
-0.038676216
-0.038691867
-0.038546718
-0.038229105
-0.037728032
-0.037033295
-0.036135844
-0.035027867
-0.033703195
-0.032157273
-0.030387607
-0.028393563
-0.026176866
-0.023741154
-0.021092558
-0.018238941
-0.015190638
-0.01195921
-0.008558906
-0.0050041521
-0.0013111451
0.0025030151
0.0064191097
0.010419689
0.014485717
0.018600082
0.022744604
0.026903667
0.031061048
0.0352036
0.03931803
0.043394406
0.047422529
0.051394939
0.055306346
0.059154909
0.062939316
0.066660523
0.070322228
0.073930261
0.077493665
0.081022492
0.084533277
0.088040252
0.091570045
0.095140054
0.098791626
0.10254041
0.10645017
0.11052044
0.1148506
0.11938951
0.12429677
0.12939938
0.13496275
0.14057054
0.14665788
0.15242616
0.15846899
0.16367504
0.16832602
0.17197876
0.17293566
-0.001374694
0.00045041841
-0.00070993099
4.6879346e-05
-0.00047076686
-0.00017744472
-0.00044311336
-0.00036727386
-0.00054732794
-0.00058928885
-0.00075783036
-0.0008786829
-0.0010711383
-0.0012575438
-0.0014928445
-0.0017424343
-0.002032294
-0.0023471649
-0.0026997961
-0.0030836626
-0.0035052505
-0.0039618906
-0.0044567267
-0.0049886423
-0.0055595458
-0.0061691132
-0.0068182924
-0.0075066999
-0.0082342417
-0.0090000156
-0.0098034579
-0.010643807
-0.011520055
-0.012430957
-0.013375088
-0.014351048
-0.015357201
-0.016391774
-0.017452855
-0.018538246
-0.019645629
-0.020772293
-0.021915385
-0.023071594
-0.02423736
-0.025408642
-0.026581014
-0.02774952
-0.028908684
-0.030052432
-0.031174061
-0.032266185
-0.033320715
-0.034328833
-0.03528097
-0.03616684
-0.036975442
-0.037695135
-0.038313696
-0.038818445
-0.039196344
-0.039434203
-0.039518804
-0.039437181
-0.039176753
-0.03872568
-0.038072972
-0.0372089
-0.03612504
-0.034814749
-0.033273061
-0.031497239
-0.029486454
-0.027242438
-0.024768848
-0.022072103
-0.019160273
-0.016044275
-0.012736244
-0.0092506594
-0.0056027786
-0.0018124881
0.0021039383
0.0061280598
0.010240261
0.014420191
0.018649514
0.022908471
0.027180452
0.031447643
0.035696023
0.039910374
0.044079734
0.04819525
0.052251525
0.056242057
0.060162907
0.064012799
0.067794403
0.071511244
0.075168801
0.078776436
0.082344234
0.085887637
0.089420736
0.092967408
0.096544078
0.10018634
0.10390821
0.10776216
0.11174718
0.11594143
0.12030017
0.12494334
0.12972686
0.13484071
0.13995463
0.1453608
0.15046488
0.15561827
0.16008199
0.16387517
0.16691533
0.16771088
-0.0014491676
0.00048678449
-0.00073667637
7.4409325e-05
-0.00046459275
-0.00014326556
-0.00041183279
-0.00031896775
-0.00049384218
-0.00052275211
-0.00068226411
-0.00079093673
-0.00097220548
-0.0011460454
-0.0013685808
-0.0016044929
-0.0018799759
-0.0021796514
-0.0025162008
-0.0028831689
-0.0032870131
-0.0037252687
-0.0042014335
-0.0047146465
-0.005266712
-0.0058572746
-0.0064870305
-0.0071557563
-0.0078638004
-0.008610831
-0.0093966358
-0.010220537
-0.011081797
-0.011979684
-0.012913196
-0.013881275
-0.014882675
-0.015916009
-0.016979728
-0.018072024
-0.019190915
-0.020334036
-0.021498811
-0.022682185
-0.023880781
-0.025090684
-0.026307517
-0.027526293
-0.02874142
-0.029946614
-0.03113487
-0.032298406
-0.033428636
-0.034516153
-0.035550708
-0.036521246
-0.037415918
-0.038222171
-0.038926801
-0.039516114
-0.039976018
-0.040292269
-0.040450586
-0.040436977
-0.040237864
-0.039840485
-0.039232978
-0.038404864
-0.037347031
-0.036052303
-0.034515247
-0.032732849
-0.030704059
-0.028430612
-0.025916218
-0.023167572
-0.020193136
-0.017004339
-0.013613544
-0.01003771
-0.0062926251
-0.0023948308
0.0016335608
0.0057712856
0.0099997165
0.014296785
0.018643592
0.023018795
0.027405146
0.031783543
0.036139587
0.040458012
0.044727626
0.048934687
0.053071113
0.057131389
0.061116585
0.065024903
0.068856519
0.072615189
0.076308452
0.079944269
0.083533355
0.087090733
0.090630212
0.094174107
0.097738357
0.10135446
0.10503587
0.10882659
0.11272637
0.11679717
0.12100137
0.12542873
0.12996139
0.13473294
0.13948435
0.14440372
0.14905129
0.15360761
0.15758569
0.16082372
0.16344707
0.16405483
-0.0015022663
0.00051744883
-0.00075409469
0.00010161341
-0.00045365262
-0.00010731209
-0.00037674175
-0.00026729271
-0.0004357923
-0.00045115848
-0.00060074417
-0.00069649533
-0.0008657466
-0.0010261478
-0.0012351123
-0.0014566554
-0.0017173033
-0.0020015556
-0.0023221222
-0.0026725752
-0.0030592922
-0.0034798146
-0.0039374637
-0.0044314649
-0.0049637574
-0.005534266
-0.0061440755
-0.006793187
-0.0074820209
-0.0082104025
-0.0089783452
-0.0097856454
-0.010631963
-0.011516854
-0.012439705
-0.013399858
-0.014396469
-0.015428555
-0.016494955
-0.017594246
-0.018724802
-0.019884599
-0.02107136
-0.022282294
-0.023514229
-0.024763403
-0.026025513
-0.027295579
-0.028567924
-0.029836097
-0.031092823
-0.032329957
-0.033538447
-0.034708317
-0.035828649
-0.036887624
-0.037872533
-0.038769881
-0.039565451
-0.040244478
-0.040791751
-0.041191889
-0.041429457
-0.041489341
-0.041356853
-0.041018202
-0.040460543
-0.039672539
-0.038644284
-0.037367983
-0.035837644
-0.034049926
-0.032003481
-0.02970005
-0.0271433
-0.024340369
-0.02129976
-0.018033907
-0.014556436
-0.010882643
-0.0070314797
-0.003024361
0.0011214783
0.0053822363
0.0097373486
0.014162555
0.018637684
0.023139255
0.02764907
0.032146036
0.036615202
0.041039247
0.045407911
0.049709129
0.053937419
0.058082548
0.062139372
0.066107343
0.069993015
0.073799576
0.077531453
0.081198459
0.08481114
0.088382913
0.091927798
0.095465422
0.099010783
0.10259083
0.10621741
0.10992632
0.11371668
0.11763597
0.12165131
0.12582716
0.13006593
0.13445684
0.13879647
0.14319737
0.14733803
0.15129015
0.15475062
0.15747925
0.1597207
0.16025655
-0.0015369082
0.00054493285
-0.00075967782
0.00013289808
-0.00043259595
-6.3591804e-05
-0.00033141353
-0.00020585226
-0.00036688703
-0.00036856712
-0.00050759695
-0.00059005892
-0.00074682403
-0.00089338503
-0.0010883426
-0.0012949901
-0.0015401845
-0.0018082446
-0.0021119402
-0.0024448713
-0.0028134594
-0.0032153842
-0.0036541133
-0.0041290202
-0.0046420683
-0.0051932638
-0.0057837261
-0.0064136642
-0.0070837853
-0.0077942759
-0.0085454537
-0.0093373774
-0.010170036
-0.011043376
-0.011957174
-0.012911143
-0.013904829
-0.014937637
-0.016008783
-0.017117228
-0.018261698
-0.019440517
-0.020651709
-0.021892757
-0.023160706
-0.024451961
-0.025762316
-0.027086816
-0.028419724
-0.029754442
-0.031083452
-0.032398263
-0.033689369
-0.034946234
-0.036157268
-0.037309877
-0.038390466
-0.03938457
-0.040276903
-0.041051574
-0.041692178
-0.04218212
-0.042504717
-0.042643639
-0.042582983
-0.042307835
-0.041804256
-0.041059969
-0.04006417
-0.038808384
-0.037285975
-0.035493236
-0.033428476
-0.031093419
-0.028491765
-0.025630894
-0.022520146
-0.01917192
-0.015600489
-0.011825003
-0.0078620453
-0.0037338561
0.00053831162
0.0049292016
0.0094174038
0.013976495
0.018585519
0.023218754
0.027857348
0.032478164
0.037065784
0.041601213
0.0460732
0.050467354
0.054777337
0.058996469
0.063124474
0.067155668
0.071089291
0.07493087
0.078692755
0.082379919
0.08600344
0.089577573
0.093114856
0.09663417
0.10014966
0.10368508
0.10725163
0.11087887
0.11456637
0.11835065
0.12220389
0.12617162
0.13017399
0.13426748
0.13829297
0.14230856
0.14607921
0.14960051
0.15269033
0.15505656
0.15700636
0.15743375
-0.001557163
0.00056806528
-0.00075731056
0.0001644378
-0.00040633215
-1.7370013e-05
-0.00028142121
-0.00014033888
-0.00029271243
-0.00028045052
-0.00040807187
-0.00047670006
-0.00062026408
-0.000752371
-0.00093272684
-0.0011239906
-0.0013533652
-0.0016050012
-0.0018917477
-0.0022071916
-0.0025577496
-0.0029411313
-0.0033607953
-0.0038162269
-0.0043095155
-0.0048408778
-0.0054116661
-0.006022303
-0.0066736748
-0.0073662043
-0.008100474
-0.0088769013
-0.0096958251
-0.010557534
-0.011462186
-0.01240988
-0.013400561
-0.014434035
-0.015509912
-0.016627546
-0.017786037
-0.018984071
-0.020219996
-0.021491598
-0.022796169
-0.024130318
-0.025489973
-0.026870245
-0.028265384
-0.029668684
-0.03107242
-0.032467792
-0.033844867
-0.035192567
-0.036498634
-0.037749692
-0.038931241
-0.040027804
-0.041022976
-0.041899671
-0.042640201
-0.043226662
-0.043641008
-0.043865577
-0.043883123
-0.043677484
-0.043233494
-0.042537818
-0.041578634
-0.040346691
-0.038834606
-0.037038257
-0.034955514
-0.03258812
-0.029939602
-0.027018165
-0.023832084
-0.020397074
-0.016726904
-0.012840683
-0.0087575088
-0.0045018271
-9.4504256e-05
0.0044365343
0.0090687205
0.013772767
0.018526669
0.023301845
0.028078718
0.03283155
0.037544667
0.042196979
0.046777771
0.051271743
0.055673137
0.0599721
0.064167207
0.068257017
0.072246948
0.076133687
0.079923806
0.083630219
0.08726498
0.090838104
0.094364419
0.097859698
0.1013376
0.10481856
0.10831237
0.11184304
0.11540968
0.11903945
0.12270815
0.12644609
0.13018745
0.13396429
0.1376526
0.14127357
0.14465888
0.14776069
0.15048458
0.15253004
0.15422982
0.15461715
-0.0015653059
0.00058892985
-0.00074576282
0.00019921352
-0.00037168134
3.5189158e-05
-0.00022273896
-6.6604632e-05
-0.00020914207
-0.00018281006
-0.00029830687
-0.00035274356
-0.00048255345
-0.00059975689
-0.00076498117
-0.00094031625
-0.0011532656
-0.0013878218
-0.0016569271
-0.0019541822
-0.0022860664
-0.0026503871
-0.0030506973
-0.003486603
-0.003960274
-0.004472056
-0.0050234266
-0.0056150207
-0.006247967
-0.0069229826
-0.0076409394
-0.0084025563
-0.009208507
-0.010059442
-0.010955896
-0.011898352
-0.012887146
-0.013922483
-0.015004372
-0.016132567
-0.01730655
-0.018525385
-0.019787766
-0.021091801
-0.022435059
-0.023814379
-0.025225859
-0.02666471
-0.028125199
-0.029600548
-0.031082856
-0.032563036
-0.034030743
-0.035474366
-0.036880978
-0.038236401
-0.039525198
-0.040730838
-0.041835731
-0.042821523
-0.04366915
-0.044359298
-0.044872444
-0.045189477
-0.045291678
-0.04516152
-0.04478248
-0.044140064
-0.043221306
-0.042016108
-0.04051623
-0.038717098
-0.036616063
-0.034214847
-0.031516944
-0.028530498
-0.025266261
-0.021738523
-0.017962157
-0.013958655
-0.0097470109
-0.0053539257
-0.00080193509
0.0038783701
0.0086634509
0.013520886
0.018427945
0.023352792
0.028275403
0.033166995
0.038011752
0.042785989
0.047478963
0.052073341
0.056563902
0.060940758
0.065203914
0.069349179
0.073380149
0.077302695
0.08112246
0.084842692
0.08847696
0.092042432
0.095548687
0.099012554
0.1024468
0.10586926
0.10928966
0.11272737
0.11618211
0.11967392
0.12318235
0.12672647
0.13025233
0.13377428
0.13719542
0.14051084
0.14359974
0.14638506
0.14882828
0.15062728
0.15212102
0.15244089
-0.0015642429
0.00060695424
-0.00072791561
0.00023480025
-0.00033200921
9.0677834e-05
-0.00015909974
1.157916e-05
-0.00011997041
-7.9388935e-05
-0.00018195474
-0.00022175951
-0.0003371652
-0.00043896357
-0.00058852443
-0.00074749241
-0.00094362505
-0.0011607879
-0.001411999
-0.0016908549
-0.0020038637
-0.0023488841
-0.0027295177
-0.003145486
-0.0035990821
-0.0040908311
-0.0046223995
-0.0051946327
-0.0058088704
-0.006466084
-0.0071674212
-0.0079139246
-0.008706606
-0.0095464699
-0.010434429
-0.011371357
-0.012357997
-0.013394968
-0.014482693
-0.015621347
-0.016810823
-0.018050586
-0.019339711
-0.020676664
-0.02205933
-0.023484825
-0.024949461
-0.026448599
-0.02797657
-0.029526571
-0.031090564
-0.032659211
-0.034221784
-0.035766153
-0.037278718
-0.038744495
-0.040147072
-0.041468819
-0.04269089
-0.043793577
-0.044756336
-0.045558324
-0.046178402
-0.046595874
-0.046790387
-0.046742912
-0.046435401
-0.045852075
-0.044978673
-0.043804153
-0.042319289
-0.040519011
-0.038400045
-0.035964118
-0.033214527
-0.030160061
-0.026812238
-0.023185678
-0.019296113
-0.015166453
-0.010816881
-0.0062767336
-0.0015690741
0.0032720601
0.0082223019
0.01324529
0.018317651
0.023403501
0.028482588
0.033522398
0.038507402
0.043410874
0.048222889
0.052923968
0.057509798
0.06196848
0.066300928
0.070503142
0.074580974
0.078535222
0.082375734
0.086112153
0.08974973
0.093300131
0.096782261
0.10020839
0.10359108
0.10694661
0.11028298
0.11361662
0.11694674
0.1202879
0.12362242
0.12696086
0.13025895
0.13351873
0.13666513
0.1396773
0.14247137
0.14495723
0.14713625
0.14872175
0.15004417
0.15033781
-0.0015553436
0.00062365173
-0.00070311525
0.00027319769
-0.00028540468
0.0001515717
-8.7977898e-05
9.6909139e-05
-2.2506828e-05
3.2489208e-05
-5.6395533e-05
-8.1193538e-05
-0.00018159499
-0.00026751599
-0.000400847
-0.00054290658
-0.00072163479
-0.00092081303
-0.0011535284
-0.0014134037
-0.0017070037
-0.0020322713
-0.0023928889
-0.0027886928
-0.0032220795
-0.0036937208
-0.0042054378
-0.0047582848
-0.005353831
-0.0059933185
-0.0066781785
-0.0074097629
-0.0081894192
-0.0090185098
-0.0098983277
-0.01083014
-0.0118151
-0.012854249
-0.01394844
-0.015098283
-0.016304101