/*--------------------------------*- C++ -*----------------------------------*\
| =========                 |                                                 |
| \\      /  F ield         | foam-extend: Open Source CFD                    |
|  \\    /   O peration     | Version:     4.1                                |
|   \\  /    A nd           | Web:         http://www.foam-extend.org         |
|    \\/     M anipulation  |                                                 |
\*---------------------------------------------------------------------------*/
FoamFile
{
    version     2.0;
    format      ascii;
    class       surfaceScalarField;
    location    "1.8";
    object      phi;
}
// * * * * * * * * * * * * * * * * * * * * * * * * * * * * * * * * * * * * * //

dimensions      [0 3 -1 0 0 0 0];

internalField   nonuniform List<scalar> 
31929
(
-3.6716427e-05
-1.5640678e-09
-3.6694179e-05
-2.2248447e-08
-3.6679545e-05
-1.4633527e-08
-3.6653177e-05
-2.6368452e-08
-3.6625895e-05
-2.7281942e-08
-3.6592069e-05
-3.3826151e-08
-3.6554006e-05
-3.8062887e-08
-3.6511232e-05
-4.2774317e-08
-3.6463298e-05
-4.7933431e-08
-3.6411047e-05
-5.2251556e-08
-3.6353543e-05
-5.7503152e-08
-3.6291701e-05
-6.1842618e-08
-3.6224775e-05
-6.6926324e-08
-3.615348e-05
-7.1294633e-08
-3.6077387e-05
-7.6093068e-08
-3.5997049e-05
-8.0338286e-08
-3.5912328e-05
-8.4720356e-08
-3.5823716e-05
-8.8611867e-08
-3.5731334e-05
-9.2381839e-08
-3.563571e-05
-9.5624856e-08
-3.5537211e-05
-9.8498569e-08
-3.5436494e-05
-1.0071717e-07
-3.5334199e-05
-1.0229483e-07
-3.5231177e-05
-1.0302227e-07
-3.5128316e-05
-1.0286031e-07
-3.5026666e-05
-1.0165038e-07
-3.4927376e-05
-9.9290089e-08
-3.4831673e-05
-9.5703132e-08
-3.4740973e-05
-9.0700015e-08
-3.4657001e-05
-8.3971743e-08
-3.4581391e-05
-7.5610049e-08
-3.4515716e-05
-6.567443e-08
-3.4461152e-05
-5.456471e-08
-3.4420024e-05
-4.1127265e-08
-3.4395361e-05
-2.466363e-08
-3.4389924e-05
-5.4366263e-09
-3.4406718e-05
1.6793892e-08
-3.4446014e-05
3.9295616e-08
-3.4507124e-05
6.1110004e-08
-3.4590768e-05
8.36444e-08
-3.469786e-05
1.0709237e-07
-3.4829427e-05
1.3156645e-07
-3.498636e-05
1.5693298e-07
-3.5169402e-05
1.8304226e-07
-3.5379105e-05
2.0970249e-07
-3.5615817e-05
2.3671206e-07
-3.5879668e-05
2.6385183e-07
-3.6170562e-05
2.9089322e-07
-3.648816e-05
3.1759845e-07
-3.6831887e-05
3.4372652e-07
-3.7200923e-05
3.6903614e-07
-3.7594213e-05
3.9329016e-07
-3.8010473e-05
4.1626066e-07
-3.8448207e-05
4.3773323e-07
-3.8905717e-05
4.5751054e-07
-3.9381136e-05
4.7541841e-07
-3.9872444e-05
4.9130853e-07
-4.0377506e-05
5.0506216e-07
-4.0894099e-05
5.1659318e-07
-4.141995e-05
5.258501e-07
-4.1952765e-05
5.3281506e-07
-4.249027e-05
5.3750581e-07
-4.3030242e-05
5.3997169e-07
-4.3570533e-05
5.4029069e-07
-4.4109097e-05
5.3856389e-07
-4.4644006e-05
5.3490929e-07
-4.5173461e-05
5.294547e-07
-4.5695789e-05
5.2232838e-07
-4.6209444e-05
5.1365465e-07
-4.6712991e-05
5.0354709e-07
-4.7205097e-05
4.9210636e-07
-4.7684519e-05
4.7942187e-07
-4.8150096e-05
4.6557705e-07
-4.8600754e-05
4.5065772e-07
-4.903552e-05
4.3476622e-07
-4.9453555e-05
4.1803554e-07
-4.9854198e-05
4.0064226e-07
-5.0237018e-05
3.8282038e-07
-5.0601884e-05
3.6486569e-07
-5.0949022e-05
3.471387e-07
-5.1279079e-05
3.3005661e-07
-5.1593164e-05
3.1408552e-07
-5.1892883e-05
2.9971891e-07
-5.2180351e-05
2.8746774e-07
-5.2458187e-05
2.7783559e-07
-5.2729501e-05
2.7131433e-07
-5.2997866e-05
2.6836506e-07
-5.3267291e-05
2.694254e-07
-5.3542188e-05
2.7489648e-07
-5.3827351e-05
2.8516312e-07
-5.4127933e-05
3.0058253e-07
-5.444945e-05
3.2151637e-07
-5.4797766e-05
3.4831669e-07
-5.5179142e-05
3.8137552e-07
-5.5600241e-05
4.2109896e-07
-5.6068233e-05
4.6799222e-07
-5.6590842e-05
5.2260892e-07
-5.7176559e-05
5.8571723e-07
-5.7834753e-05
6.5819413e-07
-5.8576126e-05
7.4137297e-07
-5.9412954e-05
8.3682823e-07
-6.0360064e-05
9.4711003e-07
-6.1435351e-05
1.0752866e-06
-6.2661849e-05
1.226498e-06
-6.4068749e-05
1.4068999e-06
-6.5695629e-05
1.62688e-06
-6.759409e-05
1.8984608e-06
-6.9835842e-05
2.2417524e-06
-7.2514177e-05
2.6783349e-06
-7.5758137e-05
3.2439605e-06
-7.9729983e-05
3.9718456e-06
-8.4647882e-05
4.9178992e-06
-9.0768325e-05
6.1204428e-06
-9.8421386e-05
7.6530608e-06
-0.0001079539
9.5325173e-06
-0.00011979288
1.1838976e-05
-0.0001343017
1.4508817e-05
-0.0001519331
1.7631402e-05
-0.00017287188
2.0938783e-05
-0.00019751628
2.4644398e-05
-0.00022529795
2.7781671e-05
-0.00025683864
3.1540688e-05
-0.00028729979
3.0461153e-05
3.5280807e-05
-0.00010733771
-7.9249347e-09
-0.00010730367
-5.6291187e-08
-0.00010727069
-4.7611616e-08
-0.00010722192
-7.5141741e-08
-0.0001071675
-8.1697425e-08
-0.00010710205
-9.928051e-08
-0.00010702848
-1.1163155e-07
-0.0001069456
-1.2565026e-07
-0.00010685391
-1.3962382e-07
-0.00010675351
-1.526529e-07
-0.00010664428
-1.6673598e-07
-0.00010652664
-1.794764e-07
-0.00010640049
-1.9307475e-07
-0.00010626634
-2.0544355e-07
-0.00010612429
-2.1814818e-07
-0.00010597493
-2.2969617e-07
-0.00010581865
-2.4100381e-07
-0.00010565621
-2.5105077e-07
-0.00010548833
-2.6026545e-07
-0.00010531603
-2.679206e-07
-0.00010514042
-2.7410975e-07
-0.00010496287
-2.7826374e-07
-0.00010478492
-2.8025014e-07
-0.00010460835
-2.7958462e-07
-0.00010443521
-2.7600548e-07
-0.00010426786
-2.6900008e-07
-0.00010410908
-2.58072e-07
-0.00010396187
-2.4291126e-07
-0.00010382937
-2.2319861e-07
-0.00010371479
-1.9855773e-07
-0.00010362161
-1.6878341e-07
-0.00010355545
-1.3183317e-07
-0.00010352307
-8.6945264e-08
-0.00010352991
-3.4292593e-08
-0.0001035814
2.6829906e-08
-0.00010367706
9.0220657e-08
-0.0001038145
1.5424089e-07
-0.00010399718
2.2197503e-07
-0.00010422883
2.9275684e-07
-0.0001045123
3.6711324e-07
-0.00010485008
4.4487573e-07
-0.00010524434
5.2582187e-07
-0.00010569688
6.0947288e-07
-0.00010620911
6.9526968e-07
-0.00010678195
7.8254648e-07
-0.00010741581
8.7057637e-07
-0.00010811053
9.5856614e-07
-0.00010886531
1.0456786e-06
-0.00010967875
1.1310382e-06
-0.00011054878
1.2137527e-06
-0.00011147267
1.2929281e-06
-0.00011244707
1.3676883e-06
-0.00011346801
1.4371966e-06
-0.00011453095
1.5006782e-06
-0.00011563088
1.557437e-06
-0.00011676234
1.6068822e-06
-0.00011791957
1.6485429e-06
-0.0001190966
1.6820849e-06
-0.00012028733
1.7073225e-06
-0.0001214857
1.7242275e-06
-0.00012268581
1.7329249e-06
-0.000123882
1.733695e-06
-0.00012506899
1.7269578e-06
-0.00012624195
1.7132562e-06
-0.00012739662
1.693232e-06
-0.00012852931
1.6675964e-06
-0.00012963696
1.6371005e-06
-0.00013071712
1.6024959e-06
-0.00013176798
1.5645112e-06
-0.00013278826
1.5238229e-06
-0.00013377719
1.4810402e-06
-0.00013473447
1.4367007e-06
-0.00013566017
1.3912816e-06
-0.00013655473
1.3452179e-06
-0.00013741891
1.2989414e-06
-0.00013825379
1.2529202e-06
-0.00013906085
1.2076992e-06
-0.00013984197
1.1639418e-06
-0.00014059956
1.1224518e-06
-0.00014133661
1.084187e-06
-0.0001420568
1.0502504e-06
-0.00014276459
1.0218747e-06
-0.00014346525
1.0003777e-06
-0.00014416492
9.8713855e-07
-0.00014487062
9.8354225e-07
-0.00014559027
9.9096356e-07
-0.00014633263
1.0107251e-06
-0.00014710731
1.0441063e-06
-0.00014792474
1.09232e-06
-0.00014879613
1.1565504e-06
-0.00014973349
1.2379437e-06
-0.00015074964
1.3376709e-06
-0.00015185825
1.456925e-06
-0.00015307389
1.5970172e-06
-0.00015441216
1.7593655e-06
-0.00015588981
1.945644e-06
-0.00015752494
2.1577433e-06
-0.00015933726
2.3980332e-06
-0.00016134831
2.6692474e-06
-0.00016358192
2.974977e-06
-0.00016606449
3.319399e-06
-0.0001688256
3.7082243e-06
-0.00017189837
4.1480529e-06
-0.00017532013
4.6482629e-06
-0.00017913267
5.2194384e-06
-0.00018338291
5.8771182e-06
-0.00018812245
6.6379981e-06
-0.00019340797
7.5272744e-06
-0.00019929906
8.5694271e-06
-0.00020585778
9.8026783e-06
-0.00021314288
1.1256947e-05
-0.000221208
1.2983024e-05
-0.00023008915
1.5001585e-05
-0.00023980182
1.7365729e-05
-0.00025031547
2.0046175e-05
-0.00026155389
2.3077394e-05
-0.00027334031
2.6295239e-05
-0.00028542019
2.9711279e-05
-0.00029732624
3.2844838e-05
-0.00030850117
3.5819327e-05
-0.00031794916
3.7229661e-05
-0.00032461523
3.8206761e-05
-0.00032737834
3.322426e-05
3.0483067e-05
-0.00017032214
-1.3318014e-08
-0.00017028617
-9.226177e-08
-0.00017024847
-8.5309397e-08
-0.00017019472
-1.288891e-07
-0.00017013413
-1.4229533e-07
-0.00017006188
-1.715274e-07
-0.00016998129
-1.9221766e-07
-0.00016989079
-2.1615724e-07
-0.00016979167
-2.387431e-07
-0.00016968356
-2.6075564e-07
-0.00016956715
-2.8315486e-07
-0.00016944257
-3.0405405e-07
-0.00016931039
-3.2525695e-07
-0.00016917108
-3.4475358e-07
-0.00016902531
-3.6391112e-07
-0.00016887386
-3.8114703e-07
-0.00016871765
-3.9721636e-07
-0.00016855777
-4.1093259e-07
-0.00016839549
-4.2254115e-07
-0.00016823232
-4.3109477e-07
-0.00016806998
-4.3645231e-07
-0.00016791049
-4.377541e-07
-0.00016775619
-4.3454342e-07
-0.00016760975
-4.2602986e-07
-0.00016747407
-4.1168034e-07
-0.00016735236
-3.907115e-07
-0.00016724806
-3.6237424e-07
-0.00016716496
-3.2600903e-07
-0.00016710784
-2.8032301e-07
-0.00016708278
-2.2360942e-07
-0.00016709625
-1.5531564e-07
-0.00016715329
-7.4799966e-08
-0.00016725956
1.9324965e-08
-0.00016741434
1.2048975e-07
-0.00016761372
2.2620959e-07
-0.00016786282
3.3932239e-07
-0.00016816813
4.5955091e-07
-0.00016853411
5.8795174e-07
-0.00016896505
7.2370143e-07
-0.00016946423
8.6629356e-07
-0.00017003444
1.0150874e-06
-0.00017067795
1.1693268e-06
-0.00017139647
1.327999e-06
-0.00017219113
1.4899233e-06
-0.00017306232
1.6537408e-06
-0.00017400971
1.8179661e-06
-0.00017503214
1.9809925e-06
-0.00017612759
2.1411337e-06
-0.0001772932
2.2966411e-06
-0.00017852519
2.4457522e-06
-0.00017981899
2.5867235e-06
-0.00018116918
2.717876e-06
-0.00018256962
2.8376393e-06
-0.00018401354
2.9446012e-06
-0.00018549365
3.0375405e-06
-0.00018700224
3.115478e-06
-0.0001885314
3.1777047e-06
-0.00019007313
3.2238086e-06
-0.0001916195
3.2536911e-06
-0.00019316285
3.2675782e-06
-0.00019469592
3.2660019e-06
-0.00019621202
3.2497952e-06
-0.00019770512
3.2200536e-06
-0.00019916996
3.1780944e-06
-0.00020060213
3.1254035e-06
-0.00020199811
3.0635749e-06
-0.00020335526
2.9942529e-06
-0.00020467182
2.9190568e-06
-0.00020594685
2.8395376e-06
-0.00020718015
2.7571277e-06
-0.00020837223
2.6731136e-06
-0.00020952416
2.5886312e-06
-0.00021063756
2.5046851e-06
-0.00021171452
2.4221796e-06
-0.00021275756
2.3419828e-06
-0.00021376963
2.2649918e-06
-0.00021475413
2.1921966e-06
-0.00021571494
2.1247452e-06
-0.00021665647
2.0639818e-06
-0.00021758374
2.0114659e-06
-0.00021850246
1.968964e-06
-0.00021941901
1.9384283e-06
-0.00022034056
1.9219308e-06
-0.00022127505
1.9216284e-06
-0.00022223119
1.939678e-06
-0.00022321844
1.97821e-06
-0.00022424697
2.0392608e-06
-0.00022532764
2.1247781e-06
-0.0002264719
2.2365784e-06
-0.00022769174
2.3763918e-06
-0.00022899964
2.545844e-06
-0.0002304085
2.746528e-06
-0.00023193158
2.9800021e-06
-0.00023358246
3.2479004e-06
-0.00023537502
3.5519208e-06
-0.00023732336
3.8939881e-06
-0.00023944183
4.2762138e-06
-0.00024174497
4.7011684e-06
-0.00024424747
5.1717518e-06
-0.00024696417
5.6916769e-06
-0.00024990995
6.2651798e-06
-0.00025309963
6.8979026e-06
-0.00025654778
7.5962076e-06
-0.00026026842
8.3689033e-06
-0.00026427456
9.2255764e-06
-0.0002685774
1.0179958e-05
-0.00027318539
1.124599e-05
-0.00027810245
1.2444328e-05
-0.00028332604
1.3793019e-05
-0.00028884372
1.5320357e-05
-0.00029462985
1.7043074e-05
-0.00030063956
1.8992737e-05
-0.00030680422
2.116625e-05
-0.00031302262
2.3584127e-05
-0.00031915601
2.6179566e-05
-0.0003250183
2.8939682e-05
-0.00033037124
3.1648177e-05
-0.00033492061
3.4260656e-05
-0.00033830778
3.6232e-05
-0.00034012635
3.7637901e-05
-0.00033994334
3.7046653e-05
-0.0003371867
3.5450119e-05
-0.00033227505
2.8312608e-05
2.0788818e-05
-0.00022257941
-9.0710981e-09
-0.00022255498
-1.1668641e-07
-0.00022252901
-1.1127628e-07
-0.0002224895
-1.684011e-07
-0.00022244455
-1.8724694e-07
-0.00022239017
-2.2590902e-07
-0.00022232961
-2.5277357e-07
-0.00022226147
-2.8430162e-07
-0.00022218741
-3.1280649e-07
-0.0002221071
-3.4106359e-07
-0.00022202167
-3.6857993e-07
-0.00022193139
-3.9433279e-07
-0.00022183727
-4.1937693e-07
-0.00022173999
-4.4203841e-07
-0.00022164066
-4.6323674e-07
-0.00022154035
-4.814561e-07
-0.00022144044
-4.9713026e-07
-0.00022134238
-5.089928e-07
-0.00022124791
-5.1700602e-07
-0.00022115896
-5.2005233e-07
-0.0002210777
-5.1771408e-07
-0.00022100653
-5.0892389e-07
-0.0002209481
-4.9296604e-07
-0.00022090533
-4.6879885e-07
-0.00022088144
-4.3557652e-07
-0.00022088018
-3.919701e-07
-0.00022090609
-3.3645877e-07
-0.00022096404
-2.6806106e-07
-0.00022105861
-1.8575128e-07
-0.00022119396
-8.8260871e-08
-0.00022137434
2.5061787e-08
-0.00022159855
1.4940887e-07
-0.00022186273
2.835085e-07
-0.000222172
4.2975538e-07
-0.00022253401
5.8822327e-07
-0.00022295465
7.599575e-07
-0.00022343941
9.4431071e-07
-0.00022399181
1.140355e-06
-0.00022461515
1.347041e-06
-0.00022531227
1.5634178e-06
-0.00022608545
1.7882663e-06
-0.0002269363
2.0201783e-06
-0.00022786576
2.257456e-06
-0.000228874
2.4981583e-06
-0.00022996037
2.7401095e-06
-0.00023112336
2.9809564e-06
-0.00023236055
3.2181902e-06
-0.00023366863
3.4492123e-06
-0.00023504336
3.671369e-06
-0.00023647964
3.8820291e-06
-0.00023797155
4.0786399e-06
-0.00023951247
4.2587974e-06
-0.00024109515
4.420312e-06
-0.00024271183
4.5612822e-06
-0.00024435442
4.6801365e-06
-0.00024601465
4.7757027e-06
-0.00024768418
4.8472387e-06
-0.00024935484
4.8944616e-06
-0.0002510187
4.9175572e-06
-0.00025266831
4.9171856e-06
-0.00025429675
4.8944387e-06
-0.00025589777
4.8508229e-06
-0.00025746591
4.7881934e-06
-0.00025899651
4.7086887e-06
-0.00026048575
4.6146507e-06
-0.00026193072
4.5085382e-06
-0.00026332931
4.3928474e-06
-0.00026468027
4.2700124e-06
-0.00026598308
4.1423513e-06
-0.00026723796
4.012005e-06
-0.00026844575
3.8809073e-06
-0.0002696079
3.7507827e-06
-0.00027072639
3.6231756e-06
-0.0002718037
3.4994895e-06
-0.00027284279
3.3810669e-06
-0.00027384706
3.2692681e-06
-0.00027482041
3.1655446e-06
-0.00027576718
3.0715158e-06
-0.00027669221
2.9890108e-06
-0.00027760083
2.9200886e-06
-0.0002784989
2.8670255e-06
-0.00027939276
2.8322907e-06
-0.00028028929
2.8184614e-06
-0.00028119585
2.8281866e-06
-0.00028212025
2.8640767e-06
-0.00028307071
2.9286696e-06
-0.00028405578
3.0243389e-06
-0.0002850843
3.1532955e-06
-0.00028616525
3.3175228e-06
-0.00028730768
3.518823e-06
-0.00028852062
3.7587842e-06
-0.00028981294
4.0388543e-06
-0.00029119327
4.360331e-06
-0.00029266985
4.7244794e-06
-0.00029425045
5.1325168e-06
-0.00029594223
5.5857734e-06
-0.00029775167
6.0856507e-06
-0.00029968438
6.6338802e-06
-0.00030174502
7.2323931e-06
-0.00030393711
7.8837606e-06
-0.00030626284
8.5909183e-06
-0.00030872287
9.3579247e-06
-0.00031131598
1.0189319e-05
-0.00031403865
1.1091572e-05
-0.00031688459
1.2071517e-05
-0.00031984375
1.3139127e-05
-0.00032290161
1.4303844e-05
-0.00032603716
1.5579876e-05
-0.00032922174
1.6977599e-05
-0.00033241547
1.8514095e-05
-0.00033556576
2.019336e-05
-0.00033860156
2.2028537e-05
-0.00034143298
2.3997673e-05
-0.00034394373
2.6094875e-05
-0.00034599572
2.8231557e-05
-0.00034742148
3.0365443e-05
-0.00034804199
3.2268681e-05
-0.00034766031
3.387898e-05
-0.00034611525
3.468694e-05
-0.00034325192
3.4774566e-05
-0.00033915346
3.2948199e-05
-0.0003337774
3.0074059e-05
-0.00032844725
2.2982456e-05
1.4922167e-05
-0.00026304038
1.4858486e-08
-0.00026304279
-1.1427822e-07
-0.00026304565
-1.0841744e-07
-0.00026303943
-1.7462427e-07
-0.00026303061
-1.9606743e-07
-0.00026301628
-2.4023268e-07
-0.00026299937
-2.6968459e-07
-0.00026297887
-3.0480023e-07
-0.00026295654
-3.3513451e-07
-0.0002629323
-3.6531103e-07
-0.00026290749
-3.9339091e-07
-0.00026288258
-4.1924014e-07
-0.00026285886
-4.4309955e-07
-0.0002628372
-4.6368918e-07
-0.00026281901
-4.8143209e-07
-0.00026280553
-4.9493945e-07
-0.00026279835
-5.043015e-07
-0.00026279912
-5.0823118e-07
-0.0002628097
-5.0642161e-07
-0.00026283211
-4.9764788e-07
-0.00026286857
-4.8124731e-07
-0.00026292158
-4.5591361e-07
-0.00026299402
-4.2052389e-07
-0.00026308904
-3.7378058e-07
-0.00026320994
-3.1467708e-07
-0.00026336005
-2.4185736e-07
-0.00026354252
-1.5399839e-07
-0.00026376073
-4.9841272e-08
-0.00026401642
6.9932967e-08
-0.00026430818
2.0350209e-07
-0.00026463497
3.518492e-07
-0.00026500177
5.1621088e-07
-0.00026541539
6.9712428e-07
-0.00026588153
8.9589788e-07
-0.0002664058
1.1124975e-06
-0.00026699144
1.3455924e-06
-0.00026764138
1.5942507e-06
-0.00026835856
1.8575401e-06
-0.00026914554
2.1340128e-06
-0.00027000421
2.4220938e-06
-0.00027093587
2.719927e-06
-0.00027194105
3.0253559e-06
-0.00027301953
3.335932e-06
-0.00027417027
3.6488998e-06
-0.0002753914
3.9612465e-06
-0.00027668021
4.2697622e-06
-0.00027803311
4.5710858e-06
-0.00027944569
4.8617932e-06
-0.00028091277
5.1384499e-06
-0.00028242845
5.3977157e-06
-0.00028398623
5.6364182e-06
-0.00028557908
5.8516405e-06
-0.00028719956
6.0407999e-06
-0.00028884002
6.201735e-06
-0.00029049262
6.3327452e-06
-0.00029214959
6.4326674e-06
-0.00029380325
6.5008994e-06
-0.00029544621
6.5374207e-06
-0.00029707144
6.5427899e-06
-0.00029867239
6.5181384e-06
-0.00030024306
6.4651043e-06
-0.00030177804
6.3858033e-06
-0.00030327259
6.2827414e-06
-0.00030472263
6.1587325e-06
-0.00030612478
6.0168024e-06
-0.00030747633
5.860088e-06
-0.00030877524
5.6917508e-06
-0.00031002009
5.5148645e-06
-0.0003112101
5.3323629e-06
-0.00031234507
5.1469767e-06
-0.00031342537
4.9612042e-06
-0.0003144519
4.7773145e-06
-0.00031542611
4.5973806e-06
-0.00031634994
4.4233197e-06
-0.00031722585
4.2569772e-06
-0.00031805679
4.1002071e-06
-0.00031884618
3.9549402e-06
-0.00031959793
3.8232629e-06
-0.00032031637
3.7074509e-06
-0.00032100627
3.6099873e-06
-0.00032167278
3.5335405e-06
-0.00032232143
3.480941e-06
-0.00032295805
3.4550799e-06
-0.00032358874
3.4588721e-06
-0.00032421979
3.495126e-06
-0.00032485763
3.5665123e-06
-0.00032550874
3.6754507e-06
-0.00032617956
3.8241165e-06
-0.00032687639
4.0143538e-06
-0.0003276053
4.2477303e-06
-0.000328372
4.5254875e-06
-0.00032918177
4.8486236e-06
-0.00033003931
5.2178734e-06
-0.00033094867
5.6338355e-06
-0.0003319131
6.0969512e-06
-0.000332935
6.6076671e-06
-0.00033401575
7.1664004e-06
-0.00033515566
7.7737877e-06
-0.00033635382
8.4305595e-06
-0.00033760799
9.1379327e-06
-0.00033891444
9.8973627e-06
-0.00034026769
1.0711174e-05
-0.00034166035
1.1581977e-05
-0.00034308262
1.2513841e-05
-0.00034452196
1.3510859e-05
-0.00034596218
1.4579347e-05
-0.00034738289
1.5724556e-05
-0.00034875784
1.695483e-05
-0.00035005428
1.8274032e-05
-0.00035123023
1.9690047e-05
-0.00035223447
2.1197606e-05
-0.0003530029
2.2796959e-05
-0.00035346113
2.4455903e-05
-0.00035352068
2.6154433e-05
-0.00035308877
2.779964e-05
-0.00035206448
2.9341152e-05
-0.00035036368
3.0567884e-05
-0.00034790851
3.142381e-05
-0.00034468958
3.1468012e-05
-0.00034069972
3.0784704e-05
-0.00033616392
2.8412403e-05
-0.00033112232
2.5032456e-05
-0.00032664767
1.8507808e-05
1.0855095e-05
-0.00029235252
6.7381073e-08
-0.00029239433
-7.2465017e-08
-0.0002924385
-6.4249955e-08
-0.00029247924
-1.3388987e-07
-0.00029252081
-1.544971e-07
-0.00029256131
-1.9972486e-07
-0.00029260307
-2.2792602e-07
-0.00029264554
-2.6232899e-07
-0.00029269039
-2.9029127e-07
-0.00029273775
-3.1794769e-07
-0.00029278905
-3.4209156e-07
-0.0002928449
-3.6338833e-07
-0.00029290666
-3.8133644e-07
-0.00029297531
-3.9504244e-07
-0.00029305229
-4.044545e-07
-0.00029313891
-4.0831872e-07
-0.0002932368
-4.0640556e-07
-0.00029334761
-3.9742872e-07
-0.0002934732
-3.8083047e-07
-0.00029361554
-3.553041e-07
-0.00029377681
-3.1998072e-07
-0.00029395922
-2.7350241e-07
-0.00029416507
-2.1467458e-07
-0.00029439675
-1.4209866e-07
-0.00029465683
-5.4601112e-08
-0.00029494706
4.8375403e-08
-0.00029526753
1.664698e-07
-0.00029561807
3.0070142e-07
-0.00029600075
4.5261354e-07
-0.00029642022
6.2297084e-07
-0.00029688117
8.1279466e-07
-0.00029738851
1.0235515e-06
-0.00029794694
1.2555612e-06
-0.00029855905
1.5080005e-06
-0.00029922701
1.780461e-06
-0.0002999536
2.0721864e-06
-0.0003007413
2.3819471e-06
-0.00030159189
2.708135e-06
-0.00030250672
3.0488351e-06
-0.00030348645
3.4018269e-06
-0.00030453111
3.7645881e-06
-0.00030563996
4.1342028e-06
-0.0003068115
4.5074697e-06
-0.00030804345
4.8808509e-06
-0.00030933276
5.2505636e-06
-0.00031067565
5.6126497e-06
-0.00031206761
5.9630416e-06
-0.00031350349
6.2976715e-06
-0.00031497757
6.6125356e-06
-0.00031648367
6.9038182e-06
-0.00031801523
7.1679728e-06
-0.0003195654
7.4018168e-06
-0.00032112722
7.602612e-06
-0.00032269363
7.7681529e-06
-0.00032425768
7.896794e-06
-0.00032581254
7.9875245e-06
-0.00032735162
8.0399766e-06
-0.00032886863
8.0544348e-06
-0.00033035766
8.0318186e-06
-0.00033181319
7.9736658e-06
-0.00033323013
7.8820476e-06
-0.00033460386
7.7595347e-06
-0.00033593022
7.6090976e-06
-0.0003372055
7.4340187e-06
-0.00033842649
7.2377923e-06
-0.00033959043
7.0240228e-06
-0.00034069502
6.796341e-06
-0.00034173845
6.558291e-06
-0.00034271937
6.3132864e-06
-0.00034363694
6.0645497e-06
-0.00034449082
5.8150855e-06
-0.0003452812
5.5676861e-06
-0.00034600878
5.3249633e-06
-0.00034667484
5.0893829e-06
-0.00034728121
4.8633418e-06
-0.00034783024
4.6492402e-06
-0.00034832483
4.449535e-06
-0.00034876838
4.2668116e-06
-0.00034916473
4.1038015e-06
-0.00034951814
3.9633962e-06
-0.00034983321
3.8486108e-06
-0.00035011483
3.7625621e-06
-0.0003503681
3.7083463e-06
-0.00035059825
3.6890221e-06
-0.00035081058
3.7074601e-06
-0.00035101039
3.7663173e-06
-0.00035120284
3.8679076e-06
-0.00035139295
4.0142218e-06
-0.00035158542
4.2068206e-06
-0.00035178459
4.4469067e-06
-0.00035199436
4.735255e-06
-0.00035221805
5.0723149e-06
-0.00035245835
5.4581725e-06
-0.00035271722
5.8927006e-06
-0.0003529958
6.375537e-06
-0.00035329439
6.9062523e-06
-0.0003536123
7.4843102e-06
-0.00035394782
8.1093073e-06
-0.00035429812
8.7808597e-06
-0.00035465914
9.4989583e-06
-0.00035502552
1.0263742e-05
-0.00035539037
1.1076022e-05
-0.00035574515
1.1936759e-05
-0.00035607931
1.2848002e-05
-0.00035638007
1.3811611e-05
-0.0003566317
1.4830979e-05
-0.00035681529
1.5908148e-05
-0.00035690753
1.7047074e-05
-0.00035688059
1.8247087e-05
-0.00035670029
1.9509754e-05
-0.00035632694
2.082425e-05
-0.00035571304
2.2183057e-05
-0.00035480692
2.3549785e-05
-0.00035355046
2.4897977e-05
-0.00035188935
2.613853e-05
-0.00034976967
2.722147e-05
-0.00034716252
2.7960737e-05
-0.00034404922
2.8310508e-05
-0.00034048561
2.7904397e-05
-0.0003365228
2.6821899e-05
-0.00033243309
2.4322693e-05
-0.00032832214
2.0921505e-05
-0.0003250162
1.5201865e-05
8.4194978e-06
-0.00031227644
1.5378566e-07
-0.00031236362
1.4714824e-08
-0.00031245337
2.5502043e-08
-0.00031254512
-4.2142309e-08
-0.00031264082
-5.8797138e-08
-0.00031273962
-1.0092842e-07
-0.00031284311
-1.2443077e-07
-0.00031295116
-1.5428128e-07
-0.00031306519
-1.7626398e-07
-0.0003131855
-1.9762925e-07
-0.00031331342
-2.1417279e-07
-0.00031344961
-2.2720227e-07
-0.00031359537
-2.3557996e-07
-0.00031375167
-2.3874056e-07
-0.00031391988
-2.3623912e-07
-0.00031410124
-2.2696203e-07
-0.00031429724
-2.1040337e-07
-0.00031450938
-1.8529518e-07
-0.00031473932
-1.508821e-07
-0.00031498879
-1.058357e-07
-0.00031525958
-4.9190666e-08
-0.00031555333
2.0244728e-08
-0.00031587099
1.0298304e-07
-0.00031621334
2.0025409e-07
-0.00031658145
3.1350846e-07
-0.00031697702
4.4394133e-07
-0.00031740329
5.9274443e-07
-0.00031786367
7.610858e-07
-0.00031836144
9.503838e-07
-0.00031890048
1.1620047e-06
-0.00031948407
1.3963884e-06
-0.00032011423
1.653708e-06
-0.00032079273
1.934067e-06
-0.000321522
2.2372693e-06
-0.00032230418
2.5626427e-06
-0.00032314074
2.9087444e-06
-0.00032403275
3.273956e-06
-0.00032498083
3.6562182e-06
-0.00032598508
4.0530818e-06
-0.00032704491
4.4616594e-06
-0.00032815909
4.8787606e-06
-0.00032932562
5.3007328e-06
-0.00033054183
5.7236802e-06
-0.00033180435
6.1433717e-06
-0.00033310917
6.5553824e-06
-0.00033445168
6.9551673e-06
-0.00033582679
7.3381452e-06
-0.00033722894
7.6998222e-06
-0.00033865226
8.0358587e-06
-0.00034009065
8.3422035e-06
-0.00034153785
8.6151722e-06
-0.00034298757
8.8515387e-06
-0.00034443356
9.0486067e-06
-0.0003458697
9.2042906e-06
-0.00034729003
9.317124e-06
-0.00034868883
9.3863262e-06
-0.00035006065
9.4117939e-06
-0.00035140031
9.3940987e-06
-0.00035270295
9.3344568e-06
-0.00035396399
9.2347078e-06
-0.00035517916
9.097218e-06
-0.00035634448
8.924849e-06
-0.00035745624
8.7208568e-06
-0.00035851103
8.4888075e-06
-0.00035950572
8.2324834e-06
-0.00036043748
7.9557889e-06
-0.00036130382
7.6626777e-06
-0.00036210257
7.3570449e-06
-0.00036283198
7.0426939e-06
-0.00036349071
6.7232809e-06
-0.00036407792
6.4022892e-06
-0.00036459326
6.083034e-06
-0.00036503699
5.7686878e-06
-0.00036540991
5.4623042e-06
-0.00036571345
5.1668804e-06
-0.00036594962
4.8854155e-06
-0.00036612103
4.6209419e-06
-0.0003662308
4.3765852e-06
-0.00036628256
4.1555601e-06
-0.00036628035
3.96118e-06
-0.00036622853
3.7967969e-06
-0.00036613177
3.6657953e-06
-0.00036599487
3.5714493e-06
-0.00036582276
3.5169148e-06
-0.00036562036
3.5050557e-06
-0.00036539249
3.538446e-06
-0.0003651438
3.6192211e-06
-0.0003648787
3.7491245e-06
-0.00036460126
3.9293775e-06
-0.00036431513
4.1607817e-06
-0.0003640235
4.4436248e-06
-0.00036372901
4.7778177e-06
-0.00036343367
5.1628343e-06
-0.00036313886
5.5978923e-06
-0.00036284523
6.0819109e-06
-0.00036255267
6.61369e-06
-0.00036226024
7.1918819e-06
-0.00036196617
7.815239e-06
-0.00036166781
8.4824913e-06
-0.00036136152
9.192669e-06
-0.00036104267
9.9448998e-06
-0.0003607055
1.0738845e-05
-0.00036034297
1.1574229e-05
-0.00035994655
1.2451582e-05
-0.00035950605
1.337111e-05
-0.0003590091
1.4334029e-05
-0.00035844101
1.5340067e-05
-0.00035778396
1.6390017e-05
-0.00035701703
1.7480157e-05
-0.00035611512
1.8607843e-05
-0.00035505
1.9759134e-05
-0.00035378902
2.0922079e-05
-0.00035229878
2.2059545e-05
-0.00035054359
2.3142783e-05
-0.0003484947
2.408964e-05
-0.00034612617
2.4852942e-05
-0.00034343618
2.5270747e-05
-0.00034042838
2.5302703e-05
-0.00033716888
2.46449e-05
-0.00033370589
2.3358915e-05
-0.00033026387
2.0880665e-05
-0.00032692893
1.7586572e-05
-0.00032431295
1.2585879e-05
6.6873522e-06
-0.00032500585
2.7478693e-07
-0.00032513796
1.4682755e-07
-0.00032527212
1.5965934e-07
-0.00032541222
9.7956977e-08
-0.00032555758
8.6567203e-08
-0.00032570918
5.0675887e-08
-0.00032586797
3.4355812e-08
-0.00032603427
1.2015509e-08
-0.00032620927
-1.2665466e-09
-0.00032639339
-1.3502452e-08
-0.00032658777
-1.9798433e-08
-0.00032679304
-2.1926934e-08
-0.00032701038
-1.8240252e-08
-0.00032724069
-8.428814e-09
-0.00032748516
8.231246e-09
-0.00032774478
3.2655004e-08
-0.00032802071
6.5527801e-08
-0.00032831405
1.0804038e-07
-0.00032862597
1.6103887e-07
-0.00032895762
2.2581144e-07
-0.00032931019
3.0338753e-07
-0.00032968505
3.951013e-07
-0.00033008424
5.0216935e-07
-0.00033050999
6.2601166e-07
-0.00033096438
7.6789715e-07
-0.00033144982
9.2937858e-07
-0.00033196908
1.1120063e-06
-0.00033252489
1.316892e-06
-0.00033311938
1.5448751e-06
-0.00033375424
1.7968684e-06
-0.00033443127
2.0734155e-06
-0.00033515254
2.3749787e-06
-0.00033591987
2.701397e-06
-0.00033673442
3.0518146e-06
-0.00033759696
3.4251848e-06
-0.00033850806
3.8198416e-06
-0.00033946782
4.2337173e-06
-0.00034047575
4.6641523e-06
-0.0003415308
5.108133e-06
-0.00034263125
5.5621079e-06
-0.00034377475
6.0222584e-06
-0.00034495828
6.4842666e-06
-0.00034617824
6.9436399e-06
-0.00034743045
7.3955827e-06
-0.00034871025
7.8351836e-06
-0.00035001258
8.2574914e-06
-0.00035133204
8.6576111e-06
-0.00035266306
9.0308331e-06
-0.00035399989
9.3726962e-06
-0.00035533681
9.6791215e-06
-0.00035666812
9.94648e-06
-0.00035798825
1.0171672e-05
-0.00035929183
1.0352184e-05
-0.00036057369
1.0486155e-05
-0.00036182893
1.0572364e-05
-0.00036305289
1.0610286e-05
-0.00036424117
1.0600068e-05
-0.00036538959
1.0542518e-05
-0.0003664942
1.0439066e-05
-0.00036755123
1.0291744e-05
-0.0003685571
1.0103083e-05
-0.00036950835
9.8760963e-06
-0.00037040167
9.6141806e-06
-0.00037123391
9.3210446e-06
-0.00037200205
9.0006273e-06
-0.00037270328
8.6570177e-06
-0.000373335
8.2943957e-06
-0.00037389489
7.9169334e-06
-0.00037438096
7.5287724e-06
-0.00037479166
7.1339732e-06
-0.00037512585
6.7364882e-06
-0.00037538299
6.3401644e-06
-0.00037556305
5.9487559e-06
-0.00037566669
5.5659366e-06
-0.00037569515
5.1953408e-06
-0.00037565034
4.8406064e-06
-0.00037553477
4.5053781e-06
-0.00037535154
4.1933567e-06
-0.00037510425
3.9082654e-06
-0.00037479693
3.6538608e-06
-0.00037443398
3.4338491e-06
-0.00037402007
3.2518861e-06
-0.00037356002
3.111391e-06
-0.0003730587
3.0156003e-06
-0.00037252101
2.9673693e-06
-0.00037195175
2.9691782e-06
-0.0003713555
3.022972e-06
-0.00037073662
3.1302439e-06
-0.00037009912
3.2918759e-06
-0.00036944662
3.5082857e-06
-0.00036878229
3.7792967e-06
-0.00036810879
4.1043206e-06
-0.00036742821
4.4822539e-06
-0.00036674203
4.9117081e-06
-0.00036605109
5.3909756e-06
-0.00036535563
5.9182242e-06
-0.00036465518
6.491434e-06
-0.00036394859
7.1086452e-06
-0.00036323394
7.7678483e-06
-0.00036250857
8.4672976e-06
-0.00036176898
9.2053049e-06
-0.00036101074
9.9806064e-06
-0.00036022845
1.0791938e-05
-0.00035941549
1.1638624e-05
-0.00035856395
1.2519571e-05
-0.00035766423
1.3434309e-05
-0.00035670498
1.4380815e-05
-0.00035567248
1.5357524e-05
-0.00035455088
1.6358557e-05
-0.00035332134
1.7378303e-05
-0.00035196315
1.8400935e-05
-0.00035045274
1.9411677e-05
-0.00034876704
2.0373844e-05
-0.00034688204
2.1257777e-05
-0.00034478096
2.1988558e-05
-0.00034245001
2.2522e-05
-0.00033989798
2.2718713e-05
-0.00033713817
2.2542897e-05
-0.00033424129
2.174802e-05
-0.00033126357
2.0381196e-05
-0.00032840705
1.8024142e-05
-0.00032576926
1.494878e-05
-0.00032377939
1.0596009e-05
5.4885626e-06
-0.00033265867
4.2509594e-07
-0.00033282757
3.1573103e-07
-0.00033299935
3.314343e-07
-0.00033318062
2.7923186e-07
-0.00033336844
2.7438341e-07
-0.00033356468
2.4691555e-07
-0.00033376937
2.3904932e-07
-0.0003339832
2.2584761e-07
-0.00033420692
2.2244719e-07
-0.00033444109
2.2066741e-07
-0.00033468671
2.2582292e-07
-0.00033494447
2.3583001e-07
-0.00033521536
2.5265536e-07
-0.00033550018
2.7638929e-07
-0.00033579997
3.0802713e-07
-0.00033611576
3.4844052e-07
-0.00033644872
3.9849071e-07
-0.00033680003