/*--------------------------------*- C++ -*----------------------------------*\
| =========                 |                                                 |
| \\      /  F ield         | foam-extend: Open Source CFD                    |
|  \\    /   O peration     | Version:     4.1                                |
|   \\  /    A nd           | Web:         http://www.foam-extend.org         |
|    \\/     M anipulation  |                                                 |
\*---------------------------------------------------------------------------*/
FoamFile
{
    version     2.0;
    format      ascii;
    class       volScalarField;
    location    "1.8";
    object      rAU;
}
// * * * * * * * * * * * * * * * * * * * * * * * * * * * * * * * * * * * * * //

dimensions      [0 0 1 0 0 0 0];

internalField   nonuniform List<scalar> 
16126
(
0.00049555341
0.00049513427
0.00049513496
0.00049513543
0.00049513624
0.00049513711
0.00049513816
0.00049513937
0.0004951407
0.00049514221
0.00049514384
0.00049514566
0.00049514759
0.0004951497
0.00049515193
0.00049515433
0.00049515684
0.00049515951
0.00049516228
0.00049516519
0.00049516819
0.00049517129
0.00049517444
0.00049517766
0.00049518089
0.00049518413
0.00049518732
0.00049519044
0.00049519344
0.0004951963
0.00049519893
0.00049520131
0.00049520338
0.00049520509
0.00049520639
0.00049520716
0.00049520682
0.00049520558
0.00049520367
0.00049520104
0.00049519769
0.00049519355
0.00049518863
0.00049518288
0.0004951763
0.00049516887
0.00049516058
0.00049515145
0.00049514148
0.00049513068
0.00049511909
0.00049510674
0.00049509367
0.00049507993
0.00049506556
0.00049505064
0.00049503521
0.00049501935
0.00049500314
0.00049498663
0.0004949699
0.00049495303
0.00049493609
0.00049491913
0.00049490223
0.00049488545
0.00049486884
0.00049485246
0.00049483635
0.00049482055
0.00049480512
0.00049479009
0.00049477549
0.00049476136
0.00049474773
0.00049473462
0.00049472206
0.00049471006
0.00049469862
0.00049468774
0.0004946774
0.00049466755
0.00049465816
0.00049464914
0.00049464044
0.00049463193
0.00049462352
0.00049461507
0.00049460646
0.00049459752
0.0004945881
0.00049457802
0.00049456711
0.00049455515
0.00049454196
0.00049452729
0.00049451092
0.00049449256
0.00049447194
0.00049444872
0.0004944225
0.00049439284
0.00049435916
0.00049432076
0.00049427671
0.00049422579
0.00049416638
0.00049409625
0.00049401248
0.00049391106
0.00049378694
0.00049363334
0.00049344232
0.00049320367
0.00049290673
0.00049253845
0.00049208786
0.00049154141
0.00049089403
0.00049013426
0.00048928058
0.00048831499
0.00048738606
0.00048591085
0.000494278
0.00049386053
0.00049386182
0.0004938625
0.00049386397
0.00049386548
0.00049386738
0.00049386954
0.00049387195
0.0004938747
0.00049387765
0.00049388095
0.00049388444
0.00049388826
0.00049389229
0.00049389661
0.00049390112
0.0004939059
0.00049391084
0.000493916
0.00049392127
0.00049392671
0.00049393219
0.00049393774
0.00049394325
0.00049394871
0.000493954
0.00049395909
0.00049396383
0.0004939682
0.00049397203
0.00049397526
0.00049397769
0.00049397911
0.00049397861
0.00049397561
0.00049397081
0.00049396439
0.00049395649
0.00049394692
0.00049393565
0.00049392256
0.00049390764
0.00049389082
0.0004938721
0.00049385146
0.00049382891
0.00049380449
0.00049377826
0.00049375027
0.00049372063
0.00049368945
0.00049365686
0.00049362301
0.00049358806
0.00049355219
0.00049351558
0.00049347843
0.00049344092
0.00049340326
0.00049336561
0.00049332817
0.00049329108
0.00049325451
0.00049321858
0.00049318339
0.00049314906
0.00049311563
0.00049308318
0.00049305172
0.00049302129
0.00049299188
0.0004929635
0.00049293613
0.00049290973
0.00049288428
0.00049285971
0.00049283596
0.00049281296
0.00049279059
0.00049276872
0.0004927472
0.00049272586
0.00049270448
0.00049268284
0.00049266066
0.00049263767
0.00049261355
0.00049258797
0.00049256056
0.00049253095
0.00049249872
0.00049246343
0.00049242463
0.00049238182
0.00049233447
0.00049228199
0.00049222377
0.00049215909
0.0004920872
0.00049200722
0.00049191817
0.00049181894
0.00049170823
0.00049158456
0.00049144618
0.00049129116
0.00049111713
0.00049092165
0.00049070175
0.00049045465
0.00049017706
0.00048986681
0.00048952128
0.00048914105
0.00048872616
0.00048828412
0.00048782013
0.00048735669
0.00048690424
0.00048652223
0.00048620625
0.00048615526
0.00048575114
0.0004923138
0.00049189876
0.00049190011
0.00049190045
0.00049190189
0.00049190325
0.00049190508
0.00049190716
0.00049190951
0.0004919122
0.00049191508
0.00049191832
0.00049192173
0.00049192547
0.00049192937
0.00049193355
0.00049193787
0.00049194242
0.00049194706
0.00049195188
0.00049195672
0.00049196165
0.0004919665
0.00049197133
0.00049197596
0.0004919804
0.00049198449
0.00049198822
0.00049199138
0.00049199395
0.00049199562
0.00049199635
0.00049199542
0.0004919906
0.00049198363
0.00049197392
0.00049196251
0.00049194904
0.00049193353
0.00049191573
0.00049189568
0.00049187322
0.00049184838
0.0004918211
0.00049179142
0.00049175935
0.00049172496
0.00049168834
0.00049164961
0.00049160891
0.00049156641
0.0004915223
0.00049147681
0.00049143017
0.00049138263
0.00049133444
0.00049128586
0.00049123716
0.00049118857
0.00049114035
0.00049109271
0.00049104585
0.00049099993
0.00049095512
0.00049091152
0.00049086922
0.00049082828
0.00049078873
0.00049075056
0.00049071378
0.00049067834
0.00049064419
0.00049061127
0.0004905795
0.00049054878
0.00049051901
0.00049049007
0.00049046181
0.00049043409
0.0004904067
0.00049037945
0.0004903521
0.00049032438
0.00049029601
0.00049026668
0.00049023605
0.00049020378
0.00049016948
0.00049013278
0.00049009325
0.00049005051
0.00049000409
0.00048995357
0.00048989849
0.00048983838
0.00048977276
0.00048970114
0.000489623
0.00048953782
0.00048944503
0.00048934405
0.00048923428
0.00048911507
0.00048898572
0.00048884552
0.00048869368
0.00048852944
0.00048835194
0.00048816054
0.0004879545
0.00048773371
0.00048749803
0.00048724896
0.00048698802
0.00048672033
0.00048645052
0.00048619079
0.00048594965
0.00048575243
0.00048560756
0.00048557047
0.00048562424
0.00048592341
0.00048589624
0.00049069629
0.00049028274
0.00049028367
0.00049028316
0.00049028393
0.00049028444
0.00049028545
0.0004902866
0.00049028797
0.0004902896
0.00049029135
0.00049029337
0.00049029546
0.00049029779
0.00049030016
0.00049030272
0.00049030528
0.00049030796
0.00049031059
0.00049031326
0.0004903158
0.0004903183
0.00049032055
0.00049032264
0.00049032437
0.00049032578
0.00049032666
0.00049032702
0.00049032661
0.00049032548
0.00049032262
0.00049031572
0.00049030704
0.00049029438
0.00049028002
0.00049026356
0.00049024498
0.000490224
0.00049020068
0.00049017481
0.00049014648
0.00049011554
0.00049008207
0.00049004608
0.00049000764
0.00048996683
0.00048992377
0.00048987864
0.00048983161
0.00048978289
0.00048973272
0.00048968135
0.00048962905
0.00048957613
0.00048952284
0.00048946948
0.00048941633
0.00048936365
0.00048931169
0.00048926067
0.00048921079
0.0004891622
0.00048911505
0.00048906943
0.00048902542
0.00048898305
0.00048894234
0.00048890328
0.00048886584
0.00048882995
0.00048879557
0.00048876259
0.00048873095
0.00048870052
0.0004886712
0.00048864284
0.0004886153
0.00048858842
0.000488562
0.00048853582
0.00048850967
0.00048848328
0.00048845639
0.00048842869
0.00048839989
0.00048836967
0.0004883377
0.00048830367
0.00048826723
0.00048822806
0.00048818585
0.00048814027
0.000488091
0.00048803776
0.00048798025
0.0004879182
0.00048785135
0.00048777947
0.00048770231
0.00048761967
0.00048753136
0.00048743718
0.00048733699
0.00048723065
0.00048711805
0.00048699909
0.0004868738
0.0004867422
0.00048660462
0.00048646143
0.00048631371
0.00048616268
0.00048601116
0.00048586203
0.00048572149
0.00048559499
0.00048549443
0.00048542707
0.0004854142
0.0004854582
0.00048559985
0.00048581063
0.00048618795
0.00048618968
0.00048945146
0.00048903899
0.00048903904
0.00048903724
0.00048903682
0.00048903594
0.00048903552
0.0004890351
0.00048903482
0.00048903467
0.00048903453
0.00048903454
0.00048903449
0.00048903456
0.00048903454
0.00048903457
0.00048903446
0.00048903435
0.00048903405
0.00048903366
0.00048903301
0.0004890322
0.00048903102
0.00048902958
0.00048902765
0.00048902532
0.00048902238
0.00048901893
0.0004890126
0.0004890037
0.0004889929
0.00048897787
0.00048896114
0.00048894236
0.0004889215
0.00048889829
0.00048887279
0.00048884481
0.00048881445
0.00048878152
0.00048874618
0.00048870831
0.00048866808
0.00048862552
0.00048858079
0.00048853402
0.00048848541
0.00048843518
0.00048838357
0.00048833082
0.00048827723
0.00048822308
0.00048816867
0.00048811429
0.00048806022
0.00048800674
0.0004879541
0.00048790255
0.00048785228
0.00048780348
0.00048775629
0.00048771084
0.00048766721
0.00048762546
0.00048758562
0.0004875477
0.00048751168
0.00048747753
0.0004874452
0.00048741463
0.00048738575
0.00048735848
0.00048733273
0.0004873084
0.00048728536
0.0004872635
0.00048724265
0.00048722264
0.00048720331
0.00048718443
0.00048716578
0.00048714712
0.00048712819
0.00048710872
0.00048708845
0.00048706709
0.0004870444
0.00048702009
0.00048699392
0.00048696565
0.00048693507
0.00048690197
0.00048686615
0.00048682748
0.0004867858
0.00048674102
0.00048669303
0.00048664181
0.00048658729
0.00048652949
0.00048646842
0.00048640414
0.00048633672
0.00048626629
0.000486193
0.00048611705
0.00048603878
0.00048595855
0.00048587703
0.000485795
0.00048571387
0.00048563517
0.00048556183
0.00048549668
0.0004854452
0.0004854117
0.00048540559
0.0004854311
0.0004855039
0.00048562179
0.00048581411
0.00048605362
0.00048640399
0.00048636744
0.00048855301
0.00048814259
0.00048814145
0.00048813812
0.00048813618
0.0004881336
0.00048813143
0.00048812912
0.00048812686
0.00048812461
0.00048812226
0.00048811994
0.00048811747
0.000488115
0.00048811232
0.00048810959
0.00048810662
0.00048810355
0.00048810018
0.00048809666
0.00048809277
0.00048808866
0.00048808414
0.00048807932
0.00048807401
0.00048806687
0.00048805705
0.0004880464
0.00048803257
0.00048801575
0.00048799713
0.00048797665
0.00048795415
0.00048792939
0.00048790247
0.00048787318
0.00048784164
0.00048780765
0.00048777139
0.00048773273
0.00048769187
0.00048764877
0.00048760364
0.0004875566
0.00048750783
0.00048745756
0.00048740602
0.00048735349
0.00048730022
0.00048724652
0.00048719268
0.000487139
0.00048708576
0.00048703326
0.00048698174
0.00048693147
0.00048688264
0.00048683546
0.00048679008
0.00048674664
0.00048670524
0.00048666596
0.00048662885
0.00048659393
0.0004865612
0.00048653065
0.00048650227
0.00048647601
0.00048645181
0.00048642962
0.00048640937
0.00048639099
0.00048637441
0.0004863595
0.00048634617
0.00048633429
0.00048632371
0.00048631425
0.00048630576
0.000486298
0.00048629077
0.00048628383
0.00048627694
0.00048626985
0.00048626232
0.0004862541
0.00048624497
0.00048623471
0.00048622311
0.00048621
0.00048619524
0.00048617868
0.00048616022
0.00048613978
0.00048611732
0.00048609281
0.00048606627
0.00048603773
0.00048600725
0.00048597491
0.00048594084
0.00048590518
0.0004858681
0.00048582981
0.00048579057
0.00048575065
0.00048571048
0.00048567051
0.00048563145
0.00048559411
0.00048555985
0.00048553008
0.00048550734
0.00048549399
0.00048549446
0.00048551193
0.00048555363
0.00048562183
0.0004857282
0.0004858687
0.00048606423
0.00048629111
0.00048658917
0.00048649074
0.00048794299
0.00048753601
0.00048753324
0.00048752921
0.00048752575
0.0004875215
0.00048751759
0.00048751343
0.00048750925
0.00048750498
0.00048750053
0.00048749603
0.0004874913
0.00048748649
0.0004874814
0.0004874762
0.00048747069
0.00048746504
0.00048745905
0.00048745287
0.00048744631
0.0004874389
0.00048742919
0.00048741882
0.00048740758
0.00048739412
0.00048737752
0.00048735948
0.00048733968
0.00048731815
0.00048729459
0.00048726903
0.00048724139
0.00048721151
0.0004871795
0.00048714517
0.0004871087
0.00048706994
0.00048702912
0.00048698616
0.00048694135
0.00048689467
0.00048684642
0.00048679676
0.00048674593
0.00048669419
0.00048664183
0.00048658914
0.00048653642
0.00048648396
0.00048643207
0.00048638103
0.00048633111
0.00048628257
0.00048623564
0.00048619052
0.00048614738
0.00048610637
0.00048606761
0.0004860312
0.0004859972
0.00048596564
0.00048593656
0.00048590995
0.0004858858
0.00048586408
0.00048584478
0.00048582783
0.00048581318
0.00048580079
0.00048579058
0.00048578248
0.00048577641
0.00048577226
0.00048576991
0.00048576925
0.0004857701
0.0004857723
0.00048577566
0.00048577997
0.000485785
0.00048579053
0.0004857963
0.00048580209
0.00048580765
0.00048581275
0.0004858172
0.00048582079
0.00048582335
0.00048582473
0.00048582484
0.00048582355
0.00048582081
0.00048581658
0.00048581085
0.00048580365
0.00048579501
0.000485785
0.00048577372
0.00048576126
0.00048574778
0.00048573342
0.00048571835
0.00048570279
0.00048568698
0.00048567119
0.0004856558
0.00048564124
0.00048562815
0.00048561725
0.00048560971
0.00048560676
0.00048561049
0.00048562279
0.00048564721
0.00048568607
0.00048574504
0.00048582541
0.0004859363
0.00048607386
0.00048625379
0.00048645796
0.00048671084
0.00048656462
0.00048755248
0.00048714696
0.00048714251
0.00048713908
0.00048713461
0.00048713005
0.00048712518
0.00048712016
0.00048711478
0.00048710885
0.00048710271
0.00048709645
0.00048708991
0.00048708325
0.00048707602
0.00048706818
0.00048705975
0.00048705088
0.00048704136
0.00048703133
0.00048702057
0.00048700861
0.00048699393
0.00048697809
0.00048696081
0.00048694216
0.00048692183
0.00048689989
0.00048687606
0.00048685042
0.00048682271
0.00048679302
0.00048676128
0.00048672732
0.00048669134
0.00048665316
0.00048661302
0.00048657082
0.00048652685
0.00048648106
0.0004864338
0.00048638511
0.00048633533
0.00048628468
0.00048623343
0.00048618187
0.00048613031
0.00048607906
0.00048602842
0.00048597868
0.00048593013
0.00048588303
0.00048583763
0.00048579415
0.00048575277
0.00048571367
0.00048567698
0.0004856428
0.00048561121
0.00048558229
0.00048555605
0.00048553252
0.0004855117
0.00048549358
0.00048547812
0.0004854653
0.00048545508
0.00048544741
0.00048544222
0.00048543947
0.00048543907
0.00048544094
0.000485445
0.00048545112
0.00048545917
0.00048546902
0.00048548049
0.00048549339
0.00048550753
0.00048552268
0.0004855386
0.00048555505
0.00048557179
0.00048558858
0.00048560518
0.00048562136
0.00048563693
0.00048565171
0.00048566552
0.00048567824
0.00048568977
0.00048570002
0.00048570895
0.00048571654
0.00048572279
0.00048572774
0.00048573143
0.00048573395
0.00048573538
0.00048573584
0.00048573545
0.00048573437
0.00048573276
0.00048573082
0.00048572876
0.00048572685
0.00048572544
0.00048572491
0.00048572585
0.00048572894
0.00048573519
0.0004857457
0.00048576227
0.00048578652
0.00048582141
0.00048586883
0.0004859334
0.00048601595
0.00048612356
0.0004862527
0.00048641437
0.00048659427
0.00048680645
0.00048661717
0.00048731594
0.00048690936
0.00048690371
0.00048690013
0.00048689472
0.0004868899
0.00048688413
0.00048687836
0.0004868719
0.00048686484
0.00048685733
0.00048684955
0.00048684128
0.00048683268
0.00048682327
0.00048681299
0.00048680184
0.00048678994
0.00048677703
0.00048676321
0.00048674824
0.0004867322
0.00048671481
0.00048669615
0.00048667595
0.00048665429
0.00048663087
0.00048660582
0.00048657885
0.00048655008
0.00048651925
0.00048648647
0.00048645171
0.00048641484
0.00048637607
0.00048633529
0.00048629277
0.00048624843
0.00048620264
0.00048615537
0.00048610703
0.00048605769
0.00048600774
0.0004859574
0.00048590698
0.0004858568
0.00048580716
0.00048575837
0.00048571071
0.00048566448
0.00048561993
0.00048557729
0.00048553678
0.0004854986
0.00048546288
0.00048542975
0.00048539933
0.00048537169
0.00048534687
0.00048532492
0.00048530585
0.00048528966
0.00048527633
0.00048526586
0.00048525819
0.0004852533
0.00048525114
0.00048525165
0.00048525477
0.00048526043
0.00048526855
0.00048527901
0.00048529174
0.00048530658
0.0004853234
0.00048534202
0.00048536227
0.00048538393
0.0004854068
0.00048543061
0.00048545514
0.00048548014
0.00048550533
0.00048553048
0.00048555535
0.00048557971
0.00048560336
0.00048562612
0.00048564784
0.00048566837
0.00048568764
0.00048570556
0.00048572209
0.00048573723
0.00048575098
0.00048576337
0.00048577446
0.00048578433
0.00048579307
0.00048580077
0.00048580758
0.00048581362
0.00048581905
0.00048582407
0.00048582888
0.00048583372
0.00048583895
0.00048584494
0.00048585225
0.00048586151
0.00048587369
0.00048588977
0.00048591139
0.00048593995
0.00048597802
0.00048602717
0.00048609121
0.00048617079
0.00048627143
0.00048639022
0.00048653482
0.00048669426
0.00048687564
0.00048665354
0.00048717919
0.00048677148
0.00048676495
0.0004867602
0.0004867537
0.00048674767
0.00048674068
0.00048673362
0.00048672584
0.00048671775
0.00048670899
0.00048669977
0.00048668983
0.00048667933
0.00048666801
0.00048665601
0.00048664308
0.00048662934
0.00048661453
0.00048659876
0.00048658176
0.00048656364
0.0004865441
0.00048652327
0.00048650085
0.00048647695
0.0004864513
0.00048642399
0.00048639477
0.00048636377
0.00048633077
0.0004862959
0.00048625916
0.00048622043
0.00048617998
0.00048613771
0.00048609393
0.00048604861
0.00048600212
0.0004859545
0.00048590618
0.00048585724
0.0004858081
0.000485759
0.00048571027
0.00048566219
0.00048561509
0.00048556925
0.00048552494
0.00048548243
0.00048544194
0.00048540369
0.00048536784
0.00048533457
0.00048530398
0.00048527619
0.00048525127
0.00048522927
0.00048521022
0.00048519417
0.00048518109
0.000485171
0.00048516387
0.00048515968
0.00048515839
0.00048515996
0.00048516435
0.00048517149
0.00048518131
0.00048519373
0.00048520865
0.00048522597
0.00048524556
0.00048526728
0.00048529094
0.00048531638
0.00048534339
0.00048537172
0.00048540118
0.00048543147
0.00048546235
0.00048549355
0.0004855248
0.00048555586
0.00048558648
0.00048561642
0.00048564549
0.0004856735
0.00048570029
0.00048572574
0.00048574976
0.00048577227
0.00048579324
0.00048581266
0.00048583054
0.00048584693
0.00048586188
0.00048587548
0.00048588783
0.00048589903
0.00048590922
0.00048591854
0.00048592716
0.00048593529
0.00048594315
0.00048595099
0.00048595918
0.0004859681
0.00048597833
0.00048599048
0.00048600547
0.00048602425
0.00048604827
0.00048607881
0.00048611808
0.0004861674
0.00048622985
0.00048630582
0.00048639944
0.00048650807
0.00048663668
0.00048677668
0.00048693116
0.00048668117
0.00048710264
0.00048669386
0.00048668668
0.000486681
0.00048667368
0.00048666673
0.00048665881
0.00048665076
0.00048664197
0.00048663282
0.00048662295
0.0004866126
0.00048660147
0.00048658974
0.00048657716
0.00048656385
0.00048654957
0.00048653445
0.00048651822
0.00048650099
0.00048648251
0.00048646288
0.00048644182
0.00048641944
0.00048639547
0.00048637001
0.0004863428
0.00048631397
0.00048628327
0.00048625086
0.00048621653
0.00048618042
0.00048614256
0.00048610287
0.00048606163
0.00048601877
0.00048597462
0.00048592919
0.00048588287
0.00048583571
0.00048578816
0.00048574032
0.00048569262
0.00048564529
0.00048559865
0.00048555299
0.0004855086
0.00048546576
0.00048542472
0.0004853857
0.00048534891
0.00048531453
0.00048528271
0.00048525359
0.00048522726
0.00048520381
0.0004851833
0.00048516577
0.00048515125
0.00048513978
0.00048513134
0.00048512593
0.00048512355
0.00048512416
0.00048512775
0.00048513426
0.00048514366
0.00048515588
0.00048517083
0.00048518843
0.00048520858
0.00048523115
0.000485256
0.00048528296
0.00048531184
0.00048534245
0.00048537454
0.00048540789
0.00048544224
0.00048547731
0.00048551282
0.00048554851
0.00048558408
0.00048561929
0.00048565387
0.00048568758
0.00048572023
0.00048575162
0.00048578161
0.00048581006
0.0004858369
0.00048586204
0.00048588548
0.00048590719
0.00048592719
0.00048594554
0.00048596231
0.00048597759
0.00048599148
0.00048600411
0.00048601563
0.00048602619
0.00048603599
0.00048604523
0.00048605416
0.00048606307
0.00048607232
0.00048608233
0.00048609365
0.00048610691
0.00048612297
0.00048614272
0.00048616748
0.00048619838
0.00048623731
0.00048628538
0.00048634506
0.00048641663
0.00048650311
0.00048660229
0.00048671724
0.00048684124
0.00048697475
0.00048670253
0.00048706029
0.00048665056
0.00048664294
0.0004866365
0.00048662858
0.00048662091
0.00048661229
0.0004866035
0.00048659395
0.00048658401
0.00048657332
0.00048656211
0.00048655011
0.00048653748
0.00048652397
0.00048650971
0.00048649446
0.00048647834
0.00048646109
0.00048644283
0.0004864233
0.0004864026
0.00048638048
0.00048635704
0.00048633203
0.00048630555
0.00048627736
0.00048624759
0.00048621601
0.00048618279
0.00048614775
0.00048611104
0.00048607271
0.0004860327
0.00048599132
0.00048594849
0.0004859046
0.00048585964
0.00048581403
0.00048576782
0.00048572148
0.00048567511
0.00048562911
0.00048558373
0.00048553927
0.000485496
0.00048545419
0.0004854141
0.00048537594
0.00048533993
0.00048530624
0.00048527503
0.00048524642
0.00048522055
0.0004851975
0.00048517733
0.00048516011
0.00048514589
0.00048513469
0.00048512655
0.00048512148
0.00048511949
0.00048512056
0.0004851247
0.00048513187
0.00048514204
0.00048515517
0.0004851712
0.00048519003
0.00048521159
0.00048523574
0.00048526235
0.00048529127
0.0004853223
0.00048535525
0.00048538989
0.00048542597
0.00048546323
0.00048550141
0.00048554019
0.0004855793
0.00048561721
0.00048564603
0.00048567629
0.0004857078
0.00048574041
0.00048577392
0.00048580819
0.00048584304
0.00048587834
0.00048591395
0.00048594974
0.00048598055
0.00048600344
0.00048602448
0.00048604373
0.00048606125
0.00048607717
0.0004860916
0.00048610468
0.00048611659
0.0004861275
0.00048613763
0.00048614721
0.0004861565
0.00048616582
0.00048617555
0.00048618612
0.00048619807
0.00048621202
0.00048622878
0.00048624918
0.00048627438
0.00048630539
0.00048634376
0.00048639041
0.00048644727
0.00048651442
0.00048659398
0.00048668401
0.00048678618
0.00048689529
0.00048701048
0.00048671956
0.00048703626
0.00048662573
0.0004866178
0.00048661076
0.0004866024
0.00048659418
0.00048658505
0.0004865757
0.00048656558
0.00048655505
0.00048654375
0.00048653192
0.00048651928
0.00048650598
0.00048649179
0.00048647684
0.00048646088
0.00048644404
0.00048642607
0.00048640709
0.00048638683
0.00048636542
0.0004863426
0.00048631847
0.00048629278
0.00048626567
0.00048623689
0.0004862066
0.00048617456
0.00048614097
0.00048610565
0.00048606877
0.00048603041
0.00048599052
0.00048594939
0.000485907
0.00048586372
0.00048581956
0.00048577493
0.00048572991
0.00048568493
0.00048564011
0.00048559584
0.00048555234
0.0004855099
0.00048546877
0.0004854292
0.00048539142
0.00048535563
0.00048532201
0.00048529072
0.00048526192
0.00048523571
0.0004852122
0.00048519149
0.00048517364
0.00048515872
0.00048514678
0.00048513788
0.00048513205
0.00048512932
0.00048512971
0.00048513323
0.0004851399
0.00048514968
0.00048516257
0.00048517852
0.00048519745
0.00048521931
0.00048524397
0.00048527131
0.00048530119
0.00048533343
0.00048536782
0.00048540414
0.00048544215
0.00048548158
0.00048552214
0.00048556355
0.00048560321
0.00048562986
0.00048565709
0.00048567711
0.0004857006
0.00048572745
0.00048575755
0.00048579076
0.00048582693
0.00048586587
0.00048590737
0.00048595124
0.00048599726
0.00048604015
0.00048607688
0.00048611341
0.00048613665
0.00048615447
0.00048617059
0.00048618513
0.00048619825
0.00048621015
0.00048622102
0.00048623108
0.00048624062
0.00048624989
0.00048625924
0.00048626904
0.00048627974
0.00048629187
0.00048630602
0.00048632294
0.00048634339
0.00048636841
0.00048639885
0.00048643603
0.00048648068
0.00048653432
0.00048659692
0.00048666995
0.00048675174
0.00048684304
0.00048693969
0.00048704003
0.00048673362
0.00048702161
0.00048661041
0.00048660228
0.00048659475
0.00048658606
0.0004865774
0.00048656788
0.00048655809
0.00048654754
0.00048653656
0.0004865248
0.00048651249
0.00048649936
0.00048648557
0.00048647088
0.00048645542
0.00048643894
0.00048642159
0.0004864031
0.0004863836
0.00048636284
0.00048634093
0.00048631763
0.00048629305
0.00048626695
0.00048623947
0.00048621037
0.00048617982
0.00048614759
0.0004861139
0.00048607857
0.0004860418
0.00048600366
0.00048596411
0.00048592347
0.0004858817
0.00048583919
0.00048579594
0.00048575238
0.00048570856
0.00048566493
0.00048562156
0.00048557885
0.00048553701
0.00048549629
0.00048545694
0.00048541917
0.00048538321
0.00048534923
0.0004853174
0.00048528786
0.00048526076
0.00048523621
0.00048521431
0.00048519516
0.00048517884
0.00048516543
0.00048515499
0.0004851476
0.00048514331
0.00048514217
0.00048514422
0.0004851495
0.00048515802
0.00048516977
0.00048518475
0.00048520293
0.00048522423
0.00048524858
0.00048527586
0.00048530594
0.00048533865
0.00048537381
0.00048541119
0.00048545054
0.00048549161
0.00048553409
0.00048557768
0.00048561147
0.00048563476
0.00048564685
0.00048566272
0.00048568233
0.00048570562
0.00048573251
0.00048576285
0.0004857965
0.00048583327
0.00048587295
0.00048591533
0.00048596016
0.0004860072
0.00048605622
0.00048610696
0.0004861592
0.0004861997
0.00048623619
0.00048625721
0.00048627168
0.00048628468
0.00048629642
0.00048630711
0.00048631701
0.0004863264
0.00048633558
0.00048634487
0.00048635469
0.00048636545
0.00048637768
0.00048639194
0.00048640892
0.00048642931
0.000486454
0.00048648372
0.00048651956
0.00048656209
0.00048661242
0.00048667047
0.00048673715
0.000486811
0.00048689217
0.00048697739
0.00048706474
0.00048674523
0.00048701153
0.00048659979
0.00048659151
0.00048658357
0.00048657462
0.00048656561
0.00048655578
0.00048654564
0.00048653475
0.0004865234
0.00048651128
0.0004864986
0.00048648509
0.00048647092
0.00048645583
0.00048643998
0.00048642311
0.00048640537
0.0004863865
0.00048636662
0.0004863455
0.00048632325
0.00048629963
0.00048627477
0.00048624842
0.00048622073
0.00048619148
0.00048616083
0.00048612859
0.00048609496
0.00048605978
0.00048602325
0.00048598545
0.00048594636
0.00048590628
0.00048586519
0.00048582347
0.00048578113
0.00048573858
0.00048569586
0.00048565341
0.0004856113
0.00048556991
0.00048552942
0.00048549007
0.00048545209
0.00048541569
0.00048538105
0.00048534835
0.00048531775
0.00048528938
0.00048526339
0.00048523987
0.00048521897
0.00048520077
0.00048518537
0.00048517286
0.00048516335
0.0004851569
0.00048515362
0.00048515356
0.0004851568
0.00048516337
0.00048517333
0.00048518667
0.00048520339
0.00048522347
0.00048524684
0.00048527342
0.00048530309
0.00048533571
0.00048537108
0.00048540902
0.00048544927
0.00048549157
0.00048553562
0.00048558111
0.00048561395
0.00048562747
0.00048563457
0.0004856457
0.00048566085
0.00048568
0.00048570307
0.00048572997
0.00048576056
0.00048579465
0.00048583205
0.00048587253
0.00048591583
0.00048596171
0.00048600988
0.00048606008
0.00048611202
0.00048616545
0.00048622012
0.0004862758
0.00048631725
0.00048635248
0.00048636526
0.00048637673
0.00048638714
0.00048639674
0.00048640584
0.00048641475
0.00048642381
0.00048643341
0.00048644398
0.00048645602
0.00048647007
0.00048648673
0.00048650665
0.00048653058
0.00048655917
0.00048659329
0.0004866334
0.00048668032
0.00048673392
0.00048679473
0.0004868615
0.00048693394
0.00048700942
0.00048708587
0.00048675518
0.00048700363
0.00048659146
0.00048658305
0.00048657476
0.0004865656
0.00048655629
0.0004865462
0.00048653576
0.00048652459
0.00048651294
0.00048650052
0.00048648753
0.00048647371
0.00048645922
0.00048644382
0.00048642765
0.00048641048
0.00048639243
0.00048637326
0.0004863531
0.00048633171
0.00048630922
0.00048628538
0.00048626033
0.00048623383
0.00048620603
0.00048617673
0.00048614608
0.00048611391
0.00048608042
0.00048604545
0.00048600922
0.00048597181
0.00048593319
0.00048589368
0.00048585324
0.00048581225
0.00048577072
0.00048572904
0.00048568726
0.0004856458
0.0004856047
0.00048556433
0.00048552487
0.00048548654
0.00048544955
0.00048541408
0.00048538032
0.00048534844
0.00048531859
0.00048529091
0.00048526553
0.00048524257
0.00048522218
0.00048520446
0.00048518953
0.0004851775
0.0004851685
0.00048516262
0.00048515999
0.00048516069
0.0004851648
0.00048517241
0.00048518355
0.00048519826
0.00048521654
0.00048523838
0.0004852637
0.00048529242
0.00048532441
0.00048535952
0.00048539754
0.00048543826
0.00048548141
0.0004855267
0.0004855738
0.00048561117
0.00048561976
0.00048562137
0.0004856272
0.00048563731
0.00048565173
0.0004856704
0.00048569328
0.00048572023
0.00048575112
0.00048578573
0.00048582386
0.00048586523
0.00048590958
0.00048595662
0.00048600604
0.00048605753
0.0004861108
0.00048616556
0.00048622153
0.00048627843
0.00048633606
0.00048639344
0.00048642922
0.00048645209
0.00048646214
0.00048647138
0.00048648013
0.0004864887
0.00048649745
0.00048650677
0.00048651707
0.00048652882
0.00048654253
0.00048655875
0.00048657805
0.00048660108
0.00048662837
0.00048666064
0.00048669821
0.00048674169
0.00048679087
0.00048684601
0.00048690602
0.00048697038
0.00048703699
0.00048710386
0.00048676361
0.00048699676
0.00048658422
0.0004865757
0.00048656712
0.00048655778
0.00048654819
0.00048653788
0.00048652719
0.00048651577
0.00048650386
0.00048649118
0.00048647792
0.00048646384
0.00048644908
0.00048643341
0.00048641699
0.00048639955
0.00048638125
0.00048636185
0.00048634147
0.00048631988
0.0004862972
0.00048627321
0.00048624803
0.00048622145
0.00048619361
0.0004861643
0.00048613371
0.00048610165
0.00048606834
0.00048603361
0.00048599769
0.00048596066
0.00048592248
0.00048588348
0.00048584361
0.00048580326
0.0004857624
0.00048572144
0.0004856804
0.00048563969
0.00048559936
0.00048555973
0.00048552099
0.00048548333
0.00048544696
0.00048541206
0.0004853788
0.00048534734
0.00048531783
0.00048529043
0.00048526527
0.00048524249
0.00048522223
0.00048520463
0.00048518983
0.00048517796
0.00048516917
0.00048516359
0.00048516136
0.00048516259
0.0004851674
0.00048517587
0.00048518807
0.00048520404
0.0004852238
0.00048524734
0.00048527458
0.00048530543
0.00048533977
0.00048537742
0.00048541816
0.00048546176
0.00048550792
0.00048555632
0.00048560402
0.00048561305
0.00048560868
0.00048560871
0.00048561323
0.00048562232
0.000485636
0.00048565424
0.00048567697
0.00048570405
0.00048573532
0.00048577056
0.00048580954
0.00048585195
0.00048589749
0.00048594584
0.00048599667
0.00048604962
0.00048610437
0.0004861606
0.00048621799
0.00048627626
0.00048633517
0.00048639444
0.0004864539
0.00048650105
0.00048653305
0.0004865418
0.00048655005
0.00048655812
0.00048656637
0.00048657519
0.00048658498
0.00048659619
0.00048660928
0.00048662477
0.00048664314
0.00048666497
0.00048669071
0.00048672091