/*--------------------------------*- C++ -*----------------------------------*\
| =========                 |                                                 |
| \\      /  F ield         | foam-extend: Open Source CFD                    |
|  \\    /   O peration     | Version:     4.1                                |
|   \\  /    A nd           | Web:         http://www.foam-extend.org         |
|    \\/     M anipulation  |                                                 |
\*---------------------------------------------------------------------------*/
FoamFile
{
    version     2.0;
    format      ascii;
    class       volVectorField;
    location    "1.8";
    object      U;
}
// * * * * * * * * * * * * * * * * * * * * * * * * * * * * * * * * * * * * * //

dimensions      [0 1 -1 0 0 0 0];

internalField   nonuniform List<vector> 
16126
(
(0.11382998 -1.4547328e-06 0)
(0.11380322 1.6368752e-05 0)
(0.11370922 4.0175997e-06 0)
(0.11369625 1.3339377e-05 0)
(0.11356011 1.0949907e-05 0)
(0.11351495 1.4617629e-05 0)
(0.11336032 1.6202058e-05 0)
(0.11327103 1.7950976e-05 0)
(0.11310133 2.0638579e-05 0)
(0.11296905 2.2083326e-05 0)
(0.11278103 2.4882425e-05 0)
(0.11260976 2.6468634e-05 0)
(0.11239969 2.9100487e-05 0)
(0.11219326 3.0843726e-05 0)
(0.11195882 3.3232784e-05 0)
(0.11172063 3.5006061e-05 0)
(0.11146136 3.7101957e-05 0)
(0.11119489 3.8758406e-05 0)
(0.11091231 4.0526433e-05 0)
(0.11062188 4.19857e-05 0)
(0.11031962 4.347799e-05 0)
(0.11001106 4.4800742e-05 0)
(0.10969527 4.6152517e-05 0)
(0.10937676 4.7301049e-05 0)
(0.10905659 4.8122938e-05 0)
(0.108739 4.82198e-05 0)
(0.10842638 4.7283517e-05 0)
(0.1081234 4.5539588e-05 0)
(0.10783302 4.3990864e-05 0)
(0.10756109 4.326133e-05 0)
(0.10731237 4.3003656e-05 0)
(0.10709234 3.8982027e-05 0)
(0.10690513 2.9354631e-05 0)
(0.10675408 2.5516221e-05 0)
(0.10665018 3.4447921e-05 0)
(0.10660109 3.6939324e-05 0)
(0.10661652 2.5096908e-05 0)
(0.10670519 1.3830145e-05 0)
(0.10686019 6.4010953e-06 0)
(0.10708405 -2.024816e-07 0)
(0.1073788 -6.6321847e-06 0)
(0.10774801 -1.3320656e-05 0)
(0.10819452 -2.0240399e-05 0)
(0.10872099 -2.7366574e-05 0)
(0.10932939 -3.4641402e-05 0)
(0.11002115 -4.202273e-05 0)
(0.110797 -4.9469825e-05 0)
(0.11165703 -5.694878e-05 0)
(0.11260054 -6.4431019e-05 0)
(0.11362614 -7.1894614e-05 0)
(0.11473165 -7.9324045e-05 0)
(0.11591416 -8.6709501e-05 0)
(0.11717005 -9.4047379e-05 0)
(0.11849498 -0.00010133709 0)
(0.11988399 -0.00010858035 0)
(0.12133155 -0.00011577897 0)
(0.12283159 -0.00012293176 0)
(0.12437766 -0.00013003184 0)
(0.12596298 -0.00013706499 0)
(0.12758054 -0.00014400584 0)
(0.12922325 -0.00015081654 0)
(0.130884 -0.00015744586 0)
(0.13255579 -0.00016382701 0)
(0.13423182 -0.00016987791 0)
(0.13590559 -0.00017550078 0)
(0.13757091 -0.00018058372 0)
(0.13922202 -0.00018500096 0)
(0.14085352 -0.00018861573 0)
(0.14246044 -0.00019128436 0)
(0.14403817 -0.00019286018 0)
(0.14558242 -0.00019320014 0)
(0.14708922 -0.00019217347 0)
(0.14855482 -0.00018966939 0)
(0.14997578 -0.00018560789 0)
(0.15134888 -0.00017994867 0)
(0.15267131 -0.00017269925 0)
(0.15394069 -0.00016391863 0)
(0.15515528 -0.00015372096 0)
(0.15631416 -0.00014226862 0)
(0.15741744 -0.00012976877 0)
(0.15846641 -0.00011645773 0)
(0.15946379 -0.00010259242 0)
(0.16041374 -8.8428838e-05 0)
(0.16132204 -7.4219749e-05 0)
(0.16219604 -6.0193072e-05 0)
(0.16304463 -4.6551817e-05 0)
(0.1638782 -3.3456158e-05 0)
(0.1647085 -2.1031403e-05 0)
(0.16554864 -9.3487484e-06 0)
(0.16641287 1.5580228e-06 0)
(0.16731666 1.172074e-05 0)
(0.16827649 2.1210968e-05 0)
(0.16931007 3.0182644e-05 0)
(0.17043605 3.8830782e-05 0)
(0.17167462 4.7461999e-05 0)
(0.17304686 5.6416589e-05 0)
(0.1745762 6.6198261e-05 0)
(0.17628701 7.7293581e-05 0)
(0.17820771 9.0396414e-05 0)
(0.18036776 0.00010596279 0)
(0.18280433 0.00012461383 0)
(0.18555595 0.00014607887 0)
(0.18867665 0.00016993512 0)
(0.19222243 0.00019318334 0)
(0.19628147 0.00021176773 0)
(0.20094456 0.00021524913 0)
(0.20636932 0.00019040562 0)
(0.21271359 0.00011011557 0)
(0.22027086 -5.723364e-05 0)
(0.22931601 -0.00037001024 0)
(0.24038939 -0.00088830986 0)
(0.25393372 -0.0017180461 0)
(0.27089388 -0.0029475192 0)
(0.29186139 -0.0047380444 0)
(0.31837448 -0.0071745428 0)
(0.35091436 -0.010466403 0)
(0.39185546 -0.014610677 0)
(0.44073902 -0.019872175 0)
(0.50139097 -0.025970223 0)
(0.57017604 -0.03338208 0)
(0.65491014 -0.040701182 0)
(0.74101924 -0.049853327 0)
(0.85366832 -0.051317718 0)
(0.92415204 -0.062803591 0)
(0.33277096 7.6470605e-06 0)
(0.33271401 7.5808375e-05 0)
(0.33257755 5.6537336e-05 0)
(0.33249291 9.5917636e-05 0)
(0.33228977 0.00010208253 0)
(0.33214327 0.00012556405 0)
(0.33189392 0.00014154015 0)
(0.33167923 0.00015933132 0)
(0.33138626 0.00017803045 0)
(0.331106 0.00019449063 0)
(0.33076739 0.00021346359 0)
(0.33042602 0.00022986962 0)
(0.33004012 0.00024831583 0)
(0.32964236 0.00026468486 0)
(0.32920953 0.00028219413 0)
(0.32876078 0.00029802613 0)
(0.32828414 0.00031410795 0)
(0.32779137 0.00032859634 0)
(0.32727735 0.00034247555 0)
(0.32675024 0.00035447912 0)
(0.3262093 0.00036492295 0)
(0.32566132 0.00037281637 0)
(0.32510861 0.00037801905 0)
(0.32455794 0.00037988908 0)
(0.32401398 0.00037839896 0)
(0.32348441 0.00037329692 0)
(0.32297643 0.0003644895 0)
(0.32249996 0.00035143344 0)
(0.32206374 0.00033229166 0)
(0.32167849 0.00030509809 0)
(0.32135325 0.00027060205 0)
(0.32110087 0.00023349829 0)
(0.32094314 0.00019749189 0)
(0.32090006 0.00014566665 0)
(0.32098536 6.789558e-05 0)
(0.32121944 -1.4462883e-05 0)
(0.32157855 -9.4588183e-05 0)
(0.32207147 -0.00017657998 0)
(0.32271123 -0.00025959177 0)
(0.32350765 -0.00034642732 0)
(0.32446876 -0.00043722177 0)
(0.3256019 -0.00053201647 0)
(0.32691315 -0.00063028039 0)
(0.32840764 -0.00073142085 0)
(0.33008896 -0.00083470019 0)
(0.33195927 -0.00093932485 0)
(0.33401892 -0.0010444274 0)
(0.3362665 -0.0011490925 0)
(0.33869859 -0.0012523642 0)
(0.34130982 -0.0013532643 0)
(0.34409276 -0.0014508076 0)
(0.34703795 -0.00154402 0)
(0.35013403 -0.0016319604 0)
(0.35336776 -0.0017137377 0)
(0.35672429 -0.0017885333 0)
(0.36018731 -0.0018556218 0)
(0.36373937 -0.0019143889 0)
(0.36736216 -0.0019643484 0)
(0.37103691 -0.0020051578 0)
(0.37474469 -0.0020366256 0)
(0.37846685 -0.002058718 0)
(0.38218537 -0.0020715587 0)
(0.38588323 -0.0020754189 0)
(0.38954469 -0.002070704 0)
(0.39315561 -0.0020579312 0)
(0.39670363 -0.0020377029 0)
(0.40017827 -0.0020106724 0)
(0.40357102 -0.0019775118 0)
(0.4068753 -0.0019388798 0)
(0.41008632 -0.0018953947 0)
(0.41320099 -0.0018476175 0)
(0.41621769 -0.0017960509 0)
(0.41913611 -0.0017411493 0)
(0.42195705 -0.0016833513 0)
(0.42468236 -0.0016231202 0)
(0.42731492 -0.0015609996 0)
(0.42985863 -0.001497662 0)
(0.43231866 -0.0014339631 0)
(0.43470157 -0.0013709641 0)
(0.43701568 -0.0013099545 0)
(0.43927127 -0.0012524255 0)
(0.44148088 -0.0012000529 0)
(0.44365956 -0.0011546267 0)
(0.44582497 -0.0011180129 0)
(0.44799752 -0.0010920721 0)
(0.45020035 -0.0010786413 0)
(0.45245935 -0.001079473 0)
(0.45480299 -0.0010962578 0)
(0.45726237 -0.0011305889 0)
(0.45987103 -0.0011840308 0)
(0.46266499 -0.0012580973 0)
(0.46568267 -0.0013543642 0)
(0.46896516 -0.0014744487 0)
(0.47255605 -0.0016201765 0)
(0.47650216 -0.0017935445 0)
(0.4808533 -0.0019969952 0)
(0.48566363 -0.0022333382 0)
(0.49099112 -0.0025062539 0)
(0.49690004 -0.0028200882 0)
(0.50345959 -0.0031808384 0)
(0.5107485 -0.0035956675 0)
(0.51885141 -0.0040748866 0)
(0.52786764 -0.0046307972 0)
(0.53790228 -0.0052816845 0)
(0.54908309 -0.0060489728 0)
(0.56153941 -0.0069651802 0)
(0.57543569 -0.0080667603 0)
(0.5909232 -0.0094096658 0)
(0.60820843 -0.011051363 0)
(0.62744493 -0.013081073 0)
(0.64887808 -0.015575756 0)
(0.67260533 -0.018660326 0)
(0.69889449 -0.022404671 0)
(0.72765064 -0.026951563 0)
(0.75914248 -0.03228573 0)
(0.79279019 -0.038529649 0)
(0.82889381 -0.045424771 0)
(0.86574675 -0.053076113 0)
(0.90398595 -0.060659743 0)
(0.93923156 -0.068566943 0)
(0.97383177 -0.074239414 0)
(0.9968684 -0.080424476 0)
(1.0165921 -0.074778282 0)
(1.0120302 -0.080171676 0)
(0.52802031 2.4879086e-05 0)
(0.52796595 0.00015668255 0)
(0.52781765 0.00013999577 0)
(0.52771377 0.00021436195 0)
(0.5275001 0.00023522313 0)
(0.52732526 0.00028438183 0)
(0.52706236 0.00031938828 0)
(0.52681767 0.00035950997 0)
(0.52650734 0.00039850787 0)
(0.52619846 0.00043586863 0)
(0.52584063 0.00047505266 0)
(0.52547402 0.00051127033 0)
(0.52507022 0.00054898401 0)
(0.52465302 0.00058370064 0)
(0.52420759 0.00061866222 0)
(0.52374849 0.0006505201 0)
(0.52326918 0.00068113564 0)
(0.52277954 0.0007081287 0)
(0.52227824 0.00073229528 0)
(0.5217732 0.00075188534 0)
(0.52126673 0.00076698835 0)
(0.52076656 0.00077623238 0)
(0.52027798 0.0007792473 0)
(0.51980988 0.00077465936 0)
(0.51937008 0.00076142838 0)
(0.51896867 0.00073764011 0)
(0.51861549 0.00070130452 0)
(0.51832198 0.00065163377 0)
(0.51810028 0.00058929331 0)
(0.51796785 0.00051485103 0)
(0.51794498 0.00042679411 0)
(0.51805143 0.00031137655 0)
(0.51829826 0.00016099095 0)
(0.51871042 -5.0340728e-06 0)
(0.51925824 -0.00017881033 0)
(0.51994633 -0.0003579068 0)
(0.52080267 -0.00054229072 0)
(0.52183926 -0.00074001154 0)
(0.52307175 -0.0009493014 0)
(0.5245111 -0.0011695334 0)
(0.52616668 -0.0013998694 0)
(0.5280464 -0.0016393689 0)
(0.53015642 -0.0018865676 0)
(0.53250126 -0.0021397574 0)
(0.53508327 -0.002396925 0)
(0.53790266 -0.0026558619 0)
(0.54095709 -0.0029141612 0)
(0.5442417 -0.0031692758 0)
(0.5477489 -0.00341855 0)
(0.55146843 -0.0036592756 0)
(0.5553873 -0.0038887448 0)
(0.55948996 -0.004104313 0)
(0.56375846 -0.0043034671 0)
(0.5681727 -0.0044838907 0)
(0.57271078 -0.004643534 0)
(0.57734934 -0.0047806784 0)
(0.58206407 -0.0048939932 0)
(0.58683014 -0.0049825835 0)
(0.59162275 -0.0050460268 0)
(0.59641763 -0.0050843893 0)
(0.60119152 -0.0050982288 0)
(0.6059227 -0.0050885761 0)
(0.61059134 -0.0050568945 0)
(0.61517989 -0.0050050213 0)
(0.61967333 -0.0049350897 0)
(0.62405934 -0.0048494381 0)
(0.62832839 -0.0047505072 0)
(0.63247367 -0.0046407386 0)
(0.63649105 -0.0045224806 0)
(0.64037882 -0.0043979106 0)
(0.64413752 -0.0042689836 0)
(0.64776966 -0.0041374216 0)
(0.65127947 -0.004004734 0)
(0.65467274 -0.0038722876 0)
(0.65795661 -0.0037413989 0)
(0.66113957 -0.0036134588 0)
(0.66423144 -0.003490045 0)
(0.66724344 -0.003373042 0)
(0.6701884 -0.0032647018 0)
(0.67308091 -0.0031676971 0)
(0.67593752 -0.0030850859 0)
(0.67877693 -0.0030202836 0)
(0.68162015 -0.0029769412 0)
(0.68449056 -0.0029588866 0)
(0.68741398 -0.0029699788 0)
(0.69041861 -0.0030140573 0)
(0.69353491 -0.0030948314 0)
(0.69679553 -0.0032158947 0)
(0.70023508 -0.0033806615 0)
(0.70388994 -0.0035924587 0)
(0.7077981 -0.0038544987 0)
(0.71199892 -0.0041700435 0)
(0.71653302 -0.0045423963 0)
(0.721442 -0.0049751398 0)
(0.72676851 -0.0054721252 0)
(0.73255584 -0.0060378119 0)
(0.73884827 -0.0066771886 0)
(0.74569033 -0.0073963324 0)
(0.75312775 -0.0082021774 0)
(0.76120581 -0.0091035263 0)
(0.76997138 -0.010110441 0)
(0.77946953 -0.011236164 0)
(0.78974758 -0.012495642 0)
(0.80084785 -0.013909282 0)
(0.812816 -0.015499421 0)
(0.82568538 -0.017297757 0)
(0.83949461 -0.019336951 0)
(0.85425378 -0.021665301 0)
(0.86998256 -0.024326884 0)
(0.88663741 -0.027390686 0)
(0.90419704 -0.03090413 0)
(0.92250505 -0.034952467 0)
(0.94146814 -0.039552137 0)
(0.96071035 -0.044779316 0)
(0.98004744 -0.050528917 0)
(0.99869812 -0.056818075 0)
(1.0164559 -0.063227778 0)
(1.0317855 -0.069694179 0)
(1.0448246 -0.075060452 0)
(1.052521 -0.079436258 0)
(1.056527 -0.079597117 0)
(1.0507257 -0.077534069 0)
(1.0403404 -0.062591192 0)
(1.0190171 -0.04740809 0)
(0.68999035 3.0029887e-05 0)
(0.68998827 0.00022477441 0)
(0.6898648 0.00021272831 0)
(0.68980539 0.00031859229 0)
(0.68963751 0.00035318607 0)
(0.68951281 0.00042491333 0)
(0.68931106 0.000475467 0)
(0.68912919 0.00053433727 0)
(0.68889474 0.00058873171 0)
(0.68866537 0.00064238941 0)
(0.68840028 0.00069582789 0)
(0.68813316 0.00074602502 0)
(0.68784245 0.00079599034 0)
(0.68754822 0.00084188907 0)
(0.68724032 0.00088615389 0)
(0.68693165 0.00092557104 0)
(0.68661896 0.00096142657 0)
(0.68631178 0.00099117159 0)
(0.68601128 0.0010150532 0)
(0.68572588 0.0010308782 0)
(0.6854599 0.0010379979 0)
(0.68522195 0.0010341961 0)
(0.68501873 0.0010179433 0)
(0.68485967 0.00098730341 0)
(0.6847536 0.00094114208 0)
(0.68471148 0.00087815492 0)
(0.68474583 0.0007973816 0)
(0.68487219 0.00069698329 0)
(0.68510512 0.00057074497 0)
(0.68545858 0.00041057923 0)
(0.68594404 0.00021535318 0)
(0.68657694 -2.6043641e-06 0)
(0.68733454 -0.00024003989 0)
(0.68821471 -0.00049151986 0)
(0.68925179 -0.00075553514 0)
(0.69045931 -0.001044414 0)
(0.69185976 -0.0013570863 0)
(0.69346478 -0.0016902847 0)
(0.6952847 -0.0020422622 0)
(0.69732946 -0.0024116283 0)
(0.69960689 -0.0027965034 0)
(0.70212316 -0.0031947655 0)
(0.70488218 -0.0036036453 0)
(0.70788579 -0.0040199907 0)
(0.71113324 -0.0044401932 0)
(0.71462127 -0.00486032 0)
(0.71834378 -0.0052761381 0)
(0.7222919 -0.0056832122 0)
(0.72645387 -0.006076979 0)
(0.73081521 -0.0064528546 0)
(0.73535879 -0.0068063384 0)
(0.74006509 -0.0071331321 0)
(0.7449125 -0.0074292593 0)
(0.74987767 -0.0076911822 0)
(0.75493593 -0.0079159142 0)
(0.76006177 -0.0081011199 0)
(0.76522933 -0.0082451961 0)
(0.77041288 -0.0083473331 0)
(0.77558738 -0.0084075492 0)
(0.78072886 -0.008426695 0)
(0.78581495 -0.0084064272 0)
(0.79082517 -0.0083491523 0)
(0.79574132 -0.008257935 0)
(0.80054764 -0.0081363835 0)
(0.805231 -0.0079885076 0)
(0.80978097 -0.0078185647 0)
(0.81418977 -0.0076308958 0)
(0.81845225 -0.0074297704 0)
(0.82256569 -0.007219248 0)
(0.82652968 -0.0070030735 0)
(0.83034591 -0.0067846116 0)
(0.83401798 -0.0065668413 0)
(0.83755123 -0.0063523938 0)
(0.84095261 -0.0061436551 0)
(0.84423054 -0.0059428933 0)
(0.84739491 -0.0057524276 0)
(0.85045704 -0.005574773 0)
(0.85342966 -0.0054127967 0)
(0.856327 -0.0052697925 0)
(0.85916483 -0.0051495519 0)
(0.86196046 -0.0050563134 0)
(0.86473281 -0.0049947365 0)
(0.8675024 -0.0049697411 0)
(0.8702913 -0.0049864182 0)
(0.87312306 -0.0050498303 0)
(0.87602258 -0.0051649479 0)
(0.87901592 -0.0053364831 0)
(0.88213007 -0.0055688976 0)
(0.88539273 -0.0058662915 0)
(0.88883194 -0.0062324973 0)
(0.89247581 -0.0066710169 0)
(0.89635218 -0.0071851927 0)
(0.90048825 -0.007778168 0)
(0.90491022 -0.0084531262 0)
(0.90964306 -0.009213249 0)
(0.91470992 -0.010062048 0)
(0.92013216 -0.01100329 0)
(0.92592842 -0.012041527 0)
(0.93211502 -0.013181863 0)
(0.93870437 -0.014430873 0)
(0.94570603 -0.015796047 0)
(0.95312387 -0.017287511 0)
(0.96095835 -0.018916683 0)
(0.96920097 -0.020699572 0)
(0.9778393 -0.022653542 0)
(0.98684538 -0.024803652 0)
(0.99618702 -0.027174836 0)
(1.0058031 -0.029804079 0)
(1.0156293 -0.032721754 0)
(1.0255453 -0.035975457 0)
(1.0354346 -0.03958664 0)
(1.0450716 -0.043600027 0)
(1.0542658 -0.047985977 0)
(1.0626131 -0.052752692 0)
(1.0698538 -0.057729124 0)
(1.0753021 -0.062844741 0)
(1.0787452 -0.067625131 0)
(1.0790663 -0.071949833 0)
(1.0765064 -0.074722663 0)
(1.0692854 -0.076136077 0)
(1.0590471 -0.073498789 0)
(1.0434642 -0.068848778 0)
(1.0261531 -0.054149017 0)
(1.0099681 -0.037791908 0)
(0.81536192 7.5192336e-06 0)
(0.8154691 0.0002574357 0)
(0.81541182 0.00024712841 0)
(0.81545957 0.00037728566 0)
(0.815394 0.0004205494 0)
(0.81538929 0.00050857382 0)
(0.81531681 0.00056902872 0)
(0.81527584 0.00064044624 0)
(0.81519606 0.00070385022 0)
(0.81513275 0.00076696873 0)
(0.81504914 0.00082724544 0)
(0.81497642 0.00088347191 0)
(0.81489655 0.00093700767 0)
(0.81482801 0.00098475691 0)
(0.81476328 0.0010281023 0)
(0.81471449 0.0010639663 0)
(0.8146802 0.0010928781 0)
(0.81466965 0.0011121213 0)
(0.8146852 0.0011213193 0)
(0.81473508 0.0011180107 0)
(0.81482425 0.0011011522 0)
(0.81496107 0.0010685165 0)
(0.81515299 0.0010187863 0)
(0.81541016 0.00094959115 0)
(0.81574215 0.00085862891 0)
(0.81615973 0.00074162061 0)
(0.8166729 0.00059300961 0)
(0.81729091 0.00041021088 0)
(0.81802577 0.00019556202 0)
(0.81887622 -4.7224582e-05 0)
(0.81983494 -0.00031907759 0)
(0.82090224 -0.0006141654 0)
(0.82210886 -0.00093191184 0)
(0.82346679 -0.0012854517 0)
(0.82499902 -0.0016759381 0)
(0.82671722 -0.0020965983 0)
(0.82862997 -0.0025457416 0)
(0.83074684 -0.0030226954 0)
(0.83307654 -0.0035248301 0)
(0.83562605 -0.0040496646 0)
(0.83840035 -0.0045939516 0)
(0.84140233 -0.0051540924 0)
(0.84463247 -0.0057257611 0)
(0.84808888 -0.006304123 0)
(0.85176707 -0.0068837884 0)
(0.85565993 -0.0074589642 0)
(0.85975766 -0.0080235213 0)
(0.86404788 -0.0085711388 0)
(0.86851567 -0.0090954295 0)
(0.87314379 -0.0095900976 0)
(0.87791293 -0.010049094 0)
(0.88280201 -0.010466783 0)
(0.88778855 -0.010838098 0)
(0.89284904 -0.011158697 0)
(0.89795936 -0.011425094 0)
(0.90309522 -0.011634774 0)
(0.90823255 -0.011786274 0)
(0.91334792 -0.011879234 0)
(0.9184189 -0.011914413 0)
(0.92342437 -0.011893665 0)
(0.92834481 -0.011819871 0)
(0.9331625 -0.011696843 0)
(0.93786169 -0.011529183 0)
(0.9424287 -0.011322122 0)
(0.94685196 -0.01108133 0)
(0.95112203 -0.010812718 0)
(0.95523157 -0.010522239 0)
(0.95917523 -0.010215707 0)
(0.96294964 -0.0098986338 0)
(0.96655329 -0.0095761232 0)
(0.96998645 -0.0092528013 0)
(0.97325111 -0.0089328226 0)
(0.97635093 -0.0086199197 0)
(0.97929117 -0.0083175256 0)
(0.98207866 -0.0080289138 0)
(0.98472179 -0.0077573876 0)
(0.98723046 -0.0075064295 0)
(0.98961603 -0.007279871 0)
(0.99189128 -0.0070819593 0)
(0.99407035 -0.0069174329 0)
(0.99616865 -0.0067914484 0)
(0.99820274 -0.0067095522 0)
(1.0001903 -0.0066774736 0)
(1.0021498 -0.006701064 0)
(1.0041005 -0.0067860493 0)
(1.0060623 -0.0069379449 0)
(1.0080552 -0.0071618468 0)
(1.0100992 -0.0074624292 0)
(1.0122143 -0.0078437886 0)
(1.0144196 -0.0083095435 0)
(1.0167335 -0.0088627346 0)
(1.0191731 -0.0095060158 0)
(1.0217541 -0.010241595 0)
(1.0244899 -0.011071508 0)
(1.0273921 -0.011997592 0)
(1.0304694 -0.013021824 0)
(1.0337279 -0.014146225 0)
(1.03717 -0.015373352 0)
(1.0407953 -0.016706093 0)
(1.0445987 -0.018148466 0)
(1.0485713 -0.019705086 0)
(1.0526986 -0.021382573 0)
(1.0569616 -0.023188265 0)
(1.0613329 -0.025132829 0)
(1.06578 -0.027227192 0)
(1.0702565 -0.029487514 0)
(1.0747101 -0.031927953 0)
(1.0790641 -0.03457033 0)
(1.0832364 -0.037427358 0)
(1.0871001 -0.040522138 0)
(1.0905308 -0.043850091 0)
(1.0933219 -0.04742097 0)
(1.0953026 -0.051173954 0)
(1.0961516 -0.055076424 0)
(1.0956895 -0.058933501 0)
(1.0934463 -0.062640389 0)
(1.0893807 -0.065730447 0)
(1.0828352 -0.068066652 0)
(1.0742575 -0.068642661 0)
(1.0627276 -0.067610999 0)
(1.0497273 -0.06273195 0)
(1.0343328 -0.055594487 0)
(1.0187163 -0.041061369 0)
(1.0063657 -0.024408247 0)
(0.90614579 -6.8688803e-05 0)
(0.9064128 0.00021500803 0)
(0.90645218 0.0002012043 0)
(0.90665234 0.00034469481 0)
(0.90672956 0.00039016137 0)
(0.90689219 0.00048470548 0)
(0.90699357 0.00054602595 0)
(0.90714185 0.00061976352 0)
(0.90726353 0.00068175876 0)
(0.9074151 0.00074337222 0)
(0.90756063 0.00079917744 0)
(0.90773068 0.00084979829 0)
(0.90790869 0.00089489744 0)
(0.90811232 0.00093224638 0)
(0.90833523 0.00096224581 0)
(0.90858892 0.00098220855 0)
(0.90887276 0.00099201494 0)
(0.90919553 0.0009890322 0)
(0.90955998 0.00097240954 0)
(0.90997401 0.00093951979 0)
(0.91044265 0.00088871125 0)
(0.91097379 0.00081679467 0)
(0.91157366 0.00072033439 0)
(0.91225003 0.00059623574 0)
(0.9130101 0.00044258004 0)
(0.91386242 0.00025805675 0)
(0.91480956 4.3276827e-05 0)
(0.91584943 -0.00020386957 0)
(0.91698299 -0.00048334863 0)
(0.91822197 -0.00079243354 0)
(0.91958359 -0.0011347643 0)
(0.92107988 -0.0015198013 0)
(0.92272922 -0.0019493701 0)
(0.92454214 -0.0024171949 0)
(0.92652421 -0.0029222496 0)
(0.92868354 -0.0034652774 0)
(0.93102911 -0.0040440507 0)
(0.93356724 -0.0046555498 0)
(0.93630282 -0.0052962871 0)
(0.93923912 -0.0059623883 0)
(0.94237719 -0.0066492653 0)
(0.945716 -0.0073517683 0)
(0.94925205 -0.0080639786 0)
(0.95297953 -0.0087793957 0)
(0.95689015 -0.0094909436 0)
(0.9609733 -0.010191148 0)
(0.96521606 -0.010872249 0)
(0.96960343 -0.011526391 0)
(0.9741185 -0.012145788 0)
(0.97874276 -0.012722918 0)
(0.98345634 -0.013250716 0)
(0.9882384 -0.013722761 0)
(0.99306744 -0.014133451 0)
(0.99792164 -0.014478164 0)
(1.0027792 -0.014753385 0)
(1.0076188 -0.014956811 0)
(1.0124194 -0.015087417 0)
(1.017161 -0.015145475 0)
(1.0218248 -0.015132547 0)
(1.026393 -0.015051423 0)
(1.0308491 -0.014906027 0)
(1.0351781 -0.014701279 0)
(1.0393663 -0.014442938 0)
(1.0434015 -0.014137404 0)
(1.047273 -0.013791516 0)
(1.0509716 -0.013412338 0)
(1.0544894 -0.013006956 0)
(1.0578201 -0.012582293 0)
(1.0609586 -0.012144955 0)
(1.0639018 -0.011701124 0)
(1.0666476 -0.011256502 0)
(1.0691958 -0.010816323 0)
(1.0715479 -0.010385399 0)
(1.0737068 -0.0099682459 0)
(1.0756774 -0.0095692123 0)
(1.0774663 -0.0091926581 0)
(1.0790814 -0.0088430838 0)
(1.0805327 -0.0085252897 0)
(1.0818314 -0.0082444154 0)
(1.0829901 -0.008006015 0)
(1.0840225 -0.0078159488 0)
(1.0849435 -0.0076803749 0)
(1.0857686 -0.0076055217 0)
(1.0865138 -0.0075975903 0)
(1.0871955 -0.0076624671 0)
(1.0878303 -0.0078056778 0)
(1.0884343 -0.0080321292 0)
(1.0890235 -0.0083461404 0)
(1.089613 -0.0087512399 0)
(1.0902168 -0.0092502975 0)
(1.0908479 -0.0098453851 0)
(1.0915174 -0.010538001 0)
(1.0922348 -0.011328974 0)
(1.0930073 -0.012218755 0)
(1.0938397 -0.013207339 0)
(1.0947345 -0.014294606 0)
(1.095691 -0.015480281 0)
(1.0967055 -0.016764418 0)
(1.0977713 -0.018147203 0)
(1.0988774 -0.019629655 0)
(1.1000097 -0.021213194 0)
(1.1011489 -0.02290083 0)
(1.1022719 -0.024696051 0)
(1.1033484 -0.026604954 0)
(1.104344 -0.028633585 0)
(1.1052128 -0.030791847 0)
(1.1059047 -0.033087209 0)
(1.1063505 -0.035532242 0)
(1.106478 -0.038130075 0)
(1.1061818 -0.040889906 0)
(1.105363 -0.043794388 0)
(1.1038631 -0.046834537 0)
(1.1015631 -0.049937827 0)
(1.0982358 -0.053054059 0)
(1.0937874 -0.055993987 0)
(1.0879144 -0.058654014 0)
(1.0806787 -0.060628087 0)
(1.0716981 -0.061820718 0)
(1.0614502 -0.061414086 0)
(1.0494947 -0.059599173 0)
(1.0370191 -0.054638375 0)
(1.0239719 -0.047747416 0)
(1.0116553 -0.035237601 0)
(1.0034076 -0.020191587 0)
(0.96781008 -0.00020955032 0)
(0.9682665 8.4394721e-05 0)
(0.96841219 6.4357264e-05 0)
(0.96878031 0.00020858298 0)
(0.9690106 0.0002482355 0)
(0.96935307 0.00034057043 0)
(0.96963752 0.00039580564 0)
(0.96998467 0.00046424493 0)
(0.97031449 0.00051783892 0)
(0.97068666 0.00057053475 0)
(0.97106398 0.00061452537 0)
(0.97147726 0.00065192069 0)
(0.9719101 0.00068101114 0)
(0.9723797 0.00070031738 0)
(0.97288006 0.00070924531 0)
(0.973422 0.00070525915 0)
(0.97400492 0.00068755059 0)
(0.97463689 0.00065340432 0)
(0.97532038 0.00060138102 0)
(0.97606241 0.00052866479 0)
(0.97686721 0.00043330561 0)
(0.97774119 0.00031279508 0)
(0.97868851 0.00016589927 0)
(0.97971064 -9.9499529e-06 0)
(0.98081113 -0.00021758603 0)
(0.98199298 -0.00045801311 0)
(0.9832636 -0.00073100687 0)
(0.98463582 -0.0010391053 0)
(0.986118 -0.0013882686 0)
(0.98772201 -0.0017835441 0)
(0.98946007 -0.0022252914 0)
(0.99134028 -0.0027109698 0)
(0.99336698 -0.0032405713 0)
(0.99554705 -0.0038162986 0)
(0.99788846 -0.004437236 0)
(1.0003965 -0.005099915 0)
(1.0030751 -0.0058013377 0)
(1.005927 -0.006538012 0)
(1.0089533 -0.0073053434 0)
(1.0121533 -0.0080982129 0)
(1.0155242 -0.008910568 0)
(1.0190611 -0.0097357251 0)
(1.0227567 -0.010566206 0)
(1.0266016 -0.011393961 0)
(1.0305844 -0.012210417 0)
(1.0346915 -0.01300669 0)
(1.038908 -0.013773736 0)
(1.0432172 -0.01450257 0)
(1.0476013 -0.01518446 0)
(1.0520418 -0.015811147 0)
(1.0565193 -0.016375038 0)
(1.0610144 -0.016869402 0)
(1.0655076 -0.017288538 0)
(1.0699796 -0.017627913 0)
(1.0744116 -0.017884283 0)
(1.0787856 -0.018055759 0)
(1.0830842 -0.018141851 0)
(1.0872909 -0.01814346 0)
(1.0913901 -0.018062842 0)
(1.0953672 -0.017903522 0)
(1.0992086 -0.01767018 0)
(1.1029013 -0.017368505 0)
(1.1064335 -0.017005019 0)
(1.1097942 -0.016586889 0)
(1.1129732 -0.016121717 0)
(1.1159613 -0.015617349 0)
(1.1187501 -0.015081668 0)
(1.1213325 -0.014522436 0)
(1.1237024 -0.013947145 0)
(1.1258548 -0.013362928 0)
(1.1277865 -0.012776502 0)
(1.1294955 -0.012194184 0)
(1.1309816 -0.011621928 0)
(1.1322466 -0.011065435 0)
(1.1332937 -0.010530256 0)
(1.1341285 -0.010021951 0)
(1.134758 -0.0095461722 0)
(1.1351912 -0.0091088136 0)
(1.1354386 -0.0087160006 0)
(1.1355121 -0.0083741587 0)
(1.1354248 -0.0080898723 0)
(1.1351908 -0.0078698711 0)
(1.1348249 -0.0077207167 0)
(1.1343421 -0.0076488418 0)
(1.1337578 -0.0076602254 0)
(1.1330872 -0.0077603191 0)
(1.132345 -0.0079537794 0)
(1.1315453 -0.0082445152 0)
(1.1307014 -0.0086354486 0)
(1.1298252 -0.0091286873 0)
(1.1289274 -0.0097253366 0)
(1.1280171 -0.010425774 0)
(1.1271016 -0.011229513 0)
(1.126186 -0.012135563 0)
(1.1252738 -0.013142417 0)
(1.1243656 -0.014248415 0)
(1.1234599 -0.015451623 0)
(1.1225525 -0.016750269 0)
(1.1216367 -0.018142602 0)
(1.1207026 -0.01962754 0)
(1.1197378 -0.021204226 0)
(1.1187258 -0.022872985 0)
(1.1176474 -0.024634318 0)
(1.116478 -0.02649053 0)
(1.1151899 -0.028443339 0)
(1.1137467 -0.030496873 0)
(1.1121093 -0.032652158 0)
(1.1102241 -0.034913045 0)
(1.1080366 -0.037273773 0)
(1.1054678 -0.039731664 0)
(1.1024471 -0.042259566 0)
(1.0988608 -0.044835503 0)
(1.0946342 -0.047381757 0)
(1.0896136 -0.049839298 0)
(1.0837636 -0.052029297 0)
(1.0768924 -0.053848883 0)
(1.0691049 -0.054935671 0)
(1.0601744 -0.055196694 0)
(1.0505115 -0.053936573 0)
(1.0398871 -0.051296975 0)
(1.0291339 -0.045954364 0)
(1.018442 -0.038834437 0)
(1.0085159 -0.027747186 0)
(1.0022183 -0.014814929 0)
(1.0071706 -0.00042583774 0)
(1.0078198 -0.00014524397 0)
(1.0080666 -0.00016955462 0)
(1.0086 -3.4220665e-05 0)
(1.00897 -4.8852189e-06 0)
(1.0094777 7.6929809e-05 0)
(1.0099261 0.00011886096 0)
(1.0104511 0.00017379349 0)
(1.0109647 0.0002110388 0)
(1.0115309 0.00024662585 0)
(1.0121099 0.00027101536 0)
(1.0127335 0.00028746563 0)
(1.0133844 0.0002929986 0)
(1.0140797 0.00028672099 0)
(1.0148132 0.00026740669 0)
(1.0155948 0.00023299836 0)
(1.0164233 0.00018223795 0)
(1.0173053 0.00011258648 0)
(1.0182422 2.2388115e-05 0)
(1.0192391 -9.1022911e-05 0)
(1.0202985 -0.00022962691 0)
(1.021425 -0.0003957534 0)
(1.0226226 -0.00059059202 0)
(1.0238999 -0.00081681561 0)
(1.0252624 -0.0010775945 0)
(1.0267171 -0.0013768383 0)
(1.0282721 -0.0017191968 0)
(1.0299365 -0.0021066888 0)
(1.0317181 -0.0025396051 0)
(1.0336224 -0.0030189162 0)
(1.0356542 -0.0035462933 0)
(1.03782 -0.0041244611 0)
(1.0401261 -0.0047535855 0)
(1.0425774 -0.0054311255 0)
(1.0451763 -0.0061551493 0)
(1.0479251 -0.006923189 0)
(1.0508251 -0.0077313721 0)
(1.0538757 -0.0085748927 0)
(1.0570743 -0.0094479797 0)
(1.060417 -0.010344087 0)
(1.0638971 -0.011255788 0)
(1.0675066 -0.01217496 0)
(1.0712351 -0.013092761 0)
(1.0750704 -0.013999848 0)
(1.0789988 -0.014886483 0)
(1.0830051 -0.015742766 0)
(1.0870732 -0.016558816 0)
(1.0911858 -0.017325004 0)
(1.0953255 -0.018032162 0)
(1.0994742 -0.018671791 0)
(1.1036144 -0.019236253 0)
(1.1077283 -0.019718945 0)
(1.1117992 -0.02011444 0)
(1.1158105 -0.0204186 0)
(1.1197468 -0.020628656 0)
(1.123593 -0.020743255 0)
(1.1273353 -0.02076246 0)
(1.1309603 -0.02068773 0)
(1.1344555 -0.020521857 0)
(1.1378089 -0.020268868 0)
(1.1410091 -0.019933914 0)
(1.1440453 -0.019523118 0)
(1.1469069 -0.019043417 0)
(1.1495839 -0.018502385 0)
(1.1520667 -0.017908053 0)
(1.1543464 -0.017268729 0)
(1.1564144 -0.016592829 0)
(1.158263 -0.015888735 0)
(1.1598856 -0.015164662 0)
(1.1612767 -0.01442859 0)
(1.1624319 -0.013688198 0)
(1.1633487 -0.012950886 0)
(1.1640261 -0.012223782 0)
(1.1644651 -0.011513836 0)
(1.1646686 -0.010827878 0)
(1.1646415 -0.010172745 0)
(1.1643908 -0.009555318 0)
(1.163925 -0.0089826321 0)
(1.1632547 -0.0084618246 0)
(1.1623918 -0.0080001982 0)
(1.1613493 -0.0076050056 0)
(1.1601415 -0.007283504 0)
(1.1587831 -0.0070426798 0)
(1.1572892 -0.0068891529 0)
(1.1556749 -0.0068287832 0)
(1.1539555 -0.0068667599 0)
(1.1521455 -0.0070072508 0)
(1.1502588 -0.0072535538 0)
(1.1483084 -0.0076077928 0)
(1.1463063 -0.0080711791 0)
(1.144263 -0.0086437744 0)
(1.1421875 -0.0093248547 0)
(1.1400873 -0.010112732 0)
(1.1379679 -0.011005179 0)
(1.135833 -0.011999252 0)
(1.1336841 -0.013091652 0)
(1.1315211 -0.014278752 0)
(1.1293413 -0.015557141 0)
(1.1271402 -0.016923369 0)
(1.1249106 -0.018374508 0)
(1.122643 -0.019907812 0)
(1.1203251 -0.021521567 0)
(1.117942 -0.02321415 0)
(1.1154748 -0.024985379 0)
(1.1129019 -0.026834425 0)
(1.1101951 -0.028762138 0)
(1.1073241 -0.030766303 0)
(1.1042473 -0.032846276 0)
(1.1009235 -0.034992357 0)
(1.0972922 -0.037196092 0)
(1.0933023 -0.039426954 0)
(1.0888687 -0.041657378 0)
(1.0839419 -0.043811444 0)
(1.078411 -0.045829252 0)
(1.0722642 -0.047549929 0)
(1.0653698 -0.048881072 0)
(1.0578324 -0.049515379 0)
(1.0495167 -0.049378436 0)
(1.0407616 -0.047908286 0)
(1.0315011 -0.045216837 0)
(1.0223603 -0.040294353 0)
(1.0137293 -0.033773362 0)
(1.0060306 -0.02416168 0)
(1.001411 -0.012708137 0)
(1.0308093 -0.00070975419 0)
(1.0316194 -0.00046170755 0)
(1.0319481 -0.00049044576 0)
(1.0326242 -0.00037086512 0)
(1.0331119 -0.00035317334 0)
(1.033762 -0.00028669183 0)
(1.0343465 -0.00026115758 0)
(1.035019 -0.00022375559 0)
(1.0356804 -0.00020605887 0)
(1.0364005 -0.00019104961 0)
(1.0371361 -0.00018941232 0)
(1.0379207 -0.00019706625 0)
(1.038736 -0.00021783304 0)
(1.039599 -0.00025208047 0)
(1.0405027 -0.00030157136 0)
(1.0414571 -0.00036806675 0)
(1.042461 -0.00045315211 0)
(1.0435212 -0.00055920612 0)
(1.0446393 -0.00068808776 0)
(1.0458211 -0.00084246363 0)
(1.0470697 -0.0010246594 0)
(1.0483907 -0.0012379045 0)
(1.0497892 -0.0014858219 0)
(1.0512717 -0.0017714584 0)
(1.0528439 -0.0020969772 0)
(1.0545122 -0.0024648663 0)
(1.0562817 -0.0028772409 0)
(1.0581572 -0.0033367136 0)
(1.0601444 -0.0038463564 0)
(1.062249 -0.0044086511 0)
(1.0644765 -0.0050242128 0)
(1.0668308 -0.0056923819 0)
(1.0693143 -0.0064124396 0)
(1.0719291 -0.0071833394 0)
(1.0746767 -0.0080024575 0)
(1.0775567 -0.0088656592 0)
(1.0805673 -0.0097680192 0)
(1.083705 -0.010703628 0)
(1.0869646 -0.011665499 0)
(1.0903392 -0.012645828 0)
(1.0938197 -0.013635896 0)