/*--------------------------------*- C++ -*----------------------------------*\
| =========                 |                                                 |
| \\      /  F ield         | foam-extend: Open Source CFD                    |
|  \\    /   O peration     | Version:     4.1                                |
|   \\  /    A nd           | Web:         http://www.foam-extend.org         |
|    \\/     M anipulation  |                                                 |
\*---------------------------------------------------------------------------*/
FoamFile
{
    version     2.0;
    format      ascii;
    class       volScalarField;
    location    "0.3";
    object      p;
}
// * * * * * * * * * * * * * * * * * * * * * * * * * * * * * * * * * * * * * //

dimensions      [0 2 -2 0 0 0 0];

internalField   nonuniform List<scalar> 
4242
(
-0.22553556
-0.22687483
-0.22766524
-0.22743928
-0.22549701
-0.22069027
-0.21167104
-0.197226
-0.17675165
-0.15045289
-0.11931199
-0.084860506
-0.048987771
-0.013996229
0.018246414
0.051004396
-0.4121309
-0.41192708
-0.41097601
-0.40817808
-0.4019648
-0.39045414
-0.37196759
-0.34576755
-0.31249083
-0.27401173
-0.23269411
-0.19048894
-0.14865647
-0.10824663
-0.07040794
-0.034445021
-0.59790547
-0.5974543
-0.5963287
-0.59352731
-0.58747908
-0.57609648
-0.55708167
-0.52864417
-0.49040565
-0.44383642
-0.39174851
-0.33712321
-0.28230242
-0.22893101
-0.17814989
-0.13148086
-0.75937872
-0.75843183
-0.75682952
-0.75367647
-0.74745181
-0.73609922
-0.71720838
-0.68855467
-0.6489859
-0.59917508
-0.54149702
-0.47911368
-0.41490086
-0.35095355
-0.28867046
-0.23028197
-0.87224374
-0.8709019
-0.86895631
-0.86565072
-0.85956073
-0.84870604
-0.83064466
-0.80290002
-0.76377216
-0.7132255
-0.65316982
-0.58676125
-0.51711816
-0.44654303
-0.37656613
-0.30816706
-0.92991904
-0.92832206
-0.92620777
-0.92300499
-0.91748689
-0.90787737
-0.89183938
-0.86676148
-0.83046253
-0.7821434
-0.72302036
-0.65601611
-0.58452355
-0.51127989
-0.43823368
-0.3672775
-0.9336672
-0.93194857
-0.92981397
-0.92689701
-0.92224792
-0.91442863
-0.90139785
-0.88062829
-0.84963243
-0.80685995
-0.75257172
-0.68900379
-0.61947124
-0.54707741
-0.4741236
-0.40259545
-0.8913409
-0.8896409
-0.88761508
-0.8850773
-0.8813763
-0.87548565
-0.86581725
-0.85017564
-0.82605222
-0.79133865
-0.74527215
-0.68902171
-0.62531191
-0.55726406
-0.48744862
-0.41832562
-0.81438766
-0.81282681
-0.81101069
-0.80888652
-0.80607407
-0.80196493
-0.79551184
-0.78505647
-0.76838006
-0.74313118
-0.70765021
-0.66182255
-0.60728829
-0.54673667
-0.48287611
-0.41846542
-0.72200182
-0.72069553
-0.71916729
-0.71741818
-0.71525844
-0.71241038
-0.7083176
-0.70193047
-0.69161778
-0.67526236
-0.65073849
-0.61669665
-0.57321533
-0.52183447
-0.4650045
-0.40608238
-0.61896294
-0.61798158
-0.61677817
-0.61533769
-0.61355889
-0.61139959
-0.60880277
-0.60552586
-0.6008473
-0.59323447
-0.58044754
-0.55980312
-0.52902493
-0.48730639
-0.43548123
-0.37630316
-0.54505761
-0.54451994
-0.54374323
-0.54269832
-0.54132068
-0.53969843
-0.53826028
-0.53782817
-0.53901788
-0.540595
-0.53864287
-0.52847389
-0.50572518
-0.46834086
-0.41748932
-0.35499789
0.043149067
0.04406723
0.045311794
0.04780924
0.052682729
0.060946131
0.073236744
0.089496911
0.10885439
0.12975494
0.15046939
0.16955372
0.1859182
0.19863987
0.20785687
0.21727907
0.26329511
0.26187277
0.26072128
0.2604829
0.26172933
0.26508376
0.27096149
0.27928726
0.2893792
0.30007825
0.31005426
0.31808361
0.32312426
0.3242257
0.32084653
0.31452183
0.46302828
0.46139293
0.45982753
0.45872677
0.45832213
0.45885636
0.46040123
0.46267729
0.46500733
0.46643418
0.46594106
0.46263376
0.45575943
0.44464182
0.42920402
0.41180157
0.61297617
0.61106695
0.60910301
0.6073411
0.605781
0.60441146
0.6030809
0.60137584
0.59860118
0.59386701
0.58624611
0.57490803
0.55912724
0.53829459
0.51265331
0.48508837
0.71684669
0.71478583
0.71258637
0.71041035
0.70811762
0.7055269
0.70230275
0.69786512
0.69141019
0.68203406
0.66890119
0.65134394
0.62881708
0.60101811
0.56926899
0.5388743
-0.5995054
-0.59905351
-0.59792784
-0.59512487
-0.58907014
-0.577672
-0.55862741
-0.53013982
-0.49182988
-0.4451717
-0.39298699
-0.33827015
-0.28337384
-0.22999569
-0.17942971
-0.13315713
0.74273244
0.74081855
0.73871366
0.73651857
0.73403992
0.7310348
0.72711819
0.72171
0.71408589
0.70349034
0.68925433
0.67087268
0.6480307
0.6206394
0.58906405
0.55477358
0.74289446
0.74097412
0.73886281
0.73666174
0.73417687
0.73116439
0.72723804
0.72181659
0.71417575
0.70356269
0.68931406
0.67093137
0.64810866
0.62079849
0.5895258
0.55603304
0.71644738
0.71438685
0.71218905
0.71001632
0.70772867
0.7051449
0.70192939
0.69750173
0.69105847
0.68169838
0.66859189
0.65107823
0.62862185
0.60097225
0.56960476
0.53984607
0.611621
0.60973256
0.60779216
0.60605514
0.60452246
0.60318349
0.60188653
0.60021714
0.59747893
0.59278271
0.58520713
0.57392108
0.55813725
0.53711092
0.51133874
0.48539821
0.46153988
0.4599316
0.45839656
0.4573276
0.45695856
0.45753527
0.45913309
0.46147578
0.46388741
0.46541147
0.4650368
0.46186512
0.45502864
0.4435571
0.42778671
0.41368898
0.26303806
0.2616284
0.26049178
0.26026896
0.26153332
0.26491285
0.27083097
0.27922261
0.28941487
0.30025438
0.31041575
0.31867714
0.32396903
0.32530166
0.32227429
0.31606474
0.043992834
0.044907571
0.046148088
0.048637507
0.053495899
0.061737006
0.074002094
0.090240882
0.10958924
0.1304961
0.15122891
0.17033186
0.1866803
0.19927106
0.20817933
0.21739302
-0.54366952
-0.54313705
-0.54236582
-0.54132632
-0.53995323
-0.53833206
-0.53688703
-0.5364317
-0.53758288
-0.53917649
-0.53723305
-0.52702096
-0.50411496
-0.4663018
-0.41425631
-0.35061951
-0.61777255
-0.61679091
-0.61558609
-0.61414301
-0.6123606
-0.61019752
-0.60760021
-0.60433328
-0.59968381
-0.59212876
-0.57943448
-0.55892039
-0.52831671
-0.48685189
-0.43564139
-0.37846354
-0.72073748
-0.71943005
-0.71789988
-0.71614898
-0.7139895
-0.71114746
-0.70707269
-0.70072212
-0.69047255
-0.67421331
-0.64982095
-0.61594433
-0.57266187
-0.5215208
-0.4650508
-0.40685384
-0.81331399
-0.81175231
-0.80993492
-0.80781039
-0.80500096
-0.80090225
-0.79447276
-0.78406102
-0.76745417
-0.74230316
-0.70694615
-0.66126496
-0.60690253
-0.54655781
-0.48297909
-0.41920951
-0.89054063
-0.88883991
-0.88681357
-0.88427735
-0.88058297
-0.87470818
-0.86506971
-0.84947612
-0.82541981
-0.79078893
-0.74481403
-0.6886597
-0.62505605
-0.55713129
-0.48746713
-0.41871173
-0.9333008
-0.93158154
-0.92944708
-0.92653292
-0.921892
-0.91408949
-0.90108682
-0.8803573
-0.84941017
-0.80668832
-0.75244588
-0.68891859
-0.61943484
-0.5471083
-0.47425905
-0.40307777
-0.93010117
-0.92850333
-0.92638933
-0.92318949
-0.91767865
-0.90808222
-0.89206335
-0.86700814
-0.83072949
-0.78242111
-0.72329596
-0.65628197
-0.58479176
-0.51157164
-0.43859729
-0.36792507
-0.87301834
-0.87167533
-0.86972979
-0.86642605
-0.86033973
-0.84948998
-0.83143287
-0.80368763
-0.76454743
-0.71397243
-0.65387525
-0.58742195
-0.51775358
-0.44718287
-0.37729515
-0.3091987
-0.76066736
-0.75971933
-0.75811687
-0.7549639
-0.74873777
-0.73737982
-0.71847653
-0.68979841
-0.65018467
-0.60030982
-0.54255753
-0.48010002
-0.4158322
-0.35187988
-0.28973934
-0.23167049
-0.41378262
-0.41357848
-0.41262678
-0.40982442
-0.40359799
-0.39205981
-0.3735252
-0.34725552
-0.3138929
-0.2753133
-0.23388428
-0.19156131
-0.14962252
-0.10918159
-0.071431748
-0.035168885
-0.22669684
-0.22803719
-0.22882703
-0.22859736
-0.22664576
-0.2218209
-0.21277323
-0.19828829
-0.17776191
-0.15139868
-0.12017973
-0.085642822
-0.049707834
-0.014720625
0.017539085
0.05054794
-0.46934571
-0.46874575
-0.46805744
-0.46718971
-0.46596544
-0.46419426
-0.46165407
-0.45812853
-0.45359531
-0.44818265
-0.44130415
-0.43066862
-0.41331651
-0.3867824
-0.35000186
-0.3039135
-0.41973307
-0.41940253
-0.41897824
-0.41839904
-0.41754748
-0.41630847
-0.4146111
-0.41251788
-0.41036455
-0.40874778
-0.40779361
-0.40517639
-0.39585398
-0.37382348
-0.33557647
-0.28313103
-0.35600499
-0.35575392
-0.3554486
-0.35505426
-0.35449719
-0.3537288
-0.35276758
-0.35175727
-0.3510157
-0.35093607
-0.35132976
-0.35001887
-0.34245034
-0.32139141
-0.28137816
-0.22222499
-0.28182797
-0.28198891
-0.28214682
-0.28225959
-0.28231306
-0.28232028
-0.28235794
-0.28258346
-0.28317736
-0.28413808
-0.28484735
-0.28317706
-0.27392385
-0.25150438
-0.21178012
-0.15468666
-0.19770945
-0.19858828
-0.19952227
-0.20043754
-0.20139807
-0.20249139
-0.20385919
-0.20567126
-0.20797641
-0.21042176
-0.21180602
-0.20936072
-0.19844164
-0.1749162
-0.13612235
-0.082082955
-0.13347264
-0.13526295
-0.13717062
-0.13904945
-0.14099423
-0.14307254
-0.14534772
-0.14783982
-0.15036254
-0.15226921
-0.15215178
-0.14757599
-0.13504306
-0.11039882
-0.071873655
-0.023852542
-0.13382
-0.13559849
-0.13749351
-0.13935955
-0.14129059
-0.14335327
-0.1456097
-0.14807865
-0.15057366
-0.1524514
-0.15230685
-0.14768566
-0.13507898
-0.11038872
-0.071956929
-0.023975661
-0.19682824
-0.19770393
-0.19863456
-0.19954715
-0.20050569
-0.20159674
-0.20295959
-0.20475942
-0.20703753
-0.2094303
-0.21072604
-0.20816041
-0.19707973
-0.1732885
-0.13420835
-0.08059123
-0.27998052
-0.28015275
-0.28032183
-0.28044485
-0.28050787
-0.28052255
-0.28056222
-0.28077855
-0.28134281
-0.28223605
-0.28280242
-0.28086506
-0.27129063
-0.24836737
-0.20768751
-0.14886527
-0.35408516
-0.3538459
-0.3535528
-0.35317071
-0.35262706
-0.35187351
-0.35092746
-0.34992916
-0.34918811
-0.34907908
-0.34936817
-0.34777588
-0.33968305
-0.31786138
-0.27645368
-0.21481016
-0.4183193
-0.41799155
-0.41757068
-0.41699637
-0.41615284
-0.414927
-0.4132505
-0.41118791
-0.40907172
-0.40747891
-0.40648873
-0.40372109
-0.39407484
-0.37156876
-0.33262597
-0.2776959
-0.46841057
-0.46780819
-0.46711813
-0.46625029
-0.46502879
-0.46326578
-0.46074442
-0.45725679
-0.4527758
-0.44736549
-0.44046154
-0.42973677
-0.41220589
-0.38542181
-0.34819592
-0.30095792
-0.10412003
-0.10509039
-0.10311654
-0.098077422
-0.089671499
-0.07726418
-0.060192837
-0.038607413
-0.013501403
0.013604389
0.041153532
0.067705566
0.091596437
0.11215741
0.13390691
-0.10515653
-0.10611732
-0.10411864
-0.099041297
-0.090588864
-0.078136627
-0.061021791
-0.03939534
-0.014247439
0.012907673
0.040512857
0.06711997
0.091105204
0.11202961
0.13353907
-0.50625303
-0.50533411
-0.50397788
-0.50229976
-0.50062342
-0.49952184
-0.49932083
-0.49870912
-0.49617382
-0.48901503
-0.47475215
-0.45102996
-0.41677032
-0.37245777
-0.31338191
-0.50740623
-0.5064825
-0.50512164
-0.50344019
-0.5017637
-0.50066771
-0.50046978
-0.4997919
-0.49718805
-0.49003099
-0.47584144
-0.45231061
-0.41832924
-0.37460849
-0.31883312
-0.099911644
-0.10094133
-0.50659104
-0.50774857
0.025970507
0.049376757
0.27584903
0.043408895
-0.15418775
0.039371499
0.16027868
0.21040793
0.20861438
0.14275744
0.13537437
0.019065036
0.23042884
0.013789555
0.16525199
-0.06981517
0.10660115
-0.14123972
-0.14350884
0.032305761
-0.1923512
0.23349192
0.21619436
0.20430744
0.20464557
0.044297891
0.036085251
0.030556362
0.035626177
-0.028076923
0.04419336
0.1497931
0.056736596
0.025307906
0.22035729
0.044348517
0.016292311
0.21617103
0.098418359
0.10506265
0.091104082
0.011221531
0.20672301
-0.023676662
0.20543593
0.30555848
0.035338464
0.20250557
0.17986958
0.17951846
-0.22625241
0.41280684
0.23534206
0.12491104
-0.11101406
0.016183254
0.12282733
0.15948499
0.20388448
0.03636719
0.03690144
0.18386262
0.18167531
0.11233189
-0.22070373
0.11781065
0.035102178
0.043760796
0.089694203
0.035258414
0.044844291
-0.045236858
0.049827329
0.013865401
0.013606797
0.21432708
0.0074897587
0.047511191
0.022679961
0.14320199
0.022455091
-0.19651071
-0.031464474
0.034484868
0.096687073
0.05238774
0.18114217
0.0058995838
-0.1649589
0.012099642
0.033490267
0.039478808
0.32307918
0.083387371
0.2062336
0.2162094
0.0012666556
0.29042291
-0.25709877
0.22364018
0.012933437
0.043620627
0.04181228
0.01449971
0.039822976
0.012004731
0.071837143
0.01034441
0.099595452
-0.026410486
-0.14649343
0.24321792
0.088091565
0.08999109
0.019240151
0.024081663
0.25715018
0.013295117
0.02060709
0.24767687
0.24555482
0.11665426
0.0773035
0.057998957
-0.26433664
-0.010164722
0.12300892
-0.27544986
-0.022060695
0.23330217
0.10894077
0.086307238
0.028961912
0.0089506796
0.033665808
0.083751209
0.29470862
0.0061639952
-0.24058117
0.040514502
0.20952188
0.047002129
-0.13980033
0.020306597
-0.0049470505
-0.0034724945
0.036511512
-0.0034726087
0.027755532
0.17614756
0.17472607
0.039835657
0.044861817
0.25624108
0.029130506
0.20004365
-0.19531536
0.12417844
0.029725507
0.012789259
-0.34223458
-0.34010364
0.21030202
0.2335601
0.12998513
0.0293879
0.0278822
0.16425369
-0.0026916629
0.018215059
-0.027446027
0.3133724
0.053261692
0.029052122
0.039505609
0.21261036
0.13570972
0.018922427
0.040253916
0.025609286
0.1685993
0.0073734687
0.027209918
0.043385501
0.053573098
0.17648787
0.20444294
0.055189588
0.066901975
0.029095065
0.018738482
0.03862094
0.015734584
0.12019055
0.1147261
0.20388614
0.027923511
0.038451688
0.16093595
0.33135562
0.16738238
0.051174333
-0.092587819
0.1393649
0.23816459
0.18396773
0.22509253
0.036568398
0.25479494
0.021849556
0.021559337
0.04264435
0.13247206
0.15655157
0.018171512
0.01121002
0.014745351
0.20496094
0.21280211
0.08624547
0.080857456
0.082332189
0.13980757
0.011439546
0.11226224
0.14205427
0.23765526
0.010243814
0.058781989
0.08132722
0.11909883
0.27489283
0.024256518
0.088406269
0.012057634
0.0410092
0.036506836
0.20047573
0.036384623
0.017385448
0.042683817
0.0099513718
0.051590699
0.06348143
0.26877425
0.1251875
0.027746942
0.19791886
0.026437782
0.084338614
0.17201478
0.31922986
0.020177195
0.010551017
-0.13776657
0.005580133
0.22363045
0.051074303
0.012219832
0.035320887
0.044028914
0.0019880766
0.028332796
0.030607523
0.11561883
0.046530889
0.040569251
0.037855031
0.020363808
0.10544686
0.15014356
0.11351639
0.13222276
0.22848266
-0.036617496
0.036907705
0.25877552
0.24096648
0.038314241
0.026522052
0.020780472
0.043649948
0.036840859
-0.023149864
0.074535593
-0.21699971
0.040624448
0.12690768
0.052379278
0.039846368
0.16733758
0.11219965
-0.018656538
0.0028417615
0.26093666
0.10881692
0.040042318
0.21056976
0.047832154
0.052248077
0.058724876
0.015297714
0.047158109
0.27694322
0.31854353
0.10563089
0.045625313
0.13829978
0.038899372
0.21453997
-0.10910155
0.03835916
0.038709054
0.068109175
0.13219253
0.037656575
0.052730547
0.036108209
0.35278326
0.025380477
0.033684133
0.22164004
0.002640552
0.017120822
0.03606694
0.12303816
0.028718437
0.025648131
0.036790887
0.0099194494
0.41104321
0.012360678
0.14425965
0.20266832
0.029315644
-0.0044337395
0.11975058
0.017356989
0.020967345
0.037634601
-0.00077134506
0.066932448
0.037537271
0.2472158
0.012782447
0.024704298
0.0044150731
0.057411188
0.047246282
0.0081529332
0.014140592
-0.30006022
0.077798398
0.16320793
0.030947273
-0.034740172
0.049721
0.05332712
-0.26870037
0.18803683
0.052734113
0.18741622
0.018093794
-0.31448753
0.2875036
0.21712201
0.056380787
-0.097925804
0.022048041
0.23251715
-0.029910508
-0.014295425
0.32891164
0.15453515
0.1641214
0.055330218
0.084508046
0.076087927
-0.010492352
0.055341827
0.053134072
0.23561981
0.21831693
-0.014897254
0.076780827
0.12694441
0.0038111567
0.0092011589
0.15840944
-0.10031766
0.026379176
0.050252724
-0.095392234
0.032222449
0.053378739
0.036442977
0.046791609
0.084415098
0.39133414
0.064962677
0.0044560568
-0.048638397
0.035550285
-0.008812953
0.19196459
-0.036781468
0.037968296
0.035828176
0.197386
0.039870827
0.12924845
0.20034607
0.0005904766
0.038156044
0.13229589
0.16986408
0.17264023
0.0121786
0.035514737
0.016101275
0.015229862
0.047313557
0.036884469
0.19814316
0.23907588
0.27875889
-0.037993507
0.025453171
0.22579647
0.041271619
0.17353389
0.17016709
0.069156124
0.07335643
0.043140759
0.15809224
0.036014721
0.017383426
0.020629215
0.11115325
-0.10408812
-0.086127199
0.11029086
0.037627308
0.00084064021
0.055836576
0.029874026
0.0037612503
0.037104186
0.20389231
0.035442689
-0.057879211
0.004522809
0.018250862
0.063393864
0.052239137
0.12516062
0.13570531
0.01526718
0.17687966
0.17968498
0.24829284
0.044579546
0.094379574
0.16271708
0.18955688
0.20261609
0.21294281
0.22305016
0.026336858
-0.025694132
0.036285261
0.26828154
0.042181017
0.035429011
0.071226453
0.022354331
0.025717369
0.41988789
0.041090108
0.042965352
-0.086654169
0.01979063
0.0010659425
0.01298529
-0.046533764
0.042791724
0.20045547
0.2025464
-0.1015538
0.056899152
0.0055003187
0.044064502
0.038126183
-0.041566052
-0.023960933
0.13600122
0.05965758
0.019642939
0.036396848
0.060968664
0.13434549
0.27783714
0.16810053
0.16416869
0.051106446
-0.30934235
0.035301053
0.0074734936
0.11878855
0.015214331
0.027626715
0.033649232
0.036638169
-0.095839983
-0.30714848
0.036608327
0.20556189
0.14808183
0.20113897
0.023978044
0.1093102
0.067941151
0.030382999
-0.095419488
0.040555933
-0.078802672
0.065253947
-0.14628059
0.23891522
0.16908429
-0.14384633
0.23565176
0.040572525
-0.25326611
0.23027807
0.18017157
0.18008549
0.20327422
0.19229023
-0.31463645
0.032662963
0.0046421201
0.033232777
0.0086580386
0.096548293
0.1991823
0.18988742
0.055320922
0.070461751
0.1057376
0.042921964
0.013039718
0.2297901
0.034861509
0.089062543
0.036238934
-0.31247311
0.27607014
-0.24553898
0.074366372
0.13743799
-0.26638803
0.009376613
0.026573107
-0.22624549
0.0031967227
0.039783831
0.18719643
0.19167257
0.11366431
0.030895985
-0.11042593
0.23301359
0.27131342
0.26391521
0.17190486
0.051352378
0.18843392
0.22201786
0.27738766
0.21047577
0.31892009
0.029636238
0.20346797
0.20549812
0.014764696
0.040536935
0.056335883
0.19716243
0.23692674
0.18831168
-0.16199485
0.1801568
0.037038015
0.41945282
0.19586518
0.010954899
0.4089126
0.23551366
0.030644311
0.072572855
0.10974884
0.40648801
0.031826515
0.024679972
0.21951277
0.041398059
0.30527193
0.21621969
0.22691391
0.056193495
0.0011791485
0.11812072
0.22796637
0.41831902
0.1765537
0.04069231
0.18210212
0.018798242
-0.13993335
0.07006012
-0.078341042
0.4174323
0.017772612
0.011285046
0.10252718
0.27976887
0.26118162
-0.10414271
0.0047687635
0.038150469
0.22195215
-0.20545635
-0.072903031
0.041566771
0.009762088
0.18391764
0.18377637
0.044300022
0.018613173
0.13756626
0.02396956
0.037020121
-0.026819423
0.1957179
0.066662163
0.035400309
0.013721282
0.37339772
0.069105959
0.16606589
0.012953169
0.042445552
0.18727493
0.027812144
0.40372187
0.044783796
0.0063409878
0.20126536
0.024023789
-0.038769104
0.021153816
0.016786975
0.022083024
0.10112504
0.062431939
0.0092392907
0.27191075
-0.23459048
0.14974058
0.17534837
0.076209833
0.24677448
0.022590672
0.27755578
0.0056923091
0.46409097
0.018652869
0.10966634
-0.035019506
0.34693736
-0.21211268
0.0055363125
0.035075487
0.17218274
0.15140438
-0.20675704
0.19065728
0.18449671
-0.003262496
-0.18365132
0.034558481
0.091948786
0.0079322939
-0.18415796
0.045494807
0.013786607
0.033908414
0.034084988
0.029704427
0.22888834
0.057244701
-0.21187164
0.1818729
0.11222807
0.0023331653
0.14681934
0.036976766
0.038467829
0.082692366
0.1356058
0.058821284
0.038863445
0.27215789
-0.12340733
0.043631218
0.041413908
-0.11773095
0.20149604
0.23009455
0.0023902159
0.019915876
0.019658082
0.2231566
0.21517433
0.010180458
0.16314831
0.013805664
0.10505401
0.033031464
0.13986727
0.20642037
0.017559309
0.12602589
0.030974849
-0.18264856
0.20624598
0.13530333
0.013616685
0.03034809
0.03561839
0.021545529
0.025084503
-0.047688623
0.071068381
0.044323081
0.013635468
0.066343107
0.072340459
0.02237473
0.10886566
0.12430376
-0.24995127
0.037489382
0.039861713
0.073842403
0.0061748343
0.28343633
0.038755662
0.18022947
0.053827081
0.18128626
-0.070563899
0.059176433
-0.040649331
-0.12741965
0.06398353
0.131102
0.072605745
0.10451488
0.036894856
0.15019224
0.035720927
0.22189804
0.039878325
0.033042378
0.18387712
0.22387482
0.053877311
0.27658945
0.02016823
0.51905479
0.10195872
0.0085151173
0.039866061
0.013408276
0.068219909
0.24245429
0.035539422
0.023779081
0.033955326
0.040438406
0.084693189
0.045245231
0.025382221
0.023823688
0.0089286637
0.2726042
0.013093442
0.21621154
0.24021802
0.22723053
0.22420528
0.20716882
0.18031021
0.0082495113
0.076826439
0.015618701
0.035908895
0.0022852567
0.15317107
0.27976717
0.022760465
-0.030339468
0.066832748
0.23188116
0.048476216
0.23787473
0.19576205
0.10033132
0.30969681
0.15393164
0.13349708
0.040910859
0.0093986653
0.004619302
0.033690278
0.030487005
0.41558834
0.14070125
0.11657813
0.20068226
0.15294859
0.15677145
0.020261754
0.032120972
0.22993472
0.10236028
0.11420415
0.045493728
0.19358078
0.039826986
0.17067187
0.12610032
0.015712886
0.034259026
0.076793281
0.22036062
0.078950869
0.015229549
0.012133541
0.05137926
-0.042283536
0.17361529
0.048153823
0.11479716
0.39955609
0.055825179
0.39639598
-0.14942114
0.062583656
0.16022265
0.048090969
0.18536518
0.027861145
0.25287092
0.053901361
0.22124061
0.036528418
0.025794288
-0.038992477
-0.079747041
0.17207326
0.02146994
0.033897137
0.23074356
0.078592818
0.14367757
0.011959039
0.12380823
0.21882092
0.18288869
0.051481017
0.16454924
0.13400342
-0.075633167
0.15686257
0.51232918
-0.06830617
0.071720301
0.04531046
0.36564753
0.1812753
-0.21211209
0.084615865
0.023796346
0.11101156
0.075592298
-0.05677716
0.037300341
0.19097872
-0.0532914
0.12592899
0.1016616
0.045788324
0.026163772
0.037718441
0.055166615
0.052998505
0.0080820943
0.19027079
0.031663605
0.14595195
0.11873065
0.23711591
0.20658801
0.27985829
0.22313254
-0.062534134
-0.062282054
0.035611665
0.01720871
0.038341144
-0.13198156
-0.028122472
0.092227681
0.097946013
0.05953707
0.23005477
0.012767017
0.0095943122
0.025884512
0.13604317
0.07651687
0.12727791
0.031727268
0.039273903
-0.14048374
0.035918424
0.030640212
0.02565355
0.14702675
0.18930205
0.17579368
0.47851592
0.050641041
0.021296601
0.14184124
0.040529193
-0.13212767
-0.046946325
-0.0029132389
-0.0023614669
0.07546063
0.27428782
0.34734999
-0.14837364
0.021855415
0.24165343
-0.18485946
0.037599605
0.08191516
0.0010269442
-0.17485973
0.19774181
0.15044973
0.18858847
0.011890176
0.036295874
0.033737851
0.22312788
0.30722214
0.0030077738
0.16170566
0.32263384
0.14059593
0.073023822
0.033054386
0.25887298
0.042651471
0.032651592
0.036170469
0.023725502
0.13211103
-0.2162861
0.45272819
0.010629647
-0.17015316
0.025423236
0.031633719
0.34665735
-0.038563884
0.030761088
0.047295969
0.060049372
0.018345289
0.06293644
0.17051085
0.040190542
0.043711989
-0.10477271
0.074881551
0.21649071
0.29531977
0.021604387
-0.063630299
0.22727444
0.13583824
0.15268452
0.032179712
-0.1872694
0.005687719
0.04199585
0.13412173
0.025159537
0.019587587
0.18585904
0.23772197
0.19114772
-0.056008003
0.016511397
0.066797924
0.042488888
0.037524222
0.29872576
0.06414543
0.0065684026
0.22896115
0.03531744
0.24111982
0.045774254
0.11668557
0.1993959
0.34066799
-0.32937877
0.11863347
0.029061835
0.026715548
0.0081803195
-0.32750512
0.01696961
0.20289453
-0.043102226
0.024760614
0.19454748
0.039492121
0.054381316
-0.11891959
-0.18871825
0.030635537
0.053717495
0.15648656
0.035775302
0.27373199
-0.078085375
-0.0038864335
0.089220941
0.019201472
-0.23181796
0.028092592
0.081153674
0.20223768
0.036259257
0.1687919
0.17028594
0.023582673
0.041742773
-0.036039949
0.012209033
0.023792455
-0.11693125
0.053676387
0.035558082
0.041403924
0.029875704
-0.16678268
0.032398893
0.38310258
-0.16255945
0.27237475
0.038300851
0.026321544
0.24100545
0.040783676
0.038423811
-0.28007861
0.053544852
0.4509242
0.1511949
-0.10975275
-0.0084123234
0.20432639
-0.27773248
0.077259657
0.14612629
0.28677667
0.042539078
0.053835029
0.025286583
0.25234726
0.083147452
0.023401301
0.039996895
-0.050501082
0.0021376903
0.17420458
0.053192083
0.097328983
0.15296233
0.027482038
0.093743869
0.52120727
0.14253532
0.13096213
-0.050513396
0.11328811
0.18587076
0.072675791
0.38932242
0.03631448
0.13203316
0.12694694
0.020968771
0.11303493
-0.079267116
0.060516709
0.0023569114
0.072788726
0.028951075
0.0041771256
0.039925347
0.17134022
0.058957382
-0.062467677
0.47644865
-0.045559098
0.22332554
-0.073689088
0.20845105
0.19491259
0.04511675
0.30812715
0.03041181
0.077901854
0.19678219
0.031061013
0.02709408
0.1696152
0.039093568
0.037513604
-0.19196397
-0.18984921
0.044059785
0.039449847
0.030668426
0.018530281
0.017877113
0.024412725
0.030224541
-0.082488287
0.040250493
0.06364245
0.040351772
0.0010989263
0.067737647
0.075759145
0.11991943
0.025588463
0.18725568
-0.29635481
0.2446876
0.021094928
-0.097946953
0.23245873
0.060244307
-0.29467753
0.036625535
0.052661051
-0.03084818
0.20335283
0.036946067
-0.23043405
0.00085389152
0.27658695
0.018856698
0.1592259
0.0080750936
0.11465876
-0.22614298
0.10127095
0.02113971
-0.16164302
0.013211148
0.07279984
-0.058073052
0.21825592
0.12758394
0.02680753
0.20007463
0.039505848
-0.029706726
-0.052506124
0.037628803
0.037164769
0.087798066
0.038629225
0.051614614
0.49908553
0.03174971
0.34690557
0.051451401
0.36977753
-0.034556454
-0.077048564
0.045448169
0.19126723
0.2036627
0.25361342
0.021065393
0.0078684272
0.26594641
0.20519953
0.022062912
-0.053923826
0.027880717
0.24153769
0.19522331
0.0050797562
0.060088918
0.030272643
0.01438146
0.12530913
0.18477063
0.020356161
-0.090382717
0.15913546
-0.26244318
0.19140681
0.1042578
0.048365651
0.037435381
0.15299679
0.013725493
0.38956369
0.13009729
0.038590807
0.016328612
0.24594111
0.30269531
-0.20948337
0.11828973
0.046027212
0.1204105
0.45877887
0.042915605
0.15277627
0.19803072
0.038150411
0.0071963638
0.051259467
-0.16170729
0.23374043
0.007577535
0.039484843
-0.020044304
0.17946591
0.0099358261
0.012114584
0.039456262
0.01923723
0.032646788
0.044588392
-0.039400165
-0.1044783
0.046267888
0.0082292377
0.14621057
0.11058763
0.24339062
0.13724767
0.098035433
-0.11995624
0.0011439481
0.21129119
0.058502733
-0.098932777
0.10430821
0.0047830679
0.0065071958
0.062788038
-0.18449904
-0.14305164
0.033242518
0.21352887
0.21822097
0.027731694
-0.093381668
0.0057316316
0.038763048
0.013675453
0.25826979
-0.20482352
0.21881041
0.25933472
0.010838165
0.33546711
0.45868488
0.19942957
0.040953864
0.027270306
0.083205827
0.054730385
0.2705767
0.17039705
0.053801716
0.070096367
0.31310916
0.27641899
0.016174107
0.002136949
-0.10911293
0.042919134
0.27199095
0.15749189
0.15884156
-0.13739708
0.0626835
0.078179644
0.27906591
-0.31795773
0.037587652
0.032143237
0.060166991
0.33851193
0.01044271
0.03826266
0.058939207
0.21681198
0.052820736
0.0083916824
-0.16174468
0.020622801
0.044495442
-0.15862961
0.060552056
-0.18849361
0.037103302
-0.091475988
0.1187247
0.016482703
0.18436217
0.11310517
0.034725628
0.0058165439
0.032506035
0.034473574
0.064168896
0.18216532
0.045283842
0.18575675
0.20044236
-0.10306745
-0.18342044
-0.040510753
0.0093619966
0.01347885
0.0055998232
0.043766481
0.016258112
0.18469066
0.057447656
0.018302955
0.10504097
0.25423694
0.10857312
0.31239544
0.036251759
0.028439297
-0.26403502
0.20777652
-0.35732346
0.24825158
0.015078291
0.043138725
0.065644059
0.10512902
0.062027416
-0.30787457
0.036841728
0.19854666
0.027263494
0.2242745
0.015345227
0.043238061
0.018694566
0.030251119
0.26042479
0.12783554
0.093634504
0.10291819
0.19432561
0.051800131
0.038164298
0.016765968
0.02596176
0.041645232
0.39580899
0.029520693
0.0061943003
0.034659147
0.23452821
0.005145827
0.0090316108
0.10425569
0.20846934
-0.35772976
0.029380804
0.018534436
0.21340909
0.031069747
0.18251329
0.027435055
0.022883801
0.040006191
0.22999217
0.075838052
0.40765379
-0.16737343
0.052059506
0.061172475
-0.09881158
-0.098944802
0.4004933
0.225415
-0.088568469
-0.019292219
0.036368914
0.022498156
0.25447078
0.0035367463
0.22944622
0.29669867
0.0062953856
-0.035127869
0.277001
-0.12501676
0.15464287
0.03817744
0.20823101
0.038932124
0.030295075
0.017108047
0.16361292
0.16378181
-0.050240231
-0.092941437
0.0088763962
0.043969915
-0.11019426
0.084672079
0.006343463
0.028622127
0.06990334
0.0045273277
0.021155278
0.030020199
0.031757475
0.028525037
0.16153083
0.0035865978
-0.17291561
0.068510505
0.47410831
0.24583818
0.16658501
0.16446263
0.1237902
0.011752233
-0.059102476
0.047854814
-0.064019558
0.20143783
0.19906337
-0.15902016
-0.012293853
0.028008722
0.20575292
-0.082090837
-0.14627285
0.38979155
0.32999876
0.12525828
0.50205938
0.018731264
-0.077760958
0.015030473
-0.31548649
0.45317802
0.16363655
-0.16719804
-0.082122214
0.13684226
0.009173147
0.041279116
0.23941818
0.43294636
0.036538561
-0.01177566
0.05009342
0.072622517
0.096038555
0.17784444
-0.014138173
0.054708093
0.019206783
0.15732112
0.039075098
-0.087915888
0.067141869
0.12785475
0.032221529
0.034579136
-0.13839945
0.16609676
0.12061934
-0.23476233
0.20612627
0.021930527
-0.13686064
0.048980855
0.043685095
0.0024952085
0.2390951
0.22761342
-0.020773617
0.20419168
0.47070715
0.12659352
0.10098904
0.17909413
0.025444268
0.20712313
0.3702193
0.04354396
0.044453262
0.079379142
-0.22003133
0.018334495
0.20995182
0.032071556
0.011097795
0.17056404
0.0093245289
0.061383104
0.34598184
-0.21277698
0.015339866
0.14305387
0.071810002
0.031305451
0.018938553
0.14009871
-0.18839561
0.2344394
0.087950468
0.26218903
-0.18410699
0.030637393
0.26499657
-0.15816516
-0.223552
0.18400652
-0.071046103
-0.16718214
-0.21834263
-0.25273864
-0.25141824
0.30012236
0.056619981
-0.067791371
0.035324896
0.012742707
0.065768492
0.10598763
0.042058295
-0.086798362
0.025743552
-8.2346374e-05
0.077055159
0.03710681
-0.047338273
0.048317072
0.25295436
0.070281019
0.2428158
0.10502382
0.10928095
0.24164
0.037083487
-0.35466288
0.11065899
0.11238799
-0.074537586
0.038304171
0.073364663
0.054904892
0.034257927
0.15740212
0.15440067
0.25954286
0.020619435
0.027736263
0.17810428
0.043267342
0.033989535
0.04419525
-0.019598483
0.3090074
0.14293234
0.062433807
0.10760578
0.03194112
0.0075586974
0.033800727
0.46890515
0.015335149
-0.22243189
-0.16893662
0.37356907
0.03168854
0.046677771
0.14091971
0.19823156
0.29537914
0.030930073
0.057561525
-0.021420831
0.23398896
0.17130221
0.20994538
0.055665808
0.0044038164
0.24285771
0.04425625
0.03845297
0.05537964
0.054350393
0.014380577
0.059332732
0.38066348
0.04948935
0.022184382
-0.07392002
0.12357565
-0.10220006
0.0038810935
-0.060996973
0.059085978
0.059603324
-0.16260849
-0.24890541
0.0059319972