/*--------------------------------*- C++ -*----------------------------------*\
| =========                 |                                                 |
| \\      /  F ield         | foam-extend: Open Source CFD                    |
|  \\    /   O peration     | Version:     4.1                                |
|   \\  /    A nd           | Web:         http://www.foam-extend.org         |
|    \\/     M anipulation  |                                                 |
\*---------------------------------------------------------------------------*/
FoamFile
{
    version     2.0;
    format      ascii;
    class       surfaceScalarField;
    location    "0.3";
    object      phi;
}
// * * * * * * * * * * * * * * * * * * * * * * * * * * * * * * * * * * * * * //

dimensions      [0 3 -1 0 0 0 0];

internalField   nonuniform List<scalar> 
6703
(
5.5387016e-06
7.8792564e-06
-1.3417958e-05
9.676209e-06
2.8700144e-05
-3.2837652e-05
1.2271757e-05
5.9535049e-05
-6.2130597e-05
1.205114e-05
0.00010319223
-0.00010297161
6.7754919e-06
0.00016235611
-0.00015708046
-6.7808175e-06
0.00023888171
-0.0002253254
-3.2223873e-05
0.00033271805
-0.00030727499
-7.2099635e-05
0.0004410471
-0.00040117134
-0.00012711048
0.0005594695
-0.00050445865
-0.00019571814
0.00068451507
-0.00061590741
-0.00027533536
0.00081643346
-0.00073681624
-0.00036409158
0.00095953658
-0.00087078037
-0.00046176243
0.0011200602
-0.0010223893
-0.00056963085
0.0013041917
-0.0011963232
-0.00068993527
0.0015180673
-0.0013977628
0.0017691359
-0.0016343541
-0.00082471702
3.6880808e-08
7.8423756e-06
7.059524e-08
2.866643e-05
-1.1882793e-07
5.9724472e-05
-1.0421932e-06
0.00010411559
-3.6934259e-06
0.00016500734
-9.7958246e-06
0.00024498411
-2.2118178e-05
0.0003450404
-4.4636612e-05
0.00046356554
-8.1411958e-05
0.00059624484
-0.00013500595
0.00073810907
-0.00020598594
0.00088741345
-0.00029375769
0.0010473083
-0.00039804594
0.0012243484
-0.00051973273
0.0014258784
-0.0006605916
0.0016589261
0.0019304517
-0.00082190744
2.5542325e-07
7.5869524e-06
1.0607673e-06
2.7861086e-05
2.4593559e-06
5.8325884e-05
4.3123255e-06
0.00010226262
6.1224436e-06
0.00016319722
6.7887402e-06
0.00024431781
4.3144001e-06
0.00034751474
-4.3992821e-06
0.00047227922
-2.3206173e-05
0.00061505173
-5.5566426e-05
0.00077046932
-0.00010335263
0.00093519965
-0.00016660792
0.0011105636
-0.00024501912
0.0013027596
-0.00033943538
0.0015202947
-0.00045163929
0.00177113
0.0020627937
-0.00058398126
6.6991402e-07
6.9170383e-06
2.9088588e-06
2.5622141e-05
7.1393416e-06
5.4095401e-05
1.3642601e-05
9.5759363e-05
2.2343202e-05
0.00015449662
3.2518881e-05
0.00023414213
4.2478254e-05
0.00033755537
4.9356397e-05
0.00046540108
4.9196203e-05
0.00061521193
3.7759571e-05
0.00078190595
1.2294075e-05
0.00096066515
-2.7616489e-05
0.0011504742
-8.1009269e-05
0.0013561524
-0.000147196
0.0015864814
-0.00022623665
0.0018501707
0.0021527138
-0.00031615681
1.0077831e-06
5.9092553e-06
4.4792909e-06
2.2150633e-05
1.1259532e-05
4.731516e-05
2.2148065e-05
8.487083e-05
3.7655023e-05
0.00013898966
5.7645736e-05
0.00021415142
8.0921666e-05
0.00031427944
0.00010487632
0.00044144642
0.00012545931
0.00059462894
0.00013781453
0.00076955073
0.00013782656
0.00096065312
0.00012364985
0.0011646509
9.6108205e-05
0.001383694
5.7251944e-05
0.0016253377
8.3190728e-06
0.0018991036
0.0022133792
-5.2346319e-05
1.2325133e-06
4.676742e-06
5.5686066e-06
1.781454e-05
1.4234565e-05
3.8649202e-05
2.8560847e-05
7.0544547e-05
4.9741473e-05
0.00011780904
7.8429752e-05
0.00018546314
0.00011420055
0.00027850864
0.0001550273
0.00040061967
0.00019705052
0.00055260572
0.00023500212
0.00073159913
0.0002635442
0.00093211104
0.00027907844
0.0011491167
0.00028103494
0.0013817375
0.00027148753
0.0016348851
0.00025328265
0.0019173084
0.0022379199
0.00022874195
1.3466726e-06
3.3300694e-06
6.1695856e-06
1.2991627e-05
1.5993567e-05
2.8825221e-05
3.2619716e-05
5.3918398e-05
5.793141e-05
9.2497341e-05
9.3491649e-05
0.0001499029
0.00013991385
0.00023208644
0.00019613125
0.00034440227
0.00025888039
0.00048985659
0.00032282486
0.00066765466
0.00038164081
0.00087329509
0.0004299109
0.0011008466
0.00046505546
0.001346593
0.00048805083
0.0016118897
0.00050218481
0.0019031745
0.002230154
0.00050995072
1.3398489e-06
1.9902205e-06
6.2210189e-06
8.110457e-06
1.634805e-05
1.869819e-05
3.3878342e-05
3.6388106e-05
6.131604e-05
6.5059644e-05
0.00010117724
0.0001100417
0.00015533531
0.00017792837
0.0002240954
0.00027564219
0.00030531513
0.00040863685
0.00039410638
0.00057886341
0.00048356916
0.00078383231
0.00056658287
0.0010178328
0.00063811027
0.0012750656
0.00069690198
0.001553098
0.00074541584
0.0018546606
0.002187701
0.00078786883
1.231902e-06
7.5831844e-07
5.8099542e-06
3.5324048e-06
1.5489516e-05
9.0186276e-06
3.2613908e-05
1.9263715e-05
6.0124408e-05
3.7549143e-05
0.00010135691
6.8809207e-05
0.00015947129
0.00011981398
0.00023644283
0.00019867065
0.00033183567
0.00031324401
0.0004419571
0.00046874198
0.00056005604
0.00066573338
0.00067781461
0.00090007428
0.00078781009
0.0011650701
0.00088606207
0.0014548461
0.00097336398
0.0017673587
0.0021067452
0.0010543198
1.0165317e-06
-2.582133e-07
4.8610795e-06
-3.1214296e-07
1.3167331e-05
7.1237643e-07
2.8265624e-05
4.1654211e-06
5.3303029e-05
1.2511739e-05
9.2210103e-05
2.9902132e-05
0.00014936818
6.2655904e-05
0.00022874387
0.00011929496
0.00033221849
0.00020976939
0.0004580093
0.00034295117
0.00060013312
0.00052360955
0.00074959163
0.00075061577
0.0008970442
0.0010176175
0.0010360988
0.0013157915
0.0011662521
0.0016372053
0.0019783541
0.0012946432
7.4951992e-07
-1.0077332e-06
3.7347696e-06
-3.2973927e-06
1.0432427e-05
-5.9852813e-06
2.3049164e-05
-8.4513153e-06
4.4801113e-05
-9.2402105e-06
8.0097072e-05
-5.3938268e-06
0.00013428011
8.4728687e-06
0.00021249667
4.1078391e-05
0.00031797956
0.0001042865
0.00045095212
0.00020997861
0.00060672557
0.00036783611
0.00077664834
0.00058069299
0.00095086663
0.00084339926
0.0011213444
0.0011453137
0.0012840782
0.0014744715
0.0018202318
0.0014422004
2.2289566e-06
-3.2366898e-06
6.2286129e-06
-7.2970489e-06
1.3376624e-05
-1.3133292e-05
2.5667117e-05
-2.0741808e-05
4.6111304e-05
-2.9684398e-05
7.9002105e-05
-3.8284628e-05
0.00012969587
-4.2220898e-05
0.00020263078
-3.1856514e-05
0.00029563377
1.1283514e-05
0.00040650836
9.9104015e-05
0.00053524109
0.00023910338
0.00067854558
0.0004373885
0.00082967021
0.00069227462
0.00098029969
0.00099468424
0.0011229453
0.001331826
0.0016882604
0.0012549167
-6.1546839e-06
-7.3539695e-06
1.3508653e-05
-1.2796023e-05
-2.6456484e-05
3.3097823e-05
-2.1293389e-05
-5.4120576e-05
6.2617943e-05
-3.2794051e-05
-9.2179381e-05
0.00010368004
-4.8678767e-05
-0.00014198326
0.00015786797
-7.0617609e-05
-0.00020386134
0.00022580018
-0.00010057883
-0.00027671322
0.00030667444
-0.00014071745
-0.00035816335
0.00039830197
-0.00019279352
-0.00044563067
0.00049770674
-0.0002580872
-0.00053800336
0.00060329704
-0.00033740427
-0.00063667112
0.00071598818
-0.00043121979
-0.00074500002
0.00083881554
-0.00053984383
-0.0008669107
0.00097553474
-0.00066372905
-0.0010059234
0.0011298087
-0.00080452581
-0.001164941
0.0013057378
-0.0013468306
0.001511248
-0.00096894323
-1.2276711e-06
-6.1262984e-06
-5.6665511e-06
-2.2017604e-05
-1.4740532e-05
-4.5046595e-05
-3.0136441e-05
-7.6783472e-05
-5.3763877e-05
-0.00011835582
-8.765834e-05
-0.00016996688
-0.00013382826
-0.00023054331
-0.00019405191
-0.00029793969
-0.0002697114
-0.00036997119
-0.00036187976
-0.000445835
-0.00047173174
-0.00052681914
-0.00060102834
-0.00061570343
-0.0007523503
-0.00071558874
-0.00092901459
-0.00082925914
-0.0011345786
-0.00095937702
-0.0011093299
-0.0013720793
-1.3565735e-06
-4.7697249e-06
-6.2244127e-06
-1.7149765e-05
-1.6186996e-05
-3.5084012e-05
-3.3199418e-05
-5.9771049e-05
-5.9501063e-05
-9.2054178e-05
-9.7431471e-05
-0.00013203647
-0.00014916298
-0.0001788118
-0.00021645287
-0.0002306498
-0.00030058841
-0.00028583565
-0.00040264055
-0.00034378286
-0.00052392148
-0.0004055382
-0.00066637038
-0.00047325453
-0.00083269638
-0.00054926273
-0.0010263451
-0.0006356104
-0.0012516307
-0.00073409141
-0.0008459979
-0.0015149627
-1.5666777e-06
-3.2030472e-06
-7.184442e-06
-1.1532e-05
-1.8623283e-05
-2.3645171e-05
-3.7985711e-05
-4.0408622e-05
-6.7586634e-05
-6.2453254e-05
-0.00010972505
-8.9898056e-05
-0.00016640937
-0.00012212748
-0.00023917834
-0.00015788083
-0.00032918206
-0.00019583192
-0.00043754602
-0.0002354189
-0.00056580983
-0.00027727439
-0.00071618133
-0.00032288304
-0.00089156485
-0.00037387921
-0.0010955017
-0.00043167357
-0.0013317312
-0.00049786188
-0.0005754847
-0.0016022444
-1.6671629e-06
-1.5358843e-06
-7.5785555e-06
-5.6206079e-06
-1.9554246e-05
-1.1669481e-05
-3.9783958e-05
-2.017891e-05
-7.0671921e-05
-3.1565291e-05
-0.00011460114
-4.5968841e-05
-0.00017367496
-6.3053658e-05
-0.00024959057
-8.1965216e-05
-0.00034376791
-0.00010165459
-0.00045767456
-0.00012151225
-0.00059313697
-0.00014181198
-0.00075249032
-0.00016352969
-0.00093857832
-0.0001877912
-0.0011547993
-0.00021545263
-0.0014062301
-0.00024643109
-0.00027822684
-0.0017034879
2.6179734e-07
7.5867523e-06
-7.8485497e-06
1.0894236e-06
2.7862403e-05
-2.8690029e-05
2.532006e-06
5.8332956e-05
-5.9775538e-05
4.4572369e-06
0.00010228354
-0.00010420877
6.3737151e-06
0.00016324565
-0.00016516213
7.1846066e-06
0.00024441409
-0.00024522498
4.8949028e-06
0.00034768526
-0.00034539555
-3.5960799e-06
0.00047255173
-0.00046406075
-2.2153375e-05
0.00061547898
-0.00059692168
-5.4246517e-05
0.00077105948
-0.00073896633
-0.00010175303
0.00093591329
-0.00088840677
-0.00016473182
0.0011112984
-0.0010483196
-0.00024285748
0.0013032979
-0.0012251722
-0.00033699121
0.0015204205
-0.0014262868
-0.00044887827
0.0017707008
-0.0016588137
0.0020616288
-0.001929922
-0.00058058507
-1.5387565e-06
2.8721747e-09
-7.1703872e-06
1.1022828e-08
-1.8863145e-05
2.3277223e-08
-3.9082222e-05
4.0166297e-08
-7.0709399e-05
6.1886741e-08
-0.00011676574
8.7503805e-08
-0.00017993379
1.143878e-07
-0.00026203705
1.3804845e-07
-0.00036384395
1.5231187e-07
-0.00048550523
1.4902394e-07
-0.00062743434
1.1713183e-07
-0.00079100732
4.3292291e-08
-0.0009787141
-8.4430995e-08
-0.001193891
-2.7567744e-07
-0.0014397635
-5.5860584e-07
-1.0319696e-06
-0.0017169584
-1.5444957e-06
1.5473679e-06
-7.1944293e-06
5.6609564e-06
-1.8921473e-05
1.1750321e-05
-3.9194668e-05
2.031336e-05
-7.0898974e-05
3.1766194e-05
-0.00011705735
4.6245879e-05
-0.00018035241
6.3409445e-05
-0.00026260522
8.2390861e-05
-0.00036457764
0.00010212473
-0.00048640688
0.00012197826
-0.00062848207
0.00014219232
-0.00079213763
0.00016369885
-0.00097978547
0.00018756341
-0.0011946061
0.00021454492
-0.0014396623
0.00024449758
0.00027554933
-0.0017162435
-1.6692098e-06
3.2165777e-06
-7.5865759e-06
1.1578323e-05
-1.9572404e-05
2.3736149e-05
-3.9816419e-05
4.0557376e-05
-7.0722563e-05
6.2672337e-05
-0.00011467349
9.0196805e-05
-0.00017377198
0.00012250793
-0.0002497127
0.00015833158
-0.00034390733
0.00019631936
-0.00045780505
0.00023587598
-0.00059319993
0.00027758721
-0.00075237689
0.00032287582
-0.000938113
0.00037329951
-0.0011537251
0.00043015705
-0.0014039712
0.00049474361
0.00056933566
-0.0016977575
-1.5538215e-06
4.7703992e-06
-7.1275485e-06
1.715205e-05
-1.8480513e-05
3.5089114e-05
-3.770464e-05
5.9781503e-05
-6.7106606e-05
9.2074304e-05
-0.00010898133
0.00013207153
-0.00016533663
0.00017886323
-0.00023770844
0.00023070339
-0.00032723208
0.000285843
-0.00043499833
0.00034364224
-0.00056249324
0.00040508211
-0.00071186331
0.0004722459
-0.00088596899
0.00054740519
-0.0010883998
0.00063258784
-0.0013231478
0.0007294916
0.00083832292
-0.001592135
-1.3399979e-06
6.110397e-06
-6.1517733e-06
2.1963825e-05
-1.6005458e-05
4.4942799e-05
-3.2841873e-05
7.6617918e-05
-5.888744e-05
0.00011811987
-9.6471743e-05
0.00016965583
-0.00014776038
0.00023015187
-0.00021450448
0.00029744749
-0.00029798078
0.0003693193
-0.00039924361
0.00044490506
-0.00051959358
0.00052543208
-0.00066099518
0.00061364749
-0.00082626076
0.00071267078
-0.0010190516
0.00082537869
-0.0012444843
0.00095492434
0.0011075946
-0.0015137561
-1.2237594e-06
7.3341564e-06
-5.6474935e-06
2.6387559e-05
-1.4688944e-05
5.3984249e-05
-3.0027237e-05
9.1956211e-05
-5.3562869e-05
0.0001416555
-8.7322472e-05
0.00020341543
-0.00013330948
0.00027613888
-0.00019330716
0.00035744517
-0.00026872048
0.00044473262
-0.00036067448
0.00053685906
-0.00047044594
0.00063520354
-0.00059999106
0.00074319262
-0.00075227171
0.00086495142
-0.00093135921
0.0010044662
-0.0011418002
0.0011653653
0.0013502117
-0.0013844172
-6.1504864e-06
1.3484643e-05
-1.2796939e-05
3.3034012e-05
-2.1306795e-05
6.2494105e-05
-3.2825531e-05
0.00010347495
-4.8731108e-05
0.00015756108
-7.0690299e-05
0.00022537463
-0.00010066921
0.00030611779
-0.00014082845
0.00039760441
-0.00019294503
0.00049684921
-0.00025833827
0.0006022523
-0.00033787661
0.00071474189
-0.00043211989
0.0008374359
-0.00054144511
0.00097427664
-0.00066617919
0.0011292003
-0.00080723212
0.0013064182
0.0015120508
-0.00096907131
2.2269166e-06
1.0156196e-06
-3.2425362e-06
6.2112084e-06
3.3272737e-06
-7.3115655e-06
1.3322947e-05
6.0506363e-06
-1.3162375e-05
2.5544308e-05
8.5727349e-06
-2.0794096e-05
4.5869896e-05
9.4481967e-06
-2.9773785e-05
7.8573185e-05
5.7323417e-06
-3.843563e-05
0.00012899941
-7.9437105e-06
-4.2482515e-05
0.00020161463
-4.0285604e-05
-3.2329614e-05
0.00029440436
-0.00010316336
1.037363e-05
0.00040491262
-0.00020847227
9.7964021e-05
0.00053319173
-0.00036591148
0.00023763237
0.0006759592
-0.00057831258
0.00043554511
0.00082642444
-0.0008404603
0.00068999506
0.00097604062
-0.001141501
0.00099188483
0.001116534
-0.0014688165
0.0013283231
-0.0018114481
0.0016812402
0.0012467419
7.4712098e-07
2.6849864e-07
3.7229834e-06
3.5141124e-07
1.040084e-05
-6.2722016e-07
2.2983743e-05
-4.0101686e-06
4.4684782e-05
-1.2252841e-05
7.9913582e-05
-2.9496459e-05
0.00013402661
-6.2056742e-05
0.00021218844
-0.00011844743
0.00031765344
-0.00020862836
0.00045067686
-0.0003414957
0.0006066145
-0.00052184912
0.00077687847
-0.00074857655
0.0009517309
-0.0010153127
0.001123429
-0.0013131991
0.0012890009
-0.0016343884
-0.0019761682
0.001453721
1.0149494e-06
-7.4645072e-07
4.8545106e-06
-3.48815e-06
1.3151742e-05
-8.9244516e-06
2.8236847e-05
-1.9095273e-05
5.3258406e-05
-3.7274401e-05
9.2151086e-05
-6.8389139e-05
0.00014930114
-0.0001192068
0.00022869457
-0.00019784085
0.00033224104
-0.00031217483
0.00045818967
-0.00046744433
0.00060058266
-0.00066424211
0.00075043314
-0.00089842703
0.00089839399
-0.0011632736
0.0010380441
-0.0014528492
0.0011687341
-0.0017650784
-0.0021040026
0.0012965685
1.2305665e-06
-1.9770173e-06
5.8043754e-06
-8.0619589e-06
1.5476665e-05
-1.8596741e-05
3.2592082e-05
-3.621069e-05
6.0095959e-05
-6.4778278e-05
0.00010133279
-0.00010962597
0.00015947721
-0.00017735122
0.00023652531
-0.00027488895
0.00033206468
-0.0004077142
0.00044242178
-0.00057780143
0.0005608524
-0.00078267274
0.00067902647
-0.0010166011
0.00078948675
-0.0012737339
0.00088820428
-0.0015515667
0.00097593001
-0.0018528042
-0.002185482
0.0010574094
1.3393939e-06
-3.3164111e-06
6.2198157e-06
-1.2942381e-05
1.6347228e-05
-2.8724154e-05
3.3882234e-05
-5.3745696e-05
6.1335201e-05
-9.2231245e-05
0.00010123273
-0.0001495235
0.00015546347
-0.00023158196
0.00022435104
-0.00034377652
0.00030577031
-0.00048913348
0.00039484234
-0.00066687345
0.00048466069
-0.00087249109
0.00056807656
-0.001100017
0.00063999862
-0.0013456559
0.00069910808
-0.0016106762
0.00074779221
-0.0019014883
-0.0022278523
0.00079016259
1.3474707e-06
-4.6638819e-06
6.1742134e-06
-1.7769123e-05
1.6008138e-05
-3.8558078e-05
3.2655622e-05
-7.039318e-05
5.8008386e-05
-0.00011758401
9.3641277e-05
-0.00018515639
0.0001401823
-0.00027812298
0.00019657941
-0.00040017362
0.00025957984
-0.00055213391
0.00032384815
-0.00073114176
0.00038304621
-0.00093168915
0.00043172471
-0.0011486955
0.00046725294
-0.0013811841
0.00049056443
-0.0016339877
0.00050494873
-0.0019158726
-0.0022358657
0.00051296209
1.2350634e-06
-5.8989452e-06
5.5811535e-06
-2.2115213e-05
1.4269334e-05
-4.7246258e-05
2.8637019e-05
-8.4760865e-05
4.9887673e-05
-0.00013883466
7.8686124e-05
-0.00021395484
0.00011461923
-0.00031405609
0.00015567023
-0.00044122462
0.0001979848
-0.00059444849
0.00023628967
-0.00076944662
0.00026522799
-0.00096062748
0.00028117133
-0.0011646388
0.00028350312
-0.0013835159
0.00027427576
-0.0016247603
0.00025634399
-0.0018979408
-0.002211526
0.00023200429
1.0121597e-06
-6.9111049e-06
4.4998438e-06
-2.5602898e-05
1.1314109e-05
-5.4060523e-05
2.2262375e-05
-9.570913e-05
3.7864185e-05
-0.00015443647
5.7994684e-05
-0.00023408534
8.1463431e-05
-0.00033752483
0.00010566806
-0.00046542925
0.00012656118
-0.00061534161
0.00013927704
-0.00078216249
0.00013967999
-0.00096103042
0.00012590085
-0.0011508597
9.8725463e-05
-0.0013563405
6.0217315e-05
-0.0015862522
1.1649149e-05
-0.0018493727
-0.0021512878
-4.8589016e-05
6.7564742e-07
2.9351525e-06
7.2075846e-06
1.3781992e-05
2.2591166e-05
3.2919909e-05
4.3080331e-05
5.0202814e-05
5.0340182e-05
3.9237173e-05
1.4120034e-05
-2.5441232e-05
-7.8483892e-05
-0.00014431555
-0.00022298743
-0.0003126465
4.2982227e-08
-7.8915319e-06
9.704407e-08
-2.8744091e-05
-5.3239377e-08
-5.9625255e-05
-9.1407668e-07
-0.00010334793
-3.4763041e-06
-0.0001625999
-9.4633827e-06
-0.0002392379
-2.1641791e-05
-0.00033321714
-4.3989727e-05
-0.00044171281
-8.0590781e-05
-0.00056032063
-0.00013399928
-0.00068555784
-0.00020476661
-0.00081763944
-0.00029229067
-0.00096079555
-0.00039632768
-0.0011211352
-0.00051785539
-0.0013047591
-0.00065878642
-0.0015178827
-0.0017680281
-0.00082068024
5.5502208e-06
-1.3441753e-05
9.7068292e-06
-3.2900699e-05
1.2334339e-05
-6.2252764e-05
1.2160227e-05
-0.00010317382
6.9434537e-06
-0.00015738312
-6.5488702e-06
-0.00022574558
-3.1939721e-05
-0.00030782629
-7.1788124e-05
-0.00040186441
-0.0001267967
-0.00050531205
-0.00019541093
-0.00061694361
-0.00027501196
-0.00073803841
-0.00036370651
-0.000872101
-0.00046130819
-0.0010235335
-0.00056926078
-0.0011968065
-0.00068987808
-0.0013972654
-0.0016335221
-0.00082438413
-1.3948376e-06
-1.8563631e-06
3.2512008e-06
-2.0610733e-06
-6.6891377e-06
7.3553733e-06
-1.6883104e-06
-1.3672596e-05
1.3299833e-05
3.5242643e-07
-2.3186599e-05
2.1145862e-05
5.0784742e-06
-3.5314743e-05
3.0588695e-05
1.4226176e-05
-4.9380684e-05
4.0232983e-05
3.1018557e-05
-6.3164234e-05
4.6371852e-05
6.1986571e-05
-7.1566471e-05
4.0598457e-05
0.00012082101
-6.4690294e-05
5.8558593e-06
0.00021681479
-2.5624593e-05
-7.0369188e-05
0.00034777758
6.4469322e-05
-0.00019543211
0.00050598152
0.00021734906
-0.000375553
0.00068128075
0.00043484107
-0.00061014031
0.00086257905
0.00071022388
-0.00089152218
0.0010424169
0.0010278336
-0.0012076714
0.0013685603
-0.0015467839
0.0012206406
2.5045956e-07
-2.1068227e-06
1.1619262e-06
-7.6006043e-06
3.0953209e-06
-1.5605991e-05
6.598497e-06
-2.6689775e-05
1.2490455e-05
-4.1206701e-05
2.2049466e-05
-5.8939695e-05
3.7379221e-05
-7.8493989e-05
6.2182838e-05
-9.6370088e-05
0.00010314233
-0.00010564979
0.00017171951
-9.4201772e-05
0.00027821668
-4.2027848e-05
0.00042361386
7.1951883e-05
0.00060492269
0.00025353224
0.00081940991
0.00049573666
0.0010660101
0.0007812334
0.0010867643
0.0013478061
1.9953436e-07
-2.3063571e-06
8.8818497e-07
-8.2892549e-06
2.2470177e-06
-1.6964824e-05
4.4892918e-06
-2.8932049e-05
7.8806228e-06
-4.4598032e-05
1.2814502e-05
-6.3873574e-05
2.0023086e-05
-8.5702573e-05
3.1066157e-05
-0.00010741316
4.930734e-05
-0.00012389097
8.1594027e-05
-0.00012648846
0.00014083294
-0.00010126676
0.00023839539
-2.5610573e-05
0.00037292835
0.00011899928
0.00054908898
0.00031957603
0.00076887593
0.00056144645
0.00082257235
0.0010330679
-1.3180702e-07
-2.17455e-06
-6.689467e-07
-7.7521152e-06
-1.8758153e-06
-1.5757955e-05
-4.1168637e-06
-2.6691001e-05
-7.8691179e-06
-4.0845778e-05
-1.3678966e-05
-5.8063726e-05
-2.2002132e-05
-7.7379407e-05
-3.2804342e-05
-9.6610948e-05
-4.4722264e-05
-0.00011197305
-5.3490718e-05
-0.00011772
-4.9139127e-05
-0.00010561835
-1.0901955e-05
-6.3847745e-05
7.829168e-05
2.9805647e-05
0.00022412098
0.00017374672
0.00042669385
0.00035887358
0.00055380649
0.00069545971
-7.1455095e-07
-1.4599991e-06
-3.2877733e-06
-5.1788928e-06
-8.5550878e-06
-1.049064e-05
-1.7537577e-05
-1.7708511e-05
-3.1409509e-05
-2.6973846e-05
-5.1398202e-05
-3.8075032e-05
-7.8566486e-05
-5.0211123e-05
-0.00011337332
-6.1804111e-05
-0.00015485516
-7.0491213e-05
-0.00019928428
-7.3290888e-05
-0.0002382617
-6.6640935e-05
-0.00025619152
-4.5917916e-05
-0.0002222145
-4.1713759e-06
-0.00011533078
6.6863e-05
7.5259955e-05
0.00016828285
0.00027882278
0.00035024367
-1.4530061e-06
-6.9929489e-09
-6.6048813e-06
-2.7017628e-08
-1.7037529e-05
-5.7992429e-08
-3.4642836e-05
-1.0320454e-07
-6.1449518e-05
-1.6716394e-07
-9.9269036e-05
-2.5551413e-07
-0.00014910422
-3.7594119e-07
-0.00021036831
-5.4002098e-07
-0.00028009416
-7.6535639e-07
-0.00035230951
-1.075541e-06
-0.00041745466
-1.4957886e-06
-0.00046132261
-2.0499647e-06
-0.00046275759
-2.7363964e-06
-0.00039242388
-3.4707119e-06
-0.00022094875
-3.1922791e-06
-3.398209e-08
5.7908013e-05
-1.4445978e-06
1.4376048e-06
-6.5709723e-06
5.0993569e-06
-1.6956851e-05
1.0327887e-05
-3.4488075e-05
1.7428019e-05
-6.11869e-05
2.653166e-05
-9.8857853e-05
3.741544e-05
-0.00014849577
4.9261977e-05
-0.00020950321
6.046742e-05
-0.00027889542
6.8626847e-05
-0.00035066478
7.0693819e-05
-0.0004151793
6.301873e-05
-0.00045812132
4.0892059e-05
-0.00045812581
-2.7319094e-06
-0.00038585764
-7.5738875e-05
-0.00021019873
-0.00017885119
-0.00028750483
7.7272121e-05
-7.1388445e-07
2.1514893e-06
-3.2844353e-06
7.6699078e-06
-8.546586e-06
1.5590037e-05
-1.7521698e-05
2.6403131e-05
-3.1384908e-05
4.039487e-05
-5.1364975e-05
5.7395507e-05
-7.8526528e-05
7.642353e-05
-0.00011333042
9.5271317e-05
-0.00015481528
0.0001101117
-0.00019925938
0.00011513792
-0.00023829056
0.00010204991
-0.00025641546
5.9016956e-05
-0.00022327349
-3.587388e-05
-0.00011797047
-0.00018104189
6.9654964e-05
-0.00036647663
-0.00055807425
0.00034022438
-1.4347098e-07
2.2949603e-06
-7.2013554e-07
8.2465724e-06
-2.0039372e-06
1.6873839e-05
-4.3699278e-06
2.8769122e-05
-8.3059619e-06
4.4330905e-05
-1.4369408e-05
6.3458953e-05
-2.3028689e-05
8.5082812e-05
-3.4268674e-05
0.0001065113
-4.6761664e-05
0.00012260469
-5.6315217e-05
0.00012469147
-5.3120364e-05
9.8855062e-05
-1.6759298e-05
2.265589e-05
6.9465461e-05
-0.00012209864
0.00021128693
-0.00032286336
0.00040873415
-0.00056392386
-0.00081984097
0.00067050088
1.8777657e-07
2.1071837e-06
8.3508971e-07
7.5992592e-06
2.1106411e-06
1.5598288e-05
4.2123177e-06
2.6667445e-05
7.3871131e-06
4.1156109e-05
1.200573e-05
5.8840336e-05
1.8770743e-05
7.8317799e-05
2.9199357e-05
9.6082688e-05
4.6587608e-05
0.00010521644
7.7670633e-05
9.3608443e-05
0.00013517591
4.134979e-05
0.00023035101
-7.2519215e-05
0.00036189898
-0.00025364661
0.00053397252
-0.00049493689
0.00074843236
-0.00077838369
-0.0010792008
0.0010077922
2.4663956e-07
1.8605442e-06
1.1431263e-06
6.7027725e-06
3.0430432e-06
1.3698371e-05
6.4831952e-06
2.3227293e-05
1.2266517e-05
3.5372788e-05
2.1648328e-05
4.9458525e-05
3.6698987e-05
6.3267139e-05
6.1070847e-05
7.1710828e-05
0.00010136849
6.4918798e-05
0.0001689573
2.601964e-05
0.00027412273
-6.3815643e-05
0.00041791009
-0.00021630657
0.00059752272
-0.00043325925
0.00081037467
-0.00070778884
0.0010559237
-0.0010239327
-0.0013600083
0.0013367311
-1.3965044e-06
3.2570485e-06
-2.0635394e-06
7.3698075e-06
-1.6936449e-06
1.3328476e-05
3.3702574e-07
2.1196623e-05
5.0361278e-06
3.0673686e-05
1.4122091e-05
4.0372562e-05
3.0783785e-05
4.6605444e-05
6.1483416e-05
4.1011197e-05
0.00011972933
6.6728872e-06
0.00021508471
-6.9335739e-05
0.00034538303
-0.00019411396
0.00050299825
-0.00037392179
0.00067788344
-0.00060814444
0.00085910917
-0.00088901456
0.0010393787
-0.0012042022
-0.0015415946
0.001220965
2.6304492e-07
-6.668476e-08
6.2655381e-07
1.1298902e-06
1.6105135e-06
1.6597365e-06
5.025292e-07
-3.0644004e-06
-1.0673844e-05
-2.4328956e-05
-4.6403312e-05
-7.9747779e-05
-0.00012786046
-0.00019498342
-0.00028632803
-0.00040863131
2.640245e-07
-6.6900725e-08
6.2920327e-07
1.1354262e-06
1.6202769e-06
1.674882e-06
5.2303231e-07
-3.0394054e-06
-1.0644716e-05
-2.4291282e-05
-4.6341511e-05
-7.9626966e-05
-0.00012762576
-0.00019462359
-0.0002861512
-0.0004084253
7.2754381e-08
-1.45123e-08
2.3885595e-07
6.4138277e-07
1.5412834e-06
3.4782155e-06
7.6011446e-06
1.6282728e-05
3.3329244e-05
6.1957526e-05
0.00010547593
0.00016709924
0.00024894986
0.00035182013
0.00047594102
0.00061558665
7.283534e-08
-1.4510978e-08
2.393766e-07
6.4343023e-07
1.5477273e-06
3.4960826e-06
7.6470366e-06
1.6388981e-05
3.3528354e-05
6.2263181e-05
0.00010593445
0.00016776995
0.00024990427
0.00035306633
0.00047722087
0.00061869735
0.0010409258
-0.0033844078
0.0023434821
0.007746009
-0.0080983978
0.00035238879
0.0011489711
-0.0031813781
0.0020324071
0.007746009
-0.0024379719
-0.00010109878
0.0025390707
-0.0082457992
0.0051005157
0.0031452835
-0.0011962668
0.0044576361
-0.0032613693
0.0073853723
0.0031727364
-0.010558109
0.0076901251
0.0022369147
-0.0099270398
0.0013229545
-0.0017315858
-0.0019386483
0.001530223
0.0035358217
0.0065183409
-0.010054163
-0.0036509472
-0.0038041372
0.0074550845
-0.0078204244
0.0036693666
0.0041510578
-0.0016304223
0.0040479528
-0.0024175305
0.0037600591
8.0588336e-05
-0.0038406474
0.0075357365
-0.0077930124
0.0002572759
0.00076993241
0.0017437235
-0.0025136559
0.001724741
-0.0019872548
0.0002625138
0.0064471221
-0.0023288119
-0.0041183102
-0.00085440216
-0.0015835698
-0.0076990079
0.0040480607
-0.009444806
0.0095177662
-7.2960231e-05
0.00078089465
0.0085254321
-0.0093063268
8.5097903e-05
-0.0057125129
0.005627415
0.0045361273
0.0012933506
-0.005829478
-0.0040482948
-0.0060534829
0.010101778
0.0065634874
-0.0021611833
-0.0044023041
0.0013367172
0.0065984134
-0.0079351306
-0.0024587224
0.0057838596
-0.0033251371
0.0067258853
-0.002189758
0.0020216388
-0.0015025339
-0.00051910481
-0.00016715643
0.0085320584
-0.008364902
0.0064671984
0.00013894363
-0.006606142
0.0010975848
-0.0061602281
0.0050626433
0.0088187857
-0.0074884352
-0.0013303505
0.007757041
-0.0081950117
0.00043797076
-0.0047825426
0.0058801274
0.0057090492
-0.0033622971
-0.0023467521
-0.0088566961
0.0017306404
0.0071260557
0.0028293148
-0.0042043616
0.0013750468
0.010101113
-0.0043655934
-0.0057355192
0.0073853723
-0.0024870063
0.0058309007
-0.0033438945
0.0076901251
-0.00081833516
0.0036660365
-0.0028477014
-0.0019608928
0.0066667897
-0.0047058969
-0.0098404003
0.004199245
0.0056411553
-0.0073853723
0.011160655
-0.0037752826
-0.0076901251
0.011257766
-0.0035676406
0.0035082231
-0.00044614619
-0.0030620769
-0.0037897609
0.0016903598
0.0020994011
0.0013755784
-0.0026788763
0.0013032979
0.00091345959
0.0012460503
-0.0021595099
-0.0032870663
0.0060364085
-0.0027493422
0.00044135588
0.0057151705
-0.0061565264
0.00092001404
-0.001943077
0.001023063
-0.0055559285
0.0035678846
0.0019880438
-0.010555194
0.0012159374
0.0093392567
0.0085978202
-0.0031993658
-0.0053984544
0.007856008
0.00074181221
0.0055417315
0.0042698341
-0.0098115656
0.005178235
0.0045293651
-0.0097076001
-0.0024797071
0.0051497957
-0.0026700886
0.00093984334
-0.0044971447
0.0035573014
-0.006768638
0.0070576464
-0.0002890084
0.0043744294
-0.0079809835
0.0036065542
0.0044608417
0.0018931609
-0.0063540025
-0.0010743078
0.0063646239
-0.0052903161
-0.009195857
0.0072349642
-0.0025180289
0.0069819668
-0.004463938
0.0016635349
0.0020965241
-0.0048620203
0.0044340325
0.00042798777
0.0048861707
0.006288407
-0.011174578
0.008794175
-0.0081458796
-0.00064829546
0.00055519402
-0.0026279377
0.0049861325
-0.0023581949
0.0068974142
-0.003366882
-0.0035305323
0.0097309253
-0.0087600729
-0.00097085232
0.0078977816
-0.0070171204
-0.00088066119
0.0025163728
-0.0041316079
0.0016152351
-0.0026622691
0.001224031
0.0014382382
0.0012822588
-0.0037409812
-0.010948469
0.0076461442
0.0033023245
0.0023880747
0.0051476618
0.0024605173
-0.0093331675
0.0068726501
-0.0045975037
0.0076862313
-0.0030887276
-0.0010206065
-0.0060801564
0.0071007629
0.0032009256
-0.0025270595
-0.00067386613
0.00049153327
0.0083026418
0.005371219
0.00022660439
-0.0055978234
-0.0077231445
0.0031180293
0.0046051152
0.00055117737
0.0035808656
-0.0041320429
0.0032142396
0.0024948096
0.0043812781
0.0025005652
-0.0068818433
0.0046002375
-0.0018098314
-0.0027904061
-0.0047300049
-0.0053861979
0.0030271109
-0.0018781399
-0.0010358269
-0.0016803503
0.0027161772
-0.0029574341
0.0056665973
-0.0027091632
-0.0030663775
0.0079525483
-0.0058009636
0.0076334471
-0.0018324835
-0.0059813131
-0.0017418314
-4.1873507e-05
0.0077989145
0.0082944365
-0.0076694341
-0.00062500245
-0.0053138262
-0.0025065982
-0.011461754
0.0075439568
0.003917797
-0.010876656
0.0077934594
0.003083197
0.0058639922
-0.0025954313
-0.0032685608
0.0013001674
-0.0037871737
0.0022244262
-0.0055114925
-1.6030544e-05
0.0042505643
-0.0042345338
0.003189156
-0.0042634638
-0.0017266906
0.0045560054
0.001931605
0.0045155171
0.0065716633
0.003159262
0.0038155554
-0.0038315859
0.002992796
0.0071943923
-0.010187188
0.00997043
-0.0057077912
-0.0042626389
-0.0022501469
0.0048030861
-0.0025529392
-0.00013057723
0.0015061557
0.0020409875
-0.0011275279
0.0013141401
0.00025813523
-0.0015722753
0.010169505
-0.010336661
0.0012268141
0.00031219791
-0.001539012
0.0012279087
-0.000877665
-0.007677276
0.0082435859
-0.0005663098
-0.0024343598
0.0015140451
0.00092031463
0.003677627
-0.0040440873
0.00036646032
-0.0055896782
0.0051417629
0.00044791528
0.0019201383
-0.0010001243
-0.00049630218
0.0047633356
-0.0042670334
-0.0047109619
0.0085955082
-0.0038845462
0.0035199551
0.0065811575
0.007794979
-0.0034205496
0.003455669
0.0024083232
-0.0034937008
0.0026753656
0.0064520295
-0.007472636
-0.003580044
0.0025442171
0.005726452
0.0025679845
0.0052780221
-0.010831928
0.0055539063
0.0030178221
0.0016288738
-0.0017299726
-0.0034755551
0.0045164808
0.0069642616
-0.0069642616
-0.0021236471
-0.0014487414
0.0068199604
0.001401049
-0.0040289866
-0.00039570494
0.0062772455
-0.0058815405
-0.0040725796
0.0096143111
-0.0042482907
0.0094265257
0.0084328848
-0.0049271299
-0.0035057549
0.0043793854
0.0029813844
-0.0052315313
0.0058534216