/*--------------------------------*- C++ -*----------------------------------*\
| =========                 |                                                 |
| \\      /  F ield         | foam-extend: Open Source CFD                    |
|  \\    /   O peration     | Version:     4.1                                |
|   \\  /    A nd           | Web:         http://www.foam-extend.org         |
|    \\/     M anipulation  |                                                 |
\*---------------------------------------------------------------------------*/
FoamFile
{
    version     2.0;
    format      ascii;
    class       volVectorField;
    location    "0.3";
    object      U;
}
// * * * * * * * * * * * * * * * * * * * * * * * * * * * * * * * * * * * * * //

dimensions      [0 1 -1 0 0 0 0];

internalField   nonuniform List<vector> 
4242
(
(0.059097801 0.053682991 1.6723536e-19)
(0.17857036 0.16195413 1.1086173e-21)
(0.30829744 0.2779786 -1.9111088e-19)
(0.44508043 0.3984622 1.7510647e-19)
(0.58371202 0.51778758 3.357708e-21)
(0.71703295 0.62783835 9.1062572e-22)
(0.8357318 0.71807323 0)
(0.92981477 0.77769108 8.1954079e-20)
(0.99439366 0.80148667 -1.3322196e-19)
(1.0312423 0.79198004 5.0094068e-20)
(1.0476602 0.75805551 -2.6052494e-20)
(1.0523098 0.70997403 2.1415959e-20)
(1.0517709 0.65517275 5.8493877e-21)
(1.050188 0.59726162 -1.9786549e-21)
(1.0503106 0.53781532 3.564595e-21)
(1.0507037 0.48162963 0)
(0.065479384 0.043713567 0)
(0.1992455 0.13305281 -2.8525908e-21)
(0.3454561 0.23066814 3.4160948e-19)
(0.50094198 0.33422894 -3.1134101e-19)
(0.66005608 0.43961622 -5.8971803e-21)
(0.81431304 0.54051652 2.2310698e-19)
(0.95273619 0.62832862 -1.0917206e-20)
(1.0637901 0.69317277 -2.8778638e-19)
(1.139592 0.7272809 2.6197784e-20)
(1.1799397 0.7291575 8.365915e-20)
(1.1927015 0.70476974 0)
(1.1892476 0.66379645 -6.1506002e-21)
(1.1789388 0.61457945 -3.5774543e-21)
(1.1672266 0.56184495 -2.0003832e-20)
(1.1567801 0.50765918 2.4037217e-20)
(1.1467744 0.45523225 3.0541386e-21)
(0.070122927 0.034620306 -1.5209822e-22)
(0.21394312 0.10577069 -1.057165e-18)
(0.37191438 0.18426884 4.9766314e-19)
(0.54111488 0.26864063 -3.9980392e-21)
(0.71617733 0.35610877 -3.8963838e-19)
(0.88871825 0.44222565 3.3398355e-19)
(1.0473805 0.52067221 -4.9472297e-21)
(1.1793382 0.58366335 7.9297718e-21)
(1.2732877 0.62335349 -2.5192109e-21)
(1.3245889 0.63536614 -9.2508149e-21)
(1.339462 0.62223404 8.4835991e-20)
(1.3306902 0.59148466 -6.2389836e-20)
(1.3107513 0.55107738 -8.3871025e-20)
(1.2876268 0.50619622 7.0189336e-20)
(1.2649273 0.4597444 -5.8467023e-21)
(1.2438153 0.41407191 -1.3355034e-20)
(0.06964938 0.023791315 -1.1834512e-21)
(0.21387925 0.073418389 -1.4104383e-21)
(0.37415077 0.12954584 -3.1486514e-19)
(0.54831768 0.19160976 2.9325332e-19)
(0.73179196 0.25808377 -4.2252017e-21)
(0.91678117 0.32615577 2.1806829e-19)
(1.0920326 0.39141556 -1.694645e-19)
(1.2437943 0.4479156 -2.8195946e-19)
(1.3586806 0.48899407 1.6712825e-20)
(1.4285752 0.50944758 3.4933647e-19)
(1.455213 0.5084513 -1.325297e-19)
(1.4491595 0.4897908 0)
(1.4247851 0.46025477 6.5372877e-21)
(1.3937448 0.42549639 -4.7201262e-20)
(1.3613228 0.38908063 2.2597107e-20)
(1.3289305 0.3531311 -3.7607688e-20)
(0.063659249 0.012883162 1.183538e-21)
(0.19751053 0.040513068 -3.8428977e-19)
(0.34907785 0.073298939 3.627595e-19)
(0.51756723 0.1114683 -2.4026804e-21)
(0.69988612 0.15466651 6.5614538e-21)
(0.8895883 0.20169191 -1.9994118e-21)
(1.0761921 0.25008216 -2.1194689e-19)
(1.2456385 0.29588948 1.9887404e-21)
(1.3827356 0.33398209 1.2743136e-19)
(1.4757899 0.35928439 -9.6902356e-20)
(1.5216977 0.36891627 7.8989001e-20)
(1.527477 0.36351755 0)
(1.5068702 0.34702315 4.1482814e-20)
(1.4735861 0.32395861 -2.8959276e-20)
(1.4359053 0.29769441 7.846172e-21)
(1.3961098 0.26898398 0)
(0.053353647 0.0037614684 -1.7256651e-19)
(0.16786673 0.012497715 1.0322726e-19)
(0.30086917 0.024494768 1.9319801e-19)
(0.45322159 0.04040463 -1.7538122e-19)
(0.62391738 0.060681334 -1.717502e-21)
(0.8087618 0.085451625 6.855693e-20)
(0.99913499 0.11410958 5.7863359e-20)
(1.1817055 0.14489914 -1.5521631e-21)
(1.3401812 0.1747407 -1.7997262e-21)
(1.4595563 0.1996743 -8.169772e-20)
(1.5315787 0.2161337 8.3090883e-20)
(1.5581516 0.22236337 -3.1867362e-21)
(1.5501295 0.21917836 -7.8259987e-21)
(1.521656 0.20903798 -1.639019e-20)
(1.4837986 0.1947494 -1.0470277e-23)
(1.4420414 0.17708189 6.2059774e-21)
(0.040250574 -0.0023532241 -8.5975807e-20)
(0.12918253 -0.0068208016 -1.0306766e-19)
(0.23612728 -0.010146108 2.9136663e-19)
(0.36355678 -0.011712825 -1.7639225e-19)
(0.51276699 -0.010827592 8.0389004e-20)
(0.68245647 -0.0066461787 8.1222346e-24)
(0.86699063 0.0015965698 1.1407773e-19)
(1.0551964 0.014187596 -5.0430499e-20)
(1.2310318 0.030445519 -6.0457381e-21)
(1.3770849 0.048447262 2.5840793e-20)
(1.4801386 0.065379769 -3.9435873e-20)
(1.535968 0.078472505 3.0420215e-20)
(1.5503887 0.086076074 -8.4110217e-21)
(1.5356017 0.088076914 -3.2611921e-20)
(1.5041154 0.08561769 1.2058046e-20)
(1.4645493 0.078242987 1.4353388e-20)
(0.026081782 -0.0049059086 -1.8999442e-21)
(0.086499894 -0.015533084 3.9610317e-19)
(0.16312041 -0.026945837 -3.7163321e-19)
(0.25967413 -0.038963587 3.3441413e-19)
(0.37954899 -0.051238769 -3.0117922e-19)
(0.52449928 -0.062986033 0)
(0.69265586 -0.072915152 2.1668216e-19)
(0.87646187 -0.079349518 -1.7590555e-19)
(1.0619564 -0.080712979 -4.0669955e-21)
(1.2309722 -0.076306625 0)
(1.3662902 -0.066879513 -1.5752933e-20)
(1.4573732 -0.054545936 7.8029456e-21)
(1.5034621 -0.042010356 -4.9746016e-20)
(1.5123251 -0.031523407 8.9113434e-20)
(1.4956618 -0.023983496 -6.0480218e-20)
(1.4643934 -0.020727434 -1.5198361e-20)
(0.012902423 -0.0041249788 1.2379591e-21)
(0.0459333 -0.014004984 -1.477452e-21)
(0.092139832 -0.025940443 0)
(0.15588274 -0.040395309 7.0865119e-21)
(0.24199373 -0.057792839 4.0316014e-21)
(0.35485511 -0.078147555 2.4183886e-19)
(0.49654095 -0.10070777 -2.119509e-19)
(0.66423941 -0.12359345 0)
(0.84810292 -0.14383546 7.2517709e-22)
(1.0315464 -0.15818373 -1.2518774e-20)
(1.1952028 -0.16441205 1.0409418e-20)
(1.3229991 -0.16230463 6.9686129e-21)
(1.4069783 -0.15369976 1.141366e-20)
(1.4484826 -0.14156647 6.9249792e-20)
(1.4557605 -0.12845317 -7.9346162e-20)
(1.4399038 -0.11673765 4.0875603e-20)
(0.0016276356 -0.00058551984 0)
(0.010546531 -0.0038155051 6.4253756e-19)
(0.028937355 -0.009527479 -1.2061103e-18)
(0.061176345 -0.018835534 5.4576702e-19)
(0.1127382 -0.033082145 -4.0444983e-21)
(0.18975036 -0.053522562 -1.309052e-20)
(0.29761771 -0.080820266 3.6007878e-19)
(0.43850482 -0.11420975 -2.9638554e-19)
(0.60816814 -0.15079067 -2.1552803e-19)
(0.79408104 -0.18576345 1.9546294e-19)
(0.97728969 -0.21392302 0)
(1.1379077 -0.23158692 -1.2542617e-19)
(1.2611526 -0.23773892 6.8107328e-20)
(1.3408244 -0.23384152 0)
(1.3793967 -0.22233091 0)
(1.3859247 -0.20554246 0)
(-0.0053482637 0.0037018453 9.214651e-19)
(-0.012430533 0.0093597526 -5.5235754e-19)
(-0.014043826 0.013278896 0)
(-0.0064579292 0.014011539 -3.4674542e-21)
(0.015581374 0.0095277721 -4.116404e-19)
(0.058910727 -0.0026634776 3.7442762e-19)
(0.13082826 -0.024854704 2.9745356e-19)
(0.23709378 -0.058354787 5.8868247e-21)
(0.37981743 -0.10301948 -2.2480295e-19)
(0.55296917 -0.15520678 1.1312993e-20)
(0.74113337 -0.20802034 0)
(0.92311999 -0.25375193 -2.0306732e-19)
(1.0786634 -0.2865029 3.1094031e-20)
(1.1941683 -0.30367217 1.2053338e-19)
(1.2655041 -0.30524408 0)
(1.3004437 -0.28769183 1.3318977e-20)
(-0.010182034 0.0095842429 -3.3520972e-23)
(-0.02883382 0.027901191 9.7198731e-19)
(-0.045669149 0.046346805 -4.5994733e-19)
(-0.057966177 0.063640001 -4.1742404e-19)
(-0.061519082 0.077764431 3.7043228e-19)
(-0.050005366 0.085635827 -3.3348727e-19)
(-0.014278118 0.082372376 2.832548e-19)
(0.056478667 0.061501448 2.3089585e-19)
(0.16862743 0.018235782 -2.1182658e-19)
(0.31822515 -0.04656396 0)
(0.49671609 -0.12643284 0)
(0.68627073 -0.20824237 0)
(0.86448439 -0.27823316 1.9529074e-20)
(1.0121697 -0.32720624 0)
(1.1183904 -0.35208914 8.5830889e-20)
(1.1854214 -0.34760246 -1.438833e-19)
(0.054233259 -0.0595285 -3.2341574e-20)
(0.16263503 -0.17806342 -5.3029857e-22)
(0.27707467 -0.30279705 3.8988568e-20)
(0.39352094 -0.42820071 -3.570002e-20)
(0.50642444 -0.54697841 -1.6718572e-21)
(0.60922038 -0.65058435 7.6702825e-22)
(0.69553346 -0.73037421 0)
(0.76096688 -0.77966569 -4.2783392e-20)
(0.80488467 -0.79627669 8.413263e-20)
(0.83096912 -0.78378828 -3.5986273e-20)
(0.84565525 -0.74985871 4.0024535e-20)
(0.85525093 -0.70260258 -3.2913791e-20)
(0.86398794 -0.64789468 -6.6744481e-21)
(0.87410733 -0.58895408 8.8340096e-21)
(0.88598522 -0.52792875 2.2139001e-20)
(0.89574638 -0.47041347 0)
(0.037642018 -0.055828381 0)
(0.11346279 -0.16698017 1.7810797e-21)
(0.19551836 -0.28359882 -2.1729512e-19)
(0.28136453 -0.40071741 1.9798361e-19)
(0.36713872 -0.51129426 3.5362541e-21)
(0.4479523 -0.60662623 -1.5622502e-19)
(0.5188385 -0.67794367 -3.467672e-21)
(0.57635275 -0.71907019 2.3261134e-19)
(0.6200757 -0.72905502 -8.8014175e-21)
(0.65283217 -0.71277418 -8.3452248e-20)
(0.67918664 -0.67844296 0)
(0.70328617 -0.63380025 9.1103364e-21)
(0.72764764 -0.58386633 9.3654949e-21)
(0.75333949 -0.5310385 6.9264159e-20)
(0.78037669 -0.47636657 -9.0592644e-20)
(0.80687208 -0.42155306 -1.3385624e-20)
(0.02467953 -0.049322835 5.514155e-22)
(0.074620789 -0.14739359 8.1744504e-19)
(0.12945809 -0.25007243 -3.8451462e-19)
(0.18790819 -0.35286274 3.1685593e-21)
(0.24780651 -0.44943456 3.0753064e-19)
(0.3063709 -0.53203357 -2.6335937e-19)
(0.36072152 -0.59296396 4.1360353e-21)
(0.40883432 -0.62700459 -6.9428351e-21)
(0.45047653 -0.63367895 2.4085749e-21)
(0.48734443 -0.61756857 9.4228549e-21)
(0.5221178 -0.58595422 -1.0755977e-19)
(0.55713077 -0.54553126 7.7774172e-20)
(0.59369772 -0.50063353 1.4476906e-19)
(0.63232948 -0.4534565 -1.2228909e-19)
(0.67276356 -0.40525854 1.76737e-20)
(0.71246765 -0.35780987 5.6602031e-20)
(0.013335546 -0.038192487 9.6484758e-22)
(0.040835396 -0.11417138 1.1492052e-21)
(0.072416244 -0.19374044 2.541461e-19)
(0.10785765 -0.27340617 -2.3693773e-19)
(0.14642756 -0.34822307 3.4706763e-21)
(0.18703558 -0.41210721 -1.8191375e-19)
(0.22839466 -0.45901865 1.4148796e-19)
(0.26946011 -0.48488672 2.5409361e-19)
(0.30995224 -0.48939588 -2.5000397e-21)
(0.35051554 -0.4762007 -3.4802493e-19)
(0.39228739 -0.45104528 1.3713887e-19)
(0.43620977 -0.41918082 0)
(0.48269922 -0.38398327 -9.5410638e-21)
(0.53176532 -0.34717623 7.773706e-20)
(0.58260045 -0.30984675 -3.6982602e-20)
(0.63194095 -0.2733327 8.6680983e-20)
(0.0049570189 -0.022905013 -9.6501334e-22)
(0.01586889 -0.068947263 3.1584673e-19)
(0.030224953 -0.11779802 -2.9862349e-19)
(0.048609126 -0.1675158 1.9655896e-21)
(0.071388949 -0.21514254 -5.3903677e-21)
(0.098765901 -0.25676119 1.6509461e-21)
(0.13066355 -0.28814248 1.8339221e-19)
(0.16679035 -0.30603818 3.144222e-21)
(0.20687316 -0.30962886 -1.1416275e-19)
(0.25083816 -0.30103352 9.6815148e-20)
(0.29873669 -0.28419728 -7.8811735e-20)
(0.35050711 -0.26295346 0)
(0.40592082 -0.23978011 -5.2515147e-20)
(0.46462093 -0.21578569 3.6976746e-20)
(0.52494521 -0.19147508 -1.2806171e-20)
(0.58096542 -0.1678882 0)
(0.070149768 -0.034631971 0)
(0.21403523 -0.10581818 5.3228914e-19)
(0.37209272 -0.18437189 -9.9641024e-19)
(0.54140508 -0.26882279 4.5728924e-19)
(0.71660621 -0.35639586 3.5199189e-21)
(0.88930727 -0.44264209 1.5749661e-21)
(1.0481357 -0.52123484 2.6622094e-19)
(1.1802324 -0.5843733 -2.2753476e-19)
(1.2743671 -0.62424248 -1.6019378e-19)
(1.3257428 -0.63637954 1.1794215e-19)
(1.3405425 -0.62329326 0)
(1.3315185 -0.59249485 -4.8993893e-20)
(1.3111516 -0.55195729 3.8843035e-20)
(1.2875197 -0.50689747 0)
(1.2644662 -0.46013101 0)
(1.2432577 -0.41394816 0)
(0.00082901829 -0.0077953662 1.3784227e-19)
(0.0034745879 -0.02397116 -8.2651257e-20)
(0.0090133365 -0.041875302 -1.5477814e-19)
(0.018469334 -0.061100378 1.4096068e-19)
(0.032926892 -0.080749606 1.6850655e-21)
(0.053544879 -0.099234089 -5.574559e-20)
(0.081247693 -0.11429506 -4.8399419e-20)
(0.11638073 -0.12355768 3.2911167e-22)
(0.15851257 -0.12565455 4.0013817e-22)
(0.20656285 -0.12114791 7.5599535e-20)
(0.25922267 -0.11219492 -8.0614523e-20)
(0.31532842 -0.1011453 9.4730407e-22)
(0.37394638 -0.089437036 6.9818517e-21)
(0.43424195 -0.077485413 1.9129919e-20)
(0.49517993 -0.065102086 1.3663952e-23)
(0.55498383 -0.052250772 -1.0035785e-20)
(0.00083505129 0.007861533 6.8406253e-20)
(0.0034952568 0.024173926 8.2000334e-20)
(0.0090571452 0.04222729 -2.3232456e-19)
(0.018546043 0.06160829 1.409857e-19)
(0.033046632 0.081409721 -6.4457901e-20)
(0.053717448 0.10002745 -6.588944e-24)
(0.081481498 0.11518463 -9.3998774e-20)
(0.11668159 0.12448995 4.0958114e-20)
(0.15888206 0.12656523 4.2306671e-21)
(0.20699534 0.12196781 -2.4614223e-20)
(0.25970195 0.11285487 3.5815799e-20)
(0.31582904 0.10158464 -3.118758e-20)
(0.37443929 0.089617996 6.9793583e-21)
(0.43467132 0.077413115 3.7391443e-20)
(0.49534201 0.064877791 -1.4419756e-20)
(0.5543513 0.052220951 -2.025203e-20)
(0.0049880002 0.023062084 1.4932358e-21)
(0.01596038 0.069403294 -3.1796644e-19)
(0.030378208 0.1185507 2.9845323e-19)
(0.048821238 0.16854416 -2.6875925e-19)
(0.071651921 0.21640281 2.4228552e-19)
(0.099066721 0.25818618 0)
(0.13098542 0.2896458 -1.7769146e-19)
(0.1671143 0.30752242 1.4485306e-19)
(0.20717768 0.31099284 3.193021e-21)
(0.25109472 0.30217416 0)
(0.29890362 0.28500675 1.4080837e-20)
(0.35053084 0.26331697 -7.2074033e-21)
(0.40574373 0.23957391 5.1657284e-20)
(0.46414151 0.21485869 -9.8858765e-20)
(0.52386608 0.1895925 6.8370012e-20)
(0.57882644 0.16472281 1.9650103e-20)
(0.01336285 0.038289282 -9.635724e-22)
(0.040908816 0.11445132 1.1477019e-21)
(0.072514576 0.19420723 0)
(0.10795131 0.27405715 -5.1248346e-21)
(0.14648061 0.34904776 -2.8039775e-21)
(0.18700718 0.41308479 -1.8155346e-19)
(0.22824046 0.46011161 1.5965689e-19)
(0.26913138 0.48603134 0)
(0.30939167 0.49049634 -1.2330724e-21)
(0.34964994 0.47713548 9.4340165e-21)
(0.39101671 0.4516862 -9.1016207e-21)
(0.43440793 0.41941105 -4.9645209e-21)
(0.48028863 0.3836811 -1.1158367e-20)
(0.52886265 0.34612209 -7.140821e-20)
(0.57924961 0.30765191 8.4090296e-20)
(0.62663109 0.2699809 -4.6451431e-20)
(0.024632775 0.049244373 0)
(0.074482985 0.14717525 -4.0860774e-19)
(0.12921179 0.24973941 7.6552485e-19)
(0.1875367 0.35245912 -3.4526867e-19)
(0.24729548 0.44902099 2.798062e-21)
(0.30570462 0.53167636 8.1489833e-21)
(0.35987442 0.59271104 -2.332385e-19)
(0.40775933 0.62685375 1.9219598e-19)
(0.4490972 0.63355697 1.4699523e-19)
(0.4855572 0.61734322 -1.3473704e-19)
(0.51979817 0.58548152 0)
(0.55415197 0.54470486 9.7974595e-20)
(0.59007431 0.49935997 -5.4231921e-20)
(0.62856825 0.45153283 0)
(0.66957349 0.40263519 0)
(0.70761476 0.35633086 0)
(0.037520617 0.055653917 -3.9071247e-19)
(0.11311559 0.16648104 2.3387415e-19)
(0.19494752 0.28279463 0)
(0.28058482 0.3996549 9.1196213e-22)
(0.36617782 0.51004705 1.755075e-19)
(0.44684397 0.60528485 -1.5827119e-19)
(0.51760826 0.67659136 -1.3370887e-19)
(0.57500069 0.71774812 -6.2079561e-21)
(0.61856983 0.72773539 1.0615193e-19)
(0.65112675 0.71136864 -6.7873124e-21)
(0.67726635 0.67685474 0)
(0.70123454 0.63198836 1.1989939e-19)
(0.72577242 0.58187245 -1.3531431e-20)
(0.75230546 0.52905131 -7.7360332e-20)
(0.78097989 0.47513441 0)
(0.8100513 0.42242516 -9.6511673e-21)
(0.054114535 0.059396805 1.0417564e-21)
(0.16228505 0.17767099 -7.9911085e-20)
(0.2764914 0.30213533 3.8167278e-20)
(0.39271564 0.42727918 3.8152728e-20)
(0.5054249 0.54582906 -3.317449e-20)
(0.60806964 0.6492612 4.1782131e-20)
(0.69428005 0.72894364 -3.8366604e-20)
(0.75964932 0.7781864 -4.0605853e-20)
(0.80351923 0.79477691 3.5641664e-20)
(0.82956062 0.78226426 0)
(0.84423798 0.74831117 0)
(0.85394483 0.70109514 0)
(0.86305364 0.64659377 -3.9274427e-21)
(0.87395296 0.58814775 0)
(0.88693405 0.52799757 -4.7186418e-20)
(0.89720206 0.47126915 8.8795981e-20)
(-0.010215964 -0.0096143781 4.0281451e-19)
(-0.02895029 -0.027999758 2.0218572e-21)
(-0.045896752 -0.046526823 -4.5806744e-19)
(-0.058342272 -0.063916272 4.2085626e-19)
(-0.062093583 -0.078154446 6.2530481e-21)
(-0.050848082 -0.086163937 4.7816087e-21)
(-0.015493996 -0.083082625 0)
(0.054853526 -0.062393135 2.3830864e-19)
(0.1666692 -0.019279888 -4.0146589e-19)
(0.315994 0.045409319 1.6588994e-19)
(0.4942676 0.12525543 -1.3499445e-19)
(0.68366971 0.20710452 1.103923e-19)
(0.86173157 0.27716077 2.2411454e-21)
(1.0091553 0.32620413 -1.6271146e-20)
(1.1152256 0.35055992 -4.4620061e-20)
(1.1840545 0.34197354 0)
(-0.0054336603 -0.0037602118 0)
(-0.012701676 -0.0095405702 -4.335128e-21)
(-0.014535972 -0.013599882 5.1585414e-19)
(-0.0072108319 -0.014491827 -4.7159003e-19)
(0.014526119 -0.010185919 -9.6693355e-21)
(0.057521527 0.0018166951 3.608723e-19)
(0.12911599 0.02383623 -1.4635048e-21)
(0.23505681 0.057162907 -5.106998e-19)
(0.37749978 0.10167693 2.8551444e-20)
(0.55047472 0.15376377 1.7018145e-19)
(0.73859953 0.20652815 0)
(0.92067519 0.25223062 -1.3657421e-20)
(1.0763888 0.28490396 -1.9158104e-20)
(1.1921183 0.30177833 -9.5520787e-20)
(1.2636866 0.3026573 1.2726608e-19)
(1.296703 0.28791443 1.4348975e-20)
(0.0015320016 0.00053732833 -4.4109197e-22)
(0.010244212 0.0036660852 -1.2771061e-18)
(0.028393894 0.0092625534 6.0268345e-19)
(0.060354981 0.018439628 -4.5605692e-21)
(0.11160478 0.032540986 -4.8154059e-19)
(0.18828216 0.052827382 4.1380234e-19)
(0.29581776 0.079974857 -5.8901061e-21)
(0.4364194 0.11323581 9.7479505e-21)
(0.60589797 0.14972612 -6.0867466e-21)
(0.79177058 0.18465229 -1.2560267e-20)
(0.97509106 0.21279966 1.4598442e-19)
(1.1359357 0.23046325 -1.0395737e-19)
(1.2594547 0.23660073 -1.7393509e-19)
(1.3393971 0.23263534 1.4540286e-19)
(1.3782292 0.22106741 -2.0984848e-20)
(1.3838836 0.20677919 -5.4776962e-20)
(0.012781192 0.0040828745 -1.2366025e-21)
(0.045559439 0.013877799 -1.4758358e-21)
(0.091483142 0.02572049 -3.387292e-19)
(0.1549173 0.040076095 3.1627365e-19)
(0.24070474 0.057370883 -4.4670171e-21)
(0.35324958 0.077624975 2.4152826e-19)
(0.49466096 0.10009477 -1.870047e-19)
(0.66217218 0.12290867 -3.2889341e-19)
(0.84597754 0.14310203 7.7932369e-21)
(1.0295094 0.15742109 4.3119935e-19)
(1.1933775 0.16362765 -1.6652471e-19)
(1.3214455 0.16149033 0)
(1.4056728 0.15283869 1.0922593e-20)
(1.4473415 0.1406274 -7.6853616e-20)
(1.4547164 0.12737878 3.6997984e-20)
(1.4384732 0.11679484 -7.2310139e-20)
(0.025948412 0.004878755 1.2364209e-21)
(0.086095429 0.015452211 -3.9279859e-19)
(0.16242248 0.026807778 3.7130286e-19)
(0.25867044 0.038766094 -2.5210687e-21)
(0.37824568 0.050981848 6.8357516e-21)
(0.52293133 0.062672863 -2.0467961e-21)
(0.69089619 0.072551963 -2.2337017e-19)
(0.87462196 0.078943494 -1.2707916e-21)
(1.0601707 0.080268201 1.3569009e-19)
(1.2293656 0.075820178 -1.084599e-19)
(1.3649374 0.066340575 8.8145009e-20)
(1.4562677 0.053939359 0)
(1.5025087 0.041331438 4.9842111e-20)
(1.5113826 0.030770504 -3.5119676e-20)
(1.494631 0.023139695 1.1336585e-20)
(1.4630733 0.02087733 0)
(0.040114658 0.0023440561 -1.7320789e-19)
(0.12877867 0.0067936246 1.0366237e-19)
(0.23544553 0.010099331 1.9408336e-19)
(0.36260274 0.01164451 -1.7632586e-19)
(0.51156975 0.010735149 -1.8635132e-21)
(0.68107585 0.0065256198 6.9097599e-20)
(0.86551933 -0.001751908 5.8732355e-20)
(1.0537512 -0.014388517 -1.3044338e-21)
(1.2297308 -0.030707747 -1.5653815e-21)
(1.376013 -0.048789745 -8.4253976e-20)
(1.4793124 -0.065819695 8.6228986e-20)
(1.5353158 -0.079019279 -3.047523e-21)
(1.5497552 -0.086713615 -8.4073108e-21)
(1.5348167 -0.088794518 -1.7380526e-20)
(1.5030901 -0.086429812 -1.0441842e-23)
(1.4632613 -0.078211301 6.8105309e-21)
(0.05323403 -0.0037535021 -8.5646187e-20)
(0.1675193 -0.0124763 -1.0263855e-19)
(0.3002974 -0.024463692 2.8999197e-19)
(0.4524472 -0.040370753 -1.7541793e-19)
(0.62298599 -0.060655781 7.9874068e-20)
(0.80774549 -0.085450949 8.1073569e-24)
(0.99812781 -0.11415601 1.124238e-19)
(1.1808092 -0.14501916 -4.9946869e-20)
(1.3394815 -0.17496233 -6.0612053e-21)
(1.4590899 -0.2000202 2.4744097e-20)
(1.5313054 -0.21661214 -3.8418642e-20)
(1.557947 -0.22296455 2.894484e-20)
(1.5497982 -0.21985366 -7.8294299e-21)
(1.521027 -0.2097668 -3.0624587e-20)
(1.4828234 -0.19550744 1.1262351e-20)
(1.4408423 -0.17701743 1.2452325e-20)
(0.063576236 -0.012866107 -1.8390014e-21)
(0.19727743 -0.04046875 3.8745679e-19)
(0.34870917 -0.073236509 -3.6308264e-19)
(0.51709443 -0.11140245 3.2564921e-19)
(0.69935995 -0.15461864 -2.9300016e-19)
(0.88907672 -0.20169027 0)
(1.0757718 -0.25015956 2.0547722e-19)
(1.2453803 -0.29607865 -1.6722337e-19)
(1.3826874 -0.33431289 -3.3159734e-21)
(1.4759402 -0.35976994 0)
(1.5219588 -0.36954287 -1.3562837e-20)
(1.5276931 -0.36425132 6.2162148e-21)
(1.5068237 -0.34778049 -3.9951702e-20)
(1.4731266 -0.32472473 7.2648881e-20)
(1.4350401 -0.29840331 -4.7094829e-20)
(1.3950698 -0.26900151 -1.1253975e-20)
(0.069619072 -0.023779974 1.1849454e-21)
(0.21380397 -0.073395136 -1.4122184e-21)
(0.37405081 -0.12952593 0)
(0.54822515 -0.19161463 -1.6002052e-21)
(0.73174992 -0.25814119 -3.5173269e-21)
(0.91683845 -0.32629807 2.0646682e-19)
(1.0922343 -0.39167448 -1.8176388e-19)
(1.2441711 -0.44831584 0)
(1.3592534 -0.48956026 1.3777463e-20)
(1.4292876 -0.51016947 9.2620013e-21)
(1.4559423 -0.50928423 8.6451775e-21)
(1.4497438 -0.49068448 -1.5807629e-20)
(1.4249912 -0.46108927 8.7540724e-21)
(1.3934646 -0.42626396 4.4630598e-20)
(1.3606361 -0.38964977 -4.7518402e-20)
(1.3280683 -0.35309488 2.4451662e-20)
(0.065561013 -0.043766339 6.1549579e-19)
(0.19949126 -0.1332186 -3.6844661e-19)
(0.34587768 -0.23096348 0)
(0.50155355 -0.33467277 -1.8910198e-21)
(0.66086349 -0.44022258 -2.6511014e-19)
(0.81531267 -0.54129311 2.3983143e-19)
(0.95391208 -0.62927526 1.7513617e-19)
(1.0651043 -0.69427196 -8.7494195e-21)
(1.1409879 -0.72849378 -1.2338822e-19)
(1.181337 -0.73042444 6.3830487e-21)
(1.1939836 -0.70601654 0)
(1.1902503 -0.66493091 -6.440664e-20)
(1.1794832 -0.61549188 2.0432912e-20)
(1.1672514 -0.56240067 3.1285448e-20)
(1.1564658 -0.50767306 0)
(1.1461016 -0.45468548 -4.3817312e-22)
(0.059204355 -0.053777642 -1.0866152e-21)
(0.17888559 -0.16223897 4.0520026e-19)
(0.30883079 -0.27846791 -1.9178943e-19)
(0.44583189 -0.39916356 -1.7327627e-19)
(0.58466731 -0.51869587 1.5303844e-19)
(0.71815898 -0.6289301 -1.3353418e-19)
(0.83701363 -0.71933248 1.1540637e-19)
(0.93120137 -0.77906317 7.8676332e-20)
(0.9958346 -0.80291649 -7.0263883e-20)
(1.0326805 -0.7934205 0)
(1.0490053 -0.75945737 0)
(1.0534048 -0.71125568 0)
(1.0524143 -0.65619719 -1.7835935e-21)
(1.0502585 -0.59786523 0)
(1.0498282 -0.53800808 -7.1942089e-21)
(1.0495711 -0.48156113 1.8521261e-20)
(-0.012277696 0.013438399 3.4754276e-19)
(-0.036466616 0.040091255 1.5487655e-21)
(-0.061198627 0.068148908 -3.9551826e-19)
(-0.084912555 0.096186674 3.6366271e-19)
(-0.10512974 0.12195215 4.8102131e-21)
(-0.11797957 0.14202053 4.7648052e-21)
(-0.11775111 0.15162668 0)
(-0.095946294 0.14443581 2.0373874e-19)
(-0.040189412 0.11270619 -3.3934585e-19)
(0.065870564 0.049019611 1.4086366e-19)
(0.21779911 -0.039914099 -1.1213418e-19)
(0.39748742 -0.14172393 9.1555427e-20)
(0.58361802 -0.24170885 -1.656518e-21)
(0.75419486 -0.32517696 -1.3125976e-20)
(0.89237042 -0.38231691 -3.9522802e-20)
(0.99393789 -0.40726748 0)
(-0.010736515 0.016167678 0)
(-0.032193016 0.04873892 -2.887718e-21)
(-0.05470219 0.083701772 3.5097653e-19)
(-0.077137596 0.11975684 -3.2086687e-19)
(-0.0976372 0.15466889 -6.7651978e-21)
(-0.11331147 0.18496476 2.4641155e-19)
(-0.11994935 0.20566374 -9.498306e-22)
(-0.11173417 0.21018441 -3.5138109e-19)
(-0.081074924 0.19054281 1.8662063e-20)
(-0.018586471 0.13794334 1.1923824e-19)
(0.087705661 0.044437032 0)
(0.23141217 -0.075595424 -8.9908298e-21)
(0.39139888 -0.20028208 -1.5372555e-20)
(0.54897523 -0.31082977 -7.423013e-20)
(0.6872856 -0.39112261 9.812893e-20)
(0.79853317 -0.43194795 9.3149045e-21)
(-0.010031858 0.020444826 -8.4693994e-23)
(-0.0300454 0.061480528 -6.3101242e-19)
(-0.051081998 0.10531786 2.9804624e-19)
(-0.072269959 0.150396 -1.9074536e-21)
(-0.092258948 0.19419178 -2.3938032e-19)
(-0.1090818 0.23301625 2.0705852e-19)
(-0.12005691 0.2619129 -2.5124647e-21)
(-0.12170822 0.27476947 4.2222249e-21)
(-0.10969032 0.26465665 -4.9160506e-21)
(-0.078642287 0.22418402 -5.7824402e-21)
(-0.0212099 0.14575549 8.3354513e-20)
(0.076290778 0.02295521 -5.8244859e-20)
(0.20015963 -0.121471 -1.0781005e-19)
(0.33099664 -0.25670674 8.9292999e-20)
(0.45473633 -0.36011283 -1.4670864e-20)
(0.56593686 -0.41719347 -3.1377692e-20)
(-0.0075479345 0.022178963 -3.480192e-22)
(-0.02263191 0.066183441 -4.1710952e-22)
(-0.038778468 0.11242427 -1.1826016e-19)
(-0.055508857 0.1590292 1.1074407e-19)
(-0.072071248 0.20319544 -1.2881807e-21)
(-0.087411842 0.2410885 8.6657337e-20)
(-0.10015333 0.26793356 -6.7040309e-20)
(-0.10859533 0.27840125 -1.2307376e-19)
(-0.11068008 0.26728922 -1.0602217e-21)
(-0.10374966 0.23021455 1.7133262e-19)
(-0.083736747 0.16376713 -6.7670276e-20)
(-0.043246962 0.065008278 0)
(0.036416019 -0.069500753 5.945738e-21)
(0.13197128 -0.19934753 -3.7269194e-20)
(0.23352446 -0.3024241 1.8226047e-20)
(0.33587079 -0.3638826 -2.5815597e-20)
(-0.0040275533 0.019440901 3.4802426e-22)
(-0.012360929 0.057561471 -8.802011e-20)
(-0.022211757 0.096917843 8.3385139e-20)
(-0.033656276 0.13564848 -7.2201351e-22)
(-0.046636603 0.17112238 1.7424061e-21)
(-0.060994075 0.19994431 -3.9960261e-22)
(-0.07640382 0.21820792 -5.431107e-20)
(-0.092293464 0.22206373 -2.0521393e-21)
(-0.10768595 0.20853738 3.3755673e-20)
(-0.1208865 0.17621875 -3.0618582e-20)
(-0.12889894 0.12528929 2.4971482e-20)
(-0.12598955 0.056895916 0)
(-0.10083086 -0.027283897 1.605542e-20)
(-0.046226074 -0.12178215 -1.1490685e-20)
(0.036412225 -0.21038715 4.1936927e-21)
(0.1316038 -0.26187299 0)
(-0.00092551311 0.0089260466 -2.4951145e-20)
(-0.0035776089 0.026508355 1.4716754e-20)
(-0.0087439781 0.044740905 2.872399e-20)
(-0.017194378 0.062710046 -2.6610307e-20)
(-0.029647539 0.078978082 -6.2596567e-22)
(-0.046762888 0.091514812 1.0893241e-20)
(-0.06882906 0.097899839 9.923963e-21)
(-0.095388979 0.095962829 1.3461654e-22)
(-0.12490853 0.084730271 9.7026037e-23)
(-0.15460216 0.064993433 -1.6469642e-20)
(-0.18039722 0.038798277 1.7813551e-20)
(-0.19675349 0.0081387511 -3.8559273e-22)
(-0.19624577 -0.026041851 -2.2843285e-21)
(-0.16869843 -0.063973064 -3.7790861e-21)
(-0.10995723 -0.10229936 -1.6924039e-24)
(-0.016245175 -0.12730953 -7.7252746e-24)
(-0.00091139327 -0.0087689876 -1.2387372e-20)
(-0.0035327406 -0.026024176 -1.536668e-20)
(-0.0086550808 -0.043890594 4.3089815e-20)
(-0.01704552 -0.061457125 -2.667053e-20)
(-0.029420751 -0.077290887 1.2390476e-20)
(-0.046438101 -0.089366972 1.2927604e-24)
(-0.068384029 -0.095266381 1.9191703e-20)
(-0.094798575 -0.09281086 -8.2276361e-21)
(-0.1241433 -0.081008616 -8.8386898e-22)
(-0.15362889 -0.060630816 5.5434336e-21)
(-0.17917801 -0.033715746 -7.6435191e-21)
(-0.19519072 -0.0022736144 6.7667851e-21)
(-0.19402133 0.032695117 -2.2805479e-21)
(-0.16592374 0.071272604 -6.6184429e-21)
(-0.10681468 0.10919588 2.2454521e-21)
(-0.011579807 0.13077532 9.896502e-22)
(-0.003973801 -0.019176396 -4.6603143e-22)
(-0.012202718 -0.056780627 8.8459261e-20)
(-0.021943587 -0.095601522 -8.3015713e-20)
(-0.033275347 -0.13379315 7.5862231e-20)
(-0.046143593 -0.16874022 -6.8561649e-20)
(-0.0603925 -0.19705789 0)
(-0.075697812 -0.21483738 5.2698635e-20)
(-0.091484256 -0.21820729 -4.2691386e-20)
(-0.10676779 -0.20415044 -1.7066394e-21)
(-0.11984281 -0.17120275 0)
(-0.12770418 -0.11950528 -4.9926678e-21)
(-0.1246492 -0.050216344 2.9276693e-21)
(-0.099494211 0.034885886 -1.7243644e-20)
(-0.045409573 0.12968511 2.722106e-20)
(0.037105298 0.21766232 -1.9135281e-20)
(0.13546796 0.26559745 -3.1403223e-21)
(-0.0074899414 -0.022002474 3.4604106e-22)
(-0.022463245 -0.065647472 -4.1475201e-22)
(-0.038505129 -0.11149166 0)
(-0.055142215 -0.15766543 2.614807e-21)
(-0.07162786 -0.20136964 1.6861232e-21)
(-0.086913168 -0.23877231 8.6107523e-20)
(-0.099623921 -0.26509666 -7.5431141e-20)
(-0.10806114 -0.27500305 0)
(-0.11017142 -0.26326987 -7.8637719e-22)
(-0.1033144 -0.22550052 -5.7493253e-21)
(-0.083460832 -0.15833507 3.668899e-21)
(-0.043298877 -0.05905639 4.6283615e-21)
(0.035176337 0.075544845 4.5177424e-21)
(0.12947382 0.20564838 3.1311083e-20)
(0.22940415 0.30807416 -3.5335994e-20)
(0.33400355 0.36429466 1.5691985e-20)
(-0.010013201 -0.020403215 0)
(-0.029987256 -0.061334113 3.1570771e-19)
(-0.050986009 -0.10502674 -5.9263459e-19)
(-0.072140362 -0.14991187 2.688715e-19)
(-0.092104167 -0.19345952 -1.6861546e-21)
(-0.10891759 -0.23197636 -6.4825787e-21)
(-0.11990965 -0.26050435 1.7998057e-19)
(-0.12161926 -0.27293127 -1.4931918e-19)
(-0.10972522 -0.26232869 -1.1176411e-19)
(-0.078913024 -0.22131774 1.0060593e-19)
(-0.021921169 -0.1423747 0)
(0.074813319 -0.019356128 -7.3589253e-20)
(0.1974419 0.12496521 3.8635263e-20)
(0.32678687 0.25998235 0)
(0.44857629 0.36281812 0)
(0.56114787 0.41608156 0)
(-0.010762262 -0.016206705 6.2294536e-19)
(-0.03226269 -0.048838316 -3.7302327e-19)
(-0.054811043 -0.083841062 0)
(-0.077279013 -0.11990567 -2.6450555e-21)
(-0.097805144 -0.15478698 -2.7866885e-19)
(-0.11350543 -0.18500418 2.5407709e-19)
(-0.12018261 -0.20557432 2.018285e-19)
(-0.11204727 -0.20992182 4.897266e-21)
(-0.081554702 -0.19007922 -1.5355066e-19)
(-0.019384292 -0.13729137 6.8826699e-21)
(0.086341912 -0.043738507 0)
(0.22931855 0.076295252 -1.521709e-19)
(0.3885753 0.20098351 1.8608338e-20)
(0.54527442 0.31140597 9.2241504e-20)
(0.68212445 0.39147076 0)
(0.79439232 0.42876936 1.0712885e-20)
(-0.012296417 -0.013460268 3.8655161e-22)
(-0.036525038 -0.040158606 8.3519708e-19)
(-0.061301544 -0.068267564 -3.9533755e-19)
(-0.085065398 -0.096360451 -3.593954e-19)
(-0.10534039 -0.12218191 3.1948041e-19)
(-0.11826205 -0.14230362 -2.8615884e-19)
(-0.11813667 -0.15195905 2.4187166e-19)
(-0.096509999 -0.14481364 1.9719933e-19)
(-0.041092562 -0.11312623 -1.8249434e-19)
(0.064433654 -0.049492542 0)
(0.21591019 0.039506247 0)
(0.39517945 0.14142913 0)
(0.58091576 0.24150599 1.8842153e-20)
(0.7510265 0.32503768 0)
(0.8888389 0.3819346 7.253188e-20)
(0.9964984 0.39973524 -1.2293307e-19)
(0.18957923 0.20017731 0)
(0.29870905 0.31523933 0)