/*--------------------------------*- C++ -*----------------------------------*\
| =========                 |                                                 |
| \\      /  F ield         | foam-extend: Open Source CFD                    |
|  \\    /   O peration     | Version:     4.1                                |
|   \\  /    A nd           | Web:         http://www.foam-extend.org         |
|    \\/     M anipulation  |                                                 |
\*---------------------------------------------------------------------------*/
FoamFile
{
    version     2.0;
    format      ascii;
    class       volScalarField;
    location    "0.4";
    object      p;
}
// * * * * * * * * * * * * * * * * * * * * * * * * * * * * * * * * * * * * * //

dimensions      [0 2 -2 0 0 0 0];

internalField   nonuniform List<scalar> 
4242
(
-13471.214
-13076.951
-12683.41
-12194.024
-11646.719
-11022.891
-10321.155
-9542.9738
-8694.8425
-7790.0669
-6848.966
-5897.5876
-4966.8874
-4095.5967
-3316.8902
-2564.7169
-15929.328
-15427.376
-15001.824
-14483.379
-13909.956
-13264.042
-12548.359
-11764.175
-10915.571
-10010.157
-9059.5163
-8079.204
-7089.0538
-6116.9763
-5198.1306
-4329.2562
-19782.964
-19163.872
-18692.954
-18101.233
-17445.494
-16705.546
-15884.796
-14983.572
-14006.372
-12961.444
-11860.939
-10720.603
-9559.0289
-8398.0933
-7265.5723
-6204.4411
-24384.333
-23650.23
-23122.99
-22423.768
-21650.459
-20773.075
-19795.298
-18715.948
-17539.935
-16276.897
-14941.849
-13555.048
-12140.999
-10726.399
-9338.466
-8030.8391
-27858.783
-27033.835
-26473.812
-25693.238
-24841.088
-23867.964
-22779.848
-21573.679
-20254.307
-18831.66
-17322.042
-15748.07
-14137.862
-12522.937
-10932.928
-9395.2372
-29658.473
-28770.525
-28202.757
-27380.232
-26495.042
-25478.836
-24341.693
-23079.106
-21695.709
-20201.088
-18611.602
-16950.254
-15245.953
-13532.087
-11842.66
-10226.23
-29794.081
-28883.974
-28332.078
-27511.107
-26633.086
-25623.685
-24494.365
-23240.679
-21866.925
-20382.366
-18802.952
-17151.181
-15455.312
-13748.176
-12061.516
-10447.84
-28326.531
-27441.269
-26921.685
-26143.971
-25307.193
-24349.009
-23277.509
-22089.962
-20790.624
-19388.771
-17899.816
-16345.105
-14750.967
-13147.72
-11562.129
-10045.078
-25386.523
-24575.696
-24103.315
-23409.157
-22649.364
-21786.982
-20824.104
-19759.888
-18598.775
-17349.905
-16027.677
-14651.526
-13245.023
-11835.596
-10447.547
-9126.0865
-21192.805
-20504.928
-20091.382
-19517.326
-18872.372
-18148.484
-17343.738
-16457.889
-15495.312
-14464.282
-13377.002
-12249.321
-11099.789
-9949.6566
-8818.0201
-7741.5421
-15941.187
-15431.128
-15100.241
-14679.161
-14193.295
-13654.154
-13060.212
-12410.055
-11706.785
-10956.61
-10167.916
-9350.5227
-8514.2379
-7667.7017
-6812.907
-5947.5747
-11255.372
-10942.498
-10700.851
-10438.667
-10110.594
-9727.7836
-9302.2707
-8838.8492
-8342.4279
-7820.0773
-7279.6124
-6727.7379
-6168.2359
-5601.3437
-5022.5758
-4378.2525
-3654.326
-3386.0644
-3161.5853
-2893.764
-2594.9108
-2265.476
-1908.8561
-1530.8308
-1139.6227
-745.81324
-361.90233
-1.7852253
318.19808
579.27829
784.0834
995.36327
1367.4638
1542.0099
1699.6967
1877.0163
2069.1253
2273.3931
2485.2649
2698.042
2902.7035
3088.0324
3241.2647
3349.0318
3397.3668
3371.2496
3264.5225
3115.7959
6072.7153
6164.4387
6249.5231
6339.1555
6429.7409
6516.5885
6593.2296
6651.2163
6680.1824
6668.315
6603.3648
6473.7011
6268.1038
5976.0859
5602.4792
5206.1948
9806.4223
9838.6504
9864.5198
9883.3143
9890.8304
9881.0457
9846.1514
9776.5093
9660.8766
9487.094
9243.2413
8918.4782
8502.4276
7986.8025
7384.4616
6767.5251
12188.288
12188.539
12179.385
12155.975
12112.858
12042.971
11937.557
11786.247
11577.459
11299.265
10940.573
10491.639
9943.4129
9292.6187
8572.8511
7897.4463
-19810.385
-19191.047
-18719.771
-18127.652
-17471.25
-16730.382
-15908.349
-15005.442
-14026.178
-12978.932
-11876.109
-10733.796
-9570.9248
-8410.2997
-7282.9245
-6230.8381
12724.426
12712.985
12689.91
12651.29
12591.85
12504.962
12382.602
12215.425
11993.045
11704.637
11339.918
10890.322
10350.098
9718.4103
9005.8407
8248.6118
12748.355
12736.587
12712.807
12673.063
12612.013
12522.973
12397.913
12227.561
12001.72
11709.893
11342.226
10890.579
10349.694
9720.0509
9015.985
8278.6978
12199.687
12199.569
12189.814
12165.532
12121.208
12049.729
11942.31
11788.603
11577.131
11296.19
10935.032
10484.281
9935.3704
9286.5491
8574.8404
7912.7311
9777.7816
9810.3212
9836.5523
9855.6628
9863.3879
9853.6463
9818.575
9748.4962
9632.1671
9457.5288
9212.8902
8887.3065
8468.4912
7944.7817
7337.2955
6763.7202
6027.8908
6120.5811
6206.7431
6297.6262
6389.638
6478.0801
6556.475
6616.364
6647.3744
6637.7628
6575.5134
6448.7627
6242.9773
5941.0574
5561.896
5251.7939
1342.3008
1517.9383
1676.6676
1855.3286
2049.0966
2255.3866
2469.7013
2685.4058
2893.5443
3082.9966
3241.1929
3354.8113
3408.8571
3387.0192
3287.396
3142.6367
-3655.4359
-3386.4759
-3161.6597
-2893.2724
-2593.74
-2263.5052
-1905.9617
-1526.8941
-1134.5596
-739.61388
-354.66364
6.1534104
325.56466
582.57624
777.8689
982.67152
-11254.93
-10942.611
-10700.847
-10438.517
-10110.101
-9726.6165
-9300.0237
-8835.0363
-8336.4881
-7811.412
-7267.6205
-6711.779
-6147.298
-5573.2117
-4978.5541
-4325.4327
-15942.644
-15432.754
-15101.594
-14680.505
-14194.423
-13654.852
-13060.237
-12409.124
-11704.627
-10953.074
-10163.112
-9345.0139
-8509.2457
-7665.8298
-6818.4133
-5983.8968
-21201.438
-20513.426
-20099.558
-19525.371
-18880.026
-18155.563
-17350.002
-16463.088
-15499.254
-14466.951
-13378.704
-12250.796
-11102.197
-9954.6325
-8825.5154
-7756.5235
-25401.735
-24590.631
-24117.899
-23423.439
-22663.066
-21799.899
-20835.942
-19770.361
-18607.678
-17357.254
-16033.858
-14657.406
-13251.945
-11845.4
-10460.595
-9149.9957
-28346.287
-27460.702
-26940.754
-26162.627
-25325.148
-24366.007
-23293.187
-22103.968
-20802.685
-19398.844
-17908.237
-16352.668
-14758.863
-13157.14
-11571.996
-10060.321
-29817.021
-28906.592
-28354.344
-27532.918
-26654.147
-25643.702
-24512.926
-23257.378
-21881.436
-20394.592
-18813.182
-17160.177
-15464.216
-13757.82
-12071.032
-10462.875
-29683.905
-28795.66
-28227.577
-27404.608
-26518.685
-25501.431
-24362.81
-23098.314
-21712.651
-20215.636
-18624.008
-16961.256
-15256.619
-13543.01
-11853.82
-10242.516
-27886.08
-27060.874
-26500.55
-25719.553
-24866.693
-23892.54
-22802.967
-21594.902
-20273.267
-18848.213
-17336.432
-15761.048
-14150.479
-12535.927
-10947.758
-9415.5637
-24412.577
-23678.247
-23150.715
-22451.107
-21677.121
-20798.757
-19819.583
-18738.398
-17560.169
-16294.734
-14957.484
-13569.174
-12154.634
-10740.749
-9356.6629
-8056.0887
-15951.285
-15449.221
-15023.42
-14504.78
-13930.954
-13284.465
-12567.944
-11782.597
-10932.46
-10025.147
-9072.3187
-8089.7304
-7097.7112
-6125.5595
-5210.1118
-4338.4009
-13483.85
-13089.818
-12696.414
-12207.377
-11660.271
-11036.486
-10334.502
-9555.6419
-8706.282
-7799.7039
-6856.4037
-5903.0056
-4971.6356
-4102.707
-3330.6196
-2588.2869
-1384.2412
-1316.6778
-1230.7496
-1161.4313
-1145.9926
-1195.4545
-1304.4694
-1464.2156
-1662.636
-1881.7728
-2098.4008
-2286.4016
-2419.7584
-2477.0787
-2453.6935
-2338.4959
-1821.5983
-1786.2842
-1772.3098
-1762.1472
-1734.7891
-1706.5879
-1708.4027
-1751.4818
-1819.1296
-1891.1796
-1954.625
-1994.0429
-1990.7916
-1930.5958
-1815.7786
-1655.1691
-1959.7849
-1927.7401
-1904.4706
-1883.0047
-1871.6088
-1872.3475
-1856.7066
-1798.6022
-1717.137
-1658.1784
-1630.1133
-1580.1752
-1465.2689
-1275.1115
-1027.1724
-737.97344
-2068.2827
-2043.4562
-2023.9126
-2007.9372
-1995.9289
-1989.9034
-1998.3124
-2039.273
-2121.1806
-2196.4094
-2170.8518
-1985.6642
-1551.9427
-1026.3766
-504.78938
-13.2948
-1493.3707
-1491.6483
-1497.8606
-1514.0364
-1541.5634
-1582.0275
-1636.7543
-1706.5928
-1793.3396
-1904.3318
-1977.4824
-1847.2362
-1343.3003
-672.7406
21.897132
699.31235
-356.85342
-370.32516
-393.64092
-427.936
-474.61805
-534.63308
-608.02786
-695.4858
-802.71171
-933.75159
-1038.4681
-934.53645
-581.9345
-26.986481
608.42253
1235.3082
-317.3378
-331.15871
-355.36156
-391.1342
-439.98026
-502.89696
-579.89449
-671.32946
-781.41777
-910.14913
-1003.3383
-890.42986
-530.94825
10.813746
599.58496
1206.101
-1471.6621
-1470.7408
-1477.8835
-1495.0288
-1523.558
-1565.0393
-1620.8734
-1692.3018
-1780.3927
-1884.7878
-1930.4532
-1766.8352
-1262.6271
-593.99519
100.53378
772.78013
-2057.4385
-2033.1946
-2014.0771
-1998.4513
-1986.8306
-1981.3115
-1990.3823
-2032.1596
-2114.086
-2183.7857
-2143.8112
-1937.6483
-1496.9921
-963.03498
-426.13556
96.717614
-1959.4865
-1927.8771
-1904.9228
-1883.7922
-1872.7195
-1873.6883
-1858.1568
-1800.1629
-1718.5768
-1657.6227
-1622.5356
-1561.7601
-1434.9203
-1233.2533
-975.80531
-677.37455
-1823.5233
-1788.5832
-1774.6632
-1764.2697
-1736.4812
-1707.6116
-1708.3397
-1749.7612
-1815.0556
-1884.022
-1943.4763
-1978.0507
-1969.674
-1905.062
-1789.334
-1610.9748
-1386.9454
-1320.0507
-1234.3434
-1164.5926
-1148.2322
-1196.3903
-1303.7792
-1461.5977
-1657.8188
-1874.5233
-2088.5101
-2273.7127
-2404.3054
-2459.8194
-2439.8494
-2317.7102
-6385.8699
-7929.3637
-7484.1108
-7079.6756
-6604.6835
-6074.3368
-5496.9501
-4879.0223
-4233.032
-3576.0325
-2927.4851
-2310.8529
-1758.5285
-1281.8079
-777.09417
-6400.2014
-7935.8899
-7492.2212
-7087.7933
-6612.7178
-6082.1617
-5504.3331
-4885.6262
-4238.5262
-3580.1919
-2930.4289
-2313.0211
-1759.597
-1277.3821
-781.14159
-3688.3138
-5166.1876
-5160.0111
-4987.0894
-4895.0087
-4827.7711
-4750.5225
-4657.0079
-4545.7587
-4413.5236
-4254.7475
-4061.3313
-3825.8353
-3548.5319
-3079.1937
-3681.0925
-5165.0495
-5158.3915
-4986.0814
-4895.1485
-4829.2951
-4753.7356
-4662.2803
-4553.4958
-4424.1754
-4268.8286
-4079.5313
-3847.8097
-3578.1717
-3198.7345
-4473.909
-4499.9926
-3944.1171
-3929.2484
-341.04373
-840.74808
2372.6454
-802.61184
-1443.0737
70.760394
208.28407
445.17164
443.64369
-471.04147
-604.5909
-21.790333
1436.6386
-1417.7399
288.92243
-1877.0994
-526.85459
-2460.3718
-1642.5458
-1826.9321
-1744.0344
1496.8834
494.30891
591.65604
941.27333
22.824091
-514.17561
-1866.6817
-971.05092
-3263.9446
43.449997
-297.34444
-908.58071
-1374.0288
1228.0543
-754.64163
25.31415
1140.8854
-829.33901
-589.64071
747.4296
-14.476399
430.25781
-3168.7602
428.55589
2982.1592
-350.92415
840.00057
353.66876
349.54296
-4076.4096
5206.2514
1513.8132
-670.26493
-3822.1381
-1197.1413
-728.79075
208.02815
583.91244
-508.72333
-446.86411
347.07705
329.27081
-503.84286
-4407.065
-432.81706
34.551921
-333.53636
-838.32846
-369.39466
165.31617
-1553.0043
240.85127
-44.952856
-47.874584
506.56335
-769.46541
144.61098
-98.402969
-57.639734
-303.98977
-3222.3079
-3466.2364
-445.21584
-653.91938
-1031.7766
556.77599
-6.161979
-3646.5863
-44.615588
-620.42936
8.6832118
3332.1457
-1089.6453
987.2709
1237.8855
-6.3156727
2670.0459
-3930.3933
1346.4413
-38.327287
-677.86376
5.242748
19.410738
-654.56083
-1536.5212
-839.09598
-35.421929
-826.31424
-3355.709
-4522.994
1742.5912
-892.98666
642.22775
-2024.0895
-86.82227
2014.2562
75.153931
-46.827901
1827.3812
1709.2714
-858.17825
1164.2677
-875.5774
-2572.7152
1074.9125
-324.0539
-3311.8773
-886.21276
1522.3611
-1018.4632
564.95798
-39.831565
-47.609296
-12.65409
-1098.9275
2760.7145
-4.3518032
-4050.4098
-594.92711
961.98301
-703.78147
-1537.1323
-496.00371
-8.2605051
-4.2058844
-562.39576
-826.48403
-249.79564
290.54824
278.69079
-482.58279
136.49991
1991.2616
-82.917805
846.32882
-3545.8811
-339.37274
-108.70176
-0.26354064
-8381.5336
-8352.0476
1074.9937
1572.8939
-262.90313
-53.644092
-256.34358
277.72012
-1864.2475
-27.547678
-1739.9871
3136.5678
125.26154
-36.408573
-433.23782
1060.0069
-152.97866
-37.959643
-537.05558
-347.78274
352.76895
-1706.9535
-1348.4816
232.19406
206.29151
473.88335
1011.7302
-31.690303
230.61753
-781.82215
-57.851076
-27.307294
-2093.0855
1428.9599
-415.76788
627.02953
-23.281165
113.20882
205.80172
3504.0225
342.50774
168.61291
-2456.4396
-159.18216
1593.7415
606.79594
1324.4737
-103.70488
1976.4947
-9.5307939
-489.95622
-348.05665
-188.87329
157.22575
-52.569717
55.426461
-48.268175
863.26076
1169.5249
491.54677
-741.36858
-924.03011
-86.308245
-27.132115
-614.26876
1657.411
1646.9978
-20.016193
-1100.668
556.77541
1688.1358
2358.8798
-65.088901
-1259.3476
-2305.0524
262.605
-174.71208
938.87466
-716.30477
-52.951207
57.171569
32.096544
247.86357
-1306.9805
2252.7053
-372.99081
-1288.0878
607.41933
45.91749
-1356.3445
380.60702
3257.5543
-1.5268344
11.756695
-1391.0504
5.3964647
1380.3968
182.78583
-42.67493
-641.20668
-785.66687
-19.182573
-65.933356
-89.988393
-436.8575
-251.38454
42.843923
-932.10351
-40.012375
-564.53696
36.04921
-471.25522
-180.57704
1419.7241
-1982.6793
-134.47287
2055.3091
1639.916
-276.63225
32.848933
-201.46298
-116.22989
119.29107
-3008.9145
891.08459
-1749.9216
-15.875481
-291.88516
188.98886
-234.48223
342.60129
919.42808
-2918.351
19.489364
2080.6254
-877.38096
150.18407
975.18294
239.10542
-887.13086
67.263858
-2236.8581
-1566.0902
2413.0722
3242.4304
-957.57962
201.22017
-128.76493
-576.88272
1100.9596
-2332.0096
-821.39293
-22.030534
-895.3439
-242.28168
-62.981764
104.04332
57.48467
3930.7269
-896.21146
-2507.2755
1284.6029
39.995286
-37.421592
79.490855
-390.8236
-2621.6086
42.554599
-14.641504
-9.6656836
5164.6193
-239.94796
-299.09056
788.76233
-1003.9587
-2344.9254
-526.7807
-13.605263
-73.066892
18.495056
-3174.8438
-994.29803
-21.413041
1829.6456
-2.7505712
12.095803
-3055.7362
53.177017
-1556.098
27.229258
-13.751841
-4389.4525
527.14314
261.96435
-545.49075
-3120.4011
-900.87113
-86.954479
-2263.1568
531.88556
201.30368
708.00955
-15.971628
-4014.588
2601.9787
1207.9343
148.44088
-3070.7717
3.8483094
1468.1072
-3029.3565
-3633.1087
3439.4679
-79.125532
224.73466
268.31351
561.56296
-1258.7599
-3536.0046
138.4436
-1128.7124
1528.8302
1207.0509
-400.20182
-1230.6413
-279.0139
-622.66308
-4.1833536
190.60199
-4783.3493
-34.062037
267.29418
-4676.2054
-45.858196
127.93375
-649.07199
-187.84335
531.90917
4747.6799
-927.58553
36.896288
-1384.0037
41.898709
-2422.0408
773.82877
-1130.0404
-500.49737
-193.93841
644.0079
-62.510077
-275.75373
639.9532
-42.78643
-326.99522
-210.28216
262.08816
287.97722
-10.751545
-709.46295
-26.42509
-977.34458
-135.76248
-504.13605
524.88629
1598.6947
2446.3061
-2527.1958
-22.570535
1313.1946
23.277276
322.90441
289.10137
-820.98559
-875.84339
1393.8006
169.54818
5.5083861
-2354.7434
-2281.9714
-433.36812
-3491.0341
-1901.6536
-622.68147
-15.757008
-2579.6032
-974.01842
-49.793537
-47.113839
-535.27659
789.45445
-53.507736
-1765.0935
-2502.0892
-9.1732074
-1298.903
63.554078
-851.27703
-202.10889
3.3974408
325.73997
350.20268
1799.5022
157.904
-666.25146
220.06438
660.79994
545.74986
1050.4858
1361.3525
-871.13509
664.65574
-83.590625
2214.417
-288.92633
-227.0108
-828.9303
-66.303754
-52.101241
5346.9228
-134.20521
-839.26987
-2189.7048
-1147.9465
-18.510669
-1686.7557
-3517.9367
-25.857405
903.87516
501.45501
-4133.3425
869.47845
18.462511
-1333.0253
-758.28614
-3417.5902
-743.35927
-149.31941
167.21379
4.6944022
-409.40225
286.68973
-203.56184
2333.6713
266.13511
244.29709
-1193.0508
-8043.6968
-657.16026
-5.0683447
1062.6074
-1.9000246
-109.09811
-935.02993
-538.71585
-2187.8976
-8014.6167
-165.10423
571.31891
-36.956752
683.51618
-72.926551
-619.13225
308.33626
-171.31805
-4032.2547
-450.03305
-2381.5908
207.21991
-3241.5283
1607.9222
300.12593
-3536.3199
1537.1341
111.76724
-4549.9916
1471.5014
384.43508
385.36476
625.75002
560.05153
-7414.0964
-1224.3894
-2673.393
-54.088446
-2584.7614
1485.9322
709.9559
700.73436
200.01872
-1045.1772
-614.83958
-1.2532677
-23.448251
1403.211
-2156.5346
-763.88712
10.531154
-7411.9614
2373.0624
-2664.4164
-1132.1266
-172.37716
-3257.8959
-2072.6772
-82.802172
-4787.1643
-983.32861
-391.5556
579.61598
611.19015
-608.6478
-2246.9024
-3082.2352
1498.8774
2291.8619
2152.8442
417.97884
-124.66166
682.10942
1324.8883
2418.4236
1011.3675
3256.1243
-20.072733
534.21132
1029.1984
49.535737
-577.4198
-8.4360845
860.1788
1622.8088
464.23279
-4751.5486
555.97145
-261.41029
5337.7551
791.73352
-17.514235
5108.1425
1528.1689
-761.26749
-790.72391
1250.8267
5080.0749
-1957.5361
-301.68539
1219.1415
-176.69232
2977.4179
1232.7771
1336.7287
-880.60559
5.3709313
1520.1037
1363.1245
5325.9843
385.30555
-41.45448
568.59363
-1267.5803
-1124.1979
-882.16804
-4129.133
5298.4334
-614.93062
-27.765382
-584.33587
2473.1501
2017.3457
-2205.9294
-2154.046
30.097796
1231.6259
-2470.0316
-4020.9816
-1181.716
-1877.0331
298.24351
290.71395
-268.13127
-519.17479
-219.70102
288.87857
-602.25853
-1628.567
848.14917
-798.17274
-312.44398
-2562.0634
4357.6703
-1848.7709
318.40159
-21.676351
73.64628
565.15688
-678.74854
5002.3708
-626.80906
-10.145496
892.02528
-53.490531
-3963.5492
-60.27368
-1118.2449
2.2549989
-571.11118
100.97919
-2661.8266
2262.0795
-2531.2012
31.942112
474.22915
-1688.8345
1767.5128
-80.088508
2400.236
-514.93335
6328.0651
-236.39267
-419.37761
-3875.8578
3824.9631
-2717.971
-12.234408
-28.369213
121.6409
40.450659
-3645.4142
694.04818
575.8684
354.59586
-6924.7752
-11.296213
651.22796
-38.870256
-6941.5371
390.52875
21.31449
-1907.8072
-61.91551
111.33323
1385.6376
-1013.9969
-5128.7744
435.8851
-443.49074
7.622302
10.686262
-848.15513
-1164.4545
507.49235
-221.15366
768.24894
-498.73989
2214.6441
-5135.3421
-288.21552
-618.70297
-5018.5761
636.05192
1404.9921
11.519845
-1016.7752
-53.515089
1296.2071
1073.561
-1343.6381
287.22319
-4.7938448
-689.94674
579.57289
1688.668
573.4853
-276.25129
1363.4227
26.026492
-5009.9308
926.95196
-172.3324
-1541.3154
-188.30493
-429.35584
-893.77795
-75.895879
-490.56776
-994.30944
92.330003
-15.825545
-1829.1277
-855.78915
-778.94665
-704.25506
-290.2566
-3173.949
-1972.1637
-1913.3384
496.41196
-1863.1177
2502.4515
119.56041
423.24894
-859.22617
464.71354
-2937.4248
70.169862
-1537.6991
-3245.4472
-933.71274
-193.30369
-1686.7785
-678.05554
-442.17376
41.506513
-851.24176
1219.3535
-261.94565
1.2883897
605.15006
1278.5845
-1069.058
2389.5344
-1417.1431
7476.9128
951.5362
-1452.8328
-528.82665
10.643083
370.26347
1677.6981
-816.38289
-16.268742
-74.262688
122.88989
533.02132
-270.0633
-12.77262
-119.96351
-12.064295
2314.9594
-32.590019
1107.3192
1627.9119
1398.9597
1280.0777
1044.0308
530.46254
-31.947748
510.89738
-846.97884
-417.74431
3.8169451
46.388913
2450.9498
-1154.2526
-2320.6648
245.78133
1449.7241
-429.07709
1580.4981
693.13026
-691.07352
3019.0137
52.214515
-184.91633
-386.97022
8.5614176
-1.3829136
-275.1196
89.237436
5260.7201
-137.425
-403.23713
955.58212
88.154627
130.02773
17.109299
-72.805453
1500.3997
-647.87335
-493.16598
-139.07306
755.48956
108.96353
367.92289
-274.71996
-23.047685
-52.073384
376.8882
1183.9007
484.41719
-1115.2354
10.662134
-27.531244
-1778.8372
465.65039
-188.20102
-395.32823
4888.6809
-1031.7151
4868.7637
-2386.5095
-1160.9776
163.50658
-628.13485
640.90996
-31.541039
1931.9572
-5.9446485
1224.8403
-276.28204
-1114.6086
-1362.5035
-4751.1425
419.70025
-31.081843
-588.20568
1423.4466
-897.88045
1438.2666
-872.97048
-277.74672
1169.3712
557.41901
-76.324799
267.09878
-175.04061
-4655.5781
128.65131
7339.5828
-3587.6443
-1078.7749
39.270359
4246.1337
601.36198
-5142.1971
-779.41704
-8.8656954
-427.71069
-912.91332
-4433.8223
-448.59617
566.53922
-4346.6079
-808.51282
869.33962
36.176322
-224.76589
-415.43811
-26.992409
78.01304
1.7476622
597.16303
117.40005
-4.2300324
-438.8905
1619.4248
1021.5917
2454.9941
1329.0107
-2363.1086
-3485.6362
25.13886
-1356.6962
108.27786
-4522.2965
-1965.3537
-793.93581
-668.20648
-1383.0482
1403.8561
-825.12622
16.075767
-931.06973
-169.27162
1386.3784
-360.67634
110.58522
41.00764
-4655.5485
-742.69333
42.704227
-23.277061
17.052929
747.34958
402.80718
6595.5798
-6.7121417
-3.1905626
-51.348273
-341.91584
-4326.2421
-2422.8219
-1134.386
-1340.7489
-1095.4453
2329.4502
3818.2817
-4049.011
-15.051461
1702.654
-4800.4763
-459.32692
433.74377
-3462.4813
-3746.1082
815.44658
67.275269
612.38177
-24.568794
-316.0998
-1359.6558
1362.0621
2962.7043
-3411.8959
168.97929
3320.8258
-68.724904
378.12201
-286.68644
2030.5353
-348.23466
-344.41235
83.054406
-8.7632393
-185.01164
-2416.822
6024.5318
-2865.7248
-2552.6704
-140.84604
-2411.2566
3817.7756
-2326.07
1457.3862
-1109.7959
-2013.7691
-32.451022
167.24168
336.62858
-1240.1684
73.179642
-3335.0048
431.74308
1090.8128
2743.6756
-1557.0667
-1658.7744
1397.5944
-393.57031
87.885306
-191.15422
-4899.3846
-2980.253
-593.74505
-447.27953
-1007.1069
-61.430629
601.88916
1654.2653
663.19028
-3277.4786
-65.332622
-1859.3392
-129.65393
47.888522
2828.9588
1543.879
-77.066173
1381.6522
-604.4611
1676.439
156.77734
-377.26241
825.97708
3685.0044
-8814.3528
1064.3518
-115.05085
-2523.1597
3.6195863
-8781.0938
-59.14034
970.09729
-1601.6662
-31.853186
758.41043
-408.39252
271.49285
-3597.2976
-5202.9338
-188.38622
-74.640253
123.95271
-258.03336
2344.2293
-2749.0809
-2412.7307
1469.3511
-35.175591
-2990.1251
103.32546
551.5969
971.20428
-2699.5942
209.15051
219.91641
-712.44623
-406.73924
-1685.2864
-16.136909
55.203599
-4268.0914
105.80556
79.5085
-770.24197
-283.67876
-6002.388
-220.57307
4566.1931
-5912.9342
2253.3348
-2675.9897
-114.68262
1687.786
-155.05323
-708.05998
-8042.0751
-940.79332
6004.4264
91.217776
-4160.3264
-2495.924
668.123
-7998.6758
481.259
-61.158492
2588.5094
61.987537
232.05098
-102.21339
1883.2702
-764.19868
-29.69866
-224.79179
-3187.4368
21.822504
402.92588
-935.88865
-657.61862
94.765819
-34.919335
720.0782
7525.7804
-63.363537
1797.1216
-1392.9627
1088.7735
474.31611
386.29019
4689.0763
-146.35341
1461.9309
2016.6569
-1332.0957
1623.6879
-3978.8761
-892.31531
4.9508622
349.39419
-235.47268
3.2208151
-537.21523
262.29248
218.2315
-2080.6134
6587.6402
-2235.7468
1277.0178
-3876.6533
1098.2071
824.42737
-1089.9726
3026.3253
1511.1517
519.59299
852.52563
-263.90198
-89.731262
394.35245
-490.95766
-249.86624
-6904.5919
-6856.8308
-134.62553
-533.02358
-225.49756
-28.74947
-891.88412
-112.35597
-173.95994
-2599.5576
-86.98216
-836.34357
-1173.8214
-2.8980191
-832.99065
501.40969
-548.01499
-15.120332
452.26376
-8597.1557
1739.4742
8.0587462
-833.57437
1534.9312
-1381.8361
-8564.0266
-106.44846
19.898088
-1773.8276
853.27234
-243.23711
-6992.4304
-3.3354744
2380.8269
-915.22608
103.61973
-16.394549
-402.79998
-6907.0218
1488.9503
43.365362
-1942.2662
-8.7628793
-928.00095
-3516.3033
1135.7996
1100.6767
-98.085678
883.45169
-168.47019
-1906.3321
-3414.366
122.32726
-394.60014
-780.58695
-1499.4501
-105.10843
7031.677
-74.298795
3826.9351
111.91133
4302.4755
-2005.8923
-1839.6311
-201.13878
478.01797
485.34602
1880.1237
-1019.0347
17.195276
2188.3079
928.40322
-114.28609
-704.43437
-118.56437
1668.4228
731.42526
-23.007174
104.20636
-218.64183
-530.27667
-264.67809
524.71176
599.60485
-737.94228
220.93878
-4350.3802
758.38787
971.09263
243.76818
-597.23776
20.165206
-32.943476
4702.2681
-334.04541
-535.58798
-55.853227
1797.9268
2919.0942
-3249.5803
-399.57605
-111.75797
1864.5597
6204.2996
-61.092793
98.203986
873.43455
-187.15908
-2.4220485
0.70606086
-902.65903
1487.1104
0.88528469
-673.14857
-1480.1844
494.11116
-5.1116183
-893.51489
-243.37062
-62.19749
-92.486178
-1786.4385
-515.14028
-4694.0133
-1741.9262
0.24248172
-46.543428
-453.5354
1701.3754
1338.647
764.04075
-2274.3817
-1.0418828
1100.1972
-1768.8932
-4583.1032
908.90411
3.3966039
900.12922
98.594379
-3863.6599
-5136.4506
71.237501
1158.9679
1171.0708
-154.51845
-2664.7218
22.527823
-467.0995
283.19614
2004.2933
-1864.3063
1248.8039
2029.1206
-54.694526
3587.9482
6159.5791
744.12992
93.347075
-2759.2765
1316.2975
-1859.3345
2261.765
359.41697
-2203.1554
432.97708
3091.4279
2393.6099
-5.3599876
-4.2390412
-4457.0991
-89.731618
2278.3997
184.13268
156.87785
-5032.3454
115.05934
396.85866
2395.586
-5750.2961
-1458.6697
-2645.0098
-2061.6693
3652.2361
1.3786922
86.577004
-915.14042
1113.5004
-617.94689
-1.4460533
-6192.1303
-78.594921
-96.882238
-6120.0163
81.607846
-6235.5841
-119.00025
166.39484
-378.99417
3.4112938
578.92752
1600.7526
99.98736
1.809613
-835.41236
-95.596282
-872.76954
409.59347
-207.64592
440.06845
733.38338
-4347.6787
-6137.0764
-3006.1507
40.736153
-32.132546
2.5631005
79.178318
8.44814
646.36996
139.15161
-15.145532
971.40255
1966.5666
-780.21212
3121.6277
-638.37932
-156.19755
-3986.9422
1055.0084
-7868.4416
1790.0591
-55.679637
-278.57569
301.60722
-867.18682
-872.64582
-5228.1321
-220.37221
669.52427
-118.48576
1294.7908
-44.134604
65.165773
-36.33335
-22.837945
2088.1188
-255.33025
-661.7463
-553.31178
772.22436
-1017.3857
-408.50413
-51.860556
-71.6616
-321.85324
4839.3781
-809.38823
-24.796229
-787.31594
1543.7998
-1259.434
-2008.6303
884.57106
1003.278
-7898.0809
-58.34781
-29.928918
1181.5
-82.212108
498.03198
-143.30319
-975.09245
4.1092828
1406.2251
549.1651
5122.4277
-3375.8439
43.092943
383.4938
-5394.642
-5385.996
4930.2299
1303.9756
123.51559
-1336.8604
-203.69816
-72.972652
1949.2129
-8.6267311
1391.0729
2808.1753
-52.81264
-2915.9466
2388.4883
-931.00765
49.129824
-125.33077
494.15217
1211.2697
-623.37817
-29.268132
129.66606
131.1116
-1992.813
-3292.286
-13.303031
-146.8991
-3085.5035
576.87205
-31.315748
-256.46677
1326.958
-2089.3032
-30.937036
-555.06152
-29.230163
-95.80946
230.03442
-1271.3694
-5587.2571
258.34137
6469.799
1743.1568
215.0606
196.87115
1300.0637
19.295274
-4033.3734
113.6962
-4139.5921
456.84186
456.32658
-2824.1156
-1365.1989
-982.62123
792.01059
-3592.7211
-863.81575
4728.2595
3474.7867
-375.38937
7098.4556
878.0545
-4588.2817
-38.619147
-5779.2193
6052.1295
278.15596
-5485.2864
-4687.8089
-129.23545
-45.47677
-50.066604
1650.6493
5642.904
-468.40789
-1428.6414
273.40819
502.88886
-1364.8327
523.4346
-211.01317
7.1633677
-664.56255
-80.424301
-495.10096
-3664.2995
320.39543
-772.3742
-352.31931
-165.97618
-6007.7638
60.887744
-885.78405
-4488.5021
493.87145
1300.4011
-5970.1993
-193.51294
-1041.3077
-8.6860929
1598.0141
1356.7738
-1836.652
734.10839
6399.0153
1198.1069
-536.49952
500.15516
-90.445424
1060.3952
4304.3796
-240.86721
-254.98362
-730.88506
-6043.907
-967.98723
1027.4191
52.848595
-33.277594
164.29907
-1061.9282
391.94113
3808.9529
-2546.2967
-1530.9441
-64.720444
410.30645
-58.580229
-71.856806
-86.085999
-6578.8226
1500.4277
605.59806
2085.2701
-6488.2035
-216.88053
2174.2557
-2552.7698
-2848.2839
632.91566
-2355.3585
-700.05117
-6009.3252
-7819.7083
-7789.3475
2854.4939
-4.5521048
-3106.2098
-1449.4719
-64.985151
207.69337
-637.72168
-212.2481
-1934.1521
16.018746
-1989.5529
-889.36619
43.497622
-2344.6018
238.02962
1915.4355
-742.28066
1617.4471
-1164.2183
-718.47853
1714.5991
-423.71945
-6805.4765
950.16892
-459.56775
-2095.5433
-185.68943
-870.19481
191.98407
-138.84916
113.31094
87.002587
2030.9769
-10.98821
-896.67816
539.13301
25.819166
-215.96061
-296.52504
-2790.6958
3028.0919
-74.644395
162.09457
-629.70758
-27.962096
-8.4274953
-187.13495
6428.5893
46.608441
-1489.6776
-5294.0954
4379.0449
-1183.0043
-526.51724
-82.50121
754.80469
2770.7307
-175.61332
-1632.849
-1996.3719
1490.7812
419.65163
1045.6821
-20.166867
-16.312945
1684.5434
-288.07608
-465.08641
-1692.989
-2007.5148
24.115709
-1893.2947
4525.3035
-158.51708
-37.238518
-788.51955
-337.74232
-1075.0923
-8.363434
-476.321
1124.9189
182.81649
-5187.4537
-6921.3977
-1158.6791
-299.64125
-5343.5927
5992.7662
-854.32418
-864.37172
146.97351
132.6647
-931.55263
84.092977
-1865.7953
1159.1744
-1.3549847
-129.23521
1044.5989
-60.0917
1334.3533
1179.8204
1020.1639
-1129.6414
-11.675789
1066.1918
-2166.6485
455.42946
-971.58524
-147.56407
1324.716
-8.103599
3.7449332
855.57967
-61.587599
285.29698
-6851.2154
750.06123
384.02431
-2704.2423
-434.79203
40.421448
-427.27136
592.90665
-184.4177
-864.87568
1007.491
-290.27621
-585.75983
2222.5045
-18.465395
-14.413373
5569.9674
2706.3878
-1125.8682
-156.44717
-1288.452
-534.93441
470.56355
1179.0668
-411.78249
-1304.7862
17.472929
-45.155273
-1259.9586
1595.8928
-933.26607
-121.21705
1384.4891
-893.18633
42.848664
-6.1554533
-4050.4397
-735.19819
68.809853
-4160.8136
-1181.5081
1117.9958
5940.2725
4.0346008
-12.951925
60.114292
-3299.479
-20.871649
68.993179
22.02377
-31.598744
-49.655476
-5419.6447
-1136.3541
74.201665
85.496044
-926.25986
-1527.1743
-6827.7452
3046.5964
8.7050398
1423.6578
-341.27906
1904.5481
1908.8194
-1308.3951
-5309.9452
1610.1616
-1112.9815
-1488.2759
549.40507
1633.0369
729.95636
945.63051
-396.97709
-1926.8881
1700.5891
-224.85428
51.040675
-3.7021931
669.02122
161.47278
-15.220845
1113.3725
-90.42976
1186.9717
-44.891141
-76.944073
207.27921
691.45337
-891.06964
-8.907662
29.666219
-282.57044
-2136.9433
-1.7149119
-2208.3082
-73.962103
-136.66405
543.0873
-176.51825
3883.667
832.54881
-295.23765
1575.1099
167.64636
3205.3798
741.83404
-1174.0797
-669.3065
-2862.7237
-50.990542
-181.07817
77.100502
-2291.1365
-3648.3865
-337.47007
-165.57895
-40.760499
-75.333027
3707.9067
956.67645
-45.938203
-4416.3758
190.11493
-200.71392
-1950.0858
212.76261
3677.3059
1249.4603
-804.3328
129.5463
-5998.5904
-62.04007
-804.19599
2.5218435
-13.214277
-77.793897
-354.45622
101.4573
554.45563
-616.98205
839.92458
1213.8445
136.69102
115.7785
41.427932
-2801.28
-336.09951
-4332.0344
2295.9563
330.22737
-1138.2522
-86.810182
2077.1543
-1851.3634
-7.5232559
-1119.2768
-177.55745
-96.292432
5.0126346
-180.3509
-1574.0858
38.687104
-5965.516
-199.57782
220.87477
273.11916
-202.7176
-1006.5902
-569.96709
69.2709
-738.64538
2092.401
-786.80554
-2042.2309
4037.3534
-13.92103
-1227.618
791.47177
-157.72608
-639.5365
1294.2446
-966.96113
1771.101
-5533.8388
-2862.7019
-923.24983
-259.88054
-176.22858
-103.64238
479.52521
23.319911
-3533.2995
-1242.9048
-103.26484
93.191473
138.75389
785.26693
439.66147
5405.0819
49.479097
837.63276
-42.604545
-1241.4053
-2720.3366
-700.14575
-218.39456
-866.04543
38.831772
1720.0899
-701.27437
-151.28813
-705.79068
-13.042247
-350.01815
42.070766
-794.26571
444.67508
-1270.6691
1390.5941
-46.634511
1420.2611
-517.57411
-717.83634
-21.056265
13.866187
1149.0486
2032.425
-21.953483
262.43629
-6498.6821
1111.3587
-39.351434
-197.45958
554.2034
-2545.9454
61.908426
42.452106