/*--------------------------------*- C++ -*----------------------------------*\
| =========                 |                                                 |
| \\      /  F ield         | foam-extend: Open Source CFD                    |
|  \\    /   O peration     | Version:     4.1                                |
|   \\  /    A nd           | Web:         http://www.foam-extend.org         |
|    \\/     M anipulation  |                                                 |
\*---------------------------------------------------------------------------*/
FoamFile
{
    version     2.0;
    format      ascii;
    class       surfaceScalarField;
    location    "0.4";
    object      phi;
}
// * * * * * * * * * * * * * * * * * * * * * * * * * * * * * * * * * * * * * //

dimensions      [0 3 -1 0 0 0 0];

internalField   nonuniform List<scalar> 
6703
(
-0.0042208169
0.021920342
-0.017699525
-0.0079977517
0.026983977
-0.023207042
-0.011579295
0.03239241
-0.028810867
-0.015774465
0.03848038
-0.03428521
-0.020592969
0.045613312
-0.040794808
-0.026098512
0.053967313
-0.04846177
-0.032357909
0.063725018
-0.057465621
-0.039442014
0.07509615
-0.068012044
-0.047435462
0.088311331
-0.080317883
-0.056442003
0.10362797
-0.094621433
-0.066587737
0.12133736
-0.11119163
-0.078023294
0.1417751
-0.13033954
-0.090924533
0.16534548
-0.15244424
-0.10550786
0.19257554
-0.17799221
-0.12203184
0.22420726
-0.20768328
0.26124281
-0.2428054
-0.14046925
-0.0030624106
0.024982753
-0.0061280001
0.030049567
-0.0091448763
0.035409286
-0.012703386
0.04203889
-0.016856085
0.049766011
-0.021718749
0.058829976
-0.027410336
0.069416605
-0.034060625
0.08174644
-0.041815752
0.096066457
-0.050843478
0.1126557
-0.061342208
0.13183609
-0.073554991
0.15398788
-0.087784287
0.17957478
-0.10439142
0.20918267
-0.12374531
0.24356115
0.28357808
-0.14608058
-0.0011491759
0.026131929
-0.0029829184
0.031883309
-0.0050888345
0.037515202
-0.0076152127
0.044565268
-0.010611867
0.052762665
-0.014169595
0.062387705
-0.018383643
0.073630653
-0.023365028
0.086727824
-0.029240624
0.10194205
-0.036155043
0.11957012
-0.044273775
0.13995482
-0.05378916
0.16350327
-0.064930386
0.190716
-0.077972725
0.22222501
-0.093220506
0.25880893
0.3013375
-0.11097993
-0.00043501198
0.026566941
-0.0016070924
0.03305539
-0.0028440467
0.038752156
-0.0043755758
0.046096797
-0.0062093041
0.054596394
-0.0084146354
0.064593036
-0.011057182
0.0762732
-0.014216836
0.089887478
-0.017985631
0.10571085
-0.022469627
0.12405411
-0.027790647
0.14527584
-0.034087783
0.1698004
-0.041517506
0.19814573
-0.050247398
0.2309549
-0.060420605
0.26898214
0.31287575
-0.07195885
0.00020312171
0.026363819
-0.00038215073
0.033640662
-0.00083081007
0.039200816
-0.0014496163
0.046715603
-0.0021841446
0.055330922
-0.0030814787
0.06549037
-0.0041717274
0.077363449
-0.0054984797
0.09121423
-0.0071128652
0.10732524
-0.0090762929
0.12601754
-0.01146176
0.14766131
-0.014355164
0.17269381
-0.017855735
0.2016463
-0.022074067
0.23517324
-0.027129538
0.27403761
0.31919381
-0.033447598
0.00086903061
0.025494788
0.00094473132
0.033564961
0.0012699648
0.038875582
0.0015730826
0.046412486
0.0019426517
0.054961353
0.0023586168
0.065074405
0.002825776
0.07689629
0.0033388964
0.09070111
0.0038899824
0.10677415
0.0044646385
0.12544289
0.0050408301
0.14708512
0.0055871992
0.17214744
0.0060614409
0.20117206
0.0064074657
0.23482721
0.0065794685
0.27386561
0.31925135
0.0065219267
0.0015697609
0.023925028
0.0024123988
0.032722324
0.0035200069
0.037767974
0.0047869092
0.045145583
0.0062822757
0.053465986
0.0080298499
0.063326831
0.010064513
0.074861626
0.012421035
0.088344589
0.015134424
0.10406076
0.018237694
0.12233962
0.021760512
0.1435623
0.025728142
0.16817981
0.030161838
0.19673836
0.035077516
0.22991153
0.040498829
0.26844429
0.31342574
0.046324436
0.0022809189
0.021644109
0.00397269
0.031030553
0.0058537546
0.03588691
0.0080892395
0.042910098
0.010710364
0.050844862
0.013792072
0.060245123
0.017396478
0.07125722
0.021595818
0.084145248
0.026464774
0.099191805
0.032080129
0.11672426
0.038519234
0.1371232
0.045858896
0.16084015
0.054174881
0.18842238
0.063535557
0.22055086
0.073991728
0.25798812
0.30191995
0.085497515
0.0030498189
0.01859429
0.0057446182
0.028335753
0.0084525645
0.033178963
0.011661115
0.039701548
0.015397583
0.047108394
0.019788658
0.055854048
0.024927729
0.066118149
0.030921428
0.07815155
0.037881483
0.09223175
0.045925512
0.10868023
0.05517675
0.12787196
0.065765631
0.15025127
0.077835305
0.1763527
0.09155019
0.20683597
0.10710413
0.24243418
0.28429837
0.12472572
0.0041110227
0.014483267
0.0080247087
0.024422067
0.011757836
0.029445836
0.016015728
0.035443656
0.020885915
0.042238208
0.026547748
0.050192215
0.033139886
0.059526012
0.040805585
0.070485851
0.04969269
0.083344645
0.059956205
0.098416717
0.071760152
0.11606801
0.085282853
0.13672857
0.10073085
0.16090471
0.11837065
0.18919617
0.13858742
0.2222174
0.26073718
0.16214861
0.004491474
0.0099917932
0.010601161
0.01831238
0.016387629
0.023659369
0.022239243
0.029592042
0.028461413
0.036016037
0.03540079
0.043252838
0.04331357
0.051613232
0.052415992
0.061383429
0.06290894
0.072851697
0.074986933
0.086338724
0.088841239
0.10221371
0.10466483
0.12090497
0.12266183
0.14290771
0.14306028
0.16879773
0.16608457
0.19919311
0.23454973
0.19227202
0.0079291749
0.0020626183
0.015403418
0.010838137
0.021564125
0.017498662
0.027746464
0.023409703
0.034430176
0.029332324
0.041864217
0.035818798
0.050234645
0.043242804
0.059692153
0.051925921
0.070341523
0.062202328
0.082237557
0.07444269
0.09538821
0.089063053
0.10976544
0.10652775
0.12532666
0.12734648
0.14204407
0.15208032
0.15983225
0.18140493
0.21568199
0.1787
-0.00029236635
-0.017752595
0.018044961
-0.0022598058
-0.021266987
0.023234426
-0.0059018583
-0.025307082
0.028949134
-0.010155262
-0.030076452
0.034329856
-0.015192146
-0.035674059
0.040710943
-0.021137855
-0.042225105
0.048170814
-0.028127801
-0.049867866
0.056857811
-0.036312902
-0.058753565
0.066938666
-0.045841127
-0.069047821
0.078576046
-0.056850231
-0.080932165
0.091941268
-0.069465016
-0.094607111
0.1072219
-0.083794558
-0.11029904
0.12462858
-0.09993988
-0.1282734
0.14441872
-0.11805107
-0.14884358
0.16695477
-0.13851051
-0.17234511
0.19280456
-0.19922973
0.22310536
-0.16238614
-0.0027257315
-0.015026863
-0.0061840799
-0.017808638
-0.010396662
-0.0210945
-0.015490176
-0.024982937
-0.02160457
-0.029559666
-0.028904555
-0.034925119
-0.037580734
-0.041191687
-0.047851396
-0.048482903
-0.059965728
-0.05693349
-0.074207471
-0.066690421
-0.090898784
-0.077915799
-0.11040502
-0.090792802
-0.13314281
-0.10553561
-0.15958238
-0.12240401
-0.19018923
-0.14173826
-0.16403246
-0.2253865
-0.0032032352
-0.011823628
-0.0071158693
-0.013896004
-0.011808243
-0.016402127
-0.017416851
-0.019374329
-0.024102094
-0.022874423
-0.032050497
-0.026976715
-0.041476775
-0.03176541
-0.052625958
-0.037333719
-0.065775759
-0.043783689
-0.081239491
-0.051226688
-0.099370391
-0.059784898
-0.12056855
-0.069594646
-0.14529122
-0.080812938
-0.17406797
-0.093627261
-0.20755419
-0.10825204
-0.12486744
-0.24671921
-0.003294143
-0.0085294851
-0.0073896197
-0.0098005275
-0.012357949
-0.011433797
-0.018329201
-0.013403077
-0.025467557
-0.015736067
-0.03396687
-0.018477403
-0.044050518
-0.021681762
-0.055972266
-0.025411971
-0.070017386
-0.029738569
-0.086503991
-0.034740083
-0.10578516
-0.040503731
-0.12825377
-0.04712603
-0.15435371
-0.054713006
-0.18459324
-0.063387732
-0.21949226
-0.073353012
-0.085046753
-0.25931295
-0.0036222758
-0.0049072093
-0.008023507
-0.0053992963
-0.013290732
-0.006166572
-0.019581723
-0.007112086
-0.027083309
-0.0082344815
-0.036009845
-0.0095508668
-0.046605036
-0.011086571
-0.05914393
-0.012873077
-0.073934926
-0.014947573
-0.091322102
-0.017352906
-0.11168836
-0.020137471
-0.13546115
-0.023353239
-0.1631149
-0.027059256
-0.19519361
-0.03130902
-0.23250552
-0.03604111
-0.040854041
-0.27669823
-0.0011486525
0.026137571
-0.024988918
-0.0029822326
0.031892567
-0.030058987
-0.0050878186
0.037528776
-0.03542319
-0.007613681
0.044585529
-0.042059667
-0.01060945
0.052793426
-0.049797657
-0.014165454
0.062432686
-0.058876683
-0.018376205
0.073693308
-0.069482557
-0.023351586
0.086809733
-0.081834352
-0.029217021
0.10204048
-0.096175042
-0.036115759
0.11967484
-0.1127761
-0.044213297
0.14004576
-0.13194822
-0.053705665
0.16355251
-0.15406014
-0.06483139
0.19069976
-0.17957404
-0.077877354
0.2221473
-0.20910134
-0.093144322
0.25872218
-0.24345521
0.30130684
-0.28358525
-0.11086591
-0.0048708362
-3.6373091e-05
-0.010234915
-3.5217785e-05
-0.016367046
-3.444063e-05
-0.023446209
-3.2922981e-05
-0.031650683
-3.0007106e-05
-0.041176396
-2.5154598e-05
-0.052245041
-1.7925324e-05
-0.065110045
-8.0735208e-06
-0.080061895
4.2770815e-06
-0.097433218
1.8416452e-05
-0.1176036
3.291423e-05
-0.14100259
4.5749729e-05
-0.16811634
5.4493246e-05
-0.19948081
5.5448306e-05
-0.23556098
3.9060498e-05
-1.6573007e-05
-0.27639845
-0.0049686344
0.0049322614
-0.010416985
0.0054131332
-0.01663519
0.0061837639
-0.023805053
0.0071369406
-0.032104789
0.0082697281
-0.041728508
0.0095985645
-0.052894444
0.011148011
-0.065850855
0.012948338
-0.080881432
0.015034854
-0.098310728
0.017447713
-0.1185095
0.020231686
-0.14189757
0.02343382
-0.16894782
0.027104744
-0.20017434
0.031281966
-0.23603415
0.03589887
0.040678538
-0.27672926
-0.0036412101
0.0085734715
-0.0080818468
0.00985377
-0.013396688
0.011498605
-0.019740398
0.013480651
-0.027297565
0.015826895
-0.03628004
0.01858104
-0.04692842
0.02179639
-0.059513838
0.025533756
-0.074339763
0.029860779
-0.091743907
0.034851857
-0.11210063
0.040588412
-0.13582611
0.047159298
-0.16338271
0.054661346
-0.19530365
0.063202899
-0.23234123
0.072936452
0.08415758
-0.27582027
-0.0032855875
0.011859059
-0.007372896
0.013941079
-0.012331594
0.016457303
-0.018289654
0.019438711
-0.02540895
0.022946191
-0.03388045
0.02705254
-0.043923754
0.031839694
-0.055787671
0.037397673
-0.069751149
0.043824258
-0.08612471
0.051225417
-0.10525328
0.059716984
-0.12752305
0.069429063
-0.15337807
0.080516373
-0.18334927
0.093174093
-0.21802721
0.10761439
0.12388154
-0.25775117
-0.0031823247
0.015041384
-0.0070695717
0.017828326
-0.011730401
0.021118133
-0.01729967
0.02500798
-0.02393582
0.029582341
-0.031822966
0.034939685
-0.041172954
0.041189683
-0.052227675
0.048452394
-0.065261988
0.056858571
-0.080588095
0.066551524
-0.098563016
0.077691905
-0.11960111
0.090467155
-0.14419019
0.10510546
-0.1729121
0.121896
-0.20658102
0.14128331
0.16425485
-0.24695432
-0.0027139663
0.01775535
-0.0061569845
0.021271344
-0.010349963
0.025311111
-0.015419062
0.03007708
-0.021503774
0.035667053
-0.028768637
0.042204549
-0.037404821
0.049825868
-0.047632802
0.058680375
-0.0597071
0.068932869
-0.073922596
0.08076702
-0.090622576
0.094391885
-0.11021
0.11005458
-0.13316747
0.12806293
-0.16008061
0.14880914
-0.19152872
0.17273142
0.20016174
-0.22743561
-0.00027529565
0.018030646
-0.002232696
0.023228744
-0.0058695538
0.028947969
-0.010116043
0.034323569
-0.015145672
0.040696682
-0.021084575
0.048143452
-0.028069526
0.056810819
-0.036253827
0.066864676
-0.045789982
0.078469025
-0.056822914
0.091799951
-0.069487936
0.10705691
-0.083906228
0.12447287
-0.10018219
0.1443389
-0.11842381
0.16705075
-0.13884754
0.19315516
0.22347071
-0.16215652
0.0079248138
-0.0099702411
0.0020454273
0.015401105
-0.018293343
0.010817051
0.021564061
-0.023644457
0.017481501
0.027747432
-0.029580108
0.023396737
0.034430753
-0.036008376
0.029325055
0.041862942
-0.043251142
0.035818953
0.050229639
-0.051619414
0.043252717
0.059680558
-0.061398856
0.051947937
0.070318621
-0.072875563
0.0622375
0.082195444
-0.086365362
0.074488539
0.095314098
-0.10222898
0.089110324
0.10963955
-0.12088239
0.10655693
0.12511857
-0.142805
0.12732598
0.14169353
-0.16855358
0.15197862
0.15919351
-0.19868248
0.1811825
-0.23373557
0.21466985
0.17825923
0.0045001898
-0.014470431
0.010618072
-0.024411224
0.016413313
-0.029439698
0.02227344
-0.035440236
0.028504715
-0.042239651
0.035454225
-0.050200652
0.043378768
-0.059543957
0.052494909
-0.070514998
0.063003518
-0.083384172
0.075098919
-0.098460763
0.088972964
-0.11610302
0.10482287
-0.13673229
0.12286826
-0.16085039
0.14338276
-0.18906807
0.16672512
-0.22202485
-0.2607283
0.19371785
0.0041181027
-0.018588534
0.0080400638
-0.028333186
0.01178043
-0.033180064
0.016045925
-0.03970573
0.020924894
-0.04711862
0.026597067
-0.055872825
0.033201346
-0.066148235
0.040880824
-0.078194476
0.049782723
-0.09228607
0.060060943
-0.10873898
0.071878286
-0.12792037
0.085412854
-0.15026686
0.10087389
-0.17631142
0.11853248
-0.20672667
0.13876493
-0.2422573
-0.28417597
0.1622126
0.0030539748
-0.021642508
0.0057540333
-0.031033244
0.0084666481
-0.035892679
0.011680711
-0.042919793
0.015423819
-0.050861728
0.019822828
-0.060271834
0.024971133
-0.07129654
0.030974996
-0.084198339
0.037945336
-0.09925641
0.04599845
-0.1167921
0.055256104
-0.13717802
0.065848336
-0.16085909
0.077921532
-0.18838462
0.091649514
-0.22045465
0.10724875
-0.25785654
-0.30191315
0.12498593
0.0022833163
-0.023925825
0.0039779237
-0.032727851
0.0058616172
-0.037776373
0.0081005203
-0.045158696
0.010725876
-0.053487083
0.013812714
-0.063358673
0.017423039
-0.074906865
0.021628693
-0.088403994
0.026503513
-0.10413123
0.032122907
-0.12241149
0.038562513
-0.14361763
0.045897897
-0.16819448
0.054205361
-0.19669208
0.063555084
-0.22980437
0.074000036
-0.26830149
-0.31336551
0.085452393
0.0015713289
-0.025497154
0.0024155323
-0.033572055
0.0035247748
-0.038885615
0.0047939221
-0.046427843
0.0062921498
-0.054985311
0.0080433103
-0.065109833
0.010082225
-0.076945779
0.012443413
-0.090765182
0.015161293
-0.10684911
0.018267893
-0.12551809
0.021791663
-0.1471414
0.025757104
-0.17215992
0.030186299
-0.20112128
0.035098275
-0.23471635
0.040526298
-0.27372952
-0.31918994
0.046350732
0.0008703892
-0.026367543
0.00094717955
-0.033648845
0.0012738009
-0.039212237
0.0015788196
-0.046732862
0.0019508876
-0.055357379
0.0023701312
-0.065529077
0.0028414155
-0.077417064
0.0033595091
-0.091283275
0.0039162219
-0.10740582
0.0044967301
-0.1260986
0.0050783896
-0.14772306
0.0056293839
-0.17271091
0.0061077571
-0.20159965
0.006459682
-0.23506827
0.0066462161
-0.27391605
-0.31912939
0.0065856708
0.00020409499
-0.026571638
-0.00038055525
-0.033064195
-0.00082800475
-0.038764787
-0.001445133
-0.046115734
-0.0021772922
-0.05462522
-0.0030712882
-0.064635081
-0.004156957
-0.076331395
-0.005477543
-0.08996269
-0.0070838703
-0.1057995
-0.0090371808
-0.12414529
-0.011410666
-0.14534957
-0.014290945
-0.16983063
-0.017778236
-0.19811236
-0.021982255
-0.23086425
-0.027015434
-0.26888287
-0.31283114
-0.033313693
-0.00043406707
-0.0016056953
-0.0028417063
-0.0043719108
-0.0062037048
-0.0084060992
-0.011044186
-0.014197143
-0.017956161
-0.022426609
-0.027730423
-0.034008547
-0.041421143
-0.050138091
-0.060298785
-0.071823081
-0.0030581821
-0.021930736
-0.0061236554
-0.026993513
-0.0091429396
-0.032403906
-0.012703765
-0.038498842
-0.016858988
-0.045642434
-0.021723828
-0.054011842
-0.027416148
-0.063790236
-0.034063767
-0.075186734
-0.041809879
-0.08842893
-0.05081865
-0.10376733
-0.061286156
-0.12148071
-0.073459036
-0.14188726
-0.08765645
-0.16537662
-0.10427326
-0.19248453
-0.12372646
-0.22400201
-0.26097749
-0.14633422
-0.0042160826
-0.017714654
-0.0079972998
-0.023212296
-0.011588444
-0.028812762
-0.015795072
-0.034292213
-0.020627436
-0.040810071
-0.026148789
-0.048490489
-0.03242466
-0.057514366
-0.039523334
-0.068088059
-0.047525436
-0.080426828
-0.056529267
-0.094763502
-0.066655952
-0.11135403
-0.078057291
-0.13048592
-0.090927687
-0.15250623
-0.10552747
-0.17788474
-0.12212572
-0.20740376
-0.24259503
-0.14050818
0.0047741826
-0.0030482498
-0.0017259327
0.015435304
6.4681969e-05
-0.010725803
0.028012117
0.0044746741
-0.017051487
0.04132906
0.0093695649
-0.022686508
0.054409428
0.015253367
-0.028333734
0.067122373
0.021735188
-0.034448133
0.079476859
0.029002834
-0.04135732
0.091524377
0.037299826
-0.049347344
0.10337428
0.04685739
-0.058707291
0.11520934
0.057921499
-0.069756565
0.12727291
0.07079503
-0.082858596
0.13986134
0.085836608
-0.098425034
0.15334051
0.10343242
-0.1169116
0.16816224
0.12399805
-0.13881977
0.18484432
0.14802635
-0.16470843
0.17605965
-0.19518067
0.20396534
0.0022822925
-0.0053305423
0.0081182481
-0.0057712735
0.017131766
-0.004538844
0.029257268
-0.0027559368
0.044787019
-0.00027638369
0.062057398
0.0044648089
0.080059678
0.011000554
0.098034842
0.019324662
0.11591213
0.028980097
0.133878
0.039955634
0.15209573
0.052577296
0.17090451
0.06702783
0.19093565
0.083401276
0.2131967
0.101737
0.23901712
0.12220593
0.1450369
0.27003988
0.0001160136
-0.0054465558
0.00015289565
-0.0058081554
0.0020294405
-0.0064153888
0.006489823
-0.0072163192
0.014421581
-0.0082081411
0.026262338
-0.0073759483
0.042431709
-0.005168817
0.063229347
-0.0014729764
0.086860367
0.005349077
0.11123704
0.015578964
0.13492863
0.028885705
0.15817888
0.043777581
0.18171044
0.059869717
0.20674426
0.07670318
0.23463105
0.094319129
0.11272727
0.26694069
0.00034743659
-0.0057939923
0.0007067601
-0.0061674789
0.0011507315
-0.0068593601
0.0016528752
-0.0077184628
0.0021455749
-0.0087008406
0.0045557548
-0.0097861281
0.010318079
-0.010931141
0.021029432
-0.012184329
0.037582696
-0.011204187
0.05985048
-0.0066888203
0.084707869
0.004028316
0.10487143
0.023614021
0.12988596
0.034855187
0.15828385
0.048305289
0.19059771
0.062005267
0.074858364
0.22846662
-0.00024810323
-0.0055458891
-0.00095408108
-0.005461501
-0.0020537339
-0.0057597072
-0.0035767488
-0.0061954479
-0.0055694874
-0.006708102
-0.0080879311
-0.0072676844
-0.011174943
-0.0078441294
-0.014996435
-0.0083628367
-0.017462317
-0.008738305
-0.015202333
-0.0089488041
-0.001441993
-0.0097320244
0.020835608
0.0013364204
0.043687319
0.012003475
0.070096032
0.021896576
0.10202174
0.030079562
0.035883543
0.14099656
-0.005460399
-8.5489997e-05
-0.010813435
-0.00010846509
-0.016440883
-0.00013225899
-0.0224792
-0.0001571314
-0.029004823
-0.00018247841
-0.036065293
-0.00020721417
-0.043679476
-0.00022994641
-0.051792708
-0.00024960501
-0.060264311
-0.0002667022
-0.068930281
-0.00028283327
-0.078368567
-0.00029373903
-0.076817867
-0.00021427924
-0.064760334
-5.4057534e-05
-0.043400824
0.00053706659
-0.015970642
0.0026493795
0.0092809958
0.010631905
-0.0055959126
0.0055104226
-0.011075259
0.0053708809
-0.016843855
0.0056363375
-0.023045206
0.0060442196
-0.029757345
0.0065296604
-0.037022932
0.0070583725
-0.044845204
0.0075923256
-0.053138432
0.0080436233
-0.061712032
0.0083068979
-0.070310371
0.0083155047
-0.078962019
0.0083579098
-0.077312769
-0.00186353
-0.065243418
-0.012123408
-0.043227428
-0.021478924
-0.011105872
-0.029472176
-0.03491372
0.033088843
-0.00023808362
0.0057485062
-0.00096783553
0.0061006328
-0.0021178416
0.0067863436
-0.0037188888
0.0076452668
-0.0058192109
0.0086299826
-0.0084755679
0.0097147295
-0.011726091
0.010842848
-0.015722459
0.012039992
-0.018309812
0.010894251
-0.016071479
0.0060771719
-0.002905819
-0.0048077505
0.018755901
-0.02352525
0.041734424
-0.035101931
0.068753808
-0.048498308
0.10145697
-0.062175336
-0.075300023
0.14184327
0.00032614285
0.0054223634
0.00065806002
0.0057687155
0.0010713321
0.0063730714
0.0015420903
0.0071745085
0.00200412
0.0081679527
0.0043846324
0.007334217
0.010103992
0.0051234889
0.020736183
0.0014078005
0.037120048
-0.005489615
0.059029009
-0.015831789
0.083337272
-0.029116013
0.10374455
-0.043932527
0.12855453
-0.059911914
0.15666221
-0.076605986
0.18848169
-0.093994813
-0.11192635
0.22510801
0.00011443002
0.0053079333
0.00014439151
0.005738754
0.0020113353
0.0045061275
0.0064608114
0.0027250323
0.014382204
0.00024655957
0.026213267
-0.0044968459
0.042368454
-0.011031698
0.06313483
-0.019358575
0.086661073
-0.029015858
0.1108268
-0.039997517
0.13432882
-0.052618034
0.15744207
-0.067045772
0.18089037
-0.083360218
0.20587672
-0.10159233
0.23378006
-0.12189816
-0.1445342
0.26638791
0.0022683051
0.0030396282
0.0080737602
-6.670112e-05
0.017054917
-0.0044750297
0.029150649
-0.009370699
0.044652909
-0.015255701
0.061892249
-0.021736186
0.079865074
-0.029004524
0.097810708
-0.037304209
0.11566137
-0.046866516
0.13359977
-0.057935921
0.15179226
-0.070810521
0.17058579
-0.085839307
0.19062122
-0.10339565
0.21291216
-0.12388327
0.23879906
-0.14778505
-0.17548563
0.26975048
0.0047488253
-0.0017091972
0.015386292
-0.010704168
0.027945599
-0.017034337
0.041248243
-0.022673343
0.054318647
-0.028326104
0.067030287
-0.034447826
0.079392451
-0.041366687
0.091457038
-0.049368796
0.10333268
-0.05874216
0.11519985
-0.069803088
0.12729844
-0.082909114
0.13992221
-0.098463076
0.15343714
-0.11691058
0.16830246
-0.13874859
0.18506685
-0.16454944
-0.1950891
0.20467032
0.00035282225
-0.00033112038
0.00048992455
0.00052828331
0.00043015757
0.00011183926
-0.00054296342
-0.0016903323
-0.0035391901
-0.0063606716
-0.010495391
-0.016362067
-0.024467415
-0.035408877
-0.049936996
-0.069271685
0.00035243743
-0.00033030744
0.0004888098
0.00052645202
0.00042732441
0.00010764935
-0.00054890529
-0.0016982981
-0.0035490806
-0.0063713142
-0.010503444
-0.016360786
-0.024448294
-0.03537827
-0.049977473
-0.06946714
0.00044911372
-0.00033623013
0.00089627742
0.0016196714
0.002618622
0.0039897487
0.0058757784
0.0084549196
0.01195026
0.016635711
0.022836921
0.030930778
0.041346179
0.054576209
0.07120927
0.090790014
0.00044901952
-0.00033668552
0.00089619413
0.0016193892
0.0026179791
0.0039886439
0.0058741282
0.008452705
0.011947742
0.016633867
0.022838323
0.030941038
0.041375925
0.054636473
0.07133297
0.091834286
0.24316586
-0.53644172
0.29327586
1.2755156
-1.3206469
0.045131246
0.18667725
-0.48443985
0.2977626
1.2755156
-0.33194745
0.05056173
0.28138572
-1.26698
0.78723027
0.47974975
-0.16839077
0.66046281
-0.49207203
1.1647897
0.44040465
-1.6051944
1.2118193
0.30147419
-1.5132935
0.19145348
-0.26072517
-0.29295771
0.22349057
0.54421722
1.0045558
-1.548773
-0.54173491
-0.57900198
1.1207369
-1.1496927
0.51061004
0.63908267
-0.25004427
0.60354642
-0.35350215
0.55178537
-0.038971728
-0.51281364
1.0996037
-1.1396102
0.040006492
0.070928551
0.25993992
-0.33086847
0.17592233
-0.25548999
0.079567656
0.94114327
-0.34244409
-0.59869918
-0.16568657
-0.16626088
-1.1548389
0.61310397
-1.4218486
1.4085552
0.01329345
0.10903475
1.2784886
-1.3875233
0.0055097524
-0.84972062
0.84421087
0.69811279
0.21244344
-0.91055623
-0.60605664
-0.91241461
1.5184712
0.95734833
-0.31700825
-0.64034008
0.21704131
0.96489172
-1.181933
-0.34564096
0.8384191
-0.49277814
1.0414732
-0.34336038
0.30415952
-0.21753042
-0.086629106
-0.027152936
1.2550213
-1.2278684
0.96352865
0.0030537792
-0.96658243
0.15713946
-0.91965027
0.76251081
1.326854
-1.1175588
-0.20929523
1.1285781
-1.1966162
0.068038185
-0.72028431
0.87742376
0.84014634
-0.48908175
-0.35106459
-1.2970523
0.25554352
1.0415088
0.38325916
-0.54954025
0.16628109
1.2852041
-0.56446016
-0.72074396
1.1647897
-0.34946892
0.84476226
-0.49529334
1.2118193
-0.13088759
0.56093416
-0.43004657
-0.2849583
1.0017474
-0.71678914
-1.4703497
0.62500957
0.84534013
-1.1647897
1.7485578
-0.58376805
-1.2118193
1.7638079
-0.5519886
0.47860502
-0.083039571
-0.39556545
-0.58683477
0.26245673
0.32437804
0.2162064
-0.40559013
0.18938373
0.14653729
0.17386071
-0.320398
-0.4736316
0.85725127
-0.38361968
0.10129245
0.83025077
-0.93154322
0.14618415
-0.28680859
0.14062443
-0.8238685
0.52346749
0.30040101
-1.5781514
0.17201168
1.4061397
1.2902617
-0.45891333
-0.83134838
1.196726
0.093535709
0.83027668
0.61424197
-1.4445186
0.77732881
0.65381568
-1.4311445
-0.36875213
0.75625182
-0.38749969
0.10651766
-0.60280477
0.49628711
-0.99680764
1.0343902
-0.037582554
0.66579887
-1.2080464
0.54224754
0.71348396
0.2612129
-0.97469686
-0.15502962
0.9300498
-0.77502018
-1.382118
1.0971597
-0.35297401
0.92763305
-0.57465904
0.27978946
0.2719959
-0.62856731
0.5709017
0.057665608
0.74322269
0.95744108
-1.7006638
1.3396236
-1.2382841
-0.10133954
0.078151386
-0.44742247
0.74720858
-0.29978611
0.98185761
-0.46727335
-0.51458426
1.496473
-1.3484945
-0.14797845
1.1580202
-1.0279621
-0.13005816
0.44010894
-0.60061963
0.16051068
-0.34205847
0.13268526
0.20937321
0.20411141
-0.54975238
-1.8129779
1.2860713
0.52690661
0.34797319
0.75163052
0.37054484
-1.366826
0.99628111
-0.67479184
1.1403462
-0.46555432
-0.15679984
-0.92993968
1.0867395
0.4363141
-0.32268898
-0.11362512
0.07562914
1.2639945
0.8373547
-0.0025857188
-0.83476898
-1.1950399
0.48834122
0.70669868
0.079498295
0.55004821
-0.62954651
0.47838371
0.36176263
0.66037061
0.36474393
-1.0251145
0.6886578
-0.26123818
-0.42741962
-0.72562944
-0.8079956
0.46252497
-0.27584772
-0.11584919
-0.2324642
0.34831339
-0.4344582
0.84924693
-0.41478873
-0.4681082
1.2113309
-0.86158001
1.1454446
-0.2838646
-0.92294419
-0.2720957
-0.010605991
1.1391841
1.2401508
-1.1594954
-0.080655403
-0.7631936
-0.38649911
-1.6840064
1.1131864
0.57082007
-1.8140498
1.3174448
0.496605
0.86306046
-0.38794178
-0.47511869
0.20685894
-0.55632785
0.30805364
-0.78168524
0.0067227052
0.6357755
-0.64249821
0.46901351
-0.62404313
-0.22118104
0.6044402
0.28385729
0.65728599
1.0031883
0.49328471
0.5811948
-0.5744721
0.43565897
1.0425024
-1.4781613
1.5313674
-0.87860821
-0.65275923
-0.32953495
0.72137869
-0.39184374
-0.0095657323
0.22577213
0.30917989
-0.1626426
0.12962724
0.13699835
-0.26662559
1.6360407
-1.6631937
0.12911824
0.067894398
-0.19701264
0.17590576
-0.034909198
-1.1248195
1.2113418
-0.086522307
-0.3123766
0.20719825
0.10517835
0.59115458
-0.54932823
-0.04182635
-0.84421728
0.76992232
0.074294958
0.29061682
-0.14443267
-0.052335698
0.47845667
-0.42612097
-0.72530558
1.3292743
-0.60396867
0.45009723
0.83510689
1.1901363
-0.5243374
0.51396201
0.34909845
-0.53374489
0.4028573
0.99095838
-1.1477582
-0.46447978
0.34863059
0.84566287
0.39448789
0.78916077
-1.6227369
0.83357613
0.46527399
0.25331292
-0.20275119
-0.46088378
0.70404964
1.1970136
-1.1970136
-0.33859113
-0.19315917
1.0305139
0.11879235
-0.56621481
-0.058665409
0.96264368
-0.90397827
-0.61146468
1.4417414
-0.6384508
1.4157796
1.2718987
-0.72914155
-0.54275713
0.6288836
0.45824812
-0.78778308
0.89850673
-1.1797878
0.2812811
0.88553466
-0.88002491
0.13654655
-0.067485759
-1.0288941
1.0963799
1.4775267
0.2489105
-1.7264372
-0.82912717
1.2647861
-0.6234898
0.70898732
-0.64254562
0.72799801
-0.057624501
0.71799511
0.012254163
0.55246333
-0.5647175
-0.86554322
-0.039212927
0.90475614
0.54124858
-1.2665542
-1.3538627
1.2951973
0.90030925
0.40758273
-1.307892
-0.11047681
-0.52178765
0.63226446
-0.56560752
1.1098247
-0.91460738
0.3429058
0.57170159
0.57099115
-0.49149286
0.13654772
-0.79547793
0.65893021
0.99730762
-1.1090139
0.11170633
0.87606591
0.39583277
-1.5160756
0.79579125
0.074587017
1.0834332
0.96575993
0.73715517
-1.3432118
-0.14841605
0.588525
-1.0537444
0.83477708
0.21896732
-1.0784996
0.96802279
0.57474898
0.72529244
-1.3000414
0.91064934
0.016983717
-0.64608009
0.78262781
-0.31080998
-0.74293442
-0.17455018
-0.33624779
0.51079797
0.45553973
-0.73816345
0.28262372
0.14891458
0.43816223
-0.58707681
-1.0165969
0.2593462
0.75725069
0.16078913
1.1976669
-1.358456
-0.94428783
-0.45670813
1.400996
0.24726551
0.71008282
-0.25207329
-0.00067759516
0.25275089
-0.95229838
-0.18731183
1.1991664
-1.0901316
1.0950736
-0.097765936
-0.78575876
-0.44946948
1.2352282
-0.68254135
-0.2962596
0.97880095
-0.12040614
0.47633759
-0.35593145
-0.051839904
0.88661698
-0.42980456
-0.51991764
0.94972221
0.55858932
0.004571958
-0.56316128
-0.79421379
0.72517397
0.069039814
-0.99910077
0.55642579
0.44267498
-0.8878906
0.57708062
0.57450742
-1.1535094
1.4775267
0.17572195
0.3931299
-0.56885185
1.4532471
-1.1618731
-0.29137392
-1.0758228
1.1903503
-0.47686632
-0.88132648
-0.24349301
0.051173376
-0.8404646
0.78929123
-1.0748531
1.2356422
0.57488993
-1.1185914
0.54370147
0.54805704
0.73981382
-1.2878709
-0.68118893
0.5347922
-0.70934237
0.34243043
-0.39476613
-1.1676857
-0.51632073
1.0444853
-0.11443551
1.0818103
-0.89354524
-0.18826504
0.87398074
0.71945428
-1.593435
0.20585661
-0.69493836
-0.0093729519
0.19005313
-0.18068018
-0.41502397
0.59074592
-0.51232999
1.3863107
-1.3783582
1.3656678
0.012690475
-0.1394856
0.61794227
0.030367088
-0.28244038
0.37711421
-0.38869363
0.011579421
0.29199483
-1.3892758
1.097281
-0.46542289
-0.035261307
0.50068419
-0.13854486
-0.70170554
0.8402504
0.61880937
0.29183997
0.25365534
1.0992371
-1.3528924
-0.62191765
0.28566986
1.0298229
0.23141074
-1.2612337
0.029273521
1.1683933
0.58077689
0.46069628
1.3257774
-0.26250559
-1.0632718
-0.50273718
-0.12583013
-1.1672679
0.38154808
0.7857198
0.11485622
-0.58857715
0.47372094
-0.82034159
0.81670089
0.0036406989
-0.19203416
1.1555628
1.1640871
-1.7319706
0.56788351
0.63032733
0.31738217
-0.9477095
-0.45232596
-0.042093747
0.4944197
-0.13132981
-0.35876136
0.49009116
0.44052802
0.081083312
1.3721637
-0.47446877
1.0493587
0.36352719
-0.18760485
0.90505615
0.23242052
-1.1374767
0.4665218
-0.45426764
-0.82934213
0.39953757
1.5054981
-0.12508108
1.2689047
-1.1438236
0.11783802
-1.2353968
-1.4388619
0.8124442
0.62641765
1.4397553
-0.42028291
-0.75950492
-1.0827933
-0.21425898
-0.84350764
1.1047205
-0.57641021
-0.69056981
1.1854552
-0.9684139
-1.1222729
1.2317392
-0.10946631
-0.84258968
0.88259617
-0.39400311
-0.40021068
0.11367732
0.96813296
-0.031473418
-0.81274386
-0.57516204
-0.33944534
-0.18316643
1.2486788
-1.0655124
-0.48295161
0.59780783
-0.89326163
0.92843327
-0.035171647
0.0026736264
-1.1954714
1.1927977
0.92377013
-0.07568889
-0.84808124
0.50859841
-0.52340502
0.014806605
1.0146021
-1.1504491
0.13584693
0.077610548
0.89911278
-0.97672333
0.72679231
-0.61213427
-0.11465804
-0.4518289
0.2975369
0.154292
0.17315876
-0.33884533
-0.0043666814
-0.93992115
-0.092595255
-0.90421239
-1.1659977
1.2465589
-1.2438852
-0.5771837
-0.24668481
-0.35853757
0.15769879
0.20083878
0.72600616
-0.6171357
-0.10887046
0.21464916
-1.0600545
0.8454053
0.0020847423
0.37502947
-0.43280554
-0.032617341
0.6555703
-0.036760938
-0.67554288
-0.94719401
0.77299989
-0.20209819
0.31539386
-1.6360407
1.3206469
1.0635836
-0.59391156
-0.46967201
-0.12961679
-0.69856018
0.82817697
-0.64600795
0.3289997