/*--------------------------------*- C++ -*----------------------------------*\
| =========                 |                                                 |
| \\      /  F ield         | foam-extend: Open Source CFD                    |
|  \\    /   O peration     | Version:     4.1                                |
|   \\  /    A nd           | Web:         http://www.foam-extend.org         |
|    \\/     M anipulation  |                                                 |
\*---------------------------------------------------------------------------*/
FoamFile
{
    version     2.0;
    format      ascii;
    class       volVectorField;
    location    "2.45";
    object      U;
}
// * * * * * * * * * * * * * * * * * * * * * * * * * * * * * * * * * * * * * //

dimensions      [0 1 -1 0 0 0 0];

internalField   nonuniform List<vector> 
4393
(
(146.0489 -0.156503 0)
(146.5975 -0.16293698 0)
(147.0118 -0.1659511 0)
(147.45302 -0.16960183 0)
(147.90407 -0.17400969 0)
(148.36986 -0.17926015 0)
(148.8526 -0.18527504 0)
(149.35444 -0.19190811 0)
(149.87699 -0.19895369 0)
(150.42114 -0.20614876 0)
(150.98694 -0.2131731 0)
(151.57338 -0.21965256 0)
(152.17825 -0.22516775 0)
(152.79805 -0.22927001 0)
(153.42788 -0.2315044 0)
(154.06149 -0.23143763 0)
(154.69139 -0.22868565 0)
(155.30905 -0.22293509 0)
(155.90508 -0.21395434 0)
(156.46956 -0.20159371 0)
(156.99221 -0.18577846 0)
(157.46262 -0.16650103 0)
(157.87046 -0.14381872 0)
(158.20564 -0.11786201 0)
(158.4586 -0.088857111 0)
(158.62065 -0.05715958 0)
(158.68448 -0.023276077 0)
(158.64488 0.012126565 0)
(158.49853 0.047973236 0)
(158.24628 0.082848772 0)
(157.89311 0.11530703 0)
(157.44834 0.14393708 0)
(156.92537 0.16751054 0)
(156.3408 0.18513467 0)
(155.71333 0.19635097 0)
(155.0623 0.20115492 0)
(154.40646 0.19994209 0)
(153.76286 0.19340542 0)
(153.14622 0.1824142 0)
(152.56855 0.16790047 0)
(152.03911 0.15076882 0)
(151.56467 0.13183513 0)
(151.14978 0.11179339 0)
(150.79719 0.091217226 0)
(150.50827 0.070610788 0)
(150.28348 0.050432473 0)
(150.12222 0.030837469 0)
(150.02092 0.011723075 0)
(149.97389 -0.0031700223 0)
(149.47194 -0.39491477 0)
(149.94134 -0.40586635 0)
(150.28758 -0.41396608 0)
(150.65757 -0.42450816 0)
(151.03721 -0.43760789 0)
(151.43148 -0.45330112 0)
(151.84274 -0.47131765 0)
(152.27326 -0.49121207 0)
(152.72471 -0.51237199 0)
(153.19807 -0.5340164 0)
(153.69348 -0.55519354 0)
(154.20999 -0.57478883 0)
(154.74548 -0.59154963 0)
(155.29645 -0.60413164 0)
(155.85801 -0.61116764 0)
(156.42389 -0.61135162 0)
(156.98653 -0.60352311 0)
(157.53727 -0.5867332 0)
(158.06664 -0.56027896 0)
(158.56461 -0.52370447 0)
(159.02077 -0.47678028 0)
(159.42465 -0.41948054 0)
(159.76578 -0.35197791 0)
(160.03397 -0.27467252 0)
(160.2195 -0.18826597 0)
(160.31345 -0.0938772 0)
(160.3083 0.0068450085 0)
(160.19843 0.11165834 0)
(159.98172 0.21748519 0)
(159.65888 0.32051335 0)
(159.23466 0.41654777 0)
(158.71823 0.50139295 0)
(158.12299 0.57135836 0)
(157.46573 0.62373676 0)
(156.76535 0.65710933 0)
(156.04147 0.6714089 0)
(155.31302 0.66776015 0)
(154.59716 0.64817294 0)
(153.90862 0.61518106 0)
(153.25934 0.57150306 0)
(152.6585 0.5197721 0)
(152.11272 0.46235045 0)
(151.62645 0.401226 0)
(151.20242 0.33800173 0)
(150.84201 0.27399615 0)
(150.54554 0.21026766 0)
(150.31218 0.14710529 0)
(150.14086 0.084344864 0)
(150.03531 0.02858056 0)
(149.73739 -0.62939368 0)
(150.19159 -0.63857061 0)
(150.52687 -0.65072032 0)
(150.88501 -0.66771112 0)
(151.25284 -0.68939176 0)
(151.63542 -0.71554003 0)
(152.03526 -0.74564634 0)
(152.45473 -0.77895193 0)
(152.89563 -0.81443466 0)
(153.35911 -0.85079302 0)
(153.84544 -0.88643719 0)
(154.35385 -0.9194989 0)
(154.88235 -0.94787079 0)
(155.42757 -0.96928371 0)
(155.98467 -0.9814242 0)
(156.54738 -0.98208088 0)
(157.10806 -0.96929257 0)
(157.65797 -0.94146407 0)
(158.18754 -0.89742412 0)
(158.68661 -0.83642214 0)
(159.14472 -0.75808532 0)
(159.55126 -0.66237109 0)
(159.89571 -0.54955189 0)
(160.16766 -0.42026156 0)
(160.35713 -0.27562244 0)
(160.45481 -0.11745665 0)
(160.45263 0.051463196 0)
(160.34438 0.22725295 0)
(160.1264 0.40485496 0)
(159.79877 0.57802908 0)
(159.36598 0.739676 0)
(158.83741 0.88259885 0)
(158.22711 1.0004399 0)
(157.55291 1.088546 0)
(156.83491 1.1445114 0)
(156.09388 1.1682799 0)
(155.34967 1.1618476 0)
(154.6201 1.1287114 0)
(153.9202 1.073232 0)
(153.26196 1.0000463 0)
(152.6544 0.91360625 0)
(152.10385 0.81786971 0)
(151.61442 0.71613371 0)
(151.18849 0.61100873 0)
(150.82718 0.50451244 0)
(150.53034 0.39807288 0)
(150.29671 0.29220455 0)
(150.12702 0.18720531 0)
(150.02928 0.087413779 0)
(149.82993 -0.85840968 0)
(150.2762 -0.8681868 0)
(150.60689 -0.88443534 0)
(150.96021 -0.90797673 0)
(151.32346 -0.93842257 0)
(151.70181 -0.97532223 0)
(152.09796 -1.0179329 0)
(152.51447 -1.0651978 0)
(152.95336 -1.1157037 0)
(153.41601 -1.1676449 0)
(153.90293 -1.2188014 0)
(154.41357 -1.2665465 0)
(154.94611 -1.3078959 0)
(155.49728 -1.3396155 0)
(156.06222 -1.3583908 0)
(156.63452 -1.3610454 0)
(157.20631 -1.344765 0)
(157.76854 -1.3072739 0)
(158.31127 -1.2469183 0)
(158.82403 -1.1626521 0)
(159.29606 -1.053958 0)
(159.71652 -0.92076065 0)
(160.07456 -0.76338798 0)
(160.35947 -0.58262775 0)
(160.56077 -0.37990579 0)
(160.66846 -0.15759507 0)
(160.67364 0.080594071 0)
(160.56908 0.32929725 0)
(160.35013 0.58129829 0)
(160.01601 0.82757869 0)
(159.57083 1.0577952 0)
(159.02428 1.2613673 0)
(158.39144 1.4289111 0)
(157.69177 1.5535891 0)
(156.94728 1.6319472 0)
(156.18053 1.6640467 0)
(155.41286 1.6529779 0)
(154.66304 1.603996 0)
(153.94658 1.5235519 0)
(153.2755 1.4184203 0)
(152.65854 1.2950353 0)
(152.10159 1.1590617 0)
(151.60818 1.0151826 0)
(151.1802 0.86707315 0)
(150.81825 0.71749258 0)
(150.52164 0.56832288 0)
(150.28881 0.42059243 0)
(150.12121 0.2753475 0)
(150.02715 0.13502558 0)
(149.93892 -1.0819503 0)
(150.37711 -1.0932723 0)
(150.70246 -1.1137397 0)
(151.05041 -1.1439484 0)
(151.40865 -1.183339 0)
(151.78247 -1.2312719 0)
(152.17479 -1.2867841 0)
(152.58842 -1.348531 0)
(153.02568 -1.4147157 0)
(153.48825 -1.4830292 0)
(153.97695 -1.5506108 0)
(154.49154 -1.6140467 0)
(155.03044 -1.6694265 0)
(155.59049 -1.7124783 0)
(156.16684 -1.7387978 0)
(156.75286 -1.7441534 0)
(157.34035 -1.7248088 0)
(157.91977 -1.6777757 0)
(158.48071 -1.6009273 0)
(159.01225 -1.4929608 0)
(159.50327 -1.3532605 0)
(159.94259 -1.1817476 0)
(160.31906 -0.97880079 0)
(160.62154 -0.74531335 0)
(160.83897 -0.48292644 0)
(160.96048 -0.19445195 0)
(160.97602 0.11557316 0)
(160.877 0.44040862 0)
(160.65725 0.77075453 0)
(160.31472 1.0946355 0)
(159.85287 1.3980362 0)
(159.28173 1.6664149 0)
(158.61786 1.8868023 0)
(157.88307 2.0498081 0)
(157.10209 2.1508396 0)
(156.3001 2.1902455 0)
(155.50046 2.1725458 0)
(154.72327 2.1051453 0)
(153.98459 1.9969415 0)
(153.29645 1.8571162 0)
(152.66714 1.6942487 0)
(152.10183 1.5157729 0)
(151.60332 1.3277344 0)
(151.17272 1.1347784 0)
(150.80995 0.94026454 0)
(150.51371 0.74638681 0)
(150.28219 0.55444176 0)
(150.11706 0.36561716 0)
(150.02586 0.18119234 0)
(150.07649 -1.302951 0)
(150.50472 -1.31631 0)
(150.82324 -1.3411829 0)
(151.16438 -1.3782814 0)
(151.51625 -1.4269412 0)
(151.88433 -1.4863907 0)
(152.27176 -1.5554854 0)
(152.68167 -1.6326269 0)
(153.11673 -1.715663 0)
(153.57904 -1.8017986 0)
(154.06983 -1.8875313 0)
(154.58926 -1.9686339 0)
(155.13607 -2.0402085 0)
(155.70733 -2.0968474 0)
(156.29815 -2.1329272 0)
(156.90166 -2.1430234 0)
(157.50916 -2.1223633 0)
(158.1105 -2.0671831 0)
(158.69463 -1.9748783 0)
(159.25004 -1.8439243 0)
(159.76515 -1.6736483 0)
(160.22843 -1.4639798 0)
(160.62838 -1.2153027 0)
(160.95342 -0.92849893 0)
(161.19179 -0.60523997 0)
(161.33155 -0.24854907 0)
(161.36114 0.13642452 0)
(161.27019 0.54165205 0)
(161.05039 0.95566174 0)
(160.69784 1.3632365 0)
(160.21494 1.7460856 0)
(159.61207 2.084871 0)
(158.90778 2.3622193 0)
(158.12713 2.5656596 0)
(157.29869 2.6893647 0)
(156.45114 2.7342646 0)
(155.61059 2.706843 0)
(154.79877 2.6172584 0)
(154.0324 2.4774018 0)
(153.32335 2.2992819 0)
(152.67921 2.0939003 0)
(152.10416 1.8706089 0)
(151.59994 1.636863 0)
(151.16662 1.3982521 0)
(150.80317 1.1586723 0)
(150.50754 0.92055152 0)
(150.27748 0.68523071 0)
(150.11443 0.45353922 0)
(150.02513 0.22567276 0)
(150.24333 -1.5149128 0)
(150.66 -1.530604 0)
(150.9702 -1.5601506 0)
(151.30294 -1.6044733 0)
(151.64694 -1.662834 0)
(152.00783 -1.7343726 0)
(152.38907 -1.8178031 0)
(152.79415 -1.9113112 0)
(153.22619 -2.0124228 0)
(153.68776 -2.1178792 0)
(154.18067 -2.2235384 0)
(154.70559 -2.3243301 0)
(155.26171 -2.4142975 0)
(155.84638 -2.4867749 0)
(156.45474 -2.5347543 0)
(157.07958 -2.5514387 0)
(157.71159 -2.5308754 0)
(158.33976 -2.4684616 0)
(158.9522 -2.361143 0)
(159.53666 -2.2072659 0)
(160.08103 -2.0062063 0)
(160.57343 -1.7579681 0)
(161.00204 -1.4629275 0)
(161.35486 -1.1218402 0)
(161.61936 -0.7361885 0)
(161.78236 -0.30890676 0)
(161.83045 0.15456197 0)
(161.7509 0.64516083 0)
(161.53252 1.1493539 0)
(161.16872 1.6483678 0)
(160.66021 2.1188352 0)
(160.01761 2.535431 0)
(159.26211 2.875174 0)
(158.42322 3.1217393 0)
(157.5347 3.267934 0)
(156.62999 3.315698 0)
(155.73869 3.2742241 0)
(154.88454 3.157232 0)
(154.08491 2.9802984 0)
(153.35126 2.7587567 0)
(152.69013 2.5063247 0)
(152.10436 2.234398 0)
(151.59425 1.9518489 0)
(151.15854 1.6651487 0)
(150.79505 1.3786523 0)
(150.50078 1.094956 0)
(150.27284 0.81535755 0)
(150.11214 0.54028885 0)
(150.02456 0.26916632 0)
(150.43875 -1.7254232 0)
(150.84135 -1.7434638 0)
(151.14158 -1.7777055 0)
(151.46428 -1.82936 0)
(151.79881 -1.8976653 0)
(152.15099 -1.9817283 0)
(152.52461 -2.0801783 0)
(152.92361 -2.1910439 0)
(153.35163 -2.3115833 0)
(153.81186 -2.4381159 0)
(154.30676 -2.565876 0)
(154.8377 -2.6889263 0)
(155.40448 -2.8001694 0)
(156.00486 -2.8915281 0)
(156.63403 -2.9543848 0)
(157.28442 -2.9803145 0)
(157.94584 -2.9619706 0)
(158.60621 -2.8938101 0)
(159.25248 -2.7723627 0)
(159.87151 -2.5959732 0)
(160.45059 -2.3642112 0)
(160.9775 -2.0772438 0)
(161.44023 -1.7354193 0)
(161.82644 -1.3392086 0)
(162.12287 -0.88960217 0)
(162.31495 -0.38902794 0)
(162.38701 0.15723888 0)
(162.32337 0.73946624 0)
(162.10896 1.3421775 0)
(161.73338 1.94273 0)
(161.19461 2.5116547 0)
(160.50329 3.0159744 0)
(159.68399 3.4253635 0)
(158.77235 3.718554 0)
(157.80919 3.886876 0)
(156.83422 3.9339775 0)
(155.88146 3.8728719 0)
(154.977 3.7219815 0)
(154.1387 3.501502 0)
(153.3772 3.2307236 0)
(152.6975 2.9264239 0)
(152.10061 2.6021562 0)
(151.58495 2.2681656 0)
(151.14761 1.9316697 0)
(150.78497 1.5973063 0)
(150.49295 1.2676449 0)
(150.26784 0.94373494 0)
(150.10983 0.62551189 0)
(150.02402 0.31173438 0)
(150.66219 -1.921045 0)
(151.0492 -1.9416729 0)
(151.33789 -1.9810149 0)
(151.64881 -2.0405627 0)
(151.97212 -2.1195446 0)
(152.31385 -2.2170818 0)
(152.67819 -2.3317781 0)
(153.06956 -2.461571 0)
(153.49221 -2.603517 0)
(153.95009 -2.7535665 0)
(154.44648 -2.9063554 0)
(154.98362 -3.055057 0)
(155.56213 -3.19134 0)
(156.18036 -3.305524 0)
(156.83368 -3.3870849 0)
(157.51403 -3.4256156 0)
(158.21014 -3.4120777 0)
(158.90842 -3.3398599 0)
(159.59436 -3.2051559 0)
(160.25367 -3.0065366 0)
(160.87299 -2.7440212 0)
(161.43989 -2.4181163 0)
(161.94234 -2.0291682 0)
(162.36787 -1.5771966 0)
(162.70264 -1.0623267 0)
(162.93057 -0.4859283 0)
(163.03337 0.14753807 0)
(162.99172 0.82826982 0)
(162.78538 1.5392588 0)
(162.3985 2.2537517 0)
(161.82486 2.9348978 0)
(161.07447 3.5397206 0)
(160.17633 4.0279843 0)
(159.17447 4.3718913 0)
(158.11936 4.5612109 0)
(157.05902 4.6023798 0)
(156.03299 4.5138333 0)
(155.06991 4.3202485 0)
(154.18778 4.0476349 0)
(153.39582 3.7199939 0)
(152.69681 3.357529 0)
(152.08924 2.9760377 0)
(151.56919 2.5870517 0)
(151.13168 2.1983642 0)
(150.77141 1.814698 0)
(150.483 1.4383937 0)
(150.2618 1.0700617 0)
(150.10717 0.70902265 0)
(150.02341 0.35333295 0)
(150.91341 -2.1185671 0)
(151.2815 -2.1416592 0)
(151.5568 -2.1859505 0)
(151.85405 -2.2533014 0)
(152.16426 -2.3429942 0)
(152.49367 -2.4542315 0)
(152.84687 -2.5856732 0)
(153.22882 -2.735259 0)
(153.6445 -2.8999419 0)
(154.09873 -3.0753931 0)
(154.59582 -3.2557109 0)
(155.1391 -3.4331867 0)
(155.7303 -3.5981774 0)
(156.36861 -3.73919 0)
(157.04972 -3.8434234 0)
(157.76503 -3.8980125 0)
(158.50183 -3.8918098 0)
(159.24453 -3.8169626 0)
(159.97659 -3.6694666 0)
(160.6823 -3.4484698 0)
(161.34765 -3.1548221 0)
(161.96015 -2.7896235 0)
(162.50808 -2.3532612 0)
(162.97923 -1.8450905 0)
(163.35941 -1.2638765 0)
(163.63114 -0.60918506 0)
(163.77308 0.11624376 0)
(163.76152 0.9034473 0)
(163.56949 1.7345451 0)
(163.17346 2.5786429 0)
(162.56057 3.3900016 0)
(161.7391 4.1123542 0)
(160.74374 4.6917325 0)
(159.63022 5.0914932 0)
(158.46231 5.2998943 0)
(157.29902 5.32789 0)
(156.18666 5.2016864 0)
(155.15645 4.9543374 0)
(154.22587 4.6191801 0)
(153.40177 4.225786 0)
(152.6837 3.7981196 0)
(152.0669 3.3542079 0)
(151.54448 2.9066631 0)
(151.10898 2.4635702 0)
(150.75314 2.0294457 0)
(150.47013 1.606136 0)
(150.25423 1.1935961 0)
(150.1039 0.79039413 0)
(150.02268 0.39378359 0)
(151.19051 -2.2909255 0)
(151.53868 -2.3166124 0)
(151.79896 -2.3662399 0)
(152.08069 -2.4419997 0)
(152.37584 -2.5432438 0)
(152.69088 -2.6693222 0)
(153.03085 -2.819042 0)
(153.40129 -2.9904562 0)
(153.80799 -3.1805372 0)
(154.25679 -3.3847939 0)
(154.75325 -3.5968735 0)
(155.30209 -3.8082101 0)
(155.90646 -4.0077694 0)
(156.56681 -4.1819904 0)
(157.27939 -4.3152927 0)
(158.03505 -4.3916522 0)
(158.81916 -4.3971617 0)
(159.61335 -4.3224342 0)
(160.3984 -4.1634586 0)
(161.15678 -3.9204876 0)
(161.87379 -3.5957799 0)
(162.53728 -3.1914321 0)
(163.13633 -2.7080052 0)
(163.65952 -2.144006 0)
(164.09284 -1.4962809 0)
(164.41756 -0.76166032 0)
(164.60906 0.060038013 0)
(164.63843 0.9620636 0)
(164.46999 1.9268337 0)
(164.06949 2.9196715 0)
(163.4137 3.8843447 0)
(162.50705 4.7466738 0)
(161.39152 5.4331241 0)
(160.13942 5.894723 0)
(158.83316 6.1185694 0)
(157.54627 6.1228989 0)
(156.33318 5.9451393 0)
(155.22741 5.6295979 0)
(154.2447 5.2188175 0)
(153.3881 4.7488733 0)
(152.6527 4.2477387 0)
(152.02945 3.7355106 0)
(151.50782 3.2255294 0)
(151.07742 2.7257667 0)
(150.72878 2.2401494 0)
(150.45347 1.7697004 0)
(150.24464 1.3134615 0)
(150.09983 0.86906759 0)
(150.02177 0.43282096 0)
(151.49499 -2.4738444 0)
(151.8188 -2.5022054 0)
(152.06188 -2.5571296 0)
(152.32587 -2.6412522 0)
(152.60371 -2.7540726 0)
(152.902 -2.8951692 0)
(153.22623 -3.0636017 0)
(153.58258 -3.2576681 0)
(153.97773 -3.4745134 0)
(154.41872 -3.7096442 0)
(154.91259 -3.9563918 0)
(155.46579 -4.2054083 0)
(156.08337 -4.444234 0)
(156.76757 -4.6569943 0)
(157.51568 -4.824729 0)
(158.31801 -4.9273182 0)
(159.15738 -4.947187 0)
(160.01158 -4.8730538 0)
(160.85764 -4.7013045 0)
(161.67564 -4.4342183 0)
(162.45029 -4.0764233 0)
(163.1702 -3.6316522 0)
(163.826 -3.1008594 0)
(164.4079 -2.4814861 0)
(164.90281 -1.7677142 0)
(165.29123 -0.9523236 0)
(165.54522 -0.030500033 0)
(165.62896 0.99512958 0)
(165.49755 2.1090121 0)
(165.10114 3.2741386 0)
(164.40039 4.4222931 0)
(163.39186 5.4549442 0)
(162.12684 6.2698965 0)
(160.70163 6.8004567 0)
(159.22515 7.0336192 0)
(157.79023 6.9993781 0)
(156.46075 6.7514855 0)
(155.27147 6.3493655 0)
(154.23446 5.8470194 0)
(153.3469 5.2879315 0)
(152.59774 4.7041218 0)
(151.97246 4.1173449 0)
(151.4561 3.5410952 0)
(151.0349 2.9826596 0)
(150.69697 2.4448817 0)
(150.4322 1.9275672 0)
(150.23259 1.4285522 0)
(150.09477 0.9443347 0)
(150.02066 0.47010135 0)
(151.82145 -2.6141361 0)
(152.12076 -2.6447315 0)
(152.34508 -2.7047732 0)
(152.58941 -2.7972802 0)
(152.84782 -2.9219227 0)
(153.12706 -3.078602 0)
(153.43304 -3.2667714 0)
(153.77259 -3.4851594 0)
(154.15337 -3.7313102 0)
(154.58378 -4.000979 0)
(155.07259 -4.2874185 0)
(155.6284 -4.5806746 0)
(156.2587 -4.8669242 0)
(156.96827 -5.1277842 0)
(157.75619 -5.3401897 0)
(158.61235 -5.4785755 0)
(159.51622 -5.5202416 0)
(160.44011 -5.45131 0)
(161.35574 -5.2690147 0)
(162.24005 -4.978874 0)
(163.07734 -4.5890951 0)
(163.85785 -4.1057429 0)
(164.57482 -3.5303348 0)
(165.22129 -2.8590042 0)
(165.78633 -2.082485 0)
(166.25048 -1.1879846 0)
(166.5826 -0.16396707 0)
(166.73938 0.99331266 0)
(166.66426 2.2730459 0)
(166.28652 3.6388196 0)
(165.54188 5.0097653 0)
(164.4117 6.2542106 0)
(162.95882 7.2267845 0)
(161.31518 7.8343645 0)
(159.62819 8.0664525 0)
(158.01629 7.9721061 0)
(156.55374 7.6289861 0)
(155.27431 7.1167438 0)
(154.18321 6.5034094 0)
(153.26889 5.84058 0)
(152.51197 5.1639752 0)
(151.89108 4.4962166 0)
(151.38601 3.850082 0)
(150.97926 3.2313972 0)
(150.65637 2.6413017 0)
(150.40553 2.0779204 0)
(150.21767 1.5375577 0)
(150.08855 1.0153536 0)
(150.01929 0.50521343 0)
(152.17466 -2.7815891 0)
(152.44372 -2.8153281 0)
(152.64675 -2.8812265 0)
(152.86888 -2.9828162 0)
(153.10516 -3.1200349 0)
(153.36236 -3.2932092 0)
(153.64674 -3.5023208 0)
(153.96578 -3.7467033 0)
(154.32815 -4.0245184 0)
(154.74375 -4.3320253 0)
(155.22343 -4.6626454 0)
(155.77837 -5.0059994 0)
(156.41922 -5.3469719 0)
(157.15439 -5.664474 0)
(157.98596 -5.9304064 0)
(158.90397 -6.1117722 0)
(159.88345 -6.1784385 0)
(160.88888 -6.1128379 0)
(161.88436 -5.9139516 0)
(162.84261 -5.5927967 0)
(163.74793 -5.1634863 0)
(164.59333 -4.6359248 0)
(165.37601 -4.012914 0)
(166.09332 -3.289469 0)
(166.73807 -2.4522421 0)
(167.29224 -1.4808996 0)
(167.72185 -0.35406262 0)
(167.97575 0.94198174 0)
(167.98399 2.4052832 0)
(167.64862 4.0054588 0)
(166.867 5.6507765 0)
(165.592 7.1649924 0)
(163.89973 8.3359314 0)
(161.97666 9.0292349 0)
(160.02752 9.2430069 0)
(158.20443 9.0573622 0)
(156.59184 8.5851876 0)
(155.21816 7.9329406 0)
(154.07683 7.1853558 0)
(153.14355 6.4023152 0)
(152.38796 5.6222381 0)
(151.78027 4.8672723 0)
(151.29428 4.1482213 0)
(150.90845 3.4684358 0)
(150.60573 2.8266003 0)
(150.37276 2.218636 0)
(150.19952 1.6389693 0)
(150.08103 1.0811618 0)
(150.01763 0.5376875 0)
(152.54178 -2.8798039 0)
(152.7815 -2.9149408 0)
(152.96176 -2.9850741 0)
(153.15971 -3.0941247 0)
(153.3716 -3.2422883 0)
(153.60416 -3.4304017 0)
(153.86397 -3.6591344 0)
(154.15911 -3.9286685 0)
(154.49926 -4.2381298 0)
(154.896 -4.5847367 0)
(155.36254 -4.9626012 0)
(155.91315 -5.3614239 0)
(156.56248 -5.7652588 0)
(157.32392 -6.1505968 0)
(158.20449 -6.4836757 0)
(159.19542 -6.7216541 0)
(160.26586 -6.8236477 0)
(161.3687 -6.7667874 0)
(162.45662 -6.5532373 0)
(163.49646 -6.2028061 0)
(164.47319 -5.7384166 0)
(165.38455 -5.1748589 0)
(166.23364 -4.5158104 0)
(167.02423 -3.7542716 0)
(167.75556 -2.8713357 0)
(168.4135 -1.8362747 0)
(168.96247 -0.61392286 0)
(169.34329 0.82335778 0)
(169.472 2.4868586 0)
(169.21629 4.3601537 0)
(168.41528 6.3472032 0)
(166.96902 8.2137636 0)
(164.96627 9.6418759 0)
(162.6795 10.429065 0)
(160.40122 10.595947 0)
(158.32696 10.273422 0)
(156.54861 9.6265364 0)
(155.08116 8.796626 0)
(153.89884 7.8873995 0)
(152.95927 6.9661159 0)
(152.21794 6.0718566 0)
(151.63504 5.224194 0)
(151.17781 4.4302245 0)
(150.82062 3.6895488 0)
(150.54402 2.9975263 0)
(150.33333 2.3473115 0)
(150.17788 1.7311079 0)
(150.07212 1.1406983 0)
(150.01568 0.56700789 0)
(152.93699 -3.0310643 0)
(153.14049 -3.0701502 0)
(153.29541 -3.1468612 0)
(153.46664 -3.2656855 0)
(153.65135 -3.4272507 0)
(153.85598 -3.6331078 0)
(154.08726 -3.884869 0)
(154.3537 -4.1838775 0)
(154.66593 -4.530612 0)
(155.03721 -4.9237323 0)
(155.4834 -5.358567 0)
(156.02239 -5.8253334 0)
(156.67363 -6.3075822 0)
(157.4574 -6.7795936 0)
(158.38868 -7.2009823 0)
(159.46226 -7.5149757 0)
(160.63985 -7.6635597 0)
(161.85728 -7.6146633 0)
(163.05022 -7.3750426 0)
(164.17755 -6.9781603 0)
(165.22682 -6.4605433 0)
(166.20376 -5.8441838 0)
(167.12002 -5.1345161 0)
(167.98793 -4.3239735 0)
(168.81607 -3.3897501 0)
(169.59719 -2.2900787 0)
(170.29528 -0.97231002 0)
(170.84295 0.61051035 0)
(171.14351 2.4900811 0)
(171.02501 4.6786392 0)
(170.24136 7.0944232 0)
(168.5961 9.4336091 0)
(166.18203 11.207698 0)
(163.41157 12.09352 0)
(160.7165 12.166131 0)
(158.34554 11.639647 0)
(156.38986 10.756603 0)
(154.83682 9.7022157 0)
(153.63054 8.5999738 0)
(152.7037 7.5216338 0)
(151.99418 6.5033437 0)
(151.4508 5.559004 0)
(151.034 4.6897283 0)
(150.71437 3.8898442 0)
(150.4705 3.1504318 0)
(150.2869 2.4613164 0)
(150.1526 1.8121683 0)
(150.06175 1.1928356 0)
(150.01342 0.59262948 0)
(153.33169 -3.0768177 0)
(153.50077 -3.1160428 0)
(153.62882 -3.1954247 0)
(153.77115 -3.3198145 0)
(153.926 -3.490147 0)
(154.09947 -3.708633 0)
(154.29829 -3.9778257 0)
(154.53128 -4.3003127 0)
(154.80995 -4.6781536 0)
(155.1493 -5.1119196 0)
(155.56817 -5.5989001 0)
(156.0887 -6.1307004 0)
(156.73613 -6.6913591 0)
(157.53982 -7.2544055 0)
(158.52746 -7.7735957 0)
(159.70195 -8.174412 0)
(161.0159 -8.3732965 0)
(162.37902 -8.3244926 0)
(163.70036 -8.0441556 0)
(164.92693 -7.5894207 0)
(166.05132 -7.019392 0)
(167.09189 -6.3662512 0)
(168.07141 -5.6359786 0)
(169.01247 -4.818893 0)
(169.93708 -3.8864124 0)
(170.85099 -2.7790473 0)
(171.72208 -1.4149047 0)
(172.4772 0.28402306 0)
(173.01214 2.3776537 0)
(173.11575 4.9213708 0)
(172.42031 7.8764324 0)
(170.55375 10.866632 0)
(167.5816 13.127292 0)
(164.15062 14.105418 0)
(160.92371 14.004724 0)
(158.20685 13.174882 0)
(156.07174 11.973507 0)
(154.4537 10.637667 0)
(153.25146 9.307947 0)
(152.36449 8.0544011 0)
(151.70971 6.9044395 0)
(151.22387 5.861984 0)
(150.86106 4.9193396 0)
(150.58892 4.0638546 0)
(150.38491 3.2813685 0)
(150.23339 2.5578762 0)
(150.12367 1.8802828 0)
(150.04994 1.2364227 0)
(150.01084 0.61399921 0)
(153.75569 -3.2105225 0)
(153.88268 -3.2554257 0)
(153.98163 -3.342455 0)
(154.09299 -3.4770439 0)
(154.2157 -3.6606988 0)
(154.35516 -3.8966838 0)
(154.51781 -4.1890279 0)
(154.71249 -4.5422736 0)
(154.95118 -4.9609972 0)
(155.25029 -5.4489305 0)
(155.63165 -6.006918 0)
(156.12193 -6.6295721 0)
(156.75262 -7.3027595 0)
(157.56418 -8.0010862 0)
(158.60366 -8.6739736 0)
(159.89074 -9.2230169 0)
(161.368 -9.5216875 0)
(162.90495 -9.4972044 0)
(164.36898 -9.17783 0)
(165.69041 -8.6551974 0)
(166.87323 -8.0208346 0)
(167.9584 -7.3169003 0)
(168.98529 -6.5442439 0)
(169.9892 -5.6889998 0)
(171.01177 -4.7215349 0)
(172.08125 -3.5675698 0)
(173.17389 -2.1154441 0)
(174.20834 -0.25761726 0)
(175.06621 2.089193 0)
(175.52436 5.0320932 0)
(175.04923 8.6560121 0)
(172.96252 12.558855 0)
(169.21551 15.5414 0)
(164.85469 16.579558 0)
(160.94683 16.174545 0)
(157.83669 14.8937 0)
(155.53883 13.26554 0)
(153.89572 11.581254 0)
(152.74048 9.9887706 0)
(151.93042 8.54499 0)
(151.35922 7.2598641 0)
(150.95215 6.1217172 0)
(150.65849 5.1107881 0)
(150.44443 4.2057096 0)
(150.28758 3.3862391 0)
(150.17313 2.6341903 0)
(150.0913 1.9336069 0)
(150.03677 1.2703394 0)
(150.00798 0.63058294 0)
(154.13603 -3.1946799 0)
(154.22231 -3.2378806 0)
(154.29033 -3.3244942 0)
(154.36798 -3.4608638 0)
(154.45497 -3.6490462 0)
(154.55571 -3.8932513 0)
(154.67605 -4.1987672 0)
(154.82445 -4.5717863 0)
(155.01294 -5.0190319 0)
(155.25899 -5.5471154 0)
(155.5875 -6.1605196 0)
(156.03057 -6.8572041 0)
(156.62672 -7.6250483 0)
(157.4296 -8.4414966 0)
(158.5156 -9.2566599 0)
(159.93815 -9.9451357 0)
(161.63227 -10.313356 0)
(163.40427 -10.243879 0)
(165.05397 -9.7924568 0)
(166.48647 -9.1123519 0)
(167.72732 -8.3536488 0)
(168.85533 -7.5750377 0)
(169.93072 -6.7696706 0)
(170.99656 -5.9227071 0)
(172.11532 -5.0183382 0)
(173.3477 -3.9702194 0)
(174.68409 -2.619544 0)
(176.03287 -0.79605068 0)
(177.28228 1.6461372 0)
(178.24498 4.9155034 0)
(178.21501 9.3274167 0)
(175.983 14.535079 0)
(171.15292 18.674787 0)
(165.44356 19.685658 0)
(160.66921 18.753508 0)
(157.13224 16.799794 0)
(154.72272 14.604311 0)
(153.12358 12.497234 0)
(152.07795 10.610404 0)
(151.39325 8.9683379 0)
(150.94036 7.5513284 0)
(150.63596 6.3253577 0)
(150.42752 5.2552415 0)
(150.28222 4.3094131 0)
(150.1796 3.4610138 0)
(150.10684 2.6875895 0)
(150.05591 1.9704256 0)
(150.02242 1.2935625 0)
(150.00486 0.64189689 0)
(154.44917 -3.302239 0)
(154.48551 -3.3566725 0)
(154.51866 -3.4545543 0)
(154.55834 -3.6033084 0)
(154.60487 -3.8054388 0)
(154.66136 -4.0662378 0)
(154.73285 -4.3925658 0)
(154.82708 -4.7929242 0)
(154.95558 -5.2773984 0)
(155.13606 -5.857621 0)
(155.39586 -6.5454564 0)
(155.77243 -7.3477134 0)
(156.3106 -8.2600614 0)
(157.07565 -9.2697693 0)
(158.18316 -10.34153 0)
(159.74876 -11.327796 0)
(161.7094 -11.924424 0)
(163.76891 -11.919021 0)
(165.61625 -11.407362 0)
(167.11991 -10.628216 0)
(168.3471 -9.8215927 0)
(169.4433 -9.0578407 0)
(170.49719 -8.2998293 0)
(171.55037 -7.5092776 0)
(172.69262 -6.6866676 0)
(174.0481 -5.7210601 0)
(175.64977 -4.3714347 0)
(177.40807 -2.3761617 0)
(179.22605 0.47500101 0)
(181.00097 4.3266751 0)
(181.86788 9.7701146 0)
(179.76964 16.835904 0)
(173.45905 22.958852 0)
(165.74647 23.683951 0)
(159.90419 21.828253 0)
(155.95016 18.869609 0)
(153.54168 15.933064 0)
(152.09817 13.33005 0)
(151.24923 11.129255 0)
(150.75032 9.293525 0)
(150.45538 7.7579976 0)
(150.27891 6.4592287 0)
(150.17159 5.3438307 0)
(150.10503 4.3692426 0)
(150.06289 3.5020129 0)
(150.03575 2.7157267 0)
(150.01815 1.9892766 0)
(150.00716 1.305239 0)
(150.00155 0.64754234 0)
(154.38531 -3.2264128 0)
(154.36104 -3.2763482 0)
(154.35209 -3.365657 0)
(154.34548 -3.5056646 0)
(154.34209 -3.7001652 0)
(154.34314 -3.9560683 0)
(154.35202 -4.2822211 0)
(154.37465 -4.6898351 0)
(154.4205 -5.1926671 0)
(154.50529 -5.80744 0)
(154.65648 -6.5534344 0)
(154.91617 -7.4463661 0)
(155.33501 -8.4870494 0)
(155.98634 -9.6663844 0)
(157.0363 -10.969698 0)
(158.7181 -12.239148 0)
(161.00761 -12.990445 0)
(163.44219 -12.819352 0)
(165.52458 -11.932102 0)
(167.06703 -10.721725 0)
(168.2104 -9.6087537 0)
(169.22024 -8.6682235 0)
(170.23033 -7.7968923 0)
(171.25942 -6.8995248 0)
(172.42045 -6.0540442 0)
(173.93751 -5.1960514 0)
(175.90351 -4.0102297 0)
(178.21013 -2.1967331 0)
(180.68137 0.51389257 0)
(183.37351 4.0150882 0)
(185.59558 9.8510451 0)
(184.21843 19.141193 0)
(175.9947 28.862684 0)
(165.32564 28.72118 0)
(158.34142 25.418852 0)
(154.09604 21.018279 0)
(151.90623 17.149383 0)
(150.78834 13.997867 0)
(150.25051 11.488967 0)
(150.00811 9.4845541 0)
(149.913 7.8576921 0)
(149.88886 6.50987 0)
(149.8968 5.3684179 0)
(149.91719 4.3802706 0)
(149.94031 3.5062463 0)
(149.96157 2.7167922 0)
(149.97892 1.989083 0)
(149.99135 1.3047622 0)
(149.99812 0.64724097 0)
(153.47561 -3.2561417 0)
(153.37705 -3.3298643 0)
(153.30978 -3.4386778 0)
(153.23682 -3.5987931 0)
(153.16066 -3.8142982 0)
(153.08018 -4.0930021 0)
(152.99649 -4.4446985 0)
(152.91279 -4.8820143 0)
(152.83543 -5.4208813 0)
(152.77658 -6.0815751 0)
(152.76201 -6.8904638 0)
(152.83887 -7.8764374 0)
(153.06516 -9.0553839 0)
(153.51259 -10.434101 0)
(154.39402 -12.057066 0)
(156.14055 -13.846327 0)
(158.8497 -15.094565 0)
(161.75874 -14.978291 0)
(164.04123 -13.952289 0)
(165.43468 -12.558993 0)
(166.22819 -11.491841 0)
(166.92114 -10.755766 0)
(167.71744 -10.149321 0)
(168.53755 -9.472943 0)
(169.45585 -9.0181398 0)
(170.86712 -8.8483548 0)
(172.96928 -8.2920828 0)
(175.65779 -7.0428943 0)
(178.57216 -4.476543 0)
(182.42926 -0.72728549 0)
(187.15839 7.2307661 0)
(188.24556 20.228468 0)
(177.92812 36.681029 0)
(163.24699 34.969196 0)
(155.5947 29.536038 0)
(151.35119 23.102782 0)
(149.73668 18.092288 0)
(149.1848 14.388259 0)
(149.09723 11.621624 0)
(149.18648 9.5029442 0)
(149.33031 7.8291583 0)
(149.47858 6.4656286 0)
(149.61204 5.3226115 0)
(149.72459 4.3389851 0)
(149.81557 3.4717862 0)
(149.88647 2.6897353 0)
(149.93934 1.9692822 0)
(149.97543 1.2918439 0)
(149.99467 0.6408676 0)
(150.27861 -3.1552679 0)
(150.03198 -3.2213438 0)
(149.86063 -3.3060061 0)
(149.67254 -3.4358295 0)
(149.47246 -3.616031 0)
(149.25557 -3.8554382 0)
(149.01942 -4.1649126 0)
(148.76261 -4.559225 0)
(148.48548 -5.0584066 0)
(148.19176 -5.6900261 0)
(147.89692 -6.4944198 0)
(147.64242 -7.5277668 0)
(147.48317 -8.8431704 0)
(147.45914 -10.471258 0)
(147.78384 -12.507506 0)
(149.20302 -15.035364 0)
(152.18258 -17.053633 0)
(155.43125 -16.589299 0)
(157.5861 -14.746134 0)
(158.33639 -12.183462 0)
(158.23481 -10.348646 0)
(158.16906 -9.1901405 0)
(158.40397 -8.4350465 0)
(158.60251 -7.5247576 0)
(158.71873 -7.0237652 0)
(159.66765 -7.017618 0)
(161.78113 -5.9947868 0)
(164.94962 -4.8735824 0)
(168.68335 -1.9567619 0)
(175.06207 4.1667693 0)
(184.04686 12.175431 0)
(189.65396 24.095431 0)
(176.92314 49.629303 0)
(157.54553 45.387775 0)
(150.91436 34.317508 0)
(147.40324 24.793055 0)
(146.95732 18.491098 0)
(147.31608 14.34994 0)
(147.83444 11.452162 0)
(148.32309 9.3129414 0)
(148.73401 7.6556659 0)
(149.06588 6.3187891 0)
(149.32881 5.2029576 0)
(149.53445 4.2439437 0)
(149.69303 3.3981255 0)
(149.81295 2.6344619 0)
(149.90068 1.9299354 0)
(149.95989 1.266572 0)
(149.99131 0.62847588 0)
(143.5099 -2.9198269 0)
(143.10987 -3.0121922 0)
(142.7997 -3.1137182 0)
(142.45147 -3.2633167 0)
(142.07688 -3.4659031 0)
(141.66672 -3.7316158 0)
(141.21292 -4.072775 0)
(140.70609 -4.5065458 0)
(140.13586 -5.0566961 0)
(139.49026 -5.7559303 0)
(138.76264 -6.6519252 0)
(137.97551 -7.8156719 0)
(137.18231 -9.3207445 0)
(136.39285 -11.178067 0)
(135.76004 -13.4443 0)
(136.50386 -16.540642 0)
(140.14376 -19.656621 0)
(144.25781 -18.174225 0)
(146.43866 -15.446628 0)
(146.26447 -11.967185 0)
(144.63857 -10.768965 0)
(143.25526 -10.900759 0)
(142.63852 -11.37038 0)
(142.04304 -10.884922 0)
(141.16563 -10.369116 0)
(141.99173 -10.532129 9.2157699e-18)
(143.27224 -11.921802 -2.0396626e-19)
(145.57726 -13.589594 0)
(146.66477 -7.4755454 1.0016066e-17)
(144.0282 -14.51005 -7.4990618e-18)
(161.53017 -10.135072 4.4273291e-18)
(180.41243 5.4383807 -9.8916345e-18)
(167.93166 72.289496 6.3471813e-18)
(142.12824 58.029222 0)
(140.66652 37.126152 0)
(141.63428 24.706924 0)
(143.57067 17.830773 0)
(145.29833 13.69264 0)
(146.55469 10.912849 0)
(147.47727 8.8913061 0)
(148.16032 7.3301405 0)
(148.67269 6.0680695 0)
(149.06042 5.0101301 0)
(149.35481 4.0963443 0)
(149.57745 3.2864568 0)
(149.74366 2.551973 0)
(149.86425 1.8717968 0)
(149.94526 1.2294452 0)
(149.98814 0.610313 0)
(129.54799 -2.8693142 0)
(128.76409 -2.9446575 0)
(128.16038 -3.0084927 0)
(127.4861 -3.1100024 0)
(126.76119 -3.2511098 0)
(125.96659 -3.4389886 0)
(125.08413 -3.6816047 0)
(124.09076 -3.9906533 0)