/*--------------------------------*- C++ -*----------------------------------*\
| =========                 |                                                 |
| \\      /  F ield         | foam-extend: Open Source CFD                    |
|  \\    /   O peration     | Version:     4.1                                |
|   \\  /    A nd           | Web:         http://www.foam-extend.org         |
|    \\/     M anipulation  |                                                 |
\*---------------------------------------------------------------------------*/
FoamFile
{
    version     2.0;
    format      ascii;
    class       volScalarField;
    location    "0.1";
    object      p;
}
// * * * * * * * * * * * * * * * * * * * * * * * * * * * * * * * * * * * * * //

dimensions      [0 2 -2 0 0 0 0];

internalField   nonuniform List<scalar> 
16796
(
-4.104993
7.3415723
16.381206
25.067793
33.531945
41.876578
50.148466
58.369314
66.545928
74.674729
82.743938
90.734598
98.621271
106.37245
113.95108
121.315
128.4176
135.20847
141.63411
147.63786
153.16109
158.14542
162.53325
166.26801
169.29523
171.56342
173.02492
173.63676
173.36134
172.16738
170.03015
166.93088
162.85743
157.80621
151.78217
144.79864
136.87767
128.05026
118.35677
107.84721
96.581589
84.630247
72.074149
59.00527
45.526787
31.753303
17.810922
3.8372284
-10.018922
-23.597815
-36.729481
-49.234562
-60.92544
-71.607583
-81.08118
-89.143032
-95.588605
-100.21429
-102.81981
-103.21062
-101.2004
-96.613496
-89.287232
-79.074065
-65.843555
-49.484195
-29.904668
-7.0351376
19.171561
48.739159
81.670714
117.95107
157.5404
200.33995
246.22664
295.09018
346.79871
401.19346
458.09246
517.29322
578.57438
641.69764
706.40995
772.44601
839.53105
907.38383
975.71989
1044.2548
1112.7078
1180.8044
1248.2806
1314.8846
1380.3803
1444.549
1507.1913
1568.1283
1627.2025
1684.2784
1739.2419
1792.0007
1842.4826
1890.6352
1936.4241
1979.8318
2020.8558
2059.5072
2095.809
2129.7943
2161.5048
2190.9896
2218.3046
2243.51
2266.6649
2287.8333
2307.087
2324.4995
2340.1589
2354.1827
2366.6834
2377.6271
2386.9272
2395.4458
2407.271
2424.4363
-1.9580276
7.8873543
16.632368
25.198236
33.614501
41.93908
50.203941
58.424894
66.606179
74.742997
82.822937
90.826667
98.728486
106.4967
114.09412
121.47842
128.60278
135.4164
141.86535
147.89198
153.43708
158.44263
162.851
166.60541
169.65128
171.9369
173.41439
174.04055
173.77757
172.59394
170.46462
167.36987
163.29675
158.24172
152.20958
145.21346
137.27529
128.4259
118.70557
108.16417
96.861663
84.868321
72.265127
59.144089
45.608489
31.773089
17.76422
3.7197633
-10.211058
-23.868081
-37.080817
-49.669316
-61.445297
-72.213509
-81.773377
-89.920895
-96.45071
-101.15839
-103.84284
-104.30873
-102.36905
-97.847466
-90.580751
-80.420895
-67.237089
-50.917636
-31.37107
-8.5276855
17.659467
47.213362
80.131158
116.38233
155.91572
198.67553
244.57813
293.49454
345.27584
399.75622
456.75116
516.05684
577.45097
640.69439
705.53316
771.70094
838.92177
906.91309
975.38898
1044.0635
1112.6542
1180.8852
1248.4907
1315.2177
1380.8288
1445.104
1507.8431
1568.8666
1628.0164
1685.1567
1740.1735
1792.9745
1843.4879
1891.6617
1937.4621
1980.8722
2021.8903
2060.5282
2096.8095
2130.7679
2162.4456
2191.8917
2219.161
2244.3127
2267.4125
2288.5272
2307.7218
2325.0648
2340.6388
2354.5442
2366.8602
2377.5509
2386.6447
2394.8822
2404.394
2413.7612
-0.21073264
8.3581634
16.642414
24.979151
33.274674
41.531433
49.758471
57.961633
66.140615
74.288426
82.39149
90.429742
98.376929
106.20087
113.86365
121.3219
128.52727
135.42784
141.9685
148.09254
153.74202
158.85663
163.37614
167.24192
170.39736
172.78895
174.367
175.08645
174.90748
173.79599
171.72422
168.67292
164.63093
159.59345
153.56361
146.55359
138.58439
129.68635
119.89938
109.27326
97.868082
85.754449
73.013913
59.73927
46.034807
32.016511
17.812139
3.5611922
-10.585309
-24.465247
-37.906044
-50.725552
-62.733214
-73.731454
-83.517366
-91.884631
-98.625649
-103.53384
-106.40608
-107.04521
-105.2625
-100.8802
-93.733797
-83.674255
-70.56988
-54.308391
-34.797839
-11.967846
14.228592
43.813688
76.782791
113.10734
152.73509
195.59751
241.60471
290.63552
342.54618
397.17303
454.33203
513.81895
575.41061
638.86662
703.93143
770.33678
837.80444
906.04931
974.7827
1043.7158
1112.563
1181.0457
1248.8951
1315.8556
1381.6873
1446.1684
1509.0968
1570.2917
1629.5944
1686.8684
1741.9999
1794.8968
1845.4879
1893.7223
1939.5672
1983.0073
2024.0422
2062.6854
2098.9622
2132.9079
2164.5666
2193.9891
2221.2313
2246.3537
2269.4214
2290.5019
2309.663
2326.9755
2342.5208
2356.386
2368.6257
2379.233
2388.3757
2396.587
2404.3686
2409.2842
0.70712945
8.8641266
16.880322
25.045135
33.238276
41.435706
49.631008
57.821738
66.003224
74.166129
82.295535
90.370539
98.364258
106.24366
113.96946
121.49735
128.77911
135.76238
142.39113
148.60721
154.351
159.56129
164.1769
168.13796
171.38669
173.86834
175.5319
176.33104
176.22456
175.17709
173.15949
170.15031
166.13601
161.1109
155.07729
148.04629
140.03802
131.082
121.21753
110.49393
98.970998
86.719322
73.820645
60.368217
46.467048
32.23412
17.798467
3.301138
-11.105038
-25.255888
-38.976555
-52.082422
-64.380306
-75.669895
-85.745477
-94.397915
-101.41682
-106.59292
-109.72054
-110.60012
-109.04082
-104.86297
-97.900447
-88.002879
-75.037418
-58.891166
-39.471406
-16.706824
9.4494849
39.017785
71.993269
108.35228
148.04657
191.00665
237.13918
286.32432
338.41878
393.258
450.65666
510.40924
572.291
636.05961
701.45709
768.21224
836.04344
904.66172
973.77421
1043.0876
1112.3119
1181.1638
1249.3704
1316.6718
1382.8247
1447.604
1510.8051
1572.2453
1631.7645
1689.2255
1744.5145
1797.5395
1848.2304
1896.5375
1942.4297
1985.8934
2026.9303
2065.556
2101.7978
2135.6933
2167.2885
2196.636
2223.7939
2248.8242
2271.7923
2292.7652
2311.8105
2328.9988
2344.4076
2358.1101
2370.1473
2380.5453
2389.5339
2397.4151
2404.0105
2407.3179
0.95483095
8.9882307
16.840244
24.869576
32.967696
41.104437
49.266279
57.44579
65.63524
73.823482
81.994492
90.12658
98.191866
106.15559
113.97761
121.61378
129.01518
136.12786
142.89432
149.25457
155.14673
160.50772
165.27441
169.38472
172.77862
175.399
177.19256
178.11063
178.10982
177.15276
175.20871
172.25429
168.27377
163.25976
157.21356
150.14506
142.07337
133.02716
123.04514
112.1763
100.48041
88.028298
74.902274
61.196472
47.017122
32.482764
17.724327
2.8850869
-11.879576
-26.402637
-40.506115
-54.002026
-66.693623
-78.376885
-88.842302
-97.876911
-105.26654
-110.79825
-114.26285
-115.45755
-114.18852
-110.27348
-103.54403
-93.847978
-81.050809
-65.038867
-45.718152
-23.016568
3.1123914
32.686547
65.700687
102.13102
141.9302
185.02843
231.33207
280.72279
333.05876
388.17585
445.88835
505.9897
568.25346
632.4349
698.27293
765.49249
833.80742
902.92363
972.54262
1042.3652
1112.0952
1181.4433
1250.1308
1317.8926
1384.4802
1449.6646
1513.2378
1575.0144
1634.8326
1692.5545
1748.0659
1801.2755
1852.1146
1900.535
1946.5081
1990.0225
2031.0831
2069.7081
2105.9279
2139.7829
2171.3217
2200.5996
2227.6767
2252.617
2275.4867
2296.3531
2315.2835
2332.3465
2347.6126
2361.1407
2372.9626
2383.1194
2391.8137
2399.1242
2404.6948
2407.1872
1.0814731
9.1184869
16.884616
24.822236
32.846843
40.932978
49.066117
57.236915
65.436082
73.651435
81.86629
90.058187
98.197829
106.24924
114.17298
121.92418
129.45203
136.70138
143.61321
150.12563
156.17477
161.69552
166.62266
170.89187
174.44075
177.20979
179.14323
180.18992
180.30403
179.44572
177.58205
174.68733
170.74354
165.74112
159.67977
152.56788
144.42326
135.27346
125.15634
114.12031
102.22484
89.540796
76.150878
62.149986
47.645505
32.757537
17.618984
2.3755113
-12.814706
-27.781458
-42.343214
-56.308114
-69.47526
-81.63626
-92.57708
-102.08017
-109.92676
-115.89943
-119.78469
-121.37568
-120.47487
-116.89664
-110.46968
-101.03936
-88.468948
-72.643543
-53.46732
-30.866877
-4.795715
24.762328
57.803393
94.304822
134.21991
177.47882
223.98788
273.6293
326.26179
381.72124
439.82133
500.35416
563.0912
627.78475
694.16983
761.96653
830.88296
900.61852
970.86758
1041.3234
1111.682
1181.6465
1250.9307
1319.2627
1386.3878
1452.0718
1516.1023
1578.2907
1638.4732
1696.5106
1752.2886
1805.7169
1856.7281
1905.2766
1951.3364
1994.8998
2035.9747
2074.5835
2110.7604
2144.5495
2176.0032
2205.1802
2232.1439
2256.961
2279.6999
2300.4294
2319.2183
2336.1347
2351.2449
2364.6009
2376.2354
2386.1967
2394.6381
2401.4882
2406.392
2408.4584
0.9965001
9.0376445
16.742476
24.608534
32.571098
40.612999
48.722255
56.889976
65.106722
73.360143
81.633255
89.902645
98.137419
106.30219
114.35716
122.25538
129.94469
137.36815
144.46465
151.17003
157.41783
163.14029
168.26936
172.7378
176.48019
179.43393
181.54017
182.74473
182.99878
182.25961
180.49161
177.6664
173.7634
168.77074
162.68635
155.51684
147.27868
137.9983
127.71266
116.46963
104.32848
91.36026
77.648261
63.288389
48.389483
33.073563
17.475923
1.7450974
-13.957396
-29.457544
-44.569583
-59.097029
-72.834021
-85.566934
-97.076314
-107.13909
-115.53098
-122.02915
-126.41492
-128.47657
-128.0121
-124.83191
-118.76127
-109.64268
-97.336953
-81.727783
-62.717422
-40.231319
-14.223491
15.320709
48.398087
84.986787
125.0409
168.49127
215.245
265.18534
318.17183
374.04068
432.60512
493.65593
556.96227
622.273
689.31847
757.81299
827.45768
897.94401
968.95761
1040.1825
1111.3052
1182.0194
1252.0297
1321.056
1388.836
1455.1289
1519.7173
1582.4085
1643.0362
1701.4598
1757.5649
1811.2623
1862.4866
1911.1947
1957.3643
2000.9915
2042.0886
2080.6823
2116.8114
2150.5243
2181.8778
2210.9343
2237.7609
2262.4272
2285.0039
2305.5615
2324.1699
2340.8963
2355.8039
2368.9412
2380.3442
2390.0626
2398.2107
2404.6496
2409.0922
2410.9074
0.90661993
8.9629074
16.622825
24.432528
32.34321
40.346676
48.435226
56.601998
64.838531
73.133131
81.468778
89.821068
98.158716
106.44711
114.64477
122.70351
130.56967
138.1843
145.48415
152.40252
158.87018
164.81638
170.16995
174.86035
178.81878
181.97917
184.2792
185.66119
186.07295
185.46842
183.80881
181.06272
177.20666
172.22605
166.11632
158.88218
150.53853
141.1103
130.63337
119.15482
106.73359
93.440791
79.360225
64.588815
49.236923
33.42863
17.301845
1.0082875
-15.28678
-31.405047
-47.155927
-62.337634
-76.738585
-90.139086
-102.31337
-113.03188
-122.06389
-129.18015
-134.15585
-136.77346
-136.82566
-134.1181
-128.47188
-119.72604
-107.73847
-92.390893
-73.583322
-51.239876
-25.315294
4.2048819
37.318016
74.002367
114.213
157.88162
204.91635
255.20148
308.59749
364.94102
424.04493
485.69866
549.66879
615.70025
683.51805
752.8296
823.32782
894.6947
966.60544
1038.7329
1110.7524
1182.3461
1253.208
1323.0476
1391.5939
1458.5984
1523.8374
1587.1139
1648.2582
1707.1286
1763.6107
1817.6166
1869.0833
1917.9715
1964.263
2007.9586
2049.0762
2087.6478
2123.7176
2157.3398
2188.5762
2217.4943
2244.1654
2268.6632
2291.0615
2311.4332
2329.8498
2346.3783
2361.0797
2374.0012
2385.18
2394.6611
2402.5307
2408.6292
2412.7448
2414.3982
0.7186852
8.7716042
16.385239
24.142965
32.006362
39.975402
48.047354
56.218349
64.481763
72.82715
81.237717
89.688408
98.148431
106.58286
114.9487
123.19636
131.27033
139.10937
146.64761
153.81538
160.54018
166.74776
172.36326
177.31228
181.52204
184.92248
187.44723
189.03464
189.62858
189.17925
187.64416
184.98856
181.18571
176.21791
170.07785
162.76834
154.30247
144.70356
134.00629
122.25694
109.51408
95.84893
81.345892
66.103031
50.232422
33.860463
17.128006
0.1903547
-16.782995
-33.608864
-50.091187
-66.022135
-81.183578
-95.348868
-108.28497
-119.7549
-129.52041
-137.34491
-142.99648
-146.25089
-146.8947
-144.72809
-139.56746
-131.24791
-119.62421
-104.5758
-86.000533
-63.821218
-37.993077
-8.5018949
24.649598
61.440345
101.82659
145.74135
193.09417
243.77088
297.63323
354.51864
414.23985
476.58501
541.31802
608.17943
676.88813
747.14364
818.62926
891.01588
963.96642
1037.1407
1110.2004
1182.8145
1254.664
1325.4466
1394.8808
1462.709
1528.7004
1592.6526
1654.3925
1713.7767
1770.691
1825.049
1876.791
1925.8817
1972.3078
2016.076
2057.2102
2095.7488
2131.7425
2165.2518
2196.3445
2225.0938
2251.5765
2275.8706
2298.0543
2318.2038
2336.3929
2352.6902
2367.1564
2379.8399
2390.7796
2400.0159
2407.6193
2413.4315
2417.3022
2418.8422
0.52210599
8.567937
16.13252
23.838564
31.655482
39.590616
47.646419
55.822609
64.115062
72.515046
81.006397
89.563983
98.15759
106.7517
115.30213
123.75781
132.0612
140.14859
147.95123
155.39615
162.40722
168.90627
174.81426
180.05246
184.54365
188.21322
190.99027
192.80863
193.6078
193.33369
191.93965
189.38717
185.64582
180.69435
174.52232
167.13026
158.52919
148.74058
137.79769
125.74586
112.64315
98.560795
83.583775
67.811336
51.357378
34.350801
16.935673
-0.72874954
-18.468276
-36.094291
-53.404582
-70.1845
-86.208509
-101.24205
-115.04379
-127.36823
-137.96853
-146.59962
-153.02137
-157.00185
-158.32054
-156.77131
-152.16518
-144.3327
-133.12515
-118.41942
-100.11106
-78.12145
-52.406034
-22.951368
10.239499
47.146231
87.726293
131.91424
179.62145
230.73568
285.12045
342.61433
403.03036
466.15557
531.75109
599.55275
669.27259
740.60115
813.21068
886.75923
960.89541
1035.2637
1109.5103
1183.2883
1256.264
1328.1211
1398.5659
1467.3305
1534.1758
1598.8933
1661.3062
1721.2695
1778.6692
1833.4213
1885.4696
1934.7839
1981.3569
2025.2019
2066.3502
2104.8475
2140.752
2174.1316
2205.061
2233.6201
2259.8916
2283.959
2305.905
2325.8098
2343.7503
2359.7967
2374.0116
2386.445
2397.1378
2406.1279
2413.4795
2419.0455
2422.7224
2424.1764
0.265369
8.2895507
15.796141
23.44623
31.214573
39.11511
47.155519
55.339479
63.665922
72.128173
80.710946
89.389452
98.134151
106.90877
115.66789
124.35881
132.9217
141.29004
149.39182
157.15031
164.48525
171.31404
177.55293
183.11829
187.92784
191.90188
194.9644
197.04418
198.07576
198.00032
196.76651
194.33165
190.66123
185.73004
179.52413
172.04161
163.29122
153.29239
142.07685
129.68887
116.18592
101.63923
86.13436
69.771814
52.667444
34.952863
16.775644
-1.7006222
-20.296567
-38.817554
-57.054528
-74.785225
-91.775796
-107.78278
-122.55549
-135.83879
-147.37609
-156.91267
-164.19913
-168.99477
-171.07105
-170.21476
-166.23084
-158.94489
-148.20436
-133.88351
-115.87556
-94.100516
-68.513981
-39.103757
-5.8733073
31.157881
71.948716
116.43568
164.5325
216.12942
271.09236
329.26172
390.45129
454.44735
521.00829
589.86492
660.72172
733.25908
807.13667
881.99774
957.47439
1033.1934
1108.7827
1183.8774
1258.1263
1331.1972
1402.7822
1472.6016
1540.4068
1605.9825
1669.1479
1729.756
1787.6937
1842.8796
1895.2619
1944.8163
1991.5426
2035.462
2076.6139
2115.053
2150.8459
2184.0689
2214.8049
2243.1414
2269.168
2292.9747
2314.6496
2334.2778
2351.9401
2367.7097
2381.6517
2393.8189
2404.2545
2412.9959
2420.1069
2425.4542
2428.9687
2430.3529
-0.015080628
7.9789631
15.417202
23.003681
30.717592
38.579101
46.601158
54.791712
63.153227
71.681346
80.361742
89.170975
98.080123
107.05179
116.03959
124.98905
133.83778
142.51626
150.94881
159.05456
166.74868
173.9436
180.55029
186.47967
191.64383
195.95738
199.3386
201.71066
203.00259
203.15029
202.09722
199.79603
196.20769
191.30267
185.06301
177.48409
168.572
158.344
146.83007
134.07325
120.13026
105.07221
88.985238
71.971101
54.147708
35.649558
16.628003
-2.7486614
-22.295403
-41.810962
-61.078712
-79.867926
-97.935474
-115.02792
-130.88405
-145.23783
-157.82168
-168.36995
-176.62268
-182.32922
-185.25195
-185.16965
-181.88049
-175.20453
-164.98506
-151.09361
-133.42113
-111.88626
-86.444866
-57.086626
-23.815859
13.3487
54.367502
99.179324
147.70076
199.82532
255.42211
314.33418
376.37681
441.33604
508.96775
578.99752
651.12158
725.00903
800.30525
876.63663
953.61633
1030.8508
1107.9467
1184.5186
1260.195
1334.6256
1407.4863
1478.4838
1547.359
1613.889
1677.8884
1739.2088
1797.738
1853.3979
1906.1422
1955.9535
2002.8398
2046.8315
2087.9776
2126.3424
2162.0025
2195.0437
2225.5582
2253.6418
2279.3923
2302.9065
2324.2792
2343.6008
2360.9568
2376.4246
2390.0726
2401.9572
2412.1246
2420.6137
2427.4912
2432.6372
2436.0085
2437.3323
-0.34253102
7.6081236
14.96472
22.477384
30.128968
37.945702
45.94591
54.142103
62.540617
71.139771
79.926761
88.879681
97.969808
107.15902
116.39979
125.63563
134.80145
143.82434
152.62454
161.11659
169.21052
176.81322
183.82983
190.16514
195.72499
200.41766
204.15512
206.85428
208.43808
208.8366
207.98751
205.83837
202.34509
197.47348
191.20125
183.52051
174.4344
163.95811
152.11963
138.96055
124.53677
108.91917
92.194429
74.465574
55.852657
36.493232
16.542693
-3.8255906
-24.420435
-45.033339
-65.439362
-85.398428
-104.65712
-122.95087
-140.00674
-155.54647
-169.2901
-180.95971
-190.28342
-196.99943
-200.8599
-201.63466
-199.11436
-193.11307
-183.46965
-170.05292
-152.75174
-131.48359
-106.20482
-76.907637
-43.597624
-6.2928017
34.968992
80.129263
129.10818
181.80336
238.08817
297.80934
360.78464
426.80063
495.61104
566.93611
640.46321
715.84888
792.72244
870.69105
949.34614
1028.2707
1107.0475
1185.2666
1262.534
1338.4781
1412.7566
1485.0607
1555.1196
1622.7021
1687.6179
1749.717
1808.8889
1865.0597
1918.1896
1968.2692
2015.3163
2059.3716
2100.4952
2138.7628
2174.262
2207.0894
2237.3476
2265.1422
2290.5795
2313.7647
2334.7997
2353.7813
2370.8003
2385.9388
2399.2698
2410.8537
2420.7402
2428.9713
2435.618
2440.5727
2443.8117
2445.0806
-0.70652211
7.1879971
14.447239
21.872563
29.450337
37.212974
45.184387
53.381986
61.816317
70.488834
79.388806
88.495736
97.781177
107.20653
116.72301
126.27199
135.7854
145.18657
154.3913
163.30898
171.84398
179.89705
187.36684
194.15136
200.14955
205.26266
209.3957
212.45868
214.36784
215.04681
214.42701
212.45024
209.06699
204.23807
197.93646
190.15
180.87896
170.13642
157.94806
144.35385
129.40863
113.18296
95.763933
77.255846
57.780938
37.479959
16.512578
-4.9423982
-26.687149
-48.505304
-70.162822
-91.40935
-111.98009
-131.59814
-149.97743
-166.82607
-181.8502
-194.75807
-205.26442
-213.09484
-217.99004
-219.70983
-218.03652
-212.77766
-203.76738
-190.87192
-173.97832
-153.00316
-127.90373
-98.675672
-65.326603
-27.874068
13.645868
59.177896
108.64654
161.95466
218.98112
279.57776
343.56613
410.73434
480.83461
553.58193
628.65423
705.6942
784.3131
864.09632
944.61048
1025.4118
1106.0551
1186.1031
1265.1354
1342.7566
1418.6034
1492.3498
1563.7118
1632.449
1698.3661
1761.3121
1821.1784
1877.8964
1931.4339
1981.7915
2028.9977
2073.1054
2114.1874
2152.3318
2187.6391
2220.2181
2250.1826
2277.6492
2302.7342
2325.5516
2346.2113
2364.8173
2381.4667
2396.2471
2409.2363
2420.4994
2430.0906
2438.0555
2444.4701
2449.2377
2452.3499
2453.5667
-1.11612
6.7069589
13.850768
21.172908
28.663243
36.360666
44.294998
52.48894
60.957631
69.706122
78.726163
87.998651
97.495529
107.17781
116.99534
126.88715
136.78193
146.59887
156.24882
165.63551
174.65704
183.20737
191.17795
198.45933
204.94279
210.52186
215.09385
218.56122
220.8328
221.82517
221.46294
219.6815
216.42554
211.6504
205.32366
197.42842
187.96221
176.93565
164.37192
150.30916
134.80101
117.91755
99.746183
80.392435
59.980759
38.655209
16.579954
-6.0604256
-29.060987
-52.196851
-75.224078
-97.881056
-119.89046
-140.96175
-160.79427
-179.08094
-195.51233
-209.78121
-221.5873
-230.64205
-236.67333
-239.42979
-238.68456
-234.23819
-225.91982
-213.59339
-197.14454
-176.48949
-151.58705
-122.43741
-89.051035
-51.44529
-9.6544128
36.269987
86.257735
140.21824
198.0375
259.57421
324.65534
393.07196
464.57572
538.87664
615.64266
694.5013
775.0436
856.83024
939.39952
1022.2769
1104.9854
1187.0562
1268.0389
1347.5107
1425.0847
1500.4157
1573.2047
1643.2018
1710.2063
1774.0663
1834.6766
1891.9747
1945.9378
1996.5776
2043.9357
2088.0786
2129.0935
2167.083
2202.1616
2234.4517
2264.0801
2291.1751
2315.8641
2338.2711
2358.5147
2376.7069
2392.9515
2407.3424
2419.9629
2430.8834
2440.1624
2447.8505
2454.0281
2458.6083
2461.5952
2462.7609
-1.5728261
6.1611636
13.168164
20.367684
27.753281
35.370783
43.256363
51.43848
59.937314
68.762018
77.907216
87.35532
97.078755
107.03821
117.18207
127.44684
137.75766
148.02915
158.16671
168.06784
177.6237
186.72074
195.2425
203.07128
210.08992
216.18349
221.24084
225.15612
227.83011
229.17162
229.09793
227.53734
224.42833
219.72032
213.37484
205.36978
195.69972
184.37268
171.40906
156.8449
140.73247
123.14115
104.15853
83.891252
62.465958
40.030086
16.752484
-7.1761703
-31.543342
-56.114999
-80.636469
-104.83385
-128.41608
-151.07754
-172.50142
-192.36369
-210.33754
-226.09837
-239.32903
-249.72508
-257.00001
-260.89
-261.15805
-257.59713
-250.03122
-238.32231
-222.35525
-202.04664
-177.35764
-148.2945
-114.87174
-77.107061
-35.032951
11.303216
61.83767
116.48797
175.14929
237.68932
303.94265
373.70517
446.72926
522.72049
601.33643
682.18805
764.84376
848.83623
933.67148
1018.8398
1103.8276
1188.1299
1271.2621
1352.7703
1432.2408
1509.3068
1583.6533
1655.0195
1723.1997
1788.0417
1849.4443
1907.3531
1961.7562
2012.6784
2060.1762
2104.332
2145.2491
2183.0463
2217.8542
2249.81
2279.0548
2305.7303
2329.9757
2351.9258
2371.709
2389.446
2405.248
2419.2157
2431.4384
2441.9919
2450.94
2458.3377
2464.2704
2468.6595
2471.5199
2472.6342
-2.0803208
5.5447048
12.390737
19.445379
26.706214
34.226596
42.0496
50.209985
58.733466
67.633824
76.908973
86.543005
96.50889
106.76704
117.26429
127.93439
138.69859
149.46651
160.13754
170.60228
180.74426
190.44168
199.56932
208.00043
215.60859
222.26954
227.86287
232.27366
235.39388
237.12388
237.37297
236.06166
233.12179
228.49633
222.14023
214.02551
204.14371
192.5001
179.11196
164.01307
147.25418
128.9037
109.04923
87.798393
65.279959
41.644772
17.066508
-8.2577756
-34.107495
-60.238824
-86.385506
-112.26029
-137.55704
-161.95357
-185.11518
-206.69899
-226.3588
-243.75057
-258.53819
-270.39939
-279.03152
-284.15689
-285.52729
-282.92756
-276.17639
-265.13432
-249.68633
-229.75039
-205.29118
-176.32282
-142.86531
-104.93744
-62.570108
-15.805877
35.299164
90.672687
150.22146
213.82496
281.32811
352.53404
427.19762
505.02085
585.6507
668.68009
753.65214
840.06778
927.39614
1015.0871
1102.5853
1189.3442
1274.8399
1358.5834
1440.1308
1519.091
1595.1313
1667.9796
1737.4251
1803.3161
1865.5571
1924.1033
1978.9557
2030.1546
2077.7736
2121.9132
2162.6949
2200.256
2234.7445
2266.3145
2295.1228
2321.3254
2345.0747
2366.5174
2385.7923
2403.0293
2418.348
2431.856
2443.6491
2453.8091
2462.4051
2469.4967
2475.1737
2479.3653
2482.0956
2483.1574
-2.6448602
4.8475734
11.504436
18.387879
25.499901
32.902099
40.645112
48.770634
57.310483
66.283671
75.691869
85.521053
95.744804
106.32331
117.20175
128.31087
139.56766
150.87624
162.12939
173.21012
183.99353
194.34872
204.14088
213.23329
221.48937
228.77465
234.9586
239.9164
243.53041
245.69178
246.30124
245.27078
242.52514
238.00029
231.64419
223.42216
213.32252
201.34753
187.51124
171.84495
154.39756
135.23626
114.44841
92.142416
68.449055
43.522542
17.541471
-9.2904712
-36.744227
-64.565535
-92.475683
-120.17294
-147.33474
-173.62065
-198.67622
-222.1376
-243.63695
-262.80842
-279.29462
-292.75322
-302.86342
-309.33199
-311.89832
-310.33851
-304.46585
-294.14009
-279.24751
-259.70881
-235.49382
-206.62676
-173.13509
-135.03977
-92.370444
-45.164311
6.5317192
62.657771
123.13525
187.85882
256.68723
329.43395
405.85873
485.66127
568.47788
653.88192
741.38826
830.46182
920.52949
1010.9948
1101.2543
1190.7138
1278.8046
1364.9976
1448.8148
1529.8382
1607.7158
1682.1634
1752.9655
1819.9722
1883.0949
1942.3009
1997.6065
2049.0701
2096.7849
2140.8718
2181.4734
2218.7472
2252.8608
2283.987
2312.2997
2337.9706
2361.1664
2382.0465
2400.761
2417.4497
2432.2409
2445.25
2456.5794
2466.317
2474.5371
2481.3045
2486.7126
2490.698
2493.2932
2494.3004
-3.2693655
4.06403
10.499897
17.182157
24.117753
31.377356
39.019944
47.094857
55.640653
64.682231
74.225551
84.258701
94.755945
105.6773
116.96619
128.55007
140.34129
152.2379
164.12542
175.87849
187.36296
198.43791
208.95798
218.7755
227.74277
235.71416
242.54808
248.1089
252.26855
254.90821
255.91928
255.20456
252.68113
248.2773
241.93374
233.60859
223.28629
210.96561
196.65769
180.39107
162.21249
142.18761
120.40323
96.968292
72.015369
45.701959
18.211603
-10.245193
-39.430509
-69.079033
-98.898718
-128.57218
-157.75897
-186.09864
-213.2149
-238.72065
-262.22386
-283.33426
-301.67053
-316.8677
-328.58456
-336.51042
-340.37093
-339.93276
-335.00374
-325.44369
-311.14171
-292.02312
-268.06494
-239.3043
-205.77851
-167.5122
-124.53437
-76.876302
-24.573992
32.327946
93.769255
159.66405
229.88924
304.27262
382.58194
464.51641
549.70191
637.69064
727.9659
819.95162
913.02632
1006.5402
1099.8343
1192.2598
1283.1967
1372.0703
1458.3643
1541.6307
1621.4962
1697.6645
1769.9158
1838.1031
1902.1474
1962.0304
2017.7865
2069.4951
2117.2721
2161.2618
2201.63
2238.5573
2272.2329
2302.8499
2330.6012
2355.6754
2378.2547
2398.5121
2416.6099
2432.6982
2446.9146
2459.3824
2470.2111
2479.4947
2487.3133
2493.7361
2498.86
2502.6284
2505.082
2506.0322
-3.9616389
3.1816938
9.3599325
15.806287
22.533202
29.621381
37.139031
45.143955
53.682173
62.78522
72.463959
82.708846
93.494904
104.78205
116.51181
128.60808
140.97808
153.51322
166.09101
178.57688
190.82648
202.6879
214.00417
224.61564
234.36242
243.08668
250.63478
256.85935
261.62099
264.79005
266.24794
265.88752
263.61753
259.35798
253.04222
244.62131
234.07346
221.39371
206.59168
189.6924
170.74009
149.79843
126.95333
102.31393
76.014327
48.215104
19.1047
-11.099441
-42.150199
-73.770619
-105.65444
-137.46742
-168.84964
-199.41877
-228.77443
-256.50366
-282.18745
-305.4081
-325.75733
-342.84461
-356.30561
-365.81001
-371.0681
-371.83631
-367.91707
-359.17119
-345.49255
-326.8136
-303.12132
-274.46917
-240.90725
-202.46609
-159.17501
-111.05883
-58.140677
-0.44651423
61.986266
129.09648
200.78468
276.89804
357.21636
441.44087
529.18754
619.98583
713.28363
808.45822
904.83248
1001.6951
1098.323
1194.0046
1288.061
1379.8656
1468.8589
1554.5598
1636.572
1714.5866
1788.3804
1857.8116
1922.8129
1983.3836
2039.5798
2091.5052
2139.3015
2183.1399
2223.2124
2259.7249
2292.8908
2322.9255
2350.0423
2374.4484
2396.3424
2415.9118
2433.3318
2448.7635
2462.3542
2474.2353
2484.5237
2493.3195
2500.7083
2506.764
2511.5865
2515.1257
2517.43
2518.3201
-4.7257779
2.1926437
8.0719345
14.242953
20.724343
27.607917
34.972129
42.884159
51.398285
60.553517
70.36631
80.829791
91.919837
103.59635
115.79881
128.44723
141.44324
154.67091
167.99892
181.2826
194.36634
207.08618
219.27239
230.75221
241.3524
250.90181
259.23368
266.18787
271.61272
275.36689
277.32092
277.35721
275.37523
271.28631
265.0163
256.50843
245.7331
232.68228
217.36421
199.80005
180.03107
158.11861
134.1472
108.22575
80.489477
51.101788
20.255872
-11.823855
-44.880809
-78.625848
-112.73762
-146.8638
-180.62338
-213.61006
-245.39691
-275.5423
-303.59704
-329.11264
-351.65035
-370.79071
-386.14318
-397.35516
-404.11971
-406.18206
-403.33936
-395.45452
-382.42852
-364.20419
-340.78269
-312.23746
-278.63476
-240.01446
-196.4076
-147.83206
-94.295856
-35.802256
27.63973
96.000126
169.20995
247.14217
329.59382
416.27156
506.78242
600.63145
697.22686
795.89256
895.88729
996.42852
1096.7192
1195.9749
1293.4495
1388.4571
1480.3897
1568.7294
1653.0555
1733.0461
1808.4762
1879.2113
1945.1995
2006.4611
2063.0778
2115.1817
2162.9443
2206.5667
2246.2707
2282.2903
2314.8654
2344.236
2370.6374
2394.2968
2415.4304
2434.2411
2450.9174
2465.6323
2478.5426
2489.7885
2499.494
2507.7656
2514.6945
2520.3586
2524.8606
2528.157
2530.3033
2531.13
-5.5700415
1.0832997
6.6166045
12.467204
18.660695
25.301225
32.478655
40.270567
48.740395
57.935562
67.878915
78.566587
89.975426
102.06541
114.77385
128.01647
141.68877
155.66673
169.80933
183.96074
197.953
211.60884
224.7446
237.17311
248.70657
259.1593
268.35025
276.10543
282.2599
286.65973
289.16372
289.64325
287.98754
284.09918
277.89584
269.31167
258.30881
244.87682
229.02206
210.76152
190.13317
167.19554
142.03121
114.74835
85.482806
54.400413
21.698833
-12.390616
-47.601713
-83.632652
-120.14615
-156.77053
-193.10199
-228.70805
-263.13254
-295.90201
-326.53355
-354.54397
-379.4601
-400.82957
-418.23196
-431.28933
-439.67523
-443.12251
-441.42314
-434.44346
-422.09427
-404.33304
-381.1815
-352.73595
-319.08303
-280.27779
-236.35453
-187.32389
-133.17615
-73.887099
-9.4306272
60.20252
134.98234
214.81567
299.52351
388.82234
482.31187
579.47107
679.66351
782.15191
886.12076
990.70485
1095.0212
1198.2013
1299.4216
1397.9286
1493.0598
1584.2568
1671.0725
1753.1729
1830.3326
1902.4279
1969.4259
2031.3725
2088.3796
2140.6121
2188.2758
2231.6058
2270.8569
2306.2945
2338.1877
2366.803
2392.3998
2415.2264
2435.5178
2453.4932
2469.3551
2483.2883
2495.4599
2506.0188
2515.0962
2522.8049
2529.2413
2534.4875
2538.6487
2541.6871
2543.666
2544.4254
-6.5001915
-0.15712127
4.9772378
10.456395
16.313794
22.667299
29.619498
37.259521
45.660952
54.880648
64.948754
75.864818
87.606809
100.1349
113.38407
127.26535
141.66748
156.45756
171.48384
186.57819
201.55908
216.23463
230.40587
243.86986
256.42288
267.86341
277.99488
286.62828
293.58432
298.69551
301.80798
302.78151
301.49409
297.83939
291.72639
283.07916
271.8507
258.02858
241.61742
222.62947
201.09891
177.0812
150.65621
121.93071
91.04056
58.15345
23.471117
-12.768434
-50.289285
-88.776575
-127.8763
-167.19617
-206.30779
-244.75018
-282.03499
-317.65344
-351.08488
-381.80709
-409.30779
-433.09714
-452.7205
-467.77087
-477.89955
-482.82549
-482.33569
-476.30134
-464.64664
-447.34888
-424.45743
-396.0958
-362.37757
-323.37942
-279.14118
-229.66619
-174.92418
-114.85768
-49.397323
21.515274
97.899689
179.70679
266.79009
358.88176
455.5765
556.32553
660.44211
767.11851
875.45293
984.4838
1093.2281
1200.7198
1306.0459
1408.3763
1506.9868
1601.2746
1690.7651
1775.1123
1854.0937
1927.6
1995.6221
2058.2369
2115.5918
2167.89
2215.376
2258.3237
2297.0248
2331.7793
2362.8883
2390.6472
2415.341
2437.2409
2456.6014
2473.6589
2488.6302
2501.7126
2513.0834
2522.9002
2531.3015
2538.4061
2544.3157
2549.1161
2552.9143
2555.6788
2557.4799
2558.1681
-7.5248129
-1.5433769
3.1322282
8.1820749
13.64847
19.664561
26.347177
33.79827
42.102697
51.327831
61.512161
72.659132
84.748047
97.7394
111.56564
126.13267
141.32178
156.99022
172.97442
189.09272
205.14862
220.93419
236.23365
250.82682
264.49259
277.01218
288.17217
297.76726
305.60266
311.49633
315.28081
316.80361
315.93053
312.54611