/*--------------------------------*- C++ -*----------------------------------*\
| =========                 |                                                 |
| \\      /  F ield         | foam-extend: Open Source CFD                    |
|  \\    /   O peration     | Version:     4.1                                |
|   \\  /    A nd           | Web:         http://www.foam-extend.org         |
|    \\/     M anipulation  |                                                 |
\*---------------------------------------------------------------------------*/
FoamFile
{
    version     2.0;
    format      ascii;
    class       volScalarField;
    location    "0.1";
    object      p;
}
// * * * * * * * * * * * * * * * * * * * * * * * * * * * * * * * * * * * * * //

dimensions      [0 2 -2 0 0 0 0];

internalField   nonuniform List<scalar> 
16796
(
44.611627
59.368691
92.198294
116.7649
140.99033
162.70211
182.47187
200.09203
215.57827
228.90736
240.09167
249.15942
256.15802
261.15091
264.21549
265.44156
264.92962
262.79101
259.16032
254.22792
248.039
240.45746
231.51566
221.34148
209.99112
197.52111
183.98423
169.42983
153.90502
137.45557
120.12614
101.96054
83.002818
63.296051
42.882786
21.803924
0.097898857
-22.20063
-45.062212
-68.464061
-92.391682
-116.83989
-141.81447
-167.33218
-193.42144
-220.12157
-247.48183
-275.55949
-304.41728
-334.12013
-364.7313
-396.30806
-428.89698
-462.52908
-497.21496
-532.94019
-569.66132
-607.30238
-645.75241
-684.86307
-724.44771
-764.28162
-804.10294
-843.61467
-882.4877
-920.36474
-956.8652
-991.59084
-1024.1319
-1054.0739
-1081.0048
-1104.5229
-1124.244
-1139.809
-1150.8915
-1157.2039
-1158.5045
-1154.6022
-1145.3615
-1130.7054
-1110.6152
-1085.1303
-1054.3657
-1018.502
-977.75923
-932.40469
-882.75615
-829.17216
-772.0445
-711.79075
-648.84676
-583.65932
-516.67907
-448.35382
-379.12257
-309.41013
-239.62264
-170.14379
-101.33201
-33.518349
32.994824
97.93445
161.0568
222.14694
281.0178
337.50879
391.48433
442.83202
491.46084
537.29931
580.29361
620.40597
657.61315
691.90567
723.28789
751.77278
777.38768
800.17826
820.21565
837.67889
852.73713
864.82848
875.97608
899.17456
50.953266
60.168776
92.795446
117.10526
141.34423
163.13506
183.00826
200.74086
216.3402
229.78063
241.07311
250.24513
257.34307
262.42869
265.57632
266.87033
266.40166
264.26431
260.54473
255.30543
248.70496
240.9181
231.93704
221.73841
210.37069
197.8836
184.32826
169.75467
154.21053
137.74214
120.3946
102.21221
83.239395
63.519679
43.09605
22.009862
0.29997673
-21.99854
-44.8559
-68.249063
-92.163389
-116.59372
-141.54599
-167.03736
-193.09682
-219.76451
-247.09072
-275.13401
-303.95854
-333.63089
-364.21607
-395.77322
-428.35079
-461.98163
-496.6779
-532.42651
-569.18547
-606.88048
-645.4017
-684.60066
-724.29016
-764.24484
-804.20193
-843.86317
-882.89779
-920.94641
-957.62609
-992.53592
-1025.2631
-1055.3898
-1082.5008
-1106.1911
-1126.0731
-1141.7849
-1152.9968
-1159.4192
-1160.8081
-1156.9713
-1147.7726
-1133.1349
-1113.0434
-1087.5467
-1056.7465
-1020.8025
-979.94218
-934.44566
-884.63565
-830.87442
-773.55724
-713.10515
-649.95741
-584.56405
-517.37875
-448.85211
-379.42556
-309.52604
-239.5614
-169.91674
-100.95149
-32.99739
33.642808
98.695932
161.91837
223.09551
282.04071
338.59397
392.6203
444.00795
492.66652
538.52503
581.53004
621.64386
658.84297
693.11651
724.46508
752.90433
778.46189
801.17136
821.08732
838.32634
852.95349
864.77575
875.03916
885.61481
54.399034
61.028851
93.912595
118.06062
142.37861
164.26217
184.25509
202.11184
217.83507
231.39557
242.80315
252.08504
259.28794
264.4743
267.71945
269.10923
268.7371
266.70208
263.10113
258.0109
251.50015
243.64575
234.50663
224.13216
212.57643
199.89303
186.13443
171.3517
155.59424
138.91069
121.34901
102.95663
83.781241
63.86967
43.268055
22.020709
0.16912985
-22.249344
-45.203116
-68.667826
-92.628082
-117.07859
-142.02576
-167.48789
-193.49581
-220.09215
-247.33036
-275.27272
-303.98773
-333.54673
-364.0199
-395.47174
-427.95619
-461.51148
-496.15546
-531.88043
-568.64807
-606.38644
-644.98677
-684.30258
-724.14834
-764.29859
-804.48918
-844.41935
-883.75481
-922.13184
-959.16208
-994.43819
-1027.5405
-1058.0441
-1085.5262
-1109.574
-1129.7924
-1145.8119
-1157.2961
-1163.949
-1165.5212
-1161.8157
-1152.6925
-1138.0721
-1117.9384
-1092.3414
-1061.3914
-1025.2559
-984.16142
-938.38942
-888.26782
-834.16491
-776.48233
-715.64758
-652.1063
-586.31467
-518.73213
-449.81453
-380.00796
-309.74336
-239.43187
-169.46117
-100.19261
-31.959163
34.935767
100.2189
163.64701
225.00625
284.11108
340.80285
394.94817
446.43697
495.18067
541.11015
584.17382
624.33589
661.57473
695.88137
727.25806
755.71902
781.29033
804.00831
823.92904
841.13594
855.64818
867.54947
877.64787
884.02251
56.894888
62.089442
95.353735
119.49046
143.98519
166.0399
186.21776
204.2504
220.13628
233.84211
245.37614
254.76463
262.0535
267.30398
270.5893
271.99194
271.60022
269.50615
265.80129
260.57419
253.91884
245.93433
236.67914
226.18894
214.51258
201.70164
187.80784
172.88312
156.97873
140.1457
122.43479
103.89649
84.581697
64.540449
43.821981
22.473505
0.53907587
-21.941817
-44.935947
-68.417899
-92.371885
-116.79292
-141.68844
-167.07856
-192.99667
-219.48872
-246.61218
-274.43401
-303.02798
-332.47111
-362.83963
-394.20424
-426.62517
-460.14774
-494.79616
-530.56644
-567.42379
-605.29966
-644.08835
-683.645
-723.78383
-764.27806
-804.861
-845.22809
-885.04
-923.92666
-961.49229
-997.3213
-1030.985
-1062.0486
-1090.0791
-1114.6534
-1135.3659
-1151.8372
-1163.7215
-1170.7143
-1172.5591
-1169.0528
-1160.0512
-1145.472
-1125.2975
-1099.5757
-1068.4186
-1032
-990.55395
-944.36853
-893.77991
-839.16546
-780.93638
-719.5299
-655.40127
-589.01597
-520.84211
-451.34347
-380.97316
-310.16814
-239.34453
-168.89394
-99.180611
-30.539469
36.725039
102.33937
166.06068
227.67611
287.00151
343.87998
398.18003
449.79365
498.63424
544.63458
587.74473
627.93011
665.16978
699.45473
730.78661
759.17705
784.64574
807.21951
826.93893
843.84709
857.93179
869.33194
878.4351
883.04142
58.893067
63.379783
97.187265
121.4713
146.22982
168.51658
188.92451
207.1683
223.24541
237.12015
248.80068
258.31381
265.70654
271.04141
274.39293
275.84461
275.48517
273.40553
269.69373
264.43195
257.70219
249.58585
240.14808
229.44536
217.53616
204.47767
190.32576
175.13591
158.96284
141.86128
123.886
105.09166
85.533421
65.265576
44.341455
22.812095
0.72497061
-21.877517
-44.959853
-68.495057
-92.466591
-116.86962
-141.71268
-167.01804
-192.82226
-219.17556
-246.14071
-273.79097
-302.20729
-331.47467
-361.67786
-392.89652
-425.20097
-458.64691
-493.26414
-529.05523
-565.99339
-604.01598
-643.0214
-682.86708
-723.36796
-764.2962
-805.38212
-846.31618
-886.75215
-926.31129
-964.58754
-1001.1536
-1035.5677
-1067.3815
-1096.1474
-1121.4276
-1142.8022
-1159.8779
-1172.2958
-1179.74
-1181.9436
-1178.6958
-1169.8463
-1155.3097
-1135.0674
-1109.1687
-1077.729
-1040.9282
-999.00777
-952.26534
-901.04799
-845.74517
-786.78084
-724.60522
-659.68645
-592.50236
-523.53266
-453.25168
-382.12183
-310.58806
-239.07303
-167.97346
-97.657339
-28.461995
39.306911
105.3757
169.50234
231.47554
291.11337
348.26162
402.79187
454.59936
503.60087
549.73252
592.94759
633.21446
670.51468
704.84111
736.19637
764.59151
790.04372
812.57485
832.21256
848.96953
862.81543
873.85917
882.10681
885.50105
60.756266
64.869542
99.34228
123.9121
149.02793
171.62076
192.31432
210.8096
227.10401
241.15976
252.98484
262.60633
270.0718
275.44437
278.79901
280.21949
279.79482
277.61683
273.77638
268.36182
261.46312
253.16595
243.5376
232.63647
220.52056
207.24744
192.87414
177.45795
161.0561
143.7264
125.52709
106.51662
86.754141
66.29802
45.205587
23.531702
1.3273338
-21.362072
-44.498554
-68.053403
-92.009205
-116.36121
-141.11911
-166.3075
-191.96645
-218.15098
-244.92985
-272.38354
-300.60126
-329.67719
-359.70591
-390.77781
-422.97606
-456.36545
-490.98352
-526.8431
-563.92484
-602.1721
-641.48783
-681.73208
-722.72031
-764.22296
-805.96634
-847.63462
-888.87307
-929.29232
-968.47375
-1005.9758
-1041.341
-1074.104
-1103.7999
-1129.9728
-1152.185
-1170.0259
-1183.1207
-1191.1386
-1193.8003
-1190.8844
-1182.2332
-1167.7563
-1147.4335
-1121.3155
-1089.5224
-1052.2421
-1009.7261
-962.2842
-910.27748
-854.11081
-794.22436
-731.08489
-665.17687
-596.99383
-527.03016
-455.77351
-383.69811
-311.25891
-238.88685
-166.98508
-95.92627
-26.050786
42.33418
108.95475
173.56983
235.97002
295.97605
353.43692
408.22779
460.24773
509.4174
555.67673
598.98255
639.30652
676.63294
710.95681
742.282
770.61953
795.9851
818.39796
837.87948
854.43109
868.02885
878.77634
886.54561
889.53928
62.69743
66.60576
101.88341
126.87091
152.44373
175.42301
196.46591
215.26425
231.818
246.08941
258.08801
267.84264
275.40292
280.83403
284.21272
285.62414
285.15793
282.90567
278.95705
273.39893
266.32074
257.80694
247.92859
236.75178
224.34096
210.75894
196.06736
180.32776
163.60162
145.95107
127.43887
108.12815
88.082885
67.366244
46.04031
24.164474
1.7938946
-21.022293
-44.243095
-67.837581
-91.787102
-116.08681
-140.74758
-165.79662
-191.27811
-217.25274
-243.79654
-270.99876
-298.95883
-327.78225
-357.57592
-388.44485
-420.48667
-453.77585
-488.36308
-524.2731
-561.49643
-599.98476
-639.64729
-680.34775
-721.90267
-764.08073
-806.60361
-849.14793
-891.34855
-932.80298
-973.07701
-1011.7113
-1048.2289
-1082.1434
-1112.968
-1140.2247
-1163.4538
-1182.2236
-1196.1394
-1204.8523
-1208.0678
-1205.552
-1197.1379
-1182.7295
-1162.3046
-1135.9156
-1103.6884
-1065.8201
-1022.5746
-974.27656
-921.30446
-864.08202
-803.06926
-738.75316
-671.63812
-602.23684
-531.06153
-458.61606
-385.38885
-311.84694
-238.43113
-165.55218
-93.588215
-22.883044
46.254548
113.55072
178.76581
241.69301
302.15654
360.00959
415.13199
467.42771
516.8224
563.26087
606.70457
647.12927
684.52276
718.88265
750.21426
778.52841
803.83862
826.15948
845.50312
861.85832
875.19678
885.60003
892.89004
895.5414
64.835341
68.603102
104.81194
130.31673
156.42851
179.85892
201.29991
220.43555
237.26914
251.76352
263.93015
273.79995
281.42502
286.87312
290.22371
291.56466
290.98847
288.58988
284.46215
278.69613
271.38663
262.62248
252.47698
241.01912
228.31563
214.4316
199.43128
183.37919
166.34025
148.3805
129.56697
109.9674
89.650644
68.684868
47.137165
25.071812
2.5485601
-20.379322
-43.667363
-67.281999
-91.203007
-115.4252
-139.96057
-164.83903
-190.10923
-215.8381
-242.10981
-269.02355
-296.69032
-325.22863
-354.75967
-385.40584
-417.28001
-450.46944
-485.03985
-521.02905
-558.43892
-597.23063
-637.32036
-678.57606
-720.81539
-763.80494
-807.2609
-850.85108
-894.19819
-936.88447
-978.45758
-1018.4375
-1056.3243
-1091.6071
-1123.7735
-1152.3193
-1176.7588
-1196.635
-1211.5295
-1221.0723
-1224.9502
-1222.9143
-1214.7865
-1200.464
-1179.9224
-1153.2162
-1120.4783
-1081.9166
-1037.8101
-988.50147
-934.38995
-875.92188
-813.58113
-747.87884
-679.34328
-608.50997
-535.91238
-462.07355
-387.49875
-312.66926
-238.03741
-164.02285
-91.009988
-19.346525
50.657045
118.72709
184.6258
248.14956
309.12685
367.41592
422.9022
475.49559
525.1278
571.74959
615.32819
655.84478
693.29203
727.67184
758.99304
787.26899
812.51482
834.74557
853.97184
870.18081
883.34771
893.54288
900.57691
903.09562
67.205977
70.865897
108.15157
134.28629
161.0386
185.00448
206.91325
226.44308
243.60252
258.35671
270.72042
280.72789
288.43464
293.91183
297.24206
298.51605
297.82873
295.27692
290.95559
284.95742
277.38074
268.31752
257.84484
246.037
232.9659
218.70148
203.31268
186.86867
169.43905
151.09474
131.90791
111.9516
91.300229
70.027617
48.20655
25.906877
3.193645
-19.87505
-43.250598
-66.896211
-90.789611
-114.92496
-139.31527
-163.99332
-189.01268
-214.4474
-240.39095
-266.95402
-294.26115
-322.44618
-351.6476
-382.00812
-413.65754
-446.69941
-481.21762
-517.26601
-554.86051
-593.97398
-634.53137
-676.40602
-719.41732
-763.3297
-807.85316
-852.64527
-897.31458
-941.42539
-984.50396
-1026.0458
-1065.5241
-1102.3991
-1136.1279
-1166.1756
-1192.0259
-1213.192
-1229.2279
-1239.7383
-1244.3881
-1242.9109
-1235.1154
-1220.8908
-1200.2098
-1173.1299
-1139.7917
-1100.4166
-1055.3006
-1004.8082
-949.36302
-889.43817
-825.54561
-758.22497
-688.03255
-615.53058
-541.27738
-465.81834
-389.67821
-313.35465
-237.31321
-161.98355
-87.757092
-14.985704
56.018482
124.98242
191.67075
255.88385
317.4554
376.2497
432.1588
485.09956
535.01065
581.8497
625.5904
666.21989
703.73609
738.1453
769.45977
797.69514
822.86769
844.99259
864.07945
880.11601
893.0828
903.05019
909.84613
912.24715
69.893742
73.435755
111.93199
138.77867
166.24788
190.80896
213.23152
233.18792
250.6927
265.7139
278.27029
288.40019
296.16349
301.63585
304.90443
306.06448
305.21546
302.45865
297.89337
291.61677
283.7333
274.33978
263.51611
251.33994
237.88655
223.22923
207.44053
190.59355
172.76222
154.0222
134.45083
114.12674
93.130229
71.541254
49.438855
26.899092
3.9929957
-19.215795
-42.673825
-66.340425
-90.1907
-114.21773
-138.43534
-162.87917
-187.60803
-212.70371
-238.27001
-264.43048
-291.32483
-319.10427
-347.92802
-377.96162
-409.35317
-442.22603
-476.68452
-512.80057
-550.60622
-590.08778
-631.1803
-673.76345
-717.65875
-762.62831
-808.37525
-854.54563
-900.73193
-946.47815
-991.2862
-1034.6237
-1075.9331
-1114.6412
-1150.1706
-1181.9506
-1209.4294
-1232.0861
-1249.4422
-1261.0732
-1266.6185
-1265.7911
-1258.3845
-1244.2784
-1223.4423
-1195.9369
-1161.9121
-1121.6046
-1075.331
-1023.4807
-966.50616
-904.91168
-839.24198
-770.06988
-697.98419
-623.57815
-547.43871
-470.13697
-392.21995
-314.20397
-236.56944
-159.7572
-84.166301
-10.153001
61.969121
131.92811
199.49184
264.46567
326.68959
386.03521
442.40257
495.71682
545.92508
592.99328
636.90311
677.6492
715.23642
749.67722
780.98919
809.19238
834.30656
856.34945
875.33236
891.24562
904.07431
913.88992
920.53795
922.87855
72.885795
76.300943
116.16043
143.82095
172.1058
197.34386
220.34869
240.7872
258.68136
274.00331
286.77694
297.0456
304.87432
310.34386
313.54634
314.58172
313.55391
310.56834
305.72821
299.13523
290.89927
281.1219
269.88765
257.27902
243.37613
228.25706
211.99917
194.6805
176.3801
157.1791
137.16063
116.40946
95.012426
73.056283
50.627039
27.807748
4.6762613
-18.697375
-42.253998
-65.948238
-89.751865
-113.65633
-137.67591
-161.8491
-186.24026
-210.93963
-236.06251
-261.74694
-288.14978
-315.44213
-343.80869
-373.43915
-404.5023
-437.14664
-471.49994
-507.6556
-545.66478
-585.52979
-627.19782
-670.55622
-715.42937
-761.57708
-808.6948
-856.41561
-904.31374
-951.90993
-998.67826
-1044.0544
-1087.4453
-1128.2398
-1165.8203
-1199.5755
-1228.9125
-1253.271
-1272.1351
-1285.0464
-1291.6152
-1291.5304
-1284.5678
-1270.5963
-1249.5816
-1221.588
-1186.7764
-1145.4009
-1097.8023
-1044.399
-985.67664
-922.17585
-854.47925
-783.19795
-708.95825
-632.38897
-554.10981
-474.72111
-394.79513
-314.8691
-235.44
-156.96092
-79.839112
-4.4352797
68.935847
140.00403
208.54124
274.35885
337.30432
397.25776
454.12836
507.85075
558.38158
605.69605
649.78473
690.65057
728.30601
762.77032
794.06704
822.22139
847.25764
869.19752
888.05635
903.82991
916.51081
926.17715
932.69433
934.98162
76.252358
79.505881
120.87172
149.42348
178.59976
204.57343
228.20641
249.1597
267.46355
283.09481
296.08334
306.47847
314.35149
319.78951
322.89098
323.76217
322.51302
319.25481
314.0962
307.14489
298.51786
288.32232
276.64627
263.57609
249.19584
233.58761
216.83303
199.01476
180.21692
160.52619
140.03179
118.82507
96.999981
74.650735
51.871118
28.752073
5.3792277
-18.169959
-41.829614
-65.548701
-89.294793
-113.05701
-136.84959
-160.71373
-184.7195
-208.96621
-233.58174
-258.72025
-284.55785
-311.28814
-339.12451
-368.28413
-398.95991
-431.32817
-465.54352
-501.72384
-539.94232
-580.21971
-622.51728
-666.73153
-712.69046
-760.15163
-808.80226
-858.26106
-908.08197
-957.7597
-1006.7371
-1054.4137
-1100.1566
-1143.3114
-1183.2151
-1219.2098
-1250.6562
-1276.9485
-1297.5281
-1311.8979
-1319.6344
-1320.3989
-1313.9468
-1300.1344
-1278.9231
-1250.3813
-1214.6824
-1172.101
-1123.0053
-1067.8474
-1007.1512
-941.49921
-871.51767
-797.86161
-721.20024
-642.20294
-561.52659
-479.80454
-397.63735
-315.58553
-234.16421
-153.83975
-75.027945
1.9061584
76.647259
148.92775
218.52489
285.25745
348.98185
409.58832
466.99682
521.15313
572.02498
619.59846
663.87456
704.86597
742.59414
777.08648
808.37376
836.48753
861.45759
883.31051
902.06622
917.72599
930.28904
939.83995
946.26082
948.5123
79.980224
83.041159
126.07247
155.61039
185.77262
212.55887
236.88426
258.40357
277.15652
293.12557
306.34746
316.87836
324.79655
330.1962
333.18267
333.86892
332.37129
328.80714
323.29079
315.93608
306.86759
296.19887
284.02231
270.42928
255.50872
239.34752
222.03225
203.65079
184.29283
164.05106
143.02129
121.302
98.994863
76.202308
53.026744
29.567959
5.9204322
-17.829829
-41.609059
-65.359402
-89.043157
-112.64619
-136.18207
-159.6943
-183.2588
-206.98452
-231.01303
-255.51636
-280.69229
-306.75995
-333.96563
-362.55716
-392.75507
-424.76855
-458.78294
-494.94467
-533.35255
-574.04888
-617.0115
-662.14777
-709.29027
-758.19451
-808.53872
-859.9257
-911.8867
-963.88724
-1015.3349
-1065.5888
-1113.9706
-1159.7772
-1202.2942
-1240.8108
-1274.6348
-1303.1088
-1325.6255
-1341.6433
-1350.7001
-1352.4257
-1346.552
-1332.9206
-1311.4882
-1282.3276
-1245.6267
-1201.6835
-1150.8979
-1093.7606
-1030.8397
-962.76566
-890.21468
-813.89208
-734.51592
-652.80164
-569.44812
-485.12578
-400.46669
-316.05707
-232.43188
-150.07159
-69.400874
9.211173
85.44938
159.04981
229.79632
297.51649
362.07728
423.38057
481.35865
535.96991
587.1946
635.031
679.49173
720.60042
758.38861
792.89295
824.15258
852.2066
877.0917
898.84085
917.48028
933.0182
945.46151
954.90217
961.23647
963.45567
84.127214
86.944345
131.7938
162.39471
193.61977
221.27749
246.34174
268.46038
287.68355
303.99995
317.45406
328.10987
336.05383
341.3884
344.22716
344.69115
342.90447
338.9918
333.07428
325.27297
315.72154
304.54008
291.82445
277.6704
262.17117
245.41801
227.50218
208.51663
188.55669
167.72134
146.11336
123.8389
101.00809
77.732417
54.123926
30.292396
6.3424048
-17.630143
-41.542209
-65.327743
-88.942484
-112.36792
-135.61608
-158.73228
-181.79819
-204.93287
-228.29268
-252.06921
-276.48446
-301.78657
-328.25878
-356.18325
-385.81212
-417.39145
-451.14173
-487.24208
-525.82076
-566.94496
-610.6118
-656.74149
-705.17241
-755.65832
-807.8679
-861.38663
-915.7207
-970.30324
-1024.5026
-1077.6326
-1128.9641
-1177.7393
-1223.1858
-1264.5333
-1301.0298
-1331.9589
-1356.6581
-1374.535
-1385.0836
-1387.8976
-1382.6819
-1369.2615
-1347.587
-1317.7366
-1279.9147
-1234.446
-1181.7666
-1122.4116
-1056.9999
-986.21669
-910.79532
-831.49837
-749.09942
-664.36591
-578.04396
-490.84535
-403.43708
-316.43345
-230.3908
-145.80445
-63.107934
17.326189
95.183938
170.20648
242.18593
310.96055
376.40976
438.44904
497.02495
552.1103
603.69964
651.80507
696.45232
737.67733
775.52295
810.03615
841.2654
869.25812
894.05854
915.70655
934.23503
949.65917
961.99325
971.33624
977.59632
979.78883
88.692464
91.21317
138.04546
169.79804
202.17585
230.77668
256.63902
279.40318
299.13072
315.81727
329.51588
340.29918
348.26263
353.51778
356.18721
356.40073
354.29078
349.98989
343.62642
335.32937
325.24215
313.49198
300.17888
285.40376
269.26465
251.85755
233.2787
213.62646
193.00208
171.51114
149.2638
126.37444
102.96232
79.148856
55.056749
30.806987
6.5156351
-17.709995
-41.775986
-65.606466
-89.149044
-112.37942
-135.3069
-157.97788
-180.47951
-202.94134
-225.53552
-248.47487
-272.00824
-296.41794
-322.02923
-349.15969
-378.09941
-409.13735
-442.5339
-478.5058
-517.2153
-558.75835
-603.15449
-650.33909
-700.15769
-752.36267
-806.61258
-862.4739
-919.42519
-976.86364
-1034.1139
-1090.4391
-1145.0536
-1197.1379
-1245.8548
-1290.3668
-1329.8544
-1363.5347
-1390.6819
-1410.6464
-1422.872
-1426.9112
-1422.438
-1409.2583
-1387.3156
-1356.6943
-1317.6172
-1270.4397
-1215.6396
-1153.8027
-1085.6058
-1011.7969
-933.17452
-850.56639
-764.80894
-676.7283
-587.12352
-496.75242
-406.32045
-316.47254
-227.78784
-140.77715
-55.882658
26.520403
106.12055
182.66571
255.95815
325.84884
392.23173
455.03797
514.23035
569.79802
621.75157
670.11857
714.93942
756.26372
794.14701
828.64781
859.82509
887.7358
912.43281
933.96395
952.36964
967.67258
979.89452
989.141
995.33013
997.49713
93.72427
95.876306
144.8519
177.83137
211.43918
241.04175
267.74871
291.19183
311.445
328.51129
342.45312
353.35278
361.31586
366.46427
368.93091
368.85565
366.38049
361.6469
354.79139
345.95207
335.28339
322.91955
308.96396
293.52218
276.69659
258.58756
239.29616
218.92606
197.58452
175.384
152.44246
128.88313
104.83518
80.430961
55.805064
31.091094
6.4181988
-18.093136
-42.336245
-66.223516
-89.692554
-112.71154
-135.28563
-157.46121
-179.33045
-201.03357
-222.75948
-244.74368
-267.26444
-290.64683
-315.25873
-341.45552
-369.57474
-399.95243
-432.89454
-468.66093
-507.45283
-549.39937
-594.54614
-642.84635
-694.15436
-748.22179
-804.69656
-863.12461
-922.95419
-983.54284
-1044.1668
-1104.033
-1162.2926
-1218.0574
-1270.4175
-1318.4604
-1361.2901
-1398.0487
-1427.9387
-1450.2453
-1464.3553
-1469.7742
-1466.1409
-1453.239
-1431.0039
-1399.5265
-1359.0509
-1309.9674
-1252.8013
-1188.1965
-1116.896
-1039.7196
-957.54001
-871.25895
-781.78397
-690.00721
-596.78683
-502.93168
-409.18934
-316.23783
-224.68045
-135.04374
-47.77802
36.740046
118.20321
196.36827
271.04994
342.11439
409.47251
473.07352
532.89873
588.95572
641.27312
689.89568
734.88003
776.29087
814.19756
848.67125
879.78228
907.59788
932.18018
953.58549
971.86206
987.04029
999.14925
1008.3007
1014.4213
1016.5639
99.23426
100.93607
152.22297
186.51016
221.43264
252.10314
279.70914
303.8727
324.68085
342.14453
356.33627
367.34884
375.29891
380.31975
382.55555
382.15713
379.2769
374.06589
366.6693
357.23542
345.93065
332.89634
318.23971
302.07137
284.49816
265.62494
245.55761
224.40523
202.28118
179.30499
155.60282
131.30725
106.55814
81.499787
56.279903
31.046239
5.942798
-18.894772
-43.344895
-67.305964
-90.703327
-113.49552
-135.68171
-157.30687
-178.46737
-199.31412
-220.05373
-240.94628
-262.30269
-284.49563
-307.94128
-333.03808
-360.17645
-389.74705
-422.10752
-457.56719
-496.37209
-538.6895
-584.59517
-634.06319
-686.95864
-743.03308
-801.92332
-863.15302
-926.13725
-990.18988
-1054.5337
-1118.313
-1180.6089
-1240.4567
-1296.8653
-1348.8378
-1395.3928
-1435.5878
-1468.5433
-1493.4708
-1509.6925
-1516.6605
-1513.9733
-1501.3888
-1478.8331
-1446.4041
-1404.3699
-1353.1607
-1293.3561
-1225.6664
-1150.9104
-1069.9896
-983.86152
-893.5118
-799.92836
-704.0775
-606.88334
-509.21108
-411.85435
-315.52668
-220.85669
-128.38672
-38.574329
48.203992
131.64736
211.52393
287.66359
359.95039
428.31496
492.72719
553.18939
609.72992
662.39748
711.25598
756.37998
797.85076
835.75294
870.17148
901.18921
928.88456
953.32978
974.59027
992.72261
1007.765
1019.7538
1028.8063
1034.8568
1036.9746
105.26445
106.41112
160.17349
195.83788
232.15043
263.94596
292.49695
317.41406
338.79808
356.66805
371.10733
382.22012
390.13539
394.99907
396.96803
396.20542
392.87523
387.13906
379.15153
369.07295
357.08263
343.32828
327.92057
310.97449
292.60085
272.90861
252.00822
230.014
207.04546
183.22941
158.70056
133.60146
108.08356
82.304189
56.425623
30.611476
5.022622
-20.187847
-44.880949
-68.938442
-92.270748
-114.82419
-136.58965
-157.60884
-177.98116
-197.8679
-217.49421
-237.14662
-257.17171
-277.99577
-300.08924
-323.89871
-349.87503
-378.4699
-410.10058
-445.13304
-483.86467
-526.50672
-573.1698
-623.85243
-678.43266
-736.66295
-798.16857
-862.44919
-928.8837
-996.73798
-1065.1758
-1133.2725
-1200.0312
-1264.4021
-1325.3033
-1381.6426
-1432.3448
-1476.3736
-1512.756
-1540.6151
-1559.2028
-1567.9105
-1566.2904
-1554.0707
-1531.1662
-1497.6829
-1453.9155
-1400.3399
-1337.5976
-1266.4748
-1187.8771
-1102.7995
-1012.2958
-917.44713
-819.33206
-719.00012
-617.44884
-515.60552
-414.3138
-314.32507
-216.29415
-120.77879
-28.242402
60.940827
146.47908
228.15489
305.81648
379.36904
448.766
514.00091
575.0998
632.11428
685.11535
734.18801
779.42645
820.93004
858.79985
893.13574
924.0339
951.58473
975.87116
996.96816
1014.941
1029.8357
1041.6959
1050.6441
1056.6215
1058.7135
111.83554
112.30175
168.70625
205.81671
243.59768
276.579
306.12546
331.83407
353.81971
372.10959
386.79849
398.00291
405.86518
410.54515
412.21356
411.04703
407.22216
400.91186
392.28075
381.50308
368.7715
354.2397
338.02218
320.23825
301.00245
280.42761
258.62853
235.72459
211.84136
187.113
161.68309
135.70465
109.34151
82.765183
56.154012
29.689328
3.5511035
-22.087551
-47.067375
-71.250412
-94.52899
-116.83412
-138.14553
-158.49932
-177.99626
-196.80737
-215.17693
-233.41991
-251.92201
-271.17071
-291.69612
-313.99859
-338.5987
-366.01753
-396.74008
-431.19731
-469.74547
-512.64627
-560.05054
-611.98523
-668.34392
-728.88104
-793.20996
-860.80455
-931.00426
-1003.0224
-1075.9579
-1148.8096
-1220.4944
-1289.8679
-1355.7468
-1416.9326
-1472.244
-1520.5403
-1560.749
-1591.8899
-1613.1254
-1623.7843
-1623.3658
-1611.5637
-1588.2795
-1553.6271
-1507.9322
-1451.7221
-1385.7091
-1310.7665
-1227.8989
-1138.2084
-1042.8587
-943.03896
-839.93049
-734.67608
-628.35486
-521.96231
-416.39623
-312.4481
-210.79945
-112.02264
-16.58501
75.144312
162.88585
246.44008
325.6773
400.52745
470.97033
537.02641
598.74846
656.21406
709.51895
758.77132
804.08683
845.58452
883.38329
917.59903
948.34225
975.71609
999.8148
1020.7233
1038.5158
1053.2465
1064.9658
1073.8012
1079.7002
1081.7646
118.98542
118.61223
177.81996
216.4335
255.75403
289.97569
320.56308
347.09637
369.7045
388.42263
403.35748
414.63883
422.42371
426.88738
428.21599
426.60116
422.23343
415.298
405.97032
394.44006
380.91489
365.55366
348.47319
329.79672
309.64185
288.12468
265.36392
241.4837
216.61553
190.90096
164.49268
137.55477
110.26428
82.808187
55.38249
28.188309
1.4272146
-24.704753
-50.024771
-74.37159
-97.615707
-119.66908
-140.49682
-160.12638
-178.65765
-196.2702
-213.22774
-229.87571
-246.64267
-264.08358
-282.79687
-303.34353
-326.3218
-352.33209
-381.93728
-415.64266
-453.872
-496.94501
-545.05886
-598.27348
-656.50097
-719.49904
-786.86883
-858.05656
-932.35879
-1008.9314
-1086.8018
-1164.8849
-1242.0021
-1316.9045
-1388.2929
-1454.8547
-1515.2879
-1568.3336
-1612.8066
-1647.6199
-1671.825
-1684.673
-1685.6087
-1674.286
-1650.5898
-1614.6432
-1566.8059
-1507.6639
-1438.0106
-1358.8189
-1271.2071
-1176.3996
-1075.6854
-970.37692
-861.77113
-751.11544
-639.57952
-528.23361
-418.03376
-309.8135
-204.28119
-102.02232
-3.5055196
90.908624
180.95697
266.4622
347.32098
423.49223
494.986
561.85335
624.17707
682.06358
735.63588
785.02752
830.37749
871.82601
909.5111
943.5657
974.11552
1001.2771
1025.1565
1045.8492
1063.4382
1077.9861
1089.55
1098.2622
1104.0761
1106.1106
126.73996
125.32947
187.49866
227.66533
268.59656
304.11463
335.79156
363.18619
386.44115
405.59898
420.77877
432.12454
439.80934
444.02535
444.97572
442.8685
437.90936
430.29666
420.21742
407.87872
393.50441
377.25726
359.25589
339.62727
318.49138
295.96708
272.17648
247.24803
221.31885
194.5378
167.06682
139.08149
110.77294
82.344789
54.012438
25.999013
-1.4695736
-28.171073
-53.895345
-78.453709
-101.69043
-123.49396
-143.8105
-162.65511
-180.12382
-196.40287
-211.77506
-226.61829
-241.40961
-256.78143
-273.40303
-291.90458
-312.97574
-337.30601
-365.54727
-398.28999
-436.03522
-479.16922
-527.94238
-582.45282
-642.63444
-708.24976
-778.88745
-853.96404
-932.72959
-1014.2772
-1097.5561
-1181.3887
-1264.4911
-1345.4962
-1422.9789
-1495.4992
-1561.621
-1619.9508
-1669.1754
-1708.0909
-1735.628
-1750.934
-1753.396
-1742.6229
-1718.4804
-1681.1003
-1630.8809
-1568.4749
-1494.7683
-1410.8483
-1317.9637
-1217.4791
-1110.8268
-999.45923
-884.8042
-768.22636
-650.99574
-534.26425
-419.05034
-306.2312
-196.54154
-90.57773
11.193758
108.42521
200.87464
288.39199
370.90525
448.40707
520.94226
588.59644
651.48603
709.74943
763.53961
813.01778
858.34816
899.69378
937.21305
971.05706
1001.3675
1028.275
1051.8978
1072.3421
1089.7004
1104.0431
1115.4344
1124.0106
1129.7312
1131.7329
135.13395
132.4314
197.71203
239.46708
282.07492
318.94189
351.75536
380.04663
403.97109
423.57774
438.99844
450.39248
457.95057
461.88361
462.41361
459.7668
454.16551
445.82226
434.93637
421.735
406.45942
389.27406
370.29826
349.66188
327.48634
303.89239
279.00487
252.95598
225.88805
197.95705
169.33429
140.20724
110.78193
81.2799
51.937793
23.003133
-5.2707895
-32.631862
-58.838368
-83.669415
-106.93789
-128.50343
-148.28814
-166.28995
-182.59718
-197.40014
-210.99927
-223.80632
-236.35594
-249.36529
-263.57637
-279.70381
-298.53893
-320.87393
-347.46249
-378.99262
-416.05407
-459.10932
-508.46994
-564.27802
-626.49302
-694.88397
-769.02683
-848.30635
-931.92219
-1018.899
-1108.1005
-1198.2477
-1287.9404
-1375.676
-1459.8979
-1539.0209
-1611.4594
-1675.6689
-1730.1894
-1773.6836
-1804.9597
-1823.0333
-1827.2157
-1817.0742
-1792.4493
-1753.482
-1700.6134
-1634.5721
-1556.3501
-1467.1658
-1368.418
-1261.6325
-1148.4057
-1030.3493
-909.03914
-785.97131
-662.5269
-539.94675
-419.31571
-301.55577
-187.42663
-77.532443
27.667011
127.84223
222.77819
312.35797
396.54663
475.37595
548.93042
617.33466
680.74256
739.32786
793.27628
842.77904
888.02753
929.20913
966.50388
1000.082
1030.1019
1056.7088
1080.0337
1100.1937
1117.2906
1131.4031
1142.6021
1151.0277
1156.6453
1158.6109
144.19545
139.87146
208.40677
251.77194
296.1219
334.39176
368.39262
397.61987
422.24029
442.30797
457.96791
469.39584
476.8018
480.41743
480.48554
477.25237
470.95846
461.83142
450.08339
435.96473
419.73533
401.55843
381.5533
359.85194
336.57614
311.84772
285.79338
258.54831
230.2595
201.08966
171.21935
140.84824
110.19799
79.509351
49.042045
19.070581
-10.121062
-38.246825
-65.028592
-90.207766
-113.55984
-134.90934
-154.14801
-171.25082
-186.29349
-199.46663
-211.08557
-221.59621
-231.61141
-241.92778
-253.36115
-266.73598
-282.95671
-302.93134
-327.5304
-357.55378
-393.6928
-436.49734
-486.34897
-543.44027
-607.76045
-679.08692
-756.98272
-840.79857
-929.67961
-1022.5761
-1118.2582
-1215.3354
-1312.2775
-1407.4343
-1499.1052
-1585.543
-1664.9942
-1735.7459
-1796.1716