/*--------------------------------*- C++ -*----------------------------------*\
| =========                 |                                                 |
| \\      /  F ield         | foam-extend: Open Source CFD                    |
|  \\    /   O peration     | Version:     4.1                                |
|   \\  /    A nd           | Web:         http://www.foam-extend.org         |
|    \\/     M anipulation  |                                                 |
\*---------------------------------------------------------------------------*/
FoamFile
{
    version     2.0;
    format      ascii;
    class       volScalarField;
    location    "0.1";
    object      rAU;
}
// * * * * * * * * * * * * * * * * * * * * * * * * * * * * * * * * * * * * * //

dimensions      [0 0 1 0 0 0 0];

internalField   nonuniform List<scalar> 
16796
(
0.00012802874
0.00012779735
0.00012759386
0.00012739547
0.00012720267
0.0001270184
0.00012684216
0.00012667636
0.00012652015
0.00012637565
0.0001262417
0.00012612012
0.00012600948
0.00012591129
0.00012582379
0.00012574819
0.00012568241
0.00012562735
0.00012558064
0.00012554286
0.00012551137
0.00012548649
0.00012546535
0.00012544806
0.00012543153
0.00012541575
0.00012539754
0.00012537678
0.00012535029
0.00012531796
0.00012527668
0.00012522608
0.00012516474
0.00012509018
0.0001250028
0.00012490001
0.00012478253
0.00012464817
0.00012449803
0.00012433037
0.00012414671
0.00012394588
0.00012372933
0.00012349734
0.00012325087
0.00012299105
0.00012271913
0.00012243671
0.0001221453
0.00012184672
0.00012154283
0.00012123561
0.00012092703
0.00012061927
0.00012031428
0.00012001417
0.00011972092
0.00011943652
0.00011916277
0.00011890156
0.00011865444
0.00011842294
0.00011820845
0.00011801218
0.00011783517
0.00011767827
0.00011754229
0.00011742767
0.0001173348
0.00011726389
0.00011721498
0.00011718789
0.00011718246
0.00011718246
0.00011719815
0.00011723465
0.00011729172
0.00011736889
0.00011746552
0.00011758039
0.00011771238
0.00011786013
0.00011802216
0.00011819698
0.00011838294
0.00011857842
0.00011878172
0.00011899111
0.00011920487
0.00011942126
0.0001196387
0.00011985544
0.00012006992
0.00012028063
0.00012048614
0.00012068514
0.00012087636
0.00012105882
0.00012123143
0.0001213934
0.00012154401
0.00012168269
0.00012180893
0.00012192255
0.00012202321
0.00012211086
0.00012218552
0.0001222473
0.00012229636
0.00012233308
0.00012235769
0.00012237063
0.00012236333
0.00012234418
0.00012231544
0.00012227777
0.00012223164
0.00012217767
0.00012211656
0.00012204931
0.00012197734
0.00012190074
0.00012181807
0.000121704
0.00011602875
0.00011591053
0.00011582895
0.00011575409
0.00011568435
0.00011562158
0.00011556491
0.00011551634
0.00011547491
0.00011544247
0.00011541785
0.00011540269
0.0001153956
0.00011539799
0.00011540819
0.00011542738
0.00011545365
0.0001154879
0.00011552798
0.00011556755
0.00011560653
0.000115652
0.00011570158
0.00011575577
0.00011581202
0.00011587064
0.00011592892
0.00011598704
0.00011604219
0.00011609448
0.00011614109
0.00011617135
0.00011618636
0.00011618949
0.00011618131
0.00011615957
0.00011612512
0.00011607605
0.00011601353
0.000115936
0.00011584504
0.00011573957
0.00011562105
0.00011548973
0.00011534657
0.00011519259
0.00011502897
0.00011485716
0.00011467854
0.00011449475
0.00011430748
0.00011411849
0.00011392957
0.00011374266
0.00011355951
0.000113382
0.00011321192
0.00011305103
0.00011290095
0.00011276337
0.00011263966
0.0001125312
0.00011243922
0.0001123648
0.00011230887
0.00011227218
0.00011225545
0.00011225905
0.00011228333
0.00011232847
0.00011239353
0.0001124394
0.00011250607
0.00011257881
0.00011266711
0.00011277525
0.00011290237
0.00011304766
0.00011321052
0.00011339002
0.00011358537
0.00011379559
0.00011401961
0.0001142563
0.00011450443
0.00011476272
0.00011502982
0.00011530433
0.00011558484
0.00011586986
0.00011615807
0.00011644791
0.00011673801
0.000117027
0.00011731357
0.00011759646
0.00011787445
0.00011814657
0.0001184117
0.000118669
0.00011891766
0.000119157
0.00011938642
0.00011960557
0.00011981396
0.00012001138
0.00012019766
0.00012037275
0.0001205366
0.00012068943
0.00012083127
0.00012096238
0.00012107418
0.00012117461
0.00012126561
0.00012134766
0.00012142109
0.00012148643
0.00012153441
0.00012157268
0.00012160662
0.0001216342
0.00012165872
0.00012167229
0.00011466775
0.00011459172
0.00011455227
0.000114523
0.00011450129
0.00011448835
0.00011448275
0.00011448606
0.00011449687
0.00011451663
0.00011454378
0.00011457958
0.00011462224
0.00011467279
0.00011472924
0.00011479241
0.0001148459
0.00011489745
0.00011495358
0.00011500812
0.00011506112
0.00011511972
0.00011518173
0.00011524773
0.00011531534
0.00011538503
0.00011545428
0.00011552348
0.00011559002
0.00011565423
0.00011571347
0.00011575735
0.00011577792
0.00011576575
0.00011574082
0.0001157013
0.00011564844
0.00011558075
0.00011549981
0.00011540449
0.00011529675
0.0001151759
0.00011504371
0.00011490078
0.00011474832
0.00011458759
0.00011441996
0.00011424703
0.00011407027
0.00011389136
0.00011371202
0.00011353398
0.00011335893
0.00011318874
0.00011302499
0.0001128694
0.00011272357
0.00011258903
0.00011246716
0.00011235942
0.0001122669
0.00011219072
0.00011213184
0.00011209105
0.00011206902
0.00011206623
0.00011208316
0.00011211991
0.00011217662
0.00011225325
0.00011229218
0.000112307
0.00011234161
0.000112396
0.00011247015
0.00011256394
0.00011267707
0.00011280905
0.00011295946
0.00011312747
0.00011331241
0.00011351336
0.00011372932
0.00011395922
0.00011420188
0.00011445604
0.00011472038
0.00011499351
0.000115274
0.00011556036
0.00011585121
0.00011614496
0.00011644018
0.00011673543
0.00011702931
0.00011732047
0.00011760761
0.00011788964
0.00011816534
0.00011843377
0.000118694
0.00011894528
0.00011918687
0.00011941833
0.00011963909
0.00011984885
0.00012004738
0.00012023452
0.00012041019
0.00012057453
0.00012072754
0.00012086944
0.00012100045
0.00012112087
0.00012123098
0.00012133125
0.00012142194
0.00012150348
0.00012156639
0.0001216178
0.00012166253
0.00012168848
0.00012170996
0.00012171735
0.0001144719
0.00011441191
0.00011438433
0.00011436693
0.00011435768
0.00011435779
0.00011436573
0.00011438288
0.00011440771
0.00011444153
0.00011448263
0.00011453213
0.00011458812
0.0001146515
0.00011470831
0.00011475302
0.00011478889
0.00011482399
0.00011486519
0.00011491362
0.00011496735
0.00011502729
0.00011509132
0.00011516015
0.00011523145
0.00011530574
0.00011538055
0.00011545623
0.0001155302
0.00011560271
0.00011567111
0.00011573527
0.00011578477
0.00011577284
0.00011573639
0.00011568452
0.00011561863
0.0001155374
0.00011544262
0.00011533332
0.00011521164
0.0001150771
0.00011493165
0.00011477606
0.00011461172
0.00011444006
0.00011426259
0.00011408104
0.00011389699
0.00011371225
0.00011352859
0.0001133478
0.00011317165
0.00011300199
0.00011284044
0.00011268869
0.00011254833
0.00011242083
0.00011230754
0.00011220984
0.00011212874
0.00011206528
0.00011202032
0.00011199456
0.00011198855
0.00011200267
0.00011203725
0.0001120923
0.00011216784
0.00011223127
0.00011221099
0.00011220663
0.0001122224
0.00011225845
0.00011231493
0.00011239178
0.00011248883
0.00011260569
0.00011274203
0.0001128971
0.00011307028
0.00011326073
0.00011346749
0.00011368955
0.00011392574
0.00011417484
0.00011443553
0.00011470642
0.00011498606
0.00011527293
0.00011556561
0.00011586246
0.00011616197
0.00011646263
0.00011676295
0.0001170615
0.00011735686
0.00011764784
0.00011793315
0.0001182117
0.00011848249
0.00011874463
0.00011899733
0.00011924002
0.00011947207
0.00011969309
0.00011990276
0.00012010089
0.00012028731
0.00012046213
0.00012062529
0.00012077698
0.0001209174
0.00012104681
0.00012116546
0.00012127381
0.00012137208
0.00012146067
0.00012153982
0.00012160962
0.00012167029
0.00012171296
0.00012174337
0.00012174185
0.00011440023
0.00011434751
0.00011432534
0.00011431308
0.00011430921
0.0001143151
0.00011432923
0.00011435294
0.00011438467
0.00011442562
0.00011447404
0.00011453097
0.00011459442
0.00011464588
0.00011467223
0.00011468787
0.00011471064
0.00011474197
0.00011478025
0.00011482668
0.00011487943
0.00011493947
0.00011500474
0.00011507597
0.00011515088
0.00011523
0.00011531084
0.00011539376
0.00011547609
0.00011555808
0.00011563695
0.00011571251
0.00011578342
0.00011579489
0.00011574826
0.00011568537
0.00011560777
0.00011551424
0.00011540672
0.0001152844
0.00011514956
0.00011500189
0.00011484349
0.00011467532
0.00011449889
0.00011431581
0.00011412772
0.0001139365
0.00011374386
0.00011355171
0.00011336193
0.00011317642
0.000112997
0.00011282559
0.00011266387
0.00011251354
0.00011237621
0.00011225336
0.00011214633
0.00011205644
0.00011198469
0.00011193204
0.00011189928
0.00011188702
0.00011189573
0.00011192565
0.00011197704
0.00011204976
0.0001121437
0.000112158
0.00011211431
0.0001120906
0.0001120875
0.00011210527
0.00011214417
0.00011220426
0.00011228546
0.00011238747
0.00011251005
0.00011265254
0.00011281437
0.00011299476
0.00011319282
0.00011340755
0.00011363783
0.00011388244
0.00011414007
0.00011440933
0.00011468873
0.00011497673
0.00011527184
0.00011557238
0.00011587676
0.00011618338
0.00011649067
0.0001167971
0.00011710115
0.00011740153
0.00011769682
0.00011798585
0.00011826752
0.00011854082
0.00011880487
0.00011905901
0.00011930254
0.00011953497
0.00011975592
0.00011996514
0.00012016241
0.00012034778
0.00012052116
0.0001206827
0.00012083258
0.00012097101
0.00012109826
0.00012121473
0.00012132064
0.00012141634
0.00012150203
0.00012157784
0.00012164401
0.00012170439
0.00012174733
0.00012174817
0.00011433366
0.00011428579
0.00011426791
0.00011425992
0.0001142606
0.00011427144
0.00011429096
0.00011432051
0.00011435845
0.00011440597
0.00011446125
0.00011452524
0.00011458344
0.00011459632
0.00011459727
0.00011460739
0.00011462538
0.00011465276
0.00011468802
0.00011473244
0.00011478425
0.0001148445
0.00011491116
0.00011498502
0.00011506381
0.00011514807
0.0001152353
0.00011532583
0.00011541696
0.00011550886
0.0001155987
0.00011568616
0.00011576981
0.00011581823
0.00011576149
0.0001156876
0.00011559824
0.00011549231
0.00011537189
0.0001152363
0.00011508801
0.00011492684
0.00011475508
0.00011457382
0.00011438476
0.00011418964
0.00011399027
0.00011378866
0.00011358668
0.00011338633
0.00011318963
0.00011299855
0.00011281501
0.00011264102
0.00011247829
0.00011232857
0.0001121935
0.00011207457
0.0001119731
0.0001118904
0.00011182743
0.0001117851
0.00011176412
0.00011176503
0.00011178819
0.00011183375
0.00011190183
0.00011199219
0.00011210458
0.00011206715
0.00011200341
0.00011196008
0.00011193793
0.00011193733
0.00011195866
0.00011200208
0.00011206758
0.00011215499
0.00011226412
0.00011239437
0.00011254526
0.00011271606
0.00011290591
0.00011311384
0.00011333877
0.00011357948
0.00011383466
0.0001141029
0.00011438269
0.00011467242
0.00011497059
0.00011527542
0.00011558525
0.00011589839
0.00011621318
0.00011652797
0.00011684116
0.00011715133
0.00011745697
0.00011775679
0.00011804959
0.00011833426
0.00011860982
0.00011887554
0.0001191306
0.00011937448
0.00011960671
0.00011982698
0.00012003502
0.00012023086
0.00012041435
0.00012058562
0.00012074482
0.00012089217
0.0001210279
0.00012115242
0.00012126594
0.0001213688
0.00012146121
0.00012154338
0.00012161551
0.00012168198
0.00012172936
0.00012173983
0.00011426083
0.00011421633
0.00011420207
0.00011419798
0.00011420292
0.00011421848
0.0001142432
0.00011427843
0.0001143225
0.00011437656
0.00011443872
0.00011450989
0.00011453111
0.00011451764
0.00011451221
0.00011451666
0.00011452978
0.0001145532
0.00011458548
0.00011462799
0.00011467905
0.00011473974
0.00011480812
0.00011488497
0.00011496807
0.00011505795
0.0001151521
0.00011525082
0.00011535137
0.00011545383
0.0001155553
0.00011565535
0.00011575244
0.00011583583
0.00011577635
0.00011569151
0.00011559033
0.00011547185
0.00011533829
0.00011518913
0.00011502698
0.00011485184
0.00011466616
0.0001144712
0.00011426883
0.00011406096
0.00011384954
0.00011363675
0.00011342457
0.00011321518
0.00011301068
0.00011281318
0.00011262467
0.00011244724
0.00011228268
0.00011213279
0.00011199923
0.00011188352
0.00011178697
0.00011171089
0.0001116562
0.00011162375
0.0001116142
0.00011162801
0.00011166545
0.00011172656
0.00011181134
0.00011191943
0.00011205044
0.00011196272
0.00011187861
0.00011181544
0.00011177409
0.00011175507
0.00011175884
0.00011178566
0.00011183563
0.00011190864
0.0001120046
0.00011212297
0.00011226331
0.00011242496
0.00011260709
0.00011280876
0.00011302891
0.00011326632
0.00011351969
0.00011378756
0.0001140684
0.00011436057
0.00011466247
0.00011497226
0.00011528821
0.00011560852
0.00011593143
0.00011625519
0.00011657808
0.00011689858
0.00011721505
0.0001175261
0.00011783042
0.00011812682
0.00011841419
0.00011869174
0.00011895856
0.00011921405
0.00011945769
0.0001196891
0.00011990798
0.0001201143
0.0001203079
0.00012048886
0.00012065733
0.0001208135
0.0001209576
0.00012109004
0.00012121104
0.00012132093
0.00012141999
0.00012150846
0.00012158657
0.00012165949
0.00012171232
0.00012173044
0.00011417965
0.00011413807
0.00011412712
0.00011412677
0.00011413594
0.00011415623
0.00011418621
0.00011422722
0.00011427759
0.0001143384
0.00011440771
0.00011447192
0.00011445141
0.00011443077
0.00011441881
0.00011441746
0.00011442564
0.00011444505
0.00011447437
0.00011451504
0.00011456545
0.00011462676
0.00011469705
0.00011477718
0.00011486491
0.00011496079
0.0001150623
0.00011516969
0.00011528017
0.00011539376
0.00011550746
0.00011562073
0.0001157319
0.00011583813
0.00011579406
0.00011569818
0.000115585
0.00011545372
0.00011530667
0.00011514352
0.00011496702
0.00011477734
0.00011457711
0.00011436777
0.00011415136
0.00011392995
0.00011370567
0.00011348085
0.00011325764
0.00011303832
0.00011282516
0.00011262035
0.00011242601
0.00011224431
0.00011207711
0.00011192627
0.0001117935
0.00011168033
0.00011158809
0.00011151807
0.00011147117
0.0001114482
0.00011144977
0.00011147624
0.0001115278
0.00011160439
0.00011170589
0.00011183182
0.00011196956
0.00011184526
0.00011174037
0.00011165704
0.00011159627
0.00011155868
0.00011154484
0.0001115551
0.00011158965
0.00011164846
0.00011173148
0.00011183828
0.00011196845
0.00011212136
0.00011229624
0.00011249218
0.0001127081
0.00011294281
0.00011319497
0.00011346312
0.00011374568
0.00011404095
0.00011434726
0.0001146627
0.00011498542
0.00011531355
0.0001156452
0.00011597851
0.00011631165
0.00011664298
0.00011697074
0.00011729344
0.00011760965
0.00011791808
0.00011821753
0.00011850712
0.00011878587
0.0001190531
0.00011930824
0.00011955085
0.0001197806
0.0001199974
0.00012020109
0.00012039172
0.00012056942
0.00012073438
0.00012088683
0.00012102719
0.00012115568
0.00012127265
0.00012137843
0.00012147333
0.00012155758
0.00012163733
0.00012169613
0.00012172189
0.00011409033
0.00011405106
0.00011404302
0.00011404616
0.00011405938
0.0001140843
0.00011411951
0.00011416634
0.00011422307
0.00011429078
0.00011436746
0.00011440104
0.00011436281
0.00011433471
0.00011431597
0.00011430863
0.00011431172
0.00011432705
0.00011435339
0.00011439226
0.00011444214
0.00011450425
0.00011457672
0.00011466044
0.0001147532
0.00011485553
0.00011496491
0.00011508154
0.00011520258
0.00011532797
0.00011545461
0.00011558184
0.00011570785
0.00011582967
0.00011581525
0.00011570823
0.00011558287
0.00011543849
0.00011527758
0.00011509996
0.00011490855
0.0001147037
0.00011448823
0.00011426374
0.00011403248
0.00011379668
0.00011355865
0.00011332089
0.00011308569
0.00011285551
0.00011263273
0.00011241969
0.00011221861
0.00011203175
0.00011186106
0.00011170847
0.00011157573
0.00011146441
0.00011137586
0.00011131137
0.0001112718
0.00011125794
0.00011127033
0.00011130927
0.00011137486
0.00011146693
0.00011158524
0.00011172918
0.00011186214
0.00011171497
0.00011158886
0.00011148502
0.00011140456
0.00011134824
0.00011131671
0.00011131041
0.00011132962
0.00011137438
0.00011144471
0.00011154022
0.00011166056
0.00011180516
0.00011197325
0.00011216396
0.00011237622
0.00011260883
0.00011286045
0.00011312956
0.00011341454
0.00011371363
0.00011402509
0.0001143469
0.00011467714
0.0001150138
0.00011535489
0.00011569843
0.00011604245
0.0001163852
0.00011672481
0.00011705964
0.00011738818
0.00011770903
0.0001180209
0.00011832281
0.00011861372
0.00011889286
0.00011915963
0.00011941352
0.00011965416
0.00011988146
0.00012009519
0.00012029543
0.00012048227
0.00012065593
0.00012081662
0.00012096478
0.00012110066
0.00012122465
0.00012133712
0.00012143845
0.00012152891
0.0001216157
0.0001216807
0.00012171392
0.00011399248
0.00011395526
0.00011394987
0.00011395631
0.00011397348
0.00011400301
0.00011404348
0.00011409621
0.00011415948
0.00011423431
0.00011431865
0.00011431268
0.00011426609
0.00011423022
0.00011420442
0.00011419086
0.00011418868
0.0001141998
0.00011422308
0.00011426015
0.00011430956
0.0001143726
0.00011444745
0.00011453502
0.00011463314
0.00011474234
0.00011486007
0.00011498649
0.0001151187
0.00011525655
0.00011539684
0.00011553879
0.00011568045
0.00011581866
0.00011584089
0.00011572257
0.00011558476
0.00011542692
0.00011525168
0.00011505904
0.00011485209
0.00011463136
0.00011439986
0.0001141594
0.00011391239
0.00011366127
0.00011340853
0.00011315684
0.00011290867
0.00011266663
0.00011243325
0.00011221099
0.00011200221
0.00011180927
0.00011163421
0.00011147904
0.00011134556
0.00011123539
0.0001111499
0.00011109038
0.00011105769
0.00011105257
0.00011107551
0.00011112676
0.0001112063
0.00011131387
0.00011144912
0.00011161129
0.00011174149
0.00011157191
0.00011142407
0.0001112993
0.00011119886
0.00011112359
0.00011107425
0.00011105137
0.00011105528
0.00011108612
0.00011114395
0.00011122844
0.0001113393
0.00011147597
0.00011163773
0.00011182371
0.00011203286
0.00011226398
0.00011251568
0.00011278643
0.00011307455
0.0001133782
0.00011369555
0.0001140245
0.000114363
0.00011470893
0.00011506018
0.00011541462
0.00011577018
0.00011612496
0.00011647697
0.00011682446
0.00011716579
0.00011749946
0.00011782409
0.00011813861
0.0001184419
0.00011873316
0.00011901169
0.00011927696
0.00011952857
0.00011976637
0.00011999016
0.00012019998
0.00012039593
0.00012057822
0.0001207471
0.000120903
0.00012104621
0.00012117717
0.0001212963
0.00012140405
0.00012150077
0.00012159468
0.00012166592
0.00012170639
0.00011388611
0.00011385054
0.00011384749
0.000113857
0.00011387797
0.00011391202
0.00011395774
0.00011401645
0.00011408639
0.00011416854
0.00011426083
0.00011421612
0.00011416074
0.00011411672
0.00011408353
0.00011406346
0.00011405578
0.00011406252
0.00011408265
0.00011411789
0.00011416687
0.00011423095
0.00011430838
0.0001144001
0.00011450395
0.00011462046
0.00011474706
0.00011488387
0.00011502792
0.00011517896
0.00011533369
0.00011549121
0.00011564938
0.0001158049
0.00011587167
0.00011574186
0.00011559129
0.00011541957
0.0001152295
0.00011502121
0.00011479801
0.00011456062
0.00011431224
0.00011405488
0.00011379116
0.00011352371
0.00011325522
0.00011298855
0.00011272634
0.00011247137
0.00011222632
0.00011199382
0.00011177634
0.00011157636
0.00011139601
0.00011123741
0.00011110241
0.00011099268
0.00011090962
0.00011085454
0.00011082828
0.00011083157
0.00011086483
0.00011092825
0.00011102172
0.00011114489
0.00011129726
0.00011147796
0.00011160887
0.00011141621
0.00011124607
0.00011109992
0.00011097914
0.00011088467
0.00011081736
0.00011077782
0.00011076647
0.00011078347
0.00011082898
0.0001109027
0.00011100438
0.0001111335
0.00011128937
0.00011147113
0.00011167774
0.00011190797
0.00011216043
0.00011243353
0.00011272553
0.0001130345
0.00011335855
0.00011369543
0.000114043
0.00011439901
0.00011476119
0.0001151273
0.00011549511
0.00011586259
0.00011622761
0.00011658831
0.00011694293
0.00011728986
0.00011762763
0.00011795508
0.00011827102
0.00011857457
0.00011886501
0.00011914176
0.00011940437
0.0001196527
0.00011988652
0.00012010586
0.00012031085
0.00012050169
0.00012067864
0.00012084219
0.00012099263
0.00012113047
0.0001212562
0.00012137032
0.00012147329
0.0001215743
0.00012165172
0.00012169922
0.000113771
0.0001137368
0.00011373584
0.00011374822
0.00011377286
0.00011381138
0.00011386238
0.00011392715
0.00011400393
0.00011409367
0.00011418316
0.0001141117
0.00011404708
0.00011399447
0.0001139535
0.00011392658
0.00011391312
0.00011391524
0.00011393207
0.00011396539
0.00011401395
0.00011407916
0.00011415933
0.00011425544
0.00011436537
0.00011448962
0.0001146256
0.0001147734
0.00011492996
0.00011509496
0.00011526497
0.00011543893
0.00011561456
0.00011578837
0.00011590849
0.00011576694
0.00011560325
0.00011541717
0.00011521165
0.00011498702
0.00011474679
0.00011449187
0.00011422566
0.0001139504
0.00011366891
0.00011338405
0.00011309869
0.0001128159
0.00011253851
0.00011226948
0.00011201166
0.00011176782
0.00011154057
0.00011133254
0.00011114596
0.00011098303
0.00011084569
0.00011073567
0.00011065441
0.00011060322
0.00011058296
0.00011059432
0.00011063769
0.00011071317
0.00011082059
0.00011095948
0.00011112921
0.00011132877
0.00011146422
0.00011124774
0.00011105469
0.00011088665
0.00011074514
0.00011063117
0.00011054571
0.00011048943
0.0001104628
0.00011046606
0.0001104994
0.00011056257
0.00011065537
0.0001107773
0.00011092771
0.00011110574
0.00011131036
0.00011154033
0.00011179421
0.00011207038
0.00011236702
0.00011268213
0.00011301369
0.00011335936
0.00011371684
0.00011408376
0.0001144577
0.00011483626
0.00011521707
0.00011559796
0.00011597666
0.00011635117
0.00011671961
0.00011708027
0.00011743158
0.0001177723
0.00011810116
0.00011841724
0.00011871974
0.00011900808
0.00011928177
0.00011954065
0.00011978448
0.00012001331
0.00012022725
0.00012042655
0.00012061149
0.00012078257
0.00012094015
0.00012108477
0.00012121699
0.0001213374
0.00012144655
0.0001215546
0.00012163807
0.00012169237
0.000113647
0.00011361382
0.00011361466
0.0001136297
0.00011365786
0.00011370078
0.00011375706
0.00011382799
0.00011391179
0.00011400937
0.00011408361
0.00011399923
0.00011392482
0.00011386313
0.00011381393
0.00011377977
0.00011376018
0.00011375743
0.00011377075
0.00011380205
0.00011385015
0.00011391655
0.00011399962
0.00011410038
0.00011421673
0.00011434917
0.00011449509
0.00011465451
0.00011482432
0.00011500409
0.00011519026
0.00011538163
0.00011557574
0.00011576892
0.00011594412
0.00011579863
0.0001156214
0.0001154204
0.00011519878
0.00011495704
0.0001146989
0.00011442548
0.00011414042
0.00011384616
0.00011354577
0.00011324231
0.00011293889
0.00011263876
0.00011234497
0.00011206067
0.00011178889
0.00011153255
0.00011129444
0.00011107729
0.00011088349
0.00011071531
0.00011057479
0.00011046374
0.00011038362
0.00011033579
0.0001103211
0.00011034023
0.00011039352
0.00011048101
0.00011060244
0.00011075722
0.00011094461
0.00011116344
0.00011130763
0.00011106654
0.00011084989
0.00011065942
0.00011049672
0.00011036294
0.0001102591
0.00011018594
0.000110144
0.00011013356
0.00011015486
0.0001102077
0.00011029189
0.00011040699
0.00011055235
0.00011072715
0.00011093034
0.00011116066
0.00011141666
0.00011169664
0.00011199873
0.00011232081
0.00011266076
0.0001130161
0.00011338441
0.00011376313
0.0001141497
0.00011454157
0.0001149362
0.00011533125
0.00011572432
0.00011611328
0.00011649611
0.000116871
0.00011723627
0.00011759062
0.00011793269
0.00011826151
0.00011857625
0.00011887628
0.0001191611
0.00011943054
0.00011968436
0.00011992261
0.00012014543
0.00012035309
0.00012054588
0.00012072437
0.00012088896
0.00012104024
0.00012117883
0.00012130541
0.00012142063
0.00012153558
0.00012162494
0.0001216858
0.00011351395
0.00011348148
0.00011348383
0.00011350131
0.00011353286
0.00011358012
0.0001136417
0.00011371889
0.0001138099
0.00011391561
0.00011397418
0.00011387884
0.00011379406
0.00011372273
0.00011366478
0.00011362291
0.0001135968
0.00011358886
0.00011359843
0.00011362753
0.0001136751
0.00011374272
0.00011382881
0.00011393445
0.00011405756
0.00011419863
0.00011435503
0.00011452674
0.00011471056
0.00011490595
0.00011510923
0.00011531904
0.00011553273
0.00011574643
0.00011595865
0.00011583784
0.00011564657
0.00011543004
0.00011519156
0.00011493186
0.00011465484
0.00011436188
0.00011405684
0.0001137424
0.00011342187
0.00011309854
0.00011277576
0.000112457
0.00011214552
0.00011184466
0.00011155766
0.00011128761
0.00011103746
0.00011081009
0.00011060801
0.00011043362
0.00011028906
0.00011017619
0.00011009655
0.00011005153
0.00011004199
0.00011006859
0.00011013163
0.0001102311
0.00011036663
0.00011053754
0.00011074294
0.0001109815
0.00011113899
0.00011087242
0.00011063145
0.00011041793
0.00011023358
0.00011007963
0.00010995716
0.00010986698
0.00010980968
0.00010978557
0.00010979494
0.00010983762
0.00010991348
0.00011002208
0.0001101628
0.00011033485
0.00011053717
0.00011076849
0.0001110273
0.00011131187
0.00011162023
0.00011195016
0.00011229942
0.00011266538
0.00011304546
0.00011343694
0.00011383708
0.00011424316
0.00011465246
0.00011506249
0.00011547068
0.00011587476
0.00011627259
0.00011666223
0.00011704193
0.00011741028
0.00011776587
0.00011810767
0.00011843482
0.00011874665
0.00011904265
0.00011932266
0.00011958644
0.00011983405
0.00012006565
0.00012028154
0.00012048207
0.00012066782
0.00012083926
0.00012099704
0.00012114186
0.00012127446
0.00012139559
0.00012151726
0.00012161233
0.0001216795
0.00011337164
0.00011333952
0.0001133431
0.00011336279
0.00011339756
0.00011344909
0.00011351599
0.00011359955
0.00011369796
0.00011381209
0.00011385742
0.00011375044
0.00011365462
0.00011357304
0.00011350577
0.00011345568
0.0001134226
0.00011340907
0.00011341459
0.0001134413
0.00011348824
0.00011355706
0.00011364629
0.00011375703
0.00011388723
0.00011403739
0.00011420486
0.00011438954
0.00011458817
0.0001148001
0.0001150215
0.00011525084
0.00011548531
0.00011572077
0.00011595552
0.00011588554
0.0001156797
0.00011544695
0.00011519079
0.00011491217
0.00011461522
0.00011430157
0.00011397532
0.00011363941
0.0001132974
0.00011295284
0.00011260931
0.00011227052
0.00011193996
0.00011162118
0.00011131762
0.00011103257
0.00011076914
0.00011053038
0.00011031893
0.00011013733
0.00010998782
0.00010987234
0.00010979251
0.00010974975
0.00010974493
0.00010977872
0.00010985138
0.00010996283
0.00011011262
0.00011029993
0.00011052375
0.00011078259
0.00011095829
0.00011066531
0.00011039922
0.00011016201
0.00010995549
0.00010978097
0.0001096396
0.00010953223
0.00010945948
0.00010942171
0.00010941925
0.00010945194
0.0001095197
0.00010962212
0.00010975861
0.00010992839
0.00011013039
0.00011036335
0.0001106257
0.00011091566
0.00011123115
0.00011156986
0.0001119294
0.00011230698
0.00011269985
0.0001131051
0.00011351981
0.00011394106
0.00011436595
0.00011479181
0.00011521592
0.00011563584
0.00011604931
0.00011645427
0.00011684887
0.00011723161
0.00011760104
0.00011795606
0.00011829578
0.00011861951
0.00011892676
0.00011921733
0.00011949102
0.0001197479
0.00011998818
0.00012021217
0.00012042026
0.00012061311
0.00012079123
0.00012095533
0.00012110619
0.00012124464
0.0001213715
0.00012149968
0.00012160023
0.00012167347
0.0001132199
0.00011318778
0.00011319228
0.00011321394
0.00011325178
0.00011330749
0.00011337972
0.00011346976
0.0001135758
0.00011369867
0.00011373348
0.0001136141
0.00011350652
0.00011341399
0.00011333676
0.00011327785
0.00011323728
0.00011321773
0.00011321885
0.0001132429
0.00011328905
0.00011335904
0.00011345149
0.00011356753
0.00011370515
0.00011386486
0.00011404398
0.00011424235
0.00011445664
0.00011468607
0.00011492667
0.00011517673
0.00011543323
0.00011569181
0.00011595051
0.0001159428
0.00011572177
0.00011547202
0.00011519727
0.00011489868
0.00011458065
0.00011424505
0.00011389626
0.00011353749
0.00011317256
0.0001128053
0.00011243953
0.00011207922
0.0001117281
0.00011138996
0.00011106843
0.00011076701
0.00011048899
0.0001102376
0.00011001564
0.00010982578
0.00010967036
0.00010955145
0.00010947073
0.00010942966
0.00010942915
0.00010946986
0.00010955202
0.00010967549
0.00010983972
0.00011004377
0.00011028649
0.00011056621
0.00011076538
0.00011044499
0.00011015295
0.00010989135
0.00010966211
0.0001094666
0.00010930602
0.00010918127
0.00010909298
0.00010904155
0.00010902732
0.00010905019
0.00010911007
0.00010920662
0.00010933927
0.00010950724
0.0001097095
0.00010994474
0.00011021138
0.00011050755
0.00011083109
0.00011117955
0.00011155039
0.00011194065
0.00011234738
0.00011276749
0.00011319783
0.00011363528
0.00011407674
0.00011451936
0.00011496023
0.00011539676
0.00011582654
0.00011624741
0.0001166574
0.00011705495
0.00011743853
0.00011780702
0.00011815948
0.00011849523
0.00011881375
0.00011911488
0.00011939841
0.00011966447
0.00011991328
0.00012014521
0.00012036071
0.00012056046
0.00012074505
0.00012091527
0.00012107197
0.00012121604
0.00012134842
0.00012148286
0.00012158865
0.0001216677
0.00011305852
0.00011302601
0.0001130311
0.00011305448
0.00011309521
0.00011315502
0.00011323259
0.00011332922
0.00011344311
0.00011357505
0.00011360242
0.00011346982
0.00011334967
0.00011324542
0.00011315751
0.00011308913
0.00011304048
0.00011301441
0.00011301072
0.00011303182
0.00011307698
0.00011314808
0.00011324378
0.00011336532
0.00011351069
0.00011368042
0.00011387179
0.00011408461
0.00011431545
0.00011456339
0.00011482434
0.00011509638
0.00011537629
0.00011565945
0.00011594363
0.00011601082
0.00011577391
0.0001155063
0.00011521194
0.00011489224
0.00011455185
0.00011419294
0.00011382016
0.00011343702
0.00011304762
0.00011265606
0.00011226646
0.00011188305
0.0001115098
0.00011115073
0.00011080973
0.00011049049
0.00011019651
0.0001099312
0.00010969751
0.00010949828
0.00010933598
0.00010921277
0.00010913043
0.00010909048
0.00010909387
0.00010914124
0.00010923281
0.00010936837
0.00010954727
0.00010976847
0.00011003064
0.00011033192
0.00011056016
0.00011021129
0.00010989238
0.00010960566
0.00010935312
0.00010913618
0.00010895607
0.00010881373
0.00010870979
0.00010864468
0.00010861874
0.0001086319
0.00010868412
0.00010877509
0.00010890426
0.0001090709
0.00010927397
0.00010951216
0.00010978385
0.00011008709
0.00011041963
0.00011077886
0.00011116209
0.00011156617
0.00011198792
0.00011242404
0.00011287115
0.0001133259
0.00011378498
0.00011424533
0.00011470385
0.0001151578
0.00011560461
0.000116042
0.0001164679
0.00011688068
0.00011727875
0.00011766094
0.00011802632
0.00011837417
0.00011870399
0.00011901564
0.00011930895
0.00011958406
0.00011984126
0.00012008095
0.00012030363