/*--------------------------------*- C++ -*----------------------------------*\
| =========                 |                                                 |
| \\      /  F ield         | foam-extend: Open Source CFD                    |
|  \\    /   O peration     | Version:     4.1                                |
|   \\  /    A nd           | Web:         http://www.foam-extend.org         |
|    \\/     M anipulation  |                                                 |
\*---------------------------------------------------------------------------*/
FoamFile
{
    version     2.0;
    format      ascii;
    class       volScalarField;
    location    "0.1";
    object      rAU;
}
// * * * * * * * * * * * * * * * * * * * * * * * * * * * * * * * * * * * * * //

dimensions      [0 0 1 0 0 0 0];

internalField   nonuniform List<scalar> 
16796
(
3.8558488e-05
3.8572447e-05
3.858696e-05
3.8603225e-05
3.8621034e-05
3.8640573e-05
3.8661492e-05
3.8683655e-05
3.8706582e-05
3.8730049e-05
3.8753519e-05
3.8776724e-05
3.8799099e-05
3.8820358e-05
3.8839928e-05
3.885752e-05
3.8872568e-05
3.8884798e-05
3.8893676e-05
3.889898e-05
3.8897468e-05
3.8890732e-05
3.8880236e-05
3.8866361e-05
3.8849176e-05
3.8829029e-05
3.8805989e-05
3.8780433e-05
3.875247e-05
3.8722519e-05
3.8690729e-05
3.865752e-05
3.8623213e-05
3.8588029e-05
3.8552442e-05
3.8516636e-05
3.8481075e-05
3.844592e-05
3.8411605e-05
3.837825e-05
3.8346243e-05
3.831566e-05
3.8286776e-05
3.8259697e-05
3.823454e-05
3.8211378e-05
3.8190247e-05
3.8171157e-05
3.8154064e-05
3.8138907e-05
3.812559e-05
3.811399e-05
3.8103959e-05
3.8095344e-05
3.808796e-05
3.8081625e-05
3.8076152e-05
3.8071356e-05
3.8067055e-05
3.8063093e-05
3.8059307e-05
3.8055567e-05
3.805176e-05
3.8047796e-05
3.8043609e-05
3.8039153e-05
3.8034419e-05
3.8029402e-05
3.8024132e-05
3.8018657e-05
3.8013045e-05
3.8007376e-05
3.8001756e-05
3.7996282e-05
3.799107e-05
3.7986233e-05
3.7981884e-05
3.7978126e-05
3.7975071e-05
3.797279e-05
3.7971365e-05
3.7970855e-05
3.7970855e-05
3.7971308e-05
3.7972757e-05
3.7975213e-05
3.7978667e-05
3.7983093e-05
3.798845e-05
3.7994678e-05
3.8001723e-05
3.8009494e-05
3.801791e-05
3.8026877e-05
3.8036299e-05
3.8046076e-05
3.8056104e-05
3.8066294e-05
3.8076536e-05
3.8086739e-05
3.8096809e-05
3.8106661e-05
3.8116206e-05
3.8125379e-05
3.8134095e-05
3.8142292e-05
3.8149907e-05
3.8156883e-05
3.8163166e-05
3.8168718e-05
3.8173485e-05
3.8177433e-05
3.8180527e-05
3.8182736e-05
3.8184029e-05
3.8183806e-05
3.8182256e-05
3.817974e-05
3.8176265e-05
3.817185e-05
3.816656e-05
3.8160611e-05
3.8154021e-05
3.8143689e-05
3.7435983e-05
3.7459064e-05
3.7483557e-05
3.7509534e-05
3.753622e-05
3.7563645e-05
3.7591357e-05
3.7619218e-05
3.764678e-05
3.7673913e-05
3.7700199e-05
3.7725546e-05
3.7749586e-05
3.7772281e-05
3.7793318e-05
3.7812717e-05
3.7830222e-05
3.7845901e-05
3.785954e-05
3.787123e-05
3.7878038e-05
3.7875545e-05
3.786984e-05
3.7861553e-05
3.7850542e-05
3.7837065e-05
3.7821138e-05
3.7803128e-05
3.7783131e-05
3.7761573e-05
3.7738594e-05
3.7714612e-05
3.7689939e-05
3.7664777e-05
3.7639593e-05
3.7614541e-05
3.7590069e-05
3.7566304e-05
3.754366e-05
3.7522218e-05
3.7502341e-05
3.7484064e-05
3.7467633e-05
3.7453115e-05
3.7440594e-05
3.7430107e-05
3.7421654e-05
3.7415212e-05
3.7410705e-05
3.7408038e-05
3.7407085e-05
3.7407697e-05
3.7409698e-05
3.7412915e-05
3.7417139e-05
3.7422172e-05
3.7427813e-05
3.7433101e-05
3.74385e-05
3.7444307e-05
3.745033e-05
3.7456409e-05
3.74624e-05
3.7468179e-05
3.7473652e-05
3.7478746e-05
3.7483094e-05
3.7486676e-05
3.7489922e-05
3.749292e-05
3.7495777e-05
3.7498605e-05
3.7501546e-05
3.7504719e-05
3.7508262e-05
3.7512305e-05
3.7516972e-05
3.7521211e-05
3.7526039e-05
3.7531601e-05
3.7537999e-05
3.7545316e-05
3.755317e-05
3.7561515e-05
3.757089e-05
3.7581324e-05
3.7592825e-05
3.7605385e-05
3.7618977e-05
3.7633558e-05
3.7649084e-05
3.7665475e-05
3.7682659e-05
3.7700549e-05
3.7719054e-05
3.7738076e-05
3.7757512e-05
3.7777274e-05
3.7797251e-05
3.7817349e-05
3.7837472e-05
3.7857529e-05
3.787743e-05
3.7897103e-05
3.7916459e-05
3.7935431e-05
3.795395e-05
3.7971955e-05
3.7989385e-05
3.8006198e-05
3.8022335e-05
3.8037754e-05
3.8052415e-05
3.806628e-05
3.8079309e-05
3.8090896e-05
3.810121e-05
3.8110594e-05
3.8119034e-05
3.8126526e-05
3.8133071e-05
3.8137486e-05
3.8140762e-05
3.8141437e-05
3.73593e-05
3.7382373e-05
3.7407784e-05
3.7434619e-05
3.7462051e-05
3.7490088e-05
3.751827e-05
3.7546464e-05
3.757421e-05
3.7601363e-05
3.7627479e-05
3.7652439e-05
3.7675839e-05
3.769761e-05
3.7717407e-05
3.7735226e-05
3.7750791e-05
3.7764167e-05
3.7775145e-05
3.7783842e-05
3.7788245e-05
3.7777712e-05
3.7764233e-05
3.7748752e-05
3.7731313e-05
3.7712287e-05
3.7691756e-05
3.7670128e-05
3.7647516e-05
3.762435e-05
3.7600755e-05
3.7577129e-05
3.7553747e-05
3.7530765e-05
3.7508592e-05
3.7487319e-05
3.7467322e-05
3.7448648e-05
3.7431628e-05
3.7416258e-05
3.7402809e-05
3.7391227e-05
3.7381667e-05
3.7374109e-05
3.7368549e-05
3.7364944e-05
3.7363214e-05
3.7363266e-05
3.7364959e-05
3.7368142e-05
3.7372641e-05
3.7378269e-05
3.7384821e-05
3.7392106e-05
3.7398551e-05
3.7403991e-05
3.7410119e-05
3.7415989e-05
3.7422073e-05
3.7428667e-05
3.7435574e-05
3.7442621e-05
3.7449648e-05
3.7456511e-05
3.7463089e-05
3.746928e-05
3.7474685e-05
3.747925e-05
3.7483371e-05
3.7487103e-05
3.7490521e-05
3.7493714e-05
3.7496803e-05
3.7499892e-05
3.7503113e-05
3.7506595e-05
3.7510467e-05
3.751369e-05
3.75173e-05
3.7521462e-05
3.7526308e-05
3.7531947e-05
3.7538474e-05
3.7545974e-05
3.7554507e-05
3.7564119e-05
3.7574833e-05
3.7586655e-05
3.7599572e-05
3.761355e-05
3.7628553e-05
3.764451e-05
3.7661351e-05
3.7678994e-05
3.7697346e-05
3.7716311e-05
3.7735785e-05
3.7755674e-05
3.7775866e-05
3.7796261e-05
3.7816759e-05
3.7837264e-05
3.785768e-05
3.787793e-05
3.789792e-05
3.7917576e-05
3.7936828e-05
3.7955608e-05
3.7973851e-05
3.7991512e-05
3.8008528e-05
3.8024854e-05
3.8040447e-05
3.8055266e-05
3.8069269e-05
3.8082433e-05
3.8094713e-05
3.8106079e-05
3.8116498e-05
3.8125935e-05
3.8134322e-05
3.8140331e-05
3.8145008e-05
3.8145858e-05
3.7328753e-05
3.7350584e-05
3.737565e-05
3.7402517e-05
3.743038e-05
3.7459189e-05
3.7488458e-05
3.7518026e-05
3.7547406e-05
3.7576423e-05
3.7604598e-05
3.763177e-05
3.7657496e-05
3.7681658e-05
3.7703864e-05
3.7724059e-05
3.7741918e-05
3.7757455e-05
3.7770415e-05
3.7780877e-05
3.7781424e-05
3.7766701e-05
3.7749663e-05
3.7730745e-05
3.7710075e-05
3.7688088e-05
3.7664915e-05
3.7641002e-05
3.761649e-05
3.7591828e-05
3.7567154e-05
3.7542864e-05
3.751923e-05
3.7496394e-05
3.7474746e-05
3.745435e-05
3.7435553e-05
3.741837e-05
3.7403093e-05
3.7389679e-05
3.7378363e-05
3.7369049e-05
3.7361854e-05
3.735672e-05
3.7353605e-05
3.7352432e-05
3.7353089e-05
3.7355453e-05
3.7359355e-05
3.7364619e-05
3.7371049e-05
3.7378439e-05
3.7386569e-05
3.7392206e-05
3.7395757e-05
3.7398822e-05
3.7403107e-05
3.7408425e-05
3.7414572e-05
3.7421359e-05
3.7428572e-05
3.7436017e-05
3.744351e-05
3.7450882e-05
3.7457985e-05
3.7464692e-05
3.7470917e-05
3.7476581e-05
3.7481652e-05
3.7486122e-05
3.7490013e-05
3.7493371e-05
3.7496284e-05
3.7498839e-05
3.7501156e-05
3.7503366e-05
3.7505613e-05
3.7508041e-05
3.7510812e-05
3.7514058e-05
3.7517928e-05
3.752255e-05
3.752804e-05
3.7534499e-05
3.7542005e-05
3.7550621e-05
3.7560386e-05
3.757132e-05
3.758342e-05
3.7596662e-05
3.7611019e-05
3.7626424e-05
3.764281e-05
3.7660097e-05
3.7678193e-05
3.7697e-05
3.7716409e-05
3.7736327e-05
3.7756634e-05
3.7777227e-05
3.7798e-05
3.7818852e-05
3.7839682e-05
3.7860407e-05
3.7880929e-05
3.7901169e-05
3.7921051e-05
3.7940505e-05
3.7959461e-05
3.797787e-05
3.7995667e-05
3.8012803e-05
3.8029232e-05
3.804491e-05
3.8059791e-05
3.8073849e-05
3.8087031e-05
3.8099302e-05
3.8110617e-05
3.8120925e-05
3.8130141e-05
3.8138169e-05
3.8144945e-05
3.8147002e-05
3.7297204e-05
3.7318197e-05
3.7343044e-05
3.7370079e-05
3.7398527e-05
3.7428292e-05
3.7458865e-05
3.7490057e-05
3.7521357e-05
3.755256e-05
3.7583157e-05
3.7612953e-05
3.7641466e-05
3.7668541e-05
3.7693746e-05
3.7716982e-05
3.7737885e-05
3.7756427e-05
3.7772311e-05
3.7785577e-05
3.7781623e-05
3.7764245e-05
3.7744613e-05
3.7723184e-05
3.7700114e-05
3.7675872e-05
3.7650622e-05
3.7624834e-05
3.759867e-05
3.7572595e-05
3.7546757e-05
3.752156e-05
3.7497278e-05
3.7474052e-05
3.7452269e-05
3.7431986e-05
3.741354e-05
3.7396934e-05
3.7382446e-05
3.7370018e-05
3.7359865e-05
3.7351873e-05
3.7346138e-05
3.7342577e-05
3.7341126e-05
3.7341682e-05
3.7344107e-05
3.734825e-05
3.7353914e-05
3.7360897e-05
3.7368976e-05
3.7377917e-05
3.7385082e-05
3.7386199e-05
3.7387309e-05
3.7390004e-05
3.7394107e-05
3.7399417e-05
3.7405715e-05
3.7412791e-05
3.7420406e-05
3.7428341e-05
3.7436384e-05
3.7444337e-05
3.7452024e-05
3.7459288e-05
3.746602e-05
3.7472116e-05
3.7477523e-05
3.7482216e-05
3.7486204e-05
3.7489524e-05
3.749226e-05
3.7494496e-05
3.7496356e-05
3.749798e-05
3.7499519e-05
3.7501134e-05
3.7503001e-05
3.750527e-05
3.7508111e-05
3.7511669e-05
3.7516082e-05
3.7521469e-05
3.7527928e-05
3.7535538e-05
3.7544354e-05
3.7554408e-05
3.7565709e-05
3.7578242e-05
3.7591986e-05
3.7606877e-05
3.7622853e-05
3.7639832e-05
3.7657721e-05
3.7676421e-05
3.7695819e-05
3.7715816e-05
3.7736288e-05
3.7757126e-05
3.777822e-05
3.7799462e-05
3.7820745e-05
3.7841982e-05
3.7863069e-05
3.7883924e-05
3.7904465e-05
3.7924618e-05
3.794431e-05
3.7963491e-05
3.798209e-05
3.8000058e-05
3.8017346e-05
3.8033908e-05
3.8049696e-05
3.8064679e-05
3.8078804e-05
3.8092028e-05
3.8104303e-05
3.8115566e-05
3.8125725e-05
3.8134682e-05
3.8142301e-05
3.8145659e-05
3.726424e-05
3.7284679e-05
3.7309412e-05
3.7336722e-05
3.7365859e-05
3.7396699e-05
3.742871e-05
3.7461677e-05
3.7495059e-05
3.7528618e-05
3.7561809e-05
3.7594398e-05
3.7625864e-05
3.7656007e-05
3.768435e-05
3.7710751e-05
3.77348e-05
3.7756426e-05
3.7775293e-05
3.7791407e-05
3.7782816e-05
3.7762678e-05
3.7740373e-05
3.7716382e-05
3.7690888e-05
3.7664379e-05
3.763704e-05
3.7609358e-05
3.7581509e-05
3.7553968e-05
3.7526893e-05
3.7500694e-05
3.7475651e-05
3.7451906e-05
3.7429846e-05
3.7409525e-05
3.7391278e-05
3.73751e-05
3.7361261e-05
3.7349691e-05
3.7340591e-05
3.7333833e-05
3.7329491e-05
3.7327463e-05
3.7327659e-05
3.7329951e-05
3.733417e-05
3.7340138e-05
3.7347626e-05
3.7356399e-05
3.7366205e-05
3.7376779e-05
3.7378615e-05
3.7377256e-05
3.737784e-05
3.7380213e-05
3.7384186e-05
3.7389546e-05
3.7396057e-05
3.7403484e-05
3.7411564e-05
3.7420051e-05
3.7428701e-05
3.7437286e-05
3.7445601e-05
3.745346e-05
3.7460725e-05
3.7467269e-05
3.7473016e-05
3.7477925e-05
3.7481991e-05
3.7485243e-05
3.748776e-05
3.7489628e-05
3.7490976e-05
3.7491951e-05
3.7492719e-05
3.7493455e-05
3.7494354e-05
3.7495586e-05
3.7497341e-05
3.7499788e-05
3.7503083e-05
3.7507367e-05
3.7512757e-05
3.751935e-05
3.7527215e-05
3.7536399e-05
3.7546921e-05
3.7558772e-05
3.7571937e-05
3.7586357e-05
3.7601969e-05
3.7618691e-05
3.7636428e-05
3.7655076e-05
3.7674517e-05
3.7694648e-05
3.7715339e-05
3.7736473e-05
3.7757934e-05
3.7779609e-05
3.7801384e-05
3.7823167e-05
3.7844849e-05
3.7866343e-05
3.7887562e-05
3.7908429e-05
3.7928869e-05
3.7948826e-05
3.7968229e-05
3.7987025e-05
3.8005165e-05
3.8022598e-05
3.8039277e-05
3.8055168e-05
3.8070214e-05
3.8084372e-05
3.809759e-05
3.8109804e-05
3.8120929e-05
3.8130879e-05
3.8139511e-05
3.8144042e-05
3.7228945e-05
3.7249062e-05
3.7273848e-05
3.7301611e-05
3.7331605e-05
3.7363686e-05
3.73973e-05
3.7432206e-05
3.7467833e-05
3.7503909e-05
3.7539853e-05
3.7575393e-05
3.7609966e-05
3.7643329e-05
3.7674962e-05
3.7704681e-05
3.773203e-05
3.7756896e-05
3.7778904e-05
3.7798019e-05
3.7784773e-05
3.7761837e-05
3.77368e-05
3.7710169e-05
3.7682151e-05
3.765326e-05
3.7623704e-05
3.7593988e-05
3.7564308e-05
3.7535151e-05
3.7506687e-05
3.7479335e-05
3.7453379e-05
3.7428968e-05
3.7406489e-05
3.7385998e-05
3.7367826e-05
3.7351964e-05
3.7338677e-05
3.7327883e-05
3.7319772e-05
3.7314199e-05
3.7311223e-05
3.7310717e-05
3.731257e-05
3.7316625e-05
3.7322686e-05
3.733054e-05
3.7339928e-05
3.7350581e-05
3.7362212e-05
3.7372024e-05
3.7368719e-05
3.7366682e-05
3.7366812e-05
3.736895e-05
3.7372895e-05
3.7378416e-05
3.7385256e-05
3.7393153e-05
3.7401816e-05
3.7410965e-05
3.7420326e-05
3.7429636e-05
3.7438658e-05
3.7447175e-05
3.7455021e-05
3.7462042e-05
3.7468143e-05
3.7473264e-05
3.747739e-05
3.7480541e-05
3.7482794e-05
3.7484237e-05
3.7485006e-05
3.7485262e-05
3.7485183e-05
3.7484964e-05
3.7484819e-05
3.7484942e-05
3.7485545e-05
3.748682e-05
3.7488947e-05
3.7492089e-05
3.7496382e-05
3.7501941e-05
3.7508852e-05
3.7517173e-05
3.7526933e-05
3.7538131e-05
3.7550756e-05
3.756475e-05
3.7580051e-05
3.7596573e-05
3.7614219e-05
3.7632878e-05
3.7652428e-05
3.7672758e-05
3.7693729e-05
3.7715221e-05
3.7737109e-05
3.7759272e-05
3.7781592e-05
3.7803969e-05
3.7826291e-05
3.7848463e-05
3.7870399e-05
3.7892015e-05
3.7913232e-05
3.7933995e-05
3.7954228e-05
3.7973878e-05
3.7992892e-05
3.8011221e-05
3.8028813e-05
3.8045635e-05
3.8061626e-05
3.8076742e-05
3.8090928e-05
3.8104119e-05
3.8116233e-05
3.8127192e-05
3.8136867e-05
3.8142581e-05
3.7191912e-05
3.7211862e-05
3.7236814e-05
3.7265159e-05
3.7296142e-05
3.7329608e-05
3.7364981e-05
3.7401992e-05
3.7440036e-05
3.7478806e-05
3.7517679e-05
3.755634e-05
3.7594179e-05
3.7630907e-05
3.7665957e-05
3.7699097e-05
3.7729828e-05
3.7757992e-05
3.7783175e-05
3.7805307e-05
3.77872e-05
3.7761278e-05
3.7733327e-05
3.7703883e-05
3.767318e-05
3.7641756e-05
3.760984e-05
3.7577957e-05
3.7546318e-05
3.7515425e-05
3.7485457e-05
3.7456845e-05
3.7429879e-05
3.7404712e-05
3.7381737e-05
3.736101e-05
3.7342861e-05
3.7327277e-05
3.7314517e-05
3.7304492e-05
3.729738e-05
3.729302e-05
3.7291451e-05
3.7292528e-05
3.7296113e-05
3.730202e-05
3.7310022e-05
3.7319874e-05
3.7331279e-05
3.7343933e-05
3.7357513e-05
3.7362748e-05
3.7357526e-05
3.7354846e-05
3.7354572e-05
3.7356538e-05
3.736053e-05
3.7366297e-05
3.7373556e-05
3.738202e-05
3.7391363e-05
3.7401271e-05
3.7411435e-05
3.7421557e-05
3.7431361e-05
3.74406e-05
3.7449077e-05
3.7456611e-05
3.7463084e-05
3.746842e-05
3.747259e-05
3.7475609e-05
3.7477553e-05
3.7478513e-05
3.7478637e-05
3.7478096e-05
3.7477089e-05
3.7475829e-05
3.7474556e-05
3.7473487e-05
3.7472861e-05
3.7472895e-05
3.7473794e-05
3.7475743e-05
3.7478901e-05
3.7483401e-05
3.7489345e-05
3.7496802e-05
3.7505812e-05
3.7516379e-05
3.7528497e-05
3.7542107e-05
3.7557145e-05
3.7573523e-05
3.7591135e-05
3.7609867e-05
3.7629587e-05
3.7650176e-05
3.7671488e-05
3.7693394e-05
3.7715762e-05
3.7738463e-05
3.7761372e-05
3.7784384e-05
3.780738e-05
3.7830262e-05
3.7852937e-05
3.7875321e-05
3.7897332e-05
3.791891e-05
3.793998e-05
3.7960487e-05
3.7980377e-05
3.79996e-05
3.8018104e-05
3.8035855e-05
3.8052793e-05
3.8068874e-05
3.8084043e-05
3.809824e-05
3.8111389e-05
3.8123421e-05
3.8134223e-05
3.8141186e-05
3.7152554e-05
3.7172466e-05
3.7197718e-05
3.7226803e-05
3.7258943e-05
3.7293969e-05
3.7331283e-05
3.7370586e-05
3.7411242e-05
3.7452901e-05
3.74949e-05
3.7536878e-05
3.7578177e-05
3.761846e-05
3.7657112e-05
3.7693851e-05
3.7728133e-05
3.7759755e-05
3.778826e-05
3.781354e-05
3.7790369e-05
3.7761341e-05
3.7730342e-05
3.769794e-05
3.7664398e-05
3.7630281e-05
3.7595841e-05
3.7561626e-05
3.7527865e-05
3.7495074e-05
3.746345e-05
3.7433431e-05
3.7405316e-05
3.7379268e-05
3.735568e-05
3.7334614e-05
3.7316398e-05
3.7301018e-05
3.7288728e-05
3.7279431e-05
3.7273294e-05
3.7270142e-05
3.7269996e-05
3.7272689e-05
3.7278057e-05
3.7285886e-05
3.7295916e-05
3.7307867e-05
3.7321404e-05
3.7336184e-05
3.7351844e-05
3.7350735e-05
3.7344655e-05
3.7341383e-05
3.7340778e-05
3.7342665e-05
3.7346811e-05
3.7352946e-05
3.7360756e-05
3.7369921e-05
3.738008e-05
3.7390881e-05
3.7401973e-05
3.741302e-05
3.7423708e-05
3.7433753e-05
3.7442925e-05
3.7451018e-05
3.7457889e-05
3.7463445e-05
3.7467646e-05
3.7470501e-05
3.7472086e-05
3.74725e-05
3.7471901e-05
3.7470478e-05
3.746845e-05
3.7466054e-05
3.7463558e-05
3.7461204e-05
3.7459261e-05
3.7457975e-05
3.7457577e-05
3.7458277e-05
3.7460257e-05
3.746367e-05
3.7468632e-05
3.7475226e-05
3.7483501e-05
3.7493466e-05
3.7505115e-05
3.751839e-05
3.7533224e-05
3.7549521e-05
3.756717e-05
3.7586046e-05
3.760601e-05
3.7626933e-05
3.764866e-05
3.7671051e-05
3.7693966e-05
3.7717268e-05
3.7740826e-05
3.7764527e-05
3.7788247e-05
3.7811883e-05
3.783534e-05
3.7858527e-05
3.7881363e-05
3.7903784e-05
3.7925715e-05
3.79471e-05
3.7967883e-05
3.7988015e-05
3.8007443e-05
3.8026132e-05
3.8044025e-05
3.8061076e-05
3.8077233e-05
3.8092437e-05
3.8106621e-05
3.8119726e-05
3.8131659e-05
3.813985e-05
3.7111098e-05
3.7131086e-05
3.7156756e-05
3.7186717e-05
3.7220162e-05
3.7256915e-05
3.7296352e-05
3.7338143e-05
3.7381613e-05
3.7426371e-05
3.7471706e-05
3.7517208e-05
3.7562166e-05
3.7606191e-05
3.7648616e-05
3.7689107e-05
3.7727071e-05
3.7762262e-05
3.7794179e-05
3.7822679e-05
3.7794105e-05
3.7761779e-05
3.7727544e-05
3.7692001e-05
3.7655443e-05
3.7618462e-05
3.7581336e-05
3.7544632e-05
3.75086e-05
3.7473772e-05
3.7440357e-05
3.7408806e-05
3.737943e-05
3.7352395e-05
3.7328105e-05
3.7306622e-05
3.7288278e-05
3.7273057e-05
3.726121e-05
3.7252632e-05
3.7247481e-05
3.7245568e-05
3.7246895e-05
3.7251274e-05
3.7258515e-05
3.7268373e-05
3.7280553e-05
3.7294738e-05
3.7310552e-05
3.7327608e-05
3.7344736e-05
3.7337178e-05
3.7330259e-05
3.7326433e-05
3.7325559e-05
3.7327446e-05
3.7331845e-05
3.7338459e-05
3.7346944e-05
3.7356942e-05
3.7368052e-05
3.7379879e-05
3.7392028e-05
3.7404121e-05
3.74158e-05
3.7426744e-05
3.7436687e-05
3.7445393e-05
3.7452694e-05
3.7458481e-05
3.7462701e-05
3.7465359e-05
3.7466534e-05
3.7466333e-05
3.7464928e-05
3.7462528e-05
3.7459377e-05
3.7455737e-05
3.7451908e-05
3.7448163e-05
3.7444802e-05
3.7442102e-05
3.7440325e-05
3.7439708e-05
3.7440455e-05
3.7442741e-05
3.7446699e-05
3.7452423e-05
3.745997e-05
3.7469354e-05
3.748057e-05
3.7493556e-05
3.750824e-05
3.7524519e-05
3.7542272e-05
3.7561363e-05
3.7581643e-05
3.7602972e-05
3.7625182e-05
3.7648125e-05
3.7671651e-05
3.7695614e-05
3.7719873e-05
3.7744312e-05
3.7768798e-05
3.7793225e-05
3.7817494e-05
3.7841512e-05
3.7865193e-05
3.7888476e-05
3.7911281e-05
3.7933554e-05
3.7955239e-05
3.7976287e-05
3.7996646e-05
3.8016283e-05
3.8035141e-05
3.8053176e-05
3.8070339e-05
3.8086576e-05
3.8101824e-05
3.8116032e-05
3.8129121e-05
3.8138547e-05
3.7067122e-05
3.7087285e-05
3.7113492e-05
3.7144481e-05
3.7179403e-05
3.7218071e-05
3.7259834e-05
3.7304328e-05
3.735084e-05
3.739893e-05
3.7447839e-05
3.7497103e-05
3.7545956e-05
3.7593954e-05
3.7640372e-05
3.7684826e-05
3.772667e-05
3.7765609e-05
3.7801102e-05
3.7831977e-05
3.7798597e-05
3.7762804e-05
3.7725156e-05
3.7686289e-05
3.764653e-05
3.7606501e-05
3.7566504e-05
3.7527132e-05
3.7488654e-05
3.745162e-05
3.7416255e-05
3.7383023e-05
3.7352246e-05
3.7324099e-05
3.7298993e-05
3.7276996e-05
3.7258442e-05
3.7243316e-05
3.7231866e-05
3.7223982e-05
3.7219812e-05
3.7219154e-05
3.7221994e-05
3.7228121e-05
3.7237317e-05
3.7249307e-05
3.726376e-05
3.7280317e-05
3.7298559e-05
3.7318053e-05
3.7333006e-05
3.7321804e-05
3.7314065e-05
3.7309737e-05
3.730867e-05
3.731066e-05
3.7315436e-05
3.732267e-05
3.7331984e-05
3.7342976e-05
3.7355202e-05
3.7368218e-05
3.738158e-05
3.7394862e-05
3.7407662e-05
3.7419614e-05
3.7430415e-05
3.7439797e-05
3.7447569e-05
3.7453599e-05
3.7457827e-05
3.7460254e-05
3.7460962e-05
3.7460069e-05
3.7457765e-05
3.7454283e-05
3.7449892e-05
3.7444888e-05
3.7439603e-05
3.7434348e-05
3.7429456e-05
3.7425239e-05
3.7421992e-05
3.741998e-05
3.7419436e-05
3.7420553e-05
3.7423482e-05
3.742833e-05
3.7435161e-05
3.7443992e-05
3.7454817e-05
3.7467569e-05
3.7482168e-05
3.7498502e-05
3.7516438e-05
3.7535828e-05
3.7556509e-05
3.7578328e-05
3.7601106e-05
3.7624681e-05
3.7648893e-05
3.7673588e-05
3.7698615e-05
3.772385e-05
3.7749157e-05
3.7774423e-05
3.7799545e-05
3.782443e-05
3.7848988e-05
3.7873156e-05
3.7896857e-05
3.7920034e-05
3.7942634e-05
3.7964606e-05
3.7985903e-05
3.800649e-05
3.8026313e-05
3.8045332e-05
3.80635e-05
3.8080767e-05
3.8097077e-05
3.8112387e-05
3.8126629e-05
3.8137272e-05
3.7020649e-05
3.704109e-05
3.7067953e-05
3.7100112e-05
3.7136677e-05
3.717745e-05
3.7221749e-05
3.7269173e-05
3.7318966e-05
3.7370638e-05
3.7423376e-05
3.7476653e-05
3.7529649e-05
3.7581854e-05
3.7632487e-05
3.7681106e-05
3.7727011e-05
3.776986e-05
3.7809064e-05
3.7841042e-05
3.7803739e-05
3.7764265e-05
3.7722995e-05
3.76806e-05
3.7637442e-05
3.7594171e-05
3.755112e-05
3.7508902e-05
3.7467809e-05
3.7428409e-05
3.7390943e-05
3.7355889e-05
3.7323581e-05
3.7294205e-05
3.7268181e-05
3.7245583e-05
3.7226749e-05
3.7211667e-05
3.7200583e-05
3.7193384e-05
3.7190209e-05
3.7190845e-05
3.719526e-05
3.720322e-05
3.7214481e-05
3.7228733e-05
3.7245608e-05
3.7264704e-05
3.7285553e-05
3.7307672e-05
3.7316978e-05
3.7304629e-05
3.7296087e-05
3.72913e-05
3.7290113e-05
3.7292307e-05
3.7297584e-05
3.7305584e-05
3.7315886e-05
3.7328044e-05
3.7341562e-05
3.7355943e-05
3.7370689e-05
3.738532e-05
3.7399383e-05
3.7412466e-05
3.7424227e-05
3.743436e-05
3.7442648e-05
3.7448941e-05
3.7453167e-05
3.7455326e-05
3.7455505e-05
3.7453836e-05
3.745053e-05
3.7445846e-05
3.7440086e-05
3.7433581e-05
3.7426703e-05
3.74198e-05
3.7413247e-05
3.7407393e-05
3.7402569e-05
3.7399073e-05
3.7397164e-05
3.739706e-05
3.7398928e-05
3.7402888e-05
3.7409009e-05
3.7417311e-05
3.7427785e-05
3.7440357e-05
3.7454936e-05
3.7471399e-05
3.7489598e-05
3.7509371e-05
3.7530539e-05
3.7552933e-05
3.7576361e-05
3.7600649e-05
3.7625623e-05
3.7651118e-05
3.7676976e-05
3.7703065e-05
3.7729242e-05
3.7755392e-05
3.7781405e-05
3.7807188e-05
3.7832649e-05
3.7857726e-05
3.788234e-05
3.7906436e-05
3.7929961e-05
3.7952869e-05
3.7975112e-05
3.7996659e-05
3.8017457e-05
3.8037469e-05
3.8056652e-05
3.8074961e-05
3.8092345e-05
3.8108766e-05
3.8124165e-05
3.8136017e-05
3.6971349e-05
3.699216e-05
3.7019798e-05
3.7053281e-05
3.709167e-05
3.7134754e-05
3.7181818e-05
3.7232422e-05
3.728576e-05
3.7341291e-05
3.7398139e-05
3.7455716e-05
3.7513135e-05
3.7569823e-05
3.7624935e-05
3.7677967e-05
3.7728164e-05
3.7775132e-05
3.7818235e-05
3.7850868e-05
3.7809661e-05
3.7766293e-05
3.7721184e-05
3.7675044e-05
3.7628272e-05
3.758155e-05
3.7535239e-05
3.7489978e-05
3.744608e-05
3.7404133e-05
3.7364397e-05
3.7327363e-05
3.7293378e-05
3.7262643e-05
3.7235584e-05
3.7212285e-05
3.719309e-05
3.7177991e-05
3.7167234e-05
3.7160704e-05
3.7158533e-05
3.7160496e-05
3.7166546e-05
3.7176426e-05
3.7189865e-05
3.7206517e-05
3.7225975e-05
3.7247789e-05
3.727144e-05
3.729639e-05
3.7298951e-05
3.7285435e-05
3.7276106e-05
3.7270914e-05
3.7269695e-05
3.7272211e-05
3.7278136e-05
3.728707e-05
3.7298548e-05
3.7312071e-05
3.7327085e-05
3.7343034e-05
3.735936e-05
3.7375522e-05
3.7391012e-05
3.7405369e-05
3.7418202e-05
3.7429171e-05
3.7438028e-05
3.7444606e-05
3.744882e-05
3.7450669e-05
3.745025e-05
3.7447711e-05
3.7443287e-05
3.7437268e-05
3.7429993e-05
3.7421836e-05
3.7413208e-05
3.7404505e-05
3.7396145e-05
3.7388522e-05
3.7382002e-05
3.7376922e-05
3.737357e-05
3.7372187e-05
3.7372961e-05
3.7376021e-05
3.7381443e-05
3.7389246e-05
3.7399417e-05
3.7411872e-05
3.7426508e-05
3.7443186e-05
3.7461741e-05
3.7481993e-05
3.7503746e-05
3.7526814e-05
3.7550988e-05
3.7576079e-05
3.76019e-05
3.7628276e-05
3.7655038e-05
3.7682046e-05
3.7709151e-05
3.7736234e-05
3.7763182e-05
3.7789899e-05
3.7816293e-05
3.7842302e-05
3.7867847e-05
3.7892876e-05
3.7917337e-05
3.7941186e-05
3.7964377e-05
3.7986883e-05
3.8008655e-05
3.8029658e-05
3.8049854e-05
3.8069202e-05
3.8087656e-05
3.8105184e-05
3.8121732e-05
3.8134781e-05
3.6919129e-05
3.6940407e-05
3.696894e-05
3.7003901e-05
3.7044298e-05
3.7089906e-05
3.7139976e-05
3.7194024e-05
3.7251193e-05
3.7310879e-05
3.7372142e-05
3.7434324e-05
3.7496468e-05
3.7557929e-05
3.7617793e-05
3.7675493e-05
3.7730214e-05
3.7781505e-05
3.7828687e-05
3.7861665e-05
3.7816307e-05
3.7768801e-05
3.7719612e-05
3.7669494e-05
3.7618882e-05
3.7568491e-05
3.7518711e-05
3.7470207e-05
3.7423314e-05
3.7378641e-05
3.7336465e-05
3.7297293e-05
3.7261488e-05
3.7229262e-05
3.7201054e-05
3.7176958e-05
3.7157324e-05
3.7142152e-05
3.7131689e-05
3.712582e-05
3.7124672e-05
3.7128009e-05
3.713577e-05
3.7147675e-05
3.7163424e-05
3.7182637e-05
3.7204862e-05
3.72296e-05
3.7256276e-05
3.7284289e-05
3.7278853e-05
3.7264144e-05
3.725404e-05
3.7248494e-05
3.7247333e-05
3.7250296e-05
3.7257025e-05
3.7267077e-05
3.7279936e-05
3.7295042e-05
3.7311777e-05
3.732952e-05
3.7347644e-05
3.7365542e-05
3.7382646e-05
3.7398434e-05
3.741247e-05
3.7424372e-05
3.7433861e-05
3.7440748e-05
3.744494e-05
3.7446436e-05
3.7445342e-05
3.7441827e-05
3.7436155e-05
3.7428651e-05
3.7419698e-05
3.7409714e-05
3.7399161e-05
3.7388485e-05
3.7378154e-05
3.7368607e-05
3.7360258e-05
3.7353479e-05
3.7348591e-05
3.7345863e-05
3.73455e-05
3.7347643e-05
3.7352374e-05
3.7359709e-05
3.7369626e-05
3.7382031e-05
3.7396803e-05
3.7413786e-05
3.7432794e-05
3.7453627e-05
3.7476068e-05
3.7499912e-05
3.7524931e-05
3.7550919e-05
3.7577676e-05
3.7605013e-05
3.7632752e-05
3.7660745e-05
3.7688836e-05
3.7716902e-05
3.7744827e-05
3.7772514e-05
3.7799871e-05
3.7826835e-05
3.7853331e-05
3.7879307e-05
3.7904716e-05
3.7929514e-05
3.795366e-05
3.797713e-05
3.799988e-05
3.8021877e-05
3.8043088e-05
3.8063476e-05
3.8083e-05
3.8101633e-05
3.8119325e-05
3.8133559e-05
3.6863704e-05
3.6885538e-05
3.6915088e-05
3.6951687e-05
3.6994288e-05
3.7042652e-05
3.7095989e-05
3.7153769e-05
3.7215078e-05
3.7279246e-05
3.734526e-05
3.7412388e-05
3.7479593e-05
3.7546154e-05
3.7611084e-05
3.7673746e-05
3.773326e-05
3.778912e-05
3.7840595e-05
3.7873539e-05
3.7823772e-05
3.7771869e-05
3.7718344e-05
3.7663996e-05
3.7609299e-05
3.7555002e-05
3.7501526e-05
3.7449561e-05
3.7399467e-05
3.7351872e-05
3.7307072e-05
3.7265592e-05
3.722781e-05
3.7193952e-05
3.7164471e-05
3.7139471e-05
3.7119313e-05
3.7104005e-05
3.7093798e-05
3.7088578e-05
3.708847e-05
3.709323e-05
3.7102781e-05
3.7116823e-05
3.7135026e-05
3.7156974e-05
3.7182167e-05
3.7210055e-05
3.7240001e-05
3.7271337e-05
3.7256488e-05
3.7240555e-05
3.7229689e-05
3.7223848e-05
3.7222846e-05
3.7226398e-05
3.7234109e-05
3.7245489e-05
3.7259959e-05
3.7276896e-05
3.729561e-05
3.7315402e-05
3.7335571e-05
3.7355437e-05
3.7374361e-05
3.7391761e-05
3.7407146e-05
3.7420089e-05
3.7430279e-05
3.7437504e-05
3.7441662e-05
3.7442754e-05
3.7440898e-05
3.7436289e-05
3.7429222e-05
3.7420066e-05
3.7409249e-05
3.7397245e-05
3.738457e-05
3.7371727e-05
3.7359239e-05
3.73476e-05
3.733727e-05
3.7328665e-05
3.7322142e-05
3.7317996e-05
3.7316453e-05
3.7317664e-05
3.7321715e-05
3.7328617e-05
3.7338339e-05
3.735077e-05
3.7365771e-05
3.7383162e-05
3.7402735e-05
3.7424264e-05
3.744751e-05
3.7472243e-05
3.7498218e-05
3.7525208e-05
3.7552998e-05
3.7581385e-05
3.7610182e-05
3.7639231e-05
3.766837e-05
3.7697472e-05
3.772642e-05
3.7755113e-05
3.7783462e-05
3.7811405e-05
3.7838868e-05
3.7865803e-05
3.7892165e-05
3.7917915e-05
3.7943017e-05
3.796745e-05
3.7991172e-05
3.8014159e-05
3.803638e-05
3.8057802e-05
3.807839e-05
3.809812e-05
3.8116945e-05
3.8132352e-05
3.6804907e-05
3.6827391e-05
3.6858082e-05
3.6896484e-05
3.6941492e-05
3.6992853e-05
3.7049735e-05
3.7111557e-05
3.7177342e-05
3.7246345e-05
3.7317476e-05
3.7389917e-05
3.7462546e-05
3.7534558e-05
3.7604887e-05
3.7672818e-05
3.7737408e-05
3.7798088e-05
3.7854076e-05
3.7886501e-05
3.7832033e-05
3.7775448e-05
3.771731e-05
3.7658465e-05
3.7599426e-05
3.7540977e-05
3.748357e-05
3.7427921e-05
3.7374413e-05
3.7323696e-05
3.7276085e-05
3.7232123e-05
3.7192203e-05
3.7156569e-05
3.7125686e-05
3.7099673e-05
3.7078905e-05
3.7063397e-05
3.7053408e-05
3.704883e-05
3.7049785e-05
3.7056024e-05
3.7067456e-05
3.7083761e-05
3.710458e-05
3.7129457e-05
3.7157847e-05
3.7189138e-05
3.7222629e-05
3.7253486e-05
3.7231716e-05
3.7214518e-05
3.72029e-05
3.7196823e-05
3.7196089e-05
3.7200385e-05
3.7209275e-05
3.7222212e-05
3.7238553e-05
3.7257598e-05
3.7278576e-05
3.7300704e-05
3.7323196e-05
3.734529e-05
3.736627e-05
3.7385484e-05
3.7402383e-05
3.741649e-05
3.7427458e-05
3.7435054e-05
3.7439166e-05
3.7439796e-05
3.7437082e-05
3.7431244e-05
3.7422618e-05
3.7411618e-05
3.7398731e-05
3.7384487e-05
3.7369467e-05
3.7354238e-05
3.7339385e-05
3.7325461e-05
3.731298e-05
3.7302405e-05
3.7294132e-05
3.7288487e-05
3.7285712e-05
3.7285974e-05
3.7289356e-05
3.7295866e-05
3.7305456e-05
3.7317997e-05
3.7333327e-05
3.7351238e-05
3.7371495e-05
3.7393845e-05
3.7418019e-05
3.7443765e-05
3.7470812e-05
3.7498914e-05
3.7527839e-05
3.7557371e-05
3.7587308e-05
3.7617487e-05
3.7647739e-05
3.7677932e-05
3.7707947e-05
3.7737685e-05
3.7767056e-05
3.7796e-05
3.7824448e-05
3.7852354e-05
3.7879678e-05
3.7906385e-05
3.7932444e-05
3.7957838e-05
3.7982532e-05
3.8006505e-05
3.802973e-05
3.8052181e-05
3.8073825e-05
3.8094644e-05
3.8114592e-05
3.8131159e-05
3.6742468e-05
3.6765693e-05
3.6797649e-05
3.6838024e-05
3.6885655e-05
3.6940271e-05
3.7000998e-05
3.7067198e-05
3.7137823e-05
3.721205e-05
3.7288699e-05
3.7366858e-05
3.7445312e-05
3.7523165e-05
3.7599262e-05
3.7672809e-05
3.7742789e-05
3.7808572e-05
3.7869323e-05
3.790064e-05
3.7841161e-05
3.7779587e-05
3.7716539e-05
3.7652908e-05
3.7589251e-05
3.7526386e-05
3.7464795e-05
3.7405223e-05
3.7348075e-05
3.7294023e-05
3.7243401e-05
3.719677e-05
3.7154541e-05
3.7116975e-05
3.7084553e-05
3.7057412e-05
3.7035937e-05
3.7020159e-05
3.7010348e-05
3.70064e-05
3.7008441e-05
3.7016218e-05
3.7029628e-05
3.7048332e-05
3.7071943e-05
3.7099963e-05
3.7131797e-05
3.7166773e-05
3.7204116e-05
3.7228895e-05
3.7204328e-05
3.7185818e-05
3.7173459e-05
3.7167213e-05
3.7166868e-05
3.7172083e-05
3.7182371e-05
3.7197125e-05
3.7215627e-05
3.7237092e-05
3.7260656e-05
3.7285443e-05
3.731057e-05
3.7335184e-05
3.7358483e-05
3.7379739e-05
3.7398334e-05
3.7413743e-05
3.7425577e-05
3.7433579e-05
3.7437627e-05
3.7437731e-05
3.7433056e-05
3.742683e-05
3.7416458e-05
3.7403401e-05
3.7388208e-05
3.7371478e-05
3.7353863e-05
3.7336002e-05
3.731855e-05
3.7302127e-05
3.7287306e-05
3.7274603e-05
3.7264455e-05
3.7257219e-05
3.7253162e-05
3.7252456e-05
3.7255187e-05
3.7261351e-05
3.7270885e-05
3.7283634e-05
3.7299407e-05
3.7317965e-05
3.7339042e-05
3.736235e-05
3.7387591e-05
3.7414484e-05
3.7442732e-05
3.7472069e-05
3.750224e-05
3.7533016e-05
3.7564184e-05
3.759557e-05
3.7627001e-05
3.7658341e-05
3.7689471e-05
3.7720289e-05
3.7750711e-05
3.7780678e-05
3.7810124e-05
3.783901e-05
3.78673e-05
3.7894965e-05
3.7921977e-05
3.7948327e-05
3.7973985e-05