/*--------------------------------*- C++ -*----------------------------------*\
| =========                 |                                                 |
| \\      /  F ield         | foam-extend: Open Source CFD                    |
|  \\    /   O peration     | Version:     4.1                                |
|   \\  /    A nd           | Web:         http://www.foam-extend.org         |
|    \\/     M anipulation  |                                                 |
\*---------------------------------------------------------------------------*/
FoamFile
{
    version     2.0;
    format      ascii;
    class       volVectorField;
    location    "0.1";
    object      U;
}
// * * * * * * * * * * * * * * * * * * * * * * * * * * * * * * * * * * * * * //

dimensions      [0 1 -1 0 0 0 0];

internalField   nonuniform List<vector> 
16796
(
(143.15947 0.044317903 0)
(142.79239 0.023086301 0)
(142.56753 0.032345546 0)
(142.2697 0.043246957 0)
(141.95905 0.055827302 0)
(141.62045 0.06808512 0)
(141.26314 0.079191584 0)
(140.89104 0.088538286 0)
(140.51042 0.095654486 0)
(140.12748 0.10016324 0)
(139.74882 0.10175371 0)
(139.38118 0.10017198 0)
(139.03139 0.09521428 0)
(138.70631 0.086726027 0)
(138.41277 0.074605517 0)
(138.15754 0.058816566 0)
(137.94721 0.039413475 0)
(137.78812 0.016590142 0)
(137.68618 -0.0092305078 0)
(137.64641 -0.037137753 0)
(137.67305 -0.064986474 0)
(137.76519 -0.08993961 0)
(137.91735 -0.11118712 0)
(138.12585 -0.12973125 0)
(138.38728 -0.14634106 0)
(138.69846 -0.16143582 0)
(139.05617 -0.17519849 0)
(139.4569 -0.18766085 0)
(139.89681 -0.19877898 0)
(140.37169 -0.20847832 0)
(140.877 -0.21667973 0)
(141.4079 -0.22331362 0)
(141.95931 -0.22832855 0)
(142.52602 -0.23169501 0)
(143.10268 -0.23340823 0)
(143.68399 -0.2334891 0)
(144.26467 -0.23198436 0)
(144.83965 -0.22896594 0)
(145.40407 -0.22452979 0)
(145.95338 -0.21879398 0)
(146.48342 -0.21189648 0)
(146.99048 -0.20399222 0)
(147.47135 -0.19524999 0)
(147.92335 -0.18584896 0)
(148.34441 -0.1759747 0)
(148.73304 -0.16581533 0)
(149.08837 -0.15555731 0)
(149.41015 -0.14538141 0)
(149.69872 -0.13545855 0)
(149.95499 -0.12594605 0)
(150.18039 -0.11698405 0)
(150.37685 -0.10869245 0)
(150.54669 -0.10116827 0)
(150.69256 -0.094483676 0)
(150.81738 -0.088684737 0)
(150.92424 -0.083791796 0)
(151.0163 -0.079801809 0)
(151.09671 -0.076689877 0)
(151.16855 -0.074408952 0)
(151.23471 -0.072888894 0)
(151.29785 -0.072041833 0)
(151.36034 -0.071770563 0)
(151.4242 -0.071975355 0)
(151.49107 -0.072557911 0)
(151.5622 -0.07342257 0)
(151.63844 -0.074475465 0)
(151.7202 -0.075622641 0)
(151.80751 -0.076767858 0)
(151.9 -0.077811443 0)
(151.99695 -0.078651743 0)
(152.09726 -0.079188997 0)
(152.19956 -0.079331109 0)
(152.30223 -0.078999488 0)
(152.40344 -0.078133541 0)
(152.50125 -0.076693311 0)
(152.59367 -0.074660451 0)
(152.67868 -0.072037575 0)
(152.75437 -0.068846626 0)
(152.81892 -0.065125981 0)
(152.87072 -0.060928047 0)
(152.90835 -0.056315568 0)
(152.93064 -0.051349031 0)
(152.93675 -0.046070486 0)
(152.92588 -0.040571831 0)
(152.89762 -0.034996473 0)
(152.85198 -0.029464674 0)
(152.78923 -0.024076332 0)
(152.70997 -0.018921078 0)
(152.61502 -0.014078962 0)
(152.50545 -0.0096196423 0)
(152.38253 -0.0056016638 0)
(152.24766 -0.0020720477 0)
(152.1024 0.00093368339 0)
(151.94837 0.0033910949 0)
(151.78728 0.0052861636 0)
(151.62084 0.0066143589 0)
(151.45078 0.0073795835 0)
(151.27881 0.0075929911 0)
(151.10657 0.0072718293 0)
(150.93568 0.0064382949 0)
(150.76767 0.0051184119 0)
(150.60398 0.0033410463 0)
(150.44599 0.0011370194 0)
(150.29495 -0.0014616953 0)
(150.15206 -0.0044226064 0)
(150.0184 -0.007713213 0)
(149.89497 -0.011301434 0)
(149.78268 -0.015155834 0)
(149.68237 -0.019245689 0)
(149.59479 -0.023540884 0)
(149.52061 -0.028011526 0)
(149.46046 -0.032627265 0)
(149.41488 -0.037356265 0)
(149.38435 -0.04216337 0)
(149.3693 -0.047004032 0)
(149.37007 -0.051811855 0)
(149.38685 -0.056538845 0)
(149.4198 -0.061124979 0)
(149.46897 -0.065443426 0)
(149.53397 -0.069287447 0)
(149.61403 -0.072135837 0)
(149.71086 -0.072944433 0)
(149.81995 -0.07251444 0)
(149.89152 -0.067756767 0)
(161.74004 0.31774542 0)
(161.13852 0.30749094 0)
(160.70878 0.33421843 0)
(160.21114 0.35734548 0)
(159.7189 0.37883345 0)
(159.2207 0.39573243 0)
(158.72725 0.40738425 0)
(158.24293 0.41332005 0)
(157.77335 0.41334466 0)
(157.32325 0.40739186 0)
(156.89699 0.39548386 0)
(156.49839 0.37770308 0)
(156.13073 0.35417381 0)
(155.79673 0.32505234 0)
(155.49855 0.29052106 0)
(155.2378 0.25079189 0)
(155.01558 0.20611728 0)
(154.83246 0.15681905 0)
(154.68864 0.10333759 0)
(154.58401 0.046401291 0)
(154.51802 -0.012413219 0)
(154.49412 -0.070769337 0)
(154.51749 -0.127282 0)
(154.58953 -0.18168614 0)
(154.71001 -0.23371302 0)
(154.87736 -0.28299763 0)
(155.08908 -0.32912669 0)
(155.34203 -0.371664 0)
(155.63255 -0.41018421 0)
(155.95654 -0.44429352 0)
(156.30953 -0.47364679 0)
(156.68675 -0.49795862 0)
(157.08318 -0.51701361 0)
(157.49365 -0.53067201 0)
(157.91288 -0.53887456 0)
(158.33559 -0.54164506 0)
(158.75655 -0.53909086 0)
(159.1707 -0.53140167 0)
(159.5732 -0.51884697 0)
(159.9595 -0.50177127 0)
(160.32543 -0.48058866 0)
(160.66729 -0.45577496 0)
(160.98184 -0.42785949 0)
(161.26642 -0.39741495 0)
(161.51892 -0.36504633 0)
(161.73788 -0.33137906 0)
(161.92246 -0.29704613 0)
(162.07245 -0.26267484 0)
(162.18825 -0.22887322 0)
(162.27087 -0.19621657 0)
(162.32188 -0.16523452 0)
(162.34336 -0.13639886 0)
(162.33781 -0.1101126 0)
(162.30813 -0.086700806 0)
(162.2575 -0.066403612 0)
(162.18928 -0.049370041 0)
(162.10698 -0.035652332 0)
(162.01407 -0.025207733 0)
(161.91395 -0.017909926 0)
(161.80983 -0.013561487 0)
(161.70469 -0.011897296 0)
(161.60116 -0.01259039 0)
(161.50149 -0.015261871 0)
(161.40748 -0.019493892 0)
(161.32046 -0.024844013 0)
(161.24122 -0.030859458 0)
(161.17007 -0.037089967 0)
(161.10681 -0.043100433 0)
(161.05077 -0.048482191 0)
(161.00086 -0.052862142 0)
(160.95564 -0.05591198 0)
(160.91336 -0.057356127 0)
(160.87203 -0.056978639 0)
(160.82949 -0.05462792 0)
(160.78351 -0.050218846 0)
(160.73178 -0.043732453 0)
(160.67206 -0.035213822 0)
(160.60219 -0.024767323 0)
(160.52017 -0.012553319 0)
(160.42419 0.001221712 0)
(160.3127 0.016313272 0)
(160.18442 0.032456972 0)
(160.03837 0.049393078 0)
(159.8741 0.066830223 0)
(159.69143 0.08443588 0)
(159.49038 0.10189135 0)
(159.27127 0.11890301 0)
(159.03468 0.1352015 0)
(158.78146 0.15054504 0)
(158.51269 0.16472279 0)
(158.22963 0.17755717 0)
(157.93372 0.18890513 0)
(157.62649 0.19865804 0)
(157.30961 0.20674057 0)
(156.98476 0.21310868 0)
(156.65367 0.21774691 0)
(156.31809 0.22066511 0)
(155.9797 0.22189493 0)
(155.64018 0.22148616 0)
(155.30113 0.21950312 0)
(154.96409 0.21602115 0)
(154.63049 0.21112343 0)
(154.30171 0.20489799 0)
(153.979 0.19743518 0)
(153.66357 0.18882539 0)
(153.35648 0.17915731 0)
(153.05874 0.16851632 0)
(152.77128 0.15698348 0)
(152.49491 0.14463478 0)
(152.23042 0.13154079 0)
(151.9785 0.11776678 0)
(151.73977 0.10337341 0)
(151.51483 0.08841786 0)
(151.30418 0.07295567 0)
(151.1083 0.057046433 0)
(150.92757 0.040766804 0)
(150.76243 0.024198711 0)
(150.61316 0.0074356186 0)
(150.47989 -0.0093761149 0)
(150.36249 -0.026011487 0)
(150.26076 -0.041762471 0)
(150.17552 -0.055165087 0)
(150.1036 -0.067980637 0)
(150.03496 -0.075885077 0)
(162.63739 0.61404527 0)
(161.97726 0.63537822 0)
(161.52097 0.67111872 0)
(160.99896 0.69720717 0)
(160.49231 0.71712784 0)
(159.98761 0.72845096 0)
(159.49573 0.73097207 0)
(159.02072 0.72443986 0)
(158.56805 0.70893912 0)
(158.14238 0.68469988 0)
(157.74805 0.65208238 0)
(157.3889 0.61154065 0)
(157.06821 0.56360011 0)
(156.7887 0.50884054 0)
(156.55242 0.44788132 0)
(156.36079 0.38137509 0)
(156.21458 0.31000313 0)
(156.11388 0.23447868 0)
(156.05816 0.15554273 0)
(156.04639 0.073927568 0)
(156.0772 -0.0097920382 0)
(156.14882 -0.094876393 0)
(156.26011 -0.17975935 0)
(156.40985 -0.26268605 0)
(156.59617 -0.34237072 0)
(156.81664 -0.41780751 0)
(157.06835 -0.48814959 0)
(157.34805 -0.55264389 0)
(157.65215 -0.61061055 0)
(157.97683 -0.66144198 0)
(158.31803 -0.70461532 0)
(158.67156 -0.73970412 0)
(159.03311 -0.76639219 0)
(159.39834 -0.78448283 0)
(159.7629 -0.79390633 0)
(160.12252 -0.79472466 0)
(160.47307 -0.78713263 0)
(160.8106 -0.77145638 0)
(161.13141 -0.74814941 0)
(161.43214 -0.71778501 0)
(161.70976 -0.68104752 0)
(161.96169 -0.63871944 0)
(162.18579 -0.59166809 0)
(162.38039 -0.54082875 0)
(162.54439 -0.4871868 0)
(162.67717 -0.43175802 0)
(162.77868 -0.37556772 0)
(162.8494 -0.31962912 0)
(162.89029 -0.26492117 0)
(162.90284 -0.21236697 0)
(162.88896 -0.16281273 0)
(162.85093 -0.11700838 0)
(162.79141 -0.075590306 0)
(162.71328 -0.03906678 0)
(162.61963 -0.00780172 0)
(162.51363 0.017992937 0)
(162.3985 0.03824509 0)
(162.27738 0.053034612 0)
(162.1533 0.062591016 0)
(162.02907 0.067278218 0)
(161.90722 0.067573851 0)
(161.78993 0.064055557 0)
(161.67898 0.057382623 0)
(161.57572 0.048274875 0)
(161.48107 0.037490132 0)
(161.39547 0.025801067 0)
(161.31891 0.013972455 0)
(161.25095 0.0027405682 0)
(161.19072 -0.0072067686 0)
(161.13699 -0.015248698 0)
(161.08819 -0.020845692 0)
(161.04248 -0.023551515 0)
(160.99779 -0.023021991 0)
(160.95192 -0.019021124 0)
(160.90258 -0.011423873 0)
(160.84746 -0.0002154854 0)
(160.78429 0.0145125 0)
(160.71093 0.032568625 0)
(160.62537 0.05367289 0)
(160.52584 0.077465532 0)
(160.41081 0.10352122 0)
(160.27903 0.13136233 0)
(160.12957 0.16047212 0)
(159.96181 0.19033221 0)
(159.77544 0.22043735 0)
(159.57049 0.25028474 0)
(159.34728 0.27939087 0)
(159.10643 0.30730783 0)
(158.84882 0.33363273 0)
(158.57554 0.35801423 0)
(158.2879 0.38015678 0)
(157.98736 0.39982256 0)
(157.6755 0.41683143 0)
(157.354 0.4310591 0)
(157.02458 0.4424337 0)
(156.68901 0.45093127 0)
(156.34903 0.45657033 0)
(156.00637 0.45940599 0)
(155.66272 0.4595238 0)
(155.31969 0.45703367 0)
(154.97882 0.45206402 0)
(154.64158 0.44475636 0)
(154.30933 0.43526037 0)
(153.98334 0.42372955 0)
(153.6648 0.41031755 0)
(153.35479 0.39517513 0)
(153.05432 0.37844773 0)
(152.76429 0.36027372 0)
(152.48553 0.34078331 0)
(152.21882 0.32009818 0)
(151.96484 0.29833171 0)
(151.72421 0.27559026 0)
(151.49752 0.25197514 0)
(151.28526 0.22758569 0)
(151.0879 0.20252271 0)
(150.90585 0.17689255 0)
(150.73943 0.15083273 0)
(150.58892 0.12452956 0)
(150.45448 0.098213771 0)
(150.33611 0.072199252 0)
(150.23392 0.047177979 0)
(150.14798 0.024239774 0)
(150.07572 0.0028419167 0)
(150.02119 -0.01327141 0)
(162.70858 0.92738469 0)
(162.02972 0.96750762 0)
(161.56994 1.0093395 0)
(161.04038 1.0374383 0)
(160.52723 1.0548997 0)
(160.01587 1.0598191 0)
(159.51778 1.052129 0)
(159.03712 1.0317173 0)
(158.57958 0.99884485 0)
(158.15001 0.9539655 0)
(157.75293 0.89771528 0)
(157.39238 0.83087111 0)
(157.07182 0.75432261 0)
(156.79415 0.66905013 0)
(156.56161 0.57610431 0)
(156.37581 0.47659767 0)
(156.23769 0.37169884 0)
(156.14753 0.26264437 0)
(156.10497 0.15075748 0)
(156.10904 0.037473275 0)
(156.15819 -0.075726111 0)
(156.25032 -0.18742896 0)
(156.38306 -0.29633367 0)
(156.55385 -0.40119548 0)
(156.75997 -0.50085703 0)
(156.99841 -0.59424939 0)
(157.26582 -0.68039043 0)
(157.55862 -0.75838031 0)
(157.87299 -0.82741075 0)
(158.20496 -0.88677418 0)
(158.55044 -0.93587943 0)
(158.90529 -0.97426333 0)
(159.26535 -1.0016047 0)
(159.62647 -1.0177341 0)
(159.9846 -1.0226414 0)
(160.33579 -1.0164814 0)
(160.67624 -0.99957473 0)
(161.00237 -0.97240651 0)
(161.31086 -0.93562112 0)
(161.59867 -0.89001292 0)
(161.8631 -0.83651535 0)
(162.10184 -0.77618429 0)
(162.31298 -0.71018135 0)
(162.49506 -0.63975152 0)
(162.6471 -0.56620033 0)
(162.76859 -0.49086791 0)
(162.85952 -0.41510164 0)
(162.9204 -0.34022764 0)
(162.95219 -0.26752169 0)
(162.95633 -0.19818073 0)
(162.9347 -0.13329527 0)
(162.88954 -0.073824074 0)
(162.82346 -0.020571963 0)
(162.73931 0.025833902 0)
(162.64014 0.064955955 0)
(162.52911 0.096549094 0)
(162.40942 0.1205814 0)
(162.28422 0.13721506 0)
(162.15651 0.14679884 0)
(162.02912 0.14985754 0)
(161.90455 0.14707523 0)
(161.78502 0.13927016 0)
(161.67232 0.12736685 0)
(161.56782 0.11236675 0)
(161.47243 0.095317923 0)
(161.3866 0.077284604 0)
(161.31031 0.059317247 0)
(161.24309 0.042423901 0)
(161.18402 0.027544133 0)
(161.13183 0.015525517 0)
(161.08488 0.007102976 0)
(161.04126 0.0028817163 0)
(160.99883 0.0033241881 0)
(160.9553 0.0087418012 0)
(160.90831 0.019291351 0)
(160.85546 0.034976178 0)
(160.79442 0.055652012 0)
(160.72295 0.08103709 0)
(160.63902 0.11072599 0)
(160.54077 0.14420708 0)
(160.42665 0.18088172 0)
(160.29538 0.22008382 0)
(160.146 0.26109551 0)
(159.97789 0.30317468 0)
(159.79077 0.34558322 0)
(159.58467 0.38760225 0)
(159.35997 0.42854838 0)
(159.1173 0.46778976 0)
(158.85759 0.5047588 0)
(158.582 0.53896131 0)
(158.29187 0.56998233 0)
(157.98872 0.59748893 0)
(157.67418 0.62122988 0)
(157.34997 0.64103293 0)
(157.01786 0.65679992 0)
(156.67966 0.66850016 0)
(156.33715 0.67616274 0)
(155.99208 0.67986805 0)
(155.64617 0.67973903 0)
(155.30103 0.67593253 0)
(154.95823 0.668631 0)
(154.61924 0.65803481 0)
(154.28542 0.64435525 0)
(153.95805 0.62780852 0)
(153.63831 0.60861043 0)
(153.32727 0.58697222 0)
(153.02593 0.56309719 0)
(152.73519 0.53717826 0)
(152.45588 0.50939658 0)
(152.18875 0.47992104 0)
(151.93449 0.44890896 0)
(151.69371 0.41650796 0)
(151.46698 0.38285925 0)
(151.25483 0.34810282 0)
(151.05771 0.31238449 0)
(150.87604 0.27586394 0)
(150.7102 0.23873299 0)
(150.56051 0.20124331 0)
(150.42721 0.16373407 0)
(150.3105 0.12670204 0)
(150.21071 0.091012972 0)
(150.12787 0.057795922 0)
(150.0606 0.028073159 0)
(150.01529 0.0068899566 0)
(162.78191 1.2485151 0)
(162.08607 1.3049622 0)
(161.61933 1.3545469 0)
(161.07967 1.3858196 0)
(160.55696 1.4016899 0)
(160.0356 1.4008518 0)
(159.52759 1.3835053 0)
(159.03718 1.3498101 0)
(158.57024 1.3002996 0)
(158.13175 1.235727 0)
(157.72634 1.1570606 0)
(157.35813 1.0654408 0)
(157.03068 0.96214578 0)
(156.74692 0.84856109 0)
(156.50915 0.72614714 0)
(156.31902 0.59641706 0)
(156.17749 0.46091182 0)
(156.08487 0.32118894 0)
(156.04084 0.178809 0)
(156.04452 0.035336915 0)
(156.09451 -0.10766763 0)
(156.18891 -0.2485916 0)
(156.32539 -0.38569528 0)
(156.50126 -0.51723719 0)
(156.71353 -0.64164707 0)
(156.95889 -0.75754492 0)
(157.23376 -0.86371856 0)
(157.53433 -0.95910225 0)
(157.85662 -1.0427719 0)
(158.1965 -1.1139431 0)
(158.54978 -1.1719812 0)
(158.91223 -1.2164091 0)
(159.27961 -1.2469197 0)
(159.64774 -1.2633843 0)
(160.01251 -1.2658601 0)
(160.36995 -1.2545961 0)
(160.71624 -1.230034 0)
(161.04779 -1.1928071 0)
(161.36123 -1.1437354 0)
(161.6535 -1.083816 0)
(161.92188 -1.014212 0)
(162.16399 -0.93623421 0)
(162.37789 -0.85132345 0)
(162.56207 -0.76102477 0)
(162.71549 -0.66696159 0)
(162.83762 -0.57080502 0)
(162.92842 -0.474241 0)
(162.98837 -0.37893536 0)
(163.01844 -0.2864974 0)
(163.02011 -0.19844358 0)
(162.9953 -0.11616173 0)
(162.94633 -0.040878053 0)
(162.8759 0.026374494 0)
(162.78697 0.084786167 0)
(162.68272 0.13378545 0)
(162.56645 0.17306793 0)
(162.44151 0.20258339 0)
(162.31119 0.22253897 0)
(162.17865 0.23339015 0)
(162.04682 0.23582346 0)
(161.91835 0.2307311 0)
(161.79553 0.21918035 0)
(161.68024 0.2023793 0)
(161.5739 0.18163904 0)
(161.47745 0.15833354 0)
(161.39133 0.13385868 0)
(161.3155 0.10959174 0)
(161.24943 0.086852893 0)
(161.19216 0.06686981 0)
(161.14231 0.050746022 0)
(161.09815 0.039434046 0)
(161.05766 0.033713781 0)
(161.01859 0.034176637 0)
(160.97854 0.041215565 0)
(160.93501 0.0550211 0)
(160.88551 0.075583434 0)
(160.82758 0.10270032 0)
(160.75892 0.1359903 0)
(160.67739 0.17491094 0)
(160.58107 0.21878115 0)
(160.46836 0.26680687 0)
(160.33794 0.31810871 0)
(160.18884 0.37174952 0)
(160.02043 0.42676486 0)
(159.83245 0.48219128 0)
(159.62496 0.5370904 0)
(159.39837 0.5905723 0)
(159.15339 0.64181579 0)
(158.89099 0.6900846 0)
(158.61239 0.73473919 0)
(158.31902 0.77524427 0)
(158.01246 0.81117216 0)
(157.6944 0.8422022 0)
(157.36665 0.86811699 0)
(157.03103 0.8887957 0)
(156.68938 0.90420533 0)
(156.34355 0.91439033 0)
(155.99532 0.91946148 0)
(155.64643 0.91958425 0)
(155.29854 0.91496746 0)
(154.9532 0.90585231 0)
(154.61191 0.89250231 0)
(154.27603 0.87519419 0)
(153.94682 0.85420993 0)
(153.62547 0.82982998 0)
(153.31303 0.80232766 0)
(153.0105 0.77196484 0)
(152.71875 0.73898862 0)
(152.4386 0.70362937 0)
(152.17078 0.66609987 0)
(151.91596 0.62659559 0)
(151.67475 0.58529655 0)
(151.4477 0.54237031 0)
(151.23531 0.49797683 0)
(151.03806 0.45227515 0)
(150.85636 0.40543234 0)
(150.69059 0.35763833 0)
(150.54111 0.30912279 0)
(150.40823 0.26017356 0)
(150.29229 0.2111948 0)
(150.19379 0.16281895 0)
(150.11292 0.11575789 0)
(150.04967 0.070924276 0)
(150.01125 0.031827005 0)
(162.86692 1.5808447 0)
(162.15311 1.6493812 0)
(161.67678 1.7055554 0)
(161.12488 1.739193 0)
(160.59028 1.7529378 0)
(160.05653 1.7457784 0)
(159.53612 1.7180495 0)
(159.03341 1.6701013 0)
(158.55453 1.6026826 0)
(158.10461 1.51681 0)
(157.6885 1.4137618 0)
(157.31044 1.2950349 0)
(156.97413 1.1623054 0)
(156.68261 1.0173949 0)
(156.4383 0.86223171 0)
(156.2429 0.69882493 0)
(156.09744 0.52923426 0)
(156.00227 0.3555542 0)
(155.95711 0.17988969 0)
(155.96103 0.0043379995 0)
(156.01253 -0.16905616 0)
(156.10963 -0.33834908 0)
(156.24986 -0.50169382 0)
(156.43044 -0.65732277 0)
(156.64829 -0.80360596 0)
(156.90002 -0.93905878 0)
(157.18199 -1.0623491 0)
(157.49029 -1.1722968 0)
(157.82086 -1.2678831 0)
(158.16949 -1.3482545 0)
(158.53189 -1.412736 0)
(158.9037 -1.460838 0)
(159.28058 -1.4922691 0)
(159.65824 -1.506944 0)
(160.03246 -1.5049905 0)
(160.39913 -1.4867558 0)
(160.75433 -1.4528078 0)
(161.09434 -1.4039339 0)
(161.41568 -1.3411372 0)
(161.71518 -1.2656261 0)
(161.98999 -1.1788029 0)
(162.23765 -1.0822442 0)
(162.45614 -0.97768067 0)
(162.64386 -0.8669678 0)
(162.79974 -0.75205593 0)
(162.9232 -0.63495386 0)
(163.0142 -0.51768945 0)
(163.07323 -0.40226735 0)
(163.10134 -0.29062458 0)
(163.10005 -0.18458591 0)
(163.07138 -0.085820234 0)
(163.01779 0.0041996383 0)
(162.94211 0.084241672 0)
(162.84745 0.15334058 0)
(162.73716 0.21084125 0)
(162.61472 0.25639045 0)
(162.48365 0.28995285 0)
(162.3474 0.31180867 0)
(162.20931 0.32254043 0)
(162.07244 0.32301207 0)
(161.93959 0.3143393 0)
(161.81314 0.29785223 0)
(161.69505 0.27505212 0)
(161.5868 0.24756415 0)
(161.48936 0.21708771 0)
(161.40316 0.18534621 0)
(161.32814 0.1540377 0)
(161.26372 0.12478793 0)
(161.20885 0.099107029 0)
(161.16205 0.078350801 0)
(161.1215 0.063687601 0)
(161.08502 0.056071543 0)
(161.05025 0.056222687 0)
(161.01462 0.064614636 0)
(160.97551 0.081469725 0)
(160.93026 0.10676177 0)
(160.87631 0.14022605 0)
(160.81122 0.18137607 0)
(160.73274 0.22952621 0)
(160.63888 0.28381949 0)
(160.52796 0.34325897 0)
(160.39863 0.4067419 0)
(160.24988 0.47309559 0)
(160.0811 0.54111497 0)
(159.89203 0.60959772 0)
(159.68279 0.67737559 0)
(159.45383 0.74334336 0)
(159.20592 0.80648356 0)
(158.94013 0.8658864 0)
(158.65776 0.92076419 0)
(158.36032 0.97046042 0)
(158.04948 1.0144535 0)
(157.72703 1.052356 0)
(157.39485 1.0839089 0)
(157.05483 1.1089735 0)
(156.7089 1.12752 0)
(156.35894 1.1396141 0)
(156.00679 1.145403 0)
(155.65423 1.1451008 0)
(155.30295 1.1389741 0)
(154.95451 1.1273286 0)
(154.61042 1.1104961 0)
(154.27205 1.0888239 0)
(153.94066 1.0626646 0)
(153.61742 1.0323678 0)
(153.30338 0.99827373 0)
(152.99951 0.96070782 0)
(152.70667 0.91997703 0)
(152.42567 0.8763676 0)
(152.15721 0.83014436 0)
(151.90195 0.78155141 0)
(151.66049 0.7308147 0)
(151.43335 0.67814598 0)
(151.22104 0.6237489 0)
(151.02401 0.56782684 0)
(150.84269 0.51059354 0)
(150.67747 0.45228828 0)
(150.52872 0.39319295 0)
(150.39679 0.33365003 0)
(150.28208 0.27410392 0)
(150.18511 0.21514277 0)
(150.10606 0.15736886 0)
(150.0454 0.10154941 0)
(150.00991 0.049394705 0)
(162.97912 1.9206993 0)
(162.24431 2.0017902 0)
(161.75486 2.066019 0)
(161.18728 2.103103 0)
(160.63746 2.1156887 0)
(160.08825 2.1029933 0)
(159.55257 2.0655526 0)
(159.03495 2.0039669 0)
(158.54171 1.9192625 0)
(158.0782 1.8127722 0)
(157.64941 1.6861257 0)
(157.25973 1.5412028 0)
(156.91296 1.3800856 0)
(156.61224 1.2050157 0)
(156.36002 1.0183429 0)
(156.15805 0.82248892 0)
(156.00741 0.61990421 0)
(155.90846 0.41304406 0)
(155.86092 0.20433834 0)
(155.86392 -0.0038192278 0)
(155.91598 -0.20909392 0)
(156.01513 -0.40917697 0)
(156.15893 -0.60182461 0)
(156.34452 -0.78491811 0)
(156.5687 -0.95652054 0)
(156.82795 -1.1148924 0)
(157.11848 -1.2584992 0)
(157.43627 -1.3860049 0)
(157.7771 -1.4962768 0)
(158.13664 -1.5883842 0)
(158.51046 -1.6616074 0)
(158.89406 -1.7154423 0)
(159.28297 -1.7496114 0)
(159.67274 -1.7640704 0)
(160.059 -1.7590152 0)
(160.43749 -1.7348881 0)
(160.80413 -1.6923802 0)
(161.15504 -1.6324303 0)
(161.4866 -1.5562226 0)
(161.79547 -1.4651759 0)
(162.07869 -1.3609334 0)
(162.33366 -1.245341 0)
(162.55823 -1.1204268 0)
(162.75073 -0.98836849 0)
(162.91001 -0.85145999 0)
(163.03545 -0.71206964 0)
(163.12699 -0.57259475 0)
(163.18516 -0.43541175 0)
(163.21102 -0.30282329 0)
(163.2062 -0.17700455 0)
(163.17283 -0.059950321 0)
(163.11352 0.046575698 0)
(163.03127 0.14109387 0)
(162.92939 0.22244866 0)
(162.81144 0.28984496 0)
(162.68114 0.34285885 0)
(162.54222 0.38145213 0)
(162.39838 0.40596782 0)
(162.25315 0.41711513 0)
(162.10981 0.41594424 0)
(161.9713 0.40381002 0)
(161.84017 0.38232685 0)
(161.71847 0.35331634 0)
(161.60776 0.31875008 0)
(161.50902 0.28068914 0)
(161.42271 0.24122254 0)
(161.34871 0.20240678 0)
(161.28636 0.16620817 0)
(161.23451 0.13444993 0)
(161.19157 0.10876516 0)
(161.15554 0.09055693 0)
(161.12411 0.080966469 0)
(161.0947 0.080849892 0)
(161.06459 0.090763937 0)
(161.03097 0.11096081 0)
(160.99102 0.14139207 0)
(160.942 0.1817212 0)
(160.88133 0.23134427 0)
(160.80663 0.28941777 0)
(160.71581 0.35489262 0)
(160.60711 0.42655261 0)
(160.47912 0.50305616 0)
(160.33081 0.58297991 0)
(160.16157 0.66486323 0)
(159.97116 0.74725069 0)
(159.75975 0.82873102 0)
(159.52787 0.90797218 0)
(159.27637 0.98375116 0)
(159.00641 1.0549777 0)
(158.7194 1.1207116 0)
(158.41696 1.1801731 0)
(158.10087 1.2327468 0)
(157.77303 1.2779806 0)
(157.43542 1.3155778 0)
(157.09002 1.345387 0)
(156.73884 1.3673875 0)
(156.38383 1.3816727 0)
(156.02689 1.388433 0)
(155.66984 1.3879374 0)
(155.3144 1.3805164 0)
(154.96217 1.3665449 0)
(154.61464 1.3464275 0)
(154.27319 1.3205846 0)
(153.9391 1.2894406 0)
(153.61349 1.2534145 0)
(153.29742 1.2129114 0)
(152.99183 1.1683164 0)
(152.69756 1.1199903 0)
(152.41538 1.0682669 0)
(152.146 1.0134515 0)
(151.89002 0.95582215 0)
(151.64803 0.89563179 0)
(151.42055 0.8331124 0)
(151.20806 0.76848125 0)
(151.01101 0.70194874 0)
(150.82983 0.63372884 0)
(150.66493 0.56405236 0)
(150.5167 0.4931823 0)
(150.38554 0.4214318 0)
(150.27194 0.34919708 0)
(150.17649 0.27697499 0)
(150.09944 0.20529574 0)
(150.04152 0.13488996 0)
(150.00877 0.066823312 0)
(163.10702 2.2736697 0)
(162.3481 2.3657441 0)
(161.84309 2.437232 0)
(161.25717 2.4769859 0)
(160.68945 2.4877189 0)
(160.12209 2.4687061 0)
(159.5685 2.4206152 0)
(159.03338 2.3442373 0)
(158.52335 2.240842 0)
(158.04397 2.1120611 0)
(157.60047 1.9598745 0)
(157.19743 1.7865605 0)
(156.83881 1.5946407 0)
(156.52788 1.3868309 0)
(156.26718 1.1659805 0)
(156.05854 0.93502896 0)
(155.90306 0.69695072 0)
(155.8011 0.45472088 0)
(155.75237 0.21126879 0)
(155.75591 -0.030548657 0)
(155.81017 -0.26798871 0)
(155.91308 -0.49845924 0)
(156.06211 -0.71952515 0)
(156.25428 -0.92890059 0)
(156.48631 -1.1244886 0)
(156.75456 -1.3043934 0)
(157.05513 -1.4669355 0)
(157.38388 -1.6106513 0)
(157.73648 -1.7343039 0)
(158.10847 -1.8368843 0)
(158.49526 -1.9176229 0)
(158.89223 -1.9759934 0)
(159.29473 -2.0117243 0)
(159.69816 -2.0248059 0)
(160.09796 -2.0154978 0)
(160.48972 -1.9843353 0)
(160.86917 -1.932133 0)
(161.23226 -1.859985 0)
(161.57518 -1.7692625 0)
(161.89444 -1.6616045 0)
(162.1869 -1.5389065 0)
(162.44984 -1.4032983 0)
(162.68097 -1.2571211 0)
(162.87852 -1.102892 0)
(163.04127 -0.9432653 0)
(163.16854 -0.78098542 0)
(163.26029 -0.61883386 0)
(163.31703 -0.45957115 0)
(163.33993 -0.30587462 0)
(163.33069 -0.16027523 0)
(163.29161 -0.025094964 0)
(163.22545 0.097615587 0)
(163.13542 0.20613623 0)
(163.02507 0.29913739 0)
(162.8982 0.37570073 0)
(162.75878 0.43534555 0)
(162.6108 0.47804353 0)
(162.45822 0.50421481 0)
(162.30481 0.51471142 0)
(162.15408 0.51078709 0)
(162.00915 0.49405426 0)
(161.87273 0.46643032 0)
(161.74701 0.43007548 0)
(161.6336 0.38732447 0)
(161.53354 0.34061484 0)
(161.44727 0.29241425 0)
(161.37463 0.24514918 0)
(161.31488 0.2011371 0)
(161.26676 0.16252426 0)
(161.22851 0.1312303 0)
(161.19796 0.10890133 0)
(161.1726 0.096872369 0)
(161.14966 0.096139957 0)
(161.1262 0.10734543 0)
(161.09919 0.13076905 0)
(161.0656 0.16633485 0)
(161.0225 0.21362593 0)
(160.96714 0.2719092 0)
(160.89698 0.34016875 0)
(160.80982 0.4171465 0)
(160.70379 0.50138823 0)
(160.57741 0.59129372 0)
(160.42965 0.68516902 0)
(160.25987 0.78127908 0)
(160.06789 0.87789829 0)
(159.85392 0.97335725 0)
(159.61858 1.0660844 0)
(159.36283 1.1546413 0)
(159.08794 1.2377504 0)
(158.79546 1.3143153 0)
(158.48713 1.3834321 0)
(158.16486 1.444394 0)
(157.83069 1.4966884 0)
(157.48671 1.5399879 0)
(157.13502 1.5741364 0)
(156.77771 1.5991315 0)
(156.41683 1.6151046 0)
(156.05433 1.6222997 0)
(155.69209 1.6210513 0)
(155.33187 1.6117638 0)
(154.97528 1.5948916 0)
(154.62384 1.5709214 0)
(154.27893 1.5403559 0)
(153.9418 1.5037003 0)
(153.61358 1.4614512 0)
(153.2953 1.4140872 0)
(152.98786 1.3620617 0)
(152.6921 1.3057987 0)
(152.40875 1.245689 0)
(152.13847 1.1820899 0)
(151.88186 1.1153256 0)
(151.63947 1.0456902 0)
(151.41179 0.973452 0)
(151.19928 0.89886001 0)
(151.00238 0.82215165 0)
(150.8215 0.74356238 0)
(150.65704 0.66333637 0)
(150.5094 0.5817374 0)
(150.37899 0.49905964 0)
(150.2663 0.41564302 0)
(150.17192 0.33186586 0)
(150.09615 0.24809524 0)
(150.03978 0.16479273 0)
(150.00833 0.082421832 0)
(163.25893 2.6368829 0)
(162.47242 2.7411847 0)
(161.94885 2.8212434 0)
(161.34127 2.8646605 0)
(160.75239 2.8743532 0)
(160.16373 2.8496298 0)
(159.5892 2.7913269 0)
(159.03376 2.7004589 0)
(158.5043 2.5785776 0)
(158.00664 2.4276495 0)
(157.54625 2.250035 0)
(157.12789 2.0484307 0)
(156.75569 1.8258038 0)
(156.43304 1.5853319 0)
(156.16257 1.3303305 0)
(155.94616 1.0641989 0)
(155.78492 0.79035596 0)
(155.67924 0.51219919 0)
(155.62881 0.23305536 0)
(155.63265 -0.04384343 0)
(155.68916 -0.31539699 0)
(155.79624 -0.57861208 0)
(155.95122 -0.83067093 0)
(156.15106 -1.0689637 0)
(156.3923 -1.2911186 0)
(156.67116 -1.495009 0)
(156.98359 -1.6787667 0)
(157.32528 -1.8407773 0)
(157.69174 -1.9796893 0)
(158.07834 -2.0944114 0)
(158.48034 -2.1841226 0)
(158.89293 -2.2482742 0)
(159.31129 -2.2866005 0)
(159.73062 -2.2991257 0)
(160.1462 -2.2861718 0)
(160.5534 -2.2483657 0)
(160.94775 -2.1866443 0)
(161.32502 -2.102256 0)
(161.68119 -1.9967598 0)
(162.01258 -1.8720164 0)
(162.31586 -1.7301784 0)
(162.58815 -1.5736668 0)
(162.82701 -1.4051476 0)
(163.03055 -1.2274925 0)
(163.19744 -1.0437372 0)
(163.32695 -0.85702804 0)
(163.41901 -0.67056183 0)
(163.47416 -0.48751919 0)
(163.49361 -0.31099231 0)
(163.47921 -0.14391134 0)
(163.43338 0.011029366 0)
(163.35912 0.15145046 0)
(163.25985 0.27535038 0)
(163.13939 0.3811809 0)
(163.00186 0.4678726 0)
(162.85152 0.53487037 0)
(162.6927 0.58214842 0)
(162.52966 0.61020615 0)
(162.36646 0.62004873 0)
(162.20688 0.61315131 0)
(162.05429 0.59140848 0)
(161.91156 0.55707113 0)
(161.78104 0.51267314 0)
(161.66445 0.46095104 0)
(161.56285 0.4047594 0)
(161.47668 0.34698521 0)
(161.40572 0.29046395 0)
(161.34912 0.23789987 0)
(161.30548 0.19179314 0)
(161.27284 0.15437523 0)
(161.24884 0.12755452 0)
(161.23072 0.11287296 0)
(161.21548 0.11147485 0)
(161.19991 0.12408793 0)
(161.18072 0.15101716 0)
(161.15467 0.19215106 0)
(161.11857 0.24698004 0)
(161.06947 0.31462594 0)
(161.00466 0.39388151 0)
(160.92178 0.4832585 0)
(160.81887 0.58104187 0)
(160.69437 0.68534911 0)
(160.54721 0.79419177 0)
(160.37676 0.9055373 0)
(160.18289 1.0173686 0)
(159.96587 1.1277389 0)
(159.72642 1.2348208 0)
(159.46563 1.3369475 0)
(159.18491 1.4326448 0)
(158.88596 1.5206538 0)
(158.57069 1.5999445 0)
(158.24116 1.6697192 0)
(157.89955 1.7294085 0)
(157.5481 1.77866 0)
(157.18903 1.8173204 0)
(156.82456 1.8454146 0)
(156.45681 1.8631211 0)
(156.08783 1.8707465 0)
(155.71954 1.8686998 0)
(155.35374 1.8574672 0)
(154.99209 1.8375894 0)
(154.63609 1.8096402 0)
(154.28714 1.7742082 0)
(153.94647 1.7318814 0)
(153.6152 1.6832338 0)
(153.29432 1.6288153 0)
(152.98471 1.569144 0)
(152.68717 1.5047008 0)
(152.40239 1.435926 0)
(152.13102 1.3632188 0)
(151.8736 1.2869378 0)
(151.63066 1.2074049 0)
(151.40267 1.1249098 0)
(151.19006 1.0397171 0)
(150.99326 0.95207501 0)
(150.81266 0.86222506 0)
(150.64867 0.77041313 0)
(150.50168 0.67690003 0)
(150.37212 0.58197162 0)
(150.26049 0.48594815 0)
(150.16736 0.38917238 0)
(150.09302 0.2919754 0)
(150.03821 0.19472675 0)
(150.00794 0.097657631 0)
(163.42888 3.0159069 0)
(162.61084 3.1319807 0)
(162.06607 3.2202749 0)
(161.43379 3.2668761 0)
(160.82076 3.2749519 0)
(160.20779 3.2437668 0)
(159.60939 3.1742927 0)
(159.03079 3.0677367 0)
(158.47923 2.92592 0)
(157.96085 2.7511451 0)
(157.48138 2.5461682 0)
(157.04585 2.3141344 0)
(156.65857 2.0585006 0)
(156.32307 1.7829661 0)
(156.04211 1.4913874 0)
(155.81761 1.1877135 0)
(155.65072 0.87590725 0)
(155.54178 0.55989478 0)
(155.49044 0.24350122 0)
(155.49562 -0.069582715 0)
(155.55561 -0.37585181 0)
(155.66818 -0.67201468 0)
(155.83055 -0.95500848 0)
(156.03952 -1.2219969 0)
(156.2915 -1.4704012 0)
(156.58256 -1.6979074 0)
(156.90849 -1.9024821 0)
(157.26482 -2.0823706 0)
(157.6469 -2.2361069 0)
(158.04992 -2.3625124 0)
(158.46897 -2.4607067 0)
(158.89904 -2.530109 0)
(159.33513 -2.5704505 0)
(159.77224 -2.5817809 0)
(160.20542 -2.5644778 0)
(160.62983 -2.5192553 0)
(161.0408 -2.4471706 0)
(161.43384 -2.3496273 0)
(161.80473 -2.2283765 0)
(162.14958 -2.0855082 0)
(162.46485 -1.9234434 0)
(162.74745 -1.7449085 0)
(162.99479 -1.552912 0)
(163.20483 -1.3507009 0)