/*--------------------------------*- C++ -*----------------------------------*\
| =========                 |                                                 |
| \\      /  F ield         | foam-extend: Open Source CFD                    |
|  \\    /   O peration     | Version:     4.1                                |
|   \\  /    A nd           | Web:         http://www.foam-extend.org         |
|    \\/     M anipulation  |                                                 |
\*---------------------------------------------------------------------------*/
FoamFile
{
    version     2.0;
    format      ascii;
    class       volVectorField;
    location    "0.1";
    object      U;
}
// * * * * * * * * * * * * * * * * * * * * * * * * * * * * * * * * * * * * * //

dimensions      [0 1 -1 0 0 0 0];

internalField   nonuniform List<vector> 
16796
(
(140.54565 -0.11991967 0)
(140.88427 -0.12749019 0)
(141.14871 -0.12608096 0)
(141.41123 -0.12270577 0)
(141.66287 -0.11832107 0)
(141.90173 -0.11335247 0)
(142.12629 -0.10799607 0)
(142.33549 -0.10237673 0)
(142.52856 -0.096593391 0)
(142.70497 -0.09073552 0)
(142.86446 -0.084888915 0)
(143.00702 -0.079138055 0)
(143.13288 -0.073566279 0)
(143.2425 -0.068255636 0)
(143.3366 -0.063286221 0)
(143.41616 -0.058736025 0)
(143.48235 -0.054680963 0)
(143.53661 -0.051193805 0)
(143.58054 -0.048341345 0)
(143.61597 -0.046182323 0)
(143.6449 -0.044763704 0)
(143.66948 -0.044121316 0)
(143.69197 -0.044282946 0)
(143.71476 -0.045266682 0)
(143.74028 -0.047081216 0)
(143.77102 -0.049726481 0)
(143.80947 -0.053192876 0)
(143.8581 -0.057461507 0)
(143.91933 -0.062505818 0)
(143.99547 -0.068291831 0)
(144.08874 -0.074777399 0)
(144.20117 -0.08191124 0)
(144.33465 -0.089629912 0)
(144.49084 -0.097858251 0)
(144.67116 -0.10651285 0)
(144.87679 -0.11550232 0)
(145.10862 -0.12472848 0)
(145.36724 -0.13408847 0)
(145.65292 -0.14347523 0)
(145.96562 -0.15277941 0)
(146.30497 -0.16189034 0)
(146.67027 -0.17069774 0)
(147.06047 -0.17909281 0)
(147.47423 -0.18696993 0)
(147.90988 -0.19422785 0)
(148.36545 -0.20077113 0)
(148.8387 -0.20651152 0)
(149.32713 -0.21136917 0)
(149.82801 -0.21527382 0)
(150.3384 -0.21816579 0)
(150.85522 -0.21999695 0)
(151.37522 -0.2207314 0)
(151.89508 -0.220346 0)
(152.41142 -0.21883073 0)
(152.92083 -0.21618878 0)
(153.41993 -0.21243643 0)
(153.90541 -0.20760276 0)
(154.37404 -0.20172902 0)
(154.82275 -0.19486789 0)
(155.24861 -0.18708249 0)
(155.64893 -0.17844515 0)
(156.02122 -0.16903614 0)
(156.36325 -0.15894214 0)
(156.6731 -0.14825473 0)
(156.94909 -0.13706857 0)
(157.18987 -0.12548027 0)
(157.39441 -0.11358482 0)
(157.56196 -0.10147493 0)
(157.69208 -0.089235708 0)
(157.78465 -0.076948693 0)
(157.8398 -0.064673526 0)
(157.85797 -0.052426914 0)
(157.83983 -0.040158545 0)
(157.78642 -0.027736462 0)
(157.69769 -0.015216005 0)
(157.57436 -0.0028746652 0)
(157.41773 0.0090159807 0)
(157.22957 0.020251269 0)
(157.01195 0.030695662 0)
(156.76718 0.040258526 0)
(156.49775 0.048875735 0)
(156.20628 0.056501199 0)
(155.89549 0.063102147 0)
(155.5682 0.0686569 0)
(155.22725 0.073154042 0)
(154.87554 0.07659218 0)
(154.51595 0.07897988 0)
(154.15134 0.080335594 0)
(153.78452 0.080687468 0)
(153.4182 0.080072987 0)
(153.05502 0.078538428 0)
(152.69747 0.076138147 0)
(152.3479 0.07293368 0)
(152.00849 0.068992679 0)
(151.68124 0.06438774 0)
(151.36794 0.059195149 0)
(151.07019 0.053493592 0)
(150.78937 0.047362849 0)
(150.52664 0.040882556 0)
(150.28297 0.034131059 0)
(150.05909 0.027184334 0)
(149.85554 0.020115086 0)
(149.67269 0.012991982 0)
(149.5107 0.0058790481 0)
(149.36957 -0.0011647453 0)
(149.24917 -0.0080856919 0)
(149.1492 -0.014835383 0)
(149.06927 -0.021370283 0)
(149.00886 -0.027651806 0)
(148.9674 -0.033644127 0)
(148.9442 -0.039313745 0)
(148.93856 -0.04462538 0)
(148.94971 -0.049538855 0)
(148.97669 -0.054054446 0)
(149.01865 -0.058188525 0)
(149.07483 -0.061925929 0)
(149.14439 -0.06522379 0)
(149.22641 -0.068010186 0)
(149.31986 -0.070128945 0)
(149.4244 -0.071257804 0)
(149.53971 -0.071066657 0)
(149.66484 -0.070403351 0)
(149.7828 -0.067520439 0)
(149.87149 -0.053326459 0)
(159.95306 -0.2240445 0)
(160.11849 -0.23445432 0)
(160.23707 -0.23047154 0)
(160.35074 -0.22188685 0)
(160.45494 -0.21061468 0)
(160.54814 -0.19756748 0)
(160.62901 -0.1832203 0)
(160.69652 -0.1678951 0)
(160.74986 -0.1518574 0)
(160.78845 -0.13535431 0)
(160.81194 -0.11862843 0)
(160.82018 -0.1019236 0)
(160.81326 -0.085484928 0)
(160.79149 -0.069558697 0)
(160.75542 -0.054389892 0)
(160.70583 -0.040219215 0)
(160.64369 -0.027277871 0)
(160.57023 -0.015782593 0)
(160.48687 -0.0059326208 0)
(160.39521 0.0020928942 0)
(160.29698 0.0081247476 0)
(160.19406 0.012006353 0)
(160.08851 0.013608859 0)
(159.98248 0.012830108 0)
(159.87825 0.0095984918 0)
(159.77813 0.0038757362 0)
(159.68448 -0.0043432391 0)
(159.59967 -0.015028793 0)
(159.52601 -0.028116432 0)
(159.46576 -0.043505784 0)
(159.4211 -0.06106043 0)
(159.39406 -0.080606436 0)
(159.38645 -0.10194512 0)
(159.39987 -0.12485647 0)
(159.43572 -0.14909606 0)
(159.49517 -0.17439777 0)
(159.57913 -0.20047575 0)
(159.68822 -0.22702734 0)
(159.82276 -0.25373656 0)
(159.98279 -0.28027861 0)
(160.168 -0.30632309 0)
(160.37779 -0.33153909 0)
(160.61122 -0.35559861 0)
(160.86703 -0.37818163 0)
(161.14367 -0.39897995 0)
(161.43928 -0.41770153 0)
(161.75171 -0.43407451 0)
(162.07856 -0.44785105 0)
(162.4172 -0.45881088 0)
(162.76478 -0.46676446 0)
(163.11827 -0.47155585 0)
(163.47452 -0.47306508 0)
(163.83023 -0.47121001 0)
(164.18206 -0.46594768 0)
(164.52664 -0.45727503 0)
(164.86058 -0.445229 0)
(165.18057 -0.42988601 0)
(165.48337 -0.41136078 0)
(165.76586 -0.38980445 0)
(166.02509 -0.36540223 0)
(166.2583 -0.33837022 0)
(166.46296 -0.30895196 0)
(166.63677 -0.27741448 0)
(166.77772 -0.24404396 0)
(166.88409 -0.20914083 0)
(166.95444 -0.17301692 0)
(166.98768 -0.13598674 0)
(166.98298 -0.098357708 0)
(166.93984 -0.060436752 0)
(166.8581 -0.022536141 0)
(166.73789 0.015046574 0)
(166.57965 0.052063016 0)
(166.38406 0.088290885 0)
(166.15204 0.1236302 0)
(165.88612 0.15792199 0)
(165.58852 0.19085568 0)
(165.26122 0.22211949 0)
(164.90612 0.25144907 0)
(164.5252 0.27863259 0)
(164.1205 0.3034984 0)
(163.6942 0.32590571 0)
(163.24855 0.34574061 0)
(162.78592 0.36291405 0)
(162.30874 0.37736113 0)
(161.81951 0.38904121 0)
(161.32075 0.39793839 0)
(160.81498 0.40406197 0)
(160.30473 0.40744671 0)
(159.79247 0.40815268 0)
(159.28062 0.40626474 0)
(158.77151 0.40189138 0)
(158.26736 0.3951631 0)
(157.77029 0.38623025 0)
(157.28224 0.37526045 0)
(156.80502 0.36243556 0)
(156.34026 0.34794847 0)
(155.8894 0.33199972 0)
(155.45371 0.31479403 0)
(155.03427 0.2965369 0)
(154.63197 0.27743147 0)
(154.24751 0.25767553 0)
(153.88143 0.23745885 0)
(153.53408 0.21696088 0)
(153.20566 0.19634886 0)
(152.89623 0.17577627 0)
(152.6057 0.15538175 0)
(152.33388 0.13528834 0)
(152.08044 0.1156033 0)
(151.84499 0.096418004 0)
(151.62705 0.077807937 0)
(151.42606 0.059835949 0)
(151.24143 0.042559278 0)
(151.07252 0.026031026 0)
(150.91885 0.010277726 0)
(150.77977 -0.0047095341 0)
(150.65455 -0.018931837 0)
(150.5424 -0.032378725 0)
(150.44246 -0.045009983 0)
(150.35387 -0.056637686 0)
(150.27641 -0.06679658 0)
(150.20934 -0.075151377 0)
(150.15177 -0.084434561 0)
(150.09365 -0.089779344 0)
(150.03093 -0.075745356 0)
(162.18736 -0.28951439 0)
(162.27002 -0.28877768 0)
(162.31363 -0.27880789 0)
(162.34719 -0.26387144 0)
(162.36919 -0.24552524 0)
(162.37936 -0.22470127 0)
(162.37727 -0.20199902 0)
(162.36259 -0.17787546 0)
(162.33515 -0.15273018 0)
(162.29495 -0.12694459 0)
(162.24218 -0.10089692 0)
(162.17721 -0.074968787 0)
(162.10059 -0.049545113 0)
(162.01306 -0.025013272 0)
(161.91555 -0.001756237 0)
(161.80913 0.019853708 0)
(161.69508 0.03946115 0)
(161.57481 0.05671571 0)
(161.44985 0.071293135 0)
(161.3219 0.082903428 0)
(161.1928 0.09128796 0)
(161.06449 0.096219228 0)
(160.93893 0.09750683 0)
(160.81813 0.09500519 0)
(160.70409 0.088614303 0)
(160.59879 0.078284283 0)
(160.50421 0.064015848 0)
(160.42222 0.045861443 0)
(160.35462 0.023926641 0)
(160.30312 -0.0016280564 0)
(160.26925 -0.0305894 0)
(160.25442 -0.062689823 0)
(160.25993 -0.097613598 0)
(160.2869 -0.13500961 0)
(160.33622 -0.17448289 0)
(160.40857 -0.21560465 0)
(160.50438 -0.25791425 0)
(160.62382 -0.30092432 0)
(160.76681 -0.34412611 0)
(160.93301 -0.38699653 0)
(161.12178 -0.42900332 0)
(161.33226 -0.46961308 0)
(161.56328 -0.5082967 0)
(161.81344 -0.54453738 0)
(162.08106 -0.57783684 0)
(162.36427 -0.60772229 0)
(162.66092 -0.63375301 0)
(162.96869 -0.65552655 0)
(163.28507 -0.67268464 0)
(163.60738 -0.68491841 0)
(163.93282 -0.69197321 0)
(164.25848 -0.69365255 0)
(164.58136 -0.68982133 0)
(164.89844 -0.6804081 0)
(165.20669 -0.66540641 0)
(165.50308 -0.64487505 0)
(165.78466 -0.61893734 0)
(166.04857 -0.58777915 0)
(166.29207 -0.55164604 0)
(166.51259 -0.5108392 0)
(166.70771 -0.46571046 0)
(166.87524 -0.41665651 0)
(167.01322 -0.36411242 0)
(167.11994 -0.30854462 0)
(167.19393 -0.25044243 0)
(167.23403 -0.19031616 0)
(167.23933 -0.12867474 0)
(167.20919 -0.066014272 0)
(167.14324 -0.0028514537 0)
(167.04141 0.06029202 0)
(166.90393 0.12291797 0)
(166.73124 0.18449448 0)
(166.52416 0.24457437 0)
(166.28362 0.30270005 0)
(166.01078 0.35849642 0)
(165.70697 0.41167201 0)
(165.37374 0.46194638 0)
(165.01282 0.50904271 0)
(164.62611 0.55269484 0)
(164.21564 0.59265936 0)
(163.78356 0.62872285 0)
(163.33215 0.66070509 0)
(162.86378 0.68846117 0)
(162.3809 0.71188301 0)
(161.886 0.73090089 0)
(161.38163 0.74548472 0)
(160.87032 0.75564508 0)
(160.35461 0.76143379 0)
(159.837 0.76294376 0)
(159.31991 0.76030809 0)
(158.80571 0.75369826 0)
(158.29663 0.74332145 0)
(157.79478 0.72941705 0)
(157.30215 0.71225237 0)
(156.82053 0.6921178 0)
(156.35157 0.66932158 0)
(155.89673 0.64418425 0)
(155.45727 0.61703314 0)
(155.03427 0.5881969 0)
(154.62863 0.55800041 0)
(154.24106 0.52676004 0)
(153.87207 0.4947794 0)
(153.52202 0.46234572 0)
(153.19111 0.42972683 0)
(152.87938 0.39716867 0)
(152.58674 0.36489359 0)
(152.31298 0.33309903 0)
(152.05778 0.30195671 0)
(151.82072 0.27161277 0)
(151.60131 0.24218608 0)
(151.399 0.21377077 0)
(151.21319 0.18643849 0)
(151.04322 0.16023823 0)
(150.88842 0.13521155 0)
(150.74809 0.11139325 0)
(150.62154 0.088796173 0)
(150.50802 0.067413995 0)
(150.40677 0.047256293 0)
(150.31712 0.028459376 0)
(150.23884 0.011354666 0)
(150.17071 -0.0040506615 0)
(150.11207 -0.021764421 0)
(150.05902 -0.033676877 0)
(150.01637 -0.032374885 0)
(162.43104 -0.32013096 0)
(162.49588 -0.30532472 0)
(162.52755 -0.2860698 0)
(162.5483 -0.26290561 0)
(162.55703 -0.2365479 0)
(162.55377 -0.20769591 0)
(162.53834 -0.17694237 0)
(162.51059 -0.1448132 0)
(162.47049 -0.11180282 0)
(162.41813 -0.078396936 0)
(162.35378 -0.045081013 0)
(162.27787 -0.012345177 0)
(162.19098 0.019318159 0)
(162.09388 0.049419076 0)
(161.9875 0.077480553 0)
(161.87293 0.10303313 0)
(161.75142 0.12561458 0)
(161.62437 0.1448072 0)
(161.49333 0.16022074 0)
(161.35995 0.17149741 0)
(161.22601 0.17832964 0)
(161.09336 0.18046074 0)
(160.96391 0.17768905 0)
(160.83965 0.16987153 0)
(160.72256 0.15692755 0)
(160.61462 0.13884073 0)
(160.51781 0.11566089 0)
(160.43401 0.087504805 0)
(160.36505 0.054554959 0)
(160.31265 0.017059934 0)
(160.27839 -0.024670099 0)
(160.26368 -0.070270565 0)
(160.26979 -0.11931734 0)
(160.29776 -0.17132714 0)
(160.34844 -0.22577273 0)
(160.42244 -0.28207816 0)
(160.52014 -0.33962988 0)
(160.64165 -0.39778417 0)
(160.78683 -0.45587201 0)
(160.95529 -0.51320956 0)
(161.14634 -0.56910361 0)
(161.35906 -0.62286206 0)
(161.59224 -0.6738004 0)
(161.84445 -0.72125171 0)
(162.11398 -0.76457442 0)
(162.39892 -0.80316097 0)
(162.69713 -0.83644603 0)
(163.00628 -0.86391442 0)
(163.32386 -0.88510862 0)
(163.6472 -0.89963552 0)
(163.97352 -0.90717265 0)
(164.29993 -0.9074734 0)
(164.62347 -0.9003713 0)
(164.94112 -0.88578314 0)
(165.24989 -0.86371086 0)
(165.54677 -0.83424206 0)
(165.82884 -0.79754916 0)
(166.09324 -0.75388702 0)
(166.33724 -0.70358918 0)
(166.55826 -0.64706266 0)
(166.75389 -0.58478134 0)
(166.92194 -0.51727827 0)
(167.06042 -0.44513705 0)
(167.1676 -0.36898244 0)
(167.242 -0.28946821 0)
(167.28242 -0.20727917 0)
(167.28792 -0.12308049 0)
(167.25784 -0.037537641 0)
(167.19181 0.04865243 0)
(167.08975 0.13481406 0)
(166.95185 0.22029157 0)
(166.77855 0.30447856 0)
(166.57053 0.3867797 0)
(166.32873 0.46661305 0)
(166.05428 0.5434314 0)
(165.74856 0.61674378 0)
(165.41313 0.68609433 0)
(165.04975 0.75105984 0)
(164.66034 0.8112549 0)
(164.24695 0.86633676 0)
(163.81177 0.91600756 0)
(163.3571 0.96001603 0)
(162.88533 0.9981592 0)
(162.39895 1.0302845 0)
(161.90048 1.0562921 0)
(161.3925 1.0761369 0)
(160.87757 1.0898301 0)
(160.35827 1.0974405 0)
(159.83712 1.0990946 0)
(159.31659 1.0949749 0)
(158.79906 1.085318 0)
(158.28681 1.0704108 0)
(157.78196 1.0505854 0)
(157.28652 1.0262135 0)
(156.80232 0.99769936 0)
(156.331 0.96547253 0)
(155.87403 0.9299801 0)
(155.4327 0.89167894 0)
(155.00807 0.85102804 0)
(154.60103 0.80848138 0)
(154.2123 0.76448132 0)
(153.84238 0.71945273 0)
(153.49161 0.67379792 0)
(153.16018 0.62789255 0)
(152.84812 0.58208226 0)
(152.55532 0.53668049 0)
(152.28154 0.4919669 0)
(152.02647 0.44818671 0)
(151.78965 0.40555098 0)
(151.5706 0.36423738 0)
(151.36873 0.32439121 0)
(151.18343 0.28612586 0)
(151.01404 0.24952507 0)
(150.85988 0.21465464 0)
(150.72026 0.18157049 0)
(150.59448 0.15031849 0)
(150.48181 0.12094386 0)
(150.38156 0.093535762 0)
(150.29311 0.068310868 0)
(150.21621 0.045591624 0)
(150.1493 0.025452101 0)
(150.09229 0.0035885969 0)
(150.04432 -0.0081317667 0)
(150.011 -0.010685722 0)
(162.47792 -0.36348482 0)
(162.54153 -0.33894721 0)
(162.57393 -0.31132611 0)
(162.59542 -0.2801952 0)
(162.60461 -0.24587401 0)
(162.60152 -0.20889373 0)
(162.586 -0.16982293 0)
(162.55791 -0.12923343 0)
(162.51723 -0.087699257 0)
(162.46406 -0.045803257 0)
(162.39865 -0.0041381861 0)
(162.32143 0.036691682 0)
(162.23296 0.07607749 0)
(162.134 0.11341399 0)
(162.02549 0.148095 0)
(161.9085 0.17952652 0)
(161.78429 0.20715397 0)
(161.65426 0.23044261 0)
(161.51998 0.24890053 0)
(161.38312 0.26208269 0)
(161.24548 0.26959942 0)
(161.10893 0.27112655 0)
(160.97546 0.26640883 0)
(160.84705 0.2552654 0)
(160.72577 0.23759491 0)
(160.61364 0.21337864 0)
(160.51267 0.18268282 0)
(160.42484 0.14566041 0)
(160.352 0.10255062 0)
(160.29594 0.05367871 0)
(160.25829 -0.00054501777 0)
(160.24053 -0.059639877 0)
(160.24395 -0.12305679 0)
(160.26965 -0.19017114 0)
(160.3185 -0.26029778 0)
(160.39114 -0.33269094 0)
(160.48797 -0.40656016 0)
(160.60913 -0.48107831 0)
(160.75449 -0.55538876 0)
(160.92364 -0.62861869 0)
(161.11591 -0.69988578 0)
(161.33037 -0.76831154 0)
(161.5658 -0.83302931 0)
(161.82074 -0.89319672 0)
(162.09347 -0.94800507 0)
(162.38204 -0.99668997 0)
(162.68428 -1.0385413 0)
(162.99783 -1.0729129 0)
(163.32013 -1.0992313 0)
(163.64848 -1.1170046 0)
(163.98003 -1.1258295 0)
(164.31186 -1.1253981 0)
(164.64093 -1.1155028 0)
(164.96419 -1.0960412 0)
(165.27857 -1.0670176 0)
(165.58101 -1.0285448 0)
(165.86852 -0.98084255 0)
(166.13819 -0.92423567 0)
(166.38723 -0.85914917 0)
(166.613 -0.7861022 0)
(166.81305 -0.70570013 0)
(166.98512 -0.6186249 0)
(167.12719 -0.52562461 0)
(167.2375 -0.42750144 0)
(167.31453 -0.32509659 0)
(167.35707 -0.21929339 0)
(167.36417 -0.11094526 0)
(167.33517 -0.00092723396 0)
(167.26969 0.10985009 0)
(167.16769 0.22051501 0)
(167.02935 0.33021147 0)
(166.85513 0.43814776 0)
(166.64575 0.54356691 0)
(166.40217 0.64575146 0)
(166.12556 0.74403542 0)
(165.81732 0.8378062 0)
(165.47902 0.92649641 0)
(165.11245 1.0095808 0)
(164.71955 1.0865788 0)
(164.30239 1.1570593 0)
(163.8632 1.2206441 0)
(163.4043 1.2770117 0)
(162.92814 1.3259003 0)
(162.43722 1.3671116 0)
(161.93411 1.4005141 0)
(161.42143 1.4260458 0)
(160.90179 1.4437177 0)
(160.37781 1.4536141 0)
(159.85205 1.4558937 0)
(159.32702 1.4507878 0)
(158.80515 1.4385972 0)
(158.28874 1.4196876 0)
(157.77996 1.3944834 0)
(157.28084 1.3634595 0)
(156.79323 1.3271329 0)
(156.3188 1.286053 0)
(155.85903 1.2407913 0)
(155.41519 1.1919316 0)
(154.98838 1.14006 0)
(154.57946 1.0857556 0)
(154.18914 1.0295819 0)
(153.81792 0.97207934 0)
(153.46613 0.91375869 0)
(153.13391 0.8550958 0)
(152.8213 0.79652719 0)
(152.52815 0.73844716 0)
(152.25422 0.68120566 0)
(151.99914 0.62510721 0)
(151.76247 0.57041106 0)
(151.54368 0.51733185 0)
(151.34219 0.46604171 0)
(151.15735 0.41667254 0)
(150.9885 0.3693188 0)
(150.83495 0.32404469 0)
(150.69601 0.28089018 0)
(150.57098 0.23987541 0)
(150.45917 0.20101613 0)
(150.35995 0.1643698 0)
(150.27278 0.13008469 0)
(150.19739 0.098339201 0)
(150.13226 0.069190466 0)
(150.07812 0.037675359 0)
(150.03547 0.018546684 0)
(150.00828 0.0054459633 0)
(162.52044 -0.39405327 0)
(162.58525 -0.36097837 0)
(162.6197 -0.32497468 0)
(162.64338 -0.28558649 0)
(162.65456 -0.24303123 0)
(162.65313 -0.19777412 0)
(162.6389 -0.15038492 0)
(162.61171 -0.10148354 0)
(162.57153 -0.051720027 0)
(162.51846 -0.0017696545 0)
(162.45272 0.047672855 0)
(162.37472 0.095896893 0)
(162.28504 0.14218658 0)
(162.18444 0.18582404 0)
(162.07383 0.22609375 0)
(161.95432 0.2623112 0)
(161.82718 0.29381064 0)
(161.69384 0.31996626 0)
(161.55587 0.34020133 0)
(161.415 0.35399558 0)
(161.27305 0.36089803 0)
(161.13198 0.36053398 0)
(160.99378 0.35261329 0)
(160.86053 0.33693626 0)
(160.73432 0.31339894 0)
(160.61726 0.28199746 0)
(160.51143 0.2428301 0)
(160.41883 0.19609919 0)
(160.34142 0.14210981 0)
(160.28104 0.081267893 0)
(160.23936 0.014081885 0)
(160.21795 -0.058850468 0)
(160.21813 -0.13685323 0)
(160.24106 -0.21916217 0)
(160.28766 -0.30494627 0)
(160.35861 -0.39330998 0)
(160.45433 -0.48329888 0)
(160.575 -0.57391876 0)
(160.7205 -0.66413996 0)
(160.89045 -0.75291469 0)
(161.08418 -0.83918502 0)
(161.30074 -0.92189842 0)
(161.53892 -1.0000175 0)
(161.79723 -1.0725345 0)
(162.07393 -1.1384825 0)
(162.36705 -1.196948 0)
(162.67437 -1.2470823 0)
(162.99347 -1.2881135 0)
(163.32176 -1.3193565 0)
(163.65646 -1.3402235 0)
(163.99467 -1.3502328 0)
(164.33339 -1.3490166 0)
(164.66951 -1.3363274 0)
(164.9999 -1.3120433 0)
(165.32141 -1.276171 0)
(165.63092 -1.2288474 0)
(165.92533 -1.1703385 0)
(166.20167 -1.1010366 0)
(166.45707 -1.0214555 0)
(166.68883 -0.93222257 0)
(166.89443 -0.83406978 0)
(167.07156 -0.72782172 0)
(167.21814 -0.61438311 0)
(167.33239 -0.49472377 0)
(167.41275 -0.3698612 0)
(167.458 -0.24085983 0)
(167.46714 -0.10875353 0)
(167.43956 0.025393432 0)
(167.37487 0.1604866 0)
(167.27305 0.29547726 0)
(167.13426 0.42932414 0)
(166.959 0.56105226 0)
(166.74802 0.68972865 0)
(166.5023 0.81447198 0)
(166.22304 0.93445987 0)
(165.91168 1.0489312 0)
(165.56982 1.1571833 0)
(165.19929 1.2585709 0)
(164.80204 1.3525067 0)
(164.3802 1.4384646 0)
(163.93603 1.5159826 0)
(163.4719 1.5846668 0)
(162.99028 1.6441957 0)
(162.49374 1.694324 0)
(161.98489 1.7348881 0)
(161.46639 1.7658095 0)
(160.94092 1.7870989 0)
(160.41115 1.7988583 0)
(159.87969 1.8012811 0)
(159.34911 1.7946509 0)
(158.82189 1.7793379 0)
(158.30037 1.7557927 0)
(157.78677 1.7245388 0)
(157.28315 1.6861628 0)
(156.79139 1.6413034 0)
(156.31319 1.5906394 0)
(155.85002 1.5348771 0)
(155.40319 1.4747378 0)
(154.97378 1.4109454 0)
(154.56266 1.344215 0)
(154.1705 1.2752423 0)
(153.79781 1.2046942 0)
(153.44488 1.133201 0)
(153.11185 1.0613495 0)
(152.7987 0.98967817 0)
(152.50528 0.91867346 0)
(152.23131 0.84876717 0)
(151.97639 0.78033529 0)
(151.74006 0.71369799 0)
(151.52175 0.64912043 0)
(151.32085 0.58681446 0)
(151.13671 0.52694155 0)
(150.96863 0.46961699 0)
(150.81592 0.41491586 0)
(150.67786 0.36287803 0)
(150.55377 0.31351363 0)
(150.44294 0.26681819 0)
(150.3448 0.22280743 0)
(150.25882 0.18153017 0)
(150.1847 0.14300085 0)
(150.12107 0.10717615 0)
(150.06931 0.067861594 0)
(150.0304 0.041732862 0)
(150.00686 0.018286064 0)
(162.57489 -0.43382711 0)
(162.6429 -0.39320741 0)
(162.68002 -0.34920925 0)
(162.70642 -0.30157384 0)
(162.72008 -0.25055899 0)
(162.7208 -0.19663704 0)
(162.70829 -0.14040797 0)
(162.68237 -0.082550561 0)
(162.64297 -0.02379681 0)
(162.59016 0.035079618 0)
(162.52415 0.093276422 0)
(162.44534 0.14996677 0)
(162.3543 0.20431747 0)
(162.25176 0.25547351 0)
(162.13867 0.30261041 0)
(162.01614 0.3449113 0)
(161.88546 0.38159343 0)
(161.74809 0.41192038 0)
(161.60564 0.43521169 0)
(161.45988 0.45085522 0)
(161.3127 0.4583199 0)
(161.16609 0.45716486 0)
(161.02213 0.44704918 0)
(160.88295 0.42773943 0)
(160.75073 0.39911608 0)
(160.62765 0.36117855 0)
(160.51586 0.3140477 0)
(160.41746 0.25796824 0)
(160.33448 0.19330695 0)
(160.26882 0.12055078 0)
(160.22225 0.040305765 0)
(160.1964 -0.04671015 0)
(160.19266 -0.13968901 0)
(160.21225 -0.23772368 0)
(160.25614 -0.33982077 0)
(160.32506 -0.44491029 0)
(160.41947 -0.55185449 0)
(160.53958 -0.65947082 0)
(160.6853 -0.76653701 0)
(160.85625 -0.87181126 0)
(161.05178 -0.9740417 0)
(161.27093 -1.0719846 0)
(161.51248 -1.1644159 0)
(161.77491 -1.2501476 0)
(162.05646 -1.3280411 0)
(162.3551 -1.3970213 0)
(162.66858 -1.4560904 0)
(162.99442 -1.5043407 0)
(163.32996 -1.5409673 0)
(163.67235 -1.5652795 0)
(164.01861 -1.5767114 0)
(164.36565 -1.574831 0)
(164.71028 -1.559348 0)
(165.04927 -1.5301203 0)
(165.37938 -1.4871574 0)
(165.69738 -1.4306226 0)
(166.00009 -1.3608327 0)
(166.28444 -1.2782543 0)
(166.54748 -1.1834986 0)
(166.78642 -1.0773127 0)
(166.99865 -0.96056837 0)
(167.18181 -0.83424847 0)
(167.33377 -0.69943204 0)
(167.45268 -0.55727589 0)
(167.53696 -0.40899596 0)
(167.58538 -0.25585615 0)
(167.5969 -0.09909847 0)
(167.57093 0.059998847 0)
(167.50708 0.22014338 0)
(167.40536 0.38008842 0)
(167.26595 0.53862418 0)
(167.08937 0.69460529 0)
(166.8764 0.84694082 0)
(166.62807 0.99460019 0)
(166.3456 1.1366195 0)
(166.03047 1.2721036 0)
(165.68433 1.4002249 0)
(165.30903 1.520223 0)
(164.90657 1.6314056 0)
(164.47911 1.7331511 0)
(164.02896 1.8249121 0)
(163.55854 1.9062198 0)
(163.07037 1.9766892 0)
(162.56706 2.0360253 0)
(162.05131 2.0840284 0)
(161.52581 2.1206004 0)
(160.99333 2.145749 0)
(160.45658 2.1595908 0)
(159.91825 2.1623521 0)
(159.38099 2.1543676 0)
(158.84731 2.1360758 0)
(158.31962 2.108012 0)
(157.8002 2.070799 0)
(157.29115 2.0251352 0)
(156.79437 1.9717812 0)
(156.3116 1.9115455 0)
(155.84433 1.8452689 0)
(155.39387 1.7738095 0)
(154.96129 1.6980276 0)
(154.54748 1.6187724 0)
(154.15308 1.5368688 0)
(153.77857 1.4531066 0)
(153.42423 1.3682309 0)
(153.09017 1.2829344 0)
(152.77634 1.1978517 0)
(152.48255 1.1135548 0)
(152.20849 1.0305502 0)
(151.95372 0.94927843 0)
(151.71775 0.87011329 0)
(151.49999 0.79336368 0)
(151.2998 0.71927555 0)
(151.11648 0.64803555 0)
(150.94935 0.57977579 0)
(150.79766 0.51457991 0)
(150.66072 0.45248904 0)
(150.53781 0.39350988 0)
(150.42826 0.3376306 0)
(150.3315 0.28484606 0)
(150.24701 0.23515422 0)
(150.17446 0.18851197 0)
(150.11261 0.14487649 0)
(150.06319 0.096759854 0)
(150.02719 0.062814367 0)
(150.00602 0.029325838 0)
(162.64303 -0.46954791 0)
(162.71457 -0.42143755 0)
(162.75456 -0.3694444 0)
(162.78379 -0.31347693 0)
(162.80003 -0.25388231 0)
(162.80295 -0.19118396 0)
(162.7922 -0.12603656 0)
(162.76754 -0.059189225 0)
(162.72885 0.0085389997 0)
(162.67617 0.076275948 0)
(162.6097 0.14311225 0)
(162.52982 0.20810681 0)
(162.43708 0.27030187 0)
(162.33221 0.32873385 0)
(162.21617 0.38244939 0)
(162.09008 0.43051508 0)
(161.95525 0.47203561 0)
(161.81318 0.50616447 0)
(161.66553 0.53212199 0)
(161.51411 0.54920673 0)
(161.36087 0.55681015 0)
(161.20787 0.55442815 0)
(161.05726 0.54167229 0)
(160.91127 0.5182787 0)
(160.77213 0.48411555 0)
(160.64214 0.43918907 0)
(160.52351 0.38364629 0)
(160.41846 0.3177778 0)
(160.32909 0.24201549 0)
(160.2574 0.15693108 0)
(160.20525 0.063230804 0)
(160.17433 -0.038243598 0)
(160.16614 -0.14654695 0)
(160.18194 -0.26062746 0)
(160.22277 -0.37932681 0)
(160.28942 -0.50141653 0)
(160.3824 -0.62558141 0)
(160.50194 -0.75045668 0)
(160.64798 -0.87463296 0)
(160.82017 -0.99667769 0)
(161.01785 -1.1151476 0)
(161.24006 -1.2286091 0)
(161.48557 -1.335651 0)
(161.75284 -1.4349045 0)
(162.04006 -1.525057 0)
(162.34517 -1.6048695 0)
(162.66585 -1.6731914 0)
(162.99956 -1.7289758 0)
(163.34355 -1.7712937 0)
(163.69491 -1.7993474 0)
(164.05056 -1.8124823 0)
(164.4073 -1.8101983 0)
(164.76185 -1.7921585 0)
(165.11087 -1.7581965 0)
(165.45101 -1.7083214 0)
(165.77892 -1.6427203 0)
(166.09132 -1.5617578 0)
(166.38502 -1.4659727 0)
(166.65698 -1.3560719 0)
(166.90429 -1.2329201 0)
(167.12428 -1.0975274 0)
(167.31449 -0.95103348 0)
(167.47274 -0.79468999 0)
(167.59711 -0.62983866 0)
(167.68598 -0.45789254 0)
(167.73811 -0.28030967 0)
(167.75242 -0.098541088 0)
(167.72834 0.085924083 0)
(167.66549 0.27160224 0)
(167.56388 0.45703943 0)
(167.42373 0.6408278 0)
(167.2456 0.82162622 0)
(167.03031 0.99816804 0)
(166.7789 1.1692608 0)
(166.49267 1.3337907 0)
(166.17313 1.4907233 0)
(165.82197 1.6391029 0)
(165.44109 1.778052 0)
(165.03253 1.9067716 0)
(164.59851 2.0245431 0)
(164.14138 2.1307322 0)
(163.6636 2.2247935 0)
(163.16778 2.3062775 0)
(162.65657 2.3748372 0)
(162.13274 2.4302364 0)
(161.59908 2.4723564 0)
(161.05839 2.5012023 0)
(160.5135 2.5169069 0)
(159.96716 2.5197324 0)
(159.42209 2.5100688 0)
(158.88088 2.4884288 0)
(158.34603 2.4554396 0)
(157.81984 2.4118319 0)
(157.30448 2.3584254 0)
(156.8019 2.2961132 0)
(156.31384 2.2258442 0)
(155.84185 2.1486049 0)
(155.38722 2.0654011 0)
(154.95104 1.9772407 0)
(154.53417 1.8851169 0)
(154.13724 1.7899934 0)
(153.76071 1.6927915 0)
(153.40482 1.5943788 0)
(153.06965 1.4955606 0)
(152.7551 1.3970723 0)
(152.46095 1.2995755 0)
(152.18685 1.2036542 0)
(151.93232 1.1098135 0)
(151.69682 1.0184801 0)
(151.47972 0.93000318 0)
(151.28035 0.84465717 0)
(151.09799 0.76264552 0)
(150.9319 0.68410549 0)
(150.78136 0.60911392 0)
(150.64561 0.53769341 0)
(150.52396 0.46982125 0)
(150.41572 0.40544352 0)
(150.32035 0.34449242 0)
(150.23731 0.28687876 0)
(150.1663 0.23247681 0)
(150.10617 0.18118885 0)
(150.05881 0.12417275 0)
(150.02502 0.082281715 0)
(150.00548 0.039242696 0)
(162.72403 -0.51096185 0)
(162.80022 -0.45545158 0)
(162.84357 -0.39542858 0)
(162.87603 -0.33094169 0)
(162.89518 -0.2624429 0)
(162.90059 -0.19053022 0)
(162.89183 -0.11593118 0)
(162.86859 -0.039478148 0)
(162.83071 0.037912295 0)
(162.77819 0.11526327 0)
(162.71118 0.19154781 0)
(162.63006 0.26570144 0)
(162.53533 0.33663016 0)
(162.42777 0.40324345 0)
(162.30831 0.46445185 0)
(162.17809 0.51918998 0)
(162.03846 0.56643585 0)
(161.89095 0.60522249 0)
(161.73727 0.63465847 0)
(161.57929 0.65394181 0)
(161.41903 0.66237667 0)
(161.25863 0.65938632 0)
(161.10033 0.64452652 0)
(160.94643 0.61749568 0)
(160.7993 0.57814362 0)
(160.6613 0.52647842 0)
(160.53478 0.46266962 0)
(160.42204 0.38705131 0)
(160.32529 0.30011936 0)
(160.24664 0.20253038 0)
(160.18805 0.095092653 0)
(160.15131 -0.021226706 0)
(160.13798 -0.14534057 0)
(160.14943 -0.27604803 0)
(160.18677 -0.41202133 0)
(160.25082 -0.55184822 0)
(160.34217 -0.6940217 0)
(160.46109 -0.83697877 0)
(160.60754 -0.97910619 0)
(160.78118 -1.1187663 0)
(160.98137 -1.2543107 0)
(161.20715 -1.384103 0)
(161.45725 -1.5065335 0)
(161.73011 -1.6200414 0)
(162.02389 -1.7231304 0)
(162.33645 -1.8143883 0)
(162.66543 -1.8925036 0)
(163.0082 -1.9562825 0)
(163.36193 -2.0046655 0)
(163.72361 -2.0367421 0)
(164.09006 -2.0517646 0)
(164.45797 -2.0491609 0)
(164.82394 -2.0285452 0)
(165.18449 -1.9897262 0)
(165.53616 -1.9327133 0)
(165.87546 -1.8577196 0)
(166.199 -1.7651625 0)
(166.50345 -1.6556594 0)
(166.78564 -1.5300212 0)
(167.04256 -1.3892414 0)
(167.27145 -1.234481 0)
(167.46974 -1.0670511 0)
(167.63517 -0.88839177 0)
(167.76577 -0.70004679 0)
(167.85988 -0.5036429 0)
(167.91621 -0.30085216 0)
(167.93368 -0.093350233 0)
(167.91172 0.1171512 0)
(167.84996 0.32896231 0)
(167.74843 0.54042084 0)
(167.6074 0.74994342 0)
(167.42745 0.9560121 0)
(167.20945 1.1571914 0)
(166.9545 1.352131 0)
(166.66394 1.5395691 0)
(166.33932 1.7183337 0)
(165.98239 1.8873418 0)
(165.59509 2.0455979 0)
(165.17953 2.1921946 0)
(164.73797 2.3263138 0)
(164.2728 2.4472305 0)
(163.78658 2.554319 0)
(163.28195 2.64706 0)
(162.76166 2.7250503 0)
(162.22853 2.7880118 0)
(161.68546 2.8358007 0)
(161.13532 2.8684158 0)
(160.58104 2.8860034 0)
(160.02547 2.8888598 0)
(159.4714 2.8774297 0)
(158.92152 2.852301 0)
(158.37839 2.8141948 0)
(157.84441 2.7639525 0)
(157.32178 2.7025188 0)
(156.81252 2.6309235 0)
(156.3184 2.5502603 0)
(155.84098 2.4616657 0)
(155.38158 2.3662978 0)
(154.94127 2.2653154 0)
(154.5209 2.1598591 0)
(154.1211 2.0510344 0)
(153.74227 1.9398961 0)
(153.38464 1.8274362 0)
(153.04822 1.7145736 0)
(152.73289 1.6021465 0)
(152.43838 1.490907 0)
(152.16427 1.3815179 0)
(151.91006 1.2745515 0)
(151.67515 1.1704896 0)
(151.45887 1.0697255 0)
(151.26051 0.97256666 0)
(151.07931 0.87923891 0)
(150.9145 0.78989161 0)
(150.76531 0.70460308 0)
(150.63099 0.62338696 0)
(150.51082 0.54620082 0)
(150.40411 0.47295696 0)
(150.31028 0.40353307 0)
(150.22883 0.33776434 0)
(150.15942 0.2754443 0)
(150.10099 0.21638114 0)
(150.05547 0.15035141 0)
(150.02345 0.10054366 0)
(150.0051 0.048402139 0)
(162.81777 -0.55272545 0)
(162.89906 -0.48970918 0)
(162.94612 -0.42156588 0)
(162.98212 -0.34843414 0)
(163.00442 -0.27086705 0)
(163.01252 -0.18954761 0)
(163.00589 -0.10528728 0)
(162.98415 -0.01901023 0)
(162.94709 0.068263029 0)
(162.89466 0.15544748 0)
(162.82699 0.24139522 0)
(162.74441 0.32491542 0)
(162.64742 0.40478166 0)
(162.53677 0.47976649 0)
(162.41342 0.54864541 0)
(162.27852 0.61021754 0)
(162.13345 0.66332969 0)
(161.97978 0.70689001 0)
(161.81928 0.7398907 0)
(161.65388 0.76142465 0)
(161.48569 0.77070431 0)
(161.31692 0.76707652 0)
(161.14992 0.75003789 0)
(160.9871 0.71924663 0)
(160.83093 0.6745325 0)
(160.68389 0.61590474 0)
(160.54844 0.54355575 0)
(160.42702 0.45786455 0)
(160.32194 0.35939362 0)
(160.23545 0.24888795 0)
(160.16959 0.12726309 0)
(160.12628 -0.0043838374 0)
(160.10717 -0.14481613 0)
(160.11373 -0.29267692 0)
(160.14713 -0.44646197 0)
(160.20828 -0.60457903 0)
(160.29782 -0.76533205 0)
(160.41606 -0.92695791 0)
(160.56299 -1.0876402 0)