/*--------------------------------*- C++ -*----------------------------------*\
| =========                 |                                                 |
| \\      /  F ield         | foam-extend: Open Source CFD                    |
|  \\    /   O peration     | Version:     4.1                                |
|   \\  /    A nd           | Web:         http://www.foam-extend.org         |
|    \\/     M anipulation  |                                                 |
\*---------------------------------------------------------------------------*/
FoamFile
{
    version     2.0;
    format      ascii;
    class       regIOobject;
    location    "0.4/uniform";
    object      profilingInfo;
}
// * * * * * * * * * * * * * * * * * * * * * * * * * * * * * * * * * * * * * //

profilingInfo
(

    {
        id              16;
        parentId        11;
        description     "Foam::Time::writeObject - outputTime";
        calls           4;
        totalTime       0.051676;
        childTime       0;
        onStack         1;
    }

    {
        id              11;
        parentId        1;
        description     "Foam::Time::writeObject";
        calls           800;
        totalTime       0.052666;
        childTime       0.051676;
        onStack         1;
    }

    {
        id              1;
        description     "application::main";
        calls           1;
        totalTime       15.490873;
        childTime       12.533934;
        onStack         1;
    }

    {
        id              13;
        parentId        1;
        description     "FO::forceCoeffs::execute";
        calls           799;
        totalTime       0.312756;
        childTime       0;
        onStack         0;
    }

    {
        id              12;
        parentId        1;
        description     "FO::forces::execute";
        calls           799;
        totalTime       0.289756;
        childTime       0;
        onStack         0;
    }

    {
        id              14;
        parentId        1;
        description     "FO::pressureTools1::execute";
        calls           799;
        totalTime       0.001679;
        childTime       0;
        onStack         0;
    }

    {
        id              15;
        parentId        1;
        description     "FO::probes::execute";
        calls           799;
        totalTime       0.066975;
        childTime       0;
        onStack         0;
    }

    {
        id              2;
        parentId        1;
        description     "functionObjectList::read";
        calls           1;
        totalTime       0.002433;
        childTime       0;
        onStack         0;
    }

    {
        id              3;
        parentId        1;
        description     "fvMatrix::solve_U";
        calls           800;
        totalTime       1.321918;
        childTime       1.231535;
        onStack         0;
    }

    {
        id              8;
        parentId        1;
        description     "fvMatrix::solve_p";
        calls           3200;
        totalTime       10.485751;
        childTime       10.280672;
        onStack         0;
    }

    {
        id              5;
        parentId        4;
        description     "lduMatrix::smoother_Ux";
        calls           800;
        totalTime       0.520159;
        childTime       0;
        onStack         0;
    }

    {
        id              7;
        parentId        6;
        description     "lduMatrix::smoother_Uy";
        calls           800;
        totalTime       0.607879;
        childTime       0;
        onStack         0;
    }

    {
        id              4;
        parentId        3;
        description     "lduMatrix::solver_Ux";
        calls           800;
        totalTime       0.573096;
        childTime       0.520159;
        onStack         0;
    }

    {
        id              6;
        parentId        3;
        description     "lduMatrix::solver_Uy";
        calls           800;
        totalTime       0.658439;
        childTime       0.607879;
        onStack         0;
    }

    {
        id              9;
        parentId        8;
        description     "lduMatrix::solver_p";
        calls           3200;
        totalTime       10.280672;
        childTime       0.189549;
        onStack         0;
    }

    {
        id              10;
        parentId        9;
        description     "lduMatrix::solver_topLevelCorr";
        calls           37902;
        totalTime       0.189549;
        childTime       0;
        onStack         0;
    }
);


// ************************************************************************* //
