# vtk DataFile Version 2.0
triSurface
ASCII
DATASET POLYDATA
POINTS 96 float
 -0.086091867 0.11219711 0 -0.086091867 0.11219711 0.1 -0.1 0.1 0.1 -0.1 0.1 0 -0.070710678 0.12247449 0 -0.070710678 0.12247449 0.1 -0.05411961 0.1306563 0 -0.05411961 0.1306563 0.1 -0.03660254 0.13660254 0 -0.03660254 0.13660254 0.1
-0.018459191 0.14021148 0 -0.018459191 0.14021148 0.1 3.1824475e-10 0.14142136 0 3.1824475e-10 0.14142136 0.1 0.018459191 0.14021148 0 0.018459191 0.14021148 0.1 0.036602541 0.13660254 0 0.036602541 0.13660254 0.1 0.05411961 0.1306563 0 0.05411961 0.1306563 0.1
0.070710678 0.12247449 0 0.070710678 0.12247449 0.1 0.086091867 0.11219711 0 0.086091867 0.11219711 0.1 0.1 0.1 0 0.1 0.1 0.1 -0.11219711 -0.086091867 0 -0.11219711 -0.086091867 0.1 -0.1 -0.1 0.1 -0.1 -0.1 0
-0.12247449 -0.070710678 0 -0.12247449 -0.070710678 0.1 -0.1306563 -0.05411961 0 -0.1306563 -0.05411961 0.1 -0.13660254 -0.03660254 0 -0.13660254 -0.03660254 0.1 -0.14021148 -0.018459191 0 -0.14021148 -0.018459191 0.1 -0.070710678 -0.12247449 0 -0.070710678 -0.12247449 0.1
-0.05411961 -0.1306563 0.1 -0.05411961 -0.1306563 0 -0.14142136 3.1824475e-10 0 -0.14142136 3.1824475e-10 0.1 -0.14021148 0.018459191 0 -0.14021148 0.018459191 0.1 -0.13660254 0.036602541 0 -0.13660254 0.036602541 0.1 -0.1306563 0.05411961 0 -0.1306563 0.05411961 0.1
-0.12247449 0.070710678 0 -0.12247449 0.070710678 0.1 -0.11219711 0.086091867 0 -0.11219711 0.086091867 0.1 0.086091867 -0.11219711 0 0.086091867 -0.11219711 0.1 0.1 -0.1 0.1 0.1 -0.1 0 0.070710678 -0.12247449 0 0.070710678 -0.12247449 0.1
0.05411961 -0.1306563 0 0.05411961 -0.1306563 0.1 0.03660254 -0.13660254 0 0.03660254 -0.13660254 0.1 0.018459191 -0.14021148 0 0.018459191 -0.14021148 0.1 -3.1824475e-10 -0.14142136 0 -3.1824475e-10 -0.14142136 0.1 -0.018459191 -0.14021148 0 -0.018459191 -0.14021148 0.1
-0.036602541 -0.13660254 0 -0.036602541 -0.13660254 0.1 -0.086091867 -0.11219711 0 -0.086091867 -0.11219711 0.1 0.11219711 0.086091867 0 0.11219711 0.086091867 0.1 0.12247449 0.070710678 0 0.12247449 0.070710678 0.1 0.1306563 0.05411961 0 0.1306563 0.05411961 0.1
0.13660254 0.03660254 0 0.13660254 0.03660254 0.1 0.14021148 0.018459191 0 0.14021148 0.018459191 0.1 0.14142136 -3.1824475e-10 0 0.14142136 -3.1824475e-10 0.1 0.14021148 -0.018459191 0 0.14021148 -0.018459191 0.1 0.13660254 -0.036602541 0 0.13660254 -0.036602541 0.1
0.1306563 -0.05411961 0 0.1306563 -0.05411961 0.1 0.12247449 -0.070710678 0 0.12247449 -0.070710678 0.1 0.11219711 -0.086091867 0 0.11219711 -0.086091867 0.1
POLYGONS 96 384
 3 0 2 1 3 2 0 3 3 4 1 5 3 1 4 0 3 6 5 7 3 5 6 4 3 8 7 9 3 7 8 6 3 10 9 11 3 9 10 8
3 12 11 13 3 11 12 10 3 14 13 15 3 13 14 12 3 16 15 17 3 15 16 14 3 18 17 19 3 17 18 16 3 20 19 21 3 19 20 18
3 22 21 23 3 21 22 20 3 24 23 25 3 23 24 22 3 26 28 27 3 28 26 29 3 30 27 31 3 27 30 26 3 32 31 33 3 31 32 30
3 34 33 35 3 33 34 32 3 36 35 37 3 35 36 34 3 38 40 39 3 40 38 41 3 42 37 43 3 37 42 36 3 44 43 45 3 43 44 42
3 46 45 47 3 45 46 44 3 48 47 49 3 47 48 46 3 50 49 51 3 49 50 48 3 52 51 53 3 51 52 50 3 3 53 2 3 53 3 52
3 54 56 55 3 56 54 57 3 58 55 59 3 55 58 54 3 60 59 61 3 59 60 58 3 62 61 63 3 61 62 60 3 64 63 65 3 63 64 62
3 66 65 67 3 65 66 64 3 68 67 69 3 67 68 66 3 70 69 71 3 69 70 68 3 41 71 40 3 71 41 70 3 72 39 73 3 39 72 38
3 29 73 28 3 73 29 72 3 74 25 75 3 25 74 24 3 76 75 77 3 75 76 74 3 78 77 79 3 77 78 76 3 80 79 81 3 79 80 78
3 82 81 83 3 81 82 80 3 84 83 85 3 83 84 82 3 86 85 87 3 85 86 84 3 88 87 89 3 87 88 86 3 90 89 91 3 89 90 88
3 92 91 93 3 91 92 90 3 94 93 95 3 93 94 92 3 57 95 56 3 95 57 94
CELL_DATA 96
FIELD attributes 1
region 1 96 float
 0 0 0 0 0 0 0 0 0 0
0 0 0 0 0 0 0 0 0 0
0 0 0 0 0 0 0 0 0 0
0 0 0 0 0 0 0 0 0 0
0 0 0 0 0 0 0 0 0 0
0 0 0 0 0 0 0 0 0 0
0 0 0 0 0 0 0 0 0 0
0 0 0 0 0 0 0 0 0 0
0 0 0 0 0 0 0 0 0 0
0 0 0 0 0 0
