/*--------------------------------*- C++ -*----------------------------------*\
| =========                 |                                                 |
| \\      /  F ield         | foam-extend: Open Source CFD                    |
|  \\    /   O peration     | Version:     4.1                                |
|   \\  /    A nd           | Web:         http://www.foam-extend.org         |
|    \\/     M anipulation  |                                                 |
\*---------------------------------------------------------------------------*/
FoamFile
{
    version     2.0;
    format      ascii;
    class       surfaceScalarField;
    location    "0.3";
    object      phi;
}
// * * * * * * * * * * * * * * * * * * * * * * * * * * * * * * * * * * * * * //

dimensions      [0 3 -1 0 0 0 0];

internalField   nonuniform List<scalar> 
6703
(
-2.8799475e-05
0.00014468937
-0.0001158899
-5.4180986e-05
0.00017970455
-0.00015432304
-7.8181945e-05
0.00021612936
-0.0001921284
-0.00010640839
0.00025667315
-0.00022844671
-0.00013881061
0.00030418674
-0.00027178451
-0.00017584897
0.00035980238
-0.00032276401
-0.00021797333
0.00042473756
-0.00038261321
-0.00026566213
0.00050038444
-0.00045269563
-0.0003194847
0.00058827058
-0.00053444801
-0.0003801359
0.00069009598
-0.00062944478
-0.00044845602
0.00080777983
-0.00073945971
-0.00052544439
0.00094352652
-0.00086653815
-0.00061226326
0.0010999851
-0.0010131662
-0.00071033456
0.0012806065
-0.0011825352
-0.00082131976
0.0014902405
-0.0013792553
0.0017353885
-0.0016118254
-0.00094488288
-2.1173685e-05
0.00016586306
-4.1936255e-05
0.00020046712
-6.2353103e-05
0.0002365462
-8.656119e-05
0.00028088124
-0.00011478528
0.00033241083
-0.00014784354
0.00039286063
-0.00018654099
0.00046343501
-0.00023176117
0.00054560462
-0.00028449711
0.00064100652
-0.00034588625
0.00075148512
-0.00041726836
0.00087916195
-0.00050027635
0.0010265345
-0.00059693016
0.0011966389
-0.00070962509
0.0013933014
-0.00084079659
0.001621412
0.0018866555
-0.00099206359
-7.9784741e-06
0.00017384153
-2.0574776e-05
0.00021306342
-3.5183071e-05
0.0002511545
-5.2753563e-05
0.00029845173
-7.3575654e-05
0.00035323292
-9.8293613e-05
0.00041757859
-0.0001275598
0.0004927012
-0.00016213999
0.00058018481
-0.00020290632
0.00068177284
-0.0002508502
0.00079942901
-0.00030710173
0.00093541347
-0.00037296748
0.0010924003
-0.00044999387
0.0012736653
-0.00054002317
0.0014833307
-0.00064508015
0.001726469
0.0020087985
-0.00076722312
-3.3280374e-06
0.00017716957
-1.1581993e-05
0.00022131737
-2.0554403e-05
0.00026012691
-3.1720076e-05
0.0003096174
-4.5066066e-05
0.00036657891
-6.1111466e-05
0.00043362399
-8.0316486e-05
0.00051190622
-0.00010325065
0.00060311897
-0.00013056386
0.00070908605
-0.00016300034
0.0008318655
-0.00020140756
0.00097382068
-0.00024674333
0.001137736
-0.00030007074
0.0013269927
-0.00036250544
0.0015457654
-0.00043498
0.0017989435
0.0020906698
-0.00051685135
8.1441111e-07
0.00017635516
-3.6254504e-06
0.00022575724
-7.4908e-06
0.00026399226
-1.2828647e-05
0.00031495525
-1.9166368e-05
0.00037291663
-2.6889311e-05
0.00044134693
-3.6224632e-05
0.00052124154
-4.7511947e-05
0.00061440628
-6.1139117e-05
0.00072271322
-7.7564261e-05
0.00084829064
-9.7320755e-05
0.00099357718
-0.00012102314
0.0011614384
-0.00014935842
0.001355328
-0.00018301549
0.0015794225
-0.00022272986
0.0018386579
0.0021393119
-0.00027137197
5.0115838e-06
0.00017134357
4.7570531e-06
0.00022601177
5.9105519e-06
0.00026283876
6.4296395e-06
0.00031443616
7.0993701e-06
0.0003722469
7.7141548e-06
0.00044073215
8.2767672e-06
0.00052067893
8.6838937e-06
0.00061399916
8.8188687e-06
0.00072257825
8.5195646e-06
0.00084858995
7.579977e-06
0.00099451677
5.7464149e-06
0.001163272
2.7181423e-06
0.0013583563
-1.888455e-06
0.0015840291
-8.3456793e-06
0.0018451151
0.0021478359
-1.6869653e-05
9.5107092e-06
0.00016183286
1.4162678e-05
0.0002213598
2.0438355e-05
0.00025656308
2.714787e-05
0.00030772665
3.4935078e-05
0.00036445969
4.3934577e-05
0.00043173265
5.4348862e-05
0.00051026464
6.6335586e-05
0.00060201243
8.0051751e-05
0.00070886208
9.5635431e-05
0.00083300627
0.0001132072
0.000976945
0.00013287142
0.0011436078
0.00015472821
0.0013364995
0.00017885211
0.0015599052
0.0002054737
0.0018184935
0.0021195205
0.0002337891
1.4034317e-05
0.00014779855
2.4067754e-05
0.00021132636
3.5412935e-05
0.0002452179
4.8439769e-05
0.00029469981
6.3394271e-05
0.00034950519
8.0804407e-05
0.00041432251
0.00010105547
0.00049001358
0.00012455962
0.00057850828
0.00015172395
0.00068169776
0.00018296202
0.0008017682
0.00021869628
0.00094121074
0.00025936394
0.0011029401
0.00030541843
0.001290445
0.00035727891
0.0015080447
0.00041537437
0.0017603981
0.0020554766
0.00047941829
1.884515e-05
0.0001289534
3.5102518e-05
0.00019506899
5.1785712e-05
0.00022853471
7.1273697e-05
0.00027521183
9.3468407e-05
0.00032731048
0.00011921864
0.00038857228
0.00014910586
0.00046012637
0.0001837842
0.00054382994
0.00022390024
0.00064158171
0.0002701258
0.00075554263
0.00032317563
0.00088816091
0.00038384215
0.0010422736
0.0004530495
0.0012212376
0.0005319223
0.0014291719
0.00062190194
0.0016704184
0.0019528283
0.00072455019
2.516414e-05
0.00010378926
4.8758758e-05
0.00017147438
7.1859228e-05
0.00020543424
9.843125e-05
0.00024863981
0.00012832453
0.0002974172
0.00016251387
0.00035438293
0.00020175775
0.00042088249
0.00024691346
0.00049867423
0.00029885252
0.00058964265
0.00035849206
0.00069590309
0.00042683312
0.00081981985
0.0005050365
0.00096407021
0.00059455662
0.0011317175
0.00069738531
0.0013263432
0.00081650941
0.0015512943
0.0018115426
0.00095779518
2.6922779e-05
7.6866477e-05
6.5167208e-05
0.00013322995
0.00010198086
0.00016862059
0.00013941743
0.00021120323
0.00017870186
0.00025813277
0.00022164285
0.00031144195
0.00026948245
0.00037304289
0.000323361
0.00044479568
0.00038442965
0.000528574
0.00045390522
0.00062642752
0.00053310658
0.0007406185
0.00062351669
0.00087366009
0.00072686073
0.0010283735
0.00084515374
0.0012080502
0.00098038621
0.0014160619
0.001655043
0.0011368858
5.4824112e-05
2.2042366e-05
0.00010588126
8.2172795e-05
0.00014618574
0.00012831611
0.000186301
0.00017108798
0.00022896054
0.00021547323
0.00027521057
0.00026519192
0.00032570879
0.00032254468
0.0003810357
0.00038946877
0.00044168625
0.00046792345
0.00050812965
0.00055998411
0.00058088057
0.00066786758
0.00066055398
0.00079398668
0.00074790296
0.00094102452
0.00084380989
0.0011121432
0.0009484647
0.0013114071
0.0015406201
0.0010628876
-7.1441122e-07
-0.00011756295
0.00011827736
-1.3638815e-05
-0.00014160943
0.00015453383
-3.8252762e-05
-0.00016856856
0.00019318251
-6.6757342e-05
-0.00020032366
0.00022882824
-0.00010055228
-0.00023752132
0.00027131625
-0.0001404296
-0.00028102274
0.00032090006
-0.00018729631
-0.00033174663
0.00037861334
-0.00024215857
-0.00039069221
0.00044555447
-0.00030600186
-0.00045895029
0.00052279358
-0.00037973936
-0.00053771315
0.00061145066
-0.00046419458
-0.00062829374
0.00071274895
-0.00056008234
-0.00073217049
0.00082805825
-0.00066806087
-0.00085107544
0.00095905397
-0.00078911664
-0.00098705497
0.0011081107
-0.00092578793
-0.0011423036
0.0012789749
-0.0013198031
0.0014791435
-0.0010851284
-1.7970625e-05
-9.9592327e-05
-4.0925519e-05
-0.00011865454
-6.8929648e-05
-0.00014056444
-0.00010284685
-0.00016640645
-0.00014359149
-0.00019677667
-0.0001922579
-0.00023235633
-0.00025011306
-0.00027389148
-0.00031860761
-0.00032219767
-0.00039939616
-0.00037816174
-0.00049436076
-0.00044274856
-0.00060563506
-0.00051701944
-0.00073563461
-0.00060217093
-0.00088710943
-0.00069960062
-0.0010631594
-0.00081100503
-0.0012668481
-0.00093861488
-0.0010856898
-0.0015009614
-2.1224863e-05
-7.8367464e-05
-4.7221585e-05
-9.2657814e-05
-7.8391935e-05
-0.00010939409
-0.00011567199
-0.0001291264
-0.00016012703
-0.00015232164
-0.00021299676
-0.0001794866
-0.00027570746
-0.00021118077
-0.00034988556
-0.00024801956
-0.00043737219
-0.00029067511
-0.00054024084
-0.0003398799
-0.0006608236
-0.00039643668
-0.0008017545
-0.00046124003
-0.00096603596
-0.00053531916
-0.0011571386
-0.00061990238
-0.0013793599
-0.00071639359
-0.00082597051
-0.0016390792
-2.1787604e-05
-5.657986e-05
-4.8935497e-05
-6.5509921e-05
-8.1898607e-05
-7.6430977e-05
-0.00012155779
-8.9467216e-05
-0.00016900541
-0.00010487402
-0.00022552705
-0.00012296496
-0.00029260113
-0.00014410669
-0.00037190409
-0.0001687166
-0.00046531676
-0.00019726244
-0.00057493208
-0.00023026458
-0.00070306808
-0.00026830068
-0.00085229858
-0.00031200953
-0.0010255269
-0.00036209087
-0.0012260756
-0.00041935366
-0.001457342
-0.00048512718
-0.00056228718
-0.0017210253
-2.3827193e-05
-3.2752667e-05
-5.2975253e-05
-3.636186e-05
-8.7944997e-05
-4.1461233e-05
-0.00012981182
-4.7600393e-05
-0.00017980574
-5.4880105e-05
-0.00023932586
-6.3444837e-05
-0.00030995901
-7.3473542e-05
-0.00039349436
-8.5181254e-05
-0.00049193746
-9.8819335e-05
-0.0006075285
-0.00011467354
-0.0007427701
-0.00013305908
-0.0009004589
-0.00015432074
-0.0010837026
-0.00017884715
-0.0012960701
-0.00020698618
-0.0015428742
-0.00023832312
-0.0002702086
-0.0018349527
-7.9603468e-06
0.00017391471
-0.00016595436
-2.054232e-05
0.00021317712
-0.00020059514
-3.513012e-05
0.00025128845
-0.00023670065
-5.2676052e-05
0.00029862774
-0.00028108181
-7.3467082e-05
0.00035346888
-0.00033267785
-9.8144233e-05
0.00041789482
-0.00039321767
-0.00012735473
0.00049311456
-0.00046390406
-0.00016185728
0.00058069879
-0.00054619624
-0.00020251607
0.00068236161
-0.00064170282
-0.00025031761
0.00080001871
-0.00075221717
-0.00030639994
0.00093587149
-0.00087978915
-0.00037210635
0.0010925566
-0.0010268502
-0.00044905757
0.0012733962
-0.0011964449
-0.00053916989
0.0014826989
-0.0013925866
-0.00064439023
0.0017257898
-0.0016205694
0.0020082536
-0.0018865111
-0.00076613276
-3.2683807e-05
-6.8860633e-08
-6.9010271e-05
-3.5395632e-08
-0.00011047381
2.3076671e-09
-0.00015812251
4.8308845e-08
-0.00021310579
1.031666e-07
-0.00027671685
1.6622939e-07
-0.00035042586
2.354632e-07
-0.00043591389
3.0677504e-07
-0.00053510635
3.7312434e-07
-0.00065020362
4.2373198e-07
-0.00078370682
4.4412216e-07
-0.00093844544
4.1788133e-07
-0.0011176216
3.2898236e-07
-0.001324765
1.5729369e-07
-0.0015629401
-1.4805177e-07
-7.0091458e-07
-0.0018324478
-3.3118203e-05
3.3049342e-05
-6.9816416e-05
3.6662817e-05
-0.00011164766
4.1833552e-05
-0.00015967423
4.8074877e-05
-0.00021504609
5.5475033e-05
-0.00027904981
6.4169949e-05
-0.0003531429
7.4328554e-05
-0.00043898803
8.6151897e-05
-0.00053848666
9.9871761e-05
-0.00065381053
0.0001157476
-0.00078742758
0.00013406117
-0.00094212475
0.00015511505
-0.0011210306
0.0001792348
-0.0013275341
0.00020666077
-0.0015646321
0.00023694997
0.00026829134
-0.0018336243
-2.3887625e-05
5.6936968e-05
-5.3161797e-05
6.5936989e-05
-8.8279864e-05
7.6951619e-05
-0.00013030039
9.0095402e-05
-0.00018044121
0.00010561585
-0.00024008897
0.00012381771
-0.00031081608
0.00014505567
-0.0003943944
0.00016973021
-0.00049280807
0.00019828543
-0.00060826952
0.00023120906
-0.00074324303
0.00026903467
-0.00090047332
0.00031234534
-0.0010830161
0.0003617776
-0.0012944016
0.00041804622
-0.0015396121
0.00048216049
0.00055608254
-0.0018274033
-2.1658825e-05
7.8595793e-05
-4.866379e-05
9.2941953e-05
-8.145705e-05
0.00010974488
-0.00012090512
0.00012954347
-0.0001680854
0.00015279613
-0.00022426554
0.00017999785
-0.00029090161
0.00021169174
-0.00036964215
0.00024847076
-0.00046233429
0.00029097757
-0.00057103329
0.00033990805
-0.00069802165
0.00039602304
-0.00084585446
0.00046017815
-0.0010174698
0.00053339299
-0.0012163806
0.00061695694
-0.0014464914
0.00071227136
0.00081961914
-0.001710028
-2.1043842e-05
9.9639635e-05
-4.6825179e-05
0.00011872329
-7.7732901e-05
0.0001406526
-0.00011469123
0.0001665018
-0.00015875248
0.00019685738
-0.00021114117
0.00023238654
-0.00027326669
0.00027381726
-0.00034673876
0.00032194283
-0.00043338678
0.00037762558
-0.00053528823
0.0004418095
-0.00065481689
0.0005155517
-0.00079472328
0.00060008454
-0.00095823746
0.00069690717
-0.0011491986
0.00080791808
-0.0013729646
0.0009360374
0.0010877868
-0.0016411323
-1.7877264e-05
0.0001175169
-4.0713315e-05
0.00014155934
-6.8569952e-05
0.00016850924
-0.00010230609
0.00020023794
-0.00014283348
0.00023738477
-0.00019124627
0.00028079932
-0.00024881711
0.0003313881
-0.00031701443
0.00039014015
-0.00039753343
0.00045814459
-0.00049233754
0.00053661361
-0.00060371029
0.00062692445
-0.00073432723
0.00073070148
-0.00088738425
0.00084996419
-0.0010667479
0.00098728169
-0.0012762269
0.0011455164
0.0013268105
-0.0015152505
-6.2279905e-07
0.0001181397
-1.3486093e-05
0.00015442264
-3.8061399e-05
0.00019308455
-6.6517456e-05
0.000228694
-0.00010026161
0.00027112892
-0.00014009211
0.00032062982
-0.00018692627
0.00037822227
-0.00024178775
0.00044500162
-0.00030569377
0.00052205061
-0.00037960692
0.00061052676
-0.00046442148
0.000711739
-0.00056093107
0.00082721107
-0.00066980888
0.000958842
-0.00079174145
0.0011092143
-0.00092812812
0.0012819031
0.0014822673
-0.0010835849
5.4786152e-05
-7.6715828e-05
2.1929675e-05
0.00010583352
-0.00013310375
8.2056389e-05
0.00014613651
-0.00016850327
0.00012820028
0.00018623856
-0.00021106839
0.00017096633
0.00022887694
-0.00025797996
0.00021534158
0.00027509877
-0.0003112693
0.00026504747
0.00032556103
-0.00037284815
0.0003223859
0.00038084106
-0.00044457018
0.00038929015
0.00044142694
-0.00052829308
0.0004677072
0.0005077751
-0.00062603594
0.00055968778
0.0005803797
-0.00074001301
0.00066740841
0.00065982484
-0.00087267539
0.00079323024
0.00074681353
-0.0010267772
0.00093978852
0.00084204407
-0.0012055417
0.0011103112
0.00094525386
-0.0014119067
0.0013086969
-0.0016495441
0.0015321243
0.0010626736
2.6949118e-05
-0.00010366495
6.5225074e-05
-0.00017137971
0.00010206951
-0.00020534771
0.00013953945
-0.00024853833
0.00017886495
-0.00029730545
0.00022185862
-0.00035426298
0.00026976715
-0.00042075669
0.00032373427
-0.0004985373
0.0003849134
-0.00058947221
0.00045452362
-0.00069564615
0.00053389216
-0.00081938155
0.00062453421
-0.00096331744
0.00072827553
-0.0011305185
0.00084740844
-0.0013246746
0.00098477585
-0.0015492741
-0.0018110877
0.0011463195
2.5197961e-05
-0.00012886291
4.8833701e-05
-0.00019501545
7.1969643e-05
-0.00022848365
9.8582236e-05
-0.00027515092
0.00012852665
-0.00032724986
0.0001627809
-0.00038851723
0.00020210613
-0.00046008192
0.0002473604
-0.00054379157
0.0002994135
-0.0006415253
0.00035917791
-0.00075541057
0.00042764914
-0.00088785278
0.00050598799
-0.0010416563
0.00059566127
-0.0012201918
0.00069865858
-0.001427672
0.00081782968
-0.0016684452
-0.0019510662
0.00095780817
1.8873058e-05
-0.00014773596
3.5166627e-05
-0.00021130902
5.1881208e-05
-0.00024519823
7.1409168e-05
-0.00029467888
9.3654159e-05
-0.00034949485
0.00011946752
-0.00041433059
0.00014943207
-0.00049004646
0.00018420157
-0.00057856107
0.00022441957
-0.0006817433
0.00027075177
-0.00080174276
0.00032390636
-0.00094100737
0.00038467737
-0.0011024273
0.0004540148
-0.0012895292
0.00053309763
-0.0015067548
0.00062350984
-0.0017588574
-0.0020545544
0.00072699802
1.4059627e-05
-0.00016179559
2.4123218e-05
-0.00022137261
3.5496292e-05
-0.00025657131
4.8560935e-05
-0.00030774352
6.3562664e-05
-0.00036449658
8.1031803e-05
-0.00043179973
0.00010135421
-0.00051036886
0.00012494135
-0.00060214821
0.0001521967
-0.00070899865
0.00018352708
-0.00083307314
0.00021934651
-0.0009768268
0.00026008768
-0.0011431685
0.00030621258
-0.0013356541
0.00035814796
-0.0015586902
0.0004163114
-0.0018170208
-0.0021182713
0.00048002838
9.5374337e-06
-0.00017133302
1.4217571e-05
-0.00022605275
2.0522322e-05
-0.00026287606
2.727099e-05
-0.00031449219
3.5106572e-05
-0.00037233216
4.4166151e-05
-0.00044085931
5.465306e-05
-0.00052085577
6.6724914e-05
-0.00061422007
8.0536406e-05
-0.00072281015
9.6220977e-05
-0.00084875771
0.00011389351
-0.00099449934
0.00013365563
-0.0011629306
0.00015561364
-0.0013576121
0.00017986349
-0.00158294
0.00020666564
-0.001843823
-0.0021466516
0.00023504594
5.0415898e-06
-0.00017637461
4.8151803e-06
-0.00022582634
6.0013445e-06
-0.00026406222
6.562401e-06
-0.00031505325
7.2840325e-06
-0.00037305379
7.9631504e-06
-0.00044153843
8.604299e-06
-0.00052149692
9.1053962e-06
-0.00061472116
9.3495949e-06
-0.00072305434
9.1728288e-06
-0.00084858095
8.3655172e-06
-0.00099369203
6.6699474e-06
-0.001161235
3.7843072e-06
-0.0013547265
-6.5293054e-07
-0.0015785028
-6.8812404e-06
-0.0018375947
-0.0021382067
-1.5326126e-05
8.4218749e-07
-0.0001772168
-3.5735033e-06
-0.00022141065
-7.4049073e-06
-0.00026023082
-1.2701132e-05
-0.00030975702
-1.8986053e-05
-0.00036676887
-2.6642664e-05
-0.00043388181
-3.5895025e-05
-0.00051224456
-4.7079742e-05
-0.00060353645
-6.0582212e-05
-0.00070955187
-7.6859735e-05
-0.00083230342
-9.64483e-05
-0.00097410346
-0.00011997012
-0.0011377132
-0.00014812528
-0.0013265713
-0.00018161016
-0.0015450179
-0.00022108577
-0.0017981191
-0.0020898427
-0.00026944986
-3.3020901e-06
-1.1535618e-05
-2.0477985e-05
-3.1607269e-05
-4.4907261e-05
-6.0894253e-05
-8.0024254e-05
-0.00010286191
-0.00013005217
-0.00016233688
-0.00020056886
-0.00024572545
-0.00029890063
-0.00036121961
-0.0004335489
-0.00051513791
-2.1146396e-05
-0.00014480797
-4.1901594e-05
-0.00017983995
-6.2319335e-05
-0.00021628291
-8.652646e-05
-0.00025687468
-0.00011474768
-0.00030445663
-0.0001477974
-0.00036016795
-0.00018647321
-0.00042522826
-0.00023164613
-0.00050102332
-0.00028429163
-0.00058905732
-0.00034552837
-0.00069098044
-0.00041669104
-0.00080862648
-0.00049945438
-0.00094408686
-0.0005959736
-0.0010999257
-0.00070888576
-0.0012796744
-0.0008409305
-0.0014885247
-0.0017332537
-0.00099418793
-2.8776832e-05
-0.00011603114
-5.4185274e-05
-0.0001544315
-7.8238158e-05
-0.00019223002
-0.00010652803
-0.00022858481
-0.00013900709
-0.00027197757
-0.00017613273
-0.00032304232
-0.00021834611
-0.00038301488
-0.00026610881
-0.00045326062
-0.00031996436
-0.00053520176
-0.00038057447
-0.00063037033
-0.0004487538
-0.00074044715
-0.0005255241
-0.00086731655
-0.00061219411
-0.0010132557
-0.00071050224
-0.0011813663
-0.00082217218
-0.0013768548
-0.0016099081
-0.00094551774
5.8593236e-05
-3.918275e-05
-1.9410486e-05
0.000154967
-1.4807537e-05
-8.1566228e-05
0.00026113615
1.9009725e-05
-0.00012517887
0.00036187214
6.5316797e-05
-0.00016605279
0.00044945705
0.00012104233
-0.00020862724
0.00052325075
0.00018219207
-0.00025598577
0.00058417365
0.00024928076
-0.00031020366
0.00063459806
0.00032265379
-0.0003730782
0.00067820383
0.00040273761
-0.00044634338
0.00071973763
0.00049024285
-0.00053177665
0.00076454486
0.00058642822
-0.00063123544
0.00081792772
0.00069331221
-0.00074669507
0.00088452765
0.00081371455
-0.00088031448
0.00096802505
0.00095115366
-0.0010346511
0.0010711783
0.0011096716
-0.0012128248
0.001293074
-0.0014189321
0.0011970364
3.2402546e-05
-7.1585296e-05
9.3563716e-05
-7.5968707e-05
0.00017217399
-5.9600545e-05
0.00026345473
-2.5963949e-05
0.00035222475
3.2272317e-05
0.0004338557
0.00010056112
0.00051052501
0.00017261145
0.0005846737
0.00024850511
0.00065908267
0.00032832863
0.00073693248
0.00041239304
0.00082210451
0.00050125619
0.00091936971
0.00059604701
0.001034421
0.00069866323
0.0011738109
0.0008117638
0.0013449993
0.00093848324
0.0010813705
0.0015567027
1.2432701e-06
-7.2828566e-05
4.5723692e-06
-7.9297806e-05
2.5801888e-05
-8.0830064e-05
6.9910748e-05
-7.0072809e-05
0.00013159852
-2.9415456e-05
0.00019851868
3.3640953e-05
0.00027277402
9.835612e-05
0.00035746673
0.00016381239
0.00045159785
0.00023419751
0.00055556139
0.0003084295
0.00067083193
0.00038598564
0.00079986954
0.0004670094
0.00094623836
0.00055229441
0.0011144754
0.00064352674
0.0013094684
0.00074349028
0.00085528774
0.0015355511
-1.4842837e-05
-5.7985729e-05
-3.303091e-05
-6.1109733e-05
-5.1900276e-05
-6.1960698e-05
-6.3386367e-05
-5.8586718e-05
-4.4411898e-05
-4.8389925e-05
2.7243612e-06
-1.3495306e-05
6.9330483e-05
3.1749999e-05
0.00015194533
8.1197548e-05
0.00024810296
0.00013803988
0.00036123812
0.00019529434
0.00049175348
0.00025547028
0.00064066157
0.00031810131
0.00081040799
0.000382548
0.0010044662
0.00044946848
0.0012272818
0.00052067473
0.00059809722
0.0014844723
-1.7878784e-05
-4.0106945e-05
-4.1915176e-05
-3.7073341e-05
-6.8019491e-05
-3.5856383e-05
-9.3214975e-05
-3.3391233e-05
-0.00011345367
-2.8151228e-05
-0.0001082568
-1.8692182e-05
-7.6381849e-05
-1.2494908e-07
-1.9681422e-05
2.4497122e-05
6.6881855e-05
5.1476604e-05
0.000181986
8.0190193e-05
0.00031644616
0.00012101012
0.00047242486
0.00016212261
0.00065490816
0.00020006469
0.0008667194
0.00023765725
0.0011101678
0.0002772263
0.00032200963
0.0013862554
-4.0149262e-05
4.2317583e-08
-7.7248408e-05
2.5804443e-08
-0.00011310544
6.4683938e-10
-0.00014646169
-3.4982849e-08
-0.00017452874
-8.4176036e-08
-0.00019307053
-1.5039211e-07
-0.00019296818
-2.272977e-07
-0.00016813165
-3.3941043e-07
-0.0001162091
-4.4594609e-07
-3.5467655e-05
-5.5125178e-07
8.6252042e-05
-7.0957504e-07
0.00024932686
-9.5220962e-07
0.00045060854
-1.2169893e-06
0.00068985519
-1.5894025e-06
0.00096933365
-2.2521504e-06
-3.7197421e-06
0.001295063
-4.0056618e-05
4.0098935e-05
-7.7077178e-05
3.7046365e-05
-0.00011286096
3.5784427e-05
-0.00014614599
3.3250049e-05
-0.0001741395
2.7909335e-05
-0.00019259358
1.8303681e-05
-0.00019233817
-4.8270061e-07
-0.00016739518
-2.5282403e-05
-0.0001154153
-5.242583e-05
-3.4558897e-05
-8.140765e-05
8.7155034e-05
-0.00012242351
0.00024989946
-0.00016369663
0.00045055618
-0.00020187372
0.00068871211
-0.00023974533
0.00096599578
-0.00027953582
-0.00032367615
0.0012859522
-1.7825635e-05
5.792457e-05
-4.1789799e-05
6.1010529e-05
-6.7809042e-05
6.180367e-05
-9.2899024e-05
5.8340032e-05
-0.00011297491
4.7985219e-05
-0.00010759408
1.2922853e-05
-7.5685882e-05
-3.23909e-05
-1.9039582e-05
-8.1928703e-05
6.7313534e-05
-0.00013877895
0.00018198081
-0.00019607493
0.00031589319
-0.00025633588
0.00047129687
-0.00031910031
0.00065320992
-0.00038378677
0.00086464084
-0.00045117625
0.0011085622
-0.00052345715
-0.00060313592
0.0013880219
-1.4828599e-05
7.2753169e-05
-3.3000805e-05
7.9182735e-05
-5.1847977e-05
8.0650842e-05
-6.3287789e-05
6.9779845e-05
-4.4294222e-05
2.8991651e-05
2.6728384e-06
-3.4044207e-05
6.895194e-05
-9.8670001e-05
0.0001511183
-0.00016409506
0.00024677292
-0.00023443356
0.00035930175
-0.00030860376
0.00048904575
-0.00038607988
0.0006369341
-0.00046698867
0.00080524409
-0.00055209676
0.00099711388
-0.00064304604
0.0012162576
-0.00074260091
-0.00085289337
0.0014660151
1.2212439e-06
7.1531925e-05
4.5113304e-06
7.5892648e-05
2.5685821e-05
5.9476351e-05
6.9689128e-05
2.5776538e-05
0.00013116174
-3.2480959e-05
0.0001977772
-0.00010065967
0.00027173246
-0.00017262527
0.00035607125
-0.00024843385
0.00044980042
-0.00032816273
0.00055330503
-0.00041210838
0.0006680266
-0.00050080145
0.00079635958
-0.00059532165
0.00094174908
-0.00069748626
0.0011085242
-0.00080982112
0.0013012574
-0.00093533417
-0.001076348
0.0015247121
3.2344274e-05
3.9187651e-05
9.3407879e-05
1.4829043e-05
0.00017187693
-1.8992699e-05
0.00026294943
-6.5295962e-05
0.00035144238
-0.0001209739
0.00043285836
-0.00018207565
0.00050934301
-0.00024910992
0.00058332911
-0.00032241994
0.00065759241
-0.00040242603
0.00073530686
-0.00048982283
0.00082034282
-0.0005858374
0.00091746073
-0.00069243957
0.0010323655
-0.00081239105
0.0011717161
-0.00094917173
0.0013431602
-0.0011067782
-0.0012874927
0.0015543049
5.8487801e-05
-1.9300149e-05
0.00015476455
-8.1447709e-05
0.00026083677
-0.00012506491
0.00036147362
-0.00016593281
0.0004489973
-0.00020849759
0.00052276578
-0.00025584413
0.00058370443
-0.00031004857
0.00063418872
-0.00037290423
0.00067789638
-0.00044613369
0.00071956503
-0.00053149148
0.00076452608
-0.00063079846
0.00081807071
-0.0007459842
0.0008848479
-0.00087916823
0.00096860317
-0.001032927
0.0010722799
-0.0012104549
-0.0014170265
0.0012018137
2.3494016e-06
-2.2498017e-06
3.3055503e-06
3.5528393e-06
2.8972452e-06
7.6305763e-07
-3.6278827e-06
-1.1321892e-05
-2.3719289e-05
-4.2637306e-05
-7.0358017e-05
-0.0001096851
-0.00016400933
-0.00023733023
-0.00033468246
-0.00046424056
2.3485578e-06
-2.2462271e-06
3.3010455e-06
3.5444697e-06
2.8831581e-06
7.4090349e-07
-3.6606289e-06
-1.1366782e-05
-2.3774963e-05
-4.2694637e-05
-7.0392838e-05
-0.00010965114
-0.00016385288
-0.00023710844
-0.00033498834
-0.00046575291
3.2382058e-06
-2.6295262e-06
6.3735692e-06
1.1407093e-05
1.8251089e-05
2.745443e-05
3.9791754e-05
5.6177669e-05
7.7751183e-05
0.00010594748
0.00014255743
0.00018980348
0.00025042377
0.00032780796
0.00042604991
0.00054114769
3.2384472e-06
-2.6318795e-06
6.3756827e-06
1.1410867e-05
1.8256861e-05
2.7463011e-05
3.9804026e-05
5.6194596e-05
7.7774667e-05
0.00010598213
0.00014261426
0.00018990588
0.00025061592
0.0003281081
0.00042669034
0.00054837835
0.0013391053
-0.0033952619
0.0020561566
0.008425569
-0.0087484111
0.00032284217
0.001244589
-0.003213359
0.00196877
0.008425569
-0.0021951066
0.00013607345
0.0020590331
-0.0081700955
0.005071664
0.0030984315
-0.0011059136
0.0043869562
-0.0032810426
0.0077663258
0.0029347349
-0.010701061
0.0080805829
0.002007927
-0.01008851
0.0012669888
-0.0017312294
-0.0019454414
0.0014796885
0.0035024863
0.0064401361
-0.0099426224
-0.0036351751
-0.003816617
0.0074517921
-0.0075235714
0.0034753495
0.0040482219
-0.0016722322
0.0040143176
-0.0023420854
0.0035367616
-6.5121987e-05
-0.0034716396
0.007331378
-0.0076259715
0.00029459351
0.00061311086
0.0016177911
-0.002230902
0.0013528134
-0.001732791
0.00037997765
0.0062617485
-0.0023227439
-0.0039390045
-0.00092373097
-0.0012713756
-0.0076950047
0.0040598295
-0.0094786991
0.0093901892
8.8509846e-05
0.00072697854
0.0085236481
-0.0092506267
7.9047583e-05
-0.0056837832
0.0056047356
0.0044628598
0.001333067
-0.0057959267
-0.0039956379
-0.0059348193
0.0099304572
0.0063758439
-0.0021612041
-0.0042146398
0.0013382924
0.0063826801
-0.0077209726
-0.0022436948
0.0055510665
-0.0033073717
0.0066723271
-0.0022094673
0.0020208494
-0.0014384087
-0.00058244074
-0.00021682506
0.0083631098
-0.0081462847
0.006256761
0.0001178083
-0.0063745693
0.001085618
-0.006147279
0.005061661
0.0087131448
-0.0073779204
-0.0013352244
0.0076742883
-0.0081046652
0.00043037688
-0.0047744246
0.0058600426
0.0055875761
-0.0032284535
-0.0023591225
-0.0086734326
0.0017376273
0.0069358052
0.0030427868
-0.0043993046
0.0013565178
0.0099909064
-0.0043182436
-0.0056726628
0.0077663258
-0.0022707075
0.0055959511
-0.0033252435
0.0080805829
-0.00086321417
0.0037148095
-0.0028515953
-0.0018905947
0.0065293864
-0.0046387917
-0.0098046859
0.0041938375
0.0056108484
-0.0077663258
0.01167001
-0.0039036838
-0.0080805829
0.011773462
-0.0036928795
0.003124784
-0.00036297729
-0.0027618067
-0.0038827118
0.0017361063
0.0021466055
0.0014410802
-0.0026917304
0.0012506502
0.0009872473
0.0011388705
-0.0021261178
-0.0029923
0.0056583494
-0.0026660494
0.00051082315
0.0054647829
-0.005975606
0.00098376154
-0.0019009167
0.00091715518
-0.005485577
0.0034830172
0.0020025597
-0.010521301
0.0011474522
0.0093738487
0.0083930364
-0.0030598618
-0.0053331746
0.0077298005
0.00066323587
0.0055647774
0.0040715055
-0.0096362829
0.0052119462
0.004338499
-0.0095504452
-0.0024873016
0.0050449821
-0.0025576805
0.0008861148
-0.0040929407
0.0032068259
-0.0066615204
0.0068877683
-0.00022624787
0.0043528658
-0.007907371
0.0035545053
0.0044801714
0.0017477245
-0.0062278959
-0.00099388354
0.006169369
-0.0051754855
-0.0090154976
0.0071249029
-0.0024798474
0.0069316483
-0.004451801
0.0016700923
0.0018666693
-0.0048393668
0.0044272844
0.00041208245
0.0048231951
0.006222905
-0.0110461
0.0087160118
-0.0080555667
-0.000660445
0.0005213009
-0.0027032147
0.0047844939
-0.0020812793
0.0068579614
-0.0033754446
-0.0034825168
0.0097343569
-0.0087732506
-0.00096110625
0.0077452582
-0.0068863102
-0.00085894796
0.0026853284
-0.0039231965
0.0012378681
-0.0023524524
0.0010468022
0.0013056502
0.0014171961
-0.0036608909
-0.011869
0.0084085137
0.0034604863
0.0022908143
0.0050405637
0.0024034659
-0.0090638481
0.0066603822
-0.0045333353
0.0076040844
-0.003070749
-0.0010164717
-0.0060006321
0.0070171038
0.0029208938
-0.002312695
-0.0006081988
0.00049348374
0.008222528
0.0053119872
9.8990525e-05
-0.0054109777
-0.0076612595
0.0031261938
0.0045350657
0.00052813827
0.0036401898
-0.0041683281
0.0032100708
0.0023775053
0.0043749824
0.0024689486
-0.006843931
0.004572756
-0.001730792
-0.002841964
-0.0046714303
-0.005326217
0.0030684025
-0.0018238136
-0.00092665498
-0.0014431986
0.0023698536
-0.0029128031
0.0056476973
-0.0027348942
-0.0030341963
0.0078573914
-0.0056815214
0.0075104064
-0.0018288851
-0.0058961414
-0.0017651181
-3.7610033e-05
0.0077118984
0.0081034103
-0.0075355152
-0.00056789514
-0.0050984729
-0.0024250984
-0.011255415
0.0074111757
0.0038442392
-0.011814291
0.0085817756
0.0032325156
0.0057383153
-0.0026037955
-0.0031345198
0.0014347572
-0.0037054647
0.0022046865
-0.0051969865
3.803094e-05
0.0042229983
-0.0042610293
0.0031568424
-0.0041507259
-0.0016014529
0.0046442396
0.0019530076
0.0043087409
0.0065251063
0.0032092506
0.0038528091
-0.0038147782
0.0029547274
0.007119735
-0.010074462
0.0098528689
-0.0056490964
-0.0042037725
-0.00220326
0.0047916146
-0.0025883546
-5.6021948e-05
0.0014971022
0.002060747
-0.0010734997
0.00097851203
0.0010036977
-0.0019822097
0.010869319
-0.011086144
0.0010363774
0.00031898898
-0.0013553663
0.001666911
-0.00028065555
-0.0075018464
0.0080928326
-0.00059098622
-0.0021291875
0.0013221995
0.00080698798
0.0036963812
-0.0036761303
-2.0250895e-05
-0.0055982634
0.0051254227
0.00047284063
0.0019376243
-0.0009538628
-0.00047940298
0.0048699775
-0.0043905745
-0.0046404317
0.0085011984
-0.0038607668
0.0034809338
0.0065099726
0.007721417
-0.0033685513
0.0034457539
0.0022925614
-0.0035352335
0.0026720194
0.0063694945
-0.0073859662
-0.0031867712
0.0022601162
0.0055557297
0.0025476806
0.0052819614
-0.010819167
0.0055372056
0.0030316234
0.0015775676
-0.0014414942
-0.0031262959
0.0044654012
0.0077985543
-0.0077985543
-0.0022065218
-0.0013275564
0.0066395436
0.001022223
-0.0037254377
-0.00038978141
0.0062745081
-0.0058847267
-0.0040719676
0.009636745
-0.0042531775
0.0094651237
0.0082635059
-0.0047792968
-0.0034842092
0.004378114
0.0030290575
-0.0052323175
0.0057726411