/*--------------------------------*- C++ -*----------------------------------*\
| =========                 |                                                 |
| \\      /  F ield         | foam-extend: Open Source CFD                    |
|  \\    /   O peration     | Version:     4.1                                |
|   \\  /    A nd           | Web:         http://www.foam-extend.org         |
|    \\/     M anipulation  |                                                 |
\*---------------------------------------------------------------------------*/
FoamFile
{
    version     2.0;
    format      ascii;
    class       volVectorField;
    location    "0.3";
    object      U;
}
// * * * * * * * * * * * * * * * * * * * * * * * * * * * * * * * * * * * * * //

dimensions      [0 1 -1 0 0 0 0];

internalField   nonuniform List<vector> 
4242
(
(1.0837639 1.1120497 1.0574107e-18)
(1.1914127 0.97875703 3.6039954e-21)
(1.1582281 0.97770343 -6.6743708e-19)
(1.1614484 0.9466214 5.5243887e-19)
(1.1539167 0.92211274 7.3123122e-21)
(1.1477579 0.89243522 3.2474787e-21)
(1.1408099 0.85940774 0)
(1.1331709 0.8228249 1.8919599e-19)
(1.124857 0.78262723 -3.0148578e-19)
(1.1159431 0.73886138 1.1582617e-19)
(1.1066105 0.69174948 -7.3619524e-20)
(1.0971396 0.64172282 6.0162992e-20)
(1.0879696 0.58939962 5.8645199e-21)
(1.0801105 0.53528035 -7.7991225e-21)
(1.0752741 0.48003655 -1.5112931e-20)
(1.0726158 0.42760023 0)
(1.2538151 1.0298935 0)
(1.3769941 0.85250409 -7.9261279e-21)
(1.3344887 0.86750462 7.8220821e-19)
(1.3328282 0.83894107 -6.4426296e-19)
(1.3201467 0.81857667 -1.1563507e-20)
(1.3089408 0.79260578 3.8128697e-19)
(1.2964576 0.76415941 -1.795737e-20)
(1.2830736 0.7326272 -4.6477163e-19)
(1.2687982 0.6979932 3.6305416e-20)
(1.2536854 0.66030921 1.3678908e-19)
(1.2378539 0.61976267 0)
(1.2214922 0.57671095 -9.9450038e-21)
(1.2049079 0.53168592 -1.0070055e-20)
(1.1887995 0.4851304 -5.4448974e-20)
(1.17427 0.43741012 7.0268822e-20)
(1.1602617 0.39088653 8.7222304e-21)
(1.4249449 0.94260608 -2.1627442e-20)
(1.5721856 0.7013021 -2.4730923e-18)
(1.5179752 0.7449553 1.0075788e-18)
(1.5132889 0.71623539 -6.9543967e-21)
(1.4953916 0.70095361 -6.122822e-19)
(1.4787121 0.67933077 4.975864e-19)
(1.4599442 0.65602471 -6.7761147e-21)
(1.4396792 0.62988385 1.0455808e-20)
(1.417897 0.60098215 -4.5726157e-21)
(1.3947085 0.56933581 -1.1980323e-20)
(1.3703148 0.53509156 1.1982609e-19)
(1.3450204 0.4985483 -8.6278614e-20)
(1.3192436 0.46018402 -1.3169374e-19)
(1.2935645 0.42056836 1.1007977e-19)
(1.2685927 0.38050538 -1.3201883e-20)
(1.2447922 0.34091481 -3.534693e-20)
(1.5788704 0.82121079 -4.0134577e-21)
(1.745157 0.50299725 -3.2144864e-21)
(1.6811834 0.58343878 -6.0945595e-19)
(1.6755812 0.5503385 5.1343961e-19)
(1.6532617 0.54192302 -6.6076979e-21)
(1.6320394 0.52565623 3.1142467e-19)
(1.6078939 0.50885849 -2.3305939e-19)
(1.5815777 0.48966483 -3.6666029e-19)
(1.5530008 0.46833369 2.1293903e-20)
(1.5223034 0.44481979 4.4165025e-19)
(1.4897471 0.41921803 -1.665472e-19)
(1.4557505 0.39173662 0)
(1.4208908 0.36272064 9.2276469e-21)
(1.3858192 0.33270675 -6.7530018e-20)
(1.3508283 0.30288522 3.2221421e-20)
(1.3159446 0.27313188 -6.2051554e-20)
(1.6816118 0.66441764 4.0134578e-21)
(1.8597288 0.26049949 -8.687895e-19)
(1.7900592 0.38527729 7.2075494e-19)
(1.7851063 0.34343222 -4.1592309e-21)
(1.7599221 0.34436058 1.0296626e-20)
(1.7361168 0.33393839 -2.9053009e-21)
(1.7087779 0.3247642 -2.8627487e-19)
(1.6788215 0.31379474 6.291956e-21)
(1.6460806 0.30161272 1.6204957e-19)
(1.6106963 0.28807217 -1.2048949e-19)
(1.5729401 0.2732073 9.7260819e-20)
(1.5332698 0.25710329 0)
(1.4923315 0.2399146 5.2393188e-20)
(1.4508663 0.22187999 -3.6546213e-20)
(1.4093167 0.20349278 1.0844251e-20)
(1.36815 0.18244233 0)
(1.7240311 0.47842111 -5.817006e-19)
(1.9009604 -0.00067149894 2.4559045e-19)
(1.8353212 0.16407042 3.8194175e-19)
(1.8305833 0.11391217 -3.065157e-19)
(1.8049066 0.12531264 6.5556086e-22)
(1.7804727 0.12088924 1.0146491e-19)
(1.7523169 0.11992982 7.8334428e-20)
(1.7213844 0.11781119 -3.3214029e-21)
(1.6874731 0.11554253 -2.9701902e-21)
(1.6507041 0.11284743 -1.0049734e-19)
(1.6113244 0.10970905 1.0101144e-19)
(1.5697729 0.10608291 -3.6451147e-21)
(1.5266728 0.10194073 -9.3256183e-21)
(1.4827285 0.097244172 -1.989622e-20)
(1.4384817 0.092690548 -1.2664807e-23)
(1.3949111 0.083966615 8.0200579e-21)
(1.7014712 0.28001992 -2.9323343e-19)
(1.8666765 -0.2543503 -2.3081802e-19)
(1.8163423 -0.065610491 5.8301848e-19)
(1.8101128 -0.11630161 -3.1064327e-19)
(1.7870023 -0.097438707 1.2972719e-19)
(1.7635967 -0.095114263 1.1841444e-23)
(1.7368652 -0.088180158 1.5440373e-19)
(1.7074076 -0.081489662 -6.8158103e-20)
(1.6751045 -0.073982818 -8.540893e-21)
(1.640044 -0.065961466 3.0611238e-20)
(1.6024407 -0.057498594 -4.7307945e-20)
(1.5626824 -0.048755334 3.5805992e-20)
(1.5213246 -0.039921759 -9.6295186e-21)
(1.4790506 -0.031353925 -3.8257918e-20)
(1.4363144 -0.02211381 1.4147828e-20)
(1.3939182 -0.018900402 1.6941165e-20)
(1.6109566 0.087316354 -6.6294644e-21)
(1.75964 -0.47929229 9.1637635e-19)
(1.7335563 -0.28664643 -7.5440986e-19)
(1.7259947 -0.32945215 5.8445097e-19)
(1.7078945 -0.30722686 -4.8848544e-19)
(1.6874752 -0.29778209 0)
(1.6642957 -0.28375129 2.9210792e-19)
(1.6386627 -0.26886045 -2.3163803e-19)
(1.6105883 -0.25234305 -4.8871713e-21)
(1.5801402 -0.23445354 0)
(1.5474917 -0.2153348 -1.8062423e-20)
(1.5129533 -0.19525497 8.637279e-21)
(1.4769881 -0.17454735 -5.5228854e-20)
(1.440173 -0.15389665 9.9732284e-20)
(1.4029604 -0.13219716 -6.6751417e-20)
(1.3657751 -0.11644646 -1.6919264e-20)
(1.4520757 -0.079751686 4.3415046e-21)
(1.5859372 -0.65452088 -3.4430685e-21)
(1.5902541 -0.48051479 0)
(1.5842354 -0.50876744 1.236347e-20)
(1.5729429 -0.48692705 6.2897622e-21)
(1.55795 -0.47109127 3.458516e-19)
(1.5405121 -0.45124327 -2.9173599e-19)
(1.5210332 -0.42951628 0)
(1.4996913 -0.40553349 1.2055853e-21)
(1.4765659 -0.37949824 -1.3970941e-20)
(1.4517716 -0.35161228 1.1764712e-20)
(1.4255071 -0.32221352 6.6443846e-21)
(1.3981049 -0.29170369 1.241243e-20)
(1.3699565 -0.26093403 7.2030774e-20)
(1.3415606 -0.22886125 -8.1308163e-20)
(1.31291 -0.20178531 4.2281085e-20)
(1.2246839 -0.19787625 0)
(1.3518175 -0.75640873 1.4355587e-18)
(1.3905464 -0.62654126 -2.3304637e-18)
(1.392742 -0.6377839 9.3975315e-19)
(1.3902462 -0.61897455 -6.2860702e-21)
(1.3836802 -0.59910456 -1.8082695e-20)
(1.3745683 -0.57548401 4.5560984e-19)
(1.3636905 -0.54927073 -3.6576779e-19)
(1.351474 -0.52041121 -2.394605e-19)
(1.338068 -0.48910039 2.164405e-19)
(1.3235263 -0.4555666 0)
(1.3078978 -0.42014922 -1.2279961e-19)
(1.2913172 -0.3832179 6.7747242e-20)
(1.2738972 -0.34554387 0)
(1.2560112 -0.30614383 0)
(1.2373631 -0.26894423 0)
(0.94551223 -0.24901563 2.8560507e-18)
(1.0832299 -0.78122718 -1.1574296e-18)
(1.1548236 -0.70786291 0)
(1.1745744 -0.70642307 -4.9424336e-21)
(1.1844132 -0.6921741 -5.6151522e-19)
(1.1893972 -0.67214679 4.8159181e-19)
(1.1909063 -0.64781947 3.4067489e-19)
(1.1900913 -0.6203713 -7.6273864e-21)
(1.1878028 -0.59005207 -2.3585212e-19)
(1.184461 -0.5571231 1.1483892e-20)
(1.1802187 -0.52184669 0)
(1.1750849 -0.48453666 -1.699993e-19)
(1.1690412 -0.44552058 3.2046425e-20)
(1.1619208 -0.40550143 9.6756407e-20)
(1.1536707 -0.3641301 0)
(1.1474111 -0.31687083 8.9242718e-21)
(0.34194271 0.033970752 1.007205e-20)
(0.54527706 -0.46024385 1.6824268e-18)
(0.72232966 -0.55573999 -6.8315995e-19)
(0.81794995 -0.5998134 -5.3259552e-19)
(0.87110313 -0.61807315 4.3634409e-19)
(0.90746509 -0.62090071 -3.4804757e-19)
(0.93582027 -0.61358382 2.869397e-19)
(0.95915082 -0.59943676 2.0294151e-19)
(0.97899086 -0.58005094 -1.8080291e-19)
(0.99616246 -0.55625894 0)
(1.011022 -0.52859402 0)
(1.0236845 -0.49750393 0)
(1.0342146 -0.4633948 1.0419305e-20)
(1.0425898 -0.4269504 0)
(1.0483632 -0.38933995 5.104636e-20)
(1.0558905 -0.34365093 -8.6627752e-20)
(0.67721439 -0.97948254 2.8743942e-19)
(0.8666044 -0.95154677 2.4254022e-22)
(0.88373067 -0.99987984 -1.6459662e-19)
(0.8834243 -0.97167523 1.3605663e-19)
(0.88261594 -0.94635884 1.8016068e-22)
(0.88198219 -0.9166857 3.0368892e-21)
(0.88176944 -0.88310377 0)
(0.88218452 -0.84536208 2.8358436e-20)
(0.88337319 -0.8032842 -3.4400666e-20)
(0.88550683 -0.75692737 1.3705597e-20)
(0.88872393 -0.706599 -2.5597152e-21)
(0.89309853 -0.65285935 2.0907315e-21)
(0.89876715 -0.59643631 -6.665487e-21)
(0.90609427 -0.53805724 2.8287693e-21)
(0.91465588 -0.47908147 2.8349509e-21)
(0.92082884 -0.42428583 0)
(0.54384927 -0.94504464 0)
(0.62699085 -0.88661771 7.2255766e-22)
(0.61996377 -0.87683096 -9.312317e-20)
(0.62732231 -0.85649708 7.6591083e-20)
(0.63497663 -0.83435091 1.0072937e-21)
(0.64447907 -0.80920767 -6.8999987e-20)
(0.65584705 -0.78085109 -5.1211398e-21)
(0.66916158 -0.74905384 1.0457474e-19)
(0.6844653 -0.71366519 -2.4252048e-21)
(0.70174289 -0.67464383 -3.834322e-20)
(0.72089283 -0.63210141 0)
(0.74171589 -0.58633607 5.1163491e-21)
(0.76398624 -0.53780358 2.9004523e-21)
(0.78755136 -0.48702132 3.2543885e-20)
(0.81195654 -0.43471373 -4.0731985e-20)
(0.83513479 -0.38286627 -6.7592441e-21)
(0.35639347 -0.81410644 -3.3485126e-21)
(0.41245261 -0.77823035 7.9312247e-19)
(0.41495784 -0.76426942 -3.291682e-19)
(0.42575844 -0.74545963 2.7681147e-21)
(0.43836819 -0.72480384 2.3072951e-19)
(0.45344629 -0.70175902 -1.8633953e-19)
(0.47115663 -0.67603996 3.0894973e-21)
(0.49164707 -0.64741542 -5.0368272e-21)
(0.51501474 -0.61573633 6.9650739e-22)
(0.54127029 -0.58096662 6.5242408e-21)
(0.5702976 -0.54321886 -6.8178117e-20)
(0.60185006 -0.50277339 4.9591759e-20)
(0.63565509 -0.46004953 8.8001946e-20)
(0.67152173 -0.4155756 -7.4146914e-20)
(0.70880973 -0.3702152 9.2225594e-21)
(0.74474473 -0.32580626 2.9917879e-20)
(0.1975083 -0.6322576 1.6945993e-21)
(0.23185176 -0.60934613 1.397559e-21)
(0.24060374 -0.59469041 2.6377228e-19)
(0.25457287 -0.57822906 -2.2149132e-19)
(0.27152276 -0.56055671 3.10045e-21)
(0.29170877 -0.54133281 -1.495406e-19)
(0.31532701 -0.52029497 1.1196862e-19)
(0.34254343 -0.49725161 1.9332362e-19)
(0.37344932 -0.47208752 -3.5235839e-21)
(0.40800795 -0.4447781 -2.5240841e-19)
(0.44600404 -0.41540708 9.8045085e-20)
(0.4870538 -0.38416866 0)
(0.53073317 -0.35134097 -6.1741659e-21)
(0.57661407 -0.31729786 5.0163056e-20)
(0.62349848 -0.28272626 -2.3893093e-20)
(0.66778122 -0.24888771 5.2373289e-20)
(0.0869927 -0.4248135 -1.7044148e-21)
(0.10597793 -0.40315359 3.967514e-19)
(0.11860288 -0.38665882 -3.2750746e-19)
(0.13515172 -0.37127789 1.9009478e-21)
(0.15535319 -0.35632537 -4.8647013e-21)
(0.17938741 -0.34127494 1.4240491e-21)
(0.20746904 -0.32578534 1.5048763e-19)
(0.23978827 -0.30963932 1.5516328e-21)
(0.27645128 -0.29270609 -8.8671469e-20)
(0.31741748 -0.27492325 7.2463274e-20)
(0.36245324 -0.25628774 -5.8418013e-20)
(0.41117012 -0.23683902 0)
(0.46317483 -0.21661893 -3.6613131e-20)
(0.51796972 -0.19565369 2.5654132e-20)
(0.5736162 -0.17416401 -8.3472938e-21)
(0.62442699 -0.15315324 0)
(1.4258944 -0.94315377 0)
(1.5732349 -0.70173817 1.2266812e-18)
(1.51903 -0.7453939 -1.9892378e-18)
(1.5143938 -0.71672572 8.1483947e-19)
(1.4965971 -0.70148938 5.524266e-21)
(1.4800248 -0.67992853 1.7694025e-21)
(1.4613477 -0.65667818 3.6875339e-19)
(1.4411146 -0.63057087 -3.0669618e-19)
(1.4192558 -0.60165836 -2.1381077e-19)
(1.3958352 -0.5699361 1.5570564e-19)
(1.3710341 -0.53553717 0)
(1.3451963 -0.49877165 -7.3646056e-20)
(1.3188678 -0.46017478 5.5027616e-20)
(1.292857 -0.42037756 0)
(1.2680589 -0.38006118 0)
(1.2448431 -0.34011091 0)
(0.031732279 -0.25239122 2.5417479e-19)
(0.044787205 -0.2209086 -1.0454905e-19)
(0.062700607 -0.19892908 -1.7115096e-19)
(0.084016387 -0.1810149 1.4012715e-19)
(0.10854398 -0.16583397 1.418477e-21)
(0.13641673 -0.15251314 -4.8154279e-20)
(0.1678169 -0.14047253 -3.9755989e-20)
(0.2029036 -0.12931404 4.7782267e-22)
(0.24176755 -0.11874626 5.2195437e-22)
(0.2843875 -0.10854088 5.7018688e-20)
(0.33058919 -0.098509247 -5.9651878e-20)
(0.38002485 -0.088490037 1.0308132e-21)
(0.4321831 -0.078330131 5.2501984e-21)
(0.48636543 -0.067838293 1.3420485e-20)
(0.54147508 -0.056787849 9.2350021e-24)
(0.59555752 -0.045354245 -6.5023515e-21)
(0.032300346 0.25338793 1.2621398e-19)
(0.04527827 0.22171978 1.0419473e-19)
(0.063365807 0.2000016 -2.569901e-19)
(0.084879312 0.18243625 1.4020159e-19)
(0.10960867 0.16757996 -5.9157979e-20)
(0.13767729 0.15451702 -5.6827331e-24)
(0.16925792 0.14264696 -7.7211086e-20)
(0.20449861 0.13156023 3.2895656e-20)
(0.24347727 0.12095978 3.4811013e-21)
(0.28615926 0.110618 -1.8289875e-20)
(0.33236035 0.10035576 2.6696814e-20)
(0.38173158 0.090032844 -2.2440415e-20)
(0.43376426 0.07953059 5.2443495e-21)
(0.4877248 0.068712553 2.5956795e-20)
(0.54236143 0.057466193 -9.8790387e-21)
(0.59546127 0.04622076 -1.3175373e-20)
(0.087696982 0.42766906 2.665578e-21)
(0.10658002 0.40618115 -3.991797e-19)
(0.11934691 0.38986349 3.2718955e-19)
(0.13600326 0.37460993 -2.658954e-19)
(0.15629058 0.35969519 2.2152872e-19)
(0.18038049 0.34458436 0)
(0.20848044 0.32893499 -1.4569056e-19)
(0.24077322 0.31253079 1.1545473e-19)
(0.27735638 0.29524238 2.3617692e-21)
(0.31817869 0.27700862 0)
(0.3629963 0.257827 1.0246512e-20)
(0.41141866 0.23773578 -5.0883802e-21)
(0.46305487 0.21676681 3.5787248e-20)
(0.51735416 0.19489959 -6.7560388e-20)
(0.57218771 0.17223143 4.5849962e-20)
(0.62180214 0.14967163 1.2623295e-20)
(0.1981678 0.63521932 -1.6899233e-21)
(0.23258196 0.61238935 1.3937764e-21)
(0.24134745 0.59783667 0)
(0.25523892 0.58142686 -4.6507816e-21)
(0.27205801 0.56372081 -2.2835946e-21)
(0.29204953 0.54437546 -1.4885926e-19)
(0.31540302 0.52312916 1.2583396e-19)
(0.34227778 0.49979274 0)
(0.3727578 0.47425481 -1.2343884e-21)
(0.40679438 0.44649737 6.5134819e-21)
(0.44415319 0.41661579 -6.5771066e-21)
(0.48445492 0.38481445 -2.9578111e-21)
(0.52740098 0.35134079 -7.6917244e-21)
(0.57283116 0.31642984 -4.6385607e-20)
(0.61936668 0.28062781 5.329542e-20)
(0.66146127 0.24584607 -2.9106596e-20)
(0.35654131 0.81578938 0)
(0.41292376 0.77983101 -3.9718089e-19)
(0.41532931 0.76595467 6.5696119e-19)
(0.42597393 0.74716325 -2.6929815e-19)
(0.43836126 0.72645031 2.2731988e-21)
(0.45313707 0.70327176 5.7425086e-21)
(0.47046131 0.67734231 -1.6108482e-19)
(0.49048122 0.64843402 1.2890055e-19)
(0.51329949 0.61640539 9.7008537e-20)
(0.53893612 0.58123783 -8.8290256e-20)
(0.56728374 0.5430804 0)
(0.59814763 0.50225834 6.110554e-20)
(0.63152615 0.45917421 -3.4341777e-20)
(0.66782951 0.41425641 0)
(0.70635773 0.36876115 0)
(0.74082151 0.32682375 0)
(0.54337815 0.94539459 -2.1021627e-19)
(0.62697018 0.88676883 9.0292519e-20)
(0.61980062 0.87706154 0)
(0.62704246 0.85669753 -1.9533808e-22)
(0.63451617 0.83446018 7.5867698e-20)
(0.64377332 0.80916229 -6.4008674e-20)
(0.65483878 0.78059115 -6.0872186e-20)
(0.66781024 0.74852973 -4.4862494e-21)
(0.68276321 0.71284563 4.8624606e-20)
(0.69973602 0.67352962 -3.9042219e-21)
(0.71870693 0.6307459 0)
(0.73961496 0.58485516 5.6138945e-20)
(0.76250178 0.53635535 -7.7494294e-21)
(0.78753402 0.48588203 -3.5759792e-20)
(0.81413775 0.4347084 0)
(0.84012918 0.38503021 -3.1510926e-21)
(0.67594344 0.97877502 1.0584478e-20)
(0.86604352 0.95082934 4.4692339e-19)
(0.88317069 0.99947297 -1.7802557e-19)
(0.88279481 0.97119919 -1.2354908e-19)
(0.88187707 0.94580994 1.0205806e-19)
(0.88109198 0.91602226 -6.458734e-20)
(0.88069789 0.8822935 4.8542259e-20)
(0.88092571 0.84439309 2.8717401e-20)
(0.88196124 0.80217465 -2.8139244e-20)
(0.88403455 0.75573848 0)
(0.88736149 0.70545272 0)
(0.89211138 0.6519497 0)
(0.8985289 0.59602413 3.389097e-21)
(0.90702299 0.5384725 0)
(0.91693725 0.48065499 -8.2908401e-21)
(0.92365867 0.42678189 1.8448627e-20)
(0.34106552 -0.034629593 1.058218e-18)
(0.5446632 0.45949254 3.8580774e-21)
(0.72172806 0.55522055 -6.6735067e-19)
(0.81741869 0.59935439 5.5095771e-19)
(0.87062165 0.61765936 8.002207e-21)
(0.90702181 0.62052646 3.2104143e-21)
(0.93541272 0.6132455 0)
(0.95876966 0.5991218 2.1046251e-19)
(0.97860825 0.57973175 -3.4147927e-19)
(0.99572494 0.55588904 1.3399401e-19)
(1.0104488 0.52811058 -9.4310081e-20)
(1.022875 0.4968423 7.7100591e-20)
(1.033076 0.46249935 5.2647207e-21)
(1.040996 0.42593361 -1.1269128e-20)
(1.0466794 0.38746128 -2.671794e-20)
(1.0562355 0.33686465 0)
(0.94465351 0.24848297 0)
(1.0826977 0.78052333 -8.8727476e-21)
(1.15435 0.70751198 8.9937106e-19)
(1.1741613 0.70603355 -7.389495e-19)
(1.184034 0.69181257 -1.3004001e-20)
(1.1890657 0.67180911 4.4792819e-19)
(1.1906301 0.64750467 -1.6938042e-20)
(1.18986 0.6200646 -5.5644762e-19)
(1.1875797 0.58972215 4.0146488e-20)
(1.1841805 0.55671976 1.6782935e-19)
(1.1797926 0.52130504 0)
(1.174427 0.48378734 -1.2564321e-20)
(1.1681215 0.44448562 -1.3842798e-20)
(1.1607797 0.40416712 -7.5656834e-20)
(1.152745 0.36177774 9.8447011e-20)
(1.144087 0.31915914 1.1995801e-20)
(1.2240693 0.19761571 -2.5638712e-20)
(1.3514778 0.75594199 -2.8918723e-18)
(1.3902588 0.62638677 1.1781696e-18)
(1.3924953 0.63753532 -7.8965398e-21)
(1.3900411 0.61876527 -7.2334153e-19)
(1.3835426 0.59891027 5.8804449e-19)
(1.3745027 0.57530725 -7.7657965e-21)
(1.3636775 0.54909555 1.2035706e-20)
(1.3514623 0.52020928 -5.950109e-21)
(1.3379742 0.48883091 -1.3942223e-20)
(1.3232479 0.4551849 1.4723646e-19)
(1.3073478 0.4196214 -1.0569528e-19)
(1.2904819 0.38253276 -1.6501255e-19)
(1.2728473 0.34482224 1.3777311e-19)
(1.2550478 0.30509576 -1.7724884e-20)
(1.2357607 0.27101118 -4.7671799e-20)
(1.4517225 0.079663553 -4.3404804e-21)
(1.5858189 0.654262 -3.4421616e-21)
(1.5901703 0.48050075 -6.7213121e-19)
(1.5841754 0.50864724 5.6587147e-19)
(1.572938 0.48685391 -7.104188e-21)
(1.5580247 0.47102269 3.4568187e-19)
(1.5406641 0.45118636 -2.5846469e-19)
(1.5212312 0.42945445 -4.0995108e-19)
(1.4998675 0.40544326 2.1893637e-20)
(1.4766179 0.37934807 4.9680495e-19)
(1.4515832 0.35137128 -1.8765119e-19)
(1.4249936 0.32186191 0)
(1.397275 0.29124405 1.0988473e-20)
(1.3689285 0.26045583 -7.8800538e-20)
(1.3406155 0.22798003 3.7750818e-20)
(1.3119607 0.20256942 -7.3339705e-20)
(1.610854 -0.08733377 4.3247021e-21)
(1.7597353 0.47916904 -9.093515e-19)
(1.733672 0.28669946 7.5428594e-19)
(1.7261319 0.32941034 -4.4626062e-21)
(1.7081025 0.3072288 1.0900398e-20)
(1.68777 0.29777858 -2.9948245e-21)
(1.664668 0.28375231 -3.0140655e-19)
(1.6390693 0.26885125 5.9897584e-21)
(1.6109452 0.25230822 1.7061251e-19)
(1.5803283 0.23437397 -1.2773539e-19)
(1.5473828 0.21519492 1.0312686e-19)
(1.5124661 0.19505033 0)
(1.4761544 0.17430004 5.6006255e-20)
(1.4391468 0.15367163 -3.9199621e-20)
(1.4019846 0.13167513 1.2134767e-20)
(1.3649649 0.11749522 0)
(1.7016204 -0.28004775 -5.9110948e-19)
(1.866995 0.25430157 2.4896972e-19)
(1.8166672 0.065665315 3.8716849e-19)
(1.8104675 0.1162829 -3.1065404e-19)
(1.7874409 0.097446709 5.4214622e-22)
(1.7641269 0.095106126 1.0288623e-19)
(1.7374718 0.088165265 7.9547207e-20)
(1.7080368 0.081458227 -3.3277069e-21)
(1.6756591 0.073929347 -2.9776645e-21)
(1.6403911 0.065880455 -1.0214673e-19)
(1.6024436 0.057388192 1.0276239e-19)
(1.5622622 0.04862088 -3.6639835e-21)
(1.5205338 0.039784268 -9.625084e-21)
(1.4780691 0.031206538 -2.0317658e-20)
(1.4353424 0.021710183 -1.2634626e-23)
(1.3931468 0.019821922 8.223625e-21)
(1.7244356 -0.47852924 -2.8871136e-19)
(1.9015201 0.00064022725 -2.2771129e-19)
(1.8358692 -0.16407981 5.7537905e-19)
(1.8311769 -0.11396415 -3.0659537e-19)
(1.8055913 -0.12536671 1.2799617e-19)
(1.781253 -0.12096965 1.1874222e-23)
(1.7531728 -0.12003141 1.5213986e-19)
(1.7222543 -0.11793559 -6.7182945e-20)
(1.6882504 -0.11568402 -8.3490772e-21)
(1.6512464 -0.1129964 3.0060979e-20)
(1.6114884 -0.10985245 -4.6648139e-20)
(1.5694798 -0.10620556 3.5116563e-20)
(1.5259833 -0.10203532 -9.3248522e-21)
(1.4818492 -0.097378354 -3.7436283e-20)
(1.4375948 -0.092947222 1.3830344e-20)
(1.3942464 -0.083157739 1.6286117e-20)
(1.682248 -0.66466125 -6.2412883e-21)
(1.8605241 -0.26056853 8.7566106e-19)
(1.7908186 -0.38540893 -7.2112863e-19)
(1.7859306 -0.3435708 5.5785535e-19)
(1.7608379 -0.34453362 -4.663495e-19)
(1.7371317 -0.33414766 0)
(1.7098676 -0.32500971 2.772996e-19)
(1.6799206 -0.31406829 -2.2006166e-19)
(1.6470769 -0.30189681 -4.2561598e-21)
(1.611442 -0.28834119 0)
(1.5732873 -0.27343176 -1.6819232e-20)
(1.5331372 -0.25725865 7.8621855e-21)
(1.4917729 -0.24001098 -5.1006071e-20)
(1.4500782 -0.22200396 9.3004248e-20)
(1.4085688 -0.20358084 -6.1555518e-20)
(1.3676036 -0.18188272 -1.5543716e-20)
(1.5796898 -0.82162515 4.0159993e-21)
(1.7461291 -0.50321076 -3.2164969e-21)
(1.6821277 -0.58370786 0)
(1.676585 -0.55063779 -2.8067048e-21)
(1.6543618 -0.54226142 -5.529374e-21)
(1.6332405 -0.52604519 2.9423331e-19)
(1.6091737 -0.50929342 -2.495221e-19)
(1.5828711 -0.49012986 0)
(1.5541952 -0.46879766 1.7608891e-20)
(1.5232468 -0.4452384 1.2007763e-20)
(1.4902823 -0.41954025 1.0754075e-20)
(1.4557798 -0.39192307 -2.0775545e-20)
(1.4204503 -0.36278579 1.1234758e-20)
(1.3851178 -0.33273293 6.2560656e-20)
(1.3502315 -0.30278212 -6.9587319e-20)
(1.3156499 -0.2725684 3.648874e-20)
(1.254751 -1.0305446 2.4752403e-18)
(1.377972 -0.85314367 -1.0140999e-18)
(1.3355091 -0.86810101 0)
(1.3338899 -0.83959578 -4.5488963e-21)
(1.3213152 -0.81927981 -4.8200694e-19)
(1.3102295 -0.79337935 4.1406599e-19)
(1.2978615 -0.7650012 2.8595074e-19)
(1.2845473 -0.73351603 -9.4485873e-21)
(1.2702447 -0.69888008 -1.9534139e-19)
(1.2549495 -0.66111658 9.368551e-21)
(1.2387347 -0.62038789 0)
(1.2217913 -0.57704711 -1.2908161e-19)
(1.2045362 -0.53165831 2.728793e-20)
(1.1879541 -0.48469897 7.1334708e-20)
(1.1735572 -0.43645763 0)
(1.1601457 -0.38942099 5.594078e-21)
(1.0845596 -1.1126146 1.0774673e-20)
(1.1921436 -0.97945737 1.6973662e-18)
(1.1590537 -0.97831186 -6.911094e-19)
(1.1623095 -0.94728466 -5.2513459e-19)
(1.1548975 -0.92282277 4.3089716e-19)
(1.1488823 -0.89322207 -3.3037248e-19)
(1.142089 -0.86028099 2.720023e-19)
(1.1345795 -0.82377674 1.823135e-19)
(1.1263187 -0.78361986 -1.6137943e-19)
(1.1173134 -0.73982369 0)
(1.1076724 -0.69257122 0)
(1.0976305 -0.64226244 0)
(1.0876827 -0.58951636 5.5025613e-21)
(1.0791021 -0.53490689 0)
(1.0740604 -0.47927811 2.9992502e-20)
(1.0720675 -0.42631199 -4.8170655e-20)
(-0.12628786 0.35412509 2.0287338e-19)
(0.15554776 -0.095496504 9.9030628e-22)
(0.36778839 -0.26476824 -1.2257146e-19)
(0.525051 -0.35232615 1.0027419e-19)
(0.64365671 -0.40813066 2.1952376e-21)
(0.73188676 -0.44607853 2.9334857e-21)
(0.79659727 -0.47115927 0)
(0.84268609 -0.48606111 6.570039e-20)
(0.87380655 -0.49245294 -1.0933571e-19)
(0.89345372 -0.49131226 4.7251288e-20)
(0.90528474 -0.48322815 -4.0099986e-20)
(0.91278063 -0.46867228 3.2851168e-20)
(0.91879701 -0.44812564 -3.3022705e-21)
(0.92543816 -0.42208551 -3.9729382e-21)
(0.9329534 -0.39209111 -1.450487e-20)
(0.94549025 -0.3565217 0)
(-0.26381264 0.62683994 0)
(-0.31619868 0.51194574 -2.3695444e-21)
(-0.1469759 0.32053605 2.889409e-19)
(0.10107322 0.055424152 -2.36275e-19)
(0.31722155 -0.1720305 -3.6984619e-21)
(0.47408016 -0.33531654 1.5312554e-19)
(0.58786191 -0.44494567 -5.7214546e-21)
(0.66901896 -0.51108041 -1.8827938e-19)
(0.72462212 -0.54377738 1.4477521e-20)
(0.76093097 -0.55145221 5.4889806e-20)
(0.78384645 -0.54086686 0)
(0.79861286 -0.5175161 -2.5568547e-21)
(0.8095839 -0.48573435 -4.9523734e-21)
(0.82022597 -0.44857389 -1.5951914e-20)
(0.83223499 -0.40839288 2.159524e-20)
(0.84944027 -0.36448183 6.0717381e-22)
(-0.24717993 0.6986043 -2.9470945e-21)
(-0.30859029 0.59269266 -7.0320695e-19)
(-0.23201745 0.48739274 2.8984288e-19)
(-0.14267002 0.32187077 -1.3725531e-21)
(0.041762171 0.050228933 -1.9251944e-19)
(0.20075547 -0.18496118 1.5630953e-19)
(0.31453702 -0.35128743 -1.3867436e-21)
(0.40384336 -0.45753127 2.0291499e-21)
(0.474845 -0.51668054 -2.8394779e-21)
(0.5305883 -0.54056957 -1.7751445e-21)
(0.57462345 -0.53829708 2.364315e-20)
(0.61047038 -0.51732487 -1.6398738e-20)
(0.64117585 -0.48393933 -1.2437446e-20)
(0.6693307 -0.44316763 9.2815027e-21)
(0.69629992 -0.3989832 -1.6977431e-21)
(0.72884413 -0.35056886 7.1854363e-22)
(-0.1758019 0.62798224 -1.7345044e-22)
(-0.20548778 0.53828704 -1.4070273e-22)
(-0.17833901 0.44610042 -6.8691958e-20)
(-0.14778279 0.32750611 5.8319037e-20)
(-0.097400447 0.17550518 -3.1674672e-22)
(0.01631885 -0.050454368 3.8260535e-20)
(0.10418066 -0.21598686 -2.7913315e-20)
(0.17200518 -0.32117464 -3.8855003e-20)
(0.23691429 -0.3910211 6.4175701e-21)
(0.2972907 -0.42958461 3.0424483e-20)
(0.35359364 -0.44225559 -8.5583677e-21)
(0.4065282 -0.43480462 0)
(0.45678388 -0.41262632 2.0320725e-22)
(0.50528744 -0.38075839 7.9273145e-21)
(0.55223496 -0.34383153 -3.4244696e-21)
(0.6040179 -0.30271413 1.4923986e-20)
(-0.083929507 0.4632683 1.7413541e-22)
(-0.10256351 0.39781684 1.2123559e-20)
(-0.10148148 0.33603161 -9.8793742e-21)
(-0.10140615 0.264231 -1.914145e-22)
(-0.096474895 0.17985406 1.2731175e-22)
(-0.080163864 0.082043628 1.5448245e-22)
(-0.039717669 -0.038987375 5.7698822e-21)
(0.0066709396 -0.14618824 1.800633e-21)
(0.059850179 -0.22502424 -5.7597252e-21)
(0.11255797 -0.26707759 9.1477762e-21)
(0.17100532 -0.28797773 -7.3399621e-21)
(0.23150249 -0.29126192 0)
(0.29314661 -0.28100572 -1.0264887e-20)
(0.35630857 -0.26159207 7.062983e-21)
(0.41982967 -0.23725365 -2.4905265e-21)
(0.48846052 -0.21006512 0)
(-0.036653042 0.24867747 4.7540339e-20)
(-0.049566797 0.16396745 -1.9690597e-20)
(-0.063906562 0.11245675 -3.1707575e-20)
(-0.078673331 0.070860239 2.5807015e-20)
(-0.091735023 0.033230224 1.0070296e-22)
(-0.10056908 -0.0031679191 -8.7630051e-21)
(-0.10152594 -0.039984264 -7.4989162e-21)
(-0.089974455 -0.079346337 -2.8863327e-22)
(-0.067356615 -0.11577918 -3.7895284e-22)
(-0.032308495 -0.14567619 1.4138068e-20)
(0.019138171 -0.16262477 -1.6568521e-20)
(0.078094037 -0.16351215 -8.3222166e-22)
(0.15012353 -0.15627691 7.5768923e-22)
(0.23015667 -0.14438975 5.3663433e-21)
(0.31372166 -0.13028587 4.4459623e-24)
(0.40574699 -0.11536854 -3.4343023e-21)
(-0.036495375 -0.24902736 2.3606857e-20)
(-0.0494279 -0.16410724 1.9170526e-20)
(-0.063724905 -0.11224805 -4.7539263e-20)
(-0.078440808 -0.070269996 2.574918e-20)
(-0.091450667 -0.032238897 -1.0720438e-20)
(-0.1002184 0.0045763955 -1.0473463e-24)
(-0.10103413 0.041820333 -1.4709756e-20)
(-0.089396039 0.081610789 5.855876e-21)
(-0.066730345 0.11831651 4.8565839e-23)
(-0.031631077 0.14839325 -5.2837689e-21)
(0.019764532 0.16540812 7.0357562e-21)
(0.078605235 0.16633701 -7.8061874e-21)
(0.15043014 0.15914689 7.562802e-22)
(0.23012642 0.1473539 1.1049676e-20)
(0.3128459 0.13344794 -4.465756e-21)
(0.40413902 0.11882759 -6.5826334e-21)
(-0.083615128 -0.46308735 -6.6899736e-23)
(-0.10232443 -0.39741328 -1.1763845e-20)
(-0.10115782 -0.33542554 9.8154493e-21)
(-0.10097507 -0.2633654 -7.4898421e-21)
(-0.095860717 -0.17863725 6.2006092e-21)
(-0.079276919 -0.080361218 0)
(-0.038724067 0.041046094 -5.2363628e-21)
(0.0075813295 0.14819363 4.5643566e-21)
(0.060542639 0.22680206 -6.3499761e-22)
(0.11305365 0.26877874 0)
(0.17126646 0.28967636 1.1593128e-21)
(0.2315122 0.29301806 -5.8445863e-22)
(0.29294099 0.28290856 8.9376381e-21)
(0.35602848 0.26374413 -2.1475431e-20)
(0.41934847 0.23991744 1.4917022e-20)
(0.4936362 0.21223001 5.2716541e-21)
(-0.17533529 -0.6273955 1.7302128e-22)
(-0.20510576 -0.53743436 -1.4033318e-22)
(-0.17780148 -0.44495788 0)
(-0.14704515 -0.32597623 1.5539164e-21)
(-0.096386795 -0.17348211 1.1258393e-21)
(0.017261098 0.052421231 3.8110919e-20)
(0.10466835 0.21753066 -3.1366523e-20)
(0.17222515 0.32256331 0)
(0.23683047 0.39228619 -1.2121154e-21)
(0.29689021 0.4307601 -1.7860345e-21)
(0.35285863 0.44338965 -3.7565181e-22)
(0.40541378 0.43594681 1.4772532e-21)
(0.45520215 0.41384424 -1.3452331e-21)
(0.50314951 0.38213156 -9.0259088e-21)
(0.54879238 0.3457484 1.1212182e-20)
(0.60344287 0.30360522 -8.1514487e-21)
(-0.24666563 -0.69799272 0)
(-0.30820573 -0.59189432 3.5055928e-19)
(-0.23142385 -0.48628575 -5.7653115e-19)
(-0.14186908 -0.32026276 2.3594809e-19)
(0.042613924 -0.048502126 -1.1203295e-21)
(0.20101515 0.18613695 -4.2642592e-21)
(0.31443909 0.35212095 1.1733363e-19)
(0.40346459 0.45814667 -9.4181632e-20)
(0.4742009 0.51716591 -5.2869016e-20)
(0.52968488 0.54097244 4.610138e-20)
(0.57345168 0.53863364 0)
(0.60898945 0.51758568 -1.374167e-20)
(0.63929728 0.48409602 7.1944119e-21)
(0.66699401 0.4431221 0)
(0.6928597 0.39893147 0)
(0.72890266 0.34783749 0)
(-0.26334049 -0.62625206 8.7514512e-19)
(-0.31588347 -0.51126909 -3.5907685e-19)
(-0.14670994 -0.31985609 0)
(0.10125372 -0.054770452 -1.3175889e-21)
(0.31706923 0.17243842 -1.8997614e-19)
(0.4736771 0.33558926 1.609199e-19)
(0.58726707 0.44512003 1.159529e-19)
(0.66827799 0.51118589 -4.043158e-21)
(0.72376542 0.54383358 -7.7933169e-20)
(0.75997216 0.55145789 2.9228468e-21)
(0.78277699 0.54079305 0)
(0.79739729 0.51730799 -4.6416024e-20)
(0.80817682 0.4853125 9.7732622e-21)
(0.81864145 0.44780308 2.4139204e-20)
(0.82969861 0.407753 0)
(0.84870357 0.36164619 2.8899778e-21)
(-0.12728218 -0.35502752 6.068464e-21)
(0.15474594 0.094731001 3.1280853e-19)
(0.36709623 0.26422897 -1.2399258e-19)
(0.52438503 0.35191765 -1.0232254e-19)
(0.64298713 0.40782195 8.304406e-20)
(0.73120499 0.44584089 -8.381108e-20)
(0.79590579 0.47097137 6.6034346e-20)
(0.84198904 0.48590427 6.2831499e-20)
(0.87310076 0.49230231 -6.0272831e-20)
(0.892718 0.49112983 0)
(0.90447216 0.48296092 0)
(0.91181927 0.4682625 0)
(0.9176323 0.44751136 8.8314578e-21)
(0.92404937 0.42124943 0)
(0.93097643 0.39156637 2.49834e-20)
(0.94999514 0.35068591 -4.1898557e-20)
(0.85878359 0.96121093 0)
(0.88447691 1.0064478 0)
(0.8929189 0.97501932 0)
(0.89532216 0.95129244 6.5364698e-21)
(0.89867436 0.92289489 -4.1070007e-20)
(0.90264195 0.89039227 4.2895956e-20)
(0.90741666 0.85370952 0)
(0.91305214 0.8126105 -5.9630984e-21)
(0.91957519 0.76705812 0)
(0.92696807 0.71734674 0)
(0.93514688 0.66407107 0)
(0.94406884 0.60807098 7.4481078e-21)
(0.95403238 0.55016638 0)
(0.96520231 0.49170881 1.1938504e-20)
(0.97558982 0.43827734 0)
(0.85939519 -0.96189794 0)
(0.88505568 -1.0068508 0)
(0.89354926 -0.97550563 0)
(0.89606652 -0.95184829 6.5353265e-21)
(0.89956898 -0.92356447 -3.8428819e-20)
(0.90371699 -0.89120487 4.739499e-20)
(0.90867376 -0.85467783 0)
(0.91444936 -0.81370804 5.9649269e-21)
(0.92100531 -0.76821443 0)
(0.92823842 -0.71842805 0)