/*--------------------------------*- C++ -*----------------------------------*\
| =========                 |                                                 |
| \\      /  F ield         | foam-extend: Open Source CFD                    |
|  \\    /   O peration     | Version:     4.1                                |
|   \\  /    A nd           | Web:         http://www.foam-extend.org         |
|    \\/     M anipulation  |                                                 |
\*---------------------------------------------------------------------------*/
FoamFile
{
    version     2.0;
    format      ascii;
    class       surfaceScalarField;
    location    "0.2";
    object      phi;
}
// * * * * * * * * * * * * * * * * * * * * * * * * * * * * * * * * * * * * * //

dimensions      [0 3 -1 0 0 0 0];

internalField   nonuniform List<scalar> 
6703
(
-0.0042219994
0.021923625
-0.017701626
-0.0079993723
0.026988424
-0.023211051
-0.011580908
0.032397848
-0.028816311
-0.015776139
0.03848679
-0.034291559
-0.020594672
0.045620912
-0.040802379
-0.026100218
0.053976334
-0.048470788
-0.032359582
0.063735717
-0.057476352
-0.039443619
0.075108799
-0.068024762
-0.047436958
0.088326232
-0.080332893
-0.05644336
0.10364545
-0.094639046
-0.06658894
0.12135775
-0.11121217
-0.078024345
0.14179877
-0.13036337
-0.090925449
0.16537282
-0.15247171
-0.10550871
0.19260701
-0.17802375
-0.12203257
0.22424351
-0.20771965
0.26128489
-0.24284769
-0.14046977
-0.0030631975
0.024986823
-0.0061292082
0.030054434
-0.009146219
0.035414858
-0.012704954
0.042045525
-0.016857875
0.049773832
-0.021720755
0.058839215
-0.027412541
0.069427502
-0.034063002
0.08175926
-0.04181826
0.09608149
-0.050846071
0.11267326
-0.06134484
0.13185652
-0.073557625
0.15401156
-0.087786903
0.1796021
-0.104394
0.2092141
-0.1237479
0.24359741
0.2836201
-0.14608311
-0.001149227
0.02613605
-0.0029831508
0.031888358
-0.0050892114
0.037520919
-0.0076157709
0.044572084
-0.010612625
0.052770686
-0.01417058
0.06239717
-0.018384875
0.073641798
-0.02336652
0.086740906
-0.029242385
0.10195735
-0.036157073
0.11958795
-0.044276068
0.13997552
-0.053791712
0.1635272
-0.064933197
0.19074358
-0.077975796
0.2222567
-0.093223745
0.25884536
0.30137958
-0.11098323
-0.00043498404
0.026571034
-0.0016072208
0.033060595
-0.0028442942
0.038757993
-0.0043759941
0.046103784
-0.0062099188
0.054604611
-0.0084154826
0.064602734
-0.011058293
0.076284609
-0.014218242
0.089900854
-0.017987361
0.10572647
-0.022471705
0.12407229
-0.027793096
0.14529691
-0.034090619
0.16982472
-0.041520744
0.19817371
-0.050251038
0.230987
-0.060424556
0.26901888
0.31291791
-0.071962884
0.00020308095
0.026367953
-0.00038244899
0.033646125
-0.00083127945
0.039206823
-0.0014503096
0.046722815
-0.002185073
0.055339374
-0.0030826712
0.065500332
-0.0041732093
0.077375147
-0.0055002783
0.091227923
-0.0071150067
0.1073412
-0.0090788024
0.12603609
-0.011464662
0.14768277
-0.014358482
0.17271854
-0.017859498
0.20167472
-0.022078299
0.2352058
-0.027134201
0.27407478
0.31923634
-0.03345263
0.00086903619
0.025498917
0.00094446618
0.033570695
0.001269556
0.038881733
0.0015724516
0.046419919
0.0019417941
0.054970032
0.0023575023
0.065084624
0.0028243814
0.076908268
0.0033371942
0.090715111
0.0038879451
0.10679045
0.0044622366
0.12546179
0.0050380301
0.14710697
0.0055839577
0.17217262
0.0060576962
0.20120098
0.0064031328
0.23486036
0.006574473
0.27390344
0.31929448
0.0065163296
0.0015698006
0.023929116
0.0024121516
0.032728344
0.0035196335
0.037774251
0.0047863403
0.045153212
0.0062815151
0.053474857
0.0080288801
0.063337259
0.010063324
0.074873824
0.012419613
0.088358821
0.015132758
0.10407731
0.018235766
0.12235879
0.02175829
0.14358445
0.025725569
0.16820534
0.030158804
0.19676775
0.035073822
0.22994534
0.040494157
0.26848311
0.31347028
0.04631836
0.0022810384
0.021648078
0.0039725652
0.031036817
0.0058535736
0.035893243
0.0080889961
0.04291779
0.01071008
0.050853773
0.013791764
0.060255575
0.017396164
0.071269423
0.02159552
0.084159465
0.026464512
0.099208315
0.032079914
0.11674338
0.038519052
0.13714531
0.045858681
0.16086571
0.054174469
0.18845196
0.063534627
0.22058519
0.073989752
0.25802798
0.30196631
0.08549372
0.0030500669
0.018598011
0.00574468
0.028342204
0.0084526417
0.033185281
0.011661349
0.039709082
0.015398056
0.047117066
0.019789464
0.055864167
0.024928959
0.066129929
0.030923184
0.07816524
0.037883871
0.092247629
0.045928625
0.10869863
0.055180644
0.12789329
0.065770267
0.15027608
0.077840474
0.17638175
0.0915554
0.20687026
0.10710849
0.24247489
0.28434701
0.1247278
0.0041113243
0.014486687
0.0080247774
0.024428751
0.011757916
0.029452143
0.016016208
0.03545079
0.020887049
0.042246225
0.026549814
0.050201403
0.033143154
0.059536589
0.040810346
0.070498048
0.04969925
0.083358725
0.059964859
0.098433021
0.071771126
0.11608703
0.085296198
0.13675101
0.1007463
0.16093165
0.11838745
0.18922911
0.13860416
0.22225819
0.26078804
0.16216313
0.0044915797
0.009995107
0.010601577
0.018318754
0.016387971
0.023665749
0.022239693
0.029599069
0.028462492
0.036023426
0.035403276
0.043260618
0.043318337
0.051621528
0.052423969
0.061392416
0.062921058
0.072861635
0.075004046
0.086350033
0.088863986
0.10222709
0.10469343
0.12092157
0.12269583
0.14292925
0.14309828
0.16882666
0.166124
0.19923246
0.23460303
0.19230901
0.0079305168
0.0020645902
0.01540523
0.010844041
0.021564769
0.01750621
0.027746607
0.02341723
0.034430897
0.029339137
0.041866886
0.035824629
0.050240874
0.04324754
0.059703694
0.051929596
0.070360124
0.062205206
0.082264725
0.074445432
0.095424886
0.089066925
0.10981162
0.10653483
0.12538105
0.12735982
0.14210389
0.15210383
0.15989342
0.18144293
0.21573864
0.17875781
-0.00029312247
-0.017749852
0.018042974
-0.002261055
-0.021263197
0.02323113
-0.0059033179
-0.02530232
0.028944583
-0.010156968
-0.030070674
0.034324324
-0.015194124
-0.035667151
0.040704307
-0.021140131
-0.042216916
0.048162923
-0.028130394
-0.049858205
0.056848469
-0.036315847
-0.058742197
0.066927649
-0.045844454
-0.069034461
0.078563068
-0.056853988
-0.080916485
0.09192602
-0.06946928
-0.09458875
0.10720404
-0.083799433
-0.11027762
0.12460777
-0.099945505
-0.12824852
0.1443946
-0.11805767
-0.14881479
0.16692695
-0.1385182
-0.17231191
0.19277244
-0.19919154
0.22306853
-0.16239519
-0.0027256545
-0.015024198
-0.0061840557
-0.017804796
-0.010396791
-0.021089585
-0.015490552
-0.024976913
-0.021605273
-0.02955243
-0.028905655
-0.034916533
-0.037582283
-0.041181578
-0.047853426
-0.048471053
-0.059968256
-0.056919631
-0.074210515
-0.066674227
-0.090902376
-0.077896889
-0.11040923
-0.090770758
-0.13314777
-0.10550999
-0.15958827
-0.12237429
-0.1901962
-0.14170398
-0.16399311
-0.22539462
-0.0032029473
-0.01182125
-0.0071154647
-0.013892279
-0.011807841
-0.016397209
-0.017416567
-0.019368187
-0.024102035
-0.022866962
-0.032050762
-0.026967806
-0.04147744
-0.031754901
-0.052627067
-0.037321426
-0.065777322
-0.043769377
-0.081241508
-0.051210041
-0.099372875
-0.059765522
-0.12057153
-0.069572101
-0.14529478
-0.080786744
-0.1740722
-0.093596866
-0.20755936
-0.10821681
-0.12482678
-0.24672569
-0.003293259
-0.0085279913
-0.0073880907
-0.0097974473
-0.012355982
-0.011429318
-0.018327014
-0.013397155
-0.025465392
-0.015728584
-0.033964988
-0.01846821
-0.044049189
-0.0216707
-0.055971735
-0.02539888
-0.070017786
-0.029723326
-0.086505312
-0.034722514
-0.1057873
-0.040483533
-0.12825655
-0.047102853
-0.15435686
-0.054686436
-0.18459651
-0.063357215
-0.21949534
-0.073317977
-0.085006294
-0.25931583
-0.0036200918
-0.0049078995
-0.0080195873
-0.0053979518
-0.013285439
-0.0061634658
-0.019575485
-0.0071071095
-0.027076671
-0.0082273981
-0.036003511
-0.0095413704
-0.046599896
-0.011074315
-0.05914111
-0.012857666
-0.073935063
-0.014929372
-0.091324716
-0.017332861
-0.11169294
-0.020115309
-0.13546717
-0.023328623
-0.16312182
-0.027031783
-0.19520088
-0.031278155
-0.23251251
-0.036006345
-0.040815068
-0.27670374
-0.0011488625
0.026135351
-0.024986489
-0.002982636
0.031889369
-0.030055595
-0.0050885234
0.037524923
-0.035419035
-0.0076147472
0.04458089
-0.042054666
-0.010610958
0.052787937
-0.049791726
-0.014167489
0.062426216
-0.058869685
-0.01837887
0.073685702
-0.069474321
-0.023355002
0.086800807
-0.081824674
-0.029221333
0.10203001
-0.096163682
-0.036121129
0.11966259
-0.11276279
-0.044219906
0.14003144
-0.13193266
-0.053713697
0.16353581
-0.15404202
-0.064841007
0.19068032
-0.17955301
-0.077888663
0.22212464
-0.20907698
-0.093157407
0.25869551
-0.24342677
0.30127489
-0.28355158
-0.11088072
-0.0048734752
-3.4424315e-05
-0.010239306
-3.2121122e-05
-0.016372592
-3.0179922e-05
-0.02345234
-2.7361273e-05
-0.031656788
-2.2949567e-05
-0.041181793
-1.636581e-05
-0.052248969
-7.1390575e-06
-0.065111633
4.9980372e-06
-0.080060925
1.9919762e-05
-0.097430693
3.6906936e-05
-0.11760053
5.4531326e-05
-0.14099991
7.0750546e-05
-0.1681148
8.3108899e-05
-0.19948085
8.7893053e-05
-0.23556283
7.5632309e-05
2.4258188e-05
-0.27640215
-0.0049737432
0.0049393189
-0.010425753
0.0054198892
-0.016646692
0.0061907585
-0.023818424
0.007144371
-0.032119087
0.0082777137
-0.041742658
0.0096072051
-0.052907211
0.011157414
-0.06586082
0.012958607
-0.0808878
0.0150469
-0.09831396
0.017463067
-0.11851014
0.020250707
-0.14189622
0.023456835
-0.16894514
0.027132032
-0.20017107
0.031313821
-0.23603091
0.035935475
0.040720109
-0.27672676
-0.0036396002
0.0085789191
-0.0080791396
0.0098594286
-0.013393166
0.011504785
-0.019736333
0.013487537
-0.027293291
0.015834672
-0.036276008
0.018589922
-0.046925233
0.021806639
-0.059512325
0.025545699
-0.074340268
0.029874844
-0.091745698
0.034868497
-0.11210302
0.040608027
-0.1358285
0.047182321
-0.1633847
0.054688229
-0.19530502
0.063234141
-0.23234207
0.07297252
0.084198937
-0.27582089
-0.0032848991
0.011863818
-0.0073716186
0.013946148
-0.012329826
0.016462993
-0.018287525
0.019445236
-0.025406621
0.022953767
-0.033878108
0.02706141
-0.043921609
0.03185014
-0.05578592
0.03741001
-0.069749901
0.043838825
-0.08612395
0.051242546
-0.10525293
0.059737007
-0.12752295
0.069452342
-0.15337801
0.080543294
-0.18334895
0.093205079
-0.21802639
0.10764995
0.12392235
-0.2577498
-0.0031819618
0.01504578
-0.007069007
0.017833193
-0.011729689
0.021123675
-0.017298874
0.025014421
-0.023935008
0.029589901
-0.031822202
0.034948605
-0.041172294
0.041200232
-0.052227153
0.048464869
-0.065261616
0.056873288
-0.080587887
0.066568817
-0.098563009
0.07771213
-0.11960137
0.090490702
-0.14419083
0.10513276
-0.17291338
0.12192763
-0.20658326
0.14131984
0.1642971
-0.24695801
-0.0027137178
0.017759498
-0.0061565813
0.021276057
-0.010349417
0.025316511
-0.015418415
0.03008342
-0.021503067
0.035674553
-0.028767913
0.04221345
-0.037404118
0.049836437
-0.047632152
0.058692903
-0.059706531
0.068947667
-0.073922133
0.080784419
-0.090622246
0.094412242
-0.11020981
0.11007827
-0.13316743
0.12809037
-0.16008065
0.14884085
-0.1915288
0.17276799
0.20020376
-0.22743547
-0.00027338104
0.018032879
-0.0022300138
0.02323269
-0.0058669976
0.028953494
-0.010113539
0.034329962
-0.015143288
0.040704301
-0.021082354
0.048152516
-0.028067512
0.056821595
-0.036252047
0.066877438
-0.045788463
0.078484083
-0.056821662
0.091817618
-0.069486933
0.10707751
-0.083905424
0.12449676
-0.1001815
0.14436645
-0.11842304
0.16708238
-0.13884664
0.1931916
0.22351245
-0.16215533
0.0079134753
-0.0099870274
0.002073552
0.015375695
-0.018314802
0.010852582
0.021520144
-0.023667061
0.017522613
0.027684306
-0.029604944
0.023440782
0.03434759
-0.03603503
0.029371746
0.04175892
-0.043279952
0.035868623
0.050104149
-0.051650691
0.043305462
0.059533435
-0.061432593
0.052003306
0.070150405
-0.072911287
0.062294317
0.082007688
-0.086401995
0.074544712
0.095109629
-0.10226467
0.089162726
0.10942262
-0.12091434
0.10660134
0.12489488
-0.14282939
0.12735714
0.14146992
-0.16856559
0.15199054
0.15897722
-0.19867633
0.18116904
-0.23370493
0.21462327
0.17805888
0.0044938185
-0.014480846
0.010600673
-0.024421657
0.016383423
-0.029449811
0.02222989
-0.035451411
0.028447045
-0.042252185
0.03538197
-0.050214877
0.043291312
-0.059560033
0.052391628
-0.070532908
0.062883981
-0.08340364
0.074963131
-0.098481145
0.088821634
-0.11612317
0.10465771
-0.13675041
0.12269225
-0.16086393
0.14320035
-0.1890737
0.16654248
-0.22201847
-0.26070584
0.19354339
0.0041123621
-0.018593208
0.0080282568
-0.028337552
0.011762681
-0.033184235
0.016021779
-0.039710509
0.020893696
-0.047124102
0.026558
-0.055879181
0.03315349
-0.066155523
0.040823251
-0.078202669
0.049714609
-0.092294998
0.059981721
-0.10874826
0.071787836
-0.12792929
0.085311727
-0.15027431
0.10076354
-0.17631574
0.11841546
-0.20672562
0.13864504
-0.24224805
-0.28415554
0.16209474
0.003051176
-0.021644384
0.0057479136
-0.031034289
0.0084573086
-0.03589363
0.011667689
-0.04292089
0.015406593
-0.050863006
0.019800758
-0.060273346
0.024943522
-0.071298287
0.030941125
-0.084200272
0.037904523
-0.099258395
0.045950133
-0.11679387
0.055199965
-0.13717912
0.065784449
-0.16085879
0.077850539
-0.18838183
0.091572792
-0.22044788
0.10716857
-0.25784382
-0.30189244
0.12490547
0.0022816871
-0.023926071
0.0039744821
-0.032727084
0.0058563134
-0.037775462
0.0080929809
-0.045157558
0.010715737
-0.053485762
0.013799531
-0.063357141
0.017406327
-0.074905082
0.021607933
-0.088401879
0.026478184
-0.10412865
0.032092534
-0.12240822
0.038526741
-0.14361333
0.045856586
-0.16818863
0.054158702
-0.19668395
0.063503716
-0.22979289
0.073945121
-0.26828523
-0.31334283
0.085395511
0.0015703177
-0.025496389
0.0024134634
-0.03357023
0.0035215429
-0.038883541
0.0047892787
-0.046425293
0.0062858466
-0.054982329
0.0080350454
-0.06510634
0.01007166
-0.076941697
0.012430178
-0.090760396
0.015144999
-0.10684347
0.01824816
-0.12551138
0.021768163
-0.14713333
0.025729623
-0.17215009
0.030154817
-0.20110914
0.035063046
-0.23470112
0.040487938
-0.27371012
-0.31916496
0.046310066
0.00086970319
-0.026366092
0.00094582583
-0.033646353
0.0012716585
-0.039209374
0.0015757368
-0.046729372
0.0019466876
-0.05535328
0.0023646066
-0.065524259
0.0028343272
-0.077411418
0.0033505891
-0.091276658
0.0039051796
-0.10739806
0.0044832673
-0.12608947
0.0050622244
-0.14771229
0.0056102905
-0.17269816
0.0060856147
-0.20158447
0.0064345244
-0.23505003
0.0066182631
-0.27389386
-0.31910187
0.0065551782
0.00020369305
-0.026569785
-0.00038134299
-0.033061317
-0.00082934024
-0.038761377
-0.0014471153
-0.046111597
-0.002180066
-0.05462033
-0.00307501
-0.064629315
-0.004161808
-0.07632462
-0.0054837261
-0.08995474
-0.0070916091
-0.10579017
-0.0090467126
-0.12413436
-0.011422226
-0.14533677
-0.014304745
-0.16981564
-0.01779443
-0.19809478
-0.022000908
-0.23084355
-0.027036524
-0.26885824
-0.31280125
-0.033337151
-0.00043443384
-0.0016063818
-0.0028428357
-0.0043735424
-0.0062059348
-0.0084090333
-0.011047951
-0.014201885
-0.017962047
-0.022433822
-0.027739156
-0.034018987
-0.041433448
-0.050152362
-0.060315092
-0.071841445
-0.0030580417
-0.021928447
-0.0061235054
-0.026990132
-0.0091429658
-0.032399575
-0.012704007
-0.038493625
-0.01685952
-0.045636213
-0.021724739
-0.054004467
-0.027417544
-0.063781516
-0.034065774
-0.075176445
-0.041812646
-0.08841681
-0.050822348
-0.10375309
-0.061290973
-0.12146404
-0.073465166
-0.14186783
-0.087664073
-0.1653541
-0.10428252
-0.19245854
-0.12373736
-0.22397192
-0.26094225
-0.1463467
-0.0042157203
-0.017712727
-0.0079968493
-0.023209003
-0.011588171
-0.028808254
-0.015795066
-0.034286729
-0.020627788
-0.040803491
-0.026149586
-0.048482669
-0.032425984
-0.057505117
-0.039525263
-0.068077166
-0.047528052
-0.080414021
-0.056532656
-0.094748487
-0.066660204
-0.11133649
-0.078062499
-0.13046553
-0.090933942
-0.15248266
-0.10553481
-0.17785766
-0.12213417
-0.20737257
-0.24255886
-0.14051755
0.0047388423
-0.0030112492
-0.0017275931
0.015376812
9.3938137e-05
-0.010731908
0.027939959
0.004495924
-0.017059071
0.0412548
0.0093792296
-0.02269407
0.054344266
0.015251073
-0.028340539
0.067071435
0.021726665
-0.034453834
0.079445441
0.028987662
-0.041361669
0.091517301
0.03727832
-0.04935018
0.10339498
0.046830956
-0.058708632
0.11525955
0.057892237
-0.069756807
0.1273523
0.070766021
-0.082858774
0.13996664
0.08581281
-0.098427152
0.15346503
0.10342053
-0.11691893
0.1682965
0.12400543
-0.1388369
0.18497709
0.14806029
-0.16474088
0.17612735
-0.19523386
0.2040836
0.0022375646
-0.0052488137
0.0080605148
-0.005729012
0.01707894
-0.0045225007
0.029212153
-0.0027539832
0.04474918
-0.00028595381
0.062046763
0.0044290818
0.080091003
0.010943423
0.098121027
0.019248295
0.11604967
0.02890231
0.13406566
0.039876254
0.15233008
0.052501594
0.17117716
0.066965736
0.19123243
0.083365259
0.21350269
0.10173517
0.23931622
0.12224676
0.14513182
0.27031175
9.7741245e-05
-0.0053465549
0.00013820542
-0.005769476
0.0020232054
-0.0064075005
0.0064921905
-0.0072229682
0.014428375
-0.0082221382
0.026270258
-0.0074128009
0.042438734
-0.0052250524
0.063241898
-0.0015548691
0.08694347
0.0052007375
0.11145328
0.015366443
0.13526466
0.028690218
0.15860451
0.043625879
0.18218822
0.059781554
0.20724833
0.076675056
0.23513596
0.094359131
0.11285052
0.26741727
0.00035329403
-0.0056998488
0.00072554806
-0.00614173
0.0011827087
-0.0068646611
0.0017004458
-0.0077407052
0.002211178
-0.0087328702
0.0046239194
-0.0098255423
0.010382576
-0.010983709
0.02109577
-0.012268063
0.037700961
-0.011404453
0.060132342
-0.0070649378
0.085307342
0.0035152181
0.10536017
0.02357305
0.13042497
0.034716756
0.15889472
0.048205305
0.19124637
0.062007485
0.074990025
0.22910686
-0.00027526327
-0.0054245855
-0.00099136649
-0.0054256267
-0.0020881275
-0.0057679
-0.0035922467
-0.0062365861
-0.0055479454
-0.0067771714
-0.0080105474
-0.0073629403
-0.011025917
-0.00796834
-0.014767294
-0.0085266849
-0.017209361
-0.0089623863
-0.015000028
-0.0092742708
-0.0010432689
-0.010441541
0.021507021
0.0010227598
0.044461803
0.011761974
0.070905736
0.021761372
0.1028817
0.030031522
0.035878071
0.14199365
-0.0052652657
-0.00015931982
-0.010479655
-0.00021123742
-0.01598581
-0.00026174506
-0.021910313
-0.00031208316
-0.028326343
-0.00036114149
-0.035282401
-0.00040688172
-0.04280357
-0.00044717148
-0.050848822
-0.0004814323
-0.059299662
-0.00051154611
-0.068026354
-0.00054757909
-0.0778754
-0.00059249418
-0.07634983
-0.00050281028
-0.064257506
-0.00033035046
-0.042803136
0.00030700191
-0.015239808
0.002468194
0.0089885803
0.011649682
-0.0055464493
0.0053871294
-0.011019468
0.0052617809
-0.016814747
0.0055335345
-0.023072109
0.005945279
-0.029865853
0.0064326025
-0.037232301
0.0069595661
-0.045163923
0.0074844507
-0.053558271
0.0079129155
-0.062203285
0.0081334677
-0.070818549
0.0080676846
-0.079261133
0.00785009
-0.077493305
-0.0022706383
-0.065402059
-0.012421597
-0.04344876
-0.021646297
-0.011518395
-0.029462171
-0.034731089
0.032201274
-0.00022033905
0.0056074685
-0.00094500758
0.0059864495
-0.0021022797
0.0066908066
-0.0037226308
0.0075656301
-0.0058538898
0.0085638614
-0.0085517088
0.009657385
-0.011849159
0.010781901
-0.015895266
0.011959023
-0.018423835
0.010662037
-0.016032069
0.0056759184
-0.0028840114
-0.0052979677
0.018636836
-0.023791485
0.041589769
-0.03537453
0.068608469
-0.048664997
0.10135517
-0.062208868
-0.075214541
0.14183862
0.00030905667
0.0052984118
0.00062909866
0.0056664074
0.001026631
0.0062932742
0.0014773329
0.0071149281
0.0019128082
0.008128386
0.0043272272
0.007242966
0.010116415
0.0049927132
0.020839868
0.001235569
0.037269604
-0.0057676989
0.059124575
-0.016179053
0.083252252
-0.029425645
0.10364069
-0.04417992
0.1283424
-0.060076244
0.15635796
-0.076680558
0.18812343
-0.093974334
-0.11181373
0.22472262
6.8891213e-05
0.0052295206
8.0556519e-05
0.0056547421
0.0019537097
0.0044201209
0.0064331333
0.0026355044
0.014409919
0.0001516004
0.026301154
-0.0046482695
0.042510459
-0.011216592
0.063312156
-0.019566128
0.086750862
-0.029206405
0.11074187
-0.040170058
0.13408166
-0.052765441
0.15705847
-0.067156724
0.18040594
-0.083423718
0.20532644
-0.10160106
0.23319802
-0.12184592
-0.14441512
0.26579941
0.0022176198
0.0030119007
0.0080004066
-0.00012804479
0.016987723
-0.0045671959
0.029104148
-0.0094809203
0.044635358
-0.015379609
0.061838947
-0.021851859
0.079736165
-0.029113809
0.097577408
-0.037407372
0.115333
-0.046961992
0.1331844
-0.058021466
0.15130243
-0.070883468
0.17004095
-0.085895248
0.19004564
-0.1034284
0.21233031
-0.12388573
0.23823413
-0.14774973
-0.1754033
0.26922231
0.0047484491
-0.0017365484
0.015360731
-0.010740327
0.027869393
-0.017075858
0.041106975
-0.022718502
0.054102147
-0.028374782
0.066750763
-0.034500475
0.079060631
-0.041423677
0.091083247
-0.049429988
0.10292791
-0.058806658
0.11477543
-0.069868983
0.12686525
-0.082973283
0.13949101
-0.098521012
0.15301892
-0.11695631
0.16790809
-0.1387749
0.18470687
-0.16454851
-0.19505381
0.20435738
0.00035289178
-0.00033125281
0.00049007469
0.00052847732
0.00043039942
0.00011212747
-0.0005426295
-0.001689954
-0.0035387637
-0.0063601914
-0.010494849
-0.016361454
-0.024466722
-0.035408089
-0.049936144
-0.069271375
0.00035237516
-0.00033024776
0.00048870454
0.00052629923
0.00042711552
0.00010736926
-0.00054927908
-0.001698796
-0.0035497492
-0.0063722162
-0.010504662
-0.016362427
-0.024450492
-0.035381206
-0.049981334
-0.069471662
0.00044925915
-0.00033700366
0.00089601406
0.001618294
0.0026152579
0.0039834051
0.0058651896
0.0084385078
0.011926166
0.016601896
0.022791338
0.03087167
0.041272504
0.054488145
0.071108681
0.090678135
0.00044913004
-0.0003369971
0.00089626903
0.0016194292
0.0026180267
0.0039888215
0.0058746934
0.0084541097
0.011950684
0.01663931
0.02284746
0.030955143
0.04139604
0.054662968
0.07136502
0.091869796
0.24343228
-0.53637203
0.29293974
1.2755084
-1.320625
0.045116634
0.18671516
-0.48441556
0.2977004
1.2755084
-0.3316344
0.050511411
0.28112299
-1.2666475
0.7872314
0.47941609
-0.16833995
0.66041762
-0.49207766
1.1647907
0.44040379
-1.6051945
1.211817
0.30147587
-1.5132929
0.19149382
-0.26076519
-0.29292265
0.22345098
0.54414292
1.004481
-1.548624
-0.54177411
-0.57896885
1.120743
-1.1497035
0.51071421
0.6389893
-0.25003289
0.60357704
-0.35354415
0.55164512
-0.039028871
-0.51261625
1.0995509
-1.1395791
0.040028163
0.070998537
0.25996533
-0.33096387
0.17605763
-0.25560652
0.079548893
0.94107723
-0.34243504
-0.59864219
-0.16545384
-0.16618055
-1.1548532
0.61307908
-1.4218482
1.4085553
0.01329291
0.10903358
1.2784894
-1.3875229
0.0054802138
-0.84969734
0.84421712
0.69779673
0.21254467
-0.9103414
-0.6060314
-0.91232523
1.5183566
0.9574131
-0.31703392
-0.64037919
0.21709646
0.96483721
-1.1819337
-0.34567911
0.8385028
-0.49282369
1.0412105
-0.3434138
0.30412649
-0.21748841
-0.086638075
-0.027141481
1.2549728
-1.2278313
0.96349004
0.0031146158
-0.96660466
0.1571051
-0.91962793
0.76252283
1.3268739
-1.1175472
-0.20932668
1.128306
-1.1963359
0.068029942
-0.72030159
0.8774067
0.84009428
-0.48902549
-0.35106879
-1.2970895
0.25554472
1.0415448
0.38282924
-0.54964832
0.16681908
1.2850949
-0.56426018
-0.72083468
1.1647907
-0.3494081
0.84467449
-0.49526639
1.211817
-0.1308245
0.56092959
-0.43010509
-0.28493049
1.0016483
-0.7167178
-1.4703432
0.6249911
0.84535211
-1.1647907
1.7485624
-0.58377168
-1.211817
1.7637995
-0.55198248
0.47869697
-0.083023595
-0.39567338
-0.58683722
0.26252857
0.32430865
0.21620626
-0.4056295
0.18942325
0.146548
0.17381573
-0.32036373
-0.47363673
0.85734227
-0.38370554
0.10116614
0.83029989
-0.93146603
0.1461852
-0.28684543
0.14066022
-0.82390181
0.5235077
0.30039411
-1.5781518
0.17201437
1.4061374
1.2901454
-0.45892796
-0.83121744
1.1965821
0.093563276
0.830285
0.61423692
-1.4445219
0.77731611
0.65382199
-1.4311381
-0.36876735
0.75621976
-0.38745241
0.1065432
-0.60268612
0.49614292
-0.99683444
1.0344337
-0.037599235
0.66554342
-1.2082213
0.54267792
0.71367119
0.26112099
-0.97479218
-0.1550397
0.93008903
-0.77504933
-1.3819998
1.0970693
-0.3523026
0.92672698
-0.57442438
0.27979104
0.27185408
-0.62926121
0.57123711
0.058024095
0.74320346
0.95742048
-1.7006239
1.3396247
-1.2382813
-0.10134337
0.078151777
-0.44748138
0.74705483
-0.29957345
0.98124125
-0.46717421
-0.51406705
1.4964527
-1.3485004
-0.14795226
1.1580376
-1.0279916
-0.13004601
0.43996176
-0.60078264
0.16082089
-0.34215841
0.13275947
0.20939894
0.20412913
-0.54980824
-1.8128498
1.2859772
0.52687259
0.347941
0.75160992
0.3705178
-1.3668345
0.99631666
-0.6747429
1.1403225
-0.46557958
-0.15674513
-0.92996833
1.0867135
0.43620229
-0.32262258
-0.11357971
0.075630115
1.2639946
0.83718776
-0.0024485564
-0.8347392
-1.1952095
0.48820552
0.70700401
0.079431251
0.55007328
-0.62950453
0.47837602
0.36171826
0.66036111
0.36478018
-1.0251413
0.68861711
-0.26117322
-0.42744389
-0.7257584
-0.80790164
0.46249912
-0.27578396
-0.11586973
-0.23231078
0.34818051
-0.4345137
0.84927394
-0.41476024
-0.46809465
1.2112981
-0.86157382
1.1454702
-0.2838964
-0.92324116
-0.27196837
-0.010533982
1.13884
1.2401837
-1.1595605
-0.080623199
-0.76326267
-0.38644084
-1.6840358
1.113196
0.57083984
-1.8140226
1.3174284
0.49659414
0.86311433
-0.38795144
-0.47516289
0.20687269
-0.55628079
0.30814077
-0.78177751
0.0066715207
0.63582356
-0.64249508
0.46903217
-0.62407187
-0.22160592
0.60443516
0.28385152
0.65722571
1.0031842
0.49326845
0.58119162
-0.5745201
0.4358545
1.0426893
-1.4785438
1.5312817
-0.8785028
-0.65277895
-0.32946231
0.72134127
-0.39187896
-0.0095953581
0.22580161
0.30916086
-0.16261286
0.12892373
0.13720489
-0.26612862
1.6359986
-1.6631401
0.12916131
0.067917771
-0.19707908
0.17720633
-0.035212674
-1.1247581
1.2113048
-0.086546612
-0.31247424
0.20726496
0.10520929
0.59103343
-0.54902521
-0.042008219
-0.84420972
0.7699503
0.074259421
0.29064297
-0.14445777
-0.051485838
0.47830524
-0.4268194
-0.72516335
1.329275
-0.60411166
0.45026695
0.83482791
1.1901082
-0.52456476
0.51398572
0.34912862
-0.53373173
0.40290724
0.99101543
-1.1477606
-0.46436696
0.34849723
0.84565761
0.39452611
0.78914047
-1.622734
0.83359351
0.4653001
0.25312363
-0.20261222
-0.46056404
0.70399632
1.1970078
-1.1970078
-0.33859721
-0.19323129
1.0304191
0.11850635
-0.56598773
-0.058648918
0.96257372
-0.9039248
-0.61146425
1.4417492
-0.6384508
1.4157669
1.2719736
-0.72915012
-0.54282352
0.62893865
0.458293
-0.78775531
0.89840654
-1.1797678
0.2813613
0.88551119
-0.88003098
0.13653857
-0.067445135
-1.0288658
1.0963109
1.4775
0.24888786
-1.7263878
-0.82940205
1.2652565
-0.62359154
0.70908526
-0.64250641
0.72790192
-0.057655132
0.71801624
0.012201908
0.5524754
-0.56467731
-0.86556732
-0.039239013
0.90480634
0.54137457
-1.2665379
-1.3537694
1.2951205
0.90026207
0.4076038
-1.3078659
-0.11043638
-0.52175916
0.63219554
-0.5655941
1.109737
-0.91444148
0.34277058
0.57167089
0.57095671
-0.49152546
0.13659477
-0.79486957
0.6582748
0.99736949
-1.1088855
0.11151599
0.87614261
0.39583103
-1.5160699
0.79576833
0.074573192
1.0834644
0.96568765
0.73709718
-1.3431286
-0.14870319
0.58866495
-1.0537785
0.8347817
0.21899678
-1.0784091
0.96797277
0.57475487
0.72521584
-1.2999707
0.91011449
0.016612497
-0.64545998
0.78205475
-0.31084677
-0.74293172
-0.17459152
-0.33623214
0.51082366
0.45587136
-0.73831722
0.28244586
0.14936888
0.4379259
-0.58729478
-1.0165574
0.25945421
0.75710316
0.16076719
1.1976791
-1.3584462
-0.94427077
-0.45649164
1.4007624
0.24729574
0.71011737
-0.25202338
3.3782499e-06
0.25202
-0.9522515
-0.18732758
1.1991662
-1.0901326
1.0949248
-0.097555282
-0.78573488
-0.44994848
1.2356834
-0.68253882
-0.2962896
0.97882842
-0.12034749
0.47632763
-0.35598014
-0.05187464
0.88665634
-0.42945931
-0.51974552
0.94920483
0.55877636
0.0044385611
-0.56321492
-0.79425044
0.72523339
0.069017056
-0.99908981
0.55645397
0.44263584
-0.88791534
0.57706857
0.57454366
-1.1535125
1.4774999
0.1756608
0.39314834
-0.56880914
1.4533346
-1.1620377
-0.29129685
-1.0757526
1.1905019
-0.47683066
-0.88131091
-0.24344723
0.051205113
-0.84046532
0.78926021
-1.0748814
1.2356486
0.57469649
-1.1183927
0.54369618
0.54804712
0.73980228
-1.2878494
-0.68120274
0.53480349
-0.70939501
0.34309074
-0.39457657
-1.1677032
-0.5163326
1.0445288
-0.11443975
1.0817902
-0.89350831
-0.18828193
0.87399452
0.71944973
-1.5934442
0.20588409
-0.69490957
-0.010233335
0.19086751
-0.18063418
-0.41504321
0.59070401
-0.51232115
1.3863157
-1.3782961
1.3656035
0.01269258
-0.14009239
0.61839763
0.029741757
-0.28176513
0.3771704
-0.38870438
0.011533978
0.29205903
-1.3893092
1.0972501
-0.46536615
-0.035288408
0.50065456
-0.13855235
-0.70176033
0.84031268
0.61875101
0.29136347
0.25362511
1.0993713
-1.3529964
-0.62193666
0.28570451
1.0297521
0.23144273
-1.2611949
0.029280907
1.1683981
0.5807535
0.46045703
1.3263084
-0.26279064
-1.0635177
-0.50317702
-0.12608419
-1.1673271
0.38156858
0.78575852
0.1147855
-0.58851934
0.47373385
-0.82036732
0.81674891
0.0036184095
-0.19209987
1.1555899
1.1640909
-1.7319664
0.5678755
0.63013956
0.31761765
-0.94775722
-0.45238007
-0.042080657
0.49446073
-0.13137075
-0.35876107
0.49013182
0.44058209
0.081029888
1.3723047
-0.47445463
1.0491511
0.36373124
-0.18767361
0.90535069
0.23217373
-1.1375244
0.4664785
-0.4542766
-0.82893907
0.39947976
1.5054676
-0.12504348
1.268817
-1.1437735
0.11785451
-1.2354018
-1.4386377
0.81253269
0.62610501
1.4397811
-0.42035083
-0.759417
-1.0828348
-0.21425469
-0.84373515
1.1048561
-0.57614377
-0.69050371
1.1854628
-0.96836632
-1.1223759
1.2320245
-0.1096486
-0.8425374
0.88256556
-0.39404462
-0.40020582
0.11369695
0.96809329
-0.031424484
-0.81278524
-0.57512208
-0.33931939
-0.18306274
1.2484972
-1.0654344
-0.48298202
0.59776751
-0.8932381
0.92844226
-0.035204165
0.0026634522
-1.195317
1.1926536
0.92363923
-0.075082622
-0.84855661
0.50841403
-0.52296086
0.014546829
1.014415
-1.1501997
0.13578469
0.078025937
0.89856036
-0.9765863
0.72685389
-0.61219046
-0.11466343
-0.45243106
0.2983302
0.15410086
0.17311267
-0.33856651
-0.0046097223
-0.93966105
-0.092578329
-0.90425612
-1.1652055
1.2463405
-1.243677
-0.57718648
-0.24671532
-0.35962245
0.15894662
0.20067582
0.72593198
-0.6170986
-0.10883338
0.2150674
-1.0603699
0.84530246
0.0021195324
0.37505087
-0.43278116
-0.032584994
0.65495826
-0.03620725
-0.67553584
-0.94719813
0.77370618
-0.20246907
0.31537359
-1.6359986
1.320625
1.063903
-0.59432557
-0.46957739
-0.12958072
-0.69852135
0.82810207
-0.6460452
0.32901129
-0.6211879
0.52640524