/*--------------------------------*- C++ -*----------------------------------*\
| =========                 |                                                 |
| \\      /  F ield         | foam-extend: Open Source CFD                    |
|  \\    /   O peration     | Version:     4.1                                |
|   \\  /    A nd           | Web:         http://www.foam-extend.org         |
|    \\/     M anipulation  |                                                 |
\*---------------------------------------------------------------------------*/
FoamFile
{
    version     2.0;
    format      ascii;
    class       volVectorField;
    location    "0.2";
    object      U;
}
// * * * * * * * * * * * * * * * * * * * * * * * * * * * * * * * * * * * * * //

dimensions      [0 1 -1 0 0 0 0];

internalField   nonuniform List<vector> 
4242
(
(163.56458 167.59733 3.5599351e-15)
(178.68312 147.04336 1.0580397e-17)
(173.72887 146.498 -1.846035e-15)
(174.05624 142.05059 1.4941166e-15)
(173.01708 138.37967 1.9536055e-17)
(172.11808 134.00365 8.6433035e-18)
(171.11104 129.11421 0)
(169.99431 123.69461 5.1160814e-16)
(168.77136 117.73329 -8.3056234e-16)
(167.45351 111.23776 3.2718249e-16)
(166.06902 104.24135 -2.1440382e-16)
(164.66165 96.808819 1.8189124e-16)
(163.29948 89.032465 1.8572687e-17)
(162.13566 80.98669 -2.5805941e-17)
(161.42676 72.7742 -5.2574505e-17)
(161.04947 64.988802 0)
(188.85497 155.46096 0)
(206.5302 127.92727 -2.2220563e-17)
(199.97304 129.93488 2.1315709e-15)
(199.57161 125.85228 -1.7329479e-15)
(197.76051 122.79442 -3.0972111e-17)
(196.09463 118.9882 1.0267781e-15)
(194.25196 114.794 -4.9103723e-17)
(192.26655 110.14529 -1.2913478e-15)
(190.1425 105.03481 1.0361751e-16)
(187.88816 99.471379 4.031792e-16)
(185.52295 93.48311 0)
(183.07752 87.123474 -3.189931e-17)
(180.60106 80.471429 -3.4105602e-17)
(178.2016 73.592675 -1.9578432e-16)
(176.04776 66.543426 2.6989039e-16)
(173.98749 59.673499 3.5977827e-17)
(214.29151 142.3304 -6.3835838e-17)
(235.60151 104.94574 -6.9359149e-15)
(227.07045 111.40312 2.7970601e-15)
(226.2115 107.28612 -1.9079919e-17)
(223.62271 104.99263 -1.6839847e-15)
(221.13269 101.86785 1.3775979e-15)
(218.35084 98.465102 -1.8948627e-17)
(215.33629 94.653708 2.9813624e-17)
(212.09077 90.435431 -1.3530071e-17)
(208.63113 85.814469 -3.6216996e-17)
(204.98972 80.812353 3.7765379e-16)
(201.21498 75.473337 -2.8472178e-16)
(197.37316 69.867556 -4.5783962e-16)
(193.55537 64.077784 4.0597507e-16)
(189.85459 58.222485 -5.2010842e-17)
(186.3329 52.437229 -1.4963791e-16)
(236.8855 124.10725 -1.1422888e-17)
(261.09737 74.907919 -8.8350048e-18)
(250.85394 87.108406 -1.6880459e-15)
(249.84402 82.300447 1.4227745e-15)
(246.60274 81.045634 -1.8378651e-17)
(243.43871 78.756206 8.7994848e-16)
(239.86603 76.349522 -6.7031744e-16)
(235.96075 73.611859 -1.0790659e-15)
(231.7164 70.564863 6.4512955e-17)
(227.15395 67.205026 1.384855e-15)
(222.31523 63.545063 -5.439696e-16)
(217.26605 59.614753 0)
(212.09694 55.46294 3.3381711e-17)
(206.91123 51.163341 -2.5894984e-16)
(201.75636 46.88739 1.3200639e-16)
(196.63077 42.633957 -2.7336068e-16)
(251.68375 100.48739 1.1422888e-17)
(277.63744 38.439303 -2.3717926e-15)
(266.30911 57.455281 2.0162689e-15)
(265.34998 51.297784 -1.1767283e-17)
(261.69437 51.47248 2.948955e-17)
(258.15961 50.09301 -8.4366271e-18)
(254.134 48.849534 -8.5369026e-16)
(249.71234 47.380405 1.9332259e-17)
(244.87844 45.743337 5.1289419e-16)
(239.65291 43.922864 -3.9596521e-16)
(234.07916 41.921001 3.3373452e-16)
(228.2287 39.748106 0)
(222.20235 37.422885 1.9936517e-16)
(216.11807 34.969525 -1.4775927e-16)
(210.04486 32.45966 4.698895e-17)
(204.03824 29.5743 0)
(257.18886 72.509688 -1.6485287e-15)
(282.94453 -0.43149796 6.517838e-16)
(272.11057 24.414365 1.0474364e-15)
(270.99032 17.217895 -8.5093278e-16)
(267.29063 18.897111 1.8571649e-18)
(263.67667 18.476232 2.9419848e-16)
(259.56079 18.47035 2.333786e-16)
(255.03066 18.360981 -1.0225252e-17)
(250.06762 18.240505 -9.4749864e-18)
(244.68922 18.082491 -3.3412076e-16)
(238.93589 17.878811 3.5217494e-16)
(232.87662 17.619411 -1.3353234e-17)
(226.61028 17.294708 -3.641202e-17)
(220.25673 16.885655 -8.292162e-17)
(213.88733 16.479712 -5.653311e-20)
(207.63335 15.49317 3.890633e-17)
(252.62817 42.757972 -8.4582832e-16)
(276.74337 -37.847819 -5.9632092e-16)
(268.15258 -9.6737227 1.5456359e-15)
(266.55628 -16.662527 -8.2556485e-16)
(263.20748 -13.92468 3.4918731e-16)
(259.7722 -13.28416 3.2580089e-20)
(255.90512 -12.091828 4.3170374e-16)
(251.64566 -10.849724 -1.9575054e-16)
(246.98336 -9.4736307 -2.5226786e-17)
(241.93259 -7.9903302 9.4424495e-17)
(236.52978 -6.4178197 -1.5263837e-16)
(230.8372 -4.7851771 1.2156033e-16)
(224.94426 -3.1282504 -3.4355902e-17)
(218.95947 -1.512783 -1.4676326e-16)
(212.94664 0.16564386 5.822802e-17)
(207.01087 1.037991 7.5438856e-17)
(237.54858 14.053208 -1.9826546e-17)
(259.50519 -70.52931 2.3435405e-15)
(254.60044 -42.153801 -1.9545721e-15)
(252.54081 -47.612553 1.5048436e-15)
(249.8039 -44.37479 -1.2650916e-15)
(246.82733 -42.639213 0)
(243.52808 -40.359195 7.768834e-16)
(239.90264 -37.867776 -6.303486e-16)
(235.94873 -35.116506 -1.3315868e-17)
(231.67882 -32.128634 0)
(227.12379 -28.932984 -5.4490536e-17)
(222.33502 -25.577192 2.7230005e-17)
(217.38614 -22.12186 -1.8547122e-16)
(212.36385 -18.679316 3.5801274e-16)
(207.33319 -15.146026 -2.5642175e-16)
(202.34345 -12.392891 -7.053861e-17)
(211.85351 -10.487946 1.4022879e-17)
(232.16728 -95.230267 -8.9274573e-18)
(232.02829 -70.18369 0)
(230.02716 -73.104027 3.0930923e-17)
(228.05151 -69.813384 1.5589612e-17)
(225.83291 -67.101423 8.7200709e-16)
(223.40609 -63.91468 -7.4500298e-16)
(220.76019 -60.389518 0)
(217.89766 -56.50612 3.7882679e-18)
(214.82856 -52.285993 -3.8107147e-17)
(211.57466 -47.767138 3.411846e-17)
(208.17079 -43.011012 1.9284873e-17)
(204.66796 -38.093748 3.9879599e-17)
(201.12211 -33.151698 2.4526747e-16)
(197.59732 -28.110246 -2.9626597e-16)
(194.0836 -23.717781 1.6671953e-16)
(175.36579 -27.179106 0)
(195.54397 -108.14118 3.7411255e-15)
(201.03002 -90.531637 -5.8347973e-15)
(200.38388 -90.692536 2.2958413e-15)
(199.42207 -87.595445 -1.5454241e-17)
(198.27932 -84.227852 -4.3912547e-17)
(197.02278 -80.415165 1.117185e-15)
(195.66965 -76.203249 -9.1198112e-16)
(194.23354 -71.580409 -6.1239275e-16)
(192.72212 -66.566593 5.7151592e-16)
(191.14351 -61.205024 0)
(189.50795 -55.563748 -3.5447003e-16)
(187.83145 -49.724033 2.0629958e-16)
(186.1219 -43.817037 0)
(184.40655 -37.790779 0)
(182.63126 -32.063331 0)
(130.27477 -33.033523 1.1808104e-14)
(153.48612 -108.5781 -3.2013844e-15)
(164.62517 -100.56442 0)
(167.22406 -99.242259 -1.1364699e-17)
(168.03747 -96.528763 -1.2862867e-15)
(168.3584 -92.993603 1.1021194e-15)
(168.47411 -88.915758 7.8746715e-16)
(168.51265 -84.406323 -1.8136137e-17)
(168.55038 -79.476088 -5.7037744e-16)
(168.62091 -74.149481 2.9328871e-17)
(168.73221 -68.478132 0)
(168.87451 -62.539977 -4.6769299e-16)
(169.0249 -56.428093 9.0687013e-17)
(169.13201 -50.277077 3.0074936e-16)
(169.13635 -44.121952 0)
(169.45083 -37.224668 3.3399771e-17)
(39.410971 9.4856624 5.1719092e-17)
(73.116164 -59.994709 4.8401043e-15)
(99.198812 -75.512742 -1.6507616e-15)
(112.83579 -81.589197 -1.1973439e-15)
(119.90582 -83.388743 9.553538e-16)
(124.47566 -82.759682 -7.5496148e-16)
(128.12064 -80.690035 6.2729181e-16)
(131.42614 -77.73464 4.4672747e-16)
(134.66375 -74.152132 -4.0450913e-16)
(137.94852 -70.071611 0)
(141.28982 -65.58221 0)
(144.62739 -60.767676 0)
(147.86198 -55.711186 2.6310378e-17)
(150.86978 -50.517192 0)
(153.46502 -45.376003 1.603245e-16)
(156.18529 -39.272302 -2.9485452e-16)
(104.29821 -148.53308 1.1319738e-15)
(130.02065 -143.21348 8.7450835e-19)
(132.60969 -149.64666 -5.6236579e-16)
(132.56301 -145.72562 4.4038301e-16)
(132.47738 -141.94596 5.1308623e-19)
(132.42032 -137.57212 9.2495046e-18)
(132.4255 -132.60839 0)
(132.5216 -127.01948 8.3948299e-17)
(132.73021 -120.77842 -1.0165825e-16)
(133.07748 -113.89373 4.0983697e-17)
(133.58503 -106.41129 -7.0272436e-18)
(134.26512 -98.414734 5.9115634e-18)
(135.13923 -90.012559 -2.2356328e-17)
(136.26216 -81.312906 1.0110014e-17)
(137.56924 -72.518826 1.1082648e-17)
(138.51622 -64.347612 0)
(82.557929 -142.24126 0)
(93.888847 -133.20396 2.7261726e-18)
(93.13578 -131.51742 -3.2745399e-16)
(94.180717 -128.56294 2.5689836e-16)
(95.382406 -125.29629 3.2963481e-18)
(96.850172 -121.58859 -2.1852214e-16)
(98.594405 -117.39534 -1.5847036e-17)
(100.62643 -112.68137 3.2853338e-16)
(102.95302 -107.42386 -7.8121208e-18)
(105.57279 -101.61697 -1.2420242e-16)
(108.47182 -95.277872 0)
(111.62177 -88.451629 1.7666627e-17)
(114.99015 -81.206642 1.0594313e-17)
(118.55462 -73.620167 1.2446979e-16)
(122.24729 -65.79941 -1.6592396e-16)
(125.76164 -58.037141 -2.9479284e-17)
(54.321256 -122.51837 -1.5055953e-17)
(61.657026 -116.83131 3.2722898e-15)
(62.305581 -114.57986 -1.2504347e-15)
(63.908464 -111.84469 9.9044129e-18)
(65.848349 -108.8215 7.9367911e-16)
(68.155508 -105.43844 -6.2507851e-16)
(70.854458 -101.64726 1.0223709e-17)
(73.967126 -97.412212 -1.6640094e-17)
(77.508493 -92.710866 2.3506972e-18)
(81.480967 -87.538063 2.2125787e-17)
(85.868329 -81.911029 -2.3761592e-16)
(90.635145 -75.872133 1.7903838e-16)
(95.7423 -69.48449 3.3218618e-16)
(101.1629 -62.827487 -2.948789e-16)
(106.80287 -56.030706 3.900917e-17)
(112.24924 -49.368163 1.3523762e-16)
(30.451095 -95.148609 9.3757068e-18)
(34.563351 -91.325714 6.728649e-18)
(36.093032 -89.029791 1.145357e-15)
(38.206831 -86.652013 -8.9223104e-16)
(40.791845 -84.098564 1.1840311e-17)
(43.859899 -81.304726 -5.5156736e-16)
(47.438998 -78.227092 4.0454423e-16)
(51.554566 -74.83626 6.929075e-16)
(56.221434 -71.115082 -1.2577975e-17)
(61.435542 -67.060165 -9.1971977e-16)
(67.166308 -62.684488 3.6558765e-16)
(73.358101 -58.017817 0)
(79.949481 -53.102683 -2.4806639e-17)
(86.87852 -47.996162 2.1196248e-16)
(93.9671 -42.802531 -1.0704394e-16)
(100.67394 -37.712182 2.5093799e-16)
(13.839651 -63.956556 -1.1899896e-17)
(15.770877 -60.185489 2.2985499e-15)
(17.777233 -57.69438 -1.6596872e-15)
(20.289029 -55.513253 8.7694775e-18)
(23.346594 -53.398079 -2.1000795e-17)
(26.972431 -51.248019 5.8756108e-18)
(31.200674 -49.009523 6.0373e-16)
(36.063369 -46.651686 6.2436055e-18)
(41.580064 -44.15736 -3.4976204e-16)
(47.747815 -41.519334 2.8837251e-16)
(54.534208 -38.739095 -2.3678678e-16)
(61.88312 -35.824703 0)
(69.737395 -32.784628 -1.5855475e-16)
(78.023704 -29.624759 1.1635061e-16)
(86.449881 -26.380643 -4.0000802e-17)
(94.155011 -23.205381 0)
(214.33498 -142.31664 0)
(235.62326 -104.96018 3.4388511e-15)
(227.12133 -111.40706 -5.5201798e-15)
(226.27718 -107.30724 2.241217e-15)
(223.71828 -105.02331 1.5145787e-17)
(221.25758 -101.91275 4.805974e-18)
(218.50285 -98.522149 1.0335354e-15)
(215.50621 -94.719341 -8.7661363e-16)
(212.26173 -90.502507 -6.2695628e-16)
(208.77846 -85.872715 4.7198376e-16)
(205.08428 -80.849176 0)
(201.23147 -75.477513 -2.4315177e-16)
(197.30389 -69.836408 1.9144861e-16)
(193.42795 -64.019112 0)
(189.74669 -58.128791 0)
(186.3259 -52.296114 0)
(5.3725708 -37.917195 2.5019235e-15)
(6.6346756 -32.630794 -7.3128954e-16)
(9.2846956 -29.454687 -9.8465123e-16)
(12.460865 -27.01306 7.1276068e-16)
(16.128105 -24.934232 6.7058207e-18)
(20.306299 -23.065066 -2.1503658e-16)
(25.023737 -21.327221 -1.7247887e-16)
(30.305241 -19.67439 2.0090772e-18)
(36.16543 -18.079388 2.2037917e-18)
(42.602097 -16.521236 2.4740503e-16)
(49.589645 -14.978595 -2.6464981e-16)
(57.075822 -13.432896 4.6839945e-18)
(64.983261 -11.865532 2.4998704e-17)
(73.206321 -10.25097 6.7126309e-17)
(81.579354 -8.5573944 4.8880845e-20)
(89.806709 -6.8119896 -3.6756204e-17)
(5.4441594 37.785263 1.2341873e-15)
(6.7245666 32.411805 7.2212143e-16)
(9.4121189 29.272051 -1.4638111e-15)
(12.634433 26.890978 7.0599745e-16)
(16.350654 24.879515 -2.7511314e-16)
(20.578287 23.077958 -2.5126719e-20)
(25.343103 21.403921 -3.3191375e-16)
(30.666791 19.807797 1.396659e-16)
(36.560301 18.259482 1.4787415e-17)
(43.017571 16.735726 -7.8815198e-17)
(50.009791 15.214089 1.176841e-16)
(57.483359 13.676535 -1.0221361e-16)
(65.361003 12.106958 2.4875723e-17)
(73.532349 10.485455 1.2943544e-16)
(81.80995 8.7949887 -5.2188571e-17)
(89.860758 7.0981425 -7.4394129e-17)
(13.9228 64.256051 1.8555651e-17)
(15.85857 60.524405 -2.3058411e-15)
(17.893812 58.066906 1.6518284e-15)
(20.436204 55.905075 -1.2208167e-15)
(23.522891 53.796041 9.5176934e-16)
(27.175112 51.639985 0)
(31.4254 49.384072 -5.8185478e-16)
(36.303886 46.997883 4.5460628e-16)
(41.827808 44.464563 9.2874526e-18)
(47.991443 41.77695 0)
(54.759517 38.936207 4.14239e-17)
(62.074116 35.949449 -2.1176252e-17)
(69.876727 32.822459 1.5476024e-16)
(78.084254 29.552757 -3.0630536e-16)
(86.375114 26.154862 2.1981439e-16)
(93.88013 22.765368 6.4469046e-17)
(30.562429 95.615543 -9.3391785e-18)
(34.698097 91.818014 6.7068371e-18)
(36.234643 89.538195 0)
(38.344601 87.16073 -1.8738364e-17)
(40.91759 84.593762 -8.7326272e-18)
(43.965258 81.77416 -5.4945214e-16)
(47.514648 78.65955 4.55168e-16)
(51.589853 75.221302 0)
(56.203968 71.443011 -4.4403047e-18)
(61.350186 67.322278 2.3793992e-17)
(66.993799 62.873651 -2.4597562e-17)
(73.078221 58.128018 -1.1438007e-17)
(79.558779 53.122678 -3.1017919e-17)
(86.411476 47.892986 -1.968207e-16)
(93.429607 42.521015 2.3989719e-16)
(99.781271 37.292471 -1.4014838e-16)
(54.394372 122.88037 0)
(61.789719 117.18511 -1.6399204e-15)
(62.423955 114.9418 2.4991561e-15)
(64.00399 112.19875 -9.6663927e-16)
(65.910007 109.15544 7.8341734e-18)
(68.171897 105.74111 1.9321297e-17)
(70.81363 101.90812 -5.3514187e-16)
(73.856777 97.621334 4.2772487e-16)
(77.316601 92.859404 3.2462882e-16)
(81.196069 87.619639 -3.0086551e-16)
(85.47916 81.924572 0)
(90.136916 75.823186 2.2172862e-16)
(95.169564 69.376115 -1.3019818e-16)
(100.63975 62.647947 0)
(106.44517 55.827276 0)
(111.64714 49.53459 0)
(82.565866 142.43787 -8.67798e-16)
(93.981032 133.36401 3.4071165e-16)
(93.201735 131.68415 0)
(94.224251 128.71411 -6.1073602e-19)
(95.392437 125.422 2.4566236e-16)
(96.817113 121.67935 -2.0339497e-16)
(98.509748 117.44254 -1.9129837e-16)
(100.48389 112.67782 -1.4004591e-17)
(102.75074 107.36488 1.5477094e-16)
(105.31629 101.5024 -1.264292e-17)
(108.17791 95.115338 0)
(111.32754 88.258353 1.9460328e-16)
(114.77298 81.006802 -2.8059493e-17)
(118.54117 73.456821 -1.3674527e-16)
(122.54859 65.800068 0)
(126.4729 58.365048 -1.3770722e-17)
(104.14706 148.53158 4.2140224e-17)
(130.04015 143.21663 1.6548038e-15)
(132.62818 149.71184 -6.0982675e-16)
(132.56291 145.76781 -4.0041995e-16)
(132.45191 141.96707 3.1864732e-16)
(132.36287 137.56527 -1.9621422e-16)
(132.33137 132.56873 1.4545127e-16)
(132.38955 126.94512 8.528919e-17)
(132.56466 120.67176 -8.4060099e-17)
(132.89127 113.76336 0)
(133.40244 106.27491 0)
(134.12505 98.301173 0)
(135.09806 89.961325 1.1161835e-17)
(136.38525 81.37499 0)
(137.88856 72.747609 -3.1750384e-17)
(138.91495 64.712103 7.4217046e-17)
(39.405654 -9.4777573 5.5817645e-15)
(73.165297 60.027612 1.1396344e-17)
(99.255684 75.578955 -1.619068e-15)
(112.90889 81.682549 1.248209e-15)
(119.98767 83.503256 1.798719e-17)
(124.56501 82.894764 6.3286185e-18)
(128.21544 80.84467 0)
(131.52213 77.906093 4.6622279e-16)
(134.75307 74.334338 -7.7379726e-16)
(138.01829 70.254312 3.1051027e-16)
(141.32155 65.75098 -2.274319e-16)
(144.59773 60.905665 1.9293696e-16)
(147.74624 55.801384 1.6037849e-17)
(150.63925 50.561864 -3.2581379e-17)
(153.15195 45.289805 -8.3019356e-17)
(156.16949 38.372972 0)
(130.26742 33.025738 0)
(153.45986 108.51757 -2.473353e-17)
(164.61959 100.56298 2.2253387e-15)
(167.24066 99.250483 -1.7322892e-15)
(168.07222 96.555614 -2.984706e-17)
(168.41157 93.039176 1.0275143e-15)
(168.54508 88.979429 -3.9383428e-17)
(168.59743 84.485182 -1.3134849e-15)
(168.64003 79.564032 9.7062971e-17)
(168.70073 74.236488 4.2015963e-16)
(168.78233 68.550437 0)
(168.8733 62.581245 -3.5215562e-17)
(168.95715 56.418894 -3.9861565e-17)
(168.99473 50.203114 -2.3944381e-16)
(168.98174 43.886862 3.337433e-16)
(168.93104 37.551441 4.5108051e-17)
(175.37141 27.181947 -9.492249e-17)
(195.53004 108.09895 -7.5554116e-15)
(201.03801 90.538019 2.9553427e-15)
(200.41153 90.695021 -1.9592151e-17)
(199.47022 87.61342 -1.7558817e-15)
(198.35056 84.25881 1.4295148e-15)
(197.11649 80.459138 -1.9331674e-17)
(195.78066 76.25764 3.047341e-17)
(194.35085 71.6402 -1.4255326e-17)
(192.82856 66.62416 -3.7322404e-17)
(191.2173 61.25109 4.050295e-16)
(189.52772 55.589431 -3.0460247e-16)
(187.78581 49.72265 -5.0481345e-16)
(186.01538 43.799436 4.4752741e-16)
(184.28373 37.720664 -6.1657272e-17)
(182.43442 32.354577 -1.8234427e-16)
(211.86879 10.498838 -1.4035382e-17)
(232.16219 95.200719 -8.9339088e-18)
(232.04716 70.195432 -1.7140646e-15)
(230.06263 73.10666 1.4228532e-15)
(228.10984 69.830166 -1.80137e-17)
(225.91659 67.126787 8.7233982e-16)
(223.51364 63.949608 -6.6057865e-16)
(220.88481 60.431624 -1.067292e-15)
(218.02615 56.551621 5.876821e-17)
(214.94126 52.329467 1.37176e-15)
(211.64804 47.802591 -5.3924243e-16)
(208.18397 43.033404 0)
(204.61336 38.1008 3.4706615e-17)
(201.01271 33.154734 -2.6795439e-16)
(197.4791 28.059739 1.370661e-16)
(193.97585 23.882726 -2.9083419e-16)
(237.57196 -14.036775 1.2875978e-17)
(259.50722 70.50863 -2.327539e-15)
(254.62825 42.167733 1.9555586e-15)
(252.58368 47.615834 -1.1397111e-17)
(249.87211 44.390191 2.8148111e-17)
(246.92191 42.659434 -7.8967756e-18)
(243.64662 40.386172 -8.0215027e-16)
(240.03666 37.899573 1.6463327e-17)
(236.0829 35.150979 4.7830778e-16)
(231.79123 32.162826 -3.7090532e-16)
(227.18941 28.964092 3.1218961e-16)
(222.33351 25.60362 0)
(217.31338 22.145673 1.8890268e-16)
(212.2399 18.71086 -1.405353e-16)
(207.20251 15.140388 4.6528991e-17)
(202.25522 12.605621 0)
(252.6573 -42.738495 -1.7059069e-15)
(276.75054 37.832521 6.4459584e-16)
(268.18729 9.6871733 1.0268092e-15)
(266.60558 16.664434 -8.2588223e-16)
(263.28423 13.935477 1.5734941e-18)
(259.87584 13.296069 2.8158967e-16)
(256.03264 12.107456 2.2239583e-16)
(251.7872 10.867916 -9.5672058e-18)
(247.1219 9.4941059 -8.8307412e-18)
(242.0445 8.0126325 -3.1505011e-16)
(236.58899 6.4419207 3.3145825e-16)
(230.82402 4.811889 -1.2341322e-17)
(224.85771 3.1607072 -3.4371032e-17)
(218.82468 1.5515431 -7.7951924e-17)
(212.80625 -0.16029867 -5.2333967e-20)
(206.92842 -0.83899729 3.6778085e-17)
(257.22308 -72.489091 -8.1840912e-16)
(282.95685 0.41979744 -6.0368629e-16)
(272.1516 -24.403406 1.57817e-15)
(271.04622 -17.219135 -8.5123267e-16)
(267.37549 -18.893838 3.627096e-16)
(263.78893 -18.475573 3.4240754e-20)
(259.69711 -18.469482 4.5314454e-16)
(255.18027 -18.359911 -2.0654826e-16)
(250.21247 -18.23754 -2.6677331e-17)
(244.80464 -18.07549 9.9940945e-17)
(238.9952 -17.865032 -1.6256037e-16)
(232.86073 -17.595827 1.2923606e-16)
(226.52037 -17.259206 -3.642615e-17)
(220.12047 -16.847531 -1.5623256e-16)
(213.7501 -16.458693 6.1979583e-17)
(207.56624 -15.311138 7.9092245e-17)
(251.72268 -100.46743 -1.7721283e-17)
(277.6555 -38.44808 2.3907395e-15)
(266.35563 -57.448476 -2.0173824e-15)
(265.41232 -51.303203 1.5734044e-15)
(261.78629 -51.478725 -1.3348882e-15)
(258.27947 -50.105484 0)
(254.27828 -48.865744 8.2693544e-16)
(249.86997 -47.398935 -6.744538e-16)
(245.03098 -45.7606 -1.3624531e-17)
(239.77529 -43.934106 0)
(234.14448 -41.920648 -5.7757695e-17)
(228.21811 -39.731202 2.8422735e-17)
(222.11744 -37.389749 -1.9452522e-16)
(215.98714 -34.934285 3.7649799e-16)
(209.92107 -32.419593 -2.6637953e-16)
(203.98299 -29.435109 -7.2285511e-17)
(236.92856 -124.09054 1.1429919e-17)
(261.12019 -74.91758 -8.8402939e-18)
(250.90529 -87.106275 0)
(249.91108 -82.312921 -7.8586863e-18)
(246.69968 -81.063426 -1.5464417e-17)
(243.56416 -78.784158 8.31033e-16)
(240.01677 -76.385248 -7.1725515e-16)
(236.12618 -73.652666 0)
(231.87844 -70.605282 5.3270385e-17)
(227.28754 -67.237569 3.7724478e-17)
(222.39285 -63.560947 3.5008021e-17)
(217.26714 -59.60673 -7.114571e-17)
(212.02052 -55.431972 4.0467734e-17)
(206.78597 -51.122516 2.399398e-16)
(201.64606 -46.828248 -2.8527573e-16)
(196.59567 -42.510625 1.6066834e-16)
(188.88876 -155.44731 7.4918256e-15)
(206.53865 -127.94502 -2.8453209e-15)
(200.01079 -129.94175 0)
(199.62231 -125.87775 -1.2224247e-17)
(197.84085 -122.8324 -1.2912188e-15)
(196.20556 -119.04366 1.1143546e-15)
(194.39318 -114.86599 7.7880469e-16)
(192.43142 -110.23061 -2.635501e-17)
(190.31664 -105.12603 -5.5663451e-16)
(188.04802 -99.556926 2.7548861e-17)
(185.63701 -93.547487 0)
(183.11259 -87.150236 -4.1462579e-16)
(180.53778 -80.448661 9.2596677e-17)
(178.06172 -73.514104 2.5685948e-16)
(175.91585 -66.393198 0)
(173.93671 -59.454041 2.305021e-17)
(163.58553 -167.55484 3.6796908e-17)
(178.66167 -147.04677 4.9785781e-15)
(173.73975 -146.48581 -1.9104712e-15)
(174.07825 -142.05769 -1.4193509e-15)
(173.06921 -138.40112 1.149809e-15)
(172.2034 -134.04514 -8.7833126e-16)
(171.23173 -129.17694 7.2633072e-16)
(170.14702 -123.77763 4.9251664e-16)
(168.9453 -117.83115 -4.4419527e-16)
(167.62762 -111.34031 0)
(166.21076 -104.33252 0)
(164.7301 -96.867477 0)
(163.25946 -89.036877 1.7301897e-17)
(161.98799 -80.925369 0)
(161.23733 -72.662281 1.0457219e-16)
(160.93623 -64.806489 -1.7790453e-16)
(-39.367023 61.36957 1.0879637e-15)
(20.175816 -13.800287 2.0309006e-18)
(47.294816 -35.926971 -2.1263113e-16)
(66.301375 -47.62712 1.4076824e-16)
(80.641238 -53.672978 1.9341454e-18)
(91.724072 -56.252963 5.0353731e-18)
(100.48565 -56.759303 0)
(107.63726 -56.054081 7.3055707e-17)
(113.67388 -54.654644 -1.2660815e-16)
(118.92052 -52.872085 6.1090593e-17)
(123.59458 -50.879383 -6.5867951e-17)
(127.83421 -48.742389 5.7311235e-17)
(131.7167 -46.443999 -8.6768324e-18)
(135.30502 -43.903131 -1.1068407e-17)
(138.53585 -41.148361 -4.6953416e-17)
(142.02335 -37.729891 0)
(-18.465453 45.393827 0)
(-23.898326 36.94792 -7.0733976e-18)
(-3.7188665 16.051869 5.2250733e-16)
(17.673938 -4.4309377 -3.2860983e-16)
(38.888298 -22.909287 -4.6153814e-18)
(56.541508 -35.046812 1.4901693e-16)
(71.455554 -42.425629 1.414077e-18)
(84.066526 -46.621487 -1.7726795e-16)
(94.570874 -48.690365 5.9862034e-18)
(103.24754 -49.300534 6.3119527e-17)
(110.40402 -48.903401 0)
(116.26597 -47.78356 -5.5041703e-18)
(121.02536 -46.090061 -1.1775471e-17)
(124.93456 -43.859465 -5.8498207e-17)
(128.23307 -41.130665 8.7034863e-17)
(131.64189 -37.626365 8.0397383e-18)
(-16.901893 52.55954 -1.0605949e-17)
(-23.384416 43.810513 -2.4778117e-15)
(-19.917618 41.405429 1.0654948e-15)
(-17.30071 39.962713 -6.4041444e-18)
(-14.637313 38.976004 -5.4405836e-16)
(-1.5085736 25.240792 3.402481e-16)
(15.466223 7.681846 -3.698135e-18)
(34.262571 -9.916271 5.1430266e-18)
(52.032205 -23.477125 -3.0515735e-18)
(67.706702 -32.548394 -5.4078392e-18)
(81.0872 -38.44089 5.6142945e-17)
(91.909921 -41.990545 -3.9115084e-17)
(100.24767 -43.395894 -6.9608703e-17)
(106.60403 -42.940883 6.0635389e-17)
(111.54619 -40.988208 -1.2050052e-17)
(116.56658 -37.347156 -2.6750854e-17)
(-13.492915 56.664585 -2.4740946e-18)
(-16.629462 49.921 -2.1065294e-18)
(-15.138897 46.763521 -5.184472e-16)
(-13.830178 44.15555 4.4479537e-16)
(-12.746865 41.748866 -5.0199764e-18)
(-11.321953 39.587123 3.1554836e-16)
(-8.7556927 37.914944 -2.282248e-16)
(-5.4187159 36.297619 -3.7865973e-16)
(4.9374401 26.286695 -9.6606434e-18)
(20.564049 10.099023 3.6369182e-16)
(38.616459 -7.5740025 -1.2609225e-16)
(52.094688 -21.765883 0)
(62.948003 -31.616252 6.1091186e-18)
(72.589148 -36.47312 -2.7996678e-17)
(81.178606 -37.431439 1.538776e-17)
(90.044753 -35.064165 -1.1320202e-18)
(-9.1839954 53.82313 2.4740946e-18)
(-9.5059929 47.565771 -4.5725697e-16)
(-9.4069236 43.889663 3.7711682e-16)
(-9.4621281 40.905971 -2.8064983e-18)
(-9.790621 38.165719 5.8568041e-18)
(-10.370059 35.530409 -1.1066655e-18)
(-11.174471 32.959251 -1.888379e-16)
(-12.124049 30.356836 -1.1974184e-17)
(-13.206202 27.362442 1.2329327e-16)
(-15.125587 22.867182 -1.4076824e-16)
(-16.446543 14.946595 1.535808e-16)
(21.323332 -11.55073 0)
(21.328791 -21.458009 3.9691644e-17)
(28.696113 -27.387666 -2.4051643e-17)
(38.600967 -29.60274 2.0587166e-18)
(51.050856 -28.2876 0)
(-6.1828776 38.887029 -6.8878415e-17)
(-6.8717555 30.200589 1.9791235e-17)
(-9.1181357 24.61386 3.1475423e-17)
(-11.674907 20.053779 -2.5613301e-17)
(-14.452163 15.952439 -1.893193e-18)
(-17.399741 12.074904 1.0034815e-17)
(-20.455631 8.301849 1.0993553e-17)
(-23.582154 4.5603479 1.2081246e-18)
(-26.88254 0.78487247 1.2694389e-18)
(-30.539208 -3.0695266 -2.6264862e-17)
(-33.880793 -7.0425256 3.1500847e-17)
(-33.73597 -10.972472 -3.2367772e-18)
(-27.536956 -15.300581 -9.7175838e-18)
(-19.279438 -18.752404 -4.7384338e-18)
(-7.8403196 -20.545448 8.8211046e-21)
(14.618692 -19.631692 -1.807046e-17)
(-6.2623318 -37.257455 -2.7223769e-17)
(-7.0008396 -27.551114 -1.864727e-17)
(-9.3353998 -21.629592 3.7997804e-17)
(-12.03558 -16.973118 -2.1336861e-17)
(-14.988402 -12.913208 9.5032221e-18)
(-18.133904 -9.1702954 1.1249126e-21)
(-21.398617 -5.5945814 1.9036487e-17)
(-24.726398 -2.0850792 -7.1897616e-18)
(-28.161381 1.4414288 -4.0589289e-19)
(-31.733214 5.0491209 9.5943057e-18)
(-34.645647 8.7133353 -1.2057199e-17)
(-34.021617 12.143009 1.0557427e-17)
(-27.964685 15.579083 -9.2606951e-18)
(-19.800416 17.681213 3.6577136e-19)
(-9.391042 17.560975 -4.4217329e-18)
(13.30305 12.495244 -3.0137679e-17)
(-9.1158682 -52.843474 -3.1196219e-18)
(-9.205774 -46.222958 4.6613697e-16)
(-9.1065373 -42.603062 -3.792937e-16)
(-9.2428966 -39.770919 3.0900167e-16)
(-9.6835494 -37.179499 -2.50938e-16)
(-10.381209 -34.620783 0)
(-11.300207 -31.976156 1.8204664e-16)
(-12.430579 -29.038897 -1.4302126e-16)
(-13.771202 -25.338459 -6.176566e-18)
(-15.383384 -19.744105 0)
(-13.248362 -10.217916 -2.6540809e-17)
(17.907527 13.106808 1.3315582e-17)
(20.082829 22.96887 -4.0582892e-17)
(28.049938 28.533 2.9290529e-17)
(37.981012 30.642766 -9.7397057e-18)
(52.407937 28.936493 9.3560518e-18)
(-13.437011 -56.004669 2.4940484e-18)
(-16.339764 -48.980703 -2.1430907e-18)
(-14.869406 -45.872734 0)
(-13.655153 -43.396899 9.813871e-18)
(-12.665712 -41.138251 5.6659505e-18)
(-11.300577 -39.085405 3.2450168e-16)
(-8.7270508 -37.42407 -2.630249e-16)
(-5.4692498 -35.641931 0)
(5.3017905 -24.636725 1.0650726e-19)
(21.257906 -7.7732212 -9.9773258e-18)
(38.591395 9.6374854 7.3720197e-18)
(51.696102 23.307562 4.30258e-18)
(62.373755 32.56289 5.5380066e-18)
(71.81179 37.003687 2.0690282e-17)
(80.114418 37.682831 -1.7673921e-17)
(89.68369 34.754532 9.7446445e-19)
(-16.893144 -52.202844 0)
(-23.124372 -43.204403 1.2766554e-15)
(-19.671633 -40.892943 -2.1910695e-15)
(-17.151029 -39.590118 8.1519999e-16)
(-14.586304 -38.71192 -4.5248975e-18)
(-1.0582128 -24.435024 -1.0957305e-17)
(16.036531 -6.6477893 2.3201822e-16)
(34.87773 11.031736 -1.5939446e-16)
(52.440915 24.396944 -9.3202899e-17)
(67.864478 33.339632 7.7171921e-17)
(80.95621 39.133055 0)
(91.511471 42.55014 -4.9267692e-17)
(99.657099 43.813822 2.5601196e-17)
(105.89588 43.194977 0)
(110.73192 41.063399 0)
(116.12944 36.983686 0)
(-18.515643 -45.19825 2.7901202e-15)
(-23.575139 -36.407056 -9.9679855e-16)
(-3.2263646 -15.29573 0)
(18.211914 5.300484 -2.2262467e-18)
(39.442297 23.82136 -2.2138623e-16)
(56.923823 35.781376 1.5949467e-16)
(71.695706 43.046545 1.1182307e-16)
(84.172346 47.18136 5.2336537e-18)
(94.555467 49.223137 -7.9496015e-17)
(103.13034 49.81686 3.8450389e-18)
(110.19633 49.39193 0)
(115.97351 48.218249 -9.8655911e-17)
(120.65681 46.437957 1.0678567e-17)
(124.50937 44.083856 7.1334647e-17)
(127.68912 41.265974 0)
(131.26254 37.473011 1.3438923e-17)
(-39.631232 -61.539628 3.1538199e-17)
(20.207385 13.826156 9.3539847e-16)
(47.389144 36.05371 -2.3988326e-16)
(66.406251 47.830602 -1.4243093e-16)
(80.72474 53.932202 1.0412585e-16)
(91.778834 56.556186 -9.0877168e-17)
(100.51294 57.09839 6.7730286e-17)
(107.63984 56.418537 7.3112164e-17)
(113.65143 55.032579 -7.5538099e-17)
(118.86972 53.248978 0)
(123.50776 51.237404 0)
(127.69904 49.060726 0)
(131.52144 46.699808 2.1390411e-17)
(135.04641 44.076214 0)
(138.16705 41.299535 8.2622589e-17)
(142.41561 37.213118 -1.5772047e-16)
(129.0493 144.73299 0)
(132.8318 150.75223 0)
(134.06415 146.34157 0)
(134.46603 142.77375 2.1907193e-18)
(134.98952 138.58236 -1.6634426e-17)
(135.60956 133.76791 2.096784e-17)
(136.34621 128.32621 0)
(137.20732 122.22052 -4.2014111e-18)
(138.19698 115.44569 0)
(139.31328 108.04609 0)
(140.54519 100.11138 0)
(141.88862 91.767937 1.0641059e-17)
(143.39033 83.139197 0)
(145.07372 74.429956 2.3553607e-17)
(146.63851 66.481046 0)
(129.03954 -144.72172 0)
(132.81604 -150.68433 0)
(134.06271 -146.29994 0)
(134.49089 -142.75258 2.1898495e-18)
(135.04621 -138.58918 -1.5557809e-17)
(135.70306 -133.80701 2.3155192e-17)
(136.47718 -128.39988 0)
(137.37032 -122.32497 4.1988572e-18)
(138.37716 -115.57096 0)
(139.48303 -108.17269 0)
(140.66201 -100.20865 0)
(141.89923 -91.795277 -1.0632399e-17)
(143.25442 -83.054804 0)
(144.80405 -74.251824 9.0982642e-18)
(146.43013 -66.37766 0)
(72.172616 56.133981 0)
(98.488516 73.026649 0)
(110.79094 80.114559 0)
(117.44366 81.7939 2.1077084e-18)
(121.7045 80.814307 -1.5814848e-17)
(124.91489 78.457269 2.0268107e-17)
(127.72808 75.286721 0)
(130.48426 71.567137 -4.2797322e-18)
(133.33435 67.452389 0)
(136.3072 63.051277 0)
(139.35018 58.45336 0)
(142.36498 53.731318 8.0001902e-18)
(145.2332 48.967699 0)
(147.66945 44.434919 5.1855524e-17)
(150.67064 38.580724 0)
(72.114683 -56.092984 0)
(98.410697 -72.943203 0)
(110.70225 -80.010133 0)
(117.34795 -81.666049 2.0873161e-18)
(121.60336 -80.663071 -1.4366632e-17)
(124.81067 -78.283201 2.2625595e-17)
(127.62545 -75.092505 0)
(130.39147 -71.358774 4.296152e-18)
(133.26432 -67.240039 0)
(136.27794 -62.849215 0)
(139.38405 -58.278156 0)
(142.48345 -53.600581 -8.0153045e-18)
(145.46188 -48.876402 0)
(148.07423 -44.328562 4.2876147e-17)
(150.86327 -39.116507 0)
(104.0118 149.02591 6.7334017e-20)
(104.16478 -149.02367 -6.7360438e-20)
(37.466685 -10.598277 5.859186e-19)
(37.404937 10.664706 -5.8725805e-19)
(151.69099 14.927645 0)
(158.59271 0.15681841 0)
(141.35647 -25.705106 0)
(158.36251 0.15284443 0)
(140.13955 28.874191 -5.2385928e-17)
(154.03869 -1.8832487 0)