/*--------------------------------*- C++ -*----------------------------------*\
| =========                 |                                                 |
| \\      /  F ield         | foam-extend: Open Source CFD                    |
|  \\    /   O peration     | Version:     4.1                                |
|   \\  /    A nd           | Web:         http://www.foam-extend.org         |
|    \\/     M anipulation  |                                                 |
\*---------------------------------------------------------------------------*/
FoamFile
{
    version     2.0;
    format      ascii;
    class       volScalarField;
    location    "0.5";
    object      p;
}
// * * * * * * * * * * * * * * * * * * * * * * * * * * * * * * * * * * * * * //

dimensions      [0 2 -2 0 0 0 0];

internalField   nonuniform List<scalar> 
16796
(
-0.00033910804
-1.1188933e-05
-0.00035729758
-0.00025504514
-0.00045520967
-0.00045682395
-0.00059539808
-0.00064751996
-0.00076326426
-0.00084318518
-0.00095457975
-0.0010533779
-0.0011699491
-0.0012849743
-0.0014123728
-0.0015439076
-0.0016861942
-0.0018359798
-0.0019966625
-0.0021672554
-0.0023497661
-0.0025442632
-0.00275218
-0.0029741021
-0.0032112524
-0.0034644923
-0.0037349925
-0.0040237802
-0.0043320351
-0.0046608971
-0.0050115632
-0.005385255
-0.0057831781
-0.0062065789
-0.0066566605
-0.0071346369
-0.007641659
-0.008178847
-0.0087472289
-0.0093477464
-0.009981217
-0.01064829
-0.011349457
-0.012084953
-0.012854781
-0.013658616
-0.0144958
-0.015365261
-0.016265487
-0.017194455
-0.01814959
-0.019127703
-0.020124941
-0.02113674
-0.022157771
-0.023181905
-0.024202182
-0.025210782
-0.026199021
-0.027157357
-0.028075404
-0.028941986
-0.029745192
-0.030472475
-0.031110751
-0.031646555
-0.032066188
-0.03235592
-0.032502189
-0.03249184
-0.032312353
-0.031952121
-0.03140067
-0.03064896
-0.029689553
-0.028516942
-0.027127588
-0.02552027
-0.023696094
-0.021658494
-0.019413404
-0.016969088
-0.01433615
-0.011527302
-0.0085572532
-0.0054423824
-0.0022005619
0.0011492567
0.0045872416
0.008093149
0.011646515
0.015227121
0.018815166
0.022391686
0.025938678
0.029439445
0.032878648
0.036242548
0.03951896
0.042697373
0.045768824
0.048725879
0.051562461
0.054273748
0.056855998
0.059306403
0.061623008
0.063804476
0.065850212
0.067759895
0.069534037
0.071172858
0.072677948
0.074049359
0.075290183
0.076398907
0.077381713
0.078232279
0.078964545
0.079559229
0.080050793
0.080385814
0.080653318
0.080711987
-0.00033829678
-1.1138815e-05
-0.00035642576
-0.00025440166
-0.00045408858
-0.0004556895
-0.00059393153
-0.00064592424
-0.00076139221
-0.00084112219
-0.00095225434
-0.001050822
-0.0011671242
-0.0012818875
-0.0014089994
-0.0015402429
-0.001682219
-0.0018316835
-0.0019920278
-0.0021622687
-0.0023444106
-0.002538524
-0.0027460409
-0.0029675479
-0.0032042679
-0.0034570633
-0.0037271059
-0.0040154243
-0.0043232005
-0.0046515765
-0.0050017525
-0.0053749539
-0.0057723906
-0.0061953143
-0.0066449344
-0.0071224719
-0.0076290857
-0.0081659057
-0.0087339701
-0.0093342326
-0.0099675235
-0.010634507
-0.011335689
-0.012071324
-0.012841432
-0.013645707
-0.014483511
-0.015353796
-0.016255068
-0.017185329
-0.018142024
-0.019121983
-0.020121377
-0.021135654
-0.022159502
-0.023186803
-0.024210602
-0.02522308
-0.026215549
-0.027178451
-0.02810138
-0.028973132
-0.029781754
-0.030514652
-0.03115868
-0.031700306
-0.032125753
-0.032421206
-0.032573006
-0.032567903
-0.032393273
-0.032037407
-0.031489732
-0.030741111
-0.029784018
-0.028612878
-0.02722408
-0.025616412
-0.023791011
-0.021751294
-0.019503215
-0.017055064
-0.014417494
-0.011603281
-0.0086272107
-0.0055057537
-0.0022568845
0.0011003407
0.0045459765
0.0080596723
0.011620855
0.015209209
0.018804839
0.022388705
0.025942734
0.029450173
0.032895638
0.036265354
0.039547111
0.04273038
0.045806187
0.048767094
0.051607029
0.054321182
0.056905831
0.059358195
0.061676353
0.063859007
0.065905603
0.067815865
0.069590349
0.071229314
0.072734393
0.074105672
0.075346277
0.076454725
0.077437222
0.078287473
0.079019431
0.079613842
0.080105162
0.080440012
0.080707373
0.080766015
-0.00033666266
-1.1069568e-05
-0.00035468614
-0.0002531441
-0.00045186355
-0.00045345189
-0.00059102645
-0.00064277011
-0.00075768719
-0.0008370432
-0.00094765552
-0.0010457706
-0.0011615424
-0.001275792
-0.0014023413
-0.0015330149
-0.0016743839
-0.0018232223
-0.0019829078
-0.0021524652
-0.0023338928
-0.0025272649
-0.0027340113
-0.0029547213
-0.0031906178
-0.0034425661
-0.0037117402
-0.0039991724
-0.0043060489
-0.0046335174
-0.0049827847
-0.005355084
-0.0057516348
-0.0061736997
-0.0066225007
-0.0070992737
-0.0076051943
-0.0081414111
-0.0087089837
-0.0093088892
-0.0099419841
-0.010608961
-0.011310358
-0.01204646
-0.012817326
-0.013622686
-0.014461942
-0.015334085
-0.016237663
-0.01717072
-0.018130739
-0.01911459
-0.020118475
-0.021137877
-0.022167504
-0.023201258
-0.02423219
-0.025252478
-0.026253417
-0.027225423
-0.028158042
-0.029040011
-0.029859297
-0.030603208
-0.031258486
-0.031811464
-0.032248216
-0.032554763
-0.03271727
-0.032722299
-0.032557035
-0.032209578
-0.031669163
-0.030926475
-0.02997382
-0.028805484
-0.027417714
-0.025809243
-0.023981185
-0.021936927
-0.019682456
-0.017226121
-0.014578683
-0.011753052
-0.0087641924
-0.0056287701
-0.0023649856
0.0010078746
0.0044696163
0.0079996534
0.011577171
0.01518164
0.018792957
0.02239191
0.025960267
0.029481158
0.032939098
0.036320248
0.039612352
0.042804868
0.045888821
0.048856799
0.051702769
0.054421975
0.057010759
0.059466415
0.0617871
0.063971599
0.066019444
0.067930442
0.06970523
0.071344148
0.072848901
0.074219645
0.075459568
0.076567247
0.077548932
0.078398386
0.079129581
0.079723329
0.08021406
0.080548497
0.080815512
0.080874078
-0.00033421964
-1.0958785e-05
-0.00035207853
-0.00025125261
-0.000448525
-0.00045009109
-0.00058666601
-0.00063803407
-0.00075212488
-0.0008309182
-0.00094074978
-0.001038184
-0.0011531582
-0.0012666344
-0.0013923367
-0.0015221515
-0.0016626054
-0.0018104991
-0.0019691902
-0.0021377149
-0.0023180626
-0.0025103129
-0.0027158924
-0.0029353938
-0.0031700403
-0.0034207012
-0.0036885532
-0.0039746345
-0.0042801372
-0.0046062171
-0.0049540906
-0.0053250028
-0.0057201868
-0.0061409216
-0.0065884481
-0.0070640239
-0.0075688496
-0.0081041019
-0.0086708721
-0.0092701728
-0.0099028996
-0.010569788
-0.011271423
-0.012008141
-0.012780052
-0.013586946
-0.014428284
-0.015303119
-0.016210062
-0.017147218
-0.018112133
-0.019101736
-0.020112283
-0.021139303
-0.022177545
-0.023220936
-0.024262542
-0.025294539
-0.026308201
-0.027293901
-0.028241119
-0.0291385
-0.029973894
-0.030734463
-0.031406773
-0.031976958
-0.032430864
-0.03275426
-0.032933042
-0.03295349
-0.032802492
-0.032467857
-0.031938528
-0.031204919
-0.030259081
-0.029095088
-0.027708993
-0.026099439
-0.024267517
-0.022216577
-0.019952651
-0.01748418
-0.01482208
-0.011979466
-0.0089715649
-0.0058153316
-0.0025293046
0.00086688731
0.0043526788
0.0079071334
0.011509076
0.01513766
0.018772473
0.022394046
0.025983916
0.029525034
0.033001766
0.036400175
0.039707935
0.042914478
0.046010823
0.048989592
0.0518448
0.054571766
0.057166924
0.059627675
0.06195229
0.064139682
0.066189507
0.068101701
0.069877026
0.071515942
0.073020264
0.074390258
0.075629201
0.076735766
0.077716268
0.078564557
0.079294632
0.079887404
0.080377268
0.080711099
0.080977605
0.081036064
-0.00033097139
-1.0820271e-05
-0.00034861445
-0.00024874797
-0.00044409293
-0.00044563399
-0.00058087881
-0.00063175061
-0.00074474342
-0.00082279128
-0.00093158649
-0.0010281182
-0.0011420346
-0.001254486
-0.0013790657
-0.0015077429
-0.0016469848
-0.0017936281
-0.0019510031
-0.0021181618
-0.0022970814
-0.0024878491
-0.0026918869
-0.0029097926
-0.0031427897
-0.0033917526
-0.0036578625
-0.0039421649
-0.0042458602
-0.0045701152
-0.0049161591
-0.0052852528
-0.0056786481
-0.0060976455
-0.0065435114
-0.0070175325
-0.0075209424
-0.0080549558
-0.008620706
-0.0092192528
-0.0098515437
-0.010518372
-0.011220384
-0.011957984
-0.012731354
-0.013540359
-0.01438454
-0.015263032
-0.016174529
-0.017117219
-0.01808873
-0.019086068
-0.020105563
-0.021142804
-0.022192591
-0.02324889
-0.024304782
-0.025352442
-0.026383114
-0.027387115
-0.028353838
-0.029271806
-0.030128712
-0.030911525
-0.031606578
-0.03219974
-0.032676551
-0.033022453
-0.033222978
-0.03326403
-0.033132105
-0.032814618
-0.032300125
-0.031578673
-0.030641968
-0.029483796
-0.028099942
-0.026488899
-0.0246517
-0.022591646
-0.020314824
-0.017829804
-0.015147716
-0.012281957
-0.0092481123
-0.0060635405
-0.0027472456
0.00068067273
0.0041991363
0.0077867269
0.011421773
0.015082991
0.018749541
0.022401607
0.026020403
0.029588643
0.033090487
0.036511876
0.039840392
0.043065442
0.046178054
0.049170906
0.052038094
0.054775055
0.057378353
0.059845545
0.062175065
0.064365996
0.066418166
0.068331684
0.070107475
0.071746161
0.073249704
0.074618512
0.075855982
0.076960913
0.077939707
0.078786328
0.079514813
0.080106204
0.080594848
0.080927824
0.081193616
0.081251918
-0.00032692687
-1.0643685e-05
-0.0003442952
-0.00024562121
-0.00043856416
-0.00044007205
-0.00057365833
-0.00062390979
-0.00073553254
-0.00081264907
-0.00092015022
-0.0010155542
-0.0011281488
-0.0012393187
-0.0013624945
-0.0014897484
-0.0016274733
-0.0017725507
-0.0019282767
-0.002093723
-0.0022708514
-0.0024597581
-0.0026618597
-0.0028777596
-0.0031086817
-0.0033555068
-0.003619421
-0.0039014788
-0.0042028906
-0.0045248367
-0.0048685621
-0.0052353468
-0.0056264658
-0.0060432462
-0.0064869859
-0.0069590076
-0.0074605861
-0.007992983
-0.0085573842
-0.0091549085
-0.0097865685
-0.010453229
-0.011155615
-0.011894214
-0.0126693
-0.013480833
-0.014328454
-0.015211402
-0.016128477
-0.017077973
-0.018057624
-0.019064534
-0.020095124
-0.021145068
-0.022209232
-0.02328163
-0.02435537
-0.025422625
-0.026474608
-0.027501568
-0.028492789
-0.029436647
-0.030320635
-0.031131484
-0.031855232
-0.032477414
-0.032983187
-0.033357572
-0.033585644
-0.033652829
-0.033545124
-0.033249447
-0.032753855
-0.032047934
-0.031122951
-0.029972323
-0.028591505
-0.026978793
-0.025135138
-0.023063789
-0.020770897
-0.018265189
-0.015558066
-0.012663277
-0.0095968644
-0.0063766913
-0.0030223537
0.00044545474
0.0040050042
0.0076342691
0.011310947
0.015013205
0.018719663
0.022410068
0.026065226
0.029667554
0.033200958
0.036651221
0.040005813
0.043254111
0.046387151
0.049397683
0.052279903
0.055029395
0.057642889
0.060118137
0.062453776
0.064649107
0.066704175
0.068619307
0.070395635
0.072033987
0.073536507
0.074903786
0.076139371
0.07724222
0.078218841
0.079063346
0.079789816
0.080379459
0.080866558
0.081198453
0.081463342
0.08152145
-0.00032209564
-1.0436122e-05
-0.00033913581
-0.0002418895
-0.00043196066
-0.00043343076
-0.00056503438
-0.00061454567
-0.00072453102
-0.00080053532
-0.00090649013
-0.0010005469
-0.0011115621
-0.001221201
-0.0013426993
-0.0014682525
-0.0016041646
-0.0017473706
-0.001901126
-0.0020645256
-0.0022395129
-0.0024261951
-0.0026259817
-0.0028394836
-0.0030679244
-0.0033121926
-0.0035734804
-0.0038528528
-0.0041515322
-0.0044707148
-0.0048116645
-0.0051756843
-0.0055640763
-0.0059781998
-0.0064193901
-0.0068890129
-0.0073883924
-0.0079188462
-0.0084816232
-0.0090779127
-0.0097088055
-0.010375253
-0.011078072
-0.011817854
-0.01259498
-0.013409527
-0.014261255
-0.01514953
-0.01607328
-0.017030927
-0.018020333
-0.019038722
-0.020082629
-0.021147828
-0.022229269
-0.023321027
-0.024416245
-0.025507098
-0.026584761
-0.027639409
-0.028660196
-0.029635321
-0.030552044
-0.031396805
-0.032155292
-0.032812636
-0.033353529
-0.033762487
-0.034024027
-0.034122995
-0.034044778
-0.033775685
-0.033303168
-0.032616237
-0.031705624
-0.030564282
-0.029187262
-0.027572592
-0.025721108
-0.023636001
-0.021323492
-0.018792507
-0.016054777
-0.013124487
-0.010018247
-0.0067545441
-0.0033537095
0.00016283041
0.0037725368
0.0074526364
0.011180045
0.014932256
0.018687221
0.022424154
0.026123362
0.029766904
0.033338375
0.036823379
0.040209253
0.043485352
0.046642731
0.049674242
0.052574214
0.055338424
0.057963812
0.060448377
0.062791008
0.064991276
0.067049491
0.068966245
0.070742925
0.072380602
0.073881643
0.075246858
0.076479974
0.07758014
0.078553991
0.079395816
0.080119748
0.080707196
0.081192361
0.081522903
0.081786664
0.081844526
-0.00031648693
-1.0192268e-05
-0.00033314131
-0.00023755099
-0.00042428601
-0.00042571063
-0.00055501008
-0.00060365981
-0.00071174123
-0.0007864511
-0.00089060677
-0.000983095
-0.0010922714
-0.0012001269
-0.0013196706
-0.0014432412
-0.0015770392
-0.0017180619
-0.001869517
-0.0020305262
-0.0022030113
-0.0023870923
-0.0025841702
-0.0027948637
-0.0030203964
-0.0032616654
-0.003519869
-0.0037960848
-0.0040915481
-0.0044074734
-0.0047451461
-0.0051058954
-0.0054910548
-0.0059020204
-0.0063401705
-0.0068069205
-0.007303652
-0.0078317473
-0.0083925285
-0.0089872672
-0.0096171451
-0.010283214
-0.010986401
-0.011727417
-0.01250677
-0.013324673
-0.014181029
-0.015075354
-0.016006726
-0.016973724
-0.017974356
-0.019005997
-0.020065317
-0.021148213
-0.022249737
-0.023364042
-0.024484316
-0.025602745
-0.026710467
-0.027797568
-0.028853062
-0.029864943
-0.030820197
-0.031704929
-0.032504415
-0.033203309
-0.033785757
-0.034235675
-0.03453692
-0.03467365
-0.034630523
-0.034393125
-0.033948182
-0.033284022
-0.03239073
-0.031260704
-0.029888515
-0.028271859
-0.026411427
-0.024310334
-0.021974879
-0.019414216
-0.016640469
-0.013668336
-0.010515106
-0.007200006
-0.0037442505
-0.00017013753
0.0034988212
0.0072389638
0.011026267
0.014837427
0.018649593
0.022441354
0.02619242
0.029884434
0.033500625
0.037026389
0.040448914
0.043757534
0.046943332
0.049999286
0.052919891
0.055701152
0.058340265
0.060835522
0.063186117
0.06539194
0.067453616
0.069372053
0.071148937
0.072785628
0.074284759
0.075647392
0.07687747
0.077974362
0.078944854
0.079783442
0.080504318
0.081089128
0.081571974
0.081900896
0.082163308
0.082220879
-0.00031011337
-9.9166726e-06
-0.00032632899
-0.00023262196
-0.00041556413
-0.00041693766
-0.00054361724
-0.00059128765
-0.00069720401
-0.00077044187
-0.00087255117
-0.00096325513
-0.0010703393
-0.0011761653
-0.0012934843
-0.0014147978
-0.0015461884
-0.0016847241
-0.0018335581
-0.0019918428
-0.0021614752
-0.0023425892
-0.0025365762
-0.0027440637
-0.0029662751
-0.0032041165
-0.0034587935
-0.003731397
-0.0040231774
-0.0043353694
-0.0046692824
-0.0050262751
-0.0054077163
-0.0058150438
-0.0062496845
-0.0067131103
-0.0072067672
-0.0077321116
-0.0082905489
-0.0088834442
-0.0095120832
-0.010177633
-0.010881146
-0.01162347
-0.01240526
-0.013226886
-0.014088417
-0.014989538
-0.015929508
-0.016907081
-0.017920445
-0.018967146
-0.020044015
-0.021147095
-0.022271563
-0.023411667
-0.024560655
-0.02571073
-0.026852995
-0.027977445
-0.029072934
-0.03012723
-0.031127009
-0.032057992
-0.03290498
-0.033652084
-0.034282812
-0.034780388
-0.035127897
-0.035308693
-0.035306582
-0.0351063
-0.034693715
-0.034056344
-0.033183513
-0.032066949
-0.030700658
-0.029081916
-0.027211229
-0.025091636
-0.022729511
-0.020134283
-0.017318535
-0.014297575
-0.011089497
-0.0077144023
-0.0041945569
-0.00055328547
0.0031847414
0.0069948187
0.010851807
0.014731471
0.018610015
0.022465298
0.026276335
0.03002429
0.033691971
0.03726455
0.040729047
0.044074791
0.047292911
0.05037655
0.053320406
0.056120767
0.058775139
0.061282164
0.063641395
0.065853102
0.067918278
0.069838202
0.071614902
0.073250078
0.074746664
0.076106017
0.077332323
0.078425208
0.079391626
0.080226312
0.080943522
0.081525177
0.082005256
0.082332248
0.082593054
0.082650276
-0.00030298643
-9.6064619e-06
-0.00031870813
-0.00022710577
-0.00040580507
-0.00040711997
-0.00053086779
-0.00057744082
-0.00068093312
-0.00075252149
-0.00085233817
-0.00094104185
-0.0010457804
-0.0011493297
-0.0012641524
-0.0013829317
-0.0015116186
-0.0016473594
-0.0017932466
-0.001948466
-0.0021148869
-0.0022926584
-0.0024831608
-0.0026870309
-0.0029054911
-0.0031394576
-0.0033901433
-0.0036586536
-0.003946255
-0.0042542041
-0.0045838366
-0.0049365437
-0.005313733
-0.0057168881
-0.0061474898
-0.0066070726
-0.0070971548
-0.0076192748
-0.0081749313
-0.0087655944
-0.0093926664
-0.010057444
-0.010761122
-0.011504702
-0.012289007
-0.013114585
-0.013981692
-0.014890213
-0.015839607
-0.016828835
-0.017856291
-0.01891972
-0.020016143
-0.021141777
-0.022291944
-0.023461014
-0.024642308
-0.02582806
-0.027009343
-0.028176059
-0.029316888
-0.03041935
-0.031469774
-0.032453452
-0.033354649
-0.034156858
-0.03484286
-0.035395087
-0.035795739
-0.036027247
-0.036072429
-0.035915044
-0.035539961
-0.034933762
-0.034084881
-0.032984264
-0.031625259
-0.030004634
-0.028122666
-0.0259823
-0.023589978
-0.020955438
-0.01809179
-0.015015036
-0.011744212
-0.0083004228
-0.0047071709
-0.00098896568
0.0028281616
0.0067183026
0.01065501
0.014612979
0.018567308
0.022495029
0.026374349
0.030185899
0.033912002
0.03753759
0.041049499
0.04443707
0.047691494
0.050806118
0.053775887
0.056597425
0.059268597
0.061788461
0.064156986
0.06637488
0.068443561
0.070364732
0.072140818
0.073773904
0.075267266
0.076622596
0.077844357
0.078932462
0.079894058
0.080724148
0.081437056
0.082015019
0.082491868
0.082816608
0.083075545
0.083132362
-0.00029512135
-9.2651135e-06
-0.00031029812
-0.00022101913
-0.00039503509
-0.00039628525
-0.00051679635
-0.00056215739
-0.00066297266
-0.00073273864
-0.00083002234
-0.00091651509
-0.0010186606
-0.0011196921
-0.0012317535
-0.0013477285
-0.0014734222
-0.0016060678
-0.0017486898
-0.0019005113
-0.0020633702
-0.0022374323
-0.002424065
-0.0026239152
-0.0028382037
-0.0030678572
-0.0033140963
-0.0035780418
-0.0038609772
-0.0041641827
-0.0044890227
-0.0048369231
-0.0052093339
-0.0056077888
-0.0060338275
-0.0064890531
-0.006975063
-0.0074934865
-0.008045925
-0.0086339648
-0.0092591377
-0.0099228843
-0.010626558
-0.011371333
-0.012158219
-0.012987965
-0.01386104
-0.01477755
-0.015737184
-0.016739141
-0.017782048
-0.018863881
-0.019981881
-0.021132467
-0.022311137
-0.023512404
-0.024729686
-0.025955266
-0.027180191
-0.028394275
-0.029586013
-0.030742657
-0.031850158
-0.032893332
-0.033855845
-0.034720495
-0.035469245
-0.036083629
-0.036544836
-0.036834243
-0.036933536
-0.036825345
-0.03649339
-0.03592316
-0.035102057
-0.034020106
-0.03266989
-0.031047558
-0.02915311
-0.026989382
-0.024562889
-0.02188372
-0.018965597
-0.015825319
-0.012483021
-0.0089609665
-0.0052841018
-0.001478298
0.0024288216
0.0064099715
0.01043718
0.014483924
0.018524024
0.022533581
0.026489873
0.030372946
0.034164579
0.037849453
0.041414212
0.044848235
0.048142804
0.051291523
0.054289633
0.057134163
0.059823401
0.062356887
0.064735075
0.066959177
0.069031096
0.070953019
0.07272782
0.074358017
0.075847273
0.077197654
0.078413929
0.079496338
0.080452234
0.081276925
0.081984802
0.08255846
0.083031554
0.083353679
0.083610449
0.083666795
-0.00028653254
-8.8911469e-06
-0.00030111249
-0.0002143697
-0.00038327026
-0.00038444831
-0.00050142295
-0.00054545808
-0.00064334684
-0.00071111883
-0.00080563155
-0.00088970393
-0.00098901044
-0.0010872836
-0.0011963189
-0.0013092189
-0.001431629
-0.0015608767
-0.0016999125
-0.0018479991
-0.0020069401
-0.0021769188
-0.002359288
-0.002554705
-0.0027643881
-0.0029892751
-0.0032305936
-0.0034894808
-0.0037672377
-0.0040651695
-0.0043846708
-0.0047272046
-0.0050942663
-0.0054874431
-0.0059083383
-0.0063586292
-0.006839999
-0.0073541756
-0.0079028727
-0.0084878035
-0.009110642
-0.0097729873
-0.010476367
-0.011222147
-0.012011545
-0.012845531
-0.013724813
-0.014649747
-0.015620281
-0.016635879
-0.017695436
-0.018797192
-0.01993864
-0.021116435
-0.022326283
-0.023562868
-0.024819733
-0.026089223
-0.027362379
-0.028628928
-0.029877176
-0.03109409
-0.03226521
-0.033374832
-0.034405959
-0.035340622
-0.036159864
-0.036844216
-0.037373726
-0.037728585
-0.03788919
-0.037836895
-0.037554098
-0.037025051
-0.036235963
-0.035175798
-0.033836257
-0.032212757
-0.030304956
-0.028115557
-0.025651127
-0.022922136
-0.019942996
-0.016731403
-0.013308754
-0.0096986253
-0.0059276399
-0.0020232142
0.0019851779
0.0060686909
0.010197584
0.014343966
0.018480178
0.022581287
0.026623513
0.030586264
0.034450706
0.03820127
0.041824397
0.045309537
0.048648095
0.051833991
0.054862816
0.057732077
0.060440551
0.062988338
0.065376443
0.067606652
0.069681423
0.071603482
0.07337621
0.075002609
0.076486772
0.077831182
0.079040948
0.080116665
0.081065916
0.081884344
0.082586412
0.083155111
0.083623893
0.083943018
0.084197306
0.084253114
-0.00027723786
-8.4875319e-06
-0.00029117299
-0.00020717529
-0.00037053963
-0.00037163929
-0.00048478567
-0.00052738448
-0.00062210394
-0.00068771513
-0.0007792252
-0.00086067332
-0.00095690124
-0.0010521816
-0.0011579326
-0.0012674934
-0.0013863363
-0.0015118905
-0.0016470258
-0.0017910476
-0.0019457218
-0.0021112499
-0.0022889688
-0.0024795459
-0.0026841965
-0.002903869
-0.0031397985
-0.0033931384
-0.003665208
-0.0039573387
-0.0042709563
-0.0046075634
-0.004968703
-0.0053560195
-0.005771184
-0.0062159532
-0.0066921027
-0.0072014665
-0.0077458797
-0.0083271933
-0.0089472356
-0.0096077788
-0.010310541
-0.011057099
-0.011848898
-0.012687156
-0.013572842
-0.014506592
-0.015488644
-0.016518761
-0.017596139
-0.018719319
-0.019886084
-0.021093361
-0.0223371
-0.023612194
-0.024912336
-0.026229965
-0.027556131
-0.028880486
-0.030191145
-0.031474781
-0.032716489
-0.033900008
-0.03500761
-0.036020483
-0.036918644
-0.037681509
-0.038287839
-0.038716493
-0.038946398
-0.038957461
-0.038730569
-0.038248552
-0.03749624
-0.03646137
-0.035134619
-0.033510521
-0.031588325
-0.029370588
-0.026863916
-0.024079211
-0.021031676
-0.017740017
-0.014227103
-0.010517993
-0.0066412606
-0.002626071
0.0014959508
0.0056942028
0.0099368965
0.014194611
0.018437993
0.022640969
0.026778559
0.030829489
0.03477425
0.03859703
0.042284063
0.045824924
0.049211178
0.052437138
0.055498814
0.058394272
0.061122862
0.063685324
0.066083296
0.068319216
0.07039616
0.072317468
0.074087078
0.075708534
0.077186401
0.078523621
0.079725676
0.080793551
0.081735078
0.082546264
0.083241646
0.083804655
0.084268501
0.084584197
0.084835654
0.084890846
-0.00026725481
-8.0537066e-06
-0.00028049722
-0.00019944728
-0.00035686492
-0.00035787907
-0.00046691211
-0.00050796568
-0.00059927787
-0.00066256384
-0.00075084329
-0.00082946571
-0.00092237827
-0.0010144335
-0.0011166439
-0.0012226024
-0.0013375951
-0.00145916
-0.0015900795
-0.0017297046
-0.0018797597
-0.0020404657
-0.0022131408
-0.0023984633
-0.0025976436
-0.0028116409
-0.003041697
-0.0032889817
-0.0035548329
-0.0038406082
-0.004147766
-0.0044778498
-0.0048324525
-0.0052132785
-0.0056220704
-0.006060669
-0.0065309479
-0.0070348548
-0.0075743543
-0.0081514455
-0.0087681233
-0.0094263469
-0.010128042
-0.010875013
-0.011668955
-0.012511358
-0.01340348
-0.014346265
-0.015340273
-0.0163856
-0.017481783
-0.018627701
-0.019821467
-0.021060325
-0.022340505
-0.023657149
-0.025004134
-0.026374028
-0.027757909
-0.029145373
-0.030524344
-0.031881194
-0.033200547
-0.034465546
-0.035657666
-0.036757175
-0.03774296
-0.038593203
-0.039285229
-0.039796412
-0.040104029
-0.040186364
-0.040022586
-0.039593921
-0.038883626
-0.037878034
-0.036566643
-0.034942958
-0.033005734
-0.030757334
-0.02820437
-0.025358199
-0.022234906
-0.018854317
-0.015240986
-0.011421629
-0.0074270799
-0.0032884628
0.00096010086
0.0052860461
0.0096552147
0.014036491
0.018398572
0.022714145
0.026956862
0.031104734
0.035137501
0.03903913
0.042795647
0.04639681
0.049834395
0.053103192
0.056199704
0.059122654
0.061872046
0.064449358
0.06685694
0.069097968
0.071176209
0.073095682
0.07486095
0.076476146
0.077946359
0.079275032
0.080468047
0.08152682
0.082459444
0.083262327
0.083950076
0.084506606
0.084964849
0.085276655
0.085524907
0.085579403
-0.00025660396
-7.5923817e-06
-0.0002691095
-0.00019120497
-0.00034227831
-0.00034320075
-0.00044784434
-0.00048724748
-0.00057492189
-0.00063572331
-0.0007205511
-0.0007961523
-0.00088551953
-0.0009741235
-0.0010725439
-0.0011746439
-0.0012855103
-0.0014027968
-0.0015291921
-0.0016640952
-0.0018091856
-0.0019647039
-0.0021319481
-0.0023116063
-0.0025048833
-0.0027127486
-0.0029364499
-0.0031771732
-0.0034362745
-0.0037151385
-0.0040152566
-0.0043382143
-0.0046856564
-0.0050593495
-0.0054611112
-0.0058928706
-0.0063566048
-0.0068543816
-0.007388304
-0.0079605287
-0.0085732292
-0.0092285657
-0.0099286872
-0.010675647
-0.011471411
-0.012317764
-0.013216283
-0.01416825
-0.015174583
-0.01623575
-0.017351666
-0.018521596
-0.019744025
-0.02101656
-0.022335762
-0.023697064
-0.025094575
-0.026521025
-0.027967557
-0.029423731
-0.030877294
-0.032314315
-0.033718923
-0.035073631
-0.036359053
-0.037554459
-0.038637486
-0.039584962
-0.040372603
-0.040976134
-0.041370963
-0.041533551
-0.041441105
-0.04107303
-0.040410766
-0.039439031
-0.038145954
-0.036523816
-0.034570768
-0.032288964
-0.029684994
-0.026770717
-0.023563235
-0.020083616
-0.016358374
-0.012416077
-0.0082901953
-0.0040140394
0.00037536332
0.0048432675
0.0093527705
0.013870896
0.018364104
0.022803746
0.027161931
0.031415935
0.035544671
0.039531929
0.04336353
0.047029504
0.050521894
0.053836075
0.056969132
0.059920557
0.062691107
0.065283101
0.067699693
0.069944889
0.072023227
0.073939481
0.075698895
0.077306256
0.078767219
0.08008577
0.081268229
0.082316469
0.083238867
0.084032262
0.084711325
0.085260503
0.085712406
0.086019815
0.086264451
0.086318161
-0.00024530594
-7.1036554e-06
-0.00025703133
-0.00018246311
-0.00032680682
-0.00032763082
-0.00042761698
-0.00046526677
-0.00054907895
-0.00060723989
-0.00068839995
-0.00076078807
-0.00084638421
-0.00093131436
-0.0010256987
-0.0011236865
-0.0012301529
-0.0013428735
-0.0014644372
-0.0015942928
-0.0017340717
-0.0018840343
-0.0020454559
-0.0022190343
-0.002405967
-0.0026072329
-0.0028240845
-0.0030577235
-0.0033095234
-0.0035808957
-0.0038733651
-0.0041885595
-0.0045281767
-0.0048940475
-0.005288067
-0.0057122562
-0.0061687004
-0.0066595938
-0.0071871846
-0.0077537971
-0.0083617942
-0.0090135507
-0.0097114552
-0.010457828
-0.011254927
-0.012104859
-0.013009547
-0.013970645
-0.014989463
-0.01606688
-0.017203234
-0.018398219
-0.019650746
-0.020958833
-0.022319421
-0.02372829
-0.025179825
-0.026666969
-0.02818096
-0.02971136
-0.031245748
-0.032769898
-0.034267425
-0.035720182
-0.037107852
-0.038408638
-0.039598802
-0.040653697
-0.041547252
-0.042253376
-0.042745379
-0.042997699
-0.042985321
-0.042685615
-0.042077946
-0.041145203
-0.039873943
-0.038255019
-0.03628587
-0.033968367
-0.03130902
-0.028320192
-0.025020124
-0.021431227
-0.017582275
-0.013503874
-0.0092325597
-0.0048040627
-0.00025879546
0.0043660914
0.009030509
0.013699452
0.018336802
0.022912491
0.027396874
0.031766486
0.035999326
0.040079069
0.043991337
0.047726536
0.051277045
0.054638948
0.057810009
0.060790618
0.063582387
0.066188596
0.068613303
0.070861439
0.072938397
0.074849784
0.076601593
0.078199319
0.079649232
0.080955909
0.082126131
0.08316227
0.084072995
0.084855612
0.08552485
0.086065734
0.086510503
0.086812972
0.087053551
0.087106379
-0.00023338412
-6.5901023e-06
-0.00024428979
-0.00017324277
-0.00031048604
-0.00031120566
-0.00040627654
-0.00044207402
-0.00052180783
-0.00057717797
-0.00065446184
-0.00072345145
-0.00080505816
-0.00088609883
-0.00097620844
-0.0010698376
-0.0011716377
-0.0012795121
-0.0013959439
-0.0015204336
-0.0016545607
-0.0017986057
-0.001953819
-0.0021209072
-0.0023010587
-0.0024952609
-0.0027047696
-0.0029308015
-0.0031747466
-0.0034380427
-0.0037222474
-0.0040290314
-0.004360146
-0.0047174877
-0.0051030311
-0.0055188923
-0.0059672688
-0.0064504866
-0.0069709466
-0.0075311491
-0.0081336576
-0.0087810751
-0.0094760455
-0.010221175
-0.011019037
-0.011872086
-0.01278262
-0.013752699
-0.014784064
-0.01587805
-0.017035464
-0.018256481
-0.019540492
-0.020885985
-0.022290342
-0.02374975
-0.025258928
-0.026811089
-0.028397614
-0.030008111
-0.031630013
-0.03324882
-0.034847617
-0.036407575
-0.037907381
-0.039324096
-0.040632478
-0.041806271
-0.042817419
-0.043637823
-0.044238429
-0.044591419
-0.044669241
-0.04444697
-0.043901573
-0.043013848
-0.041768512
-0.040154737
-0.038169074
-0.035813091
-0.033093164
-0.030022203
-0.02661976
-0.022909718
-0.01892349
-0.014693939
-0.010261187
-0.0056636411
-0.00094567491
0.0038529262
0.0086883639
0.013523446
0.018319084
0.023043726
0.027665738
0.032160943
0.036506337
0.040685572
0.044684095
0.048492819
0.052104547
0.05551622
0.058726401
0.061736521
0.064549173
0.067168724
0.069600247
0.071849704
0.073923435
0.075827962
0.077570092
0.079156092
0.080592892
0.081885703
0.083041801
0.084064086
0.084961535
0.085731952
0.086390112
0.086921671
0.08735844
0.087655373
0.087891417
0.087943257
-0.0002208623
-6.0523185e-06
-0.00023091013
-0.00016356175
-0.00029334804
-0.00029395707
-0.00038386431
-0.00041771349
-0.00049316011
-0.00054559343
-0.00061879889
-0.00068420938
-0.00076161384
-0.0008385541
-0.00092415519
-0.0010131836
-0.0011100549
-0.0012128062
-0.0013238083
-0.0014426153
-0.0015707513
-0.0017085164
-0.0018571336
-0.0020173174
-0.0021902449
-0.0023769108
-0.0025785726
-0.0027964602
-0.0030319791
-0.003286592
-0.0035618887
-0.0038595821
-0.0041814773
-0.0045295366
-0.0049058155
-0.0053125275
-0.0057519855
-0.0062266518
-0.0067390861
-0.0072919727
-0.0078880858
-0.0085302686
-0.009221436
-0.0099644984
-0.010762367
-0.011617868
-0.012533708
-0.013512386
-0.014556114
-0.015666727
-0.01684555
-0.018093297
-0.019409891
-0.020794361
-0.022244589
-0.023757238
-0.025327426
-0.026948699
-0.028612639
-0.030308947
-0.032024944
-0.03374588
-0.0354543
-0.037130681
-0.038752644
-0.040296041
-0.041733989
-0.043038498
-0.044179307
-0.04512613
-0.045847263
-0.0463124
-0.046491123
-0.046355956
-0.045881127
-0.045045087
-0.043830428
-0.042224384
-0.040222457
-0.037825806
-0.035040578
-0.031880194
-0.02836568
-0.024522475
-0.020385053
-0.015988716
-0.011377799
-0.0065936172
-0.0016852025
0.003304802
0.0083282596
0.013345641
0.018314419
0.023201509
0.027973013
0.032604091
0.037070632
0.041356389
0.045446655
0.049333015
0.053008792
0.056471961
0.05972201
0.06276158
0.065594375
0.068225995
0.070662642
0.07291143
0.074979733
0.076875076
0.078605153
0.080177061
0.081598441
0.082875178
0.084015073
0.085021585
0.085904012
0.086660685