/*--------------------------------*- C++ -*----------------------------------*\
| =========                 |                                                 |
| \\      /  F ield         | foam-extend: Open Source CFD                    |
|  \\    /   O peration     | Version:     4.1                                |
|   \\  /    A nd           | Web:         http://www.foam-extend.org         |
|    \\/     M anipulation  |                                                 |
\*---------------------------------------------------------------------------*/
FoamFile
{
    version     2.0;
    format      ascii;
    class       surfaceScalarField;
    location    "0.5";
    object      phi;
}
// * * * * * * * * * * * * * * * * * * * * * * * * * * * * * * * * * * * * * //

dimensions      [0 3 -1 0 0 0 0];

internalField   nonuniform List<scalar> 
32976
(
-0.0016152689
2.0868614e-07
-0.0016154919
2.2307068e-07
-0.0016157278
2.3589679e-07
-0.0016159798
2.520097e-07
-0.0016162479
2.680643e-07
-0.0016165343
2.8640843e-07
-0.0016168399
3.0560163e-07
-0.0016171667
3.2674551e-07
-0.0016175159
3.4924724e-07
-0.0016178896
3.7365786e-07
-0.0016182893
3.9976728e-07
-0.0016187172
4.2788588e-07
-0.0016191752
4.5797837e-07
-0.0016196655
4.9025212e-07
-0.0016201902
5.2475281e-07
-0.0016207519
5.616453e-07
-0.0016213529
6.0101285e-07
-0.0016219959
6.4300332e-07
-0.0016226836
6.8771618e-07
-0.0016234189
7.3529157e-07
-0.0016242047
7.8583301e-07
-0.0016250442
8.3947424e-07
-0.0016259405
8.96314e-07
-0.001626897
9.5647675e-07
-0.001627917
1.0200484e-06
-0.0016290042
1.0871385e-06
-0.001630162
1.1578117e-06
-0.0016313941
1.2321551e-06
-0.0016327043
1.3102024e-06
-0.0016340963
1.3920092e-06
-0.0016355739
1.4775679e-06
-0.0016371408
1.5668857e-06
-0.0016388007
1.6599278e-06
-0.0016405573
1.7566079e-06
-0.0016424142
1.8568549e-06
-0.0016443747
1.9605043e-06
-0.0016464421
2.0674123e-06
-0.0016486194
2.1773284e-06
-0.0016509095
2.2900224e-06
-0.0016533146
2.4051429e-06
-0.001655837
2.5223587e-06
-0.0016584782
2.6412055e-06
-0.0016612394
2.7612196e-06
-0.0016641212
2.8818326e-06
-0.0016671236
3.0024178e-06
-0.0016702459
3.12227e-06
-0.0016734865
3.2406003e-06
-0.001676843
3.3565376e-06
-0.0016803121
3.4691089e-06
-0.0016838894
3.5772469e-06
-0.0016875692
3.6797776e-06
-0.0016913446
3.7754183e-06
-0.0016952074
3.8627735e-06
-0.0016991477
3.9403457e-06
-0.0017031542
4.0065264e-06
-0.0017072139
4.0596264e-06
-0.0017113118
4.0978894e-06
-0.0017154313
4.119523e-06
-0.001719554
4.1227335e-06
-0.0017236598
4.1057765e-06
-0.0017277268
4.0669833e-06
-0.0017317316
4.0048239e-06
-0.0017356495
3.9179383e-06
-0.0017394547
3.8051774e-06
-0.0017431203
3.6656336e-06
-0.001746619
3.4986687e-06
-0.001749923
3.3039429e-06
-0.0017530044
3.0814241e-06
-0.0017558358
2.8314193e-06
-0.0017583904
2.5545862e-06
-0.0017606423
2.2519459e-06
-0.0017625672
1.9248926e-06
-0.0017641424
1.5751954e-06
-0.0017653474
1.2049861e-06
-0.0017661641
8.1674488e-07
-0.0017665774
4.1327496e-07
-0.0017665751
-2.3549461e-09
-0.0017661482
-4.2682044e-07
-0.0017652916
-8.5662851e-07
-0.0017640034
-1.2881845e-06
-0.0017622856
-1.717826e-06
-0.0017601437
-2.1419146e-06
-0.0017575868
-2.5568876e-06
-0.0017546275
-2.9593144e-06
-0.0017512816
-3.3459272e-06
-0.0017475679
-3.7136479e-06
-0.0017435083
-4.0595713e-06
-0.0017391274
-4.38095e-06
-0.0017344523
-4.675126e-06
-0.0017295128
-4.939482e-06
-0.0017243414
-5.1713635e-06
-0.0017189734
-5.3680334e-06
-0.0017134467
-5.5266693e-06
-0.0017078023
-5.644447e-06
-0.0017020836
-5.7186897e-06
-0.0016963364
-5.7471584e-06
-0.001690608
-5.728394e-06
-0.0016849459
-5.6621548e-06
-0.0016793961
-5.5497644e-06
-0.0016740017
-5.3944225e-06
-0.0016688004
-5.2012506e-06
-0.0016638233
-4.977103e-06
-0.0016590933
-4.7300701e-06
-0.0016546245
-4.468774e-06
-0.001650423
-4.2015021e-06
-0.0016464876
-3.9354271e-06
-0.0016428116
-3.6759826e-06
-0.001639385
-3.4265635e-06
-0.0016361965
-3.1885608e-06
-0.0016332347
-2.9617059e-06
-0.0016304902
-2.7445748e-06
-0.001627955
-2.5351718e-06
-0.0016256236
-2.3314122e-06
-0.0016234921
-2.1314709e-06
-0.0016215582
-1.9339489e-06
-0.0016198203
-1.7379136e-06
-0.0016182774
-1.5428067e-06
-0.0016169291
-1.3483559e-06
-0.0016157747
-1.1544134e-06
-0.0016148138
-9.6090257e-07
-0.0016140461
-7.676626e-07
-0.0016134716
-5.7454245e-07
-0.0016130904
-3.8118834e-07
-1.8738184e-07
-0.001615263
4.1684824e-07
-0.0016154855
4.4560955e-07
-0.0016157208
4.7121397e-07
-0.0016159722
5.0341787e-07
-0.0016162397
5.3548136e-07
-0.0016165254
5.7213607e-07
-0.0016168303
6.104762e-07
-0.0016171562
6.5272186e-07
-0.0016175047
6.976759e-07
-0.0016178775
7.4644806e-07
-0.0016182763
7.9861305e-07
-0.0016187032
8.5479506e-07
-0.0016191602
9.1492128e-07
-0.0016196493
9.7940809e-07
-0.0016201729
1.0483459e-06
-0.0016207333
1.1220654e-06
-0.0016213331
1.2007328e-06
-0.0016219747
1.2846445e-06
-0.001622661
1.3739997e-06
-0.0016233948
1.4690791e-06
-0.001624179
1.5700904e-06
-0.0016250168
1.6773017e-06
-0.0016259114
1.7909113e-06
-0.0016268661
1.9111691e-06
-0.0016278843
2.038248e-06
-0.0016289696
2.1723683e-06
-0.0016301254
2.3136606e-06
-0.0016313556
2.4623007e-06
-0.0016326637
2.6183579e-06
-0.0016340537
2.7819452e-06
-0.0016355291
2.9530494e-06
-0.0016370939
3.1316869e-06
-0.0016387518
3.3177906e-06
-0.0016405064
3.5111906e-06
-0.0016423613
3.7117466e-06
-0.0016443199
3.9191327e-06
-0.0016463856
4.1330635e-06
-0.0016485613
4.3530407e-06
-0.0016508498
4.578606e-06
-0.0016532538
4.8090591e-06
-0.0016557751
5.0437392e-06
-0.0016584157
5.2817194e-06
-0.0016611765
5.5220731e-06
-0.0016640583
5.7636641e-06
-0.0016670612
6.0052389e-06
-0.0016701843
6.2453859e-06
-0.0016734262
6.4825257e-06
-0.0016767846
6.7149132e-06
-0.0016802561
6.9405992e-06
-0.0016838363
7.1574446e-06
-0.0016875196
7.3630975e-06
-0.0016912992
7.5549871e-06
-0.0016951667
7.7303183e-06
-0.0016991124
7.8860917e-06
-0.001703125
8.0190872e-06
-0.0017071913
8.1259235e-06
-0.0017112965
8.2030856e-06
-0.001715424
8.2469862e-06
-0.0017195553
8.2540344e-06
-0.0017236702
8.2207357e-06
-0.001727747
8.1437451e-06
-0.0017317622
8.0199906e-06
-0.001735691
7.8467377e-06
-0.0017395074
7.6216701e-06
-0.0017431848
7.3429523e-06
-0.0017466954
7.0092867e-06
-0.0017500114
6.6199733e-06
-0.0017531049
6.1749289e-06
-0.0017559482
5.6747513e-06
-0.0017585144
5.1207444e-06
-0.0017607774
4.5149424e-06
-0.0017627126
3.860131e-06
-0.0017642973
3.1598511e-06
-0.0017655107
2.4183736e-06
-0.0017663346
1.6406723e-06
-0.0017667537
8.3237207e-07
-0.0017667557
-3.5567998e-10
-0.0017663317
-8.5082888e-07
-0.0017654763
-1.7120262e-06
-0.0017641878
-2.5767249e-06
-0.001762468
-3.4375748e-06
-0.0017603227
-4.2872657e-06
-0.0017577609
-5.11864e-06
-0.0017547954
-5.9248053e-06
-0.0017514421
-6.6991976e-06
-0.0017477202
-7.435637e-06
-0.0017436514
-8.1282945e-06
-0.0017392607
-8.7716628e-06
-0.0017345754
-9.3604207e-06
-0.0017296256
-9.8893352e-06
-0.0017244438
-1.0353107e-05
-0.0017190656
-1.0746278e-05
-0.001713529
-1.1063228e-05
-0.0017078751
-1.1298337e-05
-0.0017021475
-1.1446283e-05
-0.0016963921
-1.1502623e-05
-0.001690656
-1.146447e-05
-0.0016849868
-1.1331368e-05
-0.0016794306
-1.1105984e-05
-0.0016740303
-1.0794728e-05
-0.0016688237
-1.0407844e-05
-0.0016638417
-9.9590361e-06
-0.0016591073
-9.4644743e-06
-0.0016546347
-8.9413931e-06
-0.0016504299
-8.4063596e-06
-0.0016464916
-7.8737181e-06
-0.0016428132
-7.3543396e-06
-0.0016393847
-6.8550232e-06
-0.0016361947
-6.3785625e-06
-0.001633232
-5.9244325e-06
-0.0016304868
-5.4897956e-06
-0.0016279513
-5.0706674e-06
-0.0016256198
-4.6628822e-06
-0.0016234885
-4.2627899e-06
-0.0016215549
-3.86759e-06
-0.0016198174
-3.4754135e-06
-0.001618275
-3.0851381e-06
-0.0016169272
-2.696215e-06
-0.0016157733
-2.3083414e-06
-0.0016148128
-1.9213608e-06
-0.0016140455
-1.5349433e-06
-0.0016134713
-1.1487872e-06
-0.0016130903
-7.6217179e-07
-3.7466688e-07
-0.0016152523
6.2400404e-07
-0.0016154737
6.6707112e-07
-0.0016157079
7.0539663e-07
-0.0016159581
7.5361842e-07
-0.0016162243
8.0162e-07
-0.0016165086
8.5650518e-07
-0.0016168121
9.1390982e-07
-0.0016171365
9.7716784e-07
-0.0016174833
1.0444806e-06
-0.0016178544
1.1175147e-06
-0.0016182514
1.1956308e-06
-0.0016186764
1.2797662e-06
-0.0016191313
1.3698111e-06
-0.0016196182
1.4663908e-06
-0.0016201395
1.5696411e-06
-0.0016206975
1.6800585e-06
-0.0016212947
1.797893e-06
-0.0016219336
1.9235899e-06
-0.0016226171
2.0574489e-06
-0.0016233479
2.1998925e-06
-0.001624129
2.3512334e-06
-0.0016249636
2.5118755e-06
-0.0016258548
2.6821184e-06
-0.001626806
2.8623391e-06
-0.0016278205
3.0527995e-06
-0.001628902
3.2538333e-06
-0.001630054
3.4656397e-06
-0.0016312802
3.6884861e-06
-0.0016325843
3.9224807e-06
-0.0016339701
4.1677976e-06
-0.0016354415
4.424422e-06
-0.0016370022
4.6923838e-06
-0.001638656
4.9715878e-06
-0.0016404066
5.2617852e-06
-0.0016422576
5.5627718e-06
-0.0016442126
5.8740649e-06
-0.0016462747
6.1952425e-06
-0.0016484473
6.5255635e-06
-0.001650733
6.864346e-06
-0.0016531345
7.2105455e-06
-0.0016556539
7.5631752e-06
-0.0016582931
7.9208489e-06
-0.0016610532
8.2821798e-06
-0.001663935
8.645465e-06
-0.0016669385
9.0088245e-06
-0.0016700633
9.3701393e-06
-0.0016733078
9.7270368e-06
-0.0016766698
1.0076894e-05
-0.001680146
1.0416779e-05
-0.001683732
1.0743476e-05
-0.0016874224
1.1053445e-05
-0.0016912102
1.134282e-05
-0.0016950873
1.1607397e-05
-0.0016990438
1.1842665e-05
-0.0017030685
1.2043786e-05
-0.0017071483
1.2205679e-05
-0.0017112683
1.232306e-05
-0.0017154118
1.2390541e-05
-0.0017195605
1.2402721e-05
-0.0017236941
1.2354342e-05
-0.0017277907
1.2240363e-05
-0.0017318269
1.2056146e-05
-0.0017357777
1.1797551e-05
-0.0017396171
1.146106e-05
-0.001743318
1.104387e-05
-0.0017468527
1.0543987e-05
-0.001750193
9.9603117e-06
-0.0017533108
9.2926758e-06
-0.001756178
8.5419401e-06
-0.0017587673
7.7100342e-06
-0.0017610523
6.7999939e-06
-0.0017630082
5.8159946e-06
-0.0017646117
4.7633571e-06
-0.0017658418
3.6485096e-06
-0.0017666801
2.4789482e-06
-0.0017671109
1.2631557e-06
-0.0017671217
1.0452869e-08
-0.0017667034
-1.2690795e-06
-0.0017658506
-2.5648356e-06
-0.0017645615
-3.865889e-06
-0.0017628379
-5.1611329e-06
-0.0017606857
-6.4395128e-06
-0.0017581141
-7.6902076e-06
-0.0017551361
-8.9027983e-06
-0.0017517679
-1.0067367e-05
-0.001748029
-1.1174584e-05
-0.0017439416
-1.2215657e-05
-0.001739531
-1.3182298e-05
-0.0017348249
-1.4066508e-05
-0.0017298538
-1.4860445e-05
-0.0017246507
-1.5556181e-05
-0.0017192514
-1.6145572e-05
-0.0017136944
-1.6620238e-05
-0.0017080209
-1.697182e-05
-0.0017022748
-1.7192409e-05
-0.001696502
-1.7275417e-05
-0.0016907499
-1.7216586e-05
-0.001685066
-1.7015296e-05
-0.0016794964
-1.6675597e-05
-0.0016740839
-1.6207138e-05
-0.0016688665
-1.56253e-05
-0.0016638749
-1.4950639e-05
-0.001659132
-1.4207403e-05
-0.0016546519
-1.3421433e-05
-0.0016504407
-1.261757e-05
-0.0016464971
-1.181733e-05
-0.0016428144
-1.1037027e-05
-0.0016393826
-1.0286873e-05
-0.00163619
-9.5710785e-06
-0.0016332256
-8.888877e-06
-0.0016304794
-8.2360295e-06
-0.0016279435
-7.606572e-06
-0.0016256121
-6.9942617e-06
-0.0016234812
-6.3936243e-06
-0.0016215484
-5.8004538e-06
-0.0016198119
-5.2119384e-06
-0.0016182706
-4.6263834e-06
-0.0016169239
-4.0429542e-06
-0.001615771
-3.4611831e-06
-0.0016148116
-2.8808246e-06
-0.0016140451
-2.301369e-06
-0.0016134716
-1.7223564e-06
-0.0016130911
-1.1426882e-06
-5.6171748e-07
-0.0016152338
8.2965824e-07
-0.0016154537
8.8692769e-07
-0.0016156862
9.3789084e-07
-0.0016159346
1.0020227e-06
-0.0016161988
1.0658584e-06
-0.0016164812
1.1388559e-06
-0.0016167824
1.215204e-06
-0.0016171046
1.2993428e-06
-0.001617449
1.388877e-06
-0.0016178175
1.4860267e-06
-0.0016182118
1.5899409e-06
-0.0016186339
1.7018684e-06
-0.0016190858
1.8216639e-06
-0.0016195696
1.9501611e-06
-0.0016200875
2.0875421e-06
-0.0016206419
2.2344694e-06
-0.0016212353
2.3912779e-06
-0.0016218702
2.5585626e-06
-0.0016225495
2.736725e-06
-0.001623276
2.9263304e-06
-0.0016240525
3.1277986e-06
-0.0016248823
3.3416711e-06
-0.0016257685
3.5683512e-06
-0.0016267146
3.8083453e-06
-0.0016277238
4.062008e-06
-0.0016287997
4.3297891e-06
-0.001629946
4.6119607e-06
-0.0016311664
4.9088859e-06
-0.0016324647
5.2207167e-06
-0.0016338446
5.5476931e-06
-0.0016353099
5.8898047e-06
-0.0016368647
6.2471004e-06
-0.0016385125
6.6194636e-06
-0.0016402573
7.0065732e-06
-0.0016421027
7.4081676e-06
-0.0016440523
7.8236147e-06
-0.0016461094
8.2523629e-06
-0.0016482773
8.6934353e-06
-0.0016505589
9.1459334e-06
-0.0016529568
9.6084746e-06
-0.0016554734
1.0079752e-05
-0.0016581104
1.0557926e-05
-0.0016608694
1.1041153e-05
-0.0016637511
1.1527166e-05
-0.0016667557
1.2013462e-05
-0.0016698828
1.2497212e-05
-0.001673131
1.2975249e-05
-0.0016764982
1.3444068e-05
-0.0016799812
1.389975e-05
-0.0016835757
1.4337991e-05
-0.0016872763
1.4754057e-05
-0.0016910763
1.5142774e-05
-0.0016949674
1.5498518e-05
-0.00169894
1.5815255e-05
-0.0017029827
1.6086513e-05
-0.0017070825
1.6305497e-05
-0.0017112246
1.6465145e-05
-0.0017153923
1.6558244e-05
-0.0017195671
1.6577565e-05
-0.0017237289
1.6516059e-05
-0.0017278555
1.6366958e-05
-0.0017319233
1.6124016e-05
-0.0017359074
1.5781642e-05
-0.0017397814
1.5335065e-05
-0.001743518
1.478046e-05
-0.0017470891
1.4115075e-05
-0.0017504662
1.3337361e-05
-0.0017536205
1.2447016e-05
-0.0017565237
1.144512e-05
-0.0017591478
1.0334201e-05
-0.0017614661
9.1182761e-06
-0.001763453
7.8029075e-06
-0.0017650849
6.3952057e-06
-0.0017663402
4.9037819e-06
-0.0017671999
3.3386957e-06
-0.0017676481
1.7113432e-06
-0.0017676719
3.4268771e-08
-0.001767262
-1.6789663e-06
-0.0017664128
-3.414078e-06
-0.0017651223
-5.1563343e-06
-0.0017633927
-6.8907706e-06
-0.0017612297
-8.6024825e-06
-0.001758643
-1.0276883e-05
-0.0017556459
-1.189993e-05
-0.001752255
-1.3458266e-05
-0.0017484903
-1.4939339e-05
-0.0017443746
-1.6331339e-05
-0.0017399337
-1.7623158e-05
-0.0017351961
-1.8804106e-05
-0.0017301928
-1.9863738e-05
-0.0017249575
-2.0791526e-05
-0.0017195264
-2.1576685e-05
-0.0017139385
-2.2208146e-05
-0.0017082354
-2.2674885e-05
-0.0017024613
-2.2966492e-05
-0.0016966624
-2.3074326e-05
-0.0016908861
-2.2992843e-05
-0.0016851801
-2.2721337e-05
-0.0016795904
-2.2265298e-05
-0.0016741599
-2.1637658e-05
-0.0016689262
-2.0858959e-05
-0.0016639202
-1.995662e-05
-0.0016591647
-1.8962964e-05
-0.0016546737
-1.791243e-05
-0.0016504531
-1.6838127e-05
-0.0016465017
-1.5768741e-05
-0.0016428127
-1.4726034e-05
-0.0016393759
-1.3723647e-05
-0.0016361798
-1.2767224e-05
-0.0016332129
-1.1855775e-05
-0.0016304652
-1.0983677e-05
-0.0016279288
-1.0142999e-05
-0.0016255976
-9.3254285e-06
-0.0016234676
-8.5236659e-06
-0.001621536
-7.7320955e-06
-0.0016198009
-6.9469534e-06
-0.0016182614
-6.1659603e-06
-0.0016169163
-5.3879821e-06
-0.0016157652
-4.6123713e-06
-0.0016148072
-3.8387793e-06
-0.0016140421
-3.0665015e-06
-0.0016134695
-2.2949075e-06
-0.0016130897
-1.5225038e-06
-7.484199e-07
-0.0016152107
1.033322e-06
-0.0016154284
1.1046623e-06
-0.0016156587
1.1681506e-06
-0.0016159047
1.2480515e-06
-0.0016161664
1.3275841e-06
-0.0016164461
1.418539e-06
-0.0016167446
1.5136712e-06
-0.0016170637
1.6185183e-06
-0.001617405
1.7300938e-06
-0.0016177701
1.8511676e-06
-0.0016181608
1.9806793e-06
-0.0016185792
2.1201882e-06
-0.001619027
2.2695146e-06
-0.0016195066
2.4297004e-06
-0.00162002
2.6009749e-06
-0.0016205697
2.7841675e-06
-0.0016211581
2.9796987e-06
-0.0016217879
3.1883146e-06
-0.0016224616
3.41052e-06
-0.0016231823
3.647025e-06
-0.0016239529
3.8983587e-06
-0.0016247764
4.1652026e-06
-0.0016256562
4.4480665e-06
-0.0016265954
4.74759e-06
-0.0016275976
5.064224e-06
-0.0016286664
5.398539e-06
-0.0016298053
5.7508847e-06
-0.0016310181
6.1217255e-06
-0.0016323087
6.511263e-06
-0.0016336808
6.9198099e-06
-0.0016351383
7.3473669e-06
-0.0016366853
7.7940097e-06
-0.0016383254
8.2596083e-06
-0.0016400626
8.7437776e-06
-0.0016419006
9.2462074e-06
-0.0016438432
9.7661253e-06
-0.0016458937
1.0302859e-05
-0.0016480554
1.0855205e-05
-0.0016503315
1.1422058e-05
-0.0016527248
1.2001704e-05
-0.0016552376
1.2592527e-05
-0.0016578719
1.3192238e-05
-0.0016606293
1.3798545e-05
-0.0016635107
1.4408622e-05
-0.0016665166
1.5019344e-05
-0.0016696466
1.5627177e-05
-0.0016728995
1.6228159e-05
-0.0016762733
1.6817898e-05
-0.001679765
1.7391484e-05
-0.0016833706
1.7943518e-05
-0.0016870846
1.846806e-05
-0.0016909004
1.8958616e-05
-0.00169481
1.9408127e-05
-0.0016988038
1.9809021e-05
-0.0017028704
2.0153172e-05
-0.001706997
2.0432051e-05
-0.0017111686
2.0636788e-05
-0.0017153687
2.0758321e-05
-0.0017195787
2.0787557e-05
-0.0017237783
2.0715615e-05
-0.0017279453
2.0533949e-05
-0.0017320559
2.0234652e-05
-0.0017360849
1.9810617e-05
-0.0017400055
1.9255749e-05
-0.0017437902
1.856513e-05
-0.0017474103
1.773518e-05
-0.0017508368
1.6763828e-05
-0.0017540403
1.5650576e-05
-0.0017569919
1.4396675e-05
-0.0017596629
1.3005208e-05
-0.0017620258
1.1481157e-05
-0.0017640543
9.8314629e-06
-0.0017657242
8.0650413e-06
-0.0017670131
6.1927207e-06
-0.0017679016
4.2271785e-06
-0.0017683731
2.1827971e-06
-0.0017684142
7.5437556e-08
-0.0017680154
-2.077754e-06
-0.0017671708
-4.2586911e-06
-0.0017658785
-6.4486973e-06
-0.0017641404
-8.62881e-06
-0.0017619628
-1.078013e-05
-0.0017593555
-1.2884165e-05
-0.0017563323
-1.4923119e-05
-0.0017529105
-1.6880076e-05
-0.0017491107
-1.8739166e-05
-0.0017449565
-2.0485483e-05
-0.0017404746
-2.2105054e-05
-0.0017356943
-2.3584474e-05
-0.0017306473
-2.4910709e-05
-0.0017253681
-2.6070661e-05
-0.0017198939
-2.7050976e-05
-0.001714264
-2.7837974e-05
-0.0017085208
-2.8418077e-05
-0.0017027088
-2.8778486e-05
-0.0016968745
-2.8908626e-05
-0.0016910656
-2.8801778e-05
-0.0016853297
-2.8457251e-05
-0.0016797129
-2.7882062e-05
-0.0016742581
-2.7092484e-05
-0.0016690028
-2.6114262e-05
-0.0016639777
-2.4981697e-05
-0.0016592055
-2.3735191e-05
-0.0016547002
-2.2417778e-05
-0.0016504674
-2.1070831e-05
-0.001646506
-1.9730203e-05
-0.0016428089
-1.8423112e-05
-0.0016393659
-1.7166639e-05
-0.0016361653
-1.5967881e-05
-0.0016331954
-1.4825643e-05
-0.0016304461
-1.3732939e-05
-0.0016279092
-1.2679882e-05
-0.0016255786
-1.1656096e-05
-0.0016234498
-1.0652459e-05
-0.0016215199
-9.6619371e-06
-0.0016197871
-8.6798028e-06
-0.0016182499
-7.7031767e-06
-0.0016169073
-6.7306079e-06
-0.0016157584
-5.7612496e-06
-0.0016148025
-4.7946321e-06
-0.0016140392
-3.8298349e-06
-0.0016134681
-2.866042e-06
-0.0016130892
-1.9013428e-06
-9.3463293e-07
-0.0016151819
1.2345112e-06
-0.001615397
1.3197621e-06
-0.0016156245
1.3956367e-06
-0.0016158676
1.4911331e-06
-0.0016161262
1.5861932e-06
-0.0016164026
1.6949143e-06
-0.0016166975
1.8086344e-06
-0.001617013
1.9339771e-06
-0.0016173503
2.0673722e-06
-0.0016177112
2.2121343e-06
-0.0016180976
2.3669971e-06
-0.0016185112
2.5338282e-06
-0.0016189541
2.7124157e-06
-0.0016194284
2.904009e-06
-0.0016199363
3.1088863e-06
-0.0016204802
3.3280441e-06
-0.0016210625
3.5619906e-06
-0.0016216858
3.8116237e-06
-0.0016223528
4.0775542e-06
-0.0016230664
4.3606387e-06
-0.0016238296
4.6615183e-06
-0.0016246454
4.9810178e-06
-0.0016255171
5.3197572e-06
-0.001626448
5.6785133e-06
-0.0016274416
6.057838e-06
-0.0016285015
6.4584276e-06
-0.0016296314
6.8807156e-06
-0.0016308349
7.3252739e-06
-0.001632116
7.7923612e-06
-0.0016334786
8.2823703e-06
-0.0016349265
8.7953216e-06
-0.0016364638
9.3313268e-06
-0.0016380945
9.8902515e-06
-0.0016398224
1.0471657e-05
-0.0016416514
1.1075196e-05
-0.0016435852
1.1699965e-05
-0.0016456275
1.2345183e-05
-0.0016477817
1.3009431e-05
-0.0016500511
1.3691407e-05
-0.0016524385
1.4389079e-05
-0.0016549465
1.5100528e-05
-0.0016575773
1.582303e-05
-0.0016603326
1.655385e-05
-0.0016632136
1.7289613e-05
-0.0016662208
1.8026577e-05
-0.0016693541
1.8760505e-05
-0.0016726126
1.9486643e-05
-0.0016759944
2.0199713e-05
-0.0016794967
2.0893808e-05
-0.0016831157
2.1562429e-05
-0.001686846
2.219842e-05
-0.0016906813
2.2793954e-05
-0.0016946137
2.334052e-05
-0.0016986337
2.3828985e-05
-0.0017027301
2.4249547e-05
-0.0017068899
2.4591912e-05
-0.0017110985
2.4845369e-05
-0.0017153392
2.4998962e-05
-0.0017195933
2.5041687e-05
-0.0017238405
2.4962773e-05
-0.0017280583
2.475183e-05
-0.0017322229
2.4399216e-05
-0.0017363085
2.3896228e-05
-0.0017402881
2.3235358e-05
-0.0017441335
2.2410504e-05
-0.0017478155
2.1417171e-05
-0.0017513043
2.025268e-05
-0.00175457
1.8916261e-05
-0.0017575826
1.7409272e-05
-0.0017603127
1.5735308e-05
-0.0017627318
1.3900279e-05
-0.0017648129
1.1912506e-05
-0.0017665306
9.7827233e-06
-0.0017678619
7.5240207e-06
-0.0017687864
5.151762e-06
-0.0017692871
2.6834094e-06
-0.0017693499
1.3826048e-07
-0.0017689648
-2.4628157e-06
-0.0017681257
-5.0977721e-06
-0.0017668306
-7.7438155e-06
-0.0017650816
-1.0377809e-05
-0.0017628851
-1.2976675e-05
-0.0017602514
-1.5517838e-05
-0.0017571949
-1.7979585e-05
-0.0017537337
-2.0341289e-05
-0.0017498893
-2.2583638e-05
-0.0017456862
-2.4688535e-05
-0.0017411522
-2.6639081e-05
-0.0017363175
-2.8419131e-05
-0.0017312152
-3.001307e-05
-0.0017258805
-3.1405283e-05
-0.0017203516
-3.2579926e-05
-0.0017146687
-3.3520818e-05
-0.0017088749
-3.4211962e-05
-0.001703015
-3.4638312e-05
-0.0016971361
-3.4787512e-05
-0.0016912861
-3.465181e-05
-0.0016855127
-3.4230663e-05
-0.001679862
-3.3532715e-05
-0.0016743769
-3.2577669e-05
-0.0016690946
-3.1396518e-05
-0.0016640458
-3.0030475e-05
-0.001659253
-2.8528027e-05
-0.00165473
-2.6940803e-05
-0.0016504824
-2.5318431e-05
-0.0016465086
-2.3703933e-05
-0.0016428018
-2.2129983e-05
-0.0016393513
-2.0617118e-05
-0.0016361453
-1.9173905e-05
-0.0016331719
-1.7798973e-05
-0.0016304209
-1.6483986e-05
-0.0016278836
-1.5217122e-05
-0.0016255538
-1.3985949e-05
-0.0016234267
-1.277952e-05
-0.0016214993
-1.1589375e-05
-0.0016197693
-1.040981e-05
-0.0016182351
-9.2373247e-06
-0.0016168956
-8.0701307e-06
-0.0016157497
-6.9071568e-06
-0.0016147966
-5.7477899e-06
-0.0016140355
-4.5908677e-06
-0.0016134662
-3.4353692e-06
-0.0016130886
-2.278939e-06
-1.1202268e-06
-0.0016151486
1.4327478e-06
-0.0016153606
1.531721e-06
-0.0016155848
1.6198154e-06
-0.0016158243
1.7307014e-06
-0.0016160792
1.8410873e-06
-0.0016163517
1.9673475e-06
-0.0016166424
2.0994224e-06
-0.0016169535
2.2450079e-06
-0.0016172861
2.3999591e-06
-0.0016176421
2.5681293e-06
-0.0016180231
2.7480506e-06
-0.0016184312
2.9418965e-06
-0.0016188682
3.1494249e-06
-0.0016193363
3.3720924e-06
-0.0016198376
3.6102278e-06
-0.0016203746
3.8649952e-06
-0.0016209496
4.1369925e-06
-0.0016215652
4.4272711e-06
-0.0016222242
4.7365501e-06
-0.0016229294
5.0658348e-06
-0.0016236838
5.4158822e-06
-0.0016244904
5.7876634e-06
-0.0016253526
6.1819133e-06
-0.0016262736
6.5995503e-06
-0.001627257
7.0412331e-06
-0.0016283064
7.5077897e-06
-0.0016294254
7.9997445e-06
-0.0016306179
8.5177841e-06
-0.0016318878
9.062233e-06
-0.001633239
9.6335727e-06
-0.0016346755
1.0231854e-05
-0.0016362014
1.0857233e-05
-0.0016378207
1.1509585e-05
-0.0016395375
1.2188427e-05
-0.0016413557
1.2893387e-05
-0.0016432792
1.3623445e-05
-0.0016453117
1.4377723e-05
-0.0016474569
1.5154601e-05
-0.0016497181
1.5952591e-05
-0.0016520984
1.6769359e-05
-0.0016546005
1.7602695e-05
-0.0016572269
1.8449451e-05
-0.0016599796
1.9306462e-05
-0.0016628598
2.0169813e-05
-0.0016658683
2.1035152e-05
-0.0016690054
2.1897552e-05
-0.0016722702
2.2751464e-05
-0.0016756612
2.3590731e-05
-0.0016791759
2.4408445e-05
-0.0016828104
2.5197002e-05
-0.00168656
2.594802e-05
-0.0016904184
2.6652327e-05
-0.0016943778
2.729994e-05
-0.001698429
2.7880141e-05
-0.0017025609
2.8381421e-05
-0.0017067606
2.8791682e-05
-0.0017110136
2.9098325e-05
-0.0017153031
2.9288449e-05
-0.0017196104
2.9349072e-05
-0.0017239151
2.9267461e-05
-0.0017281946
2.9031299e-05
-0.0017324245
2.8629115e-05
-0.0017365788
2.8050506e-05
-0.0017406299
2.7286451e-05
-0.0017445489
2.6329553e-05
-0.001748306
2.5174295e-05
-0.0017518707
2.3817288e-05
-0.0017552118
2.2257401e-05
-0.0017582985
2.0496022e-05
-0.0017611004
1.8537199e-05
-0.0017635879
1.638774e-05
-0.0017657327
1.4057332e-05
-0.0017675086
1.1558552e-05
-0.0017688913
8.9068e-06
-0.0017698598
6.1202072e-06
-0.0017703958
3.2194282e-06
-0.0017704849
2.2733994e-07
-0.0017701164
-2.8312989e-06
-0.0017692839
-5.9302852e-06
-0.0017679852
-9.0424964e-06
-0.0017662226
-1.2140402e-05
-0.0017640028
-1.5196522e-05
-0.0017613366
-1.8183977e-05
-0.0017582393
-2.1076931e-05
-0.0017547297
-2.3850861e-05
-0.0017508305
-2.6482865e-05
-0.0017465675
-2.895153e-05
-0.0017419696
-3.1236961e-05
-0.0017370685
-3.3320236e-05
-0.0017318984
-3.5183185e-05
-0.0017264959
-3.6807723e-05
-0.0017209002
-3.8175629e-05
-0.0017151527
-3.9268349e-05
-0.001709297
-4.0067632e-05
-0.001703379
-4.0556362e-05
-0.0016974459
-4.0720588e-05
-0.001691546
-4.0551699e-05
-0.0016857272
-4.0049459e-05
-0.0016800357
-3.9224273e-05
-0.001674514
-3.8099372e-05
-0.0016691994
-3.6711068e-05
-0.0016641224
-3.5107522e-05
-0.0016593051
-3.3345321e-05
-0.0016547612
-3.1484686e-05
-0.0016504961
-2.9583497e-05
-0.0016465081
-2.7691937e-05
-0.00164279
-2.5848143e-05
-0.001639331
-2.4076119e-05
-0.0016361189
-2.2385926e-05
-0.0016331419
-2.0776032e-05
-0.0016303891
-1.923678e-05
-0.0016278518
-1.7754426e-05
-0.0016255232
-1.6314489e-05
-0.0016233986
-1.4904196e-05
-0.0016214743
-1.3513653e-05
-0.0016197479
-1.2136159e-05
-0.0016182177
-1.0767573e-05
-0.0016168821
-9.4057399e-06
-0.0016157399
-8.0493362e-06
-0.0016147901
-6.6975778e-06
-0.0016140319
-5.3490304e-06
-0.0016134649
-4.0024445e-06
-0.0016130888
-2.6549869e-06
-1.3050465e-06
-0.0016151078
1.6275589e-06
-0.0016153162
1.7400375e-06
-0.0016155365
1.8401589e-06
-0.001615772
1.9661967e-06
-0.0016160226
2.091675e-06
-0.0016162905
2.2352115e-06
-0.0016165764
2.385371e-06
-0.0016168823
2.550907e-06
-0.0016172095
2.7271093e-06
-0.0016175597
2.9183636e-06
-0.0016179346
3.1230049e-06
-0.0016183363
3.3435098e-06
-0.0016187664
3.5796087e-06
-0.0016192273
3.8329648e-06
-0.001619721
4.1039596e-06
-0.00162025
4.3939255e-06
-0.0016208165
4.703552e-06
-0.0016214233
5.0340461e-06
-0.001622073
5.3862376e-06
-0.0016227684
5.7612839e-06
-0.0016235126
6.1600613e-06
-0.0016243087
6.5836913e-06
-0.0016251598
7.0330287e-06
-0.0016260694
7.5091386e-06
-0.0016270409
8.0127931e-06
-0.0016280781
8.5449587e-06
-0.0016291846
9.1062585e-06
-0.0016303643
9.6975024e-06
-0.0016316212
1.031909e-05
-0.0016329592
1.0971602e-05
-0.0016343825
1.165513e-05
-0.0016358951
1.2369889e-05
-0.0016375013
1.3115771e-05
-0.0016392052
1.389227e-05
-0.0016410108
1.4698997e-05
-0.0016429222
1.5534833e-05
-0.0016449433
1.6398817e-05
-0.0016470778
1.7289142e-05
-0.0016493294
1.8204155e-05
-0.0016517012
1.9141229e-05
-0.0016541964
2.0097883e-05
-0.0016568175
2.1070559e-05
-0.0016595667
2.2055675e-05
-0.0016624457
2.3048788e-05
-0.0016654555
2.4044953e-05
-0.0016685965
2.5038555e-05
-0.0016718683
2.6023265e-05
-0.0016752696
2.6992045e-05
-0.0016787982
2.793699e-05
-0.0016824506
2.8849387e-05
-0.0016862222
2.971962e-05
-0.001690107
3.0537158e-05
-0.0016940976
3.1290523e-05
-0.0016981848
3.1967388e-05
-0.0017023579
3.2554495e-05
-0.0017066041
3.3037901e-05
-0.0017109089
3.340306e-05
-0.0017152555
3.3635059e-05
-0.0017196252
3.3718859e-05
-0.0017239975
3.3639676e-05
-0.0017283493
3.338316e-05
-0.0017326561
3.2935902e-05
-0.0017368913
3.2285679e-05
-0.0017410267
3.1421828e-05
-0.0017450326
3.033553e-05
-0.0017488785
2.902012e-05
-0.0017525326
2.7471379e-05
-0.0017559629
2.5687708e-05
-0.0017591373
2.3670433e-05
-0.0017620241
2.1423986e-05
-0.0017645923
1.895603e-05
-0.0017668126
1.627761e-05
-0.0017686572
1.3403164e-05
-0.0017701009
1.0350463e-05
-0.0017711212
7.1405022e-06
-0.001771699
3.7972619e-06
-0.0017718191
3.473691e-07
-0.00177147
-3.1803276e-06
-0.0017706451
-6.7552379e-06
-0.0017693419
-1.0345659e-05
-0.0017675629
-1.3919405e-05
-0.0017653151
-1.7444321e-05
-0.0017626101
-2.0888963e-05
-0.0017594639
-2.4223123e-05
-0.0017558966
-2.7418159e-05
-0.0017519321
-3.0447396e-05
-0.0017475977
-3.3285961e-05
-0.0017429238
-3.5910878e-05
-0.0017379436
-3.8300404e-05
-0.0017326929
-4.0433837e-05
-0.00172721
-4.2290697e-05
-0.0017215351
-4.3850506e-05
-0.0017157109
-4.5092502e-05
-0.0017097822
-4.5996379e-05
-0.0017037954
-4.654316e-05
-0.0016977985
-4.6717524e-05
-0.0016918399
-4.651021e-05
-0.0016859679
-4.5921483e-05
-0.0016802285
-4.4963667e-05
-0.0016746642
-4.3663645e-05
-0.0016693122
-4.2063127e-05
-0.0016642024
-4.0217271e-05
-0.001659357
-3.8190781e-05
-0.0016547892
-3.605247e-05
-0.0016505042
-3.386846e-05
-0.0016465001
-3.1696088e-05
-0.0016427693
-2.9578959e-05
-0.0016393008
-2.7544555e-05
-0.0016360823
-2.5604445e-05
-0.0016331014
-2.3756968e-05
-0.001630347
-2.1991165e-05
-0.00162781
-2.0291386e-05
-0.0016254834
-1.8641112e-05
-0.0016233619
-1.702574e-05
-0.0016214416
-1.5433929e-05
-0.0016197198
-1.3857962e-05
-0.0016181943
-1.2293025e-05
-0.0016168635
-1.073657e-05
-0.0016157259
-9.1869863e-06
-0.0016147801
-7.6432866e-06
-0.0016140254
-6.1037288e-06
-0.0016134611
-4.5668078e-06
-0.0016130869
-3.0291741e-06
-1.4889392e-06
-0.0016150627
1.8184786e-06
-0.0016152669
1.9442174e-06
-0.0016154829
2.0561464e-06
-0.0016157137
2.1970662e-06
-0.0016159594
2.3373714e-06
-0.0016162221
2.4978858e-06
-0.0016165025
2.6658231e-06
-0.0016168026
2.8509774e-06
-0.0016171236
3.0480843e-06
-0.0016174673
3.2620545e-06
-0.0016178353
3.4910308e-06
-0.0016182296
3.7377903e-06
-0.001618652
4.0020386e-06
-0.0016191047
4.2856449e-06
-0.0016195898
4.5890454e-06
-0.0016201096
4.9137417e-06
-0.0016206666
5.2605177e-06
-0.0016212633
5.6307372e-06
-0.0016219024
6.0253447e-06
-0.0016225867
6.4456524e-06
-0.0016233193
6.89266e-06
-0.0016241033
7.367644e-06
-0.0016249418
7.8715846e-06
-0.0016258384
8.4057e-06
-0.0016267965
8.9708821e-06
-0.0016278198
9.5682441e-06
-0.001628912
1.0198516e-05
-0.0016300772
1.0862641e-05
-0.0016313192
1.1561105e-05
-0.0016326422
1.2294598e-05
-0.0016340503
1.3063266e-05
-0.0016355478
1.3867395e-05
-0.001637139
1.4706911e-05
-0.001638828
1.5581295e-05
-0.0016406192
1.6490162e-05
-0.0016425166
1.7432307e-05
-0.0016445245
1.8406706e-05
-0.0016466468
1.9411383e-05
-0.0016488871
2.0444532e-05
-0.0016512492
2.150326e-05
-0.0016537361
2.2584827e-05
-0.0016563508
2.3685283e-05
-0.0016590958
2.4800649e-05
-0.001661973
2.592597e-05
-0.0016649838
2.705572e-05
-0.0016681288
2.8183612e-05
-0.0016714081
2.9302544e-05
-0.0016748207