/*--------------------------------*- C++ -*----------------------------------*\
| =========                 |                                                 |
| \\      /  F ield         | foam-extend: Open Source CFD                    |
|  \\    /   O peration     | Version:     4.1                                |
|   \\  /    A nd           | Web:         http://www.foam-extend.org         |
|    \\/     M anipulation  |                                                 |
\*---------------------------------------------------------------------------*/
FoamFile
{
    version     2.0;
    format      ascii;
    class       volScalarField;
    location    "0.5";
    object      rAU;
}
// * * * * * * * * * * * * * * * * * * * * * * * * * * * * * * * * * * * * * //

dimensions      [0 0 1 0 0 0 0];

internalField   nonuniform List<scalar> 
16796
(
0.00048792172
0.00048751402
0.00048751254
0.00048751105
0.00048750937
0.00048750767
0.00048750577
0.00048750383
0.00048750166
0.00048749943
0.00048749695
0.00048749439
0.00048749156
0.00048748862
0.00048748539
0.00048748201
0.00048747831
0.00048747445
0.00048747022
0.00048746579
0.00048746096
0.0004874559
0.0004874504
0.00048744463
0.00048743838
0.00048743181
0.00048742472
0.00048741727
0.00048740925
0.00048740083
0.0004873918
0.00048738227
0.00048737221
0.00048736149
0.00048735024
0.00048733827
0.00048732574
0.00048731245
0.00048729857
0.0004872839
0.0004872686
0.00048725251
0.00048723573
0.00048721821
0.00048719995
0.00048718097
0.00048716127
0.00048714087
0.00048711978
0.00048709804
0.00048707567
0.00048705273
0.00048702925
0.00048700531
0.00048698097
0.00048695631
0.00048693141
0.00048690639
0.00048688134
0.00048685641
0.00048683171
0.00048680739
0.0004867836
0.0004867605
0.00048673824
0.00048671699
0.00048669694
0.00048667823
0.00048666104
0.00048664553
0.00048663185
0.00048662016
0.00048661059
0.00048660327
0.0004865983
0.00048659578
0.00048659578
0.00048659577
0.00048659835
0.00048660353
0.00048661133
0.00048662174
0.00048663472
0.00048665022
0.00048666816
0.00048668845
0.00048671097
0.0004867356
0.00048676218
0.00048679054
0.00048682052
0.00048685192
0.00048688451
0.00048691807
0.00048695235
0.00048698709
0.00048702201
0.00048705684
0.00048709126
0.00048712501
0.00048715782
0.00048718946
0.00048721974
0.00048724854
0.00048727573
0.00048730131
0.00048732527
0.00048734765
0.0004873685
0.00048738792
0.00048740595
0.00048742266
0.00048743809
0.00048745229
0.00048746526
0.00048747704
0.00048748762
0.00048749702
0.00048750523
0.00048751226
0.00048751811
0.00048752279
0.00048752629
0.00048712287
0.00048761563
0.00048720835
0.0004872068
0.00048720522
0.00048720345
0.00048720165
0.00048719964
0.00048719757
0.00048719527
0.00048719291
0.00048719028
0.00048718756
0.00048718455
0.00048718143
0.00048717799
0.00048717441
0.00048717048
0.00048716637
0.00048716189
0.00048715718
0.00048715207
0.00048714669
0.00048714087
0.00048713475
0.00048712813
0.00048712117
0.00048711368
0.00048710579
0.00048709733
0.00048708843
0.0004870789
0.00048706885
0.00048705826
0.00048704697
0.00048703514
0.00048702257
0.00048700941
0.00048699549
0.00048698095
0.0004869656
0.00048694962
0.00048693283
0.00048691535
0.00048689711
0.00048687815
0.00048685846
0.00048683805
0.00048681697
0.00048679521
0.00048677282
0.00048674984
0.00048672632
0.00048670232
0.00048667791
0.00048665316
0.00048662817
0.00048660303
0.00048657786
0.00048655277
0.00048652792
0.00048650343
0.00048647946
0.00048645616
0.0004864337
0.00048641224
0.00048639196
0.00048637304
0.00048635563
0.00048633991
0.00048632602
0.00048631413
0.00048630437
0.00048629688
0.00048629176
0.0004862891
0.00048628899
0.00048629149
0.00048628891
0.00048628887
0.00048629142
0.00048629661
0.00048630444
0.00048631491
0.00048632798
0.00048634359
0.00048636167
0.00048638212
0.00048640482
0.00048642963
0.00048645642
0.00048648501
0.00048651523
0.00048654687
0.00048657973
0.00048661357
0.00048664814
0.00048668318
0.0004867184
0.00048675349
0.00048678818
0.00048682215
0.00048685514
0.00048688691
0.00048691727
0.00048694609
0.00048697326
0.00048699879
0.00048702267
0.00048704495
0.00048706573
0.00048708507
0.00048710303
0.00048711969
0.00048713508
0.00048714924
0.00048716219
0.00048717395
0.00048718451
0.00048719389
0.00048720208
0.00048720909
0.00048721494
0.00048721961
0.00048681788
0.00048761443
0.00048720708
0.00048720546
0.00048720379
0.00048720193
0.00048720002
0.0004871979
0.00048719572
0.0004871933
0.00048719079
0.00048718801
0.00048718513
0.00048718196
0.00048717865
0.00048717502
0.00048717123
0.00048716708
0.00048716273
0.00048715799
0.00048715302
0.00048714761
0.00048714193
0.00048713578
0.00048712932
0.00048712234
0.000487115
0.00048710709
0.00048709879
0.00048708987
0.0004870805
0.00048707048
0.00048705991
0.00048704878
0.00048703693
0.00048702451
0.00048701133
0.00048699755
0.00048698297
0.00048696776
0.00048695173
0.00048693505
0.00048691755
0.00048689934
0.00048688037
0.00048686067
0.00048684024
0.0004868191
0.00048679728
0.00048677481
0.00048675173
0.00048672809
0.00048670394
0.00048667934
0.00048665439
0.00048662917
0.00048660377
0.00048657831
0.00048655291
0.00048652769
0.00048650283
0.00048647845
0.00048645473
0.00048643182
0.0004864099
0.00048638915
0.00048636973
0.00048635185
0.00048633564
0.00048632128
0.00048630894
0.00048629875
0.00048629085
0.00048628537
0.00048628239
0.00048628201
0.00048628429
0.00048628925
0.00048628415
0.00048628145
0.00048628137
0.00048628395
0.00048628923
0.00048629721
0.00048630789
0.00048632123
0.00048633716
0.00048635561
0.00048637647
0.00048639962
0.00048642492
0.00048645223
0.00048648138
0.00048651219
0.00048654445
0.00048657795
0.00048661246
0.00048664771
0.00048668342
0.00048671929
0.00048675499
0.0004867902
0.00048682462
0.00048685795
0.00048688995
0.00048692043
0.00048694927
0.0004869764
0.00048700182
0.00048702558
0.00048704776
0.00048706843
0.00048708767
0.00048710557
0.00048712218
0.00048713753
0.00048715168
0.00048716461
0.00048717635
0.0004871869
0.00048719626
0.00048720444
0.00048721146
0.0004872173
0.00048681675
0.00048761328
0.00048720585
0.00048720416
0.0004872024
0.00048720046
0.00048719846
0.00048719623
0.00048719393
0.00048719139
0.00048718875
0.00048718583
0.0004871828
0.00048717947
0.00048717598
0.00048717217
0.00048716817
0.0004871638
0.00048715923
0.00048715424
0.00048714901
0.00048714332
0.00048713735
0.00048713089
0.00048712409
0.00048711675
0.00048710904
0.00048710074
0.00048709202
0.00048708267
0.00048707284
0.00048706233
0.00048705126
0.0004870396
0.00048702719
0.0004870142
0.00048700042
0.00048698602
0.0004869708
0.00048695493
0.00048693822
0.00048692084
0.00048690263
0.00048688369
0.00048686399
0.00048684354
0.00048682236
0.00048680047
0.00048677791
0.00048675471
0.00048673091
0.00048670657
0.00048668176
0.00048665654
0.00048663101
0.00048660527
0.00048657941
0.00048655357
0.00048652789
0.00048650249
0.00048647755
0.00048645321
0.00048642966
0.00048640707
0.00048638562
0.00048636549
0.00048634687
0.00048632993
0.00048631485
0.0004863018
0.00048629093
0.00048628238
0.00048627629
0.00048627277
0.0004862719
0.00048627376
0.0004862784
0.00048628583
0.00048627829
0.00048627291
0.00048627016
0.00048627011
0.00048627283
0.00048627834
0.00048628665
0.00048629774
0.00048631156
0.00048632805
0.00048634712
0.00048636866
0.00048639254
0.00048641864
0.00048644679
0.00048647682
0.00048650856
0.00048654179
0.0004865763
0.00048661182
0.00048664809
0.00048668477
0.00048672154
0.00048675804
0.00048679392
0.00048682884
0.00048686252
0.0004868947
0.00048692521
0.00048695398
0.00048698097
0.00048700621
0.00048702979
0.0004870518
0.00048707233
0.00048709148
0.0004871093
0.00048712586
0.00048714118
0.00048715529
0.00048716821
0.00048717992
0.00048719045
0.0004871998
0.00048720798
0.00048721499
0.00048681561
0.00048761217
0.00048720467
0.00048720292
0.00048720107
0.00048719905
0.00048719695
0.00048719463
0.00048719222
0.00048718956
0.0004871868
0.00048718375
0.00048718057
0.00048717708
0.00048717343
0.00048716943
0.00048716524
0.00048716067
0.00048715587
0.00048715065
0.00048714516
0.00048713921
0.00048713295
0.00048712618
0.00048711906
0.00048711139
0.00048710331
0.00048709464
0.00048708551
0.00048707573
0.00048706545
0.00048705447
0.0004870429
0.00048703072
0.00048701778
0.00048700422
0.00048698985
0.00048697484
0.00048695898
0.00048694246
0.00048692507
0.000486907
0.00048688806
0.0004868684
0.00048684795
0.00048682675
0.00048680481
0.00048678216
0.00048675884
0.00048673488
0.00048671034
0.00048668528
0.00048665977
0.00048663389
0.00048660774
0.00048658142
0.00048655507
0.00048652879
0.00048650276
0.0004864771
0.00048645201
0.00048642765
0.0004864042
0.00048638184
0.00048636078
0.00048634119
0.00048632327
0.00048630722
0.00048629319
0.00048628136
0.0004862719
0.00048626494
0.0004862606
0.000486259
0.00048626021
0.00048626429
0.00048627128
0.00048628117
0.00048627132
0.00048626322
0.00048625776
0.00048625507
0.00048625521
0.00048625825
0.00048626419
0.00048627305
0.00048628479
0.00048629937
0.00048631669
0.00048633668
0.00048635921
0.00048638416
0.00048641138
0.00048644072
0.00048647201
0.00048650505
0.00048653963
0.00048657549
0.00048661237
0.00048664993
0.00048668783
0.00048672566
0.00048676305
0.0004867996
0.00048683498
0.00048686889
0.00048690111
0.00048693153
0.0004869601
0.00048698684
0.00048701185
0.0004870352
0.00048705703
0.00048707742
0.00048709647
0.00048711422
0.00048713073
0.00048714602
0.0004871601
0.00048717298
0.00048718467
0.00048719517
0.00048720451
0.00048721269
0.00048681448
0.0004876111
0.00048720354
0.00048720172
0.00048719981
0.00048719771
0.00048719552
0.0004871931
0.00048719059
0.00048718782
0.00048718494
0.00048718176
0.00048717844
0.0004871748
0.00048717099
0.00048716682
0.00048716244
0.00048715767
0.00048715266
0.00048714721
0.00048714149
0.00048713528
0.00048712874
0.00048712168
0.00048711425
0.00048710625
0.00048709782
0.00048708877
0.00048707925
0.00048706906
0.00048705834
0.00048704691
0.00048703485
0.00048702217
0.00048700868
0.00048699457
0.00048697962
0.000486964
0.00048694752
0.00048693034
0.00048691228
0.00048689351
0.00048687386
0.00048685346
0.00048683226
0.0004868103
0.00048678759
0.00048676416
0.00048674006
0.00048671533
0.00048669002
0.0004866642
0.00048663795
0.00048661136
0.00048658455
0.00048655761
0.00048653069
0.00048650392
0.00048647747
0.00048645149
0.00048642618
0.0004864017
0.00048637827
0.00048635607
0.0004863353
0.00048631618
0.00048629888
0.00048628362
0.00048627057
0.0004862599
0.00048625177
0.00048624634
0.0004862437
0.00048624399
0.00048624725
0.00048625354
0.00048626287
0.00048627524
0.00048626325
0.00048625237
0.00048624417
0.00048623879
0.00048623634
0.00048623688
0.00048624047
0.00048624711
0.0004862568
0.0004862695
0.00048628513
0.00048630362
0.00048632486
0.00048634874
0.00048637511
0.00048640383
0.00048643474
0.00048646766
0.00048650239
0.00048653867
0.00048657623
0.00048661474
0.00048665381
0.00048669303
0.00048673198
0.0004867702
0.00048680732
0.00048684299
0.00048687695
0.00048690905
0.00048693922
0.00048696748
0.00048699392
0.00048701863
0.00048704176
0.00048706341
0.00048708368
0.00048710263
0.00048712032
0.00048713678
0.00048715202
0.00048716606
0.00048717891
0.00048719057
0.00048720106
0.00048721039
0.00048681335
0.00048761009
0.00048720246
0.00048720059
0.0004871986
0.00048719643
0.00048719416
0.00048719165
0.00048718905
0.00048718617
0.00048718317
0.00048717987
0.00048717642
0.00048717264
0.00048716867
0.00048716434
0.00048715979
0.00048715483
0.00048714962
0.00048714395
0.00048713799
0.00048713153
0.00048712474
0.0004871174
0.00048710967
0.00048710134
0.00048709258
0.00048708317
0.00048707327
0.00048706267
0.00048705153
0.00048703964
0.00048702712
0.00048701393
0.00048699993
0.00048698526
0.00048696974
0.00048695352
0.00048693642
0.00048691859
0.00048689986
0.00048688039
0.00048686002
0.00048683888
0.00048681693
0.0004867942
0.0004867707
0.00048674647
0.00048672157
0.00048669603
0.00048666992
0.00048664331
0.00048661629
0.00048658895
0.00048656142
0.00048653381
0.00048650626
0.00048647893
0.00048645199
0.00048642561
0.00048639999
0.00048637532
0.00048635181
0.00048632968
0.00048630912
0.00048629036
0.0004862736
0.00048625905
0.0004862469
0.00048623731
0.00048623046
0.0004862265
0.00048622552
0.00048622765
0.00048623294
0.00048624143
0.00048625312
0.00048626798
0.00048625407
0.00048624033
0.00048622933
0.00048622123
0.00048621615
0.00048621418
0.00048621541
0.00048621985
0.0004862275
0.00048623836
0.00048625235
0.0004862694
0.00048628941
0.00048631229
0.00048633789
0.00048636607
0.0004863967
0.00048642959
0.00048646454
0.00048650132
0.00048653964
0.00048657915
0.00048661947
0.00048666014
0.00048670069
0.00048674063
0.00048677954
0.000486817
0.00048685273
0.00048688653
0.00048691833
0.00048694812
0.00048697601
0.0004870021
0.00048702654
0.00048704945
0.00048707094
0.00048709109
0.00048710996
0.00048712759
0.00048714399
0.00048715918
0.00048717318
0.00048718599
0.00048719763
0.00048720811
0.00048681223
0.00048760912
0.00048720143
0.00048719951
0.00048719745
0.00048719522
0.00048719287
0.00048719028
0.00048718758
0.00048718461
0.0004871815
0.00048717809
0.00048717451
0.00048717059
0.00048716648
0.00048716199
0.00048715728
0.00048715214
0.00048714673
0.00048714086
0.00048713468
0.00048712798
0.00048712093
0.00048711332
0.0004871053
0.00048709667
0.00048708758
0.00048707783
0.00048706756
0.00048705657
0.00048704502
0.00048703269
0.0004870197
0.00048700603
0.00048699151
0.00048697631
0.00048696022
0.00048694341
0.00048692569
0.00048690722
0.00048688781
0.00048686764
0.00048684656
0.00048682467
0.00048680196
0.00048677844
0.00048675414
0.00048672909
0.00048670336
0.00048667699
0.00048665005
0.00048662261
0.00048659477
0.00048656663
0.00048653832
0.00048650998
0.00048648174
0.00048645377
0.00048642627
0.0004863994
0.00048637339
0.00048634844
0.00048632477
0.0004863026
0.00048628216
0.00048626368
0.00048624736
0.00048623344
0.00048622209
0.00048621352
0.00048620788
0.00048620533
0.00048620597
0.00048620992
0.00048621722
0.0004862279
0.00048624196
0.00048625934
0.00048624376
0.0004862271
0.00048621323
0.00048620234
0.00048619459
0.0004861901
0.00048618894
0.00048619118
0.00048619683
0.00048620587
0.00048621826
0.00048623394
0.00048625279
0.00048627475
0.00048629965
0.0004863274
0.00048635782
0.00048639077
0.00048642604
0.00048646339
0.00048650255
0.00048654315
0.00048658478
0.00048662696
0.00048666917
0.00048671089
0.00048675162
0.00048679091
0.00048682844
0.00048686398
0.00048689743
0.00048692878
0.00048695813
0.00048698561
0.00048701137
0.00048703554
0.00048705826
0.0004870796
0.00048709966
0.00048711845
0.000487136
0.00048715234
0.00048716748
0.00048718143
0.00048719421
0.00048720584
0.00048681111
0.00048760821
0.00048720047
0.0004871985
0.00048719638
0.00048719408
0.00048719165
0.00048718899
0.00048718621
0.00048718314
0.00048717994
0.00048717641
0.00048717272
0.00048716867
0.00048716443
0.00048715979
0.00048715491
0.0004871496
0.00048714402
0.00048713795
0.00048713156
0.00048712464
0.00048711734
0.00048710948
0.00048710118
0.00048709226
0.00048708285
0.00048707276
0.00048706213
0.00048705077
0.00048703881
0.00048702606
0.00048701263
0.00048699848
0.00048698346
0.00048696772
0.00048695108
0.00048693368
0.00048691535
0.00048689623
0.00048687615
0.00048685529
0.00048683348
0.00048681085
0.00048678735
0.00048676303
0.00048673792
0.00048671203
0.00048668545
0.00048665822
0.0004866304
0.00048660209
0.00048657339
0.0004865444
0.00048651526
0.00048648611
0.00048645711
0.00048642843
0.00048640028
0.00048637284
0.00048634635
0.00048632102
0.00048629708
0.00048627478
0.00048625436
0.00048623605
0.00048622008
0.00048620669
0.00048619608
0.00048618844
0.00048618394
0.00048618275
0.00048618497
0.0004861907
0.0004862
0.00048621288
0.00048622931
0.00048624925
0.00048623232
0.00048621263
0.00048619582
0.00048618208
0.00048617161
0.00048616455
0.000486161
0.00048616103
0.00048616468
0.00048617195
0.00048618279
0.00048619714
0.00048621492
0.00048623603
0.00048626034
0.00048628773
0.00048631806
0.00048635116
0.00048638684
0.00048642487
0.00048646495
0.00048650672
0.00048654974
0.00048659349
0.00048663742
0.00048668096
0.00048672356
0.00048676474
0.0004868041
0.00048684141
0.00048687653
0.00048690946
0.0004869403
0.00048696918
0.00048699626
0.0004870217
0.00048704565
0.00048706819
0.00048708942
0.00048710937
0.00048712807
0.00048714555
0.00048716182
0.0004871769
0.00048719082
0.00048720358
0.00048681
0.00048760736
0.00048719956
0.00048719755
0.00048719537
0.00048719301
0.00048719052
0.00048718779
0.00048718493
0.00048718177
0.00048717847
0.00048717485
0.00048717105
0.00048716689
0.00048716251
0.00048715773
0.00048715271
0.00048714724
0.00048714148
0.00048713522
0.00048712863
0.0004871215
0.00048711398
0.00048710586
0.0004870973
0.0004870881
0.00048707839
0.00048706798
0.00048705701
0.00048704528
0.00048703294
0.00048701977
0.0004870059
0.00048699128
0.00048697577
0.00048695952
0.00048694232
0.00048692435
0.0004869054
0.00048688565
0.0004868649
0.00048684334
0.0004868208
0.00048679741
0.00048677313
0.000486748
0.00048672204
0.0004866953
0.00048666784
0.00048663971
0.00048661098
0.00048658176
0.00048655214
0.00048652224
0.00048649221
0.00048646218
0.00048643234
0.00048640288
0.00048637398
0.00048634588
0.0004863188
0.00048629299
0.00048626869
0.00048624616
0.00048622564
0.0004862074
0.00048619168
0.00048617873
0.00048616875
0.00048616197
0.00048615855
0.00048615866
0.00048616241
0.00048616991
0.0004861812
0.00048619628
0.00048621513
0.00048623766
0.00048621973
0.00048619692
0.00048617706
0.0004861604
0.00048614715
0.00048613747
0.0004861315
0.00048612932
0.00048613099
0.0004861365
0.00048614584
0.00048615894
0.00048617571
0.00048619607
0.00048621988
0.00048624702
0.00048627735
0.00048631071
0.00048634691
0.00048638571
0.00048642681
0.00048646984
0.00048651432
0.00048655972
0.00048660544
0.00048665085
0.00048669538
0.00048673847
0.00048677971
0.00048681882
0.00048685564
0.00048689017
0.00048692252
0.0004869528
0.00048698122
0.00048700795
0.00048703312
0.00048705686
0.00048707926
0.00048710036
0.00048712021
0.00048713882
0.00048715621
0.00048717241
0.00048718745
0.00048720135
0.0004868089
0.00048760656
0.00048719872
0.00048719667
0.00048719444
0.00048719203
0.00048718947
0.00048718668
0.00048718374
0.00048718051
0.00048717712
0.00048717341
0.0004871695
0.00048716523
0.00048716074
0.00048715583
0.00048715067
0.00048714505
0.00048713912
0.00048713269
0.00048712591
0.00048711858
0.00048711084
0.00048710249
0.00048709368
0.00048708421
0.00048707421
0.00048706349
0.0004870522
0.00048704011
0.00048702739
0.00048701383
0.00048699953
0.00048698446
0.00048696847
0.0004869517
0.00048693397
0.00048691542
0.00048689587
0.00048687548
0.00048685407
0.00048683181
0.00048680854
0.00048678438
0.00048675931
0.00048673334
0.00048670653
0.00048667891
0.00048665054
0.00048662147
0.0004865918
0.00048656162
0.00048653103
0.00048650015
0.00048646916
0.00048643819
0.00048640743
0.00048637708
0.00048634736
0.00048631849
0.00048629073
0.00048626432
0.00048623954
0.00048621666
0.00048619594
0.00048617766
0.00048616208
0.00048614946
0.00048614003
0.00048613401
0.0004861316
0.00048613295
0.0004861382
0.00048614744
0.00048616071
0.00048617801
0.0004861993
0.00048622448
0.00048620596
0.00048617991
0.00048615691
0.00048613723
0.00048612112
0.00048610877
0.00048610034
0.00048609594
0.00048609563
0.00048609943
0.00048610731
0.00048611922
0.00048613507
0.00048615477
0.00048617818
0.00048620518
0.00048623563
0.00048626937
0.0004863062
0.00048634588
0.00048638811
0.00048643248
0.00048647851
0.00048652564
0.00048657321
0.00048662057
0.00048666708
0.00048671213
0.00048675529
0.00048679623
0.00048683478
0.00048687094
0.0004869048
0.00048693651
0.00048696628
0.00048699428
0.00048702069
0.00048704563
0.00048706919
0.00048709144
0.00048711242
0.00048713215
0.00048715066
0.00048716797
0.00048718412
0.00048719913
0.00048680781
0.00048760583
0.00048719794
0.00048719586
0.00048719358
0.00048719112
0.00048718851
0.00048718566
0.00048718265
0.00048717935
0.00048717589
0.00048717208
0.00048716809
0.00048716371
0.00048715911
0.00048715408
0.00048714879
0.00048714303
0.00048713696
0.00048713036
0.00048712341
0.00048711588
0.00048710794
0.00048709937
0.00048709032
0.00048708059
0.00048707033
0.00048705931
0.0004870477
0.00048703528
0.0004870222
0.00048700825
0.00048699353
0.00048697802
0.00048696156
0.00048694429
0.00048692603
0.00048690692
0.00048688677
0.00048686576
0.00048684368
0.00048682071
0.0004867967
0.00048677177
0.00048674589
0.00048671909
0.0004866914
0.00048666286
0.00048663355
0.00048660352
0.00048657286
0.00048654166
0.00048651004
0.00048647814
0.00048644611
0.00048641412
0.00048638235
0.00048635103
0.00048632037
0.00048629063
0.00048626207
0.00048623495
0.00048620958
0.00048618622
0.00048616518
0.00048614674
0.00048613118
0.00048611879
0.00048610981
0.00048610448
0.00048610299
0.00048610553
0.00048611223
0.00048612319
0.00048613844
0.00048615798
0.00048618175
0.00048620965
0.000486191
0.00048616158
0.0004861353
0.0004861125
0.00048609345
0.00048607837
0.00048606745
0.0004860608
0.00048605852
0.00048606063
0.0004860671
0.00048607789
0.00048609291
0.00048611204
0.00048613517
0.00048616216
0.00048619285
0.00048622709
0.00048626468
0.00048630536
0.00048634882
0.00048639464
0.00048644232
0.00048649126
0.00048654076
0.00048659013
0.00048663866
0.00048668574
0.00048673085
0.00048677365
0.00048681397
0.00048685177
0.00048688717
0.00048692032
0.00048695144
0.00048698074
0.00048700838
0.0004870345
0.00048705923
0.00048708262
0.00048710471
0.00048712555
0.00048714516
0.00048716357
0.00048718082
0.00048719693
0.00048680673
0.00048760515
0.00048719723
0.00048719512
0.00048719279
0.0004871903
0.00048718763
0.00048718473
0.00048718166
0.0004871783
0.00048717476
0.00048717088
0.0004871668
0.00048716233
0.00048715763
0.00048715249
0.00048714708
0.00048714119
0.00048713498
0.00048712824
0.00048712112
0.00048711342
0.00048710528
0.0004870965
0.00048708724
0.00048707726
0.00048706674
0.00048705544
0.00048704353
0.00048703079
0.00048701736
0.00048700303
0.00048698792
0.00048697198
0.00048695506
0.00048693731
0.00048691852
0.00048689886
0.00048687812
0.00048685647
0.00048683373
0.00048681007
0.00048678532
0.0004867596
0.0004867329
0.00048670524
0.00048667665
0.00048664718
0.00048661689
0.00048658586
0.00048655416
0.0004865219
0.0004864892
0.00048645619
0.00048642306
0.00048638996
0.00048635709
0.00048632469
0.000486293
0.00048626227
0.00048623279
0.00048620485
0.00048617874
0.00048615478
0.00048613329
0.00048611456
0.00048609891
0.00048608663
0.00048607799
0.00048607324
0.00048607261
0.00048607628
0.00048608438
0.00048609703
0.00048611426
0.00048613607
0.00048616237
0.00048619305
0.00048617481
0.00048614185
0.00048611218
0.00048608614
0.00048606404
0.00048604615
0.00048603268
0.00048602377
0.00048601952
0.00048601997
0.00048602509
0.00048603484
0.00048604911
0.0004860678
0.00048609077
0.00048611787
0.00048614895
0.00048618383
0.0004862223
0.00048626411
0.00048630893
0.00048635631
0.00048640574
0.00048645657
0.00048650809
0.00048655953
0.00048661016
0.0004866593
0.00048670641
0.00048675111
0.00048679322
0.0004868327
0.00048686965
0.00048690425
0.00048693674
0.00048696732
0.00048699619
0.0004870235
0.00048704938
0.0004870739
0.0004870971
0.00048711903
0.00048713973
0.00048715922
0.00048717756
0.00048719476
0.00048680566
0.00048760454
0.00048719658
0.00048719445
0.00048719209
0.00048718956
0.00048718685
0.0004871839
0.00048718078
0.00048717736
0.00048717376
0.00048716981
0.00048716565
0.0004871611
0.0004871563
0.00048715107
0.00048714555
0.00048713954
0.0004871332
0.00048712632
0.00048711905
0.00048711119
0.00048710287
0.0004870939
0.00048708443
0.00048707423
0.00048706346
0.0004870519
0.0004870397
0.00048702665
0.00048701289
0.0004869982
0.0004869827
0.00048696635
0.00048694899
0.00048693076
0.00048691146
0.00048689125
0.00048686993
0.00048684766
0.00048682426
0.00048679989
0.00048677439
0.00048674789
0.00048672036
0.00048669182
0.00048666231
0.00048663188
0.00048660059
0.00048656851
0.00048653573
0.00048650235
0.0004864685
0.00048643433
0.0004864
0.0004863657
0.00048633164
0.00048629806
0.00048626522
0.00048623338
0.00048620286
0.00048617394
0.00048614697
0.00048612228
0.00048610019
0.00048608104
0.00048606516
0.00048605287
0.00048604446
0.0004860402
0.00048604033
0.00048604506
0.00048605453
0.00048606885
0.00048608807
0.00048611217
0.00048614106
0.00048617461
0.00048615736
0.00048612071
0.00048608748
0.00048605806
0.00048603281
0.00048601202
0.00048599594
0.00048598474
0.00048597852
0.00048597733
0.00048598116
0.00048598994
0.00048600357
0.00048602194
0.00048604489
0.00048607225
0.00048610386
0.00048613953
0.00048617904
0.00048622211
0.00048626842
0.00048631749
0.00048636878
0.00048642161
0.00048647522
0.0004865288
0.00048658159
0.00048663284
0.000486682
0.00048672864
0.00048677257
0.00048681374
0.00048685226
0.00048688833
0.00048692218
0.00048695405
0.00048698415
0.00048701265
0.00048703967
0.0004870653
0.0004870896
0.00048711261
0.00048713438
0.00048715494
0.00048717434
0.00048719261
0.0004868046
0.00048760399
0.00048719601
0.00048719386
0.00048719146
0.0004871889
0.00048718616
0.00048718317
0.00048718
0.00048717653
0.00048717288
0.00048716886
0.00048716464
0.00048716002
0.00048715514
0.00048714982
0.0004871442
0.00048713809
0.00048713163
0.00048712462
0.00048711721
0.0004871092
0.00048710072
0.00048709158
0.0004870819
0.0004870715
0.0004870605
0.00048704869
0.00048703622
0.00048702288
0.0004870088
0.00048699377
0.0004869779
0.00048696115
0.00048694336
0.00048692466
0.00048690486
0.00048688412
0.00048686222
0.00048683934
0.00048681527
0.0004867902
0.00048676396
0.00048673666
0.00048670829
0.00048667886
0.00048664841
0.00048661698
0.00048658466
0.00048655149
0.00048651758
0.00048648303
0.00048644797
0.00048641255
0.00048637695
0.00048634136
0.00048630601
0.00048627114
0.00048623702
0.00048620394
0.00048617224
0.00048614222
0.00048611424
0.00048608865
0.00048606582
0.0004860461
0.00048602985
0.00048601741
0.0004860091
0.00048600523
0.00048600603
0.00048601175
0.00048602253
0.00048603851
0.00048605972
0.00048608614
0.00048611769
0.0004861542
0.00048613861
0.00048609807
0.0004860611
0.00048602816
0.00048599962
0.00048597584
0.00048595708
0.00048594355
0.00048593535
0.00048593256
0.00048593516
0.00048594307
0.00048595618
0.00048597436
0.00048599743
0.00048602521
0.00048605752
0.00048609415
0.00048613485
0.00048617936
0.00048622729
0.00048627818
0.00048633144
0.00048638637
0.00048644216
0.00048649797
0.00048655298
0.0004866064
0.00048665765
0.00048670627
0.00048675205
0.00048679493
0.00048683504
0.00048687258
0.00048690781
0.00048694097
0.00048697229
0.00048700196
0.00048703012
0.00048705685
0.00048708222
0.0004871063
0.00048712912
0.00048715073
0.00048717117
0.0004871905
0.00048680356
0.00048760351
0.00048719551
0.00048719335
0.00048719092
0.00048718834
0.00048718556
0.00048718254
0.00048717934
0.00048717582
0.00048717212
0.00048716806
0.00048716377
0.00048715908
0.00048715414
0.00048714874
0.00048714303
0.00048713683
0.00048713027
0.00048712315
0.00048711561
0.00048710746
0.00048709884
0.00048708953
0.00048707968
0.00048706908
0.00048705786
0.00048704582
0.0004870331
0.00048701948
0.00048700511
0.00048698975
0.00048697353
0.00048695639
0.00048693818
0.00048691904
0.00048689875
0.00048687748
0.00048685502
0.00048683152
0.0004868068
0.00048678103
0.00048675404
0.00048672594
0.00048669671
0.00048666637
0.00048663496
0.00048660252
0.00048656912
0.00048653482
0.00048649973
0.00048646395
0.00048642761
0.00048639086
0.00048635391
0.00048631693
0.00048628018
0.00048624389
0.00048620838
0.00048617393
0.00048614089
0.00048610961
0.00048608046
0.00048605383
0.00048603009
0.00048600964
0.00048599286
0.00048598014
0.0004859718
0.00048596819
0.00048596957
0.0004859762
0.00048598825
0.00048600586
0.00048602907
0.00048605786
0.00048609213
0.0004861317
0.00048611852
0.00048607389
0.00048603299
0.00048599634
0.00048596438
0.00048593749
0.00048591597
0.00048590006
0.00048588989
0.00048588553
0.00048588695
0.00048589409
0.00048590681
0.00048592495
0.00048594831
0.00048597669
0.00048600987
0.00048604764
0.00048608972
0.00048613582
0.00048618554
0.00048623839
0.00048629375
0.00048635089
0.00048640896
0.00048646707
0.00048652437
0.00048658002
0.0004866334
0.00048668403
0.00048673169
0.00048677631
0.00048681803
0.00048685705
0.00048689364
0.00048692809
0.00048696064
0.00048699146
0.00048702074
0.00048704855
0.00048707499
0.00048710011
0.00048712396
0.00048714659
0.00048716807
0.00048718843
0.00048680253
0.0004876031
0.00048719508
0.00048719291
0.00048719046
0.00048718786
0.00048718506
0.00048718201
0.00048717878
0.00048717523
0.00048717148
0.00048716738
0.00048716305
0.0004871583
0.0004871533
0.00048714783
0.00048714205
0.00048713576
0.00048712911
0.00048712189
0.00048711425
0.00048710598
0.00048709722
0.00048708776
0.00048707775
0.00048706697
0.00048705556
0.00048704331
0.00048703035
0.00048701648
0.00048700182
0.00048698616
0.00048696959
0.00048695209
0.00048693348
0.0004869139
0.00048689314
0.00048687135
0.00048684833
0.00048682423
0.00048679887
0.0004867724
0.00048674465
0.00048671574
0.00048668565
0.00048665439
0.00048662199
0.00048658851
0.000486554
0.00048651854
0.00048648221
0.00048644514
0.00048640745
0.0004863693
0.0004863309
0.00048629243
0.00048625416
0.00048621634
0.00048617929
0.00048614332
0.0004861088
0.0004860761
0.00048604562
0.00048601776
0.00048599294
0.00048597159
0.00048595412
0.00048594095
0.00048593244
0.00048592895
0.0004859308
0.00048593826
0.00048595152
0.00048597073
0.00048599595
0.00048602715
0.00048606422
0.00048610697
0.00048609704
0.00048604806
0.00048600302
0.00048596247
0.00048592692
0.00048589679
0.00048587242
0.00048585409
0.00048584193
0.00048583603
0.00048583637
0.00048584284
0.0004858553
0.00048587357
0.0004858974
0.00048592658
0.00048596085
0.00048599995
0.00048604361
0.00048609148
0.00048614316
0.00048619813
0.00048625572
0.00048631519
0.00048637564
0.00048643615
0.00048649579
0.00048655374
0.00048660929
0.00048666197
0.00048671153
0.00048675791
0.00048680124
0.00048684175
0.00048687972
0.00048691546
0.00048694921