/*--------------------------------*- C++ -*----------------------------------*\
| =========                 |                                                 |
| \\      /  F ield         | foam-extend: Open Source CFD                    |
|  \\    /   O peration     | Version:     4.1                                |
|   \\  /    A nd           | Web:         http://www.foam-extend.org         |
|    \\/     M anipulation  |                                                 |
\*---------------------------------------------------------------------------*/
FoamFile
{
    version     2.0;
    format      ascii;
    class       volVectorField;
    location    "0.5";
    object      U;
}
// * * * * * * * * * * * * * * * * * * * * * * * * * * * * * * * * * * * * * //

dimensions      [0 1 -1 0 0 0 0];

internalField   nonuniform List<vector> 
16796
(
(1.0013476 -4.3158629e-05 0)
(1.0015691 -4.6129414e-05 0)
(1.0016525 -4.8784397e-05 0)
(1.0018428 -5.2114266e-05 0)
(1.0019776 -5.5435815e-05 0)
(1.0021668 -5.9228118e-05 0)
(1.0023383 -6.319804e-05 0)
(1.0025419 -6.7569779e-05 0)
(1.002746 -7.2223563e-05 0)
(1.0029733 -7.727101e-05 0)
(1.0032105 -8.2670699e-05 0)
(1.0034683 -8.8484955e-05 0)
(1.0037415 -9.4708245e-05 0)
(1.0040359 -0.0001013817 0)
(1.0043497 -0.00010851653 0)
(1.0046864 -0.00011614498 0)
(1.0050462 -0.0001242862 0)
(1.0054316 -0.0001329687 0)
(1.0058436 -0.00014221521 0)
(1.0062843 -0.0001520524 0)
(1.0067554 -0.0001625041 0)
(1.0072587 -0.00017359534 0)
(1.0077963 -0.00018534931 0)
(1.0083702 -0.00019778873 0)
(1.0089824 -0.00021093453 0)
(1.009635 -0.00022480593 0)
(1.0103304 -0.00023941987 0)
(1.0110707 -0.00025479048 0)
(1.0118583 -0.00027092878 0)
(1.0126954 -0.00028784187 0)
(1.0135844 -0.00030553273 0)
(1.0145276 -0.00032399921 0)
(1.0155273 -0.00034323381 0)
(1.0165859 -0.00036322292 0)
(1.0177055 -0.00038394585 0)
(1.0188884 -0.00040537473 0)
(1.0201365 -0.00042747319 0)
(1.021452 -0.00045019624 0)
(1.0228364 -0.00047348889 0)
(1.0242916 -0.0004972861 0)
(1.0258188 -0.00052151122 0)
(1.0274193 -0.00054607591 0)
(1.0290939 -0.00057087859 0)
(1.0308432 -0.00059580409 0)
(1.0326674 -0.00062072234 0)
(1.0345662 -0.00064548745 0)
(1.036539 -0.00066993656 0)
(1.0385846 -0.00069388869 0)
(1.0407011 -0.00071714346 0)
(1.0428863 -0.00073947989 0)
(1.0451369 -0.00076065524 0)
(1.0474492 -0.00078040417 0)
(1.0498184 -0.00079843839 0)
(1.052239 -0.00081444708 0)
(1.0547045 -0.00082809843 0)
(1.0572071 -0.00083904257 0)
(1.0597384 -0.00084691604 0)
(1.0622885 -0.00085134804 0)
(1.0648466 -0.00085196792 0)
(1.0674007 -0.00084841403 0)
(1.0699378 -0.00084034286 0)
(1.0724438 -0.00082743846 0)
(1.0749038 -0.00080942085 0)
(1.0773021 -0.00078605404 0)
(1.0796222 -0.00075715232 0)
(1.0818474 -0.00072258628 0)
(1.0839606 -0.00068228726 0)
(1.0859443 -0.00063625203 0)
(1.0877815 -0.00058454624 0)
(1.0894553 -0.00052730831 0)
(1.0909492 -0.0004647514 0)
(1.0922477 -0.00039716566 0)
(1.0933361 -0.00032491755 0)
(1.0942009 -0.00024844862 0)
(1.0948302 -0.0001682706 0)
(1.0952137 -8.4960403e-05 0)
(1.0953427 8.53885e-07 0)
(1.0952107 8.8495838e-05 0)
(1.0948134 0.00017725221 0)
(1.0941485 0.0002663813 0)
(1.093216 0.00035512576 0)
(1.0920183 0.00044273427 0)
(1.09056 0.00052847098 0)
(1.0888478 0.00061162709 0)
(1.0868904 0.00069152728 0)
(1.0846988 0.00076753496 0)
(1.0822855 0.00083904906 0)
(1.0796649 0.00090550071 0)
(1.0768531 0.00096633928 0)
(1.0738678 0.0010210223 0)
(1.0707282 0.0010689978 0)
(1.0674553 0.0011096986 0)
(1.0640718 0.0011425377 0)
(1.0606022 0.0011669281 0)
(1.0570727 0.0011823131 0)
(1.0535111 0.0011882266 0)
(1.0499463 0.0011843649 0)
(1.0464079 0.001170675 0)
(1.0429252 0.001147432 0)
(1.0395262 0.0011152981 0)
(1.0362361 0.001075335 0)
(1.0330766 0.0010289633 0)
(1.0300645 0.00097786024 0)
(1.0272114 0.00092381081 0)
(1.0245233 0.00086853231 0)
(1.0220015 0.00081350871 0)
(1.0196433 0.00075986348 0)
(1.0174433 0.00070829749 0)
(1.0153944 0.00065909693 0)
(1.0134895 0.00061220358 0)
(1.0117219 0.0005673222 0)
(1.0100862 0.00052403862 0)
(1.0085783 0.00048192104 0)
(1.0071953 0.00044059178 0)
(1.0059352 0.00039976179 0)
(1.0047973 0.00035923793 0)
(1.00378 0.00031890566 0)
(1.0028844 0.00027870883 0)
(1.0021078 0.00023861738 0)
(1.0014535 0.00019861554 0)
(1.0009153 0.00015867084 0)
(1.000503 0.00011875151 0)
(1.0002006 7.878581e-05 0)
(1.0000333 3.8727432e-05 0)
(1.0013442 -0.00012935543 0)
(1.0015653 -0.00013827575 0)
(1.0016484 -0.00014622408 0)
(1.0018382 -0.00015621376 0)
(1.0019727 -0.00016616472 0)
(1.0021614 -0.00017753616 0)
(1.0023326 -0.00018943359 0)
(1.0025357 -0.00020253985 0)
(1.0027393 -0.00021648868 0)
(1.0029661 -0.00023161955 0)
(1.0032027 -0.00024780506 0)
(1.0034599 -0.00026523422 0)
(1.0037325 -0.00028388902 0)
(1.0040262 -0.00030389374 0)
(1.0043393 -0.00032528137 0)
(1.0046753 -0.00034814904 0)
(1.0050343 -0.00037255386 0)
(1.0054189 -0.0003985816 0)
(1.00583 -0.00042630027 0)
(1.0062699 -0.00045578995 0)
(1.0067399 -0.00048712212 0)
(1.0072423 -0.00052037191 0)
(1.0077788 -0.0005556089 0)
(1.0083516 -0.00059290135 0)
(1.0089627 -0.00063231207 0)
(1.0096142 -0.00067389886 0)
(1.0103084 -0.00071771261 0)
(1.0110474 -0.00076379588 0)
(1.0118337 -0.0008121819 0)
(1.0126696 -0.00086289216 0)
(1.0135572 -0.00091593584 0)
(1.0144992 -0.00097130673 0)
(1.0154976 -0.0010289827 0)
(1.0165549 -0.0010889231 0)
(1.0176733 -0.0011510664 0)
(1.018855 -0.0012153293 0)
(1.020102 -0.0012816031 0)
(1.0214164 -0.0013497533 0)
(1.0227999 -0.0014196155 0)
(1.0242542 -0.0014909949 0)
(1.0257807 -0.0015636622 0)
(1.0273807 -0.001637353 0)
(1.029055 -0.0017117629 0)
(1.0308042 -0.0017865469 0)
(1.0326285 -0.0018613155 0)
(1.0345277 -0.0019356312 0)
(1.0365011 -0.0020090061 0)
(1.0385477 -0.0020808976 0)
(1.0406655 -0.002150705 0)
(1.0428523 -0.0022177657 0)
(1.045105 -0.0022813522 0)
(1.0474196 -0.0023406692 0)
(1.0497916 -0.0023948527 0)
(1.0522154 -0.0024429715 0)
(1.0546844 -0.0024840317 0)
(1.057191 -0.0025169853 0)
(1.0597266 -0.0025407438 0)
(1.0622814 -0.0025541964 0)
(1.0648447 -0.0025562321 0)
(1.0674043 -0.0025457662 0)
(1.0699472 -0.0025217672 0)
(1.0724595 -0.0024832846 0)
(1.074926 -0.0024294742 0)
(1.0773312 -0.0023596221 0)
(1.0796585 -0.0022731637 0)
(1.0818911 -0.0021697021 0)
(1.0840117 -0.0020490217 0)
(1.0860029 -0.0019111028 0)
(1.0878476 -0.0017561325 0)
(1.0895287 -0.0015845163 0)
(1.0910296 -0.0013968853 0)
(1.0923348 -0.0011941027 0)
(1.0934293 -0.00097726273 0)
(1.0942997 -0.00074768828 0)
(1.0949339 -0.00050691734 0)
(1.0953214 -0.00025669034 0)
(1.0954535 1.083971e-06 0)
(1.0953238 0.00026433519 0)
(1.0949278 0.00053088968 0)
(1.0942631 0.00079851833 0)
(1.0933299 0.0010649504 0)
(1.0921306 0.0013279294 0)
(1.0906697 0.0015852462 0)
(1.088954 0.0018347731 0)
(1.0869925 0.0020744842 0)
(1.0847959 0.0023024708 0)
(1.0823772 0.0025169323 0)
(1.0797507 0.0027161658 0)
(1.0769327 0.0028985248 0)
(1.0739409 0.0030623891 0)
(1.0707949 0.0032061112 0)
(1.0675156 0.0033280001 0)
(1.0641259 0.0034263077 0)
(1.0606503 0.0034992861 0)
(1.057115 0.0035452788 0)
(1.053548 0.003562901 0)
(1.0499783 0.003551252 0)
(1.0464353 0.0035101791 0)
(1.0429485 0.0034405075 0)
(1.0395456 0.0033442184 0)
(1.0362521 0.0032244842 0)
(1.0330895 0.0030855509 0)
(1.0300745 0.0029324316 0)
(1.0272188 0.0027704644 0)
(1.0245285 0.0026047881 0)
(1.0220048 0.0024398469 0)
(1.019645 0.0022790093 0)
(1.0174436 0.002124381 0)
(1.0153937 0.0019768266 0)
(1.013488 0.001836179 0)
(1.0117199 0.0017015597 0)
(1.010084 0.0015717317 0)
(1.0085759 0.0014454034 0)
(1.007193 0.0013214438 0)
(1.005933 0.001198986 0)
(1.0047954 0.0010774501 0)
(1.0037784 0.00095649102 0)
(1.0028831 0.00083593937 0)
(1.0021067 0.00071570286 0)
(1.0014527 0.00059573393 0)
(1.0009149 0.00047593235 0)
(1.0005027 0.00035620435 0)
(1.0002005 0.0002363298 0)
(1.0000333 0.00011617448 0)
(1.0013376 -0.00021524004 0)
(1.0015575 -0.00023009371 0)
(1.0016402 -0.00024331361 0)
(1.0018292 -0.00025994386 0)
(1.001963 -0.00027650064 0)
(1.0021508 -0.00029542839 0)
(1.0023212 -0.00031522754 0)
(1.0025233 -0.00033704209 0)
(1.002726 -0.00036025756 0)
(1.0029517 -0.00038544246 0)
(1.0031872 -0.0004123826 0)
(1.0034433 -0.00044139431 0)
(1.0037147 -0.00047244679 0)
(1.004007 -0.00050574781 0)
(1.0043187 -0.00054135213 0)
(1.0046532 -0.00057942204 0)
(1.0050107 -0.00062005275 0)
(1.0053937 -0.00066338758 0)
(1.0058031 -0.00070954014 0)
(1.0062411 -0.00075864433 0)
(1.0067093 -0.0008108197 0)
(1.0072097 -0.00086619202 0)
(1.0077442 -0.00092487786 0)
(1.0083148 -0.00098699174 0)
(1.0089236 -0.0010526391 0)
(1.0095729 -0.0011219174 0)
(1.0102646 -0.0011949123 0)
(1.0110013 -0.0012716959 0)
(1.0117851 -0.0013523251 0)
(1.0126184 -0.0014368369 0)
(1.0135036 -0.0015252481 0)
(1.0144429 -0.0016175501 0)
(1.0154388 -0.0017137077 0)
(1.0164936 -0.0018136548 0)
(1.0176096 -0.0019172907 0)
(1.0187889 -0.0020244784 0)
(1.0200337 -0.0021350386 0)
(1.021346 -0.0022487488 0)
(1.0227276 -0.0023653366 0)
(1.0241803 -0.0024844789 0)
(1.0257055 -0.0026057946 0)
(1.0273044 -0.0027288439 0)
(1.028978 -0.0028531202 0)
(1.0307269 -0.0029780486 0)
(1.0325514 -0.003102979 0)
(1.0344514 -0.0032271818 0)
(1.0364261 -0.0033498417 0)
(1.0384746 -0.003470052 0)
(1.040595 -0.0035868086 0)
(1.042785 -0.0036990038 0)
(1.0450417 -0.0038054207 0)
(1.0473611 -0.0039047298 0)
(1.0497386 -0.0039954868 0)
(1.0521687 -0.0040761358 0)
(1.0546447 -0.0041450166 0)
(1.0571593 -0.0042003795 0)
(1.0597036 -0.0042404072 0)
(1.0622681 -0.0042632454 0)
(1.0648417 -0.0042670391 0)
(1.0674124 -0.0042499761 0)
(1.0699673 -0.004210331 0)
(1.0724923 -0.0041465122 0)
(1.0749722 -0.0040571032 0)
(1.0773913 -0.0039409031 0)
(1.079733 -0.0037969591 0)
(1.0819804 -0.0036245977 0)
(1.084116 -0.0034234487 0)
(1.0861224 -0.0031934699 0)
(1.087982 -0.0029349661 0)
(1.0896777 -0.0026486092 0)
(1.0911928 -0.0023354498 0)
(1.0925112 -0.0019969286 0)
(1.093618 -0.0016348743 0)
(1.0944995 -0.0012514985 0)
(1.0951434 -0.00084937355 0)
(1.0955389 -0.00043140888 0)
(1.0956775 -7.9749017e-07 0)
(1.0955523 0.00043900679 0)
(1.0951589 0.0008843716 0)
(1.0944948 0.0013315566 0)
(1.0935603 0.0017767555 0)
(1.0923576 0.0022161815 0)
(1.0908915 0.0026461277 0)
(1.0891688 0.0030630233 0)
(1.0871987 0.003463469 0)
(1.0849923 0.0038442643 0)
(1.0825624 0.0042023913 0)
(1.0799239 0.0045350007 0)
(1.0770932 0.0048393404 0)
(1.0740884 0.0051127083 0)
(1.0709291 0.0053523609 0)
(1.0676366 0.0055554881 0)
(1.064234 0.0057191878 0)
(1.0607459 0.0058405629 0)
(1.0571989 0.0059168706 0)
(1.0536207 0.0059458228 0)
(1.0500406 0.0059259376 0)
(1.0464881 0.0058569788 0)
(1.0429926 0.0057403376 0)
(1.0395818 0.0055793276 0)
(1.0362812 0.0053792448 0)
(1.0331122 0.0051471708 0)
(1.0300916 0.0048914634 0)
(1.027231 0.0046210214 0)
(1.0245364 0.004344411 0)
(1.0220091 0.0040690422 0)
(1.0196463 0.0038005335 0)
(1.0174426 0.0035423994 0)
(1.0153908 0.003296087 0)
(1.0134839 0.0030613228 0)
(1.0117149 0.0028366464 0)
(1.0100785 0.0026199987 0)
(1.0085704 0.0024092276 0)
(1.0071877 0.0022024471 0)
(1.0059281 0.0019982102 0)
(1.004791 0.0017955478 0)
(1.0037747 0.0015938811 0)
(1.00288 0.0013929247 0)
(1.0021044 0.0011925205 0)
(1.0014511 0.00099258672 0)
(1.0009138 0.00079295137 0)
(1.0005021 0.00059345717 0)
(1.0002002 0.00039373024 0)
(1.0000332 0.00019354842 0)
(1.0013276 -0.00030060436 0)
(1.0015459 -0.00032135075 0)
(1.001628 -0.00033981558 0)
(1.0018156 -0.00036304632 0)
(1.0019485 -0.00038617348 0)
(1.002135 -0.00041261475 0)
(1.0023041 -0.00044027316 0)
(1.0025049 -0.00047074874 0)
(1.0027061 -0.00050318203 0)
(1.0029303 -0.00053836836 0)
(1.0031642 -0.00057600821 0)
(1.0034185 -0.00061654425 0)
(1.0036881 -0.00065993355 0)
(1.0039785 -0.00070646705 0)
(1.0042882 -0.00075622162 0)
(1.0046205 -0.00080942469 0)
(1.0049757 -0.00086620992 0)
(1.0053562 -0.00092677834 0)
(1.0057631 -0.00099128957 0)
(1.0061985 -0.0010599317 0)
(1.0066639 -0.0011328728 0)
(1.0071614 -0.0012102899 0)
(1.0076929 -0.0012923474 0)
(1.0082604 -0.0013792068 0)
(1.0088659 -0.0014710172 0)
(1.0095118 -0.0015679166 0)
(1.0102001 -0.0016700269 0)
(1.0109332 -0.0017774512 0)
(1.0117134 -0.0018902712 0)
(1.012543 -0.0020085416 0)
(1.0134245 -0.0021322886 0)
(1.0143601 -0.0022615029 0)
(1.0153523 -0.0023961384 0)
(1.0164035 -0.0025361061 0)
(1.0175159 -0.0026812683 0)
(1.0186918 -0.0028314369 0)
(1.0199333 -0.0029863641 0)
(1.0212426 -0.0031457423 0)
(1.0226215 -0.0033091932 0)
(1.0240718 -0.003476268 0)
(1.0255949 -0.0036464358 0)
(1.0271923 -0.0038190834 0)
(1.0288649 -0.0039935036 0)
(1.0306134 -0.0041688927 0)
(1.0324382 -0.0043443413 0)
(1.0343392 -0.0045188273 0)
(1.0363158 -0.004691208 0)
(1.038367 -0.0048602116 0)
(1.0404911 -0.0050244289 0)
(1.0426859 -0.0051823048 0)
(1.0449483 -0.0053321309 0)
(1.0472746 -0.0054720402 0)
(1.0496603 -0.0056000055 0)
(1.0520996 -0.0057138431 0)
(1.0545863 -0.0058112237 0)
(1.0571126 -0.0058896929 0)
(1.0596701 -0.0059467017 0)
(1.0622488 -0.0059796483 0)
(1.064838 -0.0059859282 0)
(1.0674256 -0.0059629941 0)
(1.0699986 -0.0059084165 0)
(1.0725426 -0.0058199488 0)
(1.0750427 -0.0056955854 0)
(1.0774829 -0.0055336185 0)
(1.0798465 -0.0053326851 0)
(1.0821163 -0.005091812 0)
(1.0842747 -0.004810451 0)
(1.0863038 -0.004488516 0)
(1.088186 -0.0041264102 0)
(1.0899038 -0.0037250568 0)
(1.09144 -0.0032859148 0)
(1.0927784 -0.0028109974 0)
(1.0939037 -0.0023028683 0)
(1.0948019 -0.0017646359 0)
(1.0954603 -0.0011999227 0)
(1.095868 -0.00061283146 0)
(1.096016 -7.8740991e-06 0)
(1.0958975 0.00061007062 0)
(1.0955077 0.0012358665 0)
(1.0948444 0.0018642237 0)
(1.0939075 0.0024897655 0)
(1.0926996 0.0031071402 0)
(1.0912254 0.0037111099 0)
(1.0894921 0.0042966314 0)
(1.087509 0.0048589058 0)
(1.0852874 0.0053934199 0)
(1.0828407 0.0058959239 0)
(1.0801839 0.0063624138 0)
(1.077334 0.0067890313 0)
(1.0743093 0.0071719993 0)
(1.0711299 0.0075074923 0)
(1.0678175 0.0077916024 0)
(1.0643953 0.0080203004 0)
(1.0608885 0.0081895716 0)
(1.0573235 0.0082956206 0)
(1.0537286 0.00833529 0)
(1.0501329 0.0083065475 0)
(1.0465661 0.0082090993 0)
(1.0430574 0.0080449199 0)
(1.0396349 0.0078186656 0)
(1.0363236 0.0075377565 0)
(1.0331451 0.0072121043 0)
(1.0301162 0.0068534015 0)
(1.0272483 0.0064740963 0)
(1.0245474 0.0060861734 0)
(1.0220148 0.0057000035 0)
(1.0196476 0.0053234548 0)
(1.0174404 0.0049614556 0)
(1.015386 0.0046160427 0)
(1.0134772 0.0042868454 0)
(1.0117071 0.0039718301 0)
(1.0100701 0.0036681222 0)
(1.0085619 0.0033727132 0)
(1.0071795 0.0030829635 0)
(1.0059206 0.0027968452 0)
(1.0047843 0.0025129969 0)
(1.003769 0.0022306026 0)
(1.0028755 0.0019492556 0)
(1.0021009 0.0016687273 0)
(1.0014485 0.0013888967 0)
(1.0009121 0.0011095152 0)
(1.0005012 0.0008303574 0)
(1.0001999 0.00055089133 0)
(1.0000332 0.00027080383 0)
(1.0013144 -0.00038524796 0)
(1.0015306 -0.00041184109 0)
(1.0016119 -0.00043550909 0)
(1.0017977 -0.00046529052 0)
(1.0019293 -0.00049493784 0)
(1.002114 -0.00052883735 0)
(1.0022816 -0.00056429736 0)
(1.0024805 -0.00060337218 0)
(1.0026798 -0.00064495844 0)
(1.0029019 -0.0006900776 0)
(1.0031337 -0.00073834529 0)
(1.0033857 -0.00079033029 0)
(1.0036529 -0.00084597791 0)
(1.0039407 -0.00090566228 0)
(1.0042477 -0.00096948276 0)
(1.0045772 -0.0010377322 0)
(1.0049295 -0.001110583 0)
(1.0053068 -0.0011882947 0)
(1.0057104 -0.0012710732 0)
(1.0061423 -0.0013591617 0)
(1.0066041 -0.0014527777 0)
(1.0070978 -0.0015521506 0)
(1.0076253 -0.0016574934 0)
(1.0081886 -0.0017690162 0)
(1.0087899 -0.0018869133 0)
(1.0094314 -0.0020113649 0)
(1.0101152 -0.0021425311 0)
(1.0108436 -0.0022805481 0)
(1.0116191 -0.0024255249 0)
(1.0124439 -0.0025775359 0)
(1.0133205 -0.0027366199 0)
(1.0142513 -0.0029027697 0)
(1.0152387 -0.0030759315 0)
(1.0162851 -0.0032559965 0)
(1.0173928 -0.0034427932 0)
(1.0185642 -0.0036360856 0)
(1.0198015 -0.0038355613 0)
(1.0211069 -0.0040408304 0)
(1.0224821 -0.0042514123 0)
(1.0239292 -0.0044667352 0)
(1.0254498 -0.0046861214 0)
(1.0270451 -0.0049087865 0)
(1.0287163 -0.0051338244 0)
(1.0304643 -0.0053602041 0)
(1.0322893 -0.0055867571 0)
(1.0341915 -0.0058121686 0)
(1.0361705 -0.0060349673 0)
(1.0382252 -0.006253514 0)
(1.040354 -0.0064659914 0)
(1.0425549 -0.0066703924 0)
(1.0448249 -0.006864512 0)
(1.0471603 -0.0070459398 0)
(1.0495566 -0.0072120588 0)
(1.0520082 -0.0073600502 0)
(1.0545088 -0.0074869081 0)
(1.0570509 -0.0075894648 0)
(1.0596258 -0.0076644303 0)
(1.0622237 -0.0077084451 0)
(1.0648339 -0.0077181432 0)
(1.0674441 -0.007690228 0)
(1.0700413 -0.0076215495 0)
(1.0726112 -0.0075091871 0)
(1.0751385 -0.0073505243 0)
(1.0776071 -0.0071433236 0)
(1.0800002 -0.006885787 0)
(1.0823001 -0.0065766182 0)
(1.0844891 -0.0062150688 0)
(1.086549 -0.0058009895 0)
(1.0884615 -0.005334867 0)
(1.0902089 -0.0048178655 0)
(1.0917736 -0.0042518483 0)
(1.0931388 -0.0036394021 0)
(1.094289 -0.0029838332 0)
(1.0952094 -0.0022891598 0)
(1.0958872 -0.0015600725 0)
(1.0963111 -0.00080188958 0)
(1.0964718 -2.0468946e-05 0)
(1.0963621 0.00077785774 0)
(1.0959773 0.0015864163 0)
(1.0953148 0.0023983211 0)
(1.0943747 0.0032065761 0)
(1.0931596 0.0040042121 0)
(1.0916744 0.0047844094 0)
(1.0899265 0.0055406027 0)
(1.0879256 0.006266549 0)
(1.0856835 0.0069563844 0)
(1.0832138 0.0076045961 0)
(1.0805323 0.0082060053 0)
(1.0776563 0.0087556351 0)
(1.0746047 0.009248634 0)
(1.071398 0.0096801029 0)
(1.0680585 0.010045056 0)
(1.0646099 0.010338364 0)
(1.0610776 0.01055493 0)
(1.0574884 0.010689943 0)
(1.0538707 0.010739418 0)
(1.0502539 0.010700811 0)
(1.0466676 0.010573809 0)
(1.0431414 0.010361 0)
(1.0397029 0.010068409 0)
(1.0363774 0.0097055977 0)
(1.0331863 0.0092853211 0)
(1.0301463 0.0088226127 0)
(1.0272688 0.0083334744 0)
(1.0245597 0.0078333118 0)
(1.0220202 0.0073354599 0)
(1.0196475 0.0068500412 0)
(1.0174358 0.0063834037 0)
(1.0153782 0.0059381808 0)
(1.013467 0.0055139116 0)
(1.0116955 0.0051079949 0)
(1.010058 0.0047167443 0)
(1.0085498 0.0043362964 0)
(1.007168 0.0039632572 0)
(1.00591 0.0035950145 0)
(1.004775 0.0032298104 0)
(1.0037612 0.0028665848 0)
(1.0028691 0.002504804 0)
(1.002096 0.0021441613 0)
(1.001445 0.0017844899 0)
(1.0009098 0.0014254566 0)
(1.0004999 0.0010667627 0)
(1.0001993 0.0007077087 0)
(1.0000331 0.00034788704 0)
(1.001298 -0.00046896672 0)
(1.0015116 -0.00050134458 0)
(1.0015919 -0.00053016423 0)
(1.0017755 -0.00056643012 0)
(1.0019055 -0.0006025342 0)
(1.002088 -0.00064381942 0)
(1.0022536 -0.00068700711 0)
(1.0024502 -0.00073460057 0)
(1.0026472 -0.00078525589 0)
(1.0028668 -0.00084021837 0)
(1.0030959 -0.00089902032 0)
(1.0033451 -0.00096235572 0)
(1.0036093 -0.0010301589 0)
(1.0038939 -0.0011028868 0)
(1.0041976 -0.001180662 0)
(1.0045236 -0.0012638427 0)
(1.0048721 -0.0013526409 0)
(1.0052456 -0.0014473747 0)
(1.0056451 -0.0015482974 0)
(1.0060727 -0.0016557078 0)
(1.00653 -0.001769874 0)
(1.007019 -0.0018910786 0)
(1.0075416 -0.0020195848 0)
(1.0080999 -0.0021556527 0)
(1.0086959 -0.0022995234 0)
(1.009332 -0.0024514213 0)
(1.0100102 -0.0026115469 0)
(1.010733 -0.0027800716 0)
(1.0115026 -0.0029571346 0)
(1.0123215 -0.0031428331 0)
(1.0131922 -0.003337221 0)
(1.014117 -0.0035402972 0)
(1.0150984 -0.0037520033 0)
(1.016139 -0.0039722146 0)
(1.017241 -0.0042007298 0)
(1.0184069 -0.0044372693 0)
(1.019639 -0.00468146 0)
(1.0209394 -0.004932834 0)
(1.0223102 -0.0051908127 0)
(1.0237534 -0.0054547053 0)
(1.0252706 -0.0057236913 0)
(1.0268633 -0.0059968188 0)
(1.0285328 -0.0062729864 0)
(1.0302799 -0.0065509384 0)
(1.0321052 -0.0068292498 0)
(1.0340089 -0.0071063147 0)
(1.0359905 -0.0073803338 0)
(1.0380494 -0.0076493007 0)
(1.040184 -0.0079109885 0)
(1.0423923 -0.0081629365 0)
(1.0446715 -0.0084024393 0)
(1.0470179 -0.0086265391 0)
(1.0494273 -0.0088320234 0)
(1.0518941 -0.0090154318 0)
(1.054412 -0.0091730732 0)
(1.0569736 -0.0093010576 0)
(1.0595703 -0.0093953422 0)
(1.0621923 -0.0094517958 0)
(1.0648287 -0.0094662743 0)
(1.0674674 -0.0094347118 0)
(1.0700952 -0.009353214 0)
(1.0726976 -0.0092181585 0)
(1.0752592 -0.0090262871 0)
(1.0777638 -0.0087747984 0)
(1.080194 -0.0084614244 0)
(1.082532 -0.0080845094 0)
(1.0847596 -0.0076430699 0)
(1.0868582 -0.007136862 0)
(1.0888091 -0.0065664282 0)
(1.0905938 -0.0059331529 0)
(1.0921944 -0.0052392894 0)
(1.0935935 -0.0044879937 0)
(1.0947749 -0.0036833191 0)
(1.0957234 -0.0028302089 0)
(1.0964257 -0.0019344489 0)
(1.0968699 -0.0010026103 0)
(1.0970464 -4.19467e-05 0)
(1.0969478 0.00093970054 0)
(1.0965689 0.0019340516 0)
(1.0959073 0.002932557 0)
(1.0949629 0.0039265342 0)
(1.0937385 0.0049073292 0)
(1.0922392 0.0058664755 0)
(1.0904727 0.0067958265 0)
(1.0884491 0.0076876414 0)
(1.0861808 0.0085346634 0)
(1.083682 0.0093300834 0)
(1.080969 0.010067529 0)
(1.0780598 0.010740896 0)
(1.074974 0.011344269 0)
(1.0717329 0.011871694 0)
(1.0683591 0.012317142 0)
(1.064877 0.012674425 0)
(1.0613124 0.012937416 0)
(1.0576926 0.013100345 0)
(1.0540462 0.013158455 0)
(1.0504028 0.013108745 0)
(1.0467922 0.012950928 0)
(1.0432438 0.012688246 0)
(1.0397854 0.012328117 0)
(1.0364421 0.011882261 0)
(1.0332354 0.011366279 0)
(1.0301817 0.010798545 0)
(1.0272923 0.010198609 0)
(1.0245731 0.0095852898 0)
(1.0220253 0.0089748844 0)
(1.0196457 0.0083797695 0)
(1.0174288 0.0078077179 0)
(1.0153671 0.007261968 0)
(1.0134533 0.0067419781 0)
(1.0116802 0.0062445885 0)
(1.010042 0.0057653086 0)
(1.008534 0.005299424 0)
(1.007153 0.0048427869 0)
(1.0058964 0.0043921987 0)
(1.0047631 0.0039454996 0)
(1.0037511 0.003501379 0)
(1.0028609 0.003059168 0)
(1.0020897 0.0026184729 0)
(1.0014405 0.0021790728 0)
(1.0009069 0.0017405407 0)
(1.0004983 0.0013024972 0)
(1.0001987 0.00086406606 0)
(1.000033 0.00042474077 0)
(1.0012784 -0.00055156474 0)
(1.0014889 -0.0005896564 0)
(1.001568 -0.00062356448 0)
(1.0017489 -0.00066623725 0)
(1.0018771 -0.00070872153 0)
(1.002057 -0.00075730675 0)
(1.0022202 -0.00080813378 0)
(1.002414 -0.00086415048 0)
(1.0026083 -0.00092377529 0)
(1.0028248 -0.00098847544 0)
(1.0030508 -0.0010577012 0)
(1.0032966 -0.0011322712 0)
(1.0035573 -0.0012121093 0)
(1.0038382 -0.0012977555 0)
(1.0041379 -0.0013893558 0)
(1.0044597 -0.0014873345 0)
(1.0048038 -0.0015919436 0)
(1.0051726 -0.0017035606 0)
(1.0055673 -0.0018224871 0)
(1.0059898 -0.0019490786 0)
(1.0064417 -0.0020836548 0)
(1.0069252 -0.0022265531 0)
(1.007442 -0.0023780888 0)
(1.0079942 -0.0025385736 0)
(1.0085841 -0.0027082976 0)
(1.0092136 -0.0028875321 0)
(1.0098853 -0.0030765203 0)
(1.0106012 -0.0032754723 0)
(1.011364 -0.0034845602 0)
(1.0121759 -0.0037039077 0)
(1.0130395 -0.003933588 0)
(1.0139572 -0.0041736096 0)
(1.0149316 -0.0044239143 0)
(1.0159652 -0.0046843657 0)
(1.0170604 -0.0049547377 0)
(1.0182197 -0.0052347118 0)
(1.0194455 -0.0055238591 0)
(1.02074 -0.005821639 0)
(1.0221055 -0.0061273795 0)
(1.0235439 -0.0064402758 0)
(1.0250571 -0.0067593691 0)
(1.0266466 -0.0070835446 0)
(1.0283138 -0.007411509 0)
(1.0300598 -0.0077417856 0)
(1.0318853 -0.0080726951 0)
(1.0337905 -0.0084023425 0)
(1.0357752 -0.0087286014 0)
(1.0378388 -0.0090490973 0)
(1.0399801 -0.0093611923 0)
(1.042197 -0.0096619686 0)
(1.044487 -0.0099482159 0)
(1.0468465 -0.010216422 0)
(1.0492713 -0.010462772 0)
(1.0517562 -0.010683152 0)
(1.0542948 -0.010873174 0)
(1.0568797 -0.01102821 0)
(1.0595025 -0.011143448 0)
(1.0621534 -0.011213965 0)
(1.0648215 -0.011234814 0)
(1.0674946 -0.011201133 0)
(1.0701593 -0.011108253 0)
(1.0728011 -0.010951816 0)
(1.0754044 -0.010727886 0)
(1.0779524 -0.010433058 0)
(1.0804277 -0.010064556 0)
(1.082812 -0.0096203273 0)
(1.0850866 -0.0090991174 0)
(1.0872322 -0.0085005567 0)
(1.0892296 -0.0078252179 0)
(1.0910597 -0.0070746876 0)
(1.0927039 -0.0062515995 0)
(1.0941442 -0.0053596783 0)
(1.0953635 -0.0044037337 0)
(1.0963462 -0.0033896546 0)
(1.0970781 -0.002324352 0)
(1.097547 -0.0012156902 0)
(1.0977427 -7.2368267e-05 0)
(1.0976574 0.0010962043 0)
(1.0972858 0.0022800786 0)
(1.0966251 0.0034689665 0)
(1.0956754 0.0046524206 0)
(1.0944395 0.0058200184 0)
(1.0929228 0.0069615652 0)
(1.0911334 0.008067256 0)
(1.089082 0.0091277818 0)
(1.0867815 0.010134435 0)
(1.084247 0.011079062 0)
(1.0814954 0.011954067 0)
(1.0785456 0.012752207 0)
(1.075418 0.013466502 0)
(1.0721347 0.014089963 0)
(1.068719 0.014615554 0)
(1.065196 0.015036077 0)
(1.0615921 0.015344433 0)
(1.057935 0.015533955 0)
(1.0542537 0.015599186 0)
(1.050578 0.01553673 0)
(1.0469379 0.015346389 0)
(1.0433627 0.015032104 0)
(1.0398804 0.01460273 0)
(1.0365159 0.014072171 0)
(1.0332904 0.013458893 0)
(1.0302203 0.012784615 0)
(1.0273169 0.012072439 0)
(1.0245859 0.0113446 0)
(1.0220283 0.010620355 0)
(1.0196408 0.0099143392 0)
(1.0174177 0.0092357568 0)
(1.0153517 0.0085884589 0)
(1.0134349 0.0079718322 0)
(1.0116601 0.0073821667 0)
(1.0100214 0.006814173 0)
(1.0085138 0.0062622884 0)
(1.007134 0.0057216105 0)
(1.0058792 0.0051883498 0)
(1.004748 0.0046599379 0)
(1.0037384 0.0041348045 0)
(1.0028507 0.0036121353 0)
(1.0020819 0.0030914388 0)
(1.0014349 0.002572429 0)
(1.0009033 0.0020545738 0)
(1.0004962 0.0015374037 0)
(1.0001978 0.0010198526 0)
(1.0000328 0.00050130932 0)
(1.0012557 -0.00063284268 0)
(1.0014625 -0.00067656365 0)
(1.0015404 -0.0007154858 0)
(1.0017181 -0.00076447309 0)
(1.0018441 -0.00081324738 0)
(1.002021 -0.00086903074 0)
(1.0021815 -0.00092739262 0)
(1.0023721 -0.00099171926 0)
(1.0025632 -0.0010601954 0)
(1.0027762 -0.0011345075 0)
(1.0029985 -0.0012140259 0)
(1.0032404 -0.0012996922 0)
(1.003497 -0.0013914214 0)
(1.0037735 -0.0014898359 0)
(1.0040687 -0.0015951062 0)
(1.0043856 -0.0017077226 0)
(1.0047246 -0.0018279783 0)
(1.0050881 -0.0019563105 0)
(1.0054771 -0.0020930703 0)
(1.0058937 -0.002238671 0)
(1.0063395 -0.0023934853 0)
(1.0068165 -0.0025579071 0)
(1.0073265 -0.0027323053 0)
(1.0078718 -0.0029170454 0)
(1.0084544 -0.0031124692 0)
(1.0090766 -0.0033188969 0)
(1.0097405 -0.003536618 0)
(1.0104487 -0.0037658841 0)
(1.0112034 -0.0040069042 0)
(1.0120072 -0.0042598324 0)
(1.0128625 -0.0045247652 0)
(1.013772 -0.0048017254 0)
(1.0147382 -0.0050906599 0)
(1.0157637 -0.005391426 0)
(1.016851 -0.0057037781 0)
(1.0180026 -0.0060273643 0)
(1.0192211 -0.006361706 0)
(1.0205088 -0.0067061956 0)
(1.0218679 -0.0070600741 0)
(1.0233007 -0.0074224287 0)
(1.0248091 -0.0077921682 0)
(1.0263948 -0.0081680206 0)
(1.0280593 -0.0085485066 0)
(1.0298038 -0.0089319332 0)
(1.0316292 -0.0093163715 0)
(1.0335359 -0.0096996413 0)
(1.035524 -0.010079292 0)
(1.037593 -0.010452582 0)
(1.0397417 -0.010816464 0)
(1.0419684 -0.011167562 0)
(1.0442706 -0.011502157 0)
(1.0466452 -0.011816178 0)
(1.0490878 -0.012105198 0)
(1.0515935 -0.012364443 0)
(1.054156 -0.012588813 0)
(1.0567681 -0.012772927 0)
(1.0594214 -0.012911181 0)
(1.062106 -0.012997835 0)
(1.0648112 -0.013027113 0)
(1.0675246 -0.01299332 0)
(1.0702327 -0.012890976 0)
(1.0729209 -0.012714942 0)
(1.0755731 -0.012460559 0)
(1.0781725 -0.012123771 0)
(1.080701 -0.011701241 0)
(1.0831399 -0.011190469 0)
(1.0854698 -0.010589883 0)
(1.087671 -0.0098989422 0)
(1.0897234 -0.0091182128 0)
(1.0916073 -0.0082494543 0)
(1.093303 -0.0072956616 0)
(1.0947919 -0.0062611219 0)
(1.0960562 -0.0051514078 0)
(1.0970792 -0.0039733755 0)
(1.0978463 -0.0027350978 0)
(1.0983444 -0.0014457843 0)
(1.0985628 -0.00011564732 0)
(1.0984932 0.0012442568 0)
(1.0981299 0.0026222121 0)
(1.0974702 0.0040060907 0)
(1.096514 0.0053835779 0)
(1.0952642 0.0067423793 0)
(1.0937267 0.0080704713 0)
(1.09191 0.009356298 0)
(1.0898254 0.010588899 0)
(1.0874865 0.011758047 0)
(1.0849094 0.012854193 0)
(1.0821118 0.013868488 0)
(1.0791137 0.014792533 0)
(1.0759364 0.015618298 0)
(1.0726029 0.016337786 0)
(1.0691375 0.016943004 0)
(1.0655661 0.017425804 0)
(1.0619156 0.017778195 0)
(1.0582144 0.017992694 0)
(1.054492 0.018063226 0)
(1.0507783 0.017986083 0)
(1.0471034 0.017761226 0)
(1.043497 0.017393357 0)
(1.0399866 0.01689281 0)
(1.0365973 0.016275702 0)
(1.0333501 0.015563379 0)
(1.0302612 0.014780911 0)
(1.0273417 0.013954948 0)
(1.0245972 0.013111133 0)
(1.0220284 0.012271683 0)
(1.019632 0.011453492 0)
(1.0174022 0.010667197 0)
(1.0153312 0.0099172718 0)
(1.0134112 0.0092030415 0)
(1.0116348 0.0085202554 0)
(1.0099958 0.0078628328 0)
(1.008489 0.0072243667 0)
(1.0071108 0.0065991997 0)
(1.0058582 0.0059829472 0)
(1.0047297 0.0053726245 0)
(1.003723 0.0047663914 0)
(1.0028384 0.0041632769 0)
(1.0020725 0.0035626785 0)
(1.0014282 0.0029642336 0)
(1.0008989 0.0023672906 0)
(1.0004938 0.0017712807 0)
(1.0001969 0.001174933 0)
(1.0000327 0.00057752555 0)
(1.0012299 -0.00071260888 0)
(1.0014326 -0.00076186424 0)
(1.0015089 -0.00080571542 0)
(1.0016832 -0.0008609128 0)
(1.0018067 -0.00091587423 0)
(1.0019802 -0.00097874026 0)
(1.0021376 -0.0010445182 0)
(1.0023245 -0.0011170262 0)
(1.002512 -0.0011942197 0)
(1.0027209 -0.0012780014 0)
(1.0029392 -0.0013676635 0)
(1.0031766 -0.0014642702 0)
(1.0034285 -0.0015677279 0)
(1.0037001 -0.0016787418 0)
(1.0039901 -0.0017975073 0)
(1.0043015 -0.0019245815 0)
(1.0046347 -0.0020602992 0)
(1.0049921 -0.0022051587 0)
(1.0053747 -0.0023595616 0)
(1.0057845 -0.0025239801 0)
(1.0062233 -0.0026988419 0)
(1.006693 -0.002884599 0)
(1.0071954 -0.0030816761 0)
(1.0077328 -0.0032904951 0)
(1.0083071 -0.0035114519 0)
(1.0089208 -0.0037449192 0)
(1.009576 -0.0039912357 0)
(1.0102752 -0.0042506987 0)
(1.0110208 -0.0045235581 0)
(1.0118153 -0.0048100029 0)
(1.0126613 -0.0051101578 0)
(1.0135614 -0.0054240654 0)
(1.0145182 -0.005751683 0)
(1.0155344 -0.0060928676 0)
(1.0166126 -0.0064473601 0)
(1.0177554 -0.0068147821 0)
(1.0189655 -0.0071946115 0)
(1.0202452 -0.0075861807 0)
(1.0215971 -0.0079886503 0)
(1.0230233 -0.0084010064 0)
(1.024526 -0.0088220323 0)
(1.0261071 -0.0092503052 0)
(1.0277682 -0.0096841658 0)
(1.0295108 -0.010121711 0)
(1.0313359 -0.010560767 0)
(1.0332442 -0.010998873 0)
(1.0352358 -0.011433256 0)
(1.0373105 -0.011860812 0)
(1.0394674 -0.012278082 0)
(1.041705 -0.01268123 0)
(1.044021 -0.013066027 0)
(1.0464123 -0.013427834 0)
(1.0488751 -0.013761605 0)
(1.0514043 -0.014061889 0)
(1.053994 -0.014322859 0)
(1.056637 -0.014538359 0)
(1.059325 -0.014701969 0)
(1.0620483 -0.0148071 0)
(1.064796 -0.014847109 0)
(1.0675557 -0.014815431 0)
(1.0703138 -0.014705724 0)
(1.0730554 -0.014512025 0)
(1.0757642 -0.014228892 0)
(1.0784229 -0.013851566 0)
(1.081013 -0.013376093 0)