/*--------------------------------*- C++ -*----------------------------------*\
| =========                 |                                                 |
| \\      /  F ield         | foam-extend: Open Source CFD                    |
|  \\    /   O peration     | Version:     4.1                                |
|   \\  /    A nd           | Web:         http://www.foam-extend.org         |
|    \\/     M anipulation  |                                                 |
\*---------------------------------------------------------------------------*/
FoamFile
{
    version     2.0;
    format      ascii;
    class       surfaceScalarField;
    location    "2.65";
    object      phi;
}
// * * * * * * * * * * * * * * * * * * * * * * * * * * * * * * * * * * * * * //

dimensions      [0 3 -1 0 0 0 0];

internalField   nonuniform List<scalar> 
8438
(
-0.59744044
0.0016735535
-0.5991793
0.0017388564
-0.60095307
0.0017737753
-0.60277077
0.0018176984
-0.60464215
0.0018713802
-0.60657765
0.0019354974
-0.60858667
0.0020090188
-0.61067682
0.0020901531
-0.61285322
0.0021764022
-0.6151178
0.0022645742
-0.61746857
0.0023507795
-0.61989904
0.0024304657
-0.62239756
0.0024985208
-0.62494703
0.0025494651
-0.62752475
0.0025777278
-0.63010277
0.0025780113
-0.63264836
0.0025455905
-0.63512497
0.0024766128
-0.6374932
0.0023682276
-0.63971177
0.0022185776
-0.6417385
0.0020267233
-0.64353105
0.001792551
-0.6450478
0.0015167542
-0.64624876
0.0012009542
-0.64709677
0.00084801214
-0.64755931
0.00046254513
-0.64761062
5.130813e-05
-0.64723331
-0.00037730924
-0.6464224
-0.00081091754
-0.64518935
-0.001233048
-0.64356305
-0.0016262928
-0.64158957
-0.001973483
-0.63932997
-0.0022595993
-0.6368563
-0.002473674
-0.63424629
-0.0026100038
-0.6315779
-0.0026683907
-0.62892442
-0.002653484
-0.62635089
-0.0025735323
-0.62391197
-0.0024389138
-0.62165122
-0.0022607571
-0.61960137
-0.002049842
-0.61778553
-0.0018158451
-0.61621862
-0.0015669063
-0.61490908
-0.0013095388
-0.61385998
-0.0010491
-0.61306953
-0.0007904578
-0.61253402
-0.00053550961
-0.6122586
-0.00027541858
-1.364803e-05
-0.61123264
0.0031392962
-0.61269177
0.0031979895
-0.61417807
0.0032600701
-0.61570479
0.0033444181
-0.61728438
0.0034509745
-0.61892806
0.0035791722
-0.62064566
0.0037266224
-0.62244516
0.0038896486
-0.624332
0.0040632439
-0.62630845
0.004241024
-0.62837286
0.0044151939
-0.630519
0.0045766044
-0.63273543
0.0047149496
-0.63500511
0.0048191494
-0.6373053
0.0048779162
-0.63960779
0.004880502
-0.64187954
0.0048173326
-0.64408355
0.004680626
-0.64617998
0.0044646567
-0.64812712
0.004165724
-0.64988237
0.0037819707
-0.65140299
0.0033131653
-0.65264687
0.0027606416
-0.65357345
0.0021275323
-0.65414483
0.0014193869
-0.65432746
0.00064517746
-0.65409464
-0.00018150591
-0.65343054
-0.0010414114
-0.65233202
-0.0019094402
-0.65081
-0.0027550641
-0.64889255
-0.0035437454
-0.6466254
-0.0042406322
-0.64406996
-0.0048150369
-0.6412991
-0.0052445348
-0.63839158
-0.0055175246
-0.63542626
-0.0056337098
-0.63247706
-0.0056026873
-0.62960927
-0.0054413274
-0.62687745
-0.0051707284
-0.62432482
-0.0048133912
-0.62198367
-0.0043909936
-0.61987663
-0.0039228843
-0.61801828
-0.0034252543
-0.61641682
-0.0029109975
-0.61507556
-0.0023903563
-0.61399476
-0.0018712623
-0.6131739
-0.0013563652
-0.61260473
-0.00084459526
-0.00037357401
-0.61227817
0.0045549032
-0.61369205
0.0046118708
-0.61513077
0.0046987899
-0.61660928
0.0048229333
-0.61814089
0.0049825841
-0.6197374
0.0051756801
-0.62140914
0.0053983632
-0.62316458
0.0056450853
-0.62500972
0.0059083904
-0.62694746
0.0061787619
-0.6289768
0.0064445297
-0.63109211
0.0066919224
-0.63328251
0.0069053431
-0.6355313
0.0070679384
-0.63781585
0.0071624722
-0.64010785
0.0071725026
-0.64237393
0.0070834069
-0.64457667
0.0068833632
-0.64667576
0.0065637555
-0.64862912
0.0061190827
-0.65039376
0.0055466077
-0.65192654
0.0048459433
-0.65318479
0.0040188957
-0.65412705
0.0030697852
-0.65471404
0.0020063863
-0.65491038
0.00084151691
-0.65468692
-0.00040497082
-0.65402359
-0.0017047451
-0.65291293
-0.0030200925
-0.65136391
-0.0043040919
-0.6494044
-0.0055032461
-0.64708189
-0.0065631505
-0.64446119
-0.0074357366
-0.64161972
-0.0080860037
-0.63864107
-0.0084961737
-0.63560841
-0.0086663691
-0.6325989
-0.0086121942
-0.62967981
-0.0083604203
-0.62690645
-0.0079440878
-0.62432178
-0.0073980593
-0.62195718
-0.0067555925
-0.61983398
-0.0060460884
-0.6179653
-0.0052939343
-0.61635794
-0.0045183524
-0.61501429
-0.0037340078
-0.6139345
-0.0029510585
-0.61311683
-0.0021740354
-0.61255277
-0.0014086506
-0.00068139499
-0.61263502
0.005941126
-0.61402854
0.0060053843
-0.61544753
0.006117787
-0.61690697
0.0062823672
-0.61842061
0.0064962236
-0.62000096
0.0067560326
-0.62165913
0.0070565353
-0.62340443
0.0073903849
-0.62524378
0.007747745
-0.62718103
0.0081160036
-0.62921608
0.0084795876
-0.63134414
0.0088199796
-0.63355484
0.0091160466
-0.6358317
0.0093447904
-0.63815179
0.0094825619
-0.64048603
0.0095067469
-0.64279991
0.0093972876
-0.64505466
0.0091381093
-0.64720859
0.0087176833
-0.64921832
0.0081288172
-0.65103974
0.0073680236
-0.65262858
0.0064347918
-0.65394093
0.0053312395
-0.65493362
0.0040624722
-0.65556509
0.0026378614
-0.65579688
0.0010733078
-0.65559602
-0.00060583206
-0.65493838
-0.0023623801
-0.65381281
-0.0041456633
-0.65222569
-0.0058912161
-0.6502046
-0.0075243335
-0.64779962
-0.0089681322
-0.64508098
-0.010154375
-0.64213332
-0.011033664
-0.63904787
-0.011581621
-0.63591457
-0.011799671
-0.6328156
-0.011711165
-0.62982119
-0.011354835
-0.62698769
-0.010777588
-0.62435757
-0.010028173
-0.62196071
-0.0091524565
-0.61981635
-0.0081904479
-0.61793537
-0.0071749109
-0.61632247
-0.0061312547
-0.61497832
-0.0050781598
-0.61390148
-0.004027897
-0.61308836
-0.0029871592
-0.61253356
-0.0019634517
-0.00097000043
-0.61305953
0.0073002983
-0.61442982
0.0073756731
-0.61582655
0.0075145207
-0.61726487
0.0077206917
-0.61875905
0.0079903994
-0.62032237
0.0083193494
-0.62196688
0.0087010476
-0.62370299
0.0091264931
-0.62553883
0.0095835876
-0.62747952
0.01005669
-0.62952623
0.010526299
-0.63167524
0.010968992
-0.63391696
0.011357768
-0.63623514
0.011662967
-0.63860644
0.011853865
-0.64100068
0.011900984
-0.64338167
0.01177828
-0.6457087
0.011465143
-0.64793817
0.010947152
-0.650025
0.010215648
-0.65192364
0.0092666564
-0.6535885
0.0080996581
-0.65497417
0.00671691
-0.65603547
0.005123767
-0.65672792
0.0033303102
-0.65700901
0.0013543962
-0.65684061
-0.00077422338
-0.65619285
-0.0030101435
-0.65504895
-0.0052895597
-0.65341127
-0.007528905
-0.65130655
-0.0096290452
-0.64878841
-0.011486276
-0.64593479
-0.01300799
-0.64284078
-0.014127682
-0.63960858
-0.01481382
-0.6363377
-0.015070546
-0.63311726
-0.014931608
-0.63002137
-0.014450721
-0.62710755
-0.013691411
-0.6244173
-0.012718424
-0.62197816
-0.011591594
-0.61980638
-0.010362232
-0.61790967
-0.009071624
-0.61628982
-0.0077511015
-0.61494508
-0.0064229
-0.61387185
-0.0051011301
-0.61306518
-0.0037938242
-0.61252118
-0.0025074565
-0.0012463759
-0.61359673
0.0086272335
-0.61493736
0.008716301
-0.61630579
0.008882954
-0.61771734
0.0091322384
-0.61918683
0.0094598949
-0.62072847
0.0098609808
-0.62235543
0.01032801
-0.62407948
0.010850548
-0.62591032
0.011414422
-0.62785471
0.012001079
-0.6299155
0.01258709
-0.63209046
0.013143953
-0.63437108
0.01363839
-0.63674151
0.014033399
-0.63917792
0.014290274
-0.64164865
0.01437171
-0.64411526
0.014244892
-0.64653442
0.013884304
-0.64885998
0.013272712
-0.65104472
0.01240039
-0.6530414
0.011263328
-0.65480298
0.0098612419
-0.65628243
0.0081963569
-0.65743224
0.0062735819
-0.65820442
0.0041024885
-0.65855131
0.0017012911
-0.65842804
-0.00089749285
-0.65779687
-0.0036413204
-0.65663306
-0.0064533648
-0.65493287
-0.0092291
-0.6527213
-0.011840612
-0.65005641
-0.014151162
-0.64702677
-0.01603763
-0.64374197
-0.01741249
-0.64031937
-0.018236411
-0.63687145
-0.018518475
-0.63349633
-0.018306723
-0.63027291
-0.017674143
-0.62725968
-0.016704636
-0.6244964
-0.015481708
-0.62200713
-0.014080864
-0.61980387
-0.012565493
-0.61788999
-0.010985498
-0.61626333
-0.0093777634
-0.6149187
-0.0077675326
-0.61384965
-0.0061701809
-0.61304957
-0.0045939017
-0.61251419
-0.003042833
-0.0015156192
-0.61424975
0.0099181902
-0.61555478
0.010021329
-0.61688851
0.010216688
-0.61826696
0.010510691
-0.61970576
0.010898687
-0.62122014
0.01137536
-0.62282465
0.011932522
-0.6245327
0.0125586
-0.62635589
0.013237614
-0.62830311
0.013948295
-0.63037935
0.014663337
-0.63258439
0.015348986
-0.6349112
0.015965207
-0.6373446
0.016466798
-0.63986019
0.016805861
-0.6424244
0.016935922
-0.64499582
0.016816309
-0.64752761
0.0164161
-0.64997035
0.015715445
-0.65227418
0.014704222
-0.65438999
0.01337914
-0.65626936
0.011740614
-0.65786373
0.0097907191
-0.65912321
0.0075330621
-0.65999581
0.0049750874
-0.66042767
0.0021331544
-0.66036531
-0.00095985069
-0.65976054
-0.0042460905
-0.65857752
-0.0076363817
-0.65680338
-0.011003241
-0.65445972
-0.014184277
-0.65160995
-0.017000932
-0.64835693
-0.019290647
-0.64483014
-0.020939286
-0.6411675
-0.02189905
-0.63749854
-0.022187431
-0.63393282
-0.02187244
-0.63055468
-0.021052286
-0.6274231
-0.019836214
-0.62457485
-0.018329958
-0.62202905
-0.01662667
-0.61979195
-0.014802586
-0.61786131
-0.012916148
-0.61622985
-0.01100922
-0.61488808
-0.0091093038
-0.61382607
-0.0072321927
-0.61303484
-0.0053851246
-0.61250836
-0.0035693112
-0.0017790333
-0.61501302
0.011164728
-0.6162752
0.011283506
-0.61756745
0.011508937
-0.6189062
0.011849442
-0.62030792
0.012300404
-0.62178904
0.012856479
-0.62336566
0.013509148
-0.62505314
0.014246082
-0.6268654
0.015049868
-0.62881392
0.015896817
-0.63090646
0.016755877
-0.63314538
0.017587909
-0.63552577
0.018345591
-0.63803343
0.018974461
-0.6406434
0.019415833
-0.64331969
0.019612213
-0.64601692
0.019513536
-0.64868364
0.019082816
-0.65126615
0.018297962
-0.65371148
0.017149548
-0.65596857
0.015636231
-0.65798787
0.013759917
-0.65971969
0.011522537
-0.66111201
0.0089253777
-0.66210858
0.0059716637
-0.66264834
0.0026729075
-0.66266711
-0.00094107253
-0.66210312
-0.0048100811
-0.66090526
-0.0088342473
-0.65904715
-0.012861348
-0.65654414
-0.016687285
-0.65346576
-0.020079311
-0.64993404
-0.022822373
-0.64610561
-0.024767716
-0.64214609
-0.025858569
-0.63820724
-0.026126284
-0.63441259
-0.025667084
-0.63085229
-0.024612583
-0.62758468
-0.023103827
-0.62464166
-0.021272985
-0.62203532
-0.019233007
-0.61976432
-0.017073583
-0.61781917
-0.014861299
-0.61618631
-0.012642085
-0.61485101
-0.010444599
-0.6137993
-0.0082838995
-0.6130193
-0.0061651301
-0.61250256
-0.0040860446
-0.0020367979
-0.61588763
0.012363447
-0.61710097
0.012496847
-0.61834485
0.012752811
-0.61963681
0.013141405
-0.62099437
0.01365796
-0.6224353
0.014297411
-0.62397747
0.015051323
-0.6256385
0.015907105
-0.62743504
0.016846412
-0.62938179
0.01784357
-0.63148996
0.018864044
-0.63376531
0.019863255
-0.63620577
0.020786054
-0.63879877
0.021567457
-0.64151884
0.022135909
-0.64432696
0.022420326
-0.64717248
0.02235906
-0.64999781
0.021908146
-0.65274377
0.02104392
-0.65535362
0.019759399
-0.65777449
0.018057101
-0.6599563
0.015941729
-0.66184904
0.013415276
-0.66339921
0.01047555
-0.66454645
0.007118896
-0.66522154
0.0033480048
-0.66534742
-0.0008151952
-0.66484477
-0.005312732
-0.6636417
-0.010037321
-0.66169199
-0.014811055
-0.65899997
-0.019379302
-0.65564159
-0.023437691
-0.65176465
-0.026699314
-0.64756318
-0.028969185
-0.64324015
-0.0301816
-0.63897605
-0.03039038
-0.63491116
-0.029731978
-0.63114116
-0.028382585
-0.6277217
-0.026523289
-0.62467707
-0.024317613
-0.62200963
-0.021900445
-0.61970807
-0.019375148
-0.61775382
-0.016815551
-0.61612566
-0.014270245
-0.61480272
-0.01176753
-0.61376636
-0.0093202627
-0.61300126
-0.0069302316
-0.61249631
-0.0045909967
-0.002288155
-0.61686696
0.013502425
-0.61802273
0.013652623
-0.61921048
0.013940561
-0.62044801
0.014378928
-0.62175373
0.014963689
-0.62314685
0.015690529
-0.62464717
0.016551639
-0.62627485
0.017534784
-0.62804979
0.018621359
-0.62999056
0.019784333
-0.63211264
0.020986129
-0.63442622
0.02217683
-0.63693313
0.023292967
-0.63962327
0.024257597
-0.64247095
0.024983591
-0.64543332
0.025382689
-0.64845272
0.025378465
-0.65146324
0.024918666
-0.65439848
0.023979165
-0.65719726
0.02255817
-0.65980518
0.020665026
-0.66217271
0.018309256
-0.66425089
0.015493459
-0.66598605
0.012210709
-0.66731431
0.0084471604
-0.66815778
0.0041914697
-0.6684241
-0.00054887667
-0.6680117
-0.0057251283
-0.66682075
-0.011228271
-0.66477605
-0.016855759
-0.66186299
-0.022292353
-0.65816324
-0.027137449
-0.65385952
-0.031003031
-0.64919799
-0.033630715
-0.6444323
-0.034947288
-0.63977993
-0.035042749
-0.63540052
-0.03411139
-0.63139396
-0.032389149
-0.62780978
-0.030107463
-0.62466073
-0.027466667
-0.6219358
-0.024625376
-0.61961083
-0.021700112
-0.61765612
-0.018770266
-0.61604136
-0.015885007
-0.61473866
-0.013070228
-0.61372415
-0.010334774
-0.61297875
-0.0076756326
-0.61248854
-0.0050812051
-0.002531743
-0.61794999
0.014580948
-0.6190427
0.014745331
-0.62016709
0.015064946
-0.62134238
0.015554221
-0.62258814
0.016209448
-0.62392503
0.017027425
-0.62537496
0.018001567
-0.62696094
0.01912076
-0.62870659
0.020367013
-0.63063507
0.021712815
-0.6327672
0.02311826
-0.6351188
0.024528427
-0.63769705
0.025871212
-0.64049561
0.027056164
-0.64348917
0.02797715
-0.64663017
0.028523686
-0.64985154
0.028599833
-0.65307597
0.0281431
-0.6562275
0.027130689
-0.65923963
0.025570299
-0.66205721
0.023482607
-0.66463293
0.020884978
-0.66692106
0.017781594
-0.66886987
0.014159512
-0.67041338
0.0099906691
-0.67146477
0.0052428681
-0.6719144
-9.9255111e-05
-0.67163255
-0.0060069787
-0.67048228
-0.012378541
-0.6683464
-0.018991635
-0.6651784
-0.025460352
-0.66106264
-0.031253211
-0.65622978
-0.03583589
-0.65099994
-0.038860557
-0.6456962
-0.040251023
-0.64058341
-0.040155547
-0.63584262
-0.038852173
-0.63157474
-0.036657031
-0.62781775
-0.033864455
-0.62456722
-0.030717191
-0.62179414
-0.027398463
-0.61945803
-0.024036218
-0.6175157
-0.020712593
-0.61592635
-0.017474357
-0.61465426
-0.014342321
-0.61366992
-0.011319109
-0.61295032
-0.0083952367
-0.61247874
-0.0055527807
-0.0027656861
-0.61913342
0.015582073
-0.6201522
0.015764111
-0.62120415
0.01611689
-0.62230813
0.016658207
-0.62348446
0.017385776
-0.6247552
0.018298167
-0.62614442
0.019390782
-0.62767824
0.020654578
-0.62938453
0.022073306
-0.6312919
0.023620184
-0.6334277
0.025254062
-0.635815
0.026915722
-0.63846822
0.028524441
-0.64138685
0.029974788
-0.64454707
0.031137369
-0.6478957
0.031872319
-0.65135285
0.032056985
-0.65482531
0.031615561
-0.65822401
0.030529385
-0.66147604
0.028822326
-0.66452662
0.02653319
-0.66733318
0.023691542
-0.66985628
0.020304694
-0.67204932
0.016352551
-0.67384686
0.011788207
-0.67515374
0.006549745
-0.67583972
0.00058673226
-0.6757421
-0.0061045976
-0.67467693
-0.013443714
-0.6724656
-0.021202971
-0.66900822
-0.028917724
-0.66438415
-0.035877285
-0.65889057
-0.041329471
-0.65295508
-0.044796045
-0.64699686
-0.04620924
-0.64134098
-0.045811432
-0.63619038
-0.044002774
-0.63164062
-0.041206787
-0.62770974
-0.037795341
-0.62436842
-0.034058509
-0.62156367
-0.03020321
-0.6192347
-0.026365185
-0.61732238
-0.022624922
-0.61577404
-0.019022692
-0.61454554
-0.015570822
-0.61360156
-0.012263094
-0.61291513
-0.0090816629
-0.61246693
-0.0060009794
-0.0029876664
-0.6204071
0.016509541
-0.62134756
0.016704569
-0.62231977
0.017089099
-0.62334419
0.017682631
-0.62444207
0.018483656
-0.62563684
0.019492938
-0.62695474
0.020708682
-0.62842519
0.022125029
-0.63008077
0.023728886
-0.63195642
0.025495828
-0.63408739
0.027385036
-0.63650589
0.029334222
-0.63923608
0.03125463
-0.64228608
0.033024789
-0.6456357
0.034486988
-0.64922522
0.03546184
-0.65295706
0.035788826
-0.65671536
0.035373859
-0.66039282
0.034206844
-0.66390883
0.032338336
-0.66721125
0.029835612
-0.67026626
0.026746553
-0.67304524
0.023083675
-0.67551155
0.018818854
-0.67760459
0.013881246
-0.67922291
0.0081680686
-0.68021417
0.0015779982
-0.68037588
-0.0059428884
-0.67946349
-0.014356107
-0.67721206
-0.023454398
-0.67343381
-0.032695975
-0.66818553
-0.041125566
-0.6618578
-0.047657201
-0.65503903
-0.05161482
-0.64828274
-0.052965528
-0.64198969
-0.052104482
-0.6363815
-0.049610961
-0.63153702
-0.046051267
-0.62744163
-0.04189073
-0.62403069
-0.03746945
-0.62121991
-0.033013992
-0.61892367
-0.028661427
-0.61706446
-0.024484133
-0.61557672
-0.020510424
-0.61440759
-0.016739959
-0.61351602
-0.013154665
-0.6128714
-0.0097262768
-0.61245211
-0.0064202706
-0.0031949777
-0.62177478
0.017340362
-0.62262372
0.017553509
-0.62350578
0.017971157
-0.62444003
0.018616885
-0.62544789
0.019491511
-0.62655379
0.020598842
-0.627786
0.021940894
-0.62917731
0.023516334
-0.6307654
0.025316976
-0.63259248
0.027322911
-0.63470337
0.029495929
-0.63714179
0.031772639
-0.63994491
0.034057751
-0.64313387
0.036213754
-0.64669607
0.038049181
-0.65056506
0.03933083
-0.65461895
0.039842722
-0.65870921
0.039464118
-0.6627027
0.038200328
-0.66650942
0.036145063
-0.67008342
0.033409613
-0.67340508
0.030068204
-0.67646207
0.026140668
-0.67923362
0.021590408
-0.68167024
0.016317858
-0.68366821
0.010166047
-0.68505238
0.0029621596
-0.68557398
-0.0054212814
-0.68491431
-0.015015784
-0.68268963
-0.02567907
-0.67856899
-0.036816618
-0.67254907
-0.047145487
-0.66515201
-0.055054258
-0.65721551
-0.059551318
-0.64948255
-0.060698488
-0.64244689
-0.059140145
-0.63633821
-0.055719645
-0.63119908
-0.051190395
-0.62696361
-0.046126201
-0.62351802
-0.040915035
-0.62073807
-0.03579394
-0.61850862
-0.030890886
-0.6167317
-0.026261047
-0.61532832
-0.021913805
-0.61423708
-0.017831195
-0.61341178
-0.013979966
-0.61281874
-0.010319315
-0.61243456
-0.0068044509
-0.0033845922
-0.6232031
0.018083512
-0.62395742
0.018307827
-0.62474202
0.018755765
-0.62557741
0.019452269
-0.62648532
0.02039942
-0.62749102
0.02160454
-0.6286246
0.023074475
-0.62992217
0.024813912
-0.63142685
0.026821655
-0.63318902
0.029085082
-0.63526485
0.031571751
-0.63771231
0.034220103
-0.64058558
0.036931022
-0.64392474
0.039552915
-0.64773128
0.041855716
-0.65193288
0.043532436
-0.65637336
0.044283198
-0.66085525
0.043946007
-0.66520719
0.042552268
-0.6693273
0.040265176
-0.67318183
0.037264147
-0.67677399
0.033660361
-0.68011574
0.02948242
-0.68321107
0.024685733
-0.68603236
0.019139148
-0.68848223
0.012615918
-0.69036396
0.004843894
-0.69137639
-0.0044088548
-0.69111304
-0.015279129
-0.68903173
-0.027760386
-0.68457154
-0.041276802
-0.67759112
-0.054125913
-0.6687955
-0.063849878
-0.65942572
-0.068921094
-0.65049282
-0.069631393
-0.64260016
-0.067032807
-0.63596042
-0.06235938
-0.63054757
-0.056603251
-0.62621769
-0.050456079
-0.62279037
-0.044342356
-0.62009171
-0.038492594
-0.6179727
-0.0330099
-0.6163137
-0.027920043
-0.61502257
-0.023204936
-0.61403036
-0.018823409
-0.61328674
-0.014723581
-0.61275596
-0.010850097
-0.6124136
-0.0071468059
-0.0035532467
-0.62472695
0.018710137
-0.62537214
0.018953017
-0.62604883
0.019432454
-0.62677457
0.020178014
-0.62757015
0.021195
-0.62846085
0.022495237
-0.62947797
0.024091593
-0.63066049
0.025996434
-0.63205679
0.028217957
-0.633726
0.030754292
-0.63573741
0.033583157
-0.63816643
0.036649132
-0.64108902
0.039853604
-0.64457239
0.043036291
-0.64864361
0.045926937
-0.6532293
0.048118126
-0.65812584
0.049179737
-0.66306269
0.048882851
-0.6678126
0.047302183
-0.67226028
0.044712858
-0.67639613
0.041399994
-0.68025985
0.037524079
-0.68389688
0.033119451
-0.68734455
0.028133405
-0.69060959
0.022404182
-0.69361168
0.015618009
-0.69613399
0.0073662083
-0.69781653
-0.002726318
-0.69815467
-0.014940983
-0.6964108
-0.029504263
-0.69166663
-0.046020973
-0.68348563
-0.062306908
-0.67281358
-0.074521932
-0.66157729
-0.080157384
-0.65116512
-0.080043558
-0.64229922
-0.075898705
-0.63512298
-0.06953562
-0.62948972
-0.062236513
-0.62514044
-0.054805359
-0.62180693
-0.047675869
-0.61925589
-0.041043628
-0.61730138
-0.034964414
-0.61580237
-0.029419052
-0.6146552
-0.024352108
-0.61378527
-0.019693334
-0.61313991
-0.015368944
-0.61268265
-0.01130736
-0.61238911
-0.00744034
-0.0036975592
-0.62625576
0.019233969
-0.62678958
0.019486836
-0.62735051
0.019993384
-0.62795663
0.020784143
-0.62862781
0.021866173
-0.62938888
0.023256307
-0.63027187
0.024974587
-0.63131828
0.027042845
-0.63258168
0.029481356
-0.6341306
0.032303209
-0.63604965
0.035502213
-0.63843582
0.039035293
-0.64139261
0.042810402
-0.64502508
0.046668756
-0.64940448
0.050306337
-0.65446833
0.053181973
-0.65994633
0.054657737
-0.6654536
0.054390127
-0.67067614
0.05252472
-0.67548001
0.049516724
-0.67989678
0.045816769
-0.68402063
0.041647925
-0.6879387
0.037037526
-0.69172959
0.031924291
-0.6954552
0.026129792
-0.6990778
0.019240608
-0.70237471
0.01066312
-0.70493052
-0.00017050923
-0.70613766
-0.013733837
-0.70504011
-0.030601819
-0.70017661
-0.050884472
-0.69050281
-0.071980711
-0.67723143
-0.087793307
-0.66352221
-0.093866608
-0.65128391
-0.092281853
-0.64134301
-0.085839604
-0.63367109
-0.077207547
-0.62791968
-0.067987919
-0.62366546
-0.059059575
-0.62052899
-0.050812346
-0.61820962
-0.043362997
-0.61648421
-0.036689825
-0.61519312
-0.030710136
-0.61422464
-0.025320591
-0.61350167
-0.020416307
-0.61297165
-0.015898957
-0.6125993
-0.011679712
-0.61236157
-0.0076780749
-0.0038141772
-0.62788232
0.019620834
-0.62829037
0.019894888
-0.62872674
0.020429752
-0.62920449
0.021261887
-0.62974076
0.022402446
-0.63035879
0.023874341
-0.63109014
0.025705936
-0.63197749
0.027930196
-0.63307822
0.030582086
-0.63446922
0.033694209
-0.63625108
0.037284067
-0.63854563
0.041329842
-0.64148919
0.045753969
-0.64523558
0.050415143
-0.64992843
0.054999185
-0.65554383
0.058797373
-0.66172014
0.06083405
-0.66789165
0.060561637
-0.67361238
0.058245446
-0.67872779
0.054632134
-0.68334888
0.050437857
-0.68766181
0.04596086
-0.69181166
0.041187371
-0.69592754
0.036040177
-0.70015811
0.030360358
-0.70454447
0.023626966
-0.70886989
0.014988547
-0.71262565
0.0035852434
-0.71509992
-0.011259564
-0.71514607
-0.030555667
-0.7105427
-0.055487841
-0.69906496
-0.083458448
-0.68205631
-0.10480196
-0.66501593
-0.110907
-0.65053154
-0.10676624
-0.63946198
-0.09690916
-0.63141566
-0.08525387
-0.62572015
-0.073683423
-0.62172684
-0.063052892
-0.61892295
-0.053616232
-0.61693777
-0.045348175
-0.6155157
-0.038111894
-0.61448494
-0.031740898
-0.61373154
-0.026073997
-0.61318045
-0.020967392
-0.61278258
-0.016296827
-0.61250607
-0.011956218
-0.61233073
-0.0078534191
-0.0038999565
-0.62933598
0.019882713
-0.62961491
0.020173823
-0.62991711
0.020731948
-0.63025352
0.0215983
-0.63063796
0.022786881
-0.6310908
0.024327186
-0.63164168
0.026256815
-0.63233297
0.028621481
-0.63322443
0.031473546
-0.63440039
0.034870169
-0.63597877
0.038862449
-0.63811246
0.043463538
-0.64097954
0.048621041
-0.64479588
0.054231488
-0.64982097
0.060024275
-0.65613233
0.065108728
-0.66324987
0.067951591
-0.67030963
0.067621401
-0.67665923
0.064595048
-0.68211421
0.060087112
-0.68692667
0.055250321
-0.69142572
0.050459907
-0.69581681
0.045578456
-0.70025359
0.040476957
-0.70499406
0.035100828
-0.71020147
0.028834376
-0.71569657
0.020483654
-0.72088197
0.0087706445
-0.72496915
-0.0071723844
-0.72679971
-0.028725107
-0.72323185
-0.059055707
-0.70979739
-0.096892906
-0.68723409
-0.12736526
-0.66565424
-0.13248684
-0.64844079
-0.1239797
-0.63630036
-0.10904959
-0.62813509
-0.093419141
-0.62277144
-0.079047075
-0.61926875
-0.066555581
-0.61696816
-0.055916825
-0.61543681
-0.046879519
-0.61439936
-0.03914935
-0.61368323
-0.032457022
-0.61318089
-0.026576338
-0.61282538
-0.021322901
-0.61257507
-0.016547137
-0.61240418
-0.012127108
-0.61229701
-0.0079605946
-0.0039521655
-0.63049027
0.019981377
-0.63061982
0.020303373
-0.63077082
0.020882949
-0.63094763
0.021775104
-0.63115925
0.022998501
-0.63142223
0.024590171
-0.63176303
0.026597616
-0.63222203
0.029080474
-0.63285905
0.03211057
-0.63376248
0.035773602
-0.63506442
0.040164386
-0.63695059
0.045349709
-0.63964598
0.051316431
-0.64343018
0.058015682
-0.64872252
0.065316615
-0.65582175
0.072207959
-0.66410929
0.07623913
-0.6722049
0.075717012
-0.6791452
0.071535353
-0.68470217
0.065644075
-0.68939228
0.059940434
-0.6937779
0.054845529
-0.69813756
0.049938118
-0.70260017
0.044939569
-0.70761201
0.040112667
-0.7135937
0.034816068
-0.72050259
0.02739254
-0.72773212
0.016000172
-0.73427938
-0.00062512089
-0.73920326
-0.023801234
-0.73833185
-0.059927108
-0.72349559
-0.11172917
-0.69248319
-0.15837766
-0.66469656
-0.16027347
-0.64430095
-0.14437531
-0.6313913
-0.12195924
-0.62358302
-0.10122743
-0.61896662
-0.083663467
-0.6162585
-0.069263704
-0.61466562
-0.057509703
-0.61371995
-0.047825187
-0.61315047
-0.039718834
-0.61280129
-0.032806202
-0.61258279
-0.026794838
-0.61244339
-0.0214623
-0.61235344
-0.016637087
-0.61229599
-0.012184558
-0.61226149
-0.0079950986
-0.0039687024
-0.63007847
0.01988017
-0.63002794
0.020252834
-0.62999531
0.020850324
-0.62997624
0.021756034
-0.62997276
0.022995017
-0.62999479
0.024612202
-0.63006162
0.02666445
-0.6302062
0.029225056
-0.63048152
0.032385887
-0.63097112
0.036263198
-0.63181141
0.041004684
-0.63321967
0.046757961
-0.63548195
0.05357872
-0.63894665
0.061480376
-0.6442399
0.070609863
-0.65213528
0.080103338
-0.66194776
0.086051611
-0.67134991
0.085119165
-0.67893517
0.07912061
-0.68436565
0.071074552
-0.68865618
0.064230964
-0.69275104
0.05894039
-0.6970513
0.054238385
-0.70151398
0.049402248
-0.70683808
0.045436763
-0.71385883
0.04183682
-0.7225961
0.036129808
-0.73261913
0.026023207
-0.74190455
0.0086602936
-0.75052997
-0.015175812
-0.75421883
-0.056238246
-0.74047677
-0.12547124
-0.69642063
-0.20243379
-0.66055576
-0.19613834
-0.63703499
-0.16789608
-0.62415364
-0.13484059
-0.61751701
-0.10786406
-0.61423903
-0.086941439
-0.61270459
-0.070798144
-0.61204776
-0.058166538
-0.61182143
-0.048051518
-0.61179737
-0.039742887
-0.61186
-0.032743575
-0.61195141
-0.026703428
-0.61204331
-0.021370399
-0.61212256
-0.01655784
-0.61218362
-0.012123502
-0.61222455
-0.0079541603
-0.0039483064
-0.62618378
0.019548773
-0.62589612
0.019965168
-0.6256043
0.020558505
-0.62530174
0.021453478
-0.62498315
0.022676425
-0.6246498
0.024278856
-0.62431057
0.026325212
-0.62398677
0.028901264
-0.62371999
0.032119102
-0.62358362
0.036126833
-0.62371019
0.041131251
-0.62434506
0.04739283
-0.62585805
0.055091711
-0.62866641
0.064288737
-0.63355933
0.075502778
-0.6421624
0.08870641
-0.65403765
0.097926867
-0.66487397
0.095955475
-0.67275721
0.087003853
-0.67707091
0.075388256
-0.67991048
0.067070534
-0.68282201
0.061851924
-0.68642891
0.057845278
-0.69004514
0.05301848
-0.69450599
0.049897609
-0.70161403
0.048944867
-0.71115689
0.045672662
-0.72409858
0.038964904
-0.73556632
0.020128032
-0.74986075
-0.00088138844
-0.76244947
-0.043649518
-0.75916577
-0.12875494
-0.69459066
-0.2670089
-0.65073437
-0.23999463
-0.62530399
-0.19332645
-0.61396272
-0.14618187
-0.60976316
-0.11206362
-0.60860983
-0.088094765
-0.60868416
-0.070723815
-0.60919204
-0.057658656
-0.60980281
-0.04744075
-0.61038442
-0.039161283
-0.6108895
-0.032238487
-0.61130626
-0.026286671
-0.61163706
-0.021039602
-0.61188908
-0.016305817
-0.61207022
-0.011942366
-0.61218723
-0.0078371429
-0.0038907405
-0.61276646
0.018729607
-0.61203619
0.019234901
-0.61128974
0.019812054
-0.61050024
0.020663983
-0.60964999
0.021826171
-0.60872692
0.023355786
-0.60772273
0.025321024
-0.60663679
0.027815325
-0.6054836
0.030965909
-0.60430257
0.034945806
-0.60318057
0.040009247
-0.60232601
0.046538278
-0.60215345
0.054919143
-0.60313625
0.065271545
-0.6060127
0.078379223
-0.61372654
0.096420251
-0.6275272
0.11172752
-0.63868991
0.10711818
-0.64545642
0.093770361
-0.64634409
0.076275926
-0.64573637
0.066462813
-0.64567328
0.06178884
-0.64728023
0.059452231
-0.64831179
0.054050038
-0.64944503
0.051030843
-0.65616989
0.055669729
-0.66607513
0.055577907
-0.68384062
0.056730386
-0.69888825
0.035175671
-0.72786023
0.028090583
-0.75027201
-0.021237729
-0.77323458
-0.10579237
-0.67715865
-0.36308483
-0.63076772
-0.28638556
-0.60622335
-0.21787083
-0.59992087
-0.15248435
-0.6002662
-0.11171829
-0.60224903
-0.086111934
-0.60437342
-0.068599423
-0.60623188
-0.055800199
-0.60775545
-0.045917174
-0.60897156
-0.037945176
-0.60992819
-0.031281856
-0.61067129
-0.025543568
-0.611239
-0.020471897
-0.61166107
-0.015883745
-0.61195982
-0.011643622
-0.61215113
-0.0076458306
-0.0037969183
-0.58477961
0.017486156
-0.58351022
0.017965511
-0.58214158
0.018443419
-0.58066947
0.019191874
-0.57906767
0.020224368
-0.57730529
0.021593412
-0.57534572
0.023361453
-0.57314911
0.025618709
-0.57067786
0.02849466
-0.56790479
0.032172741
-0.56482862
0.036933071
-0.56155661
0.043266276
-0.55853279
0.051895319
-0.55652775
0.063266503
-0.55614874
0.078000217
-0.56153157
0.10180308
-0.58049244
0.13068839
-0.59265625
0.11928199
-0.5989097
0.10002381
-0.5940522
0.071418422
-0.58776381
0.060174428
-0.58244275
0.056467783
-0.58157553
0.058585007
-0.5795282
0.052002711
-0.57387621
0.045378846
-0.58519466
0.032529481
-0.59561963
0.037438935
-0.60467978
0.040313196
-0.60342485
0.02048029
-0.63525092
0.03987838
-0.71434572
0.019774527
-0.66918687
-0.054713836
-0.60685833
-0.22710715
-0.57379935
-0.31944453
-0.57150802
-0.22016216
-0.58113688
-0.14285549
-0.58945237
-0.1034028
-0.59561862
-0.07994568
-0.60008654
-0.064131511
-0.60336088
-0.052525857
-0.60579623
-0.043481819
-0.60762935
-0.036112063
-0.60901858
-0.029892622
-0.61007177
-0.02449038
-0.61086356
-0.019680108
-0.61144608
-0.015301222
-0.61185565
-0.011234048
-0.61211694
-0.0073845453
-0.0036689526
-0.52686993
0.015076169
-0.5243732
0.015468776
-0.52172087
0.01579109
-0.51887073
0.016341737
-0.51576852
0.017122156
-0.51234643
0.018171316
-0.50851876
0.01953379
-0.50418039
0.021280339
-0.4992071
0.023521363
-0.49346096
0.026426599
-0.48679887
0.030270987
-0.47911633
0.035583731
-0.4706093
0.043388292
-0.46224581
0.054903014
-0.45437876
0.070133168
-0.44762976
0.095054085
-0.47080986
0.15386849
-0.4700511
0.11852323
-0.46091541
0.090888123
-0.42709563
0.037598637
-0.39543665
0.028515453
-0.36804262
0.029073751
-0.30348987
0.020770632
-0.16300002
0.0134549
-0.041147262
0.0077710267
0
0
0
0
0
0
0
0
0
0
0
0
0
0
-0.21954732
0.015304038