# vtk DataFile Version 2.0
triSurface
ASCII
DATASET POLYDATA
POINTS 150 float
 -0.1 0 0 -0.0996492 0.00836778 0 -0.0996492 0.00836778 0.02 -0.1 0 0.02 -0.0985996 0.01667688 0 -0.0985996 0.01667688 0.02 -0.0968584 0.024869 0 -0.0968584 0.024869 0.02 -0.0944376 0.0328866 0 -0.0944376 0.0328866 0.02
-0.0913546 0.0406736 0 -0.0913546 0.0406736 0.02 -0.0876306 0.0481754 0 -0.0876306 0.0481754 0.02 -0.0832922 0.0553392 0 -0.0832922 0.0553392 0.02 -0.0783694 0.0621148 0 -0.0783694 0.0621148 0.02 -0.0728968 0.0684548 0 -0.0728968 0.0684548 0.02
-0.066913 0.0743144 0 -0.066913 0.0743144 0.02 -0.06046 0.079653 0 -0.06046 0.079653 0.02 -0.0535826 0.0844328 0 -0.0535826 0.0844328 0.02 -0.0463296 0.0886204 0 -0.0463296 0.0886204 0.02 -0.0387516 0.0921864 0 -0.0387516 0.0921864 0.02
-0.0309018 0.0951056 0 -0.0309018 0.0951056 0.02 -0.022835 0.0973578 0 -0.022835 0.0973578 0.02 -0.0146083 0.0989272 0 -0.0146083 0.0989272 0.02 -0.00627906 0.0998026 0 -0.00627906 0.0998026 0.02 0.00209424 0.099978 0 0.00209424 0.099978 0.02
0.01045284 0.0994522 0 0.01045284 0.0994522 0.02 0.01873814 0.0982288 0 0.01873814 0.0982288 0.02 0.026892 0.0963162 0 0.026892 0.0963162 0.02 0.0348572 0.0937282 0 0.0348572 0.0937282 0.02 0.042578 0.0904828 0 0.042578 0.0904828 0.02
0.05 0.0866026 0 0.05 0.0866026 0.02 0.0570714 0.082115 0 0.0570714 0.082115 0.02 0.0637424 0.0770514 0 0.0637424 0.0770514 0.02 0.0699664 0.0714472 0 0.0699664 0.0714472 0.02 0.0756996 0.065342 0 0.0756996 0.065342 0.02
0.0809018 0.0587786 0 0.0809018 0.0587786 0.02 0.0855364 0.0518028 0 0.0855364 0.0518028 0.02 0.0895712 0.0444636 0 0.0895712 0.0444636 0.02 0.0929776 0.0368124 0 0.0929776 0.0368124 0.02 0.095732 0.0289032 0 0.095732 0.0289032 0.02
0.0978148 0.0207912 0 0.0978148 0.0207912 0.02 0.0992114 0.01253332 0 0.0992114 0.01253332 0.02 0.0999122 0.00418756 0 0.0999122 0.00418756 0.02 0.0999122 -0.00418756 0 0.0999122 -0.00418756 0.02 0.0992114 -0.01253332 0 0.0992114 -0.01253332 0.02
0.0978148 -0.0207912 0 0.0978148 -0.0207912 0.02 0.095732 -0.0289032 0 0.095732 -0.0289032 0.02 0.0929776 -0.0368124 0 0.0929776 -0.0368124 0.02 0.0895712 -0.0444636 0 0.0895712 -0.0444636 0.02 0.0855364 -0.0518028 0 0.0855364 -0.0518028 0.02
0.0809018 -0.0587786 0 0.0809018 -0.0587786 0.02 0.0756996 -0.065342 0 0.0756996 -0.065342 0.02 0.0699664 -0.0714472 0 0.0699664 -0.0714472 0.02 0.0637424 -0.0770514 0 0.0637424 -0.0770514 0.02 0.0570714 -0.082115 0 0.0570714 -0.082115 0.02
0.05 -0.0866026 0 0.05 -0.0866026 0.02 0.042578 -0.0904828 0 0.042578 -0.0904828 0.02 0.0348572 -0.0937282 0 0.0348572 -0.0937282 0.02 0.026892 -0.0963162 0 0.026892 -0.0963162 0.02 0.01873814 -0.0982288 0 0.01873814 -0.0982288 0.02
0.01045284 -0.0994522 0 0.01045284 -0.0994522 0.02 0.00209424 -0.099978 0 0.00209424 -0.099978 0.02 -0.00627906 -0.0998026 0 -0.00627906 -0.0998026 0.02 -0.0146083 -0.0989272 0 -0.0146083 -0.0989272 0.02 -0.022835 -0.0973578 0 -0.022835 -0.0973578 0.02
-0.0309018 -0.0951056 0 -0.0309018 -0.0951056 0.02 -0.0387516 -0.0921864 0 -0.0387516 -0.0921864 0.02 -0.0463296 -0.0886204 0 -0.0463296 -0.0886204 0.02 -0.0535826 -0.0844328 0 -0.0535826 -0.0844328 0.02 -0.06046 -0.079653 0 -0.06046 -0.079653 0.02
-0.066913 -0.0743144 0 -0.066913 -0.0743144 0.02 -0.0728968 -0.0684548 0 -0.0728968 -0.0684548 0.02 -0.0783694 -0.0621148 0 -0.0783694 -0.0621148 0.02 -0.0832922 -0.0553392 0 -0.0832922 -0.0553392 0.02 -0.0876306 -0.0481754 0 -0.0876306 -0.0481754 0.02
-0.0913546 -0.0406736 0 -0.0913546 -0.0406736 0.02 -0.0944376 -0.0328866 0 -0.0944376 -0.0328866 0.02 -0.0968584 -0.024869 0 -0.0968584 -0.024869 0.02 -0.0985996 -0.01667688 0 -0.0985996 -0.01667688 0.02 -0.0996492 -0.00836778 0 -0.0996492 -0.00836778 0.02
POLYGONS 150 600
 3 0 2 1 3 2 0 3 3 1 5 4 3 5 1 2 3 4 7 6 3 7 4 5 3 6 9 8 3 9 6 7 3 8 11 10 3 11 8 9
3 10 13 12 3 13 10 11 3 12 15 14 3 15 12 13 3 14 17 16 3 17 14 15 3 16 19 18 3 19 16 17 3 18 21 20 3 21 18 19
3 20 23 22 3 23 20 21 3 22 25 24 3 25 22 23 3 24 27 26 3 27 24 25 3 26 29 28 3 29 26 27 3 28 31 30 3 31 28 29
3 30 33 32 3 33 30 31 3 32 35 34 3 35 32 33 3 34 37 36 3 37 34 35 3 36 39 38 3 39 36 37 3 38 41 40 3 41 38 39
3 40 43 42 3 43 40 41 3 42 45 44 3 45 42 43 3 44 47 46 3 47 44 45 3 46 49 48 3 49 46 47 3 48 51 50 3 51 48 49
3 50 53 52 3 53 50 51 3 52 55 54 3 55 52 53 3 54 57 56 3 57 54 55 3 56 59 58 3 59 56 57 3 58 61 60 3 61 58 59
3 60 63 62 3 63 60 61 3 62 65 64 3 65 62 63 3 64 67 66 3 67 64 65 3 66 69 68 3 69 66 67 3 68 71 70 3 71 68 69
3 70 73 72 3 73 70 71 3 72 75 74 3 75 72 73 3 74 77 76 3 77 74 75 3 76 79 78 3 79 76 77 3 78 81 80 3 81 78 79
3 80 83 82 3 83 80 81 3 82 85 84 3 85 82 83 3 84 87 86 3 87 84 85 3 86 89 88 3 89 86 87 3 88 91 90 3 91 88 89
3 90 93 92 3 93 90 91 3 92 95 94 3 95 92 93 3 94 97 96 3 97 94 95 3 96 99 98 3 99 96 97 3 98 101 100 3 101 98 99
3 100 103 102 3 103 100 101 3 102 105 104 3 105 102 103 3 104 107 106 3 107 104 105 3 106 109 108 3 109 106 107 3 108 111 110 3 111 108 109
3 110 113 112 3 113 110 111 3 112 115 114 3 115 112 113 3 114 117 116 3 117 114 115 3 116 119 118 3 119 116 117 3 118 121 120 3 121 118 119
3 120 123 122 3 123 120 121 3 122 125 124 3 125 122 123 3 124 127 126 3 127 124 125 3 126 129 128 3 129 126 127 3 128 131 130 3 131 128 129
3 130 133 132 3 133 130 131 3 132 135 134 3 135 132 133 3 134 137 136 3 137 134 135 3 136 139 138 3 139 136 137 3 138 141 140 3 141 138 139
3 140 143 142 3 143 140 141 3 142 145 144 3 145 142 143 3 144 147 146 3 147 144 145 3 146 149 148 3 149 146 147 3 148 3 0 3 3 148 149
CELL_DATA 150
FIELD attributes 1
region 1 150 float
 0 0 0 0 0 0 0 0 0 0
0 0 0 0 0 0 0 0 0 0
0 0 0 0 0 0 0 0 0 0
0 0 0 0 0 0 0 0 0 0
0 0 0 0 0 0 0 0 0 0
0 0 0 0 0 0 0 0 0 0
0 0 0 0 0 0 0 0 0 0
0 0 0 0 0 0 0 0 0 0
0 0 0 0 0 0 0 0 0 0
0 0 0 0 0 0 0 0 0 0
0 0 0 0 0 0 0 0 0 0
0 0 0 0 0 0 0 0 0 0
0 0 0 0 0 0 0 0 0 0
0 0 0 0 0 0 0 0 0 0
0 0 0 0 0 0 0 0 0 0
