/*--------------------------------*- C++ -*----------------------------------*\
| =========                 |                                                 |
| \\      /  F ield         | foam-extend: Open Source CFD                    |
|  \\    /   O peration     | Version:     4.1                                |
|   \\  /    A nd           | Web:         http://www.foam-extend.org         |
|    \\/     M anipulation  |                                                 |
\*---------------------------------------------------------------------------*/
FoamFile
{
    version     2.0;
    format      ascii;
    class       volScalarField;
    location    "2.8";
    object      p;
}
// * * * * * * * * * * * * * * * * * * * * * * * * * * * * * * * * * * * * * //

dimensions      [0 2 -2 0 0 0 0];

internalField   nonuniform List<scalar> 
16126
(
-0.00035968747
-0.00077479956
-0.0017387796
-0.0021151699
-0.0031122545
-0.0035916791
-0.0045610172
-0.0051735036
-0.0061230298
-0.0068565786
-0.007809485
-0.0086442266
-0.0096199101
-0.010538008
-0.011547528
-0.012533915
-0.013581572
-0.014624173
-0.015710281
-0.016801414
-0.017922993
-0.019052425
-0.020206064
-0.021375314
-0.022562478
-0.023763955
-0.024982559
-0.026215348
-0.027461663
-0.028718154
-0.02998338
-0.031253624
-0.032526303
-0.033797358
-0.035063287
-0.036319662
-0.037562287
-0.038786386
-0.039987273
-0.041159905
-0.042299292
-0.043400213
-0.044457507
-0.045465851
-0.046419968
-0.047314461
-0.048143935
-0.048902882
-0.049585747
-0.050186855
-0.050700442
-0.051120617
-0.051441397
-0.051656698
-0.051760372
-0.051746248
-0.051608174
-0.05134009
-0.050936095
-0.05039053
-0.049698063
-0.048853793
-0.047853323
-0.04669288
-0.045369377
-0.043880528
-0.042224897
-0.040401992
-0.038412299
-0.036257353
-0.033939737
-0.031463137
-0.028832292
-0.026053032
-0.023132182
-0.020077584
-0.016897942
-0.013602839
-0.010202524
-0.0067079289
-0.0031304104
0.00051823393
0.0042260637
0.0079809584
0.011770946
0.015584135
0.01940906
0.023234588
0.027050225
0.030846063
0.034612932
0.038342514
0.042027167
0.045660428
0.049236178
0.052750044
0.056197163
0.059575552
0.06288096
0.066114483
0.069271266
0.072357343
0.07536519
0.078310737
0.081180444
0.084012745
0.086782427
0.089580729
0.092358901
0.095329328
0.098385496
0.10200608
0.10591196
0.11114819
0.11688897
0.12541142
0.13421689
0.14860151
0.16107497
0.18589177
0.19949613
0.2498389
0.24601774
0.41505079
-0.00036982753
-0.00078350372
-0.0017703669
-0.0021373474
-0.0031446178
-0.0036220377
-0.0045953463
-0.005209007
-0.006160162
-0.0068954537
-0.0078488892
-0.0086845664
-0.0096593833
-0.010576688
-0.011584046
-0.012569054
-0.013615221
-0.014656507
-0.015739163
-0.016823452
-0.017939574
-0.019069815
-0.020221144
-0.021376315
-0.022551981
-0.023749362
-0.02496202
-0.026187732
-0.027426775
-0.028675738
-0.029933136
-0.03119521
-0.032459341
-0.033721467
-0.03497808
-0.03622476
-0.037457322
-0.038671016
-0.039861187
-0.041022836
-0.042151023
-0.043240594
-0.044286456
-0.04528337
-0.046226147
-0.047109482
-0.047928078
-0.048676528
-0.049349375
-0.04994104
-0.050445855
-0.050858018
-0.05117163
-0.051380682
-0.051479097
-0.051460758
-0.051319567
-0.051049499
-0.05064468
-0.050099466
-0.049408525
-0.048566942
-0.047570295
-0.046414768
-0.045097219
-0.043615293
-0.041967469
-0.040153158
-0.038172737
-0.036027622
-0.033720265
-0.031254212
-0.028634057
-0.025865479
-0.022955148
-0.019910747
-0.016740822
-0.013454798
-0.010062765
-0.0065755047
-0.00300422
0.00063943565
0.0043436601
0.0080964642
0.011886003
0.015700513
0.019528656
0.02335943
0.027182478
0.03098803
0.03476708
0.038511481
0.042213811
0.045867853
0.049467831
0.053009741
0.056489254
0.059904949
0.063253436
0.066536644
0.069751097
0.072903997
0.075989965
0.079026311
0.08200269
0.084958461
0.087872867
0.090835651
0.093804042
0.096981946
0.10027197
0.10412836
0.10829214
0.11375076
0.11973644
0.12839221
0.13739504
0.15166514
0.16430405
0.18794647
0.20218571
0.24239829
0.25039372
0.31033744
-0.00041597122
-0.00073540352
-0.0018000731
-0.0021161691
-0.0031520582
-0.003611466
-0.0045906913
-0.0051993468
-0.006148546
-0.0068824551
-0.0078320846
-0.0086673186
-0.009639692
-0.010558203
-0.011564999
-0.012550125
-0.013592983
-0.014630017
-0.015710434
-0.016801371
-0.017920673
-0.019035405
-0.020172138
-0.021340919
-0.022527485
-0.023723015
-0.024935685
-0.026161245
-0.027400506
-0.028649818
-0.029907782
-0.031170654
-0.032435799
-0.033699184
-0.034957272
-0.036205662
-0.037440145
-0.038655981
-0.039848497
-0.041012702
-0.042143651
-0.043236195
-0.044285254
-0.045285598
-0.046232056
-0.047119343
-0.047942179
-0.048695178
-0.049372897
-0.049969768
-0.050480125
-0.050898162
-0.051217962
-0.051433488
-0.051538622
-0.051527198
-0.051393052
-0.051130087
-0.050732344
-0.050194089
-0.049509891
-0.048674737
-0.0476841
-0.046534063
-0.045221381
-0.043743604
-0.042099121
-0.040287257
-0.038308319
-0.036163656
-0.033855669
-0.031387865
-0.028764811
-0.025992172
-0.02307662
-0.020025855
-0.016848449
-0.013553874
-0.010152277
-0.00665451
-0.0030718567
0.00058393098
0.0043009616
0.0080671441
0.011870547
0.015699285
0.019541922
0.023387331
0.027225062
0.031045228
0.034838752
0.038597379
0.042313645
0.045981197
0.049594215
0.053148512
0.056639755
0.060066275
0.063424812
0.066716961
0.069939783
0.073100128
0.076194275
0.079239382
0.082229462
0.085204185
0.088152808
0.091165131
0.094218463
0.09751093
0.10097993
0.1050477
0.1095092
0.11524029
0.12156711
0.13032582
0.13945216
0.15307897
0.16530363
0.186414
0.20031824
0.23348668
0.24655958
0.29028079
-0.0005627172
-0.00067452051
-0.001880601
-0.0021086752
-0.0031926109
-0.0036215767
-0.0046121116
-0.0052120698
-0.0061609375
-0.006893243
-0.00783959
-0.0086741862
-0.0096406782
-0.010554655
-0.011551711
-0.012530881
-0.01357008
-0.014609473
-0.01568667
-0.016753541
-0.017847941
-0.018979156
-0.02013506
-0.021290845
-0.02246509
-0.023654919
-0.024861195
-0.026080925
-0.027314068
-0.028557375
-0.029809313
-0.031066282
-0.032325601
-0.033583316
-0.034835885
-0.036078967
-0.037308374
-0.038519427
-0.039707493
-0.04086765
-0.041995015
-0.043084511
-0.044131139
-0.045129748
-0.046075251
-0.046962443
-0.047786125
-0.048540979
-0.049221624
-0.049822543
-0.050338103
-0.050762512
-0.051089851
-0.051314061
-0.051428975
-0.05142836
-0.051305962
-0.051055571
-0.050671099
-0.050146661
-0.04947666
-0.048655901
-0.047679664
-0.046543831
-0.045244948
-0.043780355
-0.042148226
-0.04034768
-0.038378815
-0.036242787
-0.033941807
-0.031479212
-0.028859408
-0.026087919
-0.023171294
-0.020117133
-0.016933922
-0.013631083
-0.010218715
-0.0067076707
-0.0031092247
0.00056484357
0.0043025959
0.0080918574
0.011920609
0.015776878
0.019649172
0.023526294
0.027397782
0.031253716
0.035085071
0.038883628
0.042642087
0.046354284
0.050014823
0.053619942
0.05716609
0.060652296
0.064076666
0.067441893
0.070747355
0.074001406
0.077204123
0.080374236
0.083511659
0.086656271
0.08980589
0.093045004
0.096362526
0.099935912
0.10371878
0.10807714
0.11283675
0.11874215
0.125207
0.1337699
0.14265582
0.15523576
0.16660905
0.18459601
0.19693946
0.22061835
0.23168146
0.24975066
-0.00083132319
-0.00057487345
-0.0019888579
-0.0020769034
-0.0032287496
-0.0036076286
-0.0046127222
-0.0051938676
-0.0061382424
-0.0068601366
-0.0077952934
-0.0086203907
-0.009576672
-0.010487029
-0.011481248
-0.012458166
-0.013485088
-0.014498108
-0.015551789
-0.016641902
-0.017761513
-0.018877764
-0.02001407
-0.021168748
-0.022342634
-0.023529661
-0.024733586
-0.025950702
-0.027181627
-0.028423074
-0.029673653
-0.030929902
-0.03218918
-0.033447666
-0.034701859
-0.035947526
-0.037180534
-0.038396296
-0.039590244
-0.040757535
-0.041893352
-0.042992678
-0.044050573
-0.045061927
-0.046021685
-0.046924659
-0.047765645
-0.048539306
-0.049240211
-0.049862773
-0.05040126
-0.050849757
-0.051202188
-0.051452312
-0.051593753
-0.051620045
-0.051524674
-0.051301155
-0.050943104
-0.050444331
-0.049798926
-0.049001377
-0.048046652
-0.046930324
-0.045648644
-0.044198671
-0.04257832
-0.040786474
-0.03882302
-0.036688936
-0.034386282
-0.031918283
-0.029289263
-0.026504711
-0.023571165
-0.020496268
-0.017288577
-0.013957632
-0.010513687
-0.0069677889
-0.0033314466
0.00038325581
0.0041641095
0.007998632
0.011874556
0.015779522
0.01970174
0.023629617
0.027552399
0.03145982
0.03534264
0.039192403
0.043001759
0.04676434
0.050474772
0.05412913
0.057724081
0.061258644
0.064731486
0.06814538
0.071500902
0.07480662
0.078065044
0.081295149
0.084501578
0.087723777
0.090968069
0.094315011
0.097767357
0.10148666
0.10544737
0.10996699
0.11490592
0.12088483
0.12740314
0.13571226
0.14432527
0.15592784
0.16661771
0.18234065
0.19406723
0.21338005
0.22469287
0.23700448
-0.0012338449
-0.00046037139
-0.0021451432
-0.0020517767
-0.0032848909
-0.0035984675
-0.0046196936
-0.0051756163
-0.0061159665
-0.0068269136
-0.007754001
-0.00857374
-0.0095180207
-0.010414199
-0.011379771
-0.012330198
-0.01334411
-0.014377773
-0.015446933
-0.016509231
-0.017599368
-0.018708309
-0.019841246
-0.020985017
-0.022147717
-0.023325307
-0.024519787
-0.025728307
-0.026950865
-0.028184577
-0.029427963
-0.030677812
-0.03193153
-0.03318549
-0.034436292
-0.035679882
-0.036912256
-0.038128997
-0.039325678
-0.040497613
-0.041640119
-0.04274831
-0.043817356
-0.044842234
-0.045817955
-0.046739362
-0.047601252
-0.048398255
-0.049124865
-0.049775385
-0.050343929
-0.050824389
-0.051210462
-0.051495638
-0.051673238
-0.051736462
-0.051678437
-0.051492288
-0.051171229
-0.050708654
-0.050098223
-0.049333999
-0.04841052
-0.047322945
-0.046067119
-0.044639718
-0.043038295
-0.041261399
-0.039308615
-0.037180656
-0.034879351
-0.032407743
-0.029770008
-0.026971547
-0.024018842
-0.020919554
-0.017682276
-0.014316687
-0.010833159
-0.007243008
-0.0035579462
0.00020966889
0.0040472911
0.0079420024
0.011881054
0.015851656
0.019841633
0.023838988
0.027832676
0.031812083
0.035767764
0.039690978
0.043574242
0.047411128
0.051196514
0.054926778
0.058599183
0.062213224
0.065768649
0.069269025
0.072716694
0.076121104
0.079487411
0.08283495
0.086171932
0.089535932
0.092937581
0.096449321
0.10007874
0.10396486
0.10808918
0.11271677
0.11772799
0.12363067
0.12999678
0.13782952
0.14589035
0.15625326
0.16581262
0.17883215
0.18872263
0.20266304
0.21124707
0.21741754
-0.0017210329
-0.00032451533
-0.0023164204
-0.0020074633
-0.0033350399
-0.0035700284
-0.0046108818
-0.0051331491
-0.0060656892
-0.0067540977
-0.0076598106
-0.0084515207
-0.0093712053
-0.010254338
-0.011223835
-0.012185505
-0.013188546
-0.014189392
-0.015226873
-0.016283762
-0.017369047
-0.018464927
-0.019582499
-0.020716412
-0.02187005
-0.023039084
-0.024225724
-0.025426988
-0.026643114
-0.027871363
-0.029110399
-0.03035726
-0.03160949
-0.032863715
-0.034116698
-0.03536462
-0.036603657
-0.037829603
-0.039038206
-0.040224952
-0.041385304
-0.042514489
-0.043607762
-0.044660144
-0.045666642
-0.046622053
-0.047521073
-0.048358181
-0.049127667
-0.049823578
-0.05043972
-0.05096963
-0.051406603
-0.051743689
-0.051973733
-0.052089426
-0.052083366
-0.051948131
-0.05167638
-0.051260947
-0.05069494
-0.049971883
-0.049085794
-0.048031341
-0.04680391
-0.045399758
-0.043816058
-0.042051038
-0.040104002
-0.037975446
-0.035667033
-0.033181711
-0.030523605
-0.027698151
-0.02471191
-0.021572703
-0.018289344
-0.014871788
-0.011330788
-0.0076780426
-0.0039257639
-8.7007087e-05
0.0038251071
0.0077970611
0.01181571
0.015867453
0.019939539
0.024019166
0.02809468
0.032154765
0.036189478
0.040189633
0.044147702
0.048056851
0.051911882
0.055708781
0.05944498
0.063120003
0.066734139
0.070291043
0.073794085
0.077252928
0.080674474
0.084078031
0.087474704
0.090900733
0.094371172
0.097952987
0.10166007
0.1056151
0.10980926
0.11446645
0.11948879
0.12529047
0.13151303
0.1389534
0.14660536
0.15606336
0.16492999
0.17628254
0.18539912
0.19680095
0.20460473
0.20875606
-0.0022492077
-0.00018359345
-0.0025027533
-0.0019649697
-0.0033824947
-0.0035299668
-0.0045842193
-0.0050666956
-0.0059893111
-0.0066567581
-0.0075521238
-0.0083422507
-0.0092541049
-0.010118636
-0.011054869
-0.011981813
-0.012961388
-0.013952771
-0.014979261
-0.016014057
-0.017076395
-0.018155277
-0.019257762
-0.020375817
-0.021514137
-0.022669084
-0.023842339
-0.025031456
-0.026236409
-0.027454826
-0.028685403
-0.029925492
-0.0311728
-0.032424248
-0.033676822
-0.034926985
-0.036171154
-0.037405387
-0.038625657
-0.039827671
-0.041007068
-0.042159225
-0.043279494
-0.044362943
-0.045404571
-0.046399104
-0.047341105
-0.048224855
-0.049044379
-0.049793399
-0.050465333
-0.05105328
-0.051550038
-0.051948121
-0.052239798
-0.052417156
-0.052472161
-0.052396752
-0.052182936
-0.051822903
-0.051309126
-0.050634512
-0.049792492
-0.048777176
-0.047583435
-0.046207058
-0.044644797
-0.042894519
-0.040955217
-0.038827151
-0.036511796
-0.034011996
-0.031331825
-0.028476759
-0.025453442
-0.022269905
-0.018935159
-0.015459583
-0.011854191
-0.0081313664
-0.0043037362
-0.00038476299
0.0036118276
0.0076717044
0.011780661
0.015924391
0.020089457
0.024262379
0.028431031
0.032583492
0.036709503
0.040799296
0.044844765
0.048838776
0.052776261
0.056653594
0.060468616
0.064221028
0.067911817
0.071545181
0.075125576
0.078662987
0.082165768
0.085652771
0.089136598
0.092650808
0.096211627
0.099878089
0.10366483
0.1076757
0.11190415
0.1165338
0.12148001
0.12707363
0.13301128
0.13991085
0.14695043
0.15531188
0.16313781
0.17254505
0.18018597
0.18874115
0.19479355
0.1973646
-0.0027342133
-2.8543725e-05
-0.0026678526
-0.001900142
-0.0034174809
-0.0034768151
-0.0045520619
-0.0049937471
-0.0059075859
-0.0065464118
-0.0074175557
-0.0081736404
-0.0090558434
-0.0098996524
-0.010820033
-0.011734008
-0.012693269
-0.013658345
-0.014658424
-0.015674832
-0.016719283
-0.01777978
-0.018863679
-0.019965639
-0.021088888
-0.022230154
-0.023390947
-0.02456899
-0.025764349
-0.026974911
-0.028199545
-0.029435918
-0.030681967
-0.031934937
-0.033192079
-0.034450168
-0.035705887
-0.03695557
-0.038195424
-0.039421369
-0.040629205
-0.041814428
-0.042972443
-0.044098316
-0.045186964
-0.046232967
-0.047230663
-0.048174033
-0.04905673
-0.049872035
-0.050612858
-0.051271729
-0.051840828
-0.052312006
-0.05267683
-0.052926663
-0.053052728
-0.053046217
-0.052898391
-0.052600711
-0.052144942
-0.051523319
-0.050728636
-0.049754423
-0.048595018
-0.047245744
-0.045702946
-0.043964164
-0.04202812
-0.039894898
-0.037565851
-0.035043806
-0.032332868
-0.029438661
-0.026368022
-0.023129278
-0.019731844
-0.016186461
-0.012504849
-0.0086997469
-0.004784486
-0.00077384825
0.0033175189
0.0074745156
0.011682899
0.015927014
0.020192721
0.024465349
0.028731928
0.032979513
0.037197005
0.041374093
0.045503173
0.049576569
0.053589147
0.057536369
0.061416216
0.065228617
0.068975157
0.072659942
0.076288269
0.079870287
0.083415368
0.086942114
0.090464565
0.09401454
0.097610062
0.10130471
0.10511537
0.10913205
0.11335256
0.11792923
0.12279206
0.1282054
0.1339184
0.14040818
0.14701886
0.15462316
0.16181352
0.17003429
0.17693579
0.18401176
0.18928757
0.19106584
-0.0031620504
0.00010246347
-0.0028165493
-0.0018394678
-0.0034363143
-0.0034086254
-0.0044941971
-0.0048922467
-0.0057937411
-0.0064057062
-0.0072595557
-0.0079973531
-0.0088594115
-0.0096785805
-0.010569254
-0.011453396
-0.012385882
-0.01332897
-0.014306685
-0.015298745
-0.016318844
-0.017357284
-0.018420343
-0.019502445
-0.020606928
-0.021730937
-0.022875821
-0.024039697
-0.025222606
-0.026422781
-0.027639238
-0.028869986
-0.030113211
-0.031366502
-0.032627401
-0.033893014
-0.035160316
-0.036425937
-0.037686336
-0.038937653
-0.04017586
-0.041396571
-0.042595239
-0.043766913
-0.044906414
-0.046008148
-0.047066195
-0.048074201
-0.049025403
-0.04991259
-0.050728112
-0.051463877
-0.052111386
-0.052661767
-0.053105827
-0.053434144
-0.053637141
-0.053705207
-0.053628803
-0.053398613
-0.053005648
-0.052441428
-0.051698076
-0.050768508
-0.049646499
-0.048326887
-0.046805585
-0.045079791
-0.043147942
-0.041009937
-0.038666997
-0.03612193
-0.033378865
-0.030443591
-0.027323121
-0.024026171
-0.020562399
-0.016943328
-0.013180747
-0.0092888579
-0.0052815612
-0.0011736168
0.0030197325
0.0072822593
0.011597424
0.01594895
0.020321809
0.024700519
0.029071663
0.033421544
0.037739077
0.042013232
0.046234772
0.050395385
0.054490045
0.058515391
0.062469768
0.066352696
0.070166024
0.073914488
0.077603944
0.081244411
0.084846054
0.088426552
0.09200028
0.095596271
0.099232129
0.10295456
0.10677939
0.11078181
0.11495983
0.11943604
0.12414947
0.12930557
0.13469387
0.14067132
0.14671076
0.15343264
0.15976988
0.16666716
0.17250453
0.17805176
0.18229986
0.18361876
-0.0034877844
0.0002222831
-0.0029257067
-0.0017695867
-0.003436538
-0.0033306905
-0.0044259578
-0.0047816065
-0.0056687854
-0.0062486367
-0.0070771301
-0.007783527
-0.008617145
-0.0094104179
-0.010276731
-0.011137654
-0.012044524
-0.012960816
-0.013911732
-0.014879869
-0.015876669
-0.016892881
-0.017934444
-0.018996898
-0.020083089
-0.021190584
-0.022320652
-0.023471689
-0.024643852
-0.025835678
-0.027046404
-0.028274377
-0.029518066
-0.030775408
-0.032044253
-0.033322041
-0.034606043
-0.035893172
-0.037180129
-0.03846326
-0.03973868
-0.041002094
-0.042248964
-0.043474285
-0.044672732
-0.045838488
-0.04696532
-0.04804648
-0.049074725
-0.05004229
-0.050940897
-0.051761764
-0.052495643
-0.053132868
-0.053663421
-0.054077025
-0.054363238
-0.054511587
-0.054511677
-0.054353364
-0.05402686
-0.053522938
-0.052833016
-0.051949378
-0.050865226
-0.049574905
-0.048073902
-0.046359091
-0.044428639
-0.042282296
-0.039921181
-0.037348136
-0.034567362
-0.031584868
-0.028407927
-0.025045606
-0.021508181
-0.017807335
-0.013956348
-0.009968915
-0.0058594695
-0.0016456149
0.0026556788
0.0070274327
0.011455074
0.015919746
0.020405722
0.024895893
0.029375805
0.033830386
0.038246673
0.042612822
0.046922154
0.051165786
0.055338746
0.059435055
0.063452962
0.067393075
0.07125827
0.075052387
0.078782081
0.082457645
0.086089516
0.089695057
0.093289133
0.096898875
0.10054227
0.10426107
0.10807139
0.11203731
0.11615873
0.12053528
0.12511612
0.13006097
0.13519713
0.14079005
0.1464237
0.15253308
0.15832009
0.16437788
0.16959612
0.17425525
0.17791441
0.17887266
-0.0037180963
0.00031653513
-0.0030013399
-0.0017016049
-0.0034172787
-0.0032419006
-0.0043385273
-0.0046535059
-0.005524601
-0.0060750242
-0.0068816699
-0.0075627023
-0.0083710516
-0.0091366804
-0.0099736621
-0.010805256
-0.011683618
-0.012573228
-0.01349756
-0.014439403
-0.01541037
-0.01640226
-0.017420653
-0.018461404
-0.019527334
-0.020616378
-0.021729812
-0.022866379
-0.024026348
-0.025208593
-0.026412573
-0.02763698
-0.028880576
-0.03014165
-0.031418367
-0.032708505
-0.034009634
-0.035318957
-0.036633418
-0.03794957
-0.039263672
-0.040571517
-0.041868578
-0.043149789
-0.044409674
-0.045642189
-0.046840776
-0.047998283
-0.049106976
-0.050158519
-0.051143985
-0.052053881
-0.052878183
-0.053606408
-0.054227673
-0.054730818
-0.055104497
-0.055337336
-0.055418044
-0.05533561
-0.055079405
-0.054639413
-0.05400631
-0.05317171
-0.052128201
-0.050869608
-0.049390954
-0.047688761
-0.045760896
-0.043606937
-0.041227872
-0.038626561
-0.03580725
-0.032776168
-0.029540794
-0.026110758
-0.022496368
-0.018710833
-0.014766055
-0.010679521
-0.0064669307
-0.0021436822
0.0022737219
0.0067640932
0.011309855
0.015892859
0.020496546
0.025102899
0.029697165
0.034263135
0.038789599
0.043261652
0.047668979
0.052001581
0.056254579
0.060426246
0.064515698
0.06852109
0.072444548
0.076291782
0.080069582
0.083787328
0.087456334
0.09109265
0.094710921
0.098335758
0.10198398
0.10569173
0.10947341
0.11338188
0.11741647
0.12165559
0.12605481
0.13073422
0.13555004
0.14069227
0.14583099
0.15125828
0.15638027
0.16154797
0.16602333
0.16982431
0.17287062
0.17366748
-0.0038457542
0.00039066581
-0.0030355045
-0.001631277
-0.0033786657
-0.0031463464
-0.0042397796
-0.0045170243
-0.0053692614
-0.0058880394
-0.0066685135
-0.0073191816
-0.0080990871
-0.0088365635
-0.0096459959
-0.010450495
-0.011301073
-0.012163003
-0.013059879
-0.01397572
-0.014921446
-0.015889412
-0.016885001
-0.017904677
-0.018951136
-0.020022694
-0.021120672
-0.022244126
-0.02339349
-0.024567964
-0.025767257
-0.026990407
-0.028236478
-0.02950411
-0.030791789
-0.032097622
-0.033419477
-0.034754838
-0.036100883
-0.037454359
-0.038811658
-0.04016865
-0.0415208
-0.042862969
-0.044189515
-0.045494145
-0.046769964
-0.048009392
-0.049204182
-0.0503454
-0.051423445
-0.052428078
-0.053348466
-0.054173264
-0.054890686
-0.055488639
-0.055954825
-0.056276918
-0.056442679
-0.056440177
-0.056257894
-0.05588498
-0.05531132
-0.054527824
-0.053526428
-0.052300415
-0.050844317
-0.049154295
-0.047227902
-0.045064553
-0.0426651
-0.040032456
-0.037170909
-0.034086973
-0.030788386
-0.027285082
-0.023588449
-0.019710758
-0.015668646
-0.011475282
-0.0071484742
-0.0027088756
0.0018267759
0.0064393664
0.011110279
0.015818538
0.020546514
0.025274228
0.029985924
0.034664015
0.039295571
0.043867498
0.048370489
0.052795487
0.057135185
0.061380822
0.065531717
0.069590888
0.073563516
0.077451218
0.081261759
0.085005957
0.088694068
0.092342128
0.095964808
0.099584709
0.10321856
0.10689817
0.11063753
0.11448097
0.11842859
0.12254264
0.12678578
0.13124796
0.13581158
0.14061033
0.14538545
0.15032499
0.15498966
0.15955962
0.16354881
0.16679428
0.16942349
0.17003249
-0.003889764
0.00044161528
-0.0030357614
-0.0015629104
-0.0033217603
-0.0030436971
-0.004126786
-0.0043699893
-0.0052018997
-0.0056916132
-0.0064474401
-0.0070704681
-0.0078230835
-0.0085318935
-0.0093120656
-0.010087308
-0.010908889
-0.011742718
-0.012611813
-0.013500654
-0.014420086
-0.015363088
-0.016334939
-0.017332485
-0.01835846
-0.019411521
-0.0204931
-0.021602578
-0.022740579
-0.023906636
-0.025100721
-0.026322214
-0.027570495
-0.028844552
-0.030143195
-0.031464866
-0.032807734
-0.03416957
-0.035547792
-0.036939352
-0.038340783
-0.03974804
-0.041156598
-0.042561254
-0.043956215
-0.045334953
-0.046690244
-0.048014093
-0.049297744
-0.05053167
-0.05170559
-0.05280851
-0.053828774
-0.054754152
-0.055571924
-0.056269032
-0.056832181
-0.057248044
-0.057503384
-0.057585296
-0.057481309
-0.057179683
-0.056669454
-0.055940772
-0.054984863
-0.053794418
-0.052363427
-0.050687652
-0.048764282
-0.046592538
-0.044173099
-0.041508891
-0.038604234
-0.035465862
-0.032101717
-0.028522594
-0.024739209
-0.020767624
-0.016619789
-0.012316855
-0.007873535
-0.0033098488
0.0013554143
0.0060995098
0.010903135
0.015743857
0.020603317
0.025459883
0.030297305
0.035096221
0.039843656
0.044523441
0.049126021
0.053640465
0.058063049
0.062388869
0.066615845
0.070738392
0.074760681
0.078692159
0.082540583
0.086312949
0.090022229
0.093682568
0.09730811
0.10091971
0.10453244
0.108174
0.11185655
0.1156163
0.11945274
0.12341361
0.12746633
0.13167555
0.13594396
0.14036086
0.14472313
0.14914327
0.15330022
0.15726535
0.16073639
0.16347212
0.16571919
0.16625624
-0.0038609035
0.00047414601
-0.0030025952
-0.0014946944
-0.0032478381
-0.002935964
-0.0040030303
-0.004215645
-0.0050244827
-0.0054847402
-0.0062135005
-0.0068071744
-0.0075311928
-0.0082112549
-0.0089628534
-0.0097097894
-0.010502938
-0.011308763
-0.012150226
-0.013012484
-0.013906176
-0.014824747
-0.015773436
-0.016749514
-0.017755757
-0.01879116
-0.019857292
-0.020953846
-0.022081664
-0.023240604
-0.024430918
-0.025652331
-0.026904542
-0.028186891
-0.029498516
-0.030838194
-0.032204401
-0.033595193
-0.035008236
-0.036440688
-0.03788923
-0.03934991
-0.040818219
-0.042288897
-0.043756009
-0.045212798
-0.046651718
-0.048064357
-0.049441451
-0.05077287
-0.05204764
-0.053253992
-0.054379415
-0.055410762
-0.056334334
-0.057136051
-0.057801568
-0.058316496
-0.058666527
-0.058837718
-0.058816575
-0.058590404
-0.058147322
-0.057476665
-0.056568892
-0.055416059
-0.054011568
-0.052350756
-0.050430413
-0.048249566
-0.04580868
-0.043110759
-0.040160064
-0.036963765
-0.033529944
-0.029869558
-0.025995265
-0.021921978
-0.017665861
-0.013243442
-0.0086737914
-0.0039791273
0.00082118111
0.0057033271
0.010647088
0.015627555
0.020625431
0.025616708
0.030584403
0.035507226
0.040371686
0.0451609
0.049865465
0.054473369
0.058979284
0.063375961
0.067664245
0.071845267
0.075919798
0.079887537
0.083759595
0.087550582
0.091268337
0.094927896
0.098543849
0.10213441
0.10571512
0.10930976
0.11293019
0.11660628
0.12033796
0.12416207
0.12805105
0.13205066
0.13608129
0.14019954
0.14424658
0.14828046
0.1520666
0.15560026
0.15870013
0.16107311
0.16302824
0.16345676
-0.0037793835
0.00049009507
-0.0029434944
-0.0014278023
-0.0031588156
-0.0028230998
-0.0038681556
-0.0040539945
-0.0048382507
-0.0052711704
-0.0059732996
-0.0065390824
-0.0072349004
-0.0078861964
-0.0086086185
-0.0093264916
-0.010090673
-0.010868152
-0.011681676
-0.012516846
-0.013384263
-0.014277815
-0.015202764
-0.016156731
-0.017142601
-0.018159689
-0.019209736
-0.020292756
-0.021409825
-0.022561133
-0.023747226
-0.024968176
-0.026224011
-0.02751443
-0.028838909
-0.03019657
-0.031586207
-0.033006179
-0.034454415
-0.0359283
-0.037424686
-0.038939736
-0.040468983
-0.042007139
-0.043548149
-0.045085055
-0.046610007
-0.0481142
-0.049587868
-0.051020285
-0.052399783
-0.053713806
-0.054948967
-0.056091168
-0.057125688
-0.058037382
-0.058810786
-0.059430386
-0.059880731
-0.06014676
-0.060213878
-0.060068357
-0.059697319
-0.059089215
-0.058233659
-0.057122022
-0.055747047
-0.05410361
-0.052188042
-0.049999151
-0.047537153
-0.04480505
-0.041807148
-0.038550643
-0.035043977
-0.03129927
-0.027330155
-0.023151039
-0.018777323
-0.014230255
-0.0095276528
-0.004693494
0.0002518345
0.0052816763
0.010375007
0.015504396
0.020649878
0.025784888
0.03089201
0.035947461
0.040937617
0.045843085
0.050654742
0.05535907
0.059952213
0.064426737
0.068782788
0.073017842
0.077138174
0.081149679
0.085054108
0.088859915
0.09258505
0.096241943
0.099843273
0.10340777
0.10694819
0.11048611
0.11403159
0.11760901
0.12121791
0.12488568
0.12858846
0.13235672
0.13612494
0.13992528
0.14363402
0.14727234
0.15067233
0.15378584
0.15651926
0.15857113
0.16027597
0.16066439
-0.003658483
0.0004939818
-0.0028618722
-0.0013608924
-0.0030562321
-0.0027056487
-0.003723501
-0.0038855636
-0.0046428335
-0.0050487604
-0.0057227356
-0.0062601539
-0.0069271034
-0.0075496963
-0.0082431944
-0.0089324709
-0.0096680445
-0.010417442
-0.011203302
-0.012011721
-0.012853249
-0.013722165
-0.014623782
-0.01555607
-0.016522034
-0.017521306
-0.01855582
-0.019625902
-0.020732881
-0.02187728
-0.02305995
-0.024281315
-0.025541747
-0.026841306
-0.028179821
-0.029556768
-0.030971274
-0.032422015
-0.033907202
-0.035424463
-0.036970844
-0.038542646
-0.040135466
-0.04174401
-0.043362131
-0.044982683
-0.046597535
-0.048197492
-0.049772297
-0.051310625
-0.052800096
-0.054227347
-0.055578079
-0.056837201
-0.057988915
-0.059016939
-0.059904621
-0.060635241
-0.061192114
-0.06155898
-0.061720049
-0.061660481
-0.061366312
-0.060825042
-0.060025368
-0.058957925
-0.057614734
-0.055990185
-0.054080093
-0.051883051
-0.049398937
-0.046630904
-0.043582914
-0.040263183
-0.036679613
-0.032847796
-0.028776271
-0.024484029
-0.019986836
-0.015306296
-0.010461862
-0.0054797032
-0.00038096183
0.0048052334
0.010057104
0.015344064
0.020645504
0.025931629
0.031184692
0.036378026
0.041498069
0.046523274
0.051444929
0.056247687
0.060927882
0.065476778
0.069896061
0.074183973
0.078345618
0.082383609
0.086311342
0.09013285
0.093857101
0.097500664
0.1010808
0.10461023
0.1081047
0.11158158
0.11505124
0.11853357
0.12202847
0.12555642
0.12909716
0.13267003
0.13622131
0.13976548
0.14320593
0.14653773
0.14964048
0.15243685
0.15488906
0.15669411
0.15819262
0.15851351
-0.0035130402
0.00048877592
-0.0027638073
-0.0012939493
-0.0029421936
-0.0025837448
-0.0035697846
-0.0037110465
-0.0044398716
-0.0048203255
-0.0054660162
-0.0059759009
-0.0066140007
-0.0072079602
-0.0078722227
-0.0085325736
-0.0092391964
-0.0099602104
-0.010718087
-0.011499359
-0.012314563
-0.013158355
-0.014036124
-0.014946165
-0.015891635
-0.016872475
-0.017890832
-0.018947349
-0.020043629
-0.021180531
-0.022359226
-0.023580503
-0.024845087
-0.026153415
-0.027505687
-0.02890175
-0.030341086
-0.031822714
-0.033345151
-0.034906304
-0.036503441
-0.038133037
-0.03979079
-0.041471434
-0.043168761
-0.044875474
-0.046583181
-0.048282325
-0.049962164
-0.051610779
-0.053215073
-0.054760855
-0.056232882
-0.057615025
-0.058890349
-0.060041372
-0.06105017
-0.061898728
-0.062569034
-0.063043534
-0.063305136
-0.063337799
-0.06312637
-0.062657324
-0.061918345
-0.060899277
-0.059591343
-0.057988413
-0.056085723
-0.053881638
-0.051375689
-0.048571003
-0.045471838
-0.04208535
-0.038424154
-0.034497348
-0.03031928
-0.025907632
-0.021278936
-0.01645722
-0.011461957
-0.0063219286
-0.0010589042
0.0042945869
0.00971622
0.015171695
0.020640088
0.026087766
0.031497007
0.036837513
0.042096137
0.0472482
0.052285869
0.057191632
0.061963175
0.066590456
0.071075983
0.075416675
0.079619714
0.083688827
0.087632665
0.091461375
0.095187722
0.098817946
0.10236777
0.10585796
0.10929772
0.11270502
0.11608837
0.11946417
0.12283244
0.1262077
0.12957277
0.13293831
0.13626034
0.13954104
0.14270559
0.14573315
0.14854022
0.15103646
0.15322394
0.15481513
0.15614204
0.15643664
-0.0033525623
0.00047803149
-0.0026527286
-0.0012258387
-0.0028180681
-0.0024572409
-0.0034074697
-0.0035299928
-0.0042284245
-0.0045838352
-0.0052001464
-0.0056823925
-0.0062911566
-0.0068565107
-0.0074915332
-0.008123134
-0.0088009248
-0.009493679
-0.010223683
-0.010977927
-0.011766933
-0.012585713
-0.013439743
-0.014327638
-0.015252718
-0.016215231
-0.01721755
-0.018260637
-0.019346377
-0.020475975
-0.021650937
-0.022872422
-0.024141527
-0.025459081
-0.026825669
-0.028241535
-0.029706537
-0.031220062
-0.032780963
-0.034387455
-0.036037064
-0.037726469
-0.039451509
-0.041206977
-0.042986639
-0.044783072
-0.04658765
-0.048390468
-0.050180309
-0.051944654
-0.053669675
-0.055340324
-0.056940372
-0.058452597
-0.059858855
-0.061140383
-0.062277888
-0.063251968
-0.064043167
-0.064632535
-0.065001567
-0.065132923
-0.065010159
-0.064618645
-0.063944964
-0.062978124
-0.061708467
-0.060129331
-0.058235292
-0.056024499
-0.053495975
-0.05065316
-0.047498958
-0.044045976
-0.040299761
-0.036274844
-0.031982993
-0.027444791
-0.022676605