/*--------------------------------*- C++ -*----------------------------------*\
| =========                 |                                                 |
| \\      /  F ield         | foam-extend: Open Source CFD                    |
|  \\    /   O peration     | Version:     4.1                                |
|   \\  /    A nd           | Web:         http://www.foam-extend.org         |
|    \\/     M anipulation  |                                                 |
\*---------------------------------------------------------------------------*/
FoamFile
{
    version     2.0;
    format      ascii;
    class       surfaceScalarField;
    location    "2.8";
    object      phi;
}
// * * * * * * * * * * * * * * * * * * * * * * * * * * * * * * * * * * * * * //

dimensions      [0 3 -1 0 0 0 0];

internalField   nonuniform List<scalar> 
31929
(
-2.770052e-05
-6.1349289e-08
-2.7605608e-05
-9.4911692e-08
-2.7548203e-05
-5.7404579e-08
-2.7460174e-05
-8.8029628e-08
-2.7381476e-05
-7.8697759e-08
-2.7287692e-05
-9.3784249e-08
-2.7192666e-05
-9.5025208e-08
-2.7091031e-05
-1.0163532e-07
-2.6985988e-05
-1.0504332e-07
-2.6878454e-05
-1.0753334e-07
-2.6768577e-05
-1.0987701e-07
-2.6658796e-05
-1.0978098e-07
-2.6548948e-05
-1.0984876e-07
-2.644156e-05
-1.0738745e-07
-2.6336739e-05
-1.0482085e-07
-2.62366e-05
-1.0013967e-07
-2.6141631e-05
-9.4968516e-08
-2.6053399e-05
-8.8232344e-08
-2.5972717e-05
-8.0681668e-08
-2.590132e-05
-7.1397024e-08
-2.5839909e-05
-6.1410734e-08
-2.5789212e-05
-5.0697036e-08
-2.5750148e-05
-3.9064046e-08
-2.5725066e-05
-2.5082328e-08
-2.5715685e-05
-9.3813447e-09
-2.5723856e-05
8.1716821e-09
-2.5749811e-05
2.595508e-08
-2.5792688e-05
4.2876452e-08
-2.5852759e-05
6.0071651e-08
-2.593077e-05
7.8010282e-08
-2.6027698e-05
9.6928171e-08
-2.6144635e-05
1.1693671e-07
-2.628267e-05
1.3803565e-07
-2.6442909e-05
1.602388e-07
-2.6626419e-05
1.8351024e-07
-2.6834238e-05
2.0781863e-07
-2.7067338e-05
2.330997e-07
-2.7326616e-05
2.5927809e-07
-2.761287e-05
2.8625463e-07
-2.7926782e-05
3.1391159e-07
-2.8268899e-05
3.4211709e-07
-2.8639616e-05
3.7071731e-07
-2.9039171e-05
3.9955498e-07
-2.9467626e-05
4.2845502e-07
-2.9924866e-05
4.5723937e-07
-3.0410589e-05
4.8572375e-07
-3.0924311e-05
5.1372138e-07
-3.1465356e-05
5.4104496e-07
-3.2032861e-05
5.6750548e-07
-3.2625777e-05
5.9291643e-07
-3.3242869e-05
6.1709159e-07
-3.3882716e-05
6.3984661e-07
-3.4543715e-05
6.6099926e-07
-3.5224086e-05
6.8037069e-07
-3.592187e-05
6.9778411e-07
-3.663494e-05
7.1306995e-07
-3.7361005e-05
7.2606537e-07
-3.8097623e-05
7.3661778e-07
-3.8842211e-05
7.4458815e-07
-3.9592066e-05
7.498549e-07
-4.0344381e-05
7.5231499e-07
-4.1096272e-05
7.5189147e-07
-4.1844806e-05
7.4853427e-07
-4.2587031e-05
7.4222454e-07
-4.3320008e-05
7.3297696e-07
-4.404085e-05
7.2084252e-07
-4.4746761e-05
7.0591057e-07
-4.5435068e-05
6.8830734e-07
-4.6103268e-05
6.681997e-07
-4.6749061e-05
6.4579262e-07
-4.7370389e-05
6.2132837e-07
-4.7965475e-05
5.9508554e-07
-4.8532851e-05
5.6737649e-07
-4.9071394e-05
5.3854319e-07
-4.958035e-05
5.0895584e-07
-5.0059358e-05
4.7900836e-07
-5.0508472e-05
4.4911306e-07
-5.092817e-05
4.1969836e-07
-5.1319372e-05
3.9120167e-07
-5.1683438e-05
3.6406608e-07
-5.2022172e-05
3.3873412e-07
-5.2337817e-05
3.1564518e-07
-5.2633044e-05
2.9522704e-07
-5.2910941e-05
2.7789667e-07
-5.3174993e-05
2.640519e-07
-5.342907e-05
2.5407704e-07
-5.3677401e-05
2.4833119e-07
-5.3924562e-05
2.4716119e-07
-5.4175451e-05
2.508895e-07
-5.4435286e-05
2.5983417e-07
-5.4709582e-05
2.7429632e-07
-5.5004171e-05
2.94589e-07
-5.5325194e-05
3.2102277e-07
-5.5679148e-05
3.5395395e-07
-5.6072902e-05
3.9375438e-07
-5.6513802e-05
4.4090012e-07
-5.7009719e-05
4.9591675e-07
-5.7569266e-05
5.595475e-07
-5.8201914e-05
6.3264734e-07
-5.8918444e-05
7.1653007e-07
-5.9731198e-05
8.1275404e-07
-6.0655052e-05
9.2385458e-07
-6.1707942e-05
1.0528891e-06
-6.2912928e-05
1.204986e-06
-6.4299221e-05
1.3862931e-06
-6.5906407e-05
1.6071862e-06
-6.7786086e-05
1.8796794e-06
-7.0009953e-05
2.2238665e-06
-7.267127e-05
2.6613173e-06
-7.5899033e-05
3.2277625e-06
-7.9855444e-05
3.9564111e-06
-8.4758598e-05
4.9031546e-06
-9.0864925e-05
6.1063268e-06
-9.8504443e-05
7.6395177e-06
-0.00010802399
9.5195425e-06
-0.00011985059
1.1826603e-05
-0.00013434775
1.449716e-05
-0.00015196837
1.7620617e-05
-0.00017289746
2.0929092e-05
-0.00019753347
2.4636011e-05
-0.00022530827
2.7774806e-05
-0.00025684376
3.1535481e-05
-0.00028730146
3.0457702e-05
3.5279142e-05
-8.3240438e-05
-1.4467718e-07
-8.3082449e-05
-2.5290038e-07
-8.2943458e-05
-1.9639602e-07
-8.2767264e-05
-2.6422299e-07
-8.2590393e-05
-2.555697e-07
-8.2393873e-05
-2.9030422e-07
-8.2190827e-05
-2.9807122e-07
-8.1977585e-05
-3.148768e-07
-8.1758843e-05
-3.23785e-07
-8.1536198e-05
-3.3017839e-07
-8.131195e-05
-3.341251e-07
-8.1089248e-05
-3.3248366e-07
-8.0870046e-05
-3.2905022e-07
-8.065777e-05
-3.1966377e-07
-8.0454555e-05
-3.0803523e-07
-8.0264021e-05
-2.9067377e-07
-8.0089188e-05
-2.6980155e-07
-7.9933691e-05
-2.4372922e-07
-7.9800041e-05
-2.1433153e-07
-7.9690749e-05
-1.8068959e-07
-7.9609484e-05
-1.4267537e-07
-7.9562651e-05
-9.7529906e-08
-7.9554795e-05
-4.6920191e-08
-7.9590311e-05
1.0433284e-08
-7.9669155e-05
6.9462417e-08
-7.9787317e-05
1.263343e-07
-7.9945244e-05
1.8388224e-07
-8.0145311e-05
2.4294319e-07
-8.0389529e-05
3.0428938e-07
-8.0680039e-05
3.6852013e-07
-8.1018981e-05
4.3587067e-07
-8.1408584e-05
5.0653921e-07
-8.1851071e-05
5.8052295e-07
-8.2348654e-05
6.5782164e-07
-8.2903476e-05
7.3833275e-07
-8.3517575e-05
8.2191781e-07
-8.4192842e-05
9.0836621e-07
-8.4930963e-05
9.9739921e-07
-8.5733389e-05
1.0886811e-06
-8.6601269e-05
1.1817908e-06
-8.7535421e-05
1.2762692e-06
-8.853627e-05
1.3715669e-06
-8.9603831e-05
1.4671155e-06
-9.0737657e-05
1.5622808e-06
-9.1936823e-05
1.6564058e-06
-9.3199906e-05
1.7488072e-06
-9.4524972e-05
1.8387875e-06
-9.5909575e-05
1.9256476e-06
-9.7350756e-05
2.0086868e-06
-9.8845061e-05
2.0872208e-06
-0.00010038855
2.1605819e-06
-0.00010197683
2.2281286e-06
-0.00010360508
2.2892504e-06
-0.00010526809
2.3433781e-06
-0.00010696029
2.389981e-06
-0.0001086758
2.4285841e-06
-0.00011040851
2.4587695e-06
-0.00011215207
2.4801848e-06
-0.00011390004
2.492551e-06
-0.00011564586
2.4956738e-06
-0.00011738298
2.4894415e-06
-0.00011910493
2.4738429e-06
-0.00012080537
2.4489664e-06
-0.00012247815
2.4150071e-06
-0.00012411744
2.3722692e-06
-0.00012571776
2.3211673e-06
-0.00012727408
2.2622305e-06
-0.00012878187
2.1960912e-06
-0.00013023716
2.123492e-06
-0.00013163664
2.0452751e-06
-0.00013297769
1.9623768e-06
-0.00013425843
1.8758204e-06
-0.00013547776
1.7867083e-06
-0.00013663542
1.6962071e-06
-0.00013773201
1.6055422e-06
-0.00013876899
1.515985e-06
-0.00013974871
1.4288373e-06
-0.00014067444
1.345424e-06
-0.00014155031
1.2670766e-06
-0.00014238137
1.1951218e-06
-0.0001431735
1.1308685e-06
-0.00014393346
1.0756013e-06
-0.00014466879
1.0305633e-06
-0.00014538785
9.9695715e-07
-0.00014609973
9.7592945e-07
-0.00014681424
9.6858277e-07
-0.00014754186
9.75958e-07
-0.00014829377
9.9906322e-07
-0.00014908173
1.0388591e-06
-0.0001499182
1.0963026e-06
-0.00015081625
1.1723389e-06
-0.00015178962
1.2679598e-06
-0.00015285279
1.3842008e-06
-0.00015402107
1.522234e-06
-0.00015531067
1.6833477e-06
-0.00015673887
1.8691028e-06
-0.00015832424
2.0812868e-06
-0.00016008687
2.3221779e-06
-0.00016204865
2.5944282e-06
-0.00016423368
2.9015562e-06
-0.0001666686
3.2476765e-06
-0.00016938319
3.6384444e-06
-0.00017241072
4.0804145e-06
-0.00017578865
4.5829227e-06
-0.00017955888
5.1565218e-06
-0.00018376841
5.8167179e-06
-0.00018846892
6.5801856e-06
-0.00019371715
7.4720937e-06
-0.00019957274
8.5169096e-06
-0.00020609781
9.752832e-06
-0.00021335118
1.120978e-05
-0.00022138655
1.293853e-05
-0.00023024001
1.4959782e-05
-0.00023992713
1.7326645e-05
-0.00025041749
2.0009894e-05
-0.00026163491
2.3044031e-05
-0.00027340274
2.6264987e-05
-0.00028546647
2.9684348e-05
-0.00029735886
3.2821483e-05
-0.0003085226
3.579975e-05
-0.00031796184
3.7214042e-05
-0.0003246215
3.8195141e-05
-0.00032738044
3.3216645e-05
3.0479302e-05
-0.00013583408
-2.2334634e-07
-0.0001356608
-4.2617687e-07
-0.00013549496
-3.6223419e-07
-0.00013529384
-4.6534877e-07
-0.00013508818
-4.6122296e-07
-0.00013486569
-5.1279276e-07
-0.00013463802
-5.2574366e-07
-0.00013440313
-5.4976756e-07
-0.00013416676
-5.6015555e-07
-0.00013393054
-5.6639748e-07
-0.00013369849
-5.6617395e-07
-0.00013347376
-5.5721218e-07
-0.00013326037
-5.4244585e-07
-0.00013306242
-5.1761634e-07
-0.00013288394
-4.8651291e-07
-0.00013272902
-4.4559171e-07
-0.00013260143
-3.9738765e-07
-0.00013250517
-3.3999085e-07
-0.00013244623
-2.7327191e-07
-0.00013243232
-1.9460248e-07
-0.00013246855
-1.064474e-07
-0.00013255977
-6.3118401e-09
-0.00013270612
9.943294e-08
-0.00013290078
2.0509568e-07
-0.0001331438
3.1248223e-07
-0.00013344023
4.2276149e-07
-0.00013379336
5.3701513e-07
-0.0001342066
6.5618388e-07
-0.00013468273
7.8042108e-07
-0.00013522443
9.1021805e-07
-0.0001358343
1.0457406e-06
-0.00013651494
1.1871764e-06
-0.00013726889
1.3344723e-06
-0.0001380986
1.4875296e-06
-0.00013900638
1.6461146e-06
-0.00013999434
1.8098791e-06
-0.00014106434
1.9783717e-06
-0.00014221793
2.1509812e-06
-0.00014345626
2.327011e-06
-0.00014478005
2.5055804e-06
-0.00014618953
2.6857513e-06
-0.00014768436
2.8664002e-06
-0.00014926362
3.0463721e-06
-0.00015092572
3.2243869e-06
-0.00015266844
3.3991205e-06
-0.00015448884
3.569205e-06
-0.0001563833
3.7332532e-06
-0.00015834754
3.8898871e-06
-0.0001603766
4.0377428e-06
-0.00016246488
4.1755076e-06
-0.00016460623
4.301928e-06
-0.00016679393
4.4158293e-06
-0.00016902081
4.5161287e-06
-0.00017127929
4.6018579e-06
-0.00017356147
4.6721578e-06
-0.00017585919
4.7263102e-06
-0.00017816416
4.7637386e-06
-0.000180468
4.7840215e-06
-0.00018276235
4.7869008e-06
-0.00018503897
4.7722992e-06
-0.00018728984
4.7403088e-06
-0.00018950721
4.6912173e-06
-0.00019168375
4.6255008e-06
-0.00019381257
4.5438285e-06
-0.00019588736
4.4470613e-06
-0.00019790244
4.3362479e-06
-0.00019985284
4.2126267e-06
-0.00020173435
4.0776008e-06
-0.0002035436
3.9327453e-06
-0.00020527811
3.7797865e-06
-0.00020693632
3.6205876e-06
-0.00020851764
3.457134e-06
-0.00021002245
3.2915197e-06
-0.00021145216
3.1259176e-06
-0.00021280919
2.9625708e-06
-0.00021409697
2.8037693e-06
-0.00021531996
2.6518249e-06
-0.00021648359
2.5090564e-06
-0.00021759428
2.3777649e-06
-0.00021865937
2.2602118e-06
-0.0002196871
2.1586012e-06
-0.00022068657
2.075066e-06
-0.00022166764
2.0116394e-06
-0.00022264094
1.9702571e-06
-0.00022361775
1.9527326e-06
-0.00022460994
1.9607761e-06
-0.00022562995
1.9959638e-06
-0.00022669066
2.0597786e-06
-0.00022780539
2.1535871e-06
-0.00022898778
2.2786971e-06
-0.00023025179
2.4363477e-06
-0.00023161161
2.6277795e-06
-0.00023308165
2.8542352e-06
-0.00023467648
3.11707e-06
-0.00023641086
3.4177254e-06
-0.00023829966
3.7579015e-06
-0.00024035788
4.1395052e-06
-0.00024260062
4.5649249e-06
-0.0002450431
5.0368992e-06
-0.00024770054
5.5589992e-06
-0.0002505882
6.1353371e-06
-0.0002537212
6.7714464e-06
-0.00025711439
7.4735985e-06
-0.00026078198
8.2505198e-06
-0.00026473719
9.1117325e-06
-0.00026899138
1.0070907e-05
-0.00027355314
1.1141939e-05
-0.00027842648
1.2345439e-05
-0.00028360899
1.3699423e-05
-0.00028908831
1.5232149e-05
-0.00029483887
1.6960335e-05
-0.00030081586
1.8915523e-05
-0.0003069507
2.1094626e-05
-0.00031314221
2.3518151e-05
-0.00031925165
2.6119334e-05
-0.00032509291
2.8885294e-05
-0.00033042771
3.1599784e-05
-0.00033496175
3.4218389e-05
-0.00033833627
3.6196006e-05
-0.00034014476
3.7608236e-05
-0.00033995405
3.7023329e-05
-0.00033719189
3.5432984e-05
-0.00033227674
2.8301491e-05
2.0783365e-05
-0.00018332856
-2.678552e-07
-0.0001831932
-5.6154443e-07
-0.00018306185
-4.9358419e-07
-0.00018290323
-6.2396572e-07
-0.00018274267
-6.2178158e-07
-0.00018257317
-6.8229058e-07
-0.00018240482
-6.9409571e-07
-0.0001822372
-7.1739257e-07
-0.00018207631
-7.210393e-07
-0.00018192421
-7.1849679e-07
-0.00018178574
-7.0464784e-07
-0.00018166407
-6.7887937e-07
-0.00018156361
-6.4290694e-07
-0.00018148797
-5.9325656e-07
-0.00018144146
-5.3302493e-07
-0.000181429
-4.580464e-07
-0.00018145706
-3.6933548e-07
-0.00018153185
-2.6519355e-07
-0.00018165753
-1.4759703e-07
-0.00018183825
-1.3878029e-08
-0.00018207339
1.2868955e-07
-0.00018235481
2.7511161e-07
-0.00018268216
4.2677713e-07
-0.00018306181
5.8474803e-07
-0.00018349923
7.4990472e-07
-0.00018399955
9.230806e-07
-0.00018456623
1.1036919e-06
-0.0001852021
1.2920548e-06
-0.00018590996
1.4882857e-06
-0.00018669247
1.6927216e-06
-0.00018755214
1.9054144e-06
-0.0001884914
2.1264404e-06
-0.00018951254
2.3556125e-06
-0.00019061765
2.5926366e-06
-0.0001918086
2.837065e-06
-0.00019308696
3.0882391e-06
-0.00019445397
3.3453766e-06
-0.00019591042
3.6074302e-06
-0.00019745666
3.8732507e-06
-0.00019909247
4.1413974e-06
-0.00020081709
4.4103682e-06
-0.00020262907
4.6783771e-06
-0.0002045263
4.9436099e-06
-0.00020650599
5.2040745e-06
-0.0002085646
5.4577273e-06
-0.00021069787
5.7024772e-06
-0.00021290084
5.9362231e-06
-0.00021516785
6.1569018e-06
-0.00021749261
6.3624967e-06
-0.0002198682
6.5510964e-06
-0.00022228718
6.7209097e-06
-0.00022474165
6.8702962e-06
-0.0002272233
6.9977869e-06
-0.00022972357
7.1021191e-06
-0.00023223363
7.1822255e-06
-0.0002347446
7.2372804e-06
-0.00023724756
7.2666967e-06
-0.00023973368
7.2701415e-06
-0.00024219432
7.2475414e-06
-0.00024462113
7.1991044e-06
-0.00024700611
7.1252937e-06
-0.00024934176
7.0268604e-06
-0.00025162108
6.9048253e-06
-0.00025383773
6.7604795e-06
-0.00025598604
6.5953752e-06
-0.00025806111
6.4113146e-06
-0.00026005883
6.2103477e-06
-0.00026197596
5.9947315e-06
-0.00026381015
5.7669365e-06
-0.00026555998
5.5296141e-06
-0.00026722497
5.2855742e-06
-0.0002688056
5.0377617e-06
-0.00027030331
4.7892368e-06
-0.00027172053
4.5431316e-06
-0.00027306059
4.3026373e-06
-0.0002743278
4.0709721e-06
-0.00027552732
3.8513449e-06
-0.0002766652
3.6469352e-06
-0.00027774829
3.4608586e-06
-0.00027878421
3.2961364e-06
-0.00027978128
3.1556685e-06
-0.00028074843
3.0422168e-06
-0.00028169516
2.9583653e-06
-0.00028263142
2.9065205e-06
-0.00028356756
2.8888736e-06
-0.00028451421
2.907421e-06
-0.00028548216
2.963921e-06
-0.00028648233
3.0599445e-06
-0.00028752558
3.1968389e-06
-0.00028862268
3.3757973e-06
-0.00028978417
3.5978401e-06
-0.00029102029
3.8638915e-06
-0.00029234083
4.1747762e-06
-0.00029375509
4.5313347e-06
-0.00029527176
4.9343897e-06
-0.00029689878
5.3849256e-06
-0.00029864331
5.8840326e-06
-0.00030051155
6.4331671e-06
-0.00030250867
7.0340159e-06
-0.0003046386
7.6889342e-06
-0.00030690393
8.4006685e-06
-0.0003093056
9.1731112e-06
-0.00031184266
1.0010659e-05
-0.0003145118
1.0919657e-05
-0.0003173069
1.1906834e-05
-0.00032021806
1.2982066e-05
-0.00032323084
1.4154718e-05
-0.00032632432
1.5438923e-05
-0.0003294699
1.6845002e-05
-0.00033262773
1.838998e-05
-0.00033574521
2.0077814e-05
-0.00033875129
2.1921607e-05
-0.00034155606
2.3899394e-05
-0.00034404316
2.6005254e-05
-0.00034607445
2.8150616e-05
-0.00034748233
3.0293181e-05
-0.00034808767
3.220512e-05
-0.00034769337
3.3824092e-05
-0.00034613805
3.4640687e-05
-0.00034326662
3.4736799e-05
-0.00033916201
3.2918722e-05
-0.00033378155
3.0052522e-05
-0.00032844858
2.2968527e-05
1.4915383e-05
-0.00022453925
-2.470185e-07
-0.00022449348
-6.0731386e-07
-0.00022445386
-5.3320741e-07
-0.00022440049
-6.7733155e-07
-0.00022435181
-6.7046061e-07
-0.0002243048
-7.2930887e-07
-0.0002242672
-7.3169178e-07
-0.00022423967
-7.4492102e-07
-0.00022422736
-7.3334868e-07
-0.00022423219
-7.1366785e-07
-0.00022425843
-6.7841394e-07
-0.00022430884
-6.2846189e-07
-0.00022438828
-5.6347027e-07
-0.00022450102
-4.8051815e-07
-0.00022465178
-3.8226715e-07
-0.00022484406
-2.6576209e-07
-0.00022508079
-1.3260786e-07
-0.00022536519
1.9208525e-08
-0.0002256945
1.8171156e-07
-0.00022606097
3.5259865e-07
-0.0002264661
5.3381382e-07
-0.00022691665
7.2566528e-07
-0.00022741884
9.2896348e-07
-0.00022797865
1.1445592e-06
-0.00022859988
1.3711346e-06
-0.00022928511
1.6083129e-06
-0.00023003725
1.855827e-06
-0.00023085904
2.1138483e-06
-0.00023175303
2.3822789e-06
-0.00023272159
2.6612741e-06
-0.00023376685
2.9506755e-06
-0.00023489077
3.2503667e-06
-0.0002360951
3.5599419e-06
-0.00023738129
3.8788247e-06
-0.00023875051
4.2062795e-06
-0.00024020353
4.5412603e-06
-0.00024174074
4.8825921e-06
-0.00024336204
5.2287314e-06
-0.00024506683
5.5780343e-06
-0.00024685389
5.9284646e-06
-0.00024872147
6.2779411e-06
-0.0002506671
6.6240106e-06
-0.00025268771
6.9642147e-06
-0.00025477951
7.2958787e-06
-0.00025693807
7.6162843e-06
-0.00025915827
7.922677e-06
-0.00026143436
8.212315e-06
-0.00026375999
8.482535e-06
-0.00026612826
8.7307635e-06
-0.00026853176
8.9545943e-06
-0.00027096266
9.1518099e-06
-0.00027341278
9.3204208e-06
-0.00027587369
9.4586917e-06
-0.00027833675
9.5651869e-06
-0.00028079328
9.638753e-06
-0.00028323458
9.6785756e-06
-0.00028565205
9.6841731e-06
-0.00028803732
9.6554105e-06
-0.00029038228
9.5925019e-06
-0.00029267921
9.4960324e-06
-0.00029492083
9.3669178e-06
-0.00029710041
9.2064402e-06
-0.00029921181
9.016219e-06
-0.00030124953
8.7982044e-06
-0.00030320882
8.5546609e-06
-0.00030508565
8.2881473e-06
-0.00030687681
8.00151e-06
-0.00030857991
7.6978268e-06
-0.00031019338
7.3804116e-06
-0.00031171654
7.0527721e-06
-0.00031314954
6.7185774e-06
-0.00031449341
6.3816284e-06
-0.00031575001
6.0458315e-06
-0.00031692202
5.7151438e-06
-0.00031801294
5.3935556e-06
-0.00031902702
5.0850516e-06
-0.00031996923
4.7935636e-06
-0.00032084525
4.5229469e-06
-0.00032166132
4.2769365e-06
-0.0003224243
4.0591089e-06
-0.00032314148
3.872849e-06
-0.00032382059
3.7213289e-06
-0.00032446967
3.6074495e-06
-0.000325097
3.533843e-06
-0.00032571095
3.5028287e-06
-0.00032631997
3.5164413e-06
-0.00032693241
3.5763643e-06
-0.00032755646
3.6839944e-06
-0.00032820001
3.8403889e-06
-0.00032887057
4.0463504e-06
-0.00032957512
4.3023954e-06
-0.00033032007
4.6088423e-06
-0.00033111111
4.9658084e-06
-0.00033195311
5.3733427e-06
-0.0003328501
5.8313757e-06
-0.00033380508
6.339909e-06
-0.00033482
6.8989532e-06
-0.00033589562
7.5087824e-06
-0.00033703141
8.169807e-06
-0.00033822544
8.8829641e-06
-0.00033947423
9.6494605e-06
-0.00034077252
1.0471403e-05
-0.00034211308
1.1351214e-05
-0.00034348622
1.2292795e-05
-0.00034487948
1.3300098e-05
-0.00034627673
1.4379311e-05
-0.00034765759
1.5535578e-05
-0.00034899581
1.6777143e-05
-0.0003502586
1.8107793e-05
-0.00035140395
1.9535332e-05
-0.00035238057
2.105444e-05
-0.00035312427
2.2665307e-05
-0.00035356058
2.4335702e-05
-0.00035360091
2.6045577e-05
-0.00035315231
2.7702015e-05
-0.00035211373
2.9254606e-05
-0.00035040087
3.0492263e-05
-0.00034793568
3.1358897e-05
-0.00034470856
3.1413569e-05
-0.00034071215
3.0740389e-05
-0.00033617128
2.8377852e-05
-0.00033112595
2.5007192e-05
-0.00032664885
1.8491428e-05
1.0847131e-05
-0.00025903271
-1.3320114e-07
-0.00025911796
-5.2205881e-07
-0.00025921123
-4.3994037e-07
-0.00025930578
-5.8277926e-07
-0.00025941072
-5.6552618e-07
-0.00025952653
-6.1349135e-07
-0.00025965798
-6.0024653e-07
-0.00025980641
-5.9649337e-07
-0.00025997576
-5.6399587e-07
-0.00026016786
-5.215643e-07
-0.0002603864
-4.598816e-07
-0.00026063343
-3.8142695e-07
-0.00026091178
-2.8512419e-07
-0.00026122318
-1.6911804e-07
-0.00026157067
-3.4774396e-08
-0.00026195336
1.169246e-07
-0.00026236707
2.8110583e-07
-0.00026280794
4.6008089e-07
-0.00026327954
6.5331408e-07
-0.00026378855
8.6159955e-07
-0.00026434008
1.0853499e-06
-0.00026493996
1.3255425e-06
-0.00026559152
1.5805295e-06
-0.00026629674
1.8497769e-06
-0.00026705825
2.1326384e-06
-0.00026787889
2.4289611e-06
-0.00026876123
2.7381592e-06
-0.00026970756
3.0601811e-06
-0.00027072
3.3947169e-06
-0.00027180041
3.7416884e-06
-0.00027295042
4.1006854e-06
-0.00027417139
4.4713324e-06
-0.00027546439
4.8529425e-06
-0.00027683016
5.2445953e-06
-0.0002782691
5.6452178e-06
-0.00027978117
6.0533348e-06
-0.00028136593
6.467352e-06
-0.00028302242
6.8852156e-06
-0.00028474917
7.3047906e-06
-0.00028654417
7.7234643e-06
-0.00028840484
8.1386135e-06
-0.000290328
8.547171e-06
-0.00029230989
8.9461039e-06
-0.00029434615
9.3321388e-06
-0.00029643185
9.7019792e-06
-0.00029856148
1.0052314e-05
-0.00030072905
1.0379875e-05
-0.00030292803
1.0681519e-05
-0.0003051515
1.0954239e-05
-0.00030739216
1.1195255e-05
-0.0003096424
1.1402045e-05
-0.00031189437
1.1572388e-05
-0.00031414007
1.1704392e-05
-0.00031637143
1.1796554e-05
-0.00031858041
1.1847727e-05
-0.00032075903
1.1857194e-05
-0.00032289951
1.1824653e-05
-0.00032499432
1.1750227e-05
-0.00032703629
1.1634467e-05
-0.00032901863
1.1478372e-05
-0.00033093504
1.128333e-05
-0.00033277976
1.1051164e-05
-0.00033454763
1.0784084e-05
-0.0003362341
1.0484679e-05
-0.00033783533
1.0155889e-05
-0.00033934817
9.8009815e-06
-0.00034077019
9.4235346e-06
-0.00034209974
9.0273712e-06
-0.00034333588
8.6165602e-06
-0.00034447848
8.1953647e-06
-0.0003455281
7.7682025e-06
-0.00034648608
7.3396104e-06
-0.00034735446
6.9142112e-06
-0.00034813597
6.4966512e-06
-0.00034883399
6.0915772e-06
-0.00034945253
5.7035926e-06
-0.00034999617
5.3372007e-06
-0.00035047
4.9967791e-06
-0.00035087959
4.6865244e-06
-0.0003512309
4.4104149e-06
-0.0003515302
4.1721569e-06
-0.00035178405
3.975173e-06
-0.00035199913
3.8225357e-06
-0.00035218226
3.7169671e-06
-0.00035234021
3.6607802e-06
-0.00035247968
3.6559088e-06
-0.00035260714
3.7038275e-06
-0.00035272878
3.8056384e-06
-0.00035285039
3.9619989e-06
-0.00035297727
4.1732298e-06
-0.00035311415
4.4392682e-06
-0.00035326508
4.7597788e-06
-0.00035343341
5.1341372e-06
-0.00035362164
5.561575e-06
-0.00035383139
6.041118e-06
-0.00035406328
6.5718037e-06
-0.00035431695
7.15262e-06
-0.00035459091
7.7827456e-06
-0.00035488253
8.4614233e-06
-0.00035518788
9.1883139e-06
-0.00035550168
9.9632666e-06
-0.00035581712
1.0786837e-05
-0.00035612567
1.1659768e-05
-0.00035641679
1.258391e-05
-0.00035667765
1.3560959e-05
-0.00035689249
1.4594155e-05
-0.00035704233
1.5685418e-05
-0.00035710378
1.6838586e-05
-0.00035704888
1.8052896e-05
-0.00035684338
1.9329829e-05
-0.00035644743
2.0658495e-05
-0.00035581343
2.2031306e-05
-0.00035488956
2.3411837e-05
-0.00035361757
2.477358e-05
-0.00035194296
2.6027413e-05
-0.00034981168
2.712332e-05
-0.00034719464
2.787523e-05
-0.00034407301
2.8237262e-05
-0.00034050246
2.7843019e-05
-0.00033653399
2.6771919e-05
-0.00033243979
2.4283652e-05
-0.00032832548
2.0892881e-05
-0.00032501729
1.518324e-05
8.4104387e-06
-0.00028692389
8.301174e-08
-0.00028715228
-2.9367283e-07
-0.00028739061
-2.0161047e-07
-0.00028764363
-3.2975549e-07
-0.00028791076
-2.9839568e-07
-0.00028819471
-3.2954454e-07
-0.00028849674
-2.9821257e-07
-0.00028881821
-2.7502368e-07
-0.00028916123
-2.2098435e-07
-0.00028952689
-1.5590071e-07
-0.00028991734
-6.9426568e-08
-0.00029033312
3.4349187e-08
-0.00029077292
1.5468013e-07
-0.00029123381
2.9176619e-07
-0.00029171442
4.4583339e-07
-0.00029221569
6.1819987e-07
-0.00029274227
8.0768301e-07
-0.00029329774
1.015556e-06
-0.00029388659
1.2421558e-06
-0.00029451333
1.4883447e-06
-0.00029518033
1.7523461e-06
-0.00029588891
2.0341274e-06
-0.00029664132
2.3329388e-06
-0.00029744019
2.6486422e-06
-0.00029828781
2.9802615e-06
-0.00029918625
3.3274058e-06
-0.00030013754
3.6894493e-06
-0.00030114351
4.0661479e-06
-0.00030220576
4.456964e-06
-0.00030332564
4.8615651e-06
-0.00030450419
5.279245e-06
-0.00030574219
5.7093297e-06
-0.00030704006
6.1508105e-06
-0.00030839786
6.6023914e-06
-0.00030981528
7.0626404e-06
-0.00031129159
7.5296454e-06
-0.00031282564
8.0013986e-06
-0.00031441578
8.4753585e-06
-0.00031605992
8.9489357e-06
-0.00031775546
9.4189961e-06
-0.00031949928
9.882442e-06
-0.00032128779
1.0335677e-05
-0.00032311688
1.077519e-05
-0.00032498195
1.1197214e-05
-0.00032687796
1.1597991e-05
-0.00032879942
1.1973773e-05
-0.00033074044
1.2320891e-05
-0.00033269476
1.2635844e-05
-0.00033465584
1.2915312e-05
-0.00033661685
1.3156262e-05
-0.00033857078
1.3355977e-05
-0.00034051049
1.3512103e-05
-0.00034242879
1.3622689e-05
-0.00034431847
1.3686237e-05
-0.00034617243
1.3701681e-05
-0.00034798369
1.3668453e-05
-0.0003497455
1.3586472e-05
-0.00035145143
1.345615e-05
-0.00035309535
1.3278388e-05
-0.00035467158
1.3054599e-05
-0.00035617488
1.2786635e-05
-0.00035760055
1.2476833e-05
-0.00035894442
1.2127958e-05
-0.00036020294
1.174319e-05
-0.00036137313
1.1326088e-05
-0.00036245271
1.0880556e-05
-0.00036344
1.0410827e-05
-0.00036433401
9.9213835e-06
-0.00036513441
9.4169542e-06
-0.0003658415
8.902457e-06
-0.00036645625
8.3829518e-06
-0.00036698024
7.8636005e-06
-0.00036741565
7.3496274e-06
-0.00036776526
6.8462517e-06
-0.00036803234
6.3586583e-06
-0.0003682207
5.8919517e-06
-0.00036833458
5.4510889e-06
-0.00036837866
5.0408555e-06
-0.00036835793
4.6657988e-06
-0.00036827771
4.3301902e-06
-0.00036814352
4.0379671e-06
-0.00036796107
3.7927266e-06
-0.00036773616
3.5976196e-06
-0.00036747455
3.4553589e-06
-0.00036718194
3.3681708e-06
-0.00036686388
3.3378516e-06
-0.00036652569
3.3656331e-06
-0.00036617235
3.4523052e-06
-0.00036580848
3.5981191e-06
-0.00036543817
3.8029253e-06
-0.000365065
4.0661023e-06
-0.00036469191
4.3866864e-06
-0.00036432114
4.7633637e-06
-0.00036395423
5.1946623e-06
-0.00036359195
5.6788421e-06
-0.00036323429
6.214145e-06
-0.00036288038
6.7987067e-06
-0.00036252844
7.4308113e-06
-0.0003621758
8.1087833e-06
-0.00036181879
8.8313045e-06
-0.00036145272
9.5971889e-06
-0.0003610717
1.0405824e-05
-0.00036066864
1.1256701e-05
-0.00036023487
1.215014e-05
-0.00035976008
1.3086168e-05
-0.00035923177
1.4065847e-05
-0.00035863512
1.5088769e-05
-0.00035795214
1.6155609e-05
-0.00035716179
1.7262548e-05
-0.00035623882
1.8406854e-05
-0.00035515484
1.9574516e-05
-0.00035387706
2.0753523e-05
-0.00035237192
2.1906699e-05
-0.00035060359
2.3005249e-05
-0.00034854318
2.3967003e-05
-0.00034616461
2.4744748e-05
-0.00034346592
2.517654e-05
-0.00034045064
2.5221984e-05
-0.0003371848
2.4577179e-05
-0.00033371654
2.3303658e-05
-0.00033027026
2.0837379e-05
-0.00032693212
1.7554741e-05
-0.00032431399
1.2565108e-05
6.6772472e-06
-0.0003086829
3.9879336e-07
-0.00030904476
6.8191775e-08
-0.00030941367
1.6730078e-07
-0.00030980622
6.278999e-08
-0.00031021339
1.0877467e-07
-0.00031063898
9.6044541e-08
-0.00031108088
1.4369178e-07
-0.00031153925
1.8334109e-07
-0.00031201354
2.5331023e-07
-0.00031250274
3.332999e-07
-0.00031300643
4.3426364e-07
-0.00031352371
5.5162934e-07
-0.00031405665
6.8761549e-07
-0.00031460735
8.4246525e-07
-0.00031517759
1.0160764e-06
-0.00031576969
1.2103049e-06
-0.00031638701
1.4249945e-06
-0.00031703209
1.6606434e-06
-0.00031770621
1.9162778e-06
-0.00031841025
2.192375e-06
-0.00031914618
2.4882792e-06
-0.0003199162
2.8041508e-06
-0.00032072219
3.1389223e-06
-0.00032156573
3.4921915e-06
-0.00032244859
3.8631193e-06
-0.00032337248
4.2512892e-06
-0.00032433893
4.6559076e-06
-0.00032534931
5.0765269e-06
-0.00032640471
5.5123587e-06
-0.00032750594
5.9627987e-06
-0.00032865353
6.4268302e-06
-0.00032984766
6.9034647e-06
-0.00033108821
7.39136e-06
-0.00033237466
7.8888427e-06
-0.00033370615
8.3941285e-06
-0.00033508139
8.9048897e-06
-0.00033649873
9.4187373e-06
-0.00033795607
9.932691e-06
-0.0003394509
1.0443766e-05
-0.00034098028
1.0948383e-05
-0.00034254089
1.1443054e-05
-0.00034412897
1.1923752e-05
-0.00034574037
1.238659e-05
-0.00034737058
1.2827424e-05
-0.00034901473
1.3242147e-05
-0.00035066765
1.3626694e-05
-0.00035232388
1.3977112e-05
-0.00035397769
1.4289657e-05
-0.00035562318
1.4560805e-05
-0.00035725429
1.4787372e-05
-0.00035886485
1.4966536e-05
-0.00036044864
1.5095895e-05
-0.00036199945
1.5173501e-05
-0.00036351114
1.5197926e-05
-0.00036497768
1.5168221e-05
-0.00036639323
1.5084e-05
-0.00036775217
1.4945415e-05
-0.00036904919
1.4753171e-05
-0.00037027931
1.4508509e-05
-0.00037143794
1.421323e-05
-0.00037252093
1.3869617e-05
-0.00037352457
1.3480474e-05
-0.00037444568
1.3049068e-05
-0.00037528159
1.2579103e-05
-0.00037603019
1.2074685e-05
-0.00037668991
1.1540277e-05
-0.00037725976
1.098068e-05
-0.00037773932
1.0400946e-05
-0.00037812874
9.806369e-06
-0.00037842871
9.2024264e-06
-0.00037864048
8.5947216e-06
-0.00037876582
7.9889438e-06
-0.00037880701
7.3908206e-06
-0.00037876681
6.8060495e-06
-0.00037864841
6.2402608e-06
-0.00037845543
5.6989721e-06
-0.00037819186
5.1875115e-06
-0.000377862
4.7109976e-06
-0.00037747046
4.2742566e-06
-0.00037702207
3.8818052e-06
-0.00037652184
3.5377364e-06
-0.00037597486
3.2457495e-06
-0.0003753863
3.0090514e-06
-0.0003747613
2.8303595e-06
-0.00037410496
2.71183e-06
-0.00037342221
2.6551009e-06
-0.00037271773
2.6611528e-06
-0.0003719959
2.7304781e-06
-0.00037126073
2.8629461e-06
-0.00037051579
3.0579862e-06
-0.00036976416
3.3144807e-06
-0.00036900843
3.6309538e-06
-0.0003682506
4.0055307e-06
-0.00036749207
4.436131e-06
-0.00036673355
4.9203293e-06
-0.00036597509
5.4556823e-06
-0.00036521603
6.0396482e-06
-0.00036445504
6.6698163e-06
-0.00036369002
7.3437698e-06
-0.00036291812
8.0593997e-06
-0.00036213563
8.8147019e-06
-0.00036133795
9.6081423e-06
-0.00036051947
1.0438222e-05
-0.00035967339
1.1304058e-05
-0.00035879161
1.2204383e-05
-0.00035786433
1.3138573e-05
-0.00035688004
1.4104476e-05
-0.00035582484
1.5100415e-05
-0.00035468272
1.612042e-05
-0.00035343466
1.7158799e-05
-0.00035205981
1.8199665e-05
-0.00035053447
1.9228186e-05
-0.00034883542
2.0207645e-05
-0.00034693852
2.1108348e-05
-0.00034482688
2.1855367e-05
-0.00034248662
2.240449e-05
-0.00033992642
2.2616336e-05
-0.00033715952
2.2455085e-05
-0.00033425657
2.167423e-05
-0.00033127379
2.032087e-05
-0.00032841318
1.7976778e-05
-0.00032577232
1.4913876e-05
-0.0003237804
1.0573184e-05
5.4774512e-06
-0.00032499358
8.0225047e-07
-0.00032546108
5.3569164e-07
-0.00032592666
6.3288231e-07
-0.00032641831
5.5443567e-07
-0.00032691829
6.0875427e-07
-0.00032743418
6.1194263e-07
-0.00032796112
6.7062736e-07
-0.00032850085
7.2307069e-07
-0.00032905234
8.0479913e-07
-0.0003296159
8.9686075e-07
-0.00033019183
1.0101957e-06
-0.00033078069
1.1404892e-06
-0.00033138417
1.2910941e-06
-0.00033200377
1.4620642e-06
-0.0003326411
1.6534038e-06
-0.00033329693
1.8661357e-06
-0.00033397195
2.100014e-06
-0.0003346671
2.3557952e-06
-0.00033538407
2.6332461e-06
-0.00033612449
2.9327944e-06