/*--------------------------------*- C++ -*----------------------------------*\
| =========                 |                                                 |
| \\      /  F ield         | foam-extend: Open Source CFD                    |
|  \\    /   O peration     | Version:     4.1                                |
|   \\  /    A nd           | Web:         http://www.foam-extend.org         |
|    \\/     M anipulation  |                                                 |
\*---------------------------------------------------------------------------*/
FoamFile
{
    version     2.0;
    format      ascii;
    class       volScalarField;
    location    "2.8";
    object      rAU;
}
// * * * * * * * * * * * * * * * * * * * * * * * * * * * * * * * * * * * * * //

dimensions      [0 0 1 0 0 0 0];

internalField   nonuniform List<scalar> 
16126
(
0.00049583544
0.0004954177
0.00049542068
0.00049542249
0.00049542525
0.00049542773
0.00049543068
0.00049543367
0.00049543686
0.00049544017
0.00049544355
0.00049544701
0.00049545046
0.00049545392
0.00049545729
0.0004954606
0.00049546374
0.00049546674
0.00049546951
0.00049547205
0.00049547429
0.00049547624
0.00049547782
0.00049547906
0.00049547985
0.0004954799
0.00049547908
0.00049547774
0.00049547584
0.0004954734
0.00049547035
0.00049546667
0.00049546234
0.0004954573
0.00049545153
0.000495445
0.00049543767
0.00049542952
0.00049542053
0.00049541065
0.0004953999
0.00049538825
0.00049537569
0.00049536222
0.00049534785
0.00049533258
0.00049531644
0.00049529943
0.0004952816
0.00049526297
0.00049524357
0.00049522347
0.0004952027
0.00049518133
0.00049515941
0.00049513701
0.0004951142
0.00049509107
0.00049506769
0.00049504414
0.00049502052
0.00049499691
0.00049497342
0.00049495012
0.00049492711
0.00049490449
0.00049488234
0.00049486074
0.00049483977
0.00049481951
0.00049480002
0.00049478135
0.00049476355
0.00049474666
0.0004947307
0.00049471568
0.00049470159
0.00049468843
0.00049467616
0.00049466475
0.00049465413
0.00049464423
0.00049463497
0.00049462626
0.00049461798
0.00049461002
0.00049460223
0.00049459448
0.00049458662
0.00049457847
0.00049456988
0.00049456064
0.00049455058
0.00049453949
0.00049452715
0.00049451333
0.00049449779
0.00049448026
0.00049446044
0.000494438
0.00049441254
0.0004943836
0.00049435063
0.0004943129
0.0004942695
0.0004942192
0.00049416037
0.0004940908
0.00049400756
0.00049390665
0.00049378302
0.00049362988
0.0004934393
0.00049320108
0.00049290455
0.00049253665
0.00049208643
0.00049154032
0.00049089324
0.00049013373
0.00048928026
0.00048831484
0.00048738601
0.00048591085
0.00049502936
0.00049461263
0.00049461874
0.00049462216
0.00049462796
0.00049463304
0.00049463915
0.00049464532
0.00049465189
0.00049465868
0.00049466557
0.00049467262
0.00049467959
0.00049468656
0.00049469328
0.00049469982
0.00049470594
0.00049471165
0.00049471676
0.00049472126
0.00049472499
0.00049472789
0.00049472972
0.00049473011
0.00049472763
0.00049472369
0.00049471817
0.00049471138
0.00049470318
0.00049469353
0.0004946823
0.00049466946
0.00049465495
0.00049463865
0.00049462055
0.00049460053
0.0004945786
0.00049455464
0.00049452867
0.00049450061
0.00049447048
0.00049443823
0.00049440391
0.0004943675
0.00049432906
0.00049428864
0.00049424629
0.00049420211
0.0004941562
0.00049410866
0.00049405963
0.00049400926
0.00049395769
0.00049390511
0.00049385169
0.00049379761
0.00049374308
0.0004936883
0.00049363347
0.00049357881
0.00049352452
0.0004934708
0.00049341785
0.00049336587
0.00049331504
0.00049326552
0.00049321747
0.00049317103
0.00049312631
0.0004930834
0.00049304239
0.00049300332
0.00049296621
0.00049293106
0.00049289784
0.00049286649
0.00049283693
0.00049280903
0.00049278266
0.00049275765
0.00049273379
0.00049271087
0.00049268863
0.0004926668
0.00049264509
0.00049262318
0.00049260073
0.00049257739
0.00049255278
0.0004925265
0.00049249813
0.00049246725
0.00049243339
0.00049239607
0.00049235477
0.00049230895
0.00049225801
0.00049220131
0.00049213816
0.00049206775
0.00049198923
0.00049190161
0.00049180376
0.00049169438
0.000491572
0.00049143486
0.00049128102
0.00049110813
0.00049091372
0.00049069484
0.0004904487
0.00049017202
0.0004898626
0.00048951785
0.00048913832
0.00048872405
0.00048828257
0.00048781905
0.00048735599
0.00048690384
0.00048652205
0.00048620621
0.0004861553
0.00048575119
0.00049338084
0.00049296442
0.00049297155
0.00049297463
0.00049298114
0.00049298648
0.00049299314
0.00049299973
0.00049300675
0.00049301393
0.00049302115
0.00049302845
0.00049303554
0.0004930425
0.00049304901
0.00049305513
0.00049306059
0.00049306541
0.0004930693
0.00049307222
0.00049307382
0.00049307413
0.00049306977
0.00049306342
0.00049305399
0.00049304302
0.00049303021
0.00049301553
0.00049299878
0.00049297994
0.00049295884
0.00049293546
0.00049290972
0.00049288148
0.00049285075
0.00049281739
0.00049278144
0.00049274277
0.00049270145
0.00049265737
0.00049261064
0.00049256121
0.00049250917
0.00049245457
0.00049239752
0.00049233811
0.0004922765
0.00049221283
0.00049214729
0.00049208006
0.00049201137
0.00049194144
0.00049187051
0.00049179884
0.00049172669
0.00049165432
0.00049158201
0.00049151003
0.00049143864
0.00049136811
0.00049129868
0.0004912306
0.00049116408
0.00049109934
0.00049103655
0.00049097588
0.00049091747
0.00049086142
0.00049080781
0.00049075669
0.00049070808
0.00049066196
0.00049061829
0.00049057699
0.00049053794
0.00049050099
0.00049046598
0.00049043268
0.00049040087
0.00049037026
0.00049034058
0.00049031149
0.00049028265
0.00049025371
0.00049022427
0.00049019395
0.00049016232
0.00049012895
0.00049009341
0.00049005525
0.00049001402
0.00048996925
0.00048992046
0.00048986717
0.00048980889
0.00048974512
0.00048967535
0.00048959906
0.00048951569
0.00048942468
0.00048932545
0.00048921736
0.00048909977
0.00048897199
0.00048883328
0.00048868286
0.00048851996
0.00048834373
0.00048815351
0.00048794856
0.00048772877
0.00048749401
0.00048724578
0.00048698557
0.00048671852
0.00048644927
0.00048619
0.00048594922
0.00048575227
0.00048560759
0.00048557062
0.00048562444
0.00048592358
0.00048589636
0.00049190243
0.00049148452
0.00049149066
0.00049149156
0.00049149657
0.00049149997
0.00049150479
0.00049150929
0.00049151413
0.00049151894
0.00049152364
0.00049152823
0.00049153243
0.00049153634
0.00049153962
0.00049154236
0.00049154421
0.00049154515
0.00049154488
0.00049154346
0.00049153661
0.00049152794
0.00049151472
0.00049149973
0.00049148285
0.00049146399
0.0004914429
0.00049141957
0.00049139381
0.00049136562
0.00049133482
0.00049130141
0.00049126532
0.0004912264
0.00049118472
0.00049114013
0.00049109272
0.00049104237
0.00049098921
0.00049093316
0.00049087439
0.00049081288
0.00049074879
0.00049068223
0.00049061336
0.00049054235
0.00049046939
0.00049039471
0.00049031855
0.00049024115
0.00049016279
0.00049008375
0.00049000431
0.00048992477
0.00048984544
0.00048976659
0.00048968853
0.00048961154
0.00048953588
0.00048946183
0.00048938961
0.00048931945
0.00048925155
0.00048918608
0.00048912318
0.00048906297
0.00048900555
0.00048895095
0.0004888992
0.0004888503
0.00048880419
0.00048876081
0.00048872004
0.00048868173
0.00048864572
0.00048861181
0.00048857977
0.00048854932
0.00048852022
0.00048849213
0.00048846475
0.00048843774
0.00048841074
0.00048838338
0.00048835531
0.00048832613
0.00048829548
0.00048826298
0.00048822824
0.00048819091
0.00048815063
0.00048810705
0.00048805982
0.00048800864
0.00048795319
0.00048789318
0.00048782833
0.00048775841
0.00048768315
0.00048760234
0.00048751579
0.00048742329
0.0004873247
0.00048721986
0.00048710867
0.00048699103
0.00048686696
0.00048673649
0.00048659993
0.00048645767
0.00048631078
0.00048616049
0.0004860096
0.00048586102
0.00048572094
0.0004855948
0.00048549451
0.00048542734
0.00048541459
0.00048545865
0.0004856003
0.00048581102
0.00048618825
0.00048618985
0.00049062868
0.00049020812
0.00049021159
0.00049020883
0.00049021051
0.00049021018
0.00049021124
0.00049021171
0.00049021241
0.00049021291
0.00049021315
0.00049021317
0.0004902127
0.00049021182
0.00049021017
0.00049020788
0.00049020466
0.00049020005
0.00049018988
0.00049017864
0.0004901622
0.00049014386
0.00049012371
0.00049010166
0.00049007743
0.00049005106
0.00049002234
0.0004899913
0.00048995775
0.00048992171
0.00048988301
0.00048984167
0.00048979765
0.00048975081
0.00048970128
0.0004896489
0.00048959383
0.00048953598
0.00048947553
0.00048941243
0.00048934692
0.000489279
0.00048920892
0.00048913681
0.00048906289
0.00048898737
0.0004889105
0.00048883254
0.00048875376
0.00048867445
0.00048859489
0.0004885154
0.00048843627
0.00048835781
0.00048828031
0.00048820407
0.00048812936
0.00048805644
0.00048798557
0.00048791698
0.00048785087
0.00048778741
0.00048772677
0.00048766906
0.00048761439
0.00048756282
0.00048751439
0.0004874691
0.00048742691
0.00048738776
0.00048735157
0.00048731821
0.00048728754
0.00048725937
0.0004872335
0.0004872097
0.00048718772
0.00048716728
0.00048714813
0.00048712993
0.0004871124
0.0004870952
0.00048707801
0.00048706052
0.00048704239
0.00048702331
0.00048700298
0.0004869811
0.00048695738
0.00048693157
0.00048690342
0.00048687271
0.00048683924
0.00048680284
0.00048676337
0.0004867207
0.00048667474
0.00048662544
0.00048657275
0.00048651667
0.00048645721
0.00048639443
0.00048632841
0.00048625926
0.00048618715
0.00048611228
0.00048603497
0.00048595561
0.00048587486
0.0004857935
0.00048571294
0.00048563474
0.0004855618
0.00048549697
0.00048544572
0.00048541239
0.00048540638
0.00048543193
0.00048550473
0.00048562256
0.00048581478
0.00048605416
0.00048640438
0.00048636764
0.00048957062
0.00048914699
0.00048914661
0.00048913938
0.00048913665
0.00048913167
0.00048912801
0.00048912362
0.00048911939
0.00048911484
0.00048911
0.00048910487
0.00048909925
0.0004890933
0.00048908674
0.00048907614
0.00048906342
0.00048904939
0.00048902992
0.00048900913
0.00048898665
0.00048896244
0.00048893623
0.00048890807
0.00048887778
0.00048884543
0.00048881081
0.00048877399
0.00048873476
0.00048869321
0.00048864914
0.00048860263
0.00048855367
0.00048850213
0.00048844818
0.0004883917
0.0004883329
0.00048827169
0.00048820834
0.0004881428
0.00048807539
0.00048800612
0.0004879353
0.00048786309
0.00048778973
0.00048771549
0.00048764062
0.00048756541
0.00048749014
0.00048741512
0.00048734064
0.00048726699
0.00048719448
0.00048712339
0.00048705401
0.00048698659
0.00048692139
0.00048685863
0.00048679853
0.00048674128
0.00048668702
0.00048663591
0.00048658804
0.0004865435
0.00048650232
0.00048646451
0.00048643009
0.00048639899
0.00048637113
0.00048634643
0.00048632474
0.00048630592
0.00048628978
0.00048627612
0.00048626471
0.00048625531
0.00048624767
0.00048624151
0.00048623655
0.00048623251
0.00048622908
0.00048622598
0.00048622291
0.00048621959
0.00048621574
0.0004862111
0.00048620543
0.00048619848
0.00048619006
0.00048617997
0.00048616807
0.00048615422
0.00048613831
0.00048612027
0.00048610005
0.00048607763
0.00048605303
0.00048602628
0.00048599745
0.00048596662
0.00048593393
0.00048589952
0.00048586357
0.00048582629
0.00048578794
0.00048574881
0.00048570933
0.00048566994
0.00048563138
0.00048559446
0.00048556053
0.00048553102
0.00048550847
0.00048549525
0.00048549579
0.00048551327
0.00048555494
0.00048562307
0.00048572934
0.0004858697
0.00048606508
0.00048629178
0.00048658964
0.00048649099
0.00048871975
0.00048829611
0.00048829161
0.00048828001
0.00048827277
0.00048826319
0.00048825488
0.00048824581
0.00048823694
0.0004882278
0.00048821848
0.00048820796
0.00048819449
0.00048818046
0.00048816575
0.00048814694
0.00048812581
0.00048810343
0.00048807952
0.00048805408
0.00048802686
0.00048799796
0.00048796719
0.00048793465
0.00048790013
0.00048786374
0.00048782527
0.00048778484
0.00048774223
0.00048769757
0.00048765069
0.00048760169
0.00048755059
0.00048749728
0.00048744199
0.00048738459
0.00048732537
0.00048726424
0.00048720153
0.0004871372
0.00048707163
0.00048700483
0.00048693715
0.00048686878
0.00048679998
0.00048673102
0.00048666217
0.00048659373
0.00048652598
0.0004864592
0.0004863937
0.00048632975
0.00048626762
0.00048620759
0.00048614989
0.00048609476
0.00048604241
0.00048599303
0.00048594678
0.00048590381
0.00048586423
0.00048582813
0.00048579557
0.00048576656
0.00048574112
0.0004857192
0.00048570077
0.00048568572
0.00048567394
0.00048566529
0.00048565962
0.00048565673
0.00048565643
0.00048565848
0.00048566264
0.00048566867
0.0004856763
0.00048568525
0.00048569526
0.00048570603
0.00048571728
0.00048572875
0.00048574016
0.00048575126
0.00048576181
0.00048577157
0.00048578034
0.00048578795
0.00048579422
0.00048579903
0.00048580227
0.00048580386
0.00048580375
0.00048580192
0.00048579837
0.00048579314
0.00048578627
0.00048577787
0.00048576801
0.00048575682
0.00048574446
0.00048573108
0.00048571687
0.00048570206
0.00048568687
0.00048567161
0.00048565666
0.00048564246
0.00048562964
0.00048561895
0.00048561155
0.00048560868
0.00048561245
0.00048562473
0.0004856491
0.00048568787
0.00048574672
0.00048582695
0.00048593767
0.00048607506
0.00048625478
0.00048645873
0.00048671137
0.00048656489
0.00048805233
0.00048763726
0.00048762598
0.00048761407
0.00048760163
0.00048758871
0.0004875752
0.00048756128
0.0004875468
0.00048753194
0.00048751656
0.00048749982
0.00048747989
0.00048745899
0.0004874369
0.00048741367
0.00048738907
0.00048736316
0.00048733571
0.00048730684
0.00048727638
0.00048724443
0.00048721079
0.00048717558
0.00048713861
0.00048710002
0.0004870596
0.0004870175
0.00048697352
0.00048692782
0.00048688024
0.00048683092
0.0004867799
0.00048672711
0.00048667278
0.00048661685
0.0004865596
0.00048650099
0.00048644136
0.00048638071
0.00048631942
0.00048625754
0.00048619543
0.00048613329
0.00048607138
0.00048600998
0.00048594936
0.0004858898
0.00048583158
0.00048577497
0.00048572024
0.00048566765
0.00048561744
0.00048556984
0.00048552507
0.00048548332
0.00048544476
0.00048540953
0.00048537775
0.00048534953
0.00048532493
0.00048530398
0.00048528671
0.00048527309
0.00048526308
0.00048525661
0.00048525359
0.00048525388
0.00048525735
0.00048526382
0.0004852731
0.00048528498
0.00048529925
0.00048531565
0.00048533393
0.00048535384
0.0004853751
0.00048539744
0.00048542059
0.00048544425
0.00048546818
0.0004854921
0.00048551577
0.00048553895
0.0004855614
0.00048558295
0.00048560339
0.00048562258
0.00048564039
0.00048565671
0.00048567148
0.00048568463
0.00048569615
0.00048570604
0.00048571433
0.00048572108
0.00048572635
0.00048573025
0.00048573288
0.00048573437
0.00048573487
0.00048573454
0.00048573356
0.00048573213
0.00048573049
0.00048572891
0.00048572774
0.00048572739
0.00048572845
0.00048573159
0.00048573785
0.00048574832
0.00048576483
0.00048578897
0.00048582373
0.000485871
0.00048593539
0.00048601774
0.00048612515
0.00048625406
0.0004864155
0.00048659515
0.00048680705
0.00048661747
0.00048754553
0.00048713565
0.00048711844
0.00048710672
0.00048709007
0.00048707482
0.00048705731
0.00048703975
0.00048702081
0.0004870013
0.00048698069
0.00048695927
0.00048693676
0.00048691328
0.0004868886
0.00048686283
0.00048683577
0.00048680755
0.00048677797
0.00048674716
0.00048671491
0.00048668136
0.00048664632
0.00048660995
0.00048657203
0.00048653275
0.0004864919
0.00048644965
0.00048640583
0.00048636062
0.00048631388
0.00048626579
0.00048621639
0.00048616563
0.00048611379
0.0004860608
0.00048600698
0.0004859523
0.00048589713
0.00048584147
0.00048578573
0.00048572994
0.00048567448
0.00048561955
0.00048556541
0.00048551232
0.00048546055
0.00048541037
0.00048536203
0.00048531578
0.00048527186
0.0004852305
0.00048519192
0.00048515632
0.00048512386
0.0004850947
0.00048506897
0.00048504677
0.0004850282
0.0004850133
0.0004850021
0.0004849946
0.00048499078
0.00048499058
0.00048499393
0.00048500071
0.00048501081
0.00048502407
0.00048504032
0.00048505937
0.00048508102
0.00048510502
0.00048513115
0.00048515916
0.00048518878
0.00048521975
0.00048525179
0.00048528462
0.00048531799
0.00048535161
0.00048538522
0.00048541857
0.00048545141
0.00048548351
0.00048551468
0.00048554472
0.00048557347
0.00048560079
0.00048562656
0.00048565069
0.00048567315
0.00048569387
0.00048571286
0.00048573014
0.00048574575
0.00048575976
0.00048577223
0.00048578328
0.000485793
0.00048580154
0.00048580904
0.00048581564
0.00048582152
0.00048582688
0.00048583194
0.00048583697
0.0004858423
0.00048584834
0.00048585565
0.00048586487
0.00048587697
0.00048589294
0.00048591442
0.00048594281
0.0004859807
0.00048602964
0.00048609347
0.00048617282
0.00048627322
0.00048639175
0.00048653608
0.00048669523
0.0004868763
0.00048665388
0.00048717927
0.00048676596
0.00048674686
0.00048673236
0.00048671359
0.00048669601
0.00048667641
0.00048665677
0.00048663587
0.00048661445
0.00048659198
0.00048656877
0.00048654452
0.00048651941
0.00048649323
0.00048646611
0.00048643783
0.00048640854
0.00048637801
0.00048634641
0.00048631354
0.00048627956
0.00048624427
0.00048620784
0.00048617009
0.0004861312
0.00048609098
0.00048604963
0.00048600698
0.00048596325
0.0004859183
0.00048587233
0.00048582541
0.0004857775
0.0004857289
0.00048567955
0.00048562978
0.00048557958
0.00048552933
0.00048547901
0.00048542906
0.0004853795
0.00048533071
0.00048528287
0.00048523624
0.00048519106
0.00048514759
0.00048510608
0.00048506676
0.00048502984
0.00048499555
0.00048496409
0.00048493562
0.00048491035
0.00048488838
0.00048486985
0.00048485485
0.00048484346
0.00048483572
0.00048483168
0.0004848313
0.00048483457
0.00048484144
0.00048485183
0.00048486564
0.00048488272
0.00048490297
0.00048492618
0.00048495219
0.00048498078
0.00048501173
0.00048504481
0.00048507978
0.00048511637
0.00048515433
0.00048519338
0.00048523324
0.00048527365
0.00048531433
0.00048535501
0.00048539542
0.00048543532
0.00048547447
0.00048551265
0.00048554965
0.0004855853
0.00048561943
0.00048565192
0.00048568266
0.00048571157
0.00048573862
0.00048576377
0.00048578702
0.0004858084
0.00048582796
0.00048584576
0.00048586191
0.00048587651
0.00048588967
0.00048590154
0.00048591226
0.00048592199
0.00048593092
0.00048593927
0.00048594726
0.00048595517
0.00048596337
0.00048597226
0.00048598241
0.00048599445
0.00048600929
0.0004860279
0.00048605173
0.00048608206
0.0004861211
0.00048617018
0.00048623237
0.00048630808
0.00048640142
0.00048650976
0.00048663806
0.00048677774
0.00048693189
0.00048668154
0.00048692361
0.00048650732
0.00048648727
0.00048647079
0.00048645077
0.00048643171
0.0004864109
0.00048639004
0.00048636805
0.00048634562
0.00048632224
0.00048629824
0.00048627329
0.00048624759
0.00048622091
0.00048619338
0.00048616481
0.00048613535
0.00048610479
0.00048607329
0.00048604065
0.00048600705
0.0004859723
0.00048593658
0.0004858997
0.00048586188
0.00048582292
0.00048578306
0.00048574212
0.00048570036
0.00048565763
0.00048561415
0.00048557002
0.00048552518
0.00048547997
0.00048543432
0.00048538858
0.00048534272
0.00048529713
0.00048525181
0.00048520717
0.00048516323
0.00048512037
0.00048507875
0.00048503861
0.00048500019
0.00048496372
0.00048492943
0.00048489751
0.00048486819
0.00048484165
0.00048481806
0.00048479757
0.00048478035
0.0004847665
0.00048475611
0.00048474926
0.00048474601
0.00048474638
0.00048475038
0.00048475798
0.00048476914
0.0004847838
0.00048480186
0.0004848232
0.00048484769
0.00048487519
0.0004849055
0.00048493843
0.00048497378
0.00048501132
0.00048505081
0.00048509201
0.00048513465
0.00048517846
0.00048522317
0.00048526851
0.00048531419
0.00048535995
0.00048540551
0.0004854506
0.00048549498
0.0004855384
0.00048557276
0.00048560765
0.00048564325
0.0004856794
0.00048571597
0.00048575285
0.00048578992
0.00048582709
0.00048585642
0.00048588192
0.00048590539
0.00048592688
0.00048594648
0.00048596427
0.00048598038
0.00048599494
0.0004860081
0.00048602002
0.00048603087
0.00048604086
0.00048605022
0.00048605919
0.00048606809
0.00048607728
0.00048608718
0.00048609835
0.00048611144
0.0004861273
0.00048614683
0.00048617135
0.000486202
0.00048624066
0.00048628845
0.00048634785
0.00048641911
0.00048650528
0.00048660414
0.00048671874
0.0004868424
0.00048697553
0.00048670292
0.00048675134
0.00048633265
0.0004863124
0.0004862947
0.00048627426
0.00048625453
0.00048623334
0.00048621209
0.00048618985
0.00048616722
0.00048614374
0.00048611969
0.00048609478
0.0004860692
0.00048604272
0.00048601549
0.0004859873
0.00048595831
0.00048592831
0.00048589747
0.00048586559
0.00048583286
0.00048579908
0.00048576447
0.00048572883
0.00048569239
0.00048565497
0.0004856168
0.00048557774
0.00048553803
0.00048549755
0.00048545653
0.00048541507
0.00048537311
0.000485331
0.00048528867
0.00048524648
0.00048520439
0.00048516279
0.00048512166
0.00048508142
0.00048504208
0.00048500399
0.00048496731
0.00048493227
0.00048489909
0.00048486797
0.00048483914
0.00048481278
0.00048478907
0.00048476819
0.00048475031
0.00048473555
0.00048472405
0.00048471591
0.00048471122
0.00048471003
0.0004847124
0.00048471833
0.00048472783
0.00048474087
0.0004847574
0.00048477734
0.0004848006
0.00048482706
0.00048485658
0.00048488902
0.00048492417
0.00048496187
0.00048500188
0.00048504398
0.00048508793
0.00048513349
0.00048518038
0.00048522834
0.00048527708
0.00048532633
0.0004853758
0.00048542522
0.0004854743
0.00048551182
0.00048554584
0.00048558094
0.00048560909
0.00048563999
0.00048567382
0.00048571046
0.00048574977
0.00048579157
0.00048583569
0.00048588196
0.00048592236
0.00048596079
0.00048599896
0.00048602632
0.00048604662
0.00048606501
0.00048608161
0.00048609657
0.00048611006
0.00048612225
0.00048613334
0.00048614356
0.00048615316
0.00048616242
0.00048617165
0.00048618124
0.00048619164
0.00048620338
0.00048621711
0.00048623362
0.00048625375
0.00048627867
0.00048630938
0.00048634745
0.00048639378
0.00048645031
0.00048651712
0.00048659634
0.00048668601
0.00048678781
0.00048689653
0.00048701133
0.00048671999
0.00048663966
0.00048621923
0.00048619941
0.00048618114
0.00048616092
0.00048614114
0.0004861202
0.00048609916
0.00048607727
0.00048605502
0.000486032
0.00048600846
0.00048598412
0.00048595917
0.00048593336
0.00048590685
0.00048587943
0.00048585127
0.00048582215
0.00048579226
0.0004857614
0.00048572975
0.00048569714
0.00048566378
0.00048562947
0.00048559446
0.00048555857
0.00048552205
0.00048548475
0.00048544693
0.00048540846
0.00048536959
0.00048533041
0.00048529088
0.00048525133
0.0004852117
0.00048517234
0.00048513322
0.0004850947
0.00048505678
0.00048501985
0.00048498391
0.00048494931
0.0004849162
0.00048488478
0.00048485527
0.00048482786
0.00048480275
0.00048478013
0.00048476016
0.00048474302
0.00048472886
0.0004847178
0.00048470998
0.00048470549
0.00048470441
0.0004847068
0.00048471272
0.00048472216
0.00048473515
0.00048475165
0.00048477161
0.00048479496
0.00048482161
0.00048485144
0.00048488431
0.00048492009
0.00048495857
0.00048499956
0.00048504286
0.00048508823
0.00048513542
0.0004851842
0.00048523426
0.00048528535
0.00048533717
0.00048538944
0.00048544186
0.00048548378
0.00048551653
0.00048553972
0.00048556155
0.00048558671
0.00048561515
0.0004856468
0.00048568152
0.00048571919
0.00048575963
0.00048580266
0.00048584808
0.00048589569
0.00048594528
0.00048599662
0.0004860495
0.00048609325
0.00048613147
0.00048616002
0.00048617667
0.0004861916
0.000486205
0.00048621706
0.00048622801
0.00048623807
0.00048624754
0.0004862567
0.00048626588
0.00048627548
0.00048628594
0.0004862978
0.00048631167
0.00048632829
0.00048634842
0.00048637311
0.00048640321
0.00048644005
0.00048648435
0.00048653761
0.00048659984
0.00048667249
0.00048675389
0.00048684478
0.00048694102
0.00048704093
0.00048673407
0.00048657037
0.00048614885
0.00048612987
0.00048611155
0.000486092
0.00048607263
0.00048605238
0.00048603197
0.00048601082
0.00048598931
0.00048596708
0.00048594436
0.00048592086
0.00048589678
0.00048587186
0.00048584628
0.00048581981
0.00048579263
0.00048576452
0.00048573566
0.00048570587
0.00048567533
0.00048564387
0.0004856117
0.00048557864
0.00048554492
0.00048551039
0.00048547529
0.00048543948
0.00048540321
0.00048536638
0.00048532921
0.00048529181
0.00048525414
0.00048521652
0.00048517888
0.00048514158
0.00048510457
0.00048506822
0.0004850325
0.00048499781
0.00048496414
0.00048493182
0.00048490099
0.00048487186
0.00048484463
0.00048481948
0.00048479662
0.00048477621
0.00048475843
0.00048474345
0.00048473141
0.00048472246
0.00048471672
0.00048471429
0.00048471527
0.00048471971
0.00048472768
0.00048473919
0.00048475427
0.00048477287
0.00048479497
0.0004848205
0.00048484938
0.00048488149
0.00048491669
0.00048495484
0.00048499576
0.00048503923
0.00048508506
0.000485133
0.00048518279
0.0004852342
0.00048528691
0.00048534065
0.00048539511
0.00048545
0.0004854835
0.00048550532
0.00048551999
0.00048553823
0.00048556006
0.00048558543
0.00048561427
0.00048564649
0.00048568195
0.0004857205
0.00048576196
0.00048580612
0.00048585277
0.00048590167
0.00048595258
0.00048600526
0.00048605948
0.000486115
0.00048617162
0.00048621996
0.00048625766
0.00048627969
0.00048629283
0.00048630462
0.00048631528
0.00048632508
0.00048633432
0.00048634328
0.00048635234
0.00048636187
0.00048637234
0.00048638424
0.00048639816
0.00048641479
0.00048643481
0.00048645912
0.00048648846
0.00048652391
0.00048656604
0.00048661597
0.0004866736
0.00048673987
0.0004868133
0.00048689403
0.0004869788
0.00048706569
0.0004867457
0.00048652961
0.00048610756
0.00048608968
0.00048607165
0.00048605305
0.00048603435
0.00048601502
0.00048599545
0.00048597524
0.00048595465
0.00048593337
0.0004859116
0.00048588908
0.00048586596
0.00048584202
0.00048581741
0.00048579191
0.0004857657
0.00048573857
0.0004857107
0.00048568191
0.00048565238
0.00048562194
0.0004855908
0.0004855588
0.00048552616
0.00048549272
0.00048545874
0.00048542408
0.00048538899
0.00048535337
0.00048531743
0.00048528129
0.0004852449
0.00048520858
0.00048517227
0.0004851363
0.00048510062
0.0004850656
0.00048503121
0.00048499783
0.00048496545
0.0004849344
0.0004849048
0.00048487687
0.0004848508
0.00048482677
0.00048480499
0.00048478562
0.00048476886
0.00048475487
0.0004847438
0.00048473581
0.00048473103
0.00048472957
0.00048473154
0.00048473701
0.00048474606
0.00048475871
0.00048477499
0.00048479488
0.00048481836
0.00048484537
0.00048487583
0.00048490963
0.00048494662
0.00048498668
0.0004850296
0.00048507519
0.00048512322
0.00048517346
0.00048522562
0.00048527946
0.00048533466
0.00048539093
0.00048544789
0.0004854772
0.00048548691
0.00048549731
0.00048551146
0.00048552942
0.00048555118
0.00048557669
0.0004856059
0.00048563867
0.00048567487
0.00048571433
0.00048575685
0.0004858022
0.00048585012
0.00048590038
0.00048595271
0.00048600682
0.00048606247
0.0004861194
0.00048617737
0.00048623615
0.00048629555
0.00048634035
0.00048637486
0.00048638626
0.00048639652
0.00048640592
0.00048641477
0.00048642338
0.00048643211
0.00048644136
0.00048645156
0.00048646322
0.00048647686
0.00048649311
0.0004865126
0.00048653611
0.00048656427
0.00048659796
0.00048663763
0.00048668411
0.00048673726
0.00048679762
0.00048686393
0.0004869359
0.0004870109
0.00048708687
0.00048675568
0.00048650722
0.0004860851
0.0004860684
0.00048605091
0.00048603335
0.00048601547
0.00048599715
0.00048597852
0.00048595931
0.00048593968
0.00048591939
0.00048589858
0.00048587701
0.00048585483
0.00048583182
0.00048580813
0.00048578353
0.00048575821
0.00048573196
0.00048570496
0.00048567702
0.00048564833
0.00048561873
0.00048558842
0.00048555725
0.00048552543
0.00048549281
0.00048545965
0.0004854258
0.00048539152
0.0004853567
0.00048532156
0.00048528621
0.0004852506
0.00048521505
0.00048517948
0.00048514422
0.00048510924
0.00048507488
0.00048504111
0.00048500831
0.00048497646
0.00048494589
0.00048491673
0.00048488918
0.00048486344
0.00048483971
0.00048481818
0.00048479905
0.00048478249
0.00048476868
0.00048475781
0.00048475003
0.00048474549
0.00048474431
0.00048474662
0.00048475252
0.00048476207
0.00048477533
0.00048479235
0.0004848131
0.00048483758
0.00048486573
0.00048489748
0.00048493271
0.0004849713
0.0004850131
0.0004850579
0.00048510551
0.00048515569
0.00048520819
0.00048526273
0.00048531903
0.00048537677
0.00048543563
0.00048546521
0.00048546702
0.00048547267
0.00048548226
0.00048549585
0.00048551348
0.00048553515
0.00048556082
0.0004855904
0.00048562377
0.00048566077
0.00048570122
0.00048574488
0.00048579151
0.00048584084
0.00048589257
0.00048594643
0.0004860021
0.00048605931
0.00048611776
0.0004861772
0.00048623738
0.00048629807
0.00048635908
0.00048641794
0.00048645432
0.00048647276
0.00048648169
0.00048649009
0.00048649827
0.00048650661
0.0004865155
0.00048652535
0.00048653665
0.00048654989
0.00048656564
0.00048658446
0.00048660702
0.00048663384
0.00048666563
0.00048670272
0.00048674571
0.00048679441
0.00048684907
0.00048690859
0.00048697245
0.00048703855
0.00048710491
0.00048676413
0.00048649607
0.0004860742
0.00048605869
0.00048604185
0.00048602536
0.00048600833
0.00048599102
0.00048597331
0.00048595506
0.00048593637
0.00048591701
0.0004858971
0.00048587642
0.0004858551
0.00048583292
0.00048581004
0.00048578624
0.00048576168
0.00048573616
0.00048570988
0.00048568263
0.00048565461
0.00048562566
0.00048559598
0.00048556541
0.00048553417
0.00048550212
0.0004854695
0.00048543616
0.00048540238
0.00048536802
0.00048533333
0.00048529838
0.00048526314
0.00048522792
0.00048519265
0.00048515764
0.00048512286
0.00048508865
0.00048505497
0.0004850222
0.00048499033
0.00048495968
0.00048493039
0.00048490265
0.00048487669
0.00048485268
0.00048483086
0.0004848114
0.00048479452
0.0004847804
0.00048476924
0.0004847612
0.00048475646
0.00048475517
0.00048475746
0.00048476344
0.0004847732
0.00048478681
0.00048480433
0.00048482575
0.00048485107
0.00048488024
0.00048491319
0.00048494981
0.00048498996
0.0004850335
0.00048508022
0.0004851299
0.00048518231
0.00048523717
0.00048529419
0.00048535308
0.0004854135
0.00048544855
0.00048544693
0.00048544742
0.00048545198
0.00048546073
0.00048547373
0.00048549104
0.00048551264
0.00048553849
0.00048556851
0.00048560255
0.00048564045
0.00048568199
0.00048572693
0.00048577497
0.00048582583
0.0004858792
0.00048593474
0.00048599212
0.00048605103
0.00048611116
0.00048617221
0.0004862339
0.00048629601
0.00048635828
0.00048642055
0.00048648262
0.0004865271
0.00048655326
0.00048656104
0.00048656863
0.00048657639
0.00048658469
0.00048659397
0.00048660465
0.00048661721
0.00048663217
0.00048665001
0.00048667132
0.00048669653