/*--------------------------------*- C++ -*----------------------------------*\
| =========                 |                                                 |
| \\      /  F ield         | foam-extend: Open Source CFD                    |
|  \\    /   O peration     | Version:     4.1                                |
|   \\  /    A nd           | Web:         http://www.foam-extend.org         |
|    \\/     M anipulation  |                                                 |
\*---------------------------------------------------------------------------*/
FoamFile
{
    version     2.0;
    format      ascii;
    class       volVectorField;
    location    "2.8";
    object      U;
}
// * * * * * * * * * * * * * * * * * * * * * * * * * * * * * * * * * * * * * //

dimensions      [0 1 -1 0 0 0 0];

internalField   nonuniform List<vector> 
16126
(
(0.086064923 4.8241593e-05 0)
(0.085669584 6.058431e-05 0)
(0.085496845 1.0501371e-05 0)
(0.085289667 3.7631886e-05 0)
(0.084975089 2.2001533e-05 0)
(0.084779768 3.3986684e-05 0)
(0.084412614 3.1234557e-05 0)
(0.084174836 3.4668458e-05 0)
(0.083795243 3.5251818e-05 0)
(0.083513446 3.5170084e-05 0)
(0.083136451 3.5895545e-05 0)
(0.082826098 3.4815933e-05 0)
(0.082460496 3.5583854e-05 0)
(0.082141476 3.513336e-05 0)
(0.081797394 3.5953527e-05 0)
(0.081489548 3.4869826e-05 0)
(0.081178072 3.3032042e-05 0)
(0.080899566 2.9464432e-05 0)
(0.080631924 2.7819483e-05 0)
(0.080398684 2.9005123e-05 0)
(0.080189755 2.9617933e-05 0)
(0.080017537 2.290338e-05 0)
(0.07987569 1.5266599e-05 0)
(0.079775228 2.0421404e-05 0)
(0.07972024 2.8116513e-05 0)
(0.079716998 2.4036067e-05 0)
(0.079770963 1.7359527e-05 0)
(0.079877897 1.3244128e-05 0)
(0.080036824 9.8283039e-06 0)
(0.080250322 6.5229842e-06 0)
(0.08052051 2.9095424e-06 0)
(0.080851266 -1.1102825e-06 0)
(0.081245533 -5.5298815e-06 0)
(0.081707079 -1.0355412e-05 0)
(0.082239026 -1.5554464e-05 0)
(0.082844838 -2.1119833e-05 0)
(0.08352751 -2.7017992e-05 0)
(0.084290053 -3.3227832e-05 0)
(0.085135041 -3.97106e-05 0)
(0.086064827 -4.6435087e-05 0)
(0.0870813 -5.336185e-05 0)
(0.088185949 -6.0455651e-05 0)
(0.089379751 -6.7685305e-05 0)
(0.090663189 -7.5019914e-05 0)
(0.092036173 -8.2436919e-05 0)
(0.093498074 -8.991745e-05 0)
(0.095047662 -9.7448385e-05 0)
(0.096683148 -0.00010502007 0)
(0.098402142 -0.00011262445 0)
(0.10020168 -0.0001202547 0)
(0.10207823 -0.00012790062 0)
(0.10402765 -0.0001355474 0)
(0.10604528 -0.00014317347 0)
(0.10812585 -0.00015074739 0)
(0.11026357 -0.00015822667 0)
(0.11245211 -0.00016555815 0)
(0.11468461 -0.00017267613 0)
(0.11695372 -0.00017950359 0)
(0.11925164 -0.0001859543 0)
(0.12157016 -0.00019193294 0)
(0.12390073 -0.00019733816 0)
(0.12623451 -0.00020206649 0)
(0.12856245 -0.00020601348 0)
(0.13087542 -0.00020907801 0)
(0.13316424 -0.00021116459 0)
(0.13541986 -0.00021218766 0)
(0.13763345 -0.00021207271 0)
(0.1397965 -0.0002107595 0)
(0.14190095 -0.00020820521 0)
(0.14393933 -0.00020438495 0)
(0.14590485 -0.00019929338 0)
(0.14779155 -0.00019294677 0)
(0.14959437 -0.00018538153 0)
(0.15130928 -0.00017665545 0)
(0.15293333 -0.00016684674 0)
(0.15446479 -0.00015605329 0)
(0.15590317 -0.00014438907 0)
(0.15724929 -0.00013198586 0)
(0.1585053 -0.00011898454 0)
(0.15967473 -0.00010553928 0)
(0.1607625 -9.1807145e-05 0)
(0.16177488 -7.7951336e-05 0)
(0.1627195 -6.4135651e-05 0)
(0.16360529 -5.0521937e-05 0)
(0.16444246 -3.7258631e-05 0)
(0.16524242 -2.4478043e-05 0)
(0.16601774 -1.228507e-05 0)
(0.16678208 -7.6508108e-07 0)
(0.16755015 1.0034307e-05 0)
(0.1683376 2.0088461e-05 0)
(0.16916113 2.9426169e-05 0)
(0.17003825 3.8109539e-05 0)
(0.17098759 4.6281249e-05 0)
(0.17202859 5.4132445e-05 0)
(0.17318213 6.1973e-05 0)
(0.17446987 7.0150375e-05 0)
(0.17591574 7.9171906e-05 0)
(0.17754453 8.9526203e-05 0)
(0.17938499 0.00010190718 0)
(0.18146688 0.00011677207 0)
(0.18382758 0.00013473939 0)
(0.18650582 0.00015553714 0)
(0.18955572 0.00017873842 0)
(0.19303343 0.00020134323 0)
(0.19702717 0.00021929309 0)
(0.2016278 0.00022215563 0)
(0.20699291 0.00019671486 0)
(0.21328038 0.00011587292 0)
(0.22078355 -5.1961404e-05 0)
(0.2297773 -0.0003651111 0)
(0.24080165 -0.00088364176 0)
(0.25429932 -0.0017134169 0)
(0.27121472 -0.0029427329 0)
(0.29213947 -0.004732895 0)
(0.31861135 -0.0071688968 0)
(0.35111201 -0.010460193 0)
(0.3920156 -0.014603986 0)
(0.4408644 -0.019865191 0)
(0.50148423 -0.02596328 0)
(0.57024135 -0.033375552 0)
(0.65495138 -0.0406955 0)
(0.74104203 -0.049848833 0)
(0.85367719 -0.0513147 0)
(0.92415355 -0.062802215 0)
(0.25830705 0.00020493933 0)
(0.25777455 0.00033272117 0)
(0.25734891 0.00022728533 0)
(0.25688772 0.00032722852 0)
(0.25628135 0.00030416239 0)
(0.25576867 0.00035474792 0)
(0.25508216 0.0003626621 0)
(0.25449391 0.0003866611 0)
(0.25377285 0.0004002459 0)
(0.25312761 0.00041069264 0)
(0.25240033 0.00041973082 0)
(0.25173121 0.00042044716 0)
(0.25102421 0.00041997217 0)
(0.25036864 0.00041020455 0)
(0.24971076 0.00039871987 0)
(0.2491067 0.00038040879 0)
(0.24853098 0.00036087919 0)
(0.24802159 0.00033662721 0)
(0.24756778 0.00030699257 0)
(0.24719224 0.00026711707 0)
(0.24689065 0.00022501244 0)
(0.24668815 0.00018770548 0)
(0.24660054 0.00014741294 0)
(0.24663909 8.3825573e-05 0)
(0.24682089 1.071326e-05 0)
(0.247128 -5.7856155e-05 0)
(0.24755345 -0.00012486732 0)
(0.24810713 -0.00019090792 0)
(0.2487939 -0.00025879299 0)
(0.24962126 -0.00032986928 0)
(0.25059508 -0.00040470021 0)
(0.25172269 -0.0004836455 0)
(0.25301064 -0.00056671057 0)
(0.25446611 -0.00065395391 0)
(0.25609567 -0.00074524906 0)
(0.257906 -0.00084048544 0)
(0.2599031 -0.0009394168 0)
(0.26209264 -0.0010417672 0)
(0.26447946 -0.0011471475 0)
(0.26706767 -0.0012551197 0)
(0.26986033 -0.0013651559 0)
(0.27285941 -0.0014766742 0)
(0.2760656 -0.0015890385 0)
(0.27947828 -0.0017015603 0)
(0.28309532 -0.0018135227 0)
(0.28691311 -0.0019241801 0)
(0.29092644 -0.0020327718 0)
(0.29512853 -0.002138528 0)
(0.29951098 -0.0022406752 0)
(0.30406385 -0.0023384457 0)
(0.30877567 -0.0024310771 0)
(0.31363349 -0.0025178195 0)
(0.31862302 -0.0025979393 0)
(0.32372866 -0.0026707229 0)
(0.32893367 -0.0027354825 0)
(0.33422028 -0.0027915667 0)
(0.33956985 -0.0028383658 0)
(0.34496304 -0.0028753236 0)
(0.35037997 -0.0029019511 0)
(0.35580041 -0.0029178353 0)
(0.36120404 -0.002922654 0)
(0.36657059 -0.0029161902 0)
(0.37188013 -0.0028983408 0)
(0.37711327 -0.0028691285 0)
(0.38225138 -0.0028287098 0)
(0.38727687 -0.0027773829 0)
(0.39217339 -0.002715589 0)
(0.39692605 -0.0026439157 0)
(0.40152164 -0.0025630963 0)
(0.40594885 -0.0024740059 0)
(0.41019842 -0.0023776542 0)
(0.41426334 -0.0022751812 0)
(0.41813897 -0.0021678425 0)
(0.42182319 -0.0020570014 0)
(0.42531647 -0.0019441135 0)
(0.42862201 -0.0018307142 0)
(0.43174572 -0.0017183991 0)
(0.4346963 -0.0016088135 0)
(0.43748521 -0.0015036276 0)
(0.44012672 -0.0014045276 0)
(0.44263776 -0.0013131896 0)
(0.44503795 -0.0012312729 0)
(0.44734948 -0.0011603875 0)
(0.44959704 -0.0011021006 0)
(0.45180766 -0.0010579133 0)
(0.45401068 -0.0010292875 0)
(0.4562376 -0.001017608 0)
(0.45852198 -0.0010242289 0)
(0.4608994 -0.0010504411 0)
(0.46340739 -0.001097541 0)
(0.46608551 -0.0011668067 0)
(0.46897527 -0.0012596026 0)
(0.47212043 -0.0013773619 0)
(0.47556698 -0.0015217581 0)
(0.47936378 -0.001694649 0)
(0.48356245 -0.001898364 0)
(0.48821867 -0.0021356001 0)
(0.49339173 -0.0024099362 0)
(0.49914703 -0.0027256268 0)
(0.50555472 -0.0030885893 0)
(0.5126943 -0.0035059173 0)
(0.52065111 -0.0039878588 0)
(0.52952499 -0.0045466667 0)
(0.53942149 -0.0052005765 0)
(0.5504687 -0.0059709774 0)
(0.5627963 -0.0068903446 0)
(0.57656893 -0.007995104 0)
(0.5919381 -0.0093411643 0)
(0.60911044 -0.010985971 0)
(0.62823973 -0.013018702 0)
(0.64957146 -0.015516318 0)
(0.67320339 -0.018603709 0)
(0.69940342 -0.022350821 0)
(0.72807705 -0.026900458 0)
(0.75949304 -0.032237487 0)
(0.7930721 -0.038484474 0)
(0.82911423 -0.045383056 0)
(0.8659134 -0.053038319 0)
(0.90410624 -0.060626449 0)
(0.93931351 -0.068538652 0)
(0.97388265 -0.074216596 0)
(0.99689614 -0.080407352 0)
(1.0166031 -0.074766978 0)
(1.0120322 -0.080166119 0)
(0.42133454 0.00039207473 0)
(0.42082352 0.00071192266 0)
(0.42028826 0.00058368111 0)
(0.41976514 0.00076401707 0)
(0.41906945 0.00075130642 0)
(0.41846571 0.00084423011 0)
(0.41771027 0.00086837195 0)
(0.41703782 0.00091379244 0)
(0.41626686 0.00093695385 0)
(0.41556227 0.00095288295 0)
(0.41481006 0.00096008903 0)
(0.41411764 0.00095256421 0)
(0.41342125 0.00093888164 0)
(0.41279119 0.00090996476 0)
(0.41219652 0.00087355497 0)
(0.41168269 0.00082021602 0)
(0.41123749 0.00075345598 0)
(0.41089051 0.00066979188 0)
(0.4106415 0.00057795351 0)
(0.41052456 0.00047944868 0)
(0.41055576 0.00036499233 0)
(0.41074857 0.00021495662 0)
(0.41112148 4.5359017e-05 0)
(0.41165621 -0.00012728365 0)
(0.41232833 -0.00029746068 0)
(0.41316276 -0.00046386678 0)
(0.4141663 -0.00063453384 0)
(0.41535214 -0.00081241524 0)
(0.41672843 -0.00099788746 0)
(0.41830413 -0.0011920747 0)
(0.42008697 -0.0013954035 0)
(0.42208532 -0.0016083155 0)
(0.42430694 -0.0018307896 0)
(0.42675979 -0.0020627962 0)
(0.42945114 -0.0023039962 0)
(0.43238802 -0.0025539761 0)
(0.43557652 -0.0028120596 0)
(0.43902203 -0.0030774306 0)
(0.44272874 -0.0033490273 0)
(0.44669966 -0.00362562 0)
(0.45093625 -0.0039057629 0)
(0.45543843 -0.004187846 0)
(0.46020423 -0.0044701015 0)
(0.46522981 -0.0047506236 0)
(0.47050928 -0.0050274108 0)
(0.47603464 -0.0052983864 0)
(0.48179574 -0.0055614337 0)
(0.48778032 -0.005814425 0)
(0.49397402 -0.0060552496 0)
(0.50036046 -0.0062818448 0)
(0.50692139 -0.0064922158 0)
(0.5136368 -0.0066844623 0)
(0.52048513 -0.0068568002 0)
(0.52744345 -0.0070075804 0)
(0.5344877 -0.00713531 0)
(0.54159293 -0.0072386755 0)
(0.54873359 -0.0073165596 0)
(0.55588374 -0.0073680635 0)
(0.56301737 -0.0073925284 0)
(0.5701087 -0.0073895521 0)
(0.57713243 -0.0073590078 0)
(0.58406406 -0.0073010621 0)
(0.59088014 -0.0072161839 0)
(0.59755856 -0.007105156 0)
(0.60407882 -0.0069690779 0)
(0.61042226 -0.0068093686 0)
(0.61657231 -0.0066277593 0)
(0.6225147 -0.0064262865 0)
(0.62823765 -0.0062072792 0)
(0.63373205 -0.0059733417 0)
(0.6389916 -0.0057273305 0)
(0.64401294 -0.0054723343 0)
(0.64879573 -0.0052116414 0)
(0.65334276 -0.0049487157 0)
(0.65765992 -0.0046871595 0)
(0.66175632 -0.0044306872 0)
(0.66564417 -0.0041830804 0)
(0.66933883 -0.0039481674 0)
(0.67285869 -0.003729769 0)
(0.67622509 -0.0035316872 0)
(0.67946224 -0.0033576466 0)
(0.68259703 -0.0032112938 0)
(0.68565891 -0.0030961525 0)
(0.6886797 -0.0030156231 0)
(0.69169337 -0.0029729402 0)
(0.69473588 -0.0029711949 0)
(0.69784497 -0.0030133005 0)
(0.70105992 -0.0031020651 0)
(0.70442141 -0.0032401639 0)
(0.70797124 -0.0034302528 0)
(0.71175226 -0.0036749489 0)
(0.7158081 -0.003976987 0)
(0.72018315 -0.0043392049 0)
(0.72492231 -0.0047647625 0)
(0.73007114 -0.0052571144 0)
(0.73567545 -0.0058203657 0)
(0.74178172 -0.0064591906 0)
(0.74843638 -0.0071793897 0)
(0.75568679 -0.0079876515 0)
(0.76357965 -0.0088925587 0)
(0.77216303 -0.009903985 0)
(0.78148303 -0.011035007 0)
(0.79158784 -0.012300431 0)
(0.80252053 -0.01372054 0)
(0.81432739 -0.015317579 0)
(0.82704231 -0.017123152 0)
(0.84070436 -0.019169859 0)
(0.85532404 -0.021505931 0)
(0.87092131 -0.024175412 0)
(0.88745298 -0.027247233 0)
(0.90489795 -0.030768817 0)
(0.92310008 -0.03482538 0)
(0.94196617 -0.039433405 0)
(0.96112049 -0.044669071 0)
(0.98037875 -0.050427394 0)
(0.99895977 -0.056725542 0)
(1.0166569 -0.063144641 0)
(1.0319347 -0.06962084 0)
(1.0449305 -0.074997388 0)
(1.0525919 -0.079383793 0)
(1.0565702 -0.07955552 0)
(1.0507488 -0.077503282 0)
(1.0403493 -0.062571102 0)
(1.0190186 -0.047398149 0)
(0.56846691 0.0005307724 0)
(0.56814892 0.0010499998 0)
(0.5676701 0.00091391059 0)
(0.56729488 0.0011599993 0)
(0.56672065 0.0011556588 0)
(0.56627171 0.0012759913 0)
(0.56569179 0.0013054216 0)
(0.56521074 0.0013593885 0)
(0.56466578 0.0013792618 0)
(0.56420314 0.0013892539 0)
(0.56373045 0.001381262 0)
(0.56333881 0.0013518673 0)
(0.56298046 0.0013045386 0)
(0.5627127 0.0012307162 0)
(0.56251389 0.0011383283 0)
(0.56242251 0.001022369 0)
(0.56243807 0.00089001882 0)
(0.56259544 0.00073697539 0)
(0.56290269 0.00055334171 0)
(0.56337376 0.00032548529 0)
(0.56402347 7.4377094e-05 0)
(0.56483183 -0.00018851355 0)
(0.56576842 -0.00045488828 0)
(0.56686092 -0.00071957013 0)
(0.56812248 -0.00099379909 0)
(0.56957291 -0.0012833106 0)
(0.57122449 -0.0015850596 0)
(0.57308629 -0.0018998679 0)
(0.57516691 -0.0022280779 0)
(0.57747504 -0.0025705306 0)
(0.58001845 -0.0029275501 0)
(0.58280501 -0.0032994219 0)
(0.5858419 -0.0036859417 0)
(0.58913607 -0.0040867997 0)
(0.59269359 -0.0045012731 0)
(0.59651994 -0.0049284433 0)
(0.60061944 -0.0053670021 0)
(0.60499536 -0.0058153691 0)
(0.60964945 -0.0062715847 0)
(0.61458202 -0.006733391 0)
(0.61979154 -0.0071981898 0)
(0.62527463 -0.007663109 0)
(0.63102581 -0.0081250216 0)
(0.6370375 -0.0085805923 0)
(0.64329988 -0.0090263388 0)
(0.64980087 -0.0094586819 0)
(0.65652616 -0.0098740083 0)
(0.66345929 -0.010268729 0)
(0.67058166 -0.010639333 0)
(0.67787276 -0.01098245 0)
(0.68531031 -0.011294891 0)
(0.69287045 -0.011573697 0)
(0.70052801 -0.011816182 0)
(0.70825674 -0.012019969 0)
(0.71602963 -0.012183019 0)
(0.72381916 -0.012303667 0)
(0.73159765 -0.012380646 0)
(0.7393375 -0.012413111 0)
(0.74701159 -0.012400659 0)
(0.75459348 -0.012343348 0)
(0.76205778 -0.012241709 0)
(0.76938038 -0.012096754 0)
(0.77653876 -0.011909983 0)
(0.78351219 -0.011683379 0)
(0.79028199 -0.011419401 0)
(0.79683173 -0.011120973 0)
(0.8031474 -0.01079146 0)
(0.80921759 -0.010434651 0)
(0.8150336 -0.01005472 0)
(0.82058956 -0.0096562011 0)
(0.82588252 -0.009243942 0)
(0.83091247 -0.0088230688 0)
(0.8356824 -0.0083989339 0)
(0.84019831 -0.007977076 0)
(0.84446912 -0.007563162 0)
(0.84850671 -0.0071629469 0)
(0.85232577 -0.0067822084 0)
(0.85594373 -0.0064267106 0)
(0.85938061 -0.0061021349 0)
(0.86265891 -0.0058140478 0)
(0.86580334 -0.0055678302 0)
(0.86884072 -0.0053686589 0)
(0.87179968 -0.0052214186 0)
(0.87471043 -0.0051307122 0)
(0.87760451 -0.0051008048 0)
(0.88051451 -0.0051356781 0)
(0.88347371 -0.0052389382 0)
(0.88651585 -0.0054139122 0)
(0.88967475 -0.005663579 0)
(0.89298402 -0.0059906986 0)
(0.89647678 -0.0063977697 0)
(0.90018528 -0.0068872021 0)
(0.90414069 -0.0074612983 0)
(0.90837264 -0.0081225103 0)
(0.91290914 -0.0088733541 0)
(0.91777597 -0.0097167711 0)
(0.92299672 -0.010655995 0)
(0.92859203 -0.011695102 0)
(0.93457987 -0.012838775 0)
(0.94097412 -0.014093222 0)
(0.94778556 -0.015465609 0)
(0.9550191 -0.016965781 0)
(0.96267607 -0.018604915 0)
(0.97074869 -0.020398808 0)
(0.97922513 -0.022364651 0)
(0.9880779 -0.024527341 0)
(0.99727518 -0.026911687 0)
(1.0067562 -0.02955455 0)
(1.0164567 -0.032486213 0)
(1.0262565 -0.035754172 0)
(1.0360394 -0.039379829 0)
(1.0455795 -0.043407835 0)
(1.0546863 -0.047808546 0)
(1.0629557 -0.052590129 0)
(1.0701277 -0.057581591 0)
(1.0755163 -0.062712382 0)
(1.0789082 -0.067508161 0)
(1.0791864 -0.07184839 0)
(1.0765912 -0.074636879 0)
(1.069342 -0.076065855 0)
(1.0590817 -0.073443922 0)
(1.0434827 -0.06880869 0)
(1.0261603 -0.054123119 0)
(1.0099693 -0.03777928 0)
(0.69602664 0.0005761861 0)
(0.69608053 0.0012706807 0)
(0.69580961 0.0011259341 0)
(0.6957803 0.0014185826 0)
(0.69552156 0.0014140057 0)
(0.69544571 0.0015436978 0)
(0.69525487 0.0015630993 0)
(0.695194 0.0016053574 0)
(0.6950981 0.001600499 0)
(0.69510733 0.0015798595 0)
(0.69513573 0.0015304532 0)
(0.69526426 0.0014531285 0)
(0.69545255 0.0013517437 0)
(0.69575366 0.0012205084 0)
(0.69615387 0.001064446 0)
(0.69668665 0.00087091029 0)
(0.69734736 0.00063647556 0)
(0.69815317 0.00035790802 0)
(0.69911124 5.4577819e-05 0)
(0.70019491 -0.0002687756 0)
(0.70138366 -0.00060535313 0)
(0.70270612 -0.00094826569 0)
(0.70417734 -0.0013096184 0)
(0.70581966 -0.0016975442 0)
(0.70764823 -0.0021056275 0)
(0.70967119 -0.0025317504 0)
(0.71189674 -0.002976376 0)
(0.71433439 -0.0034399742 0)
(0.71699189 -0.0039227226 0)
(0.71987714 -0.0044250924 0)
(0.72299692 -0.0049470743 0)
(0.72635776 -0.0054886133 0)
(0.72996529 -0.006049128 0)
(0.73382459 -0.0066278334 0)
(0.73793968 -0.0072234329 0)
(0.7423137 -0.0078343088 0)
(0.74694843 -0.0084583338 0)
(0.75184442 -0.00909298 0)
(0.75700053 -0.0097352205 0)
(0.76241405 -0.010381615 0)
(0.76808037 -0.011028279 0)
(0.77399299 -0.011670973 0)
(0.78014331 -0.012305131 0)
(0.78652073 -0.012925939 0)
(0.7931125 -0.013528419 0)
(0.79990379 -0.014107508 0)
(0.80687774 -0.014658147 0)
(0.81401556 -0.015175366 0)
(0.82129667 -0.015654374 0)
(0.82869882 -0.016090631 0)
(0.83619836 -0.016479925 0)
(0.84377041 -0.016818434 0)
(0.85138913 -0.017102786 0)
(0.85902802 -0.017330104 0)
(0.86666016 -0.017498053 0)
(0.8742585 -0.017604873 0)
(0.88179619 -0.017649407 0)
(0.88924685 -0.017631123 0)
(0.89658485 -0.017550134 0)
(0.90378561 -0.017407207 0)
(0.9108258 -0.017203763 0)
(0.91768367 -0.016941879 0)
(0.9243392 -0.016624279 0)
(0.93077431 -0.016254313 0)
(0.93697308 -0.015835941 0)
(0.94292187 -0.015373695 0)
(0.94860944 -0.014872651 0)
(0.95402707 -0.014338382 0)
(0.95916862 -0.013776911 0)
(0.96403061 -0.013194662 0)
(0.96861219 -0.012598401 0)
(0.97291521 -0.01199518 0)
(0.97694415 -0.011392266 0)
(0.98070609 -0.010797092 0)
(0.98421062 -0.01021717 0)
(0.98746978 -0.0096600434 0)
(0.9904979 -0.0091331955 0)
(0.99331153 -0.008644008 0)
(0.99592917 -0.0081996536 0)
(0.9983712 -0.007807077 0)
(1.0006596 -0.0074728654 0)
(1.0028177 -0.0072032557 0)
(1.0048701 -0.0070040428 0)
(1.006842 -0.0068805674 0)
(1.0087595 -0.0068376244 0)
(1.0106486 -0.0068794783 0)
(1.0125354 -0.007009789 0)
(1.0144457 -0.0072317174 0)
(1.0164045 -0.00754785 0)
(1.0184358 -0.0079603595 0)
(1.020562 -0.0084709428 0)
(1.022804 -0.0090810245 0)
(1.0251807 -0.009791703 0)
(1.0277084 -0.010603992 0)
(1.0304011 -0.011518767 0)
(1.0332697 -0.012537139 0)
(1.0363221 -0.013660376 0)
(1.0395622 -0.014890374 0)
(1.0429909 -0.016229433 0)
(1.0466041 -0.017681043 0)
(1.050394 -0.019249364 0)
(1.0543466 -0.020940613 0)
(1.0584436 -0.022761776 0)
(1.0626579 -0.024723213 0)
(1.0669574 -0.026835591 0)
(1.0712958 -0.029114833 0)
(1.075621 -0.031574903 0)
(1.0798563 -0.034237439 0)
(1.0839196 -0.037115015 0)
(1.0876838 -0.040230587 0)
(1.0910242 -0.043579483 0)
(1.0937343 -0.047171348 0)
(1.0956428 -0.050945317 0)
(1.0964281 -0.054868696 0)
(1.0959104 -0.058746607 0)
(1.0936193 -0.062474188 0)
(1.0895131 -0.065584808 0)
(1.0829335 -0.067941324 0)
(1.0743277 -0.068537351 0)
(1.0627751 -0.067525186 0)
(1.0497568 -0.062665038 0)
(1.0343489 -0.055545597 0)
(1.0187227 -0.041029726 0)
(1.0063667 -0.024392861 0)
(0.80268147 0.0004455776 0)
(0.8032639 0.0012396426 0)
(0.80331052 0.0010784968 0)
(0.80376795 0.0013814404 0)
(0.80395083 0.0013576319 0)
(0.80437939 0.0014711375 0)
(0.8046972 0.0014615687 0)
(0.80517391 0.0014740094 0)
(0.80563224 0.0014311126 0)
(0.80621319 0.0013705599 0)
(0.80683106 0.0012745111 0)
(0.80756248 0.0011457628 0)
(0.80836676 0.00097868951 0)
(0.80928529 0.00076686958 0)
(0.81029948 0.00051594913 0)
(0.8114381 0.00022698455 0)
(0.81267337 -8.8991617e-05 0)
(0.81400253 -0.00043640779 0)
(0.81540736 -0.00080345101 0)
(0.8169257 -0.0011875419 0)
(0.8185636 -0.0016011988 0)
(0.82034508 -0.002051058 0)
(0.82228302 -0.0025295902 0)
(0.82438459 -0.0030329406 0)
(0.82665548 -0.0035615869 0)
(0.82910586 -0.0041158896 0)
(0.83174354 -0.0046944842 0)
(0.8345763 -0.0052974511 0)
(0.83761082 -0.0059243767 0)
(0.84085342 -0.0065752677 0)
(0.84430939 -0.0072496577 0)
(0.84798348 -0.0079469828 0)
(0.8518794 -0.0086661326 0)
(0.85600007 -0.0094056925 0)
(0.8603472 -0.010163664 0)
(0.86492147 -0.010937618 0)
(0.86972209 -0.011724525 0)
(0.87474696 -0.012520855 0)
(0.87999232 -0.013322494 0)
(0.88545283 -0.014124835 0)
(0.89112134 -0.014922764 0)
(0.89698898 -0.015710764 0)
(0.90304495 -0.016482961 0)
(0.90927669 -0.017233229 0)
(0.91566977 -0.01795529 0)
(0.922208 -0.018642818 0)
(0.92887352 -0.019289555 0)
(0.93564688 -0.019889415 0)
(0.94250722 -0.020436595 0)
(0.94943243 -0.020925672 0)
(0.95639932 -0.021351692 0)
(0.96338389 -0.021710252 0)
(0.97036152 -0.021997567 0)
(0.97730724 -0.022210528 0)
(0.98419599 -0.022346751 0)
(0.99100288 -0.022404613 0)
(0.99770343 -0.02238328 0)
(1.0042739 -0.022282724 0)
(1.0106913 -0.022103731 0)
(1.016934 -0.021847907 0)
(1.0229818 -0.021517663 0)
(1.0288158 -0.021116204 0)
(1.0344191 -0.020647502 0)
(1.0397766 -0.020116266 0)
(1.0448752 -0.0195279 0)
(1.0497042 -0.018888459 0)
(1.0542548 -0.018204595 0)
(1.0585207 -0.017483499 0)
(1.0624979 -0.016732834 0)
(1.0661848 -0.015960674 0)
(1.069582 -0.015175424 0)
(1.0726925 -0.014385755 0)
(1.0755215 -0.013600513 0)
(1.0780764 -0.01282866 0)
(1.0803668 -0.012079169 0)
(1.0824042 -0.011360967 0)
(1.0842018 -0.010682826 0)
(1.0857747 -0.01005331 0)
(1.0871395 -0.0094806626 0)
(1.0883141 -0.0089727545 0)
(1.0893176 -0.0085369763 0)
(1.0901698 -0.0081802127 0)
(1.0908914 -0.007908664 0)
(1.0915034 -0.0077278671 0)
(1.0920268 -0.0076426106 0)
(1.0924827 -0.0076570444 0)
(1.0928915 -0.0077744677 0)
(1.093273 -0.0079974993 0)
(1.0936457 -0.008327929 0)
(1.094027 -0.0087669119 0)
(1.0944324 -0.0093148709 0)
(1.0948756 -0.0099717193 0)
(1.0953682 -0.010736834 0)
(1.0959192 -0.011609412 0)
(1.0965352 -0.012588298 0)
(1.0972196 -0.013672405 0)
(1.097973 -0.014860533 0)
(1.0987924 -0.016151898 0)
(1.0996716 -0.017545948 0)
(1.1006004 -0.019043074 0)
(1.1015649 -0.020644125 0)
(1.1025459 -0.022351613 0)
(1.1035207 -0.024168601 0)
(1.1044589 -0.0261008 0)
(1.1053259 -0.028153933 0)
(1.1060759 -0.030337608 0)
(1.1066586 -0.032659048 0)
(1.1070043 -0.035130597 0)
(1.1070408 -0.0377552 0)
(1.1066624 -0.040541879 0)
(1.1057695 -0.043473156 0)
(1.1042036 -0.046539914 0)
(1.101845 -0.049669552 0)
(1.0984663 -0.05281177 0)
(1.093973 -0.055777292 0)
(1.0880612 -0.058462425 0)
(1.0807923 -0.060461096 0)
(1.0717837 -0.061677681 0)
(1.0615121 -0.061294312 0)
(1.0495373 -0.059501773 0)
(1.0370458 -0.054562437 0)
(1.0239866 -0.047691851 0)
(1.0116612 -0.035201513 0)
(1.0034085 -0.020174034 0)
(0.88884225 0.00010565209 0)
(0.89000197 0.00091794862 0)
(0.89039872 0.00073992635 0)
(0.89138247 0.0010270568 0)
(0.89203474 0.0009798308 0)
(0.89299199 0.0010645048 0)
(0.89382772 0.001019486 0)
(0.89484186 0.00099148702 0)
(0.89583681 0.00090004532 0)
(0.89695728 0.00078500523 0)
(0.89811191 0.0006257387 0)
(0.89937232 0.00042945656 0)
(0.90069382 0.00019803948 0)
(0.90209621 -6.9535247e-05 0)
(0.90355349 -0.00037284347 0)
(0.90507454 -0.00070963286 0)
(0.90666232 -0.0010720529 0)
(0.90833849 -0.0014655578 0)
(0.91010682 -0.0018982492 0)
(0.91198905 -0.0023744665 0)
(0.9139929 -0.002885014 0)
(0.91612414 -0.0034279578 0)
(0.91838629 -0.0040035826 0)
(0.920789 -0.0046129854 0)
(0.92333932 -0.0052534071 0)
(0.9260442 -0.005923769 0)
(0.92890971 -0.0066231292 0)
(0.93194218 -0.0073510423 0)
(0.93514672 -0.0081068189 0)
(0.93852811 -0.0088899151 0)
(0.94208995 -0.0096993412 0)
(0.94583517 -0.010533918 0)
(0.94976555 -0.011391897 0)
(0.95388193 -0.012271136 0)
(0.95818391 -0.013168855 0)
(0.96266993 -0.014081756 0)
(0.96733705 -0.015005879 0)
(0.972181 -0.015936695 0)
(0.97719595 -0.016869035 0)
(0.98237467 -0.017797193 0)
(0.98770827 -0.018714928 0)
(0.99318638 -0.019615577 0)
(0.99879702 -0.020492119 0)
(1.0045267 -0.021337304 0)
(1.0103605 -0.022143759 0)
(1.016282 -0.022904122 0)
(1.0222735 -0.023611167 0)
(1.0283163 -0.024257931 0)
(1.0343903 -0.024837839 0)
(1.0404749 -0.025344816 0)
(1.0465486 -0.025773387 0)
(1.0525893 -0.026118776 0)
(1.0585748 -0.026376975 0)
(1.0644827 -0.02654481 0)
(1.0702908 -0.026619997 0)
(1.0759772 -0.02660117 0)
(1.0815206 -0.026487914 0)
(1.0869005 -0.026280774 0)
(1.0920974 -0.025981258 0)
(1.0970928 -0.025591827 0)
(1.10187 -0.025115876 0)
(1.1064133 -0.024557707 0)
(1.1107091 -0.023922487 0)
(1.1147453 -0.023216206 0)
(1.1185119 -0.022445618 0)
(1.1220005 -0.021618181 0)
(1.1252052 -0.020741988 0)
(1.1281217 -0.019825699 0)
(1.1307481 -0.018878449 0)
(1.1330842 -0.017909786 0)
(1.135132 -0.016929562 0)
(1.1368956 -0.015947871 0)
(1.1383807 -0.014974934 0)
(1.1395952 -0.01402103 0)
(1.1405483 -0.01309638 0)
(1.141251 -0.01221108 0)
(1.1417161 -0.011374969 0)
(1.1419571 -0.010597588 0)
(1.1419893 -0.0098880039 0)
(1.1418286 -0.0092548273 0)
(1.1414919 -0.0087059618 0)
(1.1409967 -0.0082486631 0)
(1.1403608 -0.0078894284 0)
(1.1396022 -0.0076339705 0)
(1.1387388 -0.0074870752 0)
(1.137788 -0.0074525767 0)
(1.1367668 -0.0075332695 0)
(1.1356912 -0.0077310825 0)
(1.1345762 -0.0080469369 0)
(1.1334352 -0.0084810034 0)
(1.1322803 -0.0090325711 0)
(1.1311216 -0.009700361 0)
(1.1299671 -0.010482418 0)
(1.1288228 -0.011376363 0)
(1.1276923 -0.012379315 0)
(1.1265767 -0.013488361 0)
(1.1254748 -0.01470052 0)
(1.1243825 -0.016013136 0)
(1.1232929 -0.017423658 0)
(1.1221961 -0.018930261 0)
(1.1210795 -0.020531463 0)
(1.1199264 -0.022227038 0)
(1.1187173 -0.024017 0)
(1.1174273 -0.025903231 0)
(1.1160282 -0.027887083 0)
(1.1144834 -0.029972359 0)
(1.1127532 -0.032159813 0)
(1.1107836 -0.034453047 0)
(1.1085198 -0.036846098 0)
(1.1058821 -0.039336102 0)
(1.1027997 -0.041895767 0)
(1.0991582 -0.044502975 0)
(1.0948826 -0.047079925 0)
(1.0898186 -0.049567482 0)
(1.0839306 -0.051786775 0)
(1.077026 -0.053634843 0)
(1.0692095 -0.054749284 0)
(1.0602541 -0.055037027 0)
(1.0505698 -0.05380269 0)
(1.0399275 -0.051187826 0)
(1.0291594 -0.04586896 0)
(1.0184561 -0.038771712 0)
(1.0085216 -0.027706311 0)
(1.0022192 -0.014795056 0)
(0.9560044 -0.0004474937 0)
(0.95771943 0.00029603357 0)
(0.95843133 9.3947674e-05 0)
(0.95988521 0.00033629498 0)
(0.9609461 0.00025368839 0)
(0.96235524 0.00029763187 0)
(0.96362159 0.00021294158 0)
(0.96506995 0.00014501047 0)
(0.96648065 1.3044541e-05 0)
(0.96799871 -0.00014079132 0)
(0.96952191 -0.00033857269 0)
(0.97111596 -0.00057033982 0)
(0.97273303 -0.00083570876 0)
(0.97441726 -0.0011348047 0)
(0.97614937 -0.0014691397 0)
(0.97795133 -0.0018458138 0)
(0.97982145 -0.002266841 0)
(0.98177803 -0.0027319208 0)
(0.98382149 -0.0032353151 0)
(0.98595713 -0.0037769638 0)
(0.98818677 -0.004358 0)
(0.99051974 -0.0049797585 0)
(0.99296106 -0.0056392006 0)
(0.99551672 -0.00633475 0)
(0.99819114 -0.0070651675 0)
(1.0009904 -0.0078297047 0)
(1.0039192 -0.0086269485 0)
(1.0069824 -0.0094560799 0)
(1.0101836 -0.010315845 0)
(1.0135259 -0.011205116 0)
(1.0170113 -0.012122286 0)
(1.0206409 -0.0130655 0)
(1.0244149 -0.014032314 0)
(1.0283323 -0.015019828 0)
(1.0323909 -0.01602447 0)
(1.0365875 -0.017042098 0)
(1.0409175 -0.018067874 0)
(1.045375 -0.019096356 0)
(1.049953 -0.020121442 0)
(1.0546429 -0.02113648 0)
(1.0594352 -0.02213428 0)
(1.0643187 -0.023107245 0)
(1.0692813 -0.02404744 0)
(1.0743094 -0.02494674 0)
(1.0793886 -0.025796942 0)
(1.0845032 -0.02658992 0)
(1.0896367 -0.027317752 0)
(1.0947717 -0.027972869 0)
(1.0998903 -0.028548184 0)
(1.1049738 -0.029037217 0)
(1.1100032 -0.029434205 0)
(1.1149593 -0.029734204 0)
(1.1198227 -0.029933169 0)
(1.1245743 -0.030028022 0)
(1.1291952 -0.030016705 0)
(1.1336669 -0.029898216 0)
(1.1379716 -0.029672628 0)
(1.1420923 -0.029341106 0)
(1.1460131 -0.028905888 0)
(1.1497191 -0.02837028 0)
(1.1531966 -0.027738617 0)
(1.1564335 -0.027016229 0)
(1.1594192 -0.026209382 0)
(1.1621444 -0.025325226 0)
(1.1646018 -0.024371722 0)
(1.1667857 -0.023357566 0)
(1.1686921 -0.02229211 0)
(1.1703188 -0.021185275 0)
(1.1716654 -0.020047453 0)
(1.1727331 -0.018889427 0)
(1.1735252 -0.017722259 0)
(1.1740461 -0.016557206 0)
(1.1743023 -0.015405602 0)
(1.1743015 -0.014278783 0)
(1.174053 -0.013187947 0)
(1.1735674 -0.012144096 0)
(1.1728565 -0.011157884 0)
(1.1719332 -0.010239556 0)
(1.1708114 -0.0093988211 0)
(1.1695057 -0.0086447486 0)
(1.1680314 -0.0079856967 0)
(1.1664042 -0.0074292984 0)
(1.1646401 -0.0069820869 0)
(1.1627551 -0.0066495557 0)
(1.1607651 -0.0064360983 0)
(1.1586858 -0.0063453144 0)
(1.1565321 -0.0063794995 0)
(1.154318 -0.0065400002 0)
(1.1520567 -0.0068269413 0)
(1.14976 -0.0072395487 0)
(1.1474381 -0.0077759545 0)
(1.1450999 -0.0084334722 0)
(1.1427526 -0.0092085946 0)
(1.1404014 -0.010097623 0)
(1.1380497 -0.011096251 0)
(1.1356986 -0.012200156 0)
(1.1333473 -0.013404634 0)
(1.1309925 -0.014705214 0)
(1.1286291 -0.016097562 0)
(1.1262494 -0.017578056 0)
(1.1238434 -0.019143284 0)
(1.121398 -0.020790941 0)
(1.1188978 -0.022518935 0)
(1.1163233 -0.024326635 0)
(1.1136523 -0.026212845 0)
(1.1108561 -0.02817809 0)
(1.1079037 -0.030219876 0)
(1.104753 -0.032337318 0)
(1.1013624 -0.034520513 0)
(1.0976707 -0.036760831 0)
(1.0936263 -0.039027606 0)
(1.0891439 -0.041293148 0)
(1.0841734 -0.043481456 0)
(1.0786034 -0.045532542 0)
(1.0724219 -0.047285503 0)
(1.0654968 -0.048647869 0)
(1.0579324 -0.049312338 0)
(1.049593 -0.049204432 0)
(1.0408175 -0.047762225 0)
(1.0315399 -0.045097565 0)
(1.0223848 -0.040200822 0)
(1.0137428 -0.033704504 0)
(1.006036 -0.024116683 0)
(1.0014119 -0.01268623 0)
(1.0063119 -0.0012006446 0)
(1.0085124 -0.00057846895 0)
(1.0094347 -0.00078553222 0)
(1.0112536 -0.00059622671 0)
(1.0125778 -0.00070323581 0)
(1.0142909 -0.00069458592 0)
(1.0158179 -0.0008065637 0)
(1.0175302 -0.00090248576 0)
(1.0191829 -0.0010596581 0)
(1.0209368 -0.0012365836 0)
(1.0226855 -0.0014564398 0)
(1.0245017 -0.0017105042 0)
(1.0263406 -0.0020076951 0)
(1.0282404 -0.0023486046 0)
(1.0301841 -0.0027314058 0)
(1.0321905 -0.0031569404 0)
(1.0342511 -0.0036231744 0)
(1.036375 -0.0041324031 0)
(1.0385615 -0.0046859554 0)
(1.0408199 -0.0052853277 0)
(1.0431524 -0.0059272278 0)
(1.0455641 -0.0066109922 0)
(1.0480578 -0.007335342 0)
(1.0506387 -0.0080998619 0)
(1.0533109 -0.0089026159 0)
(1.0560785 -0.0097423847 0)
(1.058945 -0.010617574 0)
(1.0619136 -0.011526856 0)
(1.0649865 -0.012468553 0)
(1.0681653 -0.013440934 0)
(1.0714508 -0.014441794 0)
(1.0748426 -0.015468599 0)
(1.0783395 -0.016518218 0)
(1.0819392 -0.017587013 0)
(1.0856382 -0.018670659 0)
(1.0894322 -0.019764234 0)
(1.0933157 -0.020862108 0)
(1.097282 -0.021958033 0)
(1.1013233 -0.023045111 0)
(1.1054309 -0.024115897 0)
(1.1095949 -0.025162432 0)
(1.1138046 -0.026176376 0)
(1.1180482 -0.027149087 0)
(1.1223132 -0.028071779 0)