/*--------------------------------*- C++ -*----------------------------------*\
| =========                 |                                                 |
| \\      /  F ield         | foam-extend: Open Source CFD                    |
|  \\    /   O peration     | Version:     4.1                                |
|   \\  /    A nd           | Web:         http://www.foam-extend.org         |
|    \\/     M anipulation  |                                                 |
\*---------------------------------------------------------------------------*/
FoamFile
{
    version     2.0;
    format      ascii;
    class       surfaceScalarField;
    location    "0.05";
    object      phi;
}
// * * * * * * * * * * * * * * * * * * * * * * * * * * * * * * * * * * * * * //

dimensions      [0 3 -1 0 0 0 0];

internalField   nonuniform List<scalar> 
32976
(
-0.24545763
2.5748404e-05
-0.24548339
2.5764541e-05
-0.24550927
2.5881433e-05
-0.24553538
2.6103021e-05
-0.24556181
2.6429778e-05
-0.24558867
2.6863635e-05
-0.24561608
2.7406057e-05
-0.24564414
2.8059797e-05
-0.24567296
2.8827113e-05
-0.24570267
2.9711577e-05
-0.24573339
3.0716221e-05
-0.24576524
3.1845441e-05
-0.24579834
3.3103025e-05
-0.24583283
3.4494184e-05
-0.24586886
3.6023438e-05
-0.24590655
3.7696798e-05
-0.24594607
3.9519471e-05
-0.24598757
4.1498237e-05
-0.24603121
4.3638927e-05
-0.24607716
4.5949026e-05
-0.24612559
4.8434898e-05
-0.2461767
5.110464e-05
-0.24623066
5.3965006e-05
-0.24628769
5.7024564e-05
-0.24634798
6.0290262e-05
-0.24641175
6.3770933e-05
-0.24647922
6.7473445e-05
-0.24655063
7.1406602e-05
-0.24662621
7.5576825e-05
-0.2467062
7.9992495e-05
-0.24679086
8.4659088e-05
-0.24688044
8.9583659e-05
-0.24697521
9.4771582e-05
-0.24707544
0.00010022599
-0.24718139
0.00010595151
-0.24729334
0.00011194806
-0.24741156
0.00011821718
-0.24753631
0.00012475474
-0.24766787
0.00013155798
-0.24780649
0.00013861733
-0.24795241
0.00014592424
-0.24810587
0.00015346222
-0.24826709
0.00016121427
-0.24843624
0.00016915658
-0.2486135
0.00017726098
-0.248799
0.00018549346
-0.24899281
0.00019381368
-0.24919499
0.00020217481
-0.24940551
0.00021052217
-0.2496243
0.00021879354
-0.24985122
0.00022691828
-0.25008604
0.00023481696
-0.25032844
0.00024240102
-0.25057801
0.000249573
-0.25083424
0.00025622555
-0.25109648
0.00026224256
-0.25136398
0.00026749898
-0.25163584
0.00027186165
-0.25191103
0.00027519002
-0.25218837
0.00027733805
-0.25246652
0.0002781547
-0.25274401
0.00027748711
-0.25301919
0.00027518254
-0.25329028
0.00027109136
-0.25355535
0.00026507038
-0.25381234
0.00025698649
-0.25405906
0.00024672122
-0.25429323
0.00023417406
-0.2545125
0.00021926801
-0.25471446
0.00020195359
-0.25489667
0.0001822133
-0.25505673
0.00016006572
-0.2551923
0.00013556934
-0.25530113
0.00010882464
-0.25538111
7.9976556e-05
-0.25543032
4.9214805e-05
-0.25544709
1.6773986e-05
-0.25543003
-1.7067188e-05
-0.25537803
-5.1994603e-05
-0.25529037
-8.7662312e-05
-0.25516667
-0.00012369756
-0.25500696
-0.0001597089
-0.25481167
-0.0001952951
-0.25458161
-0.00023005463
-0.25431802
-0.00026359523
-0.25402247
-0.00029554342
-0.25369692
-0.00032555327
-0.25334361
-0.00035331422
-0.25296505
-0.00037855764
-0.25256399
-0.00040106165
-0.25214333
-0.00042065525
-0.25170611
-0.0004372182
-0.25125543
-0.00045068257
-0.2507944
-0.00046103013
-0.25032611
-0.0004682895
-0.24985358
-0.00047253184
-0.24937971
-0.00047386561
-0.24890728
-0.00047243182
-0.24843889
-0.00046839607
-0.24797694
-0.00046194441
-0.24752367
-0.00045327648
-0.24708107
-0.00044260009
-0.24665094
-0.00043012594
-0.24623488
-0.00041606393
-0.24583426
-0.00040061749
-0.24545028
-0.00038398212
-0.24508393
-0.00036634182
-0.24473607
-0.00034786735
-0.24440735
-0.00032871465
-0.24409833
-0.00030902463
-0.24380941
-0.00028892138
-0.24354089
-0.00026851355
-0.243293
-0.00024789392
-0.24306586
-0.00022714014
-0.24285954
-0.00020631544
-0.24267407
-0.00018546998
-0.24250943
-0.00016464107
-0.24236558
-0.00014385523
-0.24224245
-0.00012312889
-0.24213998
-0.00010246979
-0.2420581
-8.1878378e-05
-0.24199675
-6.1349691e-05
-0.24195588
-4.0871173e-05
-2.042782e-05
-0.24546771
5.1449752e-05
-0.24549342
5.1482853e-05
-0.24551926
5.1716451e-05
-0.24554531
5.215917e-05
-0.2455717
5.281202e-05
-0.24559851
5.3678882e-05
-0.24562587
5.4762694e-05
-0.24565388
5.6068962e-05
-0.24568265
5.7602202e-05
-0.24571231
5.9369561e-05
-0.24574297
6.1377103e-05
-0.24577476
6.3633619e-05
-0.2458078
6.6146691e-05
-0.24584224
6.8926742e-05
-0.2458782
7.1982814e-05
-0.24591583
7.5326935e-05
-0.24595528
7.8969527e-05
-0.2459967
8.2924152e-05
-0.24604027
8.7202487e-05
-0.24608614
9.1819511e-05
-0.24613449
9.6787966e-05
-0.24618551
0.00010212406
-0.24623938
0.00010784133
-0.24629632
0.00011395693
-0.24635651
0.00012048479
-0.24642018
0.0001274426
-0.24648755
0.00013484414
-0.24655885
0.00014270707
-0.24663432
0.00015104428
-0.2467142
0.00015987259
-0.24679875
0.00016920303
-0.24688821
0.00017904977
-0.24698286
0.00018942368
-0.24708297
0.00020033111
-0.2471888
0.00021178142
-0.24730062
0.00022377457
-0.24741872
0.00023631379
-0.24754336
0.00024939099
-0.2476748
0.0002630008
-0.24781331
0.00027712427
-0.24795913
0.00029174448
-0.24811249
0.00030682868
-0.24827362
0.00032234308
-0.24844271
0.00033824033
-0.24861991
0.0003544643
-0.24880536
0.00037094722
-0.24899916
0.00038760867
-0.24920134
0.00040435521
-0.24941189
0.00042107774
-0.24963075
0.00043765203
-0.24985777
0.00045393695
-0.25009273
0.00046977382
-0.25033531
0.00048498556
-0.25058512
0.00049937729
-0.25084163
0.00051273425
-0.25110421
0.00052482401
-0.2513721
0.00053539626
-0.25164443
0.00054418417
-0.25192014
0.00055090612
-0.25219807
0.00055526926
-0.25247689
0.00055697059
-0.25275511
0.00055570331
-0.25303108
0.00055116061
-0.25330303
0.00054304174
-0.25356902
0.00053105867
-0.25382698
0.00051494334
-0.25407471
0.00049445693
-0.25430994
0.00046939641
-0.25453027
0.00043960578
-0.2547333
0.00040498413
-0.25491659
0.00036549472
-0.25507769
0.00032117315
-0.25521426
0.00027213522
-0.25532402
0.00021858115
-0.25540484
0.00016080064
-0.2554548
9.917366e-05
-0.2554722
3.4170577e-05
-0.25545561
-3.3650781e-05
-0.25540395
-0.00010365964
-0.25531645
-0.00017516094
-0.25519274
-0.00024740565
-0.25503284
-0.00031960701
-0.25483718
-0.00039095843
-0.25460658
-0.00046065266
-0.25434227
-0.00052790102
-0.25404586
-0.00059195268
-0.25371931
-0.00065211229
-0.25336486
-0.00070775584
-0.25298508
-0.0007583438
-0.25258271
-0.00080343091
-0.25216069
-0.00084267438
-0.25172207
-0.00087583377
-0.25126998
-0.00090277382
-0.25080755
-0.0009234594
-0.25033789
-0.00093794953
-0.24986404
-0.00094638874
-0.24938891
-0.0009489964
-0.24891528
-0.00094605713
-0.24844577
-0.00093790479
-0.2479828
-0.00092491411
-0.24752859
-0.00090748684
-0.24708515
-0.00088604087
-0.24665428
-0.00086099961
-0.24623756
-0.00083278466
-0.24583637
-0.00080180435
-0.2454519
-0.00076845085
-0.24508515
-0.00073309313
-0.24473694
-0.00069607334
-0.24440795
-0.00065770378
-0.24409871
-0.00061826653
-0.24380962
-0.0005780098
-0.24354099
-0.00053715079
-0.243293
-0.00049587483
-0.24306581
-0.00045433689
-0.24285946
-0.00041266302
-0.24267398
-0.0003709531
-0.24250934
-0.00032928126
-0.24236549
-0.00028769996
-0.24224238
-0.00024624156
-0.24213993
-0.00020492102
-0.24205807
-0.00016373858
-0.24199673
-0.00012268381
-0.24195587
-8.1731147e-05
-4.0850282e-05
-0.24548716
7.7060837e-05
-0.24551279
7.7110346e-05
-0.24553854
7.7459971e-05
-0.2455645
7.8122853e-05
-0.24559079
7.9100473e-05
-0.24561751
8.0398663e-05
-0.24564477
8.2021834e-05
-0.24567268
8.3978247e-05
-0.24570135
8.6274676e-05
-0.2457309
8.8921845e-05
-0.24576145
9.1928855e-05
-0.24579313
9.5308893e-05
-0.24582605
9.9073336e-05
-0.24586037
0.00010323783
-0.2458962
0.00010781594
-0.2459337
0.00011282573
-0.24597301
0.00011828285
-0.24601429
0.00012420764
-0.24605771
0.00013061767
-0.24610342
0.00013753541
-0.24615162
0.00014498003
-0.24620247
0.00015297588
-0.24625617
0.0001615433
-0.24631292
0.00017070811
-0.24637293
0.00018049125
-0.2464364
0.00019091936
-0.24650357
0.0002020132
-0.24657467
0.00021379938
-0.24664992
0.00022629736
-0.24672958
0.00023953252
-0.2468139
0.0002535216
-0.24690313
0.00026828605
-0.24699755
0.00028384235
-0.24709742
0.00030020034
-0.24720301
0.00031737431
-0.2473146
0.00033536452
-0.24743247
0.00035417617
-0.24755687
0.00037379748
-0.24768809
0.00039422086
-0.24782639
0.0004154183
-0.24797201
0.00043736493
-0.24812519
0.00046001213
-0.24828616
0.0004833098
-0.2484551
0.00050718747
-0.2486322
0.00053156155
-0.24881759
0.00055633102
-0.24901135
0.00058137583
-0.24921355
0.00060655644
-0.24942419
0.00063170978
-0.24964318
0.00065665
-0.24987041
0.00068116586
-0.25010566
0.00070501967
-0.25034862
0.00072794605
-0.25059889
0.0007496527
-0.25085598
0.00076981731
-0.25111924
0.00078809083
-0.25138794
0.00080409705
-0.2516612
0.00081743473
-0.25193797
0.00082767997
-0.25221709
0.00083439168
-0.25249723
0.00083711309
-0.25277691
0.00083538123
-0.25305448
0.00082873266
-0.25332815
0.00081671257
-0.25359598
0.00079888478
-0.25385588
0.00077484271
-0.25410565
0.00074422331
-0.25434297
0.00070671706
-0.25456545
0.00066208496
-0.25477063
0.00061017076
-0.25495605
0.00055091487
-0.25511925
0.00048436678
-0.25525781
0.00041069708
-0.25536943
0.0003302041
-0.25545195
0.0002433217
-0.2555034
0.00015062075
-0.25552204
5.2809038e-05
-0.25550641
-4.927379e-05
-0.2554554
-0.00015467517
-0.25536822
-0.00026234468
-0.25524447
-0.00037114994
-0.25508418
-0.00047990102
-0.25488776
-0.00058737758
-0.25465605
-0.00069235805
-0.2543903
-0.00079364897
-0.25409214
-0.0008901143
-0.25376355
-0.00098070233
-0.25340684
-0.0010644697
-0.25302458
-0.0011406017
-0.25261958
-0.0012084265
-0.25219483
-0.0012674284
-0.25175342
-0.0013172466
-0.25129851
-0.0013576801
-0.25083329
-0.0013886797
-0.2503609
-0.0014103384
-0.24988441
-0.0014228788
-0.24940677
-0.0014266361
-0.24893079
-0.0014220439
-0.24845908
-0.0014096098
-0.24799409
-0.0013899024
-0.24753805
-0.0013635306
-0.24709296
-0.0013311269
-0.24666063
-0.0012933314
-0.24624263
-0.0012507811
-0.24584035
-0.001204092
-0.24545494
-0.0011538553
-0.24508741
-0.0011006267
-0.24473856
-0.0010449211
-0.24440906
-0.00098720797
-0.24409941
-0.00092791086
-0.24381002
-0.0008674022
-0.24354116
-0.00080600746
-0.24329303
-0.00074400403
-0.24306575
-0.00068162353
-0.24285936
-0.00061905396
-0.24267386
-0.00055644397
-0.24250924
-0.00049390348
-0.24236543
-0.00043150987
-0.24224236
-0.00036931026
-0.24213996
-0.00030732572
-0.24205814
-0.00024555519
-0.24199684
-0.00018398161
-0.24195601
-0.0001225654
-6.1259623e-05
-0.2455155
0.00010253636
-0.24554099
0.00010260202
-0.2455666
0.00010306678
-0.24559242
0.00010394837
-0.24561857
0.00010524877
-0.24564515
0.00010697576
-0.24567226
0.00010913523
-0.24570002
0.0001117382
-0.24572854
0.00011479371
-0.24575794
0.00011831605
-0.24578832
0.00012231737
-0.24581983
0.00012681525
-0.24585258
0.00013182489
-0.24588671
0.00013736713
-0.24592236
0.00014346011
-0.24595966
0.00015012791
-0.24599877
0.00015739144
-0.24603984
0.00016527786
-0.24608303
0.00017381061
-0.24612851
0.00018301975
-0.24617646
0.00019293088
-0.24622707
0.00020357654
-0.24628051
0.00021498398
-0.24633699
0.00022718769
-0.24639671
0.00024021576
-0.24645989
0.00025410387
-0.24652676
0.00026887987
-0.24659754
0.00028457945
-0.24667247
0.00030122883
-0.2467518
0.00031886211
-0.24683578
0.00033750194
-0.24692467
0.00035717728
-0.24701874
0.00037791055
-0.24711826
0.00039971531
-0.24722349
0.00042261116
-0.24733473
0.00044659902
-0.24745224
0.00047168648
-0.2475763
0.00049785855
-0.24770718
0.00052510588
-0.24784516
0.000553392
-0.24799048
0.00058268463
-0.24814339
0.00061291997
-0.24830411
0.00064403221
-0.24847285
0.00067592852
-0.24864979
0.00070849855
-0.24883506
0.00074160875
-0.24902879
0.00077510023
-0.24923102
0.00080878805
-0.24944177
0.00084245585
-0.24966097
0.00087585682
-0.24988852
0.00090871014
-0.2501242
0.00094069955
-0.25036772
0.00097147158
-0.25061871
0.0010006366
-0.25087665
0.0010277646
-0.25114095
0.0010523894
-0.25141086
0.001074008
-0.25168551
0.0010920835
-0.25196388
0.0011060481
-0.2522448
0.0011153102
-0.25252694
0.0011192566
-0.25280882
0.0011172647
-0.2530888
0.0011087107
-0.25336507
0.0010929813
-0.25363567
0.001069487
-0.25389851
0.0010376774
-0.25415134
0.00099705931
-0.25439184
0.00094721077
-0.25461756
0.00088780364
-0.25482601
0.00081862046
-0.25501466
0.00073957328
-0.25518102
0.00065072067
-0.2553226
0.00055228427
-0.25543706
0.00044465799
-0.25552216
0.00032841896
-0.25557586
0.00020432976
-0.25559639
7.3338163e-05
-0.25558224
-6.3429669e-05
-0.25553222
-0.00020469203
-0.25544553
-0.00034903428
-0.25532175
-0.00049493002
-0.25516088
-0.00064077421
-0.25496334
-0.00078492002
-0.25472998
-0.00092571854
-0.25446207
-0.0010615587
-0.25416127
-0.0011909074
-0.25382963
-0.0013123458
-0.2534695
-0.0014246025
-0.25308352
-0.0015265804
-0.25267457
-0.0016173772
-0.25224569
-0.0016963015
-0.25180007
-0.0017628728
-0.25134092
-0.0018168265
-0.2508715
-0.0018581034
-0.250395
-0.0018868364
-0.24991454
-0.0019033328
-0.24943313
-0.0019080515
-0.24895359
-0.0019015833
-0.24847858
-0.0018846175
-0.24801056
-0.0018579247
-0.24755176
-0.0018223285
-0.24710421
-0.0017786828
-0.24666969
-0.0017278508
-0.24624978
-0.0016706897
-0.24584584
-0.001608028
-0.24545904
-0.0015406594
-0.24509033
-0.0014693289
-0.24474053
-0.001394726
-0.24441026
-0.0013174786
-0.24410002
-0.0012381523
-0.24381018
-0.0011572438
-0.243541
-0.0010751864
-0.24329265
-0.00099234886
-0.24306524
-0.0009090383
-0.24285879
-0.00082550345
-0.24267329
-0.00074194029
-0.2425087
-0.00065849298
-0.24236495
-0.00057526219
-0.24224195
-0.00049230817
-0.24213962
-0.00040965639
-0.24205787
-0.00032730279
-0.24199663
-0.00024522209
-0.24195584
-0.000163359
-8.1648122e-05
-0.2455532
0.00012783196
-0.24557851
0.00012791352
-0.24560394
0.00012849222
-0.24562958
0.00012959058
-0.24565554
0.00013121109
-0.24568193
0.00013336352
-0.24570885
0.00013605524
-0.24573641
0.0001393
-0.24576473
0.00014310912
-0.24579391
0.00014750048
-0.24582409
0.00015248926
-0.24585537
0.00015809745
-0.24588789
0.00016434405
-0.24592178
0.00017125516
-0.24595717
0.00017885347
-0.24599421
0.0001871691
-0.24603305
0.00019622824
-0.24607383
0.00020606491
-0.24611673
0.00021670849
-0.24616191
0.0002281966
-0.24620954
0.00024056138
-0.24625981
0.00025384362
-0.2463129
0.00026807754
-0.24636902
0.00028330643
-0.24642837
0.00029956563
-0.24649116
0.00031689996
-0.24655763
0.00033534458
-0.24662799
0.0003549444
-0.2467025
0.0003757326
-0.24678139
0.00039775227
-0.24686492
0.00042103222
-0.24695335
0.00044560928
-0.24704695
0.0004715121
-0.24714599
0.00049875841
-0.24725076
0.00052737354
-0.24736152
0.0005573596
-0.24747856
0.00058872709
-0.24760216
0.00062145845
-0.24773259
0.00065554323
-0.24787014
0.00069093721
-0.24801506
0.00072760154
-0.24816759
0.000765458
-0.24832799
0.00080442606
-0.24849645
0.00084439139
-0.24867317
0.00088521789
-0.2488583
0.0009267405
-0.24905196
0.00096876243
-0.24925423
0.0010110544
-0.24946512
0.0010533476
-0.2496846
0.0010953352
-0.24991256
0.0011366675
-0.25014881
0.0011769503
-0.25039308
0.0012157425
-0.250645
0.0012525571
-0.25090409
0.0012868562
-0.25116976
0.0013180558
-0.25144127
0.0013455253
-0.25171778
0.0013685904
-0.25199827
0.0013865371
-0.25228158
0.0013986204
-0.25256639
0.001404067
-0.25285122
0.0014020905
-0.25313441
0.0013919013
-0.25341415
0.0013727215
-0.25368846
0.001343802
-0.25395523
0.001304441
-0.25421217
0.0012540075
-0.25445692
0.0011919586
-0.25468699
0.001117869
-0.25489982
0.0010314519
-0.25509283
0.00093258334
-0.25526343
0.00082132452
-0.25540909
0.0006979428
-0.25552736
0.00056292419
-0.25561593
0.00041698771
-0.25567268
0.00026108862
-0.25569576
9.6418308e-05
-0.25568359
-7.5604101e-05
-0.25563492
-0.00025335792
-0.25554891
-0.00043505232
-0.25542508
-0.00061875248
-0.25526344
-0.00080242206
-0.25506439
-0.00098397045
-0.2548288
-0.0011613036
-0.25455798
-0.0013323757
-0.25425365
-0.0014952398
-0.2539179
-0.001648096
-0.25355317
-0.0017893325
-0.25316219
-0.001917561
-0.25274792
-0.0020316421
-0.25231352
-0.0021307066
-0.25186224
-0.0022141542
-0.2513974
-0.0022816601
-0.25092235
-0.0023331608
-0.25044035
-0.0023688371
-0.24995459
-0.0023890903
-0.24946813
-0.0023945137
-0.24898384
-0.0023858661
-0.24850443
-0.0023640298
-0.24803237
-0.0023299883
-0.24756991
-0.0022847898
-0.24711907
-0.0022295192
-0.24668165
-0.0021652708
-0.24625921
-0.0020931294
-0.2458531
-0.0020141414
-0.24546445
-0.0019293078
-0.24509421
-0.0018395666
-0.24474315
-0.0017457842
-0.24441188
-0.0016487485
-0.24410087
-0.0015491679
-0.24381045
-0.0014476632
-0.24354086
-0.0013447752
-0.24329224
-0.0012409626
-0.24306468
-0.0011366068
-0.24285816
-0.0010320155
-0.24267267
-0.00092742996
-0.24250814
-0.00082302658
-0.24236447
-0.0007189271
-0.24224158
-0.00061520268
-0.24213936
-0.00051188092
-0.24205771
-0.00040895251
-0.24199655
-0.00030638175
-0.24195581
-0.00020409546
-0.00010200731
-0.24560008
0.00015290496
-0.24562516
0.00015300084
-0.24565036
0.00015369175
-0.24567578
0.00015500439
-0.24570151
0.0001569417
-0.24572766
0.00015951536
-0.24575434
0.00016273424
-0.24578165
0.00016661483
-0.24580971
0.00017117074
-0.24583864
0.00017642341
-0.24586854
0.00018239107
-0.24589954
0.00018910014
-0.24593177
0.00019657343
-0.24596536
0.00020484229
-0.24600044
0.00021393398
-0.24603715
0.00022388471
-0.24607565
0.00023472597
-0.24611609
0.00024649865
-0.24615861
0.00025923813
-0.24620341
0.00027298967
-0.24625064
0.00028779198
-0.24630049
0.00030369422
-0.24635315
0.00032073765
-0.24640882
0.0003389745
-0.2464677
0.00035844749
-0.24653001
0.00037921076
-0.24659597
0.00040130694
-0.24666582
0.00042479041
-0.24673979
0.00044970158
-0.24681813
0.0004760928
-0.24690109
0.00050399943
-0.24698895
0.00053346649
-0.24708197
0.00056452935
-0.24718042
0.00059721041
-0.24728459
0.00063154127
-0.24739476
0.00066752586
-0.24751121
0.00070517829
-0.24763423
0.00074447918
-0.2477641
0.00078541783
-0.24790111
0.00082794319
-0.24804552
0.00087201079
-0.24819759
0.00091752911
-0.24835757
0.00096440394
-0.24852567
0.0010125007
-0.24870212
0.0010616588
-0.24888706
0.0011116827
-0.24908063
0.0011623393
-0.24928294
0.001213356
-0.249494
0.0012644129
-0.24971381
0.0013151442
-0.24994228
0.0013651322
-0.25017923
0.0014139057
-0.25042442
0.0014609362
-0.25067751
0.0015056399
-0.25093802
0.0015473705
-0.25120539
0.0015854258
-0.25147891
0.0016190459
-0.25175774
0.0016474173
-0.25204088
0.001669677
-0.25232718
0.0016849232
-0.25261533
0.0016922178
-0.25290385
0.0016906051
-0.25319107
0.0016791233
-0.25347517
0.0016568226
-0.25375415
0.0016227855
-0.25402586
0.0015761496
-0.25428799
0.0015161361
-0.2545381
0.001442071
-0.25477365
0.0013534208
-0.25499202
0.0012498193
-0.25519053
0.0011310969
-0.25536652
0.00099730871
-0.25551734
0.0008487609
-0.25564044
0.00068602688
-0.25573342
0.00050996556
-0.25579405
0.00032172596
-0.25582038
0.00012274746
-0.25581074
-8.5249558e-05
-0.2557638
-0.00030029291
-0.25567865
-0.0005202005
-0.2555548
-0.00074261074
-0.25539218
-0.00096503528
-0.25519124
-0.0011849175
-0.25495284
-0.0013996955
-0.25467835
-0.0016068659
-0.25436955
-0.0018040479
-0.2540286
-0.0019890412
-0.25365805
-0.0021598785
-0.25326075
-0.0023148685
-0.25283976
-0.0024526274
-0.25239836
-0.0025721042
-0.25193994
-0.0026725797
-0.25146793
-0.0027536733
-0.25098576
-0.0028153248
-0.25049683
-0.0028577729
-0.25000439
-0.0028815255
-0.24951158
-0.0028873236
-0.24902134
-0.0028761082
-0.2485364
-0.0028489691
-0.24805927
-0.0028071161
-0.24759223
-0.0027518353
-0.24713729
-0.0026844543
-0.24669625
-0.0026063087
-0.24627066
-0.0025187198
-0.24586184
-0.0024229593
-0.24547091
-0.0023202413
-0.24509878
-0.002211701
-0.24474617
-0.0020983849
-0.24441368
-0.0019812426
-0.24410172
-0.0018611261
-0.24381061
-0.0017387802
-0.24354053
-0.0016148522
-0.2432916
-0.0014898897
-0.24306386
-0.0013643461
-0.24285729
-0.0012385859
-0.24267183
-0.0011128933
-0.24250738
-0.00098747418
-0.24236384
-0.00086246857
-0.24224109
-0.00073795574
-0.242139
-0.00061396257
-0.24205748
-0.00049047173
-0.24199643
-0.00036743428
-0.24195577
-0.00024475639
-0.00012232781
-0.24565629
0.00017770894
-0.24568111
0.00017781969
-0.24570604
0.00017862121
-0.24573118
0.00018014524
-0.24575663
0.00018239536
-0.2457825
0.0001853852
-0.24580889
0.00018912514
-0.24583591
0.00019363443
-0.24586367
0.00019892893
-0.24589228
0.00020503365
-0.24592186
0.00021196993
-0.24595253
0.00021976854
-0.24598441
0.00022845619
-0.24601764
0.00023806944
-0.24605234
0.00024864018
-0.24608867
0.00026021069
-0.24612676
0.00027281784
-0.24616677
0.00028650941
-0.24620886
0.00030132683
-0.24625319
0.00031732307
-0.24629994
0.00033454352
-0.2463493
0.00035304574
-0.24640144
0.00037287822
-0.24645656
0.00039410222
-0.24651488
0.00041676803
-0.24657661
0.0004409393
-0.24664197
0.00046666635
-0.2467112
0.00049401331
-0.24678452
0.00052302812
-0.2468622
0.00055377274
-0.24694449
0.00058628949
-0.24703166
0.00062063206
-0.24712397
0.00065684305
-0.24722171
0.00069495012
-0.24732516
0.00073499181
-0.24743461
0.00077697463
-0.24755035
0.00082091711
-0.24767267
0.00086679898
-0.24780186
0.00091461027
-0.24793821
0.00096429423
-0.248082
0.0010158019
-0.2482335
0.0010690298
-0.24839297
0.0011238714
-0.24856064
0.0011801732
-0.24873674
0.0012377517
-0.24892144
0.0012963826
-0.24911489
0.0013557976
-0.24931722
0.0014156826
-0.24952848
0.001475668
-0.24974866
0.0015353304
-0.24997771
0.0015941855
-0.2502155
0.0016516858
-0.25046178
0.0017072165
-0.25071623
0.0017600968
-0.25097843
0.0018095723
-0.25124783
0.0018548215
-0.25152374
0.0018949538
-0.25180533
0.0019290143
-0.25209165
0.0019559879
-0.25238153
0.0019748115
-0.25267369
0.0019843769
-0.25296664
0.0019835526
-0.25325871
0.0019711967
-0.25354807
0.0019461784
-0.25383268
0.0019074017
-0.25411037
0.0018538323
-0.25437876
0.0017845313
-0.25463537
0.0016986807
-0.25487758
0.0015956263
-0.25510267
0.0014749089
-0.25530787
0.0013363017
-0.25549041
0.0011798425
-0.25564751
0.0010058679
-0.25577652
0.00081503244
-0.25587488
0.00060833217
-0.25594027
0.00038711087
-0.25597058
0.0001530611
-0.25596405
-9.1785602e-05
-0.25591925
-0.00034509041
-0.25583519
-0.00060426148
-0.25571131
-0.00086648776
-0.25554754
-0.0011288033
-0.2553443
-0.0013881578
-0.2551025
-0.0016414934
-0.25482355
-0.0018858217
-0.2545093
-0.0021183014
-0.25416203
-0.0023363093
-0.2537844
-0.0025375035
-0.2533794
-0.0027198753
-0.25295024
-0.0028817872
-0.25250034
-0.0030220025
-0.25203323
-0.003139684
-0.25155251
-0.0032344008
-0.25106172
-0.0033061058
-0.25056439
-0.0033551086
-0.25006387
-0.003382039
-0.2495634
-0.0033878023
-0.24906596
-0.0033735398
-0.24857437
-0.0033405658
-0.24809115
-0.0032903339
-0.2476186
-0.0032243836
-0.24715876
-0.0031442995
-0.24671339
-0.0030516713
-0.24628405
-0.0029480674
-0.24587201
-0.0028349936
-0.24547837
-0.0027138837
-0.24510399
-0.0025860755
-0.24474958
-0.002452799
-0.24441566
-0.0023151675
-0.2441026
-0.0021741773
-0.24381069
-0.0020306972
-0.24354006
-0.0018854796
-0.24329079
-0.0017391591
-0.24306288
-0.001592259
-0.24285626
-0.0014451976
-0.24267086
-0.0012982991
-0.24250654
-0.0011517954
-0.24236316
-0.0010058417
-0.2422406
-0.00086052173
-0.2421387
-0.00071585838
-0.24205735
-0.00057182283
-0.24199644
-0.00042834963
-0.24195587
-0.00028532093
-0.00014259898
-0.24572134
0.00020220499
-0.24574584
0.00020232755
-0.24577046
0.00020323705
-0.24579528
0.00020496896
-0.24582042
0.00020752722
-0.24584596
0.00021092737
-0.24587201
0.00021518127
-0.24589869
0.00022031091
-0.2459261
0.00022633444
-0.24595434
0.00023328045
-0.24598355
0.00024117333
-0.24601383
0.00025004829
-0.2460453
0.00025993587
-0.24607811
0.00027087792
-0.24611238
0.00028291097
-0.24614826
0.00029608339
-0.24618588
0.00031043745
-0.24622539
0.00032602789
-0.24626697
0.00034290226
-0.24631077
0.00036112128
-0.24635696
0.00038073713
-0.24640573
0.00040181591
-0.24645727
0.00042441343
-0.24651177
0.00044860014
-0.24656943
0.00047443413
-0.24663048
0.00050198873
-0.24669514
0.00053132228
-0.24676363
0.00056250889
-0.24683621
0.00059560445
-0.24691312
0.0006306809
-0.24699462
0.000667788
-0.24708097
0.00070698863
-0.24717246
0.00074833325
-0.24726937
0.00079185545
-0.24737198
0.0008376015
-0.24748058
0.00088558134
-0.24759549
0.00093581888
-0.24771698
0.00098829405
-0.24784537
0.0010429987
-0.24798095
0.0010998718
-0.24812401
0.0011588612
-0.24827483
0.001219853
-0.24843369
0.0012827298
-0.24860083
0.0013473211
-0.2487765
0.001413422
-0.2489609
0.0014807813
-0.2491542
0.0015490976
-0.24935654
0.0016180169
-0.24956799
0.0016871218
-0.24978859
0.0017559328
-0.25001831
0.0018239007
-0.25025703
0.0018904028
-0.25050455
0.0019547388
-0.25076058
0.0020161318
-0.25102473
0.0020737188
-0.25129647
0.0021265582
-0.25157514
0.0021736275
-0.25185995
0.0022138275
-0.25214995
0.0022459873
-0.25244402
0.0022688779
-0.25274086
0.0022812148
-0.25303899
0.0022816829
-0.25333674
0.0022689511
-0.25363226
0.0022416971
-0.25392349
0.0021986343
-0.2542082
0.0021385429
-0.25448398
0.0020603094
-0.25474826
0.0019629568
-0.25499832
0.0018456937
-0.25523137
0.0017079533
-0.2554445
0.0015494359
-0.25563481
0.0013701495
-0.25579939
0.0011704498
-0.25593542
0.00095106472
-0.25604022
0.00071312371
-0.25611127
0.00045816606
-0.25614635
0.00018814338
-0.25614355
-9.4590126e-05
-0.25610133
-0.00038731083
-0.25601859
-0.0006869951
-0.25589473
-0.00099035516
-0.25572961
-0.0012939165
-0.25552367
-0.0015941019
-0.25527784
-0.001887323
-0.25499359
-0.0021700727
-0.25467287
-0.0024390179
-0.2543181
-0.0026910848
-0.25393207
-0.0029235336
-0.25351792
-0.0031340211
-0.25307906
-0.003320645
-0.25261909
-0.0034819785
-0.2521417
-0.0036170679
-0.25165066
-0.0037254394
-0.2511497
-0.0038070708
-0.25064245
-0.0038623588
-0.25013241
-0.0038920735
-0.24962291
-0.0038973055
-0.24911703
-0.0038794173
-0.24861763
-0.0038399693
-0.24812728
-0.0037806789
-0.24764831
-0.0037033582
-0.24718274
-0.0036098656
-0.24673235
-0.0035020598
-0.24629865
-0.0033817687
-0.2458829
-0.0032507426
-0.24548614
-0.003110643
-0.2451092
-0.0029630158
-0.24475272
-0.0028092785
-0.24441718
-0.0026507103
-0.24410291
-0.0024884526
-0.24381011
-0.0023234975
-0.24353888
-0.0021567011
-0.24328926
-0.0019887825
-0.24306119
-0.0018203321
-0.24285457
-0.0016518187
-0.24266926
-0.0014836025
-0.24250512
-0.0013159379
-0.24236197
-0.0011489909
-0.24223965
-0.00098284601
-0.24213799
-0.00081751788
-0.24205685
-0.00065296227
-0.2419961
-0.00048909333
-0.24195566
-0.0003257653
-0.00016280877
-0.24579568
0.0002263447
-0.24581983
0.00022648043
-0.24584409
0.0002274959
-0.24586855
0.00022943185
-0.24589332
0.00023229293
-0.24591849
0.00023609666
-0.24594416
0.00024085639
-0.24597045
0.00024659684
-0.24599745
0.00025333847
-0.24602528
0.00026111342
-0.24605406
0.00026994918
-0.2460839
0.00027988537
-0.24611492
0.00029095641
-0.24614725
0.00030320941
-0.24618102
0.00031668557
-0.24621638
0.00033143941
-0.24625346
0.00034751863
-0.24629242
0.00036498498
-0.24633341
0.00038389218
-0.2463766
0.00040430882
-0.24642215
0.00042629394
-0.24647026
0.00044992229
-0.2465211
0.00047525719
-0.24657488
0.00050237845
-0.2466318
0.00053135214
-0.24669207
0.00056226154
-0.24675592
0.0005951733
-0.24682359
0.00063017187
-0.2468953
0.00066732145
-0.24697133
0.00070670446
-0.24705192
0.0007483786
-0.24713734
0.00079241657
-0.24722789
0.00083887733
-0.24732383
0.00088780126
-0.24742548
0.00093924314
-0.24753311
0.00099321738
-0.24764705
0.0010497543
-0.24776759
0.0011088354
-0.24789504
0.0011704556
-0.24802972
0.0012345509
-0.24817193
0.0013010678
-0.24832196
0.0013698834
-0.2484801
0.0014408716
-0.24864663
0.0015138466
-0.24882179
0.0015885843
-0.24900582
0.0016648087
-0.24919891
0.0017421873
-0.24940122
0.0018203285
-0.24961287
0.0018987691
-0.24983391
0.0019769757
-0.25006434
0.0020543356
-0.25030409
0.002130153
-0.250553
0.0022036429
-0.2508108
0.002273933
-0.25107713
0.0023400516
-0.25135151
0.0024009367
-0.25163331
0.0024554318
-0.25192178
0.0025022909
-0.25221597
0.0025401833
-0.2525148
0.0025677086
-0.25281699
0.0025833989
-0.25312105
0.002585747
-0.25342532
0.0025732223
-0.25372792
0.0025442984
-0.25402677
0.0024974842
-0.25431959
0.0024313589
-0.2546039
0.0023446176
-0.25487705
0.0022361055
-0.25513623
0.0021048762
-0.25537851
0.0019502362
-0.25560087
0.0017717954
-0.25580024
0.0015695158
-0.25597355
0.0013437586
-0.2561178
0.0010953157
-0.25623012
0.00082544442
-0.25630783
0.0005358801
-0.25634853
0.00022883973
-0.25635013
-9.2986811e-05
-0.25631097
-0.00042647007
-0.25622984
-0.00076812863
-0.25610603
-0.0011141655
-0.25593938
-0.0014605608
-0.25573032
-0.0018031706
-0.2554798
-0.002137835
-0.25518939
-0.0024604879
-0.25486114
-0.0027672669
-0.25449761
-0.003054614
-0.25410178
-0.0033193645
-0.25367698
-0.0035588202
-0.25322682
-0.0037708013
-0.25275512
-0.0039536859
-0.25226578
-0.0041064062
-0.25176276
-0.0042284545
-0.25124998
-0.0043198487
-0.25073125
-0.0043810916
-0.25021021
-0.0044131167
-0.24969029
-0.0044172243
-0.24917468
-0.0043950236
-0.24866631
-0.0043483463
-0.24816779
-0.0042791976
-0.24768146
-0.0041896843
-0.24720937
-0.0040819585
-0.24675326
-0.0039581651
-0.24631463
-0.0038204058
-0.24589468
-0.0036706868
-0.24549442
-0.0035109064
-0.24511461
-0.0033428252
-0.24475583
-0.0031680522
-0.24441851
-0.0029880346
-0.2441029
-0.0028040597
-0.24380916
-0.0026172417
-0.24353732
-0.0024285386
-0.24328735
-0.0022387512
-0.24305915
-0.0020485331
-0.24285257
-0.0018583998
-0.24266743
-0.0016687431
-0.24250353
-0.0014798353
-0.24236067
-0.0012918486
-0.24223866
-0.0011048637
-0.24213729
-0.00091888208
-0.24205641
-0.00073383969
-0.24199588
-0.0005496258
-0.24195558
-0.00036606229
-0.00018294339
-0.24587911
0.00025009287
-0.24590287
0.00025023752
-0.24592673
0.00025135551
-0.24595078
0.00025349098
-0.24597514
0.00025664889
-0.24599989
0.00026084863
-0.24602514
0.00026610504
-0.24605099
0.00027244559
-0.24607754
0.00027989303
-0.24610491
0.00028848305
-0.24613321
0.00029824625
-0.24616255
0.00030922665
-0.24619306
0.00032146258
-0.24622486
0.00033500642
-0.24625807
0.00034990407
-0.24629285
0.00036621623
-0.24632933