/*--------------------------------*- C++ -*----------------------------------*\
| =========                 |                                                 |
| \\      /  F ield         | foam-extend: Open Source CFD                    |
|  \\    /   O peration     | Version:     4.1                                |
|   \\  /    A nd           | Web:         http://www.foam-extend.org         |
|    \\/     M anipulation  |                                                 |
\*---------------------------------------------------------------------------*/
FoamFile
{
    version     2.0;
    format      ascii;
    class       volScalarField;
    location    "0.05";
    object      rAU;
}
// * * * * * * * * * * * * * * * * * * * * * * * * * * * * * * * * * * * * * //

dimensions      [0 0 1 0 0 0 0];

internalField   nonuniform List<scalar> 
16796
(
0.00012062535
0.00012061604
0.00012060594
0.00012059652
0.00012058622
0.00012057651
0.00012056586
0.00012055571
0.00012054453
0.00012053378
0.0001205219
0.00012051037
0.00012049761
0.00012048509
0.00012047126
0.00012045756
0.00012044244
0.00012042734
0.0001204107
0.00012039396
0.00012037555
0.00012035691
0.00012033646
0.00012031564
0.00012029287
0.00012026957
0.00012024415
0.00012021805
0.00012018966
0.0001201604
0.00012012869
0.00012009555
0.00012006089
0.00012002348
0.00011998474
0.00011994307
0.00011989986
0.00011985353
0.00011980549
0.00011975414
0.0001197009
0.00011964431
0.00011958527
0.00011952331
0.00011945845
0.00011939065
0.00011931985
0.00011924617
0.0001191695
0.00011908992
0.0001190075
0.00011892233
0.0001188345
0.00011874429
0.00011865177
0.00011855723
0.00011846094
0.00011836325
0.00011826449
0.00011816519
0.00011806574
0.00011796669
0.00011786862
0.00011777217
0.00011767802
0.00011758684
0.00011749951
0.0001174167
0.00011733927
0.00011726804
0.00011720385
0.00011714748
0.00011709984
0.0001170616
0.00011703351
0.00011701623
0.00011701033
0.00011701029
0.00011701632
0.00011703453
0.0001170653
0.00011710875
0.0001171649
0.00011723364
0.00011731471
0.00011740775
0.00011751224
0.00011762756
0.00011775296
0.00011788759
0.00011803063
0.000118181
0.0001183377
0.00011849965
0.00011866579
0.00011883502
0.00011900623
0.00011917851
0.00011935071
0.00011952195
0.0001196913
0.00011985794
0.00012002108
0.00012018011
0.00012033431
0.00012048316
0.00012062617
0.00012076293
0.00012089305
0.00012101633
0.00012113242
0.00012124116
0.0001213424
0.00012143601
0.00012152187
0.00012160004
0.00012167036
0.00012173286
0.00012178751
0.00012183433
0.00012187329
0.0001219045
0.00012192787
0.00012194344
0.00012061191
0.00012060262
0.0001205925
0.00012058301
0.00012057261
0.00012056277
0.00012055193
0.00012054157
0.00012053012
0.00012051907
0.00012050684
0.00012049491
0.00012048171
0.00012046871
0.00012045433
0.00012044004
0.00012042427
0.00012040847
0.00012039107
0.00012037351
0.00012035422
0.00012033463
0.00012031316
0.00012029125
0.00012026731
0.00012024277
0.00012021604
0.00012018853
0.00012015866
0.00012012783
0.00012009445
0.00012005955
0.00012002305
0.0001199837
0.00011994292
0.00011989911
0.00011985368
0.00011980502
0.00011975456
0.00011970071
0.00011964488
0.00011958561
0.00011952382
0.00011945904
0.00011939131
0.0001193206
0.00011924686
0.00011917022
0.00011909061
0.00011900811
0.00011892282
0.00011883486
0.00011874436
0.00011865161
0.00011855673
0.00011846006
0.0001183619
0.00011826264
0.00011816267
0.00011806256
0.00011796275
0.00011786385
0.00011776649
0.00011767135
0.00011757917
0.00011749066
0.00011740674
0.00011732812
0.00011725568
0.00011719027
0.00011713272
0.00011708383
0.0001170445
0.00011701535
0.00011699711
0.00011699036
0.00011699562
0.00011699551
0.00011698911
0.00011699469
0.00011701274
0.00011704351
0.00011708715
0.0001171437
0.00011721303
0.00011729489
0.00011738889
0.0001174945
0.00011761107
0.00011773781
0.00011787398
0.00011801852
0.00011817047
0.00011832876
0.00011849231
0.00011866001
0.00011883071
0.00011900346
0.00011917706
0.00011935056
0.00011952297
0.00011969341
0.000119861
0.00012002507
0.00012018483
0.0001203397
0.00012048911
0.00012063261
0.00012076973
0.00012090023
0.00012102373
0.00012114001
0.00012124889
0.00012135023
0.00012144386
0.00012152983
0.00012160797
0.00012167828
0.00012174076
0.00012179539
0.00012184215
0.00012188115
0.0001219123
0.00012193566
0.00012059506
0.0001205858
0.00012057567
0.00012056614
0.00012055565
0.00012054569
0.00012053469
0.00012052413
0.00012051244
0.0001205011
0.00012048855
0.00012047624
0.00012046263
0.00012044916
0.00012043427
0.00012041942
0.00012040303
0.00012038655
0.00012036842
0.00012035007
0.00012032992
0.00012030942
0.00012028697
0.000120264
0.00012023894
0.0001202132
0.00012018518
0.00012015632
0.000120125
0.00012009264
0.00012005764
0.00012002104
0.00011998273
0.00011994149
0.00011989872
0.00011985282
0.0001198052
0.00011975427
0.00011970144
0.00011964512
0.00011958674
0.00011952483
0.00011946033
0.00011939276
0.00011932218
0.00011924857
0.0001191719
0.0001190923
0.00011900972
0.00011892427
0.00011883608
0.00011874528
0.00011865202
0.00011855664
0.0001184593
0.00011836036
0.00011826017
0.00011815917
0.00011805777
0.00011795663
0.00011785621
0.00011775718
0.00011766023
0.00011756608
0.00011747552
0.00011738931
0.00011730842
0.0001172336
0.00011716576
0.00011710578
0.0001170545
0.00011701272
0.00011698135
0.00011696097
0.00011695229
0.00011695584
0.00011697209
0.00011697228
0.00011695325
0.00011694604
0.00011695126
0.00011696932
0.0001170005
0.00011704497
0.00011710272
0.00011717364
0.00011725743
0.00011735368
0.00011746181
0.00011758111
0.00011771087
0.00011785008
0.00011799778
0.00011815292
0.00011831438
0.00011848105
0.00011865173
0.0001188254
0.00011900084
0.000119177
0.00011935285
0.00011952742
0.00011969976
0.00011986914
0.00012003469
0.00012019576
0.00012035175
0.00012050211
0.00012064633
0.00012078415
0.00012091511
0.00012103898
0.00012115553
0.00012126459
0.000121366
0.00012145976
0.0001215457
0.00012162382
0.0001216941
0.00012175652
0.00012181106
0.00012185783
0.00012189676
0.00012192788
0.00012057482
0.00012056561
0.00012055549
0.00012054594
0.00012053539
0.00012052532
0.00012051418
0.00012050343
0.00012049153
0.00012047992
0.00012046706
0.00012045441
0.0001204404
0.00012042649
0.00012041112
0.00012039572
0.00012037875
0.00012036163
0.0001203428
0.00012032369
0.00012030272
0.00012028134
0.00012025794
0.00012023396
0.00012020781
0.00012018091
0.00012015166
0.00012012147
0.00012008875
0.00012005491
0.00012001835
0.00011998008
0.00011994002
0.00011989693
0.00011985222
0.00011980428
0.00011975453
0.00011970137
0.00011964621
0.00011958746
0.00011952656
0.00011946206
0.00011939487
0.00011932454
0.00011925113
0.00011917463
0.00011909502
0.00011901245
0.00011892689
0.00011883846
0.0001187473
0.00011865358
0.00011855749
0.00011845937
0.00011835944
0.00011825807
0.00011815569
0.00011805273
0.0001179497
0.00011784727
0.00011774596
0.0001176465
0.00011754962
0.00011745611
0.00011736679
0.00011728251
0.00011720425
0.00011713282
0.00011706917
0.00011701421
0.00011696881
0.00011693377
0.00011691
0.0001168981
0.00011689871
0.00011691236
0.00011693942
0.00011694069
0.00011690876
0.00011688854
0.00011688078
0.00011688604
0.00011690472
0.00011693714
0.00011698343
0.00011704357
0.00011711741
0.0001172046
0.00011730466
0.00011741692
0.00011754072
0.00011767507
0.00011781903
0.00011797153
0.00011813144
0.0001182976
0.00011846876
0.00011864386
0.0001188216
0.00011900086
0.00011918055
0.00011935962
0.00011953705
0.00011971204
0.00011988364
0.00012005116
0.0001202139
0.00012037129
0.00012052276
0.00012066799
0.00012080649
0.000120938
0.00012106227
0.00012117908
0.00012128827
0.00012138983
0.00012148357
0.00012156948
0.00012164753
0.00012171773
0.00012178002
0.00012183456
0.00012188123
0.00012192012
0.00012055121
0.00012054206
0.00012053198
0.00012052241
0.00012051182
0.00012050167
0.0001204904
0.0001204795
0.00012046739
0.00012045554
0.0001204424
0.00012042942
0.00012041504
0.00012040072
0.00012038488
0.00012036898
0.00012035144
0.00012033371
0.00012031421
0.00012029438
0.00012027263
0.0001202504
0.00012022609
0.00012020114
0.00012017394
0.00012014592
0.00012011547
0.00012008402
0.00012004995
0.00012001467
0.00011997658
0.0001199367
0.00011989493
0.00011985005
0.00011980344
0.00011975352
0.00011970168
0.00011964633
0.00011958888
0.00011952776
0.00011946439
0.00011939731
0.00011932746
0.0001192544
0.00011917817
0.00011909878
0.00011901623
0.00011893068
0.00011884209
0.00011875063
0.00011865645
0.00011855974
0.00011846071
0.00011835974
0.00011825707
0.00011815312
0.00011804833
0.00011794321
0.00011783829
0.0001177343
0.0001176318
0.00011753158
0.00011743443
0.00011734118
0.00011725273
0.00011716996
0.00011709392
0.00011702547
0.00011696559
0.00011691524
0.00011687532
0.00011684665
0.00011683016
0.00011682642
0.00011683609
0.00011685964
0.00011689741
0.00011690093
0.00011685578
0.00011682227
0.00011680132
0.00011679361
0.00011679972
0.00011682008
0.00011685496
0.00011690447
0.00011696856
0.00011704697
0.00011713928
0.00011724489
0.00011736317
0.00011749315
0.00011763388
0.00011778426
0.00011794315
0.00011810933
0.00011828151
0.00011845854
0.00011863906
0.0001188219
0.00011900586
0.00011918983
0.00011937271
0.00011955364
0.00011973159
0.00011990579
0.00012007551
0.0001202401
0.00012039896
0.00012055173
0.00012069787
0.00012083709
0.00012096911
0.00012109372
0.0001212107
0.00012132006
0.00012142158
0.00012151527
0.00012160109
0.00012167903
0.00012174906
0.00012181133
0.00012186574
0.00012191236
0.00012052426
0.0001205152
0.00012050516
0.0001204956
0.00012048498
0.00012047476
0.0001204634
0.00012045235
0.00012044006
0.000120428
0.0001204146
0.00012040132
0.0001203866
0.00012037188
0.00012035561
0.00012033923
0.00012032116
0.00012030285
0.00012028272
0.00012026219
0.0001202397
0.00012021666
0.00012019148
0.00012016559
0.00012013739
0.00012010829
0.0001200767
0.00012004402
0.00012000864
0.00011997198
0.00011993241
0.00011989097
0.00011984755
0.00011980092
0.00011975247
0.00011970061
0.00011964673
0.00011958924
0.00011952955
0.00011946609
0.00011940027
0.00011933066
0.00011925818
0.00011918239
0.00011910335
0.00011902108
0.00011893558
0.00011884701
0.00011875537
0.00011866083
0.00011856355
0.00011846376
0.00011836167
0.00011825772
0.00011815215
0.00011804542
0.00011793803
0.0001178305
0.00011772342
0.00011761757
0.00011751357
0.00011741224
0.00011731443
0.00011722106
0.00011713306
0.00011705137
0.00011697711
0.00011691118
0.00011685464
0.00011680847
0.00011677362
0.00011675096
0.0001167414
0.00011674555
0.00011676404
0.00011679732
0.00011684569
0.00011685306
0.00011679429
0.00011674717
0.00011671275
0.00011669186
0.00011668524
0.00011669347
0.00011671695
0.00011675592
0.00011681042
0.00011688029
0.00011696518
0.00011706451
0.00011717771
0.00011730379
0.0001174418
0.00011759062
0.00011774904
0.0001179158
0.00011808955
0.00011826906
0.00011845291
0.00011863981
0.00011882852
0.00011901782
0.00011920655
0.00011939376
0.00011957838
0.00011975955
0.00011993648
0.00012010848
0.0001202749
0.00012043534
0.00012058922
0.00012073623
0.00012087607
0.0001210085
0.0001211333
0.00012125046
0.00012135977
0.00012146122
0.00012155477
0.00012164044
0.00012171819
0.00012178816
0.00012185028
0.00012190462
0.00012049398
0.00012048502
0.00012047505
0.00012046552
0.00012045489
0.00012044463
0.00012043318
0.00012042201
0.00012040957
0.00012039731
0.00012038367
0.00012037012
0.00012035508
0.00012034
0.00012032333
0.00012030649
0.00012028793
0.00012026907
0.00012024833
0.00012022715
0.00012020395
0.00012018014
0.00012015413
0.00012012735
0.00012009819
0.00012006806
0.00012003536
0.0001200015
0.00011996487
0.00011992687
0.00011988588
0.00011984293
0.00011979791
0.00011974958
0.00011969934
0.00011964558
0.00011958971
0.00011953013
0.00011946825
0.00011940249
0.00011933427
0.00011926215
0.00011918706
0.00011910856
0.00011902673
0.00011894157
0.00011885309
0.00011876149
0.00011866675
0.00011856906
0.00011846861
0.00011836563
0.00011826037
0.00011815328
0.00011804464
0.00011793494
0.00011782471
0.00011771453
0.00011760501
0.00011749698
0.00011739112
0.00011728831
0.00011718946
0.00011709553
0.00011700753
0.00011692647
0.00011685353
0.00011678967
0.00011673601
0.00011669358
0.0001166634
0.00011664635
0.00011664339
0.00011665514
0.00011668223
0.00011672509
0.000116784
0.00011679722
0.0001167244
0.00011666326
0.00011661501
0.00011658067
0.00011656111
0.00011655708
0.00011656913
0.0001165976
0.00011664264
0.00011670418
0.00011678193
0.00011687536
0.0001169839
0.00011710657
0.00011724238
0.00011739019
0.00011754872
0.00011771666
0.00011789256
0.00011807513
0.00011826285
0.00011845436
0.00011864831
0.00011884341
0.00011903842
0.0001192323
0.00011942392
0.00011961236
0.00011979677
0.0001199764
0.00012015056
0.00012031881
0.00012048056
0.00012063545
0.00012078317
0.00012092346
0.0001210561
0.00012118107
0.00012129815
0.00012140735
0.00012150862
0.00012160198
0.00012168742
0.00012176507
0.00012183487
0.0001218969
0.00012046043
0.00012045158
0.00012044169
0.0001204322
0.00012042159
0.0001204113
0.00012039979
0.00012038852
0.00012037594
0.00012036351
0.00012034966
0.00012033585
0.00012032052
0.00012030512
0.00012028806
0.00012027081
0.00012025178
0.0001202324
0.0001202111
0.00012018931
0.00012016543
0.00012014089
0.00012011409
0.00012008646
0.00012005638
0.00012002527
0.00011999152
0.00011995653
0.00011991869
0.0001198794
0.00011983704
0.00011979263
0.00011974606
0.00011969609
0.00011964411
0.00011958852
0.00011953071
0.00011946908
0.00011940505
0.00011933702
0.00011926644
0.00011919184
0.00011911417
0.00011903298
0.00011894835
0.00011886029
0.00011876883
0.00011867415
0.00011857627
0.00011847537
0.00011837165
0.00011826538
0.00011815681
0.00011804642
0.00011793452
0.00011782164
0.00011770832
0.0001175952
0.00011748292
0.00011737238
0.00011726429
0.0001171596
0.00011705928
0.00011696435
0.0001168759
0.00011679499
0.00011672287
0.00011666059
0.00011660933
0.00011657018
0.00011654422
0.00011653239
0.00011653568
0.00011655475
0.00011659022
0.00011664255
0.00011671195
0.00011673347
0.0001166461
0.00011657046
0.00011650798
0.00011645982
0.00011642706
0.00011641059
0.00011641109
0.00011642906
0.00011646475
0.00011651815
0.00011658904
0.00011667693
0.00011678123
0.00011690098
0.00011703514
0.00011718251
0.00011734177
0.0001175115
0.00011769018
0.00011787642
0.00011806861
0.00011826529
0.00011846502
0.00011866642
0.00011886816
0.00011906914
0.00011926813
0.00011946416
0.00011965632
0.00011984383
0.00012002593
0.00012020216
0.0001203719
0.00012053476
0.00012069043
0.00012083863
0.00012097913
0.00012111191
0.00012123677
0.00012135369
0.00012146266
0.00012156369
0.00012165677
0.00012174206
0.00012181951
0.00012188921
0.0001204236
0.00012041489
0.0001204051
0.00012039568
0.00012038509
0.00012037479
0.00012036324
0.0001203519
0.00012033921
0.00012032662
0.00012031259
0.00012029856
0.00012028296
0.00012026725
0.00012024985
0.00012023221
0.00012021274
0.00012019289
0.00012017106
0.00012014868
0.00012012417
0.00012009894
0.0001200714
0.00012004296
0.00012001202
0.00011997997
0.00011994521
0.00011990915
0.00011987015
0.00011982963
0.00011978595
0.00011974014
0.00011969207
0.00011964052
0.00011958685
0.00011952948
0.00011946978
0.00011940615
0.00011934001
0.00011926977
0.00011919685
0.00011911981
0.00011903957
0.0001189557
0.00011886828
0.00011877733
0.00011868286
0.00011858507
0.00011848398
0.00011837979
0.00011827272
0.00011816303
0.00011805101
0.00011793716
0.0001178218
0.0001177055
0.00011758884
0.00011747248
0.00011735713
0.00011724371
0.000117133
0.00011702601
0.00011692377
0.00011682736
0.00011673795
0.00011665667
0.00011658487
0.00011652365
0.00011647428
0.00011643793
0.00011641574
0.00011640871
0.0001164179
0.00011644399
0.00011648764
0.0001165493
0.00011662918
0.00011666195
0.00011655942
0.00011646875
0.00011639153
0.00011632915
0.00011628284
0.00011625367
0.00011624249
0.00011624991
0.00011627629
0.00011632172
0.00011638601
0.0001164687
0.00011656922
0.00011668655
0.00011681963
0.00011696717
0.00011712779
0.00011729996
0.00011748208
0.00011767265
0.00011786994
0.0001180724
0.00011827848
0.00011848672
0.00011869569
0.0001189042
0.00011911096
0.00011931493
0.00011951515
0.00011971077
0.00011990103
0.00012008541
0.00012026327
0.00012043422
0.0001205979
0.00012075405
0.00012090245
0.00012104305
0.00012117566
0.00012130029
0.00012141692
0.00012152557
0.00012162626
0.00012171916
0.00012180421
0.00012188154
0.00012038356
0.000120375
0.00012036532
0.00012035598
0.00012034544
0.00012033516
0.00012032359
0.00012031219
0.0001202994
0.00012028669
0.0001202725
0.00012025827
0.00012024244
0.00012022645
0.00012020873
0.00012019073
0.00012017087
0.00012015056
0.00012012824
0.00012010533
0.00012008023
0.00012005435
0.00012002611
0.00011999691
0.00011996514
0.00011993221
0.0001198965
0.0001198594
0.00011981931
0.0001197776
0.00011973267
0.00011968551
0.00011963601
0.00011958292
0.00011952762
0.00011946852
0.00011940698
0.00011934141
0.00011927321
0.00011920079
0.00011912557
0.00011904611
0.00011896334
0.00011887681
0.0001187866
0.00011869273
0.00011859523
0.00011849429
0.00011838994
0.00011828238
0.00011817185
0.00011805863
0.000117943
0.0001178255
0.00011770648
0.00011758651
0.00011746623
0.00011734632
0.00011722755
0.00011711087
0.00011699713
0.00011688738
0.00011678273
0.00011668434
0.00011659344
0.00011651127
0.00011643922
0.00011637852
0.00011633049
0.00011629642
0.00011627752
0.00011627486
0.00011628958
0.00011632239
0.00011637402
0.00011644489
0.00011653524
0.00011658271
0.00011646436
0.00011635802
0.00011626551
0.0001161884
0.00011612813
0.00011608595
0.00011606288
0.00011605967
0.00011607677
0.00011611436
0.00011617231
0.00011625016
0.00011634733
0.00011646277
0.00011659535
0.00011674371
0.00011690636
0.00011708168
0.00011726794
0.00011746353
0.0001176666
0.00011787548
0.00011808854
0.00011830418
0.0001185209
0.00011873741
0.00011895236
0.00011916465
0.00011937324
0.00011957727
0.00011977591
0.00011996862
0.00012015474
0.00012033387
0.00012050564
0.0001206698
0.0001208261
0.00012097452
0.00012111488
0.00012124718
0.00012137144
0.00012148768
0.00012159593
0.00012169638
0.00012178899
0.00012187391
0.00012034032
0.00012033193
0.00012032238
0.00012031314
0.00012030267
0.00012029242
0.00012028084
0.00012026941
0.00012025656
0.00012024375
0.00012022942
0.00012021502
0.00012019898
0.00012018274
0.00012016475
0.00012014642
0.00012012619
0.00012010548
0.0001200827
0.00012005929
0.00012003363
0.00012000716
0.00011997826
0.00011994835
0.0001199158
0.00011988203
0.00011984542
0.00011980736
0.00011976622
0.00011972339
0.00011967725
0.0001196288
0.00011957792
0.00011952336
0.00011946649
0.00011940571
0.00011934239
0.00011927492
0.00011920471
0.00011913016
0.00011905269
0.00011897085
0.00011888556
0.00011879638
0.00011870338
0.00011860659
0.00011850603
0.0001184019
0.00011829422
0.00011818322
0.00011806913
0.00011795223
0.00011783285
0.00011771151
0.00011758859
0.00011746471
0.00011734051
0.00011721673
0.00011709416
0.00011697382
0.0001168566
0.00011674362
0.00011663606
0.00011653515
0.0001164422
0.00011635854
0.00011628567
0.00011622489
0.00011617764
0.00011614529
0.00011612917
0.00011613043
0.00011615027
0.0001161895
0.00011624887
0.00011632886
0.00011642968
0.00011649587
0.00011636094
0.00011623822
0.00011612974
0.00011603732
0.0001159626
0.00011590704
0.00011587182
0.00011585782
0.00011586564
0.00011589552
0.00011594736
0.00011602073
0.00011611501
0.00011622911
0.00011636182
0.00011651168
0.00011667709
0.00011685629
0.00011704744
0.00011724879
0.00011745837
0.00011767438
0.00011789506
0.00011811872
0.00011834374
0.00011856876
0.00011879236
0.00011901334
0.00011923065
0.00011944336
0.00011965061
0.00011985184
0.00012004637
0.00012023379
0.00012041373
0.00012058593
0.00012075016
0.0001209064
0.00012105449
0.00012119443
0.00012132627
0.00012145004
0.0001215658
0.00012167374
0.00012177387
0.00012186632
0.00012029394
0.00012028572
0.00012027633
0.0001202672
0.00012025681
0.00012024662
0.00012023506
0.00012022362
0.00012021072
0.00012019783
0.00012018339
0.00012016884
0.00012015262
0.00012013618
0.00012011793
0.00012009931
0.00012007875
0.00012005767
0.00012003448
0.0001200106
0.00011998444
0.00011995741
0.0001199279
0.00011989732
0.00011986406
0.0001198295
0.00011979204
0.00011975306
0.00011971093
0.00011966704
0.00011961976
0.00011957008
0.00011951788
0.0001194619
0.00011940353
0.00011934113
0.00011927608
0.00011920678
0.0001191346
0.00011905797
0.00011897828
0.00011889409
0.0001188063
0.00011871449
0.00011861871
0.00011851899
0.00011841535
0.00011830798
0.00011819692
0.00011808239
0.00011796462
0.00011784392
0.0001177206
0.00011759523
0.00011746819
0.00011734012
0.00011721169
0.00011708369
0.00011695694
0.00011683251
0.00011671135
0.00011659463
0.00011648362
0.00011637961
0.00011628402
0.00011619826
0.00011612393
0.00011606244
0.00011601536
0.00011598415
0.00011597025
0.00011597493
0.00011599948
0.00011604479
0.00011611168
0.00011620068
0.000116312
0.0001164015
0.00011624914
0.00011610923
0.00011598404
0.00011587564
0.0001157859
0.0001157165
0.00011566879
0.00011564383
0.00011564232
0.00011566458
0.00011571056
0.00011577982
0.0001158717
0.00011598504
0.00011611854
0.00011627063
0.00011643956
0.00011662345
0.0001168203
0.00011702821
0.00011724507
0.00011746894
0.00011769794
0.00011793026
0.00011816418
0.00011839825
0.00011863096
0.00011886106
0.00011908744
0.00011930912
0.00011952523
0.00011973518
0.00011993827
0.00012013409
0.00012032227
0.00012050255
0.00012067472
0.00012083877
0.00012099455
0.0001211421
0.00012128146
0.0001214127
0.0001215359
0.00012165128
0.00012175885
0.00012185878
0.00012024444
0.00012023643
0.0001202272
0.00012021821
0.00012020792
0.00012019779
0.00012018628
0.00012017485
0.00012016193
0.00012014899
0.00012013446
0.0001201198
0.00012010343
0.00012008679
0.00012006832
0.00012004945
0.00012002859
0.00012000718
0.00011998361
0.00011995932
0.0001199327
0.00011990515
0.00011987509
0.00011984389
0.00011980996
0.00011977467
0.00011973642
0.00011969658
0.00011965352
0.00011960862
0.00011956026
0.00011950941
0.00011945595
0.00011939863
0.0001193388
0.00011927485
0.00011920814
0.00011913705
0.00011906297
0.0001189843
0.00011890244
0.00011881593
0.00011872568
0.00011863125
0.0001185327
0.00011843004
0.00011832329
0.00011821264
0.00011809814
0.00011797999
0.00011785843
0.00011773378
0.00011760637
0.00011747675
0.00011734534
0.00011721281
0.00011707984
0.00011694725
0.00011681591
0.00011668694
0.00011656134
0.00011644036
0.00011632531
0.00011621761
0.00011611873
0.00011603021
0.00011595375
0.00011589089
0.00011584331
0.0001158126
0.00011580033
0.00011580789
0.00011583669
0.00011588773
0.0001159619
0.00011605979
0.00011618165
0.00011629971
0.00011612897
0.00011597095
0.00011582819
0.00011570303
0.00011559761
0.00011551383
0.00011545325
0.0001154171
0.00011540619
0.00011542092
0.00011546127
0.00011552679
0.00011561678
0.00011572999
0.00011586499
0.00011602009
0.00011619337
0.0001163828
0.00011658621
0.00011680154
0.00011702651
0.00011725904
0.00011749711
0.00011773878
0.00011798223
0.00011822591
0.00011846823
0.00011870788
0.0001189437
0.00011917467
0.00011939989
0.00011961875
0.00011983055
0.00012003487
0.00012023136
0.00012041976
0.00012059987
0.00012077171
0.00012093515
0.00012109024
0.00012123707
0.00012137572
0.00012150628
0.00012162902
0.00012174396
0.00012185131
0.00012019188
0.00012018408
0.00012017503
0.00012016619
0.00012015603
0.00012014599
0.00012013454
0.00012012314
0.00012011022
0.00012009725
0.00012008267
0.00012006791
0.00012005142
0.00012003464
0.00012001598
0.00011999689
0.00011997577
0.00011995406
0.00011993016
0.00011990549
0.00011987845
0.00011985044
0.00011981986
0.00011978811
0.00011975356
0.0001197176
0.00011967861
0.00011963797
0.00011959404
0.0001195482
0.00011949882
0.00011944687
0.00011939222
0.00011933361
0.0001192724
0.00011920696
0.00011913864
0.00011906583
0.0001189899
0.00011890924
0.00011882526
0.00011873647
0.00011864379
0.00011854676
0.00011844544
0.00011833984
0.00011822995
0.00011811599
0.00011799798
0.00011787612
0.00011775067
0.00011762193
0.00011749024
0.00011735617
0.00011722015
0.00011708285
0.00011694501
0.00011680746
0.00011667111
0.00011653712
0.00011640656
0.00011628074
0.00011616106
0.00011604901
0.00011594617
0.00011585418
0.00011577488
0.00011570992
0.00011566112
0.00011563023
0.00011561894
0.00011562881
0.00011566136
0.00011571773
0.00011579891
0.00011590557
0.000116038
0.00011618704
0.00011600042
0.00011582325
0.00011566195
0.00011551916
0.00011539729
0.00011529852
0.00011522461
0.00011517698
0.00011515656
0.00011516383
0.00011519879
0.00011526098
0.00011534963
0.00011546337
0.00011560064
0.00011575958
0.00011593812
0.00011613402
0.00011634492
0.00011656859
0.00011680256
0.0001170446
0.00011729253
0.00011754429
0.00011779793
0.00011805181
0.00011830427
0.00011855392
0.00011879956
0.00011904014
0.00011927472
0.00011950269
0.00011972335
0.00011993628
0.00012014113
0.00012033768
0.00012052573
0.00012070533
0.00012087638
0.00012103896
0.00012119316
0.00012133913
0.00012147698
0.00012160698
0.00012172922
0.0001218439
0.00012013631
0.00012012873
0.00012011988
0.00012011121
0.00012010118
0.00012009126
0.00012007989
0.00012006854
0.00012005565
0.00012004268
0.00012002806
0.00012001325
0.00011999667
0.00011997976
0.00011996095
0.00011994167
0.00011992033
0.00011989837
0.00011987418
0.00011984917
0.00011982176
0.00011979334
0.00011976229
0.00011973003
0.00011969491
0.00011965834
0.00011961867
0.00011957729
0.00011953256
0.00011948584
0.0001194355
0.00011938252
0.00011932675
0.00011926692
0.00011920439
0.00011913753
0.00011906767
0.0001189932
0.00011891548
0.0001188329
0.00011874683
0.00011865582
0.00011856074
0.00011846114
0.00011835706
0.0001182485
0.00011813547
0.00011801815
0.00011789657
0.00011777092
0.00011764145
0.00011750848
0.00011737233
0.0001172336
0.00011709271
0.00011695035
0.00011680729
0.00011666438
0.00011652257
0.00011638308
0.00011624702
0.00011611577
0.00011599081
0.00011587372
0.0001157662
0.00011567
0.00011558707
0.00011551923
0.00011546844
0.00011543662
0.00011542562
0.00011543715
0.00011547291
0.00011553417
0.00011562206
0.00011573735
0.0001158804
0.00011605109
0.00011586347
0.000115666
0.00011548507
0.00011532365
0.00011518447
0.00011506998
0.00011498222
0.00011492276
0.00011489268
0.00011489255
0.00011492239
0.00011498168
0.00011506956
0.00011518456
0.00011532493
0.00011548865
0.00011567341
0.00011587677
0.00011609618
0.00011632917
0.0001165731
0.00011682556
0.0001170842
0.00011734682
0.00011761136
0.00011787607
0.00011813921
0.00011839934
0.00011865519
0.0001189057
0.0001191499
0.00011938718
0.00011961685
0.00011983847
0.00012005175
0.00012025645
0.00012045242
0.00012063975
0.00012081834
0.00012098832
0.00012114983
0.00012130302
0.00012144804
0.00012158522
0.00012171464
0.00012183656
0.00012007778
0.00012007045
0.00012006181
0.00012005333
0.00012004346
0.00012003366
0.0001200224
0.00012001112
0.00011999828
0.00011998533
0.00011997071
0.00011995586
0.00011993922
0.00011992222
0.00011990329
0.00011988386
0.00011986234
0.00011984016
0.00011981572
0.00011979043
0.00011976269
0.0001197339
0.00011970245
0.00011966972
0.0001196341
0.00011959697
0.00011955669
0.00011951463
0.00011946916
0.00011942164
0.00011937041
0.00011931646
0.00011925964
0.00011919867
0.00011913489
0.00011906667
0.00011899535
0.00011891928
0.00011883984
0.00011875538
0.00011866729
0.00011857409
0.00011847666
0.00011837451
0.00011826769
0.00011815619
0.00011803999
0.00011791929
0.00011779407
0.00011766455
0.00011753096
0.00011739361
0.00011725283
0.0001171092
0.00011696318
0.00011681546
0.00011666682
0.00011651815
0.00011637043
0.00011622491
0.00011608278
0.00011594547
0.00011581456
0.00011569171
0.00011557873
0.0001154775
0.00011539012
0.00011531856
0.00011526495
0.00011523137
0.00011521988
0.00011523238
0.00011527074
0.00011533641
0.00011543068
0.00011555443
0.00011570812
0.00011589167
0.00011571813
0.00011549906
0.00011529726
0.00011511607
0.0001149586
0.00011482759
0.00011472535
0.00011465366
0.00011461377
0.00011460629
0.00011463125
0.0001146881
0.00011477587
0.00011489291
0.00011503731
0.00011520679
0.00011539883
0.00011561075
0.00011583975
0.00011608313
0.00011633806
0.0001166019
0.00011687215
0.00011714646
0.00011742264
0.00011769884
0.00011797323
0.00011824432
0.0001185108
0.00011877156
0.00011902565
0.00011927243
0.00011951123
0.00011974164
0.00011996338
0.00012017624
0.00012038011
0.00012057509
0.00012076115
0.00012093844
0.00012110714
0.00012126744
0.00012141953
0.00012156376
0.00012170026
0.00012182932
0.00012001637
0.00012000929
0.00012000088
0.0001199926
0.0001199829
0.00011997326
0.00011996211
0.00011995094
0.00011993817
0.00011992526
0.00011991066
0.00011989581
0.00011987914
0.00011986208
0.00011984307
0.00011982352
0.00011980186
0.00011977951
0.00011975486
0.00011972933
0.00011970131
0.00011967221
0.0001196404
0.00011960727
0.0001195712
0.00011953357
0.00011949274
0.00011945007
0.00011940393
0.00011935566
0.00011930362
0.00011924877
0.00011919097
0.00011912893
0.00011906399
0.00011899449
0.00011892177
0.00011884418
0.00011876307
0.00011867682
0.00011858677
0.00011849143
0.00011839168
0.00011828702
0.00011817749
0.00011806304
0.00011794367
0.00011781954
0.00011769064
0.00011755717
0.00011741935
0.00011727748
0.00011713189
0.00011698316
0.00011683174
0.00011667834
0.00011652376
0.0001163689
0.00011621479
0.00011606271
0.0001159139
0.00011576989
0.00011563229
0.00011550291
0.00011538366
0.00011527654
0.00011518382
0.00011510762
0.00011505027
0.00011501406
0.00011500124
0.00011501392
0.0001150542
0.00011512373
0.00011522398
0.00011535599
0.00011552035
0.00011571703
0.00011556441
0.00011532227
0.00011509821
0.00011489599
0.0001147191
0.00011457064
0.00011445322
0.00011436885
0.00011431892
0.00011430414
0.00011432452
0.00011437944
0.0001144678
0.00011458776
0.00011473717
0.00011491351
0.00011511399
0.00011533565
0.00011557542
0.00011583036
0.00011609738
0.00011637365
0.00011665648
0.00011694335
0.00011723195
0.00011752033
0.00011780656
0.00011808911
0.00011836662
0.00011863797
0.00011890219
0.00011915867
0.00011940673
0.000119646
0.00011987621
0.00012009722