/*--------------------------------*- C++ -*----------------------------------*\
| =========                 |                                                 |
| \\      /  F ield         | foam-extend: Open Source CFD                    |
|  \\    /   O peration     | Version:     4.1                                |
|   \\  /    A nd           | Web:         http://www.foam-extend.org         |
|    \\/     M anipulation  |                                                 |
\*---------------------------------------------------------------------------*/
FoamFile
{
    version     2.0;
    format      ascii;
    class       volScalarField;
    location    "0.06";
    object      p;
}
// * * * * * * * * * * * * * * * * * * * * * * * * * * * * * * * * * * * * * //

dimensions      [0 2 -2 0 0 0 0];

internalField   nonuniform List<scalar> 
4393
(
-20.288142
-19.298515
-36.571899
-47.782412
-63.285824
-79.179284
-97.54735
-117.9695
-141.06496
-166.97424
-195.97008
-228.16156
-263.57525
-302.07201
-343.33317
-386.82242
-431.77175
-477.17608
-521.81559
-564.29028
-603.08081
-636.6164
-663.36304
-681.90958
-691.0724
-689.98204
-678.17263
-655.68891
-623.08613
-581.3989
-532.14588
-477.1822
-418.55505
-358.3119
-298.31958
-240.18782
-185.15428
-134.12842
-87.66738
-46.065248
-9.3816521
22.47769
49.722377
72.625196
91.487487
106.67695
118.53181
126.54066
138.15801
-17.848585
-19.005683
-35.78395
-47.092924
-62.448136
-78.259144
-96.523349
-116.86025
-139.88364
-165.74732
-194.73307
-226.96338
-262.47831
-301.15231
-342.6778
-386.52501
-431.92591
-477.86653
-523.11055
-566.23329
-605.68543
-639.86089
-667.18852
-686.21776
-695.72873
-694.82064
-683.02405
-660.32815
-627.26333
-584.91971
-534.86308
-479.014
-419.49416
-358.42178
-297.70992
-239.00402
-183.54549
-132.24113
-85.626815
-43.975566
-7.3212097
24.451674
51.5704
74.317148
92.997351
107.93129
119.40199
127.58682
133.07859
-17.167121
-18.812617
-35.104117
-46.219743
-61.193106
-76.660252
-94.551492
-114.53739
-137.23805
-162.83685
-191.64136
-223.8064
-259.40437
-298.34081
-340.33298
-384.86509
-431.16845
-478.20881
-524.71369
-569.20492
-610.06888
-645.62387
-674.21887
-694.31622
-704.61326
-704.12833
-692.33095
-669.19745
-635.26798
-591.65835
-540.03093
-482.43516
-421.14777
-358.43419
-296.29971
-236.46312
-180.16938
-128.31898
-81.401558
-39.646137
-3.0317553
28.602919
55.527512
78.05574
96.521268
111.24447
122.47477
130.75807
134.94693
-15.522101
-17.712121
-33.182412
-44.094234
-58.656102
-73.819679
-91.39407
-111.11076
-133.58786
-159.04219
-187.81085
-220.08927
-255.99248
-295.46908
-338.27233
-383.90802
-431.60858
-480.311
-528.69123
-575.19309
-618.1103
-655.65172
-686.053
-707.6519
-719.03022
-719.09464
-707.22984
-683.35382
-648.00517
-602.36529
-548.24631
-487.89909
-423.84492
-358.58401
-294.2577
-232.70065
-175.15311
-122.50462
-75.167488
-33.30284
3.1950309
34.554747
61.10606
83.203511
101.20844
115.44057
126.13102
133.87448
137.03993
-15.059236
-17.386128
-32.103201
-42.517717
-56.341727
-70.797026
-87.611713
-106.5943
-128.38091
-153.24438
-181.576
-213.63933
-249.6204
-289.53829
-333.20545
-380.16416
-429.65297
-480.5684
-531.51423
-580.82295
-626.65813
-667.07307
-700.14336
-724.02423
-737.12655
-738.18769
-726.46235
-701.77417
-664.64752
-616.33691
-558.86963
-494.78472
-426.96258
-358.25231
-290.97332
-227.13014
-167.93576
-114.26339
-66.404816
-24.425157
11.903878
42.90535
68.99568
90.591133
108.09928
121.85971
132.11079
139.44705
142.03182
-13.068673
-15.395524
-28.893712
-38.781696
-51.902931
-65.796258
-82.049457
-100.5429
-121.91623
-146.49418
-174.71982
-206.92769
-243.38166
-284.18208
-329.21296
-378.06263
-429.98068
-483.81059
-538.06663
-590.93875
-640.42907
-684.39505
-720.71861
-747.32605
-762.42261
-764.53885
-752.7648
-726.80539
-687.16554
-635.18165
-573.16524
-504.03506
-431.16589
-357.90174
-286.76594
-220.0026
-158.74725
-103.85025
-55.420986
-13.396732
22.618249
53.068247
78.481605
99.352531
116.14884
129.24803
138.92066
145.77926
148.10301
-12.837574
-15.121461
-27.678063
-36.788408
-48.836043
-61.646702
-76.725535
-94.045233
-114.27534
-137.82139
-165.21278
-196.89604
-233.25865
-274.53
-320.71006
-371.46602
-426.07881
-483.32494
-541.60754
-598.9302
-653.09271
-701.70158
-742.40084
-772.81282
-790.87081
-794.81494
-783.49474
-756.39181
-713.94222
-657.55326
-589.92322
-514.47814
-435.28061
-356.38832
-280.5301
-210.29446
-146.64691
-90.413552
-41.434208
0.51500821
36.051179
65.766548
90.327585
110.31981
126.27988
138.62622
147.65846
153.97277
155.99848
-10.05845
-12.06495
-22.891853
-31.133991
-42.129595
-54.060313
-68.265381
-84.800511
-104.3446
-127.37399
-154.49532
-186.26284
-223.1883
-265.63738
-313.73845
-367.24744
-425.48849
-487.14322
-550.48228
-613.27502
-673.08468
-727.21114
-773.03201
-807.79175
-829.11431
-834.90613
-823.7383
-794.83842
-748.56635
-686.36208
-611.41497
-527.77715
-440.43299
-354.46678
-272.74255
-198.35185
-131.91913
-74.252072
-24.789863
16.891044
51.700561
80.409342
103.85435
122.72926
137.6551
149.10481
157.42198
163.19961
165.05055
-10.175187
-12.097734
-21.882317
-29.141878
-38.777863
-49.276067
-61.884278
-76.756558
-94.605975
-116.0086
-141.68979
-172.36843
-208.75271
-251.4291
-300.74268
-356.60996
-418.46139
-484.85971
-553.92367
-623.11865
-689.72924
-750.67401
-803.04823
-843.61455
-869.62597
-878.54166
-868.53698
-838.34336
-788.10697
-719.20125
-635.49272
-541.84676
-444.5271
-350.1623
-261.5531
-182.5581
-113.16421
-54.19378
-4.4997545
36.570615
70.302226
97.66499
119.69256
137.19146
150.8696
161.25077
168.71735
173.84648
175.45714
-6.37364
-7.7818673
-15.219453
-21.208553
-29.349534
-38.544237
-49.841408
-63.491026
-80.221847
-100.70222
-125.76606
-156.28792
-193.16547
-237.20569
-288.97899
-348.56357
-415.52689
-488.23056
-564.61278
-641.74599
-716.61144
-785.65966
-845.71681
-892.90845
-924.06636
-936.13875
-926.87581
-894.45733
-838.84217
-761.16141
-666.14545
-559.58924
-449.46025
-344.7506
-247.72061
-163.44746
-90.770273
-30.60672
19.055957
59.126863
91.379726
117.00793
137.27792
153.11729
165.32889
174.4886
181.01755
185.47013
186.87347
-6.9887061
-8.3718837
-14.790313
-19.706298
-26.306407
-33.805176
-43.137171
-54.639784
-69.061229
-87.170084
-109.93854
-138.4581
-173.91535
-217.47831
-270.11575
-332.22057
-403.68593
-482.61017
-566.75242
-652.65735
-736.96992
-815.53118
-884.98527
-940.63866
-978.91403
-996.15829
-989.57894
-956.24238
-895.55513
-807.99954
-699.56967
-577.23481
-451.34518
-334.70794
-228.0356
-138.39668
-62.610396
-1.8649063
47.116408
85.489264
115.64246
138.99074
157.05511
170.87249
181.33358
189.05394
194.48442
198.14406
199.28646
-2.0942729
-2.7037772
-6.0877411
-9.2411115
-13.775073
-19.380455
-26.756172
-36.347173
-48.924458
-65.374647
-86.820156
-114.57648
-150.11789
-194.9705
-250.50657
-317.39569
-395.95511
-483.75099
-578.3183
-675.469
-771.54589
-861.627
-942.40573
-1007.9955
-1054.3142
-1076.9493
-1072.5569
-1036.9323
-969.19768
-868.62266
-742.88534
-600.03969
-453.53543
-322.46418
-203.96626
-108.51278
-29.462634
31.364769
79.099794
115.10231
142.5544
163.08832
178.51456
189.96925
198.42729
204.53187
208.75352
211.56052
212.4395
-3.2591501
-3.9765753
-6.491313
-8.6299647
-11.612081
-15.434478
-20.642855
-27.733154
-37.448114
-50.734391
-68.829592
-93.285681
-125.95143
-168.90202
-224.22779
-293.17456
-377.05609
-472.70484
-577.53518
-686.34064
-795.20676
-898.06089
-992.0422
-1069.5424
-1126.2119
-1157.0738
-1158.484
-1123.6945
-1050.5664
-935.66674
-789.3624
-620.99496
-448.33009
-301.32381
-169.53867
-69.225447
12.155375
71.52064
116.6877
149.07369
172.83559
189.75794
201.94256
210.57955
216.70148
220.95062
223.79804
225.64137
226.21326
2.5341716
2.8596145
4.0380116
4.2281172
4.0125981
2.8827228
0.56912307
-3.5305605
-10.181636
-20.472869
-35.844982
-58.17538
-89.759781
-133.27505
-191.58368
-266.35176
-360.2697
-468.54482
-588.38572
-712.99746
-838.42187
-957.04374
-1067.5963
-1159.8726
-1229.12
-1269.3308
-1276.4099
-1240.2537
-1158.8914
-1024.672
-851.93476
-650.09087
-441.99185
-276.54816
-128.15271
-23.336473
60.2339
116.98638
158.63037
186.38731
205.65609
218.30362
226.74867
232.19693
235.72031
237.93493
239.29485
240.10761
240.35928
1.0241264
1.0789381
2.9211466
3.9225314
5.0661993
5.5497993
5.3070541
3.7429688
0.20632625
-6.3496027
-17.370307
-34.886803
-61.557132
-100.7668
-156.61306
-231.62563
-331.63987
-449.52451
-582.76355
-722.35809
-864.82417
-999.83567
-1129.1419
-1237.8054
-1321.1201
-1373.1923
-1392.0315
-1361.7888
-1278.0927
-1123.55
-919.11644
-674.10812
-418.10901
-234.46106
-67.829648
37.797917
120.98307
171.80626
207.48786
228.55863
241.86757
249.16142
253.1209
254.86305
255.43894
255.38642
255.10927
254.79731
254.69407
7.1203793
8.4154793
14.382356
18.241411
22.881974
27.009107
30.890302
33.86873
35.313588
34.053499
28.41091
15.907039
-6.8100985
-44.176317
-101.94068
-183.0634
-298.11116
-434.6764
-590.38834
-752.38283
-918.25037
-1073.2815
-1226.599
-1356.6649
-1459.1944
-1527.9484
-1561.6194
-1533.4535
-1442.4958
-1258.3967
-1014.1951
-712.90809
-389.03415
-187.86496
2.5659256
106.5725
188.94263
231.83891
260.30057
273.43806
279.91918
281.19225
280.20809
277.92654
275.34645
272.89351
270.89958
269.41754
268.95039
5.8594172
6.7737704
13.318434
17.737225
23.417739
28.760736
34.278038
39.36839
43.608217
46.013184
45.115152
38.544668
22.875679
-6.8848588
-58.408157
-134.975
-257.38807
-405.44904
-578.55511
-758.42758
-946.47646
-1120.332
-1302.389
-1455.8667
-1575.9884
-1657.4123
-1712.1522
-1701.6558
-1623.3207
-1412.9022
-1120.4281
-742.11484
-316.95903
-106.11275
108.88553
200.85573
276.11812
304.50279
321.43684
323.44421
321.04869
314.95495
308.19156
301.36971
295.32363
290.28729
286.47191
283.76072
282.90715
11.201529
13.330744
23.905972
31.419506
41.070806
50.865609
61.744003
73.181295
84.941126
96.093827
105.09357
109.14952
103.93478
82.74224
33.969028
-45.136165
-192.37043
-369.90445
-578.88167
-791.52715
-1014.5985
-1209.9545
-1426.4276
-1608.3981
-1752.6732
-1863.6685
-1961.3459
-1964.8221
-1886.9843
-1624.3771
-1275.5082
-802.23855
-228.29262
-24.592509
225.94776
299.43598
367.8961
379.47523
384.06012
374.0429
362.28493
348.48204
335.74759
324.27798
314.71646
307.08001
301.44358
297.51032
296.27729
11.184362
12.965529
24.407833
32.398654
42.905744
53.56235
65.564668
78.425564
92.133479
106.01849
118.93681
128.56339
131.14055
120.40725
82.087178
19.095162
-139.98948
-331.62035
-563.89166
-793.34422
-1043.2048
-1249.5117
-1517.6531
-1739.2256
-1909.5283
-2020.7548
-2144.208
-2182.2816
-2167.9509
-1888.8592
-1472.7397
-854.33738
-28.565748
136.33917
413.94337
443.23942
489.18215
471.63352
456.31616
429.59611
405.76003
382.72943
363.20521
346.674
333.4023
323.08684
315.60467
310.44702
308.82963
14.421524
16.992873
31.541292
42.204427
56.41113
71.555955
89.381051
109.72393
133.12573
159.49596
188.31537
217.62106
243.43232
258.05978
237.97556
192.56369
-13.192524
-255.79611
-548.33057
-827.59066
-1138.74
-1361.9369
-1680.8734
-1939.1174
-2103.8676
-2250.5033
-2514.5588
-2616.4301
-2644.31
-2224.166
-1738.387
-975.58748
215.85204
259.52938
596.32977
571.42668
602.0997
556.31516
523.34939
481.0573
446.0659
414.42216
388.55629
367.29144
350.5526
337.73799
328.53774
322.24318
320.27391
16.84092
19.188993
35.473186
46.938151
62.336553
78.552075
97.596314
119.2546
144.18826
172.42242
203.71067
236.50205
267.63749
291.70214
279.33662
275.9965
40.150991
-221.25336
-552.26417
-833.43885
-1175.7084
-1339.7105
-1775.4917
-2100.0872
-2354.2302
-2481.1516
-2717.5827
-2833.0414
-3026.2513
-2734.8817
-2206.9507
-1151.0365
759.17565
610.56133
923.35218
788.86136
760.55099
665.17508
600.9384
536.72685
487.12764
445.38179
412.52394
386.34008
366.13557
350.89871
340.06589
332.70614
330.40239
16.739768
19.061455
36.585233
49.380962
66.985671
86.187492
109.55354
137.39599
171.32128
212.70255
263.32891
324.43433
396.20726
478.99834
528.28083
630.60108
296.08643
-72.411126
-496.9684
-852.4713
-1306.5887
-1513.6743
-2007.3333
-2473.8945
-2498.0826
-2468.4349
-3217.9311
-3568.6936
-4175.385
-3233.7312
-2580.8291
-1427.6023
1383.1626
683.99468
1156.676
916.21888
872.6695
742.7072
659.73238
580.08728
520.01315
470.61781
432.30967
402.19625
379.17663
361.95151
349.76997
341.52739
338.95175
22.639107
24.404014
45.01636
59.2817
79.06416
100.42231
126.33285
157.04624
194.28409
239.42027
294.2131
359.68995
435.05773
524.56849
550.59407
738.87572
296.91487
-73.885307
-608.70826
-891.66059
-1492.6415
-1176.2681
-2117.9315
-2449.5749
-2860.8424
-3178.7398
-3477.4972
-3777.8096
-4054.9807
-4260.5059
-4105.9279
-2266.8314
2846.1108
1706.7087
1671.1681
1244.8466
1051.0993
855.71083
728.88447
626.30742
551.5871
493.40058
449.32318
415.42789
389.8417
370.88438
357.55882
348.58178
345.77461
18.11732
19.692641
38.960891
52.629108
71.979162
93.186999
119.42101
151.27645
191.17676
241.79621
307.38639
394.22559
509.61746
684.32601
847.59026
1501.2715
882.24017
139.5002
-420.66272
-916.47082
-1349.0062
-1760.9301
0
0
0
0
0
0
0
0
0
0
4071.5695
827.61804
1801.984
1262.6542
1107.204
893.68295
759.61647
649.45973
569.32808
507.18082
460.19845
424.21986
397.12875
377.11257
363.06817
353.62193
350.67195
29.980126
27.075915
50.966652
66.454046
89.117742
113.84186
144.60383
182.1349
229.46594
289.99954
369.03235
475.29918
611.69155
841.69919
964.737
1630.9905
0
0
0
0
0
0
0
0
0
0
0
0
0
0
0
0
0
4397.4191
2247.3601
1711.482
1231.5336
976.55809
796.6916
672.89138
583.35994
516.87918
467.15615
429.59191
401.47192
380.80033
366.33417
356.62366
353.58832
18.149506
19.739061
39.051515
52.746697
72.136868
93.385938
119.67101
151.58776
191.56618
242.28906
308.02594
395.08975
510.89264
686.45307
850.57388
1517.5774
882.46009
141.60063
-418.67364
-916.37801
-1351.4995
-1766.5124
0
0
0
0
0
0
0
0
0
0
4173.6593
3646.1122
2069.2879
1569.8409
1177.8106
947.61577
783.61795
666.71221
580.63298
515.90184
467.03579
429.93264
402.04901
381.50904
367.11345
357.44271
354.42274
22.761247
24.531844
45.259956
59.593122
79.471719
100.9244
126.9454
157.78285
195.1663
240.4757
295.48199
361.22653
436.95635
527.1274
553.21789
746.41345
305.23867
-66.677725
-599.76172
-887.62146
-1486.2398
-1177.2489
-2129.8194
-2465.9594
-2880.6947
-3203.003
-3507.0668
-3812.3218
-4096.3004
-4304.0754
-4138.6738
-2277.5892
2348.4638
2182.6982
1801.7799
1431.4248
1127.799
920.76248
766.90767
655.54092
572.47817
509.97481
462.61571
426.63875
399.55689
379.59229
365.58633
356.17174
353.22809
16.91029
19.227598
36.910784
49.809743
67.560491
86.913925
110.46176
138.5171
172.70231
214.40679
265.44721
327.09182
399.58439
483.41391
533.56279
638.98867
300.9574
-68.036781
-493.28779
-851.16132
-1306.0045
-1515.4
-2011.4416
-2479.51
-2516.3746
-2497.8613
-3247.7787
-3606.4566
-4222.358
-3315.1882
-2697.7335
-1732.5923
1469.2711
1484.6865
1404.0004
1182.5766
991.01129
836.33047
715.57754
622.36323
550.44857
494.77132
451.78076
418.67258
393.50652
374.82941
361.66583
352.79005
350.01644
17.083646
19.445662
35.944387
47.546747
63.129629
79.530259
98.787953
120.68584
145.89886
174.46339
206.15279
239.4392
271.20792
296.12937
284.58629
283.62904
47.328983
-214.55087
-546.30451
-829.77128
-1173.5294
-1341.1676
-1781.4685
-2107.9614
-2365.7777
-2496.5841
-2734.3235
-2851.1687
-3045.1868
-2756.2122
-2219.191
-1230.7333
733.75675
922.88369
1069.6999
969.60957
864.47505
754.13674
661.47142
584.94246
523.8536
475.32721
437.21737
407.50598
384.71828
367.69716
355.64501
347.49226
344.94082
14.671803
17.262177
32.053336
42.881055
57.308197
72.677877
90.76246
111.3966
135.13513
161.89645
191.17462
221.01511
247.44669
262.7795
243.25592
198.85025
-7.8101249
-250.8491
-544.18287
-824.90393
-1137.2403
-1362.5353
-1684.3457
-1945.7307
-2115.9542
-2267.319
-2534.1069
-2639.3112
-2670.1423
-2253.6066
-1757.1798
-994.30331
315.47976
566.67313
771.81258
757.4822
718.93227
653.78137
592.38106
536.28905
489.00964
449.78077
418.06276
392.7855
373.09299
358.2164
347.60006
340.37952
338.12044
11.505102
13.32227
25.054826
33.237474
43.994428
54.900001
67.183687
80.353674
94.411799
108.6961
122.07578
132.23645
135.43437
125.41128
87.777269
25.726624
-133.53959
-325.46406
-558.43276
-789.12467
-1040.1945
-1248.3051
-1518.3349
-1741.1612
-1913.2784
-2025.8863
-2149.3927
-2187.2932
-2171.8039
-1890.9496
-1467.0103
-851.33519
31.521133
311.29995
540.29865
584.10404
591.52008
561.38887
525.20508
486.83688
452.12582
421.82007
396.49975
375.82757
359.4446
346.91301
337.89204
331.7188
329.78388
11.51372
13.682528
24.566438
32.290173
42.215346
52.28294
63.466791
75.234278
87.359216
98.913766
108.35557
112.89056
108.18443
87.505438
39.160666
-39.490921
-186.9215
-364.68765
-574.1973
-787.70627
-1011.7346
-1208.5007
-1426.6916
-1610.3955
-1756.7126
-1869.087
-1966.6934
-1968.6886
-1887.4428
-1618.0903
-1253.9568
-764.07733
-139.6381
132.36527
353.18232
431.62387
470.24609
469.02355
455.31463
434.02809
411.95176
390.92647
372.40223
356.69722
343.92219
333.96665
326.70845
321.69749
320.12686
6.2485222
7.2151607
14.116258
18.771858
24.756492
30.398858
36.248765
41.696345
46.329523
49.16659
48.744377
42.692593
27.579652
-1.6098824
-52.612206
-128.69329
-251.05787
-399.20381
-572.64068
-753.06069
-941.69708
-1116.2977
-1299.051
-1452.9804
-1573.5043
-1654.7997
-1708.5151
-1696.2284
-1614.5562
-1398.6717
-1095.8344
-705.27187
-247.7192
5.5094964
211.31122
309.21608
367.40841
387.05379
390.58982
383.34592
372.16822
359.5243
347.36299
336.45383
327.24737
319.88803
314.43048
310.61812
309.41986
7.486408
8.8328208
15.163638
19.268153
24.224788
28.660698
32.881067
36.216953
38.046247
37.195854
31.988244
19.938728
-2.314708
-39.229392
-96.59669
-177.37716
-292.34188
-428.92252
-584.82982
-747.17662
-913.46761
-1069.0453
-1222.8878
-1353.2615
-1455.7891
-1523.7494
-1555.3881
-1523.802
-1427.4565
-1235.287
-978.71519
-662.83372
-314.27058
-86.696497
99.832855
206.38717
276.39625
311.46956
328.87994
333.74539
332.39481
327.58601
321.53023
315.31911
309.66391
304.91999
301.29335
298.70853
297.89559
1.4734782
1.5920039
3.8476255
5.1221508
6.614091
7.4359639
7.563759
6.3897632
3.2726912
-2.8355788
-13.379979
-30.397015
-56.554887
-95.259842
-150.64439
-225.25643
-325.04828
-442.79984
-576.02331
-715.67943
-858.20956
-993.28002
-1122.5272
-1230.9001
-1313.6334
-1364.5448
-1381.4236
-1348.1473
-1259.8869
-1098.7419
-884.64181
-627.79865
-353.90765
-152.01735
15.850452
124.43478
200.55454
245.92949
273.48401
287.8659
294.64073
296.59476
295.9903
294.09229
291.76963
289.52202
287.66436
286.27584
285.83522
2.946018
3.3300094
4.9192149
5.38335
5.5192663
4.7281674
2.7827219
-0.9346946
-7.1806972
-17.047162
-31.975237
-53.847704
-84.9684
-128.02878
-185.9131
-260.30072
-353.94369
-462.00238
-581.69888
-706.20314
-831.49838
-949.92934
-1060.1111
-1151.694
-1219.7858
-1258.1088
-1262.3439
-1222.2224
-1135.445
-994.06651
-812.00017
-599.46048
-377.88763
-200.08745
-49.621471
56.962289
135.63143
187.86189
223.00511
245.04749
258.68997
266.57651
270.8921
272.97629
273.78647
273.91962
273.76826
273.54429
273.47058
-2.7598935
-3.4056546
-5.4600318
-7.297363
-9.896563
-13.351545
-18.161633
-24.838888
-34.116553
-46.944575
-64.560942
-88.522978
-120.68729
-163.14196
-217.99436
-286.50233
-370.01177
-465.32455
-569.85168
-678.35174
-786.86164
-889.2672
-982.62283
-1059.223
-1114.6109
-1143.6114
-1142.4227
-1104.0677
-1026.1628
-905.06393
-750.90463
-573.54371
-390.33989
-233.91268
-98.938582
3.3610614
82.064015
138.28709
178.65417
206.46613
225.58689
238.41393
246.96498
252.56814
256.20378
258.51762
259.9464
260.80901
261.07321
-1.6431697
-2.188768
-5.1218275
-7.9771371
-12.129095
-17.36934
-24.350387
-33.534824
-45.684185
-61.688493
-82.669712
-109.94693
-144.99911
-189.36007
-244.4115
-310.82934
-388.9451
-476.30334
-570.42728
-667.09275
-762.5925
-851.94849
-931.76535
-996.05445
-1040.6231
-1060.9031
-1053.4407
-1013.9171
-941.30151
-834.78621
-702.02678
-551.5369
-396.84299
-258.79604
-137.34043
-40.353255
36.968867
95.330876
139.29822
171.50222
195.04122
212.01559
224.23214
232.9549
239.14505
243.46286
246.36396
248.25187
248.84216
-6.4507108
-7.7570609
-13.677941
-18.271318
-24.461743
-31.571128
-40.483726
-51.555525
-65.524697
-83.163483
-105.44351
-133.45964
-168.40227
-211.44527
-263.56344
-325.15287
-396.11115
-474.51924
-558.12111
-643.42989
-727.04923
-804.77213
-873.17318
-927.47733
-964.01273
-978.99546
-969.53799
-932.58152
-867.4338
-774.54952
-659.97056
-531.03927
-398.37231
-275.99437
-166.26035
-74.982294
0.034391984
59.113125
105.31491
140.67241
167.62012
187.94624
203.22632
214.62254
223.04367
229.13587
233.35227
236.16098
237.03613
-5.8882056
-7.2280976
-14.180537
-19.85123
-27.583882
-36.390357
-47.2689
-60.488917
-76.768576
-96.779361
-121.3533
-151.36639
-187.7174
-231.21541
-282.43224
-341.44488
-407.81788
-479.89563
-555.59657
-631.96016
-705.92542
-773.89295
-832.62461
-878.17514
-907.30142
-916.86124
-904.55551
-868.50495
-808.61678
-726.0469
-625.62586
-513.46374
-397.82889
-288.53179
-188.79276
-103.08244
-30.756285
28.181929
75.701639
113.3169
142.90206
165.94402
183.79008
197.48394
207.86476
215.54672
220.96502
224.63426
225.79135
-9.6091756
-11.451903
-20.710486
-27.63157
-36.837198
-46.928985
-59.100786
-73.526969
-90.909493
-111.82771
-137.00486
-167.16082
-203.004
-245.12147
-293.85766
-349.12583
-410.35038
-476.0783
-544.40887
-612.77823
-678.43417
-738.25116
-789.26931
-828.18938
-852.19751
-858.67414
-845.75073
-812.11054
-757.88278
-684.49253
-595.92692
-497.32249
-395.24102
-296.89316
-205.68426
-125.21326
-55.741647
2.4647917
50.595024
89.731021
121.28549
146.46739
166.40745
182.02262
194.07075
203.12066
209.57836
213.99136
215.37691
-9.5428318
-11.477316
-21.790413
-29.697401
-40.262783
-51.785906
-65.551831
-81.637044
-100.70864
-123.24559
-149.85115
-181.079
-217.43903
-259.29498
-306.77163
-359.61876
-417.15102
-478.03334
-540.51524
-602.33741
-661.0284
-713.84816
-758.12838
-791.06552
-810.23671
-813.49681
-799.4025
-767.16481
-717.14488
-650.84838
-571.58708
-483.63846
-392.24386
-302.89583
-218.84476
-143.08485
-76.384527
-19.208183
29.078842
69.207159
102.21663
129.07188
150.71002
167.92682
181.39994
191.65064
199.05232
204.17632
205.82163
-12.253106
-14.455836
-26.465539
-35.225782
-46.827187
-59.218003
-73.846316
-90.706301
-110.45521
-133.50125
-160.37015
-191.50744
-227.29799
-267.96827
-313.51345
-363.59344
-417.47857
-473.92919
-531.32791
-587.65166
-640.66829
-687.94759
-727.09213
-755.68111
-771.60622
-773.066
-758.8994
-728.58432
-682.57985
-622.36973
-550.77562
-471.41961
-388.58877
-306.64355
-228.57863
-156.96737
-92.852778
-36.844873
11.300249
52.033766
86.098475
114.24886
137.25151
155.78775
170.45522
181.72317
189.92572
195.64419
197.48245
-12.526947
-14.779001
-27.740337
-37.280223
-49.954121
-63.424782
-79.22267
-97.249939
-118.13331
-142.19964
-169.88733
-201.52879
-237.38385
-277.5483
-321.89962
-370.01725
-421.13871
-474.09104
-527.36821
-579.13535
-627.36609
-669.88667
-704.54594
-729.23819
-742.14033
-741.75979
-727.18903
-698.1411
-655.15249
-599.63513
-534.01449
-461.37433
-385.27633
-309.28983
-236.12629
-168.04968
-106.23825
-51.403707
-3.5753248
37.480687
72.275098
101.38862
125.44526
145.02813
160.66719
172.79157
181.70899
188.02241
190.17454
-14.464623
-16.710384
-30.866241
-40.922622
-54.288682
-68.313884
-84.666721
-103.17804
-124.47061
-148.81939
-176.61075
-208.10577
-243.48596
-282.76516
-325.74858
-371.96895
-420.65222
-470.67847
-520.63146
-568.8197
-613.37956
-652.33486
-683.73075
-705.69385
-716.61103
-715.20418
-700.73367
-673.04127
-632.69402
-581.02487
-520.17055
-452.81572
-382.00165
-310.75434
-241.53531
-176.3842
-116.53894
-62.780242
-15.326132
25.892379
61.208761
91.064224
115.96642
136.41523
152.88075
165.75464
175.31427
182.14889
184.57572
-14.958401
-17.072133
-31.988121
-42.542861
-56.645251
-71.375758
-88.483602
-107.72283
-129.69774
-154.62687
-182.84174
-214.53459
-249.81504
-288.62552
-330.71118
-375.56747
-422.41381
-470.17098
-517.4958
-562.81004
-604.38328
-640.39926
-669.06899
-688.70865
-697.88399
-695.49443
-680.9361
-654.1504
-615.72132
-566.90493
-509.61416
-446.22703
-379.40251
-311.78293
-245.62139
-182.79231
-124.55205
-71.726272
-24.661588
16.589035
52.22656
82.583505
108.07576
129.13662
146.1892
159.60504
169.65517
176.93212
179.95065
-16.569835
-18.135514
-33.857418
-44.610299
-59.118039
-74.148196
-91.56955
-111.07564
-133.27244
-158.34506
-186.5953
-218.17461
-253.14964
-291.41946
-332.69276
-376.44305
-421.8883
-467.97796
-513.42041
-556.71571
-596.22667
-630.2474
-657.10373
-675.23851
-683.33611
-680.41214
-665.95161
-639.95913
-603.02339
-556.33601
-501.65583
-441.14869
-377.21413
-312.23821
-248.31955
-187.21737
-130.18816
-78.085056
-31.338207
9.9151181
45.783853
76.523671
102.48649
124.06133
141.64294
155.60324
166.23218
174.07574
178.12606
-17.266595
-18.348092
-34.560007
-45.506856
-60.395378
-75.767622
-93.559153
-113.41264
-135.92745
-161.25894
-189.68278
-221.31773
-256.1977
-294.19023
-334.97881
-378.0227
-422.54047
-467.50212
-511.65285
-553.54743
-591.61469
-624.22672
-649.7922
-666.84451
-674.15484
-670.82462
-656.39374
-630.88423
-594.88245
-549.54807
-496.53888
-437.88309
-375.81466
-312.55879
-250.11075
-190.15581
-133.94488
-82.347082
-35.843544
5.3741222
41.3547
72.301566
98.521336
120.36896
138.21023
152.41659
163.31177
171.07477
176.43367
-19.697991
-18.62867
-35.329628
-46.176369
-61.210798
-76.664294
-94.558541
-114.49653
-137.08285
-162.45961
-190.89337
-222.48942
-257.26809
-295.08321
-335.60706
-378.29225
-422.35725
-466.78093
-510.32495
-551.56883
-588.97156
-620.94078
-645.9227
-662.49065
-669.45247
-665.93693
-651.50441
-626.23188
-590.71693
-546.07151
-493.90413
-436.17463
-375.0377
-312.64157
-250.93013
-191.5523
-135.75422
-84.411851
-38.029863
3.1743214
39.221081
70.289627
96.667386
118.6987
136.74489
151.22465
162.51711
170.11298
181.60007
841.34467
864.75832
911.90971
931.83571
915.72886
882.24017
823.93922
763.15187
688.81586
619.25253
-450.68643
-441.28614
-435.73624
-420.66272
-419.58894
-403.49618
-407.50165
-393.05373
-401.87298
-395.70703
-614.9566
-605.77585
-600.9529
-584.75667
-583.3603
-564.0214
-566.47349
-545.94661
-551.02412
-533.60744
-781.65123
-770.75018
-764.4066
-745.24537
-742.53568
-719.64905
-721.20685
-696.48428
-702.93228
-682.38408
-933.49492
-922.32132
-916.47082
-895.88552
-893.04345
-867.03564
-867.41999
-836.99718
-839.56778
-800.7945
-1089.1535
-1075.7383
-1068.27
-1044.621
-1040.9957
-1012.0375
-1013.0103
-981.20793
-988.19995
-960.2299
-1228.7041
-1214.5455
-1207.2785
-1181.8222
-1178.1447
-1145.666
-1145.3283
-1107.066
-1108.7287
-1063.3283
-1363.1352
-1349.0062
-1342.8134
-1316.0439
-1313.0281
-1277.7646
-1277.7878
-1235.6333
-1236.1515
-1188.5338
-3232.3466
-3168.6192
-3164.1252
-3068.0818
-3076.1232
-2956.3672
-2967.9374
-2830.1121
-2836.4874
-2676.4823
-1623.7915
-1607.7664
-1602.4714
-1571.8483
-1570.2113
-1528.9277
-1530.3244
-1479.9367
-1482.2073
-1423.0711
-1760.9301
-1741.7708
-1734.9384
-1700.27
-1698.0003
-1652.4268
-1654.0747
-1599.4071
-1603.0124
-1542.565
-1892.258
-1870.1412
-1862.3383
-1823.9937
-1821.6128
-1771.5594
-1773.163
-1712.7304
-1715.4196
-1644.9216
-2011.8363
-1989.3919
-1983.2897
-1943.2624
-1942.7491
-1889.5979
-1892.9554
-1828.2428
-1830.352
-1750.7423
-2134.5511
-2110.6787
-2105.5738
-2062.8801
-2063.9014
-2007.5159
-2014.0309
-1948.0857
-1959.6224
-1901.3472
-2264.4326
-2236.2285
-2229.5188
-2181.3749
-2181.3389
-2117.9315
-2122.0786
-2044.35
-2047.5412
-1952.2017
-2385.5189
-2355.2208
-2349.4496
-2297.9783
-2299.568
-2231.8911
-2238.2218
-2156.0407
-2161.1189
-2060.9947
-2505.8013
-2473.2563
-2468.583
-2413.3933
-2416.7028
-2344.6705
-2354.3336
-2270.081
-2285.5037
-2204.8236
-2632.3151
-2594.6912
-2588.7264
-2527.1207
-2529.727
-2449.5749
-2457.0574
-2360.3129
-2367.0478
-2249.0929
-2751.1293
-2710.2527
-2705.1135
-2638.6871
-2642.9786
-2556.9869
-2566.4723
-2463.9784
-2471.663
-2350.2452
-2866.3871
-2822.5173
-2818.899
-2747.5593
-2754.1343
-2662.453
-2675.2834
-2568.9736
-2584.6215
-2476.215
-2982.6532
-2934.1376
-2931.2249
-2853.2636
-2860.8424
-2760.8328
-2773.295
-2655.8492
-2667.0691
-2534.8292
-3099.0095
-3045.9131
-3044.4519
-2959.3414
-2968.068
-2859.1922
-2871.8085
-2744.9292
-2755.6689
-2612.9501
-1506.5662
-1488.9095
-1480.4296
-1449.7693
-1446.0792
-1407.3076
-1408.1216
-1363.1092
-1367.5405
-1322.1116
353.96118
358.10046
359.84821
366.06986
360.21606
357.98115
339.48886
324.83254
293.56601
264.37592
-266.7394
-258.84861
-254.94938
-242.87675
-243.51176
-231.24458
-236.74022
-226.7105
-235.67614
-230.40592
542.46552
550.1475
575.13351
594.98802
594.89166
587.99459
559.78578
529.42659
483.43651
433.91941
122.67733
129.72604
133.44278
142.34237
139.5002
143.92928
132.73906
129.8088
111.80257
104.66247
-77.73243
-70.213027
-66.701141
-56.821685
-59.308066
-51.986649
-61.805407
-61.486612
-80.87081
-100.28147
2692.4223
4097.5589
4164.5337
4173.6593
3954.7437
3669.0146
3332.7334
2984.8049
2625.1044
2206.9535
-3160.8356
-1394.0547
-1104.0933
-395.73905
-86.560168
190.32027
330.64065
407.47047
429.47307
396.41197
-3332.6871
-3267.8068
-3268.4969
-3166.6401
-3178.7398
-3050.5588
-3064.2581
-2918.7373
-2925.4265
-2764.0512
-3459.3658
-3384.9722
-3385.6289
-3272.622
-3285.6824
-3145.8087
-3159.4243
-3003.0094
-3004.4519
-2833.5575
-3582.6878
-3499.0955
-3500.8889
-3376.5268
-3391.5218
-3239.6727
-3254.5041
-3088.0416
-3088.8808
-2920.586
-3704.5535
-3611.281
-3614.5266
-3477.4972
-3494.2281
-3328.5154
-3342.9058
-3162.2475
-3158.6981
-2976.452
-3823.9598
-3720.8545
-3726.8197
-3576.2523
-3595.2599
-3414.7325
-3428.2304
-3232.6197
-3224.7103
-3020.9739
-3951.2099
-3835.1693
-3843.3009
-3676.8292
-3697.8749
-3501.1758
-3513.179
-3302.7279
-3288.2769
-3065.0866
-4080.4819
-3950.1923
-3961.3998
-3777.8096
-3802.0409
-3589.1496
-3601.0576
-3378.3559
-3358.771
-3126.1711
-4208.2526
-4062.6497
-4078.2337
-3875.9217
-3904.0573
-3674.2747
-3686.7341
-3454.1682
-3435.7255
-3215.5987
-4339.4765
-4174.3104
-4193.5633
-3968.7034
-3999.2626
-3748.8562
-3756.8126
-3506.8861
-3472.9197
-3215.0597
-4465.4325
-4279.3167
-4304.3137
-4054.9807
-4089.1589
-3818.1888
-3823.4867
-3562.5642
-3520.5643