/*--------------------------------*- C++ -*----------------------------------*\
| =========                 |                                                 |
| \\      /  F ield         | foam-extend: Open Source CFD                    |
|  \\    /   O peration     | Version:     4.1                                |
|   \\  /    A nd           | Web:         http://www.foam-extend.org         |
|    \\/     M anipulation  |                                                 |
\*---------------------------------------------------------------------------*/
FoamFile
{
    version     2.0;
    format      ascii;
    class       volScalarField;
    location    "0.06";
    object      rAU;
}
// * * * * * * * * * * * * * * * * * * * * * * * * * * * * * * * * * * * * * //

dimensions      [0 0 1 0 0 0 0];

internalField   nonuniform List<scalar> 
4393
(
4.4622601e-05
4.4617127e-05
4.4612096e-05
4.4606785e-05
4.460119e-05
4.4595252e-05
4.4588887e-05
4.4582032e-05
4.4574624e-05
4.4566609e-05
4.4557944e-05
4.4548606e-05
4.4538597e-05
4.4527954e-05
4.4516743e-05
4.4505108e-05
4.4493197e-05
4.4481222e-05
4.4469452e-05
4.4458173e-05
4.44477e-05
4.4438353e-05
4.4430442e-05
4.4424252e-05
4.4420017e-05
4.4417912e-05
4.4417912e-05
4.4418027e-05
4.4420364e-05
4.4424824e-05
4.4431192e-05
4.4439164e-05
4.444836e-05
4.4458361e-05
4.4468744e-05
4.4479116e-05
4.4489135e-05
4.4498531e-05
4.4507103e-05
4.4514723e-05
4.4521318e-05
4.4526868e-05
4.4531387e-05
4.4534915e-05
4.4537506e-05
4.4539225e-05
4.4540144e-05
4.4539965e-05
4.453827e-05
4.4509433e-05
4.4505528e-05
4.4502659e-05
4.4499388e-05
4.449584e-05
4.4491875e-05
4.4487422e-05
4.4482412e-05
4.4476788e-05
4.4470497e-05
4.4463511e-05
4.4455821e-05
4.4447453e-05
4.4438472e-05
4.442898e-05
4.4419166e-05
4.4409222e-05
4.4399411e-05
4.4390044e-05
4.4381448e-05
4.4373964e-05
4.4367926e-05
4.4363643e-05
4.4361378e-05
4.4361329e-05
4.4363614e-05
4.43656e-05
4.4365798e-05
4.4368342e-05
4.437323e-05
4.4380342e-05
4.4389442e-05
4.4400188e-05
4.4412161e-05
4.4424899e-05
4.4437957e-05
4.4450919e-05
4.4463447e-05
4.4475273e-05
4.4486212e-05
4.4496149e-05
4.4505028e-05
4.4512842e-05
4.4519614e-05
4.4525392e-05
4.453023e-05
4.4534178e-05
4.4536865e-05
4.4538114e-05
4.4502469e-05
4.4498803e-05
4.4495976e-05
4.4492691e-05
4.4489072e-05
4.4484971e-05
4.448032e-05
4.4475044e-05
4.4469088e-05
4.4462404e-05
4.4454969e-05
4.4446786e-05
4.44379e-05
4.4428401e-05
4.4418427e-05
4.4408205e-05
4.4397975e-05
4.438805e-05
4.4378789e-05
4.4370563e-05
4.4363744e-05
4.4358688e-05
4.4355707e-05
4.4355055e-05
4.4356898e-05
4.4361302e-05
4.4360712e-05
4.4358689e-05
4.4359207e-05
4.4362369e-05
4.4368145e-05
4.4376353e-05
4.4386667e-05
4.439864e-05
4.4411751e-05
4.4425477e-05
4.4439319e-05
4.445286e-05
4.4465766e-05
4.4477799e-05
4.4488806e-05
4.4498708e-05
4.4507482e-05
4.4515148e-05
4.452175e-05
4.452735e-05
4.4532002e-05
4.4535734e-05
4.4538154e-05
4.4499408e-05
4.4495962e-05
4.4493125e-05
4.4489736e-05
4.4485935e-05
4.448157e-05
4.4476579e-05
4.4470883e-05
4.4464428e-05
4.4457167e-05
4.4449081e-05
4.4440184e-05
4.4430535e-05
4.442025e-05
4.4409498e-05
4.4398551e-05
4.4387701e-05
4.4377318e-05
4.4367819e-05
4.4359629e-05
4.4353166e-05
4.4348818e-05
4.4346914e-05
4.4347707e-05
4.4351342e-05
4.4357842e-05
4.435469e-05
4.4350363e-05
4.4348821e-05
4.4350282e-05
4.435481e-05
4.4362274e-05
4.4372351e-05
4.438455e-05
4.4398263e-05
4.4412873e-05
4.4427777e-05
4.4442477e-05
4.4456565e-05
4.4469758e-05
4.4481865e-05
4.4492793e-05
4.4502509e-05
4.4511033e-05
4.4518414e-05
4.4524719e-05
4.4530011e-05
4.4534336e-05
4.4537231e-05
4.4495993e-05
4.4492596e-05
4.4489731e-05
4.4486271e-05
4.4482343e-05
4.4477787e-05
4.4472535e-05
4.4466502e-05
4.4459626e-05
4.4451856e-05
4.4443171e-05
4.4433587e-05
4.4423174e-05
4.4412066e-05
4.4400462e-05
4.4388678e-05
4.4377061e-05
4.4366047e-05
4.4356121e-05
4.4347773e-05
4.4341478e-05
4.4337667e-05
4.4336699e-05
4.4338839e-05
4.4344219e-05
4.4352832e-05
4.4347215e-05
4.4340404e-05
4.4336681e-05
4.4336394e-05
4.4339711e-05
4.4346551e-05
4.4356588e-05
4.4369257e-05
4.438383e-05
4.4399572e-05
4.4415753e-05
4.4431785e-05
4.4447182e-05
4.4461618e-05
4.4474876e-05
4.448685e-05
4.4497511e-05
4.4506887e-05
4.4515039e-05
4.4522049e-05
4.4527996e-05
4.4532949e-05
4.4536429e-05
4.4492643e-05
4.4489466e-05
4.4486692e-05
4.4483208e-05
4.4479163e-05
4.4474399e-05
4.4468851e-05
4.4462428e-05
4.4455063e-05
4.44467e-05
4.4437314e-05
4.4426921e-05
4.4415597e-05
4.4403495e-05
4.4390845e-05
4.4378008e-05
4.4365393e-05
4.4353513e-05
4.4342931e-05
4.4334215e-05
4.4327909e-05
4.4324502e-05
4.4324391e-05
4.4327862e-05
4.4335047e-05
4.4345907e-05
4.4338052e-05
4.4328604e-05
4.4322597e-05
4.4320533e-05
4.4322705e-05
4.4329089e-05
4.4339343e-05
4.4352801e-05
4.4368565e-05
4.4385756e-05
4.4403484e-05
4.442106e-05
4.4437918e-05
4.4453693e-05
4.4468149e-05
4.4481181e-05
4.4492769e-05
4.450296e-05
4.4511836e-05
4.45195e-05
4.4526057e-05
4.4531607e-05
4.4535695e-05
4.4488879e-05
4.4485696e-05
4.4482927e-05
4.4479425e-05
4.4475323e-05
4.4470446e-05
4.4464718e-05
4.4458032e-05
4.4450311e-05
4.4441482e-05
4.4431506e-05
4.442039e-05
4.4408206e-05
4.4395113e-05
4.4381366e-05
4.4367372e-05
4.4353605e-05
4.4340667e-05
4.4329214e-05
4.431991e-05
4.431338e-05
4.4310184e-05
4.4310771e-05
4.4315468e-05
4.4324414e-05
4.4337559e-05
4.4327667e-05
4.4315237e-05
4.4306674e-05
4.4302669e-05
4.4303671e-05
4.4309721e-05
4.4320448e-05
4.4335045e-05
4.4352371e-05
4.437137e-05
4.4390945e-05
4.4410303e-05
4.4428789e-05
4.4446008e-05
4.4461714e-05
4.4475819e-05
4.4488324e-05
4.4499304e-05
4.4508868e-05
4.4517148e-05
4.4524278e-05
4.4530384e-05
4.453504e-05
4.4485387e-05
4.4482526e-05
4.4479966e-05
4.4476533e-05
4.4472402e-05
4.4467398e-05
4.4461444e-05
4.4454424e-05
4.4446247e-05
4.4436824e-05
4.44261e-05
4.4414068e-05
4.4400795e-05
4.4386443e-05
4.4371293e-05
4.4355802e-05
4.4340522e-05
4.4326162e-05
4.4313492e-05
4.4303289e-05
4.4296278e-05
4.4293107e-05
4.4294287e-05
4.4300204e-05
4.4311017e-05
4.432667e-05
4.4315191e-05
4.4299517e-05
4.4288192e-05
4.4282133e-05
4.4282001e-05
4.4287918e-05
4.4299485e-05
4.4315703e-05
4.4335082e-05
4.4356354e-05
4.4378153e-05
4.4399581e-05
4.4419884e-05
4.4438661e-05
4.4455665e-05
4.4470844e-05
4.4484234e-05
4.4495951e-05
4.4506144e-05
4.4514981e-05
4.4522629e-05
4.4529248e-05
4.453444e-05
4.4481432e-05
4.4478517e-05
4.4475972e-05
4.4472561e-05
4.4468437e-05
4.4463395e-05
4.4457346e-05
4.4450151e-05
4.4441697e-05
4.4431868e-05
4.4420582e-05
4.4407799e-05
4.4393562e-05
4.4378021e-05
4.4361468e-05
4.4344403e-05
4.4327457e-05
4.431147e-05
4.4297344e-05
4.4285995e-05
4.4278262e-05
4.42749e-05
4.427649e-05
4.4283503e-05
4.429613e-05
4.4314329e-05
4.4301659e-05
4.4282157e-05
4.4267572e-05
4.4259115e-05
4.4257732e-05
4.4263652e-05
4.4276438e-05
4.4294827e-05
4.4316813e-05
4.4340882e-05
4.4365312e-05
4.4389111e-05
4.441142e-05
4.4431854e-05
4.4450188e-05
4.4466424e-05
4.4480653e-05
4.4493044e-05
4.4503794e-05
4.4513113e-05
4.4521203e-05
4.452826e-05
4.4533914e-05
4.4478039e-05
4.4475599e-05
4.4473404e-05
4.4470182e-05
4.4466148e-05
4.4461096e-05
4.4454932e-05
4.4447502e-05
4.4438669e-05
4.4428287e-05
4.4416236e-05
4.4402442e-05
4.4386917e-05
4.4369793e-05
4.4351372e-05
4.4332207e-05
4.4313025e-05
4.429484e-05
4.4278714e-05
4.4265738e-05
4.425688e-05
4.4253026e-05
4.4254837e-05
4.4262904e-05
4.4277466e-05
4.429851e-05
4.4285486e-05
4.4261747e-05
4.4243539e-05
4.4232435e-05
4.4229785e-05
4.4235973e-05
4.4250548e-05
4.4271904e-05
4.4297249e-05
4.4324814e-05
4.4352391e-05
4.4378933e-05
4.4403465e-05
4.4425664e-05
4.4445349e-05
4.4462611e-05
4.4477612e-05
4.4490595e-05
4.4501814e-05
4.4511528e-05
4.4519982e-05
4.4527405e-05
4.4533456e-05
4.4474086e-05
4.4471535e-05
4.4469338e-05
4.4466165e-05
4.4462188e-05
4.4457171e-05
4.4450998e-05
4.4443491e-05
4.4434482e-05
4.4423784e-05
4.4411232e-05
4.4396693e-05
4.4380121e-05
4.4361602e-05
4.4341414e-05
4.4320143e-05
4.4298604e-05
4.4278025e-05
4.4259657e-05
4.4244802e-05
4.4234576e-05
4.4230014e-05
4.423185e-05
4.4240839e-05
4.425727e-05
4.4281174e-05
4.4268562e-05
4.4239636e-05
4.4216935e-05
4.4202517e-05
4.4198323e-05
4.4204939e-05
4.422192e-05
4.4247205e-05
4.4276761e-05
4.4308604e-05
4.4339854e-05
4.4369489e-05
4.4396413e-05
4.4420429e-05
4.4441433e-05
4.445964e-05
4.4475306e-05
4.4488762e-05
4.4500332e-05
4.4510328e-05
4.4519038e-05
4.4526728e-05
4.4533082e-05
4.4471025e-05
4.4469127e-05
4.4467444e-05
4.4464613e-05
4.4460889e-05
4.4456033e-05
4.4449927e-05
4.4442367e-05
4.4433148e-05
4.4422034e-05
4.4408792e-05
4.4393221e-05
4.4375197e-05
4.4354742e-05
4.4332108e-05
4.4307926e-05
4.4283118e-05
4.4259229e-05
4.4237749e-05
4.4220252e-05
4.4208011e-05
4.4202239e-05
4.4203722e-05
4.4213461e-05
4.4231819e-05
4.4258907e-05
4.4248221e-05
4.4213492e-05
4.4185692e-05
4.4167452e-05
4.4161577e-05
4.416896e-05
4.4189281e-05
4.4219925e-05
4.4254865e-05
4.4292053e-05
4.432766e-05
4.4360833e-05
4.4390354e-05
4.4416245e-05
4.4438523e-05
4.4457574e-05
4.4473778e-05
4.4487573e-05
4.4499361e-05
4.4509517e-05
4.4518373e-05
4.4526228e-05
4.4532794e-05
4.4467312e-05
4.4465239e-05
4.446352e-05
4.4460752e-05
4.4457121e-05
4.445236e-05
4.4446328e-05
4.4438793e-05
4.4429516e-05
4.441821e-05
4.4404577e-05
4.4388324e-05
4.4369224e-05
4.4347187e-05
4.4322376e-05
4.4295417e-05
4.4267288e-05
4.4239949e-05
4.4215159e-05
4.4194825e-05
4.4180371e-05
4.4173232e-05
4.4174181e-05
4.4184586e-05
4.4204843e-05
4.4235104e-05
4.4227817e-05
4.4185771e-05
4.4151341e-05
4.4127971e-05
4.4119807e-05
4.4128132e-05
4.4152882e-05
4.4190765e-05
4.4232427e-05
4.4276136e-05
4.4316717e-05
4.435376e-05
4.4385935e-05
4.4413621e-05
4.4437007e-05
4.4456706e-05
4.4473245e-05
4.4487188e-05
4.4499021e-05
4.450918e-05
4.4518042e-05
4.452594e-05
4.4532607e-05
4.446479e-05
4.4463536e-05
4.4462497e-05
4.4460249e-05
4.445708e-05
4.4452725e-05
4.4447041e-05
4.4439764e-05
4.4430606e-05
4.4419207e-05
4.4405164e-05
4.4388055e-05
4.4367498e-05
4.4343246e-05
4.4315334e-05
4.4284394e-05
4.4251457e-05
4.4219167e-05
4.4189648e-05
4.4165266e-05
4.4147577e-05
4.4138276e-05
4.4137961e-05
4.4148567e-05
4.4170543e-05
4.4204133e-05
4.4202913e-05
4.4152622e-05
4.4110591e-05
4.4081066e-05
4.4070181e-05
4.4079794e-05
4.4110524e-05
4.4158485e-05
4.4208681e-05
4.4260541e-05
4.430692e-05
4.4348292e-05
4.4383224e-05
4.4412636e-05
4.4436955e-05
4.4457091e-05
4.4473749e-05
4.4487636e-05
4.4499329e-05
4.4509329e-05
4.4518056e-05
4.452587e-05
4.4532524e-05
4.4461622e-05
4.4460156e-05
4.4459057e-05
4.4456882e-05
4.4453834e-05
4.4449623e-05
4.4444083e-05
4.4436929e-05
4.4427837e-05
4.4416394e-05
4.4402117e-05
4.4384462e-05
4.4362883e-05
4.4336923e-05
4.4306396e-05
4.4271835e-05
4.4234127e-05
4.4196879e-05
4.4162584e-05
4.4134162e-05
4.4113199e-05
4.4101743e-05
4.4099979e-05
4.411084e-05
4.4134747e-05
4.4171777e-05
4.4179496e-05
4.4118633e-05
4.4066245e-05
4.402784e-05
4.4012863e-05
4.4023844e-05
4.406258e-05
4.4124784e-05
4.4185596e-05
4.4247333e-05
4.4300051e-05
4.4345861e-05
4.4383293e-05
4.4414058e-05
4.4438902e-05
4.4459094e-05
4.4475534e-05
4.4489079e-05
4.4500393e-05
4.4510035e-05
4.4518458e-05
4.4526043e-05
4.4532557e-05
4.4459764e-05
4.4459208e-05
4.4458913e-05
4.4457434e-05
4.4455082e-05
4.4451584e-05
4.4446778e-05
4.4440354e-05
4.443194e-05
4.442103e-05
4.4406999e-05
4.4389096e-05
4.4366492e-05
4.4338378e-05
4.4304195e-05
4.4264337e-05
4.4219376e-05
4.4174644e-05
4.4133196e-05
4.4098793e-05
4.4072957e-05
4.4058246e-05
4.4053773e-05
4.406399e-05
4.4089139e-05
4.4129033e-05
4.4150144e-05
4.4077187e-05
4.401295e-05
4.396366e-05
4.3943535e-05
4.395587e-05
4.4005091e-05
4.40878e-05
4.4161853e-05
4.423583e-05
4.4295679e-05
4.4346218e-05
4.4385991e-05
4.4417798e-05
4.4442795e-05
4.446268e-05
4.4478579e-05
4.4491504e-05
4.4502207e-05
4.4511296e-05
4.4519249e-05
4.4526463e-05
4.453271e-05
4.4457579e-05
4.445686e-05
4.4456532e-05
4.4455165e-05
4.445298e-05
4.4449688e-05
4.4445106e-05
4.4438909e-05
4.4430694e-05
4.4419905e-05
4.4405834e-05
4.4387585e-05
4.4364107e-05
4.4334254e-05
4.4296998e-05
4.4252471e-05
4.4200239e-05
4.4148247e-05
4.4100006e-05
4.4060263e-05
4.4029993e-05
4.4012473e-05
4.4004744e-05
4.4014377e-05
4.4041604e-05
4.4085276e-05
4.41256e-05
4.4037495e-05
4.3956436e-05
4.3890065e-05
4.3861387e-05
4.3874529e-05
4.3938079e-05
4.4051726e-05
4.4142128e-05
4.4230536e-05
4.4297424e-05
4.435202e-05
4.4393149e-05
4.4425049e-05
4.4449386e-05
4.4468309e-05
4.4483158e-05
4.4495074e-05
4.4504864e-05
4.4513165e-05
4.452046e-05
4.4527146e-05
4.4532989e-05
4.4456328e-05
4.4456453e-05
4.4456944e-05
4.4456378e-05
4.4455087e-05
4.4452812e-05
4.4449399e-05
4.4444529e-05
4.443778e-05
4.4428534e-05
4.441594e-05
4.4398838e-05
4.4375737e-05
4.4344809e-05
4.4304051e-05
4.4253038e-05
4.4189294e-05
4.4125671e-05
4.4066525e-05
4.4018191e-05
4.3980773e-05
4.3959166e-05
4.3946259e-05
4.3954379e-05
4.3982866e-05
4.4027848e-05
4.4082968e-05
4.398716e-05
4.3886932e-05
4.3799807e-05
4.3760756e-05
4.377309e-05
4.3854171e-05
4.4014007e-05
4.4123784e-05
4.4229377e-05
4.4303586e-05
4.4361964e-05
4.4403839e-05
4.4435173e-05
4.445825e-05
4.4475705e-05
4.4489095e-05
4.4499674e-05
4.4508295e-05
4.45156e-05
4.4522069e-05
4.4528082e-05
4.4533393e-05
4.445642e-05
4.4456566e-05
4.4457163e-05
4.4456829e-05
4.445583e-05
4.4453902e-05
4.4450879e-05
4.4446429e-05
4.4440106e-05
4.4431243e-05
4.4418902e-05
4.4401763e-05
4.4378055e-05
4.4345477e-05
4.4301135e-05
4.4244253e-05
4.416804e-05
4.4093201e-05
4.4024469e-05
4.3970085e-05
4.3927655e-05
4.390423e-05
4.3883956e-05
4.3889211e-05
4.3920003e-05
4.396948e-05
4.4031838e-05
4.3947328e-05
4.3820202e-05
4.3697027e-05
4.3637486e-05
4.3645069e-05
4.3750521e-05
4.3985421e-05
4.4118944e-05
4.4242687e-05
4.4321913e-05
4.4381206e-05
4.4421317e-05
4.4450095e-05
4.4470487e-05
4.4485464e-05
4.44967e-05
4.450546e-05
4.4512571e-05
4.4518634e-05
4.4524088e-05
4.4529276e-05
4.4533923e-05
4.4458468e-05
4.4459174e-05
4.4460435e-05
4.4460868e-05
4.4460827e-05
4.4460096e-05
4.4458577e-05
4.4456004e-05
4.4452003e-05
4.4445962e-05
4.4436943e-05
4.4423483e-05
4.4403377e-05
4.4373346e-05
4.4328295e-05
4.4265873e-05
4.417e-05
4.4076389e-05
4.399122e-05
4.3925355e-05
4.3872339e-05
4.3845293e-05
4.3814247e-05
4.3817898e-05
4.3855625e-05
4.3906052e-05
4.3953526e-05
4.3896152e-05
4.3735649e-05
4.3569642e-05
4.3490042e-05
4.3485751e-05
4.3614539e-05
4.3963079e-05
4.4120412e-05
4.4262718e-05
4.4346121e-05
4.4405062e-05
4.4442451e-05
4.4467786e-05
4.448483e-05
4.4496806e-05
4.4505497e-05
4.4512141e-05
4.4517516e-05
4.4522162e-05
4.4526458e-05
4.4530698e-05
4.4534568e-05
4.4475222e-05
4.4476314e-05
4.4478001e-05
4.4478947e-05
4.4479515e-05
4.4479501e-05
4.4478818e-05
4.4477205e-05
4.447428e-05
4.4469394e-05
4.4461519e-05
4.4448996e-05
4.4429223e-05
4.4398278e-05
4.4349295e-05
4.4280481e-05
4.41595e-05
4.4047226e-05
4.3948929e-05
4.3879341e-05
4.3823709e-05
4.3805248e-05
4.3758059e-05
4.3753973e-05
4.3793535e-05
4.3847064e-05
4.3890683e-05
4.3893301e-05
4.3697488e-05
4.3452717e-05
4.33168e-05
4.3277597e-05
4.3434253e-05
4.3976991e-05
4.4164498e-05
4.4315583e-05
4.439413e-05
4.4444197e-05
4.4473315e-05
4.4491502e-05
4.4502951e-05
4.4510543e-05
4.4515856e-05
4.4519867e-05
4.4523179e-05
4.4526188e-05
4.4529169e-05
4.4532338e-05
4.4535323e-05
4.4507645e-05
4.450884e-05
4.4510901e-05
4.4512447e-05
4.4513874e-05
4.4515032e-05
4.4515931e-05
4.4516449e-05
4.4516404e-05
4.4515422e-05
4.4512838e-05
4.4507423e-05
4.4496895e-05
4.447731e-05
4.4438521e-05
4.4375963e-05
4.421839e-05
4.4074041e-05
4.3953658e-05
4.3873794e-05
4.3803759e-05
4.3785654e-05
4.370967e-05
4.37002e-05
4.377833e-05
4.385877e-05
4.3841288e-05
4.3866504e-05
4.3642391e-05
4.3298881e-05
4.314604e-05
4.3070096e-05
4.3219319e-05
4.4027437e-05
4.4218209e-05
4.436868e-05
4.4443575e-05
4.448413e-05
4.4505359e-05
4.4516257e-05
4.4522012e-05
4.4525058e-05
4.4526849e-05
4.4528102e-05
4.4529248e-05
4.4530533e-05
4.4532121e-05
4.4534144e-05
4.4536167e-05
4.4556123e-05
4.4558067e-05
4.4560885e-05
4.4563246e-05
4.4565655e-05
4.4568011e-05
4.4570384e-05
4.4572715e-05
4.4574894e-05
4.4576607e-05
4.4577201e-05
4.4575329e-05
4.4568099e-05
4.455059e-05
4.4507692e-05
4.4439187e-05
4.4216073e-05
4.4033349e-05
4.3890441e-05
4.3810938e-05
4.3734698e-05
4.3772108e-05
3.5423419e-05
3.5319379e-05
3.5249763e-05
3.5166607e-05
3.492686e-05
3.4833625e-05
3.4771512e-05
3.4969797e-05
3.5247432e-05
3.5743397e-05
4.297566e-05
4.422846e-05
4.441725e-05
4.4501809e-05
4.4539186e-05
4.4548267e-05
4.4550028e-05
4.4547611e-05
4.4544562e-05
4.4541484e-05
4.4538934e-05
4.4537002e-05
4.453575e-05
4.4535176e-05
4.4535285e-05
4.4536091e-05
4.4537087e-05
4.4651002e-05
4.4652095e-05
4.4654593e-05
4.4656944e-05
4.4659583e-05
4.466245e-05
4.466569e-05
4.4669391e-05
4.4673676e-05
4.4678633e-05
4.4684294e-05
4.469057e-05
4.4696606e-05
4.4702906e-05
4.4698416e-05
4.4690199e-05
3.6027257e-05
3.6061257e-05
3.603681e-05
3.6209862e-05
3.6736997e-05
3.9777113e-05
4.8052938e-05
4.9995665e-05
4.9995665e-05
4.9995665e-05
4.9995665e-05
4.9995665e-05
4.9981394e-05
4.9482816e-05
4.9229248e-05
4.9055636e-05
3.4930178e-05
4.4626209e-05
4.4501897e-05
4.4560026e-05
4.4607885e-05
4.4598058e-05
4.4588267e-05
4.4575757e-05
4.4565587e-05
4.4557183e-05
4.4550703e-05
4.4545795e-05
4.4542254e-05
4.4539874e-05
4.4538522e-05
4.4538109e-05
4.4538054e-05
4.6098506e-05
4.6106427e-05
4.6117262e-05
4.6128375e-05
4.6140892e-05
4.6155031e-05
4.6171538e-05
4.6191253e-05
4.6215421e-05
4.6245803e-05
4.6285056e-05
4.6337332e-05
4.6409281e-05
4.6513067e-05
4.6665087e-05
3.5716636e-05
4.8511444e-05
4.9995665e-05
4.9995665e-05
4.9995665e-05
4.9995665e-05
4.9995665e-05
4.9995665e-05
4.9995665e-05
4.9995665e-05
4.9995665e-05
4.9995665e-05
4.9995665e-05
4.9995665e-05
4.9995665e-05
4.9995665e-05
4.9995665e-05
4.7255651e-05
3.0984521e-05
4.5063926e-05
4.4849435e-05
4.4746377e-05
4.4680663e-05
4.4638378e-05
4.4608886e-05
4.458846e-05
4.4573578e-05
4.4562694e-05
4.4554653e-05
4.4548779e-05
4.4544595e-05
4.4541793e-05
4.4540165e-05
4.4539049e-05
4.4668382e-05
4.4669495e-05
4.4672014e-05
4.4674414e-05
4.4677121e-05
4.4680082e-05
4.4683442e-05
4.4687296e-05
4.4691773e-05
4.4696968e-05
4.4702926e-05
4.4709581e-05
4.4716113e-05
4.4723124e-05
4.471982e-05
4.4713618e-05
3.6057876e-05
3.6092128e-05
3.6069644e-05
3.624184e-05
3.6772269e-05
3.9805521e-05
4.8059814e-05
4.9995665e-05
4.9995665e-05
4.9995665e-05
4.9995665e-05
4.9995665e-05
4.9978892e-05
4.948547e-05
4.9234338e-05
4.9066924e-05
3.491458e-05
4.4502652e-05
4.496222e-05
4.4812302e-05
4.4726034e-05
4.467388e-05
4.4636337e-05
4.460968e-05
4.45903e-05
4.457587e-05
4.4565017e-05
4.4556825e-05
4.4550683e-05
4.454617e-05
4.4542999e-05
4.454098e-05
4.453946e-05
4.4572749e-05
4.4574746e-05
4.4577615e-05
4.4580053e-05
4.4582558e-05
4.4585036e-05
4.4587558e-05
4.4590072e-05
4.4592471e-05
4.4594449e-05
4.4595362e-05
4.459387e-05
4.4587095e-05
4.4570118e-05
4.4527813e-05
4.4460245e-05
4.4235962e-05
4.4052818e-05
4.3909733e-05
4.3829189e-05
4.3752643e-05
4.3788478e-05
3.544469e-05
3.5338453e-05
3.5267083e-05
3.5181799e-05
3.4942818e-05
3.4847408e-05
3.4782691e-05
3.498032e-05
3.5260031e-05
3.572791e-05
4.2876222e-05
4.4076941e-05
4.4557754e-05
4.4609412e-05
4.4624453e-05
4.4611268e-05
4.4596719e-05
4.4583261e-05
4.4572084e-05
4.4563115e-05
4.4556e-05
4.4550454e-05
4.4546214e-05
4.4543096e-05
4.4540969e-05
4.4539755e-05
4.4538881e-05
4.4521061e-05
4.4522323e-05
4.4524459e-05
4.4526107e-05
4.4527658e-05
4.4528969e-05
4.4530052e-05
4.4530793e-05
4.4531016e-05
4.4530358e-05
4.4528167e-05
4.4523229e-05
4.451328e-05
4.4494392e-05
4.4456372e-05
4.4394685e-05
4.4236565e-05
4.4092258e-05
4.3972234e-05
4.3892548e-05
4.3823152e-05
4.3805394e-05
4.3729834e-05
4.3721286e-05
4.3799038e-05
4.387967e-05
4.3864033e-05
4.3879179e-05
4.3640784e-05
4.3291058e-05
4.3125523e-05
4.3030774e-05
4.3120037e-05
4.3952471e-05
4.4343085e-05
4.4464885e-05
4.4524148e-05
4.4543957e-05
4.4550807e-05
4.4551155e-05
4.4549192e-05
4.4546476e-05
4.4543777e-05
4.4541439e-05
4.4539607e-05
4.4538353e-05
4.4537716e-05
4.4537735e-05
4.4537916e-05
4.4479506e-05
4.448066e-05
4.4482416e-05
4.4483453e-05
4.4484129e-05
4.4484246e-05
4.4483718e-05
4.4482288e-05
4.4479578e-05
4.4474943e-05
4.4467361e-05
4.4455176e-05
4.4435793e-05
4.4405287e-05
4.4356763e-05
4.4288491e-05
4.4167401e-05
4.4055232e-05
4.395707e-05
4.388748e-05
4.3832051e-05
4.3813541e-05
4.3766349e-05
4.3762795e-05
4.3802837e-05
4.3857635e-05
4.3903549e-05
4.3886021e-05
4.368692e-05
4.3437942e-05
4.3294296e-05
4.3243684e-05
4.3367525e-05
4.3921213e-05
4.4218922e-05
4.436833e-05
4.4450367e-05
4.4490898e-05
4.4512268e-05
4.4522928e-05
4.452831e-05
4.4530911e-05
4.453215e-05
4.4532782e-05
4.4533239e-05
4.4533784e-05
4.4534595e-05
4.4535811e-05
4.4537007e-05
4.445831e-05
4.4459076e-05
4.4460404e-05
4.4460925e-05
4.446099e-05
4.4460385e-05
4.4459014e-05
4.4456613e-05
4.445281e-05
4.4446996e-05
4.4438235e-05
4.4425062e-05
4.4405266e-05
4.4375553e-05
4.4330783e-05
4.4268601e-05
4.4172556e-05
4.4078891e-05
4.399369e-05
4.3927761e-05
4.3874834e-05
4.3847821e-05
4.3816906e-05
4.3820888e-05
4.3858855e-05
4.3910124e-05
4.3959308e-05
4.3880682e-05
4.3716442e-05
4.3545749e-05
4.3459687e-05
4.3449333e-05
4.3566919e-05
4.3935463e-05
4.4161279e-05
4.4305693e-05
4.439361e-05
4.4445815e-05
4.4477465e-05
4.44966e-05
4.450848e-05
4.4516012e-05
4.4520989e-05
4.452448e-05
4.4527154e-05
4.4529445e-05
4.4531656e-05
4.4534018e-05
4.4536171e-05
4.4454022e-05
4.4454234e-05
4.4454903e-05
4.4454657e-05
4.4453763e-05
4.4451957e-05
4.4449076e-05
4.4444788e-05
4.4438649e-05
4.4429994e-05
4.4417886e-05
4.4401003e-05
4.437757e-05
4.4345277e-05
4.4301203e-05
4.4244565e-05
4.4168371e-05
4.4093582e-05
4.4024884e-05
4.3970522e-05
4.3928218e-05
4.3904941e-05
4.3885002e-05
4.3890916e-05
4.3922592e-05
4.3973514e-05
4.4037994e-05
4.3932392e-05
4.3802517e-05
4.3676136e-05
4.3612576e-05
4.3616681e-05
4.3717033e-05
4.3965414e-05
4.4139383e-05
4.4269557e-05
4.4355916e-05
4.441299e-05
4.4450407e-05
4.4475089e-05
4.4491656e-05
4.4503022e-05
4.4511072e-05
4.4517014e-05
4.4521647e-05
4.4525513e-05
4.4529001e-05
4.453241e-05
4.4535431e-05
4.4452804e-05
4.4452994e-05
4.4453553e-05
4.4453076e-05
4.4451888e-05
4.4449732e-05
4.4446456e-05
4.4441741e-05
4.4435165e-05
4.442611e-05
4.4413724e-05
4.4396843e-05
4.4373968e-05
4.4343258e-05
4.430269e-05
4.4251829e-05
4.4188105e-05
4.4124522e-05
4.4065415e-05
4.4017135e-05
4.3979853e-05
4.3958426e-05
4.3945834e-05
4.3954482e-05
4.3983721e-05
4.4029957e-05
4.4077657e-05
4.3970439e-05
4.3868042e-05
4.377874e-05
4.3737718e-05
4.3749652e-05
4.383141e-05
4.4003414e-05
4.4138876e-05
4.425084e-05
4.4331111e-05
4.438864e-05
4.4428895e-05
4.44572e-05
4.447725e-05
4.4491686e-05
4.4502317e-05
4.4510384e-05
4.4516751e-05
4.4522027e-05
4.4526663e-05
4.453101e-05
4.4534798e-05
4.4453409e-05
4.4452765e-05
4.4452517e-05
4.4451245e-05
4.4449169e-05
4.4446001e-05
4.444156e-05
4.4435521e-05
4.4427482e-05
4.4416888e-05
4.440303e-05
4.4385009e-05
4.4361769e-05
4.4332156e-05
4.4295128e-05
4.4250807e-05
4.4198709e-05
4.4146862e-05
4.4098774e-05
4.405922e-05
4.4029229e-05
4.4012083e-05
4.4004906e-05
4.4015332e-05
4.4043613e-05
4.4088748e-05
4.4112633e-05
4.4022916e-05
4.3940181e-05
4.3872219e-05
4.3842303e-05
4.3855549e-05
4.3920727e-05
4.404329e-05
4.4150249e-05
4.4245026e-05
4.4317653e-05
4.4372961e-05
4.4413718e-05
4.4443781e-05
4.4465969e-05
4.4482534e-05
4.4495096e-05
4.4504843e-05
4.451263e-05
4.4519091e-05
4.4524704e-05
4.4529851e-05
4.4534283e-05
4.4454886e-05
4.4454402e-05
4.4454182e-05
4.4452795e-05
4.4450549e-05
4.444717e-05
4.4442498e-05
4.4436223e-05
4.4427973e-05
4.441724e-05
4.44034e-05
4.4385696e-05
4.4363297e-05
4.4335386e-05
4.4301395e-05
4.4261712e-05
4.421689e-05
4.4172311e-05
4.4131031e-05
4.4096837e-05
4.4071287e-05
4.4056954e-05
4.4053014e-05
4.4063977e-05
4.4090144e-05
4.4131456e-05
4.4136784e-05
4.4062687e-05
4.3997421e-05
4.3947398e-05
4.3927154e-05
4.3940702e-05
4.3992701e-05
4.4082647e-05
4.4167891e-05
4.4247311e-05
4.4311817e-05
4.4363466e-05
4.4403305e-05
4.443391e-05
4.4457305e-05
4.4475304e-05
4.4489291e-05
4.4500344e-05
4.4509276e-05
4.4516711e-05
4.4523134e-05
4.4528938e-05
4.4533891e-05
4.4456292e-05
4.445491e-05
4.4453898e-05
4.4451824e-05
4.4448887e-05
4.4444802e-05
4.4439402e-05
4.4432402e-05
4.4423481e-05
4.4412223e-05
4.4398145e-05
4.4380701e-05
4.4359342e-05
4.4333606e-05
4.4303302e-05
4.4268958e-05
4.4231454e-05
4.4194429e-05
4.4160383e-05
4.4132263e-05
4.4111687e-05
4.4100725e-05
4.4099608e-05
4.411131e-05
4.413629e-05
4.4174696e-05
4.4167346e-05
4.4105564e-05
4.4052399e-05
4.4013538e-05
4.3998706e-05
4.4010966e-05
4.4052383e-05
4.4120183e-05
4.4188878e-05
4.4255388e-05
4.431214e-05
4.4359476e-05
4.4397431e-05
4.4427596e-05
4.4451359e-05
4.4470119e-05
4.4485012e-05
4.4496977e-05
4.4506753e-05
4.4514929e-05
4.4521977e-05
4.4528286e-05
4.4533626e-05
4.4458878e-05
4.4457701e-05
4.4456743e-05
4.4454592e-05
4.445153e-05
4.4447295e-05
4.4441743e-05
4.4434611e-05
4.4425612e-05
4.4414383e-05
4.4400523e-05
4.4383606e-05
4.4363249e-05
4.4339201e-05
4.4311497e-05
4.4280765e-05
4.4248038e-05
4.421598e-05
4.4186725e-05
4.4162662e-05
4.4145372e-05
4.4136576e-05
4.4136914e-05
4.4148363e-05
4.4171415e-05
4.4206374e-05
4.4191101e-05
4.4140277e-05
4.4097913e-05
4.4068413e-05
4.4058141e-05
4.4069303e-05
4.4102692e-05
4.4155134e-05
4.4211048e-05
4.4266846e-05
4.4316503e-05
4.4359388e-05
4.4394968e-05
4.44241e-05
4.4447666e-05
4.4466697e-05
4.4482094e-05
4.4494647e-05
4.4505008e-05
4.4513717e-05
4.4521218e-05
4.4527885e-05
4.4533482e-05
4.4461015e-05
4.4459032e-05
4.4457406e-05
4.4454741e-05
4.4451224e-05
4.4446588e-05
4.4440694e-05
4.4433309e-05
4.4424195e-05
4.4413066e-05
4.4399621e-05
4.4383569e-05
4.4364679e-05
4.434286e-05
4.4318275e-05
4.4291549e-05
4.4263664e-05
4.4236596e-05
4.4212114e-05
4.4192145e-05
4.4178135e-05
4.417154e-05
4.4173164e-05
4.4184402e-05
4.4205682e-05
4.4237188e-05
4.4216805e-05
4.4174374e-05
4.413977e-05
4.4116574e-05
4.4109116e-05
4.4118926e-05
4.4146058e-05
4.4187547e-05
4.4233553e-05
4.4280603e-05
4.4323974e-05
4.4362543e-05
4.4395495e-05
4.4423176e-05
4.4446095e-05
4.4464978e-05
4.4480514e-05
4.4493349e-05
4.4504044e-05
4.4513077e-05
4.4520857e-05
4.4527735e-05
4.4533458e-05
4.4464258e-05
4.4462443e-05
4.4460845e-05
4.4458113e-05
4.4454498e-05
4.4449762e-05
4.4443788e-05
4.443637e-05
4.4427306e-05
4.4416358e-05
4.4403294e-05
4.4387912e-05
4.4370087e-05
4.4349842e-05
4.4327428e-05
4.430348e-05
4.4278923e-05
4.4255315e-05
4.4234157e-05
4.4217042e-05
4.4205261e-05
4.420005e-05
4.420222e-05
4.42128e-05
4.4232177e-05
4.4260488e-05
4.4237847e-05
4.4202983e-05
4.4175258e-05
4.4157411e-05
4.4152385e-05
4.4161228e-05
4.4183683e-05
4.4217252e-05
4.4255539e-05
4.4295475e-05
4.4333379e-05
4.4367941e-05
4.4398229e-05
4.4424251e-05
4.4446242e-05
4.4464682e-05
4.4480083e-05
4.4492957e-05
4.4503775e-05
4.4512954e-05
4.452086e-05
4.4527815e-05
4.4533545e-05
4.4466996e-05
4.4464539e-05
4.4462438e-05
4.4459372e-05
4.4455509e-05
4.4450615e-05
4.4444577e-05
4.4437216e-05
4.4428364e-05
4.4417835e-05
4.4405463e-05
4.4391116e-05
4.4374748e-05
4.4356443e-05
4.4336483e-05
4.4315457e-05
4.4294183e-05
4.4273901e-05
4.425587e-05
4.4241409e-05
4.4231648e-05
4.422764e-05
4.423014e-05
4.4239919e-05
4.4257286e-05
4.4282287e-05
4.4258797e-05
4.4229845e-05
4.420732e-05
4.4193373e-05
4.4190043e-05
4.4198017e-05
4.4216882e-05
4.4244592e-05
4.4276832e-05
4.4310995e-05
4.43442e-05
4.437512e-05
4.440281e-05
4.4427063e-05
4.4447928e-05
4.4465696e-05
4.448073e-05
4.4493429e-05
4.4504178e-05
4.4513334e-05
4.4521217e-05
4.4528118e-05
4.4533738e-05
4.4470575e-05
4.4468222e-05
4.4466117e-05
4.4462996e-05
4.4459072e-05
4.445414e-05
4.4448105e-05
4.4440816e-05
4.4432134e-05
4.4421913e-05
4.4410036e-05
4.4396429e-05
4.4381101e-05
4.436419e-05
4.4345997e-05
4.4327079e-05
4.4308169e-05
4.4290289e-05
4.4274511e-05
4.4261941e-05
4.4253561e-05
4.4250271e-05
4.4252749e-05
4.4261601e-05
4.4277078e-05
4.4299173e-05
4.4276428e-05
4.4252808e-05
4.4234901e-05
4.4224348e-05
4.4222571e-05
4.4230014e-05
4.4246233e-05
4.4269596e-05
4.4297101e-05
4.4326589e-05
4.4355796e-05
4.4383471e-05
4.440871e-05
4.4431185e-05
4.4450818e-05
4.4467762e-05
4.4482262e-05
4.449462e-05
4.4505146e-05
4.451414e-05
4.4521878e-05
4.4528614e-05
4.4534025e-05
4.44737e-05
4.4470883e-05
4.4468436e-05
4.4465133e-05
4.4461121e-05
4.4456202e-05
4.4450284e-05
4.4443229e-05
4.4434926e-05
4.4425259e-05
4.4414145e-05
4.4401547e-05
4.4387507e-05
4.4372177e-05
4.4355852e-05
4.4339034e-05
4.4322359e-05
4.4306677e-05
4.4292896e-05
4.4281945e-05
4.4274674e-05
4.4271849e-05
4.4274065e-05
4.4281805e-05
4.4295267e-05
4.4314413e-05
4.4293134e-05
4.4273828e-05
4.4259608e-05
4.4251736e-05
4.4251205e-05
4.4258281e-05
4.4272517e-05
4.4292608e-05
4.4316388e-05
4.4342086e-05
4.4367907e-05
4.4392716e-05
4.4415682e-05
4.4436416e-05
4.4454763e-05
4.4470776e-05
4.4484611e-05
4.4496491e-05
4.4506659e-05
4.4515363e-05
4.4522837e-05
4.4529301e-05
4.4534403e-05
4.4477361e-05
4.447459e-05
4.4472124e-05
4.4468793e-05
4.4464773e-05
4.4459887e-05
4.445406e-05
4.4447177e-05
4.4439147e-05
4.4429881e-05
4.4419326e-05
4.4407475e-05
4.4394395e-05
4.4380253e-05
4.4365331e-05
4.4350089e-05
4.4335084e-05
4.4321034e-05
4.4308715e-05
4.4298914e-05
4.4292367e-05
4.4289732e-05
4.4291528e-05
4.4298151e-05
4.4309764e-05
4.4325908e-05
4.4307348e-05
4.4291951e-05
4.4281047e-05
4.4275591e-05
4.4276275e-05
4.4283241e-05
4.4296072e-05
4.4313724e-05
4.4334588e-05
4.4357223e-05
4.4380191e-05
4.4402493e-05
4.4423381e-05
4.4442449e-05
4.4459499e-05
4.4474517e-05
4.4487594e-05
4.4498888e-05
4.4508592e-05
4.4516906e-05
4.4524026e-05
4.4530136e-05
4.4534855e-05
4.4480632e-05
4.4477549e-05
4.447488e-05
4.4471484e-05
4.4467494e-05
4.4462736e-05
4.4457135e-05
4.4450584e-05
4.4443008e-05
4.4434332e-05
4.4424521e-05
4.4413581e-05
4.4401587e-05
4.4388697e-05
4.4375172e-05
4.436142e-05
4.434792e-05
4.433528e-05
4.4324165e-05
4.4315244e-05
4.4309152e-05
4.4306459e-05
4.430762e-05
4.4312969e-05
4.4322648e-05
4.4335551e-05
4.4320332e-05
4.4308234e-05
4.430013e-05
4.4296737e-05
4.4298523e-05
4.4305536e-05
4.4317384e-05
4.4333216e-05
4.4351799e-05
4.4371957e-05
4.4392528e-05
4.4412647e-05
4.4431651e-05
4.4449146e-05