/*--------------------------------*- C++ -*----------------------------------*\
| =========                 |                                                 |
| \\      /  F ield         | foam-extend: Open Source CFD                    |
|  \\    /   O peration     | Version:     4.1                                |
|   \\  /    A nd           | Web:         http://www.foam-extend.org         |
|    \\/     M anipulation  |                                                 |
\*---------------------------------------------------------------------------*/
FoamFile
{
    version     2.0;
    format      ascii;
    class       volScalarField;
    location    "2.8";
    object      p;
}
// * * * * * * * * * * * * * * * * * * * * * * * * * * * * * * * * * * * * * //

dimensions      [0 2 -2 0 0 0 0];

internalField   nonuniform List<scalar> 
4393
(
-46.41827
-92.981803
-146.74659
-201.53766
-258.52844
-318.02962
-380.42414
-446.02155
-515.04611
-587.60797
-663.67509
-743.04505
-825.31975
-909.88658
-995.91033
-1082.3384
-1167.9203
-1251.2386
-1330.7463
-1404.806
-1471.7265
-1529.7973
-1577.3239
-1612.6683
-1634.3032
-1640.8854
-1631.3605
-1605.1087
-1562.0231
-1502.6039
-1428.0624
-1340.304
-1241.8233
-1135.5206
-1024.4765
-911.72582
-800.06785
-691.93528
-589.32522
-493.78586
-406.44463
-328.06261
-259.10034
-199.78368
-150.17397
-110.24024
-79.763163
-57.83222
-43.627923
-45.166105
-92.395982
-146.03401
-200.67385
-257.49551
-316.8419
-379.10958
-444.62018
-513.6098
-586.20065
-662.37229
-741.93237
-824.48983
-909.43458
-995.92815
-1082.909
-1169.1129
-1253.106
-1333.3245
-1408.115
-1475.7717
-1534.5696
-1582.7973
-1618.7954
-1641.0075
-1648.0568
-1638.8538
-1612.7037
-1569.436
-1509.5441
-1434.2447
-1345.4785
-1245.8054
-1138.2116
-1025.8679
-911.8887
-799.13362
-690.07194
-586.7152
-490.60823
-402.86275
-324.2173
-255.10976
-195.75318
-146.20042
-106.36014
-75.961504
-54.862569
-44.264398
-44.361867
-91.499229
-144.77572
-199.05479
-255.52562
-314.56077
-376.57892
-441.92396
-510.85514
-583.51835
-659.916
-739.87537
-823.01874
-908.73986
-996.19233
-1084.2947
-1171.7532
-1257.0996
-1338.7353
-1414.975
-1484.0843
-1544.3101
-1593.9091
-1631.1785
-1654.5012
-1662.4208
-1653.759
-1627.738
-1584.0956
-1523.2532
-1446.422
-1355.6118
-1253.5193
-1143.309
-1028.338
-911.88376
-796.92618
-686.00489
-581.15554
-483.91041
-395.34363
-316.14207
-246.68981
-187.15621
-137.55068
-97.687849
-67.257741
-46.702816
-37.920288
-43.571147
-90.203484
-142.87201
-196.57256
-252.49937
-311.0536
-372.68275
-437.7627
-506.58748
-579.3395
-656.05699
-736.59865
-820.60888
-907.48892
-996.38124
-1086.174
-1175.5279
-1262.9213
-1346.7025
-1425.1387
-1496.4546
-1558.8583
-1610.5622
-1649.8028
-1674.8749
-1684.1995
-1676.4523
-1650.7042
-1606.5449
-1544.2893
-1465.1354
-1371.1991
-1265.3939
-1151.1694
-1032.1787
-911.95596
-793.66703
-679.95737
-572.89538
-473.98951
-384.25264
-304.29092
-234.40463
-174.68793
-125.07515
-85.291317
-55.02213
-34.93418
-26.790056
-42.746013
-88.586063
-140.40161
-193.29785
-248.47664
-306.36997
-367.46082
-432.16659
-500.8279
-573.67706
-650.80211
-732.10629
-817.26628
-905.69533
-996.52115
-1088.589
-1180.4947
-1270.6404
-1357.3006
-1438.6791
-1512.9482
-1578.2702
-1632.8044
-1674.7131
-1702.1782
-1713.4589
-1707.0291
-1681.739
-1636.9529
-1572.8177
-1490.4976
-1392.2537
-1281.3116
-1161.5347
-1037.0026
-911.61323
-788.7889
-671.31366
-561.29016
-460.18292
-368.91152
-287.96536
-217.52574
-157.57757
-107.95358
-68.296524
-38.299671
-18.683313
-10.926904
-41.737436
-86.536874
-137.25306
-189.11399
-243.33038
-300.36943
-360.75688
-424.96191
-493.38476
-566.32287
-643.93064
-726.17224
-812.77015
-903.15677
-996.44215
-1091.4141
-1186.5793
-1280.2368
-1370.5625
-1455.6797
-1533.7003
-1602.7368
-1660.8935
-1706.2492
-1736.8501
-1750.7505
-1746.1564
-1721.6151
-1676.169
-1609.7098
-1523.3301
-1419.4772
-1301.8088
-1174.7658
-1043.0178
-910.95458
-782.33312
-660.10539
-546.39998
-442.60512
-349.50301
-267.41955
-196.37217
-136.19501
-86.586637
-47.090363
-17.368615
1.8954356
9.4342578
-40.595506
-84.127159
-133.49117
-184.07007
-237.08791
-293.05301
-352.54161
-416.08548
-484.15859
-557.14071
-635.27211
-718.59807
-806.90496
-899.65523
-995.93945
-1094.4704
-1193.635
-1291.594
-1386.3953
-1476.0639
-1558.6463
-1632.2098
-1694.8102
-1744.4435
-1779.0049
-1796.3012
-1794.1937
-1770.8249
-1724.7864
-1655.5861
-1564.1762
-1453.2321
-1326.9987
-1190.7118
-1049.8413
-909.42587
-773.6434
-645.63653
-527.53704
-420.60862
-325.43844
-242.13248
-170.49408
-110.16487
-60.679736
-21.460606
7.9042014
26.823767
34.191031
-39.186004
-81.205539
-128.95643
-178.00158
-229.57701
-284.23732
-342.61688
-405.32132
-472.91371
-545.87571
-624.55661
-709.10806
-799.40446
-894.95484
-994.83036
-1097.6467
-1201.6305
-1304.7572
-1404.9088
-1499.9923
-1587.9889
-1666.9348
-1734.8567
-1789.6812
-1829.1467
-1850.7725
-1851.9888
-1830.4103
-1784.0053
-1711.7091
-1614.2141
-1494.4632
-1357.4974
-1209.643
-1057.4494
-906.79875
-762.38306
-627.54415
-504.37042
-393.92795
-296.53023
-211.9914
-139.84073
-79.481268
-30.253084
8.5657566
37.490257
56.043892
63.248648
-37.653445
-77.930926
-123.79686
-171.03284
-220.89022
-273.9755
-330.98874
-392.62109
-459.54164
-532.35652
-611.55193
-697.41822
-789.95103
-888.73176
-992.81687
-1100.6983
-1210.3873
-1319.6102
-1426.0328
-1527.4229
-1621.7033
-1706.9071
-1781.0686
-1842.077
-1887.523
-1914.605
-1920.2264
-1901.3233
-1855.012
-1779.376
-1674.6455
-1544.0579
-1393.7393
-1231.5241
-1065.4179
-902.39115
-747.74696
-605.01072
-476.14642
-361.9165
-262.25647
-176.59931
-104.13033
-43.963109
4.7914461
43.023772
71.374881
89.494206
96.517019
-35.748811
-74.004817
-117.69206
-162.83152
-210.68184
-261.90423
-317.27074
-377.56961
-443.5941
-516.10036
-595.74476
-682.99665
-778.01786
-880.50102
-989.49993
-1103.3489
-1219.7671
-1336.1397
-1449.8471
-1558.4921
-1659.9569
-1752.3186
-1833.6804
-1901.9527
-1954.6112
-1988.5129
-1999.9353
-1984.9552
-1939.5403
-1860.5126
-1747.2973
-1603.4218
-1436.5074
-1256.5008
-1073.3828
-895.51874
-728.91348
-577.21774
-442.13781
-323.98088
-222.16719
-135.63943
-63.159454
-3.4979678
44.496646
81.904477
109.50758
127.08899
133.8927
-33.798631
-69.806231
-111.02787
-153.7679
-199.2948
-248.32731
-301.71453
-360.3525
-425.17738
-497.12408
-577.05823
-665.67857
-763.37414
-870.00855
-984.66017
-1105.4661
-1229.7462
-1354.4137
-1476.4673
-1593.3172
-1702.8402
-1803.2313
-1892.7562
-1969.4401
-2030.7076
-2073.0755
-2092.1038
-2082.7928
-2039.5857
-1957.4487
-1834.4242
-1674.2473
-1486.6343
-1284.5443
-1080.6575
-885.11602
-704.69059
-543.0274
-401.36499
-279.34215
-175.68581
-88.716491
-16.683756
42.039561
88.898555
125.17887
151.81136
168.71728
175.25004
-31.322726
-64.748345
-103.16396
-143.16709
-186.01792
-232.49044
-283.51345
-340.10045
-403.35026
-474.4091
-554.3986
-644.30966
-744.84095
-856.11851
-977.2991
-1106.2777
-1239.8196
-1374.1694
-1505.8014
-1631.8965
-1750.3826
-1859.6801
-1958.349
-2044.6713
-2116.1356
-2168.9573
-2197.9199
-2196.6908
-2157.7326
-2073.3254
-1939.1483
-1758.8896
-1545.255
-1315.6017
-1086.3277
-869.81849
-673.60679
-501.08689
-352.70781
-227.1459
-122.20851
-35.439682
35.518382
92.743046
137.99747
172.78091
198.17312
214.23512
220.43265
-28.93535
-59.575008
-94.898059
-131.84686
-171.67524
-215.21021
-263.45971
-317.56072
-378.79207
-448.54482
-528.24824
-619.25849
-722.68943
-839.06428
-967.71675
-1106.2532
-1250.6595
-1396.2153
-1538.6635
-1674.922
-1803.0778
-1921.9453
-2030.5694
-2127.6998
-2211.08
-2276.7105
-2318.5366
-2328.6705
-2297.0936
-2212.1922
-2065.6519
-1860.4852
-1613.7493
-1349.4069
-1089.0111
-847.73837
-633.73467
-449.70509
-294.82725
-166.41692
-61.081394
24.586033
93.645858
148.66939
191.75112
224.60067
248.43745
263.4591
269.24629
-25.834182
-53.293408
-85.133316
-118.63357
-155.00884
-195.12763
-240.07113
-291.10192
-349.69467
-417.5224
-496.38348
-588.08838
-694.30527
-816.16068
-953.35342
-1103.1787
-1260.5219
-1419.2472
-1574.0533
-1721.5574
-1860.1746
-1989.3362
-2108.7969
-2218.0399
-2315.3461
-2396.67
-2455.097
-2481.0199
-2461.4976
-2379.419
-2219.7581
-1983.4125
-1693.8847
-1385.41
-1086.7045
-816.33253
-582.61608
-386.83329
-226.18358
-96.095771
8.3587024
91.722766
157.84477
209.81619
250.05844
280.47313
302.3986
316.15967
321.45246
-22.988271
-47.105605
-75.194238
-104.93106
-137.49258
-173.78002
-214.93911
-262.35453
-317.70633
-382.98374
-460.41856
-552.37004
-661.22082
-788.9879
-936.05532
-1099.4241
-1272.3862
-1446.6589
-1615.3977
-1774.8821
-1924.1581
-2063.6285
-2194.0746
-2316.1133
-2429.0547
-2529.1507
-2608.6685
-2656.1732
-2655.5154
-2582.0934
-2409.6775
-2133.891
-1787.8782
-1422.5328
-1076.4502
-772.13833
-517.10641
-310.00228
-145.03273
-15.064511
86.748995
166.2657
228.18005
276.10008
312.74397
340.1673
359.7929
372.05527
376.76311
-19.234002
-39.566126
-63.483975
-89.028668
-117.28552
-149.16098
-185.84182
-228.81608
-279.96338
-341.61494
-416.5049
-507.64532
-618.31825
-751.84283
-909.86981
-1089.2874
-1281.1052
-1473.7726
-1658.1739
-1830.2917
-1990.3739
-2140.3276
-2282.2798
-2418.3712
-2549.5397
-2672.7615
-2779.4822
-2856.4147
-2884.4362
-2829.5602
-2647.246
-2321.0871
-1898.5225
-1458.8317
-1053.8856
-710.45793
-433.22526
-216.2969
-49.466867
77.789727
174.63827
248.39182
304.59747
347.33027
379.5404
403.37519
420.29176
430.80763
434.83669
-15.909558
-32.367243
-51.889445
-72.946153
-96.528101
-123.52999
-155.16115
-192.99622
-239.1068
-296.19284
-367.57394
-457.03004
-568.9217
-708.39586
-879.34015
-1079.0097
-1295.059
-1510.7436
-1713.4127
-1898.7625
-2069.1471
-2228.6986
-2381.1216
-2530.4773
-2680.3856
-2829.6038
-2969.1766
-3084.3379
-3154.0988
-3134.011
-2949.96
-2559.1607
-2029.2976
-1490.9054
-1012.5345
-624.92452
-325.99151
-102.36329
62.502662
183.47669
272.40188
338.0961
386.87978
423.18046
450.07147
469.70194
483.4964
492.01886
495.27614
-11.483932
-23.591262
-38.294697
-54.438671
-72.848143
-94.363249
-120.17
-151.87518
-191.68072
-242.61946
-308.63685
-394.36256
-505.33305
-649.108
-833.41834
-1057.1181
-1303.0125
-1546.0299
-1768.1208
-1964.9809
-2142.9742
-2309.8847
-2471.3079
-2633.6117
-2804.7354
-2986.77
-3170.3479
-3338.4982
-3469.9066
-3511.2589
-3344.1366
-2870.7983
-2184.1431
-1512.87
-942.74502
-506.96165
-189.29459
35.4987
192.78362
302.75066
380.12578
435.11304
474.59774
503.16017
523.83646
538.65837
548.93486
555.23098
557.62929
-7.5459536
-15.399265
-25.21437
-36.272645
-49.208325
-64.768136
-84.069011
-108.69894
-140.93298
-184.11086
-242.90331
-322.98245
-431.14907
-577.96556
-777.58717
-1033.2897
-1320.8802
-1601.2874
-1847.8978
-2056.6837
-2241.3071
-2415.2342
-2585.4241
-2759.5249
-2951.4774
-3168.7937
-3401.8413
-3630.6651
-3839.934
-3979.4505
-3868.0218
-3294.1302
-2367.8697
-1515.4534
-830.29326
-345.15963
-15.871942
201.0952
342.92649
435.89042
497.45829
538.82673
567.05996
586.58921
600.1989
609.65739
616.06267
619.92852
621.39211
-2.494061
-5.655422
-10.105321
-15.573864
-22.445043
-31.342458
-43.273947
-59.749484
-83.013112
-116.56762
-165.7562
-237.36424
-339.18034
-484.64159
-697.71894
-992.03941
-1333.7673
-1659.6114
-1930.103
-2142.1466
-2323.1199
-2495.6058
-2666.7929
-2843.1721
-3048.9947
-3303.1738
-3599.0875
-3914.1975
-4241.407
-4553.2174
-4583.0233
-3903.4783
-2589.3111
-1483.2202
-653.43083
-124.34825
202.50744
397.84723
513.68356
582.39893
623.43333
648.17741
663.2686
672.58006
678.38244
682.01645
684.26803
685.54487
686.01542
2.9587849
3.9729759
4.5462348
4.3727287
3.3872713
1.1545959
-3.1202568
-10.724149
-23.652433
-45.261264
-81.374442
-140.1309
-230.27336
-367.38834
-589.87761
-934.91043
-1357.8537
-1750.6933
-2054.89
-2266.9251
-2439.8807
-2611.5589
-2788.5987
-2969.4137
-3193.9261
-3500.0126
-3883.2972
-4313.0921
-4763.9032
-5291.5201
-5573.8102
-4825.3576
-2837.3018
-1376.2418
-376.92567
174.90855
474.14923
627.83452
704.34018
740.62139
756.28044
761.57929
761.89129
760.03439
757.47747
754.96739
752.88238
751.47267
750.91514
8.2851102
13.265315
19.32351
25.157943
31.020609
36.677816
41.59505
44.763013
44.510346
37.799773
18.452079
-23.539179
-98.146729
-220.10636
-443.94191
-853.46416
-1397.282
-1876.4148
-2210.743
-2392.8795
-2530.4285
-2685.6835
-2862.7827
-3027.815
-3238.6401
-3573.5316
-4023.7138
-4561.746
-5089.7117
-5960.3609
-6823.718
-6299.5144
-3074.0128
-1170.9514
36.506832
572.65504
805.01217
890.17376
911.79922
907.31734
893.25936
876.87547
861.26389
847.66132
836.46188
827.67559
821.19691
817.07833
815.48601
17.841141
25.859704
36.761737
47.719736
59.41661
71.801337
84.631486
97.258421
108.52224
116.23574
114.96648
93.715377
41.620043
-49.538271
-244.6753
-715.1512
-1441.88
-2033.61
-2413.373
-2545.7123
-2643.0183
-2787.1991
-2982.1461
-3113.6798
-3276.6774
-3677.6988
-4224.3714
-4961.7032
-5679.3055
-7242.8539
-8882.0925
-9068.3526
-3578.1297
-1038.2193
635.19336
1099.0922
1197.3511
1178.9796
1129.5276
1077.2887
1030.5877
991.36675
959.44134
934.02451
914.23871
899.26875
888.48493
881.72041
879.11844
22.150582
30.895249
46.13675
62.238229
80.171538
100.10826
122.29209
146.7478
173.26285
201.23843
227.41504
240.71459
225.96326
180.34564
45.408831
-483.28423
-1555.1587
-2311.4993
-2773.6625
-2771.009
-2749.6658
-2813.1452
-3022.641
-3099.9057
-3207.1637
-3763.2634
-4232.9946
-5185.2219
-6470.8431
-7863.4476
-9589.144
-12103.54
-4823.2656
-72.514844
1722.8309
1811.9829
1641.1423
1478.7603
1346.2297
1243.2036
1163.5573
1101.9567
1054.3115
1017.6219
989.69052
968.87456
954.02896
944.77076
941.21747
36.93709
46.533252
66.460116
87.31402
110.74806
137.0774
166.90656
200.7208
238.86205
281.66262
327.57459
365.35498
371.82659
347.26634
293.74179
-191.1094
-1818.0783
-2617.1351
-3115.4964
-2772.7579
-2626.8085
-2732.543
-3131.7559
-3271.1276
-3302.4339
0
0
0
0
0
0
0
0
6202.3753
3402.4563
2582.4956
2068.2386
1755.8596
1545.1254
1396.0885
1287.0015
1205.4551
1143.7779
1096.9952
1061.747
1035.6642
1017.1506
1005.637
1001.2226
35.366749
42.182753
64.028426
87.075091
113.20491
142.73971
176.57926
215.67655
261.07474
314.42455
377.59016
445.98934
502.79965
560.82588
710.681
552.80446
-1996.7854
-2776.9627
-3646.9057
-2968.6376
-3044.3363
-3012.3247
0
0
0
0
0
0
0
0
0
0
10129.575
6286.2538
4123.9549
3000.3244
2361.313
1969.1782
1709.0494
1527.5633
1396.286
1299.0429
1225.9925
1170.8555
1129.4571
1098.8968
1077.2398
1063.7841
1058.6266
44.263799
54.950266
80.950057
106.9776
136.1544
169.03602
206.8757
251.10417
303.50613
367.0804
447.11661
546.08857
653.28883
754.39126
842.1959
568.47314
-3108.2259
-3581.599
-3205.2811
0
0
0
0
0
0
0
0
0
0
0
1780.6718
3364.5944
5756.1165
5236.0897
3961.3825
3100.1685
2507.1431
2107.7402
1830.6544
1632.9922
1488.4299
1380.731
1299.5698
1238.1937
1192.0515
1157.9577
1133.7808
1118.7537
1112.9926
22.191622
42.166335
66.371011
91.284917
118.75239
149.54726
184.74324
225.50533
273.13246
329.82983
399.49996
478.02732
537.53029
536.24772
558.10697
702.38676
0
0
0
0
0
0
-1132.0674
-1103.5232
-1011.3054
-917.55607
-790.08493
-495.29878
-94.947192
697.08393
2026.4398
3361.9107
4750.9874
4489.8577
3714.8022
3058.6867
2552.6656
2182.2204
1911.4457
1711.6616
1562.3548
1449.5321
1363.6925
1298.3451
1248.9835
1212.3855
1186.3705
1170.178
1163.9663
19.954006
50.022168
74.970474
100.5438
127.96158
158.05676
191.47965
228.66493
269.57201
313.41803
357.89983
396.56242
406.14932
338.09226
142.01832
-338.13474
-1284.4158
-1227.4735
-1147.1005
-1100.4773
-1051.0804
-1021.6122
-1010.3635
-803.28894
-838.68198
-583.18156
-362.34491
-204.61722
259.08291
904.85466
1960.2927
3049.3234
3956.5655
3851.8968
3404.2982
2933.5972
2528.4618
2206.0157
1956.7041
1765.4225
1618.5289
1505.381
1418.1055
1351.0014
1299.9424
1261.8834
1234.7285
1217.7886
1211.284
20.663335
46.485421
72.120271
97.971788
125.28639
154.81514
187.13911
222.62494
261.2591
302.13415
342.0351
373.73579
384.81904
353.15884
205.21635
-227.92138
-792.30395
-920.95787
-962.54699
-966.14987
-887.80215
-842.31976
-818.54903
-691.79979
-620.94347
-417.54017
-179.14318
77.743032
510.88704
1096.4663
1896.1869
2721.5883
3334.8856
3356.8269
3105.6569
2777.1433
2463.3575
2193.8102
1973.5976
1797.6787
1658.5139
1548.9432
1463.0389
1396.1805
1344.8436
1306.3178
1278.698
1261.4186
1254.7758
14.996587
36.230598
58.796994
81.291023
104.29082
128.03547
152.53044
177.41591
201.78995
223.68917
238.89696
240.1813
218.24925
159.21487
15.075682
-283.91131
-606.90226
-732.46367
-784.51757
-794.28563
-753.12458
-703.47363
-642.23454
-537.76181
-423.88615
-238.24297
-11.498434
269.88395
668.60856
1187.7223
1823.2424
2450.8965
2889.5206
2967.0588
2834.9722
2613.0013
2376.1816
2157.6763
1969.1886
1812.3857
1684.4724
1581.3763
1499.0911
1434.1698
1383.8001
1345.704
1318.2395
1300.9996
1294.3628
23.838364
46.444898
70.189885
93.656164
117.54423
141.96098
166.72594
191.21043
214.09573
232.81515
242.68442
236.67011
205.989
135.39795
-7.258852
-236.55037
-460.15395
-579.80497
-635.38241
-644.54018
-615.83401
-568.29221
-497.28064
-394.45967
-264.34886
-82.9327
139.16117
416.1136
777.02672
1223.7722
1735.5103
2221.7455
2557.2302
2658.5603
2599.6228
2454.8464
2280.178
2107.1229
1949.7498
1813.4691
1698.7944
1604.111
1527.1063
1465.4577
1417.0852
1380.1847
1353.418
1336.5535
1330.0513
12.0242
29.927709
50.032201
70.035758
90.041029
109.92724
129.38615
147.7469
163.76076
175.18275
178.31576
168.06171
137.63877
74.654663
-40.054678
-203.5071
-358.80652
-456.7468
-506.07833
-514.23297
-488.92952
-440.00513
-365.68887
-262.60056
-128.5383
46.964377
261.85464
525.1911
849.67444
1232.3375
1648.6364
2032.8059
2301.949
2411.5833
2398.1278
2308.5356
2183.1596
2048.9511
1920.387
1804.4655
1703.8312
1618.6752
1548.0642
1490.6663
1445.0905
1410.0052
1384.387
1368.1815
1361.9234
21.407259
40.632432
60.854106
80.367741
99.453602
117.84346
135.02364
150.10171
161.62897
167.32368
163.94549
147.54868
113.08129
52.273947
-43.556516
-165.61479
-279.00277
-356.12414
-395.68939
-400.45613
-375.18693
-324.72517
-248.67372
-145.28242
-11.773981
156.79261
361.05927
606.02209
895.9519
1224.4161
1567.8665
1878.5077
2101.9972
2212.1877
2227.1468
2176.7608
2089.8438
1988.0679
1885.1
1788.3899
1701.7413
1626.5698
1562.991
1510.4911
1468.2867
1435.486
1411.37
1396.0509
1390.125
11.864138
27.968658
45.959761
63.611637
80.820533
97.23194
112.31667
125.22205
134.61714
138.50969
134.22493
118.55922
87.502506
35.679977
-40.001852
-130.43126
-213.52424
-271.83014
-300.84847
-300.62597
-273.46157
-221.63349
-145.03161
-42.510868
87.994416
248.90878
441.01387
666.30058
924.57427
1207.7345
1495.177
1752.1624
1942.6283
2049.764
2082.4754
2059.9383
2002.6783
1927.6337
1846.8495
1767.6917
1694.4094
1629.1884
1572.894
1525.6525
1487.1886
1456.9989
1434.6432
1420.3807
1414.8539
17.140356
33.237323
50.220014
66.364787
81.714334
95.886733
108.32926
118.22214
124.38328
125.18566
118.61234
102.36259
73.691268
29.625743
-29.988476
-97.381689
-158.13597
-200.46159
-219.38438
-213.53392
-183.55731
-130.34282
-53.764008
46.960563
173.10573
325.77678
505.17509
711.24649
941.41842
1187.1582
1431.2314
1648.3115
1813.9323
1916.494
1960.2188
1957.498
1922.9612
1869.6953
1807.8368
1744.3106
1683.4267
1627.7752
1578.7192
1536.8594
1502.3258
1474.944
1454.5176
1441.4279
1436.3465
11.965875
26.365721
42.104203
57.216615
71.535766
84.633752
95.955497
104.7278
109.89845
110.11353
103.80211
89.276813
64.758514
28.907639
-17.019257
-66.703217
-110.24957
-139.22835
-148.99403
-137.55086
-104.54742
-50.07925
26.06823
124.39906
245.54607
389.78562
556.64745
744.78776
950.4688
1165.4735
1375.7036
1562.5377
1708.9274
1806.45
1856.8892
1868.2992
1851.1312
1815.4436
1769.5687
1719.725
1670.0961
1623.407
1581.3251
1544.7832
1514.2211
1489.7316
1471.324
1459.4743
1454.866
13.67252
27.359586
41.871677
55.55077
68.315734
79.771187
89.41544
96.581139
100.40719
99.849009
93.763679
81.007343
60.559785
32.098765
-2.589014
-38.476155
-68.501228
-86.40719
-88.109559
-71.430811
-35.489205
20.054386
95.479648
191.07401
307.00147
442.97368
597.96313
769.86584
954.48585
1144.302
1327.8971
1491.4047
1622.6063
1715.1568
1769.5579
1791.0638
1787.1666
1765.5773
1733.0734
1695.0581
1655.4636
1616.9946
1581.4711
1550.0423
1523.3735
1501.7675
1485.4001
1474.8152
1470.6914
11.353748
24.027843
37.645133
50.500577
62.432383
73.046787
81.880039
88.352021
91.76071
91.312697
86.206189
75.7329
59.446256
37.651365
12.276403
-12.651975
-31.89643
-40.644681
-35.404628
-14.037434
24.575819
80.988672
155.49874
248.21877
358.97866
487.10035
631.16272
788.66216
955.3491
1124.5375
1287
1432.2483
1551.2805
1639.1811
1695.7798
1724.5054
1730.7502
1720.4244
1699.0135
1671.127
1640.3516
1609.2938
1579.8157
1553.1934
1530.248
1511.4415
1497.08
1487.7494
1484.1078
11.407415
23.296007
35.923485
47.754355
58.666195
68.305024
76.268453
82.076721
85.18258
85.010426
81.033357
72.876508
60.489331
44.522363
26.847609
10.721541
0.16288301
-1.0278736
10.10581
35.554309
76.499114
133.5738
207.0553
296.91504
402.74689
523.60928
657.83553
802.75921
954.29726
1106.6007
1252.1845
1382.9756
1492.1646
1575.8548
1633.5316
1667.4215
1681.4225
1680.0722
1667.8004
1648.5065
1625.3923
1600.9186
1576.9179
1554.7271
1535.268
1519.1188
1506.6847
1498.5705
1495.3987
10.3437
21.515222
33.418487
44.560546
54.805667
63.829419
71.285721
76.787013
79.922861
80.301691
77.620719
71.762852
62.951314
52.019812
40.712086
31.705207
28.182473
33.206846
49.281678
78.204761
121.12247
178.6682
251.07284
338.19347
439.45917
553.75829
679.2933
813.38264
952.21552
1090.7115
1222.7515
1342.0033
1443.1852
1523.1436
1581.1973
1618.774
1638.7039
1644.483
1639.6905
1627.6168
1611.083
1592.3714
1573.2516
1555.0723
1538.8131
1525.1351
1514.5166
1507.5611
1504.8395
9.9406096
20.476371
31.670315
42.130017
51.740061
60.213289
67.259693
72.575158
75.865268
76.886765
75.510505
71.807639
66.178529
59.538509
53.481854
50.250399
52.432212
62.544444
82.715617
114.54333
159.08987
216.94427
288.27836
372.85705
469.99625
578.48235
696.46786
821.34189
949.60225
1076.8387
1197.9927
1307.9984
1402.6586
1479.3701
1537.3816
1577.5854
1602.046
1613.4718
1614.7643
1608.7018
1597.7598
1584.0285
1569.1944
1554.5867
1541.2125
1529.7898
1520.8527
1514.9874
1512.6936
9.3564918
19.364695
30.008328
39.956333
49.101863
57.191839
63.988254
69.261483
72.81596
74.529329
74.408087
72.661347
69.801913
66.770023
65.018398
66.459982
73.249927
87.495959
111.02158
145.23613
191.09867
249.13315
319.44876
401.7368
495.23726
598.68226
710.22661
827.37323
946.92389
1065.0321
1177.4573
1280.0605
1369.4254
1443.3602
1501.0943
1543.1584
1571.0668
1586.9347
1593.1295
1592.0071
1585.7419
1576.2385
1565.0921
1553.5961
1542.7637
1533.3525
1525.9437
1521.0961
1519.2106
8.9349295
18.485948
28.650087
38.160471
46.922826
54.715657
61.346527
66.648529
70.506323
72.892311
73.915281
73.88191
73.373152
73.323967
75.062459
80.252447
90.730334
108.29489
134.52507
170.66377
217.56553
275.6835
345.06693
425.34927
515.7211
614.89189
721.04882
831.82344
944.2939
1055.0747
1160.5507
1257.2642
1342.3652
1413.9708
1471.3166
1514.6886
1545.2059
1564.5398
1574.6428
1577.5292
1575.1202
1569.1528
1561.1299
1552.3027
1543.6753
1536.0298
1529.9957
1526.1076
1524.6263
8.5490946
17.743449
27.539686
36.720611
45.20113
52.788096
59.328756
64.708676
68.877105
71.88
73.902317
75.318488
76.748969
79.109957
83.625944
91.773346
105.15364
125.3335
153.69965
191.35503
239.05887
297.19726
365.76636
444.35518
532.12344
627.7773
729.54985
835.19763
942.03539
1047.0436
1147.0793
1239.1827
1320.9149
1390.6226
1447.5584
1491.8427
1524.312
1546.3087
1559.4682
1565.5346
1566.2223
1563.1246
1557.6593
1551.0354
1544.239
1538.0666
1533.2131
1530.2281
1529.1733
8.1798015
17.102091
26.616386
35.54938
43.82168
51.264851
57.758919
63.231126
67.680392
71.207626
74.052732
76.635992
79.599675
83.837714
90.492717
100.90271
116.4983
138.67488
168.67249
207.4822
255.78305
313.90328
381.79506
459.01421
544.70201
637.57125
735.90273
837.56237
940.05612
1040.6447
1136.5327
1225.119
1304.2585
1372.4661
1429.014
1473.9122
1507.7984
1531.7774
1547.2492
1555.7521
1558.8388
1557.9876
1554.5459
1549.689
1544.3862
1539.4368
1535.617
1533.5684
1533.0778
7.8074724
16.603269
25.940285
34.712476
42.846976
50.199321
56.676553
62.237984
66.919269
70.860827
74.34064
77.808802
81.918504
87.542649
95.761994
107.81639
125.01775
148.64108
179.82053
219.46375
268.18793
326.27607
393.64677
469.8325
553.96427
644.76511
740.55759
839.29453
938.62578
1036.0149
1128.9111
1214.9614
1292.2231
1359.3288
1415.5685
1460.8802
1495.767
1521.1691
1538.3194
1548.6079
1553.4682
1554.292
1552.3723
1548.859
1544.7055
1540.6823
1537.6141
1536.3937
1536.6789
7.3041675
16.167701
25.424182
34.111395
42.16519
49.465557
55.940321
61.570967
66.417251
70.644635
74.554431
78.613813
83.480203
90.010769
99.246367
112.36687
130.61065
155.17405
187.12095
227.30354
276.29722
334.35412
401.37036
476.86349
559.9592
649.38944
743.50693
840.32401
937.58602
1032.8879
1123.8347
1208.2293
1284.2564
1350.6235
1406.6336
1452.1815
1487.6871
1513.9862
1532.2049
1543.6368
1549.6372
1551.5383
1550.5927
1547.9361
1544.5156
1541.0472
1538.3507
1537.92
1540.1132
6.0814672
15.835484
25.143181
33.822807
41.845915
49.124527
55.60069
61.268082
66.198769
70.570739
74.697052
79.053631
84.30077
91.290466
101.04836
114.71817
133.4906
158.52512
190.8557
231.30762
280.43542
338.47555
405.31265
480.45671
563.03087
651.77192
745.0483
840.90292
937.12944
1031.3886
1121.3626
1204.9314
1280.3425
1346.3407
1402.2365
1447.9045
1483.7239
1510.4799
1529.2466
1541.2704
1547.8635
1550.3272
1549.9022
1547.7275
1544.7605
1541.6761
1539.2604
1539.7834
1545.6256
-2227.7586
-2483.6252
-2699.5393
-2881.4841
-3023.9679
-3106.215
-3108.2259
-3029.2217
-2857.279
-2664.0037
-3205.3892
-3205.2811
-3198.4357
-3187.4488
-3173.3345
-3160.5817
-3148.7459
-3158.2126
-3158.8148
-3131.4104
-3183.0315
-3181.907
-3167.1527
-3150.1894
-3133.2743
-3124.2835
-3105.9909
-3113.208
-3100.0764
-3046.5502
-3137.8421
-3135.18
-3126.5768
-3117.8811
-3109.0876
-3112.0998
-3101.0042
-3098.9715
-3085.5703
-3048.7084
-3078.1499
-3076.7154
-3072.1698
-3066.2525
-3057.7469
-3058.147
-3057.8126
-3057.1425
-3055.664
-3059.4008
-3030.1692
-3029.3769
-3023.6161
-3013.4549
-2998.2
-2968.6376
-2990.8017
-3003.1025
-3009.7481
-3023.0969
-3013.413
-3015.1071
-3018.3588
-3021.746
-3032.6627
-3008.5368
-3008.2148
-3004.5875
-2989.6693
-2966.6813
-3027.9233
-3029.5541
-3035.6399
-3044.3363
-3068.3863
-3076.1028
-3056.7216
-3030.7041
-3000.8673
-2965.4634
-3848.4527
-3860.7651
-3831.7263
-3787.3167
-3749.7568
-3717.6917
-3696.1884
-3682.4622
-3673.5223
-3675.2644
-2986.9816
-2985.7895
-2977.9085
-2960.9535
-2921.5853
-2946.9462
-2958.951
-2961.1437
-2950.6578
-2923.5509
-3009.2482
-3012.3247
-3018.688
-3037.9313
-3013.9713
-3005.2508
-3001.2991
-2993.8836
-2979.8934
-2964.7517
-3048.5068
-3050.9594
-3056.1373
-3080.7265
-3093.4962
-3069.424
-3042.692
-3022.4074
-3003.5386
-2987.0528
-2999.6596
-2995.8309
-2976.942
-2951.6611
-2974.5981
-2992.0791
-3003.3182
-3010.738
-3013.0011
-3020.0186
-3033.2653
-3035.7257
-3034.8621
-2997.9709
-3007.1043
-3020.7171
-3031.5172
-3038.7503
-3041.7997
-3051.3644
-3156.8902
-3164.6842
-3188.9176
-3187.4467
-3159.547
-3131.7559
-3111.0625
-3095.6696
-3080.2522
-3063.0193
-3141.9781
-3137.1434
-3129.6598
-3149.8309
-3150.4247
-3144.632
-3138.4095
-3132.9744
-3126.9764
-3128.8787
-3162.7556
-3162.035
-3137.7505
-3147.9046
-3159.3503
-3167.4864
-3171.9065
-3173.7103
-3173.0008
-3177.7022
-3277.1163
-3289.5196
-3285.4688
-3271.1276
-3255.8058
-3243.765
-3235.0334
-3229.2398
-3222.4245
-3213.8641
-3282.4889
-3286.5604
-3294.015
-3285.9371
-3276.294
-3270.794
-3270.5588
-3275
-3280.0407
-3292.3431
-3186.3249
-3172.2148
-3189.5513
-3215.4282
-3244.9015
-3273.5985
-3300.5724
-3325.1452
-3345.2981
-3370.2633
-3326.0531
-3302.4339
-3312.0414
-3332.349
-3359.1124
-3384.3603
-3406.8258
-3425.2571
-3437.7755
-3453.4904
-3701.6748
-3692.6554
-3661.9567
-3627.8856
-3602.8068
-3583.3215
-3571.2314
-3564.0735
-3557.9585
-3555.0925
-3016.6788
-3015.1532
-3009.7381
-2998.1198
-2992.6338
-2999.8927
-2999.5298
-2994.1792
-2984.947
-2983.9233
-3540.5384
-3549.1352
-3563.5695
-3610.8534
-3667.029
-3718.8605
-3739.9428
-3721.8037
-3638.103
-3466.2534
-3268.7588
-3268.9936
-3271.9431
-3276.8112
-3277.9219
-3277.0258
-3275.0645
-3269.9199
-3265.7622
-3219.2851
-3179.5263
-3227.5524
-3289.6669
-3394.37
-3505.6953
-3592.521
-3635.0768
-3595.2074
-3447.0641
-3214.6352
-3480.2772
-3490.3207
-3511.2515
-3547.9507
-3581.599
-3610.2586
-3618.8297
-3618.3249
-3582.5468
-3470.1577
-3367.3456
-3371.7355
-3385.9151
-3409.8733
-3430.8342
-3448.4901
-3456.6157
-3446.1968
-3433.5791
-3381.8276
11318.722
10715.547
10129.575
9489.9393
8832.8461
8179.5391
7545.1804
6936.7838
6347.3441
5770.3042
8301.8484
8224.5315
8101.2596
7839.6075
7501.7192
7111.2849
6689.6066
6254.5662
5816.3991
5360.0011
-3709.5007
-3727.9363
-3745.344
-3751.3104
-3759.9991
-3763.2634
-3768.0589
-3771.4947
-3772.8199
-3776.3115
-3705.8519
-3709.7031
-3745.0494
-3776.2801
-3815.3391
-3842.5108
-3866.4371
-3882.4672
-3891.1146
-3895.3025
-3946.5154
-3939.28
-3955.5088
-3963.0859
-3991.4658
-4009.8456
-4029.6725
-4042.6487
-4048.0681
-4043.6182
-4222.4231
-4212.0682
-4226.337
-4216.9234
-4232.9946
-4234.8765
-4241.3992
-4242.4478
-4238.8757
-4234.5146
-4544.8766
-4526.737
-4538.4821
-4511.447
-4515.2327
-4497.3859
-4484.9277
-4464.9007
-4437.2332
-4404.8726
-4901.1054
-4873.8832
-4883.4903
-4837.0691
-4828.6371
-4790.1481
-4757.3172
-4713.8952
-4659.2256
-4599.0146
-5281.8495
-5243.3991
-5252.0392
-5185.2219
-5165.6718
-5107.5831
-5056.1877
-4992.7187
-4916.4634
-4831.1514
-5682.8601
-5630.785
-5639.6097
-5550.5886
-5519.7717
-5441.5437
-5370.8774
-5288.4425
-5198.4685
-5115.9181
-6105.0439
-6035.9214
-6045.7705
-5931.7762
-5888.3055
-5787.8967
-5693.5292
-5583.5007
-5458.1875
-5322.5871
-6548.5002
-6458.4124
-6470.8431
-6329.1982
-6271.944
-6149.0593
-6030.8963
-5896.7842
-5747.1781
-5585.4187
-7019.3413
-6902.2103
-6917.9743
-6744.4916
-6670.3453
-6522.7544
-6376.8531
-6214.6282
-6036.1367
-5850.2662
-7516.4401
-7366.2087
-7388.3262
-7179.8868
-7085.7238
-6911.6633
-6733.8684
-6537.786
-6319.1648
-6081.8847
-8058.1146
-7863.4476
-7892.3975