/*--------------------------------*- C++ -*----------------------------------*\
| =========                 |                                                 |
| \\      /  F ield         | foam-extend: Open Source CFD                    |
|  \\    /   O peration     | Version:     4.1                                |
|   \\  /    A nd           | Web:         http://www.foam-extend.org         |
|    \\/     M anipulation  |                                                 |
\*---------------------------------------------------------------------------*/
FoamFile
{
    version     2.0;
    format      ascii;
    class       volScalarField;
    location    "2.8";
    object      p;
}
// * * * * * * * * * * * * * * * * * * * * * * * * * * * * * * * * * * * * * //

dimensions      [0 2 -2 0 0 0 0];

internalField   nonuniform List<scalar> 
4393
(
-46.418266
-92.981788
-146.74657
-201.53763
-258.52841
-318.02959
-380.42411
-446.02152
-515.04609
-587.60795
-663.67508
-743.04505
-825.31974
-909.88657
-995.9103
-1082.3384
-1167.9203
-1251.2385
-1330.7462
-1404.8059
-1471.7264
-1529.7972
-1577.3237
-1612.6682
-1634.3031
-1640.8853
-1631.3604
-1605.1086
-1562.023
-1502.6038
-1428.0623
-1340.304
-1241.8232
-1135.5205
-1024.4765
-911.72575
-800.06778
-691.93521
-589.32515
-493.78579
-406.44456
-328.06254
-259.10027
-199.78361
-150.17391
-110.24018
-79.763102
-57.832159
-43.627863
-45.166101
-92.395967
-146.03398
-200.67382
-257.49548
-316.84187
-379.10955
-444.62015
-513.60978
-586.20063
-662.37228
-741.93236
-824.48983
-909.43456
-995.92812
-1082.9089
-1169.1128
-1253.1059
-1333.3244
-1408.1149
-1475.7716
-1534.5694
-1582.7972
-1618.7953
-1641.0074
-1648.0567
-1638.8538
-1612.7036
-1569.436
-1509.544
-1434.2446
-1345.4784
-1245.8053
-1138.2116
-1025.8678
-911.88863
-799.13355
-690.07187
-586.71513
-490.60816
-402.86268
-324.21723
-255.10969
-195.75311
-146.20036
-106.36008
-75.961443
-54.862509
-44.264338
-44.361862
-91.499213
-144.7757
-199.05476
-255.52559
-314.56074
-376.57888
-441.92393
-510.85512
-583.51834
-659.91599
-739.87537
-823.01874
-908.73985
-996.19231
-1084.2946
-1171.7531
-1257.0995
-1338.7352
-1414.9749
-1484.0842
-1544.31
-1593.909
-1631.1783
-1654.5011
-1662.4207
-1653.7589
-1627.7379
-1584.0955
-1523.2531
-1446.422
-1355.6118
-1253.5192
-1143.309
-1028.3379
-911.88369
-796.92611
-686.00482
-581.15547
-483.91034
-395.34356
-316.142
-246.68974
-187.15614
-137.55061
-97.687786
-67.25768
-46.702756
-37.920228
-43.571143
-90.203468
-142.87198
-196.57253
-252.49933
-311.05356
-372.68271
-437.76267
-506.58746
-579.33949
-656.05698
-736.59865
-820.60887
-907.4889
-996.38121
-1086.1739
-1175.5279
-1262.9212
-1346.7024
-1425.1386
-1496.4544
-1558.8582
-1610.5621
-1649.8027
-1674.8748
-1684.1994
-1676.4522
-1650.7041
-1606.5448
-1544.2893
-1465.1354
-1371.199
-1265.3938
-1151.1694
-1032.1786
-911.95589
-793.66696
-679.9573
-572.89531
-473.98944
-384.25257
-304.29085
-234.40456
-174.68786
-125.07508
-85.291255
-55.022069
-34.93412
-26.789996
-42.746009
-88.586046
-140.40159
-193.29782
-248.4766
-306.36993
-367.46079
-432.16656
-500.82788
-573.67705
-650.8021
-732.10628
-817.26627
-905.69531
-996.52113
-1088.589
-1180.4946
-1270.6403
-1357.3005
-1438.679
-1512.9481
-1578.27
-1632.8042
-1674.713
-1702.1781
-1713.4588
-1707.029
-1681.7389
-1636.9528
-1572.8176
-1490.4975
-1392.2536
-1281.3115
-1161.5347
-1037.0025
-911.61316
-788.78883
-671.31359
-561.29009
-460.18285
-368.91145
-287.96529
-217.52567
-157.57751
-107.95352
-68.296462
-38.299611
-18.683253
-10.926844
-41.737431
-86.536858
-137.25303
-189.11396
-243.33035
-300.3694
-360.75685
-424.96188
-493.38474
-566.32285
-643.93064
-726.17223
-812.77015
-903.15676
-996.44212
-1091.4141
-1186.5792
-1280.2367
-1370.5624
-1455.6796
-1533.7002
-1602.7367
-1660.8934
-1706.2491
-1736.85
-1750.7504
-1746.1564
-1721.615
-1676.1689
-1609.7097
-1523.33
-1419.4772
-1301.8087
-1174.7657
-1043.0177
-910.95451
-782.33304
-660.10532
-546.39991
-442.60505
-349.50294
-267.41948
-196.37211
-136.19494
-86.586574
-47.090302
-17.368555
1.8954949
9.4343169
-40.595501
-84.127142
-133.49114
-184.07003
-237.08788
-293.05297
-352.54158
-416.08545
-484.15857
-557.1407
-635.27211
-718.59807
-806.90496
-899.65522
-995.93942
-1094.4703
-1193.6349
-1291.5939
-1386.3952
-1476.0638
-1558.6461
-1632.2097
-1694.8101
-1744.4434
-1779.0048
-1796.3011
-1794.1936
-1770.8249
-1724.7863
-1655.586
-1564.1761
-1453.232
-1326.9987
-1190.7118
-1049.8412
-909.4258
-773.64333
-645.63646
-527.53697
-420.60855
-325.43837
-242.13241
-170.49402
-110.1648
-60.679673
-21.460545
7.9042612
26.823826
34.19109
-39.185999
-81.205521
-128.9564
-178.00155
-229.57698
-284.23728
-342.61685
-405.32129
-472.91369
-545.8757
-624.55661
-709.10807
-799.40446
-894.95484
-994.83034
-1097.6467
-1201.6305
-1304.7571
-1404.9087
-1499.9922
-1587.9888
-1666.9347
-1734.8566
-1789.6811
-1829.1466
-1850.7724
-1851.9887
-1830.4102
-1784.0052
-1711.7091
-1614.2141
-1494.4631
-1357.4973
-1209.643
-1057.4493
-906.79867
-762.38299
-627.54408
-504.37035
-393.92788
-296.53016
-211.99133
-139.84066
-79.481203
-30.253021
8.5658174
37.490316
56.043951
63.248707
-37.653439
-77.930908
-123.79683
-171.0328
-220.89018
-273.97547
-330.98871
-392.62106
-459.54162
-532.35651
-611.55193
-697.41823
-789.95104
-888.73176
-992.81685
-1100.6982
-1210.3873
-1319.6101
-1426.0327
-1527.4228
-1621.7032
-1706.907
-1781.0685
-1842.0769
-1887.5229
-1914.6049
-1920.2263
-1901.3232
-1855.0119
-1779.376
-1674.6454
-1544.0579
-1393.7392
-1231.5241
-1065.4178
-902.39108
-747.74689
-605.01065
-476.14635
-361.91643
-262.2564
-176.59925
-104.13027
-43.963044
4.7915088
43.023833
71.37494
89.494265
96.517077
-35.748806
-74.004799
-117.69203
-162.83148
-210.6818
-261.90419
-317.2707
-377.56958
-443.59408
-516.10035
-595.74476
-682.99666
-778.01787
-880.50102
-989.49992
-1103.3488
-1219.767
-1336.1396
-1449.847
-1558.492
-1659.9568
-1752.3184
-1833.6802
-1901.9526
-1954.611
-1988.5128
-1999.9352
-1984.9552
-1939.5402
-1860.5125
-1747.2972
-1603.4217
-1436.5074
-1256.5008
-1073.3828
-895.51866
-728.91341
-577.21767
-442.13774
-323.98081
-222.16712
-135.63936
-63.159387
-3.4979029
44.496708
81.904537
109.50764
127.08905
133.89276
-33.798625
-69.806212
-111.02784
-153.76787
-199.29476
-248.32727
-301.71449
-360.35247
-425.17736
-497.12407
-577.05823
-665.67859
-763.37415
-870.00856
-984.66016
-1105.4661
-1229.7462
-1354.4136
-1476.4672
-1593.3171
-1702.84
-1803.2311
-1892.7561
-1969.4399
-2030.7075
-2073.0754
-2092.1037
-2082.7927
-2039.5856
-1957.4486
-1834.4241
-1674.2473
-1486.6342
-1284.5442
-1080.6574
-885.11594
-704.69052
-543.02732
-401.36492
-279.34208
-175.68573
-88.716421
-16.683689
42.039626
88.898617
125.17893
151.81142
168.71733
175.25009
-31.32272
-64.748325
-103.16393
-143.16705
-186.01788
-232.4904
-283.51341
-340.10041
-403.35024
-474.4091
-554.39861
-644.30968
-744.84097
-856.11852
-977.2991
-1106.2777
-1239.8196
-1374.1693
-1505.8013
-1631.8963
-1750.3824
-1859.68
-1958.3489
-2044.6712
-2116.1355
-2168.9572
-2197.9198
-2196.6907
-2157.7325
-2073.3254
-1939.1482
-1758.8895
-1545.2549
-1315.6016
-1086.3276
-869.81841
-673.60671
-501.08681
-352.70774
-227.14583
-122.20844
-35.439612
35.518449
92.743111
137.99753
172.78097
198.17318
214.23517
220.4327
-28.935343
-59.574987
-94.898027
-131.84682
-171.67519
-215.21017
-263.45967
-317.56069
-378.79205
-448.54482
-528.24825
-619.25851
-722.68946
-839.06429
-967.71675
-1106.2532
-1250.6595
-1396.2152
-1538.6634
-1674.9218
-1803.0777
-1921.9451
-2030.5692
-2127.6997
-2211.0799
-2276.7104
-2318.5365
-2328.6704
-2297.0936
-2212.1921
-2065.6519
-1860.4851
-1613.7493
-1349.4068
-1089.011
-847.73829
-633.73459
-449.70501
-294.82717
-166.41684
-61.081321
24.586103
93.645926
148.66945
191.75118
224.60073
248.43751
263.45916
269.24635
-25.834176
-53.293387
-85.133284
-118.63353
-155.0088
-195.12759
-240.07109
-291.10189
-349.69466
-417.5224
-496.38349
-588.08841
-694.30531
-816.16071
-953.35342
-1103.1787
-1260.5219
-1419.2471
-1574.0532
-1721.5572
-1860.1744
-1989.336
-2108.7968
-2218.0397
-2315.346
-2396.6699
-2455.0969
-2481.0199
-2461.4975
-2379.4189
-2219.758
-1983.4124
-1693.8846
-1385.4099
-1086.7044
-816.33244
-582.616
-386.83321
-226.1835
-96.095695
8.3587762
91.722837
157.84483
209.81625
250.0585
280.47319
302.39866
316.15973
321.45252
-22.988264
-47.105584
-75.194205
-104.93102
-137.49253
-173.77997
-214.93907
-262.3545
-317.70631
-382.98374
-460.41859
-552.37008
-661.22086
-788.98794
-936.05533
-1099.4241
-1272.3861
-1446.6588
-1615.3975
-1774.882
-1924.1579
-2063.6283
-2194.0745
-2316.1132
-2429.0546
-2529.1506
-2608.6684
-2656.1731
-2655.5153
-2582.0933
-2409.6774
-2133.8909
-1787.8782
-1422.5327
-1076.4501
-772.13825
-517.10632
-310.0022
-145.03265
-15.064434
86.74907
166.26578
228.18012
276.10014
312.74403
340.16736
359.79295
372.05533
376.76317
-19.233995
-39.566104
-63.483941
-89.028626
-117.28547
-149.16093
-185.84178
-228.81605
-279.96336
-341.61495
-416.50493
-507.64536
-618.3183
-751.84288
-909.86983
-1089.2874
-1281.1051
-1473.7725
-1658.1737
-1830.2915
-1990.3737
-2140.3274
-2282.2796
-2418.3711
-2549.5396
-2672.7614
-2779.4821
-2856.4146
-2884.4361
-2829.5601
-2647.2459
-2321.087
-1898.5224
-1458.8316
-1053.8855
-710.45784
-433.22517
-216.29681
-49.466784
77.789807
174.63834
248.39189
304.59754
347.33034
379.54046
403.37525
420.29182
430.80769
434.83674
-15.909551
-32.367221
-51.889411
-72.94611
-96.528054
-123.52994
-155.16111
-192.99619
-239.10678
-296.19284
-367.57397
-457.03008
-568.92176
-708.39592
-879.34018
-1079.0097
-1295.059
-1510.7435
-1713.4126
-1898.7624
-2069.1469
-2228.6984
-2381.1215
-2530.4772
-2680.3855
-2829.6037
-2969.1765
-3084.3379
-3154.0987
-3134.0109
-2949.9599
-2559.1606
-2029.2975
-1490.9053
-1012.5344
-624.92442
-325.99142
-102.3632
62.502748
183.47677
272.40196
338.09618
386.87985
423.18053
450.07153
469.702
483.49645
492.01891
495.2762
-11.483925
-23.591239
-38.294663
-54.438628
-72.848095
-94.363201
-120.16996
-151.87514
-191.6807
-242.61947
-308.63689
-394.36261
-505.33311
-649.10807
-833.41838
-1057.118
-1303.0124
-1546.0297
-1768.1207
-1964.9807
-2142.974
-2309.8845
-2471.3078
-2633.6116
-2804.7352
-2986.7699
-3170.3478
-3338.4981
-3469.9065
-3511.2588
-3344.1365
-2870.7982
-2184.143
-1512.8699
-942.74491
-506.96155
-189.29449
35.498793
192.78371
302.75074
380.12586
435.11311
474.59781
503.16024
523.83652
538.65843
548.93491
555.23103
557.62935
-7.5459461
-15.399243
-25.214337
-36.272603
-49.208278
-64.768088
-84.068966
-108.69891
-140.93297
-184.11087
-242.90335
-322.9825
-431.14915
-577.96563
-777.58721
-1033.2897
-1320.8801
-1601.2873
-1847.8977
-2056.6835
-2241.3069
-2415.234
-2585.4239
-2759.5247
-2951.4773
-3168.7936
-3401.8412
-3630.665
-3839.9339
-3979.4504
-3868.0217
-3294.1301
-2367.8696
-1515.4533
-830.29315
-345.15951
-15.871838
201.0953
342.92658
435.89051
497.45837
538.8268
567.06003
586.58928
600.19896
609.65745
616.06272
619.92857
621.39216
-2.4940536
-5.6554003
-10.105288
-15.573823
-22.444997
-31.342409
-43.273901
-59.749448
-83.013094
-116.56762
-165.75623
-237.3643
-339.18042
-484.64167
-697.71899
-992.03941
-1333.7672
-1659.6113
-1930.1028
-2142.1464
-2323.1197
-2495.6056
-2666.7927
-2843.172
-3048.9946
-3303.1737
-3599.0874
-3914.1974
-4241.4069
-4553.2173
-4583.0232
-3903.4782
-2589.311
-1483.2201
-653.43071
-124.34813
202.50755
397.84733
513.68366
582.39902
623.43341
648.17748
663.26868
672.58013
678.38251
682.01651
684.26809
685.54492
686.01548
2.9587923
3.9729972
4.5462668
4.372769
3.3873177
1.1546455
-3.1202086
-10.724109
-23.65241
-45.261267
-81.374475
-140.13096
-230.27344
-367.38842
-589.87767
-934.91044
-1357.8536
-1750.6932
-2054.8898
-2266.9249
-2439.8805
-2611.5587
-2788.5986
-2969.4136
-3193.926
-3500.0125
-3883.2971
-4313.092
-4763.9031
-5291.5199
-5573.81
-4825.3575
-2837.3017
-1376.2416
-376.92552
174.90869
474.14935
627.83463
704.34028
740.62148
756.28053
761.57937
761.89136
760.03446
757.47753
754.96745
752.88244
751.47273
750.9152
8.2851178
13.265336
19.323541
25.157982
31.020654
36.677865
41.595099
44.763055
44.510373
37.799775
18.452051
-23.539234
-98.146801
-220.10645
-443.94198
-853.46418
-1397.2819
-1876.4147
-2210.7428
-2392.8793
-2530.4283
-2685.6833
-2862.7826
-3027.8149
-3238.64
-3573.5315
-4023.7137
-4561.7458
-5089.7116
-5960.3607
-6823.7179
-6299.5143
-3074.0126
-1170.9512
36.506991
572.65519
805.0123
890.17388
911.79933
907.31744
893.25945
876.87555
861.26396
847.66139
836.46194
827.67565
821.19697
817.07838
815.48607
17.841148
25.859722
36.761765
47.719772
59.416652
71.801384
84.631535
97.258467
108.52228
116.23575
114.96646
93.715331
41.619981
-49.53835
-244.67539
-715.15124
-1441.8799
-2033.6098
-2413.3728
-2545.7121
-2643.0181
-2787.199
-2982.1459
-3113.6797
-3276.6773
-3677.6987
-4224.3713
-4961.7031
-5679.3054
-7242.8537
-8882.0923
-9068.3525
-3578.1295
-1038.2191
635.19354
1099.0924
1197.3512
1178.9797
1129.5277
1077.2888
1030.5878
991.36683
959.44142
934.02458
914.23877
899.26881
888.48499
881.72047
879.1185
22.150589
30.895267
46.136778
62.238265
80.17158
100.10831
122.29214
146.74785
173.26289
201.23845
227.41503
240.71455
225.9632
180.34555
45.40871
-483.2843
-1555.1586
-2311.4991
-2773.6623
-2771.0088
-2749.6656
-2813.145
-3022.6409
-3099.9056
-3207.1636
-3763.2634
-4232.9945
-5185.2218
-6470.843
-7863.4474
-9589.1439
-12103.54
-4823.2655
-72.514602
1722.8311
1811.983
1641.1425
1478.7604
1346.2298
1243.2037
1163.5574
1101.9567
1054.3116
1017.6219
989.69059
968.87462
954.02902
944.77082
941.21753
36.937096
46.533267
66.460139
87.31405
110.7481
137.07744
166.9066
200.72084
238.86209
281.66264
327.57458
365.35495
371.82655
347.26628
293.74166
-191.1095
-1818.0781
-2617.1349
-3115.4961
-2772.7577
-2626.8082
-2732.5429
-3131.7558
-3271.1275
-3302.4338
0
0
0
0
0
0
0
0
6202.3756
3402.4565
2582.4958
2068.2388
1755.8597
1545.1255
1396.0886
1287.0016
1205.4552
1143.778
1096.9953
1061.7471
1035.6643
1017.1506
1005.637
1001.2226
35.366754
42.182768
64.028449
87.075122
113.20495
142.73975
176.57931
215.6766
261.07479
314.42459
377.59018
445.98934
502.79964
560.82585
710.68079
552.80423
-1996.7852
-2776.9623
-3646.9053
-2968.6375
-3044.3361
-3012.3246
0
0
0
0
0
0
0
0
0
0
10129.575
6286.2542
4123.9552
3000.3246
2361.3132
1969.1784
1709.0495
1527.5634
1396.2861
1299.0429
1225.9926
1170.8556
1129.4572
1098.8969
1077.2399
1063.7841
1058.6267
44.263808
54.950283
80.950082
106.97763
136.15443
169.03605
206.87573
251.10419
303.50615
367.0804
447.11658
546.08851
653.2888
754.39126
842.19569
568.4732
-3108.2254
-3581.5985
-3205.2808
0
0
0
0
0
0
0
0
0
0
0
1780.6725
3364.595
5756.117
5236.0901
3961.3828
3100.1688
2507.1433
2107.7404
1830.6546
1632.9923
1488.43
1380.7311
1299.5699
1238.1937
1192.0516
1157.9578
1133.7809
1118.7537
1112.9927
22.191634
42.166357
66.371043
91.284955
118.75243
149.5473
184.74328
225.50536
273.13247
329.82983
399.49994
478.02732
537.53033
536.24777
558.10702
702.3866
0
0
0
0
0
0
-1132.0685
-1103.5241
-1011.3059
-917.55611
-790.08464
-495.29836
-94.946623
697.08464
2026.4405
3361.9112
4750.9878
4489.8581
3714.8025
3058.687
2552.6658
2182.2206
1911.4459
1711.6617
1562.3549
1449.5322
1363.6926
1298.3452
1248.9836
1212.3855
1186.3706
1170.1781
1163.9663
19.954016
50.022202
74.970515
100.54385
127.96162
158.05679
191.47967
228.66493
269.57199
313.41799
357.89976
396.56232
406.14915
338.09183
142.01761
-338.13562
-1284.417
-1227.4746
-1147.1015
-1100.4783
-1051.0814
-1021.6133
-1010.3647
-803.28976
-838.68248
-583.18174
-362.34482
-204.61696
259.08335
904.85522
1960.2933
3049.3239
3956.566
3851.8971
3404.2985
2933.5975
2528.462
2206.0159
1956.7043
1765.4227
1618.529
1505.3811
1418.1056
1351.0015
1299.9425
1261.8835
1234.7286
1217.7887
1211.2841
20.663346
46.485443
72.120301
97.971819
125.28642
154.81516
187.13913
222.62494
261.25909
302.13413
342.03506
373.73568
384.81878
353.1583
205.21549
-227.92244
-792.30507
-920.95893
-962.54799
-966.15077
-887.80298
-842.32061
-818.54989
-691.80048
-620.94393
-417.54038
-179.14317
77.743211
510.88736
1096.4668
1896.1873
2721.5887
3334.886
3356.8272
3105.6572
2777.1435
2463.3577
2193.8104
1973.5977
1797.6788
1658.514
1548.9434
1463.039
1396.1806
1344.8437
1306.3179
1278.6981
1261.4187
1254.7759
14.996606
36.230629
58.797032
81.291061
104.29086
128.03549
152.53046
177.41591
201.78994
223.68914
238.89689
240.18115
218.24896
159.21438
15.07498
-283.9122
-606.90327
-732.46468
-784.51853
-794.28649
-753.12536
-703.47439
-642.23526
-537.76239
-423.88655
-238.24317
-11.498457
269.88407
668.6088
1187.7226
1823.2428
2450.8969
2889.5209
2967.0591
2834.9725
2613.0015
2376.1818
2157.6765
1969.1887
1812.3858
1684.4725
1581.3764
1499.0912
1434.1699
1383.8002
1345.7041
1318.2396
1300.9997
1294.3629
23.838374
46.444918
70.189911
93.656189
117.54425
141.96099
166.72593
191.21041
214.0957
232.8151
242.68431
236.66993
205.98871
135.39752
-7.2594424
-236.55113
-460.15483
-579.80589
-635.38329
-644.54097
-615.83473
-568.29289
-497.28126
-394.46018
-264.34923
-82.932913
139.16111
416.11367
777.0269
1223.7724
1735.5106
2221.7459
2557.2305
2658.5606
2599.6231
2454.8466
2280.1782
2107.1231
1949.75
1813.4692
1698.7945
1604.1111
1527.1064
1465.4578
1417.0853
1380.1848
1353.4181
1336.5536
1330.0514
12.024215
29.927737
50.032236
70.035791
90.041054
109.92725
129.38615
147.74688
163.76072
175.18268
178.31564
168.06152
137.63849
74.654264
-40.055215
-203.50778
-358.80731
-456.74762
-506.07911
-514.23368
-488.93017
-440.00573
-365.6894
-262.60101
-128.53864
46.964159
261.85455
525.19112
849.67456
1232.3377
1648.6366
2032.8061
2301.9493
2411.5836
2398.128
2308.5359
2183.1598
2048.9513
1920.3871
1804.4657
1703.8313
1618.6753
1548.0644
1490.6664
1445.0906
1410.0053
1384.3871
1368.1816
1361.9235
21.407267
40.632453
60.854134
80.367767
99.453616
117.84346
135.02362
150.10167
161.6289
167.32358
163.94535
147.54848
113.08101
52.273559
-43.557023
-165.61541
-279.00347
-356.12487
-395.69009
-400.45677
-375.1875
-324.72568
-248.67418
-145.28282
-11.774297
156.79239
361.05916
606.02207
895.95197
1224.4162
1567.8667
1878.508
2101.9974
2212.1879
2227.147
2176.761
2089.844
1988.068
1885.1002
1788.3901
1701.7415
1626.5699
1562.9911
1510.4912
1468.2868
1435.4861
1411.3701
1396.051
1390.1251
11.86415
27.968684
45.959793
63.611665
80.820549
97.231936
112.31664
125.222
134.61705
138.50957
134.22477
118.55901
87.502214
35.679587
-40.002345
-130.43184
-213.52488
-271.83079
-300.84909
-300.62653
-273.46207
-221.63393
-145.03201
-42.511221
87.994123
248.90856
441.01373
666.30053
924.57431
1207.7346
1495.1772
1752.1627
1942.6285
2049.7642
2082.4757
2059.9385
2002.6785
1927.6339
1846.8497
1767.6919
1694.4096
1629.1886
1572.8941
1525.6527
1487.1887
1456.999
1434.6433
1420.3808
1414.854
17.140364
33.237346
50.220042
66.364811
81.714346
95.886723
108.32922
118.22208
124.38318
125.18552
118.61217
102.36236
73.69097
29.625355
-29.988954
-97.382238
-158.13655
-200.46217
-219.38493
-213.53442
-183.55775
-130.34321
-53.764363
46.960247
173.10546
325.77656
505.17495
711.24641
941.41842
1187.1583
1431.2315
1648.3116
1813.9325
1916.4942
1960.219
1957.4982
1922.9614
1869.6955
1807.8369
1744.3107
1683.4269
1627.7754
1578.7193
1536.8595
1502.326
1474.9441
1454.5177
1441.428
1436.3466
11.965885
26.365744
42.104232
57.216639
71.535776
84.633739
95.955455
104.72773
109.89834
110.11338
103.80192
89.276576
64.758209
28.907254
-17.019718
-66.703735
-110.25012
-139.22888
-148.99452
-137.5513
-104.54781
-50.079602
26.067911
124.39877
245.54582
389.78542
556.6473
744.78768
950.46879
1165.4736
1375.7037
1562.5378
1708.9276
1806.4502
1856.8894
1868.2994
1851.1314
1815.4437
1769.5688
1719.7251
1670.0962
1623.4071
1581.3252
1544.7833
1514.2212
1489.7317
1471.3241
1459.4744
1454.8661
13.672529
27.359607
41.871704
55.550793
68.315742
79.77117
89.415391
96.581055
100.40707
99.848852
93.763482
81.007095
60.559475
32.098386
-2.5894573
-38.476642
-68.501729
-86.407675
-88.110006
-71.431211
-35.489559
20.054067
95.479358
191.07375
307.00124
442.97349
597.96299
769.86575
954.48582
1144.302
1327.8971
1491.4048
1622.6064
1715.1569
1769.558
1791.064
1787.1667
1765.5775
1733.0735
1695.0583
1655.4637
1616.9947
1581.4712
1550.0424
1523.3736
1501.7676
1485.4003
1474.8154
1470.6915
11.353756
24.027865
37.645159
50.500598
62.432387
73.046766
81.879984
88.351929
91.760581
91.31253
86.205981
75.732644
59.445943
37.650992
12.275977
-12.652435
-31.896897
-40.645129
-35.405041
-14.037803
24.575491
80.988378
155.49847
248.21853
358.97845
487.10017
631.16257
788.66206
955.34906
1124.5375
1287
1432.2484
1551.2806
1639.1812
1695.78
1724.5056
1730.7504
1720.4246
1699.0136
1671.1272
1640.3518
1609.2939
1579.8159
1553.1935
1530.2481
1511.4416
1497.0801
1487.7495
1484.108
11.407423
23.296027
35.923509
47.754374
58.666196
68.304998
76.268393
82.076622
85.182443
85.010249
81.03314
72.876247
60.489019
44.521999
26.847202
10.721106
0.16244536
-1.0282923
10.105425
35.553964
76.498807
133.57352
207.05505
296.91481
402.74669
523.6091
657.83539
802.75911
954.29721
1106.6007
1252.1846
1382.9757
1492.1647
1575.8549
1633.5317
1667.4216
1681.4226
1680.0724
1667.8006
1648.5066
1625.3925
1600.9187
1576.9181
1554.7273
1535.2681
1519.1189
1506.6848
1498.5706
1495.3988
10.343708
21.515242
33.41851
44.560562
54.805665
63.829389
71.285655
76.786907
79.922715
80.301506
77.620495
71.762587
62.951005
52.01946
40.711697
31.704796
28.182061
33.206451
49.281315
78.204434
121.12218
178.66793
251.0726
338.19325
439.45898
553.75813
679.29316
813.38255
952.21547
1090.7115
1222.7515
1342.0033
1443.1853
1523.1437
1581.1974
1618.7741
1638.704
1644.4832
1639.6907
1627.617
1611.0831
1592.3716
1573.2518
1555.0724
1538.8133
1525.1353
1514.5168
1507.5613
1504.8396
9.9406169
20.47639
31.670337
42.130032
51.740056
60.213256
67.259622
72.575047
75.865115
76.886573
75.510276
71.807372
66.178224
59.538167
53.481482
50.25001
52.431823
62.544071
82.715272
114.54301
159.08959
216.94401
288.27813
372.85684
469.99606
578.48219
696.46774
821.3418
949.60219
1076.8386
1197.9928
1307.9985
1402.6586
1479.3702
1537.3818
1577.5855
1602.0461
1613.4719
1614.7644
1608.702
1597.76
1584.0286
1569.1945
1554.5869
1541.2126
1529.79
1520.8529
1514.9875
1512.6937
9.3564988
19.364713
30.008348
39.956346
49.101856
57.191803
63.98818
69.261367
72.815802
74.529132
74.407854
72.66108
69.801612
66.769691
65.018041
66.459612
73.249558
87.495603
111.02125
145.23582
191.09839
249.13291
319.44853
401.7366
495.23709
598.68211
710.22649
827.37314
946.92383
1065.0321
1177.4573
1280.0606
1369.4254
1443.3603
1501.0944
1543.1585
1571.0669
1586.9348
1593.1296
1592.0072
1585.742
1576.2387
1565.0923
1553.5963
1542.7638
1533.3526
1525.9438
1521.0963
1519.2107
8.9349362
18.485966
28.650107
38.160482
46.922818
54.715617
61.346449
66.648409
70.506162
72.892111
73.915045
73.881643
73.372856
73.323644
75.062116
80.252092
90.729979
108.29455
134.52474
170.66347
217.56526
275.68326
345.06671
425.34908
515.72093
614.89175
721.0487
831.82335
944.29384
1055.0746
1160.5507
1257.2642
1342.3652
1413.9709
1471.3166
1514.6887
1545.206
1564.5399
1574.643
1577.5293
1575.1203
1569.1529
1561.13
1552.3029
1543.6754
1536.03
1529.9958
1526.1077
1524.6264
8.549101
17.743466
27.539705
36.720621
45.20112
52.788054
59.328675
64.708553
68.87694
71.879797
73.90208
75.318221
76.748676
79.109641
83.625612
91.773004
105.1533
125.33317
153.69933
191.35474
239.0586
297.19702
365.76615
444.35499
532.12327
627.77716
729.54974
835.19754
942.03533
1047.0436
1147.0793
1239.1828
1320.9149
1390.6227
1447.5584
1491.8428
1524.3121
1546.3088
1559.4683
1565.5348
1566.2224
1563.1248
1557.6594
1551.0355
1544.2392
1538.0667
1533.2132
1530.2282
1529.1734
8.1798076
17.102107
26.616404
35.549389
43.821668
51.264807
57.758836
63.231001
67.680224
71.207421
74.052493
76.635726
79.599386
83.837405
90.492393
100.90238
116.49797
138.67455
168.67218
207.48191
255.78279
313.90305
381.79485
459.01403
544.70185
637.57111
735.90262
837.56229
940.05606
1040.6447
1136.5327
1225.119
1304.2585
1372.4662
1429.0141
1473.9123
1507.7985
1531.7776
1547.2493
1555.7522
1558.839
1557.9878
1554.5461
1549.6891
1544.3863
1539.437
1535.6172
1533.5685
1533.0779
7.8074781
16.603285
25.940302
34.712484
42.846963
50.199276
56.676469
62.237857
66.919101
70.860621
74.340401
77.808537
81.918217
87.542344
95.761676
107.81606
125.01743
148.64076
179.82023
219.46346
268.18767
326.27583
393.64656
469.83231
553.96411
644.76497
740.55748
839.29445
938.62571
1036.0149
1128.9111
1214.9614
1292.2231
1359.3289
1415.5686
1460.8802
1495.7671
1521.1692
1538.3195
1548.608
1553.4684
1554.2922
1552.3725
1548.8592
1544.7056
1540.6824
1537.6143
1536.3939
1536.679
7.3041729
16.167716
25.424198
34.111402
42.165175
49.46551
55.940236
61.570839
66.417081
70.644429
74.554194
78.613549
83.479918
90.010467
99.246053
112.36655
130.61033
155.17373
187.12065
227.30326
276.29696
334.35389
401.37016
476.86331
559.95905
649.38931
743.50682
840.32393
937.58596
1032.8879
1123.8347
1208.2293
1284.2564
1350.6235
1406.6336
1452.1816
1487.6872
1513.9863
1532.2051
1543.6369
1549.6374
1551.5385
1550.5929
1547.9363
1544.5158
1541.0474
1538.3509
1537.9202
1540.1134
6.0814724
15.835498
25.143195
33.822811
41.845898
49.124478
55.600602
61.267952
66.198598
70.570533
74.696815
79.053368
84.300487
91.290166
101.04805
114.71785
133.49029
158.52481
190.8554
231.30734
280.43516
338.47532
405.31244
480.45652
563.03071
651.77179
745.0482
840.90283
937.12938
1031.3886
1121.3626
1204.9314
1280.3425
1346.3408
1402.2366
1447.9046
1483.724
1510.48
1529.2467
1541.2706
1547.8637
1550.3274
1549.9024
1547.7277
1544.7606
1541.6763
1539.2605
1539.7835
1545.6257
-2227.7584
-2483.6249
-2699.5389
-2881.4837
-3023.9674
-3106.2145
-3108.2254
-3029.2212
-2857.2784
-2664.0032
-3205.3888
-3205.2808
-3198.4353
-3187.4484
-3173.3342
-3160.5814
-3148.7456
-3158.2123
-3158.8145
-3131.4101
-3183.0312
-3181.9067
-3167.1524
-3150.1892
-3133.274
-3124.2832
-3105.9907
-3113.2077
-3100.0761
-3046.55
-3137.8418
-3135.1797
-3126.5766
-3117.8808
-3109.0873
-3112.0995
-3101.0039
-3098.9712
-3085.57
-3048.7081
-3078.1497
-3076.7151
-3072.1696
-3066.2522
-3057.7467
-3058.1467
-3057.8124
-3057.1423
-3055.6638
-3059.4006
-3030.1691
-3029.3767
-3023.6159
-3013.4547
-2998.1998
-2968.6375
-2990.8015
-3003.1023
-3009.748
-3023.0967
-3013.4128
-3015.1069
-3018.3587
-3021.7458
-3032.6625
-3008.5367
-3008.2147
-3004.5874
-2989.6692
-2966.6811
-3027.9231
-3029.5539
-3035.6398
-3044.3361
-3068.3861
-3076.1026
-3056.7215
-3030.704
-3000.8671
-2965.4632
-3848.4527
-3860.765
-3831.7262
-3787.3166
-3749.7568
-3717.6916
-3696.1883
-3682.4621
-3673.5222
-3675.2643
-2986.9814
-2985.7893
-2977.9084
-2960.9533
-2921.5851
-2946.946
-2958.9508
-2961.1435
-2950.6577
-2923.5508
-3009.2481
-3012.3246
-3018.6878
-3037.9312
-3013.9711
-3005.2506
-3001.299
-2993.8834
-2979.8933
-2964.7516
-3048.5067
-3050.9592
-3056.1372
-3080.7264
-3093.496
-3069.4238
-3042.6918
-3022.4073
-3003.5385
-2987.0527
-2999.6595
-2995.8308
-2976.9419
-2951.661
-2974.598
-2992.079
-3003.318
-3010.7379
-3013.001
-3020.0185
-3033.2652
-3035.7256
-3034.862
-2997.9708
-3007.1042
-3020.717
-3031.5171
-3038.7502
-3041.7996
-3051.3643
-3156.8902
-3164.6842
-3188.9175
-3187.4466
-3159.5469
-3131.7558
-3111.0624
-3095.6695
-3080.2521
-3063.0192
-3141.978
-3137.1433
-3129.6597
-3149.8308
-3150.4247
-3144.6319
-3138.4094
-3132.9743
-3126.9763
-3128.8786
-3162.7556
-3162.0349
-3137.7505
-3147.9046
-3159.3503
-3167.4863
-3171.9064
-3173.7102
-3173.0007
-3177.7021
-3277.1162
-3289.5195
-3285.4688
-3271.1275
-3255.8058
-3243.7649
-3235.0334
-3229.2397
-3222.4244
-3213.864
-3282.4888
-3286.5603
-3294.0149
-3285.937
-3276.294
-3270.7939
-3270.5588
-3274.9999
-3280.0406
-3292.343
-3186.3248
-3172.2148
-3189.5512
-3215.4281
-3244.9015
-3273.5984
-3300.5723
-3325.1452
-3345.298
-3370.2632
-3326.053
-3302.4338
-3312.0413
-3332.3489
-3359.1123
-3384.3602
-3406.8257
-3425.257
-3437.7755
-3453.4903
-3701.6747
-3692.6553
-3661.9566
-3627.8855
-3602.8067
-3583.3214
-3571.2313
-3564.0734
-3557.9584
-3555.0924
-3016.6786
-3015.153
-3009.7379
-2998.1197
-2992.6336
-2999.8925
-2999.5296
-2994.1791
-2984.9468
-2983.9232
-3540.5379
-3549.1347
-3563.569
-3610.8528
-3667.0284
-3718.86
-3739.9422
-3721.8032
-3638.1025
-3466.2529
-3268.7583
-3268.9932
-3271.9426
-3276.8108
-3277.9215
-3277.0255
-3275.0642
-3269.9195
-3265.7619
-3219.2847
-3179.5256
-3227.5518
-3289.6663
-3394.3694
-3505.6948
-3592.5205
-3635.0762
-3595.2069
-3447.0636
-3214.6347
-3480.2767
-3490.3203
-3511.251
-3547.9502
-3581.5985
-3610.2581
-3618.8292
-3618.3244
-3582.5464
-3470.1573
-3367.3451
-3371.7351
-3385.9146
-3409.8728
-3430.8337
-3448.4897
-3456.6153
-3446.1964
-3433.5787
-3381.8272
11318.722
10715.547
10129.575
9489.9397
8832.8465
8179.5395
7545.1808
6936.7842
6347.3445
5770.3046
8301.8489
8224.532
8101.2601
7839.608
7501.7197
7111.2854
6689.607
6254.5667
5816.3995
5360.0016
-3709.5007
-3727.9363
-3745.344
-3751.3104
-3759.9991
-3763.2634
-3768.0588
-3771.4946
-3772.8198
-3776.3115
-3705.8518
-3709.7031
-3745.0493
-3776.2801
-3815.339
-3842.5107
-3866.4371
-3882.4671
-3891.1146
-3895.3024
-3946.5153
-3939.2799
-3955.5088
-3963.0858
-3991.4658
-4009.8455
-4029.6724
-4042.6487
-4048.068
-4043.6181
-4222.423
-4212.0681
-4226.3369
-4216.9234
-4232.9945
-4234.8764
-4241.3991
-4242.4477
-4238.8756
-4234.5146
-4544.8765
-4526.7369
-4538.482
-4511.4469
-4515.2327
-4497.3858
-4484.9276
-4464.9006
-4437.2331
-4404.8725
-4901.1053
-4873.8832
-4883.4902
-4837.069
-4828.637
-4790.148
-4757.3171
-4713.8951
-4659.2255
-4599.0145
-5281.8494
-5243.399
-5252.0391
-5185.2218
-5165.6717
-5107.583
-5056.1876
-4992.7186
-4916.4633
-4831.1513
-5682.86
-5630.7849
-5639.6096
-5550.5885
-5519.7716
-5441.5436
-5370.8773
-5288.4424
-5198.4684
-5115.918
-6105.0438
-6035.9213
-6045.7704
-5931.776
-5888.3054
-5787.8966
-5693.5291
-5583.5006
-5458.1874
-5322.5869
-6548.5001
-6458.4123
-6470.843
-6329.1981
-6271.9439
-6149.0592
-6030.8961
-5896.784
-5747.1779
-5585.4186
-7019.3411
-6902.2101
-6917.9742
-6744.4914
-6670.3452
-6522.7543
-6376.8529
-6214.628
-6036.1366
-5850.266
-7516.44
-7366.2086
-7388.326
-7179.8867
-7085.7236
-6911.6632
-6733.8682
-6537.7858
-6319.1646
-6081.8845