/*--------------------------------*- C++ -*----------------------------------*\
| =========                 |                                                 |
| \\      /  F ield         | foam-extend: Open Source CFD                    |
|  \\    /   O peration     | Version:     4.1                                |
|   \\  /    A nd           | Web:         http://www.foam-extend.org         |
|    \\/     M anipulation  |                                                 |
\*---------------------------------------------------------------------------*/
FoamFile
{
    version     2.0;
    format      ascii;
    class       volScalarField;
    location    "2.05";
    object      p;
}
// * * * * * * * * * * * * * * * * * * * * * * * * * * * * * * * * * * * * * //

dimensions      [0 2 -2 0 0 0 0];

internalField   nonuniform List<scalar> 
4393
(
-46.418279
-92.981828
-146.74663
-201.53772
-258.52851
-318.0297
-380.42423
-446.02165
-515.04622
-587.60809
-663.67522
-743.04519
-825.31989
-909.88673
-995.91048
-1082.3386
-1167.9205
-1251.2388
-1330.7465
-1404.8062
-1471.7266
-1529.7974
-1577.324
-1612.6685
-1634.3034
-1640.8855
-1631.3607
-1605.1088
-1562.0232
-1502.6041
-1428.0626
-1340.3042
-1241.8235
-1135.5208
-1024.4767
-911.72599
-800.06802
-691.93545
-589.32539
-493.78603
-406.4448
-328.06278
-259.10051
-199.78384
-150.17414
-110.24041
-79.763326
-57.832382
-43.628085
-45.166115
-92.396008
-146.03405
-200.6739
-257.49558
-316.84198
-379.10967
-444.62028
-513.60991
-586.20077
-662.37241
-741.9325
-824.48998
-909.43472
-995.9283
-1082.9091
-1169.113
-1253.1061
-1333.3246
-1408.1152
-1475.7719
-1534.5697
-1582.7975
-1618.7956
-1641.0077
-1648.057
-1638.854
-1612.7039
-1569.4362
-1509.5442
-1434.2449
-1345.4786
-1245.8055
-1138.2118
-1025.8681
-911.88887
-799.13379
-690.07211
-586.71537
-490.60839
-402.86292
-324.21746
-255.10993
-195.75334
-146.20059
-106.3603
-75.961667
-54.862732
-44.26456
-44.361876
-91.499255
-144.77577
-199.05484
-255.52569
-314.56085
-376.57901
-441.92406
-510.85525
-583.51847
-659.91613
-739.87551
-823.01889
-908.74001
-996.19248
-1084.2948
-1171.7533
-1257.0997
-1338.7354
-1414.9752
-1484.0844
-1544.3103
-1593.9092
-1631.1786
-1654.5014
-1662.4209
-1653.7592
-1627.7381
-1584.0957
-1523.2534
-1446.4222
-1355.612
-1253.5194
-1143.3092
-1028.3381
-911.88394
-796.92635
-686.00506
-581.15571
-483.91058
-395.3438
-316.14224
-246.68997
-187.15637
-137.55084
-97.688012
-67.257904
-46.702979
-37.92045
-43.571156
-90.203509
-142.87205
-196.57261
-252.49943
-311.05368
-372.68284
-437.7628
-506.58759
-579.33962
-656.05712
-736.59879
-820.60902
-907.48906
-996.38139
-1086.1741
-1175.5281
-1262.9214
-1346.7026
-1425.1389
-1496.4547
-1558.8585
-1610.5623
-1649.803
-1674.8751
-1684.1996
-1676.4524
-1650.7043
-1606.5451
-1544.2895
-1465.1356
-1371.1993
-1265.3941
-1151.1696
-1032.1789
-911.95613
-793.6672
-679.95754
-572.89555
-473.98968
-384.25281
-304.29109
-234.4048
-174.68809
-125.07531
-85.291481
-55.022293
-34.934342
-26.790218
-42.746022
-88.586088
-140.40165
-193.29791
-248.4767
-306.37005
-367.46091
-432.16669
-500.82802
-573.67718
-650.80223
-732.10642
-817.26642
-905.69547
-996.5213
-1088.5892
-1180.4948
-1270.6405
-1357.3008
-1438.6792
-1512.9484
-1578.2703
-1632.8045
-1674.7132
-1702.1783
-1713.459
-1707.0292
-1681.7392
-1636.9531
-1572.8178
-1490.4978
-1392.2538
-1281.3118
-1161.5349
-1037.0028
-911.6134
-788.78907
-671.31383
-561.29033
-460.18309
-368.91169
-287.96552
-217.5259
-157.57774
-107.95375
-68.296687
-38.299834
-18.683475
-10.927066
-41.737445
-86.5369
-137.2531
-189.11404
-243.33045
-300.36951
-360.75698
-424.96201
-493.38487
-566.32299
-643.93077
-726.17237
-812.77029
-903.15692
-996.4423
-1091.4143
-1186.5795
-1280.2369
-1370.5626
-1455.6798
-1533.7004
-1602.737
-1660.8937
-1706.2493
-1736.8502
-1750.7507
-1746.1566
-1721.6153
-1676.1691
-1609.7099
-1523.3303
-1419.4774
-1301.809
-1174.766
-1043.0179
-910.95475
-782.33329
-660.10556
-546.40015
-442.60529
-349.50317
-267.41972
-196.37234
-136.19517
-86.586802
-47.090527
-17.368777
1.8952734
9.4340959
-40.595515
-84.127184
-133.49121
-184.07012
-237.08798
-293.05309
-352.5417
-416.08558
-484.1587
-557.14083
-635.27224
-718.59821
-806.9051
-899.65538
-995.9396
-1094.4705
-1193.6351
-1291.5941
-1386.3954
-1476.064
-1558.6464
-1632.2099
-1694.8103
-1744.4436
-1779.0051
-1796.3014
-1794.1938
-1770.8251
-1724.7865
-1655.5863
-1564.1764
-1453.2322
-1326.9989
-1190.712
-1049.8414
-909.42605
-773.64357
-645.6367
-527.53721
-420.60879
-325.43861
-242.13265
-170.49425
-110.16503
-60.6799
-21.46077
7.9040387
26.823605
34.19087
-39.186012
-81.205564
-128.95647
-178.00164
-229.57708
-284.2374
-342.61698
-405.32142
-472.91382
-545.87584
-624.55674
-709.1082
-799.4046
-894.95499
-994.83051
-1097.6469
-1201.6307
-1304.7574
-1404.9089
-1499.9925
-1587.9891
-1666.935
-1734.8569
-1789.6814
-1829.1469
-1850.7727
-1851.9889
-1830.4105
-1784.0055
-1711.7093
-1614.2143
-1494.4634
-1357.4975
-1209.6432
-1057.4495
-906.79892
-762.38323
-627.54432
-504.3706
-393.92812
-296.5304
-211.99157
-139.84089
-79.481433
-30.253249
8.565593
37.490094
56.04373
63.248486
-37.653453
-77.930951
-123.7969
-171.03289
-220.89029
-273.97558
-330.98884
-392.62119
-459.54176
-532.35664
-611.55207
-697.41836
-789.95118
-888.73191
-992.81703
-1100.6984
-1210.3875
-1319.6103
-1426.033
-1527.4231
-1621.7035
-1706.9073
-1781.0687
-1842.0771
-1887.5232
-1914.6051
-1920.2265
-1901.3234
-1855.0122
-1779.3762
-1674.6456
-1544.0581
-1393.7395
-1231.5243
-1065.4181
-902.39133
-747.74713
-605.0109
-476.1466
-361.91668
-262.25664
-176.59948
-104.1305
-43.963275
4.7912816
43.023609
71.374718
89.494044
96.516857
-35.748819
-74.004842
-117.6921
-162.83157
-210.6819
-261.90431
-317.27083
-377.56972
-443.59421
-516.10048
-595.74489
-682.99679
-778.01801
-880.50118
-989.50009
-1103.349
-1219.7672
-1336.1398
-1449.8472
-1558.4922
-1659.9571
-1752.3187
-1833.6805
-1901.9528
-1954.6113
-1988.5131
-1999.9354
-1984.9554
-1939.5404
-1860.5127
-1747.2975
-1603.422
-1436.5076
-1256.501
-1073.383
-895.51891
-728.91366
-577.21792
-442.13799
-323.98105
-222.16736
-135.6396
-63.159621
-3.4981336
44.496481
81.904314
109.50742
127.08883
133.89254
-33.798639
-69.806256
-111.02791
-153.76796
-199.29487
-248.32739
-301.71462
-360.3526
-425.1775
-497.1242
-577.05836
-665.67872
-763.37429
-870.00871
-984.66033
-1105.4663
-1229.7464
-1354.4138
-1476.4675
-1593.3173
-1702.8403
-1803.2314
-1892.7563
-1969.4402
-2030.7078
-2073.0756
-2092.1039
-2082.793
-2039.5858
-1957.4488
-1834.4243
-1674.2475
-1486.6344
-1284.5445
-1080.6576
-885.11619
-704.69077
-543.02758
-401.36517
-279.34233
-175.68598
-88.71666
-16.683924
42.039395
88.89839
125.17871
151.8112
168.71711
175.24987
-31.322734
-64.74837
-103.164
-143.16714
-186.01799
-232.49053
-283.51354
-340.10055
-403.35037
-474.40923
-554.39874
-644.30981
-744.84111
-856.11867
-977.29927
-1106.2779
-1239.8198
-1374.1696
-1505.8016
-1631.8966
-1750.3827
-1859.6803
-1958.3492
-2044.6714
-2116.1358
-2168.9574
-2197.92
-2196.6909
-2157.7327
-2073.3256
-1939.1484
-1758.8898
-1545.2552
-1315.6018
-1086.3278
-869.81867
-673.60697
-501.08706
-352.70799
-227.14607
-122.20868
-35.439852
35.518214
92.74288
137.99731
172.78075
198.17296
214.23496
220.43249
-28.935358
-59.575032
-94.898099
-131.84692
-171.6753
-215.21029
-263.4598
-317.56082
-378.79218
-448.54495
-528.24838
-619.25864
-722.6896
-839.06444
-967.71692
-1106.2534
-1250.6597
-1396.2155
-1538.6637
-1674.9221
-1803.078
-1921.9454
-2030.5695
-2127.7
-2211.0802
-2276.7107
-2318.5367
-2328.6707
-2297.0938
-2212.1923
-2065.6521
-1860.4854
-1613.7495
-1349.4071
-1089.0113
-847.73855
-633.73485
-449.70527
-294.82742
-166.41709
-61.081567
24.585863
93.64569
148.66922
191.75095
224.60051
248.43729
263.45894
269.24613
-25.83419
-53.293433
-85.133356
-118.63362
-155.00891
-195.12771
-240.07123
-291.10202
-349.69479
-417.52254
-496.38362
-588.08854
-694.30544
-816.16085
-953.35359
-1103.1789
-1260.5221
-1419.2473
-1574.0534
-1721.5575
-1860.1747
-1989.3363
-2108.7971
-2218.04
-2315.3462
-2396.6702
-2455.0971
-2481.0201
-2461.4977
-2379.4191
-2219.7583
-1983.4126
-1693.8849
-1385.4101
-1086.7047
-816.3327
-582.61626
-386.83347
-226.18376
-96.095947
8.358529
91.722595
157.8446
209.81602
250.05827
280.47296
302.39844
316.15951
321.4523
-22.988278
-47.105629
-75.194278
-104.93111
-137.49265
-173.7801
-214.9392
-262.35463
-317.70645
-382.98387
-460.41871
-552.37021
-661.22099
-788.98808
-936.0555
-1099.4243
-1272.3864
-1446.6591
-1615.3978
-1774.8822
-1924.1582
-2063.6286
-2194.0748
-2316.1134
-2429.0549
-2529.1508
-2608.6687
-2656.1734
-2655.5156
-2582.0936
-2409.6777
-2133.8912
-1787.8784
-1422.533
-1076.4504
-772.13851
-517.10659
-310.00246
-145.03291
-15.064688
86.748821
166.26553
228.17989
276.09991
312.74381
340.16714
359.79273
372.05511
376.76295
-19.234009
-39.56615
-63.484015
-89.028723
-117.28559
-149.16106
-185.84192
-228.81619
-279.9635
-341.61508
-416.50505
-507.64548
-618.31843
-751.84302
-909.87
-1089.2876
-1281.1053
-1473.7728
-1658.174
-1830.2918
-1990.3741
-2140.3277
-2282.2799
-2418.3713
-2549.5399
-2672.7616
-2779.4823
-2856.4149
-2884.4363
-2829.5604
-2647.2462
-2321.0872
-1898.5227
-1458.8319
-1053.8858
-710.45811
-433.22544
-216.29708
-49.467047
77.789549
174.63809
248.39165
304.5973
347.3301
379.54024
403.37503
420.2916
430.80747
434.83652
-15.909565
-32.367267
-51.889485
-72.946208
-96.52817
-123.53007
-155.16124
-192.99633
-239.10692
-296.19298
-367.5741
-457.03021
-568.92189
-708.39606
-879.34034
-1079.0099
-1295.0592
-1510.7438
-1713.4129
-1898.7627
-2069.1472
-2228.6987
-2381.1218
-2530.4775
-2680.3857
-2829.6039
-2969.1767
-3084.3381
-3154.099
-3134.0112
-2949.9601
-2559.1608
-2029.2978
-1490.9056
-1012.5346
-624.9247
-325.99169
-102.36348
62.50248
183.47651
272.40171
338.09593
386.87961
423.18029
450.0713
469.70178
483.49623
492.0187
495.27598
-11.483939
-23.591285
-38.294737
-54.438726
-72.848211
-94.36333
-120.1701
-151.87528
-191.68084
-242.6196
-308.63701
-394.36273
-505.33324
-649.10821
-833.41855
-1057.1182
-1303.0127
-1546.03
-1768.121
-1964.981
-2142.9743
-2309.8848
-2471.3081
-2633.6119
-2804.7355
-2986.7702
-3170.348
-3338.4983
-3469.9067
-3511.2591
-3344.1368
-2870.7984
-2184.1433
-1512.8701
-942.7452
-506.96184
-189.29478
35.498513
192.78343
302.75047
380.1256
435.11286
474.59757
503.16
523.83629
538.6582
548.93469
555.23081
557.62913
-7.5459601
-15.399289
-25.214411
-36.2727
-49.208394
-64.768216
-84.069102
-108.69905
-140.9331
-184.111
-242.90347
-322.98263
-431.14927
-577.96577
-777.58738
-1033.2899
-1320.8804
-1601.2876
-1847.898
-2056.6838
-2241.3072
-2415.2343
-2585.4242
-2759.525
-2951.4775
-3168.7938
-3401.8414
-3630.6653
-3839.9341
-3979.4506
-3868.022
-3294.1303
-2367.8699
-1515.4536
-830.29344
-345.15981
-15.87213
201.09502
342.92631
435.89024
497.45811
538.82655
567.05979
586.58905
600.19874
609.65723
616.0625
619.92835
621.39195
-2.494067
-5.655446
-10.105362
-15.57392
-22.445111
-31.342536
-43.274035
-59.749583
-83.013225
-116.56775
-165.75635
-237.36443
-339.18055
-484.64181
-697.71916
-992.03962
-1333.7675
-1659.6116
-1930.1031
-2142.1467
-2323.12
-2495.6059
-2666.793
-2843.1722
-3048.9948
-3303.174
-3599.0876
-3914.1976
-4241.4071
-4553.2176
-4583.0234
-3903.4784
-2589.3113
-1483.2203
-653.43101
-124.34844
202.50724
397.84704
513.68337
582.39875
623.43315
648.17723
663.26843
672.57989
678.38228
682.01628
684.26787
685.54471
686.01526
2.9587787
3.972951
4.5461931
4.3726727
3.3872038
1.1545194
-3.1203411
-10.724242
-23.652539
-45.261391
-81.374596
-140.13108
-230.27357
-367.38856
-589.87784
-934.91065
-1357.8539
-1750.6935
-2054.8901
-2266.9252
-2439.8808
-2611.559
-2788.5988
-2969.4139
-3193.9262
-3500.0127
-3883.2973
-4313.0922
-4763.9033
-5291.5202
-5573.8103
-4825.3577
-2837.302
-1376.242
-376.92584
174.90837
474.14904
627.83433
704.33999
740.62121
756.28026
761.57912
761.89112
760.03422
757.4773
754.96723
752.88222
751.47251
750.91498
8.285105
13.26529
19.323468
25.157887
31.020542
36.677742
41.59497
44.762926
44.510247
37.799653
18.45193
-23.53936
-98.146936
-220.10659
-443.94215
-853.46439
-1397.2822
-1876.415
-2210.7432
-2392.8796
-2530.4287
-2685.6836
-2862.7828
-3027.8151
-3238.6402
-3573.5317
-4023.7139
-4561.7461
-5089.7118
-5960.361
-6823.7181
-6299.5145
-3074.0129
-1170.9515
36.50666
572.65486
805.01198
890.17357
911.79903
907.31716
893.25918
876.8753
861.26371
847.66115
836.46171
827.67542
821.19675
817.07816
815.48585
17.841135
25.859675
36.761692
47.719678
59.416543
71.801265
84.631411
97.258343
108.52216
116.23563
114.96634
93.715202
41.619839
-49.538498
-244.67554
-715.15143
-1441.8802
-2033.6102
-2413.3732
-2545.7125
-2643.0184
-2787.1993
-2982.1462
-3113.6799
-3276.6775
-3677.6989
-4224.3715
-4961.7034
-5679.3056
-7242.854
-8882.0926
-9068.3527
-3578.1298
-1038.2194
635.19319
1099.0921
1197.3509
1178.9794
1129.5274
1077.2885
1030.5875
991.36657
959.44117
934.02434
914.23854
899.26859
888.48476
881.72025
879.11828
22.150579
30.89522
46.136705
62.238171
80.171473
100.10819
122.29202
146.74772
173.26277
201.23833
227.41491
240.71441
225.96305
180.34541
45.408578
-483.28447
-1555.159
-2311.4995
-2773.6627
-2771.0091
-2749.666
-2813.1453
-3022.6411
-3099.9059
-3207.1638
-3763.2636
-4232.9947
-5185.222
-6470.8432
-7863.4477
-9589.1442
-12103.54
-4823.2658
-72.514956
1722.8307
1811.9827
1641.1421
1478.7601
1346.2295
1243.2034
1163.5572
1101.9565
1054.3113
1017.6217
989.69035
968.8744
954.0288
944.7706
941.21731
36.937086
46.533217
66.460065
87.313958
110.748
137.07733
166.90649
200.72073
238.86198
281.66254
327.57447
365.35482
371.8264
347.26613
293.74157
-191.10961
-1818.0785
-2617.1354
-3115.4965
-2772.7579
-2626.8086
-2732.5431
-3131.756
-3271.1277
-3302.434
0
0
0
0
0
0
0
0
6202.3751
3402.4561
2582.4954
2068.2385
1755.8594
1545.1252
1396.0883
1287.0014
1205.4549
1143.7777
1096.995
1061.7469
1035.664
1017.1504
1005.6368
1001.2224
35.366748
42.18272
64.028378
87.075033
113.20485
142.73964
176.5792
215.67649
261.07467
314.42447
377.59005
445.98917
502.79944
560.82567
710.68077
552.80425
-1996.7856
-2776.963
-3646.9059
-2968.6377
-3044.3365
-3012.3249
0
0
0
0
0
0
0
0
0
0
10129.574
6286.2536
4123.9547
3000.3242
2361.3128
1969.178
1709.0492
1527.5631
1396.2858
1299.0427
1225.9923
1170.8553
1129.4569
1098.8966
1077.2396
1063.7839
1058.6265
44.263791
54.950229
80.950004
106.97753
136.15432
169.03593
206.87561
251.10407
303.50603
367.08029
447.11646
546.08837
653.28861
754.39111
842.19582
568.47312
-3108.226
-3581.5992
-3205.2813
0
0
0
0
0
0
0
0
0
0
0
1780.6717
3364.5942
5756.1164
5236.0896
3961.3823
3100.1683
2507.143
2107.74
1830.6542
1632.992
1488.4297
1380.7308
1299.5697
1238.1935
1192.0513
1157.9576
1133.7807
1118.7535
1112.9924
22.19159
42.166312
66.370972
91.28486
118.75231
149.54717
184.74313
225.5052
273.13231
329.82967
399.49979
478.02714
537.5301
536.24758
558.10703
702.38657
0
0
0
0
0
0
-1132.0679
-1103.5235
-1011.3057
-917.55631
-790.08514
-495.29894
-94.947329
697.08381
2026.4397
3361.9105
4750.9872
4489.8575
3714.802
3058.6865
2552.6654
2182.2202
1911.4455
1711.6614
1562.3546
1449.532
1363.6924
1298.3449
1248.9833
1212.3853
1186.3704
1170.1778
1163.9661
19.953957
50.022145
74.970429
100.54373
127.96148
158.05663
191.47951
228.66476
269.57183
313.41784
357.89962
396.56214
406.14892
338.09166
142.01751
-338.13604
-1284.4179
-1227.4758
-1147.1028
-1100.4793
-1051.0821
-1021.6134
-1010.3646
-803.28948
-838.68231
-583.18182
-362.34511
-204.61739
259.08277
904.85454
1960.2926
3049.3233
3956.5654
3851.8966
3404.298
2933.597
2528.4616
2206.0155
1956.704
1765.4223
1618.5287
1505.3808
1418.1054
1351.0012
1299.9423
1261.8833
1234.7284
1217.7884
1211.2839
20.663313
46.48539
72.120221
97.971714
125.28629
154.81502
187.13898
222.6248
261.25896
302.13403
342.03495
373.73553
384.81861
353.15817
205.2153
-227.92299
-792.3061
-920.9602
-962.54922
-966.15177
-887.80356
-842.32078
-818.54986
-691.80034
-620.94385
-417.54045
-179.1434
77.742844
510.88688
1096.4662
1896.1867
2721.5881
3334.8854
3356.8267
3105.6567
2777.1431
2463.3573
2193.81
1973.5974
1797.6785
1658.5137
1548.9431
1463.0387
1396.1803
1344.8434
1306.3177
1278.6979
1261.4184
1254.7756
14.996583
36.230572
58.796943
81.290947
104.29072
128.03535
152.53032
177.41578
201.78984
223.68904
238.89678
240.18101
218.24879
159.21419
15.074631
-283.9128
-606.90411
-732.46565
-784.51949
-794.28729
-753.12591
-703.47467
-642.23535
-537.76237
-423.88654
-238.24327
-11.498672
269.88374
668.60837
1187.7221
1823.2422
2450.8964
2889.5204
2967.0586
2834.972
2613.0011
2376.1814
2157.6761
1969.1884
1812.3855
1684.4722
1581.3761
1499.0909
1434.1696
1383.8
1345.7038
1318.2394
1300.9994
1294.3626
23.838358
46.444863
70.189823
93.656076
117.54412
141.96086
166.7258
191.21031
214.09561
232.81501
242.68422
236.66983
205.98857
135.3973
-7.2598206
-236.55168
-460.15552
-579.80668
-635.38409
-644.54169
-615.83527
-568.29323
-497.28142
-394.46024
-264.34928
-82.933018
139.16091
416.11338
777.02652
1223.772
1735.5101
2221.7454
2557.23
2658.5601
2599.6226
2454.8462
2280.1778
2107.1227
1949.7496
1813.4689
1698.7942
1604.1108
1527.1061
1465.4575
1417.085
1380.1846
1353.4179
1336.5533
1330.0512
12.024199
29.927679
50.032145
70.035675
90.040924
109.92712
129.38603
147.74678
163.76064
175.18261
178.31557
168.06144
137.63836
74.654037
-40.055583
-203.50828
-358.80793
-456.74833
-506.07986
-514.23437
-488.93072
-440.00611
-365.68963
-262.60113
-128.53873
46.964044
261.85437
525.19086
849.67422
1232.3373
1648.6362
2032.8057
2301.9488
2411.5831
2398.1276
2308.5354
2183.1594
2048.9509
1920.3868
1804.4654
1703.831
1618.675
1548.0641
1490.6661
1445.0903
1410.005
1384.3868
1368.1814
1361.9232
21.407252
40.632396
60.854042
80.367651
99.453488
117.84333
135.02351
150.10158
161.62884
167.32353
163.9453
147.54841
113.08089
52.273339
-43.55737
-165.61589
-279.00406
-356.12554
-395.6908
-400.45745
-375.18807
-324.72611
-248.67446
-145.28299
-11.774416
156.79227
361.05899
606.02184
895.95167
1224.4159
1567.8663
1878.5075
2101.997
2212.1875
2227.1466
2176.7606
2089.8436
1988.0677
1885.0998
1788.3898
1701.7412
1626.5696
1562.9908
1510.4909
1468.2866
1435.4859
1411.3699
1396.0508
1390.1249
11.864132
27.968623
45.959699
63.611547
80.820422
97.231815
112.31654
125.22192
134.617
138.50953
134.22473
118.55893
87.502085
35.67937
-40.002679
-130.4323
-213.52546
-271.83145
-300.84979
-300.62721
-273.46266
-221.63439
-145.03233
-42.511431
87.993976
248.90842
441.01357
666.30032
924.57404
1207.7343
1495.1768
1752.1622
1942.6281
2049.7638
2082.4752
2059.9381
2002.6781
1927.6335
1846.8493
1767.6915
1694.4092
1629.1883
1572.8938
1525.6524
1487.1885
1456.9987
1434.6431
1420.3806
1414.8538
17.140346
33.237285
50.219947
66.364694
81.71422
95.886605
108.32912
118.222
124.38313
125.18549
118.61213
102.36228
73.690834
29.625136
-29.989281
-97.382685
-158.13712
-200.46283
-219.38563
-213.5351
-183.55835
-130.3437
-53.764714
46.960006
173.10528
325.77642
505.17479
711.24622
941.41817
1187.158
1431.2312
1648.3113
1813.9321
1916.4938
1960.2186
1957.4979
1922.961
1869.6951
1807.8366
1744.3104
1683.4265
1627.7751
1578.719
1536.8592
1502.3257
1474.9438
1454.5174
1441.4277
1436.3463
11.965864
26.365681
42.104135
57.216521
71.535651
84.633623
95.955361
104.72766
109.8983
110.11335
103.80188
89.276493
64.758065
28.907028
-17.020046
-66.704177
-110.25067
-139.22952
-148.99521
-137.55197
-104.54841
-50.080095
26.067539
124.3985
245.54562
389.78526
556.64713
744.78748
950.46855
1165.4733
1375.7033
1562.5375
1708.9272
1806.4498
1856.889
1868.299
1851.131
1815.4434
1769.5685
1719.7248
1670.0959
1623.4068
1581.3249
1544.783
1514.2209
1489.7314
1471.3238
1459.4741
1454.8658
13.672508
27.359544
41.871607
55.550675
68.315618
79.771057
89.415301
96.580995
100.40703
99.848823
93.763436
81.007008
60.559324
32.098153
-2.5897907
-38.477086
-68.502279
-86.408309
-88.110681
-71.431873
-35.490158
20.053569
95.478972
191.07346
307.00102
442.97331
597.96281
769.86556
954.48559
1144.3017
1327.8968
1491.4045
1622.6061
1715.1566
1769.5577
1791.0636
1787.1664
1765.5771
1733.0732
1695.0579
1655.4634
1616.9944
1581.4709
1550.0421
1523.3733
1501.7674
1485.4
1474.8151
1470.6912
11.353735
24.027801
37.645062
50.50048
62.432265
73.046655
81.879898
88.351872
91.760546
91.312501
86.205933
75.732553
59.445787
37.650753
12.275638
-12.65288
-31.897442
-40.645751
-35.4057
-14.038451
24.574902
80.98788
155.49808
248.21823
358.97821
487.09998
631.16239
788.66187
955.34884
1124.5373
1286.9997
1432.2481
1551.2803
1639.1809
1695.7796
1724.5052
1730.75
1720.4242
1699.0133
1671.1268
1640.3515
1609.2936
1579.8156
1553.1932
1530.2478
1511.4413
1497.0798
1487.7492
1484.1077
11.407402
23.295963
35.923413
47.754258
58.666077
68.304891
76.26831
82.076568
85.18241
85.01022
81.03309
72.876152
60.488857
44.521753
26.846858
10.720662
0.16190673
-1.0289015
10.104782
35.553333
76.498229
133.57303
207.05465
296.9145
402.74645
523.6089
657.8352
802.75891
954.29699
1106.6005
1252.1843
1382.9754
1492.1644
1575.8546
1633.5314
1667.4213
1681.4223
1680.072
1667.8002
1648.5063
1625.3922
1600.9184
1576.9178
1554.727
1535.2678
1519.1186
1506.6845
1498.5703
1495.3985
10.343686
21.515178
33.418415
44.560448
54.805548
63.829285
71.285575
76.786856
79.922684
80.301477
77.620444
71.762488
62.950837
52.019206
40.711348
31.70435
28.181527
33.205853
49.280687
78.203818
121.12161
178.66745
251.0722
338.19293
439.45872
553.75791
679.29296
813.38234
952.21525
1090.7113
1222.7513
1342.003
1443.185
1523.1434
1581.1971
1618.7738
1638.7037
1644.4828
1639.6903
1627.6166
1611.0828
1592.3712
1573.2515
1555.0721
1538.813
1525.135
1514.5165
1507.561
1504.8393
9.9405954
20.476327
31.670242
42.129919
51.739941
60.213155
67.259546
72.574998
75.865086
76.886545
75.510223
71.80727
66.17805
59.537906
53.481126
50.249561
52.431293
62.543484
82.71466
114.54241
159.08904
216.94353
288.27773
372.85652
469.9958
578.48196
696.46752
821.34159
949.60197
1076.8384
1197.9925
1307.9982
1402.6584
1479.3699
1537.3814
1577.5852
1602.0458
1613.4716
1614.7641
1608.7016
1597.7597
1584.0283
1569.1942
1554.5866
1541.2123
1529.7897
1520.8526
1514.9872
1512.6934
9.3564774
19.364651
30.008255
39.956235
49.101744
57.191704
63.988106
69.261321
72.815775
74.529104
74.4078
72.660974
69.801433
66.769423
65.017679
66.45916
73.24903
87.495024
111.02065
145.23524
191.09785
249.13243
319.44813
401.73627
495.23681
598.68187
710.22627
827.37293
946.92361
1065.0318
1177.457
1280.0603
1369.4251
1443.36
1501.0941
1543.1582
1571.0666
1586.9345
1593.1293
1592.0069
1585.7417
1576.2383
1565.0919
1553.5959
1542.7635
1533.3523
1525.9435
1521.096
1519.2104
8.9349149
18.485903
28.650014
38.160373
46.922707
54.715522
61.346378
66.648365
70.506135
72.892082
73.91499
73.881534
73.372671
73.32337
75.061749
80.251638
90.729454
108.29398
134.52416
170.6629
217.56473
275.68279
345.06631
425.34875
515.72065
614.8915
721.04847
831.82313
944.29361
1055.0744
1160.5504
1257.2639
1342.365
1413.9706
1471.3163
1514.6884
1545.2057
1564.5396
1574.6426
1577.529
1575.12
1569.1526
1561.1297
1552.3026
1543.6751
1536.0297
1529.9955
1526.1074
1524.6261
8.5490798
17.743404
27.539613
36.720513
45.201012
52.787961
59.328607
64.708511
68.876914
71.879768
73.902022
75.318108
76.748486
79.109362
83.62524
91.772547
105.15277
125.33261
153.69875
191.35417
239.05808
297.19656
365.76575
444.35466
532.12299
627.77691
729.54951
835.19732
942.0351
1047.0434
1147.079
1239.1825
1320.9147
1390.6224
1447.5582
1491.8425
1524.3118
1546.3085
1559.468
1565.5345
1566.2221
1563.1244
1557.6591
1551.0352
1544.2389
1538.0664
1533.2129
1530.2279
1529.1731
8.1797864
17.102046
26.616313
35.549282
43.821562
51.264716
57.75877
63.23096
67.680199
71.207391
74.052434
76.63561
79.599192
83.83712
90.492016
100.90192
116.49745
138.67399
168.67161
207.48136
255.78228
313.90259
381.79446
459.01369
544.70156
637.57085
735.90238
837.56206
940.05584
1040.6444
1136.5324
1225.1188
1304.2582
1372.4659
1429.0138
1473.912
1507.7982
1531.7773
1547.249
1555.7519
1558.8386
1557.9875
1554.5457
1549.6888
1544.386
1539.4367
1535.6169
1533.5682
1533.0776
7.8074571
16.603224
25.940212
34.712379
42.846859
50.199188
56.676405
62.237818
66.919075
70.86059
74.340339
77.808417
81.918019
87.542055
95.761296
107.8156
125.01691
148.64021
179.81967
219.46292
268.18716
326.27538
393.64617
469.83197
553.96382
644.76471
740.55724
839.29422
938.62549
1036.0146
1128.9109
1214.9612
1292.2229
1359.3286
1415.5683
1460.88
1495.7668
1521.1689
1538.3192
1548.6077
1553.4681
1554.2919
1552.3722
1548.8589
1544.7053
1540.6821
1537.614
1536.3936
1536.6787
7.3041519
16.167656
25.42411
34.111299
42.165074
49.465424
55.940173
61.5708
66.417055
70.644395
74.554127
78.613424
83.479715
90.010175
99.245671
112.36609
130.60981
155.17318
187.12009
227.30272
276.29646
334.35344
401.36976
476.86297
559.95875
649.38905
743.50657
840.32369
937.58573
1032.8877
1123.8345
1208.2291
1284.2562
1350.6233
1406.6333
1452.1813
1487.6869
1513.986
1532.2048
1543.6366
1549.6371
1551.5382
1550.5926
1547.936
1544.5155
1541.047
1538.3506
1537.9199
1540.113
6.0814516
15.835439
25.143108
33.822711
41.845799
49.124395
55.600542
61.267914
66.198572
70.570497
74.696745
79.053239
84.30028
91.289871
101.04766
114.71739
133.48977
158.52426
190.85484
231.30681
280.43466
338.47487
405.31205
480.45618
563.03041
651.77152
745.04795
840.9026
937.12915
1031.3883
1121.3623
1204.9312
1280.3422
1346.3405
1402.2363
1447.9043
1483.7237
1510.4797
1529.2464
1541.2703
1547.8634
1550.3271
1549.9021
1547.7274
1544.7603
1541.676
1539.2602
1539.7832
1545.6254
-2227.7589
-2483.6254
-2699.5395
-2881.4843
-3023.968
-3106.2151
-3108.226
-3029.2218
-2857.279
-2664.0037
-3205.3894
-3205.2813
-3198.4359
-3187.449
-3173.3347
-3160.5819
-3148.7461
-3158.2128
-3158.815
-3131.4106
-3183.0316
-3181.9071
-3167.1528
-3150.1896
-3133.2745
-3124.2837
-3105.9911
-3113.2082
-3100.0765
-3046.5504
-3137.8422
-3135.1801
-3126.577
-3117.8812
-3109.0877
-3112.0999
-3101.0043
-3098.9717
-3085.5704
-3048.7085
-3078.1501
-3076.7155
-3072.17
-3066.2526
-3057.7471
-3058.1471
-3057.8128
-3057.1426
-3055.6641
-3059.401
-3030.1694
-3029.377
-3023.6162
-3013.455
-2998.2001
-2968.6377
-2990.8018
-3003.1026
-3009.7483
-3023.0971
-3013.4131
-3015.1072
-3018.3589
-3021.7461
-3032.6628
-3008.5369
-3008.2149
-3004.5876
-2989.6695
-2966.6814
-3027.9234
-3029.5542
-3035.6401
-3044.3365
-3068.3865
-3076.103
-3056.7218
-3030.7043
-3000.8674
-2965.4635
-3848.4528
-3860.7652
-3831.7264
-3787.3168
-3749.757
-3717.6918
-3696.1885
-3682.4623
-3673.5224
-3675.2645
-2986.9818
-2985.7896
-2977.9087
-2960.9537
-2921.5855
-2946.9464
-2958.9512
-2961.1439
-2950.658
-2923.5511
-3009.2484
-3012.3249
-3018.6882
-3037.9315
-3013.9714
-3005.251
-3001.2993
-2993.8837
-2979.8936
-2964.7519
-3048.5069
-3050.9595
-3056.1374
-3080.7266
-3093.4963
-3069.4241
-3042.6921
-3022.4076
-3003.5387
-2987.053
-2999.6597
-2995.831
-2976.9421
-2951.6612
-2974.5982
-2992.0792
-3003.3183
-3010.7381
-3013.0013
-3020.0187
-3033.2653
-3035.7258
-3034.8622
-2997.971
-3007.1044
-3020.7171
-3031.5173
-3038.7504
-3041.7998
-3051.3645
-3156.8903
-3164.6843
-3188.9176
-3187.4468
-3159.5471
-3131.756
-3111.0625
-3095.6697
-3080.2522
-3063.0194
-3141.9782
-3137.1434
-3129.6598
-3149.8309
-3150.4248
-3144.632
-3138.4095
-3132.9745
-3126.9764
-3128.8788
-3162.7557
-3162.035
-3137.7506
-3147.9047
-3159.3504
-3167.4865
-3171.9066
-3173.7103
-3173.0009
-3177.7022
-3277.1164
-3289.5197
-3285.4689
-3271.1277
-3255.8059
-3243.7651
-3235.0335
-3229.2399
-3222.4246
-3213.8642
-3282.489
-3286.5605
-3294.0151
-3285.9372
-3276.2941
-3270.7941
-3270.5589
-3275.0001
-3280.0408
-3292.3432
-3186.325
-3172.215
-3189.5514
-3215.4283
-3244.9016
-3273.5986
-3300.5725
-3325.1453
-3345.2982
-3370.2634
-3326.0532
-3302.434
-3312.0415
-3332.3491
-3359.1125
-3384.3604
-3406.8259
-3425.2572
-3437.7757
-3453.4905
-3701.6749
-3692.6555
-3661.9568
-3627.8857
-3602.8069
-3583.3216
-3571.2315
-3564.0736
-3557.9586
-3555.0926
-3016.6789
-3015.1533
-3009.7383
-2998.12
-2992.634
-2999.8929
-2999.53
-2994.1794
-2984.9472
-2983.9235
-3540.5386
-3549.1354
-3563.5697
-3610.8535
-3667.0291
-3718.8607
-3739.9429
-3721.8038
-3638.1031
-3466.2535
-3268.759
-3268.9939
-3271.9433
-3276.8114
-3277.9222
-3277.0261
-3275.0648
-3269.9201
-3265.7624
-3219.2853
-3179.5263
-3227.5524
-3289.667
-3394.3701
-3505.6955
-3592.5211
-3635.0768
-3595.2075
-3447.0642
-3214.6353
-3480.2774
-3490.321
-3511.2517
-3547.9509
-3581.5992
-3610.2588
-3618.8299
-3618.3251
-3582.547
-3470.1579
-3367.3458
-3371.7358
-3385.9153
-3409.8735
-3430.8344
-3448.4904
-3456.6159
-3446.197
-3433.5793
-3381.8278
11318.722
10715.546
10129.574
9489.9391
8832.8459
8179.539
7545.1802
6936.7836
6347.3439
5770.304
8301.8483
8224.5314
8101.2594
7839.6074
7501.719
7111.2848
6689.6064
6254.5661
5816.3989
5360.0009
-3709.5008
-3727.9364
-3745.3442
-3751.3105
-3759.9992
-3763.2636
-3768.059
-3771.4948
-3772.82
-3776.3117
-3705.852
-3709.7032
-3745.0495
-3776.2802
-3815.3392
-3842.5109
-3866.4372
-3882.4673
-3891.1148
-3895.3026
-3946.5155
-3939.2801
-3955.5089
-3963.086
-3991.4659
-4009.8457
-4029.6726
-4042.6488
-4048.0682
-4043.6183
-4222.4232
-4212.0683
-4226.3371
-4216.9235
-4232.9947
-4234.8766
-4241.3993
-4242.4479
-4238.8758
-4234.5147
-4544.8767
-4526.7371
-4538.4822
-4511.4471
-4515.2328
-4497.386
-4484.9278
-4464.9008
-4437.2333
-4404.8727
-4901.1055
-4873.8833
-4883.4904
-4837.0692
-4828.6372
-4790.1482
-4757.3173
-4713.8953
-4659.2257
-4599.0147
-5281.8496
-5243.3992
-5252.0394
-5185.222
-5165.6719
-5107.5832
-5056.1878
-4992.7188
-4916.4635
-4831.1515
-5682.8602
-5630.7851
-5639.6099
-5550.5887
-5519.7719
-5441.5438
-5370.8775
-5288.4426
-5198.4687
-5115.9182
-6105.0441
-6035.9215
-6045.7706
-5931.7763
-5888.3056
-5787.8968
-5693.5293
-5583.5009
-5458.1877
-5322.5872
-6548.5003
-6458.4125
-6470.8432
-6329.1983
-6271.9441
-6149.0594
-6030.8964
-5896.7843
-5747.1782
-5585.4189
-7019.3414
-6902.2104
-6917.9744
-6744.4917
-6670.3454
-6522.7546
-6376.8532
-6214.6283
-6036.1369
-5850.2663
-7516.4402
-7366.2089
-7388.3263
-7179.8869
-7085.7239
-6911.6634
-6733.8685
-6537.7861
-6319.1649
-6081.8848
-8058.1147
-7863.4477
-7892.3976
-7643.1906
-7522.8892
-7320.2137