/*--------------------------------*- C++ -*----------------------------------*\
| =========                 |                                                 |
| \\      /  F ield         | foam-extend: Open Source CFD                    |
|  \\    /   O peration     | Version:     4.1                                |
|   \\  /    A nd           | Web:         http://www.foam-extend.org         |
|    \\/     M anipulation  |                                                 |
\*---------------------------------------------------------------------------*/
FoamFile
{
    version     2.0;
    format      ascii;
    class       surfaceScalarField;
    location    "2.05";
    object      phi;
}
// * * * * * * * * * * * * * * * * * * * * * * * * * * * * * * * * * * * * * //

dimensions      [0 3 -1 0 0 0 0];

internalField   nonuniform List<scalar> 
8438
(
-0.59744044
0.0016735532
-0.59917929
0.0017388562
-0.60095307
0.0017737751
-0.60277077
0.0018176981
-0.60464215
0.0018713799
-0.60657764
0.0019354972
-0.60858666
0.0020090186
-0.61067682
0.0020901529
-0.61285322
0.0021764021
-0.61511779
0.0022645741
-0.61746857
0.0023507794
-0.61989904
0.0024304656
-0.62239756
0.0024985208
-0.62494702
0.0025494651
-0.62752475
0.0025777278
-0.63010276
0.0025780114
-0.63264835
0.0025455906
-0.63512497
0.002476613
-0.63749319
0.0023682278
-0.63971177
0.0022185778
-0.6417385
0.0020267236
-0.64353105
0.0017925513
-0.6450478
0.0015167545
-0.64624876
0.0012009545
-0.64709677
0.00084801243
-0.64755931
0.0004625454
-0.64761062
5.1308379e-05
-0.64723331
-0.00037730902
-0.6464224
-0.00081091735
-0.64518935
-0.0012330479
-0.64356305
-0.0016262927
-0.64158957
-0.0019734829
-0.63932997
-0.0022595992
-0.6368563
-0.002473674
-0.63424629
-0.0026100038
-0.6315779
-0.0026683908
-0.62892442
-0.0026534841
-0.62635089
-0.0025735324
-0.62391197
-0.0024389139
-0.62165122
-0.0022607572
-0.61960137
-0.002049842
-0.61778553
-0.0018158451
-0.61621862
-0.0015669063
-0.61490908
-0.0013095388
-0.61385998
-0.0010491001
-0.61306953
-0.00079045785
-0.61253402
-0.00053550965
-0.6122586
-0.0002754186
-1.3648042e-05
-0.61123264
0.0031392957
-0.61269177
0.0031979889
-0.61417807
0.0032600696
-0.61570479
0.0033444176
-0.61728438
0.003450974
-0.61892806
0.0035791717
-0.62064566
0.003726622
-0.62244515
0.0038896482
-0.624332
0.0040632436
-0.62630845
0.0042410237
-0.62837286
0.0044151937
-0.630519
0.0045766042
-0.63273543
0.0047149494
-0.63500511
0.0048191494
-0.6373053
0.0048779163
-0.63960779
0.0048805022
-0.64187953
0.0048173328
-0.64408355
0.0046806264
-0.64617998
0.0044646571
-0.64812712
0.0041657245
-0.64988237
0.0037819713
-0.65140298
0.0033131659
-0.65264687
0.0027606422
-0.65357345
0.0021275329
-0.65414483
0.0014193875
-0.65432746
0.000645178
-0.65409464
-0.00018150542
-0.65343054
-0.001041411
-0.65233202
-0.0019094398
-0.65081
-0.0027550638
-0.64889255
-0.0035437452
-0.6466254
-0.0042406321
-0.64406997
-0.0048150368
-0.6412991
-0.0052445348
-0.63839158
-0.0055175246
-0.63542626
-0.0056337099
-0.63247706
-0.0056026874
-0.62960927
-0.0054413276
-0.62687745
-0.0051707286
-0.62432482
-0.0048133914
-0.62198367
-0.0043909937
-0.61987663
-0.0039228845
-0.61801828
-0.0034252544
-0.61641682
-0.0029109976
-0.61507556
-0.0023903564
-0.61399476
-0.0018712624
-0.6131739
-0.0013563653
-0.61260473
-0.00084459531
-0.00037357404
-0.61227816
0.0045549023
-0.61369205
0.0046118699
-0.61513077
0.0046987891
-0.61660928
0.0048229325
-0.61814089
0.0049825834
-0.6197374
0.0051756794
-0.62140914
0.0053983626
-0.62316457
0.0056450848
-0.62500972
0.0059083899
-0.62694746
0.0061787615
-0.62897679
0.0064445293
-0.63109211
0.0066919222
-0.63328251
0.006905343
-0.63553129
0.0070679384
-0.63781585
0.0071624723
-0.64010785
0.0071725028
-0.64237393
0.0070834072
-0.64457666
0.0068833637
-0.64667576
0.0065637561
-0.64862912
0.0061190834
-0.65039376
0.0055466086
-0.65192654
0.0048459442
-0.65318479
0.0040188966
-0.65412704
0.0030697861
-0.65471404
0.0020063872
-0.65491038
0.00084151774
-0.65468692
-0.00040497007
-0.65402359
-0.0017047445
-0.65291293
-0.003020092
-0.65136391
-0.0043040914
-0.64940441
-0.0055032458
-0.64708189
-0.0065631503
-0.64446119
-0.0074357365
-0.64161972
-0.0080860037
-0.63864107
-0.0084961737
-0.63560841
-0.0086663692
-0.6325989
-0.0086121943
-0.62967981
-0.0083604205
-0.62690645
-0.007944088
-0.62432178
-0.0073980595
-0.62195718
-0.0067555927
-0.61983398
-0.0060460887
-0.6179653
-0.0052939345
-0.61635794
-0.0045183526
-0.61501429
-0.003734008
-0.6139345
-0.0029510586
-0.61311683
-0.0021740355
-0.61255277
-0.0014086507
-0.00068139502
-0.61263502
0.0059411249
-0.61402853
0.0060053832
-0.61544753
0.0061177859
-0.61690696
0.0062823662
-0.6184206
0.0064962226
-0.62000096
0.0067560318
-0.62165913
0.0070565345
-0.62340443
0.0073903842
-0.62524378
0.0077477443
-0.62718102
0.0081160031
-0.62921608
0.0084795871
-0.63134414
0.0088199792
-0.63355484
0.0091160464
-0.63583169
0.0093447903
-0.63815178
0.0094825619
-0.64048603
0.0095067472
-0.64279991
0.0093972881
-0.64505465
0.00913811
-0.64720858
0.0087176841
-0.64921832
0.0081288182
-0.65103973
0.0073680248
-0.65262858
0.006434793
-0.65394093
0.0053312407
-0.65493361
0.0040624734
-0.65556509
0.0026378626
-0.65579688
0.0010733089
-0.65559602
-0.00060583105
-0.65493838
-0.0023623792
-0.65381281
-0.0041456625
-0.65222569
-0.0058912155
-0.6502046
-0.007524333
-0.64779962
-0.0089681319
-0.64508098
-0.010154375
-0.64213332
-0.011033664
-0.63904787
-0.011581621
-0.63591457
-0.011799671
-0.6328156
-0.011711165
-0.62982119
-0.011354835
-0.62698769
-0.010777588
-0.62435757
-0.010028174
-0.62196071
-0.0091524568
-0.61981635
-0.0081904482
-0.61793537
-0.0071749111
-0.61632247
-0.006131255
-0.61497832
-0.00507816
-0.61390148
-0.0040278972
-0.61308836
-0.0029871594
-0.61253356
-0.0019634518
-0.00097000048
-0.61305953
0.0073002968
-0.61442981
0.0073756717
-0.61582655
0.0075145194
-0.61726487
0.0077206904
-0.61875905
0.0079903982
-0.62032236
0.0083193483
-0.62196688
0.0087010466
-0.62370298
0.0091264922
-0.62553883
0.0095835868
-0.62747951
0.010056689
-0.62952623
0.010526298
-0.63167524
0.010968991
-0.63391696
0.011357767
-0.63623513
0.011662967
-0.63860644
0.011853865
-0.64100067
0.011900985
-0.64338167
0.011778281
-0.6457087
0.011465144
-0.64793817
0.010947153
-0.650025
0.010215649
-0.65192363
0.0092666578
-0.6535885
0.0080996596
-0.65497417
0.0067169116
-0.65603547
0.0051237686
-0.65672792
0.0033303117
-0.657009
0.0013543976
-0.65684061
-0.0007742221
-0.65619285
-0.0030101424
-0.65504895
-0.0052895588
-0.65341127
-0.0075289043
-0.65130655
-0.0096290446
-0.64878841
-0.011486275
-0.6459348
-0.01300799
-0.64284078
-0.014127682
-0.63960858
-0.01481382
-0.6363377
-0.015070546
-0.63311726
-0.014931608
-0.63002137
-0.014450721
-0.62710755
-0.013691411
-0.6244173
-0.012718424
-0.62197816
-0.011591595
-0.61980638
-0.010362232
-0.61790967
-0.0090716243
-0.61628982
-0.0077511018
-0.61494508
-0.0064229003
-0.61387185
-0.0051011303
-0.61306518
-0.0037938244
-0.61252118
-0.0025074567
-0.001246376
-0.61359673
0.0086272318
-0.61493736
0.0087162993
-0.61630579
0.0088829524
-0.61771734
0.0091322369
-0.61918683
0.0094598935
-0.62072846
0.0098609795
-0.62235543
0.010328009
-0.62407948
0.010850547
-0.62591032
0.011414421
-0.6278547
0.012001078
-0.62991549
0.012587089
-0.63209046
0.013143952
-0.63437108
0.013638389
-0.63674151
0.014033399
-0.63917792
0.014290274
-0.64164864
0.01437171
-0.64411526
0.014244893
-0.64653442
0.013884305
-0.64885998
0.013272713
-0.65104472
0.012400392
-0.65304139
0.01126333
-0.65480298
0.0098612438
-0.65628242
0.0081963589
-0.65743224
0.0062735839
-0.65820442
0.0041024904
-0.65855131
0.0017012928
-0.65842804
-0.00089749128
-0.65779687
-0.0036413191
-0.65663306
-0.0064533637
-0.65493287
-0.0092290991
-0.6527213
-0.011840612
-0.65005642
-0.014151161
-0.64702678
-0.01603763
-0.64374197
-0.01741249
-0.64031938
-0.018236411
-0.63687145
-0.018518475
-0.63349633
-0.018306723
-0.63027291
-0.017674144
-0.62725968
-0.016704637
-0.6244964
-0.015481709
-0.62200713
-0.014080865
-0.61980387
-0.012565494
-0.61788999
-0.010985499
-0.61626333
-0.0093777638
-0.6149187
-0.0077675329
-0.61384965
-0.0061701811
-0.61304957
-0.0045939019
-0.61251419
-0.0030428331
-0.0015156193
-0.61424975
0.0099181882
-0.61555478
0.010021327
-0.61688851
0.010216686
-0.61826696
0.010510689
-0.61970575
0.010898685
-0.62122013
0.011375358
-0.62282464
0.011932521
-0.6245327
0.012558599
-0.62635589
0.013237613
-0.6283031
0.013948294
-0.63037935
0.014663336
-0.63258438
0.015348985
-0.6349112
0.015965207
-0.6373446
0.016466798
-0.63986019
0.016805861
-0.6424244
0.016935922
-0.64499582
0.01681631
-0.64752761
0.016416101
-0.64997035
0.015715447
-0.65227418
0.014704224
-0.65438999
0.013379142
-0.65626936
0.011740616
-0.65786372
0.0097907215
-0.65912321
0.0075330645
-0.6599958
0.0049750896
-0.66042767
0.0021331565
-0.66036531
-0.00095984881
-0.65976054
-0.0042460888
-0.65857752
-0.0076363804
-0.65680338
-0.01100324
-0.65445972
-0.014184276
-0.65160995
-0.017000931
-0.64835693
-0.019290647
-0.64483014
-0.020939286
-0.6411675
-0.02189905
-0.63749854
-0.022187432
-0.63393282
-0.02187244
-0.63055468
-0.021052287
-0.6274231
-0.019836215
-0.62457485
-0.018329959
-0.62202905
-0.01662667
-0.61979195
-0.014802586
-0.61786131
-0.012916148
-0.61622985
-0.011009221
-0.61488808
-0.0091093042
-0.61382607
-0.0072321931
-0.61303484
-0.0053851248
-0.61250836
-0.0035693114
-0.0017790334
-0.61501302
0.011164726
-0.6162752
0.011283504
-0.61756745
0.011508934
-0.6189062
0.01184944
-0.62030791
0.012300402
-0.62178903
0.012856477
-0.62336566
0.013509146
-0.62505314
0.01424608
-0.62686539
0.015049867
-0.62881392
0.015896816
-0.63090646
0.016755876
-0.63314538
0.017587909
-0.63552576
0.018345591
-0.63803343
0.018974461
-0.6406434
0.019415833
-0.64331969
0.019612213
-0.64601692
0.019513537
-0.64868363
0.019082817
-0.65126615
0.018297964
-0.65371148
0.017149551
-0.65596857
0.015636233
-0.65798787
0.013759919
-0.65971969
0.01152254
-0.66111201
0.0089253805
-0.66210858
0.0059716664
-0.66264834
0.0026729099
-0.66266711
-0.00094107032
-0.66210312
-0.0048100792
-0.66090526
-0.0088342458
-0.65904715
-0.012861347
-0.65654414
-0.016687284
-0.65346576
-0.02007931
-0.64993404
-0.022822372
-0.64610561
-0.024767716
-0.64214609
-0.025858569
-0.63820724
-0.026126284
-0.63441259
-0.025667085
-0.6308523
-0.024612584
-0.62758468
-0.023103827
-0.62464166
-0.021272985
-0.62203532
-0.019233007
-0.61976432
-0.017073584
-0.61781917
-0.0148613
-0.61618631
-0.012642085
-0.61485101
-0.010444599
-0.6137993
-0.0082838998
-0.6130193
-0.0061651304
-0.61250256
-0.0040860448
-0.002036798
-0.61588763
0.012363444
-0.61710097
0.012496845
-0.61834485
0.012752809
-0.61963681
0.013141403
-0.62099436
0.013657958
-0.6224353
0.014297409
-0.62397747
0.015051322
-0.62563849
0.015907103
-0.62743504
0.016846411
-0.62938179
0.017843569
-0.63148996
0.018864043
-0.6337653
0.019863255
-0.63620577
0.020786053
-0.63879876
0.021567457
-0.64151884
0.022135909
-0.64432695
0.022420326
-0.64717248
0.022359061
-0.64999781
0.021908148
-0.65274376
0.021043922
-0.65535362
0.019759402
-0.65777449
0.018057104
-0.6599563
0.015941732
-0.66184904
0.013415279
-0.66339921
0.010475553
-0.66454644
0.0071188991
-0.66522154
0.0033480077
-0.66534742
-0.00081519264
-0.66484477
-0.0053127298
-0.6636417
-0.010037319
-0.66169199
-0.014811053
-0.65899997
-0.019379301
-0.65564159
-0.023437691
-0.65176465
-0.026699314
-0.64756318
-0.028969185
-0.64324015
-0.030181601
-0.63897606
-0.03039038
-0.63491116
-0.029731978
-0.63114116
-0.028382586
-0.6277217
-0.02652329
-0.62467707
-0.024317614
-0.62200963
-0.021900446
-0.61970807
-0.019375148
-0.61775382
-0.016815551
-0.61612566
-0.014270246
-0.61480272
-0.01176753
-0.61376636
-0.0093202631
-0.61300126
-0.0069302319
-0.61249631
-0.0045909969
-0.0022881551
-0.61686696
0.013502422
-0.61802273
0.01365262
-0.61921048
0.013940558
-0.620448
0.014378926
-0.62175373
0.014963687
-0.62314685
0.015690527
-0.62464717
0.016551637
-0.62627484
0.017534782
-0.62804979
0.018621357
-0.62999055
0.019784331
-0.63211264
0.020986128
-0.63442621
0.022176829
-0.63693313
0.023292967
-0.63962327
0.024257597
-0.64247095
0.024983591
-0.64543331
0.025382689
-0.64845272
0.025378466
-0.65146324
0.024918668
-0.65439848
0.023979167
-0.65719725
0.022558173
-0.65980518
0.020665029
-0.6621727
0.01830926
-0.66425089
0.015493463
-0.66598605
0.012210712
-0.66731431
0.0084471641
-0.66815778
0.004191473
-0.6684241
-0.00054887373
-0.6680117
-0.0057251258
-0.66682075
-0.011228269
-0.66477605
-0.016855758
-0.661863
-0.022292352
-0.65816324
-0.027137448
-0.65385952
-0.031003031
-0.64919799
-0.033630715
-0.6444323
-0.034947288
-0.63977993
-0.03504275
-0.63540052
-0.034111391
-0.63139396
-0.03238915
-0.62780978
-0.030107464
-0.62466073
-0.027466668
-0.6219358
-0.024625376
-0.61961083
-0.021700112
-0.61765612
-0.018770266
-0.61604136
-0.015885007
-0.61473866
-0.013070228
-0.61372415
-0.010334774
-0.61297875
-0.007675633
-0.61248854
-0.0050812053
-0.0025317432
-0.61794999
0.014580945
-0.6190427
0.014745328
-0.62016708
0.015064943
-0.62134238
0.015554218
-0.62258813
0.016209445
-0.62392503
0.017027422
-0.62537496
0.018001565
-0.62696093
0.019120758
-0.62870659
0.020367011
-0.63063507
0.021712813
-0.6327672
0.023118258
-0.6351188
0.024528426
-0.63769704
0.025871211
-0.64049561
0.027056163
-0.64348917
0.02797715
-0.64663016
0.028523687
-0.64985153
0.028599835
-0.65307597
0.028143102
-0.65622749
0.027130691
-0.65923962
0.025570303
-0.6620572
0.023482611
-0.66463293
0.020884983
-0.66692106
0.017781599
-0.66886987
0.014159517
-0.67041338
0.0099906733
-0.67146477
0.0052428719
-0.6719144
-9.9251769e-05
-0.67163255
-0.0060069759
-0.67048228
-0.012378539
-0.6683464
-0.018991633
-0.6651784
-0.025460351
-0.66106264
-0.03125321
-0.65622978
-0.03583589
-0.65099994
-0.038860557
-0.6456962
-0.040251023
-0.64058341
-0.040155547
-0.63584262
-0.038852173
-0.63157474
-0.036657032
-0.62781775
-0.033864456
-0.62456722
-0.030717192
-0.62179414
-0.027398464
-0.61945803
-0.024036219
-0.6175157
-0.020712594
-0.61592635
-0.017474358
-0.61465426
-0.014342322
-0.61366992
-0.011319109
-0.61295032
-0.0083952371
-0.61247874
-0.005552781
-0.0027656862
-0.61913342
0.015582069
-0.6201522
0.015764107
-0.62120415
0.016116886
-0.62230813
0.016658203
-0.62348446
0.017385773
-0.6247552
0.018298164
-0.62614442
0.01939078
-0.62767823
0.020654576
-0.62938453
0.022073303
-0.63129189
0.023620182
-0.6334277
0.02525406
-0.63581499
0.026915721
-0.63846822
0.02852444
-0.64138684
0.029974787
-0.64454706
0.031137369
-0.6478957
0.031872319
-0.65135285
0.032056986
-0.65482531
0.031615563
-0.658224
0.030529389
-0.66147603
0.02882233
-0.66452662
0.026533194
-0.66733318
0.023691547
-0.66985628
0.020304699
-0.67204932
0.016352556
-0.67384686
0.011788212
-0.67515374
0.0065497494
-0.67583972
0.00058673603
-0.6757421
-0.0061045945
-0.67467693
-0.013443711
-0.6724656
-0.021202969
-0.66900823
-0.028917722
-0.66438415
-0.035877284
-0.65889057
-0.041329471
-0.65295508
-0.044796045
-0.64699687
-0.04620924
-0.64134098
-0.045811432
-0.63619038
-0.044002775
-0.63164062
-0.041206788
-0.62770974
-0.037795342
-0.62436842
-0.03405851
-0.62156367
-0.030203211
-0.6192347
-0.026365186
-0.61732238
-0.022624923
-0.61577404
-0.019022693
-0.61454554
-0.015570822
-0.61360156
-0.012263095
-0.61291513
-0.0090816634
-0.61246693
-0.0060009797
-0.0029876665
-0.6204071
0.016509537
-0.62134756
0.016704565
-0.62231976
0.017089095
-0.62334419
0.017682627
-0.62444207
0.018483652
-0.62563684
0.019492935
-0.62695474
0.020708679
-0.62842519
0.022125027
-0.63008077
0.023728884
-0.63195641
0.025495826
-0.63408739
0.027385034
-0.63650589
0.02933422
-0.63923607
0.031254628
-0.64228608
0.033024788
-0.64563569
0.034486988
-0.64922522
0.03546184
-0.65295706
0.035788827
-0.65671536
0.035373862
-0.66039281
0.034206848
-0.66390883
0.03233834
-0.66721125
0.029835618
-0.67026626
0.026746559
-0.67304524
0.023083681
-0.67551155
0.01881886
-0.67760459
0.013881251
-0.67922291
0.0081680735
-0.68021418
0.0015780024
-0.68037589
-0.005942885
-0.67946349
-0.014356104
-0.67721207
-0.023454396
-0.67343381
-0.032695974
-0.66818553
-0.041125565
-0.6618578
-0.047657201
-0.65503903
-0.05161482
-0.64828274
-0.052965528
-0.64198969
-0.052104483
-0.6363815
-0.049610963
-0.63153702
-0.046051269
-0.62744163
-0.041890731
-0.62403069
-0.037469452
-0.62121991
-0.033013993
-0.61892367
-0.028661428
-0.61706446
-0.024484134
-0.61557672
-0.020510424
-0.61440759
-0.016739959
-0.61351602
-0.013154666
-0.6128714
-0.0097262773
-0.61245211
-0.006420271
-0.0031949779
-0.62177478
0.017340358
-0.62262372
0.017553505
-0.62350577
0.017971153
-0.62444003
0.018616881
-0.62544788
0.019491507
-0.62655379
0.020598838
-0.627786
0.021940891
-0.6291773
0.023516331
-0.63076539
0.025316973
-0.63259247
0.027322909
-0.63470337
0.029495927
-0.63714178
0.031772637
-0.6399449
0.034057749
-0.64313387
0.036213753
-0.64669606
0.038049181
-0.65056505
0.03933083
-0.65461895
0.039842724
-0.65870921
0.039464121
-0.66270269
0.038200332
-0.66650942
0.036145068
-0.67008342
0.033409619
-0.67340507
0.030068211
-0.67646207
0.026140675
-0.67923362
0.021590415
-0.68167024
0.016317865
-0.68366821
0.010166053
-0.68505238
0.0029621643
-0.68557398
-0.0054212775
-0.68491431
-0.015015781
-0.68268963
-0.025679068
-0.67856899
-0.036816617
-0.67254907
-0.047145487
-0.66515201
-0.055054258
-0.65721551
-0.059551318
-0.64948255
-0.060698489
-0.64244689
-0.059140147
-0.63633821
-0.055719647
-0.63119908
-0.051190397
-0.62696361
-0.046126202
-0.62351802
-0.040915036
-0.62073808
-0.035793941
-0.61850862
-0.030890887
-0.6167317
-0.026261048
-0.61532832
-0.021913806
-0.61423708
-0.017831196
-0.61341178
-0.013979966
-0.61281874
-0.010319315
-0.61243456
-0.0068044512
-0.0033845924
-0.6232031
0.018083507
-0.62395741
0.018307822
-0.62474202
0.018755761
-0.6255774
0.019452265
-0.62648531
0.020399416
-0.62749101
0.021604536
-0.62862459
0.023074472
-0.62992217
0.024813909
-0.63142685
0.026821653
-0.63318902
0.029085079
-0.63526484
0.031571749
-0.63771231
0.034220101
-0.64058558
0.03693102
-0.64392474
0.039552914
-0.64773127
0.041855715
-0.65193288
0.043532437
-0.65637335
0.044283199
-0.66085524
0.043946009
-0.66520718
0.042552272
-0.6693273
0.040265182
-0.67318183
0.037264154
-0.67677399
0.033660369
-0.68011574
0.029482428
-0.68321107
0.024685741
-0.68603236
0.019139155
-0.68848223
0.012615924
-0.69036396
0.0048438993
-0.69137639
-0.0044088506
-0.69111305
-0.015279126
-0.68903173
-0.027760384
-0.68457155
-0.041276801
-0.67759112
-0.054125913
-0.6687955
-0.063849878
-0.65942572
-0.068921095
-0.65049282
-0.069631395
-0.64260016
-0.067032808
-0.63596042
-0.062359381
-0.63054757
-0.056603253
-0.62621769
-0.05045608
-0.62279037
-0.044342357
-0.62009171
-0.038492595
-0.6179727
-0.033009901
-0.6163137
-0.027920044
-0.61502257
-0.023204937
-0.61403036
-0.01882341
-0.61328674
-0.014723581
-0.61275596
-0.010850098
-0.6124136
-0.0071468063
-0.0035532469
-0.62472694
0.018710132
-0.62537213
0.018953012
-0.62604882
0.019432449
-0.62677457
0.02017801
-0.62757015
0.021194996
-0.62846084
0.022495233
-0.62947796
0.024091589
-0.63066048
0.025996431
-0.63205678
0.028217954
-0.633726
0.03075429
-0.6357374
0.033583154
-0.63816643
0.036649129
-0.64108901
0.039853602
-0.64457239
0.04303629
-0.64864361
0.045926936
-0.6532293
0.048118126
-0.65812584
0.049179738
-0.66306268
0.048882854
-0.6678126
0.047302188
-0.67226028
0.044712865
-0.67639613
0.041400002
-0.68025985
0.037524088
-0.68389688
0.033119461
-0.68734455
0.028133414
-0.69060959
0.02240419
-0.69361168
0.015618016
-0.69613399
0.0073662142
-0.69781653
-0.0027263133
-0.69815468
-0.014940979
-0.6964108
-0.029504261
-0.69166663
-0.046020972
-0.68348563
-0.062306908
-0.67281358
-0.074521933
-0.66157729
-0.080157385
-0.65116512
-0.08004356
-0.64229923
-0.075898706
-0.63512298
-0.069535622
-0.62948972
-0.062236515
-0.62514044
-0.054805361
-0.62180693
-0.047675871
-0.61925589
-0.04104363
-0.61730138
-0.034964415
-0.61580237
-0.029419054
-0.6146552
-0.024352109
-0.61378527
-0.019693335
-0.61313991
-0.015368945
-0.61268265
-0.011307361
-0.61238911
-0.0074403404
-0.0036975594
-0.62625575
0.019233964
-0.62678957
0.019486831
-0.6273505
0.019993379
-0.62795663
0.020784138
-0.6286278
0.021866168
-0.62938887
0.023256303
-0.63027187
0.024974583
-0.63131828
0.027042841
-0.63258168
0.029481352
-0.63413059
0.032303206
-0.63604965
0.03550221
-0.63843581
0.03903529
-0.64139261
0.0428104
-0.64502507
0.046668754
-0.64940447
0.050306335
-0.65446832
0.053181972
-0.65994632
0.054657738
-0.66545359
0.05439013
-0.67067613
0.052524726
-0.67548
0.049516732
-0.67989678
0.045816779
-0.68402062
0.041647936
-0.6879387
0.037037537
-0.69172959
0.031924301
-0.6954552
0.026129801
-0.6990778
0.019240616
-0.70237471
0.010663126
-0.70493052
-0.00017050411
-0.70613767
-0.013733833
-0.70504011
-0.030601817
-0.70017661
-0.050884471
-0.69050281
-0.071980711
-0.67723143
-0.087793308
-0.66352221
-0.09386661
-0.65128391
-0.092281855
-0.64134301
-0.085839606
-0.63367109
-0.077207549
-0.62791968
-0.067987921
-0.62366546
-0.059059577
-0.62052899
-0.050812348
-0.61820962
-0.043362999
-0.61648421
-0.036689826
-0.61519312
-0.030710138
-0.61422464
-0.025320592
-0.61350167
-0.020416308
-0.61297165
-0.015898957
-0.6125993
-0.011679713
-0.61236157
-0.0076780754
-0.0038141774
-0.62788232
0.019620828
-0.62829037
0.019894883
-0.62872674
0.020429746
-0.62920448
0.021261882
-0.62974075
0.022402441
-0.63035879
0.023874336
-0.63109013
0.025705931
-0.63197749
0.027930192
-0.63307822
0.030582083
-0.63446922
0.033694206
-0.63625107
0.037284064
-0.63854562
0.04132984
-0.64148919
0.045753967
-0.64523557
0.050415141
-0.64992842
0.054999183
-0.65554382
0.058797372
-0.66172013
0.060834051
-0.66789164
0.06056164
-0.67361237
0.058245452
-0.67872778
0.054632142
-0.68334887
0.050437868
-0.68766181
0.045960873
-0.69181165
0.041187384
-0.69592754
0.036040189
-0.70015811
0.030360368
-0.70454447
0.023626975
-0.7088699
0.014988554
-0.71262565
0.003585249
-0.71509992
-0.01125956
-0.71514607
-0.030555664
-0.7105427
-0.05548784
-0.69906497
-0.083458448
-0.68205632
-0.10480196
-0.66501593
-0.110907
-0.65053154
-0.10676624
-0.63946198
-0.096909163
-0.63141566
-0.085253872
-0.62572015
-0.073683426
-0.62172684
-0.063052894
-0.61892295
-0.053616234
-0.61693777
-0.045348177
-0.6155157
-0.038111896
-0.61448494
-0.031740899
-0.61373154
-0.026073998
-0.61318045
-0.020967393
-0.61278258
-0.016296828
-0.61250607
-0.011956219
-0.61233073
-0.0078534196
-0.0038999567
-0.62933597
0.019882707
-0.62961491
0.020173817
-0.6299171
0.020731942
-0.63025352
0.021598294
-0.63063795
0.022786875
-0.6310908
0.024327181
-0.63164168
0.026256811
-0.63233296
0.028621476
-0.63322442
0.031473543
-0.63440038
0.034870166
-0.63597876
0.038862446
-0.63811246
0.043463535
-0.64097953
0.048621038
-0.64479587
0.054231485
-0.64982096
0.060024272
-0.65613232
0.065108726
-0.66324986
0.06795159
-0.67030962
0.067621404
-0.67665922
0.064595055
-0.6821142
0.060087122
-0.68692667
0.055250334
-0.69142572
0.050459922
-0.6958168
0.045578472
-0.70025359
0.040476971
-0.70499406
0.03510084
-0.71020147
0.028834385
-0.71569658
0.020483662
-0.72088198
0.0087706506
-0.72496916
-0.0071723801
-0.72679972
-0.028725105
-0.72323185
-0.059055705
-0.70979739
-0.096892907
-0.68723409
-0.12736526
-0.66565425
-0.13248685
-0.64844079
-0.1239797
-0.63630036
-0.10904959
-0.62813509
-0.093419143
-0.62277144
-0.079047078
-0.61926875
-0.066555583
-0.61696816
-0.055916827
-0.61543681
-0.04687952
-0.61439936
-0.039149351
-0.61368323
-0.032457024
-0.61318089
-0.026576339
-0.61282538
-0.021322902
-0.61257507
-0.016547138
-0.61240418
-0.012127108
-0.61229701
-0.0079605951
-0.0039521658
-0.63049027
0.01998137
-0.63061982
0.020303366
-0.63077082
0.020882942
-0.63094762
0.021775098
-0.63115924
0.022998495
-0.63142223
0.024590166
-0.63176303
0.026597611
-0.63222202
0.029080469
-0.63285904
0.032110567
-0.63376248
0.035773599
-0.63506441
0.040164383
-0.63695058
0.045349706
-0.63964597
0.051316428
-0.64343017
0.058015679
-0.64872251
0.065316612
-0.65582174
0.072207956
-0.66410928
0.076239129
-0.67220489
0.075717014
-0.67914519
0.07153536
-0.68470216
0.065644087
-0.68939227
0.059940449
-0.6937779
0.054845547
-0.69813756
0.049938136
-0.70260017
0.044939585
-0.70761202
0.040112681
-0.71359371
0.034816078
-0.72050259
0.027392548
-0.72773212
0.016000179
-0.73427939
-0.00062511629
-0.73920326
-0.023801231
-0.73833186
-0.059927107
-0.72349559
-0.11172917
-0.69248319
-0.15837766
-0.66469656
-0.16027347
-0.64430095
-0.14437531
-0.6313913
-0.12195924
-0.62358302
-0.10122743
-0.61896663
-0.08366347
-0.6162585
-0.069263706
-0.61466562
-0.057509705
-0.61371995
-0.047825189
-0.61315047
-0.039718836
-0.61280129
-0.032806204
-0.61258279
-0.026794839
-0.61244339
-0.021462301
-0.61235344
-0.016637088
-0.61229599
-0.012184559
-0.61226149
-0.0079950991
-0.0039687027
-0.63007847
0.019880164
-0.63002793
0.020252827
-0.62999531
0.020850317
-0.62997624
0.021756028
-0.62997275
0.02299501
-0.62999478
0.024612196
-0.63006161
0.026664445
-0.6302062
0.029225052
-0.63048151
0.032385883
-0.63097111
0.036263194
-0.63181141
0.041004681
-0.63321966
0.046757958
-0.63548195
0.053578716
-0.63894664
0.061480372
-0.64423989
0.070609859
-0.65213527
0.080103333
-0.66194774
0.086051607
-0.6713499
0.085119165
-0.67893515
0.079120619
-0.68436563
0.071074567
-0.68865617
0.064230981
-0.69275103
0.058940412
-0.6970513
0.054238408
-0.70151399
0.049402267
-0.70683808
0.045436778
-0.71385884
0.04183683
-0.7225961
0.036129817
-0.73261914
0.026023214
-0.74190455
0.0086602982
-0.75052997
-0.01517581
-0.75421884
-0.056238245
-0.74047677
-0.12547124
-0.69642064
-0.2024338
-0.66055577
-0.19613834
-0.637035
-0.16789608
-0.62415364
-0.1348406
-0.61751701
-0.10786406
-0.61423903
-0.086941442
-0.61270459
-0.070798147
-0.61204776
-0.05816654
-0.61182143
-0.04805152
-0.61179737
-0.039742889
-0.61186
-0.032743577
-0.61195141
-0.026703429
-0.61204331
-0.0213704
-0.61212256
-0.016557841
-0.61218362
-0.012123503
-0.61222455
-0.0079541608
-0.0039483067
-0.62618378
0.019548766
-0.62589611
0.019965161
-0.62560429
0.020558497
-0.62530174
0.021453471
-0.62498314
0.022676418
-0.6246498
0.02427885
-0.62431056
0.026325206
-0.62398677
0.02890126
-0.62371998
0.032119098
-0.62358362
0.03612683
-0.62371018
0.041131248
-0.62434505
0.047392826
-0.62585804
0.055091707
-0.6286664
0.064288732
-0.63355932
0.075502773
-0.64216239
0.088706404
-0.65403764
0.09792686
-0.66487395
0.095955473
-0.67275719
0.087003863
-0.6770709
0.075388275
-0.67991047
0.067070552
-0.68282201
0.06185195
-0.68642891
0.057845308
-0.69004515
0.053018503
-0.69450599
0.049897625
-0.70161404
0.048944875
-0.71115689
0.045672671
-0.72409859
0.038964911
-0.73556633
0.020128036
-0.74986075
-0.00088138693
-0.76244948
-0.043649518
-0.75916577
-0.12875494
-0.69459066
-0.26700891
-0.65073437
-0.23999464
-0.62530399
-0.19332646
-0.61396272
-0.14618187
-0.60976316
-0.11206362
-0.60860983
-0.088094768
-0.60868416
-0.070723818
-0.60919204
-0.057658658
-0.60980281
-0.047440752
-0.61038442
-0.039161285
-0.6108895
-0.032238489
-0.61130626
-0.026286672
-0.61163706
-0.021039603
-0.61188908
-0.016305818
-0.61207022
-0.011942367
-0.61218723
-0.0078371434
-0.0038907408
-0.61276645
0.0187296
-0.61203618
0.019234893
-0.61128973
0.019812047
-0.61050024
0.020663975
-0.60964998
0.021826164
-0.60872691
0.02335578
-0.60772272
0.025321019
-0.60663679
0.027815321
-0.60548359
0.030965905
-0.60430257
0.034945803
-0.60318056
0.040009245
-0.60232601
0.046538276
-0.60215344
0.054919139
-0.60313625
0.06527154
-0.6060127
0.078379218
-0.61372654
0.096420243
-0.62752719
0.11172751
-0.63868989
0.10711818
-0.6454564
0.09377037
-0.64634408
0.076275956
-0.64573636
0.066462831
-0.64567328
0.061788869
-0.64728024
0.059452271
-0.6483118
0.054050065
-0.64944504
0.05103086
-0.65616989
0.055669731
-0.66607514
0.055577916
-0.68384062
0.056730394
-0.69888826
0.035175674
-0.72786023
0.028090584
-0.75027202
-0.02123773
-0.77323458
-0.10579238
-0.67715866
-0.36308483
-0.63076773
-0.28638557
-0.60622335
-0.21787083
-0.59992087
-0.15248435
-0.6002662
-0.11171829
-0.60224903
-0.086111937
-0.60437342
-0.068599426
-0.60623188
-0.055800201
-0.60775545
-0.045917176
-0.60897156
-0.037945178
-0.60992819
-0.031281857
-0.61067129
-0.02554357
-0.611239
-0.020471898
-0.61166107
-0.015883746
-0.61195982
-0.011643623
-0.61215113
-0.0076458311
-0.0037969186
-0.5847796
0.017486149
-0.58351021
0.017965503
-0.58214158
0.018443411
-0.58066947
0.019191867
-0.57906766
0.020224361
-0.57730529
0.021593406
-0.57534572
0.023361448
-0.5731491
0.025618705
-0.57067786
0.028494658
-0.56790479
0.03217274
-0.56482862
0.036933071
-0.56155662
0.043266275
-0.5585328
0.051895316
-0.55652776
0.063266498
-0.55614875
0.078000211
-0.56153158
0.10180307
-0.58049244
0.13068838
-0.59265624
0.11928198
-0.59890969
0.10002381
-0.59405221
0.071418478
-0.58776381
0.060174438
-0.58244276
0.056467814
-0.58157555
0.058585063
-0.57952822
0.052002736
-0.57387623
0.045378866
-0.58519467
0.032529483
-0.59561965
0.037438942
-0.60467979
0.040313201
-0.60342486
0.020480291
-0.63525092
0.039878381
-0.71434572
0.019774527
-0.66918688
-0.054713836
-0.60685833
-0.22710715
-0.57379935
-0.31944454
-0.57150802
-0.22016216
-0.58113688
-0.1428555
-0.58945237
-0.1034028
-0.59561862
-0.079945683
-0.60008654
-0.064131513
-0.60336088
-0.052525859
-0.60579623
-0.043481821
-0.60762935
-0.036112065
-0.60901858
-0.029892623
-0.61007177
-0.024490381
-0.61086356
-0.01968011
-0.61144608
-0.015301223
-0.61185565
-0.011234049
-0.61211694
-0.0073845458
-0.0036689529
-0.52686993
0.015076163
-0.5243732
0.015468769
-0.52172087
0.015791083
-0.51887074
0.016341731
-0.51576853
0.017122151
-0.51234643
0.018171312
-0.50851877
0.019533788
-0.50418041
0.021280339
-0.49920711
0.023521365
-0.49346097
0.026426602
-0.48679889
0.030270991
-0.47911635
0.035583733
-0.47060933
0.043388292
-0.46224584
0.054903011
-0.4543788
0.070133165
-0.44762981
0.095054082
-0.4708099
0.15386847
-0.47005114
0.11852323
-0.46091544
0.090888113
-0.42709574
0.037598769
-0.39543672
0.028515425
-0.3680427
0.029073795
-0.30348994
0.020770669
-0.16300009
0.013454892
-0.041147308
0.0077710339
0
0
0
0
0
0
0
0
0
0
0
0
0
0