/*--------------------------------*- C++ -*----------------------------------*\
| =========                 |                                                 |
| \\      /  F ield         | foam-extend: Open Source CFD                    |
|  \\    /   O peration     | Version:     4.1                                |
|   \\  /    A nd           | Web:         http://www.foam-extend.org         |
|    \\/     M anipulation  |                                                 |
\*---------------------------------------------------------------------------*/
FoamFile
{
    version     2.0;
    format      ascii;
    class       volScalarField;
    location    "2.5";
    object      p;
}
// * * * * * * * * * * * * * * * * * * * * * * * * * * * * * * * * * * * * * //

dimensions      [0 2 -2 0 0 0 0];

internalField   nonuniform List<scalar> 
16126
(
-0.00016566774
-0.00059313628
-0.0011783331
-0.0015269916
-0.0021961792
-0.0025948393
-0.0032849825
-0.0037763883
-0.0044841174
-0.0050731461
-0.0058125663
-0.0064936434
-0.0072790775
-0.0080452557
-0.0088863776
-0.0097312383
-0.010632486
-0.011549192
-0.012509357
-0.013489831
-0.014504055
-0.015539508
-0.016602395
-0.01768362
-0.018784423
-0.019902032
-0.021040256
-0.022192314
-0.023360239
-0.024542817
-0.025740521
-0.026950431
-0.028171349
-0.029400963
-0.030636968
-0.031876579
-0.033116652
-0.03435367
-0.035583641
-0.036802162
-0.038004341
-0.039184833
-0.040337854
-0.041457181
-0.042536235
-0.043568082
-0.044545538
-0.045461195
-0.046307519
-0.047076896
-0.047761713
-0.048354409
-0.04884754
-0.049233822
-0.049506174
-0.049657763
-0.04968203
-0.049572733
-0.049323973
-0.048930242
-0.048386452
-0.047688003
-0.046830815
-0.045811414
-0.044626973
-0.043275403
-0.041755399
-0.040066527
-0.038209262
-0.036185064
-0.033996389
-0.031646749
-0.02914068
-0.026483787
-0.023682666
-0.020744922
-0.017679036
-0.014494378
-0.011201011
-0.0078097001
-0.0043316649
-0.00077859573
0.0028376472
0.0065049857
0.010211473
0.013945207
0.017694692
0.021448735
0.025196771
0.028928786
0.032635512
0.036308496
0.039939966
0.043523314
0.047052282
0.050522341
0.053928483
0.057268576
0.060538225
0.063738383
0.066864054
0.069921148
0.072902002
0.075822438
0.078668787
0.081479391
0.084228917
0.08700853
0.08976937
0.092723776
0.09576513
0.099372097
0.10326546
0.1084903
0.11422071
0.12273385
0.13153094
0.14590817
0.15837507
0.18318629
0.1967858
0.24712498
0.24330086
0.41233311
-0.00017065659
-0.00060099179
-0.0012048136
-0.0015458529
-0.0022245104
-0.0026212412
-0.0033156677
-0.0038079157
-0.0045177499
-0.0051083516
-0.005849105
-0.0065318306
-0.0073183383
-0.0080857812
-0.0089273876
-0.0097723677
-0.010672642
-0.01158791
-0.012546337
-0.0135255
-0.014538394
-0.015570858
-0.016627426
-0.017702742
-0.018803134
-0.019919622
-0.021042537
-0.022180831
-0.02334471
-0.024520616
-0.025710516
-0.026912462
-0.028125255
-0.029346576
-0.030574079
-0.031804973
-0.033036116
-0.034263999
-0.035484639
-0.036693645
-0.037886136
-0.039056781
-0.040199817
-0.041309046
-0.042377923
-0.043399557
-0.044366818
-0.045272362
-0.046108731
-0.046868396
-0.047543841
-0.048127604
-0.048612351
-0.048990903
-0.049256288
-0.049401773
-0.049420895
-0.049307492
-0.049055734
-0.048660164
-0.048115728
-0.047417839
-0.046562414
-0.045545955
-0.044365589
-0.043019169
-0.041505311
-0.039823486
-0.037974063
-0.035958383
-0.033778767
-0.03143859
-0.028942239
-0.026295164
-0.023503802
-0.020575595
-0.017518862
-0.014342808
-0.011057335
-0.0076730454
-0.0042010041
-0.0006527474
0.0029600135
0.0066253392
0.01033142
0.014066481
0.01781916
0.021578395
0.02533376
0.029075383
0.032794162
0.036481818
0.040130812
0.043734781
0.047287815
0.050785755
0.05422413
0.057601368
0.060913935
0.064163623
0.067346812
0.070470579
0.073529412
0.076540509
0.079493397
0.08242734
0.085321463
0.088265433
0.091216366
0.094378119
0.097653187
0.10149582
0.10564693
0.11109398
0.1170691
0.12571538
0.13470962
0.14897216
0.16160429
0.18524098
0.1994752
0.23968409
0.2476764
0.30761933
-0.00019655896
-0.00056150785
-0.0012264484
-0.0015257121
-0.0022294661
-0.0026094123
-0.0033107064
-0.0037975043
-0.0045076094
-0.0050966462
-0.0058355607
-0.006517238
-0.0073009874
-0.0080669758
-0.0089058314
-0.0097498338
-0.010649336
-0.011565195
-0.012523135
-0.013500664
-0.01450886
-0.015539018
-0.016600253
-0.017679983
-0.018767635
-0.019866266
-0.021002447
-0.022155389
-0.023316508
-0.024492615
-0.025682093
-0.026884104
-0.028096986
-0.029318646
-0.030546718
-0.031778475
-0.033010804
-0.03424023
-0.035462795
-0.03667413
-0.037869369
-0.039043185
-0.04018982
-0.041303064
-0.04237636
-0.043402796
-0.044375218
-0.045286256
-0.046128419
-0.046894149
-0.047575895
-0.048166166
-0.048657592
-0.04904296
-0.049315262
-0.049467724
-0.049493839
-0.049387395
-0.049142507
-0.048753655
-0.048215714
-0.047524021
-0.046674409
-0.045663294
-0.044487714
-0.043145429
-0.041634967
-0.039955713
-0.038107957
-0.036092967
-0.033913003
-0.031571389
-0.029072477
-0.026421692
-0.023625463
-0.02069124
-0.017627362
-0.014443076
-0.01114833
-0.0077537991
-0.0042706209
-0.00071043186
0.0029149601
0.0065935054
0.010313299
0.014062454
0.017829513
0.021603291
0.025373279
0.029129484
0.032862737
0.036564652
0.040227623
0.043845152
0.047411276
0.050921653
0.054371809
0.057759925
0.061082592
0.064341267
0.067532865
0.07066411
0.073731143
0.076751013
0.0797176
0.082670483
0.085598798
0.088592272
0.091628103
0.094904371
0.098358374
0.10241234
0.10686113
0.11258062
0.11889685
0.12764604
0.1367638
0.15038305
0.16260101
0.18370578
0.19760521
0.23077024
0.24384036
0.28756095
-0.00029931825
-0.00051520265
-0.0012930335
-0.0015219187
-0.0022687644
-0.0026218896
-0.0033357222
-0.0038129619
-0.0045240865
-0.0051091345
-0.0058454292
-0.006525146
-0.0073061914
-0.0080709257
-0.0089071192
-0.0097484056
-0.010641961
-0.011550566
-0.012500196
-0.013473145
-0.014482175
-0.015510394
-0.016551492
-0.017604448
-0.018700352
-0.019822137
-0.020948196
-0.022086209
-0.023241993
-0.024411205
-0.025594578
-0.026790172
-0.027996784
-0.029212307
-0.030434474
-0.031660619
-0.032887681
-0.034112242
-0.035330397
-0.036537826
-0.037729713
-0.038900775
-0.040045302
-0.041157125
-0.042229733
-0.043256252
-0.044229574
-0.045142365
-0.045987174
-0.046756477
-0.047442755
-0.048038538
-0.048536471
-0.048929344
-0.049210134
-0.049372039
-0.049408502
-0.04931324
-0.049080277
-0.048703978
-0.048179081
-0.047500766
-0.046664692
-0.045667082
-0.044504769
-0.043175303
-0.041676991
-0.040009
-0.038171398
-0.036165245
-0.033992594
-0.031656581
-0.029161379
-0.026512259
-0.023715508
-0.020778464
-0.017709369
-0.014517405
-0.011212475
-0.0078052314
-0.0043068175
-0.0007288872
0.0029167303
0.0066179082
0.010362681
0.014139053
0.017935505
0.021740766
0.025544303
0.02933608
0.033106974
0.036848618
0.040553606
0.044215624
0.04782915
0.051390252
0.054895233
0.058342962
0.061731401
0.065063099
0.068337288
0.071562199
0.074737765
0.077882608
0.080996512
0.084119261
0.087248555
0.090468808
0.093768823
0.09732601
0.10109389
0.10543845
0.11018538
0.11607921
0.12253352
0.13108696
0.13996438
0.15253689
0.16390365
0.18188519
0.19422406
0.21789975
0.22896031
0.24702895
-0.0004966073
-0.00043544496
-0.0013806202
-0.0014958819
-0.0023017968
-0.0026111248
-0.0033407747
-0.0038010156
-0.0045125419
-0.0050897613
-0.0058209469
-0.0064939943
-0.0072662256
-0.0080223669
-0.0088469834
-0.0096787394
-0.010565062
-0.011470699
-0.012417182
-0.013382139
-0.014365159
-0.015367593
-0.016420523
-0.017501452
-0.018591402
-0.019691098
-0.020813859
-0.021952707
-0.023105477
-0.024272978
-0.025454135
-0.026648171
-0.027853603
-0.029068629
-0.030291037
-0.031518291
-0.03274742
-0.033975096
-0.035197496
-0.036410377
-0.037609004
-0.038788154
-0.039942188
-0.041064983
-0.042150074
-0.043190616
-0.044179514
-0.045109432
-0.045972896
-0.046762334
-0.047470157
-0.048088797
-0.048610774
-0.049028721
-0.049335431
-0.049523889
-0.049587295
-0.049519101
-0.049313041
-0.048963175
-0.048463919
-0.047810128
-0.046997126
-0.046020807
-0.044877681
-0.043564988
-0.042080743
-0.040423841
-0.038594106
-0.036592384
-0.034420546
-0.032081584
-0.02957956
-0.026919686
-0.024108216
-0.021152515
-0.018060877
-0.014842602
-0.011507723
-0.0080671066
-0.0045320949
-0.00091465061
0.0027730942
0.0065186679
0.010309802
0.014134157
0.017979909
0.021835403
0.025689823
0.029532782
0.033354967
0.037147777
0.040903674
0.04461614
0.048279632
0.051890067
0.055443975
0.058940216
0.062377298
0.065757851
0.069082298
0.072359078
0.075590559
0.078795603
0.081978723
0.085179269
0.08840345
0.091731745
0.095166809
0.098870141
0.1028161
0.10732218
0.11224869
0.11821631
0.12472437
0.13302434
0.14162916
0.15322462
0.1639083
0.17962618
0.19134855
0.21065849
0.22196903
0.23428017
-0.00080534883
-0.00034778602
-0.0015143205
-0.001482775
-0.0023632062
-0.0026169479
-0.0033659974
-0.0038024241
-0.0045124346
-0.0050751696
-0.0057968623
-0.0064591853
-0.0072219885
-0.0079702477
-0.0087877981
-0.0096119877
-0.010483722
-0.01136664
-0.012283064
-0.013227587
-0.014225043
-0.015246643
-0.016280382
-0.017329617
-0.018405749
-0.019502841
-0.020614908
-0.021742189
-0.022886027
-0.024044678
-0.025218165
-0.026405089
-0.027604273
-0.028813934
-0.030032009
-0.031256068
-0.032483259
-0.033710366
-0.034933684
-0.036149084
-0.037351951
-0.038537176
-0.039699239
-0.040832124
-0.041929468
-0.042984512
-0.043990231
-0.044939335
-0.045824363
-0.046637726
-0.047371777
-0.048018845
-0.0485713
-0.049021583
-0.049362238
-0.04958596
-0.049685613
-0.049654273
-0.049485265
-0.04917221
-0.048709069
-0.048090223
-0.047310523
-0.04636539
-0.045250871
-0.043963762
-0.042501654
-0.040863052
-0.03904742
-0.037055286
-0.034888242
-0.032549056
-0.030041603
-0.027370975
-0.024543345
-0.021566072
-0.018447483
-0.015196984
-0.011824767
-0.0083419033
-0.004760026
-0.0010913812
0.002651627
0.0064560943
0.010309369
0.014198587
0.018111516
0.022036054
0.025961058
0.029875756
0.033770591
0.037636611
0.041466259
0.045252933
0.048991413
0.052677852
0.056309358
0.059885235
0.063405092
0.066872341
0.070289162
0.073664883
0.077004504
0.080327251
0.083641201
0.086983831
0.090365659
0.093859046
0.097471485
0.10134193
0.10545181
0.11006616
0.11506527
0.12095696
0.12731312
0.135137
0.14318995
0.15354603
0.16309949
0.17611424
0.18600076
0.19993849
0.2085204
0.21469043
-0.0011928029
-0.00023502079
-0.0016610245
-0.001450388
-0.0024133383
-0.0025984649
-0.0033676359
-0.0037745463
-0.0044833163
-0.0050307274
-0.0057441277
-0.0063927605
-0.0071397433
-0.0078695871
-0.0086603426
-0.0094573755
-0.010310846
-0.011190942
-0.012117862
-0.013061335
-0.014027162
-0.015015226
-0.016036108
-0.017081214
-0.018145835
-0.019227251
-0.020329162
-0.021448471
-0.022584771
-0.023737432
-0.024905744
-0.026088829
-0.027285424
-0.028493983
-0.029712554
-0.030938869
-0.032170222
-0.033403539
-0.034635268
-0.035861419
-0.037077528
-0.038278619
-0.039459311
-0.040613699
-0.041735524
-0.042818096
-0.043854426
-0.044837222
-0.045758968
-0.04661197
-0.047388409
-0.048080385
-0.048679973
-0.049179249
-0.049570338
-0.049845456
-0.049996938
-0.050017292
-0.049899243
-0.049635792
-0.04922027
-0.048646434
-0.047908518
-0.047001356
-0.045920435
-0.044662034
-0.043223274
-0.041602247
-0.039798055
-0.037810937
-0.035642252
-0.033294615
-0.030771808
-0.028078917
-0.025222165
-0.022209059
-0.019048116
-0.015749051
-0.012322372
-0.0087796328
-0.0051328506
-0.0013949402
0.0024210166
0.0063014068
0.010232964
0.014202187
0.01819625
0.022202253
0.026208471
0.030203392
0.034177079
0.038120204
0.042024871
0.045884112
0.049692499
0.053445839
0.057141466
0.060778723
0.0643577
0.067881915
0.071354563
0.074785171
0.078180492
0.081559716
0.084933814
0.088338928
0.091789998
0.095353907
0.09904445
0.10298425
0.10716441
0.11180879
0.11681943
0.12261053
0.12882355
0.13625545
0.1438999
0.15335144
0.1622125
0.17356057
0.18267347
0.19407283
0.20187465
0.20602559
-0.001627864
-0.00012357067
-0.0018280058
-0.0014236041
-0.0024759622
-0.0025862229
-0.0033768423
-0.0037484198
-0.0044520163
-0.0049732403
-0.0056676196
-0.0062947467
-0.0070250282
-0.007739983
-0.0085270676
-0.0093234139
-0.010161953
-0.011015296
-0.011905304
-0.012820336
-0.013773701
-0.014751185
-0.01575232
-0.016773971
-0.01782003
-0.018887077
-0.01997384
-0.021079139
-0.02220319
-0.023344891
-0.024503949
-0.025679315
-0.026869924
-0.028074314
-0.0292907
-0.030516965
-0.031750572
-0.032988617
-0.034227723
-0.035464076
-0.036693391
-0.037910862
-0.039111276
-0.040288874
-0.04143752
-0.042550617
-0.043621226
-0.044642052
-0.045605521
-0.046503809
-0.0473289
-0.048072615
-0.048726674
-0.049282725
-0.049732387
-0.050067307
-0.050279194
-0.050359881
-0.050301385
-0.05009598
-0.049736257
-0.049215244
-0.048526459
-0.047664053
-0.046622867
-0.045398588
-0.043987793
-0.042388107
-0.040598219
-0.038618042
-0.036448672
-0.034092557
-0.031553371
-0.028836203
-0.025947332
-0.022894441
-0.019686276
-0.016332891
-0.012845214
-0.0092352436
-0.0055157284
-0.0017001057
0.0021981387
0.006164573
0.010185258
0.014245662
0.018332201
0.022431239
0.026530499
0.030617849
0.034682881
0.03871541
0.04270739
0.046651473
0.050542588
0.054376769
0.058151645
0.061866674
0.06552274
0.069123877
0.072674327
0.076183984
0.079661018
0.083124168
0.086585903
0.090079671
0.093621589
0.097270603
0.10104126
0.10503733
0.1092522
0.11386946
0.11880437
0.12438779
0.13031626
0.13720769
0.14424009
0.15259538
0.16041603
0.16981902
0.17745646
0.18600931
0.19205987
0.19463054
-0.0020537892
5.2225573e-06
-0.0019810332
-0.0013778681
-0.0025149941
-0.002545546
-0.003354092
-0.0036881459
-0.0043875609
-0.004890649
-0.0055785845
-0.0061895894
-0.0069016954
-0.0075940807
-0.0083503917
-0.0091143138
-0.009928448
-0.010764376
-0.011640962
-0.012539049
-0.013466562
-0.014418042
-0.015398679
-0.016403506
-0.017432081
-0.018481851
-0.019553954
-0.020646574
-0.021759661
-0.022892402
-0.024044313
-0.025214593
-0.026402234
-0.027605968
-0.028824175
-0.030054928
-0.031295885
-0.032544333
-0.033797098
-0.035050557
-0.036300617
-0.037542649
-0.038771601
-0.039981849
-0.041167357
-0.042321582
-0.043437584
-0.044508004
-0.045525129
-0.046480918
-0.047367049
-0.048174957
-0.048895881
-0.04952091
-0.050041027
-0.050447171
-0.050730292
-0.050881422
-0.050891745
-0.050752692
-0.050456017
-0.049993926
-0.04935915
-0.048545098
-0.047545926
-0.046356705
-0.044973464
-0.043393369
-0.041614726
-0.039637168
-0.037461583
-0.035090327
-0.032527053
-0.029776957
-0.026846475
-0.023743601
-0.020477408
-0.017058471
-0.013498179
-0.0098093461
-0.0060050007
-0.0020996374
0.0018920463
0.0059545864
0.0100732
0.014232688
0.01841878
0.022616602
0.026813094
0.030994904
0.035151211
0.039271747
0.043347959
0.047372152
0.051338824
0.055243208
0.059083366
0.062859023
0.066571428
0.07022459
0.073823609
0.077378475
0.080898414
0.0844019
0.087902832
0.091432932
0.095010102
0.098687842
0.10248293
0.10648532
0.11069274
0.11525748
0.12010947
0.12551302
0.13121726
0.13769928
0.14430312
0.15190157
0.15908694
0.16730371
0.17420193
0.18127571
0.1865498
0.18832772
-0.0024369922
0.00012194004
-0.0021245343
-0.0013330811
-0.002555124
-0.0025084583
-0.0033364795
-0.0036313261
-0.0043236673
-0.0047965182
-0.0054632143
-0.0060489699
-0.0067409934
-0.0074133921
-0.0081531769
-0.0089001855
-0.0096922485
-0.010501896
-0.011348705
-0.012219848
-0.013125036
-0.014055281
-0.015013118
-0.015994802
-0.017002326
-0.018033279
-0.019087726
-0.020164494
-0.021263679
-0.022384511
-0.023526718
-0.024689562
-0.025872219
-0.027073575
-0.028292209
-0.02952639
-0.03077399
-0.032032507
-0.033298986
-0.034570014
-0.035841705
-0.037109621
-0.038368877
-0.039613988
-0.040839015
-0.042037462
-0.043202375
-0.044326308
-0.045401384
-0.04641931
-0.047371424
-0.048248724
-0.049041924
-0.0497415
-0.050337738
-0.050820817
-0.051180864
-0.051408047
-0.051492659
-0.051425229
-0.051196613
-0.050798144
-0.05022171
-0.049459936
-0.048506245
-0.047355057
-0.046001816
-0.044443206
-0.042677122
-0.040702902
-0.038521212
-0.036134315
-0.033545833
-0.030761077
-0.027786654
-0.024630872
-0.021303184
-0.01781468
-0.014177373
-0.010404504
-0.0065107015
-0.0025110368
0.0015798395
0.0057452798
0.0099697368
0.014236231
0.018529351
0.022833446
0.02713485
0.031419735
0.03567679
0.039893826
0.044062225
0.048173406
0.052222656
0.056206046
0.060121466
0.063968091
0.067747867
0.071465356
0.075126049
0.078739986
0.082317085
0.085874913
0.089427714
0.093004393
0.096622453
0.1003285
0.10413827
0.10812689
0.11229229
0.11675702
0.12146002
0.12660675
0.13198664
0.13795667
0.1439896
0.15070591
0.1570384
0.16393188
0.16976616
0.17531132
0.17955778
0.18087633
-0.0027523058
0.00023181194
-0.002237027
-0.0012765549
-0.0025680846
-0.002447445
-0.0032885536
-0.0035448957
-0.0042300346
-0.0046784034
-0.0053308997
-0.0058945057
-0.0065650323
-0.0072121514
-0.0079244552
-0.0086431863
-0.0094095314
-0.010195752
-0.011020322
-0.011868363
-0.01274813
-0.01365342
-0.014588181
-0.01554877
-0.016536123
-0.017548293
-0.018585982
-0.019648064
-0.020734701
-0.021845317
-0.022979694
-0.024137296
-0.025317451
-0.026519255
-0.027741497
-0.028982668
-0.030240875
-0.031513841
-0.032798843
-0.034092684
-0.035391685
-0.036691594
-0.037987679
-0.039274572
-0.040546401
-0.041796678
-0.043018388
-0.044203947
-0.04534525
-0.046433688
-0.047460184
-0.048415227
-0.049288925
-0.050071062
-0.050751152
-0.051318533
-0.051762434
-0.05207209
-0.05223683
-0.052246225
-0.052090174
-0.051759091
-0.051243981
-0.050536651
-0.04962977
-0.048517091
-0.04719347
-0.045655115
-0.04389952
-0.041925755
-0.03973429
-0.037327341
-0.034708538
-0.031883379
-0.028858676
-0.02564318
-0.022246717
-0.018681062
-0.014958741
-0.011094477
-0.0071020115
-0.0029978501
0.0012008148
0.0054759875
0.0098110378
0.014189002
0.018594077
0.023008599
0.02741799
0.031806021
0.036160932
0.040471988
0.044729603
0.048925311
0.053053505
0.057107741
0.061087062
0.064991898
0.068824282
0.072588085
0.076289834
0.07993955
0.083547566
0.087131113
0.090704888
0.094295946
0.097922142
0.10162514
0.10542095
0.10937361
0.11348291
0.11784845
0.12241932
0.12735521
0.13248337
0.13806922
0.14369668
0.14980079
0.1555833
0.1616375
0.16685282
0.17150999
0.17516761
0.17612553
-0.0029908663
0.00032314237
-0.0023247329
-0.001223132
-0.0025734028
-0.0023870387
-0.0032381974
-0.0034567359
-0.0041312135
-0.0045503369
-0.0051826433
-0.0057205867
-0.0063692411
-0.0069931853
-0.0076836288
-0.0083794861
-0.0091210845
-0.0098809201
-0.010677922
-0.011499386
-0.012354054
-0.01323506
-0.014145814
-0.015083106
-0.016048656
-0.017040777
-0.018060082
-0.019105793
-0.020178221
-0.021276976
-0.022402041
-0.023553056
-0.024729563
-0.025930869
-0.027155999
-0.02840368
-0.029672264
-0.030959718
-0.032263559
-0.033580818
-0.034908033
-0.036241138
-0.037575557
-0.038906038
-0.040226769
-0.041531264
-0.042812431
-0.044062532
-0.045273222
-0.04643555
-0.047540004
-0.048576539
-0.049534633
-0.050403348
-0.051171395
-0.051827239
-0.052359176
-0.052755472
-0.053004456
-0.053094699
-0.053015102
-0.052755118
-0.052304825
-0.051655173
-0.050798029
-0.049726444
-0.048434643
-0.046918324
-0.045174541
-0.043202074
-0.041001161
-0.038573958
-0.035924082
-0.033057203
-0.029980355
-0.026702665
-0.023234423
-0.019588097
-0.015776907
-0.011815033
-0.0077206247
-0.0035107629
0.00079974212
0.0051911798
0.0096455731
0.014142595
0.018665701
0.02319699
0.02772123
0.03222305
0.036688207
0.041102476
0.04545678
0.049740235
0.053949164
0.058080933
0.062133133
0.066103302
0.06999456
0.073812435
0.077562794
0.081255434
0.084901296
0.088516275
0.092114941
0.095721718
0.099353358
0.10304589
0.10681362
0.11070935
0.11473232
0.1189609
0.12335059
0.12802146
0.13282964
0.13796516
0.143098
0.14852027
0.15363801
0.15880231
0.1632749
0.16707402
0.17011887
0.17091542
-0.0031497673
0.00040043229
-0.0023768045
-0.0011624618
-0.0025542728
-0.002310273
-0.0031655998
-0.0033492851
-0.0040126277
-0.0044057454
-0.005020201
-0.0055338475
-0.0061597409
-0.0067579686
-0.0074223406
-0.0080913724
-0.0088070049
-0.0095415229
-0.010313631
-0.011110141
-0.011939482
-0.012795785
-0.013682906
-0.014597985
-0.015542596
-0.016515409
-0.017517311
-0.018547741
-0.019607181
-0.020695459
-0.021812729
-0.022958857
-0.024133601
-0.025336511
-0.026566857
-0.027823623
-0.029105422
-0.030410474
-0.031736548
-0.03308091
-0.03444031
-0.035810873
-0.037188168
-0.038567047
-0.039941742
-0.041305744
-0.042651865
-0.043972182
-0.045258072
-0.046500214
-0.047688617
-0.048812662
-0.049861153
-0.050822384
-0.051684217
-0.052434196
-0.053059632
-0.053547769
-0.053885888
-0.054061505
-0.054062473
-0.053877236
-0.053494898
-0.052905508
-0.052100091
-0.05107097
-0.049811702
-0.048317462
-0.046584846
-0.04461234
-0.042399946
-0.039949774
-0.037265427
-0.034352808
-0.031219121
-0.027874095
-0.024328343
-0.020595005
-0.016687942
-0.012625446
-0.0084197074
-0.0040929682
0.00033605488
0.0048477776
0.0094242519
0.014044734
0.018691096
0.023343043
0.027984565
0.032597602
0.037169954
0.041687015
0.046139374
0.050517336
0.054812118
0.059015672
0.063128937
0.067155179
0.071096666
0.074955414
0.07873969
0.08245952
0.086125213
0.089752723
0.093356434
0.096958969
0.10057687
0.10424188
0.10796789
0.11179913
0.11573567
0.11983967
0.12407374
0.1285278
0.13308418
0.13787655
0.14264611
0.14758092
0.15224157
0.15680831
0.16079488
0.1640386
0.16666643
0.16727514
-0.0032376805
0.000458128
-0.0024023277
-0.0011058821
-0.0025248777
-0.0022333402
-0.003087972
-0.0032390813
-0.0038883101
-0.0042541104
-0.0048480239
-0.0053363273
-0.0059394383
-0.0065132124
-0.0071537644
-0.0077979915
-0.0084881338
-0.009196414
-0.009941916
-0.010712238
-0.011516053
-0.012347535
-0.013210545
-0.014102513
-0.015025375
-0.015978072
-0.016961648
-0.017975826
-0.01902129
-0.020098108
-0.021206667
-0.022347066
-0.023519317
-0.024723224
-0.025958326
-0.027223878
-0.028518767
-0.029841484
-0.031190062
-0.032562014
-0.033954317
-0.035363293
-0.036784667
-0.038213403
-0.039643782
-0.041069277
-0.042482602
-0.043875652
-0.045239525
-0.04656452
-0.047840165
-0.049055254
-0.0501979
-0.051255616
-0.052215383
-0.053063797
-0.05378715
-0.054371627
-0.054803406
-0.055068904
-0.055154871
-0.055048681
-0.054738403
-0.054213129
-0.05346298
-0.052479489
-0.051255489
-0.049785581
-0.048065848
-0.04609445
-0.043871097
-0.041397842
-0.03867824
-0.035718396
-0.032525789
-0.029110443
-0.025483495
-0.021659572
-0.017652675
-0.013480089
-0.0091615585
-0.0047147561
-0.00015883507
0.004483707
0.0091931775
0.013946307
0.01872443
0.02350565
0.028273246
0.033007804
0.037695302
0.042319617
0.046871286
0.051339334
0.055719644
0.060007087
0.064196956
0.068284429
0.072275766
0.076180325
0.080002612
0.083751441
0.087439241
0.091079685
0.09468712
0.098282027
0.1018795
0.10550709
0.10917688
0.11292502
0.1167509
0.12070221
0.12474632
0.12894784
0.13320939
0.13762027
0.14197728
0.14639295
0.15054611
0.1545082
0.15797678
0.16071085
0.16295661
0.16349338
-0.0032631895
0.00050166275
-0.0023972819
-0.0010455237
-0.0024755452
-0.0021455294
-0.002993885
-0.0031158947
-0.0037498725
-0.004090479
-0.0046643241
-0.0051279976
-0.0057077222
-0.0062559674
-0.0068710392
-0.0074890849
-0.0081533379
-0.0088358398
-0.0095557892
-0.010300729
-0.011079369
-0.011886334
-0.012725724
-0.013595295
-0.014497093
-0.015430368
-0.016396387
-0.017395134
-0.018427512
-0.019493841
-0.020594738
-0.021730562
-0.022901587
-0.024107892
-0.0253493
-0.026625352
-0.027935228
-0.029277704
-0.03065109
-0.03205316
-0.033481129
-0.034931525
-0.036400237
-0.037882343
-0.039372176
-0.040863191
-0.042348
-0.043818309
-0.045264924
-0.046677752
-0.048045819
-0.049357308
-0.050599613
-0.051759426
-0.052822813
-0.05377537
-0.05460232
-0.055288725
-0.055819606
-0.05618021
-0.056356113
-0.056333558
-0.056099506
-0.055642031
-0.054950284
-0.054014962
-0.052828118
-0.051383749
-0.04967738
-0.04770683
-0.045471493
-0.042973366
-0.040215922
-0.037205557
-0.033949736
-0.030459539
-0.026746267
-0.022825102
-0.018712235
-0.014425924
-0.0099827989
-0.0054062861
-0.00071630552
0.0040628963
0.0089110219
0.01380294
0.018718945
0.023634687
0.028532809
0.033391622
0.038197493
0.042932773
0.047587769
0.052150008
0.056613625
0.06097148
0.065224985
0.069374474
0.073417993
0.077357394
0.081205425
0.084973768
0.088670585
0.092311293
0.095909682
0.099484326
0.10305045
0.10663178
0.11024009
0.11390514
0.11762682
0.12144188
0.12532272
0.12931506
0.13333922
0.13745179
0.14149389
0.14552357
0.14930613
0.15283694
0.1559345
0.15830593
0.16025982
0.16068808
-0.0032406622
0.00052957674
-0.0023709472
-0.00098868179
-0.0024163581
-0.0020569349
-0.0028939689
-0.0029895402
-0.0036057446
-0.0039212065
-0.0044734541
-0.0049123207
-0.0054685352
-0.005991885
-0.0065822868
-0.0071748951
-0.0078134168
-0.0084698033
-0.0091635623
-0.0098825754
-0.010635757
-0.01141792
-0.012233313
-0.013079949
-0.013960133
-0.01487338
-0.015821179
-0.016803788
-0.01782235
-0.018877453
-0.019969978
-0.02110056
-0.022269758
-0.023477943
-0.024725245
-0.02601151
-0.027336227
-0.02869848
-0.030096874
-0.031529468
-0.032993734
-0.034486427
-0.03600362
-0.037540527
-0.03909155
-0.040650143
-0.042208833
-0.043759145
-0.045291606
-0.046795732
-0.048260045
-0.04967211
-0.051018584
-0.052285318
-0.053457425
-0.054519465
-0.055455535
-0.056249523
-0.056885217
-0.057346628
-0.057618078
-0.057684599
-0.057531957
-0.057147133
-0.056518219
-0.055635011
-0.054488699
-0.053072625
-0.051381678
-0.049413311
-0.047166521
-0.044643258
-0.04184686
-0.038783959
-0.035462567
-0.031893253
-0.028089641
-0.024067846
-0.019841854
-0.015432753
-0.010859672
-0.0061460622
-0.0013128183
0.0036132883
0.0086107678
0.013651657
0.018715536
0.023775434
0.028813439
0.033805447
0.038737243
0.043589192
0.048351901
0.05301161
0.057564001
0.062001316
0.066322947
0.070526201
0.07461896
0.078603541
0.082482732
0.086266338
0.089972266
0.093610708
0.097195656
0.10074494
0.10427153
0.10779686
0.11133083
0.11489783
0.11849726
0.1221565
0.12585161
0.12961304
0.13337519
0.13717021
0.14087431
0.14450869
0.14790533
0.15101618
0.15374743
0.15579783
0.15750152
0.15788968
-0.0031804736
0.00054737485
-0.0023225562
-0.00092938044
-0.0023417765
-0.0019604775
-0.0027813004
-0.0028534431
-0.0034503841
-0.003742131
-0.0042724736
-0.0046869319
-0.0052191228
-0.0057171126
-0.0062820757
-0.0068487105
-0.0074612979
-0.0080917291
-0.0087596891
-0.0094531447
-0.010181141
-0.010938773
-0.011730489
-0.012554581
-0.01341354
-0.01430716
-0.015237165
-0.016204082
-0.017209304
-0.018253696
-0.01933841
-0.020464372
-0.02163244
-0.022843299
-0.024097396
-0.025394907
-0.026735651
-0.028119038
-0.029543995
-0.031008884
-0.032511456
-0.034048718
-0.035616948
-0.037211513
-0.038826904
-0.040456589
-0.04209302
-0.043727552
-0.045350432
-0.046950784
-0.048516613
-0.050034849
-0.051491384
-0.052871188
-0.054158376
-0.055336413
-0.056388204
-0.057296388
-0.058043438
-0.058612044
-0.058985176
-0.059146572
-0.059080709
-0.058773396
-0.058211582
-0.057384095
-0.056281196
-0.054895527
-0.053221293
-0.051255554
-0.048996888
-0.046447174
-0.043609599
-0.040491181
-0.037099103
-0.033447706
-0.02954857
-0.02541756
-0.021071723
-0.016532812
-0.011820035
-0.0069601163
-0.00197465
0.0031067935
0.0082620452
0.013460115
0.018679901
0.023891177
0.029075709
0.034206389
0.03926924
0.04424217
0.049116075
0.053875201
0.058515487
0.063028016
0.06741433
0.071672229
0.075806079
0.079819187
0.083724528
0.087523999
0.091228306
0.094855229
0.098419174
0.10193424
0.10541566
0.10888059
0.11233947
0.11581196
0.11929799
0.12281794
0.1263515
0.12991798
0.13346358
0.13700279
0.14043891
0.14376703
0.14686667
0.14966055
0.15211074
0.15391442
0.15541186
0.15573252
-0.0030949586
0.00055539546
-0.0022598364
-0.00087198322
-0.002258872
-0.0018623361
-0.0026626153
-0.0027135702
-0.0032891394
-0.0035575747
-0.0040648987
-0.0044549731
-0.0049628417
-0.0054356988
-0.0059753638
-0.0065162067
-0.0071027764
-0.0077070019
-0.0083487695
-0.0090162728
-0.0097187304
-0.010451453
-0.011219067
-0.01202011
-0.012857303
-0.013730703
-0.014642273
-0.015592818
-0.016583997
-0.017616963
-0.018693161
-0.019813826
-0.020980136
-0.022193107
-0.02345353
-0.024761933
-0.026118488
-0.027522961
-0.028974624
-0.030472175
-0.032013677
-0.033596416
-0.035216907
-0.036870704
-0.038552415
-0.040255552
-0.041972517
-0.043694514
-0.045411527
-0.047112295
-0.048784306
-0.050413844
-0.051986014
-0.053484876
-0.054893497
-0.056194193
-0.057368605
-0.058398045
-0.059263578
-0.059946477
-0.060428258
-0.060691263
-0.060718567
-0.060494713
-0.060005401
-0.059238417
-0.058182987
-0.056831007
-0.055175895
-0.053214312
-0.05094428
-0.048367694
-0.045487344
-0.042310638
-0.038846156
-0.035108361
-0.031106852
-0.026861442
-0.022387838
-0.01771048
-0.01284935
-0.0078333804
-0.0026848884
0.0025632395
0.0078880983
0.013254868
0.01864204
0.024015493
0.029356931
0.034635618
0.039837858
0.044938597
0.04992958
0.054792951
0.059525945
0.06411818
0.068571755
0.072883283
0.07706016
0.081105044
0.085026637
0.088836246
0.092543548
0.09615652
0.099691933
0.10316859
0.10659594
0.10999216
0.1133653
0.11673197
0.12009192
0.12345973
0.1268181
0.13017769
0.13349446
0.13677054
0.13993108
0.14295523
0.14575942
0.14825336
0.15043896
0.15202888
0.15335479
0.15364918
-0.0029916815
0.000558148
-0.0021830717
-0.00081212091
-0.0021644781
-0.0017577724
-0.0025336334
-0.0025655242
-0.0031182101
-0.0033642169
-0.0038479078
-0.0042137763
-0.0046968168
-0.0051442694
-0.0056581398
-0.0061728815
-0.0067332115
-0.0073111868
-0.0079268011
-0.0085684164
-0.0092453808
-0.0099532429
-0.01069681
-0.011474874
-0.012290362
-0.013143599
-0.014036789
-0.014971018
-0.015948214
-0.01696983
-0.018037613
-0.019153121
-0.020317869
-0.021533224
-0.022800343
-0.024120126
-0.025493127
-0.026919495
-0.02839888
-0.029930344
-0.031512295
-0.033142334
-0.034817245
-0.036532802
-0.038283762
-0.040063707
-0.041865014
-0.043678759
-0.045494668
-0.047301105
-0.049085031
-0.050832068
-0.052526503
-0.054151441
-0.055688847
-0.057119814
-0.058424636
-0.059583203
-0.060575066
-0.061379975
-0.061977871
-0.062349591
-0.062476692
-0.062342356
-0.061930923
-0.061229071
-0.060224899
-0.058909521
-0.057275498
-0.055319075
-0.053037723
-0.050433215
-0.047508429