/*--------------------------------*- C++ -*----------------------------------*\
| =========                 |                                                 |
| \\      /  F ield         | foam-extend: Open Source CFD                    |
|  \\    /   O peration     | Version:     4.1                                |
|   \\  /    A nd           | Web:         http://www.foam-extend.org         |
|    \\/     M anipulation  |                                                 |
\*---------------------------------------------------------------------------*/
FoamFile
{
    version     2.0;
    format      ascii;
    class       surfaceScalarField;
    location    "2.5";
    object      phi;
}
// * * * * * * * * * * * * * * * * * * * * * * * * * * * * * * * * * * * * * //

dimensions      [0 3 -1 0 0 0 0];

internalField   nonuniform List<scalar> 
31929
(
-3.0091644e-05
-6.0462973e-08
-3.0013876e-05
-7.7767762e-08
-2.9962323e-05
-5.1553331e-08
-2.9886659e-05
-7.5663488e-08
-2.981725e-05
-6.9409189e-08
-2.9733689e-05
-8.3561143e-08
-2.9647813e-05
-8.5876557e-08
-2.9553716e-05
-9.4096748e-08
-2.9454875e-05
-9.8840485e-08
-2.9350742e-05
-1.0413355e-07
-2.9242083e-05
-1.0865847e-07
-2.913002e-05
-1.1206355e-07
-2.9014811e-05
-1.1520875e-07
-2.8897973e-05
-1.1683805e-07
-2.8779943e-05
-1.1802982e-07
-2.8662332e-05
-1.1761159e-07
-2.8545986e-05
-1.1634543e-07
-2.843254e-05
-1.1344599e-07
-2.8323036e-05
-1.0950457e-07
-2.8219072e-05
-1.0396332e-07
-2.812177e-05
-9.7302214e-08
-2.803265e-05
-8.9120236e-08
-2.79533e-05
-7.9350223e-08
-2.7885097e-05
-6.8202573e-08
-2.7828801e-05
-5.6295625e-08
-2.7785565e-05
-4.3235865e-08
-2.7757659e-05
-2.7906382e-08
-2.774744e-05
-1.0218988e-08
-2.7756971e-05
9.5312726e-09
-2.7786287e-05
2.9315187e-08
-2.7834027e-05
4.7740234e-08
-2.7900152e-05
6.6125616e-08
-2.798507e-05
8.4917922e-08
-2.808948e-05
1.0440942e-07
-2.821416e-05
1.2468081e-07
-2.8359923e-05
1.4576209e-07
-2.8527588e-05
1.6766587e-07
-2.8717984e-05
1.9039534e-07
-2.8931937e-05
2.139536e-07
-2.9170267e-05
2.3832924e-07
-2.9433771e-05
2.6350421e-07
-2.9723205e-05
2.8943464e-07
-3.003927e-05
3.1606479e-07
-3.0382577e-05
3.4330689e-07
-3.0753629e-05
3.7105149e-07
-3.1152788e-05
3.991599e-07
-3.1580255e-05
4.27467e-07
-3.2036037e-05
4.5578192e-07
-3.2519926e-05
4.838891e-07
-3.3031481e-05
5.115544e-07
-3.3570008e-05
5.3852743e-07
-3.4134556e-05
5.6454762e-07
-3.4723906e-05
5.8934966e-07
-3.5336575e-05
6.1266974e-07
-3.5970824e-05
6.34249e-07
-3.6624666e-05
6.53842e-07
-3.7295885e-05
6.712192e-07
-3.7982057e-05
6.8617187e-07
-3.8680573e-05
6.9851573e-07
-3.9388667e-05
7.0809433e-07
-4.0103446e-05
7.1477895e-07
-4.082192e-05
7.1847407e-07
-4.1541037e-05
7.1911638e-07
-4.2257714e-05
7.1667712e-07
-4.2968877e-05
7.1116276e-07
-4.3671493e-05
7.0261647e-07
-4.4362612e-05
6.9111937e-07
-4.5039401e-05
6.7678876e-07
-4.5699183e-05
6.5978188e-07
-4.6339477e-05
6.4029375e-07
-4.6958034e-05
6.1855694e-07
-4.7552875e-05
5.9484122e-07
-4.8122326e-05
5.6945163e-07
-4.8665051e-05
5.4272489e-07
-4.918008e-05
5.1502835e-07
-4.9666835e-05
4.8675571e-07
-5.0125157e-05
4.5832177e-07
-5.0555317e-05
4.3015992e-07
-5.0958032e-05
4.0271508e-07
-5.1334472e-05
3.7643947e-07
-5.1686259e-05
3.5178712e-07
-5.2015469e-05
3.2920984e-07
-5.2324618e-05
3.0914895e-07
-5.2616654e-05
2.920365e-07
-5.2894938e-05
2.7828397e-07
-5.3163227e-05
2.6828932e-07
-5.3425653e-05
2.6242594e-07
-5.3686707e-05
2.6105419e-07
-5.3951217e-05
2.6450914e-07
-5.4224338e-05
2.7312131e-07
-5.451154e-05
2.8720224e-07
-5.4818616e-05
3.0707639e-07
-5.515168e-05
3.3306361e-07
-5.5517208e-05
3.6552803e-07
-5.5922057e-05
4.0484858e-07
-5.6373564e-05
4.5150768e-07
-5.68796e-05
5.0603553e-07
-5.744878e-05
5.6918026e-07
-5.809058e-05
6.4180004e-07
-5.8815792e-05
7.2521149e-07
-5.9636767e-05
8.2097508e-07
-6.0568394e-05
9.316275e-07
-6.1628621e-05
1.0602272e-06
-6.2840525e-05
1.2119034e-06
-6.4233329e-05
1.3928044e-06
-6.5846637e-05
1.6133074e-06
-6.7732064e-05
1.8854272e-06
-6.9961324e-05
2.2292606e-06
-7.2627703e-05
2.6663787e-06
-7.586022e-05
3.2325167e-06
-7.9821104e-05
3.960884e-06
-8.4728479e-05
4.9073755e-06
-9.08388e-05
6.1103203e-06
-9.8482105e-05
7.6433056e-06
-0.00010800524
9.5231321e-06
-0.00011983523
1.1829991e-05
-0.00013433555
1.4500321e-05
-0.00015195907
1.7623516e-05
-0.00017289074
2.0931676e-05
-0.00019752897
2.4638231e-05
-0.00022530558
2.7776611e-05
-0.00025684243
3.1536843e-05
-0.00028730103
3.04586e-05
3.5279573e-05
-8.9595865e-05
-1.395924e-07
-8.9464331e-05
-2.0930145e-07
-8.9344136e-05
-1.7174851e-07
-8.9193294e-05
-2.2650524e-07
-8.903891e-05
-2.2379323e-07
-8.8864978e-05
-2.5749353e-07
-8.8681924e-05
-2.6893041e-07
-8.8485342e-05
-2.9067918e-07
-8.827918e-05
-3.05002e-07
-8.8063464e-05
-3.198497e-07
-8.7840176e-05
-3.319468e-07
-8.7611035e-05
-3.4120453e-07
-8.7377807e-05
-3.48436e-07
-8.7142905e-05
-3.5174037e-07
-8.6908399e-05
-3.5253569e-07
-8.6677073e-05
-3.4893743e-07
-8.6451411e-05
-3.4200752e-07
-8.623445e-05
-3.3040721e-07
-8.6029175e-05
-3.1477969e-07
-8.5839396e-05
-2.9374198e-07
-8.5668812e-05
-2.6788682e-07
-8.5520863e-05
-2.3706835e-07
-8.5398447e-05
-2.0176697e-07
-8.5305518e-05
-1.6113166e-07
-8.5248798e-05
-1.1301565e-07
-8.5234295e-05
-5.7738303e-08
-8.5267338e-05
5.1363103e-09
-8.5348334e-05
7.0777243e-08
-8.5472619e-05
1.3381652e-07
-8.5640098e-05
1.9679412e-07
-8.5852871e-05
2.6051254e-07
-8.6112476e-05
3.2573139e-07
-8.642048e-05
3.9292135e-07
-8.6778356e-05
4.6228524e-07
-8.7187578e-05
5.3390356e-07
-8.7649572e-05
6.0775557e-07
-8.8165718e-05
6.8381208e-07
-8.8737324e-05
7.6200185e-07
-8.9365631e-05
8.4225983e-07
-9.0051772e-05
9.2447032e-07
-9.0796778e-05
1.0085103e-06
-9.1601523e-05
1.09418e-06
-9.2466711e-05
1.1812529e-06
-9.339282e-05
1.2694157e-06
-9.4380062e-05
1.3582931e-06
-9.5428331e-05
1.4474295e-06
-9.6537156e-05
1.5362921e-06
-9.7705649e-05
1.6242746e-06
-9.8932457e-05
1.7106974e-06
-0.00010021573
1.794825e-06
-0.00010155307
1.8758743e-06
-0.00010294156
1.9530323e-06
-0.00010437768
2.0254737e-06
-0.0001058574
2.0923835e-06
-0.00010737612
2.1529691e-06
-0.00010892876
2.2064888e-06
-0.00011050981
2.252265e-06
-0.00011211334
2.2897014e-06
-0.00011373312
2.318297e-06
-0.00011536269
2.3376607e-06
-0.00011699542
2.3475114e-06
-0.00011862464
2.3476943e-06
-0.0001202437
2.3381786e-06
-0.00012184609
2.3190614e-06
-0.00012342549
2.2905669e-06
-0.00012497592
2.2530451e-06
-0.00012649177
2.2069724e-06
-0.00012796792
2.1529394e-06
-0.0001293998
2.0916559e-06
-0.00013078344
2.0239396e-06
-0.0001321156
1.9507105e-06
-0.00013339374
1.872983e-06
-0.00013461615
1.7918593e-06
-0.00013578193
1.7085135e-06
-0.00013689109
1.6241864e-06
-0.00013794451
1.540172e-06
-0.00013894399
1.4578021e-06
-0.00013989227
1.3784373e-06
-0.000140793
1.3034501e-06
-0.00014165077
1.2342116e-06
-0.00014247107
1.1720797e-06
-0.00014326024
1.1183882e-06
-0.00014402553
1.0744299e-06
-0.00014477495
1.0414598e-06
-0.00014551734
1.0206729e-06
-0.00014626227
1.0132199e-06
-0.00014702003
1.0201887e-06
-0.00014780161
1.0426316e-06
-0.00014861865
1.0815495e-06
-0.00014948347
1.1379381e-06
-0.00015040904
1.2127753e-06
-0.00015140905
1.3070856e-06
-0.00015249792
1.4219315e-06
-0.0001536909
1.5585086e-06
-0.00015500417
1.7181265e-06
-0.00015645503
1.9023653e-06
-0.00015806202
2.113027e-06
-0.00015984525
2.3524035e-06
-0.0001618266
2.6231569e-06
-0.00016403021
2.9288142e-06
-0.00016648273
3.2734967e-06
-0.00016921396
3.6628642e-06
-0.00017225721
4.1034749e-06
-0.00017564998
4.6046671e-06
-0.00017943417
5.1769943e-06
-0.00018365682
5.8359643e-06
-0.00018836965
6.5982506e-06
-0.00019362941
7.4890236e-06
-0.00019949578
8.5327484e-06
-0.00020603089
9.767625e-06
-0.00021329357
1.1223568e-05
-0.00022133755
1.2951353e-05
-0.0002301989
1.497167e-05
-0.00023989321
1.7337621e-05
-0.00025039005
2.0019966e-05
-0.00026161325
2.3053192e-05
-0.00027338614
2.6273212e-05
-0.00028545423
2.9691603e-05
-0.00029735027
3.2827723e-05
-0.00030851698
3.5804941e-05
-0.00031795853
3.7218156e-05
-0.00032461987
3.8198184e-05
-0.00032737989
3.3218628e-05
3.0480279e-05
-0.0001449964
-2.1815635e-07
-0.00014484625
-3.5945215e-07
-0.00014469883
-3.191744e-07
-0.00014452061
-4.0472705e-07
-0.00014433449
-4.0990534e-07
-0.00014412983
-4.6215697e-07
-0.00014391542
-4.8334238e-07
-0.00014368871
-5.1738251e-07
-0.00014345407
-5.3964911e-07
-0.0001432121
-5.618212e-07
-0.00014296588
-5.7816781e-07
-0.00014271743
-5.8964513e-07
-0.00014246971
-5.9616064e-07
-0.00014222554
-5.9590741e-07
-0.00014198822
-5.898568e-07
-0.00014176142
-5.7573569e-07
-0.00014154929
-5.5414535e-07
-0.00014135615
-5.2354274e-07
-0.00014118636
-4.8456807e-07
-0.00014104423
-4.358766e-07
-0.0001409341
-3.7801224e-07
-0.00014086209
-3.0907643e-07
-0.00014083636
-2.274981e-07
-0.00014086372
-1.3377495e-07
-0.00014094955
-2.7182163e-08
-0.00014109546
8.816535e-08
-0.00014129463
2.043054e-07
-0.00014154539
3.2153885e-07
-0.00014185294
4.4137137e-07
-0.00014222057
5.6442513e-07
-0.00014265132
6.9125826e-07
-0.00014314735
8.2176108e-07
-0.00014371049
9.5606203e-07
-0.00014434235
1.0941473e-06
-0.00014504441
1.2359591e-06
-0.00014581798
1.381331e-06
-0.00014666427
1.5301023e-06
-0.00014758431
1.6820356e-06
-0.00014857896
1.836913e-06
-0.00014964891
1.9944181e-06
-0.00015079463
2.1542356e-06
-0.00015201636
2.3159093e-06
-0.00015331406
2.4789467e-06
-0.00015468735
2.6427068e-06
-0.0001561355
2.8064434e-06
-0.00015765734
2.9692765e-06
-0.00015925125
3.1301951e-06
-0.00016091504
3.2880668e-06
-0.00016264598
3.4416372e-06
-0.00016444072
3.5895622e-06
-0.00016629527
3.7304252e-06
-0.000168205
3.8627698e-06
-0.00017016466
3.9851325e-06
-0.00017216837
4.0960874e-06
-0.00017420967
4.1942679e-06
-0.0001762816
4.2784207e-06
-0.00017837676
4.3474311e-06
-0.00018048742
4.4003551e-06
-0.00018260556
4.4364441e-06
-0.00018472308
4.4551732e-06
-0.0001868318
4.4562374e-06
-0.00018892369
4.4395799e-06
-0.00019099089
4.4053854e-06
-0.00019302592
4.3540819e-06
-0.00019502168
4.2863355e-06
-0.00019697168
4.2030416e-06
-0.00019887003
4.1053216e-06
-0.00020071158
3.9944942e-06
-0.00020249201
3.8720778e-06
-0.00020420783
3.739767e-06
-0.00020585654
3.5994152e-06
-0.00020743657
3.453018e-06
-0.00020894741
3.3026973e-06
-0.00021038957
3.1506698e-06
-0.00021176462
2.9992372e-06
-0.00021307521
2.8507601e-06
-0.00021432504
2.7076314e-06
-0.00021551886
2.5722594e-06
-0.00021666245
2.4470417e-06
-0.00021776258
2.334339e-06
-0.00021882696
2.2364592e-06
-0.00021986421
2.1556386e-06
-0.00022088379
2.0940131e-06
-0.00022189595
2.0536218e-06
-0.00022291165
2.0363727e-06
-0.0002239425
2.0440655e-06
-0.00022500067
2.078364e-06
-0.00022609887
2.1408324e-06
-0.00022725023
2.2329112e-06
-0.00022846827
2.3559779e-06
-0.00022976683
2.5113308e-06
-0.00023116001
2.7002693e-06
-0.00023266217
2.9240861e-06
-0.00023428784
3.1841775e-06
-0.00023605173
3.4820213e-06
-0.00023796872
3.8193501e-06
-0.00024005379
4.1980952e-06
-0.00024232205
4.6206689e-06
-0.00024478872
5.0898272e-06
-0.00024746906
5.6091556e-06
-0.00025037834
6.1827777e-06
-0.00025353171
6.8162347e-06
-0.00025694404
7.5158035e-06
-0.00026062959
8.2902146e-06
-0.00026460159
9.1489915e-06
-0.00026887143
1.0105806e-05
-0.00027344773
1.1174552e-05
-0.00027833455
1.237584e-05
-0.00028352948
1.3727684e-05
-0.0002890202
1.525834e-05
-0.00029478115
1.6984521e-05
-0.00030076756
1.8937767e-05
-0.00030691088
2.1114982e-05
-0.00031310992
2.3536667e-05
-0.000319226
2.6136041e-05
-0.00032507302
2.8900218e-05
-0.00033041274
3.1612931e-05
-0.00033495091
3.4229767e-05
-0.0003383288
3.6205615e-05
-0.00034013995
3.7616095e-05
-0.00033995126
3.7029467e-05
-0.00033719055
3.5437466e-05
-0.0003322763
2.8304384e-05
2.0784778e-05
-0.0001939147
-2.7589381e-07
-0.00019378373
-4.9042712e-07
-0.00019365344
-4.4946449e-07
-0.00019349721
-5.60952e-07
-0.00019333497
-5.7214498e-07
-0.00019316007
-6.3705463e-07
-0.00019298027
-6.6314209e-07
-0.00019279461
-7.030429e-07
-0.00019260759
-7.2666937e-07
-0.00019242049
-7.4892516e-07
-0.00019223704
-7.6161426e-07
-0.00019205986
-7.6682864e-07
-0.00019189277
-7.6324997e-07
-0.00019173917
-7.4950346e-07
-0.00019160314
-7.2589489e-07
-0.00019148856
-6.9031057e-07
-0.00019139968
-6.4303008e-07
-0.0001913407
-5.825164e-07
-0.00019131667
-5.0859984e-07
-0.00019133404
-4.1850402e-07
-0.0001913998
-3.1225524e-07
-0.00019151906
-1.8982097e-07
-0.00019169622
-5.0334117e-08
-0.00019193231
1.0231164e-07
-0.00019221992
2.6042678e-07
-0.00019255575
4.2400017e-07
-0.00019294571
5.9426118e-07
-0.00019339587
7.7170688e-07
-0.00019391117
9.5666474e-07
-0.00019449477
1.1480273e-06
-0.00019514879
1.3452752e-06
-0.00019587514
1.5481114e-06
-0.00019667538
1.7563088e-06
-0.00019755084
1.9695987e-06
-0.00019850259
2.187716e-06
-0.00019953154
2.4102788e-06
-0.00020063838
2.6369418e-06
-0.00020182358
2.8672397e-06
-0.00020308742
3.100748e-06
-0.00020442988
3.3368834e-06
-0.00020585073
3.5750789e-06
-0.00020734937
3.8145521e-06
-0.00020892491
4.0544818e-06
-0.00021057603
4.2938356e-06
-0.00021230103
4.5314378e-06
-0.00021409768
4.7659329e-06
-0.00021596328
4.9957899e-06
-0.00021789453
5.2193215e-06
-0.00021988758
5.4346834e-06
-0.00022193794
5.6399247e-06
-0.00022404053
5.833015e-06
-0.00022618966
6.0118927e-06
-0.00022837904
6.1745127e-06
-0.00023060186
6.3189136e-06
-0.00023285084
6.4432458e-06
-0.00023511827
6.5458508e-06
-0.00023739613
6.6252956e-06
-0.0002396762
6.6804176e-06
-0.00024195011
6.7103567e-06
-0.00024420953
6.714595e-06
-0.00024644624
6.6929461e-06
-0.00024865225
6.6455931e-06
-0.00025081994
6.5730743e-06
-0.00025294214
6.4762813e-06
-0.00025501225
6.3564461e-06
-0.00025702433
6.2151235e-06
-0.00025897319
6.0541813e-06
-0.00026085445
5.8757534e-06
-0.00026266461
5.6822376e-06
-0.0002644011
5.476258e-06
-0.00026606232
5.2606355e-06
-0.00026764767
5.0383597e-06
-0.00026915753
4.8125643e-06
-0.00027059334
4.5864794e-06
-0.00027195752
4.3634145e-06
-0.00027325348
4.1467225e-06
-0.00027448561
3.9397602e-06
-0.00027565921
3.7458637e-06
-0.00027678049
3.5683126e-06
-0.00027785644
3.4102926e-06
-0.00027889485
3.2748728e-06
-0.00027990419
3.1649775e-06
-0.00028089353
3.0833486e-06
-0.00028187246
3.0325499e-06
-0.000282851
3.0149158e-06
-0.00028383951
3.0325796e-06
-0.00028484858
3.0874311e-06
-0.00028588891
3.1811611e-06
-0.00028697122
3.3152251e-06
-0.00028810616
3.4909167e-06
-0.00028930417
3.7093417e-06
-0.00029057541
3.9715071e-06
-0.00029192963
4.2783054e-06
-0.00029337609
4.6306349e-06
-0.00029492344
5.02937e-06
-0.00029657963
5.475542e-06
-0.00029835181
5.9702763e-06
-0.0003002462
6.5150619e-06
-0.00030226798
7.1116093e-06
-0.00030442112
7.7622938e-06
-0.00030670822
8.4698782e-06
-0.00030913025
9.2382656e-06
-0.00031168631
1.0071862e-05
-0.00031437311
1.0977017e-05
-0.00031718459
1.1960464e-05
-0.00032011086
1.3032079e-05
-0.00032313754
1.420123e-05
-0.00032624375
1.5482049e-05
-0.00032940092
1.6884853e-05
-0.00033256924
1.8426668e-05
-0.00033569617
2.0111447e-05
-0.00033871069
2.1952289e-05
-0.00034152293
2.3927221e-05
-0.00034401658
2.6030317e-05
-0.00034605353
2.8172994e-05
-0.00034746626
3.0312949e-05
-0.00034807567
3.2222339e-05
-0.00034768474
3.3838829e-05
-0.00034613212
3.4653004e-05
-0.00034326281
3.4746781e-05
-0.0003391598
3.2926461e-05
-0.00033378048
3.0058143e-05
-0.00032844824
2.2972143e-05
1.4917137e-05
-0.00023512466
-2.8970765e-07
-0.00023505141
-5.6368271e-07
-0.0002349818
-5.1907338e-07
-0.00023489617
-6.465784e-07
-0.00023481067
-6.5764287e-07
-0.00023472184
-7.2588791e-07
-0.00023463629
-7.4869117e-07
-0.00023455444
-7.8488847e-07
-0.00023448069
-8.0041948e-07
-0.00023441692
-8.1270464e-07
-0.00023436693
-8.1159852e-07
-0.00023433336
-8.0040129e-07
-0.00023431987
-7.7674e-07
-0.00023432954
-7.3983166e-07
-0.00023436609
-6.893496e-07
-0.00023443345
-6.2294182e-07
-0.00023453657
-5.3991916e-07
-0.00023468015
-4.3893511e-07
-0.00023486852
-3.202237e-07
-0.00023510459
-1.8243194e-07
-0.00023539166
-2.5193351e-08
-0.00023572839
1.469104e-07
-0.0002361074
3.2867299e-07
-0.0002365268
5.2171213e-07
-0.0002369925
7.2613135e-07
-0.00023751113
9.4262921e-07
-0.00023808836
1.1714885e-06
-0.00023872792
1.4112698e-06
-0.00023943163
1.6603768e-06
-0.00024020156
1.9179531e-06
-0.00024103953
2.1832434e-06
-0.00024194704
2.455623e-06
-0.00024292531
2.7345771e-06
-0.00024397526
3.0195492e-06
-0.00024509759
3.3100538e-06
-0.00024629278
3.6054638e-06
-0.00024756106
3.9052225e-06
-0.00024890242
4.2086005e-06
-0.0002503166
4.51493e-06
-0.00025180303
4.8233151e-06
-0.00025336085
5.1328924e-06
-0.0002549888
5.4425045e-06
-0.00025668528
5.7509574e-06
-0.00025844823
6.0567879e-06
-0.00026027515
6.3583613e-06
-0.00026216305
6.6538296e-06
-0.0002641084
6.9411411e-06
-0.00026610715
7.2180709e-06
-0.00026815469
7.4822213e-06
-0.00027024585
7.7310915e-06
-0.00027237495
7.9621132e-06
-0.00027453577
8.1727135e-06
-0.00027672163
8.360375e-06
-0.00027892544
8.5227218e-06
-0.00028113975
8.6575512e-06
-0.00028335683
8.7629332e-06
-0.00028556879
8.8372507e-06
-0.00028776762
8.879253e-06
-0.00028994536
8.8880922e-06
-0.00029209413
8.8633701e-06
-0.0002942063
8.8051197e-06
-0.00029627456
8.713849e-06
-0.00029829201
8.5905193e-06
-0.00030025226
8.4365371e-06
-0.00030214955
8.2537342e-06
-0.00030397877
8.0443394e-06
-0.00030573555
7.8109634e-06
-0.00030741633
7.5565325e-06
-0.00030901837
7.2842835e-06
-0.00031053983
6.9977111e-06
-0.00031197972
6.7005269e-06
-0.00031333798
6.3966214e-06
-0.00031461544
6.0900295e-06
-0.00031581383
5.7848688e-06
-0.00031693573
5.4853161e-06
-0.00031798457
5.1955616e-06
-0.00031896457
4.9197571e-06
-0.00031988069
4.6619862e-06
-0.0003207386
4.4262178e-06
-0.00032154457
4.2162597e-06
-0.00032230542
4.0357292e-06
-0.00032302847
3.8880212e-06
-0.00032372137
3.7762547e-06
-0.0003243921
3.7032772e-06
-0.00032504878
3.6715966e-06
-0.00032569962
3.6834215e-06
-0.0003263528
3.7406057e-06
-0.00032701634
3.8447013e-06
-0.00032769802
3.9969046e-06
-0.00032840524
4.1981454e-06
-0.00032914495
4.449046e-06
-0.00032992348
4.7500336e-06
-0.00033074649
5.1013165e-06
-0.00033161887
5.5030137e-06
-0.00033254461
5.9551191e-06
-0.00033352676
6.4576906e-06
-0.00033456727
7.0107802e-06
-0.00033566691
7.6147036e-06
-0.0003368252
8.269902e-06
-0.00033804024
8.9773365e-06
-0.0003393086
9.7382351e-06
-0.00034062505
1.0554717e-05
-0.00034198241
1.1429219e-05
-0.00034337104
1.2365646e-05
-0.00034477853
1.3367958e-05
-0.0003461888
1.4442345e-05
-0.00034758152
1.5593952e-05
-0.0003489305
1.6831024e-05
-0.00035020299
1.8157345e-05
-0.00035135704
1.958072e-05
-0.00035234141
2.1095822e-05
-0.00035309196
2.270284e-05
-0.00035353428
2.4369536e-05
-0.00035357982
2.6075855e-05
-0.0003531357
2.7728872e-05
-0.00035210092
2.9278174e-05
-0.00035039125
3.0512664e-05
-0.00034792868
3.1376258e-05
-0.00034470369
3.1428015e-05
-0.00034070897
3.0752064e-05
-0.0003361694
2.8386896e-05
-0.00033112503
2.5013766e-05
-0.00032664855
1.8495669e-05
1.0849185e-05
-0.00026836536
-2.3648851e-07
-0.00026838502
-5.4402404e-07
-0.00026841205
-4.9204353e-07
-0.00026843606
-6.225721e-07
-0.00026846783
-6.2587185e-07
-0.00026850668
-6.8703195e-07
-0.00026855759
-6.9778293e-07
-0.00026862176
-7.2072315e-07
-0.0002687028
-7.1938178e-07
-0.0002688025
-7.1300488e-07
-0.00026892418
-6.8991347e-07
-0.00026907039
-6.5419224e-07
-0.00026924454
-6.0259014e-07
-0.00026944939
-5.3498494e-07
-0.0002696881
-4.5063725e-07
-0.00026996304
-3.4800462e-07
-0.00027027637
-2.265804e-07
-0.00027063023
-8.5080396e-08
-0.00027102529
7.4840011e-08
-0.00027145746
2.4973204e-07
-0.00027192136
4.3870583e-07
-0.00027241813
6.4368274e-07
-0.00027295338
8.6392895e-07
-0.00027353209
1.1004181e-06
-0.0002741594
1.3534378e-06
-0.00027483857
1.6218009e-06
-0.0002755707
1.9036223e-06
-0.00027635734
2.1979091e-06
-0.00027720042
2.5034552e-06
-0.00027810155
2.8190791e-06
-0.00027906205
3.1437495e-06
-0.00028008306
3.4766312e-06
-0.00028116544
3.8169535e-06
-0.0002823098
4.1639139e-06
-0.00028351656
4.5168087e-06
-0.00028478585
4.8747558e-06
-0.00028611759
5.2369672e-06
-0.00028751141
5.6024205e-06
-0.00028896665
5.9701714e-06
-0.00029048231
6.3389731e-06
-0.00029205705
6.7076279e-06
-0.00029368911
7.0745665e-06
-0.00029537634
7.4381926e-06
-0.00029711615
7.7965922e-06
-0.00029890545
8.1476646e-06
-0.0003007407
8.4890787e-06
-0.00030261785
8.8182893e-06
-0.00030453236
9.1325798e-06
-0.0003064792
9.4290649e-06
-0.00030845289
9.7047775e-06
-0.00031044749
9.9567115e-06
-0.00031245667
1.0181896e-05
-0.00031447376
1.0377464e-05
-0.00031649179
1.0540754e-05
-0.00031850358
1.0669342e-05
-0.0003205018
1.0761152e-05
-0.00032247906
1.0814507e-05
-0.00032442798
1.0828178e-05
-0.00032634131
1.0801426e-05
-0.000328212
1.0734056e-05
-0.00033003326
1.0626385e-05
-0.00033179871
1.0479291e-05
-0.00033350237
1.0294186e-05
-0.00033513884
1.0072999e-05
-0.00033670325
9.8181506e-06
-0.00033819143
9.5325136e-06
-0.00033959986
9.2193944e-06
-0.00034092577
8.8824497e-06
-0.00034216717
8.5256766e-06
-0.0003433228
8.1533485e-06
-0.00034439224
7.7699637e-06
-0.00034537582
7.3801979e-06
-0.00034627465
6.9888611e-06
-0.00034709061
6.600825e-06
-0.00034782628
6.2209915e-06
-0.00034848496
5.8542405e-06
-0.00034907057
5.5053661e-06
-0.00034958763
5.1790439e-06
-0.00035004118
4.879772e-06
-0.00035043674
4.6118224e-06
-0.00035078022
4.3792012e-06
-0.0003510778
4.1856067e-06
-0.00035133592
4.0343729e-06
-0.00035156113
3.9284845e-06
-0.00035176001
3.8704806e-06
-0.0003519391
3.8625121e-06
-0.00035210476
3.9062632e-06
-0.00035226308
4.0030208e-06
-0.00035241978
4.1536072e-06
-0.00035258013
4.3584937e-06
-0.00035274883
4.6177423e-06
-0.00035292994
4.9311437e-06
-0.00035312679
5.298171e-06
-0.00035334191
5.7181338e-06
-0.00035357692
6.1901315e-06
-0.0003538325
6.7132722e-06
-0.00035410832
7.2865924e-06
-0.00035440293
7.9093167e-06
-0.00035471375
8.5807196e-06
-0.0003550369
9.3004894e-06
-0.00035536717
1.00685e-05
-0.00035569777
1.0885321e-05
-0.00035602026
1.1751708e-05
-0.00035632413
1.266952e-05
-0.00035659663
1.3640458e-05
-0.00035682205
1.4667766e-05
-0.00035698147
1.5753364e-05
-0.00035705153
1.6901092e-05
-0.00035700437
1.8110183e-05
-0.00035680577
1.9382115e-05
-0.00035641594
2.0705995e-05
-0.00035578733
2.207423e-05
-0.00035486818
2.3450388e-05
-0.00035360028
2.4807955e-05
-0.00035192921
2.60578e-05
-0.00034980094
2.7149903e-05
-0.00034718646
2.7898183e-05
-0.00034406696
2.8256763e-05
-0.00034049819
2.7859238e-05
-0.00033653116
2.6785036e-05
-0.0003324381
2.4293834e-05
-0.00032832464
2.0900306e-05
-0.00032501702
1.5188048e-05
8.4127683e-06
-0.00029410496
-1.0280448e-07
-0.00029423597
-4.130159e-07
-0.00029437785
-3.5016338e-07
-0.00029452994
-4.7047636e-07
-0.00029469642
-4.5939276e-07
-0.00029487908
-5.0436879e-07
-0.00029508083
-4.9603887e-07
-0.0002953034
-4.9815271e-07
-0.00029554946
-4.733181e-07
-0.00029582064
-4.4182363e-07
-0.00029611918
-3.9137849e-07
-0.00029644628
-3.2708844e-07
-0.00029680381
-2.450607e-07
-0.00029719307
-1.4572346e-07
-0.00029761566
-2.8052346e-08
-0.00029807069
1.0702346e-07
-0.00029855508
2.5781121e-07
-0.00029906585
4.2569083e-07
-0.00029960202
6.110145e-07
-0.0003001665
8.1420446e-07
-0.00030076286
1.0350715e-06
-0.00030139406
1.2748797e-06
-0.00030206388
1.5337477e-06
-0.00030277417
1.8107106e-06
-0.00030352524
2.1045128e-06
-0.0003043179
2.4144579e-06
-0.00030515372
2.7394413e-06
-0.00030603401
3.078199e-06
-0.00030695983
3.4292784e-06
-0.0003079323
3.7915464e-06
-0.00030895239
4.1638356e-06
-0.00031002092
4.5451629e-06
-0.00031113853
4.9345638e-06
-0.00031230562
5.3310051e-06
-0.00031352238
5.7335724e-06
-0.00031478875
6.141117e-06
-0.00031610438
6.5526007e-06
-0.00031746864
6.9666831e-06
-0.00031888059
7.3821154e-06
-0.00032033889
7.7972726e-06
-0.00032184185
8.2105972e-06
-0.00032338738
8.6200907e-06
-0.00032497293
9.0237445e-06
-0.00032659553
9.4191962e-06
-0.00032825177
9.8038954e-06
-0.00032993775
1.017506e-05
-0.00033164916
1.05297e-05
-0.00033338125
1.0864671e-05
-0.00033512886
1.1176681e-05
-0.00033688648
1.146239e-05
-0.00033864822
1.1718459e-05
-0.00034040796
1.1941634e-05
-0.00034215931
1.2128817e-05
-0.00034389574
1.2277179e-05
-0.00034561059
1.238419e-05
-0.00034729718
1.2447744e-05
-0.00034894887
1.2466199e-05
-0.00035055913
1.2438438e-05
-0.00035212162
1.236391e-05
-0.00035363024
1.2242676e-05
-0.00035507923
1.2075378e-05
-0.00035646323
1.186329e-05
-0.00035777732
1.1608276e-05
-0.00035901709
1.1312775e-05
-0.00036017871
1.0979765e-05
-0.00036125891
1.061272e-05
-0.0003622551
1.021558e-05
-0.00036316531
9.7926585e-06
-0.00036398826
9.3486283e-06
-0.00036472336
8.8884469e-06
-0.00036537069
8.4172953e-06
-0.00036593102
7.9405246e-06
-0.00036640576
7.4636039e-06
-0.00036679697
6.9920398e-06
-0.00036710732
6.531337e-06
-0.00036734002
6.086942e-06
-0.00036749882
5.664168e-06
-0.00036758794
5.2681614e-06
-0.000367612
4.9038306e-06
-0.00036757597
4.5757972e-06
-0.00036748512
4.288343e-06
-0.00036734489
4.0453845e-06
-0.00036716091
3.8503896e-06
-0.00036693882
3.7063915e-06
-0.00036668421
3.6158737e-06
-0.00036640255
3.5808557e-06
-0.0003660991
3.6028063e-06
-0.00036577881
3.682729e-06
-0.00036544626
3.8210579e-06
-0.00036510557
4.0178085e-06
-0.00036476031
4.2724838e-06
-0.00036441344
4.584271e-06
-0.00036406725
4.9519831e-06
-0.00036372334
5.3742231e-06
-0.00036338254
5.8493282e-06
-0.00036304488
6.3756115e-06
-0.00036270954
6.9512514e-06
-0.00036237481
7.5745859e-06
-0.00036203806
8.2439773e-06
-0.00036169571
8.9581333e-06
-0.0003613431
9.7158937e-06
-0.00036097444
1.0516659e-05
-0.00036058266
1.1359933e-05
-0.00036015919
1.2246044e-05
-0.00035969375
1.3175024e-05
-0.00035917392
1.4147935e-05
-0.00035858493
1.5164371e-05
-0.00035790884
1.6225004e-05
-0.00035712467
1.7326011e-05
-0.00035620721
1.8464657e-05
-0.00035512814
1.9626924e-05
-0.0003538547
2.0800793e-05
-0.0003523534
2.1949082e-05
-0.00035058843
2.3042986e-05
-0.00034853095
2.4000325e-05
-0.00034615493
2.4773881e-05
-0.00034345844
2.5201694e-05
-0.00034044505
2.524337e-05
-0.0003371808
2.4594994e-05
-0.00033371387
2.3318101e-05
-0.00033026866
2.0848627e-05
-0.00032693133
1.756297e-05
-0.00032431373
1.2570452e-05
6.6798378e-06
-0.00031324743
1.1346645e-07
-0.00031349028
-1.7016506e-07
-0.00031374653
-9.3916772e-08
-0.00031402445
-1.9255962e-07
-0.00031432145
-1.6238302e-07
-0.00031464123
-1.8459109e-07
-0.00031498429
-1.5297693e-07
-0.00031535246
-1.299898e-07
-0.00031574701
-7.8767726e-08
-0.00031616895
-1.9876722e-08
-0.00031661878
5.8446304e-08
-0.00031709528
1.4941431e-07
-0.00031759733
2.5698947e-07
-0.0003181235
3.8043962e-07
-0.00031867234
5.2079103e-07
-0.00031924366
6.7834949e-07
-0.00031983919
8.5334137e-07
-0.00032045991
1.0464058e-06
-0.00032110688
1.2579871e-06
-0.00032178207
1.4893893e-06
-0.00032248724
1.7402401e-06
-0.00032322255
2.0101939e-06
-0.0003239876
2.2987957e-06
-0.00032478271
2.6058189e-06
-0.00032560882
2.9306268e-06
-0.00032646668
3.2723138e-06
-0.00032735676
3.6295265e-06
-0.00032827977
4.0012085e-06
-0.00032923655
4.3860541e-06
-0.00033022791
4.7829065e-06
-0.00033125458
5.1905089e-06
-0.00033231718
5.6077661e-06
-0.00033341616
6.0335446e-06
-0.00033455176
6.4666011e-06
-0.000335724
6.9058121e-06
-0.00033693264
7.3497571e-06
-0.00033817717
7.7971345e-06
-0.00033945676
8.2462724e-06
-0.00034077025
8.6956024e-06
-0.00034211609
9.1431128e-06
-0.00034349237
9.5868797e-06
-0.00034489676
1.0024481e-05
-0.00034632652
1.0453507e-05
-0.0003477785
1.0871172e-05
-0.00034924912
1.1274515e-05
-0.00035073441
1.1660352e-05
-0.00035223002
1.202531e-05
-0.00035373125
1.2365895e-05
-0.00035523306
1.2678492e-05
-0.00035673015
1.2959484e-05
-0.00035821699
1.32053e-05
-0.00035968786
1.3412504e-05
-0.00036113692
1.3577873e-05
-0.00036255825
1.3698513e-05
-0.00036394595
1.3771883e-05
-0.00036529414
1.3795933e-05
-0.00036659707
1.3769134e-05
-0.00036784918
1.3690547e-05
-0.00036904512
1.3559851e-05
-0.00037017985
1.33774e-05
-0.00037124865
1.3144179e-05
-0.00037224721
1.2861855e-05
-0.00037317167
1.253273e-05
-0.00037401862
1.2159723e-05
-0.00037478517
1.1746323e-05
-0.000375469
1.1296547e-05
-0.00037606832
1.0814897e-05
-0.00037658193
1.0306268e-05
-0.00037700922
9.7759193e-06
-0.00037735017
9.2293986e-06
-0.00037760535
8.6724716e-06
-0.00037777589
8.1110644e-06
-0.00037786348
7.5512016e-06
-0.00037787037
6.9989238e-06
-0.00037779927
6.4602381e-06
-0.00037765339
5.9410615e-06
-0.00037743635
5.4471335e-06
-0.00037715218
4.9839869e-06
-0.00037680521
4.5568589e-06
-0.00037640006
4.170655e-06
-0.0003759416
3.8298822e-06
-0.00037543481
3.5385939e-06
-0.00037488475
3.3003233e-06
-0.00037429649
3.1181365e-06
-0.00037367507
2.9944553e-06
-0.0003730254
2.9311828e-06
-0.00037235217
2.9295729e-06
-0.00037165978
2.9903426e-06
-0.00037095228
3.1135551e-06
-0.00037023329
3.2988153e-06
-0.00036950595
3.5451455e-06
-0.00036877291
3.8512356e-06
-0.00036803624
4.2153151e-06
-0.00036729739
4.6353705e-06
-0.00036655712
5.109059e-06
-0.00036581554
5.6340306e-06
-0.00036507208
6.2077933e-06
-0.00036432548
6.8279845e-06
-0.00036357372
7.4922143e-06
-0.00036281398
8.1984001e-06
-0.00036204266
8.9445679e-06
-0.00036125519
9.7291894e-06
-0.00036044604
1.055078e-05
-0.00035960845
1.1408461e-05
-0.0003587344
1.2300967e-05
-0.00035781413
1.3227675e-05
-0.00035683619
1.4186429e-05
-0.00035578674
1.5175549e-05
-0.00035464979
1.6189058e-05
-0.00035340639
1.7221257e-05
-0.00035203571
1.825625e-05
-0.00035051411
1.9279195e-05
-0.0003488184
2.0253365e-05
-0.00034692447
2.1149054e-05
-0.00034481546
2.189132e-05
-0.00034247752
2.2435943e-05
-0.00033991935
2.2643524e-05
-0.00033715422
2.2478236e-05
-0.00033425278
2.1693555e-05
-0.00033127125
2.0336573e-05
-0.00032841166
1.7989039e-05
-0.00032577156
1.4922868e-05
-0.00032378015
1.0579038e-05
5.4802911e-06
-0.00032692472
4.0705229e-07
-0.00032726753
1.726387e-07
-0.00032762237
2.6093037e-07
-0.00032800677
1.9184227e-07
-0.00032841206
2.4289822e-07
-0.00032884302
2.4637055e-07
-0.0003292975
3.0150844e-07
-0.00032977642
3.4892704e-07
-0.00033027894
4.2375065e-07
-0.00033080444
5.0562509e-07
-0.00033135258
6.0658966e-07
-0.00033192351
7.203412e-07
-0.00033251737
8.5085392e-07
-0.00033313368
9.9674329e-07
-0.00033377218
1.1592935e-06
-0.00033443292
1.3390921e-06
-0.00033511651
1.5369278e-06
-0.00033582321
1.7531011e-06
-0.00033655278
1.9875629e-06
-0.00033730427