/*--------------------------------*- C++ -*----------------------------------*\
| =========                 |                                                 |
| \\      /  F ield         | foam-extend: Open Source CFD                    |
|  \\    /   O peration     | Version:     4.1                                |
|   \\  /    A nd           | Web:         http://www.foam-extend.org         |
|    \\/     M anipulation  |                                                 |
\*---------------------------------------------------------------------------*/
FoamFile
{
    version     2.0;
    format      ascii;
    class       volScalarField;
    location    "2.5";
    object      rAU;
}
// * * * * * * * * * * * * * * * * * * * * * * * * * * * * * * * * * * * * * //

dimensions      [0 0 1 0 0 0 0];

internalField   nonuniform List<scalar> 
16126
(
0.00049576014
0.0004953425
0.00049534494
0.00049534657
0.00049534894
0.00049535113
0.00049535375
0.00049535645
0.0004953594
0.00049536252
0.00049536578
0.00049536921
0.00049537272
0.00049537635
0.00049538002
0.00049538374
0.00049538743
0.0004953911
0.00049539466
0.00049539811
0.00049540137
0.00049540444
0.00049540724
0.00049540974
0.00049541188
0.00049541366
0.00049541502
0.00049541591
0.00049541593
0.00049541501
0.00049541351
0.00049541143
0.00049540877
0.00049540548
0.00049540157
0.00049539698
0.00049539172
0.00049538573
0.00049537901
0.00049537152
0.00049536324
0.00049535414
0.00049534421
0.00049533342
0.00049532176
0.00049530921
0.00049529578
0.00049528146
0.00049526626
0.00049525018
0.00049523326
0.00049521553
0.00049519701
0.00049517777
0.00049515785
0.00049513731
0.00049511623
0.00049509468
0.00049507275
0.00049505051
0.00049502807
0.00049500552
0.00049498294
0.00049496044
0.00049493812
0.00049491607
0.00049489438
0.00049487315
0.00049485244
0.00049483235
0.00049481295
0.00049479429
0.00049477643
0.0004947594
0.00049474325
0.00049472798
0.00049471361
0.00049470012
0.00049468749
0.00049467569
0.00049466466
0.00049465433
0.00049464464
0.00049463549
0.00049462676
0.00049461835
0.00049461012
0.00049460194
0.00049459365
0.00049458509
0.00049457608
0.00049456646
0.00049455602
0.00049454456
0.00049453188
0.00049451773
0.00049450187
0.00049448404
0.00049446393
0.00049444121
0.0004944155
0.00049438632
0.00049435311
0.00049431517
0.00049427156
0.00049422107
0.00049416206
0.00049409232
0.00049400893
0.00049390787
0.00049378409
0.00049363082
0.00049344012
0.00049320177
0.00049290513
0.00049253713
0.00049208681
0.00049154061
0.00049089345
0.00049013387
0.00048928034
0.00048831488
0.00048738603
0.00048591085
0.00049483002
0.000494414
0.00049441892
0.00049442195
0.00049442685
0.00049443125
0.00049443661
0.0004944421
0.0004944481
0.0004944544
0.000494461
0.0004944679
0.00049447497
0.00049448224
0.00049448955
0.00049449692
0.00049450419
0.00049451137
0.00049451828
0.0004945249
0.00049453105
0.00049453667
0.0004945416
0.00049454581
0.00049454908
0.00049455129
0.00049455207
0.00049454955
0.00049454535
0.00049453951
0.00049453225
0.00049452355
0.00049451333
0.0004945015
0.00049448806
0.00049447292
0.00049445609
0.00049443746
0.00049441706
0.0004943948
0.00049437071
0.00049434469
0.00049431678
0.00049428695
0.00049425518
0.0004942215
0.00049418593
0.00049414849
0.00049410924
0.00049406825
0.00049402559
0.00049398137
0.00049393571
0.00049388874
0.00049384061
0.0004937915
0.00049374157
0.00049369103
0.00049364007
0.00049358891
0.00049353774
0.00049348679
0.00049343626
0.00049338635
0.00049333727
0.00049328919
0.0004932423
0.00049319674
0.00049315264
0.00049311014
0.00049306932
0.00049303024
0.00049299296
0.00049295749
0.00049292382
0.00049289191
0.00049286168
0.00049283304
0.00049280587
0.00049277999
0.00049275524
0.00049273139
0.0004927082
0.00049268542
0.00049266276
0.0004926399
0.00049261652
0.00049259226
0.00049256675
0.0004925396
0.00049251039
0.00049247869
0.00049244405
0.00049240597
0.00049236395
0.00049231744
0.00049226584
0.00049220852
0.00049214476
0.0004920738
0.00049199475
0.00049190662
0.00049180829
0.00049169847
0.00049157566
0.00049143813
0.00049128391
0.00049111068
0.00049091594
0.00049069676
0.00049045034
0.0004901734
0.00048986375
0.00048951878
0.00048913905
0.00048872461
0.00048828298
0.00048781933
0.00048735617
0.00048690394
0.0004865221
0.00048620622
0.00048615529
0.00048575118
0.00049309535
0.0004926806
0.00049268641
0.00049268932
0.00049269492
0.00049269968
0.00049270567
0.00049271168
0.00049271826
0.00049272512
0.00049273225
0.00049273964
0.00049274712
0.00049275475
0.0004927623
0.00049276982
0.00049277707
0.00049278405
0.00049279053
0.00049279649
0.00049280171
0.00049280612
0.00049280944
0.00049281154
0.00049281217
0.00049280853
0.00049280217
0.00049279235
0.0004927808
0.00049276744
0.00049275204
0.00049273459
0.00049271501
0.00049269319
0.00049266916
0.00049264279
0.00049261414
0.00049258309
0.00049254971
0.00049251389
0.0004924757
0.00049243507
0.00049239207
0.00049234669
0.00049229896
0.00049224896
0.00049219673
0.00049214238
0.000492086
0.00049202772
0.00049196771
0.00049190611
0.00049184313
0.00049177897
0.00049171386
0.00049164804
0.00049158175
0.00049151526
0.00049144882
0.00049138271
0.00049131718
0.00049125249
0.00049118888
0.00049112657
0.00049106579
0.0004910067
0.0004909495
0.0004908943
0.00049084123
0.00049079036
0.00049074174
0.00049069538
0.00049065128
0.00049060937
0.00049056956
0.00049053174
0.00049049575
0.00049046139
0.00049042846
0.00049039669
0.0004903658
0.0004903355
0.00049030544
0.00049027528
0.00049024464
0.00049021312
0.00049018033
0.00049014583
0.00049010919
0.00049006996
0.0004900277
0.00048998194
0.0004899322
0.000489878
0.00048981886
0.00048975427
0.00048968372
0.00048960669
0.00048952262
0.00048943095
0.00048933109
0.00048922242
0.00048910429
0.00048897599
0.00048883681
0.00048868594
0.00048852263
0.00048834602
0.00048815545
0.00048795018
0.00048773011
0.00048749509
0.00048724663
0.00048698622
0.000486719
0.0004864496
0.0004861902
0.00048594933
0.00048575231
0.00048560758
0.00048557058
0.00048562438
0.00048592354
0.00048589633
0.00049157414
0.00049115909
0.00049116436
0.00049116577
0.00049117041
0.00049117383
0.00049117856
0.00049118309
0.00049118811
0.00049119324
0.00049119849
0.00049120383
0.00049120908
0.00049121428
0.00049121919
0.00049122387
0.00049122805
0.00049123178
0.00049123478
0.00049123706
0.00049123829
0.00049123843
0.00049123724
0.00049123156
0.00049122265
0.00049120959
0.00049119393
0.00049117642
0.00049115677
0.00049113497
0.00049111082
0.00049108435
0.00049105551
0.00049102418
0.00049099044
0.00049095415
0.00049091542
0.00049087411
0.00049083036
0.00049078404
0.00049073531
0.00049068407
0.00049063046
0.00049057451
0.00049051629
0.0004904559
0.00049039346
0.00049032912
0.00049026302
0.00049019534
0.00049012629
0.0004900561
0.00048998498
0.00048991322
0.00048984106
0.00048976879
0.00048969668
0.00048962501
0.00048955407
0.00048948414
0.00048941546
0.00048934828
0.00048928283
0.00048921932
0.00048915793
0.0004890988
0.00048904208
0.00048898783
0.00048893613
0.000488887
0.00048884042
0.00048879637
0.00048875475
0.00048871546
0.00048867835
0.00048864324
0.00048860992
0.00048857816
0.0004885477
0.00048851823
0.00048848947
0.00048846108
0.00048843272
0.00048840403
0.00048837465
0.0004883442
0.00048831232
0.00048827863
0.00048824275
0.00048820433
0.000488163
0.00048811842
0.00048807024
0.00048801816
0.00048796186
0.00048790104
0.00048783544
0.0004877648
0.00048768887
0.00048760744
0.0004875203
0.00048742727
0.00048732817
0.00048722287
0.00048711126
0.00048699323
0.00048686881
0.00048673801
0.00048660117
0.00048645865
0.00048631154
0.00048616104
0.00048600999
0.00048586126
0.00048572106
0.00048559483
0.00048549448
0.00048542726
0.00048541448
0.00048545853
0.00048560018
0.00048581092
0.00048618817
0.00048618981
0.00049030104
0.00048988454
0.00048988802
0.00048988677
0.00048988902
0.00048988969
0.00048989159
0.00048989302
0.00048989478
0.0004898964
0.00048989794
0.00048989935
0.00048990046
0.00048990134
0.00048990174
0.00048990174
0.0004899011
0.00048989982
0.00048989765
0.00048989467
0.00048989065
0.00048988114
0.00048986946
0.00048985348
0.00048983428
0.00048981335
0.00048979034
0.00048976528
0.00048973794
0.00048970844
0.00048967661
0.00048964251
0.00048960611
0.00048956729
0.00048952617
0.00048948262
0.00048943678
0.00048938852
0.00048933801
0.00048928514
0.0004892301
0.00048917283
0.00048911349
0.00048905214
0.00048898889
0.00048892389
0.00048885729
0.00048878927
0.00048872003
0.00048864977
0.00048857875
0.00048850721
0.00048843542
0.00048836367
0.00048829223
0.00048822138
0.00048815142
0.00048808262
0.00048801525
0.00048794956
0.0004878858
0.00048782418
0.00048776489
0.00048770809
0.00048765392
0.0004876025
0.00048755389
0.00048750814
0.00048746525
0.0004874252
0.00048738793
0.00048735335
0.00048732135
0.00048729176
0.00048726441
0.0004872391
0.00048721558
0.00048719361
0.00048717292
0.00048715321
0.00048713419
0.00048711555
0.00048709696
0.00048707811
0.00048705869
0.00048703836
0.00048701684
0.00048699383
0.00048696904
0.00048694221
0.0004869131
0.00048688149
0.00048684717
0.00048680998
0.00048676976
0.0004867264
0.0004866798
0.0004866299
0.00048657666
0.00048652006
0.00048646014
0.00048639693
0.00048633052
0.00048626102
0.00048618859
0.00048611343
0.00048603587
0.00048595628
0.00048587534
0.00048579381
0.00048571311
0.00048563479
0.00048556175
0.00048549685
0.00048544555
0.00048541218
0.00048540615
0.0004854317
0.0004855045
0.00048562235
0.0004858146
0.00048605402
0.00048640428
0.00048636759
0.00048928096
0.00048886233
0.00048886306
0.00048885837
0.00048885726
0.00048885424
0.00048885231
0.00048884969
0.00048884721
0.0004888444
0.00048884134
0.000488838
0.00048883422
0.00048883005
0.00048882529
0.00048882006
0.00048881415
0.00048880769
0.0004887982
0.00048878501
0.00048877078
0.00048875115
0.00048872917
0.0004887056
0.00048868012
0.00048865276
0.00048862333
0.00048859197
0.00048855854
0.00048852315
0.00048848564
0.0004884461
0.00048840454
0.00048836083
0.00048831513
0.00048826729
0.00048821751
0.00048816566
0.00048811193
0.00048805622
0.00048799877
0.00048793952
0.00048787867
0.0004878163
0.00048775257
0.00048768765
0.0004876217
0.00048755497
0.00048748765
0.00048742
0.00048735227
0.00048728473
0.00048721767
0.00048715138
0.00048708612
0.00048702219
0.00048695985
0.00048689937
0.00048684099
0.00048678495
0.00048673143
0.00048668061
0.00048663266
0.00048658768
0.00048654577
0.00048650698
0.00048647135
0.00048643886
0.00048640947
0.00048638313
0.00048635972
0.00048633911
0.00048632116
0.00048630568
0.00048629246
0.00048628128
0.00048627189
0.00048626403
0.00048625744
0.00048625181
0.00048624687
0.00048624233
0.00048623789
0.00048623328
0.00048622821
0.00048622242
0.00048621567
0.00048620772
0.00048619836
0.0004861874
0.0004861747
0.0004861601
0.0004861435
0.00048612482
0.00048610401
0.00048608106
0.00048605596
0.00048602876
0.00048599952
0.00048596834
0.00048593532
0.00048590061
0.0004858644
0.00048582689
0.00048578834
0.00048574904
0.0004857094
0.00048566989
0.00048563123
0.00048559423
0.00048556023
0.00048553068
0.0004855081
0.00048549485
0.00048549539
0.00048551289
0.00048555457
0.00048562273
0.00048572903
0.00048586943
0.00048606485
0.0004862916
0.00048658952
0.00048649092
0.00048849688
0.00048807612
0.00048807367
0.0004880654
0.00048806062
0.00048805372
0.00048804778
0.00048804097
0.00048803418
0.00048802691
0.0004880193
0.00048801133
0.00048800289
0.00048799408
0.00048798474
0.00048797179
0.00048795697
0.00048794143
0.00048792278
0.00048790028
0.00048787629
0.00048785084
0.00048782366
0.00048779484
0.00048776419
0.0004877319
0.0004876978
0.00048766205
0.00048762449
0.0004875853
0.0004875443
0.00048750163
0.00048745729
0.00048741116
0.00048736344
0.00048731397
0.00048726298
0.00048721033
0.00048715626
0.00048710068
0.00048704384
0.0004869857
0.0004869265
0.00048686634
0.00048680539
0.00048674385
0.00048668192
0.00048661984
0.00048655784
0.00048649618
0.00048643513
0.00048637497
0.00048631596
0.00048625841
0.00048620257
0.00048614872
0.00048609709
0.00048604793
0.00048600145
0.00048595784
0.00048591725
0.00048587983
0.00048584568
0.00048581487
0.00048578745
0.00048576342
0.00048574277
0.00048572543
0.00048571134
0.00048570037
0.00048569239
0.00048568722
0.0004856847
0.0004856846
0.0004856867
0.00048569075
0.00048569649
0.00048570365
0.00048571197
0.00048572116
0.00048573093
0.00048574102
0.00048575115
0.00048576107
0.00048577052
0.00048577927
0.00048578713
0.00048579388
0.00048579938
0.00048580349
0.00048580609
0.0004858071
0.00048580647
0.00048580417
0.0004858002
0.00048579459
0.00048578739
0.00048577869
0.00048576857
0.00048575716
0.0004857446
0.00048573105
0.00048571669
0.00048570176
0.00048568648
0.00048567114
0.00048565613
0.00048564187
0.00048562903
0.00048561832
0.00048561093
0.00048560806
0.00048561184
0.00048562415
0.00048564855
0.00048568736
0.00048574626
0.00048582653
0.0004859373
0.00048607474
0.00048625452
0.00048645853
0.00048671124
0.00048656482
0.00048791554
0.00048749663
0.00048749111
0.0004874797
0.00048747153
0.00048746117
0.00048745165
0.00048744119
0.0004874307
0.0004874197
0.0004874066
0.00048739214
0.00048737682
0.00048736086
0.00048734411
0.00048732354
0.00048730079
0.00048727685
0.00048725149
0.00048722482
0.00048719661
0.00048716701
0.00048713583
0.00048710328
0.0004870692
0.00048703375
0.00048699678
0.00048695849
0.00048691871
0.00048687764
0.00048683511
0.00048679127
0.00048674613
0.00048669959
0.00048665185
0.00048660277
0.00048655259
0.00048650118
0.00048644881
0.00048639539
0.0004863412
0.00048628621
0.00048623069
0.00048617474
0.00048611857
0.00048606237
0.00048600637
0.00048595082
0.00048589595
0.00048584203
0.00048578933
0.00048573811
0.00048568865
0.00048564122
0.00048559605
0.0004855534
0.00048551349
0.00048547651
0.00048544264
0.00048541204
0.00048538482
0.00048536107
0.00048534086
0.00048532421
0.00048531112
0.00048530155
0.00048529545
0.00048529271
0.00048529321
0.0004852968
0.00048530331
0.00048531255
0.0004853243
0.00048533832
0.00048535436
0.00048537218
0.00048539149
0.00048541201
0.00048543349
0.00048545563
0.00048547815
0.00048550079
0.00048552329
0.00048554541
0.00048556691
0.0004855876
0.00048560727
0.00048562578
0.00048564298
0.00048565876
0.00048567305
0.00048568578
0.00048569693
0.0004857065
0.00048571451
0.00048572102
0.00048572609
0.00048572982
0.00048573231
0.00048573369
0.0004857341
0.00048573369
0.00048573266
0.0004857312
0.00048572954
0.00048572794
0.00048572678
0.00048572644
0.00048572752
0.0004857307
0.000485737
0.00048574751
0.00048576406
0.00048578825
0.00048582307
0.00048587039
0.00048593484
0.00048601726
0.00048612472
0.0004862537
0.0004864152
0.00048659492
0.0004868069
0.0004866174
0.00048749538
0.00048708278
0.00048707195
0.00048706032
0.00048704797
0.00048703492
0.00048702107
0.00048700657
0.00048699126
0.00048697534
0.00048695689
0.00048693683
0.00048691549
0.00048689306
0.00048686937
0.00048684456
0.00048681845
0.00048679118
0.00048676256
0.00048673277
0.00048670165
0.00048666941
0.00048663586
0.0004866012
0.00048656527
0.00048652827
0.00048649005
0.0004864508
0.00048641038
0.00048636898
0.00048632643
0.00048628291
0.00048623843
0.00048619288
0.0004861465
0.00048609915
0.00048605107
0.00048600216
0.0004859527
0.00048590259
0.00048585217
0.00048580138
0.00048575051
0.0004856997
0.00048564914
0.00048559905
0.00048554965
0.00048550119
0.00048545391
0.00048540807
0.00048536393
0.00048532174
0.00048528176
0.00048524423
0.00048520938
0.00048517743
0.00048514855
0.00048512292
0.00048510068
0.00048508195
0.0004850668
0.00048505529
0.00048504743
0.00048504322
0.00048504262
0.00048504554
0.0004850519
0.00048506156
0.00048507437
0.00048509015
0.0004851087
0.00048512981
0.00048515324
0.00048517873
0.00048520602
0.00048523485
0.00048526494
0.00048529599
0.00048532774
0.0004853599
0.0004853922
0.00048542437
0.00048545617
0.00048548735
0.0004855177
0.00048554702
0.00048557514
0.00048560191
0.00048562721
0.00048565093
0.00048567304
0.00048569347
0.00048571222
0.0004857293
0.00048574475
0.00048575862
0.00048577099
0.00048578196
0.00048579164
0.00048580015
0.00048580763
0.00048581422
0.00048582012
0.0004858255
0.0004858306
0.00048583566
0.00048584105
0.00048584714
0.00048585451
0.00048586379
0.00048587595
0.00048589198
0.00048591353
0.00048594199
0.00048597994
0.00048602896
0.00048609286
0.00048617227
0.00048627274
0.00048639134
0.00048653575
0.00048669498
0.00048687613
0.00048665379
0.00048720233
0.00048679163
0.00048677596
0.00048676415
0.00048674802
0.00048673262
0.0004867149
0.00048669677
0.00048667704
0.00048665651
0.00048663464
0.00048661181
0.00048658775
0.00048656268
0.00048653641
0.00048650913
0.00048648068
0.00048645126
0.00048642072
0.00048638924
0.00048635665
0.00048632315
0.00048628858
0.00048625315
0.0004862167
0.00048617944
0.0004861412
0.0004861022
0.00048606226
0.00048602161
0.00048598008
0.00048593783
0.00048589491
0.0004858512
0.00048580695
0.00048576203
0.00048571669
0.00048567084
0.00048562477
0.00048557839
0.00048553205
0.00048548569
0.00048543963
0.000485394
0.00048534899
0.00048530483
0.00048526173
0.00048521994
0.0004851797
0.00048514125
0.00048510484
0.00048507071
0.00048503909
0.0004850102
0.00048498425
0.00048496141
0.00048494186
0.00048492573
0.00048491313
0.00048490415
0.00048489882
0.00048489719
0.00048489922
0.00048490489
0.00048491413
0.00048492683
0.00048494288
0.00048496211
0.00048498436
0.00048500943
0.0004850371
0.00048506714
0.0004850993
0.00048513332
0.00048516893
0.00048520585
0.00048524378
0.00048528245
0.00048532159
0.00048536089
0.00048540008
0.00048543891
0.00048547712
0.00048551448
0.00048555078
0.00048558583
0.00048561945
0.00048565151
0.00048568189
0.00048571051
0.00048573732
0.00048576227
0.00048578537
0.00048580663
0.00048582611
0.00048584386
0.00048585998
0.00048587457
0.00048588775
0.00048589964
0.00048591039
0.00048592017
0.00048592916
0.00048593757
0.00048594563
0.00048595362
0.00048596189
0.00048597086
0.00048598108
0.0004859932
0.00048600813
0.00048602681
0.00048605072
0.00048608114
0.00048612026
0.00048616941
0.00048623169
0.00048630747
0.00048640089
0.00048650932
0.0004866377
0.00048677747
0.0004869317
0.00048668144
0.0004870064
0.00048659268
0.0004865753
0.00048656099
0.00048654281
0.00048652516
0.00048650532
0.00048648506
0.00048646327
0.00048644071
0.00048641688
0.00048639219
0.00048636637
0.0004863397
0.00048631197
0.00048628343
0.00048625388
0.00048622355
0.00048619226
0.00048616022
0.00048612727
0.00048609363
0.00048605912
0.00048602394
0.00048598794
0.00048595131
0.0004859139
0.00048587591
0.00048583718
0.00048579792
0.00048575797
0.0004857175
0.00048567656
0.00048563503
0.00048559318
0.00048555087
0.00048550838
0.00048546561
0.00048542285
0.00048538004
0.00048533752
0.00048529524
0.00048525352
0.00048521249
0.00048517234
0.0004851333
0.00048509558
0.00048505942
0.00048502503
0.00048499267
0.00048496255
0.0004849349
0.00048490993
0.00048488786
0.00048486885
0.00048485308
0.00048484068
0.00048483177
0.00048482644
0.00048482475
0.00048482674
0.00048483239
0.00048484168
0.00048485456
0.00048487094
0.00048489071
0.00048491373
0.00048493983
0.00048496883
0.00048500052
0.00048503467
0.00048507105
0.0004851094
0.00048514944
0.00048519091
0.00048523351
0.00048527696
0.00048532095
0.00048536522
0.00048540946
0.00048545341
0.00048549679
0.00048553934
0.00048558084
0.00048561858
0.00048565329
0.00048568862
0.00048572445
0.00048576064
0.00048579707
0.00048582664
0.00048585409
0.00048587951
0.00048590293
0.00048592441
0.000485944
0.00048596182
0.00048597797
0.00048599258
0.00048600581
0.0004860178
0.00048602873
0.00048603881
0.00048604826
0.00048605733
0.00048606632
0.0004860756
0.0004860856
0.00048609687
0.00048611005
0.000486126
0.00048614563
0.00048617024
0.00048620099
0.00048623974
0.00048628761
0.0004863471
0.00048641845
0.00048650471
0.00048660366
0.00048671835
0.0004868421
0.00048697533
0.00048670282
0.00048687868
0.00048646234
0.00048644391
0.00048642772
0.00048640821
0.000486389
0.00048636783
0.00048634623
0.00048632322
0.00048629952
0.00048627469
0.00048624912
0.00048622254
0.00048619525
0.00048616705
0.00048613817
0.00048610845
0.00048607811
0.00048604698
0.00048601526
0.00048598279
0.00048594977
0.00048591602
0.00048588176
0.00048584679
0.00048581134
0.00048577522
0.00048573865
0.00048570146
0.00048566386
0.00048562568
0.00048558711
0.00048554819
0.00048550882
0.00048546926
0.00048542937
0.00048538946
0.00048534941
0.00048530953
0.00048526976
0.00048523043
0.00048519152
0.00048515333
0.00048511598
0.00048507968
0.00048504465
0.00048501107
0.0004849792
0.00048494924
0.00048492142
0.00048489595
0.00048487305
0.00048485291
0.00048483574
0.00048482168
0.00048481091
0.00048480353
0.00048479966
0.00048479937
0.00048480273
0.00048480974
0.00048482039
0.00048483466
0.00048485247
0.00048487374
0.00048489834
0.00048492615
0.00048495697
0.00048499063
0.00048502691
0.00048506558
0.00048510639
0.00048514909
0.0004851934
0.00048523903
0.00048528569
0.00048533309
0.00048538093
0.00048542891
0.00048547673
0.00048552412
0.00048555961
0.00048559363
0.00048562866
0.00048566207
0.00048569465
0.00048573007
0.00048576819
0.00048580884
0.00048585187
0.00048589008
0.00048592815
0.00048596608
0.00048600094
0.00048602331
0.00048604366
0.00048606211
0.00048607879
0.00048609384
0.00048610742
0.00048611971
0.00048613091
0.00048614124
0.00048615096
0.00048616033
0.00048616967
0.00048617938
0.00048618989
0.00048620175
0.00048621558
0.0004862322
0.00048625244
0.00048627746
0.00048630827
0.00048634644
0.00048639287
0.0004864495
0.00048651641
0.00048659572
0.00048668549
0.00048678739
0.00048689622
0.00048701111
0.00048671988
0.00048679689
0.00048637843
0.00048635954
0.00048634208
0.00048632191
0.00048630184
0.00048628006
0.00048625785
0.00048623438
0.00048621031
0.00048618523
0.00048615951
0.00048613293
0.00048610577
0.00048607783
0.00048604935
0.00048602016
0.00048599046
0.00048596009
0.00048592925
0.00048589776
0.00048586582
0.00048583324
0.00048580023
0.0004857666
0.00048573255
0.0004856979
0.00048566285
0.00048562725
0.00048559129
0.00048555481
0.000485518
0.0004854809
0.00048544341
0.0004854058
0.00048536794
0.00048533012
0.00048529224
0.00048525461
0.00048521718
0.00048518027
0.00048514386
0.00048510826
0.00048507357
0.00048504002
0.00048500781
0.00048497712
0.00048494821
0.00048492125
0.00048489649
0.00048487412
0.00048485436
0.00048483738
0.00048482339
0.00048481254
0.00048480498
0.00048480083
0.00048480019
0.00048480313
0.00048480972
0.00048481997
0.00048483386
0.00048485137
0.00048487243
0.00048489694
0.0004849248
0.00048495586
0.00048498994
0.00048502685
0.00048506639
0.00048510831
0.00048515235
0.00048519828
0.00048524578
0.00048529457
0.00048534435
0.00048539482
0.00048544565
0.00048549655
0.00048553279
0.00048556567
0.0004855887
0.00048561244
0.00048563949
0.00048566976
0.00048570315
0.00048573952
0.00048577871
0.00048582053
0.0004858648
0.00048591132
0.00048595985
0.00048601019
0.00048605928
0.00048609756
0.00048613539
0.0004861567
0.00048617346
0.00048618851
0.00048620203
0.00048621422
0.0004862253
0.0004862355
0.0004862451
0.00048625439
0.0004862637
0.00048627343
0.00048628402
0.00048629601
0.00048631
0.00048632674
0.00048634699
0.0004863718
0.00048640201
0.00048643896
0.00048648336
0.00048653674
0.00048659907
0.00048667183
0.00048675334
0.00048684433
0.00048694068
0.0004870407
0.00048673396
0.00048674507
0.00048632504
0.00048630614
0.00048628794
0.00048626763
0.00048624724
0.0004862254
0.00048620313
0.00048617978
0.0004861559
0.00048613113
0.00048610585
0.0004860798
0.00048605327
0.00048602607
0.00048599843
0.00048597016
0.00048594148
0.00048591221
0.00048588254
0.00048585228
0.00048582161
0.00048579036
0.00048575871
0.00048572647
0.00048569383
0.0004856606
0.000485627
0.00048559284
0.00048555834
0.00048552332
0.00048548798
0.00048545236
0.00048541636
0.00048538025
0.00048534392
0.00048530764
0.00048527132
0.00048523528
0.00048519946
0.00048516419
0.00048512944
0.00048509552
0.00048506255
0.00048503073
0.00048500026
0.00048497135
0.00048494422
0.00048491906
0.0004848961
0.00048487555
0.00048485761
0.00048484247
0.00048483032
0.00048482132
0.00048481562
0.00048481335
0.00048481461
0.00048481949
0.00048482804
0.00048484028
0.00048485622
0.00048487583
0.00048489904
0.00048492576
0.00048495589
0.00048498928
0.00048502575
0.00048506512
0.00048510717
0.00048515165
0.0004851983
0.00048524687
0.00048529703
0.0004853485
0.00048540096
0.00048545409
0.0004855028
0.00048553349
0.00048555144
0.00048556813
0.0004855884
0.00048561223
0.00048563958
0.00048567033
0.00048570439
0.00048574157
0.00048578172
0.00048582461
0.00048587005
0.0004859178
0.00048596762
0.00048601926
0.00048607249
0.00048612708
0.00048618282
0.00048622344
0.00048626081
0.00048627624
0.00048628953
0.00048630148
0.0004863123
0.00048632225
0.00048633164
0.00048634076
0.00048634996
0.00048635965
0.00048637025
0.0004863823
0.00048639636
0.00048641312
0.00048643326
0.0004864577
0.00048648717
0.00048652274
0.00048656499
0.00048661503
0.00048667278
0.00048673916
0.00048681271
0.00048689355
0.00048697844
0.00048706545
0.00048674559
0.00048671211
0.00048629102
0.00048627245
0.00048625392
0.00048623387
0.00048621356
0.00048619206
0.00048617014
0.00048614728
0.00048612396
0.00048609987
0.00048607534
0.00048605014
0.00048602454
0.00048599834
0.00048597178
0.00048594465
0.00048591716
0.00048588911
0.0004858607
0.00048583173
0.00048580237
0.00048577242
0.00048574208
0.00048571114
0.00048567978
0.00048564782
0.00048561546
0.00048558251
0.00048554919
0.00048551533
0.00048548112
0.0004854466
0.00048541168
0.00048537662
0.00048534131
0.00048530604
0.00048527071
0.00048523565
0.00048520078
0.00048516645
0.00048513264
0.00048509964
0.00048506757
0.00048503665
0.00048500706
0.00048497902
0.00048495275
0.00048492845
0.00048490634
0.00048488663
0.00048486954
0.00048485526
0.00048484398
0.00048483588
0.0004848311
0.0004848298
0.00048483209
0.00048483804
0.00048484775
0.00048486123
0.00048487849
0.00048489952
0.00048492426
0.00048495263
0.0004849845
0.00048501976
0.00048505821
0.00048509967
0.0004851439
0.00048519067
0.00048523969
0.0004852907
0.00048534337
0.0004853974
0.00048545244
0.00048549839
0.00048552321
0.0004855319
0.00048554435
0.00048556062
0.0004855807
0.00048560458
0.00048563218
0.0004856634
0.0004856981
0.00048573612
0.00048577725
0.00048582127
0.00048586793
0.00048591699
0.00048596817
0.0004860212
0.00048607583
0.0004861318
0.00048618886
0.00048624678
0.00048630538
0.00048634312
0.00048637123
0.00048638281
0.00048639325
0.00048640283
0.00048641185
0.00048642064
0.00048642954
0.00048643895
0.00048644931
0.00048646112
0.00048647491
0.00048649131
0.00048651095
0.0004865346
0.00048656289
0.00048659671
0.00048663651
0.00048668312
0.00048673639
0.00048679688
0.00048686331
0.0004869354
0.00048701053
0.00048708662
0.00048675556
0.00048669068
0.00048626898
0.00048625094
0.00048623241
0.00048621284
0.00048619287
0.00048617195
0.00048615062
0.00048612848
0.00048610594
0.00048608271
0.00048605911
0.00048603491
0.00048601037
0.00048598528
0.00048595986
0.00048593391
0.00048590763
0.0004858808
0.00048585362
0.00048582586
0.00048579771
0.00048576896
0.00048573978
0.00048570996
0.00048567969
0.00048564878
0.00048561741
0.00048558541
0.00048555299
0.00048551998
0.00048548656
0.00048545278
0.00048541855
0.00048538413
0.00048534942
0.0004853147
0.00048527989
0.00048524529
0.00048521085
0.00048517692
0.00048514345
0.00048511077
0.00048507899
0.00048504833
0.00048501898
0.00048499114
0.00048496506
0.00048494094
0.000484919
0.00048489946
0.00048488255
0.00048486847
0.00048485743
0.00048484961
0.00048484517
0.00048484427
0.00048484705
0.00048485359
0.000484864
0.0004848783
0.00048489651
0.00048491863
0.00048494461
0.00048497436
0.00048500778
0.00048504473
0.00048508503
0.00048512847
0.00048517483
0.00048522385
0.00048527524
0.00048532872
0.00048538394
0.00048544058
0.00048548852
0.00048550689
0.00048551069
0.00048551843
0.00048553017
0.00048554597
0.00048556584
0.00048558975
0.00048561763
0.00048564935
0.00048568476
0.00048572369
0.00048576589
0.00048581113
0.00048585914
0.00048590962
0.00048596229
0.00048601683
0.00048607298
0.00048613044
0.00048618894
0.00048624823
0.0004863081
0.00048636833
0.00048642034
0.00048645648
0.0004864692
0.00048647834
0.00048648693
0.00048649531
0.00048650383
0.0004865129
0.00048652293
0.0004865344
0.00048654781
0.00048656372
0.0004865827
0.00048660541
0.00048663237
0.0004866643
0.00048670154
0.00048674466
0.0004867935
0.00048684829
0.00048690794
0.00048697193
0.00048703816
0.00048710465
0.000486764
0.00048667606
0.00048625411
0.00048623671
0.00048621838
0.00048619944
0.00048617997
0.00048615977
0.00048613914
0.00048611784
0.00048609615
0.00048607386
0.00048605124
0.00048602808
0.0004860046
0.00048598061
0.00048595631
0.00048593149
0.00048590634
0.00048588065
0.00048585458
0.00048582792
0.00048580083
0.0004857731
0.0004857449
0.00048571601
0.00048568662
0.00048565653
0.00048562592
0.00048559462
0.00048556283
0.00048553038
0.00048549746
0.00048546412
0.00048543026
0.00048539616
0.0004853617
0.00048532717
0.00048529249
0.00048525797
0.00048522356
0.0004851896
0.00048515606
0.00048512326
0.00048509132
0.00048506046
0.00048503087
0.00048500278
0.00048497643
0.00048495202
0.00048492979
0.00048490998
0.00048489282
0.00048487852
0.00048486731
0.00048485939
0.00048485494
0.00048485412
0.00048485709
0.00048486395
0.00048487482
0.00048488974
0.00048490874
0.00048493182
0.00048495894
0.00048499002
0.00048502494
0.00048506358
0.00048510575
0.00048515123
0.00048519978
0.00048525115
0.00048530502
0.00048536109
0.000485419
0.00048547407
0.00048549069
0.00048548918
0.00048549172
0.00048549845
0.00048550946
0.0004855248
0.00048554448
0.00048556846
0.00048559666
0.00048562895
0.00048566518
0.00048570511
0.00048574852
0.00048579511
0.00048584459
0.00048589665
0.00048595096
0.00048600718
0.000486065
0.0004861241
0.00048618418
0.00048624497
0.00048630623
0.00048636771
0.00048642923
0.00048649061
0.00048652895
0.00048654964
0.00048655765
0.00048656545
0.00048657341
0.00048658192
0.00048659138
0.00048660225
0.000486615
0.00048663013
0.00048664814
0.00048666961
0.00048669498
0.00048672481