/*--------------------------------*- C++ -*----------------------------------*\
| =========                 |                                                 |
| \\      /  F ield         | foam-extend: Open Source CFD                    |
|  \\    /   O peration     | Version:     4.1                                |
|   \\  /    A nd           | Web:         http://www.foam-extend.org         |
|    \\/     M anipulation  |                                                 |
\*---------------------------------------------------------------------------*/
FoamFile
{
    version     2.0;
    format      ascii;
    class       volVectorField;
    location    "2.5";
    object      U;
}
// * * * * * * * * * * * * * * * * * * * * * * * * * * * * * * * * * * * * * //

dimensions      [0 1 -1 0 0 0 0];

internalField   nonuniform List<vector> 
16126
(
(0.09347056 5.0281635e-05 0)
(0.093097029 4.8771613e-05 0)
(0.092993067 1.210272e-05 0)
(0.092767658 3.256073e-05 0)
(0.092535707 2.0016732e-05 0)
(0.092325516 3.0721624e-05 0)
(0.092028401 2.8560991e-05 0)
(0.091783813 3.3310744e-05 0)
(0.091452681 3.4726221e-05 0)
(0.091164816 3.7044976e-05 0)
(0.090811946 3.9024896e-05 0)
(0.090487329 3.9971552e-05 0)
(0.090120085 4.1075207e-05 0)
(0.089770803 4.0919967e-05 0)
(0.089397384 4.112173e-05 0)
(0.089037749 4.0659332e-05 0)
(0.088669151 4.0923511e-05 0)
(0.0883157 4.0783192e-05 0)
(0.087966311 4.0456911e-05 0)
(0.087636396 3.8326103e-05 0)
(0.087322005 3.4875658e-05 0)
(0.087032929 3.1989944e-05 0)
(0.086769618 3.1783618e-05 0)
(0.08654085 3.2144018e-05 0)
(0.086346804 2.6237474e-05 0)
(0.086191749 1.6654853e-05 0)
(0.08607885 2.0320164e-05 0)
(0.086018639 2.8726865e-05 0)
(0.086015526 2.4324627e-05 0)
(0.086077716 1.6642971e-05 0)
(0.086197314 1.2181446e-05 0)
(0.086373688 8.5976932e-06 0)
(0.086607305 5.3790699e-06 0)
(0.086900178 1.9420307e-06 0)
(0.08725465 -1.7937077e-06 0)
(0.087673201 -5.896126e-06 0)
(0.08815838 -1.0380124e-05 0)
(0.088712732 -1.5276163e-05 0)
(0.089338838 -2.0608791e-05 0)
(0.090039247 -2.6403459e-05 0)
(0.090816487 -3.2676206e-05 0)
(0.091672975 -3.9432717e-05 0)
(0.092610988 -4.667004e-05 0)
(0.09363258 -5.4367552e-05 0)
(0.094739495 -6.2495449e-05 0)
(0.095933102 -7.1009173e-05 0)
(0.097214289 -7.9853951e-05 0)
(0.0985834 -8.8964569e-05 0)
(0.10004014 -9.8267886e-05 0)
(0.10158351 -0.00010768632 0)
(0.10321177 -0.00011713857 0)
(0.10492238 -0.00012654279 0)
(0.10671197 -0.00013581874 0)
(0.10857635 -0.00014488803 0)
(0.11051052 -0.00015367529 0)
(0.11250869 -0.00016210933 0)
(0.11456434 -0.00017012118 0)
(0.11667025 -0.00017764387 0)
(0.1188186 -0.00018461207 0)
(0.12100104 -0.00019095946 0)
(0.12320878 -0.00019661845 0)
(0.12543267 -0.00020152076 0)
(0.12766331 -0.00020559589 0)
(0.12989118 -0.00020877295 0)
(0.1321067 -0.00021098136 0)
(0.13430038 -0.00021215413 0)
(0.13646292 -0.00021222877 0)
(0.13858531 -0.00021115079 0)
(0.140659 -0.00020887758 0)
(0.14267595 -0.00020537991 0)
(0.14462881 -0.00020064484 0)
(0.14651099 -0.00019467885 0)
(0.14831681 -0.00018750754 0)
(0.15004158 -0.0001791777 0)
(0.1516817 -0.00016975733 0)
(0.15323475 -0.00015933487 0)
(0.15469958 -0.00014801704 0)
(0.15607634 -0.00013592858 0)
(0.15736656 -0.00012320708 0)
(0.15857317 -0.00011000127 0)
(0.15970048 -9.6467646e-05 0)
(0.16075425 -8.276496e-05 0)
(0.16174158 -6.9051607e-05 0)
(0.16267097 -5.548838e-05 0)
(0.16355221 -4.2223737e-05 0)
(0.16439634 -2.93987e-05 0)
(0.1652156 -1.7127312e-05 0)
(0.16602338 -5.5039289e-06 0)
(0.16683415 5.4156816e-06 0)
(0.16766335 1.5601055e-05 0)
(0.16852751 2.5078187e-05 0)
(0.16944401 3.3908309e-05 0)
(0.17043139 4.2238358e-05 0)
(0.17150901 5.0257656e-05 0)
(0.17269768 5.827581e-05 0)
(0.17401906 6.6634022e-05 0)
(0.17549706 7.5837475e-05 0)
(0.17715646 8.6371346e-05 0)
(0.17902603 9.892997e-05 0)
(0.18113556 0.00011396933 0)
(0.18352246 0.00013210829 0)
(0.18622547 0.0001530753 0)
(0.18929879 0.00017644385 0)
(0.19279858 0.00019921397 0)
(0.19681312 0.00021732729 0)
(0.20143332 0.00022034916 0)
(0.20681682 0.00019506156 0)
(0.21312154 0.00011435984 0)
(0.2206409 -5.3353045e-05 0)
(0.22964983 -0.00036641211 0)
(0.24068848 -0.0008848904 0)
(0.25419958 -0.0017146639 0)
(0.27112772 -0.0029440288 0)
(0.29206449 -0.0047342916 0)
(0.31854783 -0.0071704255 0)
(0.35105928 -0.010461867 0)
(0.39197309 -0.01460578 0)
(0.44083128 -0.019867052 0)
(0.5014597 -0.025965118 0)
(0.57022424 -0.03337727 0)
(0.65494061 -0.040696987 0)
(0.74103611 -0.049850003 0)
(0.85367489 -0.051315482 0)
(0.92415316 -0.06280257 0)
(0.27799161 0.00019938835 0)
(0.27750197 0.00027351397 0)
(0.27718142 0.0002014657 0)
(0.27674616 0.00028106844 0)
(0.27625867 0.00026766848 0)
(0.27577673 0.0003156551 0)
(0.27519132 0.00032741373 0)
(0.27463239 0.00035674861 0)
(0.27398025 0.00037500268 0)
(0.27334799 0.00039463244 0)
(0.27264769 0.00041142648 0)
(0.27195982 0.0004246189 0)
(0.27122993 0.00043659259 0)
(0.2705116 0.00044354144 0)
(0.26977521 0.00044832469 0)
(0.26905641 0.00044707506 0)
(0.26834194 0.00044156139 0)
(0.2676566 0.00042966226 0)
(0.2669973 0.0004136534 0)
(0.26638353 0.00039286338 0)
(0.26582095 0.00036881418 0)
(0.26532571 0.00033782308 0)
(0.26490377 0.0002973827 0)
(0.26456661 0.00025069507 0)
(0.26432777 0.00020757001 0)
(0.26421495 0.00016341083 0)
(0.26423766 9.5711083e-05 0)
(0.2644198 1.3549169e-05 0)
(0.26474008 -6.3764819e-05 0)
(0.26519021 -0.00013806417 0)
(0.26577849 -0.00020999319 0)
(0.26650939 -0.0002826479 0)
(0.26738806 -0.00035735352 0)
(0.26841901 -0.00043474263 0)
(0.2696069 -0.00051506297 0)
(0.27095619 -0.00059837954 0)
(0.27247127 -0.00068472064 0)
(0.2741563 -0.00077408002 0)
(0.27601524 -0.00086643379 0)
(0.27805179 -0.00096172319 0)
(0.28026933 -0.001059842 0)
(0.28267083 -0.0011606184 0)
(0.28525876 -0.0012638127 0)
(0.288035 -0.001369087 0)
(0.29100064 -0.0014760165 0)
(0.2941559 -0.0015840708 0)
(0.29749991 -0.001692621 0)
(0.30103062 -0.0018009387 0)
(0.30474457 -0.0019082054 0)
(0.30863683 -0.0020135272 0)
(0.31270085 -0.0021159471 0)
(0.31692838 -0.0022144661 0)
(0.32130945 -0.0023080651 0)
(0.32583235 -0.0023957252 0)
(0.33048367 -0.0024764511 0)
(0.33524841 -0.0025492948 0)
(0.34011008 -0.0026133728 0)
(0.34505089 -0.0026678861 0)
(0.35005196 -0.0027121367 0)
(0.35509354 -0.0027455381 0)
(0.36015527 -0.0027676273 0)
(0.36521647 -0.0027780749 0)
(0.37025643 -0.0027766888 0)
(0.37525466 -0.0027634204 0)
(0.38019121 -0.0027383668 0)
(0.38504695 -0.0027017753 0)
(0.38980386 -0.002654041 0)
(0.39444523 -0.0025957086 0)
(0.39895598 -0.0025274713 0)
(0.40332284 -0.0024501671 0)
(0.40753458 -0.0023647734 0)
(0.41158219 -0.0022724031 0)
(0.41545905 -0.0021742925 0)
(0.4191611 -0.0020717941 0)
(0.42268693 -0.0019663619 0)
(0.42603787 -0.0018595398 0)
(0.4292181 -0.0017529409 0)
(0.43223465 -0.0016482383 0)
(0.43509742 -0.0015471366 0)
(0.4378192 -0.0014513653 0)
(0.4404156 -0.0013626488 0)
(0.44290501 -0.0012827022 0)
(0.4453085 -0.0012131976 0)
(0.44764976 -0.0011557656 0)
(0.44995493 -0.0011119645 0)
(0.45225257 -0.0010833036 0)
(0.4545735 -0.0010712177 0)
(0.45695071 -0.0010771078 0)
(0.45941929 -0.0011023087 0)
(0.46201637 -0.0011481628 0)
(0.46478116 -0.0012159883 0)
(0.46775493 -0.0013071961 0)
(0.47098123 -0.0014232626 0)
(0.47450591 -0.0015658919 0)
(0.47837773 -0.0017369712 0)
(0.48264823 -0.0019388499 0)
(0.48737308 -0.0021742419 0)
(0.49261157 -0.0024467429 0)
(0.49842912 -0.0027606212 0)
(0.50489592 -0.0031218048 0)
(0.51209156 -0.0035373962 0)
(0.52010143 -0.0040176498 0)
(0.52902546 -0.0045748227 0)
(0.53896929 -0.0052271546 0)
(0.5500611 -0.0059960363 0)
(0.56243066 -0.0069139467 0)
(0.5762427 -0.0080173125 0)
(0.59164883 -0.0093620478 0)
(0.60885574 -0.011005598 0)
(0.62801727 -0.013037146 0)
(0.64937901 -0.015533648 0)
(0.67303869 -0.018619996 0)
(0.69926429 -0.022366114 0)
(0.72796129 -0.026914796 0)
(0.75939849 -0.032250867 0)
(0.79299653 -0.03849687 0)
(0.82905548 -0.04539439 0)
(0.86586921 -0.053048495 0)
(0.90407451 -0.06063534 0)
(0.93929199 -0.068546151 0)
(0.97386934 -0.074222604 0)
(0.99688891 -0.080411835 0)
(1.0166002 -0.074769922 0)
(1.0120317 -0.080167561 0)
(0.44973247 0.00037674077 0)
(0.44924146 0.00059097557 0)
(0.44881166 0.00050766883 0)
(0.4483128 0.00065430386 0)
(0.44772195 0.00065646268 0)
(0.44714492 0.00074769212 0)
(0.44646506 0.0007831634 0)
(0.44580564 0.00084368496 0)
(0.44506747 0.00088459744 0)
(0.44434456 0.00092632174 0)
(0.44357212 0.00095949789 0)
(0.44281426 0.00098453761 0)
(0.44203463 0.0010024003 0)
(0.44127622 0.0010090588 0)
(0.44052241 0.0010075179 0)
(0.43980363 0.00099389843 0)
(0.43911718 0.00097085647 0)
(0.43848771 0.00093495288 0)
(0.43792023 0.00088651209 0)
(0.43743468 0.00082038112 0)
(0.4370392 0.00073743096 0)
(0.43675172 0.00064103959 0)
(0.43659297 0.00053611865 0)
(0.43659216 0.00041547861 0)
(0.43676245 0.00025921678 0)
(0.43712409 7.4011661e-05 0)
(0.43766753 -0.00011737455 0)
(0.43835882 -0.00030564039 0)
(0.43922209 -0.00048883153 0)
(0.44026575 -0.00067462305 0)
(0.44150139 -0.00086586747 0)
(0.44293638 -0.0010625625 0)
(0.44457678 -0.0012653463 0)
(0.44642785 -0.0014744374 0)
(0.44849433 -0.0016898931 0)
(0.45078058 -0.0019115956 0)
(0.45329051 -0.0021393569 0)
(0.45602757 -0.0023729329 0)
(0.45899473 -0.0026120293 0)
(0.46219441 -0.0028562819 0)
(0.46562842 -0.0031052282 0)
(0.4692979 -0.003358276 0)
(0.47320315 -0.0036146843 0)
(0.4773436 -0.0038735175 0)
(0.48171756 -0.0041336467 0)
(0.48632213 -0.004393721 0)
(0.49115301 -0.0046521723 0)
(0.49620433 -0.0049072173 0)
(0.50146851 -0.0051568761 0)
(0.50693615 -0.0053990027 0)
(0.51259588 -0.0056313203 0)
(0.51843436 -0.0058514703 0)
(0.52443624 -0.0060570666 0)
(0.53058423 -0.006245752 0)
(0.53685919 -0.0064152585 0)
(0.54324028 -0.0065634681 0)
(0.54970516 -0.0066884645 0)
(0.5562303 -0.0067885842 0)
(0.5627912 -0.0068624594 0)
(0.5693628 -0.0069090496 0)
(0.57591977 -0.0069276679 0)
(0.58243689 -0.0069180002 0)
(0.58888945 -0.0068801113 0)
(0.59525356 -0.0068144505 0)
(0.60150656 -0.0067218458 0)
(0.60762731 -0.0066034994 0)
(0.61359653 -0.0064609719 0)
(0.61939706 -0.0062961695 0)
(0.62501415 -0.0061113256 0)
(0.63043566 -0.0059089801 0)
(0.63565226 -0.0056919542 0)
(0.64065761 -0.0054633282 0)
(0.64544847 -0.005226408 0)
(0.65002479 -0.0049846992 0)
(0.65438982 -0.0047418693 0)
(0.6585501 -0.0045017184 0)
(0.66251546 -0.0042681338 0)
(0.66629903 -0.0040450632 0)
(0.66991714 -0.0038364637 0)
(0.67338928 -0.0036462766 0)
(0.67673793 -0.0034783809 0)
(0.67998843 -0.0033365699 0)
(0.68316887 -0.0032245112 0)
(0.68630985 -0.0031457565 0)
(0.68944427 -0.0031036831 0)
(0.69260719 -0.0031015337 0)
(0.69583552 -0.003142367 0)
(0.69916788 -0.0032291261 0)
(0.70264436 -0.0033646101 0)
(0.70630632 -0.003551588 0)
(0.71019622 -0.0037927728 0)
(0.71435737 -0.0040909881 0)
(0.71883396 -0.0044491385 0)
(0.72367073 -0.0048704511 0)
(0.72891312 -0.0053584378 0)
(0.73460687 -0.0059172633 0)
(0.74079845 -0.0065516453 0)
(0.74753428 -0.0072674245 0)
(0.75486173 -0.0080713162 0)
(0.76282758 -0.0089719282 0)
(0.77147994 -0.0099791525 0)
(0.780865 -0.011106078 0)
(0.79103104 -0.012367521 0)
(0.8020212 -0.013783772 0)
(0.81388188 -0.015377076 0)
(0.82664706 -0.017179039 0)
(0.8403559 -0.019222258 0)
(0.85501898 -0.021554965 0)
(0.87065637 -0.024221193 0)
(0.88722494 -0.027289875 0)
(0.90470367 -0.030808419 0)
(0.9229365 -0.034862038 0)
(0.94183031 -0.039467192 0)
(0.96100941 -0.044700048 0)
(0.98028963 -0.050455588 0)
(0.99888984 -0.056750961 0)
(1.0166035 -0.063167251 0)
(1.0318952 -0.069640603 0)
(1.0449027 -0.07501424 0)
(1.0525734 -0.079397707 0)
(1.056559 -0.079566477 0)
(1.0507428 -0.077511343 0)
(1.040347 -0.062576335 0)
(1.0190182 -0.047400729 0)
(0.60131853 0.0005247082 0)
(0.60094319 0.00089516188 0)
(0.60052736 0.00081195467 0)
(0.60011329 0.0010191526 0)
(0.59957885 0.0010384359 0)
(0.59909048 0.0011632776 0)
(0.59850821 0.0012154175 0)
(0.59796489 0.0012956371 0)
(0.59736555 0.0013467898 0)
(0.59679889 0.0013967221 0)
(0.59621043 0.0014311477 0)
(0.5956578 0.0014535954 0)
(0.59511469 0.0014627675 0)
(0.59461976 0.001455167 0)
(0.59416396 0.0014318459 0)
(0.59377517 0.0013871654 0)
(0.59345446 0.0013209175 0)
(0.59322344 0.0012301361 0)
(0.59308926 0.0011172921 0)
(0.59307414 0.0009821641 0)
(0.59319727 0.00082644187 0)
(0.59348172 0.00063826143 0)
(0.5939366 0.00040513083 0)
(0.59457982 0.00013706868 0)
(0.59540083 -0.00014671455 0)
(0.59636304 -0.00043696317 0)
(0.5974827 -0.00072608614 0)
(0.59878079 -0.0010230726 0)
(0.60027384 -0.0013352703 0)
(0.60197557 -0.0016582797 0)
(0.60389219 -0.0019914355 0)
(0.60603047 -0.0023343262 0)
(0.60839558 -0.0026868123 0)
(0.61099199 -0.0030486759 0)
(0.61382339 -0.003419548 0)
(0.61689288 -0.0037989395 0)
(0.62020289 -0.0041862848 0)
(0.62375527 -0.0045809461 0)
(0.62755117 -0.0049822078 0)
(0.63159104 -0.0053892463 0)
(0.63587448 -0.0058010901 0)
(0.64040026 -0.006216575 0)
(0.64516608 -0.0066343102 0)
(0.65016858 -0.0070526232 0)
(0.65540309 -0.0074695499 0)
(0.66086355 -0.0078828022 0)
(0.66654236 -0.0082897741 0)
(0.67243024 -0.0086875504 0)
(0.67851614 -0.0090729401 0)
(0.68478713 -0.0094425259 0)
(0.69122839 -0.009792727 0)
(0.69782319 -0.010119879 0)
(0.70455295 -0.010420324 0)
(0.71139735 -0.010690501 0)
(0.71833447 -0.010927047 0)
(0.72534101 -0.01112689 0)
(0.73239253 -0.011287336 0)
(0.73946377 -0.011406145 0)
(0.74652892 -0.011481595 0)
(0.75356203 -0.011512531 0)
(0.76053733 -0.011498402 0)
(0.76742962 -0.011439278 0)
(0.77421461 -0.011335855 0)
(0.78086928 -0.011189455 0)
(0.78737224 -0.011002001 0)
(0.79370396 -0.010776 0)
(0.79984714 -0.010514506 0)
(0.80578688 -0.010221086 0)
(0.81151094 -0.0098997779 0)
(0.81700987 -0.0095550473 0)
(0.82227717 -0.0091917371 0)
(0.82730942 -0.0088150234 0)
(0.83210629 -0.0084303566 0)
(0.83667059 -0.0080434151 0)
(0.84100829 -0.007660042 0)
(0.84512848 -0.0072861986 0)
(0.84904325 -0.0069278928 0)
(0.85276767 -0.0065911393 0)
(0.85631959 -0.0062818808 0)
(0.85971955 -0.0060059566 0)
(0.8629905 -0.0057690214 0)
(0.86615771 -0.0055765318 0)
(0.8692484 -0.0054336556 0)
(0.87229159 -0.005345273 0)
(0.87531776 -0.0053158978 0)
(0.87835856 -0.0053497288 0)
(0.88144655 -0.0054505889 0)
(0.88461479 -0.0056220054 0)
(0.88789659 -0.005867139 0)
(0.89132514 -0.006188923 0)
(0.89493322 -0.0065900044 0)
(0.89875282 -0.0070729485 0)
(0.90281491 -0.0076401986 0)
(0.90714899 -0.0082943095 0)
(0.91178296 -0.0090378921 0)
(0.91674256 -0.0098739605 0)
(0.92205138 -0.010805807 0)
(0.92773007 -0.011837565 0)
(0.93379666 -0.012973964 0)
(0.94026509 -0.014221244 0)
(0.94714621 -0.015586604 0)
(0.95444503 -0.017079903 0)
(0.96216299 -0.018712337 0)
(0.97029241 -0.020499708 0)
(0.97882157 -0.022459214 0)
(0.98772311 -0.024615754 0)
(0.99696534 -0.026994136 0)
(1.0064876 -0.02963122 0)
(1.0162257 -0.032557285 0)
(1.0260598 -0.035819826 0)
(1.0358735 -0.039440234 0)
(1.0454413 -0.043463156 0)
(1.0545728 -0.047858929 0)
(1.0628638 -0.052635712 0)
(1.0700547 -0.057622479 0)
(1.0754596 -0.062748671 0)
(1.0788653 -0.067539913 0)
(1.079155 -0.071875677 0)
(1.0765691 -0.074659763 0)
(1.0693274 -0.076084446 0)
(1.0590727 -0.073458349 0)
(1.0434779 -0.068819167 0)
(1.0261584 -0.054129851 0)
(1.009969 -0.03778255 0)
(0.72894006 0.00061540169 0)
(0.72881217 0.0011315432 0)
(0.72852534 0.0010454551 0)
(0.72834661 0.001298909 0)
(0.72802187 0.0013259084 0)
(0.72779522 0.0014692701 0)
(0.72748737 0.001524965 0)
(0.72725256 0.0016096473 0)
(0.72698911 0.0016561826 0)
(0.72678849 0.0016982708 0)
(0.72659874 0.0017163351 0)
(0.72647484 0.001715417 0)
(0.72639335 0.0016913824 0)
(0.72638918 0.0016420285 0)
(0.72645479 0.0015675758 0)
(0.72661466 0.0014650288 0)
(0.72687331 0.0013359542 0)
(0.72725338 0.0011769672 0)
(0.72776396 0.00098478605 0)
(0.72842109 0.00074764704 0)
(0.72922759 0.00046319089 0)
(0.73020057 0.00014425967 0)
(0.73131586 -0.00019819531 0)
(0.73255039 -0.00055932873 0)
(0.73391594 -0.00092918811 0)
(0.73543764 -0.0013160217 0)
(0.73713164 -0.0017304367 0)
(0.7390164 -0.0021664525 0)
(0.74109689 -0.0026186368 0)
(0.74337945 -0.0030863875 0)
(0.74587042 -0.0035684021 0)
(0.74857486 -0.0040637443 0)
(0.751497 -0.004571625 0)
(0.75464012 -0.0050912321 0)
(0.75800671 -0.0056217129 0)
(0.7615986 -0.0061621192 0)
(0.76541688 -0.0067114323 0)
(0.76946193 -0.007268539 0)
(0.77373334 -0.0078322119 0)
(0.77822985 -0.0084010679 0)
(0.78294924 -0.0089735149 0)
(0.78788828 -0.0095477008 0)
(0.79304256 -0.010121463 0)
(0.79840643 -0.010692278 0)
(0.80397287 -0.011257237 0)
(0.80973336 -0.011813026 0)
(0.81567783 -0.012355935 0)
(0.82179455 -0.012881879 0)
(0.82807008 -0.013386453 0)
(0.83448928 -0.013865004 0)
(0.84103532 -0.014312723 0)
(0.84768969 -0.014724753 0)
(0.8544324 -0.015096313 0)
(0.86124204 -0.015422826 0)
(0.86809601 -0.015700044 0)
(0.87497074 -0.015924174 0)
(0.88184192 -0.016091989 0)
(0.88868486 -0.016200926 0)
(0.8954747 -0.016249163 0)
(0.90218682 -0.01623568 0)
(0.9087971 -0.016160296 0)
(0.91528229 -0.016023684 0)
(0.92162028 -0.015827373 0)
(0.92779044 -0.015573727 0)
(0.93377386 -0.015265916 0)
(0.93955362 -0.014907868 0)
(0.945115 -0.014504217 0)
(0.95044566 -0.014060247 0)
(0.95553582 -0.01358182 0)
(0.96037834 -0.013075313 0)
(0.96496882 -0.012547543 0)
(0.96930565 -0.012005696 0)
(0.97339003 -0.011457248 0)
(0.97722593 -0.010909894 0)
(0.98082004 -0.010371459 0)
(0.98418171 -0.0098498384 0)
(0.98732283 -0.0093528963 0)
(0.99025768 -0.0088884106 0)
(0.99300278 -0.0084639711 0)
(0.99557669 -0.0080869278 0)
(0.99799977 -0.0077642965 0)
(1.000294 -0.0075027052 0)
(1.0024826 -0.0073083155 0)
(1.00459 -0.0071868408 0)
(1.0066412 -0.0071434142 0)
(1.0086614 -0.0071826531 0)
(1.0106764 -0.0073085441 0)
(1.0127111 -0.0075245439 0)
(1.0147903 -0.0078335066 0)
(1.0169376 -0.0082378467 0)
(1.0191752 -0.0087394667 0)
(1.0215237 -0.0093399801 0)
(1.024002 -0.01004062 0)
(1.0266264 -0.010842536 0)
(1.0294108 -0.011746719 0)
(1.0323661 -0.012754405 0)
(1.0355001 -0.013866949 0)
(1.0388172 -0.015086324 0)
(1.042318 -0.016414882 0)
(1.0459986 -0.017856161 0)
(1.0498513 -0.019414361 0)
(1.0538623 -0.021095723 0)
(1.0580135 -0.022907256 0)
(1.0622778 -0.024859333 0)
(1.0666233 -0.026962632 0)
(1.0710039 -0.02923308 0)
(1.0753677 -0.031684644 0)
(1.079638 -0.034338963 0)
(1.083733 -0.037208606 0)
(1.0875256 -0.040316527 0)
(1.0908915 -0.043658044 0)
(1.0936241 -0.047242798 0)
(1.0955526 -0.051009906 0)
(1.0963552 -0.054926667 0)
(1.0958525 -0.058798179 0)
(1.0935742 -0.062519574 0)
(1.0894787 -0.065624198 0)
(1.0829081 -0.067974922 0)
(1.0743096 -0.068565355 0)
(1.0627629 -0.067547838 0)
(1.0497493 -0.062682584 0)
(1.0343448 -0.055558341 0)
(1.0187211 -0.041037932 0)
(1.0063664 -0.024396835 0)
(0.83178868 0.00058255909 0)
(0.83203949 0.0011986009 0)
(0.83197639 0.0011005558 0)
(0.83215724 0.0013740979 0)
(0.8321621 0.0013929561 0)
(0.83232734 0.0015316804 0)
(0.8324225 0.0015702951 0)
(0.83262889 0.0016351981 0)
(0.8328305 0.0016528379 0)
(0.83312398 0.0016614262 0)
(0.83345394 0.001638719 0)
(0.8338746 0.0015933248 0)
(0.83436321 0.0015196604 0)
(0.83495233 0.0014166173 0)
(0.83563473 0.0012827905 0)
(0.8364313 0.0011111676 0)
(0.83734012 0.00089703574 0)
(0.83837341 0.00063801213 0)
(0.8395343 0.00033850281 0)
(0.84082251 5.6156395e-06 0)
(0.84221425 -0.0003585337 0)
(0.84369852 -0.00074948247 0)
(0.84529408 -0.0011588841 0)
(0.84701703 -0.0015969622 0)
(0.84888222 -0.0020722005 0)
(0.85090634 -0.0025797167 0)
(0.85309302 -0.0031113917 0)
(0.85544557 -0.0036666925 0)
(0.8579702 -0.0042442877 0)
(0.86067265 -0.004841307 0)
(0.86355719 -0.0054559811 0)
(0.86662779 -0.0060866108 0)
(0.86988745 -0.0067318281 0)
(0.87333851 -0.0073902933 0)
(0.87698253 -0.008060653 0)
(0.88082038 -0.0087414816 0)
(0.88485216 -0.0094312597 0)
(0.88907719 -0.010128343 0)
(0.89349387 -0.010830921 0)
(0.89809967 -0.011536972 0)
(0.90289097 -0.0122442 0)
(0.90786302 -0.012949985 0)
(0.91300977 -0.013651325 0)
(0.91832388 -0.014344796 0)
(0.92379657 -0.015026528 0)
(0.92941757 -0.015692196 0)
(0.93517511 -0.016337043 0)
(0.94105589 -0.016955918 0)
(0.94704507 -0.01754335 0)
(0.95312633 -0.018093642 0)
(0.95928193 -0.018600986 0)
(0.96549284 -0.019059601 0)
(0.97173885 -0.019463876 0)
(0.97799879 -0.019808523 0)
(0.98425065 -0.020088726 0)
(0.99047189 -0.020300286 0)
(0.99663961 -0.020439744 0)
(1.0027309 -0.020504493 0)
(1.0087229 -0.020492862 0)
(1.0145935 -0.02040418 0)
(1.0203212 -0.020238811 0)
(1.0258854 -0.019998165 0)
(1.0312669 -0.019684686 0)
(1.0364481 -0.019301824 0)
(1.041413 -0.018853982 0)
(1.0461475 -0.018346459 0)
(1.0506397 -0.017785371 0)
(1.0548798 -0.017177574 0)
(1.0588603 -0.016530571 0)
(1.0625764 -0.015852431 0)
(1.0660253 -0.015151683 0)
(1.0692069 -0.014437232 0)
(1.0721234 -0.013718252 0)
(1.0747796 -0.013004102 0)
(1.0771824 -0.012304212 0)
(1.0793408 -0.01162801 0)
(1.0812662 -0.010984795 0)
(1.0829716 -0.010383678 0)
(1.0844719 -0.0098334515 0)
(1.0857836 -0.0093425401 0)
(1.0869244 -0.0089188618 0)
(1.0879131 -0.0085698303 0)
(1.0887694 -0.008302184 0)
(1.0895135 -0.0081219801 0)
(1.0901657 -0.0080344558 0)
(1.0907465 -0.0080441195 0)
(1.0912761 -0.0081546487 0)
(1.0917736 -0.008369007 0)
(1.0922576 -0.0086892883 0)
(1.0927452 -0.0091169326 0)
(1.0932518 -0.0096525901 0)
(1.0937911 -0.010296433 0)
(1.0943747 -0.011048088 0)
(1.0950116 -0.011906903 0)
(1.0957085 -0.012871875 0)
(1.0964687 -0.013942024 0)
(1.0972931 -0.015116231 0)
(1.0981788 -0.016393805 0)
(1.0991197 -0.017774271 0)
(1.1001058 -0.019258071 0)
(1.1011234 -0.020846103 0)
(1.1021534 -0.022540908 0)
(1.1031732 -0.024345575 0)
(1.1041528 -0.026265832 0)
(1.1050576 -0.028307412 0)
(1.105842 -0.030479931 0)
(1.1064558 -0.032790614 0)
(1.1068297 -0.035251806 0)
(1.1068915 -0.037866451 0)
(1.1065357 -0.040643566 0)
(1.105663 -0.043565664 0)
(1.1041149 -0.046623625 0)
(1.1017719 -0.049744829 0)
(1.0984068 -0.052878971 0)
(1.0939253 -0.05583675 0)
(1.0880237 -0.058514473 0)
(1.0807633 -0.060506047 0)
(1.0717619 -0.061715859 0)
(1.0614964 -0.061326034 0)
(1.0495265 -0.059527387 0)
(1.0370391 -0.05458228 0)
(1.0239829 -0.047706288 0)
(1.0116597 -0.035210843 0)
(1.0034083 -0.020178554 0)
(0.91134426 0.00039540161 0)
(0.9120478 0.0010496266 0)
(0.91225487 0.00093311841 0)
(0.91285856 0.0011988176 0)
(0.91324589 0.0011936261 0)
(0.91385731 0.0013075827 0)
(0.91440168 0.0013134081 0)
(0.91509188 0.0013433141 0)
(0.91579298 0.001320206 0)
(0.91660951 0.0012853993 0)
(0.91747993 0.0012128544 0)
(0.91845645 0.0011106626 0)
(0.91951078 0.00097096551 0)
(0.92067119 0.00079435111 0)
(0.92192553 0.00057890043 0)
(0.92329016 0.00032560444 0)
(0.9247475 3.7748361e-05 0)
(0.92629289 -0.00028743386 0)
(0.92791478 -0.00064759715 0)
(0.92961681 -0.0010368863 0)
(0.93141456 -0.0014548224 0)
(0.93331418 -0.0019122479 0)
(0.93532817 -0.0024130099 0)
(0.93746702 -0.0029516934 0)
(0.93973195 -0.0035221495 0)
(0.94212363 -0.0041240595 0)
(0.94464648 -0.0047571929 0)
(0.94730569 -0.0054180967 0)
(0.95010427 -0.0061033733 0)
(0.9530458 -0.0068107686 0)
(0.95613355 -0.0075380173 0)
(0.95937034 -0.0082831927 0)
(0.96275845 -0.0090444719 0)
(0.96629951 -0.009820067 0)
(0.96999443 -0.010608151 0)
(0.97384343 -0.0114068 0)
(0.97784589 -0.012213955 0)
(0.98200035 -0.01302738 0)
(0.98630434 -0.013844611 0)
(0.99075438 -0.014662913 0)
(0.99534581 -0.01547921 0)
(1.0000728 -0.016290046 0)
(1.0049281 -0.017091526 0)
(1.0099032 -0.017879294 0)
(1.0149882 -0.018648511 0)
(1.0201718 -0.01939387 0)
(1.0254413 -0.020109622 0)
(1.0307826 -0.020789645 0)
(1.0361803 -0.021427532 0)
(1.0416178 -0.0220167 0)
(1.0470774 -0.022550534 0)
(1.0525406 -0.023022535 0)
(1.0579878 -0.023426486 0)
(1.063399 -0.02375662 0)
(1.0687536 -0.024007785 0)
(1.0740311 -0.024175594 0)
(1.0792105 -0.024256563 0)
(1.0842715 -0.024248226 0)
(1.0891941 -0.024149222 0)
(1.0939589 -0.023959357 0)
(1.0985475 -0.023679634 0)
(1.1029427 -0.02331226 0)
(1.1071283 -0.022860622 0)
(1.11109 -0.022329246 0)
(1.1148149 -0.02172373 0)
(1.118292 -0.021050671 0)
(1.1215122 -0.020317568 0)
(1.1244684 -0.019532729 0)
(1.1271555 -0.018705153 0)
(1.1295706 -0.017844435 0)
(1.1317131 -0.016960638 0)
(1.1335841 -0.016064193 0)
(1.1351871 -0.01516577 0)
(1.1365275 -0.01427618 0)
(1.1376126 -0.013406242 0)
(1.1384516 -0.012566696 0)
(1.1390553 -0.011768056 0)
(1.1394362 -0.011020542 0)
(1.1396079 -0.010333927 0)
(1.1395853 -0.0097174729 0)
(1.1393845 -0.009179804 0)
(1.139022 -0.0087287896 0)
(1.1385151 -0.0083714628 0)
(1.1378813 -0.0081140981 0)
(1.1371381 -0.0079619537 0)
(1.1363028 -0.0079194135 0)
(1.1353919 -0.0079897611 0)
(1.1344213 -0.0081753465 0)
(1.1334061 -0.0084774711 0)
(1.1323595 -0.0088966421 0)
(1.1312938 -0.0094324431 0)
(1.130219 -0.010083867 0)
(1.1291432 -0.010849092 0)
(1.1280726 -0.011725913 0)
(1.127011 -0.012711595 0)
(1.1259596 -0.013803413 0)
(1.1249175 -0.014998512 0)
(1.1238805 -0.016294331 0)
(1.1228422 -0.017688369 0)
(1.1217927 -0.019178869 0)
(1.1207197 -0.0207644 0)
(1.1196066 -0.022444761 0)
(1.1184341 -0.024219999 0)
(1.1171775 -0.02609201 0)
(1.1158088 -0.028062161 0)
(1.1142916 -0.030134258 0)
(1.1125864 -0.032309057 0)
(1.1106393 -0.034590161 0)
(1.1083957 -0.0369716 0)
(1.1057761 -0.039450502 0)
(1.1027098 -0.041999565 0)
(1.0990826 -0.044596661 0)
(1.0948196 -0.047163971 0)
(1.0897668 -0.049642348 0)
(1.0838884 -0.051852899 0)
(1.0769923 -0.053692657 0)
(1.0691832 -0.054799194 0)
(1.060234 -0.055079441 0)
(1.0505552 -0.053837995 0)
(1.0399174 -0.051216417 0)
(1.029153 -0.045891197 0)
(1.0184525 -0.038787956 0)
(1.0085201 -0.027716847 0)
(1.002219 -0.014800159 0)
(0.97044473 3.0383653e-05 0)
(0.97160929 0.00065778422 0)
(0.9720843 0.00051474426 0)
(0.97310853 0.00074618515 0)
(0.97386747 0.0007057468 0)
(0.97490948 0.00077766144 0)
(0.97587751 0.00073748753 0)
(0.97701783 0.00071625538 0)
(0.97817286 0.00063664757 0)
(0.97945528 0.00054098337 0)
(0.98079493 0.0004046765 0)
(0.98224006 0.00024093036 0)
(0.98375215 4.1593367e-05 0)
(0.9853507 -0.00019222007 0)
(0.98701587 -0.00046238252 0)
(0.98875258 -0.00076651928 0)
(0.99055869 -0.0011017289 0)
(0.99244438 -0.0014709463 0)
(0.99440746 -0.0018778682 0)
(0.99645536 -0.0023290066 0)
(0.99859387 -0.0028235112 0)
(1.0008273 -0.003356693 0)
(1.0031528 -0.0039260354 0)
(1.0055705 -0.0045324954 0)
(1.0080826 -0.0051765785 0)
(1.0106924 -0.0058556723 0)
(1.0134013 -0.0065659305 0)
(1.0162109 -0.0073052867 0)
(1.0191239 -0.0080712845 0)
(1.022143 -0.008861307 0)
(1.0252704 -0.009673015 0)
(1.0285083 -0.010504094 0)
(1.0318585 -0.011352354 0)
(1.035322 -0.012215569 0)
(1.0388992 -0.013091436 0)
(1.0425899 -0.01397751 0)
(1.0463928 -0.014871151 0)
(1.050306 -0.01576949 0)
(1.0543263 -0.016669366 0)
(1.0584496 -0.017567289 0)
(1.0626705 -0.018459378 0)
(1.0669825 -0.01934133 0)
(1.0713778 -0.020208372 0)
(1.0758471 -0.021055254 0)
(1.08038 -0.021876243 0)
(1.0849649 -0.022665146 0)
(1.0895888 -0.023415367 0)
(1.0942377 -0.02411998 0)
(1.0988964 -0.024771839 0)
(1.1035489 -0.0253637 0)
(1.1081784 -0.02588838 0)
(1.1127674 -0.026338918 0)
(1.1172978 -0.026708752 0)
(1.1217515 -0.026991893 0)
(1.1261101 -0.027183097 0)
(1.1303552 -0.027278022 0)
(1.1344688 -0.027273366 0)
(1.1384334 -0.027166983 0)
(1.1422319 -0.026957966 0)
(1.1458482 -0.026646707 0)
(1.1492672 -0.026234919 0)
(1.1524748 -0.025725635 0)
(1.1554583 -0.025123178 0)
(1.1582064 -0.024433103 0)
(1.1607094 -0.023662121 0)
(1.1629591 -0.022818011 0)
(1.1649491 -0.021909507 0)
(1.1666748 -0.020946188 0)
(1.1681335 -0.01993835 0)
(1.169324 -0.018896891 0)
(1.1702473 -0.017833164 0)
(1.1709061 -0.016758871 0)
(1.1713047 -0.015685908 0)
(1.1714492 -0.014626266 0)
(1.1713473 -0.013591869 0)
(1.1710084 -0.012594489 0)
(1.1704429 -0.011645574 0)
(1.1696627 -0.010756187 0)
(1.168681 -0.0099368137 0)
(1.1675115 -0.0091973364 0)
(1.1661691 -0.0085467972 0)
(1.1646691 -0.0079935291 0)
(1.163027 -0.0075448501 0)
(1.1612586 -0.0072070232 0)
(1.1593798 -0.0069850588 0)
(1.1574059 -0.0068829074 0)
(1.1553518 -0.0069033528 0)
(1.1532318 -0.0070482015 0)
(1.151059 -0.0073179514 0)
(1.1488453 -0.0077121767 0)
(1.1466013 -0.0082292156 0)
(1.1443358 -0.0088667184 0)
(1.1420564 -0.0096216018 0)
(1.1397685 -0.010490295 0)
(1.1374756 -0.011468682 0)
(1.1351789 -0.012552538 0)
(1.1328778 -0.013737201 0)
(1.1305694 -0.015018324 0)
(1.1282489 -0.016391686 0)
(1.1259085 -0.017853706 0)
(1.1235386 -0.019401022 0)
(1.1211263 -0.021031363 0)
(1.1186564 -0.022742656 0)
(1.1161095 -0.024534285 0)
(1.1134636 -0.026405062 0)
(1.1106901 -0.028355513 0)
(1.1077584 -0.030383141 0)
(1.1046264 -0.032487056 0)
(1.1012527 -0.034657346 0)
(1.0975762 -0.036885369 0)
(1.0935455 -0.039140442 0)
(1.0890754 -0.041394863 0)
(1.0841158 -0.043572608 0)
(1.0785555 -0.045613672 0)
(1.0723826 -0.047357124 0)
(1.0654652 -0.048710481 0)
(1.0579076 -0.04936641 0)
(1.0495741 -0.049250424 0)
(1.0408036 -0.047800566 0)
(1.0315302 -0.045128678 0)
(1.0223788 -0.040225082 0)
(1.0137395 -0.033722274 0)
(1.0060346 -0.024128243 0)
(1.0014117 -0.012691838 0)
(1.0126188 -0.00049887178 0)
(1.0142119 4.5118744e-05 0)
(1.0149138 -0.00012662119 0)
(1.0163016 4.9425499e-05 0)
(1.0173693 -3.4935404e-05 0)
(1.0187667 -1.5170457e-05 0)
(1.0200729 -0.00010574207 0)
(1.0215635 -0.00017953348 0)
(1.0230562 -0.00031158312 0)
(1.0246696 -0.00045903154 0)
(1.0263208 -0.00064604677 0)
(1.0280637 -0.0008580808 0)
(1.0298636 -0.0011033848 0)
(1.0317436 -0.0013799815 0)
(1.0336861 -0.0016905704 0)
(1.0357013 -0.0020383786 0)
(1.0377834 -0.00242666 0)
(1.0399391 -0.0028551513 0)
(1.0421653 -0.0033221831 0)
(1.0444622 -0.0038271592 0)
(1.0468246 -0.0043697876 0)
(1.0492529 -0.0049526873 0)
(1.051747 -0.0055762457 0)
(1.0543081 -0.0062385777 0)
(1.0569355 -0.0069370111 0)
(1.059629 -0.0076701909 0)
(1.0623895 -0.008436418 0)
(1.0652189 -0.0092332144 0)
(1.0681186 -0.010057919 0)
(1.0710904 -0.010908067 0)
(1.0741361 -0.011781131 0)
(1.0772574 -0.012674643 0)
(1.0804554 -0.013586092 0)
(1.0837308 -0.014512871 0)
(1.0870838 -0.015452214 0)
(1.0905135 -0.01640115 0)
(1.0940187 -0.017356452 0)
(1.0975967 -0.018314596 0)
(1.1012443 -0.019271712 0)
(1.1049568 -0.020223553 0)
(1.1087287 -0.021165441 0)
(1.1125531 -0.022092252 0)
(1.1164221 -0.022998377 0)
(1.1203264 -0.023877737 0)