/*--------------------------------*- C++ -*----------------------------------*\
| =========                 |                                                 |
| \\      /  F ield         | foam-extend: Open Source CFD                    |
|  \\    /   O peration     | Version:     4.1                                |
|   \\  /    A nd           | Web:         http://www.foam-extend.org         |
|    \\/     M anipulation  |                                                 |
\*---------------------------------------------------------------------------*/
FoamFile
{
    version     2.0;
    format      ascii;
    class       volScalarField;
    location    "0.4";
    object      p;
}
// * * * * * * * * * * * * * * * * * * * * * * * * * * * * * * * * * * * * * //

dimensions      [0 2 -2 0 0 0 0];

internalField   nonuniform List<scalar> 
4393
(
-46.455201
-93.032412
-146.81711
-201.62916
-258.64333
-318.1713
-380.59726
-446.23223
-515.30224
-587.91946
-664.05408
-743.50597
-825.87913
-910.56259
-996.72187
-1083.3039
-1169.0561
-1252.5575
-1332.2559
-1406.5079
-1473.6153
-1531.8611
-1579.5444
-1615.022
-1636.7623
-1643.4192
-1633.9367
-1607.6945
-1564.5867
-1505.1155
-1430.4946
-1342.6331
-1244.0295
-1137.5887
-1026.3962
-913.4912
-801.67737
-693.39119
-590.63302
-494.95372
-407.48283
-328.98304
-259.91611
-200.50877
-150.82292
-110.8277
-80.304223
-58.343081
-44.127395
-45.203422
-92.446561
-146.10417
-200.76464
-257.60929
-316.98199
-379.28052
-444.82798
-513.86225
-586.50759
-662.74585
-742.38708
-825.04245
-910.10364
-996.73308
-1083.8688
-1170.2446
-1254.423
-1334.8348
-1409.8204
-1477.6668
-1536.6421
-1585.0287
-1621.1616
-1643.4802
-1650.6048
-1641.4442
-1615.3035
-1572.0132
-1512.0682
-1436.6882
-1347.8173
-1248.0196
-1140.286
-1027.792
-913.65666
-800.74401
-691.52717
-588.02097
-491.77289
-403.8968
-325.13281
-255.92001
-196.47229
-146.84306
-106.94104
-76.495854
-55.36663
-44.757038
-44.399801
-91.549385
-144.84495
-199.1441
-255.63728
-314.69793
-376.7459
-442.12657
-511.10096
-583.81709
-660.27976
-740.31884
-823.55912
-909.39643
-996.98555
-1085.2448
-1172.8785
-1258.4146
-1340.2489
-1416.6893
-1485.9938
-1546.402
-1596.1639
-1633.5711
-1657.0024
-1664.9982
-1656.3787
-1630.3662
-1586.6995
-1525.8021
-1448.8876
-1357.9696
-1255.749
-1145.3952
-1030.2701
-913.65615
-798.53762
-687.45814
-582.4567
-485.06826
-396.36905
-317.04751
-247.48886
-187.86328
-138.18064
-98.255635
-67.778667
-47.193273
-38.399257
-43.60963
-90.253371
-142.94026
-196.66005
-252.60816
-311.1866
-372.84397
-437.95759
-506.82331
-579.62571
-656.40564
-737.02464
-821.13005
-908.12568
-997.15566
-1087.1083
-1176.6424
-1264.2323
-1348.2201
-1426.8656
-1498.3851
-1560.9789
-1612.8519
-1652.235
-1677.4187
-1686.821
-1679.1161
-1653.3753
-1609.1897
-1546.8759
-1467.6347
-1373.5858
-1267.6472
-1153.2736
-1034.123
-913.73499
-795.27996
-681.40752
-574.18945
-475.13693
-385.26492
-305.18107
-235.18673
-175.37679
-125.68599
-85.839341
-55.522852
-35.404176
-27.248468
-42.784834
-88.635463
-140.4686
-193.38309
-248.58192
-306.49783
-367.61485
-432.35175
-501.05096
-573.94708
-651.13096
-732.50913
-817.76175
-906.30534
-997.27
-1089.5017
-1181.5943
-1271.9459
-1358.8239
-1440.4235
-1514.908
-1580.4303
-1635.1421
-1677.1995
-1704.7801
-1716.1404
-1709.7528
-1684.4684
-1639.6529
-1575.4552
-1493.0424
-1394.6794
-1283.5967
-1163.6629
-1038.9631
-913.40091
-790.4035
-672.75926
-562.57435
-461.31603
-369.9059
-288.83479
-218.28495
-158.24194
-108.53876
-68.818059
-38.773346
-19.125933
-11.357816
-41.776901
-86.586043
-137.31889
-189.19687
-243.43175
-300.49135
-360.90237
-425.13525
-493.59206
-566.57261
-644.23439
-726.54531
-813.23214
-903.7315
-997.15684
-1092.2974
-1187.6584
-1281.534
-1372.0923
-1457.4465
-1535.6977
-1604.9481
-1663.2933
-1708.8055
-1739.5268
-1753.5091
-1748.9569
-1724.419
-1678.9396
-1612.4125
-1525.9333
-1421.953
-1304.1345
-1176.9245
-1044.9987
-912.7529
-783.94939
-661.54476
-547.6712
-443.7197
-350.47441
-268.26254
-197.10233
-136.82838
-87.139431
-47.57855
-17.808291
1.4871904
9.0378624
-40.635422
-84.175822
-133.55553
-184.15019
-237.18482
-293.1682
-352.67735
-416.24521
-484.34749
-557.3664
-635.5456
-718.93469
-807.32527
-900.18537
-996.61037
-1095.3156
-1194.687
-1292.8798
-1387.9326
-1477.8585
-1560.6909
-1634.4854
-1697.2878
-1747.0872
-1781.7747
-1799.1552
-1797.0889
-1773.7208
-1727.6442
-1658.3694
-1566.8514
-1455.7696
-1329.3745
-1192.908
-1051.8469
-911.23674
-775.26113
-647.06764
-528.79182
-421.70008
-326.38145
-242.94301
-171.18874
-110.76053
-61.193251
-21.908446
7.5055842
26.456988
33.836256
-39.227079
-81.254459
-129.02005
-178.0796
-229.66993
-284.34594
-342.74259
-405.46645
-473.0822
-546.07399
-624.79473
-709.40108
-799.77387
-895.42945
-995.4458
-1098.4429
-1202.6469
-1306.0271
-1406.4542
-1501.8207
-1590.0919
-1669.29
-1737.4302
-1792.432
-1832.0299
-1853.7421
-1854.9986
-1833.4171
-1786.9684
-1714.5898
-1616.9765
-1497.0754
-1359.9334
-1211.8839
-1059.4841
-908.62387
-764.0016
-628.96445
-505.60471
-394.99114
-297.4389
-212.76299
-140.49307
-80.032199
-30.7202
8.165435
37.139889
55.725775
62.942688
-37.695074
-77.979362
-123.859
-171.10802
-220.97841
-274.07673
-331.10333
-392.75001
-459.68725
-532.52356
-611.74899
-697.65957
-790.25883
-889.13777
-993.36249
-1101.4316
-1211.3571
-1320.8582
-1427.5868
-1529.2921
-1623.8777
-1709.3594
-1783.7587
-1844.9571
-1890.5422
-1917.7124
-1923.3723
-1904.4616
-1858.0999
-1782.3725
-1677.5118
-1546.7592
-1396.2469
-1233.8178
-1067.4864
-904.23208
-749.36526
-606.41708
-477.35554
-362.94565
-263.12429
-177.32502
-104.73316
-44.461989
4.3780909
42.67832
71.080087
89.232047
96.267161
-35.792512
-74.054619
-117.75477
-162.90603
-210.76752
-262.00024
-317.37612
-377.68367
-443.71709
-516.23475
-595.89691
-683.17927
-778.25319
-880.8239
-989.95879
-1104.0024
-1220.6765
-1337.358
-1451.4095
-1560.4103
-1662.2182
-1754.8892
-1836.5117
-1904.9881
-1957.7922
-1991.7832
-2003.2411
-1988.2479
-1942.7747
-1863.6454
-1750.2865
-1606.2285
-1439.0995
-1258.856
-1075.4899
-897.37666
-730.5298
-578.60619
-443.31622
-324.96938
-222.98695
-136.3117
-63.70508
-3.9371082
44.144681
81.621439
109.27583
126.89019
133.70632
-33.842905
-69.855566
-111.08926
-153.83994
-199.37632
-248.41655
-301.80916
-360.44985
-425.27516
-497.22171
-577.15891
-665.79231
-763.52226
-870.22881
-985.00942
-1106.0169
-1230.5762
-1355.5912
-1478.0374
-1595.2943
-1705.2074
-1805.9458
-1895.7579
-1972.661
-2034.0797
-2076.5359
-2095.5955
-2086.2647
-2042.9907
-1960.7412
-1837.5579
-1677.1782
-1489.3254
-1286.9708
-1082.808
-886.99169
-706.30237
-544.39298
-402.50612
-280.28249
-176.44947
-89.327112
-17.163989
41.668232
88.615885
124.96598
151.65022
168.58932
175.13458
-31.37029
-64.800721
-103.22814
-143.24132
-186.10049
-232.57865
-283.60338
-340.18707
-403.42804
-474.47348
-554.44823
-644.35012
-744.89084
-856.21766
-977.51426
-1106.6993
-1240.5479
-1375.2932
-1507.3792
-1633.9456
-1752.88
-1862.5703
-1961.5565
-2048.1132
-2119.7324
-2172.6385
-2201.6267
-2200.3698
-2161.3349
-2076.804
-1942.452
-1761.9671
-1548.0625
-1318.1105
-1088.5268
-871.712
-675.21032
-502.42331
-353.80379
-228.02938
-122.90709
-35.979688
35.11231
92.448014
137.79229
172.64609
198.09031
214.18555
220.39561
-28.983563
-59.627079
-94.961382
-131.9196
-171.75532
-215.2941
-263.54194
-317.63363
-378.84632
-448.57081
-528.23862
-619.21218
-722.61964
-839.0112
-967.75855
-1106.504
-1251.2501
-1397.2633
-1540.2451
-1677.0577
-1805.7349
-1925.0501
-2034.0255
-2131.4051
-2214.9404
-2280.6476
-2322.4879
-2332.5839
-2300.9222
-2215.887
-2069.1559
-1863.7364
-1616.6938
-1352.0109
-1091.264
-849.64884
-635.32474
-451.0044
-295.86865
-167.23351
-61.704823
24.126438
93.323313
148.45955
191.63187
224.55199
248.44073
263.49551
269.29518
-25.886517
-53.349966
-85.201763
-118.71209
-155.09523
-195.21768
-240.1578
-291.17466
-349.73953
-417.5234
-496.32515
-587.95979
-694.10971
-815.93488
-953.18765
-1103.218
-1260.9393
-1420.2
-1575.6419
-1723.805
-1863.0333
-1992.7075
-2112.5559
-2222.0593
-2319.5147
-2400.901
-2459.3269
-2485.1996
-2465.5847
-2383.3652
-2223.499
-1986.871
-1696.9916
-1388.124
-1089.0163
-818.25769
-584.18546
-388.08542
-227.15904
-96.833851
7.8217349
91.354282
157.61575
209.70086
250.03384
280.51879
302.49581
316.28964
321.59477
-23.042257
-47.163046
-75.26349
-105.01071
-137.58057
-173.87179
-215.02624
-262.42346
-317.73783
-382.95411
-460.30213
-552.14231
-660.86889
-788.53859
-935.611
-1099.1715
-1272.558
-1447.4693
-1616.9807
-1777.2623
-1927.2643
-2067.3263
-2198.1999
-2320.5055
-2433.5808
-2533.7153
-2613.2104
-2660.6513
-2659.8961
-2586.332
-2413.7011
-2137.6004
-1791.1799
-1425.3746
-1078.8258
-774.07383
-518.64509
-311.19442
-145.92856
-15.710614
86.31115
165.99997
228.05517
276.08893
312.82291
340.31558
359.99183
372.2863
377.00622
-19.290952
-39.626968
-63.558091
-89.115579
-117.38401
-149.26679
-185.94576
-228.90191
-280.00619
-341.58194
-416.35777
-507.34141
-617.81901
-751.15271
-909.09945
-1088.6787
-1280.975
-1474.4153
-1659.7697
-1832.862
-1993.8099
-2144.4446
-2286.861
-2423.2125
-2554.4829
-2677.7038
-2784.3704
-2861.2234
-2889.1474
-2834.1387
-2651.6105
-2325.1052
-1902.0612
-1461.8227
-1056.329
-712.39632
-434.71954
-217.41282
-50.266572
77.251154
174.31367
248.24145
304.58793
347.43332
379.73191
403.63435
420.60015
431.14709
435.18784
-15.971875
-32.433245
-51.969392
-73.040854
-96.637692
-123.65103
-155.28412
-193.10234
-239.16484
-296.1589
-367.39423
-456.63888
-568.24235
-707.38993
-878.117
-1077.8873
-1294.4782
-1511.1162
-1714.9874
-1901.5515
-2072.9824
-2233.3259
-2386.2514
-2535.8469
-2685.8051
-2834.9639
-2974.4392
-3089.5047
-3159.1776
-3138.9849
-2954.7416
-2563.568
-2033.1307
-1494.0719
-1015.0477
-626.85376
-327.42261
-103.3824
61.818877
183.06351
272.20616
338.07461
386.99729
423.40792
450.38459
470.08017
483.92177
492.47391
495.74235
-11.542756
-23.652269
-38.37083
-54.53341
-72.964251
-94.499529
-120.31825
-152.0159
-191.77761
-242.61722
-308.46487
-393.92944
-504.50939
-647.77822
-831.66549
-1055.3634
-1301.8796
-1546.0966
-1769.7335
-1968.1251
-2147.3789
-2315.1994
-2477.1434
-2639.6281
-2810.7094
-2992.5922
-3176.01
-3344.0474
-3475.3913
-3516.6929
-3349.436
-2875.7089
-2188.3506
-1516.2444
-945.32626
-508.86282
-190.63691
34.602417
192.23937
302.4832
380.07605
435.23475
474.85435
503.52233
524.28017
539.16364
549.48451
555.80846
558.21725
-7.62035
-15.476624
-25.308643
-36.390211
-49.355636
-64.947362
-84.274385
-108.9114
-141.11139
-184.18587
-242.78287
-322.54559
-430.19589
-576.24575
-775.10102
-1030.6026
-1318.9038
-1600.8409
-1849.4823
-2060.2421
-2246.39
-2421.3742
-2592.1001
-2766.289
-2958.0698
-3175.1065
-3407.9086
-3636.5994
-3845.8442
-3985.4058
-3873.9681
-3299.7149
-2372.5738
-1519.0796
-832.93437
-347.00354
-17.090609
200.35442
342.54965
435.7915
497.57296
539.10655
567.46788
587.09626
600.78189
610.29733
616.74349
620.63488
622.10809
-2.5493411
-5.7044814
-10.168909
-15.664093
-22.573847
-31.517164
-43.493486
-59.998673
-83.25042
-116.71196
-165.69422
-236.95226
-338.14562
-482.52414
-694.32298
-988.12699
-1330.7222
-1658.5687
-1931.7888
-2146.4339
-2329.2089
-2502.8987
-2674.5886
-2850.8582
-3056.2891
-3309.9871
-3605.5244
-3920.4862
-4247.7527
-4559.7682
-4589.8081
-3910.0197
-2594.7073
-1487.1505
-656.10704
-126.08887
201.4599
397.30256
513.50646
582.4936
623.73176
648.63046
663.83988
673.24183
679.11296
682.79819
685.0864
686.38604
686.86517
2.8651424
3.8858342
4.4409276
4.2313997
3.190277
0.88683834
-3.4653664
-11.139349
-24.101194
-45.652412
-81.566312
-139.95878
-229.39841
-365.02603
-585.37169
-929.23659
-1353.2365
-1748.6763
-2056.5667
-2272.1749
-2447.1756
-2620.2274
-2797.7259
-2978.1277
-3201.9703
-3507.3316
-3890.0688
-4319.7175
-4770.7191
-5298.7199
-5581.6294
-4833.2263
-2843.6084
-1380.5014
-379.57949
173.34059
473.33589
627.53523
704.39926
740.93627
756.78229
762.2204
762.63741
760.86006
758.36311
755.89743
753.84404
752.45394
751.9038
8.2280601
13.247283
19.299982
25.100974
30.901574
36.473243
41.289837
44.353919
44.021743
37.325085
18.164987
-23.462291
-97.363556
-217.42656
-437.78927
-844.99079
-1390.4382
-1873.1912
-2212.5861
-2399.929
-2539.4222
-2696.1825
-2873.7202
-3037.777
-3247.4707
-3581.2739
-4030.5869
-4568.4367
-5096.8018
-5967.9903
-6832.5644
-6309.2551
-3081.6151
-1175.7135
33.930491
571.3534
804.51435
890.17789
912.13391
907.87945
893.98365
877.7185
862.19534
848.65912
837.50933
828.75958
822.30684
818.20427
816.61799
17.706152
25.783728
36.67429
47.582134
59.186316
71.44042
84.109082
96.551723
107.62728
115.2244
114.03973
93.068355
41.492603
-47.575854
-237.3217
-703.15407
-1432.6099
-2029.1497
-2414.9314
-2555.4467
-2653.8399
-2799.8646
-2995.4478
-3124.8048
-3285.977
-3685.7259
-4231.041
-4968.2111
-5686.6967
-7250.9734
-8892.523
-9081.7065
-3588.8717
-1044.1023
632.84231
1098.2385
1197.2824
1179.3538
1130.1779
1078.1234
1031.5514
992.42375
960.56706
935.20135
915.45354
900.51137
889.7472
882.99476
880.39734
22.030325
30.912839
46.166086
62.230256
80.075742
99.880815
121.89599
146.15073
172.4352
200.21459
226.42591
240.03767
225.60768
181.87051
54.922981
-463.88901
-1540.6171
-2304.4704
-2773.2885
-2786.7159
-2763.2107
-2828.3084
-3038.2629
-3111.7218
-3217.1242
-3772.0122
-4238.9757
-5191.4303
-6477.9832
-7872.2528
-9600.324
-12118.915
-4839.1971
-78.23632
1721.5377
1811.9227
1641.6406
1479.5685
1347.23
1244.3315
1164.7741
1103.237
1055.6384
1018.983
991.07698
970.27935
955.44667
946.19633
942.64601
36.710691
46.520982
66.454874
87.25937
110.57883
136.73173
166.32207
199.83066
237.57727
279.91637
325.55001
363.42331
369.58171
345.32943
302.05755
-162.3669
-1800.7626
-2615.558
-3114.9737
-2799.2529
-2638.9725
-2748.1747
-3148.761
-3288.7217
-3309.4139
0
0
0
0
0
0
0
0
6202.2735
3403.0708
2583.3984
2069.3719
1757.1357
1546.4954
1397.5223
1288.4797
1206.9649
1145.3104
1098.5442
1063.3079
1037.2335
1018.7257
1007.2156
1002.8025
35.090223
42.187865
64.037423
87.041679
113.07006
142.45004
176.08104
214.91613
259.97494
312.88105
375.72103
444.31693
500.81704
557.85858
720.06286
599.71904
-1974.1588
-2775.2762
-3625.343
-2996.5302
-3062.5094
-3031.6465
0
0
0
0
0
0
0
0
0
0
10135.663
6289.2422
4125.9143
3002.1364
2363.0754
1970.9266
1710.7938
1529.3065
1398.0284
1300.7841
1227.7323
1172.5936
1131.1935
1100.6315
1078.9732
1065.5165
1060.3587
44.0691
54.999186
81.019841
107.05546
136.19538
168.99163
206.6869
250.70473
302.79241
365.8164
445.08562
543.87385
651.05163
749.98537
845.65605
617.82443
-3081.6914
-3605.4265
-3224.9246
0
0
0
0
0
0
0
0
0
0
0
1791.8006
3375.5813
5763.3477
5240.4144
3964.6497
3102.808
2509.4999
2109.9427
1832.7638
1635.0398
1490.4337
1382.7022
1301.516
1240.1203
1193.963
1159.8576
1135.6723
1120.6397
1114.8767
22.145263
41.915408
66.12811
91.052708
118.52191
149.29395
184.43202
225.09159
272.52452
328.75961
397.72741
477.01568
537.56313
532.30905
553.86415
765.16635
0
0
0
0
0
0
-1121.531
-1093.3247
-1001.3346
-907.68813
-780.2049
-485.37606
-84.899817
707.11438
2036.48
3371.3711
4758.1482
4494.7668
3718.7001
3061.933
2555.5232
2184.8341
1913.8978
1714.001
1564.6123
1451.7282
1365.8414
1300.4576
1251.068
1214.4488
1188.4186
1172.2164
1166.001
19.939977
50.04815
75.079476
100.75831
128.27374
158.447
191.92635
229.15533
270.09745
313.99953
358.78564
397.94131
407.90228
339.11518
147.96704
-307.4667
-1264.2508
-1211.6799
-1133.2553
-1087.9582
-1039.5387
-1010.7351
-999.66233
-793.15165
-828.64441
-573.39213
-352.66407
-194.86548
268.71522
914.36202
1969.7676
3057.9534
3963.3612
3857.2102
3408.6655
2937.3357
2531.7434
2208.9942
1959.4706
1768.0359
1621.0283
1507.7937
1420.4514
1353.2954
1302.1965
1264.1074
1236.9307
1219.977
1213.4673
20.559465
46.399773
72.090913
98.029124
125.44218
155.07286
187.49992
223.08995
261.83377
302.91815
343.41635
376.09918
387.87553
357.60341
216.18606
-206.93765
-775.526
-906.0904
-949.01496
-953.64852
-876.18872
-831.33011
-808.00021
-681.67367
-611.01354
-407.80992
-169.53953
87.298593
520.28655
1105.6446
1905.0399
2729.6465
3341.5993
3362.3886
3110.3338
2781.2208
2466.9827
2197.1037
1976.6468
1800.545
1661.2407
1551.5623
1465.574
1398.65
1347.2625
1308.6983
1281.0508
1263.7538
1257.1044
15.145395
36.451147
59.122079
81.738634
104.8713
128.75528
153.3965
178.43586
202.98169
225.14834
240.85756
242.81292
221.6293
164.47779
25.555426
-268.02545
-592.07547
-718.75983
-771.791
-782.36102
-741.87564
-692.7416
-631.92356
-527.81027
-414.1837
-228.75323
-2.1721687
279.07015
677.60262
1196.4632
1831.5933
2458.5365
2896.1506
2972.7643
2839.9053
2617.3543
2380.0968
2161.2417
1972.4895
1815.4827
1687.4105
1584.1898
1501.8062
1436.8076
1386.3778
1348.2359
1320.7384
1303.4775
1296.8328
23.864545
46.53234
70.39269
94.004725
118.06329
142.67629
167.6693
192.42469
215.6546
234.86781
245.42247
240.18899
210.43429
141.72543
2.6084198
-223.60965
-447.08558
-567.17225
-623.34436
-633.09294
-604.91992
-557.82097
-487.18458
-384.68157
-254.82459
-73.629734
148.27207
425.03257
785.71213
1232.1658
1743.4902
2229.0936
2563.7781
2664.3437
2604.7323
2459.4061
2284.3168
2110.9184
1953.2719
1816.7743
1701.927
1607.1059
1529.9914
1468.2556
1419.8148
1382.8623
1356.0578
1339.1692
1332.6581
12.267954
30.29191
50.548835
70.718456
90.907562
110.99784
130.68664
149.31502
165.66612
177.55406
181.31696
171.8594
142.49002
81.281215
-30.888267
-192.31962
-347.11464
-445.12518
-494.76869
-503.31386
-478.40393
-429.83887
-355.84465
-253.03972
-119.22247
56.058252
270.74078
533.86058
858.09085
1240.4442
1656.3316
2039.9429
2308.4266
2417.414
2403.369
2313.2714
2187.4871
2052.9459
1924.1035
1807.9577
1707.1414
1621.8382
1551.1084
1493.6153
1447.9645
1412.8217
1387.1616
1370.9296
1364.6614
21.526658
40.876566
61.276245
80.992739
100.30822
118.95817
136.43557
151.8604
163.81018
170.03978
167.31838
151.70447
118.26202
58.965349
-35.005639
-155.59381
-268.36113
-345.34178
-385.02713
-390.03307
-365.04358
-314.86367
-239.08174
-135.9409
-2.6634828
165.68388
369.73416
614.46662
904.1332
1232.2828
1575.3375
1885.4829
2108.4115
2218.0428
2232.4804
2181.6326
2094.3233
1992.2258
1888.9853
1792.0485
1705.2127
1629.8873
1566.1829
1513.5817
1471.297
1438.4343
1414.273
1398.925
1392.9883
12.144662
28.418304
46.614001
64.482917
81.93077
98.608773
113.99602
127.25374
137.0747
141.4936
137.84575
122.94894
92.865494
42.318555
-31.945352
-121.23586
-203.70501
-261.7616
-290.77093
-290.66932
-263.69087
-212.07559
-135.69394
-33.39108
96.901197
257.60391
449.4917
674.54357
932.55157
1215.4008
1502.4688
1759.01
1948.9876
2055.6325
2087.8787
2064.9197
2007.29
1931.9328
1850.8835
1771.4983
1698.0261
1632.6473
1576.2226
1528.8751
1490.3266
1460.0713
1437.6674
1423.3742
1417.8358
17.341225
33.619672
50.834458
67.229761
82.854414
97.331427
110.11548
120.39851
127.01607
128.35867
122.4159
106.90594
79.131866
36.146804
-22.339215
-88.804857
-148.96838
-190.9915
-209.81817
-204.00203
-174.13687
-121.07645
-44.673937
55.863355
181.81467
334.28451
513.46963
719.30787
949.2174
1194.6553
1438.3767
1655.0549
1820.2425
1922.3672
1965.6724
1962.5647
1927.6813
1874.1131
1811.9969
1748.2477
1687.1739
1631.3624
1582.1731
1540.204
1505.5827
1478.1324
1457.6556
1444.5337
1439.4401
12.26101
26.871553
42.861428
58.236909
72.841194
86.252313
97.922924
107.09056
112.71695
113.46048
107.75547
93.929807
70.226883
35.299079
-9.6999744
-58.60289
-101.60109
-130.25618
-139.87169
-128.40056
-95.450449
-41.087517
34.922043
133.09383
254.06631
398.11693
564.77301
752.68585
958.11158
1172.8265
1382.7272
1569.1948
1715.1948
1812.3236
1862.3815
1873.4349
1855.9423
1819.9655
1773.8396
1723.778
1673.96
1627.1103
1584.8934
1548.24
1517.5878
1493.0278
1474.568
1462.685
1458.0641
13.935277
27.848764
42.635742
56.602994
69.677642
81.469336
91.483068
99.060136
103.34968
103.31534
97.817271
85.721237
66.015444
38.356671
4.4564728
-30.754315
-60.275231
-77.852174
-79.370595
-62.619609
-26.686646
28.791525
104.1117
199.57247
315.34406
451.14052
605.93375
777.6172
961.99133
1151.5313
1334.818
1497.9887
1628.8354
1721.0272
1775.0786
1796.2541
1792.0522
1770.1876
1737.4395
1699.2116
1659.4311
1620.8022
1585.1432
1553.6016
1526.8411
1505.1631
1488.7423
1478.1232
1473.9864
11.661815
24.581246
38.488362
51.643653
63.895187
74.854232
84.063152
90.948941
94.817124
94.879717
90.336133
80.482444
64.871619
43.784412
19.094252
-5.2376984
-24.017858
-32.43914
-26.995155
-5.5246997
33.113846
89.493293
163.92596
256.53488
367.15638
495.11565
638.9924
796.28222
962.73398
1131.6602
1293.8335
1438.77
1557.4761
1645.047
1701.3227
1729.7404
1735.6983
1725.1102
1703.4635
1675.3691
1644.4113
1613.1947
1583.5813
1556.8455
1533.8076
1514.928
1500.5121
1491.1467
1487.4919
11.710122
23.858532
36.793255
48.940831
60.187657
70.184041
78.532757
84.759579
88.322564
88.649536
85.213991
77.640416
65.873164
50.540585
33.473468
17.882149
7.7552256
6.884381
18.233119
43.806323
84.801949
141.86869
215.29584
305.06404
410.77347
531.48636
665.53788
810.26217
961.57612
1113.6309
1258.943
1389.4435
1498.3302
1581.7147
1639.0908
1672.6921
1686.422
1684.8215
1672.3225
1652.8254
1629.5323
1604.9021
1580.7669
1558.4627
1538.9106
1522.6878
1510.1986
1502.0491
1498.8639
10.666544
22.110928
34.333319
45.802217
56.390988
65.77905
73.624698
79.544606
83.131877
83.996768
81.835941
76.52873
68.290283
57.935439
47.176328
38.656953
35.537954
40.873221
57.168583
86.230979
129.21857
186.77644
259.14572
346.19161
447.3492
561.51095
686.8819
820.78207
959.40178
1097.6619
1229.4457
1348.4251
1449.3245
1528.9973
1586.7692
1624.0739
1643.7464
1649.2863
1644.2746
1632.0031
1615.2936
1596.4277
1577.1744
1558.8822
1542.53
1528.778
1518.1041
1511.113
1508.3779
10.267278
21.087077
32.612117
43.409518
53.372436
62.216967
69.656719
75.390746
79.126865
80.622425
79.746748
76.566495
71.472619
65.363643
59.810075
57.029376
59.591582
70.005312
90.399017
122.37582
167.00634
224.8886
296.2028
380.72095
477.7646
586.12437
703.95586
828.65047
956.70795
1083.7202
1204.6316
1314.3804
1408.7747
1485.2173
1542.9628
1582.9087
1607.1238
1618.32
1619.4006
1613.1456
1602.0315
1588.1482
1573.1819
1558.4619
1544.9948
1533.4981
1524.5055
1518.6044
1516.2971
9.6928315
19.994322
30.977973
41.271407
50.776175
59.241956
66.43369
72.124038
76.118667
78.294865
78.656728
77.408256
75.053025
72.516687
71.233148
73.096555
80.247624
94.786236
118.53436
152.90444
198.86134
256.93587
327.24407
409.48345
502.89919
606.22768
717.62714
834.60331
953.9605
1071.8549
1184.0493
1286.4087
1375.5215
1449.2013
1506.6826
1548.5007
1576.1739
1591.8204
1597.8099
1596.4997
1590.0655
1580.4125
1569.1354
1557.5279
1546.603
1537.1179
1529.6535
1524.7701
1522.871
9.2759927
19.128087
29.64011
39.502797
48.629938
56.802338
63.829955
69.547485
73.840096
76.679162
78.170497
78.615314
78.585776
79.00427
81.183678
86.772809
97.596152
115.44531
141.89688
178.19524
225.19889
283.36626
352.75221
432.9956
523.29183
622.35459
728.37464
838.98675
951.27204
1061.8481
1167.1033
1263.5838
1348.4442
1419.8063
1476.91
1520.046
1550.3367
1569.4563
1579.3597
1582.0627
1579.4878
1573.3727
1565.2205
1556.2827
1547.5632
1539.844
1533.7543
1529.8304
1528.3355
8.8954399
18.397115
28.547294
38.08572
46.935131
54.904287
61.842364
67.63599
72.234367
75.681947
78.16035
80.03845
81.928447
84.735544
89.67155
98.200521
111.9138
132.37148
160.95746
198.77508
246.58625
304.78111
373.36048
451.91813
539.61826
635.17118
736.81369
842.30574
948.9654
1053.7765
1153.5996
1245.479
1326.9797
1396.4531
1453.1557
1497.212
1529.4616
1551.2499
1564.2145
1570.1013
1570.6257
1567.3822
1561.7889
1555.0551
1548.1672
1541.9212
1537.0122
1533.9915
1532.9231
8.5295365
17.763966
27.636904
36.931434
45.575738
53.402976
60.294745
66.178955
71.054097
75.019253
78.310761
81.343388
84.751668
89.419714
96.479158
107.25753
123.17655
145.62546
175.8413
214.81481
263.22681
321.40871
389.31662
466.51061
552.13617
644.91013
743.11708
844.62651
946.94788
1047.3454
1143.0274
1231.3966
1310.3119
1378.2923
1434.614
1479.2904
1512.9625
1536.7379
1552.0185
1560.3448
1563.2706
1562.2751
1558.7065
1553.7404
1548.3464
1543.3238
1539.4486
1537.3643
1536.8601
8.1598775
17.27154
26.970662
36.10737
44.616166
52.35394
59.229047
65.201189
70.305297
74.679687
78.598691
82.506957
87.050327
93.092666
101.70496
114.11802
131.63583
155.52734
186.92363
226.73155
275.56947
333.72293
401.11398
477.27894
561.35284
652.06264
747.73476
846.32569
945.48889
1042.6916
1135.3867
1221.2251
1298.2679
1365.1518
1421.1702
1466.2648
1500.9417
1526.1436
1543.1057
1553.2198
1557.9209
1558.6017
1556.556
1552.9341
1548.6897
1544.5934
1541.47
1540.214
1540.4856
7.6593575
16.840755
26.46095
35.514484
43.943922
51.630413
58.502924
64.543147
69.809937
74.466537
78.810562
83.3038
88.596634
95.537806
105.15922
118.63286
137.18913
162.018
194.18075
234.52854
283.63756
341.76213
408.80146
484.27671
567.31744
656.65948
750.65938
847.33326
944.43013
1039.5487
1130.2976
1214.4837
1290.2955
1356.4441
1412.2363
1457.5703
1492.8686
1518.9699
1537.0024
1548.2614
1554.1039
1555.8629
1554.7918
1552.027
1548.5159
1544.9745
1542.2229
1541.7565
1543.9361
6.4354958
16.508088
26.182596
35.229778
43.629345
51.294519
58.168446
64.244929
69.595078
74.394651
78.952943
83.740549
89.410951
96.808271
106.94948
120.96839
140.04925
165.3476
197.89346
238.51084
287.75479
345.86376
412.72529
487.85289
570.37349
659.02775
752.18794
847.90075
943.96359
1038.041
1127.8188
1211.1808
1286.3783
1352.16
1407.8397
1453.2952
1488.9089
1515.4683
1534.0499
1545.9017
1552.3373
1554.6592
1554.1089
1551.8262
1548.7687
1545.6115
1543.1406
1543.6279
1549.4566
-2205.8726
-2465.9896
-2684.0757
-2866.375
-3007.3841
-3085.671
-3081.6914
-2996.8193
-2821.1729
-2627.7699
-3224.9951
-3224.9246
-3220.1499
-3212.0946
-3200.8255
-3190.8867
-3180.4717
-3190.1834
-3189.0496
-3158.1136
-3200.6479
-3199.5199
-3186.0978
-3170.5044
-3154.9508
-3147.3502
-3130.56
-3137.6896
-3124.5537
-3069.7666
-3159.2433
-3156.7704
-3146.8979
-3136.7223
-3126.555
-3128.1642
-3117.0563
-3115.9036
-3103.7607
-3067.1236
-3097.5386
-3095.9705
-3090.772
-3083.7105
-3073.5991
-3070.5011
-3071.9236
-3072.8018
-3072.7607
-3076.847
-3052.1479
-3051.2744
-3046.4594
-3037.654
-3024.9365
-2996.5302
-3017.138
-3027.4836
-3032.3259
-3043.691
-3038.8036
-3040.3143
-3043.846
-3047.5529
-3059.9199
-3039.0083
-3037.1605
-3030.886
-3013.355
-2987.9897
-3050.7753
-3051.8021
-3056.242
-3062.5094
-3083.4517
-3090.3648
-3072.7934
-3048.457
-3019.2902
-2983.7152
-3857.1391
-3869.231
-3840.2236
-3795.9355
-3758.47
-3726.5212
-3705.137
-3691.5373
-3682.7248
-3684.5453
-3003.6981
-3002.8101
-2996.0758
-2981.2996
-2941.5383
-2966.427
-2977.8929
-2979.5681
-2968.5882
-2940.9135
-3028.3712
-3031.6465
-3038.5009
-3059.8317
-3038.1548
-3027.8759
-3022.2943
-3013.4357
-2998.1968
-2981.9948
-3064.3029
-3066.364
-3070.3636
-3093.7891
-3107.5712
-3084.4592
-3058.3857
-3038.3799
-3019.4833
-3002.7552
-3011.7679
-3007.9577
-2988.0977
-2961.9483
-2984.6607
-3002.9936
-3015.5147
-3024.0736
-3027.1207
-3034.5081
-3045.0637
-3047.9253
-3046.4078
-3008.3182
-3018.5288
-3032.8994
-3044.5142
-3052.552
-3056.2043
-3066.0704
-3174.8455
-3183.0896
-3207.6368
-3204.9259
-3176.6196
-3148.761
-3127.8853
-3112.1935
-3096.403
-3078.6695
-3165.023
-3160.6084
-3153.7861
-3174.58
-3173.8883
-3166.472
-3158.7336
-3151.9091
-3144.686
-3145.4956
-3184.8594
-3184.2905
-3160.6499
-3170.6139
-3181.4999
-3188.6771
-3191.9104
-3192.4615
-3190.5495
-3194.1067
-3293.9792
-3306.0765
-3302.4155
-3288.7217
-3273.686
-3261.5545
-3252.4254
-3246.0204
-3238.486
-3229.1509
-3296.2964
-3300.3998
-3307.3451
-3299.5537
-3290.3341
-3285.1119
-3284.9592
-3289.3042
-3294.1237
-3306.1125
-3197.0777
-3182.9539
-3200.3863
-3226.347
-3256.0391
-3285.0683
-3312.3548
-3337.1436
-3357.3885
-3382.2723
-3333.1579
-3309.4139
-3319.4241
-3340.34
-3367.7615
-3393.6658
-3416.6993
-3435.5717
-3448.3974
-3464.2462
-3709.1733
-3699.9932
-3669.5666
-3635.8254
-3611.1205
-3592.0586
-3580.3657
-3573.5443
-3567.6904
-3564.9645
-3033.7033
-3032.0908
-3025.7394
-3012.7551
-3005.0404
-3013.1318
-3013.7367
-3009.6256
-3001.3629
-3000.6096
-3559.4171
-3568.1432
-3581.8783
-3629.7848
-3686.8944
-3737.8543
-3758.036
-3737.7336
-3647.1508
-3468.4316
-3296.5459
-3296.6691
-3299.6308
-3305.5316
-3307.807
-3307.9989
-3306.3487
-3303.3531
-3296.7023
-3245.705
-3171.1369
-3224.1053
-3290.0069
-3398.1912
-3511.5246
-3598.085
-3643.9103
-3597.9456
-3439.6113
-3200.4254
-3506.7978
-3516.9007
-3536.6839
-3572.6429
-3605.4265
-3632.5752
-3638.8242
-3640.1708
-3601.0998
-3483.0705
-3395.6852
-3400.4593
-3414.4429
-3438.7664
-3460.2067
-3478.4219
-3486.5689
-3475.775
-3460.0742
-3402.9906
11324.387
10721.615
10135.663
9495.9883
8838.8019
8185.3679
7550.8673
6942.3313
6352.7502
5775.4986
8314.021
8236.2134
8112.1848
7849.8904
7511.403
7120.4174
6698.2316
6262.7245
5824.1263
5367.3377
-3719.6083
-3737.9751
-3754.9153
-3760.5147
-3768.9123
-3772.0122
-3776.7204
-3780.1455
-3781.5101
-3785.0262
-3714.0741
-3717.9789
-3753.128
-3784.2398
-3823.1876
-3850.3598
-3874.3268
-3890.4448
-3899.2006
-3903.4793
-3951.5128
-3944.5746
-3961.1731
-3969.2152
-3997.9183
-4016.6274
-4036.7243
-4049.951
-4055.5879
-4051.3249
-4227.5863
-4217.3413
-4231.717
-4222.6378
-4238.9757
-4241.1893
-4248.0009
-4249.3312
-4246.0122
-4241.8912
-4550.1575
-4532.1743
-4543.9642
-4517.1945
-4521.1615
-4503.5879
-4491.3692
-4471.5896
-4444.1463
-4411.9953
-4906.603
-4879.5602
-4889.1843
-4843.0048
-4834.6967
-4796.4308
-4763.7836
-4720.5597
-4666.0684
-4606.0189
-5287.6325
-5249.384
-5258.0186
-5191.4303
-5171.9621
-5114.0587
-5062.8003
-4999.4857
-4923.3672
-4838.1796
-5688.9828
-5637.1306
-5645.9304
-5557.1285
-5526.3598
-5448.2862
-5377.717
-5295.3973
-5205.5249
-5123.0807
-6111.5476
-6042.6694
-6052.4785
-5938.695
-5895.2446
-5794.963
-5700.6566
-5590.7023
-5465.4412
-5329.88
-6555.4285
-6465.6043
-6477.9832
-6336.5395
-6279.2829
-6156.5019
-6038.3709
-5904.3015
-5754.7166
-5592.9695
-7026.7355
-6909.8875
-6925.5937
-6752.2998
-6678.1315
-6530.6205
-6384.7234
-6222.5101
-6044.0116
-5858.1416
-7524.3596
-7374.4228
-7396.4786
-7188.2095
-7094.0053
-6919.9987
-6742.1783
-6546.0694
-6327.3948
-6090.0518
-8066.6159
-7872.2528
-7901.1461
-7652.0841
-7531.7217