/*--------------------------------*- C++ -*----------------------------------*\
| =========                 |                                                 |
| \\      /  F ield         | foam-extend: Open Source CFD                    |
|  \\    /   O peration     | Version:     4.1                                |
|   \\  /    A nd           | Web:         http://www.foam-extend.org         |
|    \\/     M anipulation  |                                                 |
\*---------------------------------------------------------------------------*/
FoamFile
{
    version     2.0;
    format      ascii;
    class       surfaceScalarField;
    location    "0.4";
    object      phi;
}
// * * * * * * * * * * * * * * * * * * * * * * * * * * * * * * * * * * * * * //

dimensions      [0 3 -1 0 0 0 0];

internalField   nonuniform List<scalar> 
8438
(
-0.59731466
0.0016760065
-0.59905647
0.0017418173
-0.60083372
0.0017772505
-0.60265541
0.0018216884
-0.60453129
0.0018758812
-0.6064718
0.0019405045
-0.60848633
0.0020145276
-0.61058249
0.0020961613
-0.6127654
0.0021829108
-0.61503699
0.0022715872
-0.61739529
0.0023583022
-0.61983379
0.0024385012
-0.62234085
0.0025070642
-0.62489935
0.0025584951
-0.62748655
0.0025871977
-0.63007439
0.0025878406
-0.63263005
0.0025556595
-0.63511681
0.0024867626
-0.63749508
0.0023782664
-0.63972337
0.0022282925
-0.64175927
0.0020358965
-0.64356024
0.0018009757
-0.64508449
0.0015242499
-0.64629187
0.0012073773
-0.64714513
0.0008532616
-0.6476117
0.00046656394
-0.64766578
5.4082713e-05
-0.64729003
-0.00037574489
-0.64647952
-0.00081050935
-0.6452458
-0.0012337212
-0.64361786
-0.0016279382
-0.64164189
-0.0019759713
-0.63937911
-0.0022627867
-0.6369017
-0.0024774087
-0.63428757
-0.0026141317
-0.6316148
-0.0026727622
-0.62895685
-0.002657959
-0.62637886
-0.002577985
-0.62393562
-0.0024432353
-0.62167077
-0.0022648567
-0.61961712
-0.002053647
-0.61779782
-0.0018193
-0.61622785
-0.0015699706
-0.61491567
-0.0013121847
-0.61386435
-0.0010513102
-0.61307213
-0.00079222302
-0.61253532
-0.00053681681
-0.61225902
-0.00027629317
-1.4072095e-05
-0.61110755
0.0031441706
-0.6125696
0.0032038606
-0.61405932
0.0032669705
-0.61558998
0.0033523478
-0.61717402
0.003459926
-0.61882265
0.0035891351
-0.62054571
0.0037375878
-0.62235116
0.0039016121
-0.62424446
0.0040762078
-0.62622787
0.0042549972
-0.62829976
0.0044301891
-0.63045389
0.0045926305
-0.63267882
0.004732
-0.63495751
0.0048371859
-0.63726716
0.004896849
-0.6395795
0.0049001725
-0.64186134
0.0048375017
-0.64407555
0.0047009735
-0.64618208
0.0044847942
-0.64813901
0.0041852195
-0.64990349
0.003800381
-0.65143259
0.0033300703
-0.65268401
0.002775675
-0.65361704
0.0021404034
-0.65419367
0.0014298922
-0.65438031
0.00065320399
-0.65415024
-0.00017598432
-0.65348765
-0.0010383405
-0.65238946
-0.0019087
-0.6508667
-0.0027564781
-0.64894755
-0.0035470931
-0.64667786
-0.0042456557
-0.6441192
-0.0048214502
-0.64134457
-0.005252035
-0.6384329
-0.0055258045
-0.63546319
-0.0056424707
-0.6325095
-0.0056116497
-0.62963724
-0.0054502405
-0.6269011
-0.0051793753
-0.62434437
-0.0048215916
-0.62199941
-0.0043986032
-0.61988892
-0.0039297929
-0.61802751
-0.0034313815
-0.6164234
-0.0029162883
-0.61507994
-0.0023947765
-0.61399737
-0.0018747932
-0.6131752
-0.0013589807
-0.61260515
-0.00084634557
-0.00037442285
-0.61215425
0.004562301
-0.61357117
0.0046207825
-0.61501344
0.0047092326
-0.61649599
0.0048349001
-0.61803212
0.0049960604
-0.61963364
0.0051906486
-0.62131086
0.0054148094
-0.62307225
0.0056630029
-0.62492382
0.0059277843
-0.62686848
0.0061996488
-0.62890522
0.006466934
-0.63102846
0.0067158659
-0.63322728
0.0069308264
-0.63548501
0.0070949156
-0.63777898
0.0071908202
-0.6400808
0.0072019919
-0.64235698
0.0071136823
-0.64456995
0.0069139416
-0.6466792
0.0065940451
-0.64864241
0.0061484226
-0.65041635
0.0055743186
-0.65195766
0.004871382
-0.65322349
0.0040415027
-0.6541722
0.0030891191
-0.65476445
0.0020221409
-0.65496477
0.00085352435
-0.65474401
-0.0003967463
-0.65408213
-0.0017002173
-0.65297176
-0.0030190779
-0.65142191
-0.004306325
-0.64946061
-0.0055083934
-0.64713544
-0.0065708217
-0.64451139
-0.0074454986
-0.64166603
-0.0080973974
-0.6386831
-0.0085087332
-0.63564593
-0.0086796414
-0.63263183
-0.0086257566
-0.62970817
-0.0083738942
-0.6269304
-0.007957147
-0.62434156
-0.0074104334
-0.62197309
-0.0067670663
-0.61984639
-0.0060564981
-0.61797461
-0.0053031612
-0.61636458
-0.004526316
-0.6150187
-0.0037406583
-0.61393712
-0.0029563694
-0.61311814
-0.0021779691
-0.6125532
-0.0014112825
-0.00068267143
-0.61251019
0.0059510964
-0.61390679
0.0060173819
-0.61532938
0.0061318179
-0.61679289
0.0062984166
-0.6183111
0.0065142676
-0.6198965
0.006776045
-0.62156018
0.0070784944
-0.62331146
0.0074142813
-0.62515726
0.0077735868
-0.62710143
0.008143818
-0.62914391
0.0085094159
-0.63127991
0.0088518645
-0.63349909
0.0091500074
-0.63578497
0.0093807869
-0.63811459
0.0095204498
-0.64045884
0.0095462346
-0.64278306
0.0094379047
-0.64504832
0.0091792019
-0.64721272
0.0087584407
-0.64923262
0.0081683281
-0.65106365
0.0074053496
-0.65266132
0.0064690456
-0.65398147
0.0053616531
-0.65498079
0.0040884443
-0.65561763
0.0026589806
-0.65585346
0.0010893539
-0.65565531
-0.00059489935
-0.65499909
-0.0023564367
-0.65387371
-0.0041444569
-0.65228565
-0.0058943858
-0.65026262
-0.0075314269
-0.64785482
-0.0089786208
-0.64513265
-0.010167671
-0.6421809
-0.011049145
-0.63909098
-0.011598653
-0.63595298
-0.011817639
-0.63284924
-0.011729497
-0.62985012
-0.01137302
-0.62701207
-0.010795189
-0.62437768
-0.01004483
-0.62197686
-0.0091678826
-0.61982893
-0.0082044284
-0.6179448
-0.0071872913
-0.61632918
-0.0061419314
-0.61498277
-0.0050870699
-0.61390413
-0.0040350086
-0.61308968
-0.0029924251
-0.61253399
-0.0019669733
-0.00097170833
-0.61293311
0.0073128843
-0.61430653
0.007390806
-0.61570691
0.0075321972
-0.61714938
0.007740886
-0.61864819
0.0080130753
-0.62021661
0.0083444683
-0.6218667
0.0087285778
-0.62360884
0.0091564202
-0.62545117
0.0096159225
-0.62739883
0.010091473
-0.629453
0.010563594
-0.63161001
0.011008873
-0.63386029
0.011400288
-0.63618762
0.011708111
-0.63856865
0.011901484
-0.64097315
0.011950737
-0.64336483
0.011829582
-0.64570279
0.01151716
-0.64794318
0.01099883
-0.65004065
0.010265794
-0.65194934
0.0093140409
-0.65362341
0.0081431201
-0.65501721
0.0067554514
-0.65608538
0.0051566154
-0.65678335
0.0033569467
-0.65706855
0.0013745532
-0.65690287
-0.00076058212
-0.65625646
-0.0030028463
-0.65511264
-0.0052882765
-0.65347385
-0.0075331718
-0.65136699
-0.0096382841
-0.6488458
-0.011499812
-0.6459884
-0.013025073
-0.64289003
-0.014147512
-0.6396531
-0.014835585
-0.63637728
-0.015093458
-0.63315184
-0.014954937
-0.63005104
-0.014473819
-0.62713251
-0.013713726
-0.62443783
-0.012739505
-0.62199462
-0.011611088
-0.61981918
-0.010379874
-0.61791924
-0.0090872276
-0.61629663
-0.0077645434
-0.61494959
-0.0064341075
-0.61387453
-0.0051100685
-0.61306652
-0.00380044
-0.61252161
-0.0025118784
-0.0012485203
-0.61346831
0.008642496
-0.61481214
0.0087346353
-0.61618429
0.0089043494
-0.61760006
0.0091566566
-0.61907427
0.009487284
-0.62062109
0.0098912856
-0.62225369
0.010361185
-0.62398384
0.01088657
-0.62582122
0.011453303
-0.62777263
0.012042875
-0.62984093
0.012631896
-0.63202394
0.013191888
-0.63431321
0.01368956
-0.63669294
0.014087837
-0.63913931
0.014347855
-0.64162064
0.014432059
-0.64409837
0.014307318
-0.64652899
0.013947774
-0.64886606
0.0133359
-0.65106204
0.012461779
-0.65306935
0.011321349
-0.65484065
0.0099144215
-0.65632864
0.0082434388
-0.65748563
0.0063136082
-0.65826352
0.0041348321
-0.65861461
0.0017256447
-0.65849404
-0.0008811487
-0.65786414
-0.003632753
-0.65670026
-0.0064521546
-0.65499876
-0.0092346704
-0.65278479
-0.011852252
-0.65011656
-0.014168041
-0.64708281
-0.016058823
-0.64379332
-0.017437006
-0.64036566
-0.018263243
-0.63691247
-0.018546648
-0.63353207
-0.018335337
-0.63030348
-0.017702407
-0.62728533
-0.016731881
-0.62451744
-0.015507392
-0.62202396
-0.014104568
-0.61981693
-0.012586908
-0.61789974
-0.011004409
-0.61627025
-0.0093940323
-0.61492328
-0.0077810817
-0.61385237
-0.0061809768
-0.61305092
-0.0046018881
-0.61251464
-0.0030481672
-0.0015182056
-0.61411891
0.0099361902
-0.61542722
0.010042944
-0.61676476
0.010241894
-0.61814754
0.010539432
-0.61959114
0.010930891
-0.62111081
0.01141095
-0.62272106
0.011971433
-0.62443528
0.012600796
-0.62626508
0.013283105
-0.62821936
0.013997153
-0.63030316
0.014715696
-0.6325163
0.015405026
-0.63485185
0.016025115
-0.63729471
0.016530689
-0.63982052
0.016873667
-0.64239572
0.017007265
-0.6449788
0.016890396
-0.64752271
0.016491685
-0.6499777
0.015790886
-0.65229354
0.014777618
-0.65442072
0.013448525
-0.65631044
0.011804147
-0.65791385
0.0098468505
-0.65918088
0.0075806312
-0.66005941
0.0050133599
-0.66049556
0.0021617973
-0.66043589
-0.00094082194
-0.65983227
-0.0042363639
-0.658649
-0.0076354336
-0.6568733
-0.011010371
-0.65452691
-0.014198633
-0.65167344
-0.01702152
-0.64841591
-0.019316351
-0.64488401
-0.020968906
-0.64121589
-0.021931362
-0.63754128
-0.022221256
-0.63396993
-0.021906693
-0.63058631
-0.021086024
-0.62744954
-0.019868646
-0.62459648
-0.018360455
-0.6220463
-0.01665475
-0.61980531
-0.014827901
-0.61787125
-0.012938462
-0.6162369
-0.011028386
-0.61489274
-0.0091252445
-0.61382883
-0.0072448802
-0.61303622
-0.0053945043
-0.61250881
-0.0035755709
-0.0017820681
-0.61487936
0.011185558
-0.61614492
0.011308501
-0.61744109
0.011538064
-0.61878428
0.011882627
-0.62019094
0.012337547
-0.62167746
0.012897475
-0.62325993
0.013553904
-0.62495368
0.014294542
-0.62677261
0.015102037
-0.62872824
0.015952783
-0.63082836
0.016815819
-0.63307543
0.017652089
-0.63546462
0.018414306
-0.63798188
0.019047955
-0.64060236
0.019494147
-0.6432901
0.019695005
-0.64599964
0.019599929
-0.64867928
0.019171327
-0.65127497
0.018386577
-0.65373326
0.017235905
-0.65600261
0.015717881
-0.65803305
0.013834586
-0.65977453
0.011588333
-0.66117482
0.0089809197
-0.66217758
0.0060161155
-0.66272171
0.0027059322
-0.66274314
-0.00091939713
-0.66218016
-0.0047993402
-0.6609818
-0.0088337948
-0.65912182
-0.012870349
-0.65661572
-0.016704738
-0.65353319
-0.02010405
-0.64999646
-0.022853075
-0.64616242
-0.024802947
-0.64219692
-0.025896863
-0.63825195
-0.026166229
-0.63445124
-0.025707397
-0.63088511
-0.024652156
-0.62761201
-0.023141747
-0.62466393
-0.021308536
-0.62205303
-0.019265652
-0.61977799
-0.017102943
-0.61782932
-0.014887123
-0.61619349
-0.012664225
-0.61485575
-0.010462984
-0.61380211
-0.0082985139
-0.61302069
-0.0061759264
-0.61250302
-0.0040932431
-0.0020402872
-0.61575073
0.012387185
-0.61696756
0.012525333
-0.61821549
0.01278599
-0.61951204
0.013179176
-0.62087468
0.013700191
-0.62232117
0.014343958
-0.62386932
0.015102056
-0.62553671
0.015961936
-0.62734001
0.016905333
-0.62929391
0.017906683
-0.63140967
0.018931581
-0.63369316
0.019935578
-0.63614246
0.020863611
-0.63874519
0.021650681
-0.64147606
0.02222502
-0.64429614
0.022515081
-0.64715473
0.02245852
-0.64999397
0.022010568
-0.65275423
0.02114684
-0.65537822
0.019859889
-0.65781246
0.018152121
-0.66000635
0.016028478
-0.66190949
0.013491466
-0.66346812
0.010539557
-0.6646218
0.0071697966
-0.66530137
0.0033854923
-0.66542982
-0.00079094054
-0.664928
-0.0053011634
-0.66372415
-0.010037647
-0.6617722
-0.014822294
-0.65907664
-0.019400302
-0.65571358
-0.023467107
-0.65183106
-0.026735597
-0.64762337
-0.029010636
-0.64329376
-0.030226475
-0.63902298
-0.030437003
-0.63495154
-0.029778844
-0.63117528
-0.028428412
-0.62774999
-0.02656704
-0.62470003
-0.02435849
-0.62202782
-0.021937864
-0.61972205
-0.019408707
-0.61776418
-0.016844997
-0.61613297
-0.014295438
-0.61480754
-0.011788414
-0.61376921
-0.0093368395
-0.61300267
-0.0069424673
-0.61249677
-0.0045991467
-0.0022921047
-0.61672641
0.013529209
-0.61788582
0.013684742
-0.61907778
0.013977949
-0.62032006
0.014421457
-0.62163105
0.015011186
-0.6230299
0.015742802
-0.62453635
0.016608505
-0.62617052
0.017596111
-0.6279523
0.018687112
-0.62990024
0.019854621
-0.6320299
0.021061241
-0.63435157
0.022257249
-0.6368673
0.02337934
-0.63956724
0.024350621
-0.64242598
0.025083765
-0.64540086
0.025489959
-0.64843422
0.025491875
-0.65145983
0.025036183
-0.65441077
0.024097774
-0.65722511
0.022674231
-0.65984775
0.02077476
-0.66222849
0.018409221
-0.66431792
0.015580897
-0.6660621
0.012283736
-0.66739709
0.008504788
-0.66824507
0.0042334724
-0.66851386
-0.00052215313
-0.66810205
-0.0057129711
-0.66690998
-0.011229718
-0.66486261
-0.016869666
-0.66194549
-0.022317422
-0.65824044
-0.027172156
-0.65393045
-0.031045586
-0.64926197
-0.033679113
-0.64448899
-0.034999455
-0.63982929
-0.035096707
-0.63544275
-0.034165383
-0.63142945
-0.032441709
-0.62783907
-0.030157429
-0.62468439
-0.027513168
-0.62195446
-0.024667792
-0.61962513
-0.021738034
-0.61766668
-0.018803449
-0.61604879
-0.015913331
-0.61474354
-0.013093662
-0.61372703
-0.010353345
-0.61298017
-0.0076893281
-0.612489
-0.0050903173
-0.002536158
-0.61780544
0.014610868
-0.61890192
0.014781225
-0.62003069
0.015106716
-0.62121093
0.015601701
-0.62246216
0.016262415
-0.62380499
0.017085625
-0.62526123
0.018064749
-0.62685384
0.019188726
-0.62860641
0.020439683
-0.63054208
0.021790291
-0.63268173
0.023200886
-0.63504131
0.024616826
-0.63762825
0.025966281
-0.64043659
0.027158965
-0.64344143
0.028088601
-0.64659552
0.028644054
-0.64983187
0.028728217
-0.65307282
0.028277141
-0.65624174
0.027266685
-0.6592712
0.025703699
-0.66210514
0.023608696
-0.66469543
0.020999515
-0.66699581
0.017881268
-0.66895423
0.014242165
-0.67050473
0.010055287
-0.67156064
0.0052893802
-0.67201256
-7.0231964e-05
-0.671731
-0.0059945332
-0.67057921
-0.012381511
-0.66844018
-0.019008699
-0.66526751
-0.025490084
-0.66114574
-0.031293925
-0.6563058
-0.035885535
-0.65106814
-0.038916765
-0.64575628
-0.040311323
-0.64063538
-0.040217603
-0.63588682
-0.038913947
-0.63161166
-0.03671686
-0.62784804
-0.033921057
-0.62459157
-0.030769634
-0.62181325
-0.027446109
-0.61947262
-0.024078668
-0.61752644
-0.020749626
-0.61593388
-0.017505886
-0.6146592
-0.014368351
-0.61367284
-0.011339703
-0.61295176
-0.0084104082
-0.61247921
-0.0055628631
-0.00277057
-0.6189847
0.015615322
-0.62000745
0.015803979
-0.621064
0.016163267
-0.62217319
0.016710887
-0.62335525
0.017444478
-0.62463218
0.018362557
-0.62602795
0.01946052
-0.6275686
0.020729374
-0.62928192
0.022153005
-0.63119649
0.023704861
-0.63333971
0.025344105
-0.63573479
0.027011904
-0.63839647
0.028627964
-0.64132471
0.030087203
-0.64449631
0.031260202
-0.64785862
0.032006363
-0.65133191
0.032201508
-0.65482261
0.031767845
-0.65824078
0.030684849
-0.66151231
0.028975231
-0.66458123
0.026677614
-0.66740396
0.023822249
-0.66994041
0.020417715
-0.67214369
0.016445445
-0.67394842
0.011860012
-0.67525968
0.0066006451
-0.67594755
0.0006176365
-0.67584971
-0.0060923782
-0.67478253
-0.013448692
-0.67256748
-0.021223742
-0.66910478
-0.028952783
-0.66447388
-0.035924826
-0.65897225
-0.041387167
-0.65302793
-0.044861089
-0.64706058
-0.04627867
-0.64139571
-0.045882477
-0.63623658
-0.044073078
-0.63167896
-0.041274479
-0.62774098
-0.037859031
-0.62439339
-0.034117225
-0.62158318
-0.03025632
-0.61924953
-0.026412319
-0.61733325
-0.022665907
-0.61578164
-0.019057489
-0.61455051
-0.015599484
-0.61360448
-0.01228573
-0.61291657
-0.00909832
-0.6124674
-0.0060120354
-0.0029930204
-0.6202535
0.016546223
-0.6211981
0.016748582
-0.62217513
0.017140299
-0.62320501
0.017740763
-0.6243089
0.018548367
-0.62551014
0.019563798
-0.62683485
0.020785231
-0.62831233
0.022206853
-0.62997504
0.023815718
-0.63185786
0.025587676
-0.63399606
0.027482309
-0.636422
0.029437843
-0.63916019
0.031366154
-0.64221939
0.033146406
-0.6455803
0.034621104
-0.64918401
0.035610077
-0.65293331
0.035950807
-0.65671193
0.035546469
-0.66041145
0.034384361
-0.66394966
0.032513441
-0.66727285
0.030000811
-0.67034596
0.026895355
-0.67313958
0.023211332
-0.67561679
0.018922654
-0.67771716
0.013960388
-0.67933969
0.0082231676
-0.68033253
0.001610481
-0.68049364
-0.0059312724
-0.67957872
-0.014363606
-0.67732301
-0.023479458
-0.67353871
-0.032737079
-0.66828267
-0.041180863
-0.66194576
-0.047724084
-0.65511692
-0.05168993
-0.64835032
-0.053045267
-0.64204725
-0.05218555
-0.63642969
-0.049690635
-0.6315767
-0.04612747
-0.62747374
-0.041961984
-0.62405619
-0.037534774
-0.62123972
-0.033072791
-0.61893865
-0.028713391
-0.6170754
-0.024529156
-0.61558435
-0.020548537
-0.61441256
-0.016771276
-0.61351894
-0.013179349
-0.61287284
-0.0097444205
-0.61245258
-0.006432298
-0.0032008006
-0.62161566
0.017380702
-0.62246899
0.017601911
-0.62335616
0.018027464
-0.62429619
0.018680799
-0.62531042
0.019562595
-0.62642317
0.020676549
-0.62766256
0.022024613
-0.62906118
0.02360548
-0.63065658
0.025411116
-0.63249084
0.027421934
-0.63460875
0.029600219
-0.63705415
0.031883247
-0.63986461
0.034176613
-0.64306207
0.036343867
-0.64663517
0.038194201
-0.65051876
0.039493668
-0.65459161
0.040023657
-0.65870475
0.039659607
-0.66272353
0.038403137
-0.66655582
0.036345735
-0.67015358
0.033598572
-0.67349561
0.030237379
-0.67656867
0.026284393
-0.67935175
0.021705734
-0.68179568
0.016404324
-0.68379745
0.010224938
-0.68518261
0.0029956328
-0.68570298
-0.0054108946
-0.68504019
-0.015026395
-0.68281062
-0.025709028
-0.67868319
-0.036864514
-0.67265447
-0.047209576
-0.66524688
-0.055131679
-0.65729883
-0.05963798
-0.64955415
-0.060789948
-0.64250727
-0.059232432
-0.63638827
-0.055809629
-0.63123994
-0.051275804
-0.62699642
-0.046205506
-0.6235439
-0.04098729
-0.62075806
-0.03585863
-0.61852365
-0.030947798
-0.61674264
-0.02631017
-0.61533592
-0.021955257
-0.61424203
-0.01786517
-0.61341468
-0.01400669
-0.61282017
-0.010338935
-0.61243503
-0.0068174398
-0.0033908787
-0.62303828
0.018127666
-0.62379721
0.018360842
-0.62458721
0.018817468
-0.62542872
0.019522312
-0.6263434
0.020477272
-0.62735636
0.02168951
-0.62849751
0.023165764
-0.62980274
0.02491071
-0.63131492
0.026923293
-0.63308423
0.029191247
-0.63516675
0.031682738
-0.63762054
0.034337035
-0.64050013
0.037056203
-0.64384658
0.039690318
-0.64766313
0.042010757
-0.65187949
0.043710029
-0.6563406
0.044484758
-0.66084854
0.044167551
-0.66522992
0.042784521
-0.6693799
0.040495712
-0.67326193
0.037480597
-0.67687721
0.033852662
-0.68023664
0.02964382
-0.68334403
0.024813128
-0.6861724
0.019232689
-0.68862537
0.012677908
-0.69050727
0.0048775317
-0.6915177
-0.004400459
-0.6912506
-0.015293495
-0.6891638
-0.027795828
-0.68469611
-0.041332212
-0.67770576
-0.054199923
-0.66889798
-0.063939455
-0.65951482
-0.06902114
-0.6505685
-0.069736273
-0.64266323
-0.067137698
-0.63601215
-0.062460713
-0.63058936
-0.056698593
-0.62625095
-0.050543913
-0.6228164
-0.044421836
-0.62011169
-0.03856334
-0.61798765
-0.033071837
-0.61632453
-0.02797329
-0.61503007
-0.023249721
-0.61403522
-0.018860019
-0.61328959
-0.014752319
-0.61275736
-0.010871169
-0.61241406
-0.0071607379
-0.0035599876
-0.62455571
0.018758299
-0.62520578
0.019010916
-0.62588822
0.019499903
-0.62662052
0.020254619
-0.62742338
0.021280126
-0.62832189
0.022588026
-0.62934714
0.024191013
-0.63053782
0.026101385
-0.63194196
0.028327439
-0.6336184
0.030867685
-0.63563622
0.033700553
-0.63807081
0.036771627
-0.64099838
0.039983776
-0.64448727
0.043179201
-0.64856694
0.046090431
-0.65316714
0.048310231
-0.65808617
0.049403783
-0.66305302
0.049134407
-0.66783768
0.047569183
-0.67232064
0.044978669
-0.67648849
0.041648448
-0.68037849
0.037742655
-0.68403482
0.033300154
-0.68749482
0.028273126
-0.69076624
0.022504109
-0.69377028
0.015681948
-0.69629158
0.0073988304
-0.69797117
-0.002720864
-0.69830489
-0.014959781
-0.69655502
-0.029545694
-0.69180273
-0.046084505
-0.68361064
-0.062392014
-0.67292445
-0.074625636
-0.66167248
-0.080273115
-0.65124482
-0.080163935
-0.64236471
-0.076017802
-0.635176
-0.06964943
-0.62953207
-0.06234252
-0.62517382
-0.054902162
-0.62183284
-0.047762813
-0.61927565
-0.041120537
-0.61731608
-0.035031402
-0.61581297
-0.029476401
-0.61466251
-0.024400182
-0.61379
-0.019732527
-0.61314268
-0.015399645
-0.612684
-0.011329844
-0.61238955
-0.0074551858
-0.0037047402
-0.62607824
0.019286427
-0.62661723
0.019549907
-0.62718427
0.020066938
-0.62779741
0.020867765
-0.62847641
0.021959122
-0.62924591
0.023357529
-0.63013766
0.025082767
-0.63119279
0.027156512
-0.63246442
0.029599064
-0.63402061
0.032423874
-0.63594562
0.035625569
-0.63833625
0.039162255
-0.64129609
0.042943612
-0.64493121
0.046814323
-0.64931617
0.05047539
-0.65439338
0.053387442
-0.65989576
0.05490617
-0.66543801
0.054676648
-0.67070226
0.05283344
-0.67554852
0.049824923
-0.68000305
0.046102977
-0.68415708
0.041896684
-0.68809632
0.037239399
-0.69189958
0.032076377
-0.69563041
0.026234946
-0.69925328
0.019304816
-0.70254758
0.010693128
-0.7050993
-0.00016914302
-0.70630135
-0.013757726
-0.7051975
-0.030649543
-0.70032557
-0.05095644
-0.69063956
-0.07207802
-0.67735162
-0.087913577
-0.66362372
-0.094001013
-0.65136736
-0.092420303
-0.64141042
-0.085974742
-0.63372482
-0.077335021
-0.62796206
-0.06810529
-0.62369851
-0.05916571
-0.62055442
-0.050906902
-0.61822887
-0.043446089
-0.61649845
-0.036761815
-0.61520335
-0.030771505
-0.61423167
-0.025371861
-0.6135062
-0.020457995
-0.6129743
-0.015931545
-0.6126006
-0.011703549
-0.61236199
-0.0076937941
-0.0038217785
-0.6276982
0.019677579
-0.62811164
0.019963349
-0.62855449
0.020509789
-0.62903978
0.021353048
-0.62958453
0.022503875
-0.63021176
0.023984762
-0.6309527
0.025823703
-0.63184958
0.028053391
-0.6329592
0.030708687
-0.63435779
0.033822466
-0.63614536
0.037413135
-0.63844335
0.041460243
-0.64138776
0.045888028
-0.64513306
0.050559623
-0.64982707
0.055169401
-0.65545367
0.059014038
-0.66165663
0.061109134
-0.66786964
0.060889658
-0.67364146
0.058605261
-0.67880858
0.054992039
-0.68347429
0.050768692
-0.68782166
0.046244048
-0.69199414
0.041411879
-0.69612141
0.036203646
-0.70035483
0.03046837
-0.70473865
0.023688635
-0.70905904
0.015013521
-0.71280907
0.0035808895
-0.71527753
-0.011289274
-0.71531738
-0.030609687
-0.71070583
-0.055567994
-0.69921514
-0.083568708
-0.68218692
-0.1049418
-0.66512387
-0.11106406
-0.65061817
-0.106926
-0.63953051
-0.097062411
-0.63146932
-0.085396204
-0.62576186
-0.073812756
-0.62175898
-0.063168589
-0.61894746
-0.05371842
-0.61695619
-0.045437361
-0.61552925
-0.038188747
-0.61449462
-0.031806134
-0.61373817
-0.026128316
-0.61318472
-0.021011445
-0.61278507
-0.016331197
-0.61250729
-0.011981329
-0.61233112
-0.007869958
-0.003907952
-0.62914573
0.019944376
-0.62943043
0.020248059
-0.62973955
0.020818907
-0.63008411
0.021697601
-0.6304778
0.022897571
-0.63094078
0.024447744
-0.63150228
0.026385203
-0.63220413
0.028755237
-0.63310535
0.031609912
-0.63428934
0.035006455
-0.63587308
0.038996877
-0.63800878
0.043595941
-0.64087363
0.048752873
-0.64468311
0.054369111
-0.64970153
0.060187814
-0.65601896
0.065331468
-0.66316488
0.068255055
-0.67027402
0.067998797
-0.67668697
0.06501821
-0.68220605
0.060511119
-0.68707146
0.055634101
-0.69161002
0.050782613
-0.69602539
0.045827243
-0.70047193
0.040650181
-0.70521203
0.035208471
-0.71041324
0.028889852
-0.71590031
0.020500586
-0.72107838
0.0087589582
-0.7251594
-0.0072082497
-0.72698426
-0.028784826
-0.72340965
-0.059142603
-0.70996267
-0.097015688
-0.68737639
-0.12752807
-0.6657685
-0.13267194
-0.64852961
-0.1241649
-0.6363688
-0.10922322
-0.62818758
-0.093577424
-0.62281157
-0.079188766
-0.61929929
-0.066680863
-0.61699123
-0.056026486
-0.61545402
-0.046974565
-0.61441196
-0.039230816
-0.6136922
-0.03252589
-0.61318702
-0.026633499
-0.61282931
-0.021369145
-0.61257736
-0.01658315
-0.6124053
-0.012153391
-0.61229737
-0.0079778864
-0.003960523
-0.63029541
0.020047492
-0.63043076
0.020383404
-0.63058901
0.020977156
-0.6307745
0.021883094
-0.63099614
0.023119207
-0.63127019
0.024721794
-0.63162266
0.026737674
-0.6320933
0.029225881
-0.63274109
0.032257702
-0.63365317
0.035918537
-0.63496025
0.04030395
-0.636847
0.045482693
-0.63953697
0.051442847
-0.64330729
0.05813943
-0.64858139
0.065461911
-0.65567822
0.072428304
-0.66399689
0.076573722
-0.67215293
0.076154838
-0.67917362
0.072038893
-0.68481213
0.066149635
-0.68956438
0.060386348
-0.69399443
0.05521266
-0.69837868
0.050211493
-0.70284637
0.045117875
-0.70785151
0.040213615
-0.7138207
0.034859041
-0.72071659
0.027396471
-0.72793636
0.015978732
-0.7344774
-0.00066720273
-0.73939699
-0.023865239
-0.73852227
-0.060017323
-0.72367666
-0.1118613
-0.69263812
-0.15856662
-0.66481624
-0.16049382
-0.64439014
-0.144591
-0.63145786
-0.12215549
-0.62363286
-0.10140243
-0.61900406
-0.083817561
-0.61628663
-0.06939829
-0.61468668
-0.057626442
-0.61373556
-0.047925686
-0.61316184
-0.039804538
-0.61280935
-0.032878375
-0.61258828
-0.026854568
-0.61244691
-0.021510516
-0.61235549
-0.016674572
-0.61229699
-0.012211891
-0.61226181
-0.0080130627
-0.0039773829
-0.62988563
0.019952241
-0.62984152
0.020339296
-0.62981676
0.020952395
-0.62980721
0.021873549
-0.62981485
0.023126844
-0.62984932
0.024756264
-0.62992942
0.026817779
-0.63008742
0.029383874
-0.63037529
0.03254558
-0.63087504
0.036418286
-0.63172096
0.04114987
-0.6331286
0.046890327
-0.63538209
0.053696343
-0.63882395
0.061581284
-0.64407974
0.0707177
-0.65195461
0.08030318
-0.66179947
0.08641858
-0.67127438
0.085629751
-0.67896029
0.079724797
-0.6844967
0.071686042
-0.68885686
0.064746514
-0.69299937
0.059355165
-0.69732289
0.054535012
-0.70178212
0.049577108
-0.70709017
0.045521663
-0.71409007
0.041858939
-0.72280774
0.036114147
-0.73281813
0.025989118
-0.74209848
0.0086131481
-0.75072162
-0.01524209
-0.75441322
-0.056325723
-0.7406704
-0.12560411
-0.69658641
-0.20265061
-0.66067802
-0.19640221
-0.6371216
-0.16814742
-0.62421584
-0.13506126
-0.61756233
-0.10805593
-0.61427246
-0.087107435
-0.61272941
-0.070941343
-0.61206618
-0.058289669
-0.611835
-0.04815686
-0.61180723
-0.039832315
-0.61186697
-0.032818631
-0.61195615
-0.026765388
-0.61204635
-0.02142032
-0.61212432
-0.016596596
-0.61218447
-0.012151742
-0.61222483
-0.0079727032
-0.003957265
-0.62601226
0.01962641
-0.62573138
0.020058421
-0.6254483
0.020669311
-0.62515637
0.021581617
-0.62485014
0.022820616
-0.62453055
0.024436675
-0.62420592
0.026493146
-0.62389681
0.029074766
-0.62364373
0.032292504
-0.62351834
0.036292892
-0.62365016
0.041281689
-0.62428177
0.047521936
-0.62578119
0.055195768
-0.62855608
0.064356178
-0.63338229
0.075543908
-0.64193091
0.088851796
-0.65384392
0.098331592
-0.66477434
0.096560174
-0.67278366
0.087734117
-0.67724329
0.076145667
-0.68015208
0.067655309
-0.68310887
0.062311959
-0.68673534
0.058161482
-0.69033087
0.053172635
-0.69475815
0.04994894
-0.70183159
0.048932383
-0.71134342
0.04562598
-0.72426695
0.038912646
-0.73573259
0.020078787
-0.75002697
-0.0009476998
-0.7626264
-0.043726301
-0.75936271
-0.12886779
-0.69476115
-0.26725218
-0.65085434
-0.24030901
-0.62538377
-0.193618
-0.61401718
-0.14642785
-0.60980166
-0.11227145
-0.60863774
-0.088271349
-0.60870469
-0.070874396
-0.60920721
-0.057787154
-0.60981395
-0.047550112
-0.61039249
-0.039253781
-0.61089521
-0.032315911
-0.61131014
-0.026350458
-0.61163954
-0.021090918
-0.61189052
-0.016345612
-0.61207092
-0.011971347
-0.61218746
-0.0078561588
-0.0038999263
-0.61266113
0.018817439
-0.61194083
0.019338127
-0.61120609
0.019934574
-0.61043015
0.020805677
-0.60959514
0.021985603
-0.60868866
0.023530194
-0.60770192
0.025506404
-0.60663358
0.02800643
-0.60549724
0.031156166
-0.60433075
0.0351264
-0.60321731
0.040168251
-0.60236052
0.046665145
-0.60217345
0.055008696
-0.60311838
0.065301112
-0.60589293
0.078318459
-0.6134877
0.096446568
-0.62733777
0.11218166
-0.63862488
0.10784728
-0.64552012
0.094629359
-0.64661619
0.077241741
-0.6460471
0.067086212
-0.64600911
0.062273973
-0.64762229
0.059774663
-0.64858779
0.054138133
-0.64964859
0.051009741
-0.65631997
0.055603764
-0.66617507
0.055481087
-0.68391431
0.056651887
-0.6989701
0.03513458
-0.72794623
0.028028428
-0.75038529
-0.021287239
-0.77341835
-0.10583473
-0.67733007
-0.36334046
-0.63087292
-0.28676616
-0.60628654
-0.21820438
-0.59996215
-0.15275224
-0.60029497
-0.11193863
-0.60226985
-0.086296476
-0.60438875
-0.068755495
-0.60624322
-0.055932682
-0.6077638
-0.046029527
-0.60897762
-0.038039963
-0.60993248
-0.03136105
-0.61067421
-0.025608725
-0.61124087
-0.020524262
-0.61166216
-0.015924322
-0.61196034
-0.011673164
-0.6121513
-0.0076652036
-0.0038062758
-0.58483773
0.017588282
-0.58358368
0.01808408
-0.58223273
0.018583624
-0.58077982
0.019352767
-0.57919819
0.020403965
-0.57745639
0.0217884
-0.57551723
0.023567243
-0.57334013
0.025829327
-0.57088667
0.028702703
-0.56812852
0.03236825
-0.56506048
0.037100211
-0.56178136
0.043386028
-0.55873217
0.051959505
-0.55667878
0.06324773
-0.55614657
0.077786242
-0.56125106
0.10155107
-0.58026377
0.13119437
-0.59261977
0.12020328
-0.59895532
0.10096491
-0.59448096
0.072767378
-0.58813359
0.060738841
-0.58277173
0.056912119
-0.58186297
0.058865906
-0.57965862
0.051933782
-0.57374662
0.045097739
-0.58509722
0.032454225
-0.59546252
0.037372161
-0.60447375
0.040256388
-0.6031507
0.020462583
-0.63500885
0.039826988
-0.71427407
0.019749473
-0.66922783
-0.054729398
-0.60697572
-0.22738002
-0.57384555
-0.31989634
-0.57153702
-0.2205129
-0.5811588
-0.14313045
-0.58946889
-0.10362854
-0.5956311
-0.080134261
-0.60009596
-0.064290634
-0.60336797
-0.052660672
-0.60580152
-0.043595978
-0.60763322
-0.036208265
-0.60902134
-0.029972928
-0.61007366
-0.024556408
-0.61086477
-0.019733146
-0.61144679
-0.015342305
-0.611856
-0.011263956
-0.61211705
-0.0074041515
-0.0036784222
-0.52736583
0.015208794
-0.52490282
0.015621066
-0.52228536
0.015966162
-0.51946938
0.01653679
-0.5163995
0.017334085
-0.51300716
0.018396061
-0.50920627
0.019766356
-0.50489153
0.02151458
-0.49993882
0.023749994
-0.49421105
0.026640479
-0.48756408
0.030453243
-0.47988352
0.035705474
-0.47135964
0.04343562
-0.46297459
0.054862681
-0.45497135
0.069783003
-0.44764562
0.094225335
-0.47099063
0.15453938
-0.4707549
0.11996755
-0.46146124
0.091671256
-0.4282748
0.039580941
-0.39589671
0.028360755
-0.36806673
0.029082137
-0.30285401
0.020879481
-0.1617222
0.013191992
-0.040492465
0.0076273277
0
0
0
0
0
0
0
0
0
0
0
0
0
0
-0.21951547