/*--------------------------------*- C++ -*----------------------------------*\
| =========                 |                                                 |
| \\      /  F ield         | foam-extend: Open Source CFD                    |
|  \\    /   O peration     | Version:     4.1                                |
|   \\  /    A nd           | Web:         http://www.foam-extend.org         |
|    \\/     M anipulation  |                                                 |
\*---------------------------------------------------------------------------*/
FoamFile
{
    version     2.0;
    format      ascii;
    class       volScalarField;
    location    "0.4";
    object      rAU;
}
// * * * * * * * * * * * * * * * * * * * * * * * * * * * * * * * * * * * * * //

dimensions      [0 0 1 0 0 0 0];

internalField   nonuniform List<scalar> 
4393
(
0.00022767047
0.00022729609
0.00022692938
0.00022655471
0.00022616998
0.00022577376
0.00022536368
0.00022493854
0.0002244975
0.00022404036
0.00022356773
0.0002230811
0.00022258298
0.00022207691
0.00022156729
0.00022106026
0.00022056166
0.00022007849
0.00021961844
0.00021918913
0.00021879832
0.00021845375
0.00021816295
0.00021793312
0.00021777094
0.00021768234
0.00021767199
0.00021767199
0.00021774315
0.00021789695
0.00021813153
0.00021844188
0.00021881978
0.00021925417
0.00021973175
0.00022023798
0.00022075798
0.00022127754
0.00022178382
0.00022226579
0.00022271444
0.00022312283
0.00022348587
0.0002238001
0.00022406342
0.00022427484
0.00022443442
0.00022454268
0.00022458499
0.00022453682
0.0002242157
0.00022390942
0.00022359396
0.0002232666
0.00022292566
0.00022256894
0.00022219556
0.00022180512
0.00022139799
0.00022097543
0.00022053973
0.00022009426
0.0002196435
0.00021919279
0.00021874916
0.00021831925
0.0002179107
0.00021753162
0.0002171899
0.00021689345
0.00021664999
0.00021646695
0.00021635136
0.00021630956
0.00021634694
0.00021643447
0.00021640716
0.00021644976
0.00021657628
0.00021678823
0.00021708404
0.00021745855
0.00021790297
0.0002184053
0.00021895124
0.00021952527
0.00022011185
0.00022069639
0.00022126593
0.00022180955
0.00022231854
0.00022278627
0.00022320799
0.00022358045
0.00022390148
0.00022417023
0.00022438817
0.00022454254
0.00022403079
0.00022372138
0.00022342038
0.00022310773
0.00022278068
0.00022243776
0.00022207694
0.00022169766
0.00022129992
0.00022088459
0.0002204536
0.00022001
0.00021955803
0.00021910315
0.00021865171
0.00021821175
0.0002177908
0.00021739722
0.00021703969
0.00021672644
0.00021646554
0.00021626479
0.00021613159
0.00021607289
0.00021609485
0.00021620252
0.00021629225
0.00021617208
0.00021613299
0.00021618198
0.00021632396
0.0002165606
0.00021688933
0.00021730296
0.00021778993
0.00021833531
0.00021892211
0.00021953282
0.00022015064
0.00022076046
0.00022134941
0.00022190711
0.00022242561
0.00022289918
0.00022332379
0.0002236968
0.00022401714
0.00022428488
0.00022448036
0.00022367519
0.00022337106
0.00022306987
0.00022275397
0.00022242089
0.00022206935
0.00022169749
0.00022130498
0.00022089215
0.00022046033
0.00022001204
0.00021955105
0.00021908252
0.00021861295
0.00021814982
0.00021770233
0.00021727909
0.0002168894
0.00021654263
0.00021624751
0.00021601243
0.00021584535
0.00021575385
0.00021574497
0.00021582498
0.0002159989
0.00021608486
0.00021587839
0.00021575476
0.00021572449
0.00021579628
0.00021597534
0.0002162618
0.00021664989
0.00021712804
0.0002176801
0.000218287
0.0002189287
0.00021958582
0.00022024086
0.00022087894
0.00022148807
0.0002220591
0.00022258543
0.00022306254
0.00022348761
0.0002238594
0.00022417694
0.00022442209
0.00022331318
0.00022301308
0.00022271211
0.00022239328
0.00022205431
0.00022169404
0.00022131075
0.00022090428
0.00022047522
0.00022002529
0.00021955752
0.00021907643
0.00021858806
0.00021810001
0.000217621
0.00021716154
0.00021673146
0.00021634114
0.00021600075
0.00021571955
0.00021550625
0.00021536907
0.00021531577
0.00021535367
0.00021548936
0.00021572821
0.0002158212
0.000215524
0.00021531186
0.00021519934
0.00021519954
0.00021532175
0.00021556909
0.00021593707
0.00021641366
0.00021698071
0.00021761631
0.00021829721
0.00021900096
0.00021970738
0.00022039948
0.00022106369
0.00022168981
0.00022227059
0.0002228012
0.00022327881
0.00022370209
0.00022406986
0.00022436631
0.00022293543
0.00022263992
0.0002223402
0.00022201939
0.00022167532
0.00022130686
0.00022091236
0.00022049176
0.00022004584
0.00021957661
0.00021908757
0.00021858388
0.00021807253
0.00021756224
0.00021706313
0.00021658718
0.00021614566
0.00021575018
0.00021541179
0.00021514032
0.00021494481
0.0002148337
0.000214815
0.00021489646
0.00021508529
0.00021538762
0.00021550276
0.00021510901
0.00021480274
0.00021460317
0.00021452867
0.00021459348
0.0002148042
0.00021515759
0.00021564051
0.00021623191
0.00021690599
0.00021763543
0.00021839406
0.00021915873
0.00021991018
0.00022063338
0.00022131724
0.00022195412
0.00022253919
0.0002230698
0.00022354485
0.00022396359
0.000224312
0.00022254245
0.00022225218
0.00022195475
0.00022163296
0.00022128462
0.00022090858
0.00022050315
0.00022006828
0.00021960482
0.000219115
0.00021860268
0.00021807365
0.00021753578
0.00021699905
0.00021647511
0.00021597766
0.0002155197
0.00021511423
0.00021477331
0.00021450733
0.00021432559
0.00021423668
0.0002142489
0.00021437055
0.00021460976
0.00021497392
0.00021513155
0.00021463396
0.00021422608
0.00021393261
0.00021377838
0.00021378384
0.00021395992
0.00021430466
0.00021480299
0.0002154297
0.00021615377
0.00021694268
0.00021776582
0.0002185966
0.00021941345
0.00022019994
0.00022094435
0.00022163894
0.00022227915
0.00022286283
0.00022338939
0.00022385895
0.00022425888
0.00022213623
0.00022185256
0.00022155858
0.00022123683
0.00022088506
0.00022050202
0.0002200859
0.00021963654
0.00021915477
0.00021864287
0.00021810498
0.00021754742
0.00021697896
0.0002164109
0.00021585666
0.000215332
0.00021485194
0.00021443118
0.0002140829
0.00021381799
0.00021364588
0.00021357516
0.00021361435
0.00021377239
0.0002140587
0.00021448252
0.00021470913
0.00021409876
0.0002135796
0.00021318282
0.00021294135
0.00021288374
0.00021302655
0.00021336915
0.00021389349
0.00021456848
0.00021535607
0.00021621716
0.00021711575
0.00021802144
0.00021891027
0.00021976462
0.00022057245
0.0002213263
0.00022202223
0.00022265887
0.00022323652
0.00022375631
0.00022420692
0.00022171846
0.00022144224
0.00022115279
0.00022083214
0.00022047787
0.00022008851
0.00021966204
0.00021919808
0.00021869725
0.00021816176
0.00021759588
0.00021700635
0.0002164028
0.00021579795
0.00021520724
0.00021464891
0.00021414052
0.00021369882
0.0002133382
0.00021306996
0.00021290338
0.00021284679
0.00021290877
0.00021309897
0.0002134284
0.00021390889
0.0002142384
0.00021350447
0.00021286178
0.00021234918
0.00021200985
0.00021188318
0.0002119934
0.00021234142
0.00021290463
0.00021364361
0.00021451094
0.00021545909
0.00021644567
0.00021743601
0.00021840384
0.00021933067
0.00022020458
0.00022101885
0.00022177059
0.0002224596
0.00022308737
0.00022365627
0.00022415627
0.00022129115
0.00022102425
0.00022074074
0.00022042238
0.00022006662
0.00021967171
0.00021923531
0.00021875666
0.00021823603
0.00021767536
0.00021707884
0.00021645349
0.00021580971
0.00021516173
0.00021452733
0.00021392782
0.00021338395
0.00021291504
0.00021253684
0.00021226082
0.0002120957
0.00021204913
0.00021212942
0.00021234688
0.00021271445
0.00021324733
0.00021372271
0.00021285247
0.00021207102
0.00021142618
0.00021097425
0.00021076949
0.00021084696
0.00021120947
0.00021182751
0.00021264985
0.00021361647
0.00021466921
0.00021575803
0.00021684372
0.0002178979
0.00021890174
0.00021984405
0.00022071943
0.00022152655
0.00022226681
0.00022294319
0.00022355955
0.00022410721
0.00022085692
0.00022059994
0.00022032347
0.00022000858
0.00021965242
0.00021925286
0.00021880711
0.00021831389
0.00021777288
0.00021718552
0.00021655569
0.00021589045
0.00021520084
0.00021450261
0.0002138163
0.00021316703
0.00021257972
0.00021207694
0.00021167597
0.0002113881
0.00021122079
0.00021118032
0.00021127427
0.00021151339
0.00021191287
0.00021249214
0.00021316737
0.00021214592
0.00021120695
0.00021040853
0.00020982374
0.00020952762
0.00020957107
0.00020995944
0.00021065265
0.00021158265
0.0002126724
0.0002138503
0.00021505747
0.00021625
0.00021739795
0.00021848291
0.00021949527
0.00022043169
0.000221293
0.00022208264
0.00022280547
0.000223467
0.00022406011
0.00022041672
0.00022017219
0.00021990452
0.0002195946
0.00021923942
0.00021883643
0.00021838226
0.00021787489
0.00021731323
0.00021669789
0.00021603211
0.00021532267
0.000214581
0.00021382433
0.00021307633
0.00021236701
0.00021172682
0.00021118263
0.0002107535
0.00021044988
0.00021027701
0.00021023882
0.00021034141
0.00021059562
0.00021101899
0.00021163624
0.00021246552
0.00021138937
0.00021027039
0.00020929095
0.00020854552
0.00020813865
0.00020814527
0.0002085743
0.00020936926
0.00021043782
0.00021167997
0.00021300725
0.00021435078
0.00021566224
0.00021691107
0.0002180805
0.00021916358
0.00022015994
0.00022107327
0.00022190957
0.0002226759
0.00022337966
0.00022401542
0.00021997584
0.00021974385
0.00021948603
0.00021918242
0.00021882958
0.00021842442
0.00021796286
0.00021744196
0.00021685954
0.00021621504
0.00021551063
0.00021475242
0.00021395181
0.00021312729
0.0002123061
0.00021152451
0.00021082053
0.00021022695
0.00020976487
0.00020944295
0.0002092626
0.00020922398
0.00020933062
0.00020959276
0.00021003025
0.00021067407
0.00021156404
0.00021059088
0.0002092648
0.00020806916
0.00020712495
0.00020657889
0.00020654347
0.00020703322
0.00020796545
0.00020921249
0.00021064309
0.00021214809
0.00021364778
0.00021509038
0.00021644638
0.00021770233
0.00021885539
0.00021990924
0.00022087122
0.0002217504
0.0002225564
0.00022329869
0.0002239737
0.00021953296
0.00021931685
0.00021907106
0.00021877568
0.00021842712
0.00021802176
0.00021755465
0.00021702176
0.00021641946
0.0002157456
0.00021500074
0.00021418969
0.00021332322
0.00021242059
0.00021151281
0.00021064422
0.00020986337
0.0002092114
0.00020871184
0.00020836999
0.00020818107
0.00020813949
0.00020824496
0.00020850617
0.00020894491
0.00020959941
0.00021052241
0.00020976214
0.00020819714
0.00020674078
0.00020554534
0.00020481791
0.00020473136
0.00020531013
0.00020642813
0.00020790581
0.00020956945
0.00021128502
0.00021296205
0.00021454742
0.00021601527
0.00021735782
0.00021857816
0.00021968532
0.00022069112
0.00022160823
0.00022244908
0.0002232254
0.00022393555
0.00021909877
0.000218898
0.00021866527
0.00021837968
0.0002180372
0.00021763351
0.00021716269
0.00021661932
0.00021599803
0.00021529451
0.00021450702
0.00021363832
0.00021269767
0.00021170417
0.0002106925
0.00020971739
0.00020884257
0.00020812146
0.00020758076
0.00020721996
0.00020702447
0.00020698023
0.00020708145
0.00020733377
0.00020775974
0.00020840526
0.00020933878
0.00020891973
0.00020707965
0.00020530722
0.00020378852
0.00020281615
0.00020266267
0.00020337198
0.0002047434
0.00020652067
0.00020847233
0.00021043588
0.00021231193
0.0002140499
0.00021563157
0.00021705797
0.00021834037
0.00021949454
0.00022053762
0.00022148633
0.00022235616
0.00022316114
0.00022390162
0.00021866488
0.00021848342
0.00021826615
0.00021799258
0.00021765863
0.00021725937
0.00021678783
0.00021623705
0.00021559952
0.0002148682
0.00021403825
0.00021310932
0.00021208802
0.00021099162
0.00020985749
0.0002087534
0.00020776519
0.00020696475
0.00020638278
0.00020600876
0.00020581237
0.00020576716
0.00020586011
0.0002060923
0.00020648517
0.00020709263
0.0002080026
0.00020808929
0.00020593278
0.00020377678
0.00020183648
0.00020052183
0.00020027292
0.00020117638
0.00020289739
0.00020506622
0.00020737325
0.00020962614
0.00021172165
0.00021361848
0.00021531173
0.00021681536
0.00021815132
0.00021934366
0.00022041556
0.0002213881
0.00022227991
0.00022310732
0.00022387258
0.00021825398
0.00021809065
0.00021788995
0.00021763044
0.00021730766
0.00021691596
0.00021644715
0.00021589248
0.00021524194
0.00021448502
0.00021361259
0.00021261988
0.00021150919
0.00021029351
0.00020901016
0.00020774265
0.00020660983
0.00020571265
0.00020508753
0.00020470769
0.00020451836
0.00020447584
0.00020455924
0.00020476377
0.00020510596
0.00020564585
0.00020649362
0.00020729943
0.00020478619
0.00020216998
0.00019967617
0.00019786784
0.00019746928
0.00019866861
0.00020087832
0.00020356231
0.00020630587
0.00020889142
0.00021122266
0.00021327833
0.00021507476
0.00021664379
0.00021802086
0.0002192396
0.00022032974
0.00022131684
0.00022222255
0.00022306531
0.00022384911
0.00021784558
0.00021770462
0.00021752283
0.00021727964
0.00021697077
0.00021658997
0.00021612788
0.00021557386
0.00021491511
0.00021413714
0.0002132254
0.00021216906
0.0002109644
0.0002096168
0.00020815801
0.00020668846
0.00020537703
0.00020437169
0.00020371641
0.00020335749
0.00020320023
0.00020317573
0.00020325483
0.00020342552
0.00020369181
0.00020411539
0.00020483344
0.00020600832
0.00020369981
0.00020053454
0.00019731242
0.00019477303
0.00019411544
0.00019577918
0.00019868115
0.00020204675
0.00020532169
0.00020828073
0.00021085487
0.00021305926
0.0002149418
0.00021655783
0.00021795887
0.00021918901
0.00022028467
0.00022127559
0.00022218609
0.00022303638
0.00022383183
0.00021749724
0.00021737688
0.00021721535
0.00021699136
0.00021670051
0.00021633595
0.00021588715
0.00021534157
0.00021468338
0.00021389341
0.00021295009
0.00021183391
0.00021053245
0.00020903901
0.00020736904
0.00020563573
0.00020408429
0.00020294215
0.00020226307
0.0002019502
0.00020184401
0.00020184028
0.00020190701
0.00020203056
0.00020219292
0.00020245153
0.0002029759
0.00020401262
0.00020274104
0.00019896297
0.00019480832
0.00019116783
0.00019001546
0.00019242432
0.00019631627
0.00020058715
0.00020449836
0.0002078604
0.0002106677
0.0002129953
0.00021493527
0.0002165719
0.00021797454
0.00021919781
0.00022028418
0.00022126688
0.00022217221
0.00022302158
0.00022382128
0.00021722981
0.00021713455
0.00021699721
0.00021679692
0.00021652963
0.00021618798
0.00021576033
0.00021523216
0.00021458452
0.00021379322
0.0002128284
0.00021165913
0.00021026171
0.00020861432
0.00020670052
0.00020462979
0.00020276407
0.00020147254
0.00020081725
0.00020063306
0.00020065137
0.00020071747
0.00020080803
0.00020092164
0.00020099198
0.0002010487
0.00020129074
0.00020202698
0.00020228518
0.00019778283
0.0001924101
0.00018708032
0.00018491132
0.00018852357
0.00019383608
0.00019930383
0.00020395251
0.00020771848
0.00021072014
0.0002131233
0.00021507723
0.00021669894
0.00021807544
0.00021927046
0.00022033102
0.00022129247
0.00022218207
0.00022302168
0.0002238179
0.0002172881
0.00021722061
0.00021711337
0.00021694446
0.0002167102
0.00021640301
0.00021601065
0.00021551732
0.00021490164
0.00021413505
0.00021317908
0.00021198779
0.00021052095
0.00020873833
0.00020656841
0.00020406642
0.00020176293
0.00020029858
0.00019972549
0.00019977939
0.00020000158
0.00020016453
0.00020027126
0.00020037205
0.00020030718
0.00020004398
0.00019984339
0.00020006903
0.00020115053
0.00019736056
0.00019061931
0.00018287207
0.00017856455
0.00018411061
0.00019141754
0.0001984075
0.00020385545
0.00020796767
0.00021107862
0.00021347963
0.00021538668
0.00021694854
0.00021826631
0.00021940932
0.00022042639
0.00022135306
0.00022221618
0.00022303707
0.00022382193
0.00021804102
0.00021800837
0.00021794575
0.00021782623
0.00021764622
0.00021739814
0.00021706973
0.00021664447
0.00021609896
0.00021540035
0.00021450061
0.00021333345
0.00021183145
0.00020993466
0.00020750117
0.0002044251
0.00020145672
0.00019982374
0.00019948581
0.00020005371
0.00020069889
0.00020108929
0.00020127999
0.00020149981
0.00020143964
0.0002008889
0.00020028245
0.0001998348
0.00020078483
0.00019972446
0.00019125886
0.00017997998
0.00017089819
0.00017960042
0.00018942476
0.00019822358
0.00020444664
0.00020874429
0.00021181061
0.00021409439
0.00021587558
0.00021732458
0.00021854773
0.00021961386
0.00022056959
0.00022144811
0.00022227425
0.00022306768
0.00022383343
0.0002206754
0.0002207188
0.00022074302
0.00022071633
0.00022063713
0.00022049873
0.00022029017
0.00021999593
0.0002195927
0.00021904634
0.00021830396
0.00021728153
0.00021587604
0.00021400786
0.0002114794
0.00020780606
0.00020385585
0.00020228735
0.00020260071
0.00020433244
0.00020585487
0.00020676792
0.00020719894
0.00020789127
0.00020826645
0.00020729383
0.00020617323
0.00020431536
0.00020495033
0.00020346793
0.00019647342
0.00018115104
0.00016217423
0.00017624655
0.00018863977
0.00019944661
0.00020610581
0.00021020925
0.00021297223
0.0002149819
0.00021654357
0.00021782257
0.00021891489
0.0002198801
0.00022075771
0.0002215757
0.00022235512
0.00022311294
0.0002238522
0.00022640138
0.00022653835
0.00022669332
0.00022681269
0.0002268946
0.00022693456
0.00022692579
0.00022685792
0.00022671313
0.00022646254
0.00022605667
0.0002253993
0.00022432732
0.00022267999
0.00022022937
0.00021581358
0.00020953454
0.00020813818
0.00020933334
0.00021322413
0.00021626796
0.00021818509
0.00021882937
0.00022034216
0.00022211231
9.2988011e-05
9.5423666e-05
9.7696049e-05
9.989785e-05
0.00010291503
9.4475236e-05
8.6194113e-05
0.00010660023
0.0001792679
0.0001933754
0.00020407649
0.00020941097
0.00021249745
0.00021457374
0.00021612486
0.00021737156
0.00021842727
0.00021935671
0.00022020033
0.00022098556
0.00022173246
0.00022245676
0.00022317177
0.00022387784
0.00023912138
0.00023955671
0.00024004329
0.00024051495
0.00024098125
0.00024144683
0.00024191692
0.00024239576
0.00024288259
0.00024336727
0.00024381893
0.0002441484
0.00024413455
0.00024344252
0.00024189938
0.0002381099
0.00022668184
0.00022901693
0.00023515533
0.00024952239
0.00026110499
0.00027002898
0.00012835781
0.0001670114
0.00032427378
0.00046205605
0.00049956686
0.00049956686
0.00049956686
0.00049956686
0.00049956686
0.00045029998
0.00033646373
6.8069707e-05
0.00021291221
0.00021340954
0.00021433577
0.00021545785
0.00021650523
0.00021745441
0.00021831706
0.00021911197
0.00021985606
0.00022056343
0.0002212459
0.00022191376
0.00022257635
0.00022324261
0.00022390969
0.0002639672
0.00026494591
0.00026606691
0.00026723063
0.00026845834
0.00026977535
0.00027121631
0.00027282465
0.00027465365
0.00027677046
0.00027926221
0.00028223155
0.00028577738
0.0002899416
0.00029464723
0.00030238524
0.00027289641
0.00030347706
0.00035518784
0.00037409305
0.00027672717
0.00032121017
0.00049956686
0.00049956686
0.00049956686
0.00049956686
0.00049956686
0.00049956686
0.00049956686
0.00049956686
0.00041267632
0.00041833716
0.00010205756
0.00026648049
0.00023107293
0.00022204633
0.00021923359
0.00021849954
0.00021852405
0.00021885584
0.00021931924
0.00021984157
0.00022039149
0.00022095581
0.00022152999
0.00022211402
0.00022271043
0.00022332351
0.00022394691
0.0003016316
0.00030372838
0.00030581798
0.00030798328
0.00031029977
0.00031284147
0.00031569558
0.00031897616
0.00032284235
0.00032753539
0.00033344877
0.00034117172
0.00035126962
0.00036423378
0.00038422384
0.00040177622
0.00025142368
0.00025514169
0.00025814695
0.000490581
0.00047783333
0.00048810648
0.0004787054
0.0004737293
0.00047746994
0.00045867086
0.00045173477
0.00045353201
0.00044095987
0.00043655412
0.00010695182
0.00010770276
0.00021988524
0.00025238118
0.00023689449
0.00022736518
0.00022307709
0.00022118573
0.0002204206
0.00022021983
0.00022031677
0.00022057959
0.00022094031
0.00022136293
0.00022182838
0.0002223271
0.00022285515
0.00022341225
0.00022398849
0.00028906657
0.00028959948
0.00028981566
0.00029003153
0.00029024741
0.00029049303
0.00029079195
0.00029117809
0.00029170113
0.00029243584
0.00029349947
0.00029463111
0.00029552666
0.00029617135
0.00029340179
0.000103243
0.00037674415
0.00047136113
0.00047151024
0.00049381951
0.00048613221
0.0004824494
0.00012423965
0.00012130512
0.00010079339
0.00010007967
0.00010065538
0.00010200096
0.0001029559
0.00010455107
0.0002012725
0.00020775241
0.00021817294
0.00023911337
0.00023958464
0.00023072116
0.00022592254
0.00022338612
0.0002220813
0.00022146923
0.00022125986
0.00022129389
0.00022148148
0.00022177081
0.00022213172
0.0002225468
0.00022300651
0.00022350645
0.00022403332
0.00022337491
0.00022320169
0.00022290557
0.00022261736
0.00022234416
0.00022210277
0.00022190889
0.0002217857
0.00022176544
0.00022189293
0.00022223202
0.00022217514
0.00022125941
0.00021953387
0.00021686931
0.00021344918
9.5939068e-05
9.916634e-05
9.9899317e-05
9.9802767e-05
0.0001001774
0.00010020367
0.00021258919
0.00021086215
0.0002089781
0.00020559292
0.00020448506
0.00020392979
0.00020216118
0.00020218258
0.00020336649
0.00020908232
0.00021831655
0.00023225803
0.00023803751
0.00023244768
0.00022782606
0.0002250613
0.00022345109
0.00022255715
0.00022211348
0.00022195949
0.00022199744
0.00022216719
0.00022243147
0.00022276725
0.00022316061
0.00022360372
0.00022408027
0.0002192072
0.00021928223
0.00021940344
0.00021953382
0.00021968474
0.00021986843
0.00022009754
0.00022038816
0.00022075963
0.00022123455
0.0002218392
0.00022166075
0.00022092001
0.00021970264
0.00021796594
0.00021519532
0.00021263499
0.00021412279
0.00021595276
0.00021426564
0.000212432
0.00021126476
0.00021010701
0.00020838464
0.00020735044
0.00020573328
0.00020482774
0.00020425458
0.00020353095
0.00020400262
0.00020599052
0.00021095338
0.00021861931
0.000228179
0.00023389755
0.00023315251
0.00022899296
0.00022626067
0.00022452548
0.00022346451
0.00022285767
0.00022255954
0.00022247505
0.00022254216
0.00022272034
0.00022298321
0.00022331385
0.00022370181
0.00022412822
0.00021781672
0.00021789408
0.00021801703
0.00021815343
0.00021830629
0.0002184832
0.00021869266
0.00021894571
0.00021925475
0.0002196332
0.00022003751
0.0002195687
0.00021882279
0.00021776538
0.0002163654
0.00021454563
0.00021337859
0.00021420477
0.00021532415
0.00021353762
0.00021194601
0.00021072736
0.00020957099
0.00020835614
0.00020740153
0.00020634306
0.00020569356
0.00020533433
0.000205262
0.00020614031
0.00020838725
0.00021268082
0.00021882316
0.00022567816
0.00023035987
0.00023232552
0.00022960344
0.00022705885
0.00022532689
0.00022419165
0.0002234849
0.00022308476
0.00022290567
0.00022288848
0.00022299259
0.00022319033
0.0002234631
0.00022379866
0.00022417614
0.00021713556
0.00021725424
0.00021739188
0.00021754097
0.00021770753
0.00021789807
0.00021811882
0.0002183773
0.00021868055
0.00021903387
0.00021927891
0.00021884681
0.0002182065
0.00021733104
0.00021619943
0.00021494542
0.00021429968
0.00021478562
0.00021506785
0.00021344666
0.00021205256
0.00021090251
0.00020984619
0.00020886552
0.00020804618
0.00020731146
0.00020689393
0.00020678051
0.00020707839
0.00020817355
0.00021038841
0.00021404849
0.00021892856
0.00022406649
0.000227917
0.000230268
0.00022982583
0.00022753964
0.00022589229
0.00022475152
0.00022399684
0.0002235321
0.00022328471
0.00022320146
0.00022324405
0.00022338518
0.00022360574
0.00022389248
0.0002242231
0.00021684738
0.0002169197
0.00021703459
0.00021716856
0.00021731988
0.00021749217
0.00021768927
0.00021791612
0.00021817662
0.00021847233
0.00021858191
0.000218202
0.00021767957
0.00021700443
0.00021618639
0.00021539424
0.00021506996
0.00021544571
0.00021501752
0.00021362369
0.00021240284
0.00021135921
0.00021042772
0.00020960874
0.00020893555
0.00020841851
0.0002081789
0.00020825321
0.00020875851
0.00020993586
0.00021200314
0.00021510272
0.00021900395
0.00022299548
0.00022618864
0.00022834943
0.0002293108
0.00022777681
0.00022626213
0.00022516361
0.00022440123
0.0002239032
0.00022361089
0.00022347868
0.00022347203
0.0002235653
0.00022373974
0.00022398182
0.00022426829
0.00021670578
0.00021681772
0.00021694238
0.00021707729
0.00021722651
0.00021739319
0.0002175791
0.00021778617
0.0002180145
0.00021826103
0.00021830272
0.00021796268
0.00021751929
0.00021697769
0.00021637537
0.00021586657
0.00021571762
0.00021600336
0.00021506521
0.00021388346
0.00021282542
0.00021190296
0.0002110963
0.00021041339
0.00020987738
0.00020952102
0.00020941973
0.00020962616
0.00021024173
0.00021142244
0.00021330414
0.00021593105
0.00021909107
0.00022228095
0.00022495334
0.00022689857
0.00022812812
0.0002278359
0.00022647593
0.00022544999
0.00022470925
0.00022420284
0.00022388548
0.00022371956
0.00022367518
0.00022372909
0.00022386365
0.00022406555
0.0002243111
0.00021663511
0.00021670527
0.00021681142
0.00021693437
0.00021707178
0.00021722488
0.00021739391
0.00021757917
0.00021777885
0.00021798762
0.00021801729
0.00021773972
0.00021739142
0.00021698533
0.00021656784
0.00021626133
0.00021623051
0.00021618446
0.0002151537
0.00021416015
0.00021325435
0.00021245665
0.00021177
0.0002112081
0.00021079392
0.00021056319
0.00021057044
0.00021086837
0.00021153705
0.00021267814
0.00021436955
0.00021660475
0.00021920212
0.00022180824
0.00022406526
0.00022579911
0.00022698446
0.00022751398
0.00022656797
0.00022563244
0.00022493357
0.00022443773
0.00022411149
0.00022392501
0.00022385321
0.00022387575
0.00022397652
0.00022414287
0.00022435103
0.00021658415
0.00021667557
0.00021678237
0.00021689854
0.00021702571
0.00021716493
0.00021731541
0.00021747602
0.00021764351
0.00021781126
0.00021784122
0.00021761011
0.00021733432
0.00021703237
0.0002167506
0.00021658125
0.00021662602
0.00021611056
0.00021526452
0.00021443517
0.00021366967
0.00021299342
0.00021242058
0.00021196876
0.00021166163
0.00021153254
0.00021162453
0.00021198393
0.0002126709
0.00021375054
0.00021526228
0.0002171754
0.0002193407
0.00022150762
0.00022343062
0.00022496954
0.0002260847
0.00022680632
0.00022656827
0.00022573119
0.00022508704
0.0002246155
0.00022429306
0.00022409692
0.00022400672
0.00022400514
0.00022407788
0.00022421326
0.00022438775
0.00021655473
0.00021662197
0.00021671732
0.00021682505
0.00021694307
0.00021707119
0.0002172076
0.00021735021
0.00021749475
0.0002176339
0.00021768806
0.00021750608
0.00021729791
0.00021708423
0.00021690688
0.00021683469
0.00021673307
0.00021608903
0.00021539494
0.00021470806
0.00021407002
0.00021350789
0.000213041
0.00021268908
0.00021247556
0.00021243015
0.00021258782
0.00021298675
0.00021367051
0.00021467928
0.0002160281
0.00021767678
0.00021950529
0.00022133288
0.00022298459
0.00022434883
0.00022538247
0.0002260953
0.00022638651
0.00022576382
0.00022518181
0.00022474399
0.00022443492
0.0002242379
0.00022413692
0.00022411762
0.00022416766
0.00022427649
0.00022442106
0.00021653352
0.00021660654
0.00021669759
0.00021679682
0.00021690394
0.00021701867
0.00021713875
0.0002172616
0.00021738266
0.00021749465
0.0002175669
0.00021743249
0.00021727975
0.00021713579
0.00021703631
0.00021697215
0.00021663592
0.00021611003
0.0002155431
0.00021498008
0.00021445685
0.00021399996
0.00021363044
0.00021336861
0.00021323675
0.00021326072
0.00021346907
0.00021389191
0.00021455974
0.00021549574
0.00021670027
0.0002181314
0.00021969336
0.00022125311
0.00022268225
0.00022389209
0.00022484121
0.00022552798
0.0002259768
0.00022574556
0.00022522895
0.00022483082
0.00022454203
0.00022435096
0.00022424545
0.00022421398
0.0002242461
0.00022433253
0.00022445088
0.00021652528
0.0002165864
0.00021666993
0.00021676198
0.00021686068
0.00021696515
0.0002170727
0.00021718042
0.00021728364
0.00021737546
0.00021744618
0.00021737615
0.00021727011
0.00021718155
0.0002171242
0.00021695362
0.00021659361
0.00021616615
0.00021570716
0.00021525218
0.00021483181
0.00021447079
0.00021418994
0.00021400898
0.00021394837
0.00021403025
0.00021427772
0.00021471372
0.00021535877
0.00021622459
0.00021730315
0.00021855461
0.00021990254
0.00022124708
0.00022249174
0.00022356589
0.000224432
0.00022508244
0.00022553104
0.00022566975
0.00022523821
0.00022488309
0.00022461929
0.00022443928
0.00022433428
0.00022429526
0.00022431368
0.00022438154
0.00022447722
0.0002165243
0.00021658409
0.00021666223
0.00021674674
0.00021683633
0.00021693005
0.0002170251
0.00021711855
0.00021720592
0.00021728097
0.00021733531
0.00021732813
0.00021726449
0.00021720449
0.00021711145
0.00021688751
0.00021659389
0.00021625028
0.00021588416
0.00021552392
0.00021519553
0.00021492129
0.00021472074
0.00021461222
0.00021461396
0.00021474462
0.00021502254
0.00021546465
0.00021608399
0.00021688464
0.00021785418
0.00021895646
0.00022013023
0.00022129916
0.00022238934
0.00022334432
0.00022413117
0.00022473956
0.00022517656
0.00022546038
0.00022521794
0.00022490722
0.00022467135
0.00022450611
0.00022440548
0.00022436273
0.00022437107
0.0002244238
0.00022450018
0.00021653178
0.00021658534
0.00021665787
0.00021673607
0.00021681816
0.00021690302
0.0002169878
0.00021706968
0.00021714454
0.0002172069
0.00021724974
0.00021726458
0.00021723219
0.0002171717
0.00021704584
0.00021686241
0.00021662739
0.00021635642
0.00021607113
0.00021579448
0.00021554838
0.00021535252
0.00021522459
0.00021518104
0.00021523771
0.00021541
0.00021571213
0.00021615611
0.00021674941
0.00021749113
0.0002183669
0.00021934467
0.00022037505
0.00022139873
0.00022235825
0.00022320831
0.00022392062
0.00022448408
0.00022490161
0.00022518584
0.00022517548
0.00022490904
0.00022470264
0.00022455459
0.00022446122
0.00022441776
0.00022441906
0.00022445971
0.00022451989
0.0002165452
0.00021659564
0.00021666337
0.0002167355
0.0002168104
0.000216887
0.00021696254
0.00021703442
0.00021709898
0.00021715158
0.00021718647
0.00021719704
0.00021717612
0.00021711689
0.00021701434
0.00021686881
0.00021668605
0.00021647888
0.00021626471
0.00021606228
0.00021589004
0.00021576505
0.00021570288
0.00021571786
0.00021582338
0.00021603184
0.00021635388
0.00021679752
0.00021736612
0.00021805556
0.00021885094
0.00021972421
0.00022063521
0.00022153723
0.00022238508
0.00022314228
0.00022378495
0.00022430234
0.00022469499
0.00022497172
0.00022510198
0.00022489349
0.00022471706
0.00022458769
0.0002245036
0.00022446175
0.00022445849
0.00022448969
0.00022453652
0.00021656397
0.0002166106
0.00021667401
0.00021674093
0.00021680967
0.00021687921
0.00021694694
0.00021701058
0.000217067
0.00021711238
0.00021714222
0.00021715149
0.00021713511
0.00021708863
0.00021700939
0.00021689915
0.0002167634
0.0002166129
0.0002164619
0.00021632585
0.00021622023
0.00021615958
0.00021615727
0.00021622542
0.00021637501
0.00021661565
0.00021695492
0.00021739755
0.00021794388
0.00021858775
0.00021931446
0.00022009959
0.00022091023
0.00022170917
0.00022246055
0.00022313501
0.00022371266
0.00022418378
0.00022454775
0.00022481088
0.00022498416