/*--------------------------------*- C++ -*----------------------------------*\
| =========                 |                                                 |
| \\      /  F ield         | foam-extend: Open Source CFD                    |
|  \\    /   O peration     | Version:     4.1                                |
|   \\  /    A nd           | Web:         http://www.foam-extend.org         |
|    \\/     M anipulation  |                                                 |
\*---------------------------------------------------------------------------*/
FoamFile
{
    version     2.0;
    format      ascii;
    class       volVectorField;
    location    "0.4";
    object      U;
}
// * * * * * * * * * * * * * * * * * * * * * * * * * * * * * * * * * * * * * //

dimensions      [0 1 -1 0 0 0 0];

internalField   nonuniform List<vector> 
4393
(
(146.0176 -0.15671445 0)
(146.56703 -0.16319083 0)
(146.9821 -0.1662473 0)
(147.42423 -0.16994036 0)
(147.87633 -0.17439021 0)
(148.34328 -0.17968223 0)
(148.82731 -0.18573828 0)
(149.33056 -0.19241228 0)
(149.85464 -0.19949881 0)
(150.40045 -0.20673507 0)
(150.96803 -0.21380094 0)
(151.55637 -0.22032205 0)
(152.16328 -0.22587832 0)
(152.78523 -0.23001973 0)
(153.41733 -0.23228928 0)
(154.05331 -0.23225091 0)
(154.68567 -0.22951742 0)
(155.30581 -0.2237723 0)
(155.90433 -0.2147813 0)
(156.47125 -0.20239307 0)
(156.99622 -0.18653253 0)
(157.4688 -0.16719308 0)
(157.87859 -0.14443417 0)
(158.21548 -0.11838932 0)
(158.46988 -0.089288206 0)
(158.63307 -0.057489982 0)
(158.69773 -0.023504924 0)
(158.65866 0.011996622 0)
(158.51255 0.047938894 0)
(158.26025 0.082904378 0)
(157.90679 0.11544357 0)
(157.46151 0.14414374 0)
(156.93783 0.16777527 0)
(156.35241 0.1854447 0)
(155.72396 0.1966934 0)
(155.07188 0.20151721 0)
(154.41495 0.20031255 0)
(153.77025 0.19377357 0)
(153.15253 0.18277102 0)
(152.57382 0.16823849 0)
(152.04341 0.1510821 0)
(151.56808 0.13211918 0)
(151.15239 0.11204496 0)
(150.7991 0.091434151 0)
(150.50959 0.070791763 0)
(150.2843 0.050576847 0)
(150.12267 0.030944276 0)
(150.0211 0.011794482 0)
(149.97393 -0.0031354154 0)
(149.44082 -0.39550476 0)
(149.91103 -0.40657883 0)
(150.25803 -0.41480459 0)
(150.62893 -0.4254729 0)
(151.00959 -0.43869804 0)
(151.40501 -0.45451549 0)
(151.81756 -0.47265522 0)
(152.24947 -0.49267233 0)
(152.70244 -0.51395522 0)
(153.17744 -0.53572363 0)
(153.67462 -0.55702615 0)
(154.19303 -0.57674769 0)
(154.73053 -0.59363362 0)
(155.28365 -0.60633572 0)
(155.84749 -0.61348054 0)
(156.41574 -0.61375375 0)
(156.98083 -0.60598526 0)
(157.53407 -0.58921647 0)
(158.06594 -0.56273628 0)
(158.56635 -0.52608354 0)
(159.02486 -0.47902745 0)
(159.43092 -0.42154488 0)
(159.77403 -0.35381489 0)
(160.04394 -0.27624673 0)
(160.2309 -0.18955248 0)
(160.32599 -0.094862032 0)
(160.32166 0.0061649965 0)
(160.21231 0.11127639 0)
(159.99582 0.21738719 0)
(159.67292 0.32067898 0)
(159.24839 0.41695025 0)
(158.73144 0.50200082 0)
(158.13548 0.57213673 0)
(157.47735 0.6246487 0)
(156.776 0.65811738 0)
(156.05106 0.67247659 0)
(155.32151 0.66885336 0)
(154.60455 0.64926097 0)
(153.91493 0.6162373 0)
(153.26461 0.57250534 0)
(152.6628 0.52070264 0)
(152.11613 0.4631956 0)
(151.62907 0.40197579 0)
(151.20433 0.33864932 0)
(150.84332 0.27453724 0)
(150.54636 0.21069992 0)
(150.31263 0.14742548 0)
(150.14104 0.084559136 0)
(150.03535 0.028684483 0)
(149.70654 -0.63039505 0)
(150.16159 -0.63977752 0)
(150.49766 -0.65213742 0)
(150.85673 -0.66933797 0)
(151.2256 -0.69122661 0)
(151.60936 -0.71758063 0)
(152.01048 -0.74789075 0)
(152.43135 -0.78139917 0)
(152.87377 -0.81708516 0)
(153.33888 -0.85364863 0)
(153.82696 -0.88950056 0)
(154.33725 -0.92277206 0)
(154.86776 -0.95135271 0)
(155.41511 -0.9729669 0)
(155.97446 -0.9852908 0)
(156.53953 -0.98609884 0)
(157.10266 -0.97341328 0)
(157.65508 -0.94562213 0)
(158.18716 -0.90153993 0)
(158.68869 -0.84040702 0)
(159.14916 -0.76184822 0)
(159.5579 -0.6658257 0)
(159.90433 -0.55262299 0)
(160.17801 -0.42288957 0)
(160.36892 -0.27776578 0)
(160.46773 -0.11909233 0)
(160.46637 0.050340312 0)
(160.35861 0.22663122 0)
(160.14085 0.40470934 0)
(159.81315 0.5783234 0)
(159.38002 0.74036516 0)
(158.8509 0.88363013 0)
(158.23986 1.0017549 0)
(157.56476 1.0900826 0)
(156.84575 1.1462069 0)
(156.10363 1.1700731 0)
(155.3583 1.1636814 0)
(154.6276 1.1305345 0)
(153.92659 1.0750002 0)
(153.2673 1.0017227 0)
(152.65875 0.91516157 0)
(152.1073 0.81928148 0)
(151.61706 0.71738564 0)
(151.19042 0.61208968 0)
(150.8285 0.50541546 0)
(150.53117 0.39879423 0)
(150.29716 0.29273893 0)
(150.1272 0.18756294 0)
(150.02932 0.087587268 0)
(149.79885 -0.85982456 0)
(150.24598 -0.86989011 0)
(150.57747 -0.88642888 0)
(150.93173 -0.91025882 0)
(151.29604 -0.94099023 0)
(151.67557 -0.97817204 0)
(152.07301 -1.0210621 0)
(152.49093 -1.0686051 0)
(152.93134 -1.1193903 0)
(153.39563 -1.1716142 0)
(153.88431 -1.2230587 0)
(154.39683 -1.2710965 0)
(154.93138 -1.3127398 0)
(155.48469 -1.3447458 0)
(156.05191 -1.3637854 0)
(156.62661 -1.3666615 0)
(157.2009 -1.3505355 0)
(157.7657 -1.3131065 0)
(158.31102 -1.2526996 0)
(158.82632 -1.1682548 0)
(159.3008 -1.0592512 0)
(159.72352 -0.9256201 0)
(160.08361 -0.76770598 0)
(160.3703 -0.58631938 0)
(160.57306 -0.3829124 0)
(160.68191 -0.1598847 0)
(160.68791 0.079028025 0)
(160.58386 0.32843843 0)
(160.36509 0.58111153 0)
(160.03088 0.82801315 0)
(159.58534 1.0587869 0)
(159.03819 1.2628416 0)
(158.40457 1.430785 0)
(157.70395 1.5557746 0)
(156.9584 1.6343548 0)
(156.19052 1.6665897 0)
(155.42168 1.6555752 0)
(154.67069 1.6065751 0)
(153.95309 1.5260504 0)
(153.28093 1.4207867 0)
(152.66296 1.2972287 0)
(152.10508 1.1610509 0)
(151.61085 1.0169451 0)
(151.18215 0.86859392 0)
(150.81959 0.71876226 0)
(150.52249 0.56933662 0)
(150.28927 0.4213432 0)
(150.12139 0.27584975 0)
(150.02719 0.13526921 0)
(149.90743 -1.0837938 0)
(150.34651 -1.0954896 0)
(150.67267 -1.1163308 0)
(151.02158 -1.1469101 0)
(151.38089 -1.1866665 0)
(151.75591 -1.23496 0)
(152.14954 -1.2908285 0)
(152.56459 -1.3529298 0)
(153.00338 -1.4194704 0)
(153.46759 -1.488145 0)
(153.95806 -1.5560958 0)
(154.47455 -1.61991 0)
(155.01547 -1.6756731 0)
(155.57769 -1.7191026 0)
(156.15635 -1.7457753 0)
(156.74484 -1.7514318 0)
(157.3349 -1.7323022 0)
(157.91698 -1.6853632 0)
(158.48061 -1.608458 0)
(159.01482 -1.5002642 0)
(159.50839 -1.360161 0)
(159.95008 -1.1880792 0)
(160.32868 -0.98442 0)
(160.63301 -0.75010838 0)
(160.85196 -0.48682134 0)
(160.97465 -0.19740667 0)
(160.99102 0.11356506 0)
(160.8925 0.43932323 0)
(160.67292 0.77054465 0)
(160.33026 1.0952341 0)
(159.868 1.3993595 0)
(159.29621 1.668365 0)
(158.6315 1.8892705 0)
(157.89569 2.0526788 0)
(157.11359 2.1539953 0)
(156.31041 2.1935721 0)
(155.50954 2.1759374 0)
(154.73112 2.1085074 0)
(153.99127 2.0001935 0)
(153.302 1.8601916 0)
(152.67164 1.6970954 0)
(152.10539 1.5183515 0)
(151.60603 1.3300167 0)
(151.1747 1.1367459 0)
(150.8113 0.94190594 0)
(150.51456 0.74769653 0)
(150.28265 0.55541142 0)
(150.11724 0.36626552 0)
(150.0259 0.18150682 0)
(150.04451 -1.3052176 0)
(150.47363 -1.3190349 0)
(150.79299 -1.3443651 0)
(151.1351 -1.3819158 0)
(151.48807 -1.4310209 0)
(151.85736 -1.4909082 0)
(152.24611 -1.5604348 0)
(152.65746 -1.6380052 0)
(153.09407 -1.7214721 0)
(153.55804 -1.808046 0)
(154.0506 -1.8942298 0)
(154.57193 -1.9757984 0)
(155.12079 -2.047851 0)
(155.69425 -2.1049681 0)
(156.28743 -2.1415027 0)
(156.89346 -2.1519946 0)
(157.50363 -2.1316263 0)
(158.10776 -2.0765864 0)
(158.69472 -1.9842294 0)
(159.25294 -1.8530039 0)
(159.77075 -1.6822299 0)
(160.23654 -1.4718499 0)
(160.63874 -1.2222781 0)
(160.96572 -0.93443867 0)
(161.20566 -0.61005024 0)
(161.34663 -0.25218234 0)
(161.37707 0.13397337 0)
(161.2866 0.54035095 0)
(161.06693 0.95544992 0)
(160.71421 1.3640293 0)
(160.23085 1.7477782 0)
(159.62726 2.0873409 0)
(158.92205 2.36533 0)
(158.14031 2.5692658 0)
(157.31066 2.6933186 0)
(156.46184 2.7384227 0)
(155.61999 2.7110728 0)
(154.80687 2.6214425 0)
(154.03927 2.4814404 0)
(153.32905 2.303094 0)
(152.68382 2.0974225 0)
(152.1078 1.8737942 0)
(151.60271 1.6396785 0)
(151.16863 1.4006762 0)
(150.80455 1.1606924 0)
(150.5084 0.92216204 0)
(150.27795 0.68642249 0)
(150.11462 0.45433558 0)
(150.02517 0.22605898 0)
(150.21074 -1.5176344 0)
(150.62833 -1.5338712 0)
(150.93938 -1.5639606 0)
(151.27312 -1.6088184 0)
(151.61824 -1.6677042 0)
(151.98037 -1.7397573 0)
(152.36296 -1.8236934 0)
(152.76949 -1.9177025 0)
(153.2031 -2.019317 0)
(153.66635 -2.1252864 0)
(154.16104 -2.2314768 0)
(154.68787 -2.3328233 0)
(155.24606 -2.423368 0)
(155.83295 -2.4964333 0)
(156.44372 -2.5449832 0)
(157.07117 -2.5621758 0)
(157.70596 -2.5419997 0)
(158.33707 -2.4797884 0)
(158.95251 -2.3724321 0)
(159.53997 -2.2182411 0)
(160.08723 -2.0165815 0)
(160.58231 -1.7674747 0)
(161.0133 -1.4713376 0)
(161.36816 -1.1289812 0)
(161.63432 -0.74194877 0)
(161.79857 -0.31323341 0)
(161.84751 0.15166991 0)
(161.76843 0.64365958 0)
(161.55014 1.149167 0)
(161.18611 1.6493915 0)
(160.67707 2.1209421 0)
(160.03367 2.5384727 0)
(159.27714 2.8789843 0)
(158.43707 3.1261405 0)
(157.54724 3.272745 0)
(156.64116 3.3207434 0)
(155.74846 3.2793427 0)
(154.89294 3.1622821 0)
(154.092 2.9851611 0)
(153.35712 2.763336 0)
(152.69486 2.5105469 0)
(152.10808 2.2382092 0)
(151.59707 1.9552119 0)
(151.16059 1.6680399 0)
(150.79645 1.3810588 0)
(150.50166 1.0968726 0)
(150.27332 0.81677499 0)
(150.11233 0.54123527 0)
(150.0246 0.26962525 0)
(150.40545 -1.7285781 0)
(150.809 -1.7472534 0)
(151.11011 -1.7821255 0)
(151.43384 -1.8344002 0)
(151.76951 -1.9033121 0)
(152.12296 -1.9879673 0)
(152.49797 -2.086997 0)
(152.89845 -2.1984351 0)
(153.32805 -2.3195486 0)
(153.78997 -2.4466682 0)
(154.28667 -2.5750403 0)
(154.81952 -2.6987374 0)
(155.38837 -2.810665 0)
(155.991 -2.9027353 0)
(156.62263 -2.9662992 0)
(157.27571 -2.9928756 0)
(157.94006 -2.9750419 0)
(158.60354 -2.9071708 0)
(159.25303 -2.7857168 0)
(159.87529 -2.6089765 0)
(160.45749 -2.3765065 0)
(160.98729 -2.0884978 0)
(161.45259 -1.7453524 0)
(161.84096 -1.3476135 0)
(162.13913 -0.89635003 0)
(162.3325 -0.39406287 0)
(162.40541 0.15391033 0)
(162.34222 0.73778601 0)
(162.12786 1.3420507 0)
(161.75198 1.9440317 0)
(161.21259 2.5142338 0)
(160.52038 3.019655 0)
(159.69994 3.4299471 0)
(158.78698 3.7238269 0)
(157.82238 3.8926198 0)
(156.84592 3.9399816 0)
(155.89166 3.8789437 0)
(154.98574 3.7279535 0)
(154.14604 3.5072353 0)
(153.38324 3.236108 0)
(152.70237 2.9313758 0)
(152.10442 2.6066159 0)
(151.58784 2.2720929 0)
(151.1497 1.9350403 0)
(150.7864 1.6001077 0)
(150.49384 1.2698733 0)
(150.26832 0.94538186 0)
(150.11003 0.62661057 0)
(150.02406 0.31226704 0)
(150.62808 -1.9247003 0)
(151.01606 -1.9460555 0)
(151.30566 -1.9861175 0)
(151.61765 -2.0463707 0)
(151.94214 -2.1260394 0)
(152.28518 -2.2242432 0)
(152.65094 -2.339588 0)
(153.04382 -2.4700179 0)
(153.46808 -2.612601 0)
(153.92765 -2.7633029 0)
(154.42584 -2.9167774 0)
(154.9649 -3.066214 0)
(155.54548 -3.2032909 0)
(156.16598 -3.3183212 0)
(156.8218 -3.4007466 0)
(157.50494 -3.4400921 0)
(158.20413 -3.4272205 0)
(158.90575 -3.3554083 0)
(159.59518 -3.2207484 0)
(160.25801 -3.0217464 0)
(160.88073 -2.7584048 0)
(161.45078 -2.4312627 0)
(161.95599 -2.0407378 0)
(162.38384 -1.5869442 0)
(162.72043 -1.0701074 0)
(162.9497 -0.49168766 0)
(163.05335 0.14378045 0)
(163.01211 0.82643658 0)
(162.80577 1.5392333 0)
(162.41851 2.2553856 0)
(161.84415 2.9380155 0)
(161.09274 3.5441173 0)
(160.19333 4.0334268 0)
(159.19 4.3781254 0)
(158.13331 4.5679759 0)
(157.07132 4.6094251 0)
(156.04367 4.5209319 0)
(155.07901 4.3272055 0)
(154.19539 4.054291 0)
(153.40207 3.7262249 0)
(152.70181 3.363243 0)
(152.09314 2.9811703 0)
(151.57214 2.5915613 0)
(151.13381 2.2022269 0)
(150.77286 1.8179031 0)
(150.48391 1.4409398 0)
(150.26229 1.071942 0)
(150.10736 0.71027574 0)
(150.02345 0.35394034 0)
(150.87838 -2.1226584 0)
(151.24749 -2.1465721 0)
(151.52373 -2.1916759 0)
(151.82209 -2.2598212 0)
(152.13353 -2.3502844 0)
(152.46429 -2.4622658 0)
(152.81894 -2.594427 0)
(153.20244 -2.7447152 0)
(153.61976 -2.9100979 0)
(154.0757 -3.0862665 0)
(154.57458 -3.267344 0)
(155.11978 -3.4456471 0)
(155.71303 -3.6115518 0)
(156.3536 -3.7535665 0)
(157.03725 -3.8588561 0)
(157.75546 -3.9144735 0)
(158.49552 -3.9091436 0)
(159.2418 -3.8348634 0)
(159.97768 -3.6874924 0)
(160.68727 -3.4660906 0)
(161.35636 -3.1714868 0)
(161.97231 -2.8048262 0)
(162.52326 -2.3665917 0)
(162.9969 -1.8562624 0)
(163.37901 -1.2727314 0)
(163.6521 -0.61567709 0)
(163.79488 0.11207317 0)
(163.7837 0.90149666 0)
(163.59159 1.7346724 0)
(163.19509 2.5806748 0)
(162.58135 3.3937378 0)
(161.75873 4.1175607 0)
(160.76193 4.6981381 0)
(159.64677 5.0987975 0)
(158.4771 5.3077877 0)
(157.312 5.3360759 0)
(156.19786 5.2098993 0)
(155.16594 4.962353 0)
(154.23377 4.6268186 0)
(153.40822 4.2329105 0)
(152.68885 3.8046312 0)
(152.0709 3.3600397 0)
(151.54749 2.9117738 0)
(151.11114 2.4679381 0)
(150.75462 2.0330633 0)
(150.47105 1.6090055 0)
(150.25472 1.1957132 0)
(150.1041 0.79180358 0)
(150.02272 0.39446661 0)
(151.15448 -2.2955948 0)
(151.5037 -2.3222061 0)
(151.76496 -2.3727443 0)
(152.04785 -2.4493901 0)
(152.34428 -2.5514878 0)
(152.66072 -2.6783834 0)
(153.00219 -2.828885 0)
(153.37422 -3.0010546 0)
(153.78258 -3.1918817 0)
(154.23311 -3.3969019 0)
(154.73136 -3.6097958 0)
(155.28208 -3.8220353 0)
(155.88847 -4.0226201 0)
(156.55105 -4.1980047 0)
(157.2662 -4.3325797 0)
(158.02484 -4.4102245 0)
(158.81241 -4.4168666 0)
(159.6105 -4.3429175 0)
(160.39976 -4.1841803 0)
(161.16245 -3.9407883 0)
(161.88364 -3.6149749 0)
(162.55095 -3.2088997 0)
(163.1533 -2.7232526 0)
(163.67917 -2.156703 0)
(164.11452 -1.5062614 0)
(164.44063 -0.76889719 0)
(164.63296 0.055471072 0)
(164.66264 0.96003553 0)
(164.49403 1.9271733 0)
(164.09295 2.9221757 0)
(163.43619 3.8887897 0)
(162.52821 4.7527975 0)
(161.41106 5.4406144 0)
(160.15711 5.9032257 0)
(158.84887 6.1277167 0)
(157.55997 6.1323405 0)
(156.34493 5.9545664 0)
(155.2373 5.6387548 0)
(154.25289 5.2275044 0)
(153.39475 4.7569418 0)
(152.65798 4.2550854 0)
(152.03354 3.7420686 0)
(151.51089 3.23126 0)
(151.07962 2.7306524 0)
(150.73027 2.2441876 0)
(150.4544 1.7728982 0)
(150.24514 1.3158185 0)
(150.10004 0.87063498 0)
(150.02182 0.4335803 0)
(151.45791 -2.4789349 0)
(151.78282 -2.5083187 0)
(152.02694 -2.5642498 0)
(152.29214 -2.6493499 0)
(152.57132 -2.7631081 0)
(152.87108 -2.9050964 0)
(153.19687 -3.0743741 0)
(153.55487 -3.2692484 0)
(153.95172 -3.4868846 0)
(154.39445 -3.7228226 0)
(154.8901 -3.9704382 0)
(155.44514 -4.2204364 0)
(156.06468 -4.4604121 0)
(156.75105 -4.6745291 0)
(157.50171 -4.8438111 0)
(158.30709 -4.9480266 0)
(159.15014 -4.9693861 0)
(160.00861 -4.8963336 0)
(160.85936 -4.7249987 0)
(161.68221 -4.4574984 0)
(162.46155 -4.0984303 0)
(163.18573 -3.6516179 0)
(163.84516 -3.118191 0)
(164.42995 -2.4958056 0)
(164.92699 -1.7788556 0)
(165.3168 -0.96029087 0)
(165.57156 -0.03541267 0)
(165.65546 0.99309527 0)
(165.52378 2.109638 0)
(165.12666 3.2772008 0)
(164.4248 4.4275501 0)
(163.41476 5.4621101 0)
(162.14789 6.2786157 0)
(160.72058 6.8103111 0)
(159.24187 7.0441696 0)
(157.80471 7.0102102 0)
(156.47307 6.7622414 0)
(155.28178 6.3597564 0)
(154.24293 5.8568262 0)
(153.35374 5.2969974 0)
(152.60314 4.7123421 0)
(151.97662 4.1246557 0)
(151.4592 3.5474635 0)
(151.03712 2.9880745 0)
(150.69848 2.4493474 0)
(150.43313 1.9310972 0)
(150.23309 1.4311513 0)
(150.09497 0.94606099 0)
(150.0207 0.47093743 0)
(151.78315 -2.6199234 0)
(152.08361 -2.6516636 0)
(152.30901 -2.7128285 0)
(152.55461 -2.8064207 0)
(152.81443 -2.9320961 0)
(153.0952 -3.0897458 0)
(153.40281 -3.2788204 0)
(153.74407 -3.4980566 0)
(154.12659 -3.7450214 0)
(154.55875 -4.0155112 0)
(155.04931 -4.3028359 0)
(155.6069 -4.5971137 0)
(156.23905 -4.8846043 0)
(156.95067 -5.1469999 0)
(157.74105 -5.3612471 0)
(158.60031 -5.5016586 0)
(159.50808 -5.5452551 0)
(160.43667 -5.4777838 0)
(161.35759 -5.2961232 0)
(162.24742 -5.0055698 0)
(163.09005 -4.6142986 0)
(163.87537 -4.1285067 0)
(164.59636 -3.5499514 0)
(165.24596 -2.8750514 0)
(165.8132 -2.0948131 0)
(166.27874 -1.1966517 0)
(166.61154 -0.1691593 0)
(166.76842 0.99134427 0)
(166.69291 2.2740397 0)
(166.31434 3.6425328 0)
(165.56843 5.0159472 0)
(164.43654 6.2625603 0)
(162.98155 7.2369019 0)
(161.33551 7.8457526 0)
(159.64599 8.0785821 0)
(158.03158 7.984485 0)
(156.56664 7.6412003 0)
(155.28501 7.1284703 0)
(154.19195 6.5144125 0)
(153.27589 5.8506983 0)
(152.51747 5.173107 0)
(151.89529 4.5043053 0)
(151.38914 3.8571037 0)
(150.9815 3.2373505 0)
(150.65788 2.6461999 0)
(150.40646 2.081785 0)
(150.21817 1.5404 0)
(150.08875 1.0172389 0)
(150.01933 0.50612626 0)
(152.13496 -2.7877693 0)
(152.40525 -2.8227517 0)
(152.60943 -2.8898693 0)
(152.8329 -2.992634 0)
(153.07067 -3.1309649 0)
(153.3295 -3.3051736 0)
(153.61561 -3.5152354 0)
(153.93644 -3.7604901 0)
(154.3006 -4.0391247 0)
(154.71798 -4.3474471 0)
(155.19939 -4.6789515 0)
(155.75602 -5.0233543 0)
(156.39857 -5.3656594 0)
(157.1356 -5.6849082 0)
(157.96948 -5.9530655 0)
(158.89057 -6.1370106 0)
(159.87419 -6.2062439 0)
(160.88484 -6.1426775 0)
(161.88634 -5.9447901 0)
(162.85095 -5.6232889 0)
(163.76241 -5.1922552 0)
(164.61328 -4.6617887 0)
(165.40043 -4.0350209 0)
(166.12111 -3.3073482 0)
(166.76813 -2.4657781 0)
(167.32361 -1.4902344 0)
(167.75378 -0.35947841 0)
(168.00763 0.9401566 0)
(168.01533 2.4067348 0)
(167.67899 4.0099211 0)
(166.89594 5.6580037 0)
(165.61901 7.1746856 0)
(163.92433 8.3476473 0)
(161.9985 9.0423756 0)
(160.04647 9.2569254 0)
(158.22054 9.0714693 0)
(156.6053 8.5990058 0)
(155.22923 7.9461131 0)
(154.08579 7.1976345 0)
(153.15067 6.4135404 0)
(152.39352 5.6323171 0)
(151.78451 4.8761609 0)
(151.29741 4.1559089 0)
(150.91068 3.4749336 0)
(150.60723 2.8319331 0)
(150.37369 2.2228351 0)
(150.20001 1.6420539 0)
(150.08123 1.0832052 0)
(150.01768 0.53867655 0)
(152.50066 -2.8868115 0)
(152.74166 -2.9233448 0)
(152.92312 -2.9948473 0)
(153.12249 -3.1052143 0)
(153.33596 -3.2546156 0)
(153.57026 -3.4438661 0)
(153.8319 -3.6736223 0)
(154.12892 -3.9440676 0)
(154.47094 -4.254352 0)
(154.86948 -4.6017494 0)
(155.33771 -4.9804602 0)
(155.8899 -5.3803059 0)
(156.5407 -5.7855039 0)
(157.3037 -6.1727543 0)
(158.18627 -6.5084524 0)
(159.18018 -6.7496539 0)
(160.25498 -6.8549911 0)
(161.36367 -6.8008661 0)
(162.45856 -6.5887304 0)
(163.50582 -6.2379614 0)
(164.48971 -5.7714688 0)
(165.40733 -5.2043435 0)
(166.26143 -4.5407206 0)
(167.05563 -3.7741115 0)
(167.78924 -2.8860716 0)
(168.44837 -1.8461884 0)
(168.9977 -0.61944257 0)
(169.37826 0.82179162 0)
(169.50628 2.4888711 0)
(169.24946 4.3654657 0)
(168.44688 6.3555974 0)
(166.99846 8.2249757 0)
(164.99294 9.6554283 0)
(162.70297 10.444225 0)
(160.42136 10.611905 0)
(158.34388 10.289467 0)
(156.56258 9.6421208 0)
(155.09253 8.8113614 0)
(153.90796 7.9010336 0)
(152.96646 6.9784992 0)
(152.22351 6.0829134 0)
(151.63926 5.233899 0)
(151.18092 4.4385852 0)
(150.82282 3.696593 0)
(150.5455 3.0032924 0)
(150.33424 2.3518424 0)
(150.17837 1.7344322 0)
(150.07231 1.1428975 0)
(150.01572 0.56807202 0)
(152.89425 -3.0384838 0)
(153.0991 -3.0790634 0)
(153.2553 -3.1572366 0)
(153.42805 -3.2774621 0)
(153.61446 -3.4403337 0)
(153.82096 -3.6473714 0)
(154.05421 -3.9001656 0)
(154.32266 -4.200054 0)
(154.63687 -4.5475369 0)
(155.01002 -4.9413356 0)
(155.45788 -5.3768873 0)
(155.99832 -5.8445605 0)
(156.65077 -6.3281212 0)
(157.43567 -6.802172 0)
(158.36848 -7.2266487 0)
(159.44477 -7.5447503 0)
(160.62692 -7.6978228 0)
(161.85096 -7.6527564 0)
(163.05208 -7.4152808 0)
(164.18821 -7.0182334 0)
(165.24586 -6.4981574 0)
(166.23003 -5.8775049 0)
(167.15187 -5.1623311 0)
(168.0236 -4.3457508 0)
(168.85394 -3.4055669 0)
(169.636 -2.3004024 0)
(170.33414 -0.97776105 0)
(170.8813 0.60934801 0)
(171.18096 2.4927656 0)
(171.06123 4.6848923 0)
(170.27589 7.1040951 0)
(168.62827 9.4465271 0)
(166.21103 11.223374 0)
(163.4368 12.111029 0)
(160.73784 12.184435 0)
(158.36322 11.657874 0)
(156.40426 10.774131 0)
(154.84839 9.7186348 0)
(153.63972 8.6150397 0)
(152.71089 7.5352197 0)
(151.99971 6.5154012 0)
(151.45496 5.5695344 0)
(151.03705 4.6987628 0)
(150.71652 3.8974306 0)
(150.47194 3.1566252 0)
(150.28778 2.466173 0)
(150.15307 1.8157271 0)
(150.06194 1.1951869 0)
(150.01346 0.59376676 0)
(153.28736 -3.0851005 0)
(153.45788 -3.1260112 0)
(153.58728 -3.2070539 0)
(153.73122 -3.3330396 0)
(153.88791 -3.504858 0)
(154.06339 -3.7246772 0)
(154.26433 -3.9950173 0)
(154.49949 -4.3184493 0)
(154.78027 -4.6970453 0)
(155.12154 -5.1314378 0)
(155.54206 -5.6190403 0)
(156.06386 -6.151636 0)
(156.71212 -6.7135218 0)
(157.51628 -7.2786851 0)
(158.50464 -7.8014679 0)
(159.68129 -8.2074953 0)
(160.9999 -8.412347 0)
(162.37053 -8.3687491 0)
(163.70161 -8.0913785 0)
(164.93879 -7.6364589 0)
(166.07318 -7.0632024 0)
(167.12215 -6.4045587 0)
(168.10796 -5.6673661 0)
(169.05304 -4.8428675 0)
(169.97967 -3.9032948 0)
(170.89413 -2.7896266 0)
(171.76485 -1.4201045 0)
(172.51912 0.28341221 0)
(173.05296 2.3811103 0)
(173.15524 4.9286383 0)
(172.45809 7.8874704 0)
(170.58901 10.881449 0)
(167.61321 13.145443 0)
(164.17775 14.125697 0)
(160.94624 14.025747 0)
(158.22518 13.195572 0)
(156.08644 11.993171 0)
(154.46534 10.655888 0)
(153.26059 9.3245122 0)
(152.37156 8.0692227 0)
(151.71511 6.9175091 0)
(151.22791 5.8733384 0)
(150.86401 4.92904 0)
(150.59099 4.0719724 0)
(150.38629 3.2879779 0)
(150.23424 2.5630482 0)
(150.12412 1.884068 0)
(150.05012 1.2389203 0)
(150.01088 0.61520686 0)
(153.70974 -3.2194511 0)
(153.83819 -3.2661457 0)
(153.93857 -3.3549387 0)
(154.05165 -3.4912177 0)
(154.17634 -3.6764301 0)
(154.31798 -3.9137798 0)
(154.48296 -4.2072436 0)
(154.68002 -4.5613294 0)
(154.921 -4.9806077 0)
(155.22218 -5.4688639 0)
(155.6052 -6.0270838 0)
(156.09664 -6.650093 0)
(156.72777 -7.3240577 0)
(157.53899 -8.0242095 0)
(158.57804 -8.7010029 0)
(159.86636 -9.2565929 0)
(161.34828 -9.56331 0)
(162.89393 -9.5461047 0)
(164.36982 -9.2311254 0)
(165.70426 -8.7086202 0)
(166.89911 -8.0703397 0)
(167.99404 -7.3597286 0)
(169.02789 -6.5787181 0)
(170.03582 -5.7146382 0)
(171.05995 -4.7389468 0)
(172.1293 -3.5779105 0)
(173.2209 -2.1199882 0)
(174.25401 -0.25739047 0)
(175.11047 2.0935934 0)
(175.56726 5.0404362 0)
(175.09052 8.6684382 0)
(173.00128 12.575717 0)
(169.25012 15.562444 0)
(164.88384 16.603153 0)
(160.97046 16.198756 0)
(157.85548 14.917173 0)
(155.55362 13.287537 0)
(153.90725 11.601388 0)
(152.74941 10.006886 0)
(151.93726 8.5610629 0)
(151.3644 7.2739413 0)
(150.95601 6.1338811 0)
(150.66129 5.1211354 0)
(150.44638 4.2143396 0)
(150.28888 3.393247 0)
(150.17392 2.6396629 0)
(150.09173 1.9376074 0)
(150.03694 1.2729757 0)
(150.00801 0.63185724 0)
(154.08848 -3.2041444 0)
(154.17635 -3.2493483 0)
(154.2459 -3.3379671 0)
(154.32541 -3.476275 0)
(154.41454 -3.6662508 0)
(154.51768 -3.9120271 0)
(154.64059 -4.2188244 0)
(154.79164 -4.5927844 0)
(154.98267 -5.0406065 0)
(155.23095 -5.5689399 0)
(155.56118 -6.1824203 0)
(156.00524 -6.8792565 0)
(156.60133 -7.6476289 0)
(157.40267 -8.465721 0)
(158.48632 -9.2853062 0)
(159.90833 -9.9823627 0)
(161.6067 -10.361769 0)
(163.38872 -10.302454 0)
(165.05299 -9.8572016 0)
(166.50169 -9.1771556 0)
(167.75714 -8.4127915 0)
(168.89655 -7.6252277 0)
(169.97969 -6.8089387 0)
(171.04949 -5.9506987 0)
(172.16913 -5.0363068 0)
(173.40046 -3.9800186 0)
(174.73497 -2.6230871 0)
(176.08182 -0.79479062 0)
(177.32962 1.6514578 0)
(178.29101 4.9247866 0)
(178.2598 9.3410637 0)
(176.0256 14.554024 0)
(171.19095 18.699267 0)
(165.47484 19.713342 0)
(160.69377 18.781512 0)
(157.15121 16.826414 0)
(154.7373 14.628836 0)
(153.13475 12.519366 0)
(152.08648 10.630093 0)
(151.39972 8.9856524 0)
(150.94521 7.5663878 0)
(150.63955 6.3382999 0)
(150.43011 5.2662044 0)
(150.28402 4.3185265 0)
(150.1808 3.4683955 0)
(150.10757 2.6933429 0)
(150.0563 1.9746266 0)
(150.02258 1.2963276 0)
(150.00489 0.64323307 0)
(154.40055 -3.3131635 0)
(154.43841 -3.3697513 0)
(154.47313 -3.4698113 0)
(154.51478 -3.6206784 0)
(154.56361 -3.8247562 0)
(154.62271 -4.0872296 0)
(154.69703 -4.4148577 0)
(154.79417 -4.8160539 0)
(154.92549 -5.3008314 0)
(155.10841 -5.8808028 0)
(155.37 -6.5679609 0)
(155.74747 -7.3693963 0)
(156.28512 -8.2810444 0)
(157.04726 -9.2909114 0)
(158.14972 -10.366248 0)
(159.71203 -11.362723 0)
(161.67623 -11.974449 0)
(163.74767 -11.982983 0)
(165.61342 -11.480224 0)
(167.13778 -10.70167 0)
(168.3828 -9.8874447 0)
(169.4921 -9.1127429 0)
(170.55435 -8.3415915 0)
(171.61083 -7.5376306 0)
(172.75248 -6.7037036 0)
(174.10526 -5.7293055 0)
(175.70361 -4.3733635 0)
(177.45911 -2.3735832 0)
(179.27517 0.48137884 0)
(181.04899 4.3369823 0)
(181.91544 9.7848966 0)
(179.81602 16.856954 0)
(173.50081 22.987515 0)
(165.77985 23.716772 0)
(159.92928 21.860803 0)
(155.96883 18.899752 0)
(153.55567 15.960278 0)
(152.10867 13.354224 0)
(151.25713 11.150501 0)
(150.75625 9.3120377 0)
(150.45979 7.7739878 0)
(150.28216 6.4728985 0)
(150.17392 5.3553635 0)
(150.10665 4.3788003 0)
(150.06397 3.5097361 0)
(150.0364 2.7217357 0)
(150.01849 1.9936598 0)
(150.0073 1.3081209 0)
(150.00158 0.64893457 0)
(154.33694 -3.2367342 0)
(154.31452 -3.2889516 0)
(154.30727 -3.3806538 0)
(154.3028 -3.5230032 0)
(154.30195 -3.7196605 0)
(154.30591 -3.977401 0)
(154.31799 -4.3049494 0)
(154.34396 -4.7134108 0)
(154.39308 -5.2164456 0)
(154.48074 -5.8307119 0)
(154.63399 -6.5755989 0)
(154.89464 -7.4671931 0)
(155.31268 -8.5065663 0)
(155.95951 -9.68509 0)
(157.00024 -10.99159 0)
(158.67363 -12.274949 0)
(160.96471 -13.049351 0)
(163.41315 -12.898773 0)
(165.51858 -12.024437 0)
(167.08766 -10.814935 0)
(168.25262 -9.6893543 0)
(169.27676 -8.733909 0)
(170.29542 -7.8451811 0)
(171.32643 -6.9297993 0)
(172.48451 -6.0700678 0)
(173.99658 -5.2017399 0)
(175.95737 -4.0092121 0)
(178.26007 -2.1917955 0)
(180.72918 0.52169474 0)
(183.42056 4.0262352 0)
(185.64344 9.8662029 0)
(184.26724 19.163065 0)
(176.03973 28.895376 0)
(165.36045 28.759987 0)
(158.36634 25.456729 0)
(154.11373 21.052291 0)
(151.9191 17.179378 0)
(150.79779 14.024053 0)
(150.25752 11.511694 0)
(150.01331 9.5041782 0)
(149.91686 7.8745304 0)
(149.89168 6.5241948 0)
(149.89882 5.3804593 0)
(149.91859 4.3902224 0)
(149.94124 3.5142714 0)
(149.96213 2.7230264 0)
(149.97922 1.9936266 0)
(149.99147 1.3077466 0)
(149.99814 0.64868241 0)
(153.43249 -3.2698678 0)
(153.33577 -3.3461292 0)
(153.27037 -3.4577417 0)
(153.19979 -3.6206432 0)
(153.12647 -3.8387599 0)
(153.04921 -4.1197292 0)
(152.96904 -4.4731799 0)
(152.88901 -4.9115799 0)
(152.81525 -5.450691 0)
(152.75953 -6.1105884 0)
(152.74707 -6.9175705 0)
(152.82468 -7.9008682 0)
(153.0498 -9.0765915 0)
(153.49093 -10.451206 0)
(154.35694 -12.072885 0)
(156.08625 -13.876583 0)
(158.79389 -15.156664 0)
(161.72048 -15.066157 0)
(164.03277 -14.055766 0)
(165.46174 -12.665617 0)
(166.28105 -11.578697 0)
(166.98771 -10.825195 0)
(167.79198 -10.198009 0)
(168.61114 -9.4989473 0)
(169.52197 -9.028905 0)
(170.92424 -8.8496632 0)
(173.01798 -8.2877144 0)
(175.70064 -7.0366443 0)
(178.6126 -4.4693391 0)
(182.46936 -0.71714295 0)
(187.20093 7.2431085 0)
(188.29318 20.247738 0)
(177.97497 36.716316 0)
(163.28152 35.015733 0)
(155.61847 29.580443 0)
(151.36698 23.141048 0)
(149.74776 18.12505 0)
(149.19276 14.416323 0)
(149.10305 11.645679 0)
(149.19078 9.5235405 0)
(149.33348 7.8467277 0)
(149.4809 6.4805127 0)
(149.6137 5.3350847 0)
(149.72574 4.3492703 0)
(149.81632 3.4800659 0)
(149.88693 2.696159 0)
(149.93959 1.973961 0)
(149.97553 1.2949146 0)
(149.99469 0.64235041 0)
(150.2509 -3.1663492 0)
(150.00736 -3.2347943 0)
(149.83858 -3.3222626 0)
(149.6536 -3.4548295 0)
(149.45706 -3.6375025 0)
(149.2441 -3.878897 0)
(149.01216 -4.1896784 0)
(148.7597 -4.5844332 0)
(148.48694 -5.0829991 0)
(148.19721 -5.7126609 0)
(147.90527 -6.5134902 0)
(147.65216 -7.5420323 0)
(147.49268 -8.8520376 0)
(147.46243 -10.472796 0)
(147.76468 -12.501496 0)
(149.15226 -15.044536 0)
(152.12536 -17.11711 0)
(155.39701 -16.695646 0)
(157.58678 -14.878038 0)
(158.38253 -12.330207 0)
(158.30902 -10.454801 0)
(158.25042 -9.2711717 0)
(158.48976 -8.4883501 0)
(158.67906 -7.5482504 0)
(158.77717 -7.031109 0)
(159.70997 -7.0137043 0)
(161.81018 -5.9834901 0)
(164.96979 -4.8631465 0)
(168.70137 -1.9464761 0)
(175.08121 4.1775347 0)
(184.07119 12.190667 0)
(189.69318 24.119846 0)
(176.97131 49.673533 0)
(157.57577 45.447381 0)
(150.93457 34.3697 0)
(147.41555 24.835509 0)
(146.96571 18.526295 0)
(147.32204 14.379561 0)
(147.83879 11.477287 0)
(148.3263 9.3343114 0)
(148.73639 7.6738135 0)
(149.06762 6.3341145 0)
(149.33006 5.2157711 0)
(149.53531 4.2544915 0)
(149.6936 3.4066059 0)
(149.8133 2.641035 0)
(149.90086 1.934721 0)
(149.95997 1.2697108 0)
(149.99132 0.62999134 0)
(143.52134 -2.9380254 0)
(143.12597 -3.0332179 0)
(142.81975 -3.1383988 0)
(142.47609 -3.2916685 0)
(142.10635 -3.4977627 0)
(141.70122 -3.7666214 0)
(141.25247 -4.1103761 0)
(140.75058 -4.5459877 0)
(140.18508 -5.0969863 0)
(139.54371 -5.7956591 0)
(138.8189 -6.6890167 0)
(138.03238 -7.8480488 0)
(137.23841 -9.3474611 0)
(136.44271 -11.195135 0)
(135.77643 -13.44203 0)
(136.45686 -16.544764 0)
(140.07486 -19.754975 0)
(144.22049 -18.329879 0)
(146.44021 -15.604268 0)
(146.33369 -12.141155 0)
(144.74118 -10.853859 0)
(143.34266 -10.972029 0)
(142.71753 -11.419769 0)
(142.09391 -10.904892 0)
(141.18097 -10.344426 0)
(141.97931 -10.509397 9.2339164e-18)
(143.2409 -11.896378 -2.1046054e-19)
(145.53233 -13.568553 0)
(146.60502 -7.4685272 1.0030607e-17)
(143.94719 -14.491073 -7.5098254e-18)
(161.48362 -10.125179 4.4328548e-18)
(180.40776 5.4395457 -9.8939121e-18)
(167.98468 72.358935 6.3998721e-18)
(142.14266 58.099519 0)
(140.67738 37.182934 0)
(141.64085 24.751639 0)
(143.57544 17.867416 0)
(145.30187 13.723242 0)
(146.55735 10.938676 0)
(147.47928 8.913196 0)
(148.16182 7.3486829 0)
(148.6738 6.0836996 0)
(149.06122 5.0231805 0)
(149.35536 4.1070762 0)
(149.57782 3.2950785 0)
(149.74389 2.5586518 0)
(149.86438 1.8766585 0)
(149.94531 1.2326323 0)
(149.98815 0.6118517 0)
(129.66338 -2.8839503 0)
(128.8899 -2.9618467 0)
(128.29438 -3.0290022 0)
(127.62868 -3.1334623 0)
(126.91196 -3.2769546 0)
(126.125 -3.4663839 0)