/*--------------------------------*- C++ -*----------------------------------*\
| =========                 |                                                 |
| \\      /  F ield         | foam-extend: Open Source CFD                    |
|  \\    /   O peration     | Version:     4.1                                |
|   \\  /    A nd           | Web:         http://www.foam-extend.org         |
|    \\/     M anipulation  |                                                 |
\*---------------------------------------------------------------------------*/
FoamFile
{
    version     2.0;
    format      ascii;
    class       volScalarField;
    location    "0.45";
    object      rAU;
}
// * * * * * * * * * * * * * * * * * * * * * * * * * * * * * * * * * * * * * //

dimensions      [0 0 1 0 0 0 0];

internalField   nonuniform List<scalar> 
4393
(
0.00022766407
0.00022729009
0.00022692378
0.00022654953
0.00022616522
0.00022576943
0.00022535978
0.00022493507
0.00022449446
0.00022403774
0.00022356553
0.00022307933
0.00022258163
0.00022207599
0.00022156679
0.00022106019
0.000220562
0.00022007924
0.00021961957
0.00021919059
0.0002188001
0.00021845578
0.00021816518
0.00021793551
0.00021777342
0.00021768487
0.00021767451
0.00021767451
0.00021774564
0.00021789936
0.00021813383
0.00021844405
0.00021882179
0.00021925602
0.00021973342
0.00022023946
0.00022075928
0.00022127867
0.00022178477
0.00022226658
0.00022271508
0.00022312333
0.00022348625
0.00022380038
0.00022406362
0.00022427497
0.00022443449
0.00022454272
0.000224585
0.00022453095
0.00022421023
0.00022390435
0.00022358931
0.00022326236
0.00022292184
0.00022256554
0.00022219258
0.00022180255
0.00022139583
0.00022097368
0.00022053839
0.00022009334
0.000219643
0.00021919271
0.0002187495
0.00021831999
0.00021791182
0.0002175331
0.0002171917
0.00021689551
0.00021665226
0.00021646937
0.00021635388
0.00021631212
0.00021634949
0.00021643698
0.0002164097
0.00021645229
0.00021657877
0.00021679063
0.00021708633
0.0002174607
0.00021790497
0.00021840713
0.00021895289
0.00021952674
0.00022011314
0.0002206975
0.00022126686
0.00022181032
0.00022231916
0.00022278676
0.00022320836
0.00022358071
0.00022390166
0.00022417034
0.00022438823
0.00022454256
0.00022402547
0.00022371646
0.00022341589
0.00022310365
0.00022277703
0.00022243453
0.00022207412
0.00022169525
0.00022129791
0.00022088299
0.0002204524
0.0002200092
0.00021955763
0.00021910317
0.00021865214
0.00021821259
0.00021779203
0.00021739883
0.00021704164
0.00021672867
0.00021646799
0.0002162674
0.0002161343
0.00021607564
0.00021609759
0.0002162052
0.00021629484
0.00021617474
0.00021613567
0.00021618463
0.00021632655
0.0002165631
0.0002168917
0.00021730518
0.00021779197
0.00021833717
0.00021892378
0.0002195343
0.00022015192
0.00022076155
0.00022135032
0.00022190785
0.00022242621
0.00022289963
0.00022332412
0.00022369704
0.00022401729
0.00022428497
0.00022448039
0.00022367023
0.00022336652
0.00022306578
0.00022275031
0.00022241767
0.00022206656
0.00022169511
0.00022130301
0.00022089059
0.00022045917
0.00022001127
0.00021955068
0.00021908256
0.0002186134
0.00021815069
0.00021770362
0.00021728078
0.00021689147
0.00021654503
0.00021625017
0.00021601528
0.00021584833
0.00021575687
0.00021574798
0.00021582792
0.00021600172
0.00021608756
0.00021588121
0.00021575762
0.00021572734
0.00021579909
0.00021597806
0.0002162644
0.00021665234
0.00021713032
0.00021768219
0.00021828888
0.00021893037
0.00021958728
0.00022024212
0.00022088
0.00022148894
0.0002220598
0.00022258598
0.00022306295
0.0002234879
0.0002238596
0.00022417705
0.00022442213
0.00022330854
0.00022300891
0.00022270839
0.00022239002
0.00022205151
0.00022169167
0.00022130881
0.00022090275
0.00022047409
0.00022002455
0.00021955718
0.00021907648
0.00021858853
0.0002181009
0.00021762232
0.00021716329
0.00021673363
0.00021634369
0.00021600363
0.00021572267
0.00021550955
0.00021537245
0.00021531915
0.00021535698
0.00021549254
0.00021573121
0.00021582407
0.00021552701
0.00021531494
0.00021520243
0.00021520259
0.00021532472
0.00021557194
0.00021593978
0.00021641618
0.00021698304
0.00021761842
0.0002182991
0.00021900262
0.00021970882
0.0002204007
0.0002210647
0.00022169063
0.00022227123
0.00022280169
0.00022327916
0.00022370232
0.00022407
0.00022436637
0.00022293113
0.0002226361
0.00022233687
0.00022201654
0.00022167294
0.00022130493
0.00022091086
0.00022049068
0.00022004515
0.00021957631
0.00021908765
0.00021858436
0.00021807342
0.00021756356
0.0002170649
0.0002165894
0.00021614833
0.00021575325
0.00021541519
0.00021514396
0.00021494861
0.00021483753
0.00021481878
0.00021490011
0.00021508875
0.00021539083
0.00021550583
0.00021511225
0.00021480607
0.00021460653
0.000214532
0.00021459673
0.00021480733
0.00021516057
0.0002156433
0.0002162345
0.00021690835
0.00021763755
0.00021839594
0.00021916036
0.00021991157
0.00022063453
0.00022131818
0.00022195486
0.00022253975
0.00022307021
0.00022354513
0.00022396376
0.00022431206
0.00022253848
0.00022224873
0.00022195181
0.00022163053
0.00022128268
0.0002209071
0.00022050211
0.00022006765
0.00021960459
0.00021911515
0.00021860321
0.00021807456
0.0002175371
0.00021700081
0.00021647734
0.00021598038
0.00021552289
0.00021511785
0.00021477728
0.00021451155
0.00021432994
0.00021424103
0.00021425314
0.00021437458
0.00021461352
0.00021497737
0.00021513488
0.00021463749
0.00021422972
0.00021393628
0.00021378203
0.00021378741
0.00021396337
0.00021430795
0.00021480608
0.00021543258
0.0002161564
0.00021694505
0.00021776792
0.00021859842
0.00021941501
0.00022020124
0.00022094541
0.00022163978
0.0002222798
0.0002228633
0.00022338971
0.00022385914
0.00022425896
0.00022213259
0.00022184948
0.00022155604
0.00022123483
0.00022088357
0.00022050101
0.00022008533
0.00021963639
0.00021915501
0.00021864347
0.00021810594
0.00021754876
0.00021698071
0.0002164131
0.00021585936
0.00021533522
0.00021485568
0.0002144354
0.0002140875
0.00021382284
0.00021365084
0.00021358007
0.00021361909
0.00021377685
0.00021406281
0.00021448625
0.00021471278
0.00021410262
0.00021358358
0.00021318684
0.00021294535
0.00021288766
0.00021303034
0.00021337277
0.00021389691
0.00021457166
0.00021535899
0.00021621979
0.00021711809
0.00021802348
0.00021891201
0.00021976608
0.00022057365
0.00022132725
0.00022202296
0.0002226594
0.00022323688
0.00022375653
0.00022420701
0.00022171516
0.00022143954
0.00022115067
0.00022083059
0.00022047686
0.00022008799
0.00021966197
0.00021919842
0.00021869797
0.00021816283
0.00021759729
0.00021700812
0.00021640497
0.00021580058
0.0002152104
0.00021465265
0.00021414485
0.00021370368
0.00021334348
0.00021307551
0.00021290901
0.00021285234
0.00021291407
0.0002131039
0.00021343289
0.0002139129
0.00021424242
0.00021350872
0.00021286615
0.00021235359
0.00021201424
0.00021188748
0.00021199756
0.00021234541
0.0002129084
0.00021364712
0.00021451416
0.00021546201
0.00021644826
0.00021743828
0.00021840578
0.0002193323
0.00022020592
0.00022101992
0.00022177141
0.0002224602
0.00022308778
0.00022365653
0.00022415638
0.00022128819
0.00022102194
0.00022073906
0.0002204213
0.0002200661
0.00021967171
0.00021923577
0.00021875753
0.00021823725
0.00021767691
0.0002170807
0.00021645568
0.00021581229
0.00021516477
0.00021453095
0.00021393208
0.00021338889
0.0002129206
0.00021254288
0.00021226715
0.0002121021
0.00021205538
0.00021213534
0.00021235232
0.00021271935
0.00021325165
0.00021372717
0.00021285716
0.00021207583
0.00021143102
0.00021097905
0.0002107742
0.00021085153
0.00021121385
0.00021183166
0.00021265372
0.00021362003
0.00021467242
0.00021576089
0.00021684622
0.00021790005
0.00021890354
0.00021984553
0.00022072062
0.00022152747
0.00022226748
0.00022294365
0.00022355983
0.00022410733
0.00022085434
0.00022059805
0.00022032226
0.00022000801
0.00021965244
0.00021925342
0.00021880814
0.00021831531
0.00021777464
0.00021718757
0.00021655801
0.00021589306
0.00021520381
0.00021450605
0.00021382035
0.00021317182
0.0002125853
0.00021208326
0.00021168286
0.00021139532
0.00021122806
0.00021118737
0.00021128087
0.0002115194
0.0002119182
0.00021249677
0.00021317234
0.00021215112
0.00021121225
0.00021041385
0.000209829
0.00020953277
0.00020957608
0.00020996425
0.00021065721
0.0002115869
0.00021267631
0.00021385384
0.00021506062
0.00021625276
0.00021740031
0.0002184849
0.00021949691
0.000220433
0.00022129401
0.00022208338
0.00022280598
0.00022346731
0.00022406024
0.00022041451
0.00022017074
0.0002199038
0.00021959457
0.00021924002
0.00021883759
0.0002183839
0.00021787692
0.00021731556
0.00021670047
0.00021603489
0.00021532569
0.00021458433
0.00021382812
0.00021308079
0.00021237232
0.00021173308
0.00021118979
0.00021076135
0.00021045812
0.00021028528
0.00021024678
0.00021034879
0.00021060225
0.00021102479
0.0002116412
0.00021247029
0.00021139515
0.00021027624
0.00020929677
0.00020855126
0.00020814427
0.00020815074
0.00020857956
0.00020937425
0.00021044249
0.00021168426
0.00021301113
0.00021435424
0.00021566526
0.00021691366
0.00021808268
0.00021916538
0.00022016138
0.00022107438
0.00022191038
0.00022267647
0.00022338001
0.00022401558
0.00021997401
0.00021974284
0.00021948582
0.00021918294
0.00021883078
0.00021842621
0.00021796514
0.00021744462
0.00021686246
0.00021621814
0.00021551387
0.0002147558
0.00021395542
0.00021313134
0.00021231087
0.00021153029
0.00021082746
0.000210235
0.00020977378
0.00020945233
0.00020927199
0.00020923294
0.00020933884
0.00020960003
0.0002100365
0.00021067933
0.0002115684
0.00021059729
0.00020927123
0.00020807551
0.0002071312
0.00020658501
0.00020654943
0.00020703897
0.00020797091
0.0002092176
0.00021064779
0.00021215234
0.00021365156
0.00021509369
0.00021644922
0.00021770471
0.00021885735
0.0002199108
0.00022087243
0.00022175129
0.00022255702
0.00022329908
0.00022397387
0.00021953153
0.00021931631
0.00021907138
0.0002187768
0.00021842898
0.00021802424
0.00021755764
0.00021702511
0.00021642303
0.00021574927
0.00021500444
0.00021419342
0.00021332707
0.00021242482
0.00021151782
0.00021065042
0.00020987102
0.00020922045
0.00020872199
0.00020838071
0.00020819176
0.00020814961
0.00020825411
0.00020851413
0.00020895163
0.00020960496
0.00021052692
0.00020976927
0.0002082042
0.0002067477
0.00020555211
0.00020482454
0.00020473784
0.00020531639
0.00020643409
0.00020791139
0.00020957458
0.00021128966
0.00021296617
0.00021455101
0.00021601835
0.0002173604
0.00021858029
0.00021968703
0.00022069244
0.0002216092
0.00022244975
0.00022322581
0.00022393573
0.00021909776
0.00021889796
0.00021866617
0.00021838146
0.00021803978
0.00021763676
0.00021716645
0.00021662343
0.00021600231
0.00021529879
0.00021451119
0.00021364235
0.00021270166
0.00021170842
0.00021069757
0.0002097239
0.00020885091
0.00020813162
0.00020759233
0.00020723224
0.00020703667
0.00020699167
0.00020709163
0.00020734246
0.00020776691
0.00020841103
0.00020934338
0.00020892765
0.00020708737
0.00020531471
0.00020379581
0.00020282329
0.00020266968
0.00020337878
0.0002047499
0.00020652675
0.00020847792
0.00021044093
0.0002123164
0.0002140538
0.0002156349
0.00021706077
0.00021834266
0.00021949638
0.00022053904
0.00022148738
0.00022235689
0.00022316159
0.00022390182
0.0002186643
0.00021848389
0.00021826766
0.00021799505
0.00021766198
0.00021726345
0.00021679246
0.00021624201
0.00021560458
0.00021487316
0.00021404292
0.00021311364
0.00021209205
0.00021099573
0.00020986242
0.00020876009
0.00020777426
0.0002069762
0.00020639606
0.00020602292
0.00020582638
0.00020578012
0.00020587143
0.00020610172
0.00020649273
0.00020709856
0.0002080072
0.00020809806
0.00020594119
0.00020378483
0.00020184427
0.00020052947
0.00020028047
0.00020118376
0.00020290446
0.00020507284
0.00020737933
0.00020963162
0.00021172649
0.00021362269
0.00021531533
0.00021681837
0.00021815379
0.00021934563
0.00022041708
0.00022138923
0.00022228069
0.0002231078
0.00022387279
0.00021825389
0.00021809171
0.00021789215
0.00021763371
0.0002173119
0.00021692099
0.00021645276
0.00021589843
0.00021524791
0.00021449074
0.00021361781
0.00021262445
0.00021151312
0.00021029718
0.00020901459
0.00020774921
0.00020661952
0.00020572553
0.00020510281
0.00020472409
0.00020453449
0.00020449056
0.00020457179
0.0002047739
0.00020511383
0.00020565179
0.00020649807
0.00020730912
0.00020479529
0.00020217856
0.00019968441
0.00019787595
0.00019747738
0.00019867662
0.00020088601
0.00020356951
0.00020631247
0.00020889734
0.00021122788
0.00021328285
0.00021507862
0.00021664701
0.0002180235
0.0002192417
0.00022033137
0.00022131805
0.00022222339
0.00022306583
0.00022384934
0.00021784597
0.00021770627
0.00021752573
0.00021728373
0.00021697594
0.00021659604
0.00021613458
0.00021558089
0.00021492211
0.00021414373
0.00021323122
0.00021217387
0.00021096809
0.00020961972
0.00020816147
0.00020669457
0.00020538736
0.00020438632
0.00020373422
0.0002033767
0.00020321899
0.00020319252
0.00020326873
0.0002034363
0.00020369982
0.00020412115
0.00020483751
0.00020601478
0.00020370956
0.00020054356
0.000197321
0.00019478153
0.00019412408
0.00019578786
0.00019868951
0.00020205457
0.00020532883
0.00020828711
0.00021086048
0.0002130641
0.00021494591
0.00021656126
0.00021796167
0.00021919125
0.0002202864
0.00022127687
0.00022218698
0.00022303693
0.00022383207
0.00021749814
0.00021737917
0.00021721903
0.00021699639
0.00021670676
0.00021634321
0.00021589515
0.00021534992
0.00021469163
0.00021390106
0.00021295666
0.00021183899
0.00021053575
0.00020904069
0.00020737071
0.00020564063
0.00020409499
0.00020295874
0.00020228388
0.00020197274
0.00020186579
0.00020185936
0.00020192223
0.00020204177
0.0002022008
0.00020245682
0.00020297931
0.00020401505
0.00020275132
0.00019897225
0.00019481704
0.00019117654
0.00019002458
0.00019243374
0.00019632538
0.00020059563
0.00020450608
0.00020786726
0.00021067369
0.00021300046
0.00021493963
0.00021657553
0.0002179775
0.00021920017
0.00022028601
0.00022126824
0.00022217315
0.00022302217
0.00022382155
0.00021723134
0.00021713758
0.00021700178
0.00021680299
0.00021653707
0.00021619658
0.00021576975
0.00021524197
0.00021459416
0.00021380205
0.00021283575
0.00021166442
0.00021026437
0.00020861409
0.0002066992
0.00020463237
0.00020277491
0.00020149163
0.00020084198
0.00020065992
0.00020067695
0.00020073928
0.00020082457
0.00020093285
0.00020099912
0.00020105296
0.00020129283
0.00020202822
0.0002022956
0.00019779198
0.00019241856
0.00018708889
0.00018492075
0.00018853378
0.00019384602
0.00019931303
0.00020396081
0.00020772582
0.00021072651
0.00021312875
0.00021508182
0.00021670275
0.00021807855
0.00021927294
0.00022033293
0.00022129388
0.00022218307
0.0002230223
0.00022381818
0.00021729047
0.00021722465
0.00021711914
0.00021695193
0.00021671925
0.00021641341
0.00021602204
0.00021552919
0.00021491334
0.00021414575
0.00021318785
0.00021199381
0.00021052326
0.00020873583
0.0002065626
0.00020406497
0.00020177364
0.00020032092
0.00019975519
0.00019981152
0.00020003146
0.00020018907
0.00020028856
0.00020038219
0.00020031245
0.0002000464
0.00019984322
0.00020006826
0.00020115524
0.00019736893
0.00019062687
0.00018287991
0.00017857386
0.00018412163
0.0001914284
0.00019841746
0.00020386437
0.00020797547
0.00021108535
0.00021348536
0.00021539148
0.00021695252
0.00021826954
0.0002194119
0.00022042838
0.00022135453
0.00022221722
0.00022303772
0.00022382222
0.00021804549
0.00021801462
0.00021795393
0.00021783632
0.00021765811
0.00021741155
0.00021708424
0.00021665947
0.00021611367
0.00021541371
0.00021451138
0.00021334043
0.00021183335
0.00020992906
0.00020748802
0.00020441596
0.00020146665
0.00019985068
0.00019952235
0.00020009302
0.00020073427
0.0002011172
0.00020129776
0.00020150754
0.00020144109
0.00020088834
0.00020027821
0.00019983024
0.00020078239
0.00019973079
0.00019126426
0.00017998591
0.00017090661
0.00017961221
0.00018943665
0.00019823436
0.00020445617
0.00020875254
0.00021181766
0.00021410036
0.00021588057
0.0002173287
0.00021855107
0.00021961652
0.00022057164
0.00022144964
0.00022227532
0.00022306835
0.00022383373
0.00022068482
0.00022073025
0.00022075661
0.00022073207
0.00022065486
0.00022051816
0.00022031082
0.00022001714
0.00021961359
0.0002190657
0.00021832016
0.00021729284
0.00021588073
0.00021400165
0.0002114576
0.00020778479
0.00020386715
0.00020232447
0.00020264936
0.00020438361
0.00020589781
0.00020679916
0.00020721425
0.00020789103
0.00020825647
0.00020728634
0.00020615924
0.00020430195
0.00020494253
0.00020346604
0.00019647349
0.0001811526
0.00016218066
0.00017625948
0.00018865277
0.0001994582
0.00020611589
0.00021021788
0.00021297954
0.00021498806
0.00021654869
0.00021782679
0.00021891832
0.00021988282
0.00022075982
0.00022157727
0.00022235622
0.00022311363
0.00022385251
0.00022642329
0.00022656256
0.00022672003
0.00022684187
0.00022692603
0.00022696779
0.00022696018
0.00022689259
0.00022674691
0.00022649387
0.0002260832
0.0002254181
0.00022433578
0.00022267173
0.00022018987
0.00021575932
0.00020954199
0.00020818631
0.00020939168
0.00021328305
0.00021630695
0.00021820447
0.00021882088
0.00022030888
0.00022204606
9.2977748e-05
9.5427083e-05
9.7689186e-05
9.9885128e-05
0.00010289631
9.4466831e-05
8.619384e-05
0.00010658985
0.00017928096
0.00019338921
0.0002040887
0.00020942146
0.00021250635
0.00021458124
0.00021613114
0.00021737678
0.00021843156
0.0002193602
0.00022020311
0.00022098771
0.00022173406
0.00022245789
0.00022317248
0.00022387816
0.00023918082
0.00023961897
0.00024010835
0.00024058241
0.00024105048
0.00024151696
0.00024198688
0.00024246421
0.00024294802
0.00024342782
0.00024387182
0.00024418941
0.00024416029
0.00024344611
0.00024184634
0.00023798103
0.00022669811
0.00022910918
0.00023523612
0.00024958049
0.0002610693
0.00026989803
0.00012825228
0.00016672951
0.00032289472
0.00046159176
0.00049956686
0.00049956686
0.00049956686
0.00049956686
0.00049956686
0.00045030409
0.0003364719
6.8070156e-05
0.00021292767
0.00021342268
0.00021434665
0.00021546693
0.00021651282
0.00021746074
0.00021832231
0.00021911629
0.00021985958
0.00022056623
0.00022124807
0.00022191538
0.00022257749
0.00022324333
0.00022391002
0.00026410337
0.00026508769
0.00026621423
0.00026738279
0.00026861425
0.00026993356
0.00027137512
0.00027298214
0.00027480779
0.00027691923
0.00027940287
0.00028235832
0.00028588422
0.00029001812
0.00029459568
0.00030194087
0.0002730058
0.00030384037
0.00035536759
0.00037330209
0.00027734698
0.00032218266
0.00049956686
0.00049956686
0.00049956686
0.00049956686
0.00049956686
0.00049956686
0.00049956686
0.00049956686
0.00041266464
0.00041831958
0.00010205146
0.00026651798
0.00023109282
0.00022206042
0.00021924471
0.00021850866
0.00021853162
0.00021886215
0.00021932448
0.00021984588
0.000220395
0.00022095861
0.00022153217
0.00022211565
0.00022271158
0.00022332424
0.00022394724
0.00030180188
0.00030390725
0.00030600366
0.00030817387
0.0003104929
0.00031303436
0.00031588527
0.00031915999
0.00032301864
0.00032770459
0.00033361425
0.00034133565
0.00035145722
0.00036447247
0.00038460717
0.00040210879
0.0002531213
0.00025489797
0.00026018259
0.00049059059
0.00047795381
0.0004882021
0.0004787025
0.00047372613
0.00047746811
0.00045866637
0.00045172958
0.00045352682
0.00044095292
0.00043654511
0.00010694139
0.00010769257
0.00021985544
0.00025237835
0.00023691148
0.0002273785
0.00022308787
0.00022119464
0.00022042803
0.00022022603
0.00022032193
0.00022058385
0.00022094378
0.00022136571
0.00022183055
0.00022232872
0.0002228563
0.00022341298
0.00022398882
0.0002889092
0.00028943602
0.00028964289
0.00028984793
0.00029005252
0.00029028763
0.00029057817
0.00029095948
0.00029148272
0.0002922238
0.00029330169
0.00029442356
0.0002953661
0.00029605533
0.00029334126
0.00010311899
0.00037654616
0.00047124608
0.00047196434
0.00049382508
0.000486134
0.0004824498
0.00012422709
0.00012129411
0.00010078406
0.00010007004
0.00010064583
0.00010199084
0.00010294553
0.00010454057
0.00020125024
0.00020772861
0.0002181479
0.00023908802
0.00023959998
0.0002307336
0.00022593277
0.00022339465
0.00022208846
0.00022147524
0.00022126488
0.00022129806
0.00022148488
0.00022177355
0.00022213386
0.00022254841
0.00022300765
0.00022350718
0.00022403365
0.00022333698
0.00022316544
0.00022287207
0.00022258715
0.00022231801
0.00022208152
0.00022189342
0.00022177689
0.00022176416
0.00022190006
0.00022224891
0.00022215251
0.00022123213
0.00021950109
0.00021682964
0.00021332864
9.5922164e-05
9.9145827e-05
9.9885893e-05
9.9790361e-05
0.00010016556
0.00010019222
0.0002125661
0.00021083936
0.00020895527
0.00020556997
0.00020446249
0.0002039077
0.00020213938
0.00020216104
0.00020334578
0.00020906025
0.00021829327
0.00023223569
0.00023803498
0.00023245877
0.00022783551
0.00022506933
0.0002234579
0.00022256291
0.00022211832
0.00022196352
0.00022200074
0.00022216985
0.00022243356
0.00022276883
0.00022316174
0.00022360445
0.0002240806
0.00021921887
0.00021929509
0.00021941748
0.00021954889
0.0002197007
0.0002198851
0.00022011476
0.00022040584
0.00022077772
0.00022125317
0.00022184825
0.00022162948
0.00022088428
0.00021966037
0.0002179051
0.00021511473
0.00021259809
0.0002140988
0.00021593539
0.00021423801
0.00021240576
0.00021123993
0.00021008353
0.00020836163
0.00020732829
0.00020571176
0.00020480671
0.00020423391
0.00020351044
0.00020398226
0.00020597028
0.00021093257
0.00021859819
0.0002281592
0.00023388006
0.0002331625
0.00022900161
0.00022626811
0.00022453187
0.00022346996
0.00022286229
0.0002225634
0.00022247824
0.00022254474
0.00022272238
0.00022298475
0.00022331496
0.00022370252
0.00022412855
0.00021783188
0.00021790961
0.00021803287
0.00021816953
0.00021832258
0.00021849962
0.0002187092
0.0002189624
0.00021927173
0.00021965077
0.00022002414
0.00021954063
0.0002187918
0.00021772886
0.00021631635
0.00021449032
0.0002133428
0.00021417917
0.00021530338
0.00021351291
0.00021192187
0.00021070396
0.00020954833
0.00020833407
0.00020738022
0.00020632235
0.00020567328
0.00020531437
0.00020524221
0.00020612067
0.00020836769
0.00021266113
0.00021880368
0.00022565994
0.00023034349
0.00023232315
0.00022961117
0.00022706566
0.00022533282
0.00022419675
0.00022348925
0.00022308842
0.00022290872
0.00022289096
0.00022299455
0.00022319182
0.00022346417
0.00022379935
0.00022417646
0.00021715241
0.00021727132
0.00021740911
0.00021755829
0.00021772486
0.00021791531
0.00021813588
0.00021839415
0.00021869717
0.00021905034
0.00021925411
0.00021881896
0.00021817556
0.00021729515
0.00021615651
0.00021490169
0.00021426634
0.00021475994
0.00021504639
0.0002134245
0.00021203034
0.00021088058
0.00020982468
0.00020884446
0.00020802567
0.00020729143
0.00020687429
0.00020676119
0.00020705932
0.00020815473
0.0002103698
0.00021403007
0.00021891068
0.00022404981
0.00022790192
0.00023025472
0.00022983277
0.00022754582
0.00022589773
0.00022475626
0.00022400091
0.00022353555
0.00022328759
0.00022320382
0.00022324592
0.00022338662
0.00022360678
0.00022389315
0.00022422341
0.00021686372
0.000216936
0.00021705086
0.0002171848
0.00021733606
0.00021750825
0.00021770522
0.00021793192
0.00021819227
0.00021848783
0.00021855935
0.00021817687
0.00021765156
0.00021697227
0.00021614998
0.00021535812
0.00021503977
0.00021542113
0.00021499918
0.000213604
0.00021238259
0.00021133887
0.00021040752
0.00020958881
0.000208916
0.00020839933
0.00020816006
0.00020823468
0.00020874027
0.00020991791
0.00021198551
0.00021508546
0.00021898735
0.00022297997
0.00022617454
0.0002283369
0.00022930869
0.00022778233
0.00022626707
0.00022516795
0.00022440499
0.00022390642
0.0002236136
0.0002234809
0.00022347381
0.00022356666
0.00022374074
0.00022398246
0.0002242686
0.00021672234
0.00021683414
0.00021695863
0.00021709334
0.00021724233
0.00021740872
0.00021759428
0.00021780094
0.00021802882
0.00021827485
0.00021828121
0.00021793891
0.00021749309
0.00021694848
0.00021634377
0.00021583559
0.00021569037
0.00021598547
0.00021504935
0.00021386595
0.00021280703
0.00021188419
0.00021107745
0.00021039465
0.00020985888
0.0002095028
0.0002094018
0.00020960853
0.00021022441
0.00021140546
0.00021328755
0.00021591495
0.00021907569
0.00022226661
0.00022494026
0.00022688688
0.00022811787
0.00022784082
0.00022648037
0.00022545394
0.00022471271
0.00022420582
0.00022388799
0.00022372165
0.00022367685
0.00022373038
0.00022386459
0.00022406617
0.00022431139
0.00021665087
0.00021672073
0.00021682661
0.00021694931
0.00021708645
0.00021723923
0.00021740791
0.00021759276
0.00021779194
0.00021800011
0.00021799744
0.00021771787
0.00021736745
0.00021695912
0.00021654019
0.00021623427
0.00021620595
0.00021617339
0.00021513985
0.00021414452
0.00021323766
0.00021243938
0.00021175248
0.00021119055
0.00021077649
0.00021054595
0.00021055345
0.00021085165
0.00021152065
0.0002126621
0.00021435394
0.00021658969
0.00021918779
0.00022179487
0.00022405304
0.00022578813
0.00022697478
0.00022751218
0.00022657191
0.00022563599
0.00022493671
0.00022444046
0.00022411381
0.00022392694
0.00022385478
0.00022387697
0.00022397741
0.00022414345
0.00022435131
0.00021659954
0.00021669059
0.00021679703
0.00021691283
0.00021703961
0.00021717841
0.0002173284
0.00021748847
0.00021765534
0.00021782235
0.0002178228
0.00021758995
0.0002173124
0.0002170088
0.00021672614
0.00021655728
0.00021660744
0.00021610084
0.00021525224
0.00021442112
0.00021365447
0.00021297752
0.00021240431
0.00021195236
0.00021164525
0.00021151629
0.00021160848
0.00021196815
0.00021265543
0.00021373545
0.00021524765
0.00021716134
0.00021932738
0.0002214952
0.00022341925
0.00022495931
0.00022607564
0.00022679842
0.00022657174
0.00022573435
0.00022508986
0.00022461797
0.00022429518
0.0002240987
0.00022400817
0.00022400627
0.00022407872
0.00022421381
0.00022438801
0.0002165694
0.00021663616
0.00021673108
0.00021683838
0.00021695596
0.00021708361
0.0002172195
0.00021736152
0.00021750538
0.00021764371
0.00021767111
0.0002174876
0.00021727796
0.00021706303
0.00021688508
0.00021681328
0.00021672336
0.00021608029
0.0002153839
0.00021469532
0.00021405611
0.00021349322
0.00021302589
0.00021267375
0.00021246019
0.00021241485
0.0002125727
0.00021297187
0.00021365595
0.0002146651
0.00021601439
0.00021766365
0.00021949288
0.00022132131
0.00022297398
0.00022433926
0.00022537397
0.00022608786
0.00022638501
0.00022576659
0.00022518431
0.00022474621
0.00022443684
0.00022423952
0.00022413824
0.00022411866
0.00022416844
0.000224277
0.00022442131
0.00021654761
0.00021662011
0.00021671065
0.00021680938
0.00021691599
0.00021703017
0.00021714966
0.00021727186
0.00021739215
0.00021750327
0.0002175579
0.00021741561
0.00021726163
0.0002171167
0.00021701677
0.00021696066
0.00021663045
0.00021610203
0.00021553304
0.00021496843
0.00021444406
0.00021398639
0.00021361638
0.00021335429
0.00021322234
0.00021324635
0.00021345485
0.00021387792
0.00021454606
0.00021548245
0.00021668746
0.00021811916
0.00021968181
0.00022124236
0.00022267239
0.00022388319
0.00022483329
0.00022552103
0.00022597079
0.00022574796
0.00022523114
0.00022483278
0.00022454374
0.00022435241
0.00022424666
0.00022421493
0.00022424681
0.000224333
0.00022445111
0.00021653869
0.0002165992
0.00021668217
0.00021677367
0.00021687181
0.00021697569
0.0002170826
0.00021718962
0.00021729204
0.00021738294
0.00021744822
0.0002173608
0.00021725369
0.00021716433
0.00021711459
0.00021695076
0.00021658834
0.00021615869
0.00021569786
0.00021524143
0.00021481997
0.00021445818
0.00021417683
0.00021399558
0.00021393485
0.00021401676
0.00021426435
0.00021470057
0.00021534594
0.00021621214
0.00021729118
0.00021854319
0.00021989179
0.00022123708
0.00022248257
0.00022355761
0.00022442462
0.00022507595
0.00022552542
0.00022566854
0.00022524009
0.00022488479
0.00022462079
0.00022444058
0.00022433535
0.00022429612
0.00022431433
0.00022438197
0.00022447743
0.00021653702
0.00021659618
0.00021667371
0.00021675762
0.00021684659
0.00021693967
0.00021703404
0.00021712675
0.00021721329
0.00021728739
0.00021734065
0.00021731874
0.00021724964
0.00021719659
0.00021711044
0.00021688441
0.00021658872
0.00021624321
0.00021587546
0.00021551391
0.0002151845
0.00021490952
0.00021470849
0.00021459967
0.00021460128
0.00021473195
0.00021500999
0.00021545232
0.00021607197
0.000216873
0.00021784301
0.00021894584
0.00022012025
0.00022128989
0.00022238085
0.00022333664
0.00022412433
0.00022473354
0.00022517134
0.00022545592
0.00022521951
0.00022490867
0.00022467265
0.00022450723
0.00022440642
0.00022436349
0.00022437165
0.00022442419
0.00022450037
0.00021654379
0.00021659668
0.00021666856
0.00021674612
0.00021682755
0.00021691173
0.0002169958
0.0002170769
0.00021715091
0.00021721232
0.00021725408
0.00021726384
0.00021722581
0.00021717189
0.00021704431
0.00021685906
0.00021662224
0.00021634962
0.00021606289
0.00021578506
0.00021553804
0.0002153415
0.0002152131
0.00021516927
0.00021522581
0.00021539811
0.00021570036
0.00021614455
0.00021673816
0.00021748026
0.00021835649
0.0002193348
0.00022036579
0.00022139014
0.00022235039
0.0002232012
0.00022391428
0.00022447851
0.00022489678
0.00022518171
0.00022517676
0.00022491024
0.00022470372
0.00022455555
0.00022446203
0.00022441842
0.00022441957
0.00022446006
0.00022452006
0.00021655649
0.00021660623
0.00021667327
0.00021674472
0.00021681894
0.00021689482
0.00021696961
0.00021704069
0.00021710439
0.00021715604
0.00021718988
0.00021719928
0.00021717706
0.00021711641
0.00021701232
0.00021686519
0.00021668087
0.00021647226
0.00021625682
0.00021605333
0.00021588026
0.00021575465
0.00021569205
0.00021570678
0.00021581219
0.00021602066
0.00021634283
0.00021678669
0.00021735559
0.00021804542
0.00021884125
0.00021971504
0.00022062663
0.00022152929
0.00022237782
0.00022313573
0.00022377911
0.00022429721
0.00022469054
0.00022496792
0.00022510102
0.00022489444
0.00022471794
0.00022458848
0.00022450428
0.00022446231
0.00022445892
0.00022448999
0.00022453667
0.00021657452
0.00021662042
0.00021668312
0.00021674933
0.00021681736
0.00021688615
0.00021695312
0.00021701594
0.00021707149
0.00021711593
0.00021714473
0.00021715289
0.00021713529
0.00021708751
0.00021700688
0.00021689524
0.00021675813
0.00021660636
0.00021645426
0.00021631728
0.00021621092
0.00021614972
0.00021614703
0.00021621496
0.00021636446
0.00021660513
0.00021694454
0.00021738741
0.00021793404
0.00021857829
0.00021930546
0.0002200911
0.0002209023
0.00022170185
0.00022245387
0.00022312899
0.0002237073
0.00022417908