/*--------------------------------*- C++ -*----------------------------------*\
| =========                 |                                                 |
| \\      /  F ield         | foam-extend: Open Source CFD                    |
|  \\    /   O peration     | Version:     4.1                                |
|   \\  /    A nd           | Web:         http://www.foam-extend.org         |
|    \\/     M anipulation  |                                                 |
\*---------------------------------------------------------------------------*/
FoamFile
{
    version     2.0;
    format      ascii;
    class       regIOobject;
    location    "1.05/uniform";
    object      profilingInfo;
}
// * * * * * * * * * * * * * * * * * * * * * * * * * * * * * * * * * * * * * //

profilingInfo
(

    {
        id              14;
        parentId        11;
        description     "Foam::Time::writeObject - outputTime";
        calls           1;
        totalTime       0.024503;
        childTime       0;
        onStack         1;
    }

    {
        id              11;
        parentId        1;
        description     "Foam::Time::writeObject";
        calls           100;
        totalTime       0.024845;
        childTime       0.024503;
        onStack         1;
    }

    {
        id              1;
        description     "application::main";
        calls           1;
        totalTime       5.453871;
        childTime       4.868934;
        onStack         1;
    }

    {
        id              12;
        parentId        1;
        description     "FO::forces::execute";
        calls           99;
        totalTime       0.06366;
        childTime       0;
        onStack         0;
    }

    {
        id              13;
        parentId        1;
        description     "FO::probes::execute";
        calls           99;
        totalTime       0.005063;
        childTime       0;
        onStack         0;
    }

    {
        id              2;
        parentId        1;
        description     "functionObjectList::read";
        calls           1;
        totalTime       0.000479;
        childTime       0;
        onStack         0;
    }

    {
        id              3;
        parentId        1;
        description     "fvMatrix::solve_U";
        calls           100;
        totalTime       0.435411;
        childTime       0.40196;
        onStack         0;
    }

    {
        id              8;
        parentId        1;
        description     "fvMatrix::solve_p";
        calls           400;
        totalTime       4.339476;
        childTime       4.274123;
        onStack         0;
    }

    {
        id              5;
        parentId        4;
        description     "lduMatrix::smoother_Ux";
        calls           100;
        totalTime       0.165341;
        childTime       0;
        onStack         0;
    }

    {
        id              7;
        parentId        6;
        description     "lduMatrix::smoother_Uy";
        calls           100;
        totalTime       0.208201;
        childTime       0;
        onStack         0;
    }

    {
        id              4;
        parentId        3;
        description     "lduMatrix::solver_Ux";
        calls           100;
        totalTime       0.181467;
        childTime       0.165341;
        onStack         0;
    }

    {
        id              6;
        parentId        3;
        description     "lduMatrix::solver_Uy";
        calls           100;
        totalTime       0.220493;
        childTime       0.208201;
        onStack         0;
    }

    {
        id              9;
        parentId        8;
        description     "lduMatrix::solver_p";
        calls           400;
        totalTime       4.274123;
        childTime       1.125586;
        onStack         0;
    }

    {
        id              10;
        parentId        9;
        description     "lduMatrix::solver_topLevelCorr";
        calls           7078;
        totalTime       1.125586;
        childTime       0;
        onStack         0;
    }
);


// ************************************************************************* //
