# Time	forces(pressure, viscous) moment(pressure, viscous)
0.0005	(((25.42717 3.7216387e-06 2.2837043e-17) (0.24739306 1.5641151e-09 -2.6020206e-21)) ((-3.7216387e-08 0.2542717 -2.3458535e-13) (-1.5641151e-11 0.0024739306 -3.0915021e-11)))
0.001	(((22.889525 5.2803375e-06 1.9698336e-17) (0.23724801 2.1268765e-09 -6.064629e-22)) ((-5.2803375e-08 0.22889525 1.4357851e-13) (-2.1268765e-11 0.0023724801 -4.0530289e-10)))
0.0015	(((27.257751 5.4335237e-06 1.9016885e-17) (0.22646879 3.0721084e-09 -3.4455145e-21)) ((-5.4335237e-08 0.27257751 2.6859786e-13) (-3.0721084e-11 0.0022646879 -7.2977992e-10)))
0.002	(((30.119188 1.0149781e-05 1.8508721e-17) (0.21757244 4.0538515e-09 6.0693207e-21)) ((-1.0149781e-07 0.30119188 6.4579397e-13) (-4.0538515e-11 0.0021757244 -9.0882581e-10)))
0.0025	(((31.791369 1.0357722e-05 1.8198612e-17) (0.21087162 4.0779619e-09 -4.927387e-20)) ((-1.0357722e-07 0.31791369 9.5048188e-13) (-4.0779618e-11 0.0021087162 -9.3594379e-10)))
0.003	(((32.653533 9.921917e-06 1.7968382e-17) (0.20631603 3.880966e-09 -3.2398294e-20)) ((-9.921917e-08 0.32653533 1.1277992e-12) (-3.880966e-11 0.0020631603 -9.1808936e-10)))
0.0035	(((33.265652 2.0888663e-06 1.7764259e-17) (0.20331159 2.1940153e-09 -1.3566651e-20)) ((-2.0888663e-08 0.33265652 1.3333078e-12) (-2.1940153e-11 0.0020331159 -8.2838117e-10)))
0.004	(((33.782627 -2.7138915e-06 1.7590296e-17) (0.20152387 -3.7113722e-09 -2.6636015e-21)) ((2.7138915e-08 0.33782627 1.7447033e-12) (3.7113723e-11 0.0020152387 -7.201367e-10)))
0.0045	(((34.180053 -1.1190244e-05 1.7448973e-17) (0.2004522 -1.0916653e-08 4.8230326e-21)) ((1.1190244e-07 0.34180053 2.4809139e-12) (1.0916653e-10 0.002004522 -6.8767897e-10)))
0.005	(((34.549281 -2.2354295e-05 1.733666e-17) (0.1997319 -2.2036988e-08 1.1199947e-20)) ((2.2354295e-07 0.34549281 3.3598762e-12) (2.2036988e-10 0.001997319 -7.6550959e-10)))
0.0055	(((34.888507 -3.7221197e-05 1.7255535e-17) (0.19918166 -3.8666651e-08 1.7767092e-20)) ((3.7221197e-07 0.34888507 4.6253342e-12) (3.8666651e-10 0.0019918166 -1.0202477e-09)))
0.006	(((35.195336 -5.5023155e-05 1.7206503e-17) (0.19875801 -6.2856419e-08 2.3621546e-20)) ((5.5023155e-07 0.35195336 6.5136308e-12) (6.2856419e-10 0.0019875801 -1.5578473e-09)))
0.0065	(((35.435178 -8.0483484e-05 1.7181513e-17) (0.19846739 -9.3334153e-08 2.5413149e-20)) ((8.0483484e-07 0.35435178 9.3143091e-12) (9.3334153e-10 0.0019846739 -2.384271e-09)))
0.007	(((35.67156 -0.000103936 1.7171769e-17) (0.19831213 -1.3398081e-07 2.4734205e-20)) ((1.03936e-06 0.3567156 1.1898586e-11) (1.3398081e-09 0.0019831213 -3.7953767e-09)))
0.0075	(((35.853701 -0.00013062263 1.7181027e-17) (0.19823013 -1.776724e-07 2.3931617e-20)) ((1.3062263e-06 0.35853701 1.4866126e-11) (1.776724e-09 0.0019823013 -5.3891938e-09)))
0.008	(((35.97972 -0.00016071657 1.7201686e-17) (0.19817932 -2.2335153e-07 2.3312074e-20)) ((1.6071657e-06 0.3597972 1.7355217e-11) (2.2335153e-09 0.0019817932 -7.1438906e-09)))
0.0085	(((36.075574 -0.00018140806 1.722785e-17) (0.1981494 -2.6484565e-07 2.2786793e-20)) ((1.8140806e-06 0.36075574 2.0077594e-11) (2.6484565e-09 0.001981494 -8.2267394e-09)))
0.009	(((36.15378 -0.00020329193 1.7255933e-17) (0.1981471 -3.0713021e-07 2.2232033e-20)) ((2.0329193e-06 0.3615378 2.2324113e-11) (3.0713021e-09 0.001981471 -9.6664991e-09)))
0.0095	(((36.233344 -0.00022431789 1.7284502e-17) (0.19817393 -3.4634765e-07 2.1806857e-20)) ((2.2431789e-06 0.36233344 2.4350144e-11) (3.4634765e-09 0.0019817393 -1.1097968e-08)))
0.01	(((36.313678 -0.00024555701 1.7314736e-17) (0.19822917 -3.8381975e-07 2.1496832e-20)) ((2.4555701e-06 0.36313678 2.617927e-11) (3.8381975e-09 0.0019822917 -1.2311361e-08)))
0.0105	(((36.392579 -0.00026283013 1.7346901e-17) (0.19830875 -4.1697071e-07 2.1284834e-20)) ((2.6283013e-06 0.36392579 2.7720699e-11) (4.1697071e-09 0.0019830875 -1.3302105e-08)))
0.011	(((36.467439 -0.00027941002 1.7380577e-17) (0.19840692 -4.4631809e-07 2.11524e-20)) ((2.7941002e-06 0.36467439 2.8997963e-11) (4.4631809e-09 0.0019840692 -1.4034547e-08)))
0.0115	(((36.53625 -0.00029362956 1.7414887e-17) (0.1985173 -4.6982114e-07 2.1081779e-20)) ((2.9362956e-06 0.3653625 2.9937751e-11) (4.6982114e-09 0.001985173 -1.4517238e-08)))
0.012	(((36.598487 -0.00030638994 1.7448869e-17) (0.19863408 -4.8951658e-07 2.105751e-20)) ((3.0638994e-06 0.36598487 3.0762726e-11) (4.8951658e-09 0.0019863408 -1.4856611e-08)))
0.0125	(((36.655034 -0.00031829834 1.7481582e-17) (0.19875268 -5.0711881e-07 2.1067049e-20)) ((3.1829834e-06 0.36655034 3.1462835e-11) (5.0711881e-09 0.0019875268 -1.499188e-08)))
0.013	(((36.706324 -0.00032859019 1.7512522e-17) (0.19886981 -5.2104013e-07 2.1100463e-20)) ((3.2859019e-06 0.36706324 3.2019123e-11) (5.2104013e-09 0.0019886981 -1.5057212e-08)))
0.0135	(((36.752179 -0.0003396766 1.7541381e-17) (0.1989829 -5.3399001e-07 2.1149599e-20)) ((3.396766e-06 0.36752179 3.2594671e-11) (5.3399001e-09 0.001989829 -1.4965849e-08)))
0.014	(((36.793248 -0.00034959571 1.7567907e-17) (0.19909021 -5.4621216e-07 2.1207997e-20)) ((3.4959571e-06 0.36793248 3.3137963e-11) (5.4621216e-09 0.0019909021 -1.4951845e-08)))
0.0145	(((36.830171 -0.00035920001 1.7591983e-17) (0.19919077 -5.5749606e-07 2.1270792e-20)) ((3.5920001e-06 0.36830171 3.3693e-11) (5.5749606e-09 0.0019919077 -1.4967651e-08)))
0.015	(((36.863363 -0.00036814396 1.7613624e-17) (0.19928411 -5.6845879e-07 2.133438e-20)) ((3.6814396e-06 0.36863363 3.430656e-11) (5.6845879e-09 0.0019928411 -1.4880153e-08)))
0.0155	(((36.893012 -0.00037659148 1.763293e-17) (0.19937011 -5.7982387e-07 2.1396101e-20)) ((3.7659148e-06 0.36893012 3.4964672e-11) (5.7982387e-09 0.0019937011 -1.4981433e-08)))
0.016	(((36.919564 -0.00038526548 1.764996e-17) (0.19944884 -5.8995832e-07 2.1454128e-20)) ((3.8526548e-06 0.36919564 3.5559094e-11) (5.8995832e-09 0.0019944884 -1.4958347e-08)))
0.0165	(((36.943414 -0.00039500345 1.7664809e-17) (0.19952061 -6.0087264e-07 2.1507309e-20)) ((3.9500345e-06 0.36943414 3.6163774e-11) (6.0087264e-09 0.0019952061 -1.5109737e-08)))
0.017	(((36.964916 -0.00040181755 1.7677819e-17) (0.19958589 -6.1325263e-07 2.1555237e-20)) ((4.0181755e-06 0.36964916 3.6887094e-11) (6.1325263e-09 0.0019958589 -1.5366986e-08)))
0.0175	(((36.984542 -0.00040856651 1.7689026e-17) (0.19964524 -6.2338978e-07 2.1597665e-20)) ((4.0856651e-06 0.36984542 3.7449906e-11) (6.2338978e-09 0.0019964524 -1.5551125e-08)))
0.018	(((37.002681 -0.00041439755 1.7698674e-17) (0.19969932 -6.3409389e-07 2.1634854e-20)) ((4.1439755e-06 0.37002681 3.8023519e-11) (6.3409389e-09 0.0019969932 -1.5888869e-08)))
0.0185	(((37.019693 -0.00041862871 1.7706988e-17) (0.19974883 -6.4450113e-07 2.1667238e-20)) ((4.1862871e-06 0.37019693 3.8537905e-11) (6.4450113e-09 0.0019974883 -1.6307336e-08)))
0.019	(((37.035885 -0.00042188847 1.7714175e-17) (0.19979445 -6.5185053e-07 2.169537e-20)) ((4.2188847e-06 0.37035885 3.8844915e-11) (6.5185053e-09 0.0019979445 -1.6557537e-08)))
0.0195	(((37.051502 -0.00042410662 1.7720458e-17) (0.19983688 -6.5903591e-07 2.1719879e-20)) ((4.2410662e-06 0.37051502 3.9141338e-11) (6.5903591e-09 0.0019983688 -1.6908075e-08)))
0.02	(((37.066763 -0.00042448212 1.7725991e-17) (0.19987672 -6.6512465e-07 2.1741329e-20)) ((4.2448212e-06 0.37066763 3.9342514e-11) (6.6512465e-09 0.0019987672 -1.7277988e-08)))
0.0205	(((37.081819 -0.00042339029 1.7730974e-17) (0.19991453 -6.6941845e-07 2.1760312e-20)) ((4.2339029e-06 0.37081819 3.9431893e-11) (6.6941845e-09 0.0019991453 -1.7629948e-08)))
0.021	(((37.096816 -0.00042092345 1.7735546e-17) (0.19995083 -6.7027421e-07 2.177732e-20)) ((4.2092345e-06 0.37096816 3.9335798e-11) (6.7027421e-09 0.0019995083 -1.7770868e-08)))
0.0215	(((37.111875 -0.00041790507 1.773983e-17) (0.19998604 -6.7003447e-07 2.1792787e-20)) ((4.1790507e-06 0.37111875 3.9223728e-11) (6.7003447e-09 0.0019998604 -1.7929986e-08)))
0.022	(((37.1271 -0.00041463631 1.7743955e-17) (0.20002057 -6.6860097e-07 2.1807094e-20)) ((4.1463631e-06 0.371271 3.9086488e-11) (6.6860097e-09 0.0020002057 -1.8049468e-08)))
0.0225	(((37.142613 -0.00041128688 1.7748e-17) (0.20005476 -6.6618019e-07 2.1820528e-20)) ((4.1128688e-06 0.37142613 3.8928137e-11) (6.6618019e-09 0.0020005476 -1.8108477e-08)))
0.023	(((37.158526 -0.00040886242 1.775206e-17) (0.20008894 -6.6299365e-07 2.1833348e-20)) ((4.0886242e-06 0.37158526 3.8758787e-11) (6.6299365e-09 0.0020008894 -1.8126281e-08)))
0.0235	(((37.174963 -0.00040648669 1.775622e-17) (0.20012342 -6.5821323e-07 2.1845759e-20)) ((4.0648669e-06 0.37174963 3.8542938e-11) (6.5821323e-09 0.0020012342 -1.7945441e-08)))
0.024	(((37.192074 -0.00040699333 1.7760535e-17) (0.2001585 -6.5469252e-07 2.1857917e-20)) ((4.0699333e-06 0.37192074 3.8442061e-11) (6.5469252e-09 0.002001585 -1.7799276e-08)))
0.0245	(((37.209992 -0.00040851336 1.7765149e-17) (0.20019451 -6.5303194e-07 2.187001e-20)) ((4.0851336e-06 0.37209992 3.8474766e-11) (6.5303194e-09 0.0020019451 -1.7611976e-08)))
0.025	(((37.228951 -0.00041339739 1.7770067e-17) (0.2002318 -6.5340965e-07 2.1882092e-20)) ((4.1339739e-06 0.37228951 3.8569818e-11) (6.5340965e-09 0.002002318 -1.7413238e-08)))
0.0255	(((37.249182 -0.00042102258 1.7775415e-17) (0.20027076 -6.5619794e-07 2.1894298e-20)) ((4.2102258e-06 0.37249182 3.8721395e-11) (6.5619794e-09 0.0020027076 -1.7162621e-08)))
0.026	(((37.270989 -0.00043177919 1.7781287e-17) (0.20031185 -6.6244336e-07 2.1906716e-20)) ((4.3177919e-06 0.37270989 3.8924449e-11) (6.6244336e-09 0.0020031185 -1.6911207e-08)))
0.0265	(((37.294767 -0.00044537691 1.7787805e-17) (0.20035564 -6.7191164e-07 2.1919436e-20)) ((4.4537691e-06 0.37294767 3.9091873e-11) (6.7191164e-09 0.0020035564 -1.6609173e-08)))
0.027	(((37.321033 -0.0004618282 1.7795138e-17) (0.20040284 -6.8475874e-07 2.1932583e-20)) ((4.618282e-06 0.37321033 3.9178698e-11) (6.8475874e-09 0.0020040284 -1.6264924e-08)))
0.0275	(((37.353587 -0.00048695664 1.7803387e-17) (0.20045551 -7.0611442e-07 2.1947331e-20)) ((4.8695664e-06 0.37353587 3.9138215e-11) (7.0611442e-09 0.0020045551 -1.6084127e-08)))
0.028	(((37.367321 -0.00048103385 1.7813793e-17) (0.20050631 -7.1466916e-07 2.1955668e-20)) ((4.8103385e-06 0.37367321 3.9001291e-11) (7.1466916e-09 0.0020050631 -1.5071381e-08)))
0.0285	(((37.372434 -0.0004939292 1.7823037e-17) (0.20054967 -7.1972326e-07 2.1951938e-20)) ((4.939292e-06 0.37372434 3.9162049e-11) (7.1972326e-09 0.0020054967 -1.4951864e-08)))
0.029	(((37.370192 -0.00048965756 1.7829912e-17) (0.20058328 -7.2119745e-07 2.1935306e-20)) ((4.8965756e-06 0.37370192 3.9144967e-11) (7.2119745e-09 0.0020058328 -1.4938893e-08)))
0.0295	(((37.36524 -0.00048398138 1.7834004e-17) (0.20060686 -7.1853778e-07 2.1908695e-20)) ((4.8398138e-06 0.3736524 3.9093421e-11) (7.1853778e-09 0.0020060686 -1.5325864e-08)))
0.03	(((37.364175 -0.00046962526 1.783564e-17) (0.20062329 -7.087808e-07 2.1878258e-20)) ((4.6962526e-06 0.37364175 3.8881874e-11) (7.087808e-09 0.0020062329 -1.5740425e-08)))
0.0305	(((37.366983 -0.00045672726 1.7835929e-17) (0.20063609 -6.9439344e-07 2.1849812e-20)) ((4.5672726e-06 0.37366983 3.8575655e-11) (6.9439344e-09 0.0020063609 -1.5783384e-08)))
0.031	(((37.372959 -0.00044402976 1.7835735e-17) (0.20064785 -6.7721796e-07 2.1827201e-20)) ((4.4402976e-06 0.37372959 3.8627735e-11) (6.7721796e-09 0.0020064785 -1.5325562e-08)))
0.0315	(((37.381065 -0.0004396284 1.7835609e-17) (0.20066019 -6.6020294e-07 2.1812418e-20)) ((4.396284e-06 0.37381065 3.9116294e-11) (6.6020294e-09 0.0020066019 -1.4859284e-08)))
0.032	(((37.390214 -0.00044593206 1.7835793e-17) (0.20067382 -6.5080577e-07 2.1805862e-20)) ((4.4593206e-06 0.37390214 4.0534763e-11) (6.5080577e-09 0.0020067382 -1.4254646e-08)))
0.0325	(((37.399486 -0.00046835199 1.7836282e-17) (0.20068873 -6.5473436e-07 2.1806778e-20)) ((4.6835199e-06 0.37399486 4.2837536e-11) (6.5473436e-09 0.0020068873 -1.3853603e-08)))
0.033	(((37.408096 -0.00050193635 1.7837136e-17) (0.20070445 -6.7498264e-07 2.181388e-20)) ((5.0193635e-06 0.37408096 4.6145667e-11) (6.7498264e-09 0.0020070445 -1.3966771e-08)))
0.0335	(((37.415619 -0.00054368193 1.7838026e-17) (0.20072032 -7.1309521e-07 2.18253e-20)) ((5.4368193e-06 0.37415619 5.0298014e-11) (7.1309521e-09 0.0020072032 -1.4556728e-08)))
0.034	(((37.421875 -0.00060175255 1.7838972e-17) (0.20073567 -7.6867184e-07 2.1839585e-20)) ((6.0175255e-06 0.37421875 5.4779812e-11) (7.6867184e-09 0.0020073567 -1.578697e-08)))
0.0345	(((37.42676 -0.00065875066 1.7839788e-17) (0.20074991 -8.3954986e-07 2.1855139e-20)) ((6.5875066e-06 0.3742676 5.9355019e-11) (8.3954986e-09 0.0020074991 -1.7344589e-08)))
0.035	(((37.430396 -0.00071534067 1.7840386e-17) (0.20076264 -9.1841787e-07 2.187079e-20)) ((7.1534067e-06 0.37430396 6.3505432e-11) (9.1841787e-09 0.0020076264 -1.9405093e-08)))
0.0355	(((37.432983 -0.0007649337 1.784066e-17) (0.20077362 -9.9837242e-07 2.1885612e-20)) ((7.649337e-06 0.37432983 6.6788108e-11) (9.9837242e-09 0.0020077362 -2.1902482e-08)))
0.036	(((37.434651 -0.00079686355 1.7840616e-17) (0.20078277 -1.073249e-06 2.1899007e-20)) ((7.9686355e-06 0.37434651 6.8974599e-11) (1.073249e-08 0.0020078277 -2.4308474e-08)))
0.0365	(((37.435642 -0.00081336466 1.7840263e-17) (0.20079014 -1.1342308e-06 2.1910664e-20)) ((8.1336466e-06 0.37435642 6.9528202e-11) (1.1342308e-08 0.0020079014 -2.6630275e-08)))
0.037	(((37.436124 -0.00080791241 1.7839679e-17) (0.20079587 -1.1742314e-06 2.1920496e-20)) ((8.0791241e-06 0.37436124 6.8392301e-11) (1.1742314e-08 0.0020079587 -2.8498981e-08)))
0.0375	(((37.436281 -0.00078319045 1.7838833e-17) (0.20080017 -1.1879356e-06 2.1928483e-20)) ((7.8319045e-06 0.37436281 6.5520674e-11) (1.1879356e-08 0.0020080017 -2.9899656e-08)))
0.038	(((37.436199 -0.00073479496 1.7837753e-17) (0.20080324 -1.1728059e-06 2.193471e-20)) ((7.3479496e-06 0.37436199 6.1141285e-11) (1.1728059e-08 0.0020080324 -3.0374292e-08)))
0.0385	(((37.435998 -0.00066888058 1.7836595e-17) (0.20080533 -1.128554e-06 2.1939508e-20)) ((6.6888058e-06 0.37435998 5.5652474e-11) (1.128554e-08 0.0020080533 -3.0009679e-08)))
0.039	(((37.435706 -0.00059122704 1.7835347e-17) (0.20080664 -1.0570572e-06 2.1943035e-20)) ((5.9122704e-06 0.37435706 4.9509772e-11) (1.0570572e-08 0.0020080664 -2.881959e-08)))
0.0395	(((37.435421 -0.00050799713 1.7834026e-17) (0.20080735 -9.6432943e-07 2.1945527e-20)) ((5.0799713e-06 0.37435421 4.3295967e-11) (9.6432943e-09 0.0020080735 -2.6788666e-08)))
0.04	(((37.435141 -0.0004281817 1.7832671e-17) (0.20080764 -8.5832558e-07 2.1947214e-20)) ((4.281817e-06 0.37435141 3.7669224e-11) (8.5832558e-09 0.0020080764 -2.4178413e-08)))
0.0405	(((37.434906 -0.00035990249 1.7831291e-17) (0.20080764 -7.4961132e-07 2.1948288e-20)) ((3.5990249e-06 0.37434906 3.326126e-11) (7.4961132e-09 0.0020080764 -2.1133246e-08)))
0.041	(((37.434718 -0.0003113822 1.7829901e-17) (0.20080745 -6.4907675e-07 2.194892e-20)) ((3.113822e-06 0.37434718 3.0578686e-11) (6.4907675e-09 0.0020080745 -1.796109e-08)))
0.0415	(((37.434572 -0.00028880705 1.7828519e-17) (0.20080716 -5.6781684e-07 2.1949255e-20)) ((2.8880705e-06 0.37434572 3.0035057e-11) (5.6781684e-09 0.0020080716 -1.4960376e-08)))
0.042	(((37.434447 -0.00029690385 1.7827142e-17) (0.20080683 -5.1572278e-07 2.1949373e-20)) ((2.9690385e-06 0.37434447 3.1801128e-11) (5.1572278e-09 0.0020080683 -1.2447851e-08)))
0.0425	(((37.434388 -0.00033513584 1.7825791e-17) (0.20080649 -4.9969949e-07 2.1949377e-20)) ((3.3513584e-06 0.37434388 3.58839e-11) (4.9969949e-09 0.0020080649 -1.0655608e-08)))
0.043	(((37.434324 -0.00040349496 1.7824477e-17) (0.20080616 -5.2417782e-07 2.1949291e-20)) ((4.0349496e-06 0.37434324 4.1979796e-11) (5.2417782e-09 0.0020080616 -9.8651621e-09)))
0.0435	(((37.434299 -0.00049672319 1.7823191e-17) (0.20080586 -5.8936273e-07 2.1949134e-20)) ((4.9672319e-06 0.37434299 4.9619669e-11) (5.8936273e-09 0.0020080586 -1.0208298e-08)))
0.044	(((37.43429 -0.00060677707 1.7821969e-17) (0.20080561 -6.9163066e-07 2.194894e-20)) ((6.0677707e-06 0.3743429 5.8125224e-11) (6.9163066e-09 0.0020080561 -1.1692469e-08)))
0.0445	(((37.434303 -0.0007239781 1.7820813e-17) (0.2008054 -8.2277545e-07 2.19487e-20)) ((7.239781e-06 0.37434303 6.6633194e-11) (8.2277545e-09 0.002008054 -1.4204332e-08)))
0.045	(((37.434328 -0.00083654882 1.7819762e-17) (0.20080523 -9.7145649e-07 2.1948436e-20)) ((8.3654882e-06 0.37434328 7.430558e-11) (9.7145649e-09 0.0020080523 -1.7582352e-08)))
0.0455	(((37.434368 -0.00093298065 1.7818807e-17) (0.20080511 -1.1235481e-06 2.1948126e-20)) ((9.3298065e-06 0.37434368 8.0289394e-11) (1.1235481e-08 0.0020080511 -2.1527042e-08)))
0.046	(((37.434414 -0.0010023689 1.7817982e-17) (0.20080503 -1.2639081e-06 2.1947792e-20)) ((1.0023689e-05 0.37434414 8.3846967e-11) (1.2639081e-08 0.0020080503 -2.5650123e-08)))
0.0465	(((37.434472 -0.0010354615 1.7817285e-17) (0.20080498 -1.3770703e-06 2.1947431e-20)) ((1.0354615e-05 0.37434472 8.4448591e-11) (1.3770703e-08 0.0020080498 -2.9526265e-08)))
0.047	(((37.434538 -0.0010270862 1.7816732e-17) (0.20080496 -1.4497639e-06 2.194707e-20)) ((1.0270862e-05 0.37434538 8.183513e-11) (1.4497639e-08 0.0020080496 -3.2741405e-08)))
0.0475	(((37.434606 -0.00097504956 1.7816322e-17) (0.20080497 -1.4719128e-06 2.1946724e-20)) ((9.7504956e-06 0.37434606 7.6068315e-11) (1.4719128e-08 0.0020080497 -3.4881594e-08)))
0.048	(((37.434676 -0.00088188777 1.7816017e-17) (0.20080501 -1.4375831e-06 2.1946386e-20)) ((8.8188777e-06 0.37434676 6.7514615e-11) (1.4375831e-08 0.0020080501 -3.5698706e-08)))
0.0485	(((37.434751 -0.00075463767 1.7815814e-17) (0.20080506 -1.3469962e-06 2.1946094e-20)) ((7.5463767e-06 0.37434751 5.6875944e-11) (1.3469962e-08 0.0020080506 -3.4981332e-08)))
0.049	(((37.434823 -0.00060391694 1.78157e-17) (0.20080513 -1.2059008e-06 2.1945885e-20)) ((6.0391694e-06 0.37434823 4.5148837e-11) (1.2059008e-08 0.0020080513 -3.270631e-08)))
0.0495	(((37.434897 -0.00044492228 1.7815635e-17) (0.20080522 -1.0252313e-06 2.1945771e-20)) ((4.4492228e-06 0.37434897 3.3405583e-11) (1.0252313e-08 0.0020080522 -2.9042508e-08)))
0.05	(((37.434974 -0.00029205305 1.7815596e-17) (0.20080531 -8.2095582e-07 2.194577e-20)) ((2.9205305e-06 0.37434974 2.287663e-11) (8.2095582e-09 0.0020080531 -2.4207386e-08)))
0.0505	(((37.435054 -0.00016328345 1.7815546e-17) (0.20080541 -6.1299963e-07 2.194589e-20)) ((1.6328345e-06 0.37435054 1.4741432e-11) (6.1299963e-09 0.0020080541 -1.8663397e-08)))
0.051	(((37.435127 -7.0935675e-05 1.781547e-17) (0.20080552 -4.2224037e-07 2.1946133e-20)) ((7.0935675e-07 0.37435127 1.0022738e-11) (4.2224037e-09 0.0020080552 -1.2905669e-08)))
0.0515	(((37.435202 -3.0779146e-05 1.781533e-17) (0.20080563 -2.7017529e-07 2.1946484e-20)) ((3.0779146e-07 0.37435202 9.4117292e-12) (2.7017529e-09 0.0020080563 -7.5650302e-09)))
0.052	(((37.435272 -4.5306538e-05 1.7815134e-17) (0.20080575 -1.7437916e-07 2.1946929e-20)) ((4.5306538e-07 0.37435272 1.3269752e-11) (1.7437916e-09 0.0020080575 -3.1564772e-09)))
0.0525	(((37.435341 -0.00012186394 1.7814872e-17) (0.20080587 -1.4851584e-07 2.1947447e-20)) ((1.2186394e-06 0.37435341 2.1456487e-11) (1.4851584e-09 0.0020080587 -2.9673883e-10)))
0.053	(((37.435404 -0.00025361184 1.7814552e-17) (0.20080598 -2.0057037e-07 2.1947996e-20)) ((2.5361184e-06 0.37435404 3.3451728e-11) (2.0057037e-09 0.0020080598 7.2561273e-10)))
0.0535	(((37.435462 -0.00043136963 1.7814192e-17) (0.20080609 -3.2993149e-07 2.1948537e-20)) ((4.3136963e-06 0.37435462 4.8270219e-11) (3.2993149e-09 0.0020080609 -3.7127517e-10)))
0.054	(((37.435514 -0.0006397571 1.781382e-17) (0.2008062 -5.2847559e-07 2.1949033e-20)) ((6.397571e-06 0.37435514 6.4585226e-11) (5.2847559e-09 0.002008062 -3.6069004e-09)))
0.0545	(((37.435561 -0.00085966789 1.7813465e-17) (0.20080629 -7.8032583e-07 2.1949448e-20)) ((8.5966789e-06 0.37435561 8.0812072e-11) (7.8032583e-09 0.0020080629 -8.7976542e-09)))
0.055	(((37.435603 -0.0010695923 1.7813164e-17) (0.20080638 -1.0632877e-06 2.1949758e-20)) ((1.0695923e-05 0.37435603 9.5280771e-11) (1.0632877e-08 0.0020080638 -1.5537809e-08)))
0.0555	(((37.435636 -0.0012469011 1.7812956e-17) (0.20080646 -1.3505777e-06 2.1949946e-20)) ((1.2469011e-05 0.37435636 1.0639292e-10) (1.3505777e-08 0.0020080646 -2.3237648e-08)))
0.056	(((37.435668 -0.0013720513 1.7812866e-17) (0.20080653 -1.6128984e-06 2.1950008e-20)) ((1.3720513e-05 0.37435668 1.1274833e-10) (1.6128984e-08 0.0020080653 -3.1182362e-08)))
0.0565	(((37.435695 -0.0014287737 1.7812923e-17) (0.20080659 -1.821445e-06 2.1949959e-20)) ((1.4287737e-05 0.37435695 1.1333384e-10) (1.821445e-08 0.0020080659 -3.8547093e-08)))
0.057	(((37.435718 -0.0014040658 1.7813124e-17) (0.20080665 -1.9512516e-06 2.1949799e-20)) ((1.4040658e-05 0.37435718 1.0786979e-10) (1.9512516e-08 0.0020080665 -4.4496606e-08)))
0.0575	(((37.435744 -0.0012971358 1.7813478e-17) (0.2008067 -1.9838291e-06 2.1949585e-20)) ((1.2971358e-05 0.37435744 9.643361e-11) (1.9838291e-08 0.002008067 -4.8417546e-08)))
0.058	(((37.43577 -0.0011153998 1.7813956e-17) (0.20080674 -1.9098164e-06 2.1949351e-20)) ((1.1153998e-05 0.3743577 7.9789264e-11) (1.9098164e-08 0.0020080674 -4.9750688e-08)))
0.0585	(((37.435802 -0.0008673576 1.781454e-17) (0.20080679 -1.7289518e-06 2.1949144e-20)) ((8.673576e-06 0.37435802 5.9191507e-11) (1.7289518e-08 0.0020080679 -4.8142114e-08)))
0.059	(((37.435835 -0.00058000889 1.7815185e-17) (0.20080684 -1.4530099e-06 2.1949028e-20)) ((5.8000889e-06 0.37435835 3.667438e-11) (1.4530099e-08 0.0020080684 -4.3610614e-08)))
0.0595	(((37.435872 -0.00027580834 1.781584e-17) (0.20080689 -1.1041296e-06 2.1949033e-20)) ((2.7580834e-06 0.37435872 1.4390314e-11) (1.1041296e-08 0.0020080689 -3.6375678e-08)))
0.06	(((37.435913 1.1763491e-05 1.7816449e-17) (0.20080695 -7.1376691e-07 2.1949201e-20)) ((-1.1763491e-07 0.37435913 -5.3375926e-12) (7.1376691e-09 0.0020080695 -2.7059262e-08)))
0.0605	(((37.435956 0.00025469823 1.7816964e-17) (0.20080701 -3.192453e-07 2.1949548e-20)) ((-2.5469823e-06 0.37435956 -2.0337693e-11) (3.192453e-09 0.0020080701 -1.64563e-08)))
0.061	(((37.436001 0.00042361464 1.781734e-17) (0.20080708 3.9774626e-08 2.1950078e-20)) ((-4.2361464e-06 0.37436001 -2.8784668e-11) (-3.9774626e-10 0.0020080708 -5.5970036e-09)))
0.0615	(((37.436047 0.00049577778 1.7817542e-17) (0.20080715 3.2332943e-07 2.1950775e-20)) ((-4.9577778e-06 0.37436047 -2.9331088e-11) (-3.2332943e-09 0.0020080715 4.4481745e-09)))
0.062	(((37.436093 0.00046020967 1.7817553e-17) (0.20080723 4.9699189e-07 2.1951599e-20)) ((-4.6020967e-06 0.37436093 -2.1387143e-11) (-4.9699189e-09 0.0020080723 1.258005e-08)))
0.0625	(((37.436129 0.00030709244 1.7817378e-17) (0.20080731 5.3617693e-07 2.1952516e-20)) ((-3.0709244e-06 0.37436129 -5.2061386e-12) (-5.3617693e-09 0.0020080731 1.7775859e-08)))
0.063	(((37.436161 5.1231544e-05 1.7817037e-17) (0.20080738 4.2714703e-07 2.1953449e-20)) ((-5.1231544e-07 0.37436161 1.8109064e-11) (-4.2714703e-09 0.0020080738 1.945801e-08)))
0.0635	(((37.436191 -0.00029292012 1.7816567e-17) (0.20080745 1.7198692e-07 2.1954339e-20)) ((2.9292012e-06 0.37436191 4.6507074e-11) (-1.7198692e-09 0.0020080745 1.7040422e-08)))
0.064	(((37.436212 -0.0006906229 1.7816024e-17) (0.20080751 -2.1261192e-07 2.1955096e-20)) ((6.906229e-06 0.37436212 7.7469335e-11) (2.1261192e-09 0.0020080751 1.0624109e-08)))
0.0645	(((37.436225 -0.0011087552 1.7815473e-17) (0.20080756 -6.9570776e-07 2.1955675e-20)) ((1.1087552e-05 0.37436225 1.0804022e-10) (6.9570776e-09 0.0020080756 5.3479279e-10)))
0.065	(((37.43623 -0.0015027699 1.7814989e-17) (0.2008076 -1.2342833e-06 2.1956018e-20)) ((1.5027699e-05 0.3743623 1.3499852e-10) (1.2342833e-08 0.002008076 -1.2403948e-08)))
0.0655	(((37.436226 -0.0018314191 1.7814635e-17) (0.20080763 -1.7765424e-06 2.1956095e-20)) ((1.8314191e-05 0.37436226 1.5537906e-10) (1.7765424e-08 0.0020080763 -2.704798e-08)))
0.066	(((37.43622 -0.00205926 1.7814475e-17) (0.20080764 -2.2668798e-06 2.1955915e-20)) ((2.05926e-05 0.3743622 1.6655699e-10) (2.2668798e-08 0.0020080764 -4.2060135e-08)))
0.0665	(((37.436211 -0.0021537013 1.7814551e-17) (0.20080764 -2.6512677e-06 2.1955489e-20)) ((2.1537013e-05 0.37436211 1.6677411e-10) (2.6512677e-08 0.0020080764 -5.5802466e-08)))
0.067	(((37.4362 -0.002095554 1.7814879e-17) (0.20080763 -2.8833827e-06 2.1954865e-20)) ((2.095554e-05 0.374362 1.5546176e-10) (2.8833827e-08 0.0020080763 -6.6785601e-08)))
0.0675	(((37.43619 -0.0018843433 1.7815457e-17) (0.20080762 -2.9291344e-06 2.1954121e-20)) ((1.8843433e-05 0.3743619 1.3287457e-10) (2.9291344e-08 0.0020080762 -7.3802894e-08)))
0.068	(((37.436186 -0.0015193406 1.7816274e-17) (0.20080761 -2.770251e-06 2.1953325e-20)) ((1.5193406e-05 0.37436186 1.0063139e-10) (2.770251e-08 0.0020080761 -7.5669742e-08)))
0.0685	(((37.436191 -0.0010482951 1.7817234e-17) (0.2008076 -2.4125712e-06 2.1952598e-20)) ((1.0482951e-05 0.37436191 6.1295295e-11) (2.4125712e-08 0.002008076 -7.228055e-08)))
0.069	(((37.436202 -0.00049984977 1.7818289e-17) (0.20080759 -1.8784709e-06 2.1952021e-20)) ((4.9984977e-06 0.37436202 1.8496286e-11) (1.8784709e-08 0.0020080759 -6.3176429e-08)))
0.0695	(((37.436226 7.5992256e-05 1.7819339e-17) (0.2008076 -1.2097482e-06 2.1951677e-20)) ((-7.5992256e-07 0.37436226 -2.3414904e-11) (1.2097482e-08 0.002008076 -4.9032155e-08)))
0.07	(((37.436256 0.00061525067 1.7820287e-17) (0.20080762 -4.6773056e-07 2.1951648e-20)) ((-6.1525067e-06 0.37436256 -6.0160979e-11) (4.6773056e-09 0.0020080762 -3.1106888e-08)))
0.0705	(((37.43629 0.001063942 1.7821038e-17) (0.20080766 2.7566037e-07 2.1951956e-20)) ((-1.063942e-05 0.3743629 -8.7668315e-11) (-2.7566037e-09 0.0020080766 -1.0901765e-08)))
0.071	(((37.436334 0.0013671341 1.7821502e-17) (0.20080771 9.4492475e-07 2.1952607e-20)) ((-1.3671341e-05 0.37436334 -1.0251994e-10) (-9.4492475e-09 0.0020080771 9.6282575e-09)))
0.0715	(((37.436383 0.0014916072 1.7821635e-17) (0.20080776 1.4658362e-06 2.1953576e-20)) ((-1.4916072e-05 0.37436383 -1.0219797e-10) (-1.4658362e-08 0.0020080776 2.842488e-08)))
0.072	(((37.436421 0.0014007319 1.7821416e-17) (0.20080783 1.7772769e-06 2.1954793e-20)) ((-1.4007319e-05 0.37436421 -8.6070628e-11) (-1.7772769e-08 0.0020080783 4.3281587e-08)))
0.0725	(((37.436458 0.0010988573 1.7820834e-17) (0.2008079 1.8280549e-06 2.1956167e-20)) ((-1.0988573e-05 0.37436458 -5.4226739e-11) (-1.8280549e-08 0.002008079 5.277914e-08)))
0.073	(((37.436489 0.00059745037 1.7819937e-17) (0.20080797 1.5996382e-06 2.1957577e-20)) ((-5.9745037e-06 0.37436489 -9.3702103e-12) (-1.5996382e-08 0.0020080797 5.5196149e-08)))
0.0735	(((37.436506 -5.834918e-05 1.7818812e-17) (0.20080804 1.0966999e-06 2.1958877e-20)) ((5.834918e-07 0.37436506 4.4907857e-11) (-1.0966999e-08 0.0020080804 5.0034232e-08)))
0.074	(((37.436515 -0.00082151017 1.7817557e-17) (0.20080809 3.5278611e-07 2.1959962e-20)) ((8.2151017e-06 0.37436515 1.0353851e-10) (-3.5278611e-09 0.0020080809 3.7148796e-08)))
0.0745	(((37.436508 -0.001600626 1.7816319e-17) (0.20080812 -5.7038429e-07 2.1960656e-20)) ((1.600626e-05 0.37436508 1.6085309e-10) (5.7038429e-09 0.0020080812 1.7732378e-08)))
0.075	(((37.436491 -0.0023414584 1.7815206e-17) (0.20080814 -1.5912329e-06 2.196096e-20)) ((2.3414584e-05 0.37436491 2.1114634e-10) (1.5912329e-08 0.0020080814 -7.1127692e-09)))
0.0755	(((37.436451 -0.002954542 1.7814357e-17) (0.20080813 -2.6129673e-06 2.1960788e-20)) ((2.954542e-05 0.37436451 2.4850515e-10) (2.6129673e-08 0.0020080813 -3.5038148e-08)))
0.076	(((37.436412 -0.0033616535 1.7813887e-17) (0.2008081 -3.526959e-06 2.1960093e-20)) ((3.3616535e-05 0.37436412 2.6808228e-10) (3.526959e-08 0.002008081 -6.3288662e-08)))
0.0765	(((37.436371 -0.0035180227 1.7813869e-17) (0.20080805 -4.2331644e-06 2.1958969e-20)) ((3.5180227e-05 0.37436371 2.6692183e-10) (4.2331644e-08 0.0020080805 -8.9072199e-08)))
0.077	(((37.436328 -0.0033862252 1.7814348e-17) (0.20080799 -4.6464085e-06 2.1957495e-20)) ((3.3862252e-05 0.37436328 2.4367375e-10) (4.6464085e-08 0.0020080799 -1.0946183e-07)))
0.0775	(((37.436288 -0.0029595049 1.7815306e-17) (0.20080793 -4.7034605e-06 2.1955801e-20)) ((2.9595049e-05 0.37436288 1.9932239e-10) (4.7034605e-08 0.0020080793 -1.2199845e-07)))
0.078	(((37.43626 -0.0022656175 1.7816678e-17) (0.20080786 -4.3771214e-06 2.1954057e-20)) ((2.2656175e-05 0.3743626 1.3700041e-10) (4.3771214e-08 0.0020080786 -1.2503014e-07)))
0.0785	(((37.436248 -0.0013541853 1.7818359e-17) (0.2008078 -3.6741465e-06 2.1952455e-20)) ((1.3541853e-05 0.37436248 6.2038939e-11) (3.6741465e-08 0.002008078 -1.1746851e-07)))
0.079	(((37.436254 -0.000308663 1.7820198e-17) (0.20080776 -2.6402563e-06 2.1951162e-20)) ((3.08663e-06 0.37436254 -1.894016e-11) (2.6402563e-08 0.0020080776 -9.9582552e-08)))
0.0795	(((37.436278 0.00077590107 1.7822023e-17) (0.20080774 -1.360833e-06 2.1950339e-20)) ((-7.7590107e-06 0.37436278 -9.7808282e-11) (1.360833e-08 0.0020080774 -7.2297691e-08)))
0.08	(((37.436322 0.001789209 1.7823649e-17) (0.20080775 4.7888407e-08 2.1950111e-20)) ((-1.789209e-05 0.37436322 -1.6631377e-10) (-4.7888407e-10 0.0020080775 -3.7905136e-08)))
0.0805	(((37.436371 0.0026186912 1.7824897e-17) (0.20080778 1.4501529e-06 2.195053e-20)) ((-2.6186912e-05 0.37436371 -2.1689207e-10) (-1.4501529e-08 0.0020080778 5.7181567e-10)))
0.081	(((37.436435 0.0031725948 1.7825614e-17) (0.20080784 2.7002878e-06 2.1951628e-20)) ((-3.1725948e-05 0.37436435 -2.4273884e-10) (-2.7002878e-08 0.0020080784 3.9540803e-08)))
0.0815	(((37.436504 0.0033704807 1.7825693e-17) (0.20080792 3.6587304e-06 2.1953321e-20)) ((-3.3704807e-05 0.37436504 -2.3989518e-10) (-3.6587304e-08 0.0020080792 7.4692657e-08)))
0.082	(((37.436579 0.0031720812 1.7825095e-17) (0.20080802 4.2086257e-06 2.195549e-20)) ((-3.1720812e-05 0.37436579 -2.068011e-10) (-4.2086257e-08 0.0020080802 1.0236692e-07)))
0.0825	(((37.436635 0.0025711704 1.7823832e-17) (0.20080813 4.2692695e-06 2.1957939e-20)) ((-2.5711704e-05 0.37436635 -1.4472175e-10) (-4.2692695e-08 0.0020080813 1.1924177e-07)))
0.083	(((37.436678 0.001603376 1.7821998e-17) (0.20080823 3.7989826e-06 2.1960427e-20)) ((-1.603376e-05 0.37436678 -5.8232481e-11) (-3.7989826e-08 0.0020080823 1.2285036e-07)))
0.0835	(((37.436699 0.0003424201 1.7819741e-17) (0.20080833 2.8132624e-06 2.1962726e-20)) ((-3.424201e-06 0.37436699 4.5638044e-11) (-2.8132624e-08 0.0020080833 1.1203938e-07)))