/*--------------------------------*- C++ -*----------------------------------*\
| =========                 |                                                 |
| \\      /  F ield         | foam-extend: Open Source CFD                    |
|  \\    /   O peration     | Version:     4.1                                |
|   \\  /    A nd           | Web:         http://www.foam-extend.org         |
|    \\/     M anipulation  |                                                 |
\*---------------------------------------------------------------------------*/
FoamFile
{
    version     2.0;
    format      ascii;
    class       volScalarField;
    location    "2.6";
    object      p;
}
// * * * * * * * * * * * * * * * * * * * * * * * * * * * * * * * * * * * * * //

dimensions      [0 2 -2 0 0 0 0];

internalField   nonuniform List<scalar> 
16126
(
-0.00022724114
-0.00065619274
-0.0013670701
-0.0017257775
-0.0025056814
-0.0029310246
-0.0037160949
-0.0042483084
-0.0050388774
-0.0056777554
-0.006491199
-0.0072263468
-0.0080788274
-0.0088995888
-0.0098014055
-0.01069842
-0.011653409
-0.012616985
-0.013623819
-0.01464446
-0.01569875
-0.016769249
-0.01786474
-0.018973912
-0.020103939
-0.021252161
-0.022416496
-0.0235962
-0.024792249
-0.026003497
-0.027228283
-0.028464476
-0.029710284
-0.030962818
-0.032219419
-0.033476524
-0.034730566
-0.035977249
-0.037212105
-0.038430073
-0.039625862
-0.040793696
-0.041927603
-0.043021244
-0.044068147
-0.045061608
-0.045994864
-0.046861045
-0.047653291
-0.048364733
-0.048988562
-0.049518029
-0.049946481
-0.050267367
-0.05047426
-0.050560877
-0.0505211
-0.05034901
-0.050038925
-0.049585451
-0.048983534
-0.048228542
-0.047316318
-0.046243282
-0.045006494
-0.043603752
-0.042033653
-0.040295685
-0.038390269
-0.036318834
-0.034083829
-0.031688782
-0.029138259
-0.026437909
-0.023594381
-0.020615335
-0.017509314
-0.014285742
-0.010954736
-0.007527106
-0.004014112
-0.00042747436
0.0032209261
0.0069189972
0.010654792
0.014416411
0.018192373
0.021971506
0.025743271
0.029497692
0.033225536
0.036918395
0.040568546
0.044169427
0.047714833
0.051200287
0.054620832
0.057974387
0.061256609
0.064468499
0.067605111
0.070672399
0.073662747
0.076592017
0.079446583
0.08226482
0.085021437
0.087807626
0.090574565
0.093534608
0.096581175
0.10019293
0.1040907
0.10931955
0.11505361
0.12357003
0.13237007
0.1467499
0.15921911
0.18403229
0.19763351
0.24797395
0.24415087
0.41318341
-0.00023443046
-0.00066462146
-0.001396047
-0.0017460966
-0.002535889
-0.0029590195
-0.003748273
-0.0042813124
-0.0050738472
-0.0057144445
-0.006529145
-0.0072659562
-0.0081191735
-0.0089408134
-0.0098422154
-0.010738415
-0.011691574
-0.012653604
-0.013658984
-0.014678323
-0.015729374
-0.01679324
-0.017882947
-0.018992269
-0.020120467
-0.021253647
-0.022405185
-0.02358077
-0.024770371
-0.025974104
-0.027191207
-0.028419546
-0.029657292
-0.030901519
-0.032149546
-0.033397805
-0.034642727
-0.03588002
-0.037105222
-0.038313283
-0.039498927
-0.040656405
-0.041779777
-0.042862748
-0.043898903
-0.044881604
-0.045804165
-0.046659807
-0.047441763
-0.048143271
-0.04875763
-0.0492782
-0.049698437
-0.050011896
-0.050212247
-0.050293295
-0.050248999
-0.050073503
-0.049761173
-0.049306646
-0.048704885
-0.047951254
-0.047041579
-0.045972246
-0.04474026
-0.043343356
-0.041780048
-0.040049729
-0.03815271
-0.036090304
-0.033864827
-0.031479667
-0.028939246
-0.026249058
-0.023415595
-0.020446357
-0.017349724
-0.014134959
-0.010812018
-0.0073915524
-0.0038846687
-0.00030293533
0.0033419128
0.0070379183
0.01077327
0.014536191
0.018315337
0.022099661
0.025878767
0.029642817
0.033382743
0.037090312
0.040758027
0.044379573
0.04794909
0.051462472
0.054915298
0.058306047
0.061631236
0.064892704
0.068086882
0.07122089
0.074289263
0.077309238
0.080270386
0.083212005
0.086113261
0.089063848
0.092020921
0.095188356
0.098468683
0.10231616
0.10647172
0.11192285
0.11790168
0.1265513
0.13554856
0.14981376
0.16244828
0.18608699
0.20032298
0.24053316
0.24852657
0.30846978
-0.00026732287
-0.00062108551
-0.0014211177
-0.0017251254
-0.0025422311
-0.0029477236
-0.0037440729
-0.0042717834
-0.005064086
-0.0057030438
-0.0065150532
-0.007250587
-0.0081006039
-0.008920914
-0.0098202529
-0.010716873
-0.011669929
-0.012631917
-0.013634919
-0.014649701
-0.015698308
-0.016767914
-0.017861478
-0.018956534
-0.020068286
-0.021215234
-0.022379671
-0.023552824
-0.024742509
-0.025945863
-0.027163042
-0.028391534
-0.029629688
-0.030874576
-0.032123549
-0.033373075
-0.03461959
-0.035858829
-0.037086326
-0.038297043
-0.039485698
-0.040646534
-0.041773604
-0.042860597
-0.043901084
-0.044888413
-0.045815883
-0.0466767
-0.047464088
-0.048171269
-0.048791533
-0.049318225
-0.049744786
-0.050064748
-0.050271755
-0.050359578
-0.050322132
-0.050153508
-0.04984801
-0.049400204
-0.04880497
-0.048057586
-0.047153785
-0.046089856
-0.044862707
-0.043469974
-0.041910081
-0.040182329
-0.038286953
-0.036225193
-0.033999305
-0.031612631
-0.029069559
-0.026375563
-0.02353713
-0.020561772
-0.017457891
-0.014234793
-0.010902487
-0.0074716941
-0.0039535965
-0.00035986473
0.0032976715
0.0070069467
0.010756057
0.014533117
0.018326678
0.022125578
0.025919326
0.029697969
0.033452369
0.037174187
0.040855867
0.044490959
0.048073553
0.051599356
0.055063947
0.058465557
0.06180083
0.06507127
0.068273843
0.071415319
0.074491885
0.077520629
0.080495477
0.083456041
0.086391499
0.089391603
0.09243359
0.095715557
0.099174836
0.10323366
0.10768692
0.11341049
0.11973045
0.12848299
0.13760377
0.15122568
0.163446
0.18455274
0.19845387
0.2316201
0.2446912
0.28841201
-0.0003874842
-0.00056923325
-0.0014949029
-0.0017202696
-0.0025834465
-0.0029595445
-0.0037682274
-0.0042857379
-0.0050784345
-0.0057139665
-0.0065234753
-0.0072579206
-0.0081050917
-0.0089243704
-0.0098192747
-0.010710805
-0.01165523
-0.012610018
-0.01360852
-0.014625104
-0.015671284
-0.016718659
-0.017785967
-0.018893364
-0.020026694
-0.021161853
-0.022312464
-0.023480071
-0.024663003
-0.025860352
-0.027071204
-0.028293547
-0.029525625
-0.030764652
-0.032007988
-0.033252167
-0.034493654
-0.035728237
-0.036951486
-0.038158412
-0.039343774
-0.040501862
-0.041626781
-0.042712269
-0.043751953
-0.044739234
-0.045667471
-0.046529928
-0.047319879
-0.0480306
-0.048655419
-0.049187714
-0.049620944
-0.049948642
-0.050164433
-0.05026205
-0.050235347
-0.050078328
-0.049785192
-0.049350374
-0.048768602
-0.048034986
-0.047145072
-0.04609495
-0.044881318
-0.043501599
-0.041953994
-0.04023759
-0.038352405
-0.03629947
-0.034080845
-0.031699687
-0.029160211
-0.026467743
-0.023628633
-0.020650287
-0.017541013
-0.014310059
-0.010967387
-0.007523703
-0.0039901953
-0.00037855036
0.0032993764
0.007031433
0.010805656
0.014610039
0.018433087
0.022263548
0.02609092
0.029905204
0.033697312
0.037458928
0.041182685
0.044862315
0.048492348
0.05206891
0.055588353
0.059049602
0.062450668
0.065794153
0.069079336
0.072314493
0.075499607
0.078653338
0.081775514
0.084905954
0.088042399
0.091269288
0.094575464
0.098138351
0.10191151
0.10626092
0.11101232
0.11691022
0.12336824
0.13192501
0.14080543
0.15338056
0.16474962
0.18273307
0.19507355
0.21875037
0.22981183
0.24788066
-0.0006123267
-0.00047949338
-0.0015917909
-0.0016913543
-0.0026189834
-0.002948104
-0.0037734129
-0.0042733883
-0.0050656206
-0.0056923424
-0.0064944765
-0.0072205935
-0.0080571151
-0.0088660251
-0.0097502459
-0.010636645
-0.011577846
-0.012530122
-0.013519145
-0.01450877
-0.01552919
-0.016594365
-0.01768876
-0.018786059
-0.019898208
-0.021031296
-0.022182255
-0.023346982
-0.024527979
-0.025722968
-0.026932017
-0.028152928
-0.029384186
-0.0306231
-0.031867122
-0.033112899
-0.034356963
-0.0355952
-0.03682325
-0.038036207
-0.039228899
-0.040395684
-0.041530727
-0.042627816
-0.043680617
-0.044682557
-0.045627003
-0.046507211
-0.047316422
-0.048047857
-0.048694765
-0.049250413
-0.049708123
-0.050061264
-0.050303264
-0.050427634
-0.050427979
-0.050298034
-0.050031703
-0.049623117
-0.049066686
-0.048357196
-0.047489865
-0.046460464
-0.045265375
-0.043901723
-0.042367427
-0.040661314
-0.038783168
-0.036733822
-0.034515158
-0.032130206
-0.029583079
-0.02687905
-0.024024446
-0.021026704
-0.017894196
-0.014636283
-0.011263073
-0.0077854738
-0.004214882
-0.00056329907
0.0031571236
0.0069338979
0.010754773
0.014607416
0.018479997
0.022360899
0.026239314
0.030104907
0.033948384
0.0377612
0.041535884
0.045265964
0.048945964
0.052571843
0.056140187
0.059649909
0.063099572
0.066491857
0.06982724
0.073114205
0.07635517
0.079569037
0.082760363
0.085968534
0.089199798
0.092534661
0.095975812
0.09968477
0.10363593
0.10814678
0.11307766
0.11904927
0.12556094
0.13386413
0.14247184
0.15406981
0.16475568
0.18047534
0.19219919
0.21151015
0.22282149
0.2351328
-0.00096224247
-0.00038194501
-0.0017384147
-0.0016746215
-0.0026816824
-0.0029494519
-0.0037934716
-0.004267018
-0.0050559104
-0.0056683879
-0.0064617193
-0.0071790477
-0.0080068338
-0.0088106172
-0.0096853048
-0.010557284
-0.011472767
-0.01239644
-0.013366839
-0.014375187
-0.015414561
-0.016455533
-0.017518971
-0.018605355
-0.019714661
-0.020836928
-0.021976567
-0.023132273
-0.024304278
-0.025491362
-0.026692897
-0.027907085
-0.029132345
-0.030366193
-0.031606153
-0.032849025
-0.034091445
-0.035329447
-0.036558791
-0.037774715
-0.038972181
-0.04014568
-0.041289511
-0.042397576
-0.043463645
-0.04448123
-0.045443752
-0.046344493
-0.047176682
-0.047933491
-0.048608072
-0.049193553
-0.04968307
-0.050069755
-0.050346761
-0.050507279
-0.050544557
-0.05045194
-0.050222917
-0.049851182
-0.049330693
-0.04865578
-0.047821202
-0.046822278
-0.04565495
-0.044315922
-0.042802714
-0.041113785
-0.039248581
-0.037207639
-0.034992581
-0.032606226
-0.030052519
-0.027336623
-0.024464796
-0.021444475
-0.01828407
-0.014993055
-0.011581693
-0.0080611049
-0.0044429776
-0.00073957267
0.0030366798
0.0068728385
0.010756273
0.014674081
0.018614095
0.022564226
0.026513378
0.03045083
0.034367067
0.038253205
0.042101717
0.045906048
0.049661028
0.053362898
0.057008801
0.060598121
0.064130506
0.067609428
0.071037118
0.07442295
0.077771977
0.081103463
0.084425533
0.087775698
0.091164515
0.094664375
0.098282804
0.10215878
0.10627375
0.11089277
0.11589615
0.12179172
0.12815139
0.1359784
0.14403413
0.15439263
0.16394817
0.17696461
0.18685253
0.2007912
0.20937386
0.21554405
-0.0013939661
-0.00025399924
-0.0018975071
-0.0016366026
-0.0027334162
-0.0029276537
-0.003793231
-0.0042367032
-0.0050241377
-0.0056192074
-0.0064000256
-0.0070995253
-0.0079074256
-0.0086831764
-0.0095301838
-0.010387307
-0.011302648
-0.012237683
-0.013203353
-0.014178742
-0.015184489
-0.016216581
-0.017275678
-0.018349999
-0.019443852
-0.020556378
-0.021687801
-0.022835785
-0.024001271
-0.025182548
-0.026379389
-0.027590005
-0.028813002
-0.030046065
-0.031286865
-0.032532394
-0.033779441
-0.035024227
-0.036262678
-0.037490214
-0.038701961
-0.03989257
-0.041056478
-0.042187707
-0.043280111
-0.044327248
-0.045322541
-0.046259223
-0.047130414
-0.047929119
-0.048648259
-0.049280669
-0.04981913
-0.050256364
-0.05058506
-0.050797899
-0.050887583
-0.05084688
-0.050668686
-0.050346088
-0.049872441
-0.049241478
-0.04844738
-0.047484914
-0.046349504
-0.045037376
-0.043545618
-0.041872311
-0.040016572
-0.037978679
-0.035760046
-0.033363365
-0.030792499
-0.028052628
-0.025150066
-0.02209241
-0.018888272
-0.015547423
-0.01208047
-0.0084989861
-0.0048150454
-0.0010416183
0.0028082081
0.0067208063
0.010682986
0.014681278
0.018702799
0.022734739
0.026765358
0.030783238
0.034778419
0.038741637
0.042665141
0.046541979
0.050366837
0.054135541
0.057845488
0.061496072
0.065087458
0.06862321
0.072106588
0.075547163
0.078951744
0.082339559
0.085721629
0.089134129
0.09259204
0.096162274
0.099858659
0.10380384
0.10798895
0.11263785
0.11765263
0.12344747
0.12966386
0.13709875
0.14474586
0.15419968
0.16306271
0.17441237
0.18352656
0.19492679
0.20272931
0.20688039
-0.0018791619
-0.00013477134
-0.0020786348
-0.0016046758
-0.0027953942
-0.0029072782
-0.003792589
-0.0041951359
-0.0049724199
-0.0055411651
-0.0063057556
-0.0069878774
-0.0077815138
-0.0085571375
-0.0094020324
-0.0102415
-0.011127167
-0.012026005
-0.012965045
-0.01392966
-0.014924885
-0.015936151
-0.016972053
-0.018028692
-0.019108076
-0.020205387
-0.021322525
-0.022457814
-0.023611643
-0.024782798
-0.025970792
-0.027174125
-0.028391438
-0.029620645
-0.030859565
-0.03210541
-0.033355161
-0.034605263
-0.035851852
-0.037090571
-0.038316753
-0.03952525
-0.040710676
-0.041867202
-0.042988787
-0.044069052
-0.045101422
-0.046079069
-0.046994982
-0.047841961
-0.048612645
-0.049299513
-0.049894914
-0.050391076
-0.050780126
-0.051054137
-0.051205156
-0.051225272
-0.051106672
-0.050841738
-0.050423114
-0.049843841
-0.04909743
-0.048178016
-0.047080426
-0.045800345
-0.044334366
-0.042680149
-0.04083644
-0.038803228
-0.036581696
-0.034174395
-0.031585107
-0.028819028
-0.025882545
-0.022783437
-0.01953054
-0.016133986
-0.012604769
-0.0089549394
-0.0051973077
-0.0013452602
0.0025876914
0.0065870575
0.01063897
0.014728762
0.018843039
0.022968155
0.027091921
0.031202268
0.035288845
0.039341608
0.04335249
0.047314184
0.051221654
0.055071101
0.058860157
0.062588411
0.066256751
0.069869288
0.073430327
0.076949802
0.080435942
0.083907531
0.087377081
0.090878081
0.094426686
0.098081873
0.10185822
0.10585953
0.1100792
0.11470085
0.11963976
0.12522679
0.1311585
0.13805282
0.14508776
0.15344523
0.16126775
0.17067225
0.17831091
0.18686459
0.1929158
0.1954866
-0.0023415589
1.4183597e-05
-0.0022403675
-0.0015509997
-0.0028329946
-0.0028607519
-0.0037657518
-0.0041330997
-0.0049101479
-0.0054579051
-0.0062081695
-0.0068679644
-0.0076384048
-0.008380855
-0.0091931936
-0.010010921
-0.010879697
-0.011765718
-0.012686483
-0.013625052
-0.014594016
-0.01558601
-0.016604825
-0.017643868
-0.018705695
-0.01978812
-0.02089194
-0.022015525
-0.023159325
-0.024322087
-0.025503489
-0.026702167
-0.027916934
-0.029145928
-0.030387167
-0.031638111
-0.032895966
-0.034157427
-0.035418863
-0.036676154
-0.03792485
-0.039160003
-0.040376385
-0.041568293
-0.042729753
-0.043854396
-0.044935581
-0.045966341
-0.046939441
-0.04784737
-0.048682371
-0.049436445
-0.050101382
-0.050668778
-0.05113007
-0.051476586
-0.051699594
-0.051790375
-0.051740301
-0.051540939
-0.051184134
-0.050662158
-0.049967789
-0.049094482
-0.048036439
-0.04678879
-0.045347636
-0.043710234
-0.041874993
-0.039841663
-0.037611257
-0.035186264
-0.032570465
-0.029769185
-0.026788976
-0.023637938
-0.020325262
-0.016861548
-0.013258348
-0.0095284081
-0.0056847987
-0.0017421462
0.0022848726
0.00638077
0.010530996
0.014720502
0.018934726
0.023159043
0.027380327
0.031585428
0.035763362
0.039903893
0.043998856
0.048040466
0.052023461
0.055943008
0.059797241
0.063585913
0.067310415
0.070974782
0.074584186
0.078148674
0.081677523
0.085189252
0.08869781
0.092234953
0.095818628
0.099502361
0.10330297
0.10731042
0.11152248
0.11609145
0.12094728
0.1263543
0.13206165
0.13854642
0.14515268
0.15275321
0.15994035
0.16815854
0.17505792
0.18213247
0.18740717
0.18918521
-0.0027571046
0.00013617221
-0.0023924545
-0.0015004422
-0.0028698199
-0.0028140049
-0.0037362741
-0.0040589186
-0.0048239537
-0.0053413823
-0.0060731919
-0.0067106275
-0.007462516
-0.0081887571
-0.0089833676
-0.0097779928
-0.010619135
-0.011475472
-0.012369434
-0.013286087
-0.014233521
-0.015202286
-0.016197663
-0.017215555
-0.018258032
-0.019322246
-0.02040938
-0.021518086
-0.022648729
-0.023800358
-0.024972644
-0.026164477
-0.027374803
-0.028602015
-0.029844341
-0.031099507
-0.032364964
-0.033637676
-0.034914268
-0.036190872
-0.037463268
-0.038726715
-0.039976153
-0.041206002
-0.042410348
-0.04358282
-0.044716693
-0.045804833
-0.046839751
-0.047813588
-0.048718147
-0.049544903
-0.050285032
-0.050929445
-0.051468828
-0.051893707
-0.052194505
-0.05236164
-0.052385602
-0.05225709
-0.051967092
-0.051507061
-0.050868992
-0.05004562
-0.04903048
-0.047818116
-0.046404107
-0.044785284
-0.042959699
-0.040926852
-0.038687575
-0.036244296
-0.033600791
-0.030762523
-0.027736225
-0.024530329
-0.021154367
-0.017619529
-0.013937839
-0.010122638
-0.0061886711
-0.0021507242
0.0019764919
0.0061762385
0.010433145
0.014729733
0.019051182
0.023381735
0.027707895
0.032015847
0.036294382
0.040531739
0.044719026
0.048847679
0.052912935
0.05691129
0.060840516
0.064700053
0.068491737
0.072220232
0.075891137
0.079514497
0.083100311
0.086666191
0.090226422
0.093809959
0.097434339
0.10114621
0.10496132
0.10895484
0.11312472
0.11759353
0.12230023
0.12745029
0.13283316
0.13880582
0.14484107
0.15155935
0.15789353
0.16478836
0.17062374
0.17616963
0.18041667
0.18173535
-0.0030880331
0.0002553997
-0.0025072541
-0.0014374266
-0.0028789213
-0.0027464453
-0.0036820596
-0.0039660813
-0.0047236328
-0.0052144196
-0.0059277609
-0.0065392084
-0.0072659502
-0.0079629077
-0.0087289934
-0.0094982755
-0.010315703
-0.011149734
-0.012019711
-0.012910602
-0.013832481
-0.014778129
-0.015751762
-0.016748962
-0.017771871
-0.018818529
-0.019889886
-0.020984832
-0.022103782
-0.023245934
-0.02441111
-0.025598406
-0.026806974
-0.028035463
-0.029282345
-0.030545622
-0.03182301
-0.033111752
-0.034408727
-0.035710322
-0.037012535
-0.038310819
-0.039600254
-0.040875351
-0.042130221
-0.04335844
-0.044553149
-0.04570699
-0.046812153
-0.047860365
-0.048842921
-0.049750691
-0.050574169
-0.051303504
-0.051928556
-0.052438976
-0.052824274
-0.053073935
-0.05317751
-0.053124768
-0.052905792
-0.05251117
-0.051932081
-0.051160509
-0.050189304
-0.049012412
-0.047624891
-0.046023153
-0.044204905
-0.042169429
-0.039917396
-0.037451224
-0.034774719
-0.031893552
-0.028814665
-0.025546933
-0.022100335
-0.018486572
-0.014718558
-0.01081068
-0.0067765835
-0.0026332513
0.001602179
0.0059115847
0.010279003
0.014688108
0.019121883
0.023563359
0.027997818
0.03240957
0.03678623
0.041116772
0.045392862
0.049605584
0.053749919
0.057819061
0.061812136
0.065729512
0.069573573
0.073348159
0.077059852
0.080718764
0.084335267
0.087926639
0.091507635
0.095105339
0.098737654
0.10244627
0.10624724
0.11020462
0.11431823
0.11868769
0.12326209
0.12820118
0.13333218
0.13892054
0.14455021
0.15065619
0.1564403
0.16249578
0.16771213
0.17237
0.17602817
0.17698621
-0.003333324
0.00034923895
-0.0025945734
-0.0013786944
-0.0028776292
-0.002676335
-0.0036193466
-0.0038628702
-0.0046069989
-0.0050679202
-0.0057611695
-0.0063476595
-0.0070525417
-0.0077266664
-0.0084693702
-0.009212995
-0.010003076
-0.010809077
-0.011651903
-0.012517329
-0.013414215
-0.014335207
-0.015284776
-0.016259476
-0.017261387
-0.018288674
-0.019342446
-0.020421849
-0.021527386
-0.022658519
-0.023815201
-0.024996789
-0.026202639
-0.027431676
-0.028682625
-0.029953778
-0.031243125
-0.032548192
-0.033866126
-0.035193568
-0.036526739
-0.037861285
-0.039192423
-0.040514753
-0.041822399
-0.043108878
-0.044367184
-0.045589722
-0.046768347
-0.047894355
-0.048958509
-0.049951062
-0.050861795
-0.051680072
-0.052394899
-0.052995021
-0.053468999
-0.05380535
-0.053992645
-0.054019685
-0.053875604
-0.053550083
-0.053033439
-0.052316867
-0.051392485
-0.050253608
-0.048894726
-0.047311807
-0.045502173
-0.043464865
-0.041200368
-0.038711072
-0.036000803
-0.033075425
-0.029942121
-0.026610178
-0.02308991
-0.019393999
-0.015535386
-0.011528608
-0.0073922648
-0.0031423152
0.0012061563
0.0056334174
0.010120543
0.014647951
0.019199806
0.023757811
0.028307034
0.032831672
0.037318858
0.041753722
0.046127046
0.05042784
0.054652066
0.058798344
0.062863788
0.066846557
0.070749292
0.074577648
0.07833779
0.082039385
0.085693499
0.089316087
0.092921742
0.096534959
0.10017251
0.10387046
0.10764317
0.11154344
0.11557055
0.11980289
0.12419597
0.12886988
0.13368078
0.13881869
0.14395363
0.14937768
0.15449694
0.15966245
0.16413603
0.16793581
0.17098118
0.17177784
-0.003485009
0.00042786606
-0.0026412903
-0.0013135028
-0.0028518406
-0.0025928629
-0.0035384626
-0.003746798
-0.0044781142
-0.0049114229
-0.0055839063
-0.0061436343
-0.0068231408
-0.0074694358
-0.0081848975
-0.0089019472
-0.0096660432
-0.010446552
-0.011263503
-0.012102916
-0.012974215
-0.013870907
-0.014797309
-0.015750178
-0.016731683
-0.017740435
-0.018777586
-0.019842556
-0.020935973
-0.022057529
-0.023207367
-0.024385097
-0.025590315
-0.026822228
-0.028079833
-0.02936172
-0.03066616
-0.031990969
-0.033333559
-0.034690826
-0.036059204
-0.037434521
-0.03881212
-0.04018667
-0.041552289
-0.042902411
-0.044229858
-0.045526769
-0.046784634
-0.047994288
-0.04914593
-0.050229155
-0.051232995
-0.05214599
-0.052956247
-0.05365156
-0.054219494
-0.054647549
-0.054923264
-0.055034423
-0.054969158
-0.054716199
-0.054264952
-0.053605781
-0.052730034
-0.051630367
-0.050300672
-0.048736458
-0.046934645
-0.044894035
-0.042614913
-0.040099671
-0.037352124
-0.034378419
-0.031185871
-0.02778436
-0.024184728
-0.020399683
-0.016444405
-0.012335963
-0.0080862424
-0.0037191735
0.00074786154
0.005295303
0.0099056174
0.014557502
0.019233031
0.023912072
0.028578667
0.03321496
0.037808393
0.04234515
0.046815401
0.051210651
0.055521565
0.059739895
0.063866608
0.067904596
0.071857215
0.075726301
0.079519965
0.083248501
0.086922203
0.090557055
0.094167539
0.097776275
0.10139987
0.1050701
0.10880087
0.11263647
0.11657696
0.12068455
0.12492186
0.12937882
0.13393778
0.13873243
0.14350397
0.14844047
0.15310255
0.15767044
0.16165794
0.16490229
0.16753061
0.16813942
-0.0035574792
0.00048311374
-0.0026583158
-0.0012528834
-0.0028132168
-0.0025070428
-0.0034485732
-0.0036233784
-0.0043382034
-0.0047435462
-0.0053944741
-0.0059285387
-0.0065843901
-0.0072055163
-0.0078956695
-0.0085862117
-0.0093231677
-0.010076272
-0.010866163
-0.011679284
-0.012524821
-0.013396515
-0.014298793
-0.015228921
-0.016189155
-0.017178378
-0.018197907
-0.01924743
-0.020327748
-0.021438822
-0.022581003
-0.023754179
-0.024958199
-0.026192566
-0.027456562
-0.028749081
-0.030068688
-0.031413496
-0.032781196
-0.034168939
-0.035573385
-0.036990552
-0.038415911
-0.039844209
-0.041269563
-0.042685332
-0.044084166
-0.045457946
-0.046797799
-0.048094096
-0.049336469
-0.050513848
-0.051614507
-0.052626142
-0.053535937
-0.054330707
-0.054996985
-0.055521211
-0.055889845
-0.056089601
-0.056107552
-0.055931417
-0.055549628
-0.054951662
-0.054128032
-0.053070679
-0.05177284
-0.050229515
-0.04843717
-0.046394333
-0.044101051
-0.041559681
-0.038774054
-0.035750494
-0.032496675
-0.029022851
-0.025339993
-0.021463505
-0.017405651
-0.013186327
-0.0088236563
-0.0043349114
0.00026007912
0.0049391629
0.0096824065
0.014466856
0.019274132
0.024082327
0.028874949
0.033632558
0.03834157
0.042985737
0.047555645
0.052040092
0.056435644
0.060736892
0.064940043
0.069040071
0.07304249
0.076956711
0.080788355
0.084545616
0.088241109
0.091888678
0.095502596
0.099103484
0.10270642
0.10633901
0.11001337
0.11376566
0.11759531
0.12155005
0.12559724
0.12980151
0.13406551
0.13847854
0.14283743
0.1472547
0.15140921
0.15537239
0.15884185
0.16157652
0.16382274
0.16435961
-0.003558894
0.00052222131
-0.0026415734
-0.0011896479
-0.0027547318
-0.0024125762
-0.0033447079
-0.0034906041
-0.0041878917
-0.0045669155
-0.0051953919
-0.0057030948
-0.0063334857
-0.0069275565
-0.0075909362
-0.0082546421
-0.0089649849
-0.009691681
-0.010455216
-0.01124228
-0.012062292
-0.012909445
-0.013788247
-0.014696247
-0.015635849
-0.016606259
-0.01760895
-0.018643884
-0.019712053
-0.020813685
-0.021949365
-0.023119263
-0.024323503
-0.025561893
-0.026834011
-0.028139071
-0.029475941
-0.030843041
-0.032238344
-0.03365927
-0.035102707
-0.036564865
-0.038041353
-0.039526991
-0.041015901
-0.042501362
-0.043975856
-0.045430994
-0.046857535
-0.048245375
-0.049583564
-0.050860348
-0.052063212
-0.053178977
-0.054193867
-0.055093669
-0.055863832
-0.05648968
-0.056956527
-0.057249954
-0.057355904
-0.057261021
-0.056952692
-0.056419447
-0.055650903
-0.054638239
-0.053373983
-0.051852601
-0.050070064
-0.048024619
-0.045716032
-0.043146673
-0.040320255
-0.037243545
-0.033923999
-0.030372959
-0.026602018
-0.022626324
-0.018462408
-0.01412719
-0.0096385184
-0.0050195907
-0.00029004267
0.004526024
0.0094085141
0.014332223
0.019277638
0.02422051
0.029143621
0.034025427
0.038852324
0.043607021
0.048279784
0.052858565
0.057337396
0.06170913
0.065975138
0.070135939
0.074190572
0.078140123
0.08199679
0.085773262
0.089477591
0.093125068
0.096729753
0.1003101
0.10388146
0.10746757
0.11108022
0.11474923
0.11847449
0.1222928
0.12617656
0.1301715
0.13419798
0.13831258
0.14235645
0.14638764
0.15017148
0.15370331
0.1568017
0.15917368
0.16112802
0.16155637
-0.0035076886
0.00054375233
-0.0026012134
-0.0011299786
-0.0026844127
-0.0023158602
-0.0032325014
-0.0033521574
-0.0040291774
-0.004382536
-0.0049878942
-0.0054700786
-0.0060756876
-0.0066438584
-0.0072811657
-0.0079181326
-0.0086014545
-0.0093010513
-0.010037704
-0.010798402
-0.011592603
-0.012414779
-0.013269565
-0.014154864
-0.015073231
-0.016024161
-0.017009321
-0.018028951
-0.019084266
-0.020175777
-0.021304323
-0.022470377
-0.023674351
-0.024916373
-0.026196336
-0.027513784
-0.028867908
-0.030257447
-0.031680676
-0.033135299
-0.034618455
-0.036126561
-0.037655383
-0.03919984
-0.040754072
-0.042311299
-0.04386385
-0.045403086
-0.046919404
-0.048402232
-0.049840039
-0.051220378
-0.052529933
-0.053754625
-0.054879682
-0.055889824
-0.056769359
-0.057502437
-0.058073155
-0.05846589
-0.05866537
-0.058657088
-0.058427299
-0.057963512
-0.057254363
-0.056290201
-0.055062771
-0.053565952
-0.05179515
-0.049748293
-0.047424823
-0.04482705
-0.041958703
-0.038826563
-0.03543901
-0.031806858
-0.027943886
-0.023865752
-0.019586601
-0.015127936
-0.01050846
-0.0057514707
-0.0008779519
0.0040855343
0.0091175243
0.014190261
0.019283526
0.024370462
0.02943336
0.034448211
0.039401028
0.044272236
0.049052558
0.053728271
0.05829537
0.062746088
0.067080117
0.071294815
0.075397519
0.07939178
0.083280037
0.087071627
0.090784475
0.094429554
0.098020394
0.10157517
0.10510673
0.10863658
0.11217469
0.11574544
0.11934827
0.12301058
0.12670844
0.13047232
0.13423665
0.13803358
0.14173935
0.14537514
0.14877298
0.15188479
0.15461682
0.15666775
0.15837185
0.1587601
-0.0034153162
0.00055386002
-0.002537293
-0.0010687947
-0.0025988722
-0.0022127381
-0.0031089604
-0.0032059643
-0.0038611029
-0.0041900113
-0.0047713046
-0.0052277653
-0.0058075546
-0.0063490871
-0.0069596482
-0.0075697304
-0.0082261948
-0.0088990886
-0.00960921
-0.010343796
-0.011112451
-0.011909967
-0.01274112
-0.013604094
-0.014501624
-0.015433491
-0.016401565
-0.017406367
-0.018449347
-0.019531304
-0.02065335
-0.021816265
-0.02302077
-0.024267326
-0.025556159
-0.026887158
-0.028259853
-0.029673321
-0.03112616
-0.032616375
-0.034141371
-0.035697799
-0.037281596
-0.038887798
-0.040510583
-0.042143128
-0.043777619
-0.045405175
-0.047015838
-0.048598564
-0.05014123
-0.051630678
-0.053052764
-0.054392469
-0.055633979
-0.056760887
-0.057756293
-0.058603095
-0.059284092
-0.059782368
-0.060081348
-0.060165284
-0.060019212
-0.059629541
-0.058983843
-0.058071587
-0.056883659
-0.055413326
-0.053655367
-0.051607402
-0.049268468
-0.046640946
-0.043728229
-0.040538054
-0.037077094
-0.033360964
-0.029399986
-0.025211047
-0.020810867
-0.016220942
-0.011460724
-0.0065567445
-0.0015304581
0.0035887386
0.008778852
0.014008991
0.019258252
0.024496547
0.029705822
0.034859126
0.039942626
0.044934453
0.049825597
0.054600522
0.059255228
0.063780872
0.068179094
0.07244782
0.076591698
0.080613787
0.084527215
0.088334622
0.092046111
0.095679052
0.099248823
0.10276905
0.10625519
0.10972442
0.11318719
0.11666322
0.12015245
0.12367528
0.12721143
0.1307802
0.13432785
0.13786885
0.14130653
0.14463598
0.14773673
0.15053151
0.15298243
0.1547866
0.15628442
0.15660516
-0.0032966124
0.00055355575
-0.0024578959
-0.0010093025
-0.0025037292
-0.0021069457
-0.0029778675
-0.0030545829
-0.0036856755
-0.0039909035
-0.0045474256
-0.0049786896
-0.005532741
-0.0060481021
-0.0066320526
-0.0072152389
-0.0078445788
-0.0084903994
-0.0091736178
-0.009881755
-0.010624509
-0.011396944
-0.012203985
-0.013044106
-0.013920228
-0.014832411
-0.015782748
-0.016772043
-0.017802002
-0.018873725
-0.019988616
-0.02114778
-0.022352264
-0.023602881
-0.024900209
-0.026244503
-0.027635654
-0.029073106
-0.030555798
-0.03208207
-0.033649622
-0.035255366
-0.036895445
-0.03856504
-0.0402584
-0.041968685
-0.043687966
-0.04540714
-0.047115909
-0.048802766
-0.050454992
-0.05205871
-0.053598921
-0.055059636
-0.056423946
-0.057674259
-0.058792393
-0.059759914
-0.060558228
-0.061169033
-0.061574341
-0.061757069
-0.061700921
-0.06139112
-0.060814071
-0.059958287
-0.058813707
-0.057372931
-0.055630033
-0.053582276
-0.051228258
-0.048570258
-0.045611727
-0.042359698
-0.038824921
-0.035019334
-0.030954388
-0.0266492
-0.022119711
-0.017390314
-0.012480835
-0.0074200583
-0.002230205
0.0030560288
0.008415888
0.013814748
0.019231313
0.024631629
0.029997612
0.035298678
0.04052133
0.045640644
0.050648524
0.055527225
0.060274189
0.06487911
0.069344257
0.07366634
0.077852694
0.081906344
0.085835982
0.089652512
0.09336669
0.096985888
0.1005265
0.1040081
0.10743993
0.11084016
0.11421698
0.11758695
0.12094991
0.12432041
0.1276812
0.13104294
0.13436161
0.13763935
0.14080134
0.14382672
0.14663195
0.14912672
0.151313
0.15290338
0.15422965
0.15452412
-0.0031602023
0.00054758067
-0.0023642396
-0.00094791033
-0.0023974014
-0.0019956065
-0.0028373098
-0.0028961221
-0.0035015468
-0.0037838819
-0.0043147229
-0.0047207177
-0.0052483036
-0.0057371318
-0.0062940238
-0.0068501655
-0.0074523198
-0.0080711424
-0.0087275273
-0.0094092798
-0.010126196
-0.010873623
-0.011656636
-0.012473978
-0.013328762
-0.014221327
-0.015153992
-0.016127851
-0.017144875
-0.018206472
-0.019314353
-0.020469961
-0.021674689
-0.022929715
-0.024235993
-0.025594166
-0.027004513
-0.028466865
-0.029980538
-0.031544229
-0.033155969
-0.034812961
-0.036511588
-0.038247207
-0.040014167
-0.041805639
-0.043613604
-0.045428754
-0.047240462
-0.049036759
-0.050804325
-0.052528542
-0.054193522
-0.05578226
-0.057276691
-0.058657967
-0.059906534
-0.061002533
-0.061925867
-0.062656742
-0.063175641
-0.063464042
-0.063504199
-0.063280064
-0.062776769
-0.061981816
-0.060884106
-0.05947555
-0.057749434
-0.055702716
-0.053333405
-0.050643947
-0.047637206
-0.044321698
-0.040708285
-0.036807348