/*--------------------------------*- C++ -*----------------------------------*\
| =========                 |                                                 |
| \\      /  F ield         | foam-extend: Open Source CFD                    |
|  \\    /   O peration     | Version:     4.1                                |
|   \\  /    A nd           | Web:         http://www.foam-extend.org         |
|    \\/     M anipulation  |                                                 |
\*---------------------------------------------------------------------------*/
FoamFile
{
    version     2.0;
    format      ascii;
    class       surfaceScalarField;
    location    "2.6";
    object      phi;
}
// * * * * * * * * * * * * * * * * * * * * * * * * * * * * * * * * * * * * * //

dimensions      [0 3 -1 0 0 0 0];

internalField   nonuniform List<scalar> 
31929
(
-2.9272287e-05
-6.2730148e-08
-2.9187493e-05
-8.4794868e-08
-2.9133436e-05
-5.4056649e-08
-2.9052625e-05
-8.0810893e-08
-2.8979387e-05
-7.3238157e-08
-2.8891253e-05
-8.8133503e-08
-2.8801175e-05
-9.0078699e-08
-2.8703084e-05
-9.8090933e-08
-2.860059e-05
-1.0249368e-07
-2.8493504e-05
-1.0708561e-07
-2.8382516e-05
-1.1098842e-07
-2.8269132e-05
-1.1338374e-07
-2.8153532e-05
-1.1560016e-07
-2.8037549e-05
-1.1598301e-07
-2.7921635e-05
-1.1591438e-07
-2.7807671e-05
-1.1396387e-07
-2.7696436e-05
-1.1123454e-07
-2.7589613e-05
-1.0682318e-07
-2.7488238e-05
-1.0137531e-07
-2.7393729e-05
-9.4508532e-08
-2.7307265e-05
-8.6464158e-08
-2.7230566e-05
-7.6699216e-08
-2.7164689e-05
-6.5876594e-08
-2.7110391e-05
-5.4298463e-08
-2.7068714e-05
-4.1677036e-08
-2.7041973e-05
-2.6740555e-08
-2.7032227e-05
-9.7460863e-09
-2.7041409e-05
9.1819225e-09
-2.7069541e-05
2.8131599e-08
-2.7115413e-05
4.5872474e-08
-2.7179085e-05
6.3671866e-08
-2.7261082e-05
8.1997306e-08
-2.7362201e-05
1.0111873e-07
-2.7483342e-05
1.2114139e-07
-2.7625436e-05
1.4209348e-07
-2.7789436e-05
1.6399987e-07
-2.7976297e-05
1.8686099e-07
-2.8186972e-05
2.1067556e-07
-2.8422395e-05
2.354226e-07
-2.8683459e-05
2.610643e-07
-2.8971002e-05
2.8754296e-07
-2.9285774e-05
3.1477175e-07
-2.962842e-05
3.426461e-07
-2.9999449e-05
3.7102918e-07
-3.0399212e-05
3.9976313e-07
-3.0827878e-05
4.286658e-07
-3.1285413e-05
4.5753511e-07
-3.1771566e-05
4.8615263e-07
-3.2285851e-05
5.1428563e-07
-3.2827546e-05
5.4169447e-07
-3.339568e-05
5.681346e-07
-3.3989042e-05
5.9336194e-07
-3.4606179e-05
6.1713677e-07
-3.5245407e-05
6.392279e-07
-3.590482e-05
6.5941351e-07
-3.6582308e-05
6.7748728e-07
-3.7275566e-05
6.9325828e-07
-3.798212e-05
7.0655381e-07
-3.8699341e-05
7.1722148e-07
-3.9424473e-05
7.2513155e-07
-4.0154649e-05
7.3017632e-07
-4.0886925e-05
7.3227588e-07
-4.1618302e-05
7.3137759e-07
-4.2345762e-05
7.2745932e-07
-4.3066293e-05
7.2053108e-07
-4.377693e-05
7.1063763e-07
-4.4474791e-05
6.9786055e-07
-4.5157108e-05
6.8231719e-07
-4.5821273e-05
6.6416496e-07
-4.6464872e-05
6.435994e-07
-4.7085727e-05
6.2085403e-07
-4.7681926e-05
5.9619989e-07
-4.825187e-05
5.6994336e-07
-4.8794292e-05
5.4242246e-07
-4.9308298e-05
5.1400541e-07
-4.9793384e-05
4.8508626e-07
-5.0249463e-05
4.5607947e-07
-5.067688e-05
4.2741718e-07
-5.1076423e-05
3.9954256e-07
-5.1449328e-05
3.7290485e-07
-5.1797283e-05
3.4795503e-07
-5.2122424e-05
3.2514079e-07
-5.2427323e-05
3.0489918e-07
-5.2714981e-05
2.8765768e-07
-5.2988803e-05
2.7382243e-07
-5.325259e-05
2.637873e-07
-5.3510511e-05
2.5792071e-07
-5.3767089e-05
2.5657824e-07
-5.402718e-05
2.6009062e-07
-5.4295964e-05
2.6878382e-07
-5.4578929e-05
2.8296564e-07
-5.4881886e-05
3.0295648e-07
-5.5210958e-05
3.2907272e-07
-5.5572634e-05
3.6167579e-07
-5.5973776e-05
4.011417e-07
-5.6421727e-05
4.4795067e-07
-5.6924358e-05
5.0263113e-07
-5.7490287e-05
5.6592929e-07
-5.8128989e-05
6.3870212e-07
-5.8851254e-05
7.2226505e-07
-5.9669432e-05
8.1817774e-07
-6.0598408e-05
9.2897621e-07
-6.1656127e-05
1.0577185e-06
-6.286566e-05
1.2095334e-06
-6.4256229e-05
1.3905689e-06
-6.5867431e-05
1.6112017e-06
-6.7750877e-05
1.8834462e-06
-6.9978275e-05
2.2273982e-06
-7.2642903e-05
2.6646282e-06
-7.5873773e-05
3.2308697e-06
-7.9833105e-05
3.959332e-06
-8.4739014e-05
4.9059086e-06
-9.0847944e-05
6.1089304e-06
-9.8489929e-05
7.6419854e-06
-0.00010801181
9.5218792e-06
-0.00011984062
1.1828807e-05
-0.00013433983
1.4499215e-05
-0.00015196233
1.76225e-05
-0.0001728931
2.093077e-05
-0.00019753055
2.4637452e-05
-0.00022530653
2.7775977e-05
-0.00025684289
3.1536364e-05
-0.00028730118
3.0458285e-05
3.5279421e-05
-8.7414404e-05
-1.4557733e-07
-8.7271499e-05
-2.2770047e-07
-8.7143055e-05
-1.8250019e-07
-8.6981262e-05
-2.4260373e-07
-8.6816988e-05
-2.3751255e-07
-8.6632626e-05
-2.7249587e-07
-8.6439805e-05
-2.8289904e-07
-8.623408e-05
-3.0381567e-07
-8.601981e-05
-3.1676373e-07
-8.5797474e-05
-3.2942207e-07
-8.5569293e-05
-3.3916902e-07
-8.5337463e-05
-3.4521367e-07
-8.510392e-05
-3.4914408e-07
-8.4871478e-05
-3.4842463e-07
-8.4642355e-05
-3.4503679e-07
-8.441962e-05
-3.3669932e-07
-8.4205839e-05
-3.250159e-07
-8.4004395e-05
-3.0826711e-07
-8.3818759e-05
-2.8701101e-07
-8.3652704e-05
-2.605638e-07
-8.3509287e-05
-2.2988062e-07
-8.3391307e-05
-1.94679e-07
-8.3302636e-05
-1.5454811e-07
-8.3249945e-05
-1.0698931e-07
-8.3238623e-05
-5.2999063e-08
-8.3273597e-05
8.2335019e-09
-8.3354883e-05
7.1539964e-08
-8.3477917e-05
1.3221632e-07
-8.3642809e-05
1.930234e-07
-8.385168e-05
2.5474297e-07
-8.4106169e-05
3.1816073e-07
-8.4407993e-05
3.8382175e-07
-8.4758832e-05
4.5195812e-07
-8.5160411e-05
5.2272038e-07
-8.5614451e-05
5.9613325e-07
-8.6122657e-05
6.7220547e-07
-8.6686694e-05
7.5089866e-07
-8.7308161e-05
8.3214202e-07
-8.7988565e-05
9.1582699e-07
-8.8729279e-05
1.0017783e-06
-8.9531514e-05
1.0897783e-06
-9.0396256e-05
1.1795131e-06
-9.132423e-05
1.2706205e-06
-9.2315842e-05
1.3626409e-06
-9.3371125e-05
1.4550466e-06
-9.4489694e-05
1.5472344e-06
-9.5670694e-05
1.6385351e-06
-9.6912767e-05
1.7282263e-06
-9.821402e-05
1.8155378e-06
-9.9572e-05
1.8996751e-06
-0.00010098369
1.9798292e-06
-0.00010244553
2.0551953e-06
-0.00010395338
2.1249886e-06
-0.00010550261
2.1884628e-06
-0.00010708812
2.2449168e-06
-0.00010870435
2.2937166e-06
-0.00011034539
2.3343016e-06
-0.00011200503
2.3661953e-06
-0.00011367682
2.3890124e-06
-0.00011535416
2.4024701e-06
-0.00011703037
2.4063828e-06
-0.00011869877
2.4006781e-06
-0.00012035279
2.3853931e-06
-0.00012198601
2.3606787e-06
-0.00012359227
2.3268004e-06
-0.00012516578
2.2841389e-06
-0.00012670111
2.2331926e-06
-0.00012819336
2.1745672e-06
-0.00012963818
2.1089824e-06
-0.00013103184
2.0372624e-06
-0.00013237131
1.9603301e-06
-0.00013365432
1.879201e-06
-0.00013487935
1.794976e-06
-0.00013604575
1.7088258e-06
-0.00013715373
1.6219859e-06
-0.00013820439
1.5357429e-06
-0.00013919973
1.4514193e-06
-0.00014014267
1.3703639e-06
-0.00014103707
1.2939369e-06
-0.00014188766
1.2234937e-06
-0.00014270008
1.1603772e-06
-0.00014348084
1.1059039e-06
-0.00014423729
1.0613497e-06
-0.00014497759
1.0279528e-06
-0.00014571066
1.0068896e-06
-0.00014644616
9.9929538e-07
-0.00014719448
1.0062411e-06
-0.00014796667
1.0287629e-06
-0.00014877443
1.0678475e-06
-0.00014963012
1.1244763e-06
-0.00015054677
1.1996152e-06
-0.00015153809
1.2942767e-06
-0.00015261853
1.4095131e-06
-0.00015380336
1.5465113e-06
-0.00015510879
1.7065722e-06
-0.00015655211
1.8912689e-06
-0.00015815188
2.1023977e-06
-0.0001599282
2.3422452e-06
-0.00016190296
2.6134695e-06
-0.00016410029
2.9195939e-06
-0.00016654685
3.2647371e-06
-0.00016927243
3.6545566e-06
-0.00017231032
4.0956092e-06
-0.00017569802
4.5972318e-06
-0.00017947743
5.1699774e-06
-0.00018369558
5.8293529e-06
-0.00018840417
6.5920318e-06
-0.00019365995
7.4831838e-06
-0.0001995226
8.5272744e-06
-0.00020605423
9.762503e-06
-0.00021331368
1.1218786e-05
-0.00022135467
1.2946898e-05
-0.00023021328
1.4967533e-05
-0.00023990509
1.7333796e-05
-0.00025039966
2.0016451e-05
-0.00026162084
2.3049991e-05
-0.00027339196
2.6270335e-05
-0.00028545852
2.9689062e-05
-0.00029735329
3.2825535e-05
-0.00030851896
3.5803119e-05
-0.00031795969
3.7216711e-05
-0.00032462044
3.8197115e-05
-0.00032738009
3.3217931e-05
3.0479935e-05
-0.0001418493
-2.2677585e-07
-0.00014168772
-3.8928671e-07
-0.0001415309
-3.3931777e-07
-0.00014134118
-4.3232049e-07
-0.00014114466
-4.3403809e-07
-0.00014092969
-4.8746456e-07
-0.00014070625
-5.0633667e-07
-0.00014047183
-5.3823609e-07
-0.00014023136
-5.5723828e-07
-0.00013998576
-5.7501484e-07
-0.00013973851
-5.8642028e-07
-0.000139492
-5.9172512e-07
-0.00013924951
-5.9163569e-07
-0.00013901429
-5.8364561e-07
-0.00013879015
-5.691699e-07
-0.0001385813
-5.4555501e-07
-0.00013839196
-5.1435834e-07
-0.00013822642
-4.7380255e-07
-0.00013808882
-4.2461054e-07
-0.00013798341
-3.6597422e-07
-0.00013791632
-2.9697187e-07
-0.00013789561
-2.153881e-07
-0.00013792739
-1.2276424e-07
-0.00013801683
-1.7552289e-08
-0.00013816473
9.4895468e-08
-0.00013836402
2.0752761e-07
-0.00013861377
3.2129122e-07
-0.00013891909
4.3753036e-07
-0.00013928311
5.5704353e-07
-0.00013970891
6.8054794e-07
-0.00014019879
8.0803545e-07
-0.00014075479
9.3982473e-07
-0.00014137884
1.0760104e-06
-0.00014207278
1.216662e-06
-0.00014283839
1.3617367e-06
-0.00014367732
1.5111373e-06
-0.00014459114
1.6647179e-06
-0.00014558124
1.822245e-06
-0.00014664885
1.9834397e-06
-0.00014779496
2.1478835e-06
-0.00014902028
2.3151007e-06
-0.0001503252
2.4844303e-06
-0.00015170971
2.6551349e-06
-0.00015317337
2.8263018e-06
-0.00015471522
2.9968979e-06
-0.00015633375
3.1657588e-06
-0.00015802682
3.3316048e-06
-0.00015979166
3.4930676e-06
-0.00016162482
3.6487004e-06
-0.00016352217
3.7970224e-06
-0.00016547888
3.9365416e-06
-0.00016748948
4.06579e-06
-0.00016954784
4.1833552e-06
-0.0001716473
4.2879194e-06
-0.00017378065
4.3782717e-06
-0.00017594029
4.4533523e-06
-0.00017811825
4.5122639e-06
-0.00018030635
4.5542929e-06
-0.00018249626
4.5789211e-06
-0.00018467963
4.5858447e-06
-0.00018684821
4.5749623e-06
-0.00018899393
4.546398e-06
-0.00019110903
4.5004915e-06
-0.00019318615
4.4377996e-06
-0.00019521844
4.3590909e-06
-0.00019719964
4.2653403e-06
-0.00019912418
4.1577278e-06
-0.00020098722
4.037613e-06
-0.00020278478
3.906541e-06
-0.00020451374
3.7662208e-06
-0.00020617192
3.6185109e-06
-0.00020775812
3.4654041e-06
-0.00020927216
3.3090127e-06
-0.00021071487
3.1515389e-06
-0.00021208815
2.9952646e-06
-0.00021339494
2.8425268e-06
-0.00021463921
2.6956915e-06
-0.00021582598
2.5571365e-06
-0.00021696127
2.4292274e-06
-0.00021805207
2.3142899e-06
-0.00021910629
2.2145975e-06
-0.00022013273
2.1323498e-06
-0.00022114103
2.0696472e-06
-0.00022214157
2.0284936e-06
-0.00022314544
2.0107608e-06
-0.00022416437
2.018218e-06
-0.00022521062
2.0524976e-06
-0.00022629699
2.1151337e-06
-0.00022743669
2.2075399e-06
-0.00022864328
2.3310675e-06
-0.00022993066
2.4869929e-06
-0.00023131297
2.6765934e-06
-0.0002328046
2.9011426e-06
-0.00023442011
3.1620214e-06
-0.00023617423
3.4606926e-06
-0.00023808184
3.7988768e-06
-0.00024015794
4.1784955e-06
-0.00024241764
4.6019511e-06
-0.00024487617
5.0719927e-06
-0.00024754877
5.5921996e-06
-0.00025045073
6.1666905e-06
-0.00025359717
6.8010029e-06
-0.00025700297
7.5014111e-06
-0.00026068239
8.2766432e-06
-0.00026464863
9.1362218e-06
-0.00026891309
1.0093818e-05
-0.00027348439
1.1163324e-05
-0.00027836655
1.2365352e-05
-0.0002835572
1.3717915e-05
-0.00028904396
1.524927e-05
-0.00029480131
1.697613e-05
-0.00030078445
1.8930037e-05
-0.00030692481
2.1107898e-05
-0.00031312123
2.3530213e-05
-0.00031923499
2.613021e-05
-0.00032508
2.8895002e-05
-0.00033041799
3.1608331e-05
-0.00033495471
3.4225781e-05
-0.00033833142
3.6202246e-05
-0.00034014164
3.7613337e-05
-0.00033995224
3.7027311e-05
-0.00033719102
3.5435891e-05
-0.00033227645
2.8303367e-05
2.0784281e-05
-0.0001902762
-2.8278837e-07
-0.00019013924
-5.2624609e-07
-0.00019000449
-4.7406464e-07
-0.00018984278
-5.9402736e-07
-0.00018967647
-6.0035384e-07
-0.00018949845
-6.6548364e-07
-0.00018931742
-6.8736021e-07
-0.00018913251
-7.2314749e-07
-0.00018894882
-7.4093575e-07
-0.00018876796
-7.5587512e-07
-0.00018859417
-7.6020354e-07
-0.00018843032
-7.5557717e-07
-0.00018828052
-7.4143387e-07
-0.00018814838
-7.1579172e-07
-0.00018803807
-6.7947736e-07
-0.00018795354
-6.3008687e-07
-0.00018789909
-5.6880521e-07
-0.00018787972
-4.9317119e-07
-0.00018790195
-4.0238662e-07
-0.00018797245
-2.9546954e-07
-0.00018809593
-1.7349321e-07
-0.00018827664
-3.4672841e-08
-0.00018851478
1.1537336e-07
-0.00018880239
2.7005825e-07
-0.00018913737
4.2987516e-07
-0.00018952583
5.9599075e-07
-0.00018997352
7.6897913e-07
-0.00019048535
9.4935909e-07
-0.00019106447
1.1361622e-06
-0.00019171317
1.3292467e-06
-0.0001924336
1.5284702e-06
-0.00019322767
1.7338878e-06
-0.00019409708
1.9454257e-06
-0.0001950434
2.1629818e-06
-0.00019606804
2.3863791e-06
-0.00019717224
2.6153372e-06
-0.00019835706
2.8495373e-06
-0.00019962332
3.0885024e-06
-0.00020097159
3.3317111e-06
-0.00020240212
3.5784152e-06
-0.00020391483
3.8278051e-06
-0.00020550919
4.0787882e-06
-0.00020718423
4.3301785e-06
-0.00020893847
4.5805401e-06
-0.00021076984
4.8282733e-06
-0.00021267569
5.0716031e-06
-0.00021465269
5.3086034e-06
-0.00021669686
5.5372395e-06
-0.00021880354
5.755384e-06
-0.0002209674
5.960884e-06
-0.00022318246
6.1515964e-06
-0.00022544211
6.3254408e-06
-0.0002277392
6.4804446e-06
-0.00023006608
6.6148035e-06
-0.00023241471
6.7268967e-06
-0.00023477671
6.8153512e-06
-0.0002371435
6.8790588e-06
-0.00023950641
6.9172032e-06
-0.00024185676
6.9292747e-06
-0.00024418602
6.9150957e-06
-0.00024648585
6.8747973e-06
-0.0002487483
6.8088488e-06
-0.00025096585
6.7180377e-06
-0.00025313151
6.6034656e-06
-0.00025523896
6.4665351e-06
-0.00025728255
6.3089343e-06
-0.00025925746
6.1326308e-06
-0.00026115967
5.9398275e-06
-0.0002629861
5.7329668e-06
-0.00026473457
5.5146949e-06
-0.0002664039
5.2878375e-06
-0.00026799387
5.0553743e-06
-0.00026950527
4.8204172e-06
-0.0002709399
4.5861649e-06
-0.00027230052
4.3558877e-06
-0.00027359089
4.1328931e-06
-0.00027481568
3.9204878e-06
-0.0002759805
3.7219535e-06
-0.00027709179
3.5405142e-06
-0.00027815679
3.3792964e-06
-0.00027918351
3.2413117e-06
-0.00028018058
3.1294254e-06
-0.00028115726
3.0463232e-06
-0.00028212328
2.9945149e-06
-0.0002830888
2.9762794e-06
-0.00028406428
2.9937032e-06
-0.00028506041
3.0486275e-06
-0.00028608798
3.1426983e-06
-0.00028715777
3.2773313e-06
-0.00028828048
3.4537819e-06
-0.00028946662
3.6731238e-06
-0.00029072635
3.9363328e-06
-0.00029206949
4.2442748e-06
-0.00029350529
4.5978263e-06
-0.00029504244
4.9978397e-06
-0.00029668889
5.4453286e-06
-0.0002984518
5.9414045e-06
-0.00030033739
6.4875428e-06
-0.00030235084
7.0854442e-06
-0.00030449612
7.7374753e-06
-0.00030677582
8.4463917e-06
-0.00030919091
9.2160914e-06
-0.00031174047
1.0050976e-05
-0.00031442122
1.0957393e-05
-0.00031722707
1.1942071e-05
-0.00032014814
1.3014887e-05
-0.00032317002
1.4185207e-05
-0.00032627183
1.5467162e-05
-0.00032942499
1.687107e-05
-0.00033258967
1.8413955e-05
-0.00033571332
2.0099773e-05
-0.0003387249
2.1941622e-05
-0.00034153454
2.3917532e-05
-0.0003440259
2.6021577e-05
-0.00034606087
2.816518e-05
-0.00034747191
3.0306038e-05
-0.00034807989
3.2216312e-05
-0.00034768777
3.3833665e-05
-0.00034613421
3.4648684e-05
-0.00034326415
3.4743277e-05
-0.00033916058
3.2923742e-05
-0.00033378086
3.0056167e-05
-0.00032844836
2.2970871e-05
1.491652e-05
-0.00023148195
-2.8762043e-07
-0.00023141301
-5.9518952e-07
-0.00023134933
-5.377443e-07
-0.00023127007
-6.7328352e-07
-0.00023119282
-6.7760461e-07
-0.00023111408
-7.4423073e-07
-0.00023104103
-7.6041203e-07
-0.00023097417
-7.9000505e-07
-0.00023091822
-7.9687975e-07
-0.0002308751
-7.9900127e-07
-0.00023084878
-7.8652319e-07
-0.00023084189
-7.6246261e-07
-0.00023085819
-7.2513624e-07
-0.00023090078
-6.731983e-07
-0.00023097408
-6.0617637e-07
-0.00023108268
-5.2148623e-07
-0.00023123131
-4.2018175e-07
-0.00023142384
-3.0063552e-07
-0.00023166309
-1.6314037e-07
-0.00023195231
-6.2467574e-09
-0.00023228944
1.6363402e-07
-0.00023266662
3.4250253e-07
-0.00023308335
5.3210997e-07
-0.00023354592
7.3262522e-07
-0.00023406073
9.4468619e-07
-0.00023463354
1.1687959e-06
-0.00023526798
1.403419e-06
-0.00023596608
1.6474678e-06
-0.00023673018
1.9002593e-06
-0.00023756239
2.1614603e-06
-0.00023846457
2.4306411e-06
-0.0002394383
2.707625e-06
-0.00024048499
2.9921125e-06
-0.00024160579
3.2837824e-06
-0.00024280168
3.5822709e-06
-0.0002440734
3.8870541e-06
-0.00024542145
4.1975845e-06
-0.00024684602
4.513077e-06
-0.00024834702
4.8327095e-06
-0.00024992395
5.1553422e-06
-0.00025157592
5.4797794e-06
-0.00025330158
5.8044487e-06
-0.00025509908
6.1276821e-06
-0.00025696604
6.4474988e-06
-0.0002588995
6.761729e-06
-0.0002608959
7.0680013e-06
-0.00026295107
7.3637765e-06
-0.00026506024
7.6464069e-06
-0.00026721801
7.9131556e-06
-0.00026941841
8.1612861e-06
-0.00027165492
8.3881076e-06
-0.00027392052
8.5910416e-06
-0.00027620776
8.7676795e-06
-0.00027850881
8.9158595e-06
-0.0002808156
9.033682e-06
-0.00028311984
9.1195916e-06
-0.00028541318
9.1723952e-06
-0.00028768727
9.1912938e-06
-0.00028993389
9.1758977e-06
-0.00029214505
9.1262558e-06
-0.00029431307
9.0428198e-06
-0.0002964307
8.9264782e-06
-0.00029849119
8.7785261e-06
-0.00030048838
8.6006532e-06
-0.00030241677
8.3949232e-06
-0.00030427158
8.1637471e-06
-0.00030604882
7.9098716e-06
-0.00030774531
7.6363178e-06
-0.00030935872
7.3463809e-06
-0.00031088761
7.0435833e-06
-0.00031233141
6.7316384e-06
-0.00031369046
6.414417e-06
-0.00031496596
6.0959174e-06
-0.00031616
5.7802068e-06
-0.00031727551
5.4714006e-06
-0.00031831624
5.1736198e-06
-0.00031928669
4.890941e-06
-0.0003201921
4.6273679e-06
-0.00032103838
4.3867887e-06
-0.00032183201
4.1729269e-06
-0.00032258002
3.9893192e-06
-0.00032328987
3.8392797e-06
-0.0003239694
3.7258495e-06
-0.00032462668
3.6518012e-06
-0.00032526997
3.6195675e-06
-0.00032590756
3.6312957e-06
-0.00032654771
3.6887783e-06
-0.00032719852
3.793508e-06
-0.00032786782
3.9466296e-06
-0.00032856306
4.1490239e-06
-0.00032929121
4.4012729e-06
-0.00033005864
4.7037619e-06
-0.00033087103
5.0566641e-06
-0.00033173328
5.460072e-06
-0.00033264939
5.9139518e-06
-0.0003336224
6.4183407e-06
-0.00033465427
6.9732733e-06
-0.00033574578
7.5790479e-06
-0.00033689643
8.2360932e-06
-0.00033810431
8.9453593e-06
-0.00033936598
9.708065e-06
-0.00034067621
1.0526324e-05
-0.0003420278
1.1402565e-05
-0.0003434111
1.2340691e-05
-0.00034481369
1.3344658e-05
-0.00034621946
1.4420654e-05
-0.00034760807
1.5573822e-05
-0.00034895332
1.6812407e-05
-0.00035022244
1.8140191e-05
-0.00035137346
1.956498e-05
-0.00035235514
2.1081448e-05
-0.0003531033
2.2689782e-05
-0.00035354351
2.4357747e-05
-0.00035358723
2.6065291e-05
-0.00035314153
2.7719489e-05
-0.00035210543
2.926993e-05
-0.00035039463
3.050552e-05
-0.00034793114
3.1370172e-05
-0.0003447054
3.1422946e-05
-0.00034071009
3.0747964e-05
-0.00033617007
2.8383717e-05
-0.00033112535
2.5011454e-05
-0.00032664866
1.8494176e-05
1.0848462e-05
-0.00026514439
-2.151982e-07
-0.00026518295
-5.5662866e-07
-0.00026523003
-4.9066471e-07
-0.00026527582
-6.2749947e-07
-0.00026533121
-6.2221153e-07
-0.00026539571
-6.7973279e-07
-0.00026547424
-6.8188235e-07
-0.00026556788
-6.963602e-07
-0.00026568031
-6.8444974e-07
-0.00026581345
-6.6586805e-07
-0.00026597078
-6.2918772e-07
-0.00026615462
-5.78619e-07
-0.00026636824
-5.1152396e-07
-0.00026661409
-4.2734421e-07
-0.00026689471
-3.255605e-07
-0.00026721185
-2.0434365e-07
-0.00026756797
-6.4062592e-08
-0.0002679629
9.4293539e-08
-0.00026839236
2.6632582e-07
-0.00026885133
4.5271786e-07
-0.0002693419
6.5420205e-07
-0.00026987018
8.7078792e-07
-0.00027044113
1.1030595e-06
-0.00027106013
1.351627e-06
-0.0002717304
1.6149483e-06
-0.0002724533
1.8916989e-06
-0.00027323079
2.1809123e-06
-0.00027406516
2.4818318e-06
-0.00027495833
2.793438e-06
-0.00027591204
3.1151688e-06
-0.00027692778
3.4463756e-06
-0.0002780068
3.7866458e-06
-0.00027915014
4.1354593e-06
-0.0002803586
4.4922394e-06
-0.00028163273
4.8563981e-06
-0.00028297279
5.2271188e-06
-0.00028437879
5.6035778e-06
-0.00028585034
5.9846329e-06
-0.00028738675
6.369117e-06
-0.00028898687
6.7554598e-06
-0.00029064914
7.1420512e-06
-0.00029237151
7.5268224e-06
-0.00029415145
7.907623e-06
-0.0002959859
8.281944e-06
-0.00029787125
8.6470809e-06
-0.00029980337
9.0001203e-06
-0.00030177758
9.3379836e-06
-0.00030378867
9.6574997e-06
-0.00030583094
9.9554281e-06
-0.00030789822
1.0228566e-05
-0.00030998392
1.0473801e-05
-0.00031208106
1.0688188e-05
-0.0003141824
1.0869014e-05
-0.00031628043
1.1013891e-05
-0.00031836751
1.1120765e-05
-0.00032043593
1.1188013e-05
-0.000322478
1.1214461e-05
-0.00032448612
1.119942e-05
-0.00032645292
1.1142694e-05
-0.00032837128
1.1044619e-05
-0.00033023448
1.0906011e-05
-0.0003320362
1.0728203e-05
-0.00033377068
1.0513005e-05
-0.00033543272
1.026269e-05
-0.00033701775
9.9799551e-06
-0.0003385219
9.667896e-06
-0.00033994201
9.3299825e-06
-0.00034127567
8.9699844e-06
-0.00034252126
8.5919669e-06
-0.00034367791
8.2002326e-06
-0.00034474555
7.799276e-06
-0.00034572487
7.3937418e-06
-0.00034661734
6.9883874e-06
-0.00034742515
6.5880141e-06
-0.00034815119
6.1974406e-06
-0.00034879902
5.8214533e-06
-0.00034937283
5.464747e-06
-0.00034987735
5.1318923e-06
-0.00035031785
4.827283e-06
-0.0003507
4.5550829e-06
-0.00035102988
4.319195e-06
-0.00035131381
4.1232142e-06
-0.00035155834
3.9703795e-06
-0.00035177013
3.863585e-06
-0.00035195584
3.8052779e-06
-0.00035212208
3.7975353e-06
-0.00035227526
3.8419631e-06
-0.00035242153
3.939777e-06
-0.00035256664
4.0917376e-06
-0.00035271587
4.2982579e-06
-0.00035287395
4.5593527e-06
-0.00035304495
4.8747639e-06
-0.00035323222
5.2439263e-06
-0.00035343826
5.6661199e-06
-0.00035366472
6.14041e-06
-0.00035391226
6.6658785e-06
-0.00035418053
7.2415435e-06
-0.00035446809
7.866609e-06
-0.00035477234
8.5403368e-06
-0.00035508938
9.2624022e-06
-0.00035541398
1.0032669e-05
-0.00035573936
1.0851698e-05
-0.00035605703
1.1720241e-05
-0.00035635649
1.264015e-05
-0.00035662496
1.3613123e-05
-0.0003568467
1.4642402e-05
-0.00035700279
1.5729905e-05
-0.00035706985
1.687947e-05
-0.00035701999
1.8090331e-05
-0.00035681897
1.9363966e-05
-0.00035642701
2.068948e-05
-0.00035579651
2.2059284e-05
-0.00035487571
2.3436946e-05
-0.00035360637
2.4795953e-05
-0.00035193406
2.6047177e-05
-0.00034980473
2.7140599e-05
-0.00034718935
2.789014e-05
-0.0003440691
2.8249923e-05
-0.00034049969
2.7853544e-05
-0.00033653216
2.6780427e-05
-0.0003324387
2.4290254e-05
-0.00032832493
2.0897693e-05
-0.00032501711
1.5186356e-05
8.4119479e-06
-0.00029161124
-5.2101492e-08
-0.00029177561
-3.92251e-07
-0.00029195175
-3.1452492e-07
-0.00029214058
-4.3867387e-07
-0.000292345
-4.1778675e-07
-0.00029256721
-4.5752096e-07
-0.00029280956
-4.3953643e-07
-0.00029307358
-4.3233586e-07
-0.00029336144
-3.9659412e-07
-0.00029367408
-3.5322578e-07
-0.00029401334
-2.8992748e-07
-0.00029438037
-2.1159302e-07
-0.00029477682
-1.1507406e-07
-0.00029520372
-4.4760339e-10
-0.00029565983
1.305567e-07
-0.00029614163
2.7744991e-07
-0.00029664676
4.4106879e-07
-0.00029717487
6.2240418e-07
-0.00029772954
8.2099881e-07
-0.00029831427
1.0374459e-06
-0.00029893256
1.2724961e-06
-0.00029958847
1.5266945e-06
-0.00030028397
1.7985639e-06
-0.00030101976
2.0874095e-06
-0.00030179719
2.3923834e-06
-0.0003026183
2.7128031e-06
-0.00030348478
3.0473987e-06
-0.00030439815
3.3951978e-06
-0.0003053599
3.7551887e-06
-0.0003063714
4.12667e-06
-0.00030743383
4.5088017e-06
-0.00030854814
4.9009576e-06
-0.00030971506
5.3023803e-06
-0.00031093504
5.712216e-06
-0.00031220826
6.1296186e-06
-0.00031353458
6.5534436e-06
-0.00031491356
6.9825559e-06
-0.00031634435
7.4154265e-06
-0.00031782575
7.8505188e-06
-0.00031935611
8.2858187e-06
-0.00032093336
8.7192989e-06
-0.00032255495
9.1484072e-06
-0.00032421786
9.5705373e-06
-0.00032591861
9.9826967e-06
-0.00032765324
1.0381707e-05
-0.00032941731
1.0764189e-05
-0.00033120594
1.1126617e-05
-0.00033301384
1.14654e-05
-0.00033483532
1.1776908e-05
-0.00033666435
1.2057594e-05
-0.00033849459
1.2304048e-05
-0.00034031949
1.2513083e-05
-0.00034213228
1.2681805e-05
-0.0003439261
1.2807714e-05
-0.00034569404
1.2888707e-05
-0.00034742922
1.2923189e-05
-0.00034912485
1.2910087e-05
-0.00035077431
1.2848883e-05
-0.00035237125
1.273963e-05
-0.00035390961
1.258298e-05
-0.00035538372
1.2380128e-05
-0.00035678837
1.2132853e-05
-0.00035811883
1.1843466e-05
-0.00035937093
1.1514786e-05
-0.00036054108
1.1150102e-05
-0.00036162632
1.0753134e-05
-0.00036262434
1.0328005e-05
-0.0003635335
9.8791506e-06
-0.00036435285
9.4113169e-06
-0.00036508211
8.9294876e-06
-0.00036572167
8.4388323e-06
-0.00036627258
7.9446588e-06
-0.00036673656
7.4523669e-06
-0.00036711592
6.9673746e-06
-0.00036741356
6.4950819e-06
-0.00036763293
6.0408208e-06
-0.00036777797
5.6097821e-06
-0.00036785306
5.2069854e-06
-0.00036786299
4.8372136e-06
-0.00036781286
4.504957e-06
-0.00036770805
4.2143777e-06
-0.00036755411
3.9692738e-06
-0.00036735673
3.7730006e-06
-0.00036712162
3.6284822e-06
-0.00036685444
3.5380894e-06
-0.00036656066
3.5037627e-06
-0.00036624559
3.5268907e-06
-0.00036591421
3.6083911e-06
-0.0003655711
3.7486294e-06
-0.0003652204
3.9475571e-06
-0.00036486567
4.2046284e-06
-0.00036450988
4.5189714e-06
-0.0003641553
4.8893506e-06
-0.00036380353
5.3143412e-06
-0.00036345536
5.7922431e-06
-0.00036311082
6.3213446e-06
-0.00036276909
6.8998059e-06
-0.00036242842
7.5259414e-06
-0.00036208618
8.1980981e-06
-0.00036173875
8.9149709e-06
-0.00036138147
9.6753886e-06
-0.00036100851
1.0478744e-05
-0.00036061281
1.1324536e-05
-0.00036018575
1.2213086e-05
-0.00035971705
1.3144424e-05
-0.00035919425
1.4119609e-05
-0.00035860258
1.5138233e-05
-0.00035792408
1.6200969e-05
-0.00035713774
1.7303994e-05
-0.00035621835
1.844457e-05
-0.00035513755
1.9608685e-05
-0.00035386259
2.0784319e-05
-0.00035235993
2.193429e-05
-0.00035059378
2.3029799e-05
-0.00034853527
2.3988667e-05
-0.00034615835
2.4763677e-05
-0.00034346108
2.5192874e-05
-0.00034044702
2.5235865e-05
-0.00033718222
2.4588736e-05
-0.00033371481
2.3313024e-05
-0.00033026923
2.084467e-05
-0.00032693161
1.7560073e-05
-0.00032431382
1.256857e-05
6.6789252e-06
-0.00031163985
2.0224211e-07
-0.00031192786
-1.0424161e-07
-0.00031222958
-1.2808278e-08
-0.00031255533
-1.1291569e-07
-0.00031290019
-7.293469e-08
-0.00031326821
-8.9496785e-08
-0.00031365891
-4.8831746e-08
-0.00031407382
-1.7428819e-08
-0.0003145131
4.2685485e-08
-0.00031497591
1.0957974e-07
-0.00031546136
1.9552361e-07
-0.00031596803
2.950829e-07
-0.00031649496
4.1184836e-07
-0.00031704039
5.4498336e-07
-0.00031760505
6.9522003e-07
-0.00031819081
8.6321379e-07
-0.00031879877
1.0490267e-06
-0.00031943038
1.2540079e-06
-0.00032008807
1.4786958e-06
-0.00032077388
1.7232565e-06
-0.00032148835
1.9869641e-06
-0.00032223154
2.2698832e-06
-0.00032300447
2.5714893e-06
-0.00032380861
2.8915507e-06
-0.00032464519
3.2289694e-06
-0.00032551523
3.5828359e-06
-0.00032641989
3.9520667e-06
-0.00032736048
4.3357855e-06
-0.00032833818
4.7328857e-06
-0.00032935406
5.1425479e-06
-0.000330409
5.5637451e-06
-0.00033150368
5.9956387e-06
-0.00033263853
6.4372313e-06
-0.00033381369
6.8873778e-06
-0.00033502903
7.3449559e-06
-0.00033628406
7.8084765e-06
-0.00033757799
8.2764779e-06
-0.0003389096
8.747037e-06
-0.00034027732
9.2182474e-06
-0.00034167917
9.6876638e-06
-0.00034311273
1.0152862e-05
-0.00034457517
1.0610846e-05
-0.00034606323
1.10586e-05
-0.00034757325
1.1492711e-05
-0.00034910115
1.1909604e-05
-0.00035064248
1.2305521e-05
-0.00035219244
1.2676585e-05
-0.00035374594
1.3018891e-05
-0.00035529756
1.3328532e-05
-0.00035684169
1.3601727e-05
-0.00035837253
1.3834881e-05
-0.00035988412
1.4024676e-05
-0.00036137045
1.4168138e-05
-0.00036282549
1.4262746e-05
-0.00036424321
1.4306435e-05
-0.00036561773
1.4297707e-05
-0.00036694329
1.4235642e-05
-0.00036821434
1.4119939e-05
-0.00036942563
1.3950917e-05
-0.00037057221
1.3729557e-05
-0.00037164951
1.3457427e-05
-0.00037265338
1.3136729e-05
-0.00037358015
1.2770236e-05
-0.00037442663
1.2361268e-05
-0.00037519018
1.1913645e-05
-0.00037586868
1.143164e-05
-0.00037646062
1.0919948e-05
-0.00037696506
1.0383588e-05
-0.00037738164
9.8278917e-06
-0.00037771058
9.2584281e-06
-0.00037795269
8.6809417e-06
-0.00037810933
8.1013027e-06
-0.00037818242
7.5254516e-06
-0.00037817436
6.9593231e-06
-0.00037808808
6.4088012e-06
-0.00037792693
5.8796694e-06
-0.00037769468
5.3775257e-06
-0.00037739545
4.9077575e-06
-0.00037703369
4.475459e-06
-0.00037661412
4.085389e-06
-0.00037614166
3.741917e-06
-0.00037562135
3.4489557e-06
-0.00037505827
3.2099202e-06
-0.00037445754
3.0277613e-06
-0.00037382423
2.9047782e-06
-0.00037316326
2.8427935e-06
-0.00037247933
2.8429594e-06
-0.00037177684
2.9059008e-06
-0.00037105982
3.0316091e-06
-0.00037033188
3.2196196e-06
-0.00036959616
3.468902e-06
-0.00036885527
3.7780815e-06
-0.00036811127
4.1453475e-06
-0.00036736559
4.5686626e-06
-0.00036661898
5.0456376e-06
-0.00036587153
5.5738893e-06
-0.00036512263
6.150912e-06
-0.00036437101
6.774318e-06
-0.00036361462
7.4417062e-06
-0.00036285063
8.1509809e-06
-0.00036207539
8.9001551e-06
-0.00036128434
9.6876957e-06
-0.00036047192
1.0512111e-05
-0.00035963135
1.1372518e-05
-0.00035875458
1.226765e-05
-0.00035783185
1.3196881e-05
-0.00035685167
1.4158056e-05
-0.0003558002
1.5149493e-05
-0.00035466142
1.6165216e-05
-0.00035341638
1.7199529e-05
-0.00035204423
1.8236537e-05
-0.00035052131
1.92614e-05
-0.00034882442
2.0237395e-05
-0.00034692944
2.1134818e-05
-0.0003448195
2.1878732e-05
-0.00034248074
2.2424918e-05
-0.00033992185
2.2633985e-05
-0.00033715609
2.2470106e-05
-0.00033425412
2.1686763e-05
-0.00033127215
2.033105e-05
-0.0003284122
1.7984724e-05
-0.00032577183
1.4919701e-05
-0.00032378023
1.0576975e-05
5.4792903e-06
-0.00032621748
5.4251757e-07
-0.00032661524
2.9351835e-07
-0.00032702189
3.938389e-07
-0.00032745899
3.2418483e-07
-0.00032791436
3.8243598e-07
-0.00032839313
3.8927671e-07
-0.0003288916
4.4963055e-07
-0.00032941015
5.0112686e-07
-0.00032994756
5.8009353e-07
-0.00033050388
6.6590086e-07
-0.00033107905
7.7069521e-07
-0.00033167257
8.8860353e-07
-0.0003322842
1.0234745e-06
-0.00033291361
1.1743962e-06
-0.00033356144
1.3430508e-06
-0.00033422846
1.530228e-06
-0.00033491535
1.7359174e-06
-0.00033562214
1.9608041e-06
-0.00033634848
2.205037e-06