/*--------------------------------*- C++ -*----------------------------------*\
| =========                 |                                                 |
| \\      /  F ield         | foam-extend: Open Source CFD                    |
|  \\    /   O peration     | Version:     4.1                                |
|   \\  /    A nd           | Web:         http://www.foam-extend.org         |
|    \\/     M anipulation  |                                                 |
\*---------------------------------------------------------------------------*/
FoamFile
{
    version     2.0;
    format      ascii;
    class       volScalarField;
    location    "2.6";
    object      rAU;
}
// * * * * * * * * * * * * * * * * * * * * * * * * * * * * * * * * * * * * * //

dimensions      [0 0 1 0 0 0 0];

internalField   nonuniform List<scalar> 
16126
(
0.00049578588
0.00049536827
0.00049537093
0.00049537263
0.00049537517
0.00049537748
0.00049538024
0.00049538308
0.00049538616
0.00049538939
0.00049539275
0.00049539624
0.0004953998
0.00049540344
0.00049540708
0.00049541074
0.00049541431
0.00049541782
0.00049542117
0.00049542437
0.00049542734
0.00049543007
0.00049543247
0.00049543455
0.00049543626
0.00049543758
0.00049543841
0.00049543844
0.00049543756
0.00049543612
0.00049543411
0.00049543154
0.00049542837
0.00049542455
0.00049542009
0.00049541493
0.00049540907
0.00049540244
0.00049539505
0.00049538683
0.0004953778
0.0004953679
0.00049535714
0.00049534548
0.00049533291
0.00049531944
0.00049530506
0.00049528979
0.00049527363
0.00049525661
0.00049523875
0.00049522011
0.00049520072
0.00049518064
0.00049515993
0.00049513865
0.00049511688
0.00049509469
0.00049507216
0.0004950494
0.00049502647
0.00049500348
0.00049498052
0.00049495769
0.00049493507
0.00049491277
0.00049489087
0.00049486946
0.00049484862
0.00049482842
0.00049480895
0.00049479024
0.00049477236
0.00049475535
0.00049473923
0.00049472402
0.00049470971
0.00049469631
0.00049468378
0.00049467209
0.00049466118
0.00049465098
0.00049464142
0.0004946324
0.00049462382
0.00049461555
0.00049460746
0.00049459942
0.00049459127
0.00049458284
0.00049457397
0.00049456448
0.00049455416
0.00049454283
0.00049453026
0.00049451622
0.00049450047
0.00049448274
0.00049446273
0.0004944401
0.00049441447
0.00049438538
0.00049435225
0.00049431438
0.00049427085
0.00049422042
0.00049416148
0.00049409179
0.00049400845
0.00049390744
0.00049378372
0.00049363049
0.00049343983
0.00049320153
0.00049290493
0.00049253696
0.00049208668
0.00049154051
0.00049089337
0.00049013382
0.00048928031
0.00048831486
0.00048738602
0.00048591085
0.00049489829
0.00049448212
0.00049448755
0.00049449075
0.00049449604
0.00049450073
0.00049450643
0.00049451223
0.00049451853
0.00049452511
0.00049453194
0.00049453903
0.00049454621
0.00049455353
0.00049456081
0.00049456806
0.00049457512
0.00049458197
0.00049458844
0.0004945945
0.00049459994
0.00049460476
0.00049460879
0.00049461195
0.00049461399
0.00049461459
0.00049461203
0.00049460791
0.00049460214
0.00049459506
0.00049458652
0.00049457649
0.00049456491
0.00049455169
0.00049453683
0.00049452021
0.00049450185
0.00049448162
0.00049445955
0.00049443554
0.00049440961
0.00049438167
0.00049435175
0.00049431983
0.0004942859
0.00049424999
0.00049421213
0.00049417238
0.0004941308
0.00049408747
0.0004940425
0.00049399601
0.00049394813
0.00049389903
0.00049384885
0.00049379779
0.00049374604
0.0004936938
0.00049364127
0.00049358866
0.00049353619
0.00049348406
0.00049343249
0.00049338167
0.00049333179
0.00049328304
0.00049323557
0.00049318955
0.00049314509
0.00049310231
0.00049306129
0.00049302209
0.00049298476
0.00049294929
0.00049291568
0.00049288387
0.0004928538
0.00049282534
0.00049279837
0.00049277273
0.00049274823
0.00049272465
0.00049270175
0.00049267926
0.00049265689
0.00049263433
0.00049261124
0.00049258727
0.00049256205
0.00049253517
0.00049250624
0.00049247481
0.00049244042
0.0004924026
0.00049236082
0.00049231453
0.00049226315
0.00049220604
0.00049214249
0.00049207171
0.00049199284
0.00049190489
0.00049180672
0.00049169705
0.00049157439
0.00049143699
0.00049128291
0.00049110979
0.00049091517
0.00049069609
0.00049044977
0.00049017291
0.00048986335
0.00048951845
0.00048913879
0.00048872442
0.00048828284
0.00048781923
0.00048735611
0.00048690391
0.00048652208
0.00048620622
0.00048615529
0.00048575118
0.00049319316
0.00049277794
0.00049278435
0.00049278738
0.00049279342
0.00049279847
0.00049280481
0.00049281113
0.000492818
0.00049282511
0.00049283243
0.00049283996
0.00049284749
0.00049285508
0.00049286249
0.00049286975
0.00049287659
0.00049288303
0.00049288883
0.00049289396
0.00049289818
0.00049290139
0.00049290327
0.0004929038
0.00049289974
0.00049289332
0.00049288356
0.0004928722
0.00049285896
0.00049284382
0.00049282659
0.00049280725
0.00049278575
0.00049276194
0.00049273587
0.0004927074
0.00049267656
0.00049264323
0.00049260746
0.00049256915
0.00049252836
0.00049248501
0.00049243918
0.00049239086
0.00049234011
0.000492287
0.00049223161
0.00049217406
0.00049211447
0.00049205301
0.00049198984
0.00049192517
0.0004918592
0.00049179218
0.00049172434
0.00049165594
0.00049158724
0.00049151852
0.00049145004
0.00049138208
0.00049131488
0.0004912487
0.00049118379
0.00049112035
0.0004910586
0.00049099871
0.00049094085
0.00049088513
0.00049083166
0.00049078051
0.00049073172
0.00049068528
0.00049064117
0.00049059933
0.00049055966
0.00049052202
0.00049048626
0.00049045218
0.00049041955
0.0004903881
0.00049035756
0.00049032761
0.00049029792
0.00049026813
0.00049023787
0.00049020672
0.00049017429
0.00049014016
0.00049010387
0.00049006499
0.00049002307
0.00048997763
0.0004899282
0.0004898743
0.00048981545
0.00048975114
0.00048968085
0.00048960406
0.00048952023
0.00048942879
0.00048932914
0.00048922067
0.00048910272
0.0004889746
0.00048883558
0.00048868487
0.0004885217
0.00048834522
0.00048815477
0.00048794962
0.00048772964
0.00048749471
0.00048724633
0.00048698599
0.00048671883
0.00048644948
0.00048619013
0.00048594929
0.00048575229
0.00048560758
0.00048557059
0.0004856244
0.00048592355
0.00048589634
0.00049168662
0.00049127068
0.00049127643
0.00049127775
0.00049128267
0.00049128619
0.00049129108
0.00049129572
0.00049130083
0.00049130599
0.0004913112
0.00049131644
0.00049132148
0.00049132639
0.0004913309
0.00049133508
0.00049133863
0.0004913416
0.0004913437
0.00049134486
0.00049134479
0.00049134353
0.00049133725
0.00049132838
0.00049131508
0.00049129962
0.00049128224
0.00049126285
0.00049124123
0.00049121739
0.00049119116
0.00049116255
0.00049113151
0.0004910979
0.0004910618
0.00049102305
0.00049098175
0.00049093776
0.00049089119
0.00049084193
0.00049079012
0.00049073569
0.00049067877
0.00049061939
0.00049055767
0.00049049373
0.00049042769
0.00049035975
0.00049029007
0.00049021888
0.00049014641
0.0004900729
0.00048999861
0.00048992384
0.00048984885
0.00048977394
0.00048969941
0.00048962553
0.00048955259
0.00048948087
0.00048941062
0.00048934208
0.00048927546
0.00048921097
0.00048914876
0.00048908899
0.00048903177
0.00048897717
0.00048892524
0.00048887598
0.00048882939
0.00048878539
0.00048874392
0.00048870483
0.00048866798
0.00048863317
0.00048860019
0.00048856879
0.00048853872
0.00048850966
0.00048848132
0.00048845335
0.0004884254
0.00048839713
0.00048836817
0.00048833813
0.00048830664
0.00048827333
0.00048823783
0.00048819976
0.00048815878
0.00048811453
0.00048806668
0.00048801489
0.00048795888
0.00048789833
0.00048783298
0.00048776259
0.00048768689
0.00048760567
0.00048751873
0.00048742588
0.00048732696
0.00048722182
0.00048711036
0.00048699246
0.00048686816
0.00048673748
0.00048660073
0.0004864583
0.00048631127
0.00048616085
0.00048600985
0.00048586118
0.00048572102
0.00048559482
0.00048549449
0.00048542729
0.00048541452
0.00048545857
0.00048560022
0.00048581095
0.0004861882
0.00048618982
0.00049041334
0.0004899955
0.00048999919
0.00048999749
0.0004899997
0.00049000011
0.00049000183
0.00049000301
0.00049000449
0.00049000578
0.00049000695
0.00049000793
0.00049000855
0.00049000887
0.00049000865
0.00049000795
0.00049000647
0.00049000426
0.0004900011
0.00048999707
0.00048998689
0.00048997533
0.00048995896
0.00048994001
0.00048991924
0.00048989656
0.0004898717
0.00048984473
0.00048981548
0.000489784
0.00048975013
0.0004897139
0.00048967529
0.00048963415
0.0004895906
0.00048954449
0.00048949596
0.00048944487
0.00048939139
0.00048933541
0.00048927714
0.00048921651
0.00048915371
0.00048908882
0.00048902199
0.00048895339
0.0004888832
0.00048881163
0.00048873892
0.00048866531
0.00048859107
0.00048851648
0.00048844182
0.0004883674
0.0004882935
0.00048822042
0.00048814845
0.00048807787
0.00048800894
0.00048794191
0.00048787702
0.00048781446
0.00048775441
0.00048769703
0.00048764244
0.00048759073
0.00048754197
0.00048749617
0.00048745335
0.00048741345
0.0004873764
0.00048734211
0.00048731045
0.00048728124
0.00048725431
0.00048722943
0.00048720637
0.00048718487
0.00048716465
0.00048714542
0.00048712686
0.00048710868
0.00048709055
0.00048707214
0.00048705314
0.00048703323
0.0004870121
0.00048698946
0.00048696503
0.00048693854
0.00048690976
0.00048687845
0.00048684442
0.0004868075
0.00048676754
0.00048672441
0.00048667803
0.00048662834
0.00048657529
0.00048651887
0.00048645911
0.00048639605
0.00048632977
0.0004862604
0.00048618808
0.00048611302
0.00048603555
0.00048595604
0.00048587517
0.0004857937
0.00048571305
0.00048563477
0.00048556176
0.00048549689
0.00048544561
0.00048541226
0.00048540623
0.00048543178
0.00048550458
0.00048562242
0.00048581466
0.00048605407
0.00048640432
0.00048636761
0.00048938045
0.00048896003
0.00048896058
0.00048895502
0.00048895345
0.00048894976
0.00048894725
0.00048894398
0.00048894087
0.0004889374
0.00048893367
0.00048892963
0.00048892511
0.00048892019
0.00048891468
0.00048890872
0.00048890208
0.00048889201
0.00048887883
0.00048886481
0.00048884478
0.00048882317
0.00048879985
0.00048877481
0.00048874777
0.00048871883
0.00048868783
0.00048865488
0.00048861979
0.00048858267
0.00048854334
0.00048850189
0.00048845828
0.0004884124
0.00048836439
0.0004883141
0.00048826172
0.00048820711
0.00048815049
0.00048809176
0.00048803118
0.00048796871
0.00048790457
0.00048783889
0.00048777184
0.00048770362
0.00048763446
0.00048756461
0.0004874943
0.00048742382
0.00048735344
0.00048728346
0.00048721417
0.00048714587
0.00048707884
0.00048701337
0.00048694972
0.00048688814
0.00048682888
0.00048677214
0.00048671811
0.00048666696
0.00048661882
0.00048657379
0.00048653195
0.00048649334
0.00048645798
0.00048642583
0.00048639686
0.00048637097
0.00048634807
0.00048632799
0.0004863106
0.00048629569
0.00048628304
0.00048627243
0.00048626361
0.0004862563
0.00048625025
0.00048624514
0.00048624071
0.00048623665
0.00048623268
0.0004862285
0.00048622385
0.00048621846
0.00048621208
0.00048620447
0.00048619544
0.00048618478
0.00048617236
0.00048615802
0.00048614166
0.0004861232
0.0004861026
0.00048607983
0.00048605491
0.00048602787
0.00048599877
0.00048596772
0.00048593481
0.00048590021
0.00048586409
0.00048582667
0.00048578819
0.00048574895
0.00048570937
0.0004856699
0.00048563128
0.0004855943
0.00048556033
0.00048553079
0.00048550822
0.00048549499
0.00048549553
0.00048551302
0.0004855547
0.00048562285
0.00048572914
0.00048586952
0.00048606493
0.00048629167
0.00048658956
0.00048649095
0.0004885747
0.00048815187
0.00048814883
0.00048813932
0.00048813368
0.00048812573
0.00048811885
0.00048811105
0.00048810332
0.00048809514
0.00048808668
0.00048807791
0.00048806872
0.00048805923
0.00048804531
0.00048803065
0.0004880152
0.00048799628
0.00048797407
0.00048795058
0.00048792554
0.00048789897
0.00048787064
0.00048784067
0.0004878089
0.00048777547
0.00048774021
0.00048770324
0.0004876644
0.00048762383
0.00048758134
0.00048753704
0.00048749094
0.0004874429
0.00048739311
0.00048734143
0.00048728807
0.00048723292
0.00048717623
0.00048711792
0.00048705827
0.00048699728
0.0004869352
0.00048687218
0.00048680843
0.00048674416
0.00048667963
0.00048661508
0.0004865508
0.00048648705
0.00048642413
0.00048636232
0.0004863019
0.00048624317
0.00048618638
0.0004861318
0.00048607966
0.00048603019
0.00048598357
0.00048593999
0.00048589958
0.00048586247
0.00048582873
0.00048579844
0.0004857716
0.00048574821
0.00048572826
0.00048571165
0.00048569831
0.0004856881
0.00048568089
0.00048567649
0.00048567471
0.00048567535
0.00048567815
0.00048568288
0.00048568928
0.00048569706
0.00048570597
0.00048571571
0.00048572601
0.00048573658
0.00048574717
0.0004857575
0.00048576734
0.00048577646
0.00048578464
0.0004857917
0.00048579748
0.00048580183
0.00048580467
0.00048580589
0.00048580545
0.00048580332
0.0004857995
0.00048579403
0.00048578695
0.00048577836
0.00048576833
0.000485757
0.00048574452
0.00048573103
0.00048571673
0.00048570184
0.0004856866
0.00048567129
0.0004856563
0.00048564207
0.00048562923
0.00048561853
0.00048561114
0.00048560827
0.00048561205
0.00048562435
0.00048564874
0.00048568754
0.00048574642
0.00048582668
0.00048593743
0.00048607485
0.00048625461
0.0004864586
0.00048671129
0.00048656485
0.0004879646
0.00048754623
0.00048753979
0.00048752687
0.00048751755
0.00048750589
0.00048749519
0.00048748356
0.00048747069
0.00048745665
0.00048744183
0.00048742645
0.00048741037
0.00048739381
0.00048737263
0.00048735038
0.00048732686
0.00048730217
0.00048727608
0.00048724868
0.00048721975
0.00048718947
0.00048715765
0.00048712446
0.00048708972
0.00048705358
0.00048701587
0.00048697677
0.00048693609
0.00048689399
0.0004868503
0.00048680516
0.00048675857
0.00048671042
0.00048666092
0.00048660994
0.00048655773
0.00048650418
0.00048644957
0.00048639384
0.00048633731
0.00048627996
0.00048622211
0.00048616391
0.00048610557
0.00048604733
0.00048598946
0.00048593221
0.00048587585
0.00048582066
0.00048576692
0.00048571491
0.00048566488
0.00048561711
0.00048557183
0.00048552926
0.00048548962
0.00048545308
0.0004854198
0.00048538991
0.00048536351
0.00048534067
0.00048532143
0.00048530579
0.00048529375
0.00048528525
0.00048528021
0.00048527853
0.00048528007
0.00048528468
0.00048529218
0.00048530235
0.000485315
0.00048532988
0.00048534674
0.00048536531
0.00048538533
0.00048540651
0.0004854286
0.0004854513
0.00048547434
0.00048549745
0.00048552039
0.00048554289
0.00048556476
0.00048558576
0.00048560572
0.00048562449
0.00048564192
0.0004856579
0.00048567237
0.00048568526
0.00048569655
0.00048570625
0.00048571437
0.00048572097
0.00048572611
0.00048572991
0.00048573246
0.00048573388
0.00048573433
0.00048573396
0.00048573295
0.0004857315
0.00048572985
0.00048572826
0.0004857271
0.00048572676
0.00048572784
0.000485731
0.00048573729
0.00048574779
0.00048576432
0.0004857885
0.0004858233
0.0004858706
0.00048593503
0.00048601743
0.00048612487
0.00048625383
0.00048641531
0.000486595
0.00048680695
0.00048661742
0.00048751424
0.00048710262
0.00048709022
0.00048707699
0.00048706311
0.0004870486
0.00048703341
0.0004870177
0.00048700005
0.00048698116
0.00048696103
0.00048694002
0.00048691785
0.00048689473
0.00048687045
0.00048684513
0.00048681859
0.00048679095
0.00048676203
0.00048673201
0.00048670071
0.00048666829
0.00048663455
0.00048659968
0.00048656351
0.00048652622
0.00048648762
0.00048644791
0.0004864069
0.00048636478
0.00048632137
0.00048627684
0.0004862312
0.00048618435
0.00048613653
0.00048608762
0.00048603788
0.00048598722
0.00048593595
0.00048588401
0.00048583175
0.00048577916
0.00048572657
0.00048567413
0.00048562208
0.00048557066
0.00048552011
0.00048547072
0.00048542273
0.0004853764
0.00048533201
0.00048528981
0.00048525004
0.00048521294
0.00048517872
0.00048514756
0.00048511964
0.0004850951
0.00048507406
0.00048505662
0.00048504283
0.00048503271
0.00048502627
0.00048502349
0.0004850243
0.00048502861
0.00048503633
0.0004850473
0.00048506137
0.00048507836
0.00048509805
0.00048512023
0.00048514466
0.00048517109
0.00048519926
0.00048522889
0.00048525971
0.00048529143
0.0004853238
0.00048535651
0.00048538931
0.00048542194
0.00048545414
0.00048548568
0.00048551634
0.00048554595
0.00048557431
0.0004856013
0.00048562679
0.00048565068
0.00048567292
0.00048569347
0.00048571232
0.00048572949
0.00048574501
0.00048575893
0.00048577135
0.00048578236
0.00048579206
0.00048580059
0.00048580808
0.00048581468
0.00048582058
0.00048582596
0.00048583104
0.0004858361
0.00048584147
0.00048584755
0.0004858549
0.00048586416
0.0004858763
0.00048589231
0.00048591383
0.00048594228
0.00048598021
0.0004860292
0.00048609307
0.00048617246
0.00048627291
0.00048639148
0.00048653587
0.00048669507
0.00048687619
0.00048665382
0.00048719602
0.00048678404
0.00048676638
0.00048675297
0.0004867351
0.00048671818
0.00048669901
0.00048667962
0.00048665878
0.0004866373
0.00048661465
0.0004865912
0.00048656667
0.00048654128
0.00048651482
0.00048648748
0.00048645908
0.0004864298
0.00048639944
0.00048636816
0.00048633579
0.0004863025
0.00048626813
0.00048623284
0.00048619647
0.00048615919
0.00048612084
0.00048608162
0.00048604133
0.00048600019
0.00048595802
0.00048591501
0.00048587118
0.00048582644
0.00048578104
0.00048573488
0.00048568823
0.00048564101
0.00048559356
0.00048554581
0.00048549813
0.00048545052
0.0004854033
0.00048535663
0.00048531076
0.00048526592
0.00048522234
0.0004851803
0.00048514002
0.00048510177
0.00048506579
0.00048503231
0.00048500154
0.0004849737
0.00048494897
0.00048492751
0.00048490946
0.00048489492
0.00048488399
0.00048487674
0.00048487317
0.00048487329
0.00048487708
0.00048488447
0.00048489539
0.00048490971
0.00048492731
0.00048494803
0.00048497169
0.00048499808
0.00048502699
0.00048505818
0.00048509142
0.00048512642
0.00048516293
0.00048520066
0.00048523934
0.00048527869
0.00048531842
0.00048535826
0.00048539794
0.00048543719
0.00048547577
0.00048551346
0.00048555005
0.00048558534
0.00048561918
0.00048565141
0.00048568195
0.00048571069
0.0004857376
0.00048576265
0.00048578582
0.00048580714
0.00048582665
0.00048584444
0.00048586058
0.00048587518
0.00048588836
0.00048590025
0.000485911
0.00048592077
0.00048592975
0.00048593814
0.00048594618
0.00048595414
0.00048596239
0.00048597134
0.00048598154
0.00048599363
0.00048600853
0.00048602719
0.00048605107
0.00048608146
0.00048612055
0.00048616968
0.00048623193
0.00048630769
0.00048640108
0.00048650947
0.00048663783
0.00048677756
0.00048693177
0.00048668148
0.00048697951
0.00048656432
0.00048654509
0.0004865292
0.00048650945
0.00048649043
0.00048646939
0.00048644811
0.00048642549
0.00048640231
0.00048637807
0.00048635316
0.00048632731
0.00048630076
0.0004862733
0.00048624511
0.00048621602
0.00048618619
0.00048615544
0.00048612395
0.00048609154
0.0004860584
0.00048602432
0.0004859895
0.00048595376
0.0004859173
0.00048587993
0.00048584186
0.00048580292
0.00048576332
0.00048572289
0.00048568182
0.00048564015
0.00048559781
0.00048555505
0.00048551178
0.00048546828
0.00048542449
0.00048538072
0.00048533695
0.00048529353
0.00048525046
0.00048520808
0.00048516653
0.00048512606
0.00048508688
0.00048504923
0.00048501336
0.00048497949
0.00048494786
0.00048491869
0.0004848922
0.00048486858
0.00048484802
0.00048483068
0.00048481669
0.00048480617
0.00048479922
0.00048479589
0.00048479623
0.00048480023
0.00048480789
0.00048481915
0.00048483394
0.00048485217
0.0004848737
0.00048489841
0.0004849261
0.00048495659
0.00048498967
0.00048502512
0.00048506269
0.00048510214
0.00048514319
0.00048518556
0.00048522899
0.00048527318
0.00048531784
0.0004853627
0.00048540746
0.00048545187
0.00048549565
0.00048553856
0.00048558036
0.00048561466
0.00048564969
0.00048568532
0.00048572141
0.00048575785
0.00048579451
0.00048582724
0.00048585475
0.00048588022
0.00048590367
0.00048592517
0.00048594478
0.0004859626
0.00048597875
0.00048599335
0.00048600656
0.00048601853
0.00048602944
0.0004860395
0.00048604892
0.00048605796
0.00048606692
0.00048607617
0.00048608614
0.00048609738
0.00048611053
0.00048612645
0.00048614604
0.00048617063
0.00048620134
0.00048624006
0.00048628791
0.00048634736
0.00048641868
0.00048650491
0.00048660382
0.00048671849
0.00048684221
0.0004869754
0.00048670286
0.00048683636
0.00048641842
0.00048639835
0.00048638068
0.00048635984
0.00048633951
0.00048631743
0.00048629513
0.00048627167
0.00048624773
0.00048622287
0.00048619746
0.00048617123
0.00048614442
0.00048611683
0.00048608865
0.0004860597
0.00048603016
0.00048599982
0.00048596888
0.00048593712
0.00048590475
0.00048587156
0.00048583775
0.00048580313
0.0004857679
0.00048573188
0.00048569528
0.00048565793
0.00048562004
0.00048558147
0.0004855424
0.00048550289
0.00048546285
0.00048542257
0.00048538193
0.00048534126
0.00048530046
0.00048525988
0.00048521948
0.00048517962
0.00048514029
0.00048510183
0.00048506438
0.00048502816
0.00048499341
0.00048496033
0.00048492916
0.00048490012
0.00048487342
0.00048484928
0.00048482789
0.00048480943
0.00048479408
0.00048478198
0.00048477326
0.00048476801
0.00048476632
0.00048476824
0.0004847738
0.00048478299
0.00048479579
0.00048481215
0.00048483199
0.0004848552
0.00048488166
0.00048491121
0.00048494368
0.00048497888
0.00048501659
0.00048505658
0.0004850986
0.00048514241
0.00048518773
0.00048523427
0.00048528175
0.00048532988
0.00048537836
0.00048542692
0.00048547525
0.00048552136
0.00048555465
0.00048558906
0.00048562446
0.00048565451
0.0004856875
0.00048572333
0.00048576185
0.00048580289
0.00048584629
0.0004858878
0.00048592607
0.00048596418
0.00048600189
0.00048602426
0.0004860446
0.00048606304
0.00048607971
0.00048609474
0.00048610829
0.00048612055
0.00048613173
0.00048614202
0.0004861517
0.00048616104
0.00048617035
0.00048618002
0.00048619049
0.00048620231
0.00048621611
0.00048623269
0.00048625289
0.00048627788
0.00048630866
0.00048634679
0.00048639319
0.00048644978
0.00048651666
0.00048659594
0.00048668567
0.00048678754
0.00048689633
0.00048701119
0.00048671992
0.00048674404
0.00048632396
0.00048630369
0.00048628493
0.00048626373
0.00048624282
0.00048622045
0.00048619786
0.00048617428
0.00048615031
0.00048612554
0.00048610033
0.00048607442
0.00048604805
0.00048602099
0.00048599346
0.00048596523
0.0004859365
0.00048590706
0.00048587709
0.00048584638
0.00048581513
0.00048578313
0.00048575057
0.00048571726
0.00048568341
0.00048564883
0.00048561374
0.00048557795
0.00048554171
0.00048550486
0.00048546759
0.00048542996
0.0004853919
0.00048535369
0.00048531523
0.00048527682
0.0004852384
0.00048520031
0.00048516249
0.00048512531
0.00048508877
0.00048505318
0.0004850187
0.00048498553
0.00048495389
0.00048492398
0.00048489605
0.00048487029
0.0004848469
0.0004848261
0.00048480807
0.00048479298
0.00048478101
0.00048477228
0.00048476692
0.00048476504
0.0004847667
0.00048477195
0.00048478085
0.00048479336
0.00048480948
0.00048482914
0.00048485228
0.00048487879
0.00048490853
0.00048494137
0.00048497712
0.0004850156
0.00048505657
0.00048509982
0.00048514509
0.00048519212
0.00048524062
0.00048529032
0.0004853409
0.00048539209
0.00048544355
0.00048549501
0.00048552691
0.00048555853
0.0004855794
0.00048560362
0.00048563113
0.00048566186
0.0004856957
0.00048573251
0.00048577212
0.00048581436
0.00048585902
0.00048590591
0.0004859548
0.00048600549
0.00048605758
0.00048609601
0.00048613399
0.00048615778
0.00048617451
0.00048618953
0.00048620302
0.00048621517
0.00048622621
0.00048623637
0.00048624593
0.00048625518
0.00048626445
0.00048627413
0.00048628468
0.00048629663
0.00048631058
0.00048632728
0.00048634749
0.00048637225
0.00048640243
0.00048643934
0.00048648371
0.00048653704
0.00048659934
0.00048667206
0.00048675353
0.00048684449
0.0004869408
0.00048704078
0.000486734
0.00048668583
0.00048626423
0.00048624426
0.00048622497
0.00048620394
0.00048618299
0.00048616089
0.00048613858
0.00048611543
0.00048609196
0.00048606781
0.00048604328
0.00048601814
0.00048599261
0.00048596647
0.00048593991
0.00048591272
0.00048588508
0.00048585677
0.00048582798
0.00048579848
0.00048576846
0.00048573772
0.00048570644
0.00048567444
0.00048564191
0.00048560866
0.00048557493
0.00048554053
0.00048550569
0.00048547027
0.00048543446
0.00048539833
0.0004853618
0.00048532517
0.00048528832
0.00048525157
0.00048521485
0.00048517849
0.00048514245
0.00048510709
0.0004850724
0.0004850387
0.00048500612
0.00048497488
0.00048494518
0.00048491723
0.00048489125
0.00048486744
0.00048484602
0.00048482716
0.00048481108
0.00048479793
0.00048478789
0.0004847811
0.00048477768
0.00048477773
0.00048478135
0.00048478859
0.00048479948
0.00048481403
0.00048483223
0.00048485401
0.00048487933
0.00048490806
0.00048494009
0.00048497528
0.00048501344
0.00048505437
0.00048509786
0.00048514368
0.00048519155
0.00048524121
0.00048529237
0.00048534474
0.00048539799
0.00048545182
0.00048549579
0.00048552703
0.00048554066
0.00048555787
0.00048557866
0.00048560301
0.00048563086
0.00048566211
0.00048569664
0.00048573429
0.00048577488
0.00048581821
0.00048586406
0.00048591221
0.0004859624
0.00048601439
0.00048606796
0.00048612287
0.00048617892
0.00048622219
0.00048625967
0.00048627739
0.00048629064
0.00048630254
0.00048631331
0.00048632321
0.00048633255
0.00048634162
0.00048635078
0.00048636041
0.00048637097
0.00048638297
0.00048639698
0.0004864137
0.0004864338
0.0004864582
0.00048648762
0.00048652315
0.00048656536
0.00048661536
0.00048667307
0.00048673941
0.00048681291
0.00048689372
0.00048697857
0.00048706553
0.00048674563
0.00048664968
0.00048622714
0.00048620781
0.00048618844
0.00048616797
0.00048614738
0.00048612592
0.00048610423
0.00048608185
0.00048605919
0.00048603594
0.00048601237
0.00048598825
0.00048596378
0.00048593874
0.00048591332
0.0004858873
0.00048586083
0.00048583372
0.00048580612
0.00048577782
0.000485749
0.00048571944
0.00048568934
0.00048565851
0.00048562713
0.00048559502
0.00048556241
0.00048552912
0.00048549539
0.00048546106
0.00048542633
0.00048539128
0.00048535583
0.00048532026
0.00048528449
0.00048524881
0.00048521316
0.00048517786
0.00048514289
0.00048510858
0.00048507494
0.00048504227
0.00048501071
0.00048498048
0.00048495177
0.00048492479
0.00048489977
0.0004848769
0.00048485639
0.00048483845
0.00048482326
0.00048481101
0.00048480188
0.00048479601
0.00048479355
0.00048479459
0.00048479925
0.00048480757
0.00048481964
0.00048483544
0.00048485496
0.00048487819
0.00048490504
0.00048493542
0.00048496921
0.00048500627
0.00048504642
0.00048508944
0.00048513512
0.00048518322
0.00048523346
0.00048528556
0.00048533922
0.00048539413
0.00048544995
0.00048549068
0.00048551075
0.00048552001
0.00048553303
0.00048554987
0.00048557052
0.00048559495
0.0004856231
0.00048565484
0.00048569006
0.00048572857
0.00048577018
0.00048581465
0.00048586174
0.00048591121
0.00048596279
0.00048601619
0.00048607118
0.00048612748
0.00048618485
0.00048624307
0.00048630195
0.00048634212
0.00048637245
0.00048638397
0.00048639436
0.00048640388
0.00048641285
0.00048642158
0.00048643042
0.00048643978
0.00048645009
0.00048646185
0.00048647559
0.00048649194
0.00048651153
0.00048653513
0.00048656338
0.00048659715
0.0004866369
0.00048668346
0.0004867367
0.00048679714
0.00048686353
0.00048693558
0.00048701066
0.00048708671
0.0004867556
0.00048662734
0.00048620435
0.00048618585
0.0004861667
0.00048614701
0.00048612702
0.00048610641
0.00048608554
0.00048606411
0.00048604242
0.00048602021
0.0004859977
0.00048597468
0.00048595134
0.00048592744
0.00048590317
0.00048587829
0.00048585297
0.00048582699
0.0004858005
0.00048577329
0.00048574554
0.00048571702
0.00048568793
0.00048565806
0.00048562762
0.00048559641
0.00048556466
0.0004855322
0.00048549926
0.00048546569
0.00048543169
0.00048539733
0.00048536254
0.00048532761
0.00048529244
0.00048525733
0.00048522222
0.00048518744
0.00048515294
0.00048511909
0.00048508586
0.00048505357
0.00048502236
0.00048499243
0.00048496401
0.00048493728
0.00048491248
0.00048488982
0.00048486951
0.00048485175
0.00048483676
0.00048482472
0.00048481583
0.00048481024
0.00048480811
0.00048480956
0.0004848147
0.00048482362
0.00048483638
0.00048485301
0.00048487349
0.00048489782
0.00048492591
0.0004849577
0.00048499304
0.0004850318
0.00048507379
0.00048511881
0.00048516663
0.00048521697
0.00048526958
0.00048532414
0.00048538035
0.00048543786
0.00048548005
0.00048549317
0.00048549759
0.00048550595
0.00048551832
0.00048553474
0.00048555522
0.00048557973
0.00048560819
0.00048564047
0.00048567644
0.00048571588
0.00048575859
0.00048580431
0.00048585276
0.00048590368
0.00048595676
0.0004860117
0.00048606821
0.00048612601
0.00048618484
0.00048624444
0.00048630459
0.00048636509
0.00048641947
0.0004864557
0.00048647042
0.00048647948
0.00048648801
0.00048649633
0.00048650479
0.0004865138
0.00048652377
0.00048653518
0.00048654853
0.00048656439
0.00048658332
0.00048660597
0.00048663289
0.00048666477
0.00048670195
0.00048674503
0.00048679382
0.00048684856
0.00048690817
0.00048697211
0.00048703829
0.00048710474
0.00048676405
0.00048661328
0.00048619024
0.00048617265
0.00048615393
0.00048613513
0.00048611586
0.00048609619
0.00048607622
0.00048605579
0.00048603511
0.00048601395
0.00048599251
0.00048597058
0.00048594832
0.00048592551
0.00048590232
0.0004858785
0.00048585422
0.00048582925
0.00048580374
0.00048577747
0.00048575062
0.00048572296
0.00048569468
0.00048566558
0.00048563586
0.00048560532
0.00048557419
0.0004855423
0.00048550988
0.00048547677
0.0004854432
0.00048540921
0.00048537475
0.0004853401
0.00048530515
0.00048527023
0.00048523525
0.00048520056
0.0004851661
0.00048513224
0.00048509896
0.00048506657
0.00048503522
0.00048500511
0.00048497647
0.00048494949
0.00048492442
0.00048490147
0.00048488087
0.00048486283
0.00048484758
0.00048483531
0.00048482625
0.00048482055
0.00048481839
0.00048481992
0.00048482525
0.00048483449
0.00048484772
0.00048486497
0.00048488625
0.00048491155
0.0004849408
0.00048497391
0.00048501077
0.00048505124
0.00048509511
0.00048514217
0.00048519219
0.00048524489
0.00048529996
0.00048535712
0.00048541601
0.00048546475
0.00048547558
0.00048547474
0.00048547797
0.00048548539
0.00048549708
0.00048551309
0.00048553343
0.00048555805
0.00048558688
0.00048561977
0.00048565657
0.00048569706
0.00048574099
0.00048578809
0.00048583805
0.00048589056
0.00048594529
0.00048600192
0.00048606012
0.00048611957
0.00048617999
0.00048624109
0.00048630265
0.00048636441
0.00048642618
0.0004864878
0.00048652828
0.00048655088
0.00048655882
0.00048656655
0.00048657444
0.00048658288
0.00048659228
0.00048660309
0.00048661577
0.00048663084