/*--------------------------------*- C++ -*----------------------------------*\
| =========                 |                                                 |
| \\      /  F ield         | foam-extend: Open Source CFD                    |
|  \\    /   O peration     | Version:     4.1                                |
|   \\  /    A nd           | Web:         http://www.foam-extend.org         |
|    \\/     M anipulation  |                                                 |
\*---------------------------------------------------------------------------*/
FoamFile
{
    version     2.0;
    format      ascii;
    class       volVectorField;
    location    "2.6";
    object      U;
}
// * * * * * * * * * * * * * * * * * * * * * * * * * * * * * * * * * * * * * //

dimensions      [0 1 -1 0 0 0 0];

internalField   nonuniform List<vector> 
16126
(
(0.090938829 5.1255186e-05 0)
(0.09054623 5.3195002e-05 0)
(0.090422741 1.1139778e-05 0)
(0.090196669 3.4324928e-05 0)
(0.089937574 2.041689e-05 0)
(0.089727336 3.2087628e-05 0)
(0.089404731 2.9787131e-05 0)
(0.089157342 3.4577901e-05 0)
(0.088806001 3.5894191e-05 0)
(0.088514341 3.7630973e-05 0)
(0.088148 3.9074763e-05 0)
(0.08782162 3.913575e-05 0)
(0.087448551 3.9697416e-05 0)
(0.087102217 3.9025137e-05 0)
(0.086731491 3.9254849e-05 0)
(0.086382024 3.9028926e-05 0)
(0.086026065 3.9379005e-05 0)
(0.085691508 3.8610867e-05 0)
(0.085364419 3.6600133e-05 0)
(0.085062475 3.2959487e-05 0)
(0.084778849 3.0556343e-05 0)
(0.084526127 3.0857219e-05 0)
(0.08430352 3.1288175e-05 0)
(0.084117502 2.4872646e-05 0)
(0.083966971 1.6066561e-05 0)
(0.083859098 2.0670316e-05 0)
(0.083801166 2.885507e-05 0)
(0.083798655 2.4410763e-05 0)
(0.083858116 1.7210571e-05 0)
(0.083973076 1.2996109e-05 0)
(0.084142529 9.5928965e-06 0)
(0.084367839 6.4314383e-06 0)
(0.084650924 3.0074574e-06 0)
(0.084994771 -7.7989788e-07 0)
(0.085402012 -4.9691665e-06 0)
(0.085875749 -9.581611e-06 0)
(0.086418821 -1.4624828e-05 0)
(0.087034287 -2.0116999e-05 0)
(0.087725018 -2.6059603e-05 0)
(0.088493906 -3.2454629e-05 0)
(0.089343625 -3.9287349e-05 0)
(0.090276672 -4.6535419e-05 0)
(0.091295216 -5.4167341e-05 0)
(0.092401079 -6.2139066e-05 0)
(0.093595599 -7.0401955e-05 0)
(0.094879611 -7.8900219e-05 0)
(0.096253329 -8.7575415e-05 0)
(0.09771633 -9.6367303e-05 0)
(0.099267475 -0.00010521571 0)
(0.1009049 -0.00011406349 0)
(0.10262598 -0.00012285557 0)
(0.10442733 -0.00013154027 0)
(0.10630482 -0.00014006928 0)
(0.10825358 -0.00014839548 0)
(0.11026804 -0.00015647197 0)
(0.11234194 -0.00016425139 0)
(0.11446845 -0.00017168259 0)
(0.11664014 -0.00017870963 0)
(0.11884909 -0.00018527143 0)
(0.12108692 -0.00019129953 0)
(0.1233449 -0.00019671891 0)
(0.125614 -0.00020144993 0)
(0.127885 -0.00020540826 0)
(0.13014854 -0.00020850828 0)
(0.13239524 -0.0002106651 0)
(0.13461582 -0.00021179898 0)
(0.13680119 -0.00021183694 0)
(0.13894255 -0.00021071669 0)
(0.14103155 -0.00020839056 0)
(0.14306036 -0.00020482688 0)
(0.14502185 -0.00020001243 0)
(0.14690965 -0.00019395514 0)
(0.14871828 -0.00018668321 0)
(0.15044329 -0.0001782468 0)
(0.15208129 -0.0001687174 0)
(0.15363011 -0.00015818704 0)
(0.15508882 -0.00014676556 0)
(0.1564578 -0.00013458052 0)
(0.1577388 -0.00012177177 0)
(0.15893496 -0.00010848966 0)
(0.1600508 -9.4892132e-05 0)
(0.16109228 -8.1138406e-05 0)
(0.16206667 -6.7388602e-05 0)
(0.16298265 -5.3805322e-05 0)
(0.16385015 -4.0536186e-05 0)
(0.16468036 -2.772237e-05 0)
(0.16548564 -1.5472874e-05 0)
(0.16627947 -3.8806642e-06 0)
(0.16707643 7.0021666e-06 0)
(0.16789204 1.7146172e-05 0)
(0.1687429 2.6578414e-05 0)
(0.16964643 3.5359549e-05 0)
(0.17062124 4.3635934e-05 0)
(0.17168669 5.1597196e-05 0)
(0.17286365 5.9554095e-05 0)
(0.17417376 6.7850212e-05 0)
(0.17564097 7.699104e-05 0)
(0.17729005 8.7463466e-05 0)
(0.17914979 9.9961152e-05 0)
(0.18124995 0.00011494086 0)
(0.18362794 0.000133021 0)
(0.18632251 0.00015393004 0)
(0.18938783 0.00017724116 0)
(0.19288007 0.00019995446 0)
(0.19688747 0.00021801145 0)
(0.20150094 0.0002209783 0)
(0.20687811 0.00019563767 0)
(0.21317688 0.0001148873 0)
(0.22069065 -5.2867802e-05 0)
(0.22969433 -0.00036595841 0)
(0.24072802 -0.00088445492 0)
(0.25423445 -0.0017142289 0)
(0.27115816 -0.0029435766 0)
(0.29209075 -0.0047338039 0)
(0.31857009 -0.0071698911 0)
(0.35107777 -0.010461281 0)
(0.39198801 -0.014605151 0)
(0.4408429 -0.019866399 0)
(0.50146832 -0.025964473 0)
(0.57023025 -0.033376666 0)
(0.6549444 -0.040696465 0)
(0.74103819 -0.049849592 0)
(0.8536757 -0.051315207 0)
(0.92415329 -0.062802445 0)
(0.27124191 0.00020774611 0)
(0.27072399 0.0002982157 0)
(0.27036635 0.00021279968 0)
(0.26991228 0.00030063769 0)
(0.26937987 0.00028313116 0)
(0.26887804 0.00033322896 0)
(0.26825067 0.00034359072 0)
(0.26767092 0.00037202262 0)
(0.26698466 0.00038896998 0)
(0.26633491 0.00040628929 0)
(0.26561208 0.00042105882 0)
(0.26491562 0.00043096718 0)
(0.26417824 0.00043964036 0)
(0.263465 0.00044194048 0)
(0.26273911 0.00044144802 0)
(0.26204293 0.00043357844 0)
(0.26135928 0.00042189452 0)
(0.26071664 0.00040438037 0)
(0.26011098 0.00038386687 0)
(0.25956522 0.00035915307 0)
(0.25908181 0.00032824577 0)
(0.25867571 0.00028729013 0)
(0.25835054 0.00024189027 0)
(0.25812588 0.00020067187 0)
(0.25802399 0.00015750619 0)
(0.25805541 9.049167e-05 0)
(0.25824091 1.1472897e-05 0)
(0.25855954 -6.2407712e-05 0)
(0.25900361 -0.00013373235 0)
(0.25958188 -0.00020307102 0)
(0.26029862 -0.00027347655 0)
(0.26115971 -0.00034630374 0)
(0.26216995 -0.0004221671 0)
(0.26333491 -0.00050140697 0)
(0.26465975 -0.00058409507 0)
(0.26614995 -0.00067032251 0)
(0.26781064 -0.00076007314 0)
(0.26964698 -0.00085333581 0)
(0.27166375 -0.00095000853 0)
(0.27386548 -0.0010499481 0)
(0.27625619 -0.0011529131 0)
(0.27883934 -0.0012585833 0)
(0.28161759 -0.001366544 0)
(0.28459278 -0.0014762777 0)
(0.28776559 -0.0015871777 0)
(0.29113554 -0.0016985446 0)
(0.29470072 -0.0018095996 0)
(0.29845774 -0.0019194949 0)
(0.30240157 -0.0020273279 0)
(0.3065255 -0.0021321612 0)
(0.31082105 -0.0022330353 0)
(0.31527801 -0.0023289897 0)
(0.31988442 -0.0024190792 0)
(0.32462669 -0.0025023886 0)
(0.32948968 -0.0025780478 0)
(0.33445681 -0.0026452471 0)
(0.3395103 -0.0027032454 0)
(0.34463128 -0.002751382 0)
(0.34980007 -0.0027890871 0)
(0.35499638 -0.002815887 0)
(0.36019957 -0.0028314136 0)
(0.36538886 -0.0028354138 0)
(0.37054366 -0.0028277535 0)
(0.37564375 -0.0028084264 0)
(0.38066961 -0.0027775588 0)
(0.38560261 -0.0027354175 0)
(0.39042531 -0.0026824098 0)
(0.39512166 -0.0026190884 0)
(0.39967725 -0.0025461525 0)
(0.40407952 -0.0024644447 0)
(0.40831795 -0.0023749463 0)
(0.41238426 -0.0022787743 0)
(0.41627255 -0.0021771679 0)
(0.41997946 -0.0020714815 0)
(0.42350424 -0.0019631692 0)
(0.42684893 -0.0018537729 0)
(0.43001831 -0.0017449012 0)
(0.43302003 -0.0016382189 0)
(0.43586457 -0.0015354215 0)
(0.43856527 -0.001438224 0)
(0.44113822 -0.0013483371 0)
(0.44360228 -0.0012674583 0)
(0.44597895 -0.0011972402 0)
(0.44829228 -0.0011392925 0)
(0.45056878 -0.0010951522 0)
(0.4528373 -0.0010663113 0)
(0.45512893 -0.0010541893 0)
(0.45747689 -0.0010601688 0)
(0.45991648 -0.0010855704 0)
(0.46248499 -0.0011317185 0)
(0.46522179 -0.0011999171 0)
(0.46816823 -0.0012915595 0)
(0.47136799 -0.001408107 0)
(0.47486696 -0.0015512529 0)
(0.47871398 -0.0017228734 0)
(0.48296063 -0.0019253112 0)
(0.48766259 -0.002161273 0)
(0.49287917 -0.0024343484 0)
(0.4986758 -0.0027488002 0)
(0.50512267 -0.003110552 0)
(0.51229935 -0.0035267025 0)
(0.52029121 -0.0040075034 0)
(0.52919818 -0.0045652098 0)
(0.53912586 -0.0052180595 0)
(0.55020242 -0.0059874422 0)
(0.56255759 -0.0069058352 0)
(0.57635608 -0.0080096647 0)
(0.59174948 -0.0093548425 0)
(0.60894446 -0.010998813 0)
(0.62809484 -0.013030759 0)
(0.64944618 -0.015527637 0)
(0.67309622 -0.018614338 0)
(0.69931294 -0.022360793 0)
(0.7280018 -0.026909799 0)
(0.7594316 -0.032246198 0)
(0.79302302 -0.038492538 0)
(0.82907608 -0.045390424 0)
(0.86588472 -0.053044931 0)
(0.90408565 -0.060632223 0)
(0.93929955 -0.068543519 0)
(0.97387402 -0.074220494 0)
(0.99689145 -0.080410259 0)
(1.0166012 -0.074768887 0)
(1.0120319 -0.080167054 0)
(0.43998619 0.00039303488 0)
(0.43947268 0.00064227483 0)
(0.43900034 0.00054073201 0)
(0.43848054 0.00070124322 0)
(0.43784379 0.00069769088 0)
(0.43724449 0.0007921296 0)
(0.43652588 0.00082473698 0)
(0.43584702 0.00088273552 0)
(0.43508217 0.00091926883 0)
(0.4343485 0.00095424092 0)
(0.43356536 0.00097970104 0)
(0.43281105 0.0009947234 0)
(0.43204041 0.001002236 0)
(0.43130502 0.00099691782 0)
(0.43058398 0.00098342405 0)
(0.42991396 0.00095692939 0)
(0.42929016 0.00092048423 0)
(0.42873923 0.00086889703 0)
(0.42826447 0.00080157535 0)
(0.42788558 0.00071682222 0)
(0.42761128 0.00062092177 0)
(0.42746946 0.00051699092 0)
(0.42748315 0.00039712731 0)
(0.42766613 0.00024113946 0)
(0.42803762 6.0341742e-05 0)
(0.42858345 -0.00012490653 0)
(0.42927315 -0.00030675284 0)
(0.43013174 -0.0004835927 0)
(0.4311662 -0.00066340213 0)
(0.43238864 -0.00084897194 0)
(0.43380621 -0.0010404813 0)
(0.43542585 -0.0012388345 0)
(0.43725345 -0.0014443656 0)
(0.43929497 -0.001657381 0)
(0.4415559 -0.0018778768 0)
(0.4440417 -0.0021058361 0)
(0.44675729 -0.0023410733 0)
(0.44970736 -0.0025833557 0)
(0.45289595 -0.0028322829 0)
(0.45632655 -0.0030873343 0)
(0.46000182 -0.0033477873 0)
(0.46392353 -0.0036127311 0)
(0.46809231 -0.0038810366 0)
(0.47250752 -0.0041513449 0)
(0.477167 -0.0044220793 0)
(0.48206699 -0.0046914485 0)
(0.48720185 -0.0049574708 0)
(0.49256402 -0.0052180021 0)
(0.49814386 -0.005470773 0)
(0.50392962 -0.0057134362 0)
(0.50990741 -0.0059436101 0)
(0.51606123 -0.006158932 0)
(0.52237309 -0.0063571084 0)
(0.5288231 -0.0065359619 0)
(0.53538971 -0.0066934767 0)
(0.54204989 -0.0068278415 0)
(0.54877944 -0.0069374809 0)
(0.55555325 -0.0070210869 0)
(0.56234563 -0.0070776431 0)
(0.56913068 -0.0071064415 0)
(0.57588255 -0.0071070965 0)
(0.58257586 -0.0070795576 0)
(0.589186 -0.0070241119 0)
(0.59568945 -0.0069413889 0)
(0.60206413 -0.0068323586 0)
(0.60828964 -0.0066983304 0)
(0.61434757 -0.0065409435 0)
(0.62022174 -0.0063621585 0)
(0.62589844 -0.0061642446 0)
(0.63136659 -0.0059497629 0)
(0.63661796 -0.0057215436 0)
(0.64164729 -0.005482667 0)
(0.64645241 -0.0052364306 0)
(0.65103431 -0.0049863244 0)
(0.65539721 -0.0047359938 0)
(0.65954862 -0.0044892103 0)
(0.66349926 -0.0042498272 0)
(0.6672631 -0.0040217523 0)
(0.67085724 -0.0038088995 0)
(0.67430189 -0.0036151615 0)
(0.67762017 -0.0034443678 0)
(0.68083805 -0.0033002583 0)
(0.68398413 -0.0031864507 0)
(0.68708949 -0.0031064472 0)
(0.69018748 -0.0030635713 0)
(0.69331349 -0.0030610185 0)
(0.6965048 -0.0031017917 0)
(0.69980029 -0.0031887877 0)
(0.7032403 -0.0033247594 0)
(0.70686639 -0.0035124351 0)
(0.71072117 -0.0037544924 0)
(0.71484813 -0.0040537229 0)
(0.71929154 -0.0044130043 0)
(0.72409623 -0.0048355389 0)
(0.72930772 -0.0053248138 0)
(0.73497177 -0.0058849712 0)
(0.74113491 -0.0065207129 0)
(0.74784356 -0.0072378625 0)
(0.75514512 -0.0080431254 0)
(0.76308635 -0.0089450984 0)
(0.77171537 -0.0099536662 0)
(0.78107835 -0.011081911 0)
(0.79122354 -0.012344647 0)
(0.80219408 -0.013762158 0)
(0.81403633 -0.015356689 0)
(0.82678427 -0.017159845 0)
(0.84047702 -0.019204223 0)
(0.85512513 -0.021538053 0)
(0.87074867 -0.024205372 0)
(0.88730447 -0.027275111 0)
(0.90477149 -0.030794683 0)
(0.92299366 -0.034849302 0)
(0.94187783 -0.039455435 0)
(0.9610483 -0.044689253 0)
(0.98032085 -0.050445749 0)
(0.99891436 -0.056742079 0)
(1.0166222 -0.063159341 0)
(1.0319091 -0.069633681 0)
(1.0449124 -0.075008332 0)
(1.0525799 -0.079392825 0)
(1.0565629 -0.079562629 0)
(1.0507449 -0.07750851 0)
(1.0403478 -0.062574495 0)
(1.0190183 -0.047399821 0)
(0.59003596 0.00054404582 0)
(0.58966304 0.00096722332 0)
(0.58921506 0.00086217649 0)
(0.58879936 0.0010862901 0)
(0.58823748 0.0010969559 0)
(0.58774744 0.0012234269 0)
(0.58715045 0.0012688474 0)
(0.586612 0.0013427281 0)
(0.58601414 0.0013847692 0)
(0.58546532 0.0014233186 0)
(0.5848987 0.001445088 0)
(0.58438342 0.0014520955 0)
(0.58388616 0.0014443476 0)
(0.58345219 0.0014167769 0)
(0.58306871 0.0013705066 0)
(0.58276691 0.0012992999 0)
(0.58254561 0.0012065953 0)
(0.58242857 0.0010903628 0)
(0.58242613 0.00095440857 0)
(0.58256598 0.00079732679 0)
(0.58286366 0.00060837889 0)
(0.58333107 0.00037405537 0)
(0.58398408 0.00010980403 0)
(0.58480788 -0.00016833701 0)
(0.58576736 -0.00045109173 0)
(0.58688437 -0.00073192555 0)
(0.58817595 -0.0010209308 0)
(0.58966008 -0.0013246277 0)
(0.59134927 -0.0016389924 0)
(0.59325062 -0.0019640383 0)
(0.59537121 -0.0022996567 0)
(0.59771732 -0.0026462016 0)
(0.60029442 -0.0030037333 0)
(0.60310768 -0.0033722843 0)
(0.60616162 -0.0037516054 0)
(0.60946045 -0.0041413993 0)
(0.61300768 -0.0045411519 0)
(0.61680632 -0.0049502381 0)
(0.6208585 -0.0053677874 0)
(0.62516559 -0.0057927199 0)
(0.62972782 -0.006223651 0)
(0.63454434 -0.0066588979 0)
(0.63961286 -0.0070964384 0)
(0.64492961 -0.0075339034 0)
(0.65048914 -0.0079685893 0)
(0.65628414 -0.0083974726 0)
(0.66230537 -0.0088172505 0)
(0.66854154 -0.0092243913 0)
(0.67497924 -0.0096151996 0)
(0.68160298 -0.0099858937 0)
(0.68839518 -0.010332685 0)
(0.69533632 -0.010651867 0)
(0.70240502 -0.010939898 0)
(0.70957828 -0.011193485 0)
(0.7168317 -0.011409658 0)
(0.72413975 -0.011585837 0)
(0.73147609 -0.011719886 0)
(0.73881388 -0.011810161 0)
(0.74612613 -0.011855543 0)
(0.75338607 -0.011855459 0)
(0.76056749 -0.011809897 0)
(0.76764505 -0.011719412 0)
(0.77459468 -0.01158512 0)
(0.78139383 -0.011408692 0)
(0.7880218 -0.011192337 0)
(0.79445998 -0.01093878 0)
(0.80069208 -0.010651241 0)
(0.80670437 -0.010333402 0)
(0.8124858 -0.0099893728 0)
(0.8180282 -0.0096236599 0)
(0.82332633 -0.0092411173 0)
(0.82837801 -0.0088469096 0)
(0.83318414 -0.0084464566 0)
(0.83774871 -0.0080453913 0)
(0.84207881 -0.007649498 0)
(0.84618457 -0.0072646688 0)
(0.85007907 -0.0068968341 0)
(0.8537783 -0.0065519224 0)
(0.85730093 -0.0062357881 0)
(0.86066827 -0.0059541738 0)
(0.86390397 -0.0057126408 0)
(0.8670339 -0.0055165491 0)
(0.87008584 -0.0053709684 0)
(0.87308929 -0.0052806823 0)
(0.87607517 -0.0052501095 0)
(0.87907551 -0.0052833686 0)
(0.88212318 -0.0053842093 0)
(0.88525153 -0.0055560808 0)
(0.88849409 -0.0058020794 0)
(0.89188424 -0.006125071 0)
(0.89545493 -0.0065276473 0)
(0.89923826 -0.0070123139 0)
(0.90326532 -0.0075814617 0)
(0.90756569 -0.0082376069 0)
(0.91216733 -0.0089833226 0)
(0.91709601 -0.0098215964 0)
(0.92237536 -0.010755696 0)
(0.92802604 -0.01178973 0)
(0.93406607 -0.01292841 0)
(0.94050941 -0.014177962 0)
(0.94736688 -0.015545571 0)
(0.95464347 -0.017041088 0)
(0.96234061 -0.0186757 0)
(0.97045059 -0.020465206 0)
(0.97896166 -0.0224268 0)
(0.98784643 -0.024585378 0)
(0.99707317 -0.026965747 0)
(1.0065811 -0.029604766 0)
(1.0163063 -0.032532714 0)
(1.0261285 -0.035797086 0)
(1.0359315 -0.039419276 0)
(1.0454896 -0.04344393 0)
(1.0546125 -0.047841392 0)
(1.062896 -0.052619822 0)
(1.0700803 -0.057608206 0)
(1.0754795 -0.062735987 0)
(1.0788804 -0.067528801 0)
(1.079166 -0.071866117 0)
(1.0765769 -0.074651738 0)
(1.0693325 -0.076077921 0)
(1.0590759 -0.073453281 0)
(1.0434796 -0.068815484 0)
(1.0261591 -0.054127484 0)
(1.0099691 -0.037781399 0)
(0.7176229 0.00062450924 0)
(0.71753905 0.0012074641 0)
(0.71724468 0.0010968909 0)
(0.71710273 0.0013684663 0)
(0.71678638 0.0013840125 0)
(0.71659824 0.0015266844 0)
(0.71631755 0.0015717324 0)
(0.71613075 0.0016457837 0)
(0.71591393 0.0016773105 0)
(0.71577581 0.0017004982 0)
(0.71565254 0.00169658 0)
(0.71560819 0.001670334 0)
(0.71561314 0.0016194878 0)
(0.7157068 0.0015408366 0)
(0.715879 0.0014369069 0)
(0.71615999 0.0013040955 0)
(0.7165533 0.0011439368 0)
(0.71708075 0.00094800738 0)
(0.71774764 0.00070878952 0)
(0.71856341 0.0004228094 0)
(0.71954099 0.00010655794 0)
(0.7206539 -0.00023166344 0)
(0.72187958 -0.00058590955 0)
(0.72323729 -0.00094745879 0)
(0.72474755 -0.0013262164 0)
(0.72642922 -0.0017317039 0)
(0.72829894 -0.0021573359 0)
(0.73036269 -0.002599061 0)
(0.73262726 -0.0030566529 0)
(0.73510007 -0.003529529 0)
(0.73778699 -0.0040172365 0)
(0.74069353 -0.0045196008 0)
(0.74382418 -0.0050362355 0)
(0.74718298 -0.0055667891 0)
(0.75077317 -0.0061106361 0)
(0.75459749 -0.0066670711 0)
(0.75865784 -0.0072351195 0)
(0.76295537 -0.0078136211 0)
(0.76749023 -0.0084010886 0)
(0.77226155 -0.0089957298 0)
(0.7772672 -0.0095953468 0)
(0.78250377 -0.010197339 0)
(0.78796631 -0.010798658 0)
(0.7936483 -0.011395812 0)
(0.79954146 -0.011984882 0)
(0.80563572 -0.012561553 0)
(0.81191913 -0.013121179 0)
(0.8183778 -0.013658856 0)
(0.82499597 -0.014169515 0)
(0.83175599 -0.014648031 0)
(0.83863846 -0.015089337 0)
(0.84562236 -0.015488541 0)
(0.85268519 -0.015841044 0)
(0.85980322 -0.016142651 0)
(0.86695173 -0.016389665 0)
(0.87410529 -0.016578984 0)
(0.88123802 -0.016708163 0)
(0.88832397 -0.016775472 0)
(0.89533738 -0.016779937 0)
(0.90225304 -0.016721364 0)
(0.90904657 -0.01660034 0)
(0.91569478 -0.01641824 0)
(0.92217587 -0.016177202 0)
(0.9284698 -0.015880108 0)
(0.93455843 -0.015530549 0)
(0.9404258 -0.015132783 0)
(0.94605826 -0.014691693 0)
(0.95144468 -0.014212733 0)
(0.95657649 -0.013701875 0)
(0.96144784 -0.01316555 0)
(0.96605559 -0.012610582 0)
(0.97039939 -0.012044128 0)
(0.97448165 -0.011473603 0)
(0.97830748 -0.01090662 0)
(0.9818847 -0.0103509 0)
(0.98522366 -0.0098142186 0)
(0.98833719 -0.0093043114 0)
(0.99124046 -0.0088288178 0)
(0.99395076 -0.0083951855 0)
(0.99648736 -0.0080106174 0)
(0.99887126 -0.0076819844 0)
(1.001125 -0.0074157665 0)
(1.0032724 -0.0072179922 0)
(1.0053381 -0.0070942475 0)
(1.0073475 -0.0070495335 0)
(1.0093265 -0.0070883545 0)
(1.0113006 -0.0072145672 0)
(1.0132954 -0.0074315232 0)
(1.0153356 -0.007741974 0)
(1.0174451 -0.0081482446 0)
(1.0196461 -0.0086521596 0)
(1.0219596 -0.009255262 0)
(1.0244042 -0.0099587297 0)
(1.0269964 -0.010763661 0)
(1.0297501 -0.011670995 0)
(1.0326763 -0.012681918 0)
(1.0357828 -0.013797754 0)
(1.0390739 -0.015020442 0)
(1.0425502 -0.016352314 0)
(1.0462079 -0.017796887 0)
(1.0500392 -0.019358342 0)
(1.0540302 -0.021042909 0)
(1.0581628 -0.022857588 0)
(1.0624099 -0.024812742 0)
(1.0667396 -0.026919044 0)
(1.0711056 -0.029192417 0)
(1.0754561 -0.031646825 0)
(1.0797143 -0.034303905 0)
(1.0837982 -0.037176225 0)
(1.087581 -0.040286739 0)
(1.090938 -0.043630768 0)
(1.0936627 -0.04721795 0)
(1.0955842 -0.050987411 0)
(1.0963808 -0.054906448 0)
(1.0958728 -0.058780167 0)
(1.0935901 -0.062503703 0)
(1.0894908 -0.065610408 0)
(1.0829171 -0.067963147 0)
(1.074316 -0.068555531 0)
(1.0627672 -0.067539884 0)
(1.0497519 -0.062676418 0)
(1.0343462 -0.05555386 0)
(1.0187216 -0.041035045 0)
(1.0063665 -0.024395437 0)
(0.82174855 0.00056498462 0)
(0.822102 0.0012529894 0)
(0.82206646 0.0011263564 0)
(0.8223348 0.0014149407 0)
(0.82239378 0.0014173376 0)
(0.82264665 0.0015500078 0)
(0.82281653 0.0015718439 0)
(0.82311704 0.0016200174 0)
(0.82340903 0.0016168472 0)
(0.82380553 0.0016023802 0)
(0.82424066 0.0015547705 0)
(0.82477653 0.0014816829 0)
(0.82538373 0.0013784576 0)
(0.82609861 0.0012428468 0)
(0.82690972 0.001070056 0)
(0.82783722 0.00085267071 0)
(0.82887683 0.00059338291 0)
(0.83004442 0.00029417978 0)
(0.83132586 -3.5261167e-05 0)
(0.8327071 -0.00039629885 0)
(0.83417166 -0.0007807466 0)
(0.83574812 -0.0011827143 0)
(0.83744723 -0.0016134714 0)
(0.83928802 -0.0020807027 0)
(0.84128514 -0.0025780084 0)
(0.84344351 -0.0030989723 0)
(0.84576718 -0.0036433617 0)
(0.84826396 -0.0042104588 0)
(0.85094024 -0.004797913 0)
(0.85380168 -0.005404749 0)
(0.85685324 -0.006029824 0)
(0.86009924 -0.0066724569 0)
(0.86354318 -0.0073317902 0)
(0.86718797 -0.0080069992 0)
(0.87103564 -0.0086969922 0)
(0.87508755 -0.0094005439 0)
(0.87934407 -0.010116111 0)
(0.88380469 -0.010841884 0)
(0.88846774 -0.011575656 0)
(0.8933304 -0.012314825 0)
(0.89838849 -0.013056307 0)
(0.90363647 -0.013796535 0)
(0.90906723 -0.014531418 0)
(0.91467211 -0.015256366 0)
(0.92044079 -0.01596631 0)
(0.92636129 -0.016655759 0)
(0.93241993 -0.017318876 0)
(0.93860138 -0.017949582 0)
(0.94488871 -0.01854167 0)
(0.95126347 -0.019088939 0)
(0.95770584 -0.019585332 0)
(0.96419477 -0.020025081 0)
(0.97070815 -0.020402843 0)
(0.97722305 -0.020713833 0)
(0.98371595 -0.020953936 0)
(0.99016297 -0.021119811 0)
(0.99654016 -0.021208971 0)
(1.0028238 -0.021219841 0)
(1.0089905 -0.021151798 0)
(1.0150179 -0.021005194 0)
(1.0208844 -0.020781352 0)
(1.0265697 -0.020482556 0)
(1.0320551 -0.020112021 0)
(1.0373235 -0.019673849 0)
(1.0423597 -0.019172982 0)
(1.0471507 -0.018615138 0)
(1.0516854 -0.01800675 0)
(1.0559553 -0.017354892 0)
(1.0599541 -0.016667203 0)
(1.063678 -0.015951811 0)
(1.0671253 -0.015217243 0)
(1.0702973 -0.014472356 0)
(1.0731972 -0.013726228 0)
(1.0758306 -0.012988097 0)
(1.0782055 -0.012267241 0)
(1.080332 -0.01157292 0)
(1.0822221 -0.010914253 0)
(1.0838896 -0.01030016 0)
(1.0853501 -0.0097392403 0)
(1.0866207 -0.0092397169 0)
(1.0877195 -0.0088093206 0)
(1.0886659 -0.0084552795 0)
(1.0894799 -0.0081841435 0)
(1.090182 -0.008001786 0)
(1.090793 -0.0079132641 0)
(1.0913334 -0.0079229439 0)
(1.0918236 -0.0080343833 0)
(1.0922832 -0.0082504035 0)
(1.0927305 -0.0085729906 0)
(1.0931829 -0.0090034709 0)
(1.0936558 -0.0095424076 0)
(1.094163 -0.01018987 0)
(1.094716 -0.010945393 0)
(1.095324 -0.011808266 0)
(1.0959935 -0.012777422 0)
(1.0967281 -0.013851847 0)
(1.0975283 -0.015030379 0)
(1.0983913 -0.016312293 0)
(1.0993112 -0.017697079 0)
(1.1002776 -0.019185158 0)
(1.1012769 -0.020777406 0)
(1.1022901 -0.022476347 0)
(1.1032944 -0.02428506 0)
(1.1042596 -0.026209263 0)
(1.1051513 -0.028254682 0)
(1.1059238 -0.030430927 0)
(1.1065268 -0.032745221 0)
(1.1068909 -0.035209905 0)
(1.1069439 -0.037827922 0)
(1.1065802 -0.040608287 0)
(1.1057004 -0.043533518 0)
(1.1041461 -0.046594491 0)
(1.1017977 -0.049718592 0)
(1.0984277 -0.052855516 0)
(1.0939421 -0.055815971 0)
(1.0880369 -0.058496262 0)
(1.0807735 -0.060490301 0)
(1.0717696 -0.061702472 0)
(1.0615019 -0.061314901 0)
(1.0495303 -0.05951839 0)
(1.0370415 -0.054575305 0)
(1.0239842 -0.04770121 0)
(1.0116602 -0.035207559 0)
(1.0034084 -0.020176963 0)
(0.90352846 0.00032493417 0)
(0.90439259 0.0010471447 0)
(0.90466263 0.00090158388 0)
(0.90540446 0.0011783033 0)
(0.90588906 0.0011541539 0)
(0.90663321 0.001259176 0)
(0.90729368 0.001246307 0)
(0.908117 0.0012580725 0)
(0.90894376 0.0012121846 0)
(0.90989249 0.0011499227 0)
(0.91088865 0.0010459314 0)
(0.9119913 0.00090984748 0)
(0.91316753 0.00073550184 0)
(0.91444683 0.00052239231 0)
(0.91581594 0.00027382166 0)
(0.91727366 -9.7914221e-06 0)
(0.91880393 -0.00032949524 0)
(0.92040498 -0.00068350533 0)
(0.92207853 -0.0010645923 0)
(0.92384354 -0.0014750878 0)
(0.92570408 -0.0019245971 0)
(0.92767692 -0.002417425 0)
(0.92977082 -0.0029460522 0)
(0.93198889 -0.0035061444 0)
(0.93433271 -0.0040974648 0)
(0.93680898 -0.004720274 0)
(0.93942357 -0.0053711961 0)
(0.94218118 -0.006047765 0)
(0.94508645 -0.0067482129 0)
(0.94814402 -0.00747105 0)
(0.95135776 -0.0082149135 0)
(0.95473107 -0.0089786298 0)
(0.9582665 -0.009760883 0)
(0.96196596 -0.010560328 0)
(0.96583038 -0.011375329 0)
(0.96985991 -0.012204056 0)
(0.97405361 -0.013044303 0)
(0.97840955 -0.013893528 0)
(0.98292455 -0.014748719 0)
(0.98759422 -0.015606408 0)
(0.99241279 -0.016462577 0)
(0.99737314 -0.017312679 0)
(1.0024666 -0.018151597 0)
(1.0076832 -0.01897369 0)
(1.0130113 -0.019772824 0)
(1.0184379 -0.020542449 0)
(1.0239485 -0.021275692 0)
(1.0295274 -0.02196548 0)
(1.0351575 -0.022604674 0)
(1.0408206 -0.023186223 0)
(1.0464975 -0.023703318 0)
(1.0521681 -0.024149556 0)
(1.0578118 -0.024519091 0)
(1.0634074 -0.024806777 0)
(1.0689335 -0.025008298 0)
(1.0743686 -0.02512027 0)
(1.0796916 -0.025140332 0)
(1.0848815 -0.025067205 0)
(1.0899182 -0.02490073 0)
(1.0947825 -0.024641882 0)
(1.0994561 -0.024292768 0)
(1.103922 -0.023856598 0)
(1.1081649 -0.023337644 0)
(1.1121709 -0.022741187 0)
(1.1159279 -0.022073446 0)
(1.1194258 -0.021341505 0)
(1.1226563 -0.020553228 0)
(1.1256135 -0.019717169 0)
(1.1282932 -0.018842477 0)
(1.1306934 -0.017938807 0)
(1.1328145 -0.017016205 0)
(1.1346587 -0.016085028 0)
(1.1362302 -0.015155818 0)
(1.1375353 -0.014239223 0)
(1.1385822 -0.013345864 0)
(1.1393807 -0.012486265 0)
(1.1399423 -0.011670709 0)
(1.1402799 -0.010909175 0)
(1.1404078 -0.010211194 0)
(1.1403415 -0.0095857859 0)
(1.1400971 -0.0090413359 0)
(1.1396916 -0.0085854669 0)
(1.1391426 -0.0082250105 0)
(1.1384679 -0.0079660519 0)
(1.137685 -0.0078136501 0)
(1.1368113 -0.0077720325 0)
(1.1358636 -0.0078442702 0)
(1.1348579 -0.008032565 0)
(1.133809 -0.0083380676 0)
(1.1327306 -0.0087611598 0)
(1.1316347 -0.0093013131 0)
(1.1305313 -0.0099574191 0)
(1.1294288 -0.010727599 0)
(1.128333 -0.01160958 0)
(1.1272477 -0.012600554 0)
(1.1261744 -0.013697718 0)
(1.1251117 -0.014898183 0)
(1.1240556 -0.016199338 0)
(1.1229996 -0.017598665 0)
(1.1219337 -0.019094373 0)
(1.1208455 -0.020685012 0)
(1.1197186 -0.022370364 0)
(1.1185334 -0.024150463 0)
(1.1172651 -0.026027196 0)
(1.1158858 -0.028001919 0)
(1.114359 -0.030078435 0)
(1.112645 -0.032257497 0)
(1.1106901 -0.034542704 0)
(1.1084394 -0.036928086 0)
(1.1058135 -0.039410772 0)
(1.1027415 -0.04196346 0)
(1.0991093 -0.044564026 0)
(1.0948419 -0.047134652 0)
(1.0897851 -0.049616198 0)
(1.0839033 -0.051829774 0)
(1.0770042 -0.053672415 0)
(1.0691925 -0.054781701 0)
(1.0602411 -0.05506456 0)
(1.0505603 -0.053825597 0)
(1.039921 -0.051206369 0)
(1.0291553 -0.045883376 0)
(1.0184538 -0.03878224 0)
(1.0085206 -0.027713137 0)
(1.0022191 -0.014798362 0)
(0.9653507 -0.00010842602 0)
(0.96672399 0.00057473732 0)
(0.96729053 0.00039908181 0)
(0.96849198 0.00063529918 0)
(0.969379 0.00057322508 0)
(0.97058376 0.00063232359 0)
(0.97169207 0.00057083716 0)
(0.97298484 0.00052905115 0)
(0.974279 0.0004269323 0)
(0.97569843 0.00030971646 0)
(0.97715527 0.00015199537 0)
(0.97870347 -3.5625755e-05 0)
(0.98029991 -0.00026000228 0)
(0.98196822 -0.00051976154 0)
(0.98368321 -0.00081182965 0)
(0.98546786 -0.0011353523 0)
(0.98731579 -0.0014925859 0)
(0.98923661 -0.0018891591 0)
(0.99123214 -0.0023293996 0)
(0.99331414 -0.00281297 0)
(0.99548436 -0.0033344339 0)
(0.99774362 -0.0038924728 0)
(1.0000922 -0.004487978 0)
(1.0025357 -0.0051218343 0)
(1.005078 -0.0057910494 0)
(1.0077225 -0.0064926854 0)
(1.0104722 -0.007224914 0)
(1.0133314 -0.0079859496 0)
(1.0163039 -0.0087736273 0)
(1.0193931 -0.0095862701 0)
(1.0226023 -0.010422055 0)
(1.0259338 -0.011279348 0)
(1.0293893 -0.012156321 0)
(1.0329699 -0.013051059 0)
(1.0366754 -0.013961325 0)
(1.0405049 -0.014884623 0)
(1.0444566 -0.015818035 0)
(1.0485272 -0.016758244 0)
(1.0527126 -0.01770142 0)
(1.0570071 -0.018643226 0)
(1.0614041 -0.019578749 0)
(1.0658952 -0.02050252 0)
(1.0704712 -0.021408496 0)
(1.0751212 -0.022290114 0)
(1.0798333 -0.02314034 0)
(1.0845942 -0.023951757 0)
(1.0893895 -0.024716678 0)
(1.094204 -0.025427281 0)
(1.0990212 -0.026075756 0)
(1.1038241 -0.02665447 0)
(1.1085948 -0.027156137 0)
(1.1133152 -0.027573988 0)
(1.1179667 -0.027901931 0)
(1.1225305 -0.028134703 0)
(1.1269879 -0.028268001 0)
(1.1313204 -0.028298592 0)
(1.1355099 -0.0282244 0)
(1.1395389 -0.028044567 0)
(1.1433905 -0.027759487 0)
(1.1470488 -0.027370814 0)
(1.1504992 -0.026881454 0)
(1.1537281 -0.026295523 0)
(1.1567233 -0.025618301 0)
(1.1594741 -0.024856159 0)
(1.1619714 -0.024016479 0)
(1.164208 -0.023107566 0)
(1.1661782 -0.022138542 0)
(1.1678781 -0.021119251 0)
(1.1693057 -0.020060138 0)
(1.1704608 -0.018972151 0)
(1.1713451 -0.017866611 0)
(1.1719619 -0.016755116 0)
(1.1723163 -0.015649404 0)
(1.172415 -0.014561262 0)
(1.1722663 -0.013502379 0)
(1.17188 -0.01248427 0)
(1.1712672 -0.01151811 0)
(1.17044 -0.010614675 0)
(1.1694119 -0.0097841793 0)
(1.1681971 -0.0090361998 0)
(1.1668106 -0.0083795226 0)
(1.1652679 -0.0078222439 0)
(1.1635846 -0.0073714178 0)
(1.1617768 -0.0070330418 0)
(1.1598602 -0.0068118567 0)
(1.1578503 -0.0067116332 0)
(1.1557621 -0.0067350518 0)
(1.1536099 -0.006883705 0)
(1.1514067 -0.0071579644 0)
(1.1491644 -0.0075572602 0)
(1.1468935 -0.0080798494 0)
(1.1446029 -0.0087232423 0)
(1.1423 -0.0094841995 0)
(1.1399901 -0.010359106 0)
(1.1376768 -0.011343759 0)
(1.1353612 -0.012433917 0)
(1.1330426 -0.013624874 0)
(1.1307181 -0.01491224 0)
(1.1283826 -0.016291744 0)
(1.1260284 -0.017759786 0)
(1.1236459 -0.019312979 0)
(1.121222 -0.020949036 0)
(1.1187415 -0.022665873 0)
(1.1161849 -0.024462863 0)
(1.1135302 -0.026338813 0)
(1.1107487 -0.028294244 0)
(1.1078097 -0.030326658 0)
(1.1046711 -0.032435162 0)
(1.1012914 -0.034609846 0)
(1.0976096 -0.036842069 0)
(1.0935741 -0.039101154 0)
(1.0890996 -0.041359397 0)
(1.0841362 -0.043540783 0)
(1.0785725 -0.045585311 0)
(1.0723965 -0.047332058 0)
(1.0654764 -0.048688543 0)
(1.0579163 -0.049347445 0)
(1.0495808 -0.049234278 0)
(1.0408086 -0.047787094 0)
(1.0315336 -0.045117738 0)
(1.0223809 -0.040216545 0)
(1.0137407 -0.033716018 0)
(1.0060351 -0.024124172 0)
(1.0014118 -0.012689862 0)
(1.0102904 -0.00072714652 0)
(1.0121409 -0.00014472938 0)
(1.0129499 -0.0003462883 0)
(1.0145366 -0.00016895778 0)
(1.0157418 -0.00027211781 0)
(1.017306 -0.00026279621 0)
(1.0187459 -0.00036935488 0)
(1.0203727 -0.00045713816 0)
(1.0219769 -0.00060316433 0)
(1.0236939 -0.00076222176 0)
(1.0254334 -0.00095964692 0)
(1.027255 -0.0011836076 0)
(1.0291167 -0.0014420727 0)
(1.0310447 -0.001733352 0)
(1.0330206 -0.0020629564 0)
(1.0350601 -0.0024338357 0)
(1.0371569 -0.0028442899 0)
(1.0393183 -0.0032943448 0)
(1.0415394 -0.0037825823 0)
(1.0438214 -0.0043101284 0)
(1.0461636 -0.004878997 0)
(1.0485703 -0.0054902371 0)
(1.0510429 -0.0061412237 0)
(1.0535834 -0.0068301861 0)
(1.056193 -0.0075557069 0)
(1.0588748 -0.0083166056 0)
(1.0616318 -0.0091105297 0)
(1.0644671 -0.009935398 0)
(1.0673833 -0.010789074 0)
(1.0703833 -0.011669549 0)
(1.0734692 -0.012574732 0)
(1.0766428 -0.01350253 0)
(1.079905 -0.014450625 0)
(1.083256 -0.015416527 0)
(1.0866949 -0.016397381 0)
(1.0902202 -0.017390012 0)
(1.093829 -0.018390779 0)
(1.0975177 -0.0193956 0)
(1.1012811 -0.020399844 0)
(1.1051133 -0.021398353 0)
(1.1090068 -0.022385378 0)
(1.1129533 -0.023354619 0)
(1.1169432 -0.024299213 0)
(1.1209658 -0.025211809 0)