/*--------------------------------*- C++ -*----------------------------------*\
| =========                 |                                                 |
| \\      /  F ield         | foam-extend: Open Source CFD                    |
|  \\    /   O peration     | Version:     4.1                                |
|   \\  /    A nd           | Web:         http://www.foam-extend.org         |
|    \\/     M anipulation  |                                                 |
\*---------------------------------------------------------------------------*/
FoamFile
{
    version     2.0;
    format      ascii;
    class       volScalarField;
    location    "1";
    object      p;
}
// * * * * * * * * * * * * * * * * * * * * * * * * * * * * * * * * * * * * * //

dimensions      [0 2 -2 0 0 0 0];

internalField   nonuniform List<scalar> 
4242
(
-13465.847
-13071.679
-12678.219
-12188.933
-11641.732
-11018.02
-10316.409
-9538.3656
-8690.385
-7785.7748
-6844.855
-5893.6733
-4963.1847
-4092.1171
-3313.6346
-2561.6736
-15923.41
-15421.573
-14996.106
-14477.768
-13904.46
-13258.674
-12543.133
-11759.106
-10910.671
-10005.441
-9054.9985
-8074.8984
-7084.9741
-6113.1351
-5194.5332
-4325.9013
-19776.316
-19157.348
-18686.512
-18094.901
-17439.284
-16699.475
-15878.882
-14977.833
-14000.826
-12956.11
-11855.835
-10715.745
-9554.434
-8393.7762
-7261.5431
-6200.6962
-24376.483
-23642.534
-23115.396
-22416.315
-21643.161
-20765.955
-19788.377
-18709.251
-17533.485
-16270.718
-14935.964
-13549.476
-12135.758
-10721.502
-9333.9252
-8026.6437
-27849.814
-27025.032
-26465.117
-25684.702
-24832.726
-23859.805
-22771.919
-21566.01
-20246.929
-18824.605
-17315.34
-15741.746
-14131.94
-12517.435
-10927.858
-9390.5974
-29648.391
-28760.624
-28192.978
-27370.64
-26485.648
-25469.677
-24332.8
-23070.515
-21687.457
-20193.212
-18604.137
-16943.233
-15239.402
-13526.028
-11837.106
-10221.172
-29782.917
-28873.012
-28321.247
-27500.489
-26622.684
-25613.545
-24484.523
-23231.175
-21857.802
-20373.667
-18794.719
-17143.453
-15448.12
-13741.546
-12055.465
-10442.36
-28314.337
-27429.3
-26909.858
-26132.387
-25295.848
-24337.956
-23266.787
-22079.617
-20780.703
-19379.322
-17890.885
-16336.733
-14743.191
-13140.567
-11555.622
-10039.206
-25373.493
-24562.918
-24090.69
-23396.803
-22637.275
-21775.213
-20812.698
-19748.894
-18588.24
-17339.879
-16018.205
-14642.65
-13236.781
-11828.017
-10440.654
-9119.8791
-21179.356
-20491.761
-20078.376
-19504.615
-18859.954
-18136.404
-17332.041
-16446.618
-15484.509
-14453.989
-13367.26
-12240.167
-11091.262
-9941.7897
-8810.8489
-7735.08
-15928.184
-15418.444
-15087.712
-14666.914
-14181.337
-13642.507
-13048.906
-12399.117
-11696.239
-10946.484
-10158.24
-9341.3373
-8505.5944
-7659.662
-6805.5423
-5940.9458
-11244.248
-10931.731
-10690.247
-10428.229
-10100.325
-9717.6759
-9292.3192
-8829.0544
-8332.7974
-7810.6311
-7270.3895
-6718.8019
-6159.6772
-5593.2749
-5015.1217
-4371.5456
-3658.8489
-3390.5227
-3165.987
-2898.0922
-2599.1505
-2269.6098
-1912.865
-1534.6947
-1143.3221
-749.33031
-365.22282
-4.8996094
315.294
576.58215
781.58597
993.04383
1363.8829
1538.478
1696.2117
1873.5879
2065.7632
2270.1082
2482.0694
2694.949
2899.7266
3085.1847
3238.5582
3346.4759
3394.9673
3369.0077
3262.4331
3113.8517
6070.0901
6161.845
6246.9629
6336.6343
6427.2651
6514.1649
6590.8656
6648.92
6677.9626
6666.181
6601.3256
6471.7651
6266.2774
5974.3725
5600.8781
5204.7055
9804.7137
9836.9568
9862.8448
9881.6608
9889.2017
9879.4455
9844.584
9774.9803
9659.3932
9485.6641
9241.8725
8917.1767
8501.1971
7985.6437
7383.3717
6766.5027
12187.399
12187.653
12178.506
12155.107
12112.004
12042.135
11936.745
11785.466
11576.717
11298.564
10939.908
10491.004
9942.8043
9292.0297
8572.2738
7896.8836
-19816.297
-19196.857
-18725.506
-18133.287
-17476.775
-16735.78
-15913.604
-15010.539
-14031.101
-12983.665
-11880.636
-10738.103
-9574.9984
-8414.1276
-7286.4995
-6234.165
12724.314
12712.869
12689.791
12651.168
12591.724
12504.83
12382.461
12215.27
11992.87
11704.444
11339.717
10890.12
10349.903
9718.2306
9005.6792
8248.4584
12748.648
12736.885
12713.111
12673.375
12612.334
12523.302
12398.247
12227.892
12002.041
11710.201
11342.522
10890.866
10349.976
9720.333
9016.2754
8278.9954
12200.553
12200.423
12190.658
12166.369
12122.041
12050.562
11943.148
11789.45
11577.992
11297.065
10935.908
10485.148
9936.2156
9287.3657
8575.624
7913.4702
9779.6553
9812.1633
9838.3655
9857.4447
9865.1356
9855.3568
9820.2455
9750.1249
9633.7531
9459.072
9214.39
8888.7609
8469.8976
7946.1387
7338.6006
6764.951
6030.7555
6123.3966
6209.5162
6300.3508
6392.308
6480.6888
6559.0153
6618.8286
6649.7564
6640.0557
6577.7116
6450.8614
6244.9735
5942.9514
5563.6895
5253.4648
1346.1384
1521.71
1680.3866
1858.9846
2052.6811
2258.8897
2473.1117
2688.7112
2896.7322
3086.0548
3244.1105
3357.5797
3411.4718
3389.4809
3289.7136
3144.8225
-3650.6426
-3381.7625
-3157.0045
-2888.694
-2589.2517
-2259.123
-1901.7039
-1522.7797
-1130.6077
-735.84167
-351.08531
9.5280139
328.73041
585.53446
780.62974
985.25545
-11261.598
-10949.041
-10707.19
-10444.821
-10116.396
-9732.9373
-9306.4116
-8841.5342
-8343.1338
-7818.2297
-7274.6098
-6718.9046
-6154.482
-5580.3351
-4985.4663
-4331.9841
-15951.518
-15441.397
-15110.135
-14688.871
-14202.625
-13662.892
-13068.12
-12416.859
-11712.225
-10960.544
-10170.458
-9352.2224
-8516.2815
-7672.6323
-6824.8942
-5989.9641
-21211.541
-20523.314
-20109.326
-19534.929
-18889.378
-18164.682
-17358.866
-16471.676
-15507.549
-14474.939
-13386.37
-12258.125
-11109.17
-9961.223
-8831.6831
-7762.2333
-25412.034
-24600.731
-24127.879
-23433.213
-22672.637
-21809.228
-20845
-19779.117
-18616.101
-17365.314
-16041.53
-14664.666
-13258.771
-11851.774
-10466.493
-9155.4142
-28356.262
-27470.495
-26950.43
-26172.11
-25334.438
-24375.064
-23301.982
-22112.466
-20810.852
-19406.648
-17915.645
-16359.652
-14765.4
-13163.211
-11577.584
-10065.435
-29826.391
-28915.795
-28363.437
-27541.836
-26662.884
-25652.222
-24521.201
-23265.375
-21889.12
-20401.932
-18820.146
-17166.737
-15470.348
-13763.508
-12076.263
-10467.66
-29692.545
-28804.148
-28235.959
-27412.832
-26526.739
-25509.285
-24370.437
-23105.684
-21719.734
-20222.401
-18630.428
-16967.306
-15262.278
-13548.263
-11858.659
-10246.951
-27893.882
-27068.537
-26508.117
-25726.982
-24873.969
-23899.639
-22809.864
-21601.572
-20279.684
-18854.35
-17342.265
-15766.555
-14155.643
-12540.734
-10952.201
-9419.6457
-24419.508
-23685.049
-23157.424
-22457.69
-21683.565
-20805.041
-19825.686
-18744.301
-17565.851
-16300.174
-14962.665
-13574.078
-12159.248
-10745.063
-9360.6698
-8059.7988
-15956.578
-15454.415
-15028.535
-14509.798
-13935.867
-13289.26
-12572.61
-11787.123
-10936.832
-10029.355
-9076.349
-8093.5708
-7101.3491
-6128.9835
-5213.3174
-4341.389
-13488.618
-13094.509
-12701.035
-12211.911
-11664.713
-11040.827
-10338.734
-9559.7547
-8710.2646
-7803.543
-6860.0844
-5906.5123
-4974.9531
-4105.8231
-3333.5332
-2591.0087
-1377.5119
-1310.1736
-1224.3985
-1155.0237
-1139.3388
-1188.4417
-1297.0471
-1456.3632
-1654.3587
-1873.1216
-2089.4806
-2277.3754
-2410.843
-2468.5266
-2445.7556
-2331.3886
-1813.3656
-1778.1316
-1764.2325
-1754.0537
-1726.6133
-1698.2668
-1699.7971
-1742.453
-1809.7025
-1881.4741
-1944.8121
-1984.3432
-1981.4481
-1921.8605
-1807.8747
-1648.2813
-1947.451
-1915.5193
-1892.4236
-1871.1153
-1859.8238
-1860.5421
-1844.7572
-1786.5304
-1704.8839
-1645.6226
-1617.6187
-1568.1741
-1454.1376
-1265.1489
-1018.5123
-730.61372
-2052.4869
-2027.7477
-2008.3827
-1992.577
-1980.723
-1974.8318
-1983.324
-2024.2158
-2106.0079
-2181.8587
-2157.5334
-1972.7717
-1540.6343
-1016.8044
-496.60424
-6.2301776
-1476.8373
-1475.3228
-1481.9217
-1498.5443
-1526.5553
-1567.5253
-1622.7549
-1693.097
-1780.5729
-1892.8348
-1966.5605
-1834.828
-1333.8463
-665.88695
27.685823
704.71602
-343.42213
-356.96629
-380.5517
-415.26672
-462.51155
-523.21889
-597.39552
-685.60816
-793.3115
-924.36825
-1029.415
-928.52779
-577.83187
-22.901392
611.63841
1236.0624
-335.92741
-349.67554
-373.69352
-409.12736
-457.44621
-519.63262
-595.72383
-686.20369
-795.60536
-924.27344
-1017.4168
-901.614
-538.8413
5.6686079
595.97885
1203.4612
-1490.531
-1489.1972
-1496.0894
-1513.0931
-1541.5497
-1582.9928
-1638.8018
-1710.1778
-1798.0179
-1901.8042
-1947.734
-1786.2692
-1279.6517
-608.55475
88.342229
764.386
-2077.4971
-2052.6254
-2033.1748
-2017.3348
-2005.5547
-1999.9198
-2008.9375
-2050.7883
-2132.8606
-2202.3327
-2161.7816
-1955.4434
-1512.9831
-976.81278
-437.57051
87.846874
-1974.1162
-1941.9142
-1918.6891
-1897.37
-1886.1807
-1887.1921
-1871.9505
-1814.3082
-1733.0121
-1672.328
-1637.2413
-1576.1229
-1448.5242
-1245.6652
-986.71685
-686.63643
-1831.3849
-1795.9612
-1781.9755
-1771.8241
-1744.3103
-1715.647
-1716.6492
-1758.5229
-1824.3526
-1893.8063
-1953.6129
-1988.3374
-1979.8576
-1914.8464
-1798.4355
-1619.1625
-1388.3549
-1321.1128
-1235.3955
-1166.0347
-1150.288
-1199.1982
-1307.4362
-1466.1767
-1663.3475
-1880.9714
-2095.7783
-2281.6266
-2412.6165
-2468.2201
-2448.0097
-2325.3076
-6381.4345
-7924.3818
-7479.2749
-7074.9321
-6600.0542
-6069.8401
-5492.6012
-4874.8341
-4229.0192
-3572.2083
-2923.8604
-2307.4366
-1755.3267
-1278.8164
-774.30959
-6404.3994
-7940.453
-7496.6711
-7092.15
-6616.9647
-6086.2819
-5508.3129
-4889.4538
-4242.1877
-3583.6744
-2933.7216
-2316.1155
-1762.4881
-1280.0734
-783.63711
-3689.6826
-5169.3219
-5163.5463
-4991.068
-4899.5246
-4832.8543
-4756.1826
-4663.2396
-4552.5336
-4420.7773
-4262.3688
-4069.1563
-3833.6533
-3556.0988
-3086.2367
-3675.4443
-5156.7111
-5150.1002
-4977.7215
-4886.5902
-4820.5367
-4744.8017
-4653.2049
-4544.3319
-4415.0044
-4259.7669
-4070.732
-3839.4535
-3570.4419
-3191.855
-4470.304
-4503.6634
-3945.3031
-3925.4443
-342.19202
-841.89129
2371.4307
-803.70027
-1448.41
71.214727
206.90553
446.2054
442.72201
-468.41366
-606.96244
-22.052606
1437.2555
-1416.3565
290.43996
-1879.8428
-528.2343
-2456.9615
-1638.6318
-1828.8302
-1749.7982
1497.4186
493.41305
592.61714
940.52136
23.009086
-513.52966
-1864.6591
-972.23242
-3261.2746
43.719366
-299.51233
-909.90481
-1372.5715
1227.5255
-755.65138
25.112667
1140.2993
-830.97017
-588.1333
746.62099
-14.376744
431.29818
-3171.1741
427.62695
2982.683
-350.44156
839.26158
354.74481
348.57439
-4071.8733
5206.2902
1515.6043
-672.22519
-3819.2642
-1196.0031
-726.55189
209.39942
583.0651
-508.14385
-446.3616
348.16083
328.28773
-505.27609
-4411.2698
-431.30811
34.06775
-333.95555
-836.72891
-368.88285
165.59054
-1555.3913
240.62877
-45.147171
-47.701922
505.67375
-770.88336
144.92377
-98.724393
-56.362304
-303.37585
-3218.0789
-3463.4463
-444.61769
-655.32401
-1030.4517
555.7903
-6.0721029
-3650.2734
-44.453232
-619.89601
8.2658538
3331.9351
-1091.355
988.18864
1236.7793
-6.2673966
2668.8282
-3935.5383
1347.3501
-38.520643
-678.7863
4.8494413
19.208157
-655.42327
-1535.0361
-837.72634
-35.563996
-824.53323
-3358.2091
-4519.729
1743.552
-891.32759
641.141
-2026.0537
-87.118912
2015.1487
75.247417
-47.135059
1826.7296
1711.0799
-860.22398
1161.7206
-876.88579
-2566.7175
1080.7617
-325.39091
-3306.1528
-888.61005
1523.117
-1016.1093
564.6887
-39.465633
-47.498276
-13.167328
-1097.0678
2761.3194
-4.2611637
-4055.1389
-595.72908
961.34199
-704.73512
-1541.9638
-497.14863
-8.2972561
-4.2248299
-561.91804
-828.20771
-249.37315
291.65317
277.68709
-483.29452
136.77383
1990.6938
-82.582701
845.53716
-3541.7633
-340.76355
-108.40716
-0.19752178
-8376.3772
-8356.6118
1075.9125
1571.9925
-261.3948
-53.289492
-255.92802
276.63274
-1866.0642
-27.804276
-1741.8574
3136.2253
125.34408
-36.836104
-433.89976
1059.382
-151.65254
-38.236442
-536.39375
-347.41015
353.98768
-1708.6913
-1349.9801
232.43954
206.16184
475.04282
1012.9884
-31.669855
230.98454
-781.16359
-57.638716
-26.891947
-2090.9927
1427.3237
-417.10246
627.97341
-23.712623
112.60028
207.0141
3504.4844
343.76442
168.61717
-2453.8463
-157.57557
1593.4221
607.92106
1325.1357
-103.43276
1975.501
-9.2142702
-489.30831
-348.53947
-190.15772
156.10411
-52.371974
55.273308
-48.464312
862.55374
1170.7493
491.89819
-740.00371
-922.41712
-87.494525
-26.997192
-615.86799
1658.3874
1645.9208
-19.886963
-1102.195
556.34377
1685.3735
2360.2089
-64.807862
-1261.3316
-2302.8188
262.89565
-175.16247
940.11805
-715.47572
-52.756924
57.536367
32.131346
247.65803
-1305.1785
2252.0402
-371.37015
-1286.7177
606.57826
46.398878
-1354.0982
382.25333
3258.1095
-1.2142163
11.678625
-1387.1401
5.4238496
1379.4559
182.70729
-42.855978
-640.42546
-786.71578
-19.153082
-65.621965
-89.639462
-435.40893
-251.67417
43.334671
-933.25957
-39.773182
-565.95314
37.574034
-472.66461
-181.80987
1420.4614
-1984.6921
-134.11564
2054.5733
1639.9781
-276.29167
32.479468
-203.36268
-116.00415
119.68945
-3006.3861
891.36744
-1756.4864
-15.66942
-290.44055
189.07087
-234.16348
343.90877
918.50173
-2920.6694
19.598681
2082.0633
-879.27707
150.37522
974.56624
238.83877
-888.36234
67.50295
-2238.9266
-1564.1819
2412.2665
3243.9635
-955.42635
200.95593
-127.32503
-577.64033
1101.7082
-2329.1905
-820.41644
-22.434412
-894.02176
-240.73859
-62.67982
103.86491
57.899641
3932.0996
-895.43766
-2509.6678
1285.4008
40.006655
-37.28705
79.055708
-392.30464
-2618.89
43.012389
-15.109976
-9.8047762
5165.2775
-239.12964
-296.92397
788.01786
-1005.129
-2347.0073
-528.39591
-13.452206
-73.367224
18.942323
-3172.007
-995.78179
-21.124066
1828.4477
-2.6246767
11.790327
-3058.2381
53.404048
-1557.9061
27.101527
-13.738782
-4395.0425
526.25688
263.44281
-546.25226
-3117.8614
-902.10798
-86.969408
-2256.9252
530.98842
201.36334
706.75491
-16.27797
-4008.5356
2602.3358
1208.8101
148.14373
-3073.5368
4.2065556
1468.5958
-3031.7039
-3630.0411
3441.25
-77.045075
223.67766
268.45002
561.45355
-1256.8083
-3538.7071
138.60496
-1130.2019
1528.6673
1207.8474
-398.71818
-1232.428
-277.59825
-624.36722
-4.2924074
189.48569
-4780.1795
-34.472931
267.34255
-4679.0392
-46.320133
128.00828
-648.29802
-187.79569
530.91265
4747.7156
-926.29919
36.846084
-1386.6259
42.374491
-2419.8547
775.00561
-1132.6575
-501.22865
-194.38996
643.18344
-62.222368
-277.16805
639.13308
-42.951465
-326.61454
-211.61759
261.06534
289.09587
-10.600613
-708.63922
-26.275384
-976.50219
-135.70422
-503.5174
524.00409
1598.8138
2445.7387
-2529.3742
-22.962451
1312.9144
23.516854
324.01914
288.08068
-822.33753
-874.42377
1397.2629
168.44658
4.9893004
-2352.3989
-2284.1095
-432.01676
-3488.2843
-1904.8089
-621.00217
-15.290212
-2577.2272
-972.71877
-50.216893
-47.058833
-534.61618
788.71806
-53.909645
-1763.0812
-2504.2701
-9.446257
-1300.6227
63.385557
-853.61243
-200.83444
3.2292208
324.75103
351.28949
1799.8749
157.76444
-667.64229
221.25629
659.91224
546.73702
1049.8885
1362.6252
-872.12209
669.0448
-83.294133
2214.9483
-288.65323
-226.63217
-827.57945
-66.058133
-52.46088
5347.1339
-133.94966
-838.25664
-2187.2286
-1146.8232
-18.558956
-1688.4895
-3515.1902
-25.665702
903.02827
502.46403
-4130.4368
870.37995
18.390905
-1331.408
-757.38666
-3420.0849
-745.88779
-147.96711
166.95226
4.3862366
-408.8912
286.41729
-204.75821
2331.81
267.28287
243.2376
-1191.5016
-8038.9237
-656.41947
-5.0531173
1061.6504
-1.9401391
-109.49093
-936.16629
-538.10548
-2185.2904
-8018.8532
-164.74909
570.46502
-38.476163
684.43476
-72.660027
-620.67663
308.96006
-171.76113
-4034.9519
-450.73306
-2379.2486
207.70787
-3245.0806
1608.4063
301.27383
-3539.675
1536.8504
111.28947
-4554.6741
1472.3362
383.48383
386.42625
624.92505
559.17621
-7409.1148
-1225.8184
-2670.9068
-54.592399
-2587.0091
1483.0372
709.16363
701.79653
200.07701
-1046.7272
-613.29675
-1.6094304
-23.614031
1403.0181
-2158.6827
-765.3431
11.083649
-7416.4179
2373.6114
-2658.9772
-1130.3828
-173.83218
-3252.3724
-2074.6471
-83.155882
-4791.285
-984.73533
-392.07414
578.72286
612.17677
-606.88187
-2244.5074
-3079.4358
1499.5325
2291.3344
2153.787
416.63787
-124.85576
681.1807
1325.8694
2419.2946
1012.1522
3257.0204
-19.698708
533.3354
1027.9995
49.556972
-578.23225
-8.809134
861.29061
1623.8776
466.59725
-4754.8279
557.17924
-261.03866
5338.2583
793.44562
-17.381338
5108.5141
1528.5666
-762.1456
-789.38448
1250.4283
5079.5209
-1955.4052
-303.0992
1219.8856
-176.40116
2978.391
1234.0568
1336.5358
-881.87499
5.3240278
1519.695
1362.8821
5324.8804
384.32458
-41.195118
570.22585
-1268.9705
-1129.4501
-883.55665
-4126.1392
5298.3128
-616.13042
-27.635534
-582.90096
2472.4503
2015.7018
-2209.2407
-2151.9841
30.54444
1231.251
-2475.4111
-4023.6929
-1183.151
-1878.8536
299.34418
289.71673
-268.02936
-518.64141
-218.41876
289.94433
-601.5624
-1627.0602
849.34386
-799.505
-311.98103
-2564.3289
4359.0124
-1846.2274
317.30435
-21.5203
73.020217
566.18118
-679.57849
5002.0906
-627.67754
-10.149952
892.98775
-53.84268
-3960.4861
-60.02458
-1117.2274
2.6132155
-572.46463
101.22764
-2659.3031
2263.8248
-2537.0824
30.83304
473.18216
-1691.0578
1766.0312
-80.404995
2400.5791
-514.02714
6329.1804
-238.15831
-420.66071
-3878.5669
3823.4326
-2723.2378
-12.085095
-28.020266
124.03246
41.650572
-3649.8404
695.07878
577.61228
356.92466
-6928.214
-10.878095
651.32144
-38.730953
-6937.645
391.05123
21.335813
-1909.7816
-62.338695
111.37974
1386.1507
-1015.422
-5132.5461
434.93723
-442.12569
7.6753076
11.987462
-847.16562
-1165.8562
507.69271
-222.36039
766.35067
-499.38879
2212.8568
-5132.084
-288.64129
-619.54055
-5021.4946
636.99282
1405.0381
11.572725
-1017.9063
-53.29395
1294.6213
1074.2442
-1342.4055
286.05865
-4.6281607
-688.26829
581.1076
1689.5564
574.45539
-277.89499
1362.3914
26.475651
-5006.3436
927.79441
-170.92068
-1542.9395
-188.75937
-428.79504
-893.03498
-76.241603
-488.11771
-992.76307
91.888637
-15.677776
-1826.6553
-854.38803
-779.93104
-705.90985
-291.55776
-3179.6163
-1969.9657
-1915.3452
495.65714
-1864.9233
2503.9681
119.07384
424.3223
-860.41986
465.78081
-2939.8776
69.715758
-1539.9379
-3242.3815
-935.1037
-194.5181
-1688.9479
-679.60864
-441.61423
42.752522
-852.2912
1219.8576
-261.64669
1.7180491
603.69372
1279.1203
-1070.5082
2389.3048
-1418.6863
7476.7675
950.57118
-1451.4732
-529.59851
10.508437
370.98003
1678.0996
-815.44359
-15.910436
-74.686236
122.54556
533.82763
-270.40076
-12.400119
-120.31944
-12.175713
2314.5531
-32.468648
1107.9956
1628.2656
1398.3723
1280.5698
1045.0788
529.48396
-31.882081
509.93449
-848.10607
-417.23372
3.7918138
45.285972
2450.7973
-1155.5528
-2322.7571
245.03454
1449.5145
-428.52178
1580.2954
694.07381
-692.56538
3017.2183
53.409722
-183.61515
-386.80688
8.6961689
-1.4491711
-275.65113
89.124106
5260.3227
-138.89585
-401.8749
954.508
87.037015
128.93574
17.443508
-73.19788
1499.3621
-646.33073
-494.59686
-138.91805
753.99013
109.22255
366.88402
-273.38414
-22.881445
-51.768853
377.11883
1184.4505
484.93875
-1114.2583
10.818527
-27.584452
-1781.0247
464.45643
-188.23362
-396.60977
4889.9113
-1030.3552
4867.3889
-2382.9161
-1162.5656
164.68966
-629.0152
642.05911
-31.192588
1931.2116
-5.8871336
1225.4326
-275.88432
-1115.8748
-1364.8313
-4747.9
420.94943
-31.219206
-587.4846
1423.3079
-899.36898
1437.5218
-872.22345
-278.9965
1170.0077
555.88719
-76.380762
268.29911
-176.23878
-4658.4454
129.85933
7339.6463
-3584.9625
-1077.119
38.912278
4247.7099
600.2124
-5138.2429
-780.8306
-8.5132731
-429.00057
-911.4071
-4430.5948
-448.11558
567.53879
-4349.4549
-810.79159
869.12403
35.897747
-225.22373
-414.98025
-26.898684
77.826123
1.8654627
596.29184
117.06924
-5.3873578
-437.33622
1620.3602
1020.7724
2455.6318
1328.3438
-2365.4898
-3488.1373
25.545976
-1358.1542
107.88574
-4525.3067
-1967.2803
-795.451
-666.71165
-1384.8044
1403.9652
-826.33922
16.119165
-930.16301
-167.99048
1383.4908
-359.02391
110.03326
40.566703
-4652.3003
-741.84775
43.229569
-22.928619
15.882392
746.1461
403.91541
6595.6376
-6.7827783
-3.4912496
-52.568297
-341.61052
-4329.2582
-2425.0193
-1135.8873
-1342.2486
-1097.0896
2329.6886
3819.5223
-4045.7483
-15.336353
1703.504
-4796.858
-458.74178
434.45908
-3459.389
-3742.4723
816.42857
68.662281
613.40318
-24.742674
-316.82481
-1358.1148
1363.1922
2964.7567
-3414.6322
167.39112
3322.0651
-69.93638
378.83227
-287.22402
2031.1369
-348.13371
-343.89304
82.363805
-9.1170251
-186.26253
-2422.4138
6024.9628
-2868.157
-2557.1959
-141.23003
-2413.5617
3817.2893
-2328.1845
1460.3049
-1111.2248
-2011.2106
-32.421017
166.62779
335.60894
-1238.6741
72.801232
-3337.8194
432.30012
1091.4418
2745.2553
-1558.7331
-1656.6172
1399.2289
-395.39685
89.144654
-190.77843
-4902.8997
-2977.5038
-594.59697
-445.19162
-1006.112
-61.378138
602.94943
1653.3326
662.32577
-3274.9249
-65.231749
-1861.5807
-129.65884
47.392735
2827.4676
1545.8761
-77.006554
1381.5423
-603.91419
1677.1388
156.48184
-378.56776
826.92083
3683.5934
-8809.4889
1063.5565
-115.43806
-2520.5541
3.6481088
-8785.3827
-59.409765
971.55205
-1599.911
-31.572458
757.55675
-408.01408
271.41557
-3594.3902
-5206.4172
-188.0046
-74.712689
125.54669
-257.62549
2344.9481
-2751.6246
-2414.843
1469.1278
-35.317115
-2995.4836
103.44876
551.11014
972.378
-2696.6702
208.11357
221.05203
-713.38619
-407.2613
-1683.6483
-16.307936
55.6205
-4265.1046
105.69154
79.009023
-771.28253
-283.233
-5998.7846
-220.18121
4565.879
-5916.15
2255.4467
-2678.5795
-115.09264
1686.4888
-154.83402
-708.97535
-8037.6334
-942.10678
6004.6452
90.046579
-4163.1135
-2493.6754
669.04355
-8002.6052
481.94292
-62.656966
2587.1639
62.467237
232.06068
-102.61672
1883.5792
-765.6022
-29.420192
-225.25329
-3189.8479
21.754323
401.91606
-937.15795
-656.14861
96.236791
-34.544359
719.21713
7526.0694
-62.002769
1795.3516
-1391.0317
1088.1605
475.357
386.97552
4688.0163
-146.74905
1461.5336
2011.7438
-1333.5521
1621.2697
-3975.9919
-891.03814
4.9885886
349.9779
-235.96589
3.1848926
-537.88368
264.29489
217.77081
-2083.107
6588.4869
-2233.8503
1277.6595
-3879.2933
1097.1883
825.8721
-1088.6239
3026.7392
1511.5105
520.47808
851.14301
-264.43337
-89.41723
393.10929
-491.599
-250.36676
-6900.7395
-6860.236
-134.95665
-533.75246
-225.08609
-28.588057
-891.1831
-112.69254
-173.59519
-2597.1628
-86.648013
-837.6658
-1172.428
-2.9183229
-831.68024
500.79679
-546.20899
-14.76676
451.33832
-8592.6279
1740.1002
7.7246847
-830.18515
1536.15
-1379.9751
-8568.0171
-106.08668
19.717114
-1772.2141
854.14307
-243.76383
-6988.3898
-3.3168373
2380.7384
-916.29521
105.43331
-16.296007
-404.06354
-6910.6206
1487.2852
42.990815
-1938.1089
-8.9363313
-926.52007
-3513.63
1136.3916
1099.8509
-97.78344
882.62689
-168.90419
-1904.6263
-3416.8384
122.54706
-395.22972
-779.09956
-1501.1664
-105.1869
7031.3373
-73.908961
3827.4005
111.91629
4302.3908
-2004.1578
-1842.5864
-201.0158
479.04407
486.36211
1878.5281
-1020.1879
17.266494
2189.0837
929.2748
-114.63335
-701.95035
-118.2373
1667.0007
732.38957
-22.988431
104.59467
-218.22348
-529.61399
-265.93505
526.62447
596.26604
-742.28349
219.76201
-4345.2892
757.43024
970.98855
243.3065
-596.50654
18.58083
-32.781307
4702.6766
-335.59318
-536.23172
-55.656966
1797.2021
2920.1832
-3245.1116
-398.25321
-111.92837
1860.1937
6203.347
-61.408457
99.604284
874.97897
-187.62884
-2.481012
0.56469056
-897.28727
1487.4679
0.80358858
-674.08088
-1481.9597
495.83688
-4.9855067
-892.78121
-243.84308
-61.990754
-92.124426
-1784.3385
-518.48895
-4690.859
-1743.8589
0.14715909
-47.995617
-454.84943
1701.1068
1338.1744
762.97216
-2271.2939
-1.0622081
1101.8025
-1770.9628
-4585.9458
909.58519
3.4579629
896.42766
98.6231
-3867.5952
-5133.0649
71.770151
1160.4952
1171.7511
-154.92022
-2667.5546
22.598294
-466.73202
279.9789
2004.4591
-1859.2661
1249.7222
2028.8895
-54.902561
3588.8584
6160.3126
745.03628
92.977485
-2756.4434
1315.6599
-1857.0127
2261.4849
361.02071
-2200.4661
433.38728
3093.1275
2392.4929
-5.5989737
-4.2668493
-4454.0159
-90.036896
2276.7555
185.45412
158.50398
-5035.4183
115.3755
395.88375
2397.4103
-5744.8009
-1460.3468
-2647.5007
-2064.0234
3651.8431
1.4296543
86.47801
-916.4903
1113.0057
-618.80611
-1.3249829
-6188.4811
-78.895916
-97.109332
-6123.2546
81.078298
-6231.8636
-119.39
171.87407
-377.59203
3.1690842
577.99243
1599.496
99.595031
1.7228107
-834.51279
-96.003556
-874.13212
408.64217
-207.74526
441.11665
734.28691
-4350.4956
-6140.4012
-3003.7137
40.88345
-32.310215
2.5578905
79.481812
8.2250808
647.76214
138.83351
-14.901587
971.52046
1967.7756
-781.96812
3121.0633
-637.64057
-156.63618
-3981.7335
1053.649
-7862.9162
1790.2572
-55.905332
-278.59757
302.17668
-865.20435
-871.3707
-5233.3407
-220.0438
670.45694
-118.88417
1295.3733
-43.953539
64.84513
-36.093909
-22.443439
2087.007
-253.98052
-660.33108
-551.95247
771.35702
-1018.7576
-409.15071
-52.107397
-71.368854
-321.56115
4840.123
-810.30524
-24.905367
-788.26856
1543.2786
-1260.819
-2010.5568
883.84578
1002.5827
-7903.0125
-58.756425
-29.710011
1180.2843
-82.609943
499.9047
-143.71597
-974.19465
4.6621531
1406.6283
549.99894
5123.9307
-3372.256
42.985162
383.43704
-5391.1291
-5389.1116
4931.2502
1303.7089
116.19832
-1338.7047
-203.32691
-72.727434
1948.718
-8.6710921
1391.0538
2807.5906
-52.64298
-2918.2466
2388.65
-926.86291
50.869106
-124.98478
495.16372
1207.4714
-622.94131
-29.121666
128.59832
132.27744
-1990.9578
-3294.989
-13.308588
-146.65545
-3088.462
576.13975
-31.450964
-257.00993
1326.5879
-2087.2987
-31.220072
-554.73324
-29.814276
-95.491465
231.27371
-1270.2565
-5583.6597
257.50559
6470.325
1743.251
216.20561
195.82214
1299.6367
19.364709
-4036.0628
113.93029
-4136.5831
457.87058
455.41081
-2820.4754
-1363.9463
-983.75336
791.2881
-3595.3159
-871.05668
4727.6038
3474.8539
-376.88941
7098.9224
874.42928
-4591.1216
-38.81958
-5784.2658
6051.4969
276.82268
-5488.5522
-4684.6062
-130.51933
-45.312685
-50.409315
1651.459
5644.1465
-468.15079
-1430.2999
273.30256
502.60258
-1362.3037
522.38477
-209.14923
6.8572044
-665.65195
-82.696937
-495.83051
-3661.5863
321.1077
-769.72603
-352.92793
-165.62559
-6004.1273
63.396632
-888.1647
-4484.0353
492.97546
1296.7126
-5973.4164
-193.66188
-1040.0304
-8.6904872
1598.2339
1357.2526
-1838.4839
733.3474
6398.6021
1197.2964
-537.80646
498.63284
-90.16028
1059.4732
4304.15
-241.20003
-255.36482
-729.54309
-6039.9805
-969.08862
1028.2555
53.122436
-33.443282
166.51258
-1063.209
391.75293
3808.9861
-2541.3039
-1529.4229
-63.452336
411.05464
-58.21558
-72.141948
-87.265367
-6575.0433
1500.3704
604.41126
2085.1507
-6491.5548
-217.35912
2173.2446
-2557.0117
-2843.3331
631.89927
-2357.9026
-694.16991
-6012.9261
-7815.5138
-7793.0585
2854.8876
-4.5619677
-3103.7732
-1447.843
-65.222234
206.96092
-639.24435
-212.02236
-1931.631
15.530471
-1987.7059
-890.82313
42.984003
-2342.6342
238.00812
1914.1273
-743.6092
1619.4413
-1166.4239
-716.64041
1715.7153
-423.54934
-6799.7008
950.20809
-458.16738
-2098.2904
-185.3739
-871.61923
192.09422
-138.51333
114.50616
85.898544
2031.0434
-10.786318
-897.66659
538.03521
25.415298
-215.58417
-296.44171
-2788.3044
3026.7611
-73.400131
162.49865
-628.06442
-27.589222
-8.3303392
-186.7777
6427.8476
46.677119
-1496.7431
-5290.5637
4379.1944
-1184.3668
-527.28406
-83.658906
754.01625
2772.0971
-175.24665
-1634.786
-1994.6153
1490.8029
418.54237
1046.541
-20.569261
-16.380932
1684.3891
-288.42128
-464.66157
-1690.8512
-2005.0371
23.887171
-1895.4808
4526.2436
-158.71046
-37.577267
-792.43817
-338.98434
-1071.6993
-8.4126422
-473.37319
1125.675
183.10833
-5190.6913
-6917.195
-1157.6573
-297.91716
-5349.2169
5992.4401
-855.47087
-865.40697
146.67796
132.69149
-929.79534
84.511523
-1864.1277
1158.3082
-1.3179855
-129.30057
1044.0511
-59.786756
1335.4345
1178.8293
1020.9154
-1130.8931
-11.473474
1064.7875
-2161.6015
453.98187
-975.39658
-147.98187
1325.1364
-8.0455553
3.8916108
856.91469
-61.992784
284.07616
-6854.9819
749.13249
383.00208
-2706.4671
-436.91875
40.740012
-427.91982
593.88408
-184.57495
-863.92499
1008.2128
-290.81274
-586.53012
2222.4373
-18.149691
-14.478102
5570.7608
2705.5596
-1123.4232
-156.09486
-1289.9465
-536.2602
470.2547
1177.9805
-411.46406
-1302.7851
17.4334
-44.79487
-1261.7746
1597.8209
-935.39274
-121.37331
1384.8601
-892.05208
43.319173
-6.1278916
-4053.148
-743.34422
69.384178
-4157.7656
-1180.3322
1118.7709
5940.1451
3.9810949
-13.012088
59.679263
-3294.5178
-20.965412
68.589548
21.850008
-32.037141
-49.660494
-5416.24
-1143.1235
74.474409
84.943174
-927.89009
-1528.8403
-6832.9709
3045.8357
8.6712743
1425.2177
-343.0362
1904.7779
1910.6204
-1310.5453
-5312.9658
1609.7158
-1111.4503
-1485.8055
544.2286
1631.8292
729.19017
946.25601
-394.96714
-1921.2528
1700.5228
-224.92308
51.449545
-4.011777
668.22255
161.78512
-15.294449
1115.1074
-92.203561
1186.5657
-45.235104
-77.230285
209.20001
690.63907
-892.26672
-8.85587
30.033876
-282.13633
-2135.0894
-1.6820986
-2210.3531
-72.144939
-137.0742
544.60273
-176.9711
3883.5972
831.3041
-294.76477
1573.5956
166.17382
3205.3781
741.16281
-1172.5779
-670.1755
-2860.4088
-50.688886
-181.20216
75.871413
-2295.7615
-3645.0556
-336.16166
-165.95814
-41.195412
-75.715688
3707.7328
956.73774
-45.783074
-4410.5815
190.11496
-200.33273
-1947.3529
212.4261
3676.1098
1249.003
-802.85774
129.54362
-6002.3308
-61.838987
-805.17736
2.5900017
-13.198209
-77.779927
-354.07405
101.10579
555.52111
-617.73667
838.82964
1213.4282
137.8717
114.69118
41.26853
-2798.9085
-340.23552
-4328.0177
2297.2037
329.47165
-1140.162
-88.155925
2079.2109
-1853.7738
-7.4945811
-1120.5288
-177.20091
-96.791694
5.4394648
-180.82052
-1568.4153
39.052977
-5961.4751
-199.84235
220.62091
273.23922
-203.18506
-1007.8342
-568.56914
69.757615
-738.05017
2090.9345
-786.01416
-2040.4017
4036.1571
-13.684953
-1225.4602
792.32066
-158.13028
-638.15265
1293.7823
-966.15113
1770.7196
-5527.7772
-2865.9965
-921.85994
-259.42089
-175.86321
-103.35853
479.80579
22.816246
-3535.925
-1241.7928
-101.62353
93.15976
138.67724
787.72573
438.73284
5404.4005
49.494662
838.6535
-43.020303
-1242.7238
-2722.5619
-699.58986
-218.89539
-864.9275
37.500331
1721.6861
-703.19198
-154.47912
-706.67641
-13.013886
-349.92304
42.064035
-792.07336
444.89445
-1265.5925
1390.7516
-46.347941
1420.4251
-517.27385
-717.33196
-20.674314
13.99933
1148.57
2033.189
-21.718669
262.88264
-6502.7679
1111.0711
-39.815402
-197.94043
553.47177
-2548.1099
62.352308
42.193989
4016.2537
-50.844581
-1433.5753
507.78799
-3566.1646