/*--------------------------------*- C++ -*----------------------------------*\
| =========                 |                                                 |
| \\      /  F ield         | foam-extend: Open Source CFD                    |
|  \\    /   O peration     | Version:     4.1                                |
|   \\  /    A nd           | Web:         http://www.foam-extend.org         |
|    \\/     M anipulation  |                                                 |
\*---------------------------------------------------------------------------*/
FoamFile
{
    version     2.0;
    format      ascii;
    class       surfaceScalarField;
    location    "1";
    object      phi;
}
// * * * * * * * * * * * * * * * * * * * * * * * * * * * * * * * * * * * * * //

dimensions      [0 3 -1 0 0 0 0];

internalField   nonuniform List<scalar> 
6703
(
-0.0042206319
0.021918039
-0.017697401
-0.0079975847
0.026981101
-0.023204145
-0.011579226
0.032388973
-0.028807329
-0.015774405
0.038476318
-0.034281137
-0.020592851
0.045608519
-0.040790071
-0.02609826
0.053961662
-0.048456251
-0.032357442
0.063718371
-0.057459188
-0.039441239
0.075088363
-0.068004565
-0.047434286
0.088302245
-0.080309199
-0.056440339
0.10361743
-0.094611378
-0.066585509
0.1213252
-0.11118003
-0.078020441
0.14176116
-0.13032623
-0.090921004
0.16532961
-0.15242904
-0.10550364
0.19255762
-0.17797499
-0.1220269
0.22418725
-0.20766399
0.26122083
-0.24278381
-0.14046392
-0.0030621022
0.024980149
-0.0061274702
0.030046471
-0.0091442248
0.03540573
-0.012702571
0.042034666
-0.016855069
0.049761018
-0.02171748
0.058824073
-0.027408752
0.069409643
-0.034058651
0.081738261
-0.041813298
0.096056892
-0.050840439
0.11264457
-0.061338465
0.13182322
-0.073550415
0.15397311
-0.08777875
0.17955794
-0.1043848
0.20916367
-0.12373761
0.24354007
0.28355505
-0.14607184
-0.0011490381
0.026129196
-0.0029825447
0.031879982
-0.0050881914
0.037511376
-0.0076142579
0.044560732
-0.01061055
0.05275731
-0.014167858
0.062381381
-0.018381417
0.073623203
-0.023362232
0.086719077
-0.029237166
0.10193183
-0.036150814
0.11955822
-0.044268652
0.13994106
-0.053783012
0.16348747
-0.064923075
0.190698
-0.077964122
0.22220472
-0.093210482
0.25878642
0.30131311
-0.11096854
-0.00043487071
0.026564064
-0.0016067049
0.033051821
-0.0028433699
0.03874804
-0.0043745527
0.046091912
-0.0062078659
0.054590621
-0.0084126984
0.064586213
-0.011054648
0.076265153
-0.014213589
0.089878018
-0.017981541
0.10569978
-0.022464546
0.12404123
-0.027784415
0.14526093
-0.034080228
0.16978328
-0.041508461
0.19812624
-0.050236715
0.23093298
-0.060408165
0.26895787
0.31284958
-0.071944637
0.00020323555
0.026360827
-0.00038177416
0.03363683
-0.00083011501
0.039196378
-0.0014485048
0.046710298
-0.002182517
0.055324631
-0.0030792194
0.065482914
-0.0041687051
0.077354638
-0.0054945454
0.09120386
-0.0071078515
0.10731309
-0.0090700134
0.12600339
-0.011454012
0.14764493
-0.01434573
0.172675
-0.017844396
0.20162491
-0.022060616
0.2351492
-0.027113797
0.27401106
0.31916512
-0.03342934
0.00086933479
0.025491491
0.00094549479
0.033560668
0.0012711655
0.038870703
0.0015748493
0.046406612
0.001945078
0.054954401
0.0023618285
0.065066163
0.0028299161
0.07688655
0.0033441322
0.090689644
0.0038965063
0.10676071
0.0044726687
0.12542723
0.0050506104
0.14706699
0.0055989952
0.17212662
0.0060755344
0.20114837
0.0064241446
0.23480059
0.006598993
0.27383621
0.31921954
0.006544578
0.0015701579
0.023921333
0.002413394
0.032717429
0.0035215354
0.037762557
0.0047891354
0.045139009
0.0062853119
0.053458224
0.0080338501
0.063317625
0.010069649
0.074850752
0.012427505
0.088331788
0.015142459
0.10404576
0.018247556
0.12232213
0.021772494
0.14354206
0.025742575
0.16815654
0.030179078
0.19671186
0.035097943
0.22988172
0.040522808
0.26841134
0.31338992
0.046352426
0.0022814533
0.021639882
0.003974026
0.031024857
0.0058557641
0.035880818
0.0080920822
0.04290269
0.01071417
0.050836137
0.013797015
0.060234781
0.017402755
0.071245013
0.02160366
0.084130883
0.026474447
0.099174973
0.03209194
0.11670464
0.038533538
0.13710046
0.045876097
0.16081398
0.054195435
0.18839253
0.063559975
0.22051718
0.074020548
0.25795077
0.30187914
0.085531326
0.0030505373
0.018589347
0.0057464441
0.028328952
0.0084552854
0.033171977
0.011664789
0.039693187
0.015402325
0.047098603
0.019794633
0.055842476
0.024935146
0.066104501
0.03093054
0.07813549
0.037892595
0.092212917
0.045938991
0.10865824
0.055193038
0.12784641
0.065785253
0.15022176
0.077858869
0.17631891
0.09157838
0.20679767
0.10713767
0.24239148
0.28425146
0.12476536
0.0041121479
0.0144772
0.0080273797
0.024413722
0.01176174
0.029437619
0.016020675
0.035434255
0.020891897
0.042227384
0.026554841
0.050179535
0.03314826
0.059511082
0.0408155
0.070468248
0.049704507
0.083323908
0.059970403
0.098392341
0.071777343
0.11603946
0.085303785
0.13669532
0.1007564
0.16086629
0.11840178
0.18915229
0.13862511
0.22216815
0.26068296
0.16219361
0.0044930116
0.0099841897
0.010603703
0.018303031
0.016391508
0.023649815
0.022244146
0.029581617
0.028467196
0.036004335
0.035407337
0.043239395
0.043320935
0.051597483
0.052424434
0.061364748
0.06291894
0.072829399
0.074999211
0.086312069
0.088856757
0.10218192
0.10468477
0.1208673
0.12268755
0.14286351
0.14309321
0.16874663
0.16612612
0.19913525
0.23448592
0.19232316
0.0079267497
0.0020574387
0.015400573
0.010829206
0.021561316
0.017489069
0.027743812
0.02339912
0.034427582
0.029320564
0.041861698
0.035805279
0.050232393
0.043226786
0.059690588
0.051906552
0.070341327
0.062178659
0.082239694
0.074413703
0.095393898
0.089027715
0.10977609
0.10648511
0.12534375
0.12729585
0.14206897
0.15202141
0.15986603
0.18133819
0.21560916
0.17874279
-0.00029232506
-0.017754627
0.018046952
-0.0022598735
-0.021269553
0.023237102
-0.0059021585
-0.025310184
0.028952469
-0.010155771
-0.030080153
0.034333765
-0.015192858
-0.035678438
0.040715525
-0.021138764
-0.042230252
0.048176158
-0.028128898
-0.049873885
0.05686402
-0.036314166
-0.058760574
0.066945842
-0.045842541
-0.06905595
0.078584325
-0.056851783
-0.080941558
0.0919508
-0.069466702
-0.094617926
0.10723284
-0.08379638
-0.11031143
0.12464111
-0.099941849
-0.12828753
0.144433
-0.11805322
-0.14885954
0.16697091
-0.13851272
-0.17236304
0.19282253
-0.19924965
0.22312531
-0.16238838
-0.0027258159
-0.015028811
-0.0061842648
-0.017811104
-0.010396952
-0.021097497
-0.01549058
-0.024986525
-0.021605097
-0.029563921
-0.028905215
-0.034930133
-0.037581539
-0.041197562
-0.047852363
-0.04848975
-0.059966877
-0.056941436
-0.074208827
-0.066699608
-0.090900368
-0.077926384
-0.11040685
-0.09080495
-0.1331449
-0.10554949
-0.1595847
-0.12241974
-0.19019172
-0.14175601
-0.16405225
-0.22538912
-0.0032033915
-0.01182542
-0.0071161573
-0.013898338
-0.011808643
-0.016405012
-0.017417347
-0.01937782
-0.024102671
-0.022878597
-0.032051144
-0.02698166
-0.041477483
-0.031771222
-0.05262673
-0.037340503
-0.06577661
-0.043791557
-0.081240451
-0.051235767
-0.099371494
-0.059795341
-0.12056982
-0.069606623
-0.14529269
-0.080826623
-0.17406961
-0.093642815
-0.20755598
-0.10826963
-0.12488723
-0.246721
-0.0032944949
-0.0085309249
-0.0073902531
-0.0098025802
-0.012358818
-0.011436447
-0.018330259
-0.013406378
-0.025468756
-0.0157401
-0.033968152
-0.018482264
-0.044051818
-0.021687557
-0.055973513
-0.025418807
-0.070018516
-0.029746554
-0.086504985
-0.034749298
-0.10578605
-0.040514276
-0.12825462
-0.047138049
-0.1543546
-0.054726648
-0.18459427
-0.063403143
-0.21949356
-0.073370345
-0.085066237
-0.25931455
-0.0036228868
-0.0049080383
-0.0080246561
-0.0054008107
-0.013292372
-0.0061687309
-0.019583789
-0.0071149611
-0.027085705
-0.0082381844
-0.036012434
-0.0095555354
-0.046607626
-0.011092365
-0.059146254
-0.012880179
-0.073936616
-0.014956192
-0.091322966
-0.017362947
-0.11168857
-0.020148671
-0.13546088
-0.023365738
-0.16311433
-0.0270732
-0.19519292
-0.031324551
-0.23250493
-0.036058337
-0.040872913
-0.27669825
-0.0011487348
0.026139843
-0.024991108
-0.0029824617
0.031895459
-0.030061732
-0.0050882233
0.037532198
-0.035426436
-0.0076142957
0.044589625
-0.042063553
-0.010610308
0.052798285
-0.049802272
-0.014166595
0.062438434
-0.058882148
-0.018377676
0.073700085
-0.069489004
-0.023353444
0.086817694
-0.081841926
-0.029219335
0.10204979
-0.096183901
-0.036118607
0.11968569
-0.11278642
-0.044216771
0.14005832
-0.13196016
-0.053709865
0.16356697
-0.15407387
-0.064836425
0.19071627
-0.17958971
-0.077883332
0.22216596
-0.20911905
-0.093151373
0.25874293
-0.24347489
0.30132939
-0.2836068
-0.11087397
-0.0048701592
-3.7879038e-05
-0.010233728
-3.7242362e-05
-0.016365457
-3.7001428e-05
-0.02344433
-3.6087519e-05
-0.031648648
-3.3866668e-05
-0.041174365
-2.981788e-05
-0.052243215
-2.3515785e-05
-0.065108667
-1.472668e-05
-0.080061276
-3.5826579e-06
-0.097433431
9.207466e-06
-0.11760432
2.2216738e-05
-0.14100348
3.3428023e-05
-0.16811711
4.0428498e-05
-0.19948121
3.9548503e-05
-0.23556084
2.1289615e-05
-3.6266885e-05
-0.27639748
-0.0049670734
0.0049291944
-0.010414194
0.0054098786
-0.016631382
0.0061801867
-0.02380043
0.0071329605
-0.032099575
0.0082652784
-0.041722974
0.0095935814
-0.05288892
0.01114243
-0.065845741
0.012942094
-0.080877217
0.015027893
-0.098307666
0.017439657
-0.11850743
0.020221982
-0.14189632
0.023422316
-0.1689472
0.027091307
-0.20017415
0.031266502
-0.23603418
0.035881316
0.040658794
-0.27672924
-0.0036415067
0.0085707012
-0.0080823748
0.0098507468
-0.01339741
0.011495222
-0.019741279
0.013476829
-0.02729855
0.01582255
-0.036281048
0.01857608
-0.046929323
0.021790706
-0.05951445
0.025527221
-0.074339792
0.029853236
-0.09174324
0.034843105
-0.11209951
0.040578248
-0.13582474
0.047147548
-0.16338127
0.054647839
-0.19530224
0.063187475
-0.23233991
0.072918985
0.084137995
-0.27581911
-0.0032857663
0.011856468
-0.0073732237
0.013938204
-0.012332045
0.016454044
-0.018290191
0.019434975
-0.025409526
0.022941885
-0.033881001
0.027047555
-0.043924204
0.031833908
-0.055787928
0.037390945
-0.069751123
0.043816431
-0.086124344
0.051216326
-0.10525257
0.059706472
-0.127522
0.069416985
-0.15337675
0.080502587
-0.18334775
0.093158472
-0.21802558
0.10759681
0.12386194
-0.25774952
-0.003182387
0.015038855
-0.0070696525
0.01782547
-0.011730479
0.02111487
-0.017299714
0.025004211
-0.023935793
0.029577964
-0.031822824
0.034934585
-0.041172649
0.041183733
-0.052227158
0.048445454
-0.065261214
0.056850487
-0.080587028
0.06654214
-0.098561618
0.077681063
-0.11959933
0.090454701
-0.14418799
0.10509124
-0.17290941
0.1218799
-0.20657772
0.14126513
0.16423443
-0.24695021
-0.0027139976
0.017752852
-0.0061569817
0.021268453
-0.010349895
0.025307783
-0.015418891
0.030073206
-0.021503454
0.035662527
-0.028768126
0.042199256
-0.037404074
0.049819681
-0.047631777
0.058673156
-0.05970576
0.068924471
-0.073920911
0.080757291
-0.090620521
0.094380672
-0.11020755
0.11004173
-0.13316461
0.1280483
-0.16007734
0.14879263
-0.1915251
0.17271289
0.20014113
-0.2274318
-0.00027561286
0.018028463
-0.0022330108
0.023225847
-0.0058696133
0.028944382
-0.010115862
0.03431945
-0.015145232
0.040691895
-0.02108386
0.048137881
-0.028068522
0.05680434
-0.036252536
0.066857167
-0.045788405
0.078460338
-0.056821051
0.091789935
-0.069485785
0.1070454
-0.083903777
0.12445972
-0.10017943
0.14432395
-0.11842068
0.16703389
-0.13884417
0.19313638
0.22344984
-0.16215288
0.0079288291
-0.0099748002
0.0020459871
0.015407074
-0.018298465
0.010820214
0.021572363
-0.023649764
0.017484467
0.02775781
-0.02958588
0.023400431
0.034443217
-0.036015082
0.029329672
0.041877422
-0.043259141
0.035824936
0.050245892
-0.051629151
0.043260682
0.059698101
-0.061410873
0.051958665
0.070336673
-0.072890507
0.062251937
0.082212894
-0.086383997
0.074507776
0.095329511
-0.10225217
0.089135558
0.10965123
-0.12091108
0.10658937
0.12512468
-0.14284012
0.12736666
0.14169236
-0.16859591
0.15202824
0.15918376
-0.19873242
0.18124102
-0.2337932
0.21473611
0.17824086
0.0044995622
-0.014474359
0.010617936
-0.02441684
0.016413455
-0.029445281
0.02227425
-0.035446677
0.028506301
-0.042247133
0.03545666
-0.050209501
0.043382002
-0.059554494
0.052498719
-0.07052759
0.063007464
-0.083399252
0.075102307
-0.098478841
0.088974818
-0.11612469
0.10482193
-0.13675819
0.122863
-0.16088119
0.14337146
-0.18910437
0.16670596
-0.22206693
-0.26077627
0.19368903
0.0041177259
-0.01859209
0.0080390408
-0.028338155
0.011779007
-0.033185245
0.01604429
-0.039711958
0.020923113
-0.047125956
0.026595151
-0.055881539
0.033199228
-0.066158571
0.04087836
-0.078206722
0.049779664
-0.092300555
0.060056906
-0.10875608
0.071872724
-0.1279405
0.085405025
-0.15029049
0.10086285
-0.17633901
0.1185171
-0.20675862
0.13874394
-0.24229377
-0.28421701
0.16218467
0.0030536322
-0.021645725
0.005753108
-0.031037631
0.0084653047
-0.03589744
0.011678947
-0.042925601
0.015421591
-0.050868601
0.019820063
-0.06028001
0.02496772
-0.071306228
0.030970787
-0.08420979
0.037940132
-0.0992699
0.045991981
-0.11680793
0.05524801
-0.13719653
0.065838143
-0.16088063
0.077908634
-0.1884095
0.091633165
-0.22048315
0.1072281
-0.2578887
-0.30194895
0.12496004
0.0022830162
-0.023928741
0.0039771475
-0.03273176
0.0058604687
-0.037780763
0.0080989118
-0.045164044
0.010723739
-0.053493428
0.013809949
-0.06336622
0.017419526
-0.074915806
0.021624289
-0.088414552
0.026498041
-0.10414365
0.032116147
-0.12242604
0.038554193
-0.14363458
0.045887676
-0.16821411
0.054192815
-0.19671464
0.063539697
-0.22983003
0.07398121
-0.26833021
-0.31339716
0.085429419
0.0015710863
-0.025499826
0.00241491
-0.033575584
0.0035238341
-0.038889688
0.0047925601
-0.04643277
0.0062903002
-0.054991168
0.0080408764
-0.065116797
0.010079096
-0.076954026
0.012439458
-0.090774914
0.015156355
-0.10686055
0.018261785
-0.12553147
0.021784162
-0.14715695
0.025747942
-0.17217789
0.030175161
-0.20114186
0.035084795
-0.23473966
0.040510086
-0.27375551
-0.31921835
0.046331272
0.00087019133
-0.026370017
0.00094668084
-0.033652075
0.0012730288
-0.039216036
0.0015776905
-0.046737432
0.0019493433
-0.055362821
0.0023680888
-0.065535542
0.0028387801
-0.077424717
0.0033561672
-0.091292301
0.0039120398
-0.10741642
0.0044915507
-0.12611098
0.005072029
-0.14773743
0.0056216305
-0.17272749
0.0060983712
-0.2016186
0.0064483967
-0.23508969
0.0066327587
-0.27393987
-0.31915529
0.0065697059
0.00020402628
-0.026574044
-0.00038078754
-0.033067262
-0.00082842781
-0.038768395
-0.0014458115
-0.046120048
-0.0021782923
-0.05463034
-0.0030726898
-0.064641144
-0.0041588516
-0.076338556
-0.0054800366
-0.089971116
-0.0070870848
-0.10580937
-0.0090412558
-0.12415681
-0.011415758
-0.14536293
-0.014297226
-0.16984602
-0.017785891
-0.19812993
-0.021991472
-0.23088411
-0.027026399
-0.26890494
-0.31285505
-0.033326646
-0.00043420136
-0.0016060035
-0.0028422007
-0.004372624
-0.0062046787
-0.0084073886
-0.011045859
-0.014199281
-0.017958862
-0.022429983
-0.027734594
-0.034013648
-0.041427313
-0.05014546
-0.060307469
-0.071833125
-0.0030583492
-0.021932759
-0.0061239493
-0.026996132
-0.0091432969
-0.032407088
-0.012704209
-0.03850264
-0.016859541
-0.04564694
-0.021724525
-0.054017164
-0.027417036
-0.063796493
-0.034064904
-0.075194057
-0.041811337
-0.088437468
-0.050820514
-0.10377724
-0.061288523
-0.12149215
-0.073462008
-0.14190039
-0.08766013
-0.16539159
-0.10427775
-0.19250143
-0.12373177
-0.22402087
-0.26099821
-0.14634035
-0.0042161574
-0.017716601
-0.0079973291
-0.02321496
-0.011588363
-0.028816055
-0.015794925
-0.034296078
-0.020627264
-0.040814601
-0.026148651
-0.048495777
-0.032424625
-0.057520519
-0.039523492
-0.06809519
-0.047525877
-0.080435082
-0.056530078
-0.094773039
-0.066657201
-0.11136502
-0.078059028
-0.13049856
-0.090929943
-0.15252067
-0.10553024
-0.17790113
-0.12212903
-0.20742209
-0.24261551
-0.14051173
0.0047701657
-0.0030491361
-0.0017210278
0.015421123
6.5765815e-05
-0.010716721
0.027987341
0.0044757393
-0.017041957
0.041294094
0.0093692441
-0.022675997
0.054366441
0.015249711
-0.028322058
0.067074551
0.021726612
-0.034434721
0.079427122
0.028988866
-0.041341436
0.091475761
0.037279475
-0.049328113
0.10332987
0.046829586
-0.058683698
0.11517222
0.05788512
-0.069727463
0.12724608
0.070748879
-0.082822741
0.13984755
0.085779709
-0.098381176
0.15334198
0.10336422
-0.11685865
0.16818039
0.12391865
-0.13875706
0.1848797
0.14793671
-0.16463603
0.175962
-0.19509962
0.20401733
0.0022833676
-0.0053325042
0.008110104
-0.0057609692
0.017111326
-0.0045254823
0.02922357
-0.0027429991
0.044738545
-0.00026526413
0.061991653
0.0044735038
0.079979597
0.011000922
0.097947892
0.019311181
0.11582402
0.028953454
0.13379549
0.039913651
0.15202589
0.052518483
0.17085365
0.066951946
0.19090949
0.083308379
0.21319958
0.10162855
0.23905216
0.12208413
0.14490425
0.27010992
0.00011565783
-0.0054481611
0.00014738874
-0.005792701
0.0020139743
-0.0063920682
0.0064600532
-0.007189078
0.014373661
-0.0081788713
0.026195337
-0.0073481708
0.04234347
-0.0051472106
0.06311587
-0.0014612191
0.086731767
0.0053375564
0.11111457
0.015530848
0.13481787
0.028815185
0.15808959
0.043680219
0.18165155
0.059746425
0.20672102
0.076559076
0.23464691
0.094158246
0.11255207
0.26699909
0.00034932474
-0.0057974866
0.00070399412
-0.006147371
0.0011402174
-0.0068282914
0.0016321922
-0.0076810527
0.0021131064
-0.0086597856
0.0045084306
-0.0097434951
0.01024947
-0.010888249
0.02092914
-0.01214089
0.037446076
-0.011179379
0.05967645
-0.0066995257
0.084505676
0.0039859594
0.10471794
0.023467959
0.12975913
0.034705231
0.15818468
0.048133529
0.19053344
0.061809489
0.074639082
0.22844643
-0.00023240863
-0.0055650782
-0.00093714394
-0.0054426361
-0.002043761
-0.0057216743
-0.0035806866
-0.0061441271
-0.0055931159
-0.0066473565
-0.0081353493
-0.0072012616
-0.011247484
-0.0077761146
-0.015090623
-0.0082977507
-0.017590456
-0.0086795456
-0.015393875
-0.0088961055
-0.0017557007
-0.0096522143
0.020533901
0.001178357
0.043400671
0.011838462
0.06981326
0.021720941
0.10174532
0.02987743
0.035751366
0.14063304
-0.0055479363
-1.714273e-05
-0.010963986
-2.6586128e-05
-0.016647485
-3.8175601e-05
-0.022739419
-5.2192923e-05
-0.029317806
-6.8968952e-05
-0.036430238
-8.8829045e-05
-0.044094197
-0.00011215566
-0.05225224
-0.00013970706
-0.060758658
-0.00017312841
-0.06944086
-0.0002139017
-0.078829209
-0.00026386523
-0.077385154
-0.00026569706
-0.06532612
-0.0002205716
-0.043872814
0.00026763512
-0.016252619
0.0022572345
0.0088737479
0.010624998
-0.0056021302
0.0055849867
-0.011071688
0.0054429717
-0.016817471
0.0057076077
-0.022984189
0.0061145255
-0.029651254
0.0065980952
-0.036863683
0.0071236017
-0.044628693
0.0076528533
-0.052866254
0.0080978547
-0.061393664
0.0083542816
-0.069967463
0.0083598961
-0.07866889
0.0084375622
-0.076929073
-0.0020055133
-0.064844443
-0.012305203
-0.042830352
-0.021746456
-0.010776052
-0.029797065
-0.035239876
0.033337572
-0.00023322788
0.0058182137
-0.00095189687
0.0061616408
-0.0020857706
0.0068414816
-0.0036664979
0.0076952532
-0.0057431146
0.0086747123
-0.0083734626
0.00975395
-0.011598051
0.010877442
-0.0155721
0.012071904
-0.01813668
0.010918862
-0.015855807
0.0060790223
-0.002581264
-0.0048369815
0.019073453
-0.02366023
0.042007111
-0.03523886
0.068931194
-0.048670539
0.10151023
-0.0623761
-0.075504461
0.14177481
0.00034546889
0.0054727447
0.00069483191
0.0058122778
0.0011255666
0.0064107469
0.0016133934
0.0072074265
0.0020922213
0.0081958846
0.0044840645
0.0073621071
0.010214752
0.0051467549
0.020863022
0.0014236349
0.03726763
-0.0054857462
0.059201554
-0.015854902
0.083526282
-0.029161711
0.10387396
-0.044007908
0.12865284
-0.060017738
0.15672013
-0.076737831
0.18849113
-0.094147096
-0.11209044
0.22507711
0.00013291967
0.0053398234
0.00017703287
0.0057681651
0.002057272
0.0045305079
0.0065197803
0.0027449181
0.014453308
0.00026235722
0.026294566
-0.0044791507
0.04245985
-0.011018528
0.063239225
-0.019355738
0.08677929
-0.02902581
0.11094713
-0.040022741
0.13444603
-0.052660614
0.15754504
-0.06710692
0.18096792
-0.08344062
0.20592086
-0.10169077
0.23378583
-0.12201207
-0.1446597
0.26635509
0.0022850092
0.0030548134
0.0081056355
-5.2461003e-05
0.017098606
-0.0044624622
0.029203916
-0.0093603928
0.044714776
-0.015248503
0.061969773
-0.021734148
0.079959071
-0.029007826
0.09791703
-0.037313696
0.11577447
-0.046883251
0.13371286
-0.05796113
0.15189779
-0.070845537
0.17067623
-0.085885363
0.19068928
-0.10345367
0.21295207
-0.12395357
0.23880707
-0.14786706
-0.17557769
0.26972505
0.0047644425
-0.0017096366
0.015419358
-0.010707367
0.027994095
-0.017037197
0.041310555
-0.022676851
0.054392491
-0.028330442
0.067111755
-0.034453413
0.079478039
-0.041374111
0.091543175
-0.049378834
0.10341572
-0.058755796
0.11527612
-0.069821526
0.12736433
-0.082933751
0.13997439
-0.098495425
0.15347282
-0.1169521
0.16831968
-0.13880043
0.18506466
-0.16461204
-0.19516187
0.20464884
0.00035276369
-0.00033106144
0.00048981682
0.00052813036
0.00042995432
0.00011158458
-0.00054326416
-0.0016906625
-0.0035395234
-0.0063609671
-0.010495592
-0.016362103
-0.024467202
-0.035408302
-0.049935917
-0.069269884
0.00035249212
-0.0003303508
0.00048890621
0.00052659339
0.00042751735
0.00010789816
-0.00054860149
-0.00169795
-0.0035487071
-0.0063709465
-0.010503126
-0.016360573
-0.024448249
-0.035378474
-0.049978026
-0.069468228
0.00044919716
-0.00033635037
0.00089646805
0.0016200484
0.0026192785
0.0039908016
0.0058773728
0.0084572044
0.011953345
0.016639596
0.022841403
0.030935343
0.041349904
0.054577715
0.071206692
0.090780929
0.00044889517
-0.00033641092
0.00089600738
0.0016191303
0.0026176368
0.0039881945
0.005873545
0.0084519842
0.011946945
0.016633185
0.02283816
0.030942098
0.041379294
0.054643643
0.0713458
0.091855333
0.24300395
-0.5363279
0.29332395
1.2754994
-1.3206355
0.045136128
0.18666574
-0.48445554
0.2977898
1.2754994
-0.33199074
0.050448679
0.28154205
-1.2669454
0.78712985
0.47981559
-0.16840742
0.66048595
-0.49207852
1.1647877
0.44040599
-1.6051937
1.2118217
0.30147259
-1.5132942
0.19143486
-0.26070474
-0.29297871
0.22351048
0.54419373
1.0046264
-1.5488201
-0.54170791
-0.57902418
1.1207321
-1.1497209
0.51057064
0.63915029
-0.25004394
0.60352823
-0.35348429
0.55175128
-0.03888052
-0.51287076
1.09962
-1.1396292
0.040009176
0.07084662
0.25998692
-0.33083354
0.17579528
-0.25545405
0.079658772
0.94117423
-0.34246434
-0.5987099
-0.16562403
-0.16636671
-1.1548283
0.61312043
-1.4218493
1.4085551
0.013294249
0.10903776
1.2784869
-1.3875246
0.0055268896
-0.84973688
0.84420999
0.69821403
0.21231866
-0.91053269
-0.60607748
-0.91243582
1.5185133
0.95731577
-0.31698287
-0.64033289
0.21701599
0.9648843
-1.1819003
-0.34563655
0.83838097
-0.49274442
1.0414528
-0.34323876
0.30417937
-0.21755012
-0.086629248
-0.02716277
1.2550266
-1.2278638
0.96357434
0.0030152483
-0.96658959
0.15716361
-0.91966758
0.76250397
1.326829
-1.1175434
-0.20928557
1.1286312
-1.1968373
0.068206044
-0.7202731
0.87743671
0.84017339
-0.48909909
-0.3510743
-1.2970295
0.25553268
1.0414968
0.38347076
-0.54986135
0.16639058
1.2852071
-0.56469517
-0.72051194
1.1647877
-0.34947785
0.84480066
-0.49532281
1.2118217
-0.1309168
0.56093545
-0.43001866
-0.28498997
1.0017843
-0.71679434
-1.4703564
0.62502345
0.84533294
-1.1647877
1.7485516
-0.58376393
-1.2118217
1.763815
-0.55199332
0.47860582
-0.083128838
-0.39547698
-0.58683447
0.26242467
0.3244098
0.21620311
-0.40556962
0.1893665
0.14653995
0.17387604
-0.32041599
-0.47367678
0.85722635
-0.38354957
0.10134785
0.83026609
-0.93161395
0.14617886
-0.28679081
0.14061195
-0.82384939
0.52344962
0.30039977
-1.5781507
0.17200781
1.4061429
1.2903213
-0.45894336
-0.83137797
1.1967586
0.093562732
0.83026916
0.61424489
-1.444514
0.77733704
0.65381322
-1.4311503
-0.36875936
0.75626898
-0.38750963
0.1065943
-0.60287551
0.49628121
-0.99678752
1.0343709
-0.037583344
0.66592735
-1.2081578
0.54223043
0.71346528
0.26116092
-0.9746262
-0.155036
0.93003972
-0.77500371
-1.3821551
1.0971651
-0.35327546
0.92782804
-0.57455258
0.27971291
0.27203838
-0.62829149
0.57097259
0.0573189
0.74324186
0.95743852
-1.7006804
1.3396305
-1.238283
-0.10134757
0.078150669
-0.44729562
0.74713343
-0.2998378
0.98195026
-0.46712494
-0.51482533
1.4964922
-1.3485138
-0.14797847
1.1580066
-1.0279462
-0.13006034
0.4402898
-0.60068897
0.16039917
-0.34199773
0.13259052
0.20940721
0.20408365
-0.5497202
-1.8130218
1.2860975
0.52692438
0.34797349
0.75164651
0.37056618
-1.3668373
0.99627109
-0.67481677
1.1403625
-0.46554569
-0.15683128
-0.92994129
1.0867726
0.43634852
-0.32277618
-0.11357234
0.075634977
1.2639955
0.83742194
-0.0025969981
-0.83482494
-1.1951199
0.48846469
0.7066552
0.079529447
0.55003839
-0.62956784
0.47840098
0.36177241
0.66037424
0.36472242
-1.0250967
0.68868074
-0.26126511
-0.42741563
-0.72562564
-0.80806168
0.46254224
-0.2758765
-0.11592011
-0.23244723
0.34836734
-0.43442831
0.84923046
-0.41480215
-0.46809594
1.2113378
-0.86156525
1.1454219
-0.28385668
-0.92289594
-0.27222395
-0.010732674
1.1393639
1.2401176
-1.1594631
-0.080654418
-0.76317097
-0.38654996
-1.6839975
1.1131899
0.57080756
-1.8140573
1.317446
0.49661125
0.86303269
-0.38792849
-0.4751042
0.20688017
-0.55635802
0.30796547
-0.78164225
0.0067459105
0.63575064
-0.64249655
0.46899515
-0.62403115
-0.2213186
0.60478937
0.2838834
0.65729084
1.0032039
0.49328831
0.58119359
-0.57444768
0.43543728
1.0425355
-1.4779728
1.531411
-0.87861437
-0.65279662
-0.32957075
0.72139989
-0.39182915
-0.0095547616
0.22575787
0.30919493
-0.16265498
0.13001427
0.13669495
-0.26670923
1.6360348
-1.6631976
0.12901006
0.06795983
-0.19696989
0.17504065
-0.034407613
-1.1248439
1.2113653
-0.086521415
-0.31232232
0.20720777
0.10511456
0.59102265
-0.54936243
-0.041660223
-0.84421978
0.76990557
0.074314212
0.29060068
-0.14442182
-0.052235435
0.47837338
-0.42613795
-0.72528719
1.3292093
-0.60392214
0.44988094
0.83532617
1.1902709
-0.5243435
0.51394061
0.34909208
-0.53374984
0.40283304
0.99095877
-1.1477901
-0.46455315
0.34863305
0.84563769
0.39447988
0.78917917
-1.6227405
0.83356135
0.46526371
0.25327156
-0.20282288
-0.46092053
0.70392447
1.1970091
-1.1970091
-0.33858713
-0.19316867
1.0305906
0.11892172
-0.56621734
-0.058674179
0.96265394
-0.90397976
-0.61146405
1.4417332
-0.63845175
1.4157888
1.2718663
-0.729116
-0.54275029
0.6286748
0.4582289
-0.78779965
0.89849287
-1.1797524
0.28125953
0.88555003
-0.88002314
0.13660809
-0.067492442
-1.0289145
1.096407
1.47752
0.2489099
-1.7264299
-0.82916089
1.2645982
-0.62340134
0.70893266
-0.64262083
0.72805025
-0.057607495
0.71798174
0.012275307
0.55246323
-0.56473853
-0.86552538
-0.039209293
0.90473467
0.5412133
-1.2665005
-1.353878
1.2952039
0.90033112
0.40757818
-1.3079093
-0.11051418
-0.52176643
0.63228061
-0.56564743
1.1098412
-0.91460365
0.34295848
0.57164516
0.57100955
-0.4914801
0.13630425
-0.7955481
0.65924386
0.99740263
-1.1091232
0.1117206
0.87606078
0.39580551
-1.5160817
0.79580863
0.074588146
1.0834184
0.96576356
0.73717165
-1.3432491
-0.14831752
0.58860733
-1.053724
0.83476956
0.21895443
-1.0785171
0.96800294
0.574719
0.72531973
-1.3000387
0.91062046
0.017207574
-0.64646275
0.782767
-0.31079152
-0.74293247
-0.17453237
-0.33625117
0.51078354
0.45547438
-0.73803559
0.28256122
0.14887298
0.43804173
-0.58691471
-1.0166618
0.25933943
0.75732242
0.16077379
1.19767
-1.3584438
-0.94419509
-0.45676997
1.4009651
0.24723306
0.71008271
-0.25191203
-0.0010002197
0.25291225
-0.95231443
-0.18731475
1.1991666
-1.0901288
1.0951675
-0.097764853
-0.78594759
-0.4493839
1.2353315
-0.68253918
-0.29624581
0.97878499
-0.12043288
0.47634163
-0.35590875
-0.051826606
0.88659616
-0.43002282
-0.51979694
0.94981977
0.55850784
0.0046917002
-0.56319953
-0.79419171
0.72514889
0.06904282
-0.99910947
0.55640862
0.44270085
-0.88787479
0.57708328
0.57448181
-1.153506
1.47752
0.1757474
0.39312689
-0.56887429
1.4531565
-1.161843
-0.29131347
-1.0758502
1.1902843
-0.47681899
-0.8813396
-0.24350434
0.051163734
-0.84046926
0.78930553
-1.0748525
1.2356263
0.57498494
-1.118636
0.54365104
0.54806768
0.73981448
-1.2878822
-0.68117723
0.5347831
-0.70931547
0.34218713
-0.39442256
-1.1676842
-0.51631334
1.044464
-0.11442427
1.0818235
-0.8935608
-0.18826271
0.8739718
0.71947138
-1.5934432
0.20586003
-0.69495911
-0.0089119643
0.189741
-0.18082904
-0.41502142
0.59076882
-0.51235367
1.3863255
-1.3783856
1.3656756
0.012710011
-0.13971684
0.61809022
0.030723372
-0.28263541
0.37708809
-0.38868577
0.011597678
0.29199503
-1.3892469
1.0972519
-0.46544825
-0.035259879
0.50070812
-0.13855981
-0.70166749
0.84022731
0.61863777
0.29198269
0.25370095
1.0992188
-1.3529198
-0.62190518
0.28565401
1.0298546
0.23141179
-1.2612664
0.029279931
1.1683901
0.58069438
0.46075841
1.3255489
-0.26224414
-1.0633048
-0.50268039
-0.1256111
-1.1672367
0.38152616
0.78571051
0.11488753
-0.5886059
0.47371836
-0.82032057
0.81667793
0.0036426426
-0.19200006
1.1555744
1.1640846
-1.7319757
0.56789108
0.63020288
0.31738148
-0.94758436
-0.4523013
-0.042092111
0.49439341
-0.13131524
-0.35875531
0.49007054
0.44050257
0.081006197
1.3721503
-0.47439942
1.0493844
0.36350088
-0.18770559
0.9048704
0.23258077
-1.1374512
0.46654305
-0.45426774
-0.82946915
0.39944633
1.5055062
-0.12508559
1.2689392
-1.1438537
0.11783233
-1.2353757
-1.4388183
0.81236075
0.62645754
1.4397062
-0.42024965
-0.75950275
-1.0827768
-0.21425274
-0.84345092
1.1046118
-0.57645701
-0.69048843
1.1854271
-0.96841115
-1.1220563
1.2316083
-0.10955201
-0.84260599
0.88261517
-0.39398599
-0.40020571
0.11367556
0.96814795
-0.031501639
-0.81271814
-0.57509047
-0.33951318
-0.18322299
1.2486866
-1.0654636
-0.4829416
0.59782913
-0.89328089
0.92842757
-0.035146679
0.0027252094
-1.195533
1.1928077
0.92391386
-0.075683151
-0.84823071
0.50846482
-0.52343034
0.014965519
1.0145896
-1.150523
0.13593334
0.077484811
0.89910795
-0.97659276
0.72676967
-0.61209417
-0.1146755
-0.45195321
0.2974136
0.15453961
0.173312
-0.33893603
-0.0042373702
-0.93995772
-0.092593821
-0.9041937
-1.1662597
1.2466266
-1.2439014
-0.57717781
-0.24667158
-0.35845804
0.15745414
0.2010039
0.72603076
-0.61717093
-0.10885982
0.21450107
-1.0600281
0.845527
0.0020713259
0.37501677
-0.43282413
-0.032624113
0.65561337
-0.036975594
-0.67555175
-0.94718876
0.77285837
-0.20188578
0.31539933
-1.6360348
1.3206355
1.0634171
-0.59385791
-0.46955922
-0.12960823
-0.69859365
0.82820187
-0.64599244
0.32900956