/*--------------------------------*- C++ -*----------------------------------*\
| =========                 |                                                 |
| \\      /  F ield         | foam-extend: Open Source CFD                    |
|  \\    /   O peration     | Version:     4.1                                |
|   \\  /    A nd           | Web:         http://www.foam-extend.org         |
|    \\/     M anipulation  |                                                 |
\*---------------------------------------------------------------------------*/
FoamFile
{
    version     2.0;
    format      ascii;
    class       surfaceScalarField;
    location    "0.9";
    object      phi;
}
// * * * * * * * * * * * * * * * * * * * * * * * * * * * * * * * * * * * * * //

dimensions      [0 3 -1 0 0 0 0];

internalField   nonuniform List<scalar> 
6703
(
-0.0042206328
0.021918036
-0.017697402
-0.0079975867
0.026981101
-0.023204147
-0.011579229
0.032388973
-0.028807331
-0.015774409
0.038476318
-0.034281138
-0.020592856
0.045608519
-0.040790072
-0.026098266
0.053961662
-0.048456252
-0.032357448
0.063718372
-0.05745919
-0.039441245
0.075088364
-0.068004567
-0.047434291
0.088302246
-0.0803092
-0.056440343
0.10361743
-0.09461138
-0.066585512
0.1213252
-0.11118003
-0.078020443
0.14176116
-0.13032623
-0.090921004
0.16532961
-0.15242905
-0.10550364
0.19255763
-0.17797499
-0.1220269
0.22418725
-0.20766399
0.26122083
-0.24278381
-0.14046392
-0.0030621056
0.024980142
-0.0061274745
0.03004647
-0.0091442311
0.03540573
-0.012702579
0.042034665
-0.016855077
0.049761017
-0.021717488
0.058824073
-0.02740876
0.069409643
-0.034058658
0.081738262
-0.041813304
0.096056892
-0.050840444
0.11264457
-0.061338469
0.13182322
-0.073550417
0.15397311
-0.087778751
0.17955794
-0.1043848
0.20916367
-0.12373761
0.24354007
0.28355505
-0.14607183
-0.0011490478
0.026129189
-0.0029825547
0.031879978
-0.0050882002
0.037511376
-0.0076142658
0.044560731
-0.010610557
0.052757309
-0.014167864
0.06238138
-0.018381422
0.073623202
-0.023362236
0.086719075
-0.029237169
0.10193182
-0.036150816
0.11955822
-0.044268653
0.13994106
-0.053783012
0.16348747
-0.064923074
0.190698
-0.077964121
0.22220472
-0.09321048
0.25878642
0.30131311
-0.11096854
-0.00043487117
0.026564058
-0.0016067087
0.033051816
-0.0028433726
0.03874804
-0.0043745537
0.046091913
-0.0062078656
0.054590621
-0.0084126973
0.064586212
-0.011054646
0.076265151
-0.014213588
0.089878017
-0.017981539
0.10569978
-0.022464544
0.12404122
-0.027784413
0.14526093
-0.034080227
0.16978328
-0.041508459
0.19812624
-0.050236713
0.23093297
-0.060408162
0.26895787
0.31284958
-0.071944634
0.00020323513
0.026360823
-0.00038177541
0.033636827
-0.00083011468
0.039196379
-0.0014485024
0.0467103
-0.0021825129
0.055324631
-0.0030792143
0.065482913
-0.0041686997
0.077354637
-0.0054945401
0.091203857
-0.0071078466
0.10731308
-0.0090700092
0.12600339
-0.011454008
0.14764493
-0.014345727
0.172675
-0.017844393
0.2016249
-0.022060614
0.23514919
-0.027113794
0.27401105
0.31916512
-0.033429336
0.00086933487
0.025491488
0.00094549581
0.033560666
0.0012711692
0.038870706
0.0015748548
0.046406615
0.0019450846
0.054954402
0.0023618359
0.065066162
0.0028299238
0.076886549
0.0033441397
0.090689641
0.0038965132
0.10676071
0.0044726748
0.12542722
0.0050506157
0.14706699
0.0055989999
0.17212661
0.0060755387
0.20114836
0.0064241486
0.23480058
0.006598997
0.27383621
0.31921954
0.0065445825
0.0015701564
0.023921331
0.0024133945
0.032717429
0.0035215399
0.037762561
0.0047891419
0.045139013
0.0062853186
0.053458225
0.0080338568
0.063317624
0.010069656
0.07485075
0.012427512
0.088331785
0.015142465
0.10404576
0.018247562
0.12232213
0.0217725
0.14354205
0.02574258
0.16815653
0.030179083
0.19671186
0.035097949
0.22988172
0.040522814
0.26841134
0.31338992
0.046352433
0.0022814504
0.021639879
0.0039740241
0.031024856
0.0058557663
0.03588082
0.0080920863
0.042902693
0.010714173
0.050836138
0.013797017
0.06023478
0.017402757
0.07124501
0.021603662
0.084130881
0.026474449
0.09917497
0.032091943
0.11670463
0.038533542
0.13710045
0.045876102
0.16081397
0.054195442
0.18839252
0.063559983
0.22051718
0.074020556
0.25795077
0.30187914
0.085531336
0.0030505339
0.018589344
0.0057464407
0.02832895
0.0084552847
0.033171978
0.011664789
0.039693188
0.015402324
0.047098603
0.01979463
0.055842474
0.024935143
0.066104497
0.030930537
0.078135486
0.037892594
0.092212914
0.045938992
0.10865824
0.055193041
0.1278464
0.065785259
0.15022176
0.077858877
0.1763189
0.09157839
0.20679766
0.10713769
0.24239147
0.28425146
0.12476537
0.0041121454
0.014477198
0.008027377
0.024413719
0.011761738
0.029437617
0.016020673
0.035434254
0.020891893
0.042227382
0.026554835
0.050179532
0.033148254
0.059511078
0.040815496
0.070468245
0.049704506
0.083323904
0.059970404
0.098392337
0.071777347
0.11603946
0.085303792
0.13669531
0.10075641
0.16086629
0.1184018
0.18915228
0.13862512
0.22216814
0.26068295
0.16219363
0.0044930112
0.0099841867
0.010603703
0.018303027
0.016391508
0.023649812
0.022244146
0.029581615
0.028467193
0.036004334
0.035407332
0.043239393
0.04332093
0.051597481
0.052424431
0.061364745
0.06291894
0.072829396
0.074999213
0.086312064
0.088856761
0.10218191
0.10468478
0.12086729
0.12268756
0.1428635
0.14309322
0.16874662
0.16612613
0.19913523
0.23448591
0.19232318
0.0079267496
0.0020574382
0.015400573
0.010829203
0.021561316
0.017489067
0.027743811
0.023399119
0.034427579
0.029320565
0.041861693
0.035805279
0.050232389
0.043226785
0.059690585
0.051906549
0.070341327
0.062178654
0.082239696
0.074413695
0.095393902
0.089027706
0.10977609
0.1064851
0.12534376
0.12729583
0.14206898
0.1520214
0.15986604
0.18133817
0.21560914
0.17874281
-0.00029232485
-0.017754627
0.018046952
-0.0022598735
-0.021269553
0.023237102
-0.0059021585
-0.025310184
0.028952469
-0.010155771
-0.030080153
0.034333765
-0.015192858
-0.035678438
0.040715525
-0.021138764
-0.042230252
0.048176158
-0.028128899
-0.049873885
0.05686402
-0.036314167
-0.058760574
0.066945842
-0.045842542
-0.06905595
0.078584325
-0.056851784
-0.080941558
0.0919508
-0.069466703
-0.094617926
0.10723284
-0.083796381
-0.11031143
0.12464111
-0.09994185
-0.12828753
0.144433
-0.11805322
-0.14885954
0.16697091
-0.13851272
-0.17236304
0.19282253
-0.19924965
0.22312531
-0.16238838
-0.0027258157
-0.015028811
-0.0061842646
-0.017811104
-0.010396952
-0.021097497
-0.01549058
-0.024986525
-0.021605097
-0.029563921
-0.028905216
-0.034930133
-0.037581539
-0.041197562
-0.047852364
-0.04848975
-0.059966878
-0.056941436
-0.074208828
-0.066699608
-0.090900369
-0.077926384
-0.11040685
-0.09080495
-0.1331449
-0.10554949
-0.1595847
-0.12241974
-0.19019172
-0.14175601
-0.16405224
-0.22538913
-0.0032033914
-0.01182542
-0.0071161572
-0.013898338
-0.011808643
-0.016405012
-0.017417347
-0.01937782
-0.024102671
-0.022878597
-0.032051144
-0.02698166
-0.041477483
-0.031771222
-0.052626731
-0.037340502
-0.06577661
-0.043791557
-0.081240451
-0.051235767
-0.099371495
-0.059795341
-0.12056982
-0.069606622
-0.14529269
-0.080826622
-0.17406961
-0.093642815
-0.20755599
-0.10826963
-0.12488723
-0.246721
-0.0032944947
-0.0085309251
-0.0073902529
-0.0098025802
-0.012358817
-0.011436447
-0.018330259
-0.013406378
-0.025468756
-0.0157401
-0.033968152
-0.018482264
-0.044051818
-0.021687557
-0.055973513
-0.025418807
-0.070018516
-0.029746554
-0.086504985
-0.034749297
-0.10578605
-0.040514276
-0.12825462
-0.047138049
-0.1543546
-0.054726648
-0.18459427
-0.063403142
-0.21949356
-0.073370344
-0.085066236
-0.25931455
-0.0036228865
-0.0049080385
-0.0080246558
-0.0054008109
-0.013292372
-0.0061687309
-0.019583789
-0.007114961
-0.027085705
-0.0082381843
-0.036012434
-0.0095555352
-0.046607626
-0.011092365
-0.059146254
-0.012880178
-0.073936616
-0.014956192
-0.091322967
-0.017362947
-0.11168857
-0.020148671
-0.13546088
-0.023365737
-0.16311433
-0.027073199
-0.19519292
-0.031324551
-0.23250493
-0.036058337
-0.040872912
-0.27669825
-0.0011487351
0.026139843
-0.024991109
-0.0029824617
0.03189546
-0.030061733
-0.0050882232
0.037532198
-0.035426436
-0.0076142956
0.044589625
-0.042063553
-0.010610308
0.052798285
-0.049802273
-0.014166595
0.062438435
-0.058882148
-0.018377676
0.073700085
-0.069489004
-0.023353445
0.086817695
-0.081841926
-0.029219336
0.10204979
-0.096183901
-0.036118609
0.11968569
-0.11278642
-0.044216773
0.14005832
-0.13196016
-0.053709868
0.16356697
-0.15407387
-0.064836428
0.19071627
-0.17958971
-0.077883336
0.22216596
-0.20911905
-0.093151377
0.25874293
-0.24347489
0.30132939
-0.2836068
-0.11087397
-0.0048701593
-3.7879202e-05
-0.010233728
-3.7242449e-05
-0.016365457
-3.7001463e-05
-0.023444331
-3.6087506e-05
-0.031648648
-3.3866609e-05
-0.041174366
-2.9817773e-05
-0.052243215
-2.3515627e-05
-0.065108667
-1.4726467e-05
-0.080061276
-3.5823897e-06
-0.097433431
9.2077914e-06
-0.11760432
2.2217111e-05
-0.14100348
3.3428458e-05
-0.16811711
4.0429002e-05
-0.19948121
3.9549108e-05
-0.23556084
2.1290355e-05
-3.6265977e-05
-0.27639749
-0.0049670736
0.0049291944
-0.010414195
0.0054098786
-0.016631383
0.0061801868
-0.023800431
0.0071329606
-0.032099576
0.0082652784
-0.041722975
0.0095935814
-0.052888921
0.01114243
-0.065845742
0.012942094
-0.080877218
0.015027893
-0.098307666
0.017439657
-0.11850743
0.020221982
-0.14189632
0.023422316
-0.1689472
0.027091307
-0.20017415
0.031266502
-0.23603418
0.035881316
0.040658795
-0.27672924
-0.0036415067
0.0085707011
-0.0080823747
0.0098507467
-0.01339741
0.011495222
-0.019741278
0.013476829
-0.027298549
0.01582255
-0.036281048
0.01857608
-0.046929323
0.021790706
-0.059514449
0.025527221
-0.074339792
0.029853236
-0.09174324
0.034843105
-0.11209951
0.040578248
-0.13582474
0.047147548
-0.16338127
0.054647839
-0.19530224
0.063187476
-0.23233991
0.072918986
0.084137996
-0.27581911
-0.0032857664
0.011856467
-0.0073732237
0.013938204
-0.012332045
0.016454043
-0.018290191
0.019434975
-0.025409526
0.022941884
-0.033881001
0.027047554
-0.043924203
0.031833908
-0.055787927
0.037390945
-0.069751122
0.043816431
-0.086124343
0.051216326
-0.10525257
0.059706472
-0.127522
0.069416984
-0.15337675
0.080502587
-0.18334775
0.093158472
-0.21802558
0.10759682
0.12386194
-0.25774952
-0.003182387
0.015038855
-0.0070696525
0.01782547
-0.011730479
0.02111487
-0.017299714
0.025004211
-0.023935793
0.029577963
-0.031822824
0.034934585
-0.041172648
0.041183733
-0.052227157
0.048445453
-0.065261213
0.056850487
-0.080587026
0.066542139
-0.098561616
0.077681062
-0.11959933
0.0904547
-0.14418798
0.10509124
-0.17290941
0.1218799
-0.20657772
0.14126513
0.16423443
-0.24695021
-0.0027139977
0.017752852
-0.0061569818
0.021268454
-0.010349895
0.025307783
-0.01541889
0.030073205
-0.021503454
0.035662527
-0.028768125
0.042199256
-0.037404072
0.04981968
-0.047631774
0.058673155
-0.059705758
0.06892447
-0.073920908
0.08075729
-0.090620518
0.094380672
-0.11020754
0.11004173
-0.1331646
0.1280483
-0.16007734
0.14879263
-0.1915251
0.17271289
0.20014113
-0.2274318
-0.00027561128
0.018028464
-0.0022330074
0.023225849
-0.0058696085
0.028944384
-0.010115855
0.034319452
-0.015145225
0.040691896
-0.021083852
0.048137882
-0.028068513
0.056804341
-0.036252527
0.066857169
-0.045788397
0.07846034
-0.056821044
0.091789936
-0.069485778
0.10704541
-0.083903772
0.12445972
-0.10017942
0.14432395
-0.11842068
0.16703389
-0.13884417
0.19313638
0.22344984
-0.16215288
0.0079287917
-0.0099747912
0.002045989
0.015407075
-0.018298471
0.010820225
0.021572344
-0.023649772
0.017484476
0.027757793
-0.029585886
0.023400441
0.034443199
-0.036015091
0.029329682
0.0418774
-0.043259149
0.035824946
0.050245867
-0.05162916
0.043260694
0.059698071
-0.061410884
0.051958678
0.070336638
-0.072890519
0.062251951
0.082212856
-0.086384011
0.074507792
0.09532947
-0.10225219
0.089135575
0.10965119
-0.1209111
0.10658938
0.12512464
-0.14284013
0.12736668
0.14169231
-0.16859592
0.15202825
0.15918372
-0.19873243
0.18124103
-0.23379321
0.21473611
0.17824082
0.004499559
-0.014474365
0.010617947
-0.024416841
0.016413461
-0.029445284
0.022274249
-0.035446678
0.028506295
-0.042247137
0.035456649
-0.050209506
0.043381989
-0.0595545
0.052498703
-0.070527598
0.063007444
-0.083399261
0.075102284
-0.098478851
0.088974791
-0.1161247
0.1048219
-0.1367582
0.12286296
-0.1608812
0.14337142
-0.18910438
0.16670593
-0.22206694
-0.26077628
0.193689
0.004117741
-0.018592093
0.0080390318
-0.028338157
0.011779008
-0.033185247
0.016044289
-0.039711959
0.020923111
-0.047125957
0.026595147
-0.055881542
0.033199222
-0.066158575
0.040878352
-0.078206728
0.049779653
-0.092300562
0.060056893
-0.10875609
0.071872707
-0.12794051
0.085405006
-0.1502905
0.10086282
-0.17633902
0.11851707
-0.20675862
0.13874391
-0.24229378
-0.28421702
0.16218465
0.0030536296
-0.021645722
0.0057531014
-0.031037634
0.0084653019
-0.035897441
0.011678944
-0.042925602
0.01542159
-0.050868602
0.019820061
-0.060280013
0.024967717
-0.071306231
0.030970783
-0.084209794
0.037940126
-0.099269904
0.045991973
-0.11680794
0.055248
-0.13719654
0.06583813
-0.16088063
0.077908619
-0.18840951
0.091633149
-0.22048315
0.10722808
-0.25788871
-0.30194896
0.12496002
0.0022830094
-0.02392874
0.003977146
-0.032731761
0.0058604692
-0.037780763
0.0080989101
-0.045164045
0.010723737
-0.053493429
0.013809947
-0.063366222
0.017419524
-0.074915809
0.021624286
-0.088414555
0.026498036
-0.10414365
0.032116141
-0.12242604
0.038554186
-0.14363458
0.045887667
-0.16821411
0.054192804
-0.19671464
0.063539685
-0.22983003
0.073981197
-0.26833022
-0.31339716
0.085429405
0.0015710809
-0.025499826
0.0024149096
-0.033575583
0.0035238333
-0.038889688
0.0047925593
-0.046432771
0.0062902992
-0.054991169
0.008040875
-0.065116798
0.010079094
-0.076954028
0.012439455
-0.090774916
0.015156352
-0.10686055
0.018261781
-0.12553147
0.021784156
-0.14715696
0.025747935
-0.17217789
0.030175154
-0.20114186
0.035084786
-0.23473967
0.040510076
-0.27375551
-0.31921835
0.046331262
0.00087019213
-0.026370016
0.00094668082
-0.033652074
0.0012730294
-0.039216037
0.001577691
-0.046737433
0.0019493434
-0.055362822
0.0023680884
-0.065535543
0.0028387791
-0.077424719
0.0033561656
-0.091292303
0.0039120375
-0.10741642
0.0044915477
-0.12611098
0.0050720252
-0.14773744
0.0056216259
-0.17272749
0.0060983656
-0.2016186
0.0064483903
-0.23508969
0.0066327514
-0.27393987
-0.3191553
0.0065696975
0.00020403002
-0.026574043
-0.0003807852
-0.033067262
-0.00082842602
-0.038768396
-0.0014458102
-0.046120049
-0.0021782915
-0.05463034
-0.0030726895
-0.064641145
-0.0041588518
-0.076338556
-0.0054800374
-0.089971117
-0.0070870863
-0.10580937
-0.0090412579
-0.12415681
-0.01141576
-0.14536293
-0.01429723
-0.16984602
-0.017785895
-0.19812994
-0.021991477
-0.23088411
-0.027026404
-0.26890494
-0.31285505
-0.033326652
-0.00043419896
-0.0016060019
-0.0028421994
-0.004372623
-0.006204678
-0.0084073882
-0.011045859
-0.014199282
-0.017958863
-0.022429984
-0.027734596
-0.034013651
-0.041427316
-0.050145464
-0.060307474
-0.07183313
-0.0030583494
-0.021932759
-0.0061239497
-0.026996132
-0.0091432973
-0.032407089
-0.01270421
-0.03850264
-0.016859542
-0.04564694
-0.021724526
-0.054017164
-0.027417037
-0.063796494
-0.034064905
-0.075194057
-0.041811339
-0.088437468
-0.050820516
-0.10377724
-0.061288525
-0.12149215
-0.073462011
-0.14190039
-0.087660133
-0.16539159
-0.10427775
-0.19250143
-0.12373177
-0.22402087
-0.26099821
-0.14634035
-0.0042161577
-0.017716601
-0.0079973298
-0.02321496
-0.011588363
-0.028816055
-0.015794926
-0.034296078
-0.020627265
-0.040814601
-0.026148652
-0.048495777
-0.032424626
-0.057520519
-0.039523493
-0.06809519
-0.047525879
-0.080435082
-0.056530079
-0.094773039
-0.066657203
-0.11136502
-0.07805903
-0.13049856
-0.090929945
-0.15252067
-0.10553025
-0.17790113
-0.12212903
-0.20742209
-0.24261551
-0.14051173
0.0047701643
-0.0030491322
-0.0017210273
0.015421116
6.5769823e-05
-0.010716719
0.027987325
0.0044757443
-0.017041955
0.041294068
0.009369249
-0.022675996
0.054366408
0.015249715
-0.028322058
0.067074516
0.021726614
-0.034434722
0.079427087
0.028988865
-0.041341435
0.091475729
0.037279471
-0.04932811
0.10332985
0.046829576
-0.058683693
0.1151722
0.057885105
-0.069727455
0.12724607
0.070748859
-0.082822731
0.13984755
0.085779686
-0.098381162
0.15334199
0.10336419
-0.11685864
0.16818041
0.12391862
-0.13875705
0.18487973
0.14793669
-0.16463601
0.17596198
-0.19509961
0.20401736
0.002283363
-0.0053324935
0.008110091
-0.0057609593
0.01711131
-0.004525475
0.029223552
-0.0027429927
0.044738526
-0.00026525838
0.061991632
0.0044735096
0.079979574
0.011000924
0.097947869
0.019311176
0.115824
0.028953442
0.13379548
0.03991363
0.15202588
0.052518454
0.17085366
0.066951911
0.19090951
0.083308341
0.21319962
0.10162851
0.23905221
0.1220841
0.14490422
0.27010998
0.00011565195
-0.005448144
0.00014737918
-0.005792688
0.0020139642
-0.0063920598
0.0064600425
-0.0071890705
0.014373649
-0.0081788642
0.026195323
-0.0073481631
0.042343452
-0.0051472047
0.063115847
-0.0014612179
0.086731747
0.0053375425
0.11111457
0.015530811
0.13481788
0.028815139
0.15808962
0.043680166
0.18165159
0.05974637
0.20672109
0.076559021
0.23464699
0.094158195
0.11255203
0.26699918
0.00034932505
-0.0057974701
0.00070399681
-0.0061473593
0.001140219
-0.0068282819
0.001632192
-0.0076810431
0.0021131037
-0.0086597754
0.0045084256
-0.0097434846
0.010249461
-0.01088824
0.020929127
-0.012140884
0.037446064
-0.011179393
0.059676453
-0.0066995771
0.084505719
0.0039858742
0.10471798
0.023467909
0.12975918
0.03470516
0.15818475
0.048133456
0.19053352
0.061809423
0.074639024
0.22844652
-0.00023240974
-0.0055650623
-0.00093714452
-0.0054426247
-0.0020437618
-0.0057216647
-0.0035806863
-0.0061441184
-0.0055931127
-0.0066473487
-0.0081353415
-0.0072012555
-0.011247469
-0.0077761115
-0.015090599
-0.0082977537
-0.017590432
-0.0086795592
-0.015393871
-0.0088961358
-0.0017557009
-0.0096522948
0.02053394
0.0011782682
0.043400719
0.011838381
0.069813302
0.021720873
0.10174535
0.029877375
0.035751339
0.14063304
-0.0055479259
-1.7138176e-05
-0.010963969
-2.6582805e-05
-0.016647461
-3.8172911e-05
-0.022739389
-5.2190833e-05
-0.029317771
-6.8967568e-05
-0.036430198
-8.8828606e-05
-0.044094153
-0.00011215685
-0.052252195
-0.00013971126
-0.060758615
-0.00017313809
-0.06944083
-0.00021392038
-0.078829226
-0.00026389856
-0.077385208
-0.00026574898
-0.065326178
-0.00022064908
-0.04387285
0.00026754559
-0.016252615
0.0022571409
0.0088736678
0.010625056
-0.0056021189
0.005584981
-0.01107167
0.0054429689
-0.016817449
0.0057076058
-0.022984163
0.0061145242
-0.029651224
0.0065980936
-0.036863652
0.0071235991
-0.044628658
0.0076528485
-0.052866216
0.0080978456
-0.061393621
0.0083542656
-0.069967413
0.0083598704
-0.078668829
0.0084375169
-0.076928972
-0.0020056082
-0.064844339
-0.012305283
-0.042830264
-0.02174653
-0.010776001
-0.029797122
-0.035239901
0.033337568
-0.00023322074
0.0058182033
-0.00095188596
0.0061616338
-0.0020857561
0.0068414756
-0.0036664802
0.0076952482
-0.0057430945
0.0086747077
-0.0083734402
0.0097539446
-0.011598027
0.010877434
-0.015572073
0.012071892
-0.018136631
0.010918823
-0.015855719
0.0060789566
-0.0025811425
-0.0048370594
0.019073557
-0.023660308
0.042007201
-0.035238927
0.068931263
-0.048670593
0.10151028
-0.062376137
-0.07550448
0.14177486
0.00034547467
0.0054727308
0.0006948377
0.0058122695
0.0011255722
0.0064107404
0.001613397
0.0072074226
0.0020922207
0.0081958833
0.0044840735
0.0073620913
0.01021478
0.005146728
0.020863073
0.0014235976
0.037267699
-0.0054858048
0.059201628
-0.015854974
0.083526344
-0.029161776
0.103874
-0.044007965
0.12865286
-0.060017783
0.15672013
-0.076737862
0.1884911
-0.094147113
-0.11209044
0.22507707
0.00013291543
0.0053398158
0.00017702504
0.0057681591
0.0020572668
0.0045304985
0.0065197836
0.002744905
0.014453326
0.0002623394
0.026294599
-0.0044791834
0.042459895
-0.01101857
0.063239278
-0.019355787
0.086779328
-0.029025855
0.11094714
-0.040022784
0.13444601
-0.052660652
0.157545
-0.067106951
0.18096786
-0.083440643
0.20592079
-0.10169079
0.23378575
-0.12201207
-0.1446597
0.266355
0.0022849953
0.0030548177
0.0081056176
-5.2463391e-05
0.017098592
-0.0044624745
0.029203913
-0.0093604123
0.044714785
-0.015248531
0.061969777
-0.021734177
0.07995906
-0.029007854
0.097916996
-0.037313724
0.11577442
-0.046883277
0.13371279
-0.057961155
0.1518977
-0.070845561
0.17067613
-0.085885383
0.19068918
-0.10345369
0.21295197
-0.12395358
0.23880697
-0.14786707
-0.17557769
0.26972496
0.0047644416
-0.0017096394
0.015419329
-0.010707377
0.027994086
-0.017037206
0.041310545
-0.022676861
0.054392477
-0.028330452
0.067111728
-0.034453424
0.079477999
-0.041374123
0.091543122
-0.049378848
0.10341566
-0.058755812
0.11527604
-0.069821543
0.12736425
-0.08293377
0.13997431
-0.098495444
0.15347274
-0.11695212
0.1683196
-0.13880044
0.18506459
-0.16461205
-0.19516188
0.20464878
0.00035276375
-0.00033106147
0.00048981691
0.0005281305
0.00042995452
0.00011158486
-0.00054326379
-0.0016906621
-0.0035395229
-0.0063609664
-0.010495592
-0.016362102
-0.024467201
-0.035408301
-0.049935916
-0.069269883
0.00035249211
-0.0003303508
0.00048890621
0.00052659338
0.00042751733
0.00010789813
-0.00054860154
-0.0016979501
-0.0035487072
-0.0063709467
-0.010503127
-0.016360573
-0.024448249
-0.035378474
-0.049978026
-0.06946823
0.00044919706
-0.00033634947
0.00089646784
0.0016200481
0.0026192776
0.0039908002
0.0058773705
0.0084572011
0.01195334
0.016639589
0.022841395
0.030935332
0.04134989
0.054577698
0.071206673
0.090780907
0.00044889509
-0.00033641082
0.00089600723
0.0016191301
0.0026176364
0.0039881939
0.0058735442
0.0084519833
0.011946944
0.016633185
0.02283816
0.0309421
0.041379297
0.054643648
0.071345807
0.091855342
0.24300397
-0.53632787
0.2933239
1.2754994
-1.3206355
0.045136127
0.18666575
-0.48445554
0.29778979
1.2754994
-0.33199069
0.050448651
0.28154204
-1.2669453
0.78712984
0.47981551
-0.16840742
0.66048594
-0.49207852
1.1647877
0.44040599
-1.6051937
1.2118217
0.30147259
-1.5132942
0.19143486
-0.26070474
-0.29297871
0.22351048
0.54419371
1.0046264
-1.5488201
-0.54170791
-0.57902418
1.1207321
-1.1497209
0.51057065
0.63915029
-0.25004393
0.60352823
-0.3534843
0.55175126
-0.038880515
-0.51287074
1.09962
-1.1396292
0.04000918
0.070846609
0.25998694
-0.33083355
0.17579527
-0.25545406
0.079658794
0.94117423
-0.34246434
-0.59870989
-0.16562398
-0.16636671
-1.1548283
0.61312043
-1.4218493
1.4085551
0.01329425
0.10903776
1.2784869
-1.3875246
0.0055268893
-0.84973688
0.84420999
0.69821397
0.21231867
-0.91053264
-0.60607748
-0.91243581
1.5185133
0.95731577
-0.31698287
-0.6403329
0.21701599
0.96488429
-1.1819003
-0.34563655
0.83838097
-0.49274442
1.0414527
-0.34323875
0.30417937
-0.21755012
-0.086629249
-0.02716277
1.2550266
-1.2278638
0.96357434
0.0030152492
-0.96658959
0.15716361
-0.91966759
0.76250397
1.326829
-1.1175434
-0.20928557
1.1286311
-1.1968372
0.068206037
-0.7202731
0.87743671
0.84017338
-0.48909908
-0.3510743
-1.2970295
0.25553268
1.0414968
0.38347072
-0.54986147
0.16639075
1.285207
-0.56469509
-0.72051194
1.1647877
-0.34947784
0.84480065
-0.49532281
1.2118217
-0.13091679
0.56093545
-0.43001866
-0.28498997
1.0017843
-0.71679433
-1.4703564
0.62502345
0.84533294
-1.1647877
1.7485516
-0.58376393
-1.2118217
1.763815
-0.55199332
0.47860583
-0.08312886
-0.39547697
-0.58683447
0.26242467
0.3244098
0.21620311
-0.40556962
0.1893665
0.14653995
0.17387604
-0.32041599
-0.47367679
0.85722635
-0.38354957
0.10134784
0.8302661
-0.93161395
0.14617886
-0.28679081
0.14061195
-0.82384939
0.52344963
0.30039976
-1.5781507
0.17200781
1.4061429
1.2903213
-0.45894337
-0.83137795
1.1967586
0.093562741
0.83026916
0.61424489
-1.444514
0.77733704
0.65381322
-1.4311503
-0.36875936
0.75626898
-0.38750962
0.10659432
-0.6028755
0.49628118
-0.99678752
1.0343709
-0.037583347
0.66592729
-1.2081578
0.54223054
0.71346531
0.2611609
-0.97462621
-0.15503601
0.93003972
-0.77500371
-1.3821551
1.0971651
-0.35327532
0.92782782
-0.57455249
0.2797129
0.27203836
-0.62829162
0.5709727
0.057318918
0.74324186
0.95743852
-1.7006804
1.3396305
-1.238283
-0.10134757
0.078150669
-0.44729561
0.74713339
-0.29983778
0.98195011
-0.46712488
-0.51482523
1.4964922
-1.3485138
-0.14797847
1.1580066
-1.0279462
-0.13006034
0.44028983
-0.60068903
0.1603992
-0.34199773
0.13259051
0.20940723
0.20408364
-0.5497202
-1.8130218
1.2860974
0.52692438
0.34797349
0.75164652
0.37056618
-1.3668373
0.9962711
-0.67481676
1.1403625
-0.4655457
-0.15683125
-0.9299413
1.0867726
0.43634851
-0.32277619
-0.11357233
0.075634976
1.2639955
0.83742192
-0.0025969748
-0.83482494
-1.1951199
0.48846467
0.70665527
0.079529445
0.55003839
-0.62956784
0.47840098
0.3617724
0.66037424
0.36472242
-1.0250967
0.68868074
-0.26126511
-0.42741563
-0.72562569
-0.80806163
0.46254224
-0.27587649
-0.11592013
-0.2324472
0.34836733
-0.43442832
0.84923046
-0.41480215
-0.46809594
1.2113378
-0.86156525
1.1454219
-0.28385668
-0.922896
-0.27222393
-0.01073264
1.1393638
1.2401176
-1.1594632
-0.080654413
-0.76317098
-0.38654996
-1.6839975
1.1131899
0.57080756
-1.8140573
1.317446
0.49661124
0.86303269
-0.38792849
-0.47510421
0.20688018
-0.55635802
0.30796546
-0.78164225
0.0067459082
0.63575064
-0.64249655
0.46899515
-0.62403115
-0.22131875
0.60478947
0.2838834
0.65729083
1.0032039
0.49328831
0.58119359
-0.57444768
0.43543735
1.0425356
-1.4779729
1.531411
-0.87861435
-0.65279662
-0.32957075
0.72139989
-0.39182915
-0.0095547639
0.22575788
0.30919493
-0.16265498
0.13001425
0.13669492
-0.26670917
1.6360348
-1.6631976
0.12901003
0.067959851
-0.19696988
0.17504049
-0.034407455
-1.1248439
1.2113653
-0.086521418
-0.31232232
0.20720778
0.10511454
0.59102261
-0.54936238
-0.041660228
-0.84421978
0.76990557
0.074314211
0.29060068
-0.14442182
-0.052235216
0.47837327
-0.42613806
-0.72528716
1.3292093
-0.60392218
0.44988099
0.83532604
1.1902708
-0.52434356
0.51394061
0.34909208
-0.53374984
0.40283304
0.9909588
-1.1477901
-0.46455315
0.34863302
0.84563768
0.39447988
0.78917917
-1.6227405
0.83356135
0.46526372
0.25327152
-0.20282287
-0.46092048
0.70392445
1.1970091
-1.1970091
-0.33858714
-0.19316869
1.0305906
0.11892169
-0.56621731
-0.058674177
0.96265394
-0.90397976
-0.61146405
1.4417332
-0.63845176
1.4157888
1.2718663
-0.729116
-0.5427503
0.62867479
0.4582289
-0.78779965
0.89849285
-1.1797524
0.28125955
0.88555003
-0.88002314
0.1366081
-0.067492437
-1.0289145
1.096407
1.47752
0.24890989
-1.7264299
-0.82916098
1.2645983
-0.62340133
0.70893267
-0.64262084
0.72805025
-0.057607495
0.71798174
0.012275304
0.55246323
-0.56473853
-0.86552538
-0.039209296
0.90473467
0.54121333
-1.2665005
-1.353878
1.2952038
0.90033112
0.40757818
-1.3079093
-0.11051418
-0.52176642
0.6322806
-0.56564742
1.1098411
-0.91460362
0.34295847
0.57164515
0.57100955
-0.49148011
0.1363042
-0.79554796
0.65924376
0.99740264
-1.1091232
0.11172055
0.87606079
0.39580551
-1.5160817
0.79580863
0.074588144
1.0834184
0.96576354
0.73717165
-1.3432491
-0.14831756
0.58860738
-1.053724
0.83476956
0.21895443
-1.0785171
0.96800293
0.574719
0.72531972
-1.3000387
0.9106203
0.017207516
-0.64646267
0.78276687
-0.31079152
-0.74293247
-0.17453237
-0.33625117
0.51078354
0.45547443
-0.73803561
0.28256118
0.14887306
0.43804167
-0.58691473
-1.0166619
0.25933945
0.75732241
0.16077379
1.19767
-1.3584438
-0.94419508
-0.45676992
1.400965
0.24723306
0.71008271
-0.25191195
-0.0010001824
0.25291213
-0.95231443
-0.18731476
1.1991666
-1.0901288
1.0951674
-0.097764799
-0.78594761
-0.44938401
1.2353316
-0.68253918
-0.29624581
0.97878499
-0.12043288
0.47634163
-0.35590876
-0.051826608
0.88659616
-0.43002278
-0.51979687
0.94981965
0.55850785
0.0046917078
-0.56319955
-0.79419171
0.72514889
0.069042817
-0.99910947
0.55640862
0.44270086
-0.88787479
0.57708327
0.57448181
-1.153506
1.47752
0.1757474
0.39312689
-0.56887429
1.4531565
-1.1618431
-0.29131346
-1.0758502
1.1902843
-0.47681898
-0.8813396
-0.24350433
0.051163737
-0.84046926
0.78930553
-1.0748525
1.2356263
0.57498487
-1.1186359
0.54365105
0.54806768
0.73981448
-1.2878822
-0.68117723
0.5347831
-0.70931547
0.34218717
-0.39442238
-1.1676842
-0.51631334
1.044464
-0.11442426
1.0818235
-0.8935608
-0.18826271
0.87397181
0.71947137
-1.5934432
0.20586003
-0.69495912
-0.0089119674
0.18974095
-0.18082899
-0.41502142
0.59076882
-0.51235366
1.3863255
-1.3783856
1.3656756
0.012710015
-0.13971706
0.61809033
0.03072338
-0.28263533
0.37708809
-0.38868577
0.011597675
0.29199504
-1.3892469
1.0972519
-0.46544824
-0.035259882
0.50070813
-0.13855982
-0.70166749
0.84022731
0.61863772
0.29198258
0.25370095
1.0992188
-1.3529198
-0.62190518
0.28565401
1.0298546
0.23141179
-1.2612664
0.029279931
1.1683901
0.58069436
0.46075835
1.3255491
-0.26224425
-1.0633048
-0.50268049
-0.12561112
-1.1672367
0.38152616
0.78571051
0.11488753
-0.58860589
0.47371837
-0.82032057
0.81667793
0.0036426393
-0.19200007
1.1555744
1.1640846
-1.7319757
0.56789108
0.63020282
0.31738155
-0.94758437
-0.4523013
-0.042092108
0.49439341
-0.13131524
-0.35875531
0.49007055
0.44050258
0.081006188
1.3721503
-0.47439942
1.0493843
0.3635009
-0.18770563
0.90487048
0.23258067
-1.1374512
0.46654305
-0.45426775
-0.82946907
0.3994463
1.5055062
-0.12508558
1.2689392
-1.1438536
0.11783234
-1.2353757
-1.4388182
0.81236079
0.6264574
1.4397062
-0.42024967
-0.75950273
-1.0827768
-0.21425274
-0.84345095
1.1046118
-0.57645695
-0.6904884
1.1854271
-0.96841114
-1.1220563
1.2316084
-0.10955207
-0.84260599
0.88261517
-0.393986
-0.40020571
0.11367556
0.96814795
-0.031501639
-0.81271814
-0.57509045
-0.33951317
-0.18322297
1.2486865
-1.0654635
-0.48294161
0.59782913
-0.89328089
0.92842757
-0.035146678
0.0027252136
-1.1955329
1.1928077
0.92391382
-0.075682958
-0.84823086
0.50846477
-0.52343027
0.0149655
1.0145896
-1.1505229
0.13593334
0.077484917
0.89910779
-0.9765927
0.72676967
-0.61209417
-0.11467551
-0.45195337
0.29741371
0.15453966
0.17331202
-0.33893599
-0.004237416
-0.93995767
-0.092593817
-0.9041937
-1.1662595
1.2466266
-1.2439013
-0.57717781
-0.24667158
-0.35845813
0.15745427
0.20100386
0.72603075
-0.61717093
-0.10885982
0.21450124
-1.0600282
0.84552693
0.0020713283
0.37501677
-0.43282413
-0.03262411
0.65561319
-0.036975469
-0.67555176
-0.94718876
0.77285854
-0.20188584
0.31539933
-1.6360348
1.3206355
1.0634172
-0.59385799
-0.46955919
-0.12960822
-0.69859365
0.82820187