/*--------------------------------*- C++ -*----------------------------------*\
| =========                 |                                                 |
| \\      /  F ield         | foam-extend: Open Source CFD                    |
|  \\    /   O peration     | Version:     4.1                                |
|   \\  /    A nd           | Web:         http://www.foam-extend.org         |
|    \\/     M anipulation  |                                                 |
\*---------------------------------------------------------------------------*/
FoamFile
{
    version     2.0;
    format      ascii;
    class       volScalarField;
    location    "0.1";
    object      p;
}
// * * * * * * * * * * * * * * * * * * * * * * * * * * * * * * * * * * * * * //

dimensions      [0 2 -2 0 0 0 0];

internalField   nonuniform List<scalar> 
4242
(
-0.26180887
-0.26342117
-0.2644268
-0.26424306
-0.2620375
-0.25650415
-0.24611036
-0.22961165
-0.2065529
-0.17736934
-0.14328353
-0.10599636
-0.067512423
-0.030242944
0.0038576702
0.038177743
-0.45663784
-0.45673581
-0.45597215
-0.45301635
-0.44604436
-0.43293964
-0.41199973
-0.38268551
-0.34608981
-0.30454787
-0.26057579
-0.21599018
-0.17186227
-0.12917162
-0.08909997
-0.05083643
-0.66872996
-0.66861424
-0.66768077
-0.66464213
-0.65758856
-0.64405009
-0.621492
-0.58823749
-0.54440122
-0.49210278
-0.43464336
-0.37514466
-0.31584513
-0.2582246
-0.20341502
-0.15310835
-0.86475328
-0.86414343
-0.86269444
-0.85915102
-0.85153819
-0.83724912
-0.81342962
-0.77784166
-0.7299432
-0.67135534
-0.60518915
-0.53471816
-0.46269293
-0.39121067
-0.32189619
-0.25765214
-1.0175681
-1.0165767
-1.014765
-1.0109394
-1.0030857
-0.98845925
-0.96388537
-0.92657705
-0.87536782
-0.81157716
-0.73847513
-0.65981807
-0.57864941
-0.4971689
-0.41713437
-0.33997863
-1.1172199
-1.1159623
-1.1139538
-1.1101305
-1.1025526
-1.0884679
-1.0645018
-1.0273841
-0.97521889
-0.90867711
-0.83098372
-0.74642263
-0.6585483
-0.56991617
-0.48272993
-0.39968866
-1.160786
-1.1593533
-1.1572773
-1.1536799
-1.1468084
-1.1340545
-1.1120116
-1.0770592
-1.0265972
-0.9604785
-0.88151321
-0.79424128
-0.70287899
-0.61047008
-0.51941007
-0.43262977
-1.1495729
-1.1480551
-1.1460139
-1.1427811
-1.1368701
-1.1259502
-1.1067649
-1.0755326
-1.0290625
-0.96632092
-0.88941146
-0.80280449
-0.71123107
-0.61827799
-0.5265759
-0.43958317
-1.086906
-1.0853686
-1.0834355
-1.080661
-1.0758772
-1.067135
-1.0514913
-1.0251977
-0.98462383
-0.92785033
-0.85606297
-0.7733611
-0.68481634
-0.59462632
-0.50583121
-0.42212474
-0.98617127
-0.98475232
-0.98301251
-0.98065082
-0.9767818
-0.96984658
-0.95732425
-0.93574271
-0.90135149
-0.85157159
-0.78662293
-0.70993081
-0.62658926
-0.54127024
-0.45741193
-0.37893827
-0.83542226
-0.83401827
-0.8324253
-0.83057973
-0.82796416
-0.82357077
-0.81551908
-0.80080467
-0.77560264
-0.73647088
-0.68220536
-0.61501042
-0.53962183
-0.46102439
-0.3825991
-0.30754517
-0.71938957
-0.71822878
-0.71709541
-0.71597338
-0.71451466
-0.71193714
-0.70654382
-0.69534719
-0.67423841
-0.63917359
-0.5883315
-0.52384865
-0.45119753
-0.37648027
-0.3037342
-0.233433
0.032520631
0.033391043
0.034624057
0.037236835
0.042428413
0.051250866
0.064307134
0.08140826
0.10150582
0.12289485
0.14382562
0.16293412
0.17921894
0.19179028
0.20081262
0.2101788
0.25992874
0.25834362
0.25705461
0.25676426
0.25808305
0.26166147
0.26789984
0.27664774
0.28710919
0.29802619
0.30802774
0.31589995
0.3206196
0.32123581
0.31722464
0.31029833
0.46670071
0.46495648
0.46328431
0.46210262
0.46165245
0.46217838
0.4637305
0.46597692
0.4681729
0.46931101
0.46836294
0.46445075
0.45683168
0.44481217
0.42832106
0.40990492
0.61994858
0.61796202
0.61591748
0.61408124
0.61244917
0.61099977
0.60955772
0.60767073
0.60460078
0.59942857
0.59121889
0.57914212
0.5624611
0.54054627
0.51368415
0.48495285
0.72625125
0.72413371
0.72187172
0.71962901
0.71725539
0.71455311
0.71116078
0.7064655
0.69963331
0.68974058
0.67593881
0.65754264
0.63397988
0.60493245
0.57178598
0.54001089
-0.66993581
-0.6698265
-0.66890264
-0.66587663
-0.65883884
-0.64531885
-0.62277983
-0.58954084
-0.5457117
-0.49340857
-0.43593327
-0.37641102
-0.31708885
-0.25950252
-0.20496185
-0.15510111
0.75331427
0.75134524
0.74917825
0.74691424
0.74434864
0.74122238
0.73712814
0.73145948
0.72346486
0.71235925
0.69743669
0.67814532
0.65412357
0.62527456
0.59205849
0.55612673
0.75380665
0.75182785
0.74965074
0.74737679
0.74480026
0.74166034
0.73754696
0.73185012
0.72381523
0.71265716
0.69767487
0.67832644
0.65426777
0.62545869
0.59253899
0.55744041
0.72676704
0.72464155
0.72237175
0.72012138
0.71773842
0.71502289
0.71161069
0.70688613
0.70001348
0.69007
0.67621208
0.65776188
0.63416045
0.60514906
0.57227637
0.54104069
0.61997271
0.61799623
0.61596316
0.61413785
0.61251461
0.61106911
0.60962173
0.60771488
0.60460555
0.59937251
0.59108448
0.57890864
0.56204219
0.5397238
0.5125358
0.48535928
0.46645261
0.46472887
0.46307965
0.46192118
0.46149471
0.46204485
0.46362126
0.46589088
0.46810689
0.46926102
0.46833078
0.46443456
0.4567187
0.44421826
0.42733499
0.41229894
0.26063627
0.25905871
0.25777937
0.25749976
0.25883121
0.26242733
0.26869379
0.27748683
0.28801648
0.29902924
0.30915906
0.3171944
0.32209267
0.32289675
0.31925455
0.3123873
0.034074015
0.03493957
0.036167401
0.038772632
0.043951746
0.052755896
0.065789183
0.082866542
0.10294208
0.12431126
0.14521974
0.16429046
0.18049016
0.19287208
0.20156567
0.21071655
-0.71848912
-0.7173288
-0.7161951
-0.71507265
-0.71361473
-0.71104102
-0.70565637
-0.69447389
-0.67338195
-0.6383285
-0.58747885
-0.52295442
-0.45021002
-0.37524837
-0.30171946
-0.23180048
-0.83479581
-0.83338707
-0.83178789
-0.82993583
-0.82731492
-0.82291952
-0.81487217
-0.80017192
-0.77499672
-0.73590573
-0.6816954
-0.61457443
-0.53929335
-0.46086973
-0.38296682
-0.30992138
-0.98574121
-0.98431761
-0.98257208
-0.98020503
-0.97633253
-0.9693978
-0.95688271
-0.93531816
-0.90095614
-0.85121849
-0.78632377
-0.70969447
-0.62641987
-0.54115398
-0.45737163
-0.37922872
-1.086692
-1.0851515
-1.0832147
-1.0804373
-1.0756526
-1.0669136
-1.0512799
-1.0250064
-0.98446543
-0.92773985
-0.85601577
-0.77339243
-0.68494333
-0.59486467
-0.5062479
-0.42319749
-1.1495255
-1.1480068
-1.1459648
-1.1427321
-1.1368236
-1.1259102
-1.106738
-1.0755281
-1.0290924
-0.96639861
-0.88954954
-0.80301334
-0.71151838
-0.61863968
-0.52703133
-0.44040581
-1.1608942
-1.1594634
-1.15739
-1.1537967
-1.1469318
-1.1341888
-1.112163
-1.0772363
-1.0268106
-0.96073899
-0.88183026
-0.79462144
-0.70332496
-0.61097292
-0.52000367
-0.43359087
-1.1175031
-1.1162502
-1.1142481
-1.110433
-1.1028666
-1.088798
-1.0648542
-1.0277662
-0.97563854
-0.90914141
-0.8314976
-0.7469887
-0.6591648
-0.57057128
-0.48346892
-0.40070522
-1.018092
-1.0171077
-1.0153054
-1.011492
-1.0036542
-0.98904835
-0.96450059
-0.92722379
-0.87605011
-0.8122974
-0.73923462
-0.66061831
-0.57948865
-0.49804283
-0.41812525
-0.34125429
-0.86559885
-0.86499697
-0.86355896
-0.86002944
-0.85243399
-0.83816621
-0.81437143
-0.77880996
-0.73093748
-0.6723735
-0.60623001
-0.53578335
-0.46378324
-0.39234118
-0.32320056
-0.25925429
-0.45815263
-0.45825441
-0.457497
-0.45454899
-0.4475847
-0.43448382
-0.41353906
-0.38420531
-0.34757073
-0.30596876
-0.2619162
-0.21723268
-0.1730089
-0.1302999
-0.090350998
-0.051773523
-0.2629794
-0.26459171
-0.26559697
-0.26541181
-0.26320252
-0.25766233
-0.24725706
-0.23073993
-0.20765496
-0.17843537
-0.14430168
-0.10695947
-0.06844136
-0.031207915
0.0028393229
0.037250094
-0.43749309
-0.43686896
-0.43587929
-0.43444992
-0.4323419
-0.42907238
-0.42368942
-0.41454256
-0.39932535
-0.37567568
-0.34235769
-0.30035554
-0.25277247
-0.20352296
-0.15623234
-0.11323597
-0.34329077
-0.34282664
-0.34220426
-0.34134618
-0.34010248
-0.33815225
-0.33473606
-0.32832208
-0.31648291
-0.29638629
-0.26610564
-0.2261754
-0.1799685
-0.13223882
-0.087193524
-0.047525092
-0.17881492
-0.17834682
-0.17777301
-0.17709085
-0.17622112
-0.17501208
-0.17306102
-0.16943323
-0.16241496
-0.14965343
-0.12904475
-0.10017441
-0.065157214
-0.027813885
0.0082597232
0.040799474
-0.049445195
-0.049403307
-0.049230711
-0.048828786
-0.048090064
-0.046827542
-0.044646455
-0.040760661
-0.033870352
-0.022324496
-0.0047914316
0.018695415
0.04611374
0.074071294
0.09936799
0.12012703
0.051373212
0.051094215
0.050923199
0.050998384
0.051443741
0.052467121
0.05446041
0.0581106
0.064459498
0.074775613
0.089954009
0.10961493
0.13161822
0.15265115
0.16968344
0.18104972
0.11981581
0.11904659
0.11837188
0.11799422
0.11806737
0.11887389
0.12087358
0.12477442
0.13158185
0.14234141
0.15745229
0.17591182
0.19510042
0.21147944
0.22195707
0.22439927
0.11993756
0.1191687
0.11849452
0.11811732
0.11819066
0.11899697
0.12099607
0.1248964
0.13170382
0.1424664
0.1575894
0.17607904
0.19533071
0.21183218
0.22257864
0.22583664
0.051549856
0.051274286
0.051107531
0.051187299
0.051637346
0.052665382
0.054662857
0.058316
0.064665761
0.074979822
0.090153633
0.10980749
0.13179598
0.1527927
0.16980928
0.18094009
-0.04893971
-0.048895268
-0.048718976
-0.04831263
-0.047568861
-0.046300646
-0.044113317
-0.040220757
-0.033322387
-0.021764346
-0.0042085317
0.019323131
0.046825476
0.074930367
0.10055233
0.12226248
-0.17809893
-0.17762829
-0.17705015
-0.17636206
-0.17548484
-0.17426655
-0.17230453
-0.16866427
-0.16163148
-0.14885045
-0.12820988
-0.099281434
-0.064159071
-0.026649038
0.0096755707
0.042713222
-0.34239494
-0.34192949
-0.34130436
-0.34044236
-0.339194
-0.33723897
-0.33381896
-0.32740327
-0.31556417
-0.29546576
-0.26517336
-0.22520912
-0.17893709
-0.13114698
-0.086020292
-0.044715219
-0.43666995
-0.43604609
-0.43505656
-0.43362711
-0.43151888
-0.42824903
-0.42286532
-0.41371597
-0.39849166
-0.37482574
-0.34147669
-0.29942368
-0.25177558
-0.20249053
-0.15504387
-0.11116479
-0.12906253
-0.13042037
-0.12853961
-0.12326033
-0.11413075
-0.10019978
-0.081053014
-0.057176758
-0.029915802
-0.00099597369
0.028039265
0.055811043
0.080680221
0.10203542
0.12460104
-0.13042851
-0.13177387
-0.12987014
-0.12455793
-0.11539192
-0.10142304
-0.082240722
-0.058331562
-0.031034566
-0.0020684403
0.027026731
0.054871178
0.079854016
0.10155741
0.12383495
-0.57922008
-0.57885911
-0.57824693
-0.57696875
-0.57400829
-0.56755372
-0.55490124
-0.53281498
-0.4987454
-0.45257229
-0.39723271
-0.33725857
-0.27691722
-0.21869953
-0.15731137
-0.58007125
-0.57970449
-0.5790842
-0.57779442
-0.57481833
-0.56834501
-0.55567405
-0.53357606
-0.49951105
-0.45337089
-0.39810483
-0.3382332
-0.27795735
-0.22033587
-0.16323415
-0.12416049
-0.12552949
-0.57910886
-0.57996452
0.054298512
0.051002415
0.26945457
0.046741985
-0.004043167
0.037592039
0.15434359
0.20482983
0.20263918
0.13429679
0.12662702
0.018537753
0.22429449
0.022178128
0.15926015
-0.015518541
0.10382519
-0.053739531
-0.01400458
0.03189955
-0.030664975
0.22755802
0.20897293
0.19840643
0.19837747
0.042545197
0.037234689
0.030401418
0.039441251
-0.032102104
0.042182409
0.14116776
0.058195318
0.030797449
0.21424046
0.045666425
0.015731217
0.20972263
0.094180811
0.10258736
0.082851281
0.010811857
0.20329361
-0.02780285
0.20160459
0.29934154
0.035969499
0.19625877
0.17033531
0.17007346
-0.15554974
0.40790438
0.2285766
0.11705701
-0.092732324
0.025512552
0.1148536
0.15428237
0.19723965
0.03838622
0.038722119
0.17904973
0.17655202
0.10847271
-0.16061094
0.11435004
0.033588659
0.045818022
0.087992082
0.035544178
0.042059162
0.0021070484
0.046228856
0.013394293
0.014498181
0.20693469
0.038087695
0.044545046
0.02184746
0.13975374
0.059660223
-0.10402863
-0.038468242
0.037354904
0.094362127
0.054124178
0.1754358
0.0057002886
-0.11285418
0.012919091
0.039176174
0.038140644
0.31667646
0.079501706
0.20053581
0.20966816
0.0011977503
0.28451252
-0.15811581
0.21738881
0.012724262
0.044803223
0.040191011
0.013976017
0.042030063
0.020084923
0.074864317
0.012032741
0.095491883
-0.033481862
-0.13048939
0.23708376
0.085819627
0.080869507
0.019517098
0.021780123
0.25095475
0.01285672
0.020085702
0.24116434
0.23962866
0.10807419
0.15484929
0.0577611
-0.10173603
0.18256633
0.11921679
-0.14214463
0.034822182
0.22690966
0.10005602
0.075944623
0.028074299
0.00864362
0.032369246
0.080110077
0.28843999
0.0059370708
-0.15345824
0.042531065
0.20327552
0.046859975
-0.0081488283
0.047304455
-0.0042767447
-0.0037000635
0.04065988
0.036891079
0.02864614
0.17347371
0.17168441
0.041628281
0.042224263
0.24970662
0.028484295
0.19406746
-0.11873177
0.11984912
0.030206558
0.012332637
-0.34422786
-0.34206864
0.20428972
0.22714193
0.12568716
0.028536825
0.026840387
0.15932348
0.0062833137
0.017724506
0.00044350324
0.30692981
0.049604928
0.028230523
0.041079813
0.20637563
0.13257949
0.018414574
0.038904809
0.056241937
0.16351326
0.014404162
0.032622235
0.040685589
0.049440397
0.17124991
0.19817909
0.056825689
0.066934849
0.036470116
0.018290288
0.037106001
0.016335547
0.14117447
0.11169176
0.19758486
0.027019913
0.036435917
0.1562193
0.32525102
0.1621153
0.047703836
-0.041603367
0.1338956
0.23178574
0.17850497
0.2189272
0.035780538
0.24830078
0.02115702
0.026180362
0.04467997
0.12835549
0.15132119
0.017888434
0.010829811
0.013946973
0.19870708
0.20662619
0.075983822
0.084020456
0.081314583
0.1361571
0.011125813
0.10707318
0.15005535
0.23106338
0.0099436206
0.058625843
0.071904539
0.14812707
0.26907245
0.023780687
0.080683106
0.011235249
0.038683756
0.036600702
0.19424584
0.039514983
0.016701179
0.040734116
0.0096046271
0.047814209
0.062003861
0.26238481
0.1204918
0.033223108
0.19076882
0.025349422
0.076589842
0.16554953
0.31309299
0.019503843
0.010185732
-0.00094052129
0.005326089
0.21712368
0.047690171
0.012438413
0.03814467
0.045991756
0.0019457301
0.027639228
0.029879798
0.11297236
0.04773352
0.038743682
0.041207872
0.019588764
0.10261856
0.14465707
0.10982333
0.12877626
0.22237477
-0.010504786
0.036331441
0.25236204
0.23467934
0.038764895
0.025351271
0.070541313
0.04294049
0.034923673
-0.024522848
0.12453611
-0.030999295
0.038975885
0.1232327
0.048988215
0.039977137
0.16200782
0.10162287
-0.020370417
0.0026911542
0.25482293
0.10165432
0.037747644
0.20456053
0.044617036
0.055366247
0.057466091
0.01412811
0.046256785
0.2703223
0.31406474
0.098428961
0.042651027
0.1337543
0.041066436
0.2088795
-0.040384196
0.041700087
0.037410973
0.068093912
0.12757449
0.036546818
0.050595913
0.034387411
0.34844767
0.033792994
0.023892854
0.21545923
0.0025048033
0.015199173
0.034163691
0.11823677
0.018799106
0.024589473
0.035439985
0.0097197963
0.40726979
0.067608443
0.13602938
0.19642588
0.034789345
-0.0014237192
0.11417916
0.016666901
0.020654033
0.035821889
-0.011180972
0.066708019
0.036061295
0.24060233
0.012458281
0.023603236
-0.0059186282
0.055685482
0.046025031
0.0078724046
0.013608946
-0.19706152
0.070370883
0.157411
0.044156476
-0.034141618
0.051596808
0.05490874
-0.086626961
0.18225973
0.04881971
0.18103201
0.017538365
-0.1923292
0.28067381
0.21108997
0.053448721
-0.065340197
0.021232457
0.22648634
-0.029775042
-0.027312425
0.32465613
0.14666552
0.15970811
0.051020517
0.089241939
0.07197263
-0.023296365
0.052171412
0.054260878
0.22940561
0.21210341
0.060628826
0.072216986
0.12362213
0.045872834
0.0089821745
0.15307392
-0.10614024
0.025704772
0.046593382
-0.10121438
0.031216272
0.050302728
0.038420521
0.047923623
0.081316833
0.38567004
0.063476667
0.0042469786
0.0095232217
0.033675616
-0.0050917576
0.18609731
0.024230878
0.040770656
0.036037517
0.19107194
0.038512783
0.12440167
0.19313918
0.0022899781
0.038980918
0.12796202
0.16542633
0.16842796
0.011848441
0.039053449
0.015480194
0.028746079
0.047635109
0.038153715
0.19190694
0.23313694
0.27209934
-0.025951965
0.024705926
0.22004091
0.03946684
0.16896388
0.16545115
0.068684906
0.073088753
0.19455835
0.15338843
0.034618306
0.013865297
0.016927411
0.10920862
-0.080401681
-0.018279692
0.10623653
0.03598932
-0.0011783813
0.056642148
0.029027962
0.0036428849
0.038154154
0.19741585
0.034511561
-0.0091699926
0.0022243148
0.01774085
0.061407086
0.049970963
0.1161192
0.13430005
0.014817502
0.17204173
0.17508384
0.24189722
0.041706462
0.092477567
0.15825306
0.1835345
0.19568119
0.2066287
0.21642677
0.035230348
0.15937452
0.035381988
0.2619299
0.043464913
0.035418575
0.071900054
0.021978099
0.025174951
0.41574663
0.040878378
0.045136694
-0.031353765
0.028081485
0.0010346133
0.018546673
-0.049756238
0.04133801
0.19436128
0.19552559
-0.093824198
0.13194972
0.0053474922
0.046481509
0.040435124
-0.044964789
0.04087843
0.1325278
0.054826382
0.019073315
0.037801608
0.055783936
0.13258736
0.27244176
0.16363162
0.15937902
0.052744092
-0.31441443
0.03849729
0.0072521022
0.10981466
0.01467847
0.027373401
0.037972225
0.038526899
-0.033828199
-0.31232625
0.035935345
0.19919415
0.14141949
0.19574027
0.023594796
0.10482426
0.064392408
0.030702704
-0.088390243
0.041113533
-0.036361649
0.062235254
-0.089636886
0.23260731
0.16438072
-0.097451749
0.22931104
0.038264857
-0.17920908
0.22401975
0.17442212
0.17428647
0.19630362
0.18625904
-0.30223703
0.037060144
-0.00033240877
0.032245461
0.0036131677
0.16739438
0.19294755
0.18425998
0.051339847
0.069718589
0.10320706
0.041325136
0.012783532
0.22364591
0.028686833
0.086964314
0.034283116
-0.30063708
0.26987651
-0.097984197
0.07279582
0.13150244
-0.13513218
0.011725446
0.026265922
-0.17439186
0.028867162
0.049299133
0.1815325
0.18626641
0.10843818
0.024780257
-0.071981077
0.22688489
0.26453674
0.2576895
0.16563673
0.053782496
0.18250962
0.2157406
0.27102048
0.20503244
0.31324625
0.028594558
0.19667287
0.19900486
0.014212125
0.042549777
0.057305537
0.19129246
0.23052264
0.18125518
-0.14648126
0.17466254
0.037403261
0.41555582
0.18890609
0.010630586
0.40466178
0.22943501
0.038300818
0.071562592
0.13928742
0.40256828
0.029802101
0.060170637
0.21338869
0.040679911
0.29939641
0.20960183
0.22090729
0.056600032
0.0011574459
0.14536215
0.22235508
0.41606322
0.17134261
0.039420133
0.17561744
0.026358618
0.015053123
0.069972977
-0.083178994
0.4132151
0.043484147
0.0100515
0.10093723
0.27313904
0.25511604
-0.034650458
0.0078501474
0.036043051
0.21572562
-0.071635044
-0.077998456
0.044352343
0.015333993
0.18046601
0.17990745
0.046395882
0.049204831
0.133861
0.095398539
0.039427785
0.0018893447
0.18973164
0.063164029
0.035888886
0.0072155161
0.36992132
0.059707345
0.16068983
0.012673492
0.040044831
0.18193727
0.038340467
0.39940689
0.045180224
0.0061020128
0.19534002
0.023517197
-0.05045335
0.020748823
0.027196506
0.021287682
0.099106394
0.063527466
0.002832492
0.26653234
-0.088694608
0.14766015
0.169619
0.066891351
0.24052514
0.022249184
0.27089888
0.051122621
0.46317919
0.06360142
0.1073217
-0.04650305
0.34323137
-0.086289625
0.0053059008
0.033916686
0.16492456
0.14959254
-0.12502603
0.1850635
0.17748053
0.10875879
-0.20559269
0.033315943
0.090819738
0.010754789
-0.20618269
0.096190177
0.013255871
0.031594646
0.033286804
0.028294982
0.22251864
0.057412145
-0.1780986
0.17644092
0.10981138
0.0022324956
0.142694
0.040817323
0.041811481
0.083334709
0.13183212
0.12684479
0.042317259
0.26630366
-0.1278883
0.044680556
0.043247466
-0.12229453
0.19590935
0.22401737
0.0022855641
0.030089438
0.019256695
0.21656772
0.20863129
0.021184855
0.15780155
0.013359946
0.10121956
0.11758907
0.14691147
0.20067249
0.060444318
0.14206735
0.029748842
-0.16033811
0.20038995
0.13130558
0.02041106
0.030584851
0.036516955
0.032116192
0.024792513
0.057091151
0.071084446
0.041698382
0.013309162
0.057157072
0.072677299
0.035484483
0.103449
0.12078687
-0.12875409
0.034019958
0.03629231
0.067028633
0.012587941
0.27802058
0.036851809
0.17532287
0.054729702
0.17615758
-0.051639314
0.058155477
0.0030502563
-0.082876248
0.06339171
0.12852039
0.063559283
0.10008784
0.037916932
0.14654878
0.039721652
0.21558309
0.040757528
0.031862876
0.17709716
0.21834469
0.054677717
0.27018132
0.026017506
0.51872883
0.11140922
0.018627154
0.041829874
0.01303846
0.061950157
0.23620468
0.039542879
0.022952791
0.033158632
0.038066838
0.078860178
0.047584735
0.024474013
0.023130305
0.0087842497
0.26592804
0.013422616
0.21023896
0.23397848
0.22093844
0.21925683
0.20120726
0.17466344
0.0079721977
0.069981642
0.034142045
0.037185751
0.0022489577
0.15201224
0.27335913
0.029480674
-0.017609982
0.064485196
0.22561206
0.043359866
0.23163618
0.19042328
0.097421831
0.30526205
0.15306733
0.13112437
0.046336499
0.0091001299
0.0045932605
0.035137844
0.02898826
0.41163417
0.13484255
0.11462205
0.19442411
0.14902384
0.15263886
0.019528158
0.031534786
0.22351962
0.099904277
0.11024697
0.045804603
0.1867456
0.037595877
0.16571611
0.12408283
0.015349963
0.033198492
0.078664256
0.21422468
0.071084712
0.026513644
0.01176254
0.050186837
-0.0065693973
0.1675788
0.050544893
0.11253261
0.39645249
0.05780241
0.39390255
-0.052234336
0.062350799
0.1562653
0.051815368
0.17981778
0.02693762
0.24615591
0.05299145
0.21525771
0.036831878
0.031864845
0.011317546
-0.092444633
0.16667302
0.018728997
0.037012435
0.22457585
0.077344159
0.14023733
0.031926755
0.1215562
0.21284897
0.17591706
0.05129274
0.15987002
0.13094275
-0.088136792
0.15299998
0.51116789
-0.063535959
0.071062455
0.043232469
0.36268372
0.17519861
-0.17931142
0.08345909
0.022958769
0.10814402
0.075482455
-0.070715799
0.039573621
0.18539052
-0.06703516
0.11653699
0.10505555
0.043826438
0.029587603
0.039490447
0.055158158
0.073095576
0.0078069385
0.18439261
0.030102705
0.14225013
0.11471187
0.23088836
0.20042432
0.27367624
0.21703547
-0.031356487
-0.058354891
0.080655208
0.024848006
0.036163249
-0.12282099
-0.0070298922
0.089906014
0.096065512
0.057396178
0.22407558
0.034914064
0.0092240095
0.033141496
0.1332489
0.18039159
0.12211811
0.030130711
0.037709417
-0.12999796
0.039574225
0.029358981
0.024813464
0.14295726
0.18292715
0.17075251
0.47579203
0.049037347
0.020720371
0.13750315
0.042022198
-0.11768332
-0.028012486
0.023027302
0.015762898
0.073048009
0.26775807
0.34250231
-0.117462
0.021365457
0.23543651
-0.15525336
0.03746946
0.0766542
-0.012405211
-0.11457162
0.19188034
0.14546513
0.18311074
0.011688859
0.054428622
0.03748544
0.21681162
0.30283563
-0.010275834
0.15481806
0.31762543
0.13664816
0.065888649
0.034786793
0.25244068
0.048413197
0.034085283
0.034400805
0.023070902
0.12844651
-0.073282315
0.44966248
0.0013379623
-0.066484401
0.021520207
0.022981893
0.34086875
-0.021812264
0.21220841
0.049600308
0.050368961
0.017647156
0.061023845
0.16538162
0.043036082
0.041444118
-0.076345332
0.06763146
0.21108935
0.2904296
0.026315625
-0.0050452493
0.22115327
0.1280548
0.14846852
0.031960348
-0.16087894
-0.0036156551
0.044478244
0.12627867
0.032217622
0.018784115
0.18027429
0.23135468
0.18525274
-0.050118524
0.015939218
0.057230717
0.064514916
0.036013112
0.29376494
0.21529434
0.0063503727
0.22306073
0.039524532
0.23460891
0.043121909
0.11392646
0.19356563
0.33656653
-0.34361979
0.1108452
0.028854082
0.018008919
0.007875822
-0.34178695
0.016813601
0.19636824
-0.001369867
0.024067734
0.18861716
0.041351776
0.050062769
-0.091997902
-0.17106611
0.030635507
0.056991781
0.15047381
0.035901278
0.26757877
-0.048805229
-0.002103388
0.19487676
0.018438783
-0.11371817
0.02682512
0.07200861
0.19615921
0.024260369
0.16463988
0.16652055
0.038564956
0.044714961
-0.00057954291
0.011955633
0.022851524
-0.10637127
0.050692771
0.033669983
0.044116564
0.026168688
-0.17440526
0.032560396
0.37808857
-0.17026385
0.26736109
0.026323765
0.025955865
0.23431375
0.040450907
0.041236733
-0.29336195
0.054205072
0.44765286
0.146252
-0.10013186
-0.0061403778
0.19786935
-0.29112212
0.070263528
0.13969797
0.28106638
0.040404322
0.049637744
0.024794731
0.24595711
0.081592605
0.022764544
0.040373952
-0.045583006
0.0020717265
0.16876832
0.052916567
0.095588356
0.14752569
0.026615295
0.088861762
0.52095457
0.13860635
0.15598979
0.0077574135
0.11368702
0.18055461
0.068398808
0.38592459
0.036124757
0.13260929
0.16811937
0.027648354
0.16037065
-0.079110569
0.061871059
0.0022930415
0.069761528
0.031897758
0.0040801752
0.04318036
0.16415811
0.05518098
-0.020857617
0.47517457
-0.021063784
0.21704065
-0.073949208
0.20215893
0.18851057
0.047967095
0.30155685
0.21560537
0.071994614
0.19007853
0.033538382
0.026615876
0.16351595
0.042640078
0.038177076
-0.2093573
-0.20718268
0.043636969
0.041564951
0.030631876
0.017861617
0.032281984
0.025880346
0.029599366
-0.045301702
0.039013743
0.060186439
0.04393485
0.00089456672
0.070050107
0.067992772
0.11436891
0.024656425
0.18166625
-0.31569879
0.23821692
0.020350235
0.036861006
0.22602662
0.058227333
-0.31395084
0.035742089
0.051292156
-0.0034916441
0.19718586
0.037542782
-0.23835964
0.0008192202
0.26981298
0.032192426
0.15231622
0.0078889316
0.11115571
-0.2340426
0.19044844
0.020350742
-0.033054851
0.012908517
0.073120769
-0.055883297
0.21261347
0.11765118
0.026413714
0.19398033
0.039387528
-0.0083544923
-0.050930031
0.035547892
0.039043256
0.086982932
0.039750466
0.052053131
0.49828568
0.030820537
0.34106625
0.048564754
0.36415063
-0.010860417
-0.015677464
0.0454903
0.18531941
0.19770889
0.24704487
0.03005992
0.0076069493
0.25952388
0.19925825
0.022625471
0.045161107
0.02745513
0.23500251
0.1896109
0.0048440209
0.057395121
0.030178461
0.025002942
0.12252862
0.17750879
0.1206645
0.041406291
0.15387618
-0.18056231
0.18535718
0.090658872
0.044826093
0.039311744
0.14637608
0.013585365
0.38480199
0.12462958
0.04288355
0.017111122
0.2393313
0.29683362
-0.11218961
0.11527851
0.062053576
0.174942
0.4576308
0.041806638
0.14764759
0.19154664
0.038233699
0.0070296807
0.049746145
0.045516517
0.22758592
0.0074006783
0.04202917
0.0084660547
0.1723475
0.0096264856
0.031272433
0.039936956
0.019303697
0.031869636
0.0417648
0.055750745
-0.10877426
0.0432509
0.008017711
0.1405458
0.10841343
0.2369297
0.12917479
0.088621334
-0.040811592
0.0011007973
0.20466675
0.051650418
-0.10348723
0.091670908
0.0046013137
0.15751142
0.066783748
-0.12713731
-0.1432567
0.031766354
0.20687478
0.21245763
0.023280684
-0.04924544
0.0055648737
0.041946483
0.1075317
0.25200384
-0.039373428
0.21262634
0.2529059
0.01243858
0.33003857
0.45646238
0.19391231
0.039030471
0.01543595
0.17032905
0.04780415
0.26393345
0.16396435
0.043173223
0.062767519
0.30837518
0.26982394
0.015710865
0.0018291439
-0.10803807
0.042010131
0.26652255
0.1524676
0.15260335
-0.13789935
0.06166006
0.075282981
0.27368291
-0.25576374
0.039411915
0.020405881
0.049777241
0.33246763
0.010041723
0.036088053
0.06106459
0.21123658
0.052264168
0.0080834313
-0.17539773
0.020262424
0.043687733
-0.17223013
0.061317359
-0.19463292
0.036635214
0.12966409
0.11633408
0.015962936
0.17838505
0.16071997
0.032939345
0.0057256693
0.037485963
0.033892884
0.065146478
0.1768965
0.055682757
0.18043902
0.19478309
-0.1023098
-0.18965414
-0.035710554
0.0090179866
0.013267901
0.0054629295
0.041506227
0.015707
0.17865247
0.054601013
0.01779688
0.09305351
0.24796222
0.10206495
0.30601251
0.039092662
0.027865993
-0.16165192
0.20100855
-0.34326576
0.24184532
0.015363949
0.051976007
0.059826124
0.09876662
0.066630431
-0.23193836
0.037083229
0.19297449
0.027059797
0.21797665
0.014871537
0.041038019
0.018279137
0.029262957
0.25388276
0.12537551
0.092011268
0.10090698
0.18832621
0.053624927
0.03984735
0.016521215
0.025421916
0.043854219
0.3913617
0.03660409
0.0064433297
0.038339868
0.22819365
0.020005945
0.012683676
0.090698127
0.20217545
-0.34421527
0.028643938
0.018109747
0.20681989
0.03058085
0.17535265
0.027344713
0.031685117
0.038195062
0.22373057
0.067215696
0.40576148
-0.098122003
0.049729541
0.05551002
-0.11689598
-0.11718351
0.39690009
0.21947017
0.12948822
0.014075967
0.036228948
0.022049922
0.24784257
0.0034703961
0.22331827
0.29021654
0.0054119326
-0.031205558
0.27065072
0.030750758
0.14828796
0.037523455
0.20211004
0.1785245
0.040186001
0.016449093
0.15992541
0.16030202
-0.014190743
-0.070688294
0.0085174924
0.043509082
-0.069984345
0.098295336
0.008092228
0.028430987
0.17929712
0.0087985194
0.020664688
0.043924425
0.030569927
0.027982276
0.15689699
0.019351481
-0.17150674
0.069688119
0.47192206
0.23947132
0.16289982
0.16047058
0.12600561
0.011354331
-0.066956679
0.044997856
-0.071852077
0.19572687
0.19325848
-0.074561353
0.012857668
0.034185761
0.19901787
-0.072235582
0.051200831
0.38528031
0.32355863
0.12002082
0.50108607
0.14738501
-0.088814036
0.014792952
-0.25159807
0.45081632
0.15759979
-0.16629734
-0.093287583
0.13241446
0.010844568
0.040255413
0.23297214
0.43120917
0.045077709
0.011653904
0.046368191
0.064954498
0.086629028
0.17203693
0.073669504
0.054450104
0.040690455
0.1491083
0.041007865
-0.076228943
0.061280478
0.11897926
0.033145709
0.034145192
-0.15720226
0.15837875
0.11206367
-0.16950594
0.19942721
0.19485635
-0.15555671
0.050528026
0.047511395
0.0023830037
0.23289177
0.22136669
-0.0026409724
0.19735412
0.46860928
0.1143999
0.098707138
0.17197778
0.025132292
0.20083492
0.36469081
0.044520063
0.053578555
0.075657888
-0.20744143
0.031057753
0.20400949
0.030501766
0.010998887
0.16299987
0.026222391
0.055700521
0.33976637
-0.078243616
0.022703016
0.1397975
0.065989036
0.030332803
0.018732435
0.13663998
-0.20105248
0.2282524
0.079178373
0.25553835
-0.19677916
0.031803733
0.25854739
-0.062525137
-0.096381424
0.1782121
-0.032652602
0.058865985
-0.20572132
-0.26944164
-0.26806666
0.29326391
0.061335313
-0.053052009
0.038863073
0.012626726
0.0651766
0.1016255
0.04251272
-0.020485419
0.02469534
0.0073983935
0.07634435
0.035482707
-0.024245037
0.04474274
0.24640125
0.066308032
0.23666024
0.095827144
0.10384246
0.23536154
0.047382669
-0.31159003
0.10487449
0.1106133
-0.023809356
0.038139744
0.072747206
0.051210429
0.033561895
0.15334178
0.15003399
0.25332314
0.019822039
0.034952197
0.17204424
0.041381531
0.034025445
0.047722699
-0.01853863
0.30377087
0.14089837
0.058377739
0.10364678
0.030914711
0.0073195103
0.033636572
0.4674034
0.014798377
-0.013694272
-0.16238348
0.36785286
0.036639076
0.047859251
0.13864349
0.19215203
0.28994638
0.029655262
0.053244272
-0.0068637006
0.22768246
0.16574121
0.20420128
0.059515849
0.0047051225
0.23650048
0.050993995
0.041041388
0.050978335
0.045886979
0.01388485
0.050902152
0.37653497
0.054986792
0.021628407
0.039485898
0.11808097
0.022082862
0.0038142187
0.060071226
0.15759403
0.055907211
-0.157
-0.24910131
0.022231725
0.12763883
-0.25455583
0.4482651
0.047917476
0.037089571
0.031112079
0.050443017
0.086459374