/*--------------------------------*- C++ -*----------------------------------*\
| =========                 |                                                 |
| \\      /  F ield         | foam-extend: Open Source CFD                    |
|  \\    /   O peration     | Version:     4.1                                |
|   \\  /    A nd           | Web:         http://www.foam-extend.org         |
|    \\/     M anipulation  |                                                 |
\*---------------------------------------------------------------------------*/
FoamFile
{
    version     2.0;
    format      ascii;
    class       surfaceScalarField;
    location    "0.1";
    object      phi;
}
// * * * * * * * * * * * * * * * * * * * * * * * * * * * * * * * * * * * * * //

dimensions      [0 3 -1 0 0 0 0];

internalField   nonuniform List<scalar> 
6703
(
5.6407019e-06
8.5665489e-06
-1.4207251e-05
9.3222564e-06
3.1216055e-05
-3.489761e-05
1.0655297e-05
6.4721813e-05
-6.6054855e-05
7.9981478e-06
0.00011200887
-0.00010935173
-1.3099954e-06
0.00017571901
-0.00016641087
-2.0798537e-05
0.00025730804
-0.0002378195
-5.3721909e-05
0.00035554229
-0.00032261891
-0.00010179644
0.00046658778
-0.00041851325
-0.00016455358
0.00058539555
-0.00052263842
-0.00023947741
0.0007090954
-0.00063417156
-0.00032379386
0.00083943313
-0.00075511668
-0.00041607688
0.00098182552
-0.0008895425
-0.00051662333
0.001142424
-0.0010418775
-0.00062697188
0.0013266205
-0.001216272
-0.00074932009
0.0015398722
-0.001417524
0.0017891029
-0.0016531544
-0.00088526858
-2.2845403e-07
8.795003e-06
-1.1278281e-06
3.211543e-05
-3.2019674e-06
6.6795953e-05
-7.3010263e-06
0.00011610793
-1.4753229e-05
0.00018317121
-2.7516472e-05
0.00027007128
-4.8584897e-05
0.00037661071
-8.1465859e-05
0.00049946875
-0.00012914504
0.00063307474
-0.00019299469
0.00077294504
-0.00027282631
0.00091926475
-0.00036805796
0.0010770572
-0.00047878584
0.0012531519
-0.00060605531
0.00145389
-0.0007515041
0.001685321
0.0019538769
-0.00091627812
-4.6853713e-08
8.8418567e-06
-3.2843791e-07
3.2397014e-05
-1.1465905e-06
6.7614105e-05
-3.0496902e-06
0.00011801103
-6.977531e-06
0.00018709906
-1.4439925e-05
0.00027753367
-2.7695957e-05
0.00038986674
-4.966562e-05
0.00052143841
-8.3088011e-05
0.00066649713
-0.00012945437
0.0008193114
-0.00018902299
0.00097883337
-0.00026169742
0.0011497316
-0.00034792982
0.0013393843
-0.00044880272
0.0015547629
-0.00056573701
0.0018022553
0.0020886481
-0.00070050821
3.61962e-07
8.4798947e-06
1.4653042e-06
3.1293672e-05
3.3197914e-06
6.5759618e-05
5.6841825e-06
0.00011564664
7.8754797e-06
0.00018490776
8.5477162e-06
0.00027686144
5.5081681e-06
0.00039290629
-4.2234679e-06
0.00053117005
-2.3735651e-05
0.00068600931
-5.4965394e-05
0.00085054115
-9.7907089e-05
0.0010217751
-0.0001512489
0.0012030734
-0.00021437913
0.0014025145
-0.00028749773
0.0016278815
-0.00037080887
0.0018855664
0.002180294
-0.00046245479
6.8667322e-07
7.7932214e-06
2.9485732e-06
2.9031772e-05
7.1436651e-06
6.1564526e-05
1.3421011e-05
0.0001093693
2.1490365e-05
0.0001768384
3.0350267e-05
0.00026800154
3.8064244e-05
0.00038519231
4.177754e-05
0.00052745675
3.8089084e-05
0.00068969777
2.4246203e-05
0.00086438403
-2.5295334e-07
0.0010462742
-3.3890437e-05
0.0012367109
-7.4964409e-05
0.0014435885
-0.00012255005
0.0016754671
-0.00017628735
0.0019393037
0.0022419395
-0.00023793281
9.2261636e-07
6.8706051e-06
4.0606741e-06
2.5893714e-05
1.010033e-05
5.552487e-05
1.9607793e-05
9.9861834e-05
3.2773219e-05
0.00016367298
4.9074292e-05
0.00025170046
6.6957927e-05
0.00036730868
8.3737223e-05
0.00051067745
9.5934044e-05
0.00067750095
0.00010036923
0.00085994883
9.5727829e-05
0.0010509156
8.3094193e-05
0.0012493445
6.5019208e-05
0.0014616635
4.3525264e-05
0.0016969611
1.9923832e-05
0.0019629051
0.0022660505
-4.1871409e-06
1.0875912e-06
5.7830139e-06
4.8612675e-06
2.2120038e-05
1.2287927e-05
4.809821e-05
2.4323619e-05
8.7826142e-05
4.1657542e-05
0.00014633905
6.4332051e-05
0.00022902595
9.1323172e-05
0.00034031756
0.00012029744
0.00048170319
0.00014785203
0.00064994635
0.00017051635
0.00083728452
0.0001863312
0.0010351008
0.00019591488
0.0012397609
0.00020196048
0.0014556179
0.00020732288
0.0016915987
0.00021401575
0.0019562123
0.0022575909
0.00022247533
1.1763867e-06
4.6066272e-06
5.3204108e-06
1.7976013e-05
1.3618031e-05
3.980059e-05
2.736852e-05
7.4075653e-05
4.7751741e-05
0.00012595583
7.5433008e-05
0.00020134469
0.00011005647
0.00030569409
0.00014984314
0.00044191653
0.00019165985
0.00060812964
0.00023189114
0.00079705324
0.00026803289
0.00099895902
0.00030014319
0.0012076506
0.00033083771
0.0014249233
0.00036354725
0.0016588891
0.00040092696
0.0019188326
0.0022137218
0.00044479602
1.2144925e-06
3.3921347e-06
5.5573771e-06
1.3633129e-05
1.4371709e-05
3.0986258e-05
2.9205601e-05
5.9241761e-05
5.1627057e-05
0.00010353438
8.2856621e-05
0.00017011512
0.0001232398
0.00026531091
0.00017173398
0.00039342234
0.00022577639
0.00055408722
0.00028193596
0.00074089367
0.00033741682
0.00094347815
0.00039175311
0.0011533143
0.00044737775
0.0013692987
0.00050837383
0.001597893
0.00057878865
0.0018484177
0.0021304889
0.00066202155
1.1115244e-06
2.2806103e-06
5.1129652e-06
9.6316881e-06
1.3372976e-05
2.2726247e-05
2.7644128e-05
4.497061e-05
4.9939949e-05
8.1238556e-05
8.2218896e-05
0.00013783617
0.00012579324
0.00022173657
0.00018059432
0.00033862126
0.00024474966
0.00048993189
0.00031505436
0.00067058897
0.00038849083
0.00087004169
0.00046413368
0.0010776714
0.00054416162
0.0012892708
0.00063316914
0.0015088855
0.00073697346
0.0017446134
0.0020043708
0.00086309163
1.1488035e-06
1.1318068e-06
5.4625168e-06
5.3179748e-06
1.4480149e-05
1.3708615e-05
3.0010205e-05
2.9440553e-05
5.40645e-05
5.7184261e-05
8.8566e-05
0.00010333467
0.00013487638
0.00017542619
0.00019326047
0.00028023717
0.0002626002
0.00042059215
0.00034075871
0.00059243047
0.00042571681
0.00078508359
0.000517015
0.00098637323
0.00061660353
0.0011896822
0.00072835575
0.0013971333
0.00085663694
0.0016163322
0.0018533131
0.0010076946
1.1968029e-06
-6.4996115e-08
5.3790453e-06
1.1357324e-06
1.3724317e-05
5.3633438e-06
2.7736974e-05
1.5427896e-05
4.9060059e-05
3.5861176e-05
7.9348419e-05
7.3046314e-05
0.00012009851
0.0001346761
0.00017238959
0.00022794609
0.00023655248
0.00035642926
0.00031194048
0.00051704247
0.00039704266
0.00069998141
0.00049009852
0.00089331736
0.0005900623
0.0010897185
0.00069711919
0.0012900764
0.00081185528
0.0015015961
0.0017294316
0.00093573679
-6.5377864e-06
-7.7473201e-06
1.4285106e-05
-1.3787898e-05
-2.7873429e-05
3.5123541e-05
-2.3270587e-05
-5.6983938e-05
6.6466627e-05
-3.6261854e-05
-9.6918066e-05
0.00010990933
-5.4255918e-05
-0.00014892254
0.0001669166
-7.8996631e-05
-0.00021305591
0.00023779662
-0.00011242142
-0.0002877955
0.00032122029
-0.00015653475
-0.0003703485
0.00041446183
-0.00021278589
-0.00045801404
0.00051426518
-0.00028220961
-0.00055004561
0.00061946933
-0.00036544706
-0.00064845406
0.00073169151
-0.00046291034
-0.00075695758
0.00085442087
-0.00057487783
-0.00087928239
0.00099124988
-0.00070176024
-0.0010184535
0.0011453359
-0.00084517459
-0.0011770023
0.0013204167
-0.001357741
0.0015243171
-0.0010117507
-1.3695063e-06
-6.3778138e-06
-6.3165433e-06
-2.2926392e-05
-1.6401739e-05
-4.6898743e-05
-3.3433274e-05
-7.9886531e-05
-5.9396407e-05
-0.00012295941
-9.631384e-05
-0.00017613848
-0.00014605961
-0.00023804974
-0.00021015627
-0.00030625183
-0.00028967828
-0.00037849204
-0.00038547252
-0.00045425138
-0.00049866896
-0.00053525762
-0.0006311339
-0.00062449265
-0.00078556692
-0.00072484937
-0.00096532335
-0.00083869706
-0.0011739528
-0.00096837292
-0.0011171468
-0.0014145469
-1.4456938e-06
-4.93212e-06
-6.6325044e-06
-1.7739582e-05
-1.7241648e-05
-3.6289599e-05
-3.533296e-05
-6.179522e-05
-6.3228066e-05
-9.5064301e-05
-0.00010328335
-0.0001360832
-0.00015758245
-0.00018375063
-0.00022768696
-0.00023614733
-0.0003146471
-0.00029153189
-0.00041936188
-0.0003495366
-0.00054310059
-0.00041151892
-0.00068785349
-0.00047973974
-0.00085638628
-0.00055631658
-0.0010521546
-0.00064292871
-0.001279438
-0.00074108954
-0.00085202165
-0.0015445632
-1.6298819e-06
-3.3022381e-06
-7.4773925e-06
-1.1892071e-05
-1.9383964e-05
-2.4383027e-05
-3.9525282e-05
-4.1653901e-05
-7.0270635e-05
-6.4318948e-05
-0.00011392248
-9.2431348e-05
-0.00017241157
-0.00012526155
-0.00024711676
-0.00016144214
-0.00033899649
-0.00019965216
-0.00044903646
-0.00023949663
-0.00057874519
-0.00028181019
-0.00073039557
-0.00032808936
-0.00090699623
-0.00037971592
-0.0011121892
-0.00043773571
-0.0013498188
-0.00050345992
-0.0005797739
-0.0016220666
-1.7125971e-06
-1.589641e-06
-7.7883527e-06
-5.8163155e-06
-2.0099319e-05
-1.2072061e-05
-4.0890943e-05
-2.0862277e-05
-7.2612028e-05
-3.2597864e-05
-0.00011765545
-4.7387922e-05
-0.00017807596
-6.4841041e-05
-0.00025545929
-8.4058806e-05
-0.00035108585
-0.0001040256
-0.0004663254
-0.00012425708
-0.00060301281
-0.00014512278
-0.00076360669
-0.00016749549
-0.0009511374
-0.00019218522
-0.0011691924
-0.00021968072
-0.0014229663
-0.00024968604
-0.00027983675
-0.0017229034
-4.4936405e-08
8.8371015e-06
-8.7921651e-06
-3.1998951e-07
3.2381147e-05
-3.2106094e-05
-1.1256017e-06
6.7583922e-05
-6.677831e-05
-3.0087249e-06
0.00011796353
-0.00011608041
-6.9073394e-06
0.00018703199
-0.00018313338
-1.432812e-05
0.00027744602
-0.00027002524
-2.7524938e-05
0.00038975898
-0.00037656216
-4.9410192e-05
0.00052131219
-0.00049942694
-8.2716053e-05
0.00066635503
-0.00063304917
-0.00012893005
0.00081915314
-0.00077293915
-0.00018831453
0.00097865207
-0.00091926758
-0.00026078937
0.0011495072
-0.0010770323
-0.00034683381
0.0013390724
-0.001253028
-0.00044753693
0.0015542837
-0.0014535806
-0.00056420536
0.0018014627
-0.0016847942
0.0020871213
-0.0019532018
-0.00069812487
-1.5828131e-06
-6.8279191e-09
-7.3753999e-06
-2.3728673e-08
-1.9400009e-05
-4.7452369e-08
-4.0182987e-05
-7.929878e-08
-7.2661449e-05
-1.1940175e-07
-0.00011988308
-1.6628672e-07
-0.00018450768
-2.1644741e-07
-0.00026830211
-2.643783e-07
-0.00037202527
-3.0244152e-07
-0.00049596304
-3.1929887e-07
-0.0006407883
-2.9752189e-07
-0.00080806918
-2.1460597e-07
-0.0010002018
-5.2641381e-08
-0.0012200612
1.7871253e-07
-0.0014701459
3.9870292e-07
4.0547637e-07
-0.0017503882
-1.5911976e-06
1.5843696e-06
-7.4117457e-06
5.7968194e-06
-1.9490682e-05
1.2031484e-05
-4.0362331e-05
2.079235e-05
-7.2971342e-05
3.2489609e-05
-0.00012037086
4.7233236e-05
-0.00018522221
6.4634897e-05
-0.0002692877
8.3801117e-05
-0.00037331165
0.00010372151
-0.00049754666
0.00012391571
-0.00064260044
0.00014475626
-0.00080993205
0.000167117
-0.0010017759
0.00019179122
-0.0012207883
0.00021919112
-0.001469331
0.00024894134
0.00027927724
-0.0017482027
-1.7213471e-06
3.3057168e-06
-7.8272652e-06
1.1902737e-05
-2.0197571e-05
2.440179e-05
-4.1086031e-05
4.168081e-05
-7.2949073e-05
6.4352651e-05
-0.00011818478
9.2468943e-05
-0.00017884861
0.00012529872
-0.0002565201
0.00016147261
-0.00035246273
0.00019966414
-0.00046801113
0.00023946411
-0.00060493397
0.0002816791
-0.00076557902
0.00032776204
-0.0009528265
0.00037903871
-0.001170105
0.00043646958
-0.0014222456
0.00050108195
0.0005749016
-0.0017178699
-1.6256606e-06
4.9313774e-06
-7.4589189e-06
1.7735996e-05
-1.9338495e-05
3.6281366e-05
-3.9438405e-05
6.178072e-05
-7.0128329e-05
9.5042575e-05
-0.00011371373
0.00013605434
-0.00017212949
0.00018371448
-0.00024675473
0.00023609786
-0.00033853644
0.00029144585
-0.0004484302
0.00034935787
-0.00057789345
0.00041114235
-0.00072912886
0.00047899745
-0.00090506466
0.0005549745
-0.0011093005
0.00064070538
-0.0013457686
0.00073755009
0.00084560158
-0.0016164686
-1.4346375e-06
6.3660149e-06
-6.5851459e-06
2.2886504e-05
-1.7125375e-05
4.6821594e-05
-3.5107487e-05
7.9762832e-05
-6.2846481e-05
0.00012278157
-0.00010269329
0.00017590115
-0.00015672583
0.00023774702
-0.00022649625
0.00030586828
-0.00031303763
0.00037798723
-0.00041722415
0.00045354438
-0.00054030477
0.00053422297
-0.00068428615
0.00062297884
-0.00085203056
0.00072271891
-0.0010472066
0.00083588137
-0.0012748806
0.00096522412
0.0011167822
-0.0015460612
-1.3701303e-06
7.7361452e-06
-6.3185885e-06
2.7834962e-05
-1.6404999e-05
5.6908005e-05
-3.3435239e-05
9.6793072e-05
-5.9390348e-05
0.00014873668
-9.6287251e-05
0.00021279805
-0.00014599473
0.00028745449
-0.00021003541
0.00036990897
-0.00028949712
0.00045744893
-0.00038526491
0.00054931218
-0.00049855244
0.00064751051
-0.00063139824
0.00075582464
-0.00078686116
0.00087818183
-0.00096904032
0.0010180605
-0.0011824559
0.0011786397
0.0013621385
-0.0014278122
-6.5428508e-06
1.4278996e-05
-1.3813765e-05
3.5105877e-05
-2.3335439e-05
6.6429679e-05
-3.6386262e-05
0.00010984389
-5.4461785e-05
0.0001668122
-7.9305928e-05
0.0002376422
-0.0001128585
0.00032100707
-0.0001571257
0.00041417617
-0.00021357268
0.00051389591
-0.00028326304
0.00061900254
-0.00036688285
0.00073113032
-0.00046490091
0.0008538427
-0.00057762775
0.00099090866
-0.00070531665
0.0011457494
-0.00084883391
0.0013221569
0.0015260384
-0.0010127338
1.2015087e-06
-1.1251399e-06
-7.6368845e-08
5.3855209e-06
-5.2938951e-06
1.1098829e-06
1.3729756e-05
-1.3658834e-05
5.3145989e-06
2.7738379e-05
-2.9354449e-05
1.5345826e-05
4.9054202e-05
-5.7049448e-05
3.5733625e-05
7.9331027e-05
-0.00010313826
7.2861432e-05
0.00012006244
-0.00017515681
0.00013442539
0.00017232242
-0.00027988697
0.000227627
0.00023643475
-0.00042015725
0.00035604492
0.00031174531
-0.00059190769
0.00051659712
0.00039673588
-0.0007844619
0.00069947133
0.00048963526
-0.00098561899
0.00089271962
0.00058936142
-0.001188715
0.0010889888
0.00069591546
-0.0013957417
0.0012891876
0.00080951797
-0.0016138568
0.0015002543
-0.0018500737
0.0017240922
0.00093549947
1.1493862e-06
-2.2745261e-06
5.4653523e-06
-9.6098613e-06
1.448823e-05
-2.2681712e-05
3.0028695e-05
-4.4894915e-05
5.4101448e-05
-8.1122201e-05
8.8632729e-05
-0.00013766954
0.00013498718
-0.00022151126
0.00019343192
-0.00033833171
0.0002628514
-0.00048957673
0.00034111481
-0.0006701711
0.00042621903
-0.00086956612
0.00051774136
-0.0010771413
0.00061771277
-0.0012886864
0.00073023352
-0.0015082624
0.00086056109
-0.0017441844
-0.0020056182
0.0010161056
1.112543e-06
-3.387069e-06
5.1178141e-06
-1.3615132e-05
1.3385898e-05
-3.0949795e-05
2.767117e-05
-5.9180187e-05
4.9989316e-05
-0.00010344035
8.2301084e-05
-0.00016998131
0.00012592075
-0.00026513092
0.00018078083
-0.00039319179
0.00024500876
-0.00055380466
0.0003153985
-0.00074056083
0.00038893068
-0.00094309831
0.00046467588
-0.0011528865
0.00054479603
-0.0013688065
0.0006338174
-0.0015972838
0.00073723098
-0.001847598
-0.0021291734
0.00086078616
1.2156048e-06
-4.6026739e-06
5.5624934e-06
-1.7962021e-05
1.4385065e-05
-3.9772366e-05
2.9233105e-05
-7.4028228e-05
5.1676445e-05
-0.00012588369
8.2937305e-05
-0.00020124217
0.00012336231
-0.00030555593
0.00017190899
-0.00044173847
0.00022601377
-0.00060790944
0.00028224464
-0.00079679171
0.00033780659
-0.00099866027
0.00039223898
-0.0012073189
0.00044798698
-0.0014245545
0.00050915669
-0.0016584535
0.00057984989
-0.0019182912
-0.0022132064
0.00066388288
1.1771302e-06
-5.779804e-06
5.3238791e-06
-2.210877e-05
1.3627109e-05
-4.8075596e-05
2.7387094e-05
-8.7788213e-05
4.7784662e-05
-0.00014628125
7.5485755e-05
-0.00022894326
0.00011013447
-0.00034020464
0.00014995083
-0.00048155483
0.00019179977
-0.00064975837
0.00023206345
-0.00083705539
0.00026823601
-0.0010348328
0.00030037482
-0.0012394577
0.00033109123
-0.0014552709
0.00036379282
-0.0016911551
0.00040105289
-0.0019555513
-0.0022566088
0.00044445531
1.0876735e-06
-6.8674775e-06
4.8617736e-06
-2.588287e-05
1.2289486e-05
-5.5503308e-05
2.4327188e-05
-9.9825915e-05
4.1664353e-05
-0.00016361842
6.4343395e-05
-0.0002516223
9.1339989e-05
-0.00036720124
0.00012031969
-0.00051053454
0.00014787812
-0.00067731679
0.00017054283
-0.0008597201
0.00018635308
-0.0010506431
0.00019592619
-0.0012490308
0.00020195094
-0.0014612957
0.00020726702
-0.0016964712
0.00021385416
-0.0019621384
-0.0022648566
0.00022210197
9.2203321e-07
-7.7895107e-06
4.0582539e-06
-2.9019091e-05
1.0094596e-05
-6.153965e-05
1.9597126e-05
-0.00010932845
3.2755998e-05
-0.00017677729
4.9049051e-05
-0.00026791535
6.6923467e-05
-0.00038507565
8.3692545e-05
-0.00052730362
9.5878196e-05
-0.00068950245
0.00010030076
-0.00086414266
9.5643578e-05
-0.0010459859
8.2987564e-05
-0.0012363748
6.4874835e-05
-0.001443183
4.3313127e-05
-0.0016749094
1.9579931e-05
-0.0019384052
-0.0022403963
-4.8803492e-06
6.8584622e-07
-8.475357e-06
2.9451009e-06
-3.1278345e-05
7.135421e-06
-6.572997e-05
1.3405815e-05
-0.00011559884
2.1466507e-05
-0.00018483798
3.0317188e-05
-0.00027676603
3.8023301e-05
-0.00039278176
4.173256e-05
-0.00053101288
3.8047054e-05
-0.00068581694
2.4215326e-05
-0.00085031093
-2.6731208e-07
-0.0010215033
-3.3890985e-05
-0.0012027511
-7.4964343e-05
-0.0014021096
-0.00012256548
-0.0016273083
-0.00017631802
-0.0018846527
-0.0021787346
-0.00023797974
3.6174456e-07
1.4645461e-06
3.3184976e-06
5.6831868e-06
7.8771952e-06
8.5571798e-06
5.534394e-06
-4.1662934e-06
-2.3628202e-05
-5.4785997e-05
-9.7637187e-05
-0.00015088112
-0.00021391834
-0.00028694297
-0.00037013299
-0.00046174626
-2.2473818e-07
-8.5674269e-06
-1.1124991e-06
-3.1218333e-05
-3.1647779e-06
-6.4726031e-05
-7.2283134e-06
-0.00011201687
-1.4627461e-05
-0.00017573423
-2.7311486e-05
-0.00025734121
-4.8266403e-05
-0.00035560724
-8.099109e-05
-0.00046670225
-0.0001284652
-0.00058557506
-0.00019205908
-0.00070934527
-0.00027159177
-0.00083973489
-0.00036651443
-0.00098210968
-0.00047700627
-0.0011425361
-0.00060423922
-0.0013263476
-0.00074994831
-0.0015390851
-0.0017877061
-0.00091544402
5.645823e-06
-1.421325e-05
9.3422492e-06
-3.4914759e-05
1.0706581e-05
-6.6090363e-05
8.1036986e-06
-0.00010941399
-1.1213703e-06
-0.00016650916
-2.0498982e-05
-0.0002379636
-5.3290213e-05
-0.00032281601
-0.00010121743
-0.00041877504
-0.00016381994
-0.00052297255
-0.00023858029
-0.00063458491
-0.00032272095
-0.00075559423
-0.00041483911
-0.00088999153
-0.00051533367
-0.0010420416
-0.00062596549
-0.0012157158
-0.00074900435
-0.0014160463
-0.0016516975
-0.00088501296
1.6338495e-07
-2.6101131e-07
9.7626362e-08
1.24529e-06
-7.2475992e-08
-1.0094291e-06
4.3489322e-06
1.8997319e-06
-5.003374e-06
1.1145548e-05
7.7627546e-06
-1.455937e-05
2.4183125e-05
2.0951889e-05
-3.3989466e-05
4.6846214e-05
4.6712987e-05
-6.9376076e-05
8.2826221e-05
9.2085783e-05
-0.00012806579
0.00013505342
0.00016471864
-0.00021694584
0.00020452891
0.00026996961
-0.0003394451
0.0002898698
0.00040722769
-0.00049256858
0.00038808616
0.0005684296
-0.00066664596
0.00049627082
0.00074133833
-0.00084952299
0.00061323561
0.00091612565
-0.0010330904
0.0007401111
0.0010902579
-0.0012171334
0.00087967204
0.0012681799
-0.0014077409
0.0014569517
-0.0016130914
0.0010358118
3.0944661e-07
-5.7045792e-07
1.4098501e-06
-1.1728795e-06
3.9069203e-06
-5.973383e-07
8.9940471e-06
2.6756278e-06
1.8661169e-05
1.1284767e-05
3.6018356e-05
2.93558e-05
6.5411928e-05
6.269221e-05
0.00011193782
0.00011819275
0.00018014027
0.00020176716
0.00027257994
0.00031478802
0.0003895118
0.00045149773
0.00052998206
0.00060086808
0.0006935316
0.0007525761
0.00088160999
0.00090217949
0.0010981689
0.001051621
0.0012062364
0.0013488842
3.6466775e-07
-9.3512567e-07
1.8719249e-06
-2.6801367e-06
5.3007699e-06
-4.0261833e-06
1.1782055e-05
-3.8056577e-06
2.2960988e-05
1.0583394e-07
4.1156682e-05
1.1160106e-05
6.9561654e-05
3.4287238e-05
0.00011231222
7.5442185e-05
0.00017419399
0.00013988539
0.00025975937
0.00022922264
0.0003722864
0.00033897071
0.00051344233
0.00045971214
0.00068390013
0.00058211831
0.00088435295
0.00070172667
0.0011160774
0.00081989657
0.00094076645
0.0013815473
-4.9664613e-09
-9.3015921e-07
1.817105e-07
-2.8668136e-06
1.0099484e-06
-4.8544212e-06
3.3714777e-06
-6.167187e-06
8.8725511e-06
-5.3952394e-06
2.0145486e-05
-1.1282882e-07
4.1079835e-05
1.3352889e-05
7.6852153e-05
3.9669867e-05
0.00013343284
8.3304697e-05
0.00021657522
0.00014608026
0.0003306738
0.00022487213
0.00047817688
0.00031220906
0.00065995852
0.00040033667
0.00087639875
0.00048528645
0.0011285049
0.00056779037
0.00065012716
0.0014191442
-2.6467198e-07
-6.6548722e-07
-1.0196459e-06
-2.1118397e-06
-2.1210228e-06
-3.7530443e-06
-3.0415441e-06
-5.2466657e-06
-2.5668025e-06
-5.869981e-06
1.6604473e-06
-4.3400786e-06
1.3636272e-05
1.3770638e-06
3.9319708e-05
1.3986431e-05
8.6278257e-05
3.6346148e-05
0.00016264393
6.9714592e-05
0.0002751757
0.00011234035
0.00042771384
0.00015967093
0.00062108549
0.00020696501
0.00085443363
0.00025193831
0.0011268422
0.00029538182
0.00033911898
0.0014378504
-6.6432645e-07
-1.1607649e-09
-2.7723124e-06
-3.8537572e-09
-6.5179075e-06
-7.4492091e-09
-1.1752388e-05
-1.2185565e-08
-1.7603996e-05
-1.8372854e-08
-2.1917402e-05
-2.667248e-08
-2.0501797e-05
-3.8541079e-08
-6.4584608e-06
-5.690541e-08
2.9974925e-05
-8.7237858e-08
9.9826246e-05
-1.3672815e-07
0.00021237754
-2.1095056e-07
0.00037236265
-3.1418404e-07
0.00057978365
-4.5598174e-07
0.00083239208
-6.7011691e-07
0.0011288321
-1.0581537e-06
-2.0514267e-06
0.0014700025
-6.648879e-07
6.6372713e-07
-2.774634e-06
2.1058924e-06
-6.5238361e-06
3.7417529e-06
-1.1765065e-05
5.229043e-06
-1.7628466e-05
5.8450288e-06
-2.1961367e-05
4.3062286e-06
-2.057658e-05
-1.4233287e-06
-6.5803836e-06
-1.4053101e-05
2.9781872e-05
-3.6449494e-05
9.9524983e-05
-6.987984e-05
0.00021190651
-0.00011259247
0.00037161154
-0.00016001922
0.00057853853
-0.00020738296
0.0008301978
-0.0002523294
0.0011245927
-0.00029545307
-0.00033701917
0.0014595605
-2.6425018e-07
9.2797731e-07
-1.0185601e-06
2.8602023e-06
-2.1197192e-06
4.842912e-06
-3.0414199e-06
6.1507437e-06
-2.5707941e-06
5.374403e-06
1.6471359e-06
8.8298634e-08
1.3605634e-05
-1.3381827e-05
3.9260722e-05
-3.9708189e-05
8.6176003e-05
-8.3364774e-05
0.0001624789
-0.00014618274
0.00027492922
-0.00022504279
0.00042738708
-0.00031247707
0.0006207503
-0.00040074619
0.00085434635
-0.00048592545
0.0011276575
-0.00056876422
-0.0006509914
0.0014416297
-5.9942886e-09
9.3397161e-07
1.7702753e-07
2.6771805e-06
9.9748766e-07
4.0224519e-06
3.3446427e-06
3.8035887e-06
8.8210878e-06
-1.0204206e-07
2.0053943e-05
-1.1144556e-05
4.0925685e-05
-3.425357e-05
7.6603361e-05
-7.5385865e-05
0.00013304459
-0.00013980601
0.00021598504
-0.00022912319
0.0003297939
-0.00033885165
0.0004768801
-0.00045956328
0.00065804765
-0.00058191374
0.0008735355
-0.0007014133
0.0011240153
-0.00081924406
-0.00093737492
0.0014103989
3.6264657e-07
5.7132504e-07
1.8626826e-06
1.1771445e-06
5.2769284e-06
6.082061e-07
1.1733643e-05
-2.6531255e-06
2.2874844e-05
-1.1243243e-05
4.1015724e-05
-2.9285436e-05
6.9343554e-05
-6.25814e-05
0.00011198751
-0.00011802982
0.0001737238
-0.00020154229
0.0002590932
-0.00031449259
0.00037135994
-0.00045111839
0.00051217403
-0.00060037737
0.0006821822
-0.00075192191
0.000882037
-0.0009012681
0.0011130852
-0.0010502923
-0.0012040853
0.0013797956
3.0709035e-07
2.6423469e-07
1.3995418e-06
8.469302e-08
3.8808951e-06
-1.8731472e-06
8.9417217e-06
-7.7139521e-06
1.8568602e-05
-2.0870123e-05
3.5867916e-05
-4.658475e-05
6.5182638e-05
-9.1896122e-05
0.00011160662
-0.0001644538
0.0001796835
-0.00026961917
0.00027197393
-0.00040678303
0.00038873262
-0.00056787708
0.00052900506
-0.0007406498
0.0006923333
-0.00091525016
0.00088019358
-0.0010891284
0.0010966138
-0.0012667125
-0.0014538904
0.0013464189
1.5524139e-07
1.089933e-07
1.2236008e-06
-9.8366639e-07
4.3054648e-06
-4.9550112e-06
1.1069791e-05
-1.4478278e-05
2.4063503e-05
-3.3863835e-05
4.6673128e-05
-6.9194375e-05
8.2596811e-05
-0.00012781981
0.00013477631
-0.0002166333
0.0002042268
-0.00033906966
0.0002895791
-0.00049213532
0.00038785521
-0.00066615319
0.00049615889
-0.00084895348
0.00061331502
-0.0010324063
0.00074044447
-0.0012162578
0.00088023463
-0.0014065027
-0.00161272
0.0010390642
2.8001177e-07
-7.1745073e-08
6.5483631e-07
1.1470055e-06
1.5483391e-06
1.3710393e-06
-2.408089e-07
-4.5778966e-06
-1.3320407e-05
-2.8489425e-05
-5.2475791e-05
-8.8175592e-05
-0.00013914448
-0.000209667
-0.00030503401
-0.00043215
2.8063851e-07
-7.185651e-08
6.5690316e-07
1.1522487e-06
1.5596915e-06
1.3927143e-06
-2.0300665e-07
-4.5162135e-06
-1.3223582e-05
-2.8339165e-05
-5.2241887e-05
-8.7812544e-05
-0.00013860422
-0.0002089841
-0.00030461368
-0.00043199407
1.5884101e-07
-3.262446e-08
5.1842876e-07
1.3859764e-06
3.2557662e-06
6.9228234e-06
1.3528406e-05
2.4522102e-05
4.1497362e-05
6.5959159e-05
9.9277296e-05
0.00014304343
0.00019962594
0.00027255574
0.00036630742
0.0004776796
1.5893359e-07
-3.263025e-08
5.1890334e-07
1.3874295e-06
3.2591397e-06
6.9293786e-06
1.3539688e-05
2.4539944e-05
4.1524098e-05
6.5997989e-05
9.9333441e-05
0.00014312781
0.00019975583
0.00027269887
0.00036655413
0.00048289428
0.001318089
-0.0033308224
0.0020127334
0.0081067369
-0.0084473635
0.00034062663
0.0011893038
-0.0031984868
0.0020091831
0.0081067369
-0.002230608
-2.5375131e-05
0.0022559832
-0.0082066941
0.0050981882
0.003108506
-0.0011372436
0.0044236865
-0.0032864429
0.0075226223
0.0030828349
-0.010605457
0.0078403512
0.0021423022
-0.0099826534
0.0013213774
-0.0017535274
-0.0019653627
0.0015333686
0.0035195211
0.0064631786
-0.0099826997
-0.0036278038
-0.0037981724
0.0074259762
-0.0075637871
0.0035430756
0.0040207115
-0.0016645295
0.0040350338
-0.0023705043
0.0034691058
3.3487736e-05
-0.0035025936
0.0073975067
-0.0077030953
0.00030558863
0.00073804584
0.0015455906
-0.0022836365
0.0015175535
-0.0017812249
0.00026367137
0.006346072
-0.0023553735
-0.0039906985
-0.00077376825
-0.0014568398
-0.0076626889
0.0040348852
-0.0094558023
0.0094731489
-1.7346584e-05
0.0007340604
0.0085466431
-0.0092807035
7.1943693e-05
-0.0056928199
0.0056208762
0.0044752644
0.0013485148
-0.0058237792
-0.0039956266
-0.0059617865
0.0099574131
0.0064667974
-0.0021964571
-0.0042703403
0.0013220714
0.0064228675
-0.0077449389
-0.0023176781
0.0056791031
-0.003361425
0.0067033262
-0.0022280618
0.0020480537
-0.0014983263
-0.0005497274
-0.0002089841
0.0084128489
-0.0082038648
0.0062588736
0.00015804079
-0.0064169144
0.0011034195
-0.0061469546
0.0050435351
0.0087346026
-0.0074000047
-0.0013345979
0.0077069779
-0.0081375913
0.00043061333
-0.004758463
0.0058618825
0.0056513441
-0.0032772451
-0.002374099
-0.0087529914
0.0017656644
0.006987327
0.0031402316
-0.004497898
0.0013576664
0.010031041
-0.0043350354
-0.0056960056
0.0075226223
-0.0023467227
0.0057281781
-0.0033814554
0.0078403512
-0.00083967301
0.0036765946
-0.0028369216
-0.0018970216
0.0065511571
-0.0046541355
-0.0098336084
0.004221002
0.0056126064
-0.0075226223
0.011466144
-0.0039435219
-0.0078403512
0.011571803
-0.0037314514
0.0031279175
-0.00016817671
-0.0029597408
-0.0038193861
0.0017065494
0.0021128367
0.0014111172
-0.0027029543
0.0012918371
0.00096071767
0.0011987059
-0.0021594235
-0.0029497959
0.0057438235
-0.0027940276
0.00047558847
0.0054891224
-0.0059647109
0.00096257748
-0.00193725
0.00097467252
-0.0055164091
0.0035067428
0.0020096663
-0.010544198
0.0011529265
0.0093912712
0.0084157414
-0.003072813
-0.0053429284
0.007749614
0.00066612743
0.0056251894
0.0041431913
-0.0097683807
0.0052618601
0.0044111198
-0.0096729798
-0.002512253
0.0050901213
-0.0025778682
0.0010886142
-0.0042701599
0.0031815457
-0.0067239627
0.0069491831
-0.00022522042
0.0043761435
-0.0079428934
0.0035667498
0.0044874108
0.0017451923
-0.0062326031
-0.00099691008
0.0062233984
-0.0052264883
-0.0090464489
0.0071494272
-0.0024873841
0.0069664742
-0.0044790901
0.0015893018
0.001879804
-0.0048638822
0.0044538133
0.00041006883
0.0048380406
0.0062566777
-0.011094718
0.0087574069
-0.0080957518
-0.00066165511
0.00054419772
-0.002620907
0.0046992292
-0.0020783222
0.0068937033
-0.0034015734
-0.0034921299
0.0097581175
-0.0087947255
-0.00096339203
0.0078260542
-0.0069332433
-0.0008928109
0.0026418061
-0.0038652378
0.0012234317
-0.002465525
0.0012186449
0.0012468801
0.0014151679
-0.003732846
-0.011505407
0.0080673664
0.0034380408
0.0022993628
0.0050981439
0.0024016899
-0.0091305277
0.0067288378
-0.0045331618
0.0076398034
-0.0031066416
-0.0010226571
-0.0060263512
0.0070490083
0.0029727086
-0.0024813418
-0.00049136686
0.00049778957
0.0082596173
0.0053018471
0.00010961577
-0.0054114628
-0.0076975121
0.0031468756
0.0045506364
0.00053739836
0.0035953679
-0.0041327663
0.0032403821
0.0024109621
0.0043838765
0.0024575477
-0.0068414243
0.0045845087
-0.001763077
-0.0028214317
-0.004688355
-0.0053500598
0.003054512
-0.0018652082
-0.0011205418
-0.0013721115
0.0024926533
-0.0029087795
0.0056448204
-0.0027360409
-0.0030502964
0.0078883369
-0.0057002765
0.0075300958
-0.0018298193
-0.0059182125
-0.0017792996
-3.589638e-05
0.0077428743
0.0081243731
-0.0075477093
-0.00057666377
-0.0051682874
-0.0023954998
-0.011356644
0.0074715179
0.0038851258
-0.011471126
0.0082579342
0.0032131918
0.005806303
-0.0026250358
-0.0031812672
0.0014348322
-0.003781555
0.0023705382
-0.0053203341
2.1450474e-05
0.0042241439
-0.0042455943
0.0031960532
-0.0041929633
-0.001561622
0.0047018536
0.0019902152
0.0043558569
0.0065562595
0.003201858
0.003831533
-0.0038100826
0.00296622
0.0071494026
-0.010115623
0.0098927272
-0.005675191
-0.0042175361
-0.0022103426
0.0047890198
-0.0025786772
-0.00010408035
0.0015151976
0.0020717321
-0.0011110144
0.0010144776
0.0010572589
-0.0020717365
0.01057799
-0.010786974
0.0012706497
0.0001746064
-0.0014452561
0.0017660438
-0.0003281934
-0.0075610993
0.0081663705
-0.0006052712
-0.0022602347
0.0012978729
0.00096236181
0.0035839093
-0.0036420248
5.8115476e-05
-0.0055867123
0.005114052
0.0004726603
0.0019512805
-0.00098870301
-0.00047853788
0.0049497959
-0.004471258
-0.0046557251
0.0085347765
-0.0038790514
0.0034953738
0.0065356671
0.0077562551
-0.0033801116
0.0034818747
0.0023244282
-0.0034998237
0.0026601507
0.0063956009
-0.007418258
-0.0033720796
0.0022515378
0.0055765652
0.0025478079
0.0053586968
-0.010830964
0.0054722671
0.0030343261
0.0015142621
-0.0015396373
-0.0030797876
0.0043978766
0.0074394587
-0.0074394587
-0.0022177393
-0.0013371748
0.0066390219
0.0010576594
-0.0036785664
-0.00036644006
0.0062786408
-0.0059122007
-0.0040928014
0.0097179908
-0.0042793836
0.0095412437
0.0082906066
-0.0048044568
-0.0034861498
0.0044063192
0.0030001225
-0.0052104651
0.0057924481
-0.0076058637
0.0018134156
0.0059348451
-0.0058629014