/*--------------------------------*- C++ -*----------------------------------*\
| =========                 |                                                 |
| \\      /  F ield         | foam-extend: Open Source CFD                    |
|  \\    /   O peration     | Version:     4.1                                |
|   \\  /    A nd           | Web:         http://www.foam-extend.org         |
|    \\/     M anipulation  |                                                 |
\*---------------------------------------------------------------------------*/
FoamFile
{
    version     2.0;
    format      ascii;
    class       regIOobject;
    location    "0.2/uniform";
    object      profilingInfo;
}
// * * * * * * * * * * * * * * * * * * * * * * * * * * * * * * * * * * * * * //

profilingInfo
(

    {
        id              16;
        parentId        11;
        description     "Foam::Time::writeObject - outputTime";
        calls           2;
        totalTime       0.025747;
        childTime       0;
        onStack         1;
    }

    {
        id              11;
        parentId        1;
        description     "Foam::Time::writeObject";
        calls           400;
        totalTime       0.026945;
        childTime       0.025747;
        onStack         1;
    }

    {
        id              1;
        description     "application::main";
        calls           1;
        totalTime       12.995124;
        childTime       10.57132;
        onStack         1;
    }

    {
        id              13;
        parentId        1;
        description     "FO::forceCoeffs::execute";
        calls           399;
        totalTime       0.140981;
        childTime       0;
        onStack         0;
    }

    {
        id              12;
        parentId        1;
        description     "FO::forces::execute";
        calls           399;
        totalTime       0.200488;
        childTime       0;
        onStack         0;
    }

    {
        id              14;
        parentId        1;
        description     "FO::pressureTools1::execute";
        calls           399;
        totalTime       0.000717;
        childTime       0;
        onStack         0;
    }

    {
        id              15;
        parentId        1;
        description     "FO::probes::execute";
        calls           399;
        totalTime       0.021203;
        childTime       0;
        onStack         0;
    }

    {
        id              2;
        parentId        1;
        description     "functionObjectList::read";
        calls           1;
        totalTime       0.006979;
        childTime       0;
        onStack         0;
    }

    {
        id              3;
        parentId        1;
        description     "fvMatrix::solve_U";
        calls           400;
        totalTime       1.189663;
        childTime       1.122973;
        onStack         0;
    }

    {
        id              8;
        parentId        1;
        description     "fvMatrix::solve_p";
        calls           1600;
        totalTime       8.984344;
        childTime       8.844115;
        onStack         0;
    }

    {
        id              5;
        parentId        4;
        description     "lduMatrix::smoother_Ux";
        calls           400;
        totalTime       0.497824;
        childTime       0;
        onStack         0;
    }

    {
        id              7;
        parentId        6;
        description     "lduMatrix::smoother_Uy";
        calls           400;
        totalTime       0.56181;
        childTime       0;
        onStack         0;
    }

    {
        id              4;
        parentId        3;
        description     "lduMatrix::solver_Ux";
        calls           400;
        totalTime       0.531033;
        childTime       0.497824;
        onStack         0;
    }

    {
        id              6;
        parentId        3;
        description     "lduMatrix::solver_Uy";
        calls           400;
        totalTime       0.59194;
        childTime       0.56181;
        onStack         0;
    }

    {
        id              9;
        parentId        8;
        description     "lduMatrix::solver_p";
        calls           1600;
        totalTime       8.844115;
        childTime       0.168295;
        onStack         0;
    }

    {
        id              10;
        parentId        9;
        description     "lduMatrix::solver_topLevelCorr";
        calls           32619;
        totalTime       0.168295;
        childTime       0;
        onStack         0;
    }
);


// ************************************************************************* //
