/*--------------------------------*- C++ -*----------------------------------*\
| =========                 |                                                 |
| \\      /  F ield         | foam-extend: Open Source CFD                    |
|  \\    /   O peration     | Version:     4.1                                |
|   \\  /    A nd           | Web:         http://www.foam-extend.org         |
|    \\/     M anipulation  |                                                 |
\*---------------------------------------------------------------------------*/
FoamFile
{
    version     2.0;
    format      ascii;
    class       volScalarField;
    location    "1.75";
    object      p;
}
// * * * * * * * * * * * * * * * * * * * * * * * * * * * * * * * * * * * * * //

dimensions      [0 2 -2 0 0 0 0];

internalField   nonuniform List<scalar> 
4393
(
-46.418336
-92.982246
-146.74737
-201.5388
-258.52993
-318.03147
-380.42637
-446.02418
-515.04915
-587.61145
-663.67902
-743.04946
-825.32466
-909.89203
-995.91633
-1082.345
-1167.9276
-1251.2465
-1330.7549
-1404.8154
-1471.7365
-1529.808
-1577.3353
-1612.6804
-1634.3158
-1640.8983
-1631.3737
-1605.122
-1562.0364
-1502.6171
-1428.0753
-1340.3166
-1241.8353
-1135.5321
-1024.4874
-911.73606
-800.07744
-691.94422
-589.33354
-493.79359
-406.45182
-328.06931
-259.1066
-199.78956
-150.17953
-110.24555
-79.768272
-57.837201
-43.632854
-45.166172
-92.396423
-146.03479
-200.67497
-257.49699
-316.84374
-379.1118
-444.62279
-513.61283
-586.20411
-662.37621
-741.93677
-824.49473
-909.44
-995.93413
-1082.9156
-1169.1201
-1253.1139
-1333.3331
-1408.1244
-1475.7818
-1534.5803
-1582.8088
-1618.8075
-1641.0201
-1648.0698
-1638.8671
-1612.7171
-1569.4494
-1509.5573
-1434.2577
-1345.491
-1245.8175
-1138.2232
-1025.8788
-911.89894
-799.1432
-690.08087
-586.72351
-490.61594
-402.86992
-324.22397
-255.11599
-195.75903
-146.20595
-106.36542
-75.966584
-54.867521
-44.269298
-44.361932
-91.499663
-144.77649
-199.0559
-255.52708
-314.56259
-376.58111
-441.92655
-510.85814
-583.52179
-659.91989
-739.87974
-823.02362
-908.74526
-996.1983
-1084.3012
-1171.7604
-1257.1075
-1338.7439
-1414.9844
-1484.0944
-1544.321
-1593.9206
-1631.1906
-1654.5139
-1662.4339
-1653.7724
-1627.7515
-1584.1091
-1523.2666
-1446.4351
-1355.6245
-1253.5314
-1143.3206
-1028.3489
-911.89402
-796.93576
-686.0138
-581.16382
-483.91809
-395.35075
-316.14869
-246.69598
-187.16201
-137.55615
-97.693066
-67.262762
-46.707708
-37.925128
-43.571211
-90.203908
-142.87276
-196.57364
-252.5008
-311.05538
-372.68491
-437.76525
-506.59044
-579.3429
-656.06084
-736.60298
-820.61371
-907.49428
-996.38716
-1086.1805
-1175.5351
-1262.9292
-1346.7111
-1425.1481
-1496.4647
-1558.8693
-1610.5739
-1649.8152
-1674.8878
-1684.2128
-1676.4658
-1650.7179
-1606.5586
-1544.3029
-1465.1486
-1371.2119
-1265.4061
-1151.1811
-1032.1897
-911.96623
-793.6766
-679.96626
-572.90362
-473.99713
-384.2597
-304.29747
-234.41073
-174.69364
-125.08054
-85.296446
-55.027061
-34.938982
-26.794806
-42.746071
-88.586473
-140.40234
-193.29891
-248.47803
-306.37171
-367.46293
-432.16909
-500.83082
-573.68041
-650.8059
-732.11056
-817.27106
-905.70064
-996.52703
-1088.5955
-1180.5018
-1270.6483
-1357.3093
-1438.6885
-1512.9585
-1578.2812
-1632.8162
-1674.7256
-1702.1913
-1713.4724
-1707.0429
-1681.753
-1636.9669
-1572.8314
-1490.511
-1392.2666
-1281.324
-1161.5465
-1037.0136
-911.62352
-788.79846
-671.32251
-561.29834
-460.19047
-368.91849
-287.97181
-217.53173
-157.58317
-107.95886
-68.301534
-38.304483
-18.687994
-10.931533
-41.737487
-86.537269
-137.25376
-189.11501
-243.33174
-300.37113
-360.75894
-424.96435
-493.38761
-566.32615
-643.93438
-726.17645
-812.77486
-903.16201
-996.44796
-1091.4206
-1186.5864
-1280.2446
-1370.5711
-1455.6892
-1533.7107
-1602.7481
-1660.9056
-1706.262
-1736.8635
-1750.7644
-1746.1706
-1721.6294
-1676.1832
-1609.7238
-1523.3438
-1419.4904
-1301.8213
-1174.7776
-1043.0288
-910.96489
-782.34266
-660.11419
-546.40807
-442.61256
-349.50986
-267.42587
-196.37803
-136.20046
-86.591765
-47.095226
-17.373277
1.8909048
9.4297791
-40.595548
-84.127534
-133.49184
-184.07105
-237.08922
-293.05464
-352.5436
-416.08785
-484.16136
-557.14391
-635.27577
-718.6022
-806.90959
-899.66039
-995.94518
-1094.4767
-1193.642
-1291.6018
-1386.4039
-1476.0735
-1558.6568
-1632.2212
-1694.8225
-1744.4566
-1779.0187
-1796.3155
-1794.2083
-1770.8397
-1724.8011
-1655.6005
-1564.1902
-1453.2455
-1327.0115
-1190.7238
-1049.8524
-909.43621
-773.65292
-645.64527
-527.54504
-420.61594
-325.44515
-242.13865
-170.49977
-110.17016
-60.684687
-21.46529
7.8997198
26.819417
34.186734
-39.186037
-81.205893
-128.95707
-178.00252
-229.57826
-284.23889
-342.6188
-405.3236
-472.91639
-545.87882
-624.56017
-709.1121
-799.40899
-894.95991
-994.83599
-1097.653
-1201.6375
-1304.765
-1404.9174
-1500.0019
-1587.9995
-1666.9465
-1734.8693
-1789.6947
-1829.161
-1850.7873
-1852.0039
-1830.4256
-1784.0205
-1711.724
-1614.2285
-1494.4769
-1357.5103
-1209.6552
-1057.4606
-906.8091
-762.39254
-627.5528
-504.3783
-393.93512
-296.53677
-211.99738
-139.84622
-79.486351
-30.257828
8.5612826
37.485986
56.039754
63.244562
-37.653466
-77.931254
-123.79745
-171.03372
-220.89139
-273.97699
-330.99057
-392.62328
-459.54423
-532.35952
-611.55539
-697.42215
-789.95545
-888.73671
-992.82238
-1100.7044
-1210.3942
-1319.6179
-1426.0414
-1527.4326
-1621.7141
-1706.919
-1781.0816
-1842.091
-1887.5378
-1914.6203
-1920.2421
-1901.3392
-1855.0278
-1779.3914
-1674.6603
-1544.072
-1393.7526
-1231.5365
-1065.4292
-902.40152
-747.75639
-605.01927
-476.15416
-361.9235
-262.26281
-176.60508
-104.1356
-43.967957
4.7869412
43.019539
71.370852
89.49031
96.513176
-35.748822
-74.005121
-117.69262
-162.83234
-210.68294
-261.90563
-317.27247
-377.5717
-443.59657
-516.10325
-595.7481
-683.00045
-778.02216
-880.50584
-989.5053
-1103.3549
-1219.7738
-1336.1472
-1449.8556
-1558.5018
-1659.9679
-1752.3308
-1833.6938
-1901.9672
-1954.6266
-1988.529
-1999.9518
-1984.9718
-1939.5567
-1860.5286
-1747.3127
-1603.4364
-1436.521
-1256.5134
-1073.3943
-895.52912
-728.92285
-577.22616
-442.14537
-323.98766
-222.1733
-135.64494
-63.164457
-3.5025471
44.492413
81.900517
109.50383
127.08537
133.88913
-33.798626
-69.806501
-111.02838
-153.76866
-199.29582
-248.32862
-301.71615
-360.35447
-425.17973
-497.12684
-577.06143
-665.68224
-763.37829
-870.01321
-984.66536
-1105.4719
-1229.7527
-1354.4211
-1476.4758
-1593.3269
-1702.8513
-1803.2438
-1892.7701
-1969.4552
-2030.7238
-2073.0924
-2092.1211
-2082.8103
-2039.6029
-1957.4654
-1834.4402
-1674.2624
-1486.6482
-1284.557
-1080.669
-885.12639
-704.69986
-543.03566
-401.37233
-279.34869
-175.69163
-88.721711
-16.688461
42.035285
88.894627
125.17522
151.80791
168.71396
175.24677
-31.32271
-64.748588
-103.16442
-143.16778
-186.01886
-232.49165
-283.51495
-340.10229
-403.35247
-474.41172
-554.40166
-644.31319
-744.84495
-856.123
-977.3041
-1106.2833
-1239.8259
-1374.1766
-1505.8097
-1631.9062
-1750.3939
-1859.6931
-1958.3636
-2044.6873
-2116.1527
-2168.9752
-2197.9382
-2196.7092
-2157.7508
-2073.343
-1939.165
-1758.9052
-1545.2694
-1315.6147
-1086.3393
-869.82884
-673.61594
-501.09494
-352.7149
-227.15214
-122.21402
-35.444573
35.514014
92.739109
137.99388
172.7776
198.17001
214.23213
220.42972
-28.935314
-59.575209
-94.898455
-131.84747
-171.67607
-215.21129
-263.46107
-317.5624
-378.79412
-448.54727
-528.25113
-619.26185
-722.69326
-839.06857
-967.7215
-1106.2585
-1250.6654
-1396.2222
-1538.6716
-1674.9316
-1803.0893
-1921.9587
-2030.5846
-2127.7167
-2211.0982
-2276.7296
-2318.5561
-2328.6901
-2297.1129
-2212.2108
-2065.6695
-1860.5015
-1613.7642
-1349.4202
-1089.0229
-847.74867
-633.74365
-449.7129
-294.83403
-166.42282
-61.086546
24.581514
93.641866
148.66583
191.7479
224.59773
248.4347
263.45648
269.24372
-25.834136
-53.293581
-85.133663
-118.6341
-155.00958
-195.1286
-240.07237
-291.10346
-349.69658
-417.52471
-496.38622
-588.09158
-694.30894
-816.16479
-953.35793
-1103.1836
-1260.5274
-1419.2536
-1574.0611
-1721.5669
-1860.1862
-1989.3501
-2108.813
-2218.0579
-2315.3656
-2396.6905
-2455.1179
-2481.0409
-2461.5181
-2379.4387
-2219.7767
-1983.4295
-1693.9001
-1385.4235
-1086.7163
-816.34274
-582.62485
-386.84081
-226.19001
-96.101282
8.3539612
91.718665
157.84119
209.81304
250.05564
280.47059
302.39625
316.15745
321.45029
-22.988201
-47.10573
-75.194509
-104.93149
-137.49319
-173.78083
-214.94017
-262.35588
-317.70803
-382.98584
-460.4211
-552.37304
-661.22428
-788.99179
-936.05952
-1099.4286
-1272.3911
-1446.6647
-1615.4049
-1774.8914
-1924.1699
-2063.643
-2194.0918
-2316.1327
-2429.0757
-2529.1728
-2608.6911
-2656.1958
-2655.5375
-2582.1145
-2409.6973
-2133.909
-1787.8942
-1422.5467
-1076.4621
-772.14841
-517.1149
-310.00942
-145.03874
-15.06957
86.744719
166.26207
228.17694
276.09738
312.74161
340.1652
359.79098
372.05348
376.76136
-19.233919
-39.566216
-63.484187
-89.029016
-117.28602
-149.16166
-185.84273
-228.81728
-279.96491
-341.61688
-416.50728
-507.64817
-618.32159
-751.84659
-909.87379
-1089.2915
-1281.1094
-1473.7776
-1658.1805
-1830.3007
-1990.3859
-2140.3428
-2282.2982
-2418.3923
-2549.5626
-2672.7854
-2779.5066
-2856.4391
-2884.46
-2829.5829
-2647.2672
-2321.1062
-1898.5392
-1458.8459
-1053.8975
-710.4678
-433.2334
-216.30359
-49.472372
77.78519
174.63452
248.3887
304.59487
347.32807
379.53852
403.37356
420.29031
430.80629
434.83539
-15.90946
-32.367291
-51.889582
-72.94639
-96.528457
-123.5305
-155.16185
-192.99719
-239.1081
-296.19453
-367.57608
-457.03265
-568.92483
-708.39942
-879.34382
-1079.0131
-1295.0622
-1510.7475
-1713.4183
-1898.7709
-2069.159
-2228.7146
-2381.1416
-2530.5004
-2680.4107
-2829.63
-2969.2032
-3084.3644
-3154.1246
-3134.0356
-2949.9828
-2559.1811
-2029.3152
-1490.92
-1012.5463
-624.9341
-325.99919
-102.36944
62.497744
183.47275
272.39872
338.09356
386.87773
423.1788
450.0701
469.70081
483.49543
492.018
495.27532
-11.483808
-23.591257
-38.29475
-54.438792
-72.848351
-94.36358
-120.17051
-151.87593
-191.6818
-242.62096
-308.63881
-394.36503
-505.3361
-649.11159
-833.42198
-1057.121
-1303.0146
-1546.0323
-1768.1252
-1964.9885
-2142.9861
-2309.9018
-2471.33
-2633.6375
-2804.7632
-2986.7989
-3170.3771
-3338.5271
-3469.9347
-3511.2857
-3344.1615
-2870.8204
-2184.1617
-1512.8849
-942.75677
-506.9708
-189.30168
35.49322
192.77939
302.74739
380.12327
435.11112
474.59629
503.15908
523.83565
538.65777
548.9344
555.23062
557.62897
-7.5458497
-15.399252
-25.214377
-36.272677
-49.208401
-64.768295
-84.069309
-108.69946
-140.93382
-184.11212
-242.90505
-322.98472
-431.152
-577.96916
-777.5908
-1033.292
-1320.8805
-1601.2874
-1847.9002
-2056.6901
-2241.3184
-2415.2521
-2585.4486
-2759.5538
-2951.5085
-3168.8255
-3401.8733
-3630.6968
-3839.9648
-3979.4799
-3868.0493
-3294.1544
-2367.8895
-1515.4687
-830.30476
-345.16819
-15.878279
201.09053
342.92306
435.88792
497.45651
538.82549
567.05915
586.58873
600.19867
609.65735
616.06276
619.92869
621.39231
-2.4939113
-5.6553138
-10.105187
-15.57371
-22.444889
-31.342347
-43.273941
-59.749673
-83.013613
-116.56855
-165.75764
-237.36624
-339.18312
-484.64543
-697.72309
-992.04151
-1333.7656
-1659.6082
-1930.103
-2142.1517
-2323.1304
-2495.6252
-2666.8212
-2843.2057
-3049.0302
-3303.2092
-3599.1229
-3914.2324
-4241.4408
-4553.25
-4583.054
-3903.5055
-2589.3326
-1483.2359
-653.44188
-124.35599
202.50205
397.84352
513.68105
582.3973
623.43234
648.17691
663.26848
672.58022
678.38282
682.01698
684.26868
685.54559
686.01617
2.9588167
3.9730053
4.5463349
4.3729022
3.3874987
1.1548335
-3.1200756
-10.724122
-23.652706
-45.262012
-81.375772
-140.13284
-230.27625
-367.39288
-589.8831
-934.91288
-1357.8492
-1750.6847
-2054.886
-2266.9288
-2439.8893
-2611.5793
-2788.6317
-2969.4531
-3193.9667
-3500.0514
-3883.3359
-4313.1304
-4763.9403
-5291.556
-5573.8449
-4825.389
-2837.3255
-1376.2577
-376.93595
174.90194
474.14505
627.83196
704.33872
740.6207
756.28031
761.57958
761.89189
760.03522
757.47848
754.96853
752.88361
751.47396
750.91645
8.2851681
13.265504
19.323857
25.158442
31.021228
36.678502
41.595723
44.763563
44.510607
37.799521
18.451187
-23.540631
-98.149048
-220.111
-443.9489
-853.46748
-1397.2739
-1876.3983
-2210.7334
-2392.8838
-2530.4331
-2685.7038
-2862.8225
-3027.8624
-3238.6879
-3573.5737
-4023.7565
-4561.7885
-5089.7526
-5960.4007
-6823.7578
-6299.5522
-3074.0395
-1170.9679
36.497654
572.64994
805.00949
890.17254
911.79894
907.31769
893.26016
876.87659
861.26524
847.66285
836.46354
827.67735
821.19874
817.0802
815.4879
17.840856
25.859674
36.761906
47.720102
59.417139
71.80198
84.632174
97.25906
108.52267
116.2357
114.96576
93.714126
41.617942
-49.544087
-244.68724
-715.16054
-1441.8705
-2033.5825
-2413.351
-2545.7208
-2643.0149
-2787.2191
-2982.2
-3113.7388
-3276.7355
-3677.7421
-4224.4174
-4961.7496
-5679.3495
-7242.8973
-8882.1377
-9068.3997
-3578.1621
-1038.2374
635.18598
1099.0893
1197.3503
1178.9799
1129.5286
1077.2901
1030.5894
991.36872
959.44347
934.02675
914.24104
899.27115
888.48736
881.72287
879.12091
22.150112
30.895401
46.137259
62.239087
80.172699
100.10967
122.29367
146.74943
173.26435
201.23939
227.41503
240.71372
225.96163
180.33939
45.392008
-483.29925
-1555.1392
-2311.4483
-2773.6112
-2771.0446
-2749.6525
-2813.1577
-3022.7081
-3099.9674
-3207.2341
-3763.3022
-4233.0418
-5185.2723
-6470.8922
-7863.4952
-9589.1925
-12103.594
-4823.3117
-72.528306
1722.8279
1811.9831
1641.1438
1478.7623
1346.2321
1243.2062
1163.5601
1101.9595
1054.3144
1017.6248
989.69353
968.8776
954.03201
944.77382
941.22054
36.935978
46.533137
66.460358
87.314601
110.74891
137.07846
166.90774
200.72199
238.86309
281.66314
327.57413
365.35401
371.82673
347.26398
293.72258
-191.13797
-1818.0586
-2617.09
-3115.4155
-2772.8576
-2626.7421
-2732.5253
-3131.8458
-3271.246
-3302.5243
0
0
0
0
0
0
0
0
6202.3779
3402.4599
2582.4993
2068.2425
1755.8634
1545.1292
1396.0923
1287.0053
1205.4589
1143.7816
1096.9989
1061.7507
1035.6679
1017.1542
1005.6406
1001.2262
35.365263
42.182704
64.028859
87.076046
113.20636
142.74163
176.58164
215.67937
261.07796
314.42793
377.59318
445.99229
502.80503
560.82913
710.65027
552.74088
-1996.7649
-2776.9033
-3646.6762
-2968.7071
-3044.3267
-3012.3078
0
0
0
0
0
0
0
0
0
0
10129.596
6286.2678
4123.9636
3000.3314
2361.3191
1969.1837
1709.0546
1527.5683
1396.2908
1299.0475
1225.997
1170.8599
1129.4615
1098.9011
1077.2441
1063.7883
1058.6309
44.262549
54.950247
80.95042
106.97844
136.15569
169.03774
206.87782
251.10663
303.50886
367.08301
447.1181
546.0891
653.29257
754.39507
842.16283
568.46199
-3108.1234
-3581.5646
-3205.2669
0
0
0
0
0
0
0
0
0
0
0
1780.7059
3364.6282
5756.1418
5236.106
3961.3946
3100.1781
2507.1512
2107.7473
1830.6609
1632.9982
1488.4356
1380.7365
1299.5751
1238.1988
1192.0565
1157.9627
1133.7857
1118.7585
1112.9974
22.191461
42.16618
66.371336
91.285784
118.75384
149.5493
184.74589
225.50861
273.13641
329.83426
399.50443
478.03475
537.54592
536.27731
558.13687
702.33692
0
0
0
0
0
0
-1132.0372
-1103.4937
-1011.2764
-917.52704
-790.05553
-495.2689
-94.916597
697.11506
2026.4724
3361.9416
4751.0112
4489.8754
3714.8162
3058.6981
2552.6752
2182.2289
1911.4534
1711.6687
1562.3614
1449.5385
1363.6986
1298.3509
1248.9892
1212.391
1186.376
1170.1834
1163.9717
19.953857
50.022517
74.971294
100.54517
127.96352
158.05931
191.48284
228.6688
269.57665
313.42353
357.90628
396.56941
406.15909
338.11137
142.0494
-338.10377
-1284.3617
-1227.4293
-1147.0624
-1100.4429
-1051.0483
-1021.5813
-1010.3325
-803.25831
-838.65191
-583.15232
-362.31582
-204.58775
259.11263
904.88459
1960.3219
3049.3508
3956.5882
3851.9152
3404.3133
2933.61
2528.4728
2206.0254
1956.7129
1765.4306
1618.5364
1505.3881
1418.1123
1351.0079
1299.9488
1261.8896
1234.7346
1217.7946
1211.29
20.663114
46.485541
72.120857
97.97293
125.28814
154.81754
187.14221
222.62876
261.2637
302.13964
342.04181
373.74396
384.82878
353.17055
205.22953
-227.90172
-792.26875
-920.92221
-962.51249
-966.11681
-887.77017
-842.28855
-818.51943
-691.77075
-620.91488
-417.51206
-179.11529
77.770975
510.91506
1096.4944
1896.2144
2721.614
3334.9078
3356.8457
3105.6728
2777.157
2463.3695
2193.8209
1973.6072
1797.6876
1658.5222
1548.9511
1463.0464
1396.1877
1344.8505
1306.3246
1278.7047
1261.4252
1254.7823
14.997203
36.231696
58.798692
81.293397
104.29395
128.03942
152.53531
177.42177
201.79693
223.69742
238.90681
240.19328
218.26436
159.2332
15.09607
-283.88664
-606.87077
-732.43127
-784.48562
-794.25451
-753.09411
-703.44361
-642.20526
-537.73307
-423.85789
-238.21514
-11.470879
269.91133
668.63575
1187.7492
1823.2685
2450.9209
2889.5423
2967.0778
2834.9887
2613.0157
2376.1944
2157.6878
1969.1991
1812.3954
1684.4814
1581.3848
1499.0992
1434.1776
1383.8076
1345.7113
1318.2467
1301.0067
1294.3698
23.838426
46.445305
70.190818
93.657712
117.54646
141.96397
166.72975
191.21515
214.10147
232.82209
242.69275
236.68017
206.00148
135.41327
-7.240452
-236.52745
-460.12624
-579.7755
-635.35253
-644.51053
-615.80475
-568.26337
-497.25229
-394.43174
-264.32133
-82.905529
139.18806
416.14025
777.05307
1223.798
1735.5353
2221.769
2557.2514
2658.5793
2599.6396
2454.8614
2280.1915
2107.1351
1949.761
1813.4794
1698.804
1604.1201
1527.115
1465.4661
1417.0932
1380.1926
1353.4258
1336.5611
1330.0589
12.025094
29.929211
50.03441
70.038722
90.044818
109.93192
129.39179
147.75358
163.76857
175.19182
178.32624
168.07389
137.653
74.67109
-40.03572
-203.48479
-358.78096
-456.71952
-506.0503
-514.20475
-488.90138
-439.97722
-365.66128
-262.5733
-128.51139
46.990957
261.88092
525.21706
849.7
1232.3625
1648.6604
2032.8285
2301.9698
2411.6023
2398.1449
2308.551
2183.1736
2048.9639
1920.3988
1804.4765
1703.8415
1618.6849
1548.0735
1490.6752
1445.0991
1410.0135
1384.3952
1368.1896
1361.9314
21.407559
40.633248
60.855599
80.369983
99.456666
117.84742
135.02859
150.10774
161.63619
167.33224
163.95556
147.56051
113.09514
52.290003
-43.537983
-165.59342
-278.97883
-356.09854
-395.66289
-400.42922
-375.15989
-324.69819
-248.64692
-145.25587
-11.747706
156.81859
361.08494
606.04741
895.97676
1224.4403
1567.8898
1878.5298
2102.0177
2212.2065
2227.164
2176.7765
2089.8582
1988.0811
1885.1123
1788.4014
1701.7521
1626.5801
1563.0007
1510.5005
1468.2958
1435.4949
1411.3787
1396.0595
1390.1336
11.865038
27.970255
45.962142
63.614833
80.824599
97.236933
112.32265
125.22909
134.62531
138.51911
134.23572
118.57157
87.516628
35.696048
-39.983604
-130.41066
-213.50152
-271.80588
-300.82324
-300.60018
-273.43551
-221.60736
-145.00556
-42.484983
88.020075
248.93417
441.03895
666.32529
924.59851
1207.7581
1495.1998
1752.184
1942.6485
2049.7828
2082.4928
2059.9543
2002.6931
1927.6474
1846.8623
1767.7037
1694.4207
1629.1992
1572.9042
1525.6624
1487.1982
1457.0082
1434.6523
1420.3897
1414.8629
17.140901
33.238549
50.222053
66.367689
81.71816
95.891546
108.33512
118.22913
124.39147
125.19514
118.62322
102.375
73.705357
29.641649
-29.970605
-97.36179
-158.11424
-200.43843
-219.36023
-213.50913
-183.53214
-130.31749
-53.738661
46.985814
173.1308
325.80161
505.19962
711.27064
941.44209
1187.1813
1431.2536
1648.3326
1813.9522
1916.5127
1960.2362
1957.5142
1922.9763
1869.7094
1807.8499
1744.323
1683.4384
1627.7864
1578.7298
1536.8697
1502.3358
1474.9537
1454.5271
1441.4373
1436.3559
11.966726
26.367343
42.106688
57.219987
71.540071
84.639041
95.961823
104.73522
109.90702
110.12333
103.81322
89.289358
64.772605
28.923393
-17.001736
-66.683912
-110.22864
-139.2061
-148.97078
-137.52692
-104.52304
-50.054635
26.092927
124.42371
245.57059
389.80993
556.67147
744.81141
950.49197
1165.4961
1375.7253
1562.5585
1708.9471
1806.4686
1856.9066
1868.3155
1851.1465
1815.4579
1769.5821
1719.7377
1670.1081
1623.4185
1581.3361
1544.7938
1514.2314
1489.7417
1471.3339
1459.4841
1454.8757
13.673235
27.361096
41.874095
55.554127
68.320072
79.776552
89.421878
96.588696
100.41591
99.858954
93.774907
81.019933
60.573827
32.114347
-2.5718253
-38.457366
-68.48097
-86.385699
-88.087096
-71.40763
-35.465534
20.078353
95.50375
191.09812
307.02548
442.9975
597.98667
769.88902
954.50856
1144.3241
1327.9184
1491.4252
1622.6258
1715.1753
1769.5753
1791.0802
1787.182
1765.5919
1733.0871
1695.0712
1655.476
1617.0064
1581.4825
1550.0533
1523.3842
1501.778
1485.4104
1474.8254
1470.7015
11.354584
24.029521
37.647747
50.504147
62.436944
73.052377
81.886697
88.359785
91.769617
91.32279
86.217514
75.745518
59.460236
37.666776
12.293288
-12.633634
-31.876745
-40.623832
-35.382831
-14.014908
24.598867
81.012057
155.5223
248.24238
359.0022
487.12372
631.18583
788.68492
955.37141
1124.5593
1287.021
1432.2685
1551.2998
1639.1995
1695.7973
1724.5219
1730.7658
1720.4392
1699.0275
1671.1403
1640.3643
1609.306
1579.8275
1553.2047
1530.259
1511.4523
1497.0905
1487.7598
1484.1182
11.408221
23.297685
35.926135
47.757995
58.670854
68.310733
76.275243
82.084618
85.191611
85.020618
81.044741
72.889127
60.503237
44.537606
26.864218
10.739491
0.18208401
-1.0075686
10.127038
35.576267
76.521614
133.59666
207.07838
296.93819
402.77
523.63224
657.85824
802.78159
954.3192
1106.6221
1252.2053
1382.9956
1492.1838
1575.8731
1633.549
1667.438
1681.4382
1680.0871
1667.8146
1648.52
1625.4053
1600.931
1576.9299
1554.7388
1535.2793
1519.1299
1506.6956
1498.5813
1495.4094
10.34455
21.516972
33.421232
44.564297
54.81045
63.835259
71.29264
76.795031
79.931996
80.311961
77.632145
71.775461
62.965144
52.0349
40.728449
31.72282
28.201262
33.226688
49.302418
78.226228
121.14449
178.69061
251.09549
338.21621
439.48189
553.78089
679.31566
813.40468
952.23715
1090.7326
1222.772
1342.0231
1443.2042
1523.1618
1581.2147
1618.7906
1638.7197
1644.4981
1639.7049
1627.6306
1611.0961
1592.3841
1573.2639
1555.0842
1538.8247
1525.1464
1514.5278
1507.5722
1504.8505
9.9414619
20.478148
31.673111
42.13384
51.744931
60.219226
67.266712
72.583271
75.874483
76.89709
75.521952
71.820227
66.192284
59.553456
53.498001
50.267724
52.450652
62.563894
82.735942
114.56437
159.11148
216.96628
288.30063
372.87943
470.01863
578.50461
696.48992
821.36364
949.6236
1076.8595
1198.013
1308.018
1402.6775
1479.3882
1537.399
1577.602
1602.0618
1613.487
1614.7788
1608.7157
1597.7732
1584.0414
1569.2068
1554.5988
1541.2243
1529.8014
1520.8641
1514.9986
1512.7048
9.3573618
19.36651
30.011179
39.960226
49.106813
57.19786
63.995357
69.269673
72.825238
74.539695
74.419545
72.673908
69.815594
66.784841
65.034358
66.477063
73.268073
87.515078
111.04155
145.25682
191.11992
249.15482
319.47069
401.75888
495.25935
598.70424
710.2484
827.39472
946.945
1065.0527
1177.4774
1280.08
1369.4442
1443.3783
1501.1116
1543.175
1571.0827
1586.9499
1593.1441
1592.0211
1585.7554
1576.2516
1565.1047
1553.6084
1542.7757
1533.3642
1525.9553
1521.1076
1519.222
8.935807
18.487788
28.652979
38.164417
46.927839
54.721745
61.353696
66.656779
70.51565
72.902707
73.926744
73.894444
73.386767
73.338674
75.078261
80.269323
90.748235
108.31374
134.54475
170.68416
217.58648
275.70488
345.08859
425.37108
515.74293
614.91364
721.07037
831.84471
944.3148
1055.0951
1160.5706
1257.2835
1342.3839
1413.9889
1471.3339
1514.7052
1545.2219
1564.5551
1574.6575
1577.5433
1575.1338
1569.166
1561.1427
1552.3152
1543.6874
1536.0417
1530.0074
1526.1192
1524.6379
8.549981
17.745311
27.542613
36.724603
45.206195
52.794239
59.335979
64.716974
68.886468
71.890417
73.91378
75.330995
76.762526
79.12457
83.641614
91.790054
105.17134
125.35213
153.71909
191.37517
239.07958
297.21841
365.7878
444.37677
532.14506
627.79884
729.57122
835.21872
942.05613
1047.0639
1147.0991
1239.202
1320.9335
1390.6406
1447.5757
1491.8594
1524.328
1546.3241
1559.483
1565.5489
1566.236
1563.1379
1557.6722
1551.0479
1544.2513
1538.0786
1533.2249
1530.2398
1529.185
8.1806936
17.10397
26.61934
35.553406
43.826784
51.271035
57.766182
63.239459
67.68978
71.218056
74.06419
76.648475
79.613184
83.852253
90.508283
100.91929
116.51585
138.69333
168.69175
207.50215
255.80357
313.92424
381.81631
459.03563
544.72346
637.59263
735.92395
837.58332
940.07673
1040.6649
1136.5524
1225.1382
1304.277
1372.484
1429.0313
1473.9289
1507.8145
1531.7929
1547.264
1555.7664
1558.8527
1558.001
1554.5589
1549.7017
1544.3986
1539.449
1535.629
1533.5803
1533.0896
7.8083685
16.605161
25.943258
34.716527
42.85211
50.205536
56.683846
62.246342
66.928676
70.871266
74.352095
77.821267
81.931978
87.557133
95.777485
107.83287
125.03519
148.6594
179.83965
219.48356
268.20831
326.29688
393.66788
469.85378
553.9856
644.78637
740.57869
839.31538
938.64628
1036.035
1128.9308
1214.9805
1292.2416
1359.3467
1415.5858
1460.8968
1495.7831
1521.1845
1538.3343
1548.6223
1553.4821
1554.3055
1552.3854
1548.8718
1544.7179
1540.6945
1537.6262
1536.4057
1536.6908
7.3050678
16.169602
25.427169
34.115462
42.170341
49.47179
55.94763
61.579336
66.426664
70.655074
74.56588
78.626261
83.49365
90.025215
99.261807
112.38329
130.62801
155.19228
187.13998
227.32326
276.3175
334.37484
401.39138
476.88469
559.98045
649.41063
743.52795
840.34478
937.60647
1032.908
1123.8543
1208.2484
1284.2749
1350.6414
1406.6508
1452.1982
1487.7032
1514.0017
1532.2199
1543.6512
1549.6512
1551.5519
1550.6059
1547.9489
1544.5282
1541.0595
1538.3628
1537.9321
1540.1252
6.0823638
15.837384
25.146172
33.826881
41.851073
49.130767
55.608003
61.276455
66.208183
70.581176
74.708496
79.066073
84.314208
91.3049
101.06379
114.73457
133.50793
158.54332
190.87468
231.3273
280.45565
338.49622
405.33362
480.47785
563.05207
651.79306
745.06929
840.92365
937.14985
1031.4086
1121.3821
1204.9504
1280.3609
1346.3586
1402.2538
1447.9212
1483.74
1510.4954
1529.2615
1541.2849
1547.8775
1550.3408
1549.9154
1547.7404
1544.773
1541.6885
1539.2725
1539.7954
1545.6376
-2227.7267
-2483.5866
-2699.4929
-2881.4282
-3023.9003
-3106.1317
-3108.1234
-3029.102
-2857.1515
-2663.8867
-3205.3751
-3205.2669
-3198.4257
-3187.4442
-3173.3354
-3160.5887
-3148.7547
-3158.2259
-3158.8213
-3131.4076
-3183.0248
-3181.9015
-3167.1499
-3150.1907
-3133.2805
-3124.2965
-3106.0085
-3113.2208
-3100.0846
-3046.5529
-3137.846
-3135.1838
-3126.5785
-3117.8805
-3109.084
-3112.0929
-3100.9987
-3098.9642
-3085.5644
-3048.7031
-3078.1452
-3076.7111
-3072.1661
-3066.246
-3057.7324
-3058.1119
-3057.7936
-3057.1316
-3055.6602
-3059.3995
-3030.1966
-3029.4047
-3023.6537
-3013.5065
-2998.2738
-2968.7071
-2990.8687
-3003.1573
-3009.7897
-3023.1259
-3013.4695
-3015.1626
-3018.4203
-3021.8147
-3032.7585
-3008.6615
-3008.3143
-3004.6635
-2989.7239
-2966.7182
-3027.9492
-3029.5751
-3035.6495
-3044.3267
-3068.3577
-3076.0887
-3056.7178
-3030.7085
-3000.8755
-2965.4726
-3848.4989
-3860.8144
-3831.7778
-3787.3694
-3749.8104
-3717.7458
-3696.2427
-3682.5165
-3673.5762
-3675.3175
-2986.9421
-2985.7521
-2977.8743
-2960.919
-2921.5416
-2946.9063
-2958.9131
-2961.1117
-2950.6346
-2923.5368
-3009.2298
-3012.3078
-3018.6755
-3037.9254
-3013.963
-3005.2389
-3001.286
-2993.8709
-2979.8833
-2964.7454
-3048.5138
-3050.9657
-3056.143
-3080.7342
-3093.5023
-3069.4267
-3042.6932
-3022.4086
-3003.5409
-2987.057
-2999.669
-2995.8405
-2976.9468
-2951.6649
-2974.6044
-2992.0878
-3003.3297
-3010.7525
-3013.0182
-3020.0381
-3033.3023
-3035.7664
-3034.9
-2997.9999
-3007.1369
-3020.7531
-3031.5555
-3038.7897
-3041.8392
-3051.4038
-3156.9946
-3164.7932
-3189.0312
-3187.5568
-3159.6463
-3131.8458
-3111.1438
-3095.7429
-3080.3179
-3063.0778
-3142.1038
-3137.2707
-3129.7856
-3149.9646
-3150.5548
-3144.7524
-3138.5184
-3133.0715
-3127.0621
-3128.9541
-3162.8937
-3162.1764
-3137.897
-3148.0439
-3159.4844
-3167.6127
-3172.0221
-3173.8141
-3173.0932
-3177.7843
-3277.2259
-3289.628
-3285.5873
-3271.246
-3255.9188
-3243.8716
-3235.1334
-3229.3327
-3222.5101
-3213.9426
-3282.5401
-3286.6064
-3294.0575
-3285.9891
-3276.3569
-3270.8644
-3270.6335
-3275.0757
-3280.1151
-3292.4144
-3186.3861
-3172.2749
-3189.6117
-3215.4898
-3244.9659
-3273.6661
-3300.6421
-3325.2156
-3345.3674
-3370.3301
-3326.1442
-3302.5243
-3312.1291
-3332.4328
-3359.1922
-3384.4365
-3406.8988
-3425.3272
-3437.8428
-3453.5545
-3701.7628
-3692.7451
-3662.043
-3627.9675
-3602.8837
-3583.3938
-3571.2997
-3564.1384
-3558.0206
-3555.1521
-3016.6569
-3015.1299
-3009.7061
-2998.0718
-2992.5631
-2999.8186
-2999.4699
-2994.1378
-2984.921
-2983.908
-3540.5002
-3549.0973
-3563.5325
-3610.817
-3666.9932
-3718.8208
-3739.8981
-3721.7513
-3638.0351
-3466.1723
-3268.7518
-3268.9855
-3271.933
-3276.7996
-3277.909
-3277.0114
-3275.0463
-3269.9101
-3265.7486
-3219.2647
-3179.467
-3227.498
-3289.6171
-3394.3217
-3505.6449
-3592.4638
-3635.0242
-3595.1393
-3446.9713
-3214.5323
-3480.2533
-3490.2962
-3511.2246
-3547.9201
-3581.5646
-3610.2185
-3618.7827
-3618.2808
-3582.4967
-3470.0979
-3367.3307
-3371.7207
-3385.8985
-3409.8543
-3430.8133
-3448.4676
-3456.5923
-3446.1712
-3433.5477
-3381.7879
11318.742
10715.568
10129.596
9489.96
8832.8664
8179.559
7545.1997
6936.8027
6347.3626
5770.3221
8301.8858
8224.5675
8101.2934
7839.6396
7501.7496
7111.3139
6689.6341
6254.5925
5816.4242
5360.0252
-3709.5163
-3727.9513
-3745.3646
-3751.3377
-3760.0328
-3763.3022
-3768.1017
-3771.5402
-3772.8671
-3776.3595
-3705.8799
-3709.7309
-3745.0785
-3776.3117
-3815.3741
-3842.5489
-3866.4781
-3882.5102
-3891.1592
-3895.3478
-3946.5623
-3939.3262
-3955.5536
-3963.1293
-3991.509
-4009.8887
-4029.7161
-4042.6928
-4048.1126
-4043.6628
-4222.472
-4212.1171
-4226.3857
-4216.9712
-4233.0418
-4234.9228
-4241.4451
-4242.4932
-4238.9207
-4234.5591
-4544.9276
-4526.7877
-4538.5325
-4511.4966
-4515.2817
-4497.4339
-4484.9749
-4464.947
-4437.2788
-4404.9172
-4901.1571
-4873.9348
-4883.5415
-4837.1194
-4828.6868
-4790.1968
-4757.365
-4713.9419
-4659.2714
-4599.0593
-5281.901
-5243.4506
-5252.0904
-5185.2723
-5165.7216
-5107.6318
-5056.2355
-4992.7654
-4916.509
-4831.1959
-5682.911
-5630.8359
-5639.6603
-5550.6384
-5519.8211
-5441.5921
-5370.9249
-5288.489
-5198.5139
-5115.9623
-6105.094
-6035.9716
-6045.8203
-5931.8253
-5888.3542
-5787.9445
-5693.5762
-5583.5467
-5458.2324
-5322.6307
-6548.5495
-6458.4617
-6470.8922
-6329.2466
-6271.992
-6149.1064
-6030.9426
-5896.8295
-5747.2223
-5585.4618
-7019.3897
-6902.2589
-6918.0226
-6744.5393
-6670.3926
-6522.801
-6376.8988
-6214.673
-6036.1804
-5850.3087
-7516.4879
-7366.2567
-7388.3739
-7179.934
-7085.7705
-6911.7093
-6733.9135
-6537.8302
-6319.2079
-6081.9266
-8058.162
-7863.4952