/*--------------------------------*- C++ -*----------------------------------*\
| =========                 |                                                 |
| \\      /  F ield         | foam-extend: Open Source CFD                    |
|  \\    /   O peration     | Version:     4.1                                |
|   \\  /    A nd           | Web:         http://www.foam-extend.org         |
|    \\/     M anipulation  |                                                 |
\*---------------------------------------------------------------------------*/
FoamFile
{
    version     2.0;
    format      ascii;
    class       volScalarField;
    location    "1.75";
    object      p;
}
// * * * * * * * * * * * * * * * * * * * * * * * * * * * * * * * * * * * * * //

dimensions      [0 2 -2 0 0 0 0];

internalField   nonuniform List<scalar> 
4393
(
-46.418271
-92.981804
-146.74659
-201.53767
-258.52845
-318.02963
-380.42415
-446.02157
-515.04614
-587.60801
-663.67514
-743.04511
-825.31981
-909.88665
-995.91039
-1082.3385
-1167.9204
-1251.2387
-1330.7464
-1404.8061
-1471.7265
-1529.7973
-1577.3239
-1612.6684
-1634.3033
-1640.8855
-1631.3606
-1605.1088
-1562.0232
-1502.604
-1428.0625
-1340.3042
-1241.8234
-1135.5207
-1024.4767
-911.72593
-800.06796
-691.93539
-589.32533
-493.78597
-406.44474
-328.06272
-259.10045
-199.78378
-150.17408
-110.24035
-79.763267
-57.832324
-43.628027
-45.166106
-92.395983
-146.03401
-200.67385
-257.49551
-316.84191
-379.10959
-444.6202
-513.60983
-586.20069
-662.37233
-741.93243
-824.48989
-909.43464
-995.92821
-1082.909
-1169.1129
-1253.106
-1333.3245
-1408.1151
-1475.7718
-1534.5696
-1582.7974
-1618.7955
-1641.0076
-1648.0569
-1638.8539
-1612.7038
-1569.4361
-1509.5442
-1434.2448
-1345.4786
-1245.8055
-1138.2118
-1025.868
-911.88881
-799.13373
-690.07205
-586.71531
-490.60834
-402.86286
-324.2174
-255.10987
-195.75329
-146.20053
-106.36025
-75.961608
-54.862673
-44.264502
-44.361867
-91.49923
-144.77572
-199.05479
-255.52563
-314.56078
-376.57893
-441.92398
-510.85517
-583.51839
-659.91605
-739.87543
-823.0188
-908.73992
-996.19239
-1084.2947
-1171.7532
-1257.0996
-1338.7353
-1414.9751
-1484.0844
-1544.3102
-1593.9091
-1631.1785
-1654.5013
-1662.4209
-1653.7591
-1627.7381
-1584.0957
-1523.2533
-1446.4222
-1355.6119
-1253.5194
-1143.3091
-1028.3381
-911.88388
-796.92629
-686.005
-581.15565
-483.91052
-395.34374
-316.14218
-246.68991
-187.15632
-137.55078
-97.687954
-67.257845
-46.70292
-37.920391
-43.571148
-90.203484
-142.87201
-196.57256
-252.49937
-311.0536
-372.68275
-437.76271
-506.5875
-579.33954
-656.05704
-736.59871
-820.60894
-907.48898
-996.3813
-1086.174
-1175.528
-1262.9213
-1346.7025
-1425.1388
-1496.4546
-1558.8584
-1610.5623
-1649.8029
-1674.875
-1684.1996
-1676.4524
-1650.7043
-1606.545
-1544.2895
-1465.1355
-1371.1992
-1265.394
-1151.1696
-1032.1788
-911.95607
-793.66714
-679.95749
-572.89549
-473.98962
-384.25275
-304.29103
-234.40474
-174.68803
-125.07525
-85.291422
-55.022234
-34.934284
-26.790159
-42.746014
-88.586062
-140.40161
-193.29785
-248.47664
-306.36997
-367.46083
-432.1666
-500.82793
-573.6771
-650.80215
-732.10634
-817.26634
-905.69539
-996.52121
-1088.5891
-1180.4947
-1270.6404
-1357.3007
-1438.6791
-1512.9483
-1578.2702
-1632.8044
-1674.7132
-1702.1783
-1713.459
-1707.0292
-1681.7391
-1636.953
-1572.8178
-1490.4977
-1392.2538
-1281.3117
-1161.5349
-1037.0027
-911.61335
-788.78901
-671.31378
-561.29027
-460.18303
-368.91163
-287.96547
-217.52584
-157.57768
-107.95369
-68.296629
-38.299776
-18.683416
-10.927007
-41.737436
-86.536874
-137.25305
-189.11399
-243.33038
-300.36943
-360.75689
-424.96192
-493.38478
-566.3229
-643.93069
-726.17229
-812.77021
-903.15683
-996.44221
-1091.4142
-1186.5794
-1280.2368
-1370.5625
-1455.6797
-1533.7004
-1602.7369
-1660.8936
-1706.2492
-1736.8502
-1750.7506
-1746.1565
-1721.6152
-1676.1691
-1609.7099
-1523.3302
-1419.4773
-1301.8089
-1174.7659
-1043.0179
-910.9547
-782.33323
-660.10551
-546.40009
-442.60523
-349.50312
-267.41966
-196.37228
-136.19511
-86.586743
-47.090468
-17.368719
1.895332
9.4341544
-40.595506
-84.127157
-133.49117
-184.07006
-237.08791
-293.05301
-352.54161
-416.08549
-484.15861
-557.14074
-635.27216
-718.59813
-806.90502
-899.65529
-995.93951
-1094.4704
-1193.635
-1291.594
-1386.3953
-1476.064
-1558.6463
-1632.2099
-1694.8103
-1744.4436
-1779.005
-1796.3013
-1794.1938
-1770.825
-1724.7865
-1655.5862
-1564.1763
-1453.2322
-1326.9989
-1190.7119
-1049.8414
-909.42599
-773.64352
-645.63665
-527.53715
-420.60873
-325.43855
-242.13259
-170.49419
-110.16498
-60.679842
-21.460711
7.9040972
26.823664
34.190928
-39.186003
-81.205536
-128.95642
-178.00158
-229.57701
-284.23731
-342.61688
-405.32133
-472.91373
-545.87575
-624.55665
-709.10812
-799.40452
-894.95491
-994.83042
-1097.6468
-1201.6306
-1304.7573
-1404.9088
-1499.9924
-1587.989
-1666.9349
-1734.8568
-1789.6813
-1829.1468
-1850.7726
-1851.9889
-1830.4104
-1784.0054
-1711.7092
-1614.2143
-1494.4633
-1357.4975
-1209.6432
-1057.4495
-906.79886
-762.38318
-627.54426
-504.37054
-393.92806
-296.53034
-211.99151
-139.84083
-79.481375
-30.25319
8.5656515
37.490153
56.043789
63.248545
-37.653444
-77.930922
-123.79685
-171.03283
-220.89021
-273.97549
-330.98874
-392.62109
-459.54166
-532.35655
-611.55198
-697.41828
-789.9511
-888.73183
-992.81693
-1100.6983
-1210.3874
-1319.6102
-1426.0329
-1527.423
-1621.7034
-1706.9072
-1781.0687
-1842.0771
-1887.5231
-1914.6051
-1920.2265
-1901.3234
-1855.0121
-1779.3762
-1674.6456
-1544.058
-1393.7394
-1231.5243
-1065.418
-902.39127
-747.74708
-605.01084
-476.14654
-361.91662
-262.25658
-176.59942
-104.13044
-43.963216
4.7913402
43.023667
71.374777
89.494103
96.516916
-35.74881
-74.004812
-117.69205
-162.83151
-210.68182
-261.90421
-317.27073
-377.56962
-443.59411
-516.10039
-595.74481
-682.99671
-778.01793
-880.50109
-989.5
-1103.3489
-1219.7671
-1336.1397
-1449.8471
-1558.4921
-1659.957
-1752.3186
-1833.6804
-1901.9528
-1954.6113
-1988.513
-1999.9354
-1984.9553
-1939.5404
-1860.5127
-1747.2974
-1603.4219
-1436.5076
-1256.501
-1073.383
-895.51886
-728.9136
-577.21786
-442.13793
-323.98099
-222.16731
-135.63954
-63.159562
-3.4980749
44.49654
81.904372
109.50748
127.08889
133.8926
-33.798629
-69.806225
-111.02786
-153.76789
-199.29478
-248.32729
-301.71452
-360.3525
-425.1774
-497.12411
-577.05827
-665.67863
-763.37421
-870.00863
-984.66023
-1105.4662
-1229.7463
-1354.4137
-1476.4674
-1593.3173
-1702.8402
-1803.2313
-1892.7563
-1969.4401
-2030.7077
-2073.0756
-2092.1039
-2082.7929
-2039.5858
-1957.4488
-1834.4243
-1674.2475
-1486.6344
-1284.5444
-1080.6576
-885.11614
-704.69071
-543.02752
-401.36511
-279.34227
-175.68592
-88.716601
-16.683865
42.039454
88.898449
125.17877
151.81126
168.71717
175.24993
-31.322723
-64.748337
-103.16395
-143.16707
-186.0179
-232.49042
-283.51343
-340.10044
-403.35026
-474.40913
-554.39865
-644.30973
-744.84103
-856.11859
-977.29918
-1106.2778
-1239.8197
-1374.1695
-1505.8015
-1631.8965
-1750.3826
-1859.6802
-1958.3491
-2044.6714
-2116.1357
-2168.9574
-2197.92
-2196.6909
-2157.7327
-2073.3255
-1939.1484
-1758.8897
-1545.2551
-1315.6018
-1086.3278
-869.81861
-673.60691
-501.08701
-352.70793
-227.14601
-122.20862
-35.439793
35.518273
92.742939
137.99737
172.78081
198.17302
214.23501
220.43254
-28.935347
-59.574998
-94.898043
-131.84684
-171.67521
-215.21018
-263.45968
-317.5607
-378.79207
-448.54484
-528.24829
-619.25856
-722.68952
-839.06436
-967.71683
-1106.2533
-1250.6596
-1396.2154
-1538.6635
-1674.922
-1803.0779
-1921.9453
-2030.5694
-2127.6999
-2211.0801
-2276.7106
-2318.5367
-2328.6706
-2297.0938
-2212.1923
-2065.6521
-1860.4853
-1613.7495
-1349.407
-1089.0112
-847.73849
-633.73479
-449.70521
-294.82737
-166.41703
-61.081507
24.585922
93.645749
148.66928
191.75101
224.60057
248.43734
263.459
269.24619
-25.834178
-53.293397
-85.133297
-118.63354
-155.00881
-195.1276
-240.0711
-291.1019
-349.69467
-417.52243
-496.38352
-588.08845
-694.30536
-816.16077
-953.3535
-1103.1788
-1260.522
-1419.2472
-1574.0533
-1721.5574
-1860.1746
-1989.3363
-2108.797
-2218.04
-2315.3462
-2396.6701
-2455.0971
-2481.0201
-2461.4977
-2379.4191
-2219.7582
-1983.4126
-1693.8849
-1385.4101
-1086.7046
-816.33265
-582.61621
-386.83342
-226.1837
-96.095888
8.3585888
91.722655
157.84466
209.81608
250.05833
280.47302
302.39849
316.15957
321.45236
-22.988267
-47.105593
-75.194216
-104.93103
-137.49254
-173.77997
-214.93907
-262.3545
-317.70632
-382.98376
-460.41861
-552.37012
-661.22091
-788.988
-936.05541
-1099.4242
-1272.3862
-1446.6589
-1615.3977
-1774.8821
-1924.1582
-2063.6286
-2194.0747
-2316.1134
-2429.0548
-2529.1508
-2608.6686
-2656.1734
-2655.5155
-2582.0935
-2409.6776
-2133.8911
-1787.8784
-1422.5329
-1076.4503
-772.13846
-517.10653
-310.0024
-145.03285
-15.064629
86.748881
166.26559
228.17995
276.09997
312.74387
340.1672
359.79279
372.05517
376.76301
-19.233997
-39.566111
-63.483949
-89.028632
-117.28548
-149.16093
-185.84177
-228.81604
-279.96336
-341.61496
-416.50495
-507.6454
-618.31836
-751.84294
-909.86992
-1089.2875
-1281.1052
-1473.7726
-1658.1739
-1830.2917
-1990.374
-2140.3276
-2282.2798
-2418.3713
-2549.5399
-2672.7616
-2779.4823
-2856.4148
-2884.4363
-2829.5604
-2647.2462
-2321.0872
-1898.5227
-1458.8318
-1053.8858
-710.45806
-433.22539
-216.29702
-49.466989
77.789609
174.63815
248.39171
304.59736
347.33016
379.5403
403.37508
420.29166
430.80753
434.83658
-15.909553
-32.367227
-51.889416
-72.946111
-96.528049
-123.52993
-155.16109
-192.99617
-239.10677
-296.19284
-367.57398
-457.03011
-568.92181
-708.39598
-879.34026
-1079.0098
-1295.0591
-1510.7437
-1713.4128
-1898.7626
-2069.1471
-2228.6986
-2381.1217
-2530.4774
-2680.3857
-2829.6039
-2969.1767
-3084.3381
-3154.0989
-3134.0111
-2949.9601
-2559.1608
-2029.2978
-1490.9056
-1012.5346
-624.92466
-325.99164
-102.36342
62.502538
183.47657
272.40177
338.09599
386.87967
423.18035
450.07136
469.70184
483.49629
492.01876
495.27604
-11.483925
-23.591243
-38.294664
-54.438623
-72.848082
-94.363179
-120.16993
-151.87511
-191.68068
-242.61946
-308.63689
-394.36263
-505.33315
-649.10813
-833.41847
-1057.1182
-1303.0126
-1546.0299
-1768.1208
-1964.9809
-2142.9743
-2309.8848
-2471.308
-2633.6118
-2804.7355
-2986.7701
-3170.348
-3338.4983
-3469.9067
-3511.2591
-3344.1367
-2870.7984
-2184.1433
-1512.8701
-942.74517
-506.96179
-189.29473
35.498569
192.78349
302.75053
380.12566
435.11292
474.59763
503.16006
523.83635
538.65826
548.93475
555.23087
557.62919
-7.5459464
-15.399245
-25.214334
-36.272591
-49.208255
-64.768053
-84.068923
-108.69886
-140.93292
-184.11084
-242.90333
-322.98251
-431.14918
-577.96569
-777.58731
-1033.2898
-1320.8803
-1601.2875
-1847.8979
-2056.6837
-2241.3071
-2415.2342
-2585.4242
-2759.525
-2951.4775
-3168.7938
-3401.8414
-3630.6653
-3839.9341
-3979.4506
-3868.022
-3294.1303
-2367.8699
-1515.4535
-830.29341
-345.15977
-15.872081
201.09507
342.92636
435.8903
497.45817
538.82661
567.05985
586.58911
600.1988
609.65729
616.06256
619.92841
621.39201
-2.494053
-5.6553998
-10.105281
-15.573805
-22.444963
-31.342361
-43.273842
-59.749383
-83.013032
-116.56757
-165.7562
-237.3643
-339.18044
-484.64173
-697.71909
-992.03954
-1333.7674
-1659.6115
-1930.103
-2142.1466
-2323.1199
-2495.6058
-2666.793
-2843.1722
-3048.9948
-3303.174
-3599.0876
-3914.1976
-4241.4071
-4553.2176
-4583.0235
-3903.4784
-2589.3113
-1483.2203
-653.43099
-124.3484
202.50729
397.84709
513.68343
582.39881
623.43321
648.17729
663.26849
672.57995
678.38234
682.01634
684.26793
685.54477
686.01532
2.9587933
3.9729998
4.5462783
4.3727951
3.3873618
1.1547077
-3.1201318
-10.724024
-23.652325
-45.261192
-81.374416
-140.13092
-230.27344
-367.38846
-589.87777
-934.91058
-1357.8538
-1750.6934
-2054.89
-2266.9251
-2439.8807
-2611.559
-2788.5988
-2969.4139
-3193.9262
-3500.0127
-3883.2973
-4313.0922
-4763.9033
-5291.5202
-5573.8103
-4825.3578
-2837.302
-1376.242
-376.92582
174.9084
474.14908
627.83438
704.34005
740.62127
756.28032
761.57918
761.89118
760.03428
757.47736
754.96729
752.88228
751.47257
750.91504
8.2851196
13.26534
19.323557
25.158015
31.020709
36.677942
41.595194
44.763162
44.510482
37.799878
18.45214
-23.539169
-98.146772
-220.10647
-443.94206
-853.46432
-1397.2821
-1876.4149
-2210.7431
-2392.8795
-2530.4286
-2685.6836
-2862.7828
-3027.8151
-3238.6402
-3573.5317
-4023.7139
-4561.7461
-5089.7118
-5960.361
-6823.7182
-6299.5146
-3074.0129
-1170.9515
36.506675
572.65489
805.01202
890.17362
911.79909
907.31722
893.25925
876.87536
861.26377
847.66121
836.46177
827.67549
821.19681
817.07822
815.48591
17.84115
25.85973
36.761787
47.719813
59.416719
71.801477
84.63165
97.258597
108.52241
116.23589
114.96658
93.715438
41.620053
-49.538333
-244.67545
-715.15138
-1441.8801
-2033.6101
-2413.3731
-2545.7124
-2643.0183
-2787.1992
-2982.1462
-3113.6799
-3276.6776
-3677.6989
-4224.3715
-4961.7034
-5679.3056
-7242.854
-8882.0926
-9068.3528
-3578.1298
-1038.2195
635.19321
1099.0921
1197.3509
1178.9795
1129.5274
1077.2885
1030.5876
991.36663
959.44123
934.0244
914.2386
899.26865
888.48483
881.72031
879.11834
22.150593
30.895278
46.136803
62.238312
80.171655
100.10841
122.29227
146.74799
173.26305
201.23861
227.41519
240.7147
225.96333
180.34563
45.408696
-483.28445
-1555.1589
-2311.4994
-2773.6625
-2771.0091
-2749.6659
-2813.1453
-3022.6411
-3099.9059
-3207.1638
-3763.2635
-4232.9947
-5185.2221
-6470.8433
-7863.4477
-9589.1442
-12103.54
-4823.2658
-72.514973
1722.8307
1811.9827
1641.1422
1478.7601
1346.2296
1243.2034
1163.5572
1101.9565
1054.3114
1017.6217
989.69041
968.87446
954.02886
944.77066
941.21737
36.937098
46.533279
66.46017
87.314107
110.74819
137.07757
166.90676
200.72103
238.86229
281.66285
327.57479
365.35516
371.82674
347.26643
293.74171
-191.10964
-1818.0784
-2617.1352
-3115.4963
-2772.758
-2626.8085
-2732.5431
-3131.7561
-3271.1278
-3302.434
0
0
0
0
0
0
0
0
6202.3752
3402.4562
2582.4954
2068.2385
1755.8594
1545.1252
1396.0884
1287.0014
1205.455
1143.7778
1096.9951
1061.7469
1035.6641
1017.1505
1005.6369
1001.2225
35.366761
42.182786
64.028486
87.075184
113.20505
142.73988
176.57948
215.67679
261.075
314.42481
377.59041
445.98957
502.79987
560.82607
710.68097
552.80415
-1996.7856
-2776.9628
-3646.9056
-2968.6377
-3044.3364
-3012.3248
0
0
0
0
0
0
0
0
0
0
10129.574
6286.2537
4123.9548
3000.3243
2361.3129
1969.1781
1709.0492
1527.5632
1396.2859
1299.0427
1225.9924
1170.8554
1129.457
1098.8967
1077.2397
1063.784
1058.6265
44.263805
54.950295
80.950117
106.9777
136.15454
169.03621
206.87593
251.10443
303.50641
367.08068
447.11687
546.08882
653.2891
754.39159
842.19609
568.47307
-3108.2259
-3581.5989
-3205.2811
0
0
0
0
0
0
0
0
0
0
0
1780.6718
3364.5943
5756.1164
5236.0896
3961.3823
3100.1684
2507.143
2107.7401
1830.6543
1632.992
1488.4298
1380.7309
1299.5697
1238.1936
1192.0514
1157.9576
1133.7807
1118.7536
1112.9925
22.191624
42.166367
66.371074
91.285018
118.75253
149.54746
184.74349
225.50561
273.13275
329.83012
399.50022
478.02757
537.53057
536.24808
558.10739
702.3864
0
0
0
0
0
0
-1132.0677
-1103.5233
-1011.3055
-917.55609
-790.08492
-495.29878
-94.947227
697.0839
2026.4398
3361.9106
4750.9873
4489.8576
3714.8021
3058.6866
2552.6654
2182.2203
1911.4456
1711.6615
1562.3547
1449.532
1363.6924
1298.345
1248.9834
1212.3854
1186.3704
1170.1779
1163.9662
19.954009
50.022202
74.970546
100.54392
127.96176
158.05699
191.47995
228.66526
269.57233
313.4183
357.89999
396.5625
406.14931
338.09213
142.01816
-338.13524
-1284.417
-1227.4744
-1147.1014
-1100.4782
-1051.0812
-1021.6127
-1010.364
-803.28915
-838.68207
-583.18161
-362.34493
-204.61724
259.08289
904.85464
1960.2927
3049.3233
3956.5654
3851.8967
3404.298
2933.5971
2528.4617
2206.0156
1956.704
1765.4224
1618.5288
1505.3808
1418.1054
1351.0013
1299.9423
1261.8833
1234.7284
1217.7885
1211.2839
20.66334
46.485445
72.120326
97.971886
125.28655
154.81537
187.13943
222.62531
261.25946
302.13444
342.03524
373.73576
384.81887
353.15856
205.21596
-227.92204
-792.30489
-920.95876
-962.54782
-966.15059
-887.80268
-842.32014
-818.54936
-691.8
-620.94359
-417.54024
-179.14323
77.742994
510.88701
1096.4663
1896.1868
2721.5882
3334.8855
3356.8267
3105.6568
2777.1431
2463.3574
2193.8101
1973.5974
1797.6786
1658.5138
1548.9431
1463.0388
1396.1804
1344.8435
1306.3177
1278.6979
1261.4185
1254.7757
14.996594
36.230624
58.797049
81.291123
104.29099
128.03571
152.53077
177.4163
201.79034
223.68947
238.89713
240.18132
218.24915
159.21469
15.07537
-283.91185
-606.90299
-732.46441
-784.51827
-794.28623
-753.12505
-703.474
-642.23484
-537.76201
-423.88628
-238.24306
-11.498499
269.88389
668.60851
1187.7222
1823.2423
2450.8965
2889.5205
2967.0587
2834.9721
2613.0011
2376.1815
2157.6762
1969.1884
1812.3856
1684.4722
1581.3762
1499.091
1434.1697
1383.8
1345.7039
1318.2394
1300.9995
1294.3627
23.83837
46.444919
70.189931
93.656251
117.54438
141.96121
166.72624
191.21079
214.0961
232.81547
242.68464
236.67022
205.989
135.39784
-7.259102
-236.5508
-460.15451
-579.80557
-635.383
-644.5407
-615.83445
-568.29256
-497.28092
-394.45988
-264.34901
-82.93281
139.16109
416.11353
777.02666
1223.7721
1735.5102
2221.7455
2557.2301
2658.5602
2599.6227
2454.8463
2280.1779
2107.1228
1949.7497
1813.4689
1698.7942
1604.1109
1527.1062
1465.4576
1417.0851
1380.1846
1353.4179
1336.5534
1330.0512
12.024207
29.927732
50.032249
70.035843
90.041169
109.92745
129.38643
147.74724
163.76111
175.18308
178.31603
168.06188
137.63882
74.654565
-40.054919
-203.50748
-358.80701
-456.74733
-506.07885
-514.23344
-488.92993
-440.00547
-365.68914
-262.60077
-128.53846
46.964255
261.85454
525.19102
849.67436
1232.3374
1648.6363
2032.8058
2301.9489
2411.5832
2398.1277
2308.5355
2183.1595
2048.951
1920.3868
1804.4654
1703.8311
1618.6751
1548.0641
1490.6662
1445.0904
1410.0051
1384.3869
1368.1814
1361.9233
21.407265
40.632454
60.854151
80.367819
99.453728
117.84365
135.02389
150.10202
161.6293
167.324
163.94576
147.54886
113.08134
52.273846
-43.556757
-165.61515
-279.00321
-356.12461
-395.68986
-400.45657
-375.18731
-324.72548
-248.67397
-145.28262
-11.774143
156.79248
361.05917
606.022
895.95181
1224.416
1567.8664
1878.5076
2101.9971
2212.1876
2227.1466
2176.7607
2089.8437
1988.0677
1885.0999
1788.3898
1701.7412
1626.5697
1562.9908
1510.491
1468.2866
1435.4859
1411.3699
1396.0508
1390.1249
11.864146
27.968682
45.959807
63.611714
80.820655
97.232116
112.3169
125.22233
134.61744
138.50997
134.22516
118.55935
87.502518
35.67985
-40.00211
-130.43162
-213.52466
-271.83058
-300.8489
-300.62637
-273.46192
-221.63378
-145.03186
-42.511069
87.994251
248.90864
441.01376
666.30048
924.57419
1207.7344
1495.177
1752.1624
1942.6282
2049.7639
2082.4753
2059.9382
2002.6782
1927.6336
1846.8494
1767.6916
1694.4093
1629.1883
1572.8939
1525.6524
1487.1885
1456.9988
1434.6431
1420.3806
1414.8538
17.140363
33.237347
50.22006
66.364863
81.714453
95.886902
108.32947
118.2224
124.38354
125.1859
118.61252
102.36267
73.691236
29.625584
-29.98875
-97.382049
-158.13638
-200.46201
-219.38479
-213.53429
-183.55764
-130.3431
-53.764243
46.960367
173.10556
325.77664
505.17497
711.24638
941.41832
1187.1582
1431.2313
1648.3114
1813.9322
1916.4939
1960.2187
1957.4979
1922.9611
1869.6952
1807.8367
1744.3105
1683.4266
1627.7751
1578.7191
1536.8593
1502.3257
1474.9439
1454.5175
1441.4278
1436.3464
11.965883
26.365745
42.104249
57.216692
71.535883
84.633916
95.955703
104.72803
109.89868
110.11372
103.80224
89.276847
64.758436
28.907447
-17.019548
-66.703579
-110.24997
-139.22875
-148.99441
-137.55121
-104.54772
-50.079516
26.068004
124.39886
245.5459
389.78548
556.64732
744.78765
950.46871
1165.4734
1375.7035
1562.5376
1708.9273
1806.4499
1856.8891
1868.2991
1851.1311
1815.4435
1769.5686
1719.7249
1670.0959
1623.4069
1581.325
1544.7831
1514.221
1489.7315
1471.3239
1459.4742
1454.8659
13.672527
27.359608
41.871722
55.550847
68.31585
79.771345
89.415633
96.581351
100.40739
99.849168
93.763764
81.007332
60.559668
32.098544
-2.5893214
-38.476521
-68.501621
-86.40758
-88.109925
-71.431142
-35.489496
20.054133
95.47943
191.07382
307.00131
442.97354
597.963
769.86573
954.48574
1144.3019
1327.897
1491.4046
1622.6062
1715.1567
1769.5578
1791.0637
1787.1665
1765.5772
1733.0733
1695.058
1655.4635
1616.9945
1581.471
1550.0422
1523.3734
1501.7674
1485.4
1474.8151
1470.6913
11.353755
24.027865
37.645176
50.500651
62.432494
73.046938
81.88022
88.352214
91.760886
91.312825
86.206239
75.732855
59.446108
37.651121
12.276082
-12.652344
-31.896817
-40.64506
-35.404981
-14.037752
24.575539
80.988428
155.49853
248.21859
358.9785
487.10021
631.16259
788.66204
955.349
1124.5374
1286.9999
1432.2482
1551.2804
1639.181
1695.7797
1724.5053
1730.7501
1720.4243
1699.0134
1671.1269
1640.3515
1609.2937
1579.8156
1553.1933
1530.2479
1511.4414
1497.0799
1487.7493
1484.1077
11.407421
23.296027
35.923526
47.754426
58.666301
68.305166
76.268623
82.076897
85.182736
85.010529
81.033381
72.876438
60.489162
44.522103
26.84728
10.72117
0.16250045
-1.0282438
10.105467
35.554002
76.498844
133.57356
207.05509
296.91486
402.74673
523.60913
657.83539
802.75909
954.29714
1106.6006
1252.1844
1382.9755
1492.1645
1575.8547
1633.5315
1667.4214
1681.4224
1680.0721
1667.8003
1648.5064
1625.3922
1600.9185
1576.9178
1554.727
1535.2679
1519.1187
1506.6846
1498.5704
1495.3986
10.343706
21.515241
33.418526
44.560613
54.805768
63.829554
71.285879
76.787175
79.922999
80.301776
77.620725
71.762764
62.95113
52.019543
40.711753
31.704837
28.182094
33.206482
49.281343
78.204461
121.12221
178.66797
251.07264
338.19329
439.45901
553.75815
679.29316
813.38251
952.2154
1090.7114
1222.7514
1342.0032
1443.1851
1523.1435
1581.1972
1618.7739
1638.7038
1644.4829
1639.6904
1627.6167
1611.0829
1592.3713
1573.2515
1555.0722
1538.813
1525.135
1514.5165
1507.5611
1504.8394
9.9406147
20.476388
31.670352
42.130082
51.740157
60.213418
67.259843
72.575309
75.865393
76.886836
75.510497
71.807538
66.178335
59.538233
53.481518
50.25003
52.431837
62.544085
82.715289
114.54303
159.08961
216.94404
288.27816
372.85687
469.99609
578.4822
696.46772
821.34176
949.60213
1076.8386
1197.9926
1307.9983
1402.6585
1479.37
1537.3815
1577.5852
1602.0459
1613.4717
1614.7642
1608.7017
1597.7597
1584.0284
1569.1943
1554.5866
1541.2124
1529.7897
1520.8526
1514.9873
1512.6935
9.3564967
19.364712
30.008363
39.956396
49.101957
57.191963
63.988397
69.261626
72.816076
74.529389
74.408069
72.661237
69.801711
66.769741
65.018059
66.459613
73.249555
87.495604
111.02125
145.23584
191.09841
249.13293
319.44856
401.73663
495.2371
598.68211
710.22647
827.3731
946.92376
1065.032
1177.4572
1280.0604
1369.4252
1443.3601
1501.0942
1543.1583
1571.0667
1586.9346
1593.1294
1592.007
1585.7418
1576.2384
1565.092
1553.596
1542.7636
1533.3524
1525.9436
1521.096
1519.2105
8.9349345
18.485965
28.650122
38.160532
46.922918
54.715776
61.346664
66.648665
70.506431
72.892363
73.915255
73.881794
73.372945
73.323681
75.062118
80.252078
90.729963
108.29454
134.52474
170.66348
217.56527
275.68328
345.06673
425.3491
515.72094
614.89175
721.04868
831.82331
944.29377
1055.0745
1160.5506
1257.2641
1342.3651
1413.9707
1471.3164
1514.6885
1545.2058
1564.5397
1574.6427
1577.5291
1575.1201
1569.1527
1561.1298
1552.3026
1543.6752
1536.0297
1529.9956
1526.1075
1524.6262
8.5490997
17.743466
27.539721
36.720672
45.20122
52.788212
59.328889
64.708806
68.877206
71.880046
73.902284
75.318365
76.748757
79.109668
83.625602
91.772976
105.15327
125.33315
153.69933
191.35474
239.05862
297.19705
365.76617
444.35501
532.12328
627.77715
729.54971
835.19749
942.03526
1047.0435
1147.0792
1239.1826
1320.9148
1390.6225
1447.5583
1491.8426
1524.3119
1546.3086
1559.4681
1565.5345
1566.2222
1563.1245
1557.6592
1551.0353
1544.2389
1538.0665
1533.213
1530.228
1529.1732
8.1798066
17.102108
26.616422
35.549441
43.821769
51.264965
57.759049
63.231252
67.680487
71.207666
74.052694
76.635865
79.599459
83.837422
90.492372
100.90234
116.49793
138.67453
168.67217
207.48192
255.7828
313.90307
381.79487
459.01404
544.70185
637.5711
735.90259
837.56224
940.056
1040.6446
1136.5326
1225.1189
1304.2584
1372.466
1429.0139
1473.9121
1507.7983
1531.7773
1547.2491
1555.752
1558.8387
1557.9875
1554.5458
1549.6889
1544.3861
1539.4367
1535.6169
1533.5683
1533.0777
7.8074774
16.603286
25.940321
34.712537
42.847065
50.199435
56.676681
62.238106
66.91936
70.860862
74.340597
77.808671
81.918285
87.542355
95.761648
107.81602
125.01738
148.64073
179.82021
219.46346
268.18768
326.27585
393.64658
469.83233
553.96411
644.76496
740.55745
839.2944
938.62565
1036.0148
1128.911
1214.9613
1292.223
1359.3287
1415.5684
1460.8801
1495.7669
1521.169
1538.3193
1548.6078
1553.4681
1554.2919
1552.3722
1548.8589
1544.7054
1540.6822
1537.614
1536.3936
1536.6788
7.3041724
16.167719
25.424219
34.111456
42.165279
49.46567
55.940447
61.571085
66.417337
70.644665
74.554384
78.613677
83.479982
90.010474
99.246022
112.3665
130.61028
155.1737
187.12063
227.30326
276.29697
334.35391
401.37017
476.86332
559.95905
649.38929
743.50678
840.32387
937.58589
1032.8878
1123.8346
1208.2292
1284.2563
1350.6234
1406.6334
1452.1814
1487.687
1513.9861
1532.2048
1543.6367
1549.6371
1551.5382
1550.5926
1547.936
1544.5155
1541.0471
1538.3506
1537.9199
1540.1131
6.081472
15.835502
25.143218
33.822869
41.846004
49.124639
55.600813
61.268197
66.198851
70.570764
74.697001
79.053492
84.300547
91.290171
101.04801
114.7178
133.49024
158.52477
190.85538
231.30734
280.43517
338.47534
405.31246
480.45653
563.03071
651.77177
745.04816
840.90278
937.12931
1031.3885
1121.3625
1204.9313
1280.3423
1346.3406
1402.2364
1447.9044
1483.7238
1510.4798
1529.2465
1541.2703
1547.8634
1550.3271
1549.9021
1547.7275
1544.7604
1541.676
1539.2603
1539.7833
1545.6255
-2227.7593
-2483.6258
-2699.5397
-2881.4843
-3023.968
-3106.2151
-3108.2259
-3029.2217
-2857.279
-2664.0037
-3205.3891
-3205.2811
-3198.4356
-3187.4487
-3173.3344
-3160.5816
-3148.7459
-3158.2126
-3158.8147
-3131.4103
-3183.0315
-3181.907
-3167.1526
-3150.1894
-3133.2743
-3124.2835
-3105.9909
-3113.2079
-3100.0763
-3046.5502
-3137.8421
-3135.18
-3126.5768
-3117.8811
-3109.0876
-3112.0998
-3101.0042
-3098.9715
-3085.5702
-3048.7083
-3078.15
-3076.7154
-3072.1699
-3066.2525
-3057.747
-3058.147
-3057.8127
-3057.1425
-3055.664
-3059.4009
-3030.1693
-3029.377
-3023.6162
-3013.455
-2998.2001
-2968.6377
-2990.8018
-3003.1026
-3009.7482
-3023.097
-3013.4131
-3015.1072
-3018.3589
-3021.7461
-3032.6628
-3008.5369
-3008.2149
-3004.5876
-2989.6695
-2966.6814
-3027.9234
-3029.5542
-3035.6401
-3044.3364
-3068.3864
-3076.1029
-3056.7218
-3030.7043
-3000.8674
-2965.4635
-3848.4528
-3860.7652
-3831.7264
-3787.3168
-3749.757
-3717.6918
-3696.1885
-3682.4623
-3673.5224
-3675.2645
-2986.9817
-2985.7896
-2977.9086
-2960.9536
-2921.5854
-2946.9463
-2958.9511
-2961.1438
-2950.658
-2923.551
-3009.2484
-3012.3248
-3018.6881
-3037.9315
-3013.9714
-3005.2509
-3001.2993
-2993.8837
-2979.8936
-2964.7519
-3048.5069
-3050.9595
-3056.1374
-3080.7266
-3093.4963
-3069.4241
-3042.6921
-3022.4076
-3003.5387
-2987.053
-2999.6597
-2995.8311
-2976.9422
-2951.6612
-2974.5982
-2992.0792
-3003.3183
-3010.7382
-3013.0013
-3020.0187
-3033.2654
-3035.7258
-3034.8623
-2997.9711
-3007.1044
-3020.7172
-3031.5174
-3038.7505
-3041.7999
-3051.3646
-3156.8904
-3164.6844
-3188.9177
-3187.4469
-3159.5472
-3131.7561
-3111.0626
-3095.6698
-3080.2523
-3063.0195
-3141.9782
-3137.1435
-3129.6599
-3149.831
-3150.4249
-3144.6321
-3138.4096
-3132.9746
-3126.9765
-3128.8788
-3162.7558
-3162.0351
-3137.7507
-3147.9048
-3159.3505
-3167.4865
-3171.9067
-3173.7104
-3173.0009
-3177.7023
-3277.1164
-3289.5197
-3285.469
-3271.1278
-3255.806
-3243.7651
-3235.0336
-3229.24
-3222.4246
-3213.8642
-3282.489
-3286.5605
-3294.0151
-3285.9372
-3276.2941
-3270.7941
-3270.559
-3275.0001
-3280.0408
-3292.3433
-3186.325
-3172.215
-3189.5514
-3215.4283
-3244.9017
-3273.5986
-3300.5725
-3325.1454
-3345.2982
-3370.2634
-3326.0532
-3302.434
-3312.0415
-3332.3491
-3359.1126
-3384.3605
-3406.826
-3425.2573
-3437.7757
-3453.4905
-3701.6749
-3692.6556
-3661.9568
-3627.8858
-3602.8069
-3583.3216
-3571.2316
-3564.0736
-3557.9586
-3555.0926
-3016.6789
-3015.1533
-3009.7382
-2998.1199
-2992.6339
-2999.8928
-2999.5299
-2994.1794
-2984.9471
-2983.9234
-3540.5382
-3549.135
-3563.5694
-3610.8533
-3667.0289
-3718.8604
-3739.9427
-3721.8036
-3638.1029
-3466.2533
-3268.7587
-3268.9936
-3271.943
-3276.8111
-3277.9219
-3277.0258
-3275.0644
-3269.9198
-3265.7621
-3219.285
-3179.5262
-3227.5523
-3289.6669
-3394.37
-3505.6954
-3592.521
-3635.0767
-3595.2074
-3447.064
-3214.6352
-3480.277
-3490.3206
-3511.2513
-3547.9506
-3581.5989
-3610.2585
-3618.8296
-3618.3248
-3582.5467
-3470.1576
-3367.3454
-3371.7354
-3385.915
-3409.8732
-3430.8341
-3448.49
-3456.6156
-3446.1967
-3433.579
-3381.8275
11318.722
10715.546
10129.574
9489.9391
8832.846
8179.539
7545.1803
6936.7837
6347.344
5770.3041
8301.8483
8224.5314
8101.2595
7839.6074
7501.7191
7111.2848
6689.6065
6254.5661
5816.399
5360.001
-3709.5008
-3727.9364
-3745.3441
-3751.3105
-3759.9992
-3763.2635
-3768.059
-3771.4948
-3772.82
-3776.3117
-3705.852
-3709.7032
-3745.0495
-3776.2802
-3815.3392
-3842.5109
-3866.4372
-3882.4673
-3891.1148
-3895.3026
-3946.5155
-3939.2801
-3955.509
-3963.086
-3991.4659
-4009.8457
-4029.6726
-4042.6489
-4048.0682
-4043.6183
-4222.4232
-4212.0683
-4226.3372
-4216.9236
-4232.9947
-4234.8766
-4241.3993
-4242.4479
-4238.8759
-4234.5148
-4544.8768
-4526.7371
-4538.4822
-4511.4471
-4515.2329
-4497.386
-4484.9279
-4464.9008
-4437.2334
-4404.8727
-4901.1055
-4873.8834
-4883.4904
-4837.0692
-4828.6372
-4790.1483
-4757.3174
-4713.8953
-4659.2257
-4599.0147
-5281.8496
-5243.3993
-5252.0394
-5185.2221
-5165.6719
-5107.5832
-5056.1878
-4992.7188
-4916.4635
-4831.1515
-5682.8602
-5630.7851
-5639.6099
-5550.5887
-5519.7719
-5441.5439
-5370.8776
-5288.4427
-5198.4687
-5115.9183
-6105.0441
-6035.9215
-6045.7706
-5931.7763
-5888.3057
-5787.8969
-5693.5294
-5583.5009
-5458.1877
-5322.5872
-6548.5004
-6458.4125
-6470.8433
-6329.1984
-6271.9442
-6149.0594
-6030.8964
-5896.7843
-5747.1782
-5585.4189
-7019.3414
-6902.2104
-6917.9745
-6744.4917
-6670.3455
-6522.7546
-6376.8533
-6214.6284
-6036.1369
-5850.2663
-7516.4403
-7366.2089
-7388.3263
-7179.887
-7085.7239
-6911.6635
-6733.8685
-6537.7861
-6319.165
-6081.8848