/*--------------------------------*- C++ -*----------------------------------*\
| =========                 |                                                 |
| \\      /  F ield         | foam-extend: Open Source CFD                    |
|  \\    /   O peration     | Version:     4.1                                |
|   \\  /    A nd           | Web:         http://www.foam-extend.org         |
|    \\/     M anipulation  |                                                 |
\*---------------------------------------------------------------------------*/
FoamFile
{
    version     2.0;
    format      ascii;
    class       volScalarField;
    location    "1.75";
    object      rAU;
}
// * * * * * * * * * * * * * * * * * * * * * * * * * * * * * * * * * * * * * //

dimensions      [0 0 1 0 0 0 0];

internalField   nonuniform List<scalar> 
4393
(
0.00022764404
0.00022727024
0.0002269042
0.00022653032
0.00022614649
0.00022575127
0.0002253423
0.00022491837
0.00022447865
0.00022402293
0.00022355182
0.00022306681
0.00022257041
0.00022206617
0.00022155845
0.00022105339
0.00022055679
0.00022007566
0.00021961761
0.00021919024
0.00021880127
0.00021845839
0.0002181691
0.00021794059
0.0002177795
0.00021769177
0.00021768204
0.00021768204
0.0002177536
0.00021790758
0.00021814212
0.00021845225
0.00021882977
0.00021926362
0.00021974055
0.00022024604
0.00022076523
0.00022128396
0.00022178939
0.00022227052
0.00022271837
0.00022312601
0.00022348836
0.00022380198
0.00022406476
0.00022427573
0.00022443495
0.00022454295
0.00022458507
0.00022451163
0.00022419115
0.00022388561
0.00022357101
0.0002232446
0.00022290472
0.00022254916
0.00022217705
0.00022178798
0.00022138232
0.00022096134
0.00022052731
0.00022008362
0.00021963473
0.00021918596
0.00021874434
0.00021831646
0.00021790992
0.0002175328
0.00021719295
0.00021689822
0.00021665631
0.00021647461
0.00021636013
0.00021631919
0.0002163572
0.00021644388
0.0002164168
0.00021646
0.00021658689
0.00021679899
0.00021709474
0.000217469
0.00021791301
0.00021841478
0.00021896004
0.00021953331
0.00022011907
0.00022070276
0.00022127143
0.00022181421
0.0002223224
0.00022278937
0.0002232104
0.00022358223
0.00022390273
0.00022417103
0.00022438861
0.00022454271
0.00022400627
0.00022369761
0.00022339749
0.00022308581
0.00022275984
0.00022241809
0.00022205854
0.00022168063
0.00022128435
0.00022087058
0.00022044126
0.00021999941
0.0002195493
0.00021909637
0.00021864695
0.00021820906
0.00021779017
0.00021739864
0.00021704307
0.00021673163
0.00021647237
0.00021627304
0.00021614102
0.00021608323
0.00021610585
0.00021621391
0.0002163007
0.00021618161
0.00021614333
0.00021619289
0.00021633519
0.00021657192
0.00021690051
0.00021731382
0.00021780029
0.00021834503
0.00021893108
0.00021954096
0.0002201579
0.00022076681
0.00022135485
0.00022191167
0.00022242934
0.00022290212
0.00022332603
0.00022369842
0.00022401821
0.00022428551
0.00022448062
0.00022365093
0.00022334766
0.00022304745
0.00022273264
0.00022240074
0.00022205048
0.00022167999
0.00022128894
0.00022087768
0.00022044752
0.00022000098
0.00021954186
0.00021907529
0.00021860778
0.00021814678
0.00021770146
0.00021728039
0.00021689282
0.00021654805
0.00021625476
0.00021602127
0.00021585554
0.00021576508
0.00021575696
0.00021583743
0.00021601153
0.0002160931
0.00021588794
0.00021576534
0.00021573582
0.0002158081
0.00021598739
0.00021627383
0.00021666167
0.00021713938
0.00021769082
0.00021829697
0.00021893781
0.000219594
0.00022024809
0.00022088519
0.00022149336
0.00022206347
0.00022258893
0.00022306524
0.00022348959
0.00022386074
0.00022417775
0.00022442244
0.00022328905
0.00022298993
0.00022269005
0.00022237241
0.00022203473
0.00022167585
0.00022129403
0.00022088913
0.00022046173
0.00022001357
0.00021954766
0.00021906854
0.00021858225
0.00021809637
0.00021761962
0.00021716246
0.00021673468
0.00021634659
0.00021600827
0.00021572893
0.00021551723
0.00021538132
0.00021532896
0.00021536746
0.00021550341
0.00021574222
0.00021582936
0.00021553371
0.00021532282
0.00021521125
0.00021521209
0.00021533466
0.00021558208
0.00021594989
0.00021642606
0.00021699252
0.00021762735
0.00021830736
0.00021901013
0.00021971552
0.00022040657
0.00022106973
0.00022169484
0.00022227466
0.00022280438
0.00022328116
0.0002237037
0.00022407085
0.00022436675
0.00022291136
0.00022261694
0.00022231842
0.00022199892
0.00022165625
0.00022128928
0.00022089637
0.00022047744
0.00022003328
0.00021956591
0.00021907883
0.00021857723
0.00021806806
0.00021756009
0.00021706338
0.00021658988
0.00021615082
0.0002157577
0.0002154215
0.00021515196
0.00021495806
0.00021484816
0.0002148303
0.0002149122
0.0002151011
0.00021540316
0.00021551097
0.00021511903
0.00021481423
0.0002146158
0.00021454211
0.00021460739
0.00021481828
0.00021517156
0.00021565409
0.0002162449
0.00021691818
0.00021764668
0.00021840427
0.00021916783
0.00021991814
0.0002206402
0.00022132295
0.00022195877
0.00022254284
0.00022307254
0.00022354675
0.00022396477
0.00022431252
0.00022251837
0.00022222931
0.00022193319
0.00022161282
0.000221266
0.00022089156
0.00022048782
0.00022005473
0.00021959314
0.00021910527
0.00021859502
0.00021806817
0.00021753261
0.00021699833
0.00021647696
0.00021598215
0.00021552683
0.0002151239
0.00021478532
0.00021452137
0.00021434127
0.00021425355
0.0002142665
0.00021438842
0.00021462749
0.00021499115
0.00021513997
0.00021464445
0.00021423827
0.00021394613
0.00021379285
0.00021379891
0.00021397525
0.00021431991
0.00021481787
0.00021544397
0.0002161672
0.00021695511
0.00021777712
0.0002186067
0.00021942231
0.00022020756
0.00022095076
0.00022164418
0.00022228329
0.00022286595
0.00022339157
0.00022386031
0.0002242595
0.00022211206
0.00022182972
0.00022153717
0.00022121696
0.00022086684
0.00022048551
0.00022007119
0.00021962372
0.0002191439
0.00021863405
0.00021809832
0.00021754304
0.00021697702
0.00021641156
0.00021586007
0.00021533826
0.00021486107
0.00021444308
0.00021409733
0.00021383459
0.00021366418
0.00021359463
0.00021363445
0.0002137926
0.00021407855
0.00021450161
0.00021471792
0.00021410988
0.00021359265
0.00021319739
0.00021295703
0.00021290013
0.00021304326
0.00021338583
0.0002139098
0.00021458414
0.00021537084
0.00021623084
0.00021712821
0.00021803259
0.00021892007
0.00021977307
0.00022057958
0.00022133215
0.00022202687
0.00022266239
0.00022323899
0.00022375787
0.00022420763
0.00022169413
0.00022141936
0.00022113148
0.0002208125
0.00022045999
0.00022007247
0.00021964791
0.00021918592
0.00021868714
0.00021815379
0.00021759016
0.00021700301
0.00021640202
0.00021579992
0.00021521216
0.00021465693
0.00021415169
0.00021371304
0.0002133552
0.00021308931
0.00021292452
0.0002128691
0.00021293161
0.00021312173
0.00021345056
0.00021393
0.00021424771
0.0002135164
0.00021287588
0.00021236499
0.00021202692
0.00021190106
0.00021201167
0.00021235968
0.00021292251
0.00021366078
0.00021452713
0.0002154741
0.00021645935
0.00021744827
0.00021841462
0.00021933998
0.00022021244
0.00022102532
0.00022177574
0.00022246352
0.00022309013
0.00022365802
0.00022415708
0.00022126659
0.00022100128
0.00022071947
0.00022040291
0.00022004904
0.00021965609
0.00021922171
0.00021874515
0.00021822665
0.0002176682
0.000217074
0.00021645112
0.00021581
0.00021516492
0.00021453369
0.00021393757
0.00021339719
0.00021293168
0.00021255658
0.00021228314
0.00021211995
0.00021207455
0.00021215525
0.00021237243
0.00021273913
0.00021327065
0.00021373273
0.0002128654
0.00021208636
0.00021144341
0.00021099288
0.00021078904
0.00021086696
0.00021122947
0.00021184709
0.00021266866
0.0002136342
0.00021468563
0.00021577299
0.00021685712
0.0002179097
0.00021891193
0.00021985267
0.00022072653
0.00022153222
0.00022227113
0.00022294625
0.00022356149
0.00022410811
0.00022083209
0.00022057683
0.00022030219
0.00021998924
0.0002196351
0.00021923764
0.00021879403
0.00021830298
0.00021776419
0.00021717911
0.00021655166
0.00021588895
0.00021520209
0.00021450692
0.00021382401
0.00021317846
0.00021259505
0.00021209612
0.00021169866
0.00021141367
0.00021124845
0.00021120917
0.00021130339
0.000211542
0.00021194028
0.00021251784
0.0002131783
0.00021216007
0.00021122374
0.00021042739
0.00020984414
0.00020954903
0.00020959299
0.00020998136
0.0002106741
0.00021160322
0.00021269177
0.00021386823
0.00021507379
0.0002162646
0.00021741079
0.000218494
0.00021950466
0.00022043943
0.00022129918
0.00022208736
0.00022280883
0.00022346914
0.0002240611
0.00022039159
0.00022014893
0.00021988324
0.00021957542
0.00021922241
0.00021882165
0.00021836974
0.00021786465
0.00021730528
0.00021669227
0.0002160289
0.00021532203
0.00021458318
0.0002138297
0.00021308535
0.00021238014
0.00021174435
0.00021120456
0.00021077944
0.0002104791
0.00021030853
0.00021027154
0.00021037425
0.00021062764
0.00021104944
0.00021166457
0.00021248475
0.00021140499
0.00021028885
0.00020931164
0.00020856789
0.00020816213
0.0002081693
0.00020859831
0.00020939272
0.00021046029
0.00021170108
0.00021302675
0.0002143685
0.00021567807
0.00021692499
0.00021809251
0.00021917375
0.00022016833
0.00022107998
0.0002219147
0.00022267956
0.000223382
0.00022401652
0.0002199503
0.00021972033
0.00021946465
0.00021916328
0.00021881277
0.00021840998
0.0002179508
0.00021743228
0.00021685221
0.00021621006
0.00021550807
0.00021475241
0.00021395462
0.00021313339
0.0002123161
0.00021153906
0.0002108401
0.00021025162
0.00020979421
0.00020947607
0.00020929827
0.00020926086
0.00020936743
0.00020962838
0.00021006384
0.00021070506
0.00021159207
0.00021060818
0.00020928515
0.0002080919
0.00020714948
0.00020660464
0.0002065698
0.00020705952
0.0002079911
0.000209237
0.00021066606
0.00021216925
0.00021366696
0.00021510749
0.0002164614
0.00021771528
0.00021886633
0.00021991827
0.00022087845
0.00022175594
0.00022256036
0.00022330123
0.00022397489
0.00021950691
0.00021929297
0.0002190495
0.00021875654
0.00021841048
0.00021800765
0.00021754306
0.00021701264
0.00021641276
0.00021574126
0.00021499878
0.00021419023
0.00021332654
0.00021242723
0.00021152359
0.00021066006
0.00020988499
0.00020923901
0.00020874497
0.00020840753
0.00020822148
0.00020818112
0.00020828624
0.00020854579
0.00020898195
0.00020963329
0.00021055282
0.0002097814
0.00020821961
0.00020676577
0.00020557224
0.00020484613
0.00020476023
0.00020533891
0.00020645615
0.0002079325
0.00020959438
0.00021130791
0.00021298274
0.00021456582
0.00021603138
0.00021737169
0.00021858988
0.000219695
0.00022069887
0.00022161417
0.00022245333
0.00022322813
0.00022393684
0.00021907219
0.00021887376
0.00021864352
0.00021836055
0.00021802076
0.00021761977
0.00021715161
0.00021661082
0.00021599198
0.0002152908
0.0002145056
0.00021363925
0.00021270123
0.00021171099
0.00021070365
0.00020973417
0.00020886607
0.0002081521
0.00020761802
0.00020726244
0.00020707022
0.00020702719
0.00020712769
0.00020737777
0.00020780046
0.00020844214
0.00020937162
0.00020894123
0.00020710448
0.00020533467
0.00020381798
0.00020284703
0.00020269428
0.00020340347
0.00020477398
0.00020654968
0.00020849932
0.00021046057
0.00021233415
0.0002140696
0.00021564878
0.00021707277
0.00021835285
0.00021950484
0.00022054587
0.00022149266
0.00022236069
0.00022316406
0.000223903
0.00021863765
0.00021845871
0.00021824414
0.00021797339
0.00021764235
0.000217246
0.0002167773
0.00021622921
0.00021559418
0.00021486517
0.00021403737
0.00021311058
0.00021209163
0.0002109983
0.0002098686
0.00020877079
0.00020779049
0.00020699869
0.00020642479
0.00020605701
0.00020586434
0.00020582025
0.00020591197
0.00020614111
0.00020652979
0.0002071326
0.00020803786
0.00020811334
0.00020596021
0.00020380686
0.00020186865
0.00020055555
0.0002003075
0.00020121082
0.00020293071
0.00020509769
0.00020740239
0.00020965266
0.00021174542
0.00021363948
0.00021533002
0.00021683104
0.00021816454
0.00021935456
0.00022042428
0.0002213948
0.00022228472
0.00022311042
0.00022387405
0.00021822615
0.00021806555
0.00021786775
0.0002176113
0.00021729167
0.00021690309
0.00021643731
0.00021588547
0.00021523747
0.00021448276
0.00021361226
0.00021262133
0.00021151252
0.00021029942
0.0002090204
0.00020775983
0.00020663641
0.00020574985
0.00020513472
0.00020476245
0.00020457737
0.00020453583
0.0002046173
0.00020481773
0.00020515462
0.00020568886
0.00020653118
0.00020732634
0.00020481643
0.00020220282
0.00019971114
0.00019790455
0.00019750705
0.00019870626
0.00020091461
0.00020359639
0.00020633723
0.00020891979
0.00021124796
0.0002133006
0.00021509409
0.00021666033
0.00021803478
0.00021925106
0.00022033892
0.0002213239
0.00022222762
0.00022306859
0.00022385066
0.00021781713
0.00021767907
0.00021750043
0.00021726055
0.0002169551
0.0002165777
0.00021611887
0.00021556784
0.0002149117
0.00021413586
0.00021322578
0.00021217075
0.0002109673
0.0002096215
0.00020816665
0.00020670478
0.00020540471
0.00020441264
0.00020376999
0.00020342038
0.00020326793
0.00020324408
0.00020332021
0.00020348533
0.00020374478
0.00020416143
0.00020487315
0.00020604001
0.00020373305
0.0002005702
0.00019735017
0.00019481275
0.00019415661
0.00019582035
0.00019872064
0.00020208356
0.00020535532
0.00020831095
0.00021088168
0.00021308273
0.00021496211
0.00021657516
0.00021797343
0.000219201
0.00022029427
0.00022128298
0.00022219141
0.00022303982
0.00022383346
0.00021746823
0.00021735102
0.00021719289
0.00021697252
0.00021668541
0.00021632457
0.00021587933
0.00021533696
0.00021468145
0.0002138935
0.00021295146
0.00021183594
0.00021053467
0.00020904164
0.00020737451
0.00020564944
0.00020411184
0.00020298641
0.00020232349
0.00020202221
0.00020192126
0.00020191762
0.00020198
0.00020209604
0.00020224968
0.00020249981
0.00020301695
0.00020404771
0.00020277713
0.0001990012
0.00019484854
0.00019121032
0.00019006012
0.00019246935
0.00019635922
0.00020062679
0.00020453426
0.00020789242
0.00021069591
0.00021301989
0.00021495646
0.00021658994
0.00021798967
0.00021921025
0.00022029415
0.00022127456
0.00022217774
0.00022302517
0.00022382299
0.00021720059
0.00021710862
0.00021697494
0.0002167786
0.0002165154
0.00021617784
0.00021575407
0.00021522936
0.00021458451
0.00021379507
0.00021283106
0.00021166161
0.00021026305
0.00020861401
0.00020670101
0.00020463891
0.0002027906
0.00020152058
0.00020088647
0.00020071714
0.00020074074
0.00020080598
0.00020089018
0.00020099341
0.00020105232
0.00020109844
0.00020133207
0.00020206199
0.00020232354
0.00019782292
0.00019245191
0.00018712475
0.00018495915
0.00018857276
0.00019388273
0.00019934637
0.00020399062
0.00020775218
0.00021074962
0.00021314886
0.00021509918
0.00021671758
0.00021809106
0.0002192833
0.0002203413
0.00022130039
0.0002221878
0.0002230254
0.00022381968
0.00021725972
0.00021719587
0.00021709266
0.00021692812
0.00021669844
0.00021639582
0.00021600782
0.00021551834
0.0002149057
0.00021414095
0.0002131853
0.00021199284
0.00021052319
0.00020873586
0.00020656265
0.0002040686
0.00020178748
0.00020035076
0.00019980545
0.00019987901
0.00020010513
0.00020026543
0.00020036287
0.000200449
0.00020036911
0.00020009257
0.00019988233
0.00020010153
0.00020118331
0.00019740078
0.00019066081
0.00018291658
0.00017861435
0.00018416401
0.00019146805
0.00019845291
0.00020389565
0.00020800285
0.00021110916
0.00021350598
0.00021540922
0.00021696766
0.0002182823
0.00021942247
0.00022043693
0.00022136119
0.00022222206
0.0002230409
0.00022382377
0.00021801708
0.00021798823
0.00021793012
0.00021781554
0.00021764074
0.00021739785
0.00021707435
0.00021665337
0.00021611112
0.0002154142
0.00021451402
0.00021334409
0.0002118369
0.00020993094
0.00020748657
0.00020441536
0.00020147797
0.00019988182
0.00019958084
0.00020017741
0.0002008215
0.00020120608
0.00020138357
0.00020158177
0.00020150129
0.00020093302
0.00020031522
0.00019986104
0.00020080786
0.00019976199
0.00019129685
0.0001800212
0.00017094774
0.00017965771
0.00018947917
0.00019827174
0.00020448864
0.00020878063
0.00021184194
0.00021412129
0.00021589853
0.00021734401
0.00021856398
0.00021962722
0.00022058031
0.0002214564
0.00022228025
0.0002230716
0.00022383531
0.00022066391
0.00022071209
0.00022074193
0.00022072135
0.00022064851
0.00022051642
0.0002203138
0.00022002473
0.00021962547
0.00021908119
0.00021833802
0.00021731138
0.00021589832
0.00021401604
0.00021146399
0.00020778629
0.00020388372
0.00020236611
0.0002027247
0.00020450421
0.00020600902
0.00020690978
0.00020732155
0.00020797649
0.00020832119
0.00020732378
0.00020618913
0.00020432496
0.00020496003
0.00020348405
0.00019649987
0.00018118206
0.00016222055
0.00017630835
0.00018869746
0.00019949679
0.00020614897
0.00021024626
0.00021300395
0.00021500905
0.0002165667
0.00021784214
0.00021893126
0.00021989358
0.00022076854
0.00022158408
0.00022236121
0.00022311692
0.00022385412
0.00022642322
0.00022656638
0.00022672907
0.0002268567
0.00022694705
0.00022699522
0.00022699403
0.00022693265
0.00022679271
0.00022654456
0.00022613713
0.00022547255
0.00022438795
0.00022271855
0.00022022003
0.00021576638
0.00020956602
0.00020824668
0.00020948504
0.00021348446
0.00021646238
0.00021835262
0.00021896524
0.00022040423
0.00022210298
9.3007579e-05
9.5433599e-05
9.7691727e-05
9.9882171e-05
0.00010288236
9.4463701e-05
8.6204509e-05
0.00010657299
0.00017933346
0.00019343339
0.00020412691
0.00020945427
0.00021253447
0.0002146054
0.00021615193
0.00021739463
0.0002184468
0.00021937307
0.00022021382
0.00022099642
0.00022174088
0.00022246289
0.00022317579
0.00022387978
0.00023924584
0.00023969345
0.00024019437
0.00024068052
0.000241161
0.00024163991
0.00024212207
0.00024261121
0.00024310617
0.0002435962
0.00024404855
0.00024437051
0.00024434128
0.00024362472
0.00024200428
0.00023807255
0.00022682223
0.00022935441
0.00023549138
0.0002502077
0.00026144053
0.00027023243
0.00012828133
0.00016688055
0.00032274776
0.00046159502
0.00049956686
0.00049956686
0.00049956686
0.00049956686
0.00049956686
0.00045031238
0.00033649826
6.8075262e-05
0.00021297371
0.0002134608
0.00021437871
0.00021549432
0.00021653638
0.00021748105
0.0002183398
0.00021913127
0.00021987227
0.00022057683
0.00022125671
0.00022192216
0.00022258248
0.00022324665
0.00022391165
0.00026426893
0.00026527733
0.0002664309
0.00026762727
0.00026888698
0.00027023464
0.00027170437
0.00027333917
0.00027519219
0.00027733093
0.00027984178
0.00028282213
0.00028637323
0.00029054692
0.00029517865
0.00030233535
0.00027345696
0.00030500718
0.00035659279
0.00037254646
0.00027821798
0.00031973498
0.00049956686
0.00049956686
0.00049956686
0.00049956686
0.00049956686
0.00049956686
0.00049956686
0.00049956686
0.00041263402
0.0004182695
0.00010203823
0.00026659013
0.00023113988
0.00022209692
0.0002192752
0.00021853478
0.00021855421
0.00021888174
0.00021934142
0.00021986045
0.0002204074
0.000220969
0.00022154066
0.00022212234
0.00022271653
0.00022332754
0.00022394887
0.00030195426
0.00030409657
0.00030622656
0.00030842891
0.00031077812
0.00031334701
0.00031622154
0.00031951501
0.00032338683
0.00032808063
0.00033399263
0.00034169859
0.00035173172
0.00036474672
0.000384922
0.00040158461
0.00025701846
0.00025320249
0.000263377
0.00048922021
0.00047848736
0.00048855313
0.00047869855
0.00047372165
0.00047746534
0.00045865805
0.00045171928
0.00045351619
0.00044093609
0.00043652051
0.00010691831
0.00010767078
0.00021977644
0.00025235693
0.0002369482
0.00022741056
0.00022311573
0.00022121897
0.00022044933
0.00022024466
0.00022033817
0.00022059789
0.00022095579
0.00022137581
0.00022183884
0.00022233529
0.00022286117
0.00022341623
0.00022399043
0.00028856585
0.00028908413
0.00028927407
0.00028946063
0.00028964587
0.00028986176
0.0002901343
0.00029050034
0.00029101284
0.00029174941
0.00029283219
0.00029387773
0.00029481692
0.00029557491
0.00029293291
0.00010292945
0.00037622889
0.00047082449
0.00047253634
0.00049383685
0.00048613822
0.0004824508
0.00012421001
0.00012127928
0.00010077012
0.00010005414
0.00010062902
0.00010197283
0.00010292727
0.00010452163
0.00020120895
0.0002076782
0.00021808299
0.00023901585
0.00023963002
0.00023076135
0.0002259577
0.00022341692
0.00022210826
0.00022149275
0.00022128028
0.00022131146
0.00022149641
0.0002217833
0.0002221419
0.0002225548
0.00022301241
0.00022351036
0.00022403523
0.00022327523
0.00022310744
0.00022281905
0.00022254033
0.00022227904
0.00022205235
0.00022187622
0.00022177401
0.00022177801
0.00022193312
0.00022230429
0.0002220945
0.00022116318
0.00021941689
0.00021672876
0.00021314677
9.5859554e-05
9.9101914e-05
9.9869065e-05
9.9773891e-05
0.00010014963
0.00010017639
0.00021253989
0.00021081371
0.00020892986
0.00020554383
0.00020443537
0.00020387901
0.00020210802
0.00020212623
0.00020330666
0.00020901284
0.0002182363
0.00023217553
0.00023802127
0.00023248191
0.00022785736
0.00022508938
0.00022347606
0.00022257918
0.00022213276
0.0002219762
0.00022201173
0.0002221792
0.0002224413
0.000222775
0.00022316635
0.00022360755
0.00022408215
0.00021926605
0.00021934593
0.00021947229
0.00021960763
0.0002197632
0.00021995113
0.000220184
0.00022047788
0.00022085207
0.00022132941
0.00022186411
0.00022156891
0.00022081349
0.00021957754
0.00021780368
0.00021498967
0.00021250699
0.00021402918
0.00021587938
0.00021421456
0.00021238151
0.00021121569
0.00021005905
0.00020833721
0.00020730339
0.00020568594
0.00020477976
0.00020420536
0.00020347953
0.00020394831
0.0002059323
0.00021088856
0.00021854834
0.00022810801
0.00023383156
0.00023318205
0.00022902059
0.00022628596
0.00022454833
0.00022348492
0.00022287572
0.0002225753
0.00022248862
0.00022255362
0.00022272978
0.00022299069
0.00022331941
0.00022370553
0.00022413005
0.00021788915
0.00021796872
0.00021809405
0.0002182328
0.00021838783
0.00021856669
0.0002187779
0.00021903257
0.0002193432
0.00021972352
0.00021997936
0.00021948733
0.00021872922
0.00021765488
0.00021622761
0.00021439203
0.00021326123
0.0002141128
0.00021527042
0.0002134951
0.0002119018
0.00021068265
0.00020952604
0.00020831102
0.00020735622
0.00020629724
0.00020564688
0.00020528628
0.00020521192
0.00020608765
0.0002083312
0.00021262026
0.0002187591
0.00022561458
0.00023029998
0.00023231269
0.00022962735
0.00022708135
0.00022534758
0.00022421038
0.00022350163
0.00022309949
0.00022291845
0.00022289934
0.00022300158
0.00022319748
0.00022346844
0.00022380224
0.00022417791
0.00021721087
0.00021733183
0.00021747155
0.00021762258
0.00021779088
0.00021798286
0.00021820471
0.00021846394
0.00021876756
0.00021912097
0.00021921495
0.00021877184
0.0002181203
0.00021723029
0.00021608147
0.00021482224
0.00021419541
0.00021469904
0.00021503888
0.00021341148
0.00021201396
0.00021086201
0.00020980449
0.00020882295
0.00020800287
0.0002072673
0.00020684871
0.0002067339
0.00020703
0.00020812303
0.00021033527
0.00021399242
0.00021887069
0.00022400946
0.00022786304
0.00023021864
0.00022984661
0.00022755952
0.00022591086
0.00022476856
0.00022401222
0.00022354577
0.00022329665
0.00022321168
0.00022325255
0.00022339198
0.00022361084
0.00022389591
0.00022422479
0.00021692161
0.00021699469
0.00021711068
0.00021724584
0.00021739826
0.00021757147
0.00021776926
0.00021799653
0.00021825716
0.00021855264
0.00021852326
0.0002181338
0.0002176013
0.00021691415
0.00021608487
0.00021529074
0.00021497726
0.00021536552
0.00021499568
0.00021359459
0.00021236918
0.00021132265
0.00021038919
0.00020956877
0.00020889441
0.00020837624
0.00020813544
0.00020820839
0.0002087121
0.00020988767
0.00021195297
0.00021505064
0.00021895099
0.00022294345
0.00022613919
0.00022830378
0.00022930039
0.00022779412
0.00022627863
0.00022517896
0.00022441525
0.00022391578
0.00022362196
0.00022348821
0.00022348001
0.00022357171
0.00022374458
0.00022398509
0.00022426992
0.00021677897
0.00021689197
0.00021701751
0.00021715321
0.00021730305
0.00021747012
0.00021765611
0.00021786288
0.00021809048
0.00021833575
0.0002182491
0.00021790043
0.00021744823
0.00021689717
0.00021628731
0.00021577751
0.00021563506
0.00021596285
0.00021504849
0.00021385918
0.00021279598
0.00021186998
0.0002110608
0.00021037602
0.00020983851
0.00020948083
0.00020937826
0.00020958337
0.00021019755
0.00021137682
0.00021325707
0.00021588282
0.00021904255
0.00022223349
0.00022490817
0.00022685667
0.00022809009
0.00022785095
0.00022649048
0.00022546371
0.00022472192
0.00022421432
0.00022389566
0.0002237284
0.00022368262
0.0002237351
0.0002238682
0.00022406864
0.00022431264
0.00021670568
0.0002167758
0.00021688221
0.00021700548
0.00021714314
0.00021729629
0.00021746512
0.00021764984
0.00021784854
0.00021805576
0.00021796824
0.00021768307
0.00021732716
0.00021691361
0.00021649078
0.00021618357
0.00021615684
0.00021618156
0.00021514064
0.00021413962
0.00021322842
0.00021242681
0.00021173729
0.00021117321
0.0002107573
0.00021052509
0.00021053102
0.00021082768
0.00021149513
0.00021263504
0.00021432541
0.00021655993
0.00021915737
0.00022176457
0.00022402364
0.00022576033
0.00022694906
0.00022750554
0.00022658062
0.00022564456
0.00022494491
0.00022444811
0.00022412078
0.00022393313
0.0002238601
0.00022388135
0.00022398078
0.00022414577
0.00022435248
0.00021665241
0.00021674394
0.00021685076
0.00021696688
0.00021709388
0.00021723272
0.00021738253
0.00021754212
0.00021770814
0.00021787383
0.00021779687
0.00021755897
0.00021727658
0.00021696861
0.00021668279
0.00021651272
0.00021656373
0.00021610921
0.000215254
0.00021441753
0.00021364663
0.00021296631
0.0002123904
0.0002119362
0.00021162719
0.00021149655
0.00021158719
0.00021194539
0.00021263128
0.00021370998
0.000215221
0.00021713379
0.00021929942
0.00022146745
0.00022339234
0.00022493381
0.00022605196
0.00022677682
0.00022657919
0.0002257418
0.00022509708
0.00022462479
0.00022430146
0.00022410431
0.00022401303
0.0002240103
0.00022408184
0.00022421597
0.00022438911
0.00021662029
0.00021668696
0.00021678192
0.00021688927
0.00021700683
0.0002171343
0.0002172698
0.00021741114
0.00021755398
0.00021769083
0.00021764809
0.00021746008
0.00021724621
0.00021702757
0.00021684695
0.00021677396
0.00021670987
0.00021608843
0.00021538613
0.00021469259
0.0002140493
0.0002134831
0.00021301305
0.00021265865
0.00021244318
0.00021239616
0.0002125525
0.00021295031
0.00021363313
0.00021464114
0.00021598949
0.00021763808
0.00021946707
0.00022129577
0.00022294923
0.00022431575
0.00022535208
0.00022606783
0.00022637971
0.00022577296
0.00022519059
0.00022475222
0.00022444243
0.00022424457
0.00022414265
0.00022412234
0.0002241713
0.00022427899
0.00022442232
0.00021659648
0.00021666891
0.00021675932
0.00021685787
0.0002169642
0.00021707794
0.00021719679
0.00021731807
0.00021743712
0.00021754657
0.00021753786
0.0002173915
0.00021723375
0.00021708558
0.0002169833
0.00021695149
0.00021664398
0.00021610967
0.00021553539
0.00021496621
0.00021443799
0.00021397712
0.00021360446
0.00021334013
0.00021320629
0.00021322866
0.00021343572
0.00021385752
0.00021452454
0.00021545996
0.00021666421
0.00021809544
0.00021965798
0.00022121886
0.00022264964
0.00022386157
0.00022481312
0.00022550253
0.00022595409
0.00022575332
0.00022523652
0.000224838
0.00022454866
0.0002243569
0.00022425061
0.00022421825
0.00022424941
0.00022433482
0.00022445204
0.0002165856
0.00021664574
0.00021672836
0.00021681948
0.00021691714
0.0002170204
0.00021712649
0.00021723243
0.00021733346
0.00021742258
0.00021744901
0.0002173399
0.00021722941
0.00021713716
0.0002170933
0.00021696825
0.00021660047
0.00021616564
0.00021570007
0.00021523944
0.00021481439
0.00021444955
0.00021416564
0.00021398223
0.00021391966
0.00021399999
0.00021424623
0.00021468127
0.00021532564
0.00021619103
0.00021726946
0.00021852115
0.00021986973
0.00022121539
0.0002224616
0.00022353768
0.00022440601
0.00022505886
0.00022550996
0.00022566435
0.0002252446
0.00022488924
0.00022462504
0.00022444451
0.00022433885
0.00022429908
0.00022431667
0.00022438361
0.00022447828
0.00021658195
0.00021664063
0.00021671765
0.00021680098
0.00021688929
0.00021698155
0.00021707492
0.00021716638
0.0002172514
0.00021732362
0.00021736688
0.00021730091
0.00021722873
0.0002171798
0.00021711421
0.00021689986
0.00021659944
0.00021624932
0.0002158773
0.00021551193
0.00021517918
0.00021490134
0.00021469787
0.00021458699
0.00021458685
0.00021471603
0.0002149928
0.00021543407
0.00021605283
0.00021685318
0.00021782272
0.00021892534
0.00022009983
0.00022126986
0.00022236152
0.0002233183
0.0002241072
0.0002247178
0.0002251571
0.00022544324
0.00022522319
0.00022491238
0.00022467626
0.00022451062
0.00022440947
0.0002243661
0.00022437373
0.00022442566
0.00022450113
0.00021658679
0.00021663901
0.00021671022
0.00021678704
0.00021686764
0.00021695085
0.00021703378
0.00021711351
0.00021718589
0.00021724536
0.00021728484
0.00021726896
0.00021722794
0.00021717783
0.00021706194
0.00021687256
0.00021663152
0.00021635479
0.00021606421
0.0002157829
0.0002155328
0.00021533359
0.0002152029
0.00021515713
0.00021521202
0.00021538293
0.00021568402
0.00021612726
0.0002167201
0.00021746164
0.00021833752
0.00021931572
0.00022034686
0.00022137164
0.00022233258
0.00022318432
0.00022389853
0.00022446404
0.00022488369
0.00022517006
0.00022517962
0.00022491323
0.0002247067
0.00022455839
0.00022446463
0.00022442068
0.00022442139
0.00022446136
0.00022452074
0.00021659757
0.00021664652
0.00021671274
0.0002167833
0.00021685653
0.0002169313
0.00021700481
0.00021707441
0.00021713639
0.00021718604
0.0002172176
0.00021722438
0.00021719922
0.0002171353
0.00021702766
0.00021687679
0.00021668868
0.00021647638
0.00021625747
0.00021605082
0.00021587493
0.00021574686
0.00021568214
0.00021569506
0.00021579894
0.00021600614
0.00021632726
0.00021677027
0.00021733852
0.0002180279
0.0002188235
0.00021969727
0.00022060907
0.00022151219
0.0002223614
0.0002231202
0.00022376464
0.00022428393
0.00022467854
0.00022495725
0.0002250978
0.00022489672
0.0002247203
0.00022459079
0.00022450644
0.00022446422
0.00022446048
0.00022449111
0.00022453727
0.00021661373
0.00021665871
0.00021672045
0.00021678565
0.00021685255
0.0002169201
0.00021698567
0.0002170469
0.00021710066
0.00021714307
0.00021716959
0.0002171752
0.00021715479
0.00021710394
0.00021702004
0.000216905
0.00021676447
0.00021660937
0.00021645413
0.00021631429
0.00021620536
0.00021614191
0.00021613726
0.00021620354
0.00021635164
0.00021659117
0.00021692964
0.00021737178
0.00021791788
0.0002185618
0.00021928882
0.00022007453
0.00022088601
0.00022168605
0.00022243875
0.00022311474
0.00022369405
0.00022416695
0.00022453274
0.0002247977
0.00022497278
0.00022486757