/*--------------------------------*- C++ -*----------------------------------*\
| =========                 |                                                 |
| \\      /  F ield         | foam-extend: Open Source CFD                    |
|  \\    /   O peration     | Version:     4.1                                |
|   \\  /    A nd           | Web:         http://www.foam-extend.org         |
|    \\/     M anipulation  |                                                 |
\*---------------------------------------------------------------------------*/
FoamFile
{
    version     2.0;
    format      ascii;
    class       volVectorField;
    location    "1.75";
    object      U;
}
// * * * * * * * * * * * * * * * * * * * * * * * * * * * * * * * * * * * * * //

dimensions      [0 1 -1 0 0 0 0];

internalField   nonuniform List<vector> 
4393
(
(146.04882 -0.15650241 0)
(146.59741 -0.16293653 0)
(147.01171 -0.16595081 0)
(147.45293 -0.1696017 0)
(147.90398 -0.17400973 0)
(148.36978 -0.17926037 0)
(148.85251 -0.18527545 0)
(149.35436 -0.19190871 0)
(149.8769 -0.19895449 0)
(150.42106 -0.20614977 0)
(150.98686 -0.21317433 0)
(151.5733 -0.219654 0)
(152.17819 -0.22516941 0)
(152.79799 -0.22927188 0)
(153.42782 -0.23150647 0)
(154.06144 -0.23143989 0)
(154.69135 -0.22868807 0)
(155.30901 -0.22293765 0)
(155.90506 -0.213957 0)
(156.46954 -0.20159642 0)
(156.9922 -0.18578116 0)
(157.46262 -0.16650367 0)
(157.87046 -0.14382123 0)
(158.20565 -0.11786433 0)
(158.45862 -0.088859195 0)
(158.62068 -0.05716138 0)
(158.68451 -0.02327756 0)
(158.64492 0.012125412 0)
(158.49857 0.047972428 0)
(158.24632 0.082848309 0)
(157.89315 0.11530689 0)
(157.44838 0.14393724 0)
(156.9254 0.16751097 0)
(156.34084 0.18513531 0)
(155.71336 0.19635178 0)
(155.06233 0.20115587 0)
(154.40648 0.19994312 0)
(153.76288 0.19340649 0)
(153.14624 0.18241528 0)
(152.56856 0.16790152 0)
(152.03913 0.15076983 0)
(151.56468 0.13183607 0)
(151.14978 0.11179425 0)
(150.79719 0.091217985 0)
(150.50828 0.070611438 0)
(150.28348 0.050433007 0)
(150.12222 0.03083788 0)
(150.02092 0.011723356 0)
(149.97389 -0.0031698792 0)
(149.47186 -0.39491292 0)
(149.94126 -0.40586492 0)
(150.2875 -0.41396509 0)
(150.65748 -0.42450766 0)
(151.03712 -0.4376079 0)
(151.43139 -0.45330166 0)
(151.84266 -0.47131875 0)
(152.27318 -0.49121375 0)
(152.72462 -0.51237427 0)
(153.19799 -0.5340193 0)
(153.6934 -0.55519707 0)
(154.20992 -0.57479301 0)
(154.74541 -0.59155445 0)
(155.29639 -0.60413709 0)
(155.85796 -0.6111737 0)
(156.42384 -0.61135825 0)
(156.98649 -0.60353025 0)
(157.53723 -0.58674076 0)
(158.06662 -0.56028683 0)
(158.56459 -0.52371251 0)
(159.02076 -0.47678831 0)
(159.42465 -0.41948839 0)
(159.76579 -0.35198538 0)
(160.03399 -0.27467943 0)
(160.21951 -0.18827217 0)
(160.31347 -0.093882537 0)
(160.30832 0.0068406268 0)
(160.19846 0.11165497 0)
(159.98176 0.21748285 0)
(159.65892 0.32051203 0)
(159.2347 0.4165474 0)
(158.71827 0.50139346 0)
(158.12303 0.57135963 0)
(157.46576 0.62373868 0)
(156.76538 0.65711175 0)
(156.0415 0.67141169 0)
(155.31304 0.66776318 0)
(154.59718 0.64817611 0)
(153.90864 0.61518425 0)
(153.25936 0.57150619 0)
(152.65851 0.5197751 0)
(152.11273 0.46235325 0)
(151.62646 0.40122854 0)
(151.20243 0.33800399 0)
(150.84201 0.27399809 0)
(150.54554 0.21026926 0)
(150.31218 0.14710652 0)
(150.14086 0.084345705 0)
(150.03531 0.028580988 0)
(149.73731 -0.62939065 0)
(150.19151 -0.63856827 0)
(150.52679 -0.65071874 0)
(150.88493 -0.66771034 0)
(151.25275 -0.68939182 0)
(151.63534 -0.71554098 0)
(152.03518 -0.74564822 0)
(152.45465 -0.77895478 0)
(152.89555 -0.81443851 0)
(153.35903 -0.85079791 0)
(153.84537 -0.88644313 0)
(154.35378 -0.9195059 0)
(154.88229 -0.94787886 0)
(155.42751 -0.96929282 0)
(155.98462 -0.98143434 0)
(156.54733 -0.98209197 0)
(157.10801 -0.96930451 0)
(157.65794 -0.94147673 0)
(158.18751 -0.8974373 0)
(158.68659 -0.8364356 0)
(159.1447 -0.75809878 0)
(159.55126 -0.66238423 0)
(159.89571 -0.5495644 0)
(160.16768 -0.42027313 0)
(160.35715 -0.27563279 0)
(160.45484 -0.11746556 0)
(160.45266 0.051455905 0)
(160.34441 0.22724737 0)
(160.12644 0.40485111 0)
(159.79881 0.57802693 0)
(159.36602 0.73967546 0)
(158.83745 0.88259976 0)
(158.22715 1.0004421 0)
(157.55295 1.0885492 0)
(156.83495 1.1445155 0)
(156.09391 1.1682846 0)
(155.3497 1.1618527 0)
(154.62012 1.1287167 0)
(153.92022 1.0732374 0)
(153.26198 1.0000515 0)
(152.65442 0.91361126 0)
(152.10387 0.81787437 0)
(151.61443 0.71613796 0)
(151.1885 0.6110125 0)
(150.82718 0.50451567 0)
(150.53034 0.39807553 0)
(150.29671 0.29220659 0)
(150.12702 0.18720671 0)
(150.02928 0.087414492 0)
(149.82985 -0.85840555 0)
(150.27612 -0.86818365 0)
(150.6068 -0.88443323 0)
(150.96012 -0.90797573 0)
(151.32337 -0.93842273 0)
(151.70173 -0.97532363 0)
(152.09787 -1.0179356 0)
(152.51438 -1.0652018 0)
(152.95328 -1.1157091 0)
(153.41593 -1.1676517 0)
(153.90286 -1.2188097 0)
(154.4135 -1.2665562 0)
(154.94605 -1.3079071 0)
(155.49721 -1.3396282 0)
(156.06216 -1.358405 0)
(156.63447 -1.3610609 0)
(157.20627 -1.3447817 0)
(157.7685 -1.3072917 0)
(158.31124 -1.2469368 0)
(158.82401 -1.162671 0)
(159.29605 -1.053977 0)
(159.71652 -0.92077918 0)
(160.07457 -0.76340562 0)
(160.35948 -0.58264406 0)
(160.56079 -0.37992038 0)
(160.66849 -0.15760762 0)
(160.67367 0.080583811 0)
(160.56912 0.32928941 0)
(160.35017 0.58129291 0)
(160.01605 0.82757573 0)
(159.57087 1.0577945 0)
(159.02432 1.2613686 0)
(158.39148 1.4289142 0)
(157.69181 1.5535938 0)
(156.94731 1.631953 0)
(156.18056 1.6640534 0)
(155.41289 1.6529851 0)
(154.66306 1.6040035 0)
(153.9466 1.5235595 0)
(153.27552 1.4184277 0)
(152.65856 1.2950424 0)
(152.1016 1.1590683 0)
(151.60819 1.0151885 0)
(151.18021 0.86707844 0)
(150.81825 0.71749711 0)
(150.52165 0.5683266 0)
(150.28881 0.42059529 0)
(150.12121 0.27534947 0)
(150.02715 0.13502658 0)
(149.93883 -1.081945 0)
(150.37702 -1.0932683 0)
(150.70238 -1.113737 0)
(151.05033 -1.1439471 0)
(151.40856 -1.1833393 0)
(151.78238 -1.2312738 0)
(152.1747 -1.2867876 0)
(152.58834 -1.3485362 0)
(153.0256 -1.4147227 0)
(153.48817 -1.483038 0)
(153.97687 -1.5506215 0)
(154.49147 -1.6140593 0)
(155.03037 -1.669441 0)
(155.59043 -1.7124947 0)
(156.16678 -1.7388161 0)
(156.75281 -1.7441735 0)
(157.3403 -1.7248305 0)
(157.91973 -1.6777988 0)
(158.48068 -1.6009514 0)
(159.01223 -1.4929855 0)
(159.50326 -1.3532852 0)
(159.94259 -1.1817718 0)
(160.31906 -0.97882381 0)
(160.62156 -0.74533463 0)
(160.83899 -0.48294546 0)
(160.96051 -0.19446827 0)
(160.97605 0.11555984 0)
(160.87704 0.44039848 0)
(160.65729 0.77074762 0)
(160.31476 1.0946318 0)
(159.85292 1.3980354 0)
(159.28177 1.6664168 0)
(158.6179 1.8868066 0)
(157.88311 2.0498143 0)
(157.10213 2.1508473 0)
(156.30013 2.1902543 0)
(155.50049 2.1725553 0)
(154.72329 2.1051551 0)
(153.98462 1.9969514 0)
(153.29647 1.8571258 0)
(152.66715 1.6942579 0)
(152.10184 1.5157815 0)
(151.60333 1.3277421 0)
(151.17273 1.1347853 0)
(150.80995 0.94027039 0)
(150.51372 0.74639161 0)
(150.28219 0.55444545 0)
(150.11706 0.36561969 0)
(150.02586 0.18119362 0)
(150.07641 -1.3029446 0)
(150.50463 -1.3163051 0)
(150.82315 -1.3411797 0)
(151.16429 -1.3782799 0)
(151.51616 -1.4269415 0)
(151.88424 -1.4863929 0)
(152.27167 -1.5554896 0)
(152.68158 -1.6326333 0)
(153.11665 -1.7156716 0)
(153.57895 -1.8018093 0)
(154.06975 -1.8875444 0)
(154.58918 -1.9686493 0)
(155.136 -2.0402263 0)
(155.70726 -2.0968676 0)
(156.29809 -2.1329497 0)
(156.9016 -2.1430481 0)
(157.50911 -2.1223901 0)
(158.11046 -2.0672116 0)
(158.6946 -1.9749081 0)
(159.25002 -1.8439549 0)
(159.76514 -1.6736791 0)
(160.22842 -1.4640099 0)
(160.62838 -1.2153314 0)
(160.95344 -0.92852544 0)
(161.19181 -0.60526364 0)
(161.33158 -0.24856935 0)
(161.36118 0.13640802 0)
(161.27023 0.54163954 0)
(161.05043 0.95565329 0)
(160.69788 1.363232 0)
(160.21498 1.7460848 0)
(159.61211 2.0848736 0)
(158.90782 2.3622247 0)
(158.12717 2.5656674 0)
(157.29873 2.6893744 0)
(156.45118 2.7342756 0)
(155.61062 2.7068548 0)
(154.79879 2.6172707 0)
(154.03243 2.477414 0)
(153.32337 2.2992938 0)
(152.67922 2.0939116 0)
(152.10418 1.8706194 0)
(151.59995 1.6368725 0)
(151.16663 1.3982605 0)
(150.80317 1.1586795 0)
(150.50754 0.9205574 0)
(150.27748 0.68523523 0)
(150.11443 0.45354232 0)
(150.02513 0.22567434 0)
(150.24324 -1.5149052 0)
(150.65991 -1.5305982 0)
(150.9701 -1.5601468 0)
(151.30284 -1.6044715 0)
(151.64684 -1.6628344 0)
(152.00773 -1.7343753 0)
(152.38897 -1.8178081 0)
(152.79406 -1.9113188 0)
(153.2261 -2.0124329 0)
(153.68768 -2.117892 0)
(154.18059 -2.2235539 0)
(154.70551 -2.3243485 0)
(155.26164 -2.4143186 0)
(155.84631 -2.4867989 0)
(156.45467 -2.5347811 0)
(157.07953 -2.5514682 0)
(157.71154 -2.5309074 0)
(158.33972 -2.4684959 0)
(158.95216 -2.3611789 0)
(159.53664 -2.2073029 0)
(160.08102 -2.0062435 0)
(160.57343 -1.7580045 0)
(161.00205 -1.4629623 0)
(161.35487 -1.1218723 0)
(161.61938 -0.7362171 0)
(161.7824 -0.30893122 0)
(161.83049 0.15454214 0)
(161.75095 0.64514588 0)
(161.53256 1.1493439 0)
(161.16877 1.6483627 0)
(160.66026 2.1188346 0)
(160.01766 2.5354344 0)
(159.26215 2.8751808 0)
(158.42326 3.121749 0)
(157.53474 3.267946 0)
(156.63003 3.3157114 0)
(155.73872 3.2742385 0)
(154.88457 3.1572467 0)
(154.08494 2.9803132 0)
(153.35128 2.758771 0)
(152.69014 2.5063382 0)
(152.10437 2.2344106 0)
(151.59426 1.9518603 0)
(151.15855 1.6651587 0)
(150.79506 1.3786608 0)
(150.50079 1.094963 0)
(150.27285 0.81536291 0)
(150.11214 0.54029252 0)
(150.02456 0.26916819 0)
(150.43866 -1.7254143 0)
(150.84126 -1.7434571 0)
(151.14149 -1.777701 0)
(151.46419 -1.8293579 0)
(151.79871 -1.8976656 0)
(152.15089 -1.9817313 0)
(152.52452 -2.0801841 0)
(152.92352 -2.1910525 0)
(153.35154 -2.3115949 0)
(153.81177 -2.4381306 0)
(154.30668 -2.565894 0)
(154.83762 -2.6889475 0)
(155.4044 -2.8001939 0)
(156.00479 -2.891556 0)
(156.63396 -2.954416 0)
(157.28436 -2.9803489 0)
(157.94579 -2.962008 0)
(158.60616 -2.8938503 0)
(159.25244 -2.772405 0)
(159.87148 -2.5960169 0)
(160.45057 -2.3642553 0)
(160.9775 -2.077287 0)
(161.44024 -1.7354606 0)
(161.82646 -1.3392467 0)
(162.1229 -0.88963606 0)
(162.31498 -0.38905684 0)
(162.38705 0.15721554 0)
(162.32342 0.73944877 0)
(162.10901 1.3421659 0)
(161.73343 1.9427242 0)
(161.19466 2.5116543 0)
(160.50334 3.0159788 0)
(159.68404 3.425372 0)
(158.7724 3.7185658 0)
(157.80923 3.8868904 0)
(156.83425 3.9339936 0)
(155.88149 3.872889 0)
(154.97703 3.721999 0)
(154.13872 3.5015194 0)
(153.37722 3.2307404 0)
(152.69752 2.9264397 0)
(152.10062 2.6021708 0)
(151.58496 2.2681788 0)
(151.14762 1.9316813 0)
(150.78498 1.5973162 0)
(150.49295 1.267653 0)
(150.26784 0.94374114 0)
(150.10983 0.62551614 0)
(150.02402 0.31173654 0)
(150.6621 -1.921035 0)
(151.0491 -1.9416652 0)
(151.33779 -1.9810098 0)
(151.64871 -2.0405602 0)
(151.97201 -2.119545 0)
(152.31375 -2.2170851 0)
(152.67809 -2.3317846 0)
(153.06946 -2.4615808 0)
(153.49212 -2.6035302 0)
(153.94999 -2.7535832 0)
(154.44639 -2.9063759 0)
(154.98353 -3.0550811 0)
(155.56205 -3.1913679 0)
(156.18029 -3.3055559 0)
(156.83361 -3.3871206 0)
(157.51397 -3.4256551 0)
(158.21008 -3.4121209 0)
(158.90838 -3.3399064 0)
(159.59432 -3.2052051 0)
(160.25364 -3.0065876 0)
(160.87298 -2.7440727 0)
(161.43989 -2.418167 0)
(161.94235 -2.0292166 0)
(162.36789 -1.5772412 0)
(162.70267 -1.0623663 0)
(162.93061 -0.48596195 0)
(163.03342 0.14751103 0)
(162.99177 0.82824973 0)
(162.78543 1.5392457 0)
(162.39856 2.2537454 0)
(161.82491 2.9348978 0)
(161.07453 3.5397262 0)
(160.17638 4.0279947 0)
(159.17452 4.3719056 0)
(158.1194 4.561228 0)
(157.05905 4.6023988 0)
(156.03302 4.5138534 0)
(155.06993 4.3202689 0)
(154.1878 4.0476551 0)
(153.39585 3.7200133 0)
(152.69683 3.3575472 0)
(152.08925 2.9760545 0)
(151.5692 2.5870668 0)
(151.13168 2.1983775 0)
(150.77142 1.8147092 0)
(150.48301 1.4384029 0)
(150.2618 1.0700688 0)
(150.10717 0.70902748 0)
(150.02341 0.3533354 0)
(150.91331 -2.1185557 0)
(151.2814 -2.1416504 0)
(151.55669 -2.1859446 0)
(151.85395 -2.2532985 0)
(152.16416 -2.3429944 0)
(152.49356 -2.4542351 0)
(152.84676 -2.5856804 0)
(153.22872 -2.7352698 0)
(153.6444 -2.8999566 0)
(154.09863 -3.0754118 0)
(154.59572 -3.2557338 0)
(155.13901 -3.4332138 0)
(155.73021 -3.5982088 0)
(156.36853 -3.7392258 0)
(157.04964 -3.8434636 0)
(157.76496 -3.8980572 0)
(158.50177 -3.8918589 0)
(159.24448 -3.8170157 0)
(159.97655 -3.6695231 0)
(160.68228 -3.4485287 0)
(161.34763 -3.1548818 0)
(161.96015 -2.7896823 0)
(162.50809 -2.3533174 0)
(162.97925 -1.8451422 0)
(163.35945 -1.2639223 0)
(163.63118 -0.60922381 0)
(163.77313 0.11621278 0)
(163.76158 0.90342449 0)
(163.56955 1.7345305 0)
(163.17352 2.5786362 0)
(162.56063 3.3900022 0)
(161.73916 4.1123614 0)
(160.7438 4.6917452 0)
(159.63027 5.0915102 0)
(158.46236 5.2999146 0)
(157.29906 5.3279123 0)
(156.18669 5.2017098 0)
(155.15648 4.954361 0)
(154.2259 4.6192032 0)
(153.40179 4.2258081 0)
(152.68372 3.7981403 0)
(152.06691 3.3542269 0)
(151.54449 2.9066801 0)
(151.10898 2.4635851 0)
(150.75315 2.0294584 0)
(150.47014 1.6061464 0)
(150.25423 1.193604 0)
(150.1039 0.79039953 0)
(150.02268 0.39378634 0)
(151.1904 -2.2909129 0)
(151.53857 -2.3166027 0)
(151.79885 -2.3662333 0)
(152.08058 -2.4419965 0)
(152.37573 -2.5432441 0)
(152.69077 -2.6693262 0)
(153.03074 -2.8190499 0)
(153.40118 -2.9904683 0)
(153.80788 -3.1805536 0)
(154.25669 -3.3848148 0)
(154.75315 -3.5968989 0)
(155.30199 -3.8082403 0)
(155.90637 -4.0078044 0)
(156.56672 -4.1820304 0)
(157.27931 -4.3153377 0)
(158.03498 -4.3917024 0)
(158.81909 -4.397217 0)
(159.61329 -4.3224944 0)
(160.39836 -4.163523 0)
(161.15675 -3.920555 0)
(161.87378 -3.5958486 0)
(162.53728 -3.1915 0)
(163.13634 -2.70807 0)
(163.65955 -2.1440656 0)
(164.09288 -1.4963335 0)
(164.41761 -0.76170463 0)
(164.60912 0.060002817 0)
(164.6385 0.96203793 0)
(164.47005 1.9268176 0)
(164.06956 2.9196646 0)
(163.41377 3.8843463 0)
(162.50711 4.7466829 0)
(161.39158 5.4331395 0)
(160.13947 5.8947433 0)
(158.83321 6.1185932 0)
(157.54631 6.1229249 0)
(156.33322 5.9451663 0)
(155.22744 5.6296249 0)
(154.24473 5.2188439 0)
(153.38812 4.7488984 0)
(152.65272 4.2477621 0)
(152.02947 3.735532 0)
(151.50783 3.2255485 0)
(151.07743 2.7257833 0)
(150.72879 2.2401635 0)
(150.45348 1.7697119 0)
(150.24464 1.3134702 0)
(150.09984 0.86907358 0)
(150.02177 0.432824 0)
(151.49488 -2.4738301 0)
(151.81868 -2.5021943 0)
(152.06176 -2.557122 0)
(152.32576 -2.6412482 0)
(152.60359 -2.7540724 0)
(152.90189 -2.8951732 0)
(153.22611 -3.06361 0)
(153.58246 -3.257681 0)
(153.97762 -3.474531 0)
(154.41861 -3.7096668 0)
(154.91248 -3.9564195 0)
(155.46569 -4.2054413 0)
(156.08328 -4.4442723 0)
(156.76748 -4.6570382 0)
(157.5156 -4.8247786 0)
(158.31793 -4.9273737 0)
(159.15731 -4.9472486 0)
(160.01152 -4.8731214 0)
(160.8576 -4.7013773 0)
(161.67561 -4.4342951 0)
(162.45027 -4.0765019 0)
(163.1702 -3.6317301 0)
(163.82601 -3.1009339 0)
(164.40793 -2.4815544 0)
(164.90286 -1.7677743 0)
(165.29128 -0.95237389 0)
(165.54528 -0.030539654 0)
(165.62903 0.99510107 0)
(165.49763 2.1089946 0)
(165.10121 3.2741316 0)
(164.40046 4.4222959 0)
(163.39193 5.4549556 0)
(162.12691 6.2699152 0)
(160.70169 6.8004808 0)
(159.2252 7.0336471 0)
(157.79027 6.9994082 0)
(156.46079 6.7515165 0)
(155.2715 6.3493963 0)
(154.23449 5.8470491 0)
(153.34692 5.2879596 0)
(152.59776 4.7041479 0)
(151.97247 4.1173685 0)
(151.45611 3.5411163 0)
(151.03491 2.982678 0)
(150.69698 2.4448972 0)
(150.43221 1.9275798 0)
(150.23259 1.4285618 0)
(150.09477 0.94434126 0)
(150.02066 0.47010468 0)
(151.82133 -2.6141208 0)
(152.12064 -2.6447196 0)
(152.34496 -2.7047651 0)
(152.58929 -2.797276 0)
(152.8477 -2.9219228 0)
(153.12694 -3.0786066 0)
(153.43291 -3.2667807 0)
(153.77247 -3.4851738 0)
(154.15325 -3.7313298 0)
(154.58366 -4.001004 0)
(155.07248 -4.2874492 0)
(155.62829 -4.5807111 0)
(156.2586 -4.8669665 0)
(156.96817 -5.1278326 0)
(157.7561 -5.3402444 0)
(158.61227 -5.4786368 0)
(159.51614 -5.52031 0)
(160.44004 -5.4513856 0)
(161.35569 -5.2690969 0)
(162.24002 -4.9789613 0)
(163.07733 -4.589185 0)
(163.85785 -4.1058322 0)
(164.57484 -3.5304201 0)
(165.22133 -2.8590823 0)
(165.78638 -2.0825533 0)
(166.25055 -1.1880414 0)
(166.58267 -0.16401133 0)
(166.73946 0.99328121 0)
(166.66434 2.2730271 0)
(166.2866 3.6388129 0)
(165.54196 5.0097698 0)
(164.41178 6.2542249 0)
(162.95889 7.226807 0)
(161.31524 7.834393 0)
(159.62824 8.0664851 0)
(158.01633 7.9721409 0)
(156.55378 7.6290215 0)
(155.27434 7.1167786 0)
(154.18324 6.5034428 0)
(153.26891 5.8406113 0)
(152.51199 5.164004 0)
(151.89109 4.4962427 0)
(151.38602 3.8501051 0)
(150.97927 3.2314173 0)
(150.65638 2.6413187 0)
(150.40553 2.0779341 0)
(150.21767 1.5375682 0)
(150.08855 1.0153607 0)
(150.01929 0.50521705 0)
(152.17453 -2.7815717 0)
(152.44359 -2.8153144 0)
(152.64663 -2.8812168 0)
(152.86876 -2.9828107 0)
(153.10504 -3.120034 0)
(153.36223 -3.2932131 0)
(153.64662 -3.5023299 0)
(153.96566 -3.7467179 0)
(154.32803 -4.0245387 0)
(154.74363 -4.3320515 0)
(155.22331 -4.6626778 0)
(155.77825 -5.0060382 0)
(156.41911 -5.3470172 0)
(157.15429 -5.6645259 0)
(157.98587 -5.9304652 0)
(158.90388 -6.1118385 0)
(159.88336 -6.1785131 0)
(160.88881 -6.1129213 0)
(161.8843 -5.9140435 0)
(162.84257 -5.5928953 0)
(163.74791 -5.1635886 0)
(164.59334 -4.636027 0)
(165.37603 -4.0130116 0)
(166.09336 -3.2895581 0)
(166.73813 -2.4523195 0)
(167.29231 -1.4809634 0)
(167.72193 -0.35411193 0)
(167.97584 0.94194723 0)
(167.98408 2.4052632 0)
(167.64871 4.0054526 0)
(166.86709 5.6507832 0)
(165.59208 7.1650103 0)
(163.89981 8.3359585 0)
(161.97673 9.0292687 0)
(160.02758 9.2430449 0)
(158.20448 9.0574022 0)
(156.59188 8.5852278 0)
(155.21819 7.9329798 0)
(154.07686 7.185393 0)
(153.14357 6.4023499 0)
(152.38798 5.6222699 0)
(151.78028 4.8673009 0)
(151.29429 4.1482466 0)
(150.90846 3.4684576 0)
(150.60574 2.8266187 0)
(150.37276 2.2186508 0)
(150.19952 1.6389806 0)
(150.08104 1.0811694 0)
(150.01763 0.53769139 0)
(152.54165 -2.8797856 0)
(152.78137 -2.9149265 0)
(152.96163 -2.9850642 0)
(153.15958 -3.0941194 0)
(153.37146 -3.242288 0)
(153.60402 -3.4304067 0)
(153.86384 -3.6591451 0)
(154.15897 -3.9286852 0)
(154.49913 -4.2381527 0)
(154.89587 -4.5847661 0)
(155.36241 -4.9626374 0)
(155.91303 -5.3614669 0)
(156.56236 -5.765309 0)
(157.32381 -6.150654 0)
(158.20439 -6.4837404 0)
(159.19533 -6.7217269 0)
(160.26577 -6.82373 0)
(161.36862 -6.7668804 0)
(162.45656 -6.5533408 0)
(163.49641 -6.2029182 0)
(164.47317 -5.7385337 0)
(165.38455 -5.1749763 0)
(166.23367 -4.5159225 0)
(167.02428 -3.7543733 0)
(167.75562 -2.8714233 0)
(168.41358 -1.8363462 0)
(168.96256 -0.61397741 0)
(169.34338 0.82332022 0)
(169.4721 2.4868376 0)
(169.21639 4.3601484 0)
(168.41538 6.3472125 0)
(166.96911 8.2137859 0)
(164.96635 9.6419087 0)
(162.67957 10.429105 0)
(160.40128 10.595991 0)
(158.32701 10.273468 0)
(156.54865 9.626582 0)
(155.0812 8.7966699 0)
(153.89887 7.8874408 0)
(152.95929 6.9661541 0)
(152.21795 6.0718913 0)
(151.63505 5.224225 0)
(151.17782 4.4302518 0)
(150.82063 3.6895723 0)
(150.54402 2.997546 0)
(150.33334 2.3473273 0)
(150.17788 1.73112 0)
(150.07212 1.1407065 0)
(150.01568 0.56701206 0)
(152.93685 -3.0310435 0)
(153.14035 -3.0701336 0)
(153.29527 -3.1468491 0)
(153.4665 -3.2656782 0)
(153.6512 -3.4272487 0)
(153.85584 -3.6331114 0)
(154.08712 -3.8848785 0)
(154.35355 -4.1838934 0)
(154.66579 -4.5306346 0)
(155.03707 -4.9237619 0)
(155.48327 -5.3586038 0)
(156.02226 -5.8253775 0)
(156.6735 -6.3076339 0)
(157.45728 -6.779653 0)
(158.38857 -7.2010494 0)
(159.46215 -7.5150514 0)
(160.63975 -7.6636464 0)
(161.85719 -7.6147633 0)
(163.05015 -7.3751565 0)
(164.1775 -6.9782856 0)
(165.22679 -6.4606759 0)
(166.20377 -5.8443178 0)
(167.12005 -5.1346443 0)
(167.98799 -4.3240892 0)
(168.81614 -3.3898487 0)
(169.59729 -2.2901583 0)
(170.29538 -0.97237001 0)
(170.84306 0.61046977 0)
(171.14362 2.4900594 0)
(171.02513 4.6786353 0)
(170.24147 7.0944359 0)
(168.5962 9.4336367 0)
(166.18212 11.207738 0)
(163.41164 12.093568 0)
(160.71656 12.166183 0)
(158.34559 11.639699 0)
(156.3899 10.756654 0)
(154.83685 9.7022647 0)
(153.63057 8.6000194 0)
(152.70373 7.5216755 0)
(151.9942 6.5033813 0)
(151.45081 5.5590375 0)
(151.03401 4.6897576 0)
(150.71437 3.8898693 0)
(150.47051 3.1504529 0)
(150.2869 2.4613334 0)
(150.1526 1.8121811 0)
(150.06175 1.1928443 0)
(150.01342 0.5926339 0)
(153.33154 -3.0767959 0)
(153.50063 -3.1160256 0)
(153.62867 -3.1954125 0)
(153.771 -3.3198076 0)
(153.92585 -3.4901459 0)
(154.09932 -3.708638 0)
(154.29814 -3.9778374 0)
(154.53113 -4.3003314 0)
(154.8098 -4.6781797 0)
(155.14915 -5.1119536 0)
(155.56803 -5.598942 0)
(156.08857 -6.1307506 0)
(156.736 -6.6914176 0)
(157.53969 -7.2544722 0)
(158.52733 -7.7736704 0)
(159.70184 -8.1744955 0)
(161.01579 -8.3733922 0)
(162.37892 -8.3246047 0)
(163.70028 -8.0442856 0)
(164.92687 -7.5895654 0)
(166.05129 -7.019546 0)
(167.09189 -6.3664077 0)
(168.07145 -5.6361278 0)
(169.01254 -4.819026 0)
(169.93717 -3.886524 0)
(170.85109 -2.7791357 0)
(171.72219 -1.4149703 0)
(172.47732 0.28397959 0)
(173.01227 2.3776314 0)
(173.11588 4.9213686 0)
(172.42043 7.8764491 0)
(170.55386 10.866666 0)
(167.58169 13.12734 0)
(164.1507 14.105475 0)
(160.92378 14.004784 0)
(158.20691 13.174942 0)
(156.07179 11.973565 0)
(154.45373 10.637721 0)
(153.25148 9.307997 0)
(152.36451 8.0544464 0)
(151.70972 6.9044801 0)
(151.22388 5.8620199 0)
(150.86107 4.9193709 0)
(150.58893 4.0638813 0)
(150.38492 3.2813908 0)
(150.2334 2.5578941 0)
(150.12367 1.8802963 0)
(150.04994 1.2364319 0)
(150.01084 0.61400387 0)
(153.75555 -3.2104983 0)
(153.88253 -3.2554062 0)
(153.98148 -3.3424404 0)
(154.09283 -3.4770346 0)
(154.21554 -3.6606954 0)
(154.355 -3.8966868 0)
(154.51765 -4.1890376 0)
(154.71233 -4.5422907 0)
(154.95102 -4.961022 0)
(155.25014 -5.4489633 0)
(155.6315 -6.0069591 0)
(156.12178 -6.6296216 0)
(156.75248 -7.3028175 0)
(157.56404 -8.0011526 0)
(158.60353 -8.6740474 0)
(159.89062 -9.2230987 0)
(161.36788 -9.5217821 0)
(162.90484 -9.4973194 0)
(164.36889 -9.177969 0)
(165.69034 -8.6553561 0)
(166.8732 -8.0210062 0)
(167.9584 -7.3170772 0)
(168.98534 -6.5444136 0)
(169.98928 -5.6891499 0)
(171.01188 -4.7216586 0)
(172.08138 -3.5676661 0)
(173.17402 -2.1155147 0)
(174.20848 -0.25766328 0)
(175.06635 2.0891709 0)
(175.5245 5.0320934 0)
(175.04936 8.6560336 0)
(172.96264 12.558896 0)
(169.21562 15.541459 0)
(164.85477 16.579626 0)
(160.9469 16.174616 0)
(157.83674 14.893769 0)
(155.53888 13.265605 0)
(153.89576 11.581314 0)
(152.74051 9.9888251 0)
(151.93044 8.545039 0)
(151.35923 7.2599075 0)
(150.95216 6.1217554 0)
(150.6585 5.1108212 0)
(150.44443 4.2057378 0)
(150.28759 3.3862626 0)
(150.17313 2.6342091 0)
(150.0913 1.9336211 0)
(150.03677 1.2703491 0)
(150.00798 0.63058783 0)
(154.13588 -3.1946539 0)
(154.22215 -3.2378595 0)
(154.29017 -3.3244786 0)
(154.36782 -3.4608541 0)
(154.45481 -3.6490431 0)
(154.55554 -3.8932552 0)
(154.67588 -4.1987789 0)
(154.82428 -4.5718062 0)
(155.01278 -5.0190605 0)
(155.25883 -5.5471532 0)
(155.58735 -6.1605668 0)
(156.03041 -6.8572609 0)
(156.62658 -7.6251153 0)
(157.42946 -8.4415733 0)
(158.51546 -9.2567443 0)
(159.93802 -9.9452271 0)
(161.63213 -10.313461 0)
(163.40414 -10.244009 0)
(165.05386 -9.79262 0)
(166.48639 -9.1125412 0)
(167.72728 -8.3538539 0)
(168.85533 -7.5752513 0)
(169.93077 -6.7698751 0)
(170.99666 -5.9228843 0)
(172.11545 -5.0184797 0)
(173.34784 -3.9703261 0)
(174.68424 -2.6196208 0)
(176.03302 -0.79609921 0)
(177.28244 1.6461154 0)
(178.24513 4.9155062 0)
(178.21516 9.3274435 0)
(175.98313 14.53513 0)
(171.15304 18.674858 0)
(165.44365 19.68574 0)
(160.66928 18.75359 0)
(157.1323 16.799872 0)
(154.72276 14.604384 0)
(153.12361 12.4973 0)
(152.07798 10.610463 0)
(151.39327 8.9683904 0)
(150.94037 7.5513746 0)
(150.63597 6.3253981 0)
(150.42752 5.2552764 0)
(150.28222 4.3094427 0)
(150.1796 3.4610384 0)
(150.10684 2.6876092 0)
(150.05591 1.9704404 0)
(150.02242 1.2935726 0)
(150.00486 0.64190198 0)
(154.44901 -3.3022122 0)
(154.48535 -3.3566505 0)
(154.51849 -3.4545376 0)
(154.55818 -3.6032976 0)
(154.6047 -3.8054344 0)
(154.66119 -4.0662405 0)
(154.73268 -4.3925763 0)
(154.82691 -4.792943 0)
(154.95541 -5.2774263 0)
(155.13589 -5.8576582 0)
(155.39569 -6.5455033 0)
(155.77227 -7.3477699 0)
(156.31044 -8.2601277 0)
(157.0755 -9.2698447 0)
(158.18302 -10.341611 0)
(159.74862 -11.327879 0)
(161.70925 -11.924515 0)
(163.76876 -11.919143 0)
(165.61611 -11.407531 0)
(167.11982 -10.628421 0)
(168.34705 -9.821815 0)
(169.44331 -9.0580788 0)
(170.49726 -8.3000595 0)
(171.55049 -7.5094722 0)
(172.69277 -6.6868172 0)
(174.04826 -5.7211682 0)
(175.64993 -4.3715123 0)
(177.40824 -2.37621 0)
(179.22622 0.47498115 0)
(181.00114 4.3266821 0)
(181.86804 9.7701475 0)
(179.76979 16.835965 0)
(173.45918 22.958939 0)
(165.74657 23.68405 0)
(159.90426 21.828351 0)
(155.95021 18.869698 0)
(153.54172 15.933144 0)
(152.0982 13.330122 0)
(151.24926 11.129318 0)
(150.75034 9.2935807 0)
(150.45539 7.7580464 0)
(150.27892 6.459271 0)
(150.17159 5.3438671 0)
(150.10503 4.3692734 0)
(150.0629 3.5020384 0)
(150.03575 2.715747 0)
(150.01815 1.989292 0)
(150.00717 1.3052494 0)
(150.00155 0.64754759 0)
(154.38515 -3.2263815 0)
(154.36087 -3.2763215 0)
(154.35192 -3.3656359 0)
(154.34531 -3.5056499 0)
(154.34192 -3.7001578 0)
(154.34297 -3.9560689 0)
(154.35185 -4.2822305 0)
(154.37448 -4.6898539 0)
(154.42033 -5.192696 0)
(154.50512 -5.8074795 0)
(154.65631 -6.5534846 0)
(154.91601 -7.446427 0)
(155.33486 -8.4871215 0)
(155.9862 -9.6664682 0)
(157.03617 -10.969789 0)
(158.71797 -12.239238 0)
(161.00745 -12.99054 0)
(163.44202 -12.819488 0)
(165.52442 -11.932308 0)
(167.06692 -10.721982 0)
(168.21035 -9.6090202 0)
(169.22024 -8.6685182 0)
(170.23042 -7.7971832 0)
(171.25957 -6.8997633 0)
(172.42063 -6.0542196 0)
(173.9377 -5.1961702 0)
(175.90369 -4.010317 0)
(178.21031 -2.1967872 0)
(180.68155 0.51387187 0)
(183.37369 4.0150972 0)
(185.59575 9.851082 0)
(184.21859 19.141262 0)
(175.99483 28.86279 0)
(165.32574 28.721299 0)
(158.34148 25.418966 0)
(154.09608 21.01838 0)
(151.90626 17.149472 0)
(150.78837 13.997944 0)
(150.25053 11.489034 0)
(150.00812 9.4846126 0)
(149.91301 7.8577429 0)
(149.88887 6.509914 0)
(149.8968 5.3684556 0)
(149.91719 4.3803024 0)
(149.94032 3.5062726 0)
(149.96157 2.7168132 0)
(149.97892 1.9890987 0)
(149.99135 1.3047729 0)
(149.99812 0.64724638 0)
(153.47546 -3.2561148 0)
(153.3769 -3.3298417 0)
(153.30963 -3.4386609 0)
(153.23667 -3.5987825 0)
(153.16051 -3.8142948 0)
(153.08003 -4.0930066 0)
(152.99633 -4.4447117 0)
(152.91263 -4.8820368 0)
(152.83528 -5.420914 0)
(152.77643 -6.0816188 0)
(152.76186 -6.8905191 0)
(152.83873 -7.8765046 0)
(153.06503 -9.0554643 0)
(153.51246 -10.434197 0)
(154.39391 -12.057168 0)
(156.14045 -13.846414 0)
(158.84955 -15.094633 0)
(161.75855 -14.978393 0)
(164.04105 -13.952487 0)
(165.43457 -12.559282 0)
(166.22814 -11.492119 0)
(166.92115 -10.756103 0)
(167.71755 -10.149667 0)
(168.53775 -9.4732013 0)
(169.45607 -9.018312 0)
(170.86732 -8.8484494 0)
(172.96947 -8.2921571 0)
(175.65798 -7.042937 0)
(178.57235 -4.4765516 0)
(182.42944 -0.72726632 0)
(187.15856 7.2308115 0)
(188.24573 20.228545 0)
(177.92827 36.681156 0)
(163.24708 34.969344 0)
(155.59476 29.536172 0)
(151.35123 23.102896 0)
(149.7367 18.092384 0)
(149.18482 14.388341 0)
(149.09724 11.621694 0)
(149.18649 9.503005 0)
(149.33032 7.8292109 0)
(149.47859 6.4656738 0)
(149.61205 5.3226502 0)
(149.72459 4.3390177 0)
(149.81557 3.4718131 0)
(149.88647 2.6897567 0)
(149.93934 1.9692983 0)
(149.97543 1.2918548 0)
(149.99467 0.64087311 0)
(150.2785 -3.1552324 0)
(150.03186 -3.2213109 0)
(149.86052 -3.3059782 0)
(149.67243 -3.4358078 0)
(149.47235 -3.6160166 0)
(149.25547 -3.8554323 0)
(149.01932 -4.1649162 0)
(148.76251 -4.5592394 0)
(148.48538 -5.058433 0)
(148.19166 -5.6900655 0)
(147.89684 -6.4944726 0)
(147.64234 -7.527832 0)
(147.48309 -8.8432469 0)
(147.45908 -10.471347 0)
(147.78382 -12.507597 0)
(149.20302 -15.035417 0)
(152.18252 -17.053638 0)
(155.4311 -16.589364 0)
(157.58593 -14.746371 0)
(158.33634 -12.183904 0)
(158.23481 -10.348953 0)
(158.1691 -9.1905246 0)
(158.40416 -8.4354574 0)
(158.60281 -7.5250287 0)
(158.71902 -7.0239545 0)
(159.66787 -7.0176903 0)
(161.78131 -5.9948706 0)
(164.9498 -4.8736405 0)
(168.6835 -1.9567822 0)
(175.0622 4.1667846 0)
(184.047 12.175476 0)
(189.65411 24.095514 0)
(176.92328 49.629453 0)
(157.5456 45.387966 0)
(150.91441 34.317665 0)
(147.40326 24.79318 0)
(146.95733 18.4912 0)
(147.31609 14.350026 0)
(147.83444 11.452235 0)
(148.32309 9.3130038 0)
(148.73402 7.6557196 0)
(149.06589 6.3188352 0)
(149.32882 5.2029969 0)
(149.53445 4.2439768 0)
(149.69303 3.3981528 0)
(149.81295 2.6344836 0)
(149.90068 1.9299518 0)
(149.95989 1.2665831 0)
(149.99131 0.62848147 0)
(143.50986 -2.9198086 0)
(143.10985 -3.0121765 0)
(142.79969 -3.1137093 0)
(142.45147 -3.2633154 0)
(142.07689 -3.4659104 0)
(141.66674 -3.7316324 0)
(141.21294 -4.0728015 0)
(140.70612 -4.5065829 0)
(140.1359 -5.0567441 0)
(139.49031 -5.7559898 0)
(138.7627 -6.6519962 0)
(137.97559 -7.815753 0)
(137.18241 -9.3208359 0)
(136.39297 -11.178181 0)
(135.76023 -13.444446 0)
(136.50409 -16.540766 0)
(140.14389 -19.656667 0)
(144.25774 -18.174354 0)
(146.43851 -15.44688 0)
(146.26462 -11.967747 0)
(144.63883 -10.769076 0)
(143.25544 -10.901183 0)
(142.63892 -11.371018 0)
(142.04354 -10.885407 0)
(141.1661 -10.369299 0)
(141.99207 -10.532134 9.2158416e-18)
(143.27253 -11.921934 -2.0395104e-19)
(145.57749 -13.589686 0)
(146.6649 -7.4755707 1.0016142e-17)
(144.02823 -14.510058 -7.499108e-18)
(161.53019 -10.135076 4.4273501e-18)
(180.41251 5.4383763 -9.8916451e-18)
(167.93183 72.289684 6.3473299e-18)
(142.12827 58.029427 0)
(140.66653 37.12632 0)
(141.63429 24.707053 0)
(143.57068 17.830878 0)
(145.29833 13.692727 0)
(146.55469 10.912922 0)
(147.47727 8.8913692 0)
(148.16032 7.3301948 0)
(148.67269 6.0681161 0)
(149.06042 5.0101697 0)
(149.35481 4.0963776 0)
(149.57745 3.2864843 0)
(149.74366 2.5519948 0)
(149.86425 1.8718132 0)
(149.94526 1.2294563 0)
(149.98814 0.61031863 0)
(129.54818 -2.8692902 0)
(128.76432 -2.9446323 0)
(128.16065 -3.0084712 0)
(127.48641 -3.1099851 0)
(126.76153 -3.2510977 0)
(125.96697 -3.4389826 0)