/*--------------------------------*- C++ -*----------------------------------*\
| =========                 |                                                 |
| \\      /  F ield         | foam-extend: Open Source CFD                    |
|  \\    /   O peration     | Version:     4.1                                |
|   \\  /    A nd           | Web:         http://www.foam-extend.org         |
|    \\/     M anipulation  |                                                 |
\*---------------------------------------------------------------------------*/
FoamFile
{
    version     2.0;
    format      ascii;
    class       regIOobject;
    location    "0.6/uniform";
    object      profilingInfo;
}
// * * * * * * * * * * * * * * * * * * * * * * * * * * * * * * * * * * * * * //

profilingInfo
(

    {
        id              16;
        parentId        11;
        description     "Foam::Time::writeObject - outputTime";
        calls           6;
        totalTime       0.074692;
        childTime       0;
        onStack         1;
    }

    {
        id              11;
        parentId        1;
        description     "Foam::Time::writeObject";
        calls           1200;
        totalTime       0.076051;
        childTime       0.074692;
        onStack         1;
    }

    {
        id              1;
        description     "application::main";
        calls           1;
        totalTime       21.091832;
        childTime       16.801156;
        onStack         1;
    }

    {
        id              13;
        parentId        1;
        description     "FO::forceCoeffs::execute";
        calls           1199;
        totalTime       0.457722;
        childTime       0;
        onStack         0;
    }

    {
        id              12;
        parentId        1;
        description     "FO::forces::execute";
        calls           1199;
        totalTime       0.425155;
        childTime       0;
        onStack         0;
    }

    {
        id              14;
        parentId        1;
        description     "FO::pressureTools1::execute";
        calls           1199;
        totalTime       0.002451;
        childTime       0;
        onStack         0;
    }

    {
        id              15;
        parentId        1;
        description     "FO::probes::execute";
        calls           1199;
        totalTime       0.087863;
        childTime       0;
        onStack         0;
    }

    {
        id              2;
        parentId        1;
        description     "functionObjectList::read";
        calls           1;
        totalTime       0.002433;
        childTime       0;
        onStack         0;
    }

    {
        id              3;
        parentId        1;
        description     "fvMatrix::solve_U";
        calls           1200;
        totalTime       1.760808;
        childTime       1.631886;
        onStack         0;
    }

    {
        id              8;
        parentId        1;
        description     "fvMatrix::solve_p";
        calls           4800;
        totalTime       13.988673;
        childTime       13.697207;
        onStack         0;
    }

    {
        id              5;
        parentId        4;
        description     "lduMatrix::smoother_Ux";
        calls           1200;
        totalTime       0.681918;
        childTime       0;
        onStack         0;
    }

    {
        id              7;
        parentId        6;
        description     "lduMatrix::smoother_Uy";
        calls           1200;
        totalTime       0.798308;
        childTime       0;
        onStack         0;
    }

    {
        id              4;
        parentId        3;
        description     "lduMatrix::solver_Ux";
        calls           1200;
        totalTime       0.759414;
        childTime       0.681918;
        onStack         0;
    }

    {
        id              6;
        parentId        3;
        description     "lduMatrix::solver_Uy";
        calls           1200;
        totalTime       0.872472;
        childTime       0.798308;
        onStack         0;
    }

    {
        id              9;
        parentId        8;
        description     "lduMatrix::solver_p";
        calls           4800;
        totalTime       13.697207;
        childTime       0.243844;
        onStack         0;
    }

    {
        id              10;
        parentId        9;
        description     "lduMatrix::solver_topLevelCorr";
        calls           48520;
        totalTime       0.243844;
        childTime       0;
        onStack         0;
    }
);


// ************************************************************************* //
