/*--------------------------------*- C++ -*----------------------------------*\
| =========                 |                                                 |
| \\      /  F ield         | foam-extend: Open Source CFD                    |
|  \\    /   O peration     | Version:     4.1                                |
|   \\  /    A nd           | Web:         http://www.foam-extend.org         |
|    \\/     M anipulation  |                                                 |
\*---------------------------------------------------------------------------*/
FoamFile
{
    version     2.0;
    format      ascii;
    class       volScalarField;
    location    "2.3";
    object      p;
}
// * * * * * * * * * * * * * * * * * * * * * * * * * * * * * * * * * * * * * //

dimensions      [0 2 -2 0 0 0 0];

internalField   nonuniform List<scalar> 
16126
(
-9.9209245e-05
-0.00042343914
-0.00083515852
-0.001096614
-0.0015901162
-0.0018928691
-0.0024171726
-0.0027992083
-0.0033513103
-0.0038205253
-0.0044125463
-0.0049682055
-0.0056134859
-0.0062535562
-0.0069622509
-0.0076847174
-0.0084628248
-0.0092652126
-0.01011478
-0.010993203
-0.011911843
-0.012859515
-0.013841199
-0.014849385
-0.01588639
-0.016945283
-0.018024685
-0.019121749
-0.020237956
-0.021369058
-0.022512658
-0.023669534
-0.024838515
-0.026017025
-0.027202886
-0.028394096
-0.029587975
-0.030782043
-0.031973235
-0.033158452
-0.034334077
-0.035496222
-0.036640491
-0.037762037
-0.038855485
-0.039914924
-0.040933911
-0.041905467
-0.042822129
-0.043675984
-0.044458754
-0.045161864
-0.045776559
-0.046294
-0.046705382
-0.047002057
-0.047175641
-0.04721813
-0.047122
-0.046880301
-0.046486727
-0.045935701
-0.045222414
-0.044342889
-0.043294005
-0.042073552
-0.040680236
-0.039113726
-0.037374661
-0.035464689
-0.033386453
-0.031143637
-0.028740918
-0.026184009
-0.023479577
-0.020635273
-0.01765959
-0.014561906
-0.011352263
-0.0080414199
-0.0046405736
-0.0011614153
0.002384201
0.0059841785
0.0096265478
0.013299367
0.016991087
0.020690458
0.02438683
0.028070114
0.031730933
0.035360742
0.038951652
0.04249695
0.045990256
0.049426934
0.052801855
0.056112776
0.059355186
0.062529934
0.065631915
0.06866694
0.071627246
0.074528567
0.07735714
0.080151233
0.082885422
0.085650818
0.088398475
0.091340695
0.094370785
0.097967398
0.10185125
0.10706742
0.11278995
0.12129601
0.13008673
0.14445835
0.15692026
0.18172724
0.19532307
0.24565952
0.24183315
0.4108648
-0.00010107659
-0.00042892694
-0.00085525887
-0.0011112633
-0.0016127395
-0.0019144252
-0.002442746
-0.0028259943
-0.0033804218
-0.0038514439
-0.0044450546
-0.0050024102
-0.0056489033
-0.0062904099
-0.007000149
-0.0077238133
-0.0085025832
-0.0093054223
-0.010154487
-0.011031881
-0.01194885
-0.012895131
-0.013875762
-0.014881513
-0.015913471
-0.016965988
-0.018043446
-0.019140777
-0.020243387
-0.021358925
-0.02249768
-0.023648122
-0.024808561
-0.025978567
-0.027155665
-0.028337992
-0.029522797
-0.030707631
-0.031889451
-0.033065196
-0.034231289
-0.035383877
-0.036518599
-0.037630639
-0.038714655
-0.039764764
-0.040774552
-0.041737071
-0.042644891
-0.043490137
-0.04426457
-0.044959667
-0.045566727
-0.046076973
-0.046481673
-0.046772254
-0.046940412
-0.046978227
-0.046878257
-0.046633628
-0.046238104
-0.045686164
-0.04497304
-0.044094778
-0.043048259
-0.041831252
-0.040442418
-0.038881362
-0.037148634
-0.035245776
-0.033175307
-0.030940772
-0.028546699
-0.025998643
-0.023303106
-0.020467569
-0.017500357
-0.014410677
-0.011208404
-0.0079041287
-0.0045088872
-0.001034213
0.0025081953
0.006106387
0.0097485348
0.01342283
0.017117861
0.020822506
0.024526261
0.028219178
0.031892051
0.035536516
0.039144918
0.042710797
0.046228121
0.049692623
0.053099714
0.056447712
0.059732969
0.062957173
0.066116596
0.069218218
0.072256426
0.075248331
0.078183367
0.081100724
0.083979436
0.086909112
0.089846782
0.092996266
0.096259979
0.10009216
0.10423364
0.10967191
0.11563902
0.12427808
0.13326581
0.14752259
0.16014959
0.18378192
0.19801233
0.23821841
0.24620836
0.30615068
-0.00011877291
-0.0003977906
-0.00087094169
-0.0010943865
-0.0016153344
-0.0019033933
-0.0024368789
-0.0028152345
-0.0033695588
-0.0038388951
-0.004430982
-0.0049876157
-0.0056323686
-0.0062730876
-0.0069808043
-0.0077029412
-0.0084794832
-0.0092806503
-0.010128631
-0.011006007
-0.011923054
-0.012868311
-0.01384501
-0.014847923
-0.015882058
-0.016940178
-0.018010401
-0.019087827
-0.020198527
-0.021331709
-0.022469706
-0.023620154
-0.024780817
-0.025950993
-0.027128389
-0.028311086
-0.029496465
-0.030682088
-0.031864987
-0.033042137
-0.034210019
-0.035364816
-0.036502217
-0.037617434
-0.038705153
-0.039759505
-0.04077408
-0.04174192
-0.042655573
-0.043507129
-0.044288305
-0.044990519
-0.045605006
-0.046122916
-0.046535437
-0.046833915
-0.047009963
-0.047055577
-0.046963231
-0.04672597
-0.046337477
-0.045792155
-0.045085157
-0.044212456
-0.043170858
-0.041958061
-0.040572656
-0.03901418
-0.037283119
-0.035380958
-0.033310159
-0.031074227
-0.028677654
-0.026125971
-0.023425668
-0.020584233
-0.017610004
-0.014512225
-0.011300811
-0.0079864222
-0.0045801624
-0.0010936607
0.0024612895
0.0060726219
0.0097284122
0.013416735
0.017126088
0.020845235
0.024563585
0.028271082
0.031958445
0.035617193
0.039239602
0.042819073
0.046349515
0.049826486
0.05324539
0.056604298
0.059899687
0.063132907
0.066300763
0.069409882
0.072456304
0.075456987
0.078405719
0.081342002
0.084254884
0.087234034
0.090256567
0.093520527
0.096963135
0.10100661
0.10544574
0.11115641
0.1174646
0.12620655
0.13531778
0.14893129
0.16114415
0.18224466
0.19614044
0.22930287
0.24237088
0.286091
-0.00019540304
-0.00036189956
-0.00092241275
-0.0010916658
-0.0016471199
-0.0019145233
-0.0024589216
-0.0028302758
-0.0033864084
-0.0038530826
-0.004443525
-0.0049981679
-0.0056399073
-0.0062784018
-0.0069831011
-0.0077035341
-0.0084774223
-0.0092764724
-0.010119714
-0.010991041
-0.011899321
-0.012838216
-0.01381445
-0.014815932
-0.015836975
-0.016867192
-0.017933485
-0.019036074
-0.020144705
-0.021261081
-0.022393016
-0.023536596
-0.024690857
-0.025854509
-0.027025443
-0.028201872
-0.029381252
-0.030561242
-0.03173895
-0.03291143
-0.034075244
-0.035226642
-0.036361388
-0.037474751
-0.038561475
-0.039615737
-0.040631163
-0.041600826
-0.042517288
-0.043372651
-0.044158629
-0.044866629
-0.045487866
-0.046013462
-0.046434564
-0.046742468
-0.046928728
-0.046985265
-0.04690447
-0.046679286
-0.046303281
-0.045770727
-0.045076629
-0.044216798
-0.04318786
-0.041987325
-0.040613582
-0.03906596
-0.037344736
-0.035451183
-0.033387558
-0.031157171
-0.028764326
-0.026214392
-0.023513704
-0.02066963
-0.0176904
-0.014585183
-0.01136384
-0.0080370074
-0.0046157801
-0.0011118141
0.0024630853
0.0060967915
0.0097773232
0.01349266
0.017231233
0.020981707
0.024733461
0.028476383
0.032201237
0.035899581
0.039563885
0.043187747
0.046765518
0.050293149
0.053766823
0.057185293
0.060546409
0.063852611
0.06710302
0.070305769
0.07346069
0.076586314
0.079682333
0.082788454
0.085902291
0.089108198
0.092394899
0.095939764
0.099696243
0.10403031
0.10876758
0.1146526
0.12109889
0.12964513
0.13851608
0.15108293
0.1624447
0.18042212
0.1927575
0.21643076
0.22748936
0.24555757
-0.00034656828
-0.00030170492
-0.00099206372
-0.0010730429
-0.0016750559
-0.0019074352
-0.0024643169
-0.0028212412
-0.0033773119
-0.0038368291
-0.0044231133
-0.0049728431
-0.0056091476
-0.0062426395
-0.0069402576
-0.0076529152
-0.0084171597
-0.009205646
-0.010040169
-0.010906097
-0.01181208
-0.012745221
-0.013700375
-0.014675594
-0.01569303
-0.016751688
-0.017824603
-0.018903415
-0.020004023
-0.021121604
-0.022250914
-0.023392871
-0.02454546
-0.025707929
-0.026878295
-0.028054865
-0.02923529
-0.030417302
-0.031598142
-0.032774933
-0.033944333
-0.035102651
-0.036245727
-0.037368875
-0.038466887
-0.039533967
-0.040563761
-0.041549339
-0.042483247
-0.043357548
-0.044163897
-0.04489362
-0.045537825
-0.046087499
-0.04653363
-0.046867326
-0.047079927
-0.047163111
-0.047109
-0.046910248
-0.046560112
-0.046052537
-0.045382194
-0.044544552
-0.043535896
-0.042353406
-0.04099515
-0.039460161
-0.03774844
-0.035861019
-0.033799943
-0.031568355
-0.029170425
-0.026611439
-0.023897687
-0.021036544
-0.018036281
-0.014906176
-0.011656211
-0.0082972316
-0.0048405283
-0.0012980501
0.0023180984
0.0059954177
0.0097216154
0.013484292
0.01727158
0.021071788
0.024874006
0.028667806
0.032443742
0.036193096
0.039908202
0.043582431
0.0472101
0.050787033
0.054309628
0.057776635
0.061186433
0.06454155
0.06784229
0.071096992
0.07430792
0.077493844
0.080659183
0.08384321
0.087052049
0.090366119
0.093787996
0.097479142
0.10141385
0.10590959
0.11082661
0.11678562
0.12328585
0.13157881
0.14017738
0.15176741
0.16244635
0.17816036
0.18987951
0.20918725
0.22049604
0.23280682
-0.00058259631
-0.00023470538
-0.0010978879
-0.0010652173
-0.0017273722
-0.0019165843
-0.0024907592
-0.0028298218
-0.0033867941
-0.0038362463
-0.0044165232
-0.0049571012
-0.0055835918
-0.0062065647
-0.0068934405
-0.0075976108
-0.0083532298
-0.0091354805
-0.0099585757
-0.010807369
-0.011683124
-0.012590064
-0.013549275
-0.014542365
-0.015554996
-0.01658034
-0.017631949
-0.018707838
-0.019799136
-0.020904311
-0.022024302
-0.023157273
-0.024302256
-0.025458014
-0.026622803
-0.027795003
-0.028972409
-0.030152869
-0.031333744
-0.032512249
-0.033685139
-0.034848797
-0.035999143
-0.037131549
-0.038240865
-0.039321334
-0.040366639
-0.041369866
-0.042323565
-0.043219783
-0.044050137
-0.044805887
-0.045478045
-0.046057471
-0.046534981
-0.046901477
-0.047148043
-0.04726606
-0.047247312
-0.047084071
-0.046769176
-0.046296127
-0.04565912
-0.044853144
-0.043873992
-0.042718357
-0.041383838
-0.03986902
-0.038173486
-0.036297892
-0.034243952
-0.032014528
-0.029613564
-0.027046185
-0.024318567
-0.021438053
-0.018412928
-0.015252563
-0.011967082
-0.0085675456
-0.0050655051
-0.0014732507
0.0021968417
0.0059318869
0.009719196
0.013545895
0.01739969
0.021268386
0.025140722
0.029005834
0.032854008
0.036676245
0.040464829
0.044213098
0.04791568
0.051568575
0.055168772
0.058715439
0.062208074
0.065649962
0.069043174
0.072396927
0.075716121
0.079019882
0.0823162
0.085642466
0.089009115
0.092488447
0.09608788
0.099946326
0.10404514
0.10864934
0.11363917
0.11952244
0.12587097
0.13368805
0.14173495
0.15208581
0.16163475
0.17464582
0.1845293
0.19846497
0.20704526
0.21321495
-0.00088128424
-0.00015081868
-0.00121722
-0.0010450168
-0.0017734151
-0.001907694
-0.0024983054
-0.0028123484
-0.0033675581
-0.0038023129
-0.0043745059
-0.0049040052
-0.005520772
-0.0061339046
-0.0068083805
-0.0074966283
-0.0082320225
-0.008986559
-0.0097863898
-0.010622891
-0.011508057
-0.012421376
-0.013354857
-0.014314386
-0.015305023
-0.016325764
-0.017367989
-0.018427154
-0.019506559
-0.02060341
-0.021715838
-0.022843133
-0.023983784
-0.025136845
-0.026300675
-0.027473772
-0.028654119
-0.029839664
-0.031027908
-0.032216152
-0.033401251
-0.034579651
-0.03574734
-0.036899734
-0.038031723
-0.039137573
-0.040210971
-0.041244991
-0.042232145
-0.043164413
-0.044033311
-0.044829957
-0.045545179
-0.046169596
-0.046693736
-0.04710815
-0.047403515
-0.047570752
-0.047601128
-0.047486357
-0.04721868
-0.046790974
-0.046196799
-0.045430504
-0.044487258
-0.043363156
-0.042055232
-0.040561566
-0.038881282
-0.037014659
-0.034963093
-0.032729224
-0.030316834
-0.027730995
-0.024977888
-0.022064977
-0.019000709
-0.015794757
-0.012457539
-0.0090006079
-0.0054359147
-0.0017763528
0.0019650452
0.0057745891
0.0096389653
0.013544518
0.017478376
0.021427638
0.025380431
0.029325276
0.033252048
0.037151208
0.041014736
0.044835518
0.048607943
0.052327755
0.055992136
0.059600311
0.063152207
0.066651248
0.070100493
0.07350936
0.076884496
0.080244987
0.083601714
0.086990731
0.090426894
0.093977024
0.097654839
0.10158292
0.1057523
0.11038682
0.11538846
0.12117141
0.12737709
0.13480246
0.14244112
0.15188769
0.16074447
0.17208909
0.18119914
0.19259659
0.20039692
0.20454755
-0.0012150011
-6.3047931e-05
-0.0013508057
-0.0010267903
-0.0018287868
-0.0019040833
-0.0025145985
-0.0028017928
-0.0033562073
-0.0037738951
-0.0043358578
-0.0048488542
-0.005448185
-0.0060394536
-0.0066933078
-0.0073656418
-0.0080888127
-0.00884321
-0.0096365018
-0.010452274
-0.011301655
-0.012181205
-0.013098943
-0.014046771
-0.015021069
-0.016017246
-0.017038605
-0.018082767
-0.019146985
-0.020229545
-0.021329903
-0.022446783
-0.023579208
-0.024726086
-0.025885995
-0.027057517
-0.028238797
-0.0294279
-0.030622464
-0.031819887
-0.033017128
-0.034210709
-0.035396694
-0.036570553
-0.037727223
-0.038860996
-0.03996557
-0.041034005
-0.042058772
-0.043031777
-0.043944421
-0.04478766
-0.045552103
-0.046228095
-0.046805822
-0.047275428
-0.047627115
-0.047851262
-0.047938536
-0.047879999
-0.047667195
-0.047292277
-0.046748065
-0.046028171
-0.045127037
-0.044040067
-0.042763647
-0.041295269
-0.039633531
-0.037778276
-0.035730534
-0.033492686
-0.031068332
-0.028462481
-0.025681319
-0.022732446
-0.019624514
-0.016367509
-0.01297227
-0.0094508064
-0.0058157003
-0.0020805843
0.001741056
0.0056348833
0.0095868268
0.013582401
0.017607956
0.021649655
0.025695067
0.029731907
0.033749484
0.037737678
0.041688188
0.045593696
0.049448949
0.053249701
0.056993486
0.060679591
0.064308802
0.067884988
0.071412282
0.074900456
0.078357576
0.08180227
0.085246917
0.088724872
0.092252173
0.095887693
0.099645907
0.10363054
0.10783492
0.11244259
0.11736876
0.1229443
0.12886567
0.13575081
0.14277765
0.15112818
0.15894474
0.16834445
0.1759792
0.18453024
0.19057938
0.19314975
-0.001548399
3.2027866e-05
-0.0014796894
-0.00099808701
-0.0018702385
-0.0018805559
-0.0025064556
-0.0027610801
-0.0033105365
-0.00370693
-0.0042567396
-0.0047532722
-0.0053410184
-0.0059234192
-0.0065653442
-0.007218657
-0.0079182423
-0.0086404856
-0.0094049084
-0.010200522
-0.011035938
-0.01190052
-0.012794114
-0.01371579
-0.014667012
-0.015646054
-0.016650169
-0.017676766
-0.018726087
-0.019796318
-0.020886486
-0.021995672
-0.023122783
-0.024266908
-0.025426756
-0.02660104
-0.027788083
-0.028986075
-0.030192803
-0.03140577
-0.032622048
-0.033838235
-0.035050471
-0.036254274
-0.037444613
-0.038615789
-0.039761483
-0.040874705
-0.041947839
-0.042972656
-0.043940372
-0.044841699
-0.045666935
-0.046406045
-0.047048757
-0.047584687
-0.048003433
-0.048294706
-0.048448439
-0.048454917
-0.04830487
-0.047989616
-0.047501138
-0.046832227
-0.045976534
-0.044928726
-0.043684506
-0.042240774
-0.04059561
-0.03874845
-0.036700003
-0.034452459
-0.032009309
-0.029375599
-0.026557624
-0.023563253
-0.020401433
-0.01708269
-0.013618252
-0.010021001
-0.0063039456
-0.0024814943
0.0014317967
0.0054202454
0.0094689977
0.013562409
0.01768617
0.021825559
0.025967188
0.030097992
0.034206918
0.038283134
0.042318079
0.046303831
0.05023457
0.054105622
0.057914856
0.061661863
0.065347647
0.068976164
0.072552351
0.07608607
0.07958644
0.083071824
0.086556021
0.090070664
0.093633567
0.09729816
0.10108115
0.10507243
0.10926968
0.11382515
0.11866871
0.12406468
0.12976209
0.13623808
0.14283663
0.15043053
0.15761202
0.16582568
0.17272137
0.17979345
0.1850662
0.18684383
-0.0018529014
0.00012756197
-0.0015977404
-0.00096373054
-0.0019080379
-0.0018555711
-0.0025003771
-0.0027241606
-0.0032713312
-0.0036469158
-0.0041844277
-0.0046608942
-0.0052286104
-0.0057856399
-0.0064040249
-0.0070370045
-0.0077176107
-0.0084240565
-0.0091693587
-0.0099410097
-0.010747595
-0.011584016
-0.012454635
-0.013354897
-0.014284364
-0.015240147
-0.016222991
-0.017231036
-0.01826331
-0.019318512
-0.020396044
-0.021495005
-0.022614615
-0.023754023
-0.024912152
-0.026087847
-0.027279613
-0.028485786
-0.029704311
-0.030932816
-0.032168499
-0.033408057
-0.034647714
-0.035883049
-0.037109073
-0.038320095
-0.039509777
-0.040671069
-0.04179625
-0.042876936
-0.043904124
-0.044868246
-0.045759245
-0.046566654
-0.047279693
-0.047887388
-0.048378673
-0.048742526
-0.048968085
-0.049044792
-0.0489625
-0.048711637
-0.048283289
-0.047669377
-0.04686271
-0.045857176
-0.044647757
-0.043230727
-0.041603617
-0.039765436
-0.037716551
-0.035458951
-0.032996009
-0.030332814
-0.027475769
-0.024433026
-0.021213894
-0.017829334
-0.014291302
-0.010613099
-0.0068088647
-0.0028943339
0.0011156935
0.0052050039
0.0093575848
0.013556771
0.017787172
0.022032574
0.026279241
0.030512999
0.034721864
0.038894184
0.043020795
0.04709344
0.051107269
0.055057636
0.05894245
0.062760666
0.066514223
0.070207407
0.07384562
0.077438772
0.080996672
0.084536758
0.088073191
0.091634765
0.095238912
0.098932158
0.10273017
0.10670801
0.11086355
0.11531931
0.12001417
0.12515358
0.13052692
0.13649116
0.14251901
0.14923097
0.15555977
0.16245029
0.16828215
0.17382569
0.17807088
0.17938916
-0.0021130997
0.00021491343
-0.0016980037
-0.00092344729
-0.0019285707
-0.0018132833
-0.0024703399
-0.0026600485
-0.0032005065
-0.003552426
-0.0040759388
-0.004532799
-0.0050843994
-0.0056238855
-0.0062235888
-0.0068342542
-0.0074904712
-0.0081694976
-0.0088884421
-0.0096364178
-0.010421058
-0.0112354
-0.012081646
-0.012957428
-0.013863784
-0.014799035
-0.015762484
-0.016752572
-0.01776914
-0.018811088
-0.019877904
-0.020968926
-0.022083471
-0.023220875
-0.024380237
-0.025560573
-0.026760587
-0.027978777
-0.029213264
-0.030461819
-0.031721777
-0.032989947
-0.034262641
-0.035535503
-0.036803575
-0.038061166
-0.039301893
-0.040518617
-0.041703471
-0.042847865
-0.043942524
-0.044977528
-0.045942392
-0.046826137
-0.04761739
-0.048304499
-0.048875644
-0.049318985
-0.049622778
-0.049775546
-0.04976619
-0.049584185
-0.049219664
-0.048663634
-0.047908027
-0.046945931
-0.04577159
-0.044380654
-0.042770112
-0.040938568
-0.038886071
-0.036614457
-0.034127021
-0.031428961
-0.028526843
-0.025429205
-0.022145691
-0.018688074
-0.015068511
-0.011301966
-0.0074025273
-0.0033862746
0.0007301787
0.0049281909
0.0091911838
0.013500824
0.017841323
0.022195825
0.026548736
0.030884969
0.035192742
0.039459429
0.043676059
0.047833782
0.051926132
0.055947397
0.059896381
0.063773322
0.067579728
0.071319629
0.074999332
0.078628674
0.082217911
0.085784145
0.089341959
0.092918329
0.096531007
0.10022159
0.10400601
0.10794825
0.11204805
0.11640495
0.12096799
0.12589686
0.13101874
0.13659906
0.14222167
0.14832164
0.15410064
0.16015202
0.16536504
0.17002068
0.17367709
0.17463476
-0.0023193751
0.00029343666
-0.0017781661
-0.00088129851
-0.0019408371
-0.0017689484
-0.0024378562
-0.0025959651
-0.0031301995
-0.0034587381
-0.0039672481
-0.0044018358
-0.0049329368
-0.0054484752
-0.0060253002
-0.0066134342
-0.0072475566
-0.0079049425
-0.0086007513
-0.0093238701
-0.010082095
-0.01087034
-0.011692149
-0.012544425
-0.013427924
-0.014340798
-0.01528348
-0.016254793
-0.017254519
-0.018281905
-0.019336686
-0.020418392
-0.0215266
-0.02266082
-0.023820383
-0.025004497
-0.02621208
-0.027441819
-0.028692029
-0.029960648
-0.031245167
-0.032542527
-0.033849147
-0.03516075
-0.036472419
-0.037778467
-0.039072468
-0.040347186
-0.041594599
-0.042805891
-0.043971487
-0.045081092
-0.046123754
-0.047087947
-0.047961659
-0.048732519
-0.049387906
-0.049915112
-0.050301465
-0.050534522
-0.050602185
-0.050492926
-0.050195885
-0.049701109
-0.048999611
-0.04808364
-0.046946664
-0.045583677
-0.043991085
-0.042167067
-0.040111319
-0.037825508
-0.035312818
-0.032578562
-0.029629439
-0.026474374
-0.023123493
-0.019588923
-0.015884164
-0.01202353
-0.0080233632
-0.0039028785
0.00032227354
0.0046341769
0.0090140406
0.013442635
0.017901951
0.022373513
0.026842507
0.031291621
0.035707633
0.040076965
0.044389013
0.048634032
0.052808774
0.056908302
0.060930584
0.064872972
0.068738928
0.072533361
0.076262069
0.079934793
0.083562331
0.087160413
0.090743565
0.094336051
0.097954582
0.10163508
0.1053918
0.10927747
0.11329127
0.11751155
0.12189372
0.12655785
0.13136002
0.13649024
0.14161846
0.14703679
0.15215118
0.1573128
0.16178321
0.16558087
0.16862456
0.16942087
-0.0024725588
0.00036157418
-0.0018345902
-0.00083393809
-0.001935155
-0.0017106556
-0.0023856036
-0.0025117941
-0.0030369
-0.0033413574
-0.0038342406
-0.004247483
-0.0047600338
-0.0052546272
-0.0058103131
-0.0063751307
-0.0069850459
-0.0076169177
-0.0082874947
-0.0089861528
-0.0097204682
-0.010484983
-0.011282774
-0.012111517
-0.012972529
-0.013864543
-0.014787803
-0.015741473
-0.016725692
-0.017739977
-0.018784275
-0.019858363
-0.020962019
-0.022094978
-0.023256797
-0.024446903
-0.025664445
-0.026908322
-0.02817706
-0.029468785
-0.030781165
-0.032111285
-0.033455685
-0.034810174
-0.036169883
-0.037529127
-0.038881426
-0.040219434
-0.041534949
-0.042818902
-0.044061383
-0.045251674
-0.046378311
-0.047429164
-0.048391522
-0.049252233
-0.04999781
-0.050614612
-0.051088972
-0.051407415
-0.051556783
-0.05152449
-0.051298621
-0.050868221
-0.050223335
-0.04935534
-0.048256893
-0.046922316
-0.04534741
-0.043529925
-0.041469199
-0.039166747
-0.036625659
-0.033851386
-0.030850814
-0.027633322
-0.024209294
-0.020592179
-0.016794577
-0.012835365
-0.0087290901
-0.0044934876
-0.00014984569
0.0042814326
0.0087825535
0.013332339
0.017913138
0.022504295
0.027089593
0.031651173
0.036175767
0.040648492
0.04506059
0.0493999
0.053658453
0.057829256
0.06191313
0.065912792
0.069829011
0.073664741
0.077428012
0.081128392
0.084776236
0.088387374
0.09197601
0.095564743
0.099169971
0.10282338
0.10653878
0.11036035
0.11428809
0.11838412
0.122611
0.12705863
0.13160927
0.1363966
0.14116175
0.14609281
0.15075027
0.15531448
0.15929898
0.16254131
0.16516805
0.16577652
-0.0025762351
0.00041808462
-0.0018704648
-0.00078692271
-0.0019201802
-0.0016505625
-0.0023290976
-0.0024261238
-0.002941444
-0.0032222941
-0.0036985279
-0.0040890804
-0.0045809469
-0.0050521729
-0.005585219
-0.0061267808
-0.0067135645
-0.0073220215
-0.007968541
-0.0086424757
-0.0093516121
-0.010091196
-0.010864808
-0.011670137
-0.012508604
-0.013379087
-0.014282318
-0.015217766
-0.016185768
-0.017186149
-0.01821911
-0.019284682
-0.020382913
-0.021513779
-0.0226771
-0.023872547
-0.025099523
-0.026357164
-0.02764423
-0.028959063
-0.030299525
-0.031662877
-0.0330458
-0.034444209
-0.035853302
-0.037267408
-0.038680006
-0.040083642
-0.041469937
-0.042829561
-0.044152257
-0.045426869
-0.046641395
-0.047783072
-0.048838457
-0.049793577
-0.050634032
-0.0513452
-0.051912366
-0.052320969
-0.052556727
-0.052605939
-0.052455572
-0.052093609
-0.051509065
-0.050692389
-0.049635368
-0.0483316
-0.046776229
-0.044966543
-0.042901466
-0.040582347
-0.03801212
-0.035196407
-0.032142156
-0.028859276
-0.025358791
-0.02165401
-0.017761137
-0.013694853
-0.0094757918
-0.0051237558
-0.00065608334
0.0039041165
0.0085370237
0.013219369
0.017931886
0.022652249
0.027363584
0.032045775
0.036684896
0.041264819
0.045775565
0.050206705
0.054553014
0.058808773
0.062968363
0.067028399
0.070995817
0.074878125
0.07867963
0.082409575
0.086080116
0.08970462
0.093297539
0.096879061
0.10046433
0.10408074
0.10774034
0.1114792
0.11529664
0.11924034
0.12327758
0.12747296
0.13172905
0.13613513
0.14048796
0.14490007
0.14905021
0.15300989
0.15647651
0.15920927
0.16145398
0.16199053
-0.0026373198
0.00046484097
-0.0018845415
-0.00073617811
-0.0018892994
-0.0015799142
-0.0022568787
-0.0023258313
-0.0028291426
-0.0030866077
-0.0035457404
-0.0039143491
-0.0043863569
-0.0048354435
-0.0053464717
-0.0058645287
-0.0064274193
-0.007011239
-0.0076331642
-0.0082826887
-0.0089676775
-0.0096833884
-0.010433417
-0.011215818
-0.012032335
-0.012882204
-0.0137663
-0.014684402
-0.015637128
-0.016624587
-0.017647239
-0.018705386
-0.019799337
-0.020929333
-0.022095465
-0.02329767
-0.024535624
-0.025808722
-0.027115982
-0.028455982
-0.029826808
-0.031225913
-0.032650143
-0.034095539
-0.035557379
-0.037030018
-0.038506901
-0.039980471
-0.041442162
-0.042882374
-0.044290484
-0.04565487
-0.04696296
-0.048201317
-0.049355716
-0.050411305
-0.051352714
-0.052164271
-0.052830141
-0.053334604
-0.053662179
-0.053797977
-0.05372777
-0.053438412
-0.052917817
-0.052155456
-0.05114218
-0.049870831
-0.048335845
-0.046534031
-0.044463866
-0.042126531
-0.039524817
-0.036664481
-0.033552735
-0.030199916
-0.026617159
-0.022820097
-0.01882314
-0.014646955
-0.01030709
-0.005826643
-0.00122621
0.0034695346
0.0082400984
0.013060015
0.017909512
0.022763892
0.027605547
0.032412541
0.037170711
0.041862089
0.04647689
0.051001836
0.055431182
0.059757997
0.063983631
0.068106504
0.072124945
0.076042043
0.079870631
0.083620598
0.087300578
0.090926057
0.094510341
0.098072202
0.10162658
0.10519722
0.10879577
0.11245196
0.1161656
0.11997339
0.12384771
0.12783421
0.13185319
0.13596122
0.13999935
0.14402566
0.14780537
0.15133391
0.15442961
0.15679979
0.1587527
0.15918075
-0.0026636511
0.00050148619
-0.0018818695
-0.00068634089
-0.0018497628
-0.0015074396
-0.0021796446
-0.0022230579
-0.0027131635
-0.0029478
-0.0033888821
-0.0037349506
-0.0041859452
-0.0046119232
-0.0051002765
-0.0055948309
-0.0061342096
-0.0066940899
-0.0072917899
-0.0079167967
-0.0085771954
-0.0092685633
-0.0099947819
-0.010754081
-0.011548405
-0.012377212
-0.013241695
-0.014141919
-0.01507876
-0.016052628
-0.017064259
-0.018114243
-0.019203183
-0.020331609
-0.021499909
-0.022708311
-0.023956791
-0.02524503
-0.026572329
-0.027937535
-0.029338982
-0.03077435
-0.032240677
-0.033734162
-0.035250186
-0.036783159
-0.03832651
-0.039872593
-0.04141267
-0.042936874
-0.044434212
-0.045892587
-0.047298836
-0.04863882
-0.049897497
-0.051059092
-0.052107205
-0.053025055
-0.053795613
-0.054401927
-0.054827233
-0.055055371
-0.055070829
-0.054859252
-0.054407363
-0.053703579
-0.052737735
-0.051501859
-0.049989604
-0.048197262
-0.046122801
-0.043767232
-0.041133087
-0.03822643
-0.035054195
-0.031627707
-0.027958614
-0.024064153
-0.019958819
-0.015662329
-0.011194556
-0.006579502
-0.001837773
0.003003414
0.0079223712
0.012890844
0.017887987
0.022886429
0.027867936
0.032807964
0.037692078
0.042500413
0.047223216
0.051846628
0.056365747
0.060772559
0.065066062
0.069244056
0.073314016
0.077276581
0.081135429
0.084901295
0.088591387
0.092214888
0.095786519
0.099323393
0.10283877
0.10635386
0.10987853
0.11343709
0.11702888
0.12068124
0.12437015
0.12812606
0.13188331
0.13567404
0.13937441
0.14300561
0.14639956
0.14950826
0.15223776
0.15428699
0.15598974
0.15637771
-0.0026622722
0.00053102425
-0.0018622472
-0.00063352693
-0.001797091
-0.0014267231
-0.0020897619
-0.002109072
-0.0025840864
-0.0027963518
-0.0032188351
-0.0035428183
-0.0039729804
-0.004376325
-0.0048421316
-0.0053130654
-0.0058285963
-0.0063641108
-0.0069374108
-0.0075380327
-0.0081742351
-0.0088417009
-0.0095444585
-0.010280987
-0.011053482
-0.011861684
-0.012707012
-0.013589822
-0.014511263
-0.015472038
-0.01647317
-0.017515546
-0.018600068
-0.019727571
-0.020898754
-0.022114163
-0.023374089
-0.024678529
-0.026027092
-0.027418922
-0.028852634
-0.030326162
-0.031836769
-0.033380836
-0.034953881
-0.036550389
-0.038163794
-0.039786378
-0.041409235
-0.043022234
-0.044614004
-0.046171957
-0.047682312
-0.049130189
-0.050499679
-0.051774026
-0.052935729
-0.053966822
-0.054848995
-0.055563972
-0.056093608
-0.056420377
-0.056527384
-0.056398975
-0.056020589
-0.055379517
-0.054464495
-0.053266688
-0.051778893
-0.049996866
-0.047918
-0.045543123
-0.042874548
-0.03991837
-0.036682245
-0.033177284
-0.029418188
-0.025418843
-0.021196556
-0.016773489
-0.012168711
-0.0074090987
-0.0025166051
0.0024788238
0.007554691
0.012679639
0.017832258
0.022981941
0.028110091
0.033189237
0.038204966
0.043134839
0.047969453
0.052692634
0.057300134
0.061782872
0.066142131
0.070375119
0.074486114
0.078479067
0.082365668
0.086147214
0.089835431
0.093448651
0.09699947
0.10050294
0.10397364
0.10742885
0.11087892
0.11434339
0.11782221
0.12133563
0.12486336
0.12842463
0.13196562
0.13550079
0.1389334
0.14225854
0.14535566
0.14814752
0.15059607
0.15239864
0.15389521
0.15421568
-0.0026402248
0.00055360839
-0.0018305182
-0.00058109929
-0.001736916
-0.0013437421
-0.0019944919
-0.0019916924
-0.0024502456
-0.0026406107
-0.0030435983
-0.0033452031
-0.0037537486
-0.0041339694
-0.0045767713
-0.0050239485
-0.0055156076
-0.0060268494
-0.0065757145
-0.0071517536
-0.00776343
-0.0084066226
-0.009085581
-0.009798986
-0.01054925
-0.011336356
-0.012161991
-0.013026791
-0.013932185
-0.014879175
-0.015869086
-0.016903118
-0.017982492
-0.019108373
-0.020281797
-0.02150365
-0.022774568
-0.024094893
-0.025464575
-0.026883089
-0.028349365
-0.029861632
-0.031417413
-0.033013311
-0.034645014
-0.036307119
-0.037993097
-0.03969518
-0.041404318
-0.043110127
-0.044800862
-0.046463436
-0.04808343
-0.049645197
-0.051131914
-0.052525791
-0.053808155
-0.054959775
-0.055960968
-0.056792036
-0.057433342
-0.057865889
-0.058071279
-0.058032459
-0.057733462
-0.057160371
-0.056300709
-0.05514472
-0.05368425
-0.051914486
-0.049832172
-0.047437985
-0.044733826
-0.04172651
-0.038422068
-0.034836989
-0.03097955
-0.026869773
-0.022523438
-0.017964683
-0.013213883
-0.0083002536
-0.0032463087
0.0019146669
0.0071594134
0.012452714
0.017772606
0.023084541
0.028369795
0.033597222
0.038752754
0.043811008
0.048763351
0.053591654
0.05829273
0.062855946
0.067283087
0.071570701
0.075725855
0.079750751
0.083654182
0.087447867
0.09113953
0.094738366
0.098261966
0.10172719
0.10514439
0.10853146
0.11189622
0.11525538
0.1186085
0.1219702
0.12532309
0.12867781
0.13199026
0.13526256
0.13841982
0.14144119
0.14424301
0.14673507
0.14891914
0.15050802
0.15183312
0.15212733
-0.0026024231
0.00057204705
-0.0017867382
-0.00052584664
-0.0016662578
-0.001253921
-0.0018888103
-0.0018651186
-0.0023055703
-0.0024744112
-0.0028572466
-0.0031366649
-0.0035234111
-0.0038806059
-0.0043002619
-0.0047235253
-0.005191039
-0.005677745
-0.0062019928
-0.0067533878
-0.007340571
-0.0079595551
-0.0086147645
-0.0093050927
-0.01003318
-0.010799261
-0.011605271
-0.012452126
-0.013341535
-0.014274805
-0.015253566
-0.016279341
-0.017353684
-0.018478104
-0.019653992
-0.020882598
-0.02216493
-0.023501703
-0.024893241
-0.026339385
-0.027839415
-0.029391895
-0.030994647
-0.032644536
-0.034337461
-0.036068162
-0.037830181
-0.039615728
-0.041415627
-0.043219253
-0.045014486
-0.04678773
-0.048523905
-0.050206559
-0.051817902
-0.053339041
-0.054750051
-0.056030344
-0.057158751
-0.058114047
-0.058874974
-0.059420949
-0.059731941
-0.059789391
-0.059575804
-0.05907597
-0.058276093
-0.057165447
-0.055734823