/*--------------------------------*- C++ -*----------------------------------*\
| =========                 |                                                 |
| \\      /  F ield         | foam-extend: Open Source CFD                    |
|  \\    /   O peration     | Version:     4.1                                |
|   \\  /    A nd           | Web:         http://www.foam-extend.org         |
|    \\/     M anipulation  |                                                 |
\*---------------------------------------------------------------------------*/
FoamFile
{
    version     2.0;
    format      ascii;
    class       volScalarField;
    location    "2.3";
    object      rAU;
}
// * * * * * * * * * * * * * * * * * * * * * * * * * * * * * * * * * * * * * //

dimensions      [0 0 1 0 0 0 0];

internalField   nonuniform List<scalar> 
16126
(
0.00049570667
0.0004952887
0.0004952906
0.00049529196
0.0004952939
0.00049529576
0.00049529798
0.00049530033
0.0004953029
0.00049530566
0.00049530859
0.00049531171
0.00049531496
0.00049531837
0.00049532188
0.00049532551
0.00049532919
0.00049533293
0.00049533666
0.00049534039
0.00049534403
0.00049534758
0.00049535097
0.00049535417
0.00049535711
0.00049535977
0.00049536207
0.00049536399
0.00049536547
0.00049536648
0.00049536663
0.0004953657
0.00049536414
0.00049536193
0.00049535911
0.00049535561
0.00049535146
0.0004953466
0.00049534105
0.00049533475
0.00049532773
0.00049531994
0.00049531139
0.00049530205
0.00049529193
0.00049528099
0.00049526925
0.0004952567
0.00049524332
0.00049522914
0.00049521415
0.00049519836
0.00049518181
0.00049516451
0.0004951465
0.00049512782
0.00049510854
0.0004950887
0.00049506838
0.00049504765
0.0004950266
0.00049500532
0.0004949839
0.00049496245
0.00049494105
0.0004949198
0.00049489882
0.00049487818
0.00049485799
0.00049483832
0.00049481925
0.00049480085
0.00049478319
0.0004947663
0.00049475022
0.00049473498
0.00049472059
0.00049470703
0.00049469431
0.00049468237
0.00049467118
0.00049466068
0.00049465079
0.00049464141
0.00049463246
0.00049462381
0.00049461534
0.00049460691
0.00049459837
0.00049458956
0.00049458032
0.00049457045
0.00049455978
0.00049454809
0.00049453518
0.00049452081
0.00049450475
0.00049448672
0.00049446642
0.00049444351
0.00049441762
0.00049438827
0.00049435491
0.00049431681
0.00049427307
0.00049422243
0.0004941633
0.00049409344
0.00049400993
0.00049390876
0.00049378489
0.00049363152
0.00049344072
0.00049320229
0.00049290557
0.00049253749
0.0004920871
0.00049154082
0.0004908936
0.00049013397
0.0004892804
0.00048831491
0.00048738604
0.00048591085
0.00049468768
0.00049427145
0.00049427521
0.00049427764
0.00049428156
0.00049428519
0.00049428962
0.00049429426
0.00049429937
0.00049430483
0.00049431063
0.00049431679
0.0004943232
0.00049432992
0.0004943368
0.0004943439
0.00049435107
0.00049435833
0.00049436553
0.00049437267
0.00049437959
0.00049438627
0.00049439253
0.00049439831
0.00049440345
0.0004944079
0.00049441146
0.00049441398
0.00049441522
0.00049441313
0.00049440907
0.00049440317
0.00049439583
0.00049438691
0.00049437641
0.00049436422
0.00049435036
0.00049433473
0.00049431739
0.00049429823
0.00049427733
0.0004942546
0.0004942301
0.0004942038
0.00049417573
0.00049414589
0.00049411432
0.00049408105
0.00049404611
0.00049400956
0.00049397145
0.00049393186
0.00049389087
0.00049384857
0.00049380509
0.00049376053
0.00049371505
0.00049366879
0.00049362192
0.00049357463
0.00049352709
0.0004934795
0.00049343205
0.00049338495
0.00049333839
0.00049329255
0.00049324763
0.00049320377
0.00049316115
0.00049311987
0.00049308006
0.00049304181
0.00049300516
0.00049297017
0.00049293682
0.00049290509
0.00049287493
0.00049284626
0.00049281896
0.00049279288
0.00049276785
0.00049274368
0.00049272012
0.00049269694
0.00049267384
0.00049265052
0.00049262666
0.00049260192
0.00049257592
0.00049254827
0.00049251858
0.0004924864
0.00049245128
0.00049241274
0.00049237027
0.00049232332
0.0004922713
0.00049221357
0.00049214942
0.00049207808
0.00049199867
0.0004919102
0.00049181155
0.00049170142
0.00049157832
0.00049144051
0.00049128603
0.00049111254
0.00049091758
0.00049069817
0.00049045155
0.00049017442
0.0004898646
0.00048951947
0.0004891396
0.00048872503
0.00048828329
0.00048781955
0.00048735631
0.00048690402
0.00048652213
0.00048620623
0.00048615528
0.00048575117
0.00049289178
0.00049247732
0.0004924817
0.00049248401
0.00049248842
0.0004924923
0.00049249721
0.00049250226
0.00049250785
0.00049251378
0.00049252005
0.00049252668
0.00049253351
0.00049254063
0.00049254784
0.0004925552
0.00049256253
0.00049256985
0.00049257696
0.00049258386
0.00049259032
0.00049259633
0.00049260165
0.00049260624
0.00049260982
0.00049261226
0.00049261327
0.00049261084
0.00049260488
0.0004925954
0.00049258387
0.00049257044
0.00049255495
0.00049253725
0.00049251737
0.00049249517
0.00049247071
0.00049244389
0.00049241479
0.00049238334
0.00049234963
0.00049231362
0.00049227539
0.00049223496
0.00049219239
0.00049214774
0.00049210108
0.00049205249
0.00049200206
0.00049194988
0.00049189609
0.00049184079
0.00049178413
0.00049172627
0.00049166737
0.00049160762
0.00049154722
0.00049148637
0.0004914253
0.00049136424
0.00049130341
0.00049124305
0.00049118339
0.00049112465
0.00049106705
0.00049101078
0.00049095603
0.00049090295
0.00049085166
0.00049080228
0.00049075487
0.00049070946
0.00049066608
0.00049062468
0.0004905852
0.00049054754
0.00049051157
0.0004904771
0.00049044395
0.00049041188
0.00049038061
0.00049034986
0.00049031931
0.00049028861
0.00049025741
0.0004902253
0.00049019191
0.0004901568
0.00049011955
0.00049007972
0.00049003686
0.00048999051
0.00048994019
0.00048988543
0.00048982575
0.00048976063
0.00048968958
0.00048961206
0.00048952753
0.00048943541
0.00048933514
0.00048922606
0.00048910755
0.0004889789
0.00048883938
0.00048868819
0.00048852459
0.00048834771
0.00048815689
0.00048795139
0.00048773111
0.0004874959
0.00048724726
0.00048698671
0.00048671935
0.00048644985
0.00048619036
0.00048594941
0.00048575234
0.00048560757
0.00048557055
0.00048562435
0.0004859235
0.0004858963
0.00049134104
0.00049092701
0.00049093094
0.00049093206
0.0004909357
0.00049093851
0.00049094241
0.00049094628
0.00049095062
0.00049095518
0.00049095995
0.00049096493
0.00049096997
0.00049097514
0.00049098023
0.00049098529
0.00049099011
0.00049099472
0.00049099889
0.00049100266
0.00049100576
0.0004910082
0.00049100968
0.00049101013
0.0004910093
0.0004910053
0.00049099671
0.00049098473
0.00049096918
0.00049095176
0.00049093209
0.00049091015
0.00049088587
0.00049085911
0.00049082996
0.00049079829
0.00049076422
0.00049072765
0.00049068873
0.00049064737
0.00049060375
0.00049055782
0.00049050972
0.0004904595
0.00049040724
0.00049035305
0.00049029703
0.0004902393
0.00049017997
0.0004901192
0.00049005712
0.0004899939
0.00048992971
0.00048986477
0.00048979926
0.0004897334
0.00048966742
0.00048960155
0.00048953604
0.00048947114
0.00048940707
0.00048934409
0.0004892824
0.00048922222
0.00048916375
0.00048910714
0.00048905256
0.00048900011
0.00048894988
0.00048890191
0.00048885622
0.00048881281
0.00048877161
0.00048873255
0.00048869549
0.00048866028
0.00048862674
0.00048859464
0.00048856376
0.00048853381
0.00048850449
0.0004884755
0.00048844651
0.00048841716
0.0004883871
0.00048835598
0.00048832341
0.00048828904
0.0004882525
0.00048821342
0.00048817145
0.00048812625
0.00048807747
0.00048802481
0.00048796795
0.0004879066
0.00048784049
0.00048776937
0.00048769299
0.00048761113
0.00048752359
0.00048743017
0.00048733072
0.00048722509
0.00048711317
0.00048699486
0.00048687018
0.00048673915
0.0004866021
0.00048645939
0.00048631211
0.00048616147
0.00048601028
0.00048586145
0.00048572116
0.00048559486
0.00048549446
0.0004854272
0.0004854144
0.00048545844
0.00048560009
0.00048581084
0.00048618811
0.00048618977
0.00049006953
0.00048965488
0.00048965742
0.00048965646
0.00048965823
0.00048965887
0.00048966054
0.00048966196
0.00048966372
0.00048966549
0.00048966729
0.0004896691
0.00048967076
0.00048967234
0.00048967363
0.0004896747
0.00048967532
0.00048967557
0.0004896752
0.00048967425
0.00048967243
0.00048966981
0.00048966617
0.00048965863
0.00048964726
0.0004896328
0.00048961375
0.00048959291
0.00048956989
0.00048954471
0.00048951715
0.00048948732
0.00048945519
0.00048942067
0.00048938389
0.00048934474
0.00048930339
0.00048925976
0.00048921402
0.00048916612
0.00048911627
0.0004890644
0.00048901072
0.00048895528
0.00048889819
0.00048883956
0.00048877952
0.00048871822
0.00048865578
0.00048859238
0.00048852819
0.00048846339
0.00048839818
0.00048833279
0.00048826743
0.00048820233
0.00048813775
0.00048807392
0.00048801108
0.0004879495
0.00048788938
0.00048783096
0.00048777444
0.00048772
0.00048766781
0.00048761798
0.00048757064
0.00048752584
0.00048748362
0.000487444
0.00048740694
0.00048737238
0.00048734023
0.00048731035
0.00048728258
0.00048725675
0.00048723264
0.00048721001
0.00048718862
0.00048716817
0.00048714838
0.00048712896
0.00048710959
0.00048708997
0.00048706977
0.0004870487
0.00048702644
0.00048700272
0.00048697724
0.00048694975
0.00048692001
0.00048688779
0.0004868529
0.00048681516
0.00048677443
0.00048673059
0.00048668353
0.00048663321
0.00048657957
0.00048652261
0.00048646235
0.00048639883
0.00048633213
0.00048626236
0.0004861897
0.00048611432
0.00048603657
0.00048595682
0.00048587572
0.00048579407
0.00048571326
0.00048563484
0.00048556173
0.00048549677
0.00048544543
0.00048541203
0.00048540599
0.00048543153
0.00048550434
0.0004856222
0.00048581447
0.00048605391
0.0004864042
0.00048636755
0.00048907673
0.00048866078
0.00048866121
0.00048865759
0.00048865675
0.00048865451
0.00048865319
0.0004886514
0.0004886498
0.00048864799
0.00048864604
0.00048864392
0.00048864147
0.00048863878
0.00048863564
0.00048863213
0.00048862803
0.00048862342
0.00048861809
0.00048861218
0.00048860495
0.00048859222
0.00048857827
0.00048856039
0.00048853851
0.00048851492
0.00048848928
0.00048846164
0.00048843179
0.00048839991
0.00048836585
0.00048832977
0.00048829168
0.0004882515
0.00048820941
0.00048816532
0.00048811944
0.00048807167
0.00048802224
0.00048797108
0.00048791844
0.00048786425
0.00048780873
0.00048775193
0.00048769399
0.00048763502
0.00048757517
0.00048751458
0.00048745342
0.00048739186
0.00048733009
0.00048726832
0.00048720675
0.00048714563
0.00048708518
0.00048702564
0.00048696726
0.00048691028
0.00048685495
0.0004868015
0.00048675013
0.00048670105
0.00048665443
0.00048661043
0.00048656916
0.00048653072
0.00048649518
0.00048646255
0.00048643283
0.00048640598
0.00048638194
0.00048636058
0.0004863418
0.00048632541
0.00048631124
0.00048629907
0.00048628868
0.00048627981
0.00048627221
0.0004862656
0.00048625969
0.00048625421
0.00048624886
0.00048624337
0.00048623747
0.00048623089
0.00048622339
0.00048621472
0.00048620469
0.00048619311
0.00048617981
0.00048616466
0.00048614755
0.00048612839
0.00048610715
0.00048608379
0.00048605831
0.00048603078
0.00048600123
0.00048596975
0.00048593648
0.00048590155
0.00048586513
0.00048582743
0.00048578872
0.00048574928
0.00048570953
0.00048566991
0.00048563117
0.00048559409
0.00048556004
0.00048553044
0.00048550783
0.00048549458
0.00048549511
0.0004855126
0.0004855543
0.00048562248
0.0004857288
0.00048586923
0.00048606469
0.00048629147
0.00048658942
0.00048649088
0.00048833708
0.00048791968
0.00048791769
0.00048791127
0.00048790759
0.00048790231
0.00048789783
0.00048789271
0.00048788764
0.00048788222
0.00048787653
0.00048787053
0.00048786408
0.00048785727
0.00048784992
0.00048784217
0.0004878338
0.00048782391
0.0004878098
0.00048779476
0.00048777816
0.00048775585
0.00048773186
0.00048770622
0.00048767867
0.0004876493
0.00048761793
0.00048758475
0.00048754966
0.00048751284
0.00048747418
0.00048743386
0.00048739194
0.00048734834
0.0004873033
0.0004872567
0.00048720879
0.00048715946
0.00048710899
0.00048705727
0.00048700457
0.00048695083
0.00048689628
0.00048684096
0.00048678502
0.00048672859
0.00048667181
0.00048661486
0.00048655789
0.00048650109
0.00048644467
0.00048638884
0.00048633381
0.00048627984
0.00048622715
0.00048617598
0.00048612658
0.00048607918
0.000486034
0.00048599127
0.00048595115
0.00048591384
0.00048587947
0.00048584815
0.00048581997
0.00048579497
0.00048577318
0.00048575459
0.00048573913
0.00048572672
0.00048571727
0.0004857106
0.00048570658
0.000485705
0.00048570564
0.00048570827
0.00048571264
0.00048571848
0.00048572555
0.00048573354
0.00048574218
0.00048575121
0.00048576035
0.00048576933
0.00048577791
0.00048578587
0.00048579298
0.00048579905
0.00048580392
0.00048580744
0.00048580952
0.00048581006
0.00048580899
0.00048580629
0.00048580197
0.00048579604
0.00048578855
0.00048577959
0.00048576925
0.00048575764
0.0004857449
0.0004857312
0.00048571672
0.00048570167
0.0004856863
0.00048567088
0.00048565581
0.00048564151
0.00048562863
0.0004856179
0.00048561049
0.00048560763
0.00048561141
0.00048562374
0.00048564815
0.00048568699
0.00048574591
0.00048582622
0.00048593702
0.0004860745
0.00048625432
0.00048645838
0.00048671113
0.00048656477
0.00048780958
0.00048739267
0.00048738835
0.00048737946
0.00048737316
0.00048736514
0.00048735782
0.00048734975
0.00048734164
0.0004873331
0.00048732421
0.00048731496
0.00048730523
0.00048729393
0.00048727994
0.00048726511
0.00048724926
0.00048723155
0.00048720925
0.00048718551
0.00048716008
0.00048713309
0.0004871043
0.00048707388
0.00048704166
0.00048700787
0.00048697237
0.0004869354
0.00048689684
0.00048685693
0.00048681557
0.00048677297
0.00048672919
0.00048668418
0.00048663817
0.00048659107
0.00048654312
0.00048649423
0.00048644465
0.0004863943
0.00048634345
0.00048629203
0.00048624026
0.00048618822
0.00048613605
0.00048608387
0.00048603184
0.00048598015
0.00048592895
0.00048587844
0.00048582884
0.00048578035
0.00048573321
0.00048568765
0.00048564389
0.00048560217
0.00048556273
0.00048552577
0.0004854915
0.00048546012
0.00048543178
0.00048540661
0.00048538472
0.0004853662
0.00048535107
0.00048533936
0.00048533104
0.00048532604
0.00048532428
0.00048532564
0.00048532996
0.00048533707
0.00048534677
0.00048535884
0.00048537302
0.00048538908
0.00048540674
0.00048542572
0.00048544576
0.00048546656
0.00048548785
0.00048550936
0.00048553082
0.00048555199
0.00048557263
0.00048559253
0.0004856115
0.00048562937
0.000485646
0.00048566126
0.0004856751
0.00048568742
0.00048569821
0.00048570747
0.00048571521
0.00048572147
0.00048572633
0.00048572988
0.00048573222
0.00048573347
0.00048573377
0.00048573328
0.00048573217
0.00048573066
0.00048572896
0.00048572734
0.00048572616
0.00048572581
0.0004857269
0.00048573008
0.0004857364
0.00048574693
0.00048576351
0.00048578773
0.00048582259
0.00048586995
0.00048593444
0.00048601689
0.0004861244
0.00048625343
0.00048641498
0.00048659475
0.00048680678
0.00048661734
0.00048744487
0.00048703349
0.00048702567
0.00048701731
0.00048700834
0.00048699882
0.00048698856
0.00048697768
0.00048696595
0.00048695353
0.00048694019
0.0004869261
0.00048691107
0.00048689407
0.00048687395
0.00048685248
0.00048682941
0.00048680492
0.0004867788
0.00048675118
0.0004867219
0.00048669114
0.00048665875
0.00048662498
0.00048658969
0.00048655312
0.00048651515
0.00048647604
0.0004864357
0.00048639439
0.000486352
0.00048630876
0.00048626474
0.00048621987
0.00048617441
0.00048612826
0.00048608166
0.00048603451
0.00048598708
0.00048593927
0.00048589136
0.00048584327
0.00048579524
0.00048574734
0.00048569971
0.00048565248
0.00048560582
0.00048555991
0.00048551492
0.00048547104
0.0004854285
0.00048538749
0.00048534824
0.00048531099
0.00048527595
0.00048524334
0.00048521337
0.00048518625
0.00048516213
0.0004851412
0.00048512358
0.00048510936
0.00048509864
0.00048509144
0.00048508777
0.00048508761
0.0004850909
0.00048509754
0.00048510741
0.00048512035
0.00048513618
0.0004851547
0.00048517569
0.00048519889
0.00048522405
0.00048525089
0.00048527914
0.00048530851
0.00048533872
0.00048536946
0.00048540048
0.0004854315
0.00048546226
0.00048549251
0.00048552202
0.0004855506
0.00048557806
0.00048560425
0.00048562903
0.00048565231
0.00048567403
0.00048569412
0.00048571258
0.00048572941
0.00048574465
0.00048575834
0.00048577057
0.00048578142
0.000485791
0.00048579943
0.00048580685
0.00048581341
0.00048581928
0.00048582465
0.00048582974
0.00048583481
0.00048584021
0.00048584632
0.00048585372
0.00048586303
0.00048587522
0.0004858913
0.00048591288
0.00048594139
0.00048597939
0.00048602845
0.0004860924
0.00048617186
0.00048627239
0.00048639104
0.0004865355
0.00048669479
0.000486876
0.00048665373
0.00048720079
0.00048679253
0.00048678139
0.00048677347
0.00048676198
0.00048675108
0.00048673809
0.00048672461
0.00048670952
0.00048669348
0.00048667592
0.00048665718
0.00048663692
0.00048661536
0.00048659225
0.00048656776
0.00048654168
0.00048651422
0.00048648518
0.00048645479
0.00048642292
0.0004863898
0.00048635528
0.00048631962
0.0004862827
0.00048624479
0.0004862058
0.00048616599
0.00048612525
0.00048608388
0.00048604174
0.00048599908
0.00048595596
0.0004859123
0.00048586838
0.00048582405
0.0004857796
0.0004857349
0.00048569022
0.00048564546
0.00048560089
0.00048555645
0.00048551236
0.0004854687
0.00048542561
0.00048538324
0.00048534175
0.00048530131
0.0004852621
0.00048522433
0.00048518818
0.00048515389
0.00048512165
0.00048509169
0.00048506422
0.00048503943
0.00048501753
0.00048499869
0.00048498306
0.00048497079
0.00048496197
0.00048495668
0.00048495496
0.00048495684
0.00048496228
0.00048497124
0.00048498362
0.00048499931
0.00048501816
0.00048503999
0.00048506459
0.00048509175
0.00048512123
0.00048515276
0.00048518607
0.00048522087
0.00048525688
0.0004852938
0.00048533135
0.00048536922
0.00048540713
0.00048544481
0.00048548201
0.00048551847
0.00048555397
0.00048558832
0.00048562134
0.00048565287
0.0004856828
0.00048571103
0.00048573751
0.00048576218
0.00048578504
0.00048580611
0.00048582542
0.00048584305
0.00048585907
0.00048587359
0.00048588671
0.00048589856
0.00048590929
0.00048591907
0.00048592806
0.00048593648
0.00048594456
0.00048595258
0.00048596089
0.00048596989
0.00048598016
0.00048599232
0.0004860073
0.00048602603
0.00048605
0.00048608046
0.00048611964
0.00048616885
0.00048623118
0.00048630702
0.0004864005
0.00048650898
0.00048663743
0.00048677726
0.00048693156
0.00048668137
0.00048704439
0.00048663387
0.00048662125
0.00048661127
0.00048659796
0.00048658502
0.00048657002
0.00048655445
0.00048653723
0.00048651902
0.00048649928
0.00048647833
0.00048645587
0.00048643211
0.00048640683
0.00048638024
0.00048635218
0.00048632286
0.00048629213
0.00048626022
0.00048622701
0.00048619275
0.00048615732
0.000486121
0.00048608367
0.00048604562
0.00048600673
0.00048596729
0.00048592718
0.00048588668
0.00048584566
0.00048580435
0.0004857628
0.00048572095
0.00048567905
0.00048563695
0.00048559494
0.00048555287
0.00048551103
0.0004854693
0.00048542796
0.00048538693
0.00048534646
0.00048530662
0.00048526754
0.00048522939
0.00048519231
0.00048515649
0.00048512211
0.00048508936
0.00048505845
0.00048502957
0.00048500293
0.00048497876
0.00048495723
0.00048493855
0.00048492288
0.00048491039
0.00048490122
0.00048489549
0.00048489328
0.00048489464
0.00048489961
0.00048490818
0.0004849203
0.00048493591
0.00048495491
0.00048497715
0.00048500247
0.00048503069
0.00048506159
0.00048509493
0.00048513047
0.00048516792
0.00048520701
0.00048524745
0.00048528893
0.00048533116
0.00048537384
0.00048541666
0.00048545934
0.00048550159
0.00048554316
0.00048558379
0.00048562326
0.00048566135
0.0004856961
0.00048573131
0.00048576582
0.00048579698
0.00048582618
0.0004858534
0.00048587864
0.00048590191
0.00048592327
0.00048594277
0.00048596052
0.00048597663
0.00048599122
0.00048600444
0.00048601643
0.00048602739
0.00048603749
0.00048604697
0.00048605608
0.00048606512
0.00048607445
0.0004860845
0.00048609582
0.00048610906
0.00048612508
0.00048614476
0.00048616943
0.00048620024
0.00048623905
0.00048628699
0.00048634654
0.00048641795
0.00048650428
0.00048660329
0.00048671806
0.00048684188
0.00048697518
0.00048670275
0.00048694623
0.0004865337
0.00048652007
0.00048650847
0.00048649384
0.00048647937
0.00048646292
0.00048644582
0.00048642711
0.00048640738
0.00048638615
0.00048636374
0.00048633987
0.00048631479
0.00048628827
0.00048626056
0.00048623149
0.0004862013
0.00048616985
0.0004861374
0.00048610385
0.00048606944
0.00048603407
0.00048599801
0.00048596115
0.00048592377
0.00048588576
0.00048584738
0.00048580851
0.00048576942
0.00048572998
0.0004856904
0.00048565073
0.00048561087
0.00048557109
0.00048553124
0.00048549158
0.00048545197
0.00048541269
0.00048537362
0.00048533505
0.00048529689
0.0004852594
0.00048522263
0.00048518675
0.0004851519
0.00048511823
0.00048508595
0.00048505521
0.00048502621
0.00048499917
0.00048497426
0.00048495171
0.00048493171
0.00048491444
0.00048490011
0.00048488886
0.00048488086
0.00048487622
0.00048487506
0.00048487746
0.00048488345
0.00048489306
0.00048490627
0.00048492303
0.00048494326
0.00048496686
0.00048499366
0.00048502352
0.00048505622
0.00048509155
0.00048512926
0.0004851691
0.00048521078
0.00048525402
0.00048529851
0.00048534395
0.00048539002
0.00048543643
0.00048548285
0.000485529
0.00048557099
0.00048560409
0.00048563827
0.00048567337
0.00048570925
0.00048574394
0.00048578127
0.00048582005
0.00048585758
0.00048589522
0.00048593284
0.00048597036
0.00048599948
0.00048602176
0.00048604206
0.00048606048
0.00048607715
0.0004860922
0.00048610579
0.00048611811
0.00048612935
0.00048613973
0.00048614949
0.00048615892
0.00048616832
0.00048617809
0.00048618866
0.00048620059
0.00048621449
0.00048623118
0.00048625148
0.00048627657
0.00048630745
0.00048634569
0.00048639219
0.00048644889
0.00048651587
0.00048659526
0.0004866851
0.00048678707
0.00048689597
0.00048701095
0.0004867198
0.00048688497
0.00048647074
0.00048645649
0.00048644367
0.00048642817
0.00048641266
0.00048639528
0.00048637721
0.00048635758
0.00048633696
0.0004863149
0.00048629172
0.00048626715
0.00048624145
0.00048621443
0.00048618633
0.00048615701
0.00048612672
0.00048609533
0.0004860631
0.00048602992
0.00048599605
0.00048596138
0.00048592619
0.00048589036
0.00048585415
0.00048581744
0.00048578049
0.00048574316
0.00048570571
0.000485668
0.00048563021
0.0004855924
0.00048555446
0.00048551663
0.00048547878
0.00048544115
0.0004854036
0.00048536641
0.00048532946
0.00048529303
0.00048525706
0.00048522177
0.00048518725
0.00048515365
0.00048512112
0.00048508983
0.00048505996
0.0004850317
0.00048500522
0.00048498075
0.00048495847
0.00048493859
0.00048492133
0.00048490684
0.00048489533
0.00048488695
0.00048488186
0.00048488018
0.00048488201
0.00048488743
0.00048489648
0.00048490918
0.0004849255
0.0004849454
0.00048496879
0.00048499556
0.00048502557
0.00048505864
0.00048509457
0.00048513313
0.00048517407
0.00048521713
0.00048526202
0.00048530843
0.00048535607
0.0004854046
0.00048545371
0.00048550308
0.00048554642
0.00048557821
0.00048560781
0.00048563061
0.00048565673
0.00048568609
0.00048571857
0.00048575406
0.0004857924
0.0004858334
0.00048587687
0.00048592262
0.00048597043
0.00048602007
0.00048606313
0.00048610105
0.00048613613
0.00048615474
0.00048617152
0.00048618659
0.00048620015
0.00048621239
0.00048622352
0.00048623378
0.00048624345
0.00048625281
0.0004862622
0.000486272
0.00048628267
0.00048629473
0.0004863088
0.00048632562
0.00048634595
0.00048637083
0.00048640112
0.00048643814
0.00048648263
0.00048653608
0.00048659849
0.00048667133
0.00048675291
0.00048684399
0.00048694042
0.00048704053
0.00048673387
0.00048684628
0.00048643072
0.00048641616
0.00048640246
0.00048638648
0.0004863703
0.00048635241
0.00048633381
0.00048631372
0.00048629269
0.00048627028
0.00048624684
0.00048622211
0.00048619635
0.00048616938
0.00048614145
0.00048611242
0.00048608255
0.00048605171
0.00048602017
0.00048598781
0.00048595489
0.0004859213
0.00048588731
0.00048585277
0.00048581795
0.00048578271
0.00048574729
0.00048571156
0.00048567574
0.00048563967
0.00048560355
0.0004855674
0.00048553112
0.00048549494
0.00048545872
0.00048542269
0.00048538672
0.00048535108
0.00048531565
0.00048528072
0.00048524622
0.0004852124
0.00048517933
0.00048514717
0.00048511608
0.00048508623
0.00048505781
0.000485031
0.000485006
0.00048498302
0.00048496227
0.00048494394
0.00048492826
0.00048491539
0.00048490554
0.00048489887
0.00048489553
0.00048489565
0.00048489934
0.00048490668
0.0004849177
0.00048493244
0.00048495088
0.00048497296
0.0004849986
0.0004850277
0.0004850601
0.00048509563
0.00048513408
0.00048517522
0.00048521878
0.00048526451
0.00048531209
0.00048536122
0.00048541157
0.00048546281
0.00048551459
0.00048554855
0.00048557374
0.00048558938
0.0004856086
0.0004856314
0.00048565772
0.00048568747
0.00048572054
0.00048575678
0.00048579601
0.00048583803
0.00048588262
0.00048592956
0.00048597859
0.00048602949
0.00048608202
0.00048613595
0.00048618863
0.00048622627
0.00048625912
0.00048627404
0.0004862874
0.00048629941
0.0004863103
0.00048632034
0.00048632981
0.00048633901
0.0004863483
0.00048635808
0.00048636877
0.0004863809
0.00048639505
0.0004864119
0.00048643213
0.00048645666
0.00048648621
0.00048652186
0.0004865642
0.00048661433
0.00048667217
0.00048673863
0.00048681226
0.00048689319
0.00048697817
0.00048706527
0.00048674549
0.0004868209
0.00048640433
0.00048638968
0.00048637541
0.00048635921
0.00048634268
0.0004863246
0.00048630578
0.00048628559
0.0004862645
0.00048624212
0.00048621879
0.00048619425
0.00048616878
0.00048614221
0.00048611479
0.00048608638
0.00048605724
0.00048602725
0.00048599667
0.00048596536
0.0004859336
0.00048590124
0.00048586855
0.00048583539
0.00048580199
0.0004857682
0.00048573427
0.00048570001
0.00048566566
0.00048563105
0.00048559635
0.00048556158
0.00048552663
0.00048549173
0.00048545672
0.00048542185
0.00048538697
0.00048535237
0.00048531791
0.0004852839
0.00048525027
0.00048521726
0.00048518497
0.00048515355
0.00048512317
0.000485094
0.00048506625
0.00048504011
0.00048501578
0.00048499348
0.00048497341
0.0004849558
0.00048494086
0.00048492879
0.00048491978
0.000484914
0.00048491163
0.00048491279
0.00048491761
0.00048492617
0.00048493851
0.00048495467
0.00048497464
0.00048499837
0.00048502577
0.00048505676
0.00048509115
0.00048512878
0.00048516944
0.00048521289
0.00048525885
0.00048530706
0.00048535718
0.0004854089
0.00048546187
0.00048551574
0.00048554457
0.00048555667
0.00048556795
0.00048558305
0.00048560198
0.00048562472
0.00048565121
0.00048568134
0.00048571499
0.00048575198
0.00048579213
0.00048583521
0.00048588097
0.00048592917
0.00048597953
0.00048603179
0.00048608569
0.00048614096
0.00048619736
0.00048625466
0.00048630844
0.00048634537
0.00048636883
0.0004863805
0.00048639103
0.00048640071
0.00048640983
0.00048641872
0.00048642772
0.00048643724
0.0004864477
0.00048645961
0.0004864735
0.00048649
0.00048650973
0.00048653347
0.00048656186
0.00048659578
0.00048663567
0.00048668237
0.00048673573
0.00048679631
0.00048686283
0.00048693502
0.00048701024
0.00048708643
0.00048675546
0.00048680317
0.00048638588
0.0004863713
0.00048635667
0.00048634046
0.00048632378
0.00048630572
0.00048628692
0.00048626684
0.00048624591
0.00048622379
0.00048620079
0.00048617667
0.00048615172
0.00048612575
0.00048609903
0.00048607142
0.00048604316
0.00048601414
0.00048598461
0.00048595443
0.00048592385
0.00048589274
0.00048586133
0.00048582948
0.00048579741
0.00048576495
0.00048573233
0.00048569936
0.00048566626
0.00048563285
0.00048559929
0.00048556559
0.00048553164
0.00048549766
0.00048546348
0.00048542936
0.00048539516
0.00048536114
0.0004853272
0.00048529362
0.00048526036
0.00048522765
0.00048519561
0.00048516438
0.00048513416
0.00048510512
0.00048507748
0.00048505142
0.00048502718
0.00048500497
0.00048498502
0.00048496755
0.0004849528
0.00048494097
0.00048493227
0.00048492689
0.00048492499
0.00048492674
0.00048493226
0.00048494164
0.00048495495
0.00048497221
0.00048499343
0.00048501856
0.00048504752
0.00048508022
0.00048511647
0.00048515612
0.00048519892
0.00048524465
0.00048529301
0.00048534371
0.00048539642
0.00048545079
0.00048550646
0.00048553498
0.00048553818
0.00048554462
0.00048555507
0.00048556959
0.00048558819
0.00048561086
0.00048563753
0.00048566807
0.00048570236
0.00048574019
0.00048578135
0.00048582559
0.00048587264
0.00048592221
0.00048597402
0.00048602776
0.00048608313
0.00048613986
0.00048619769
0.00048625633
0.00048631559
0.00048637525
0.00048642231
0.00048645666
0.00048646676
0.00048647601
0.00048648472
0.00048649322
0.00048650186
0.00048651105
0.00048652119
0.00048653277
0.00048654629
0.00048656231
0.0004865814
0.00048660421
0.00048663128
0.00048666331
0.00048670064
0.00048674387
0.0004867928
0.00048684769
0.00048690744
0.00048697153
0.00048703785
0.00048710444
0.0004867639
0.00048678971
0.00048637193
0.00048635751
0.00048634269
0.0004863266
0.00048630993
0.00048629202
0.00048627338
0.00048625357
0.00048623295
0.00048621122
0.00048618867
0.0004861651
0.00048614076
0.00048611549
0.00048608955
0.00048606278
0.00048603545
0.00048600742
0.00048597893
0.00048594984
0.0004859204
0.00048589045
0.00048586023
0.00048582955
0.00048579865
0.00048576734
0.00048573583
0.00048570392
0.00048567183
0.00048563936
0.00048560666
0.00048557375
0.00048554049
0.00048550711
0.00048547344
0.00048543974
0.00048540586
0.00048537207
0.00048533828
0.00048530477
0.00048527149
0.00048523871
0.00048520652
0.0004851751
0.00048514463
0.00048511531
0.00048508737
0.000485061
0.00048503644
0.00048501393
0.00048499371
0.00048497601
0.00048496108
0.00048494914
0.00048494042
0.00048493512
0.00048493342
0.00048493549
0.00048494148
0.00048495149
0.00048496558
0.00048498381
0.00048500617
0.00048503262
0.0004850631
0.00048509748
0.00048513562
0.00048517731
0.00048522233
0.00048527042
0.00048532128
0.00048537461
0.00048543005
0.00048548723
0.00048552063
0.00048551966
0.00048552077
0.00048552607
0.00048553565
0.00048554958
0.00048556788
0.00048559052
0.00048561742
0.00048564845
0.00048568346
0.00048572222
0.00048576452
0.00048581005
0.00048585853
0.00048590964
0.00048596304
0.00048601841
0.00048607543
0.00048613377
0.00048619314
0.00048625326
0.0004863139
0.0004863748
0.00048643576
0.00048649504
0.00048653047
0.00048654711
0.00048655525
0.00048656319
0.00048657128
0.00048657992
0.00048658951
0.00048660051
0.00048661337
0.00048662862
0.00048664675
0.00048666833
0.00048669382