/*--------------------------------*- C++ -*----------------------------------*\
| =========                 |                                                 |
| \\      /  F ield         | foam-extend: Open Source CFD                    |
|  \\    /   O peration     | Version:     4.1                                |
|   \\  /    A nd           | Web:         http://www.foam-extend.org         |
|    \\/     M anipulation  |                                                 |
\*---------------------------------------------------------------------------*/
FoamFile
{
    version     2.0;
    format      ascii;
    class       volScalarField;
    location    "1.1";
    object      p;
}
// * * * * * * * * * * * * * * * * * * * * * * * * * * * * * * * * * * * * * //

dimensions      [0 2 -2 0 0 0 0];

internalField   nonuniform List<scalar> 
16796
(
-0.0011113476
-2.1508613e-05
-0.0011568739
-0.00080713375
-0.0014609278
-0.0014527286
-0.0019006895
-0.0020578853
-0.0024269507
-0.0026735204
-0.003023915
-0.0033290132
-0.0036911771
-0.0040444567
-0.0044356619
-0.0048361992
-0.0052680273
-0.0057193535
-0.0062010549
-0.0067089178
-0.0072489059
-0.0078202432
-0.0084267325
-0.0090691674
-0.0097504044
-0.01047195
-0.01123623
-0.012045054
-0.012900607
-0.013804784
-0.014759553
-0.015766756
-0.016828106
-0.017945215
-0.01911948
-0.020352124
-0.021644084
-0.022996031
-0.024408271
-0.025880719
-0.027412854
-0.029003609
-0.030651401
-0.032353959
-0.034108365
-0.035910907
-0.037757079
-0.03964148
-0.041557787
-0.04349869
-0.045455868
-0.047419946
-0.0493805
-0.051326043
-0.053244052
-0.055121015
-0.056942486
-0.058693181
-0.060357087
-0.061917609
-0.06335772
-0.064660165
-0.065807655
-0.066783103
-0.067569857
-0.068151956
-0.068514373
-0.068643273
-0.068526246
-0.068152562
-0.067513326
-0.066601755
-0.065413324
-0.063945774
-0.062199294
-0.060176564
-0.057882753
-0.055325525
-0.052514959
-0.049463457
-0.046185601
-0.042697969
-0.039018936
-0.035168397
-0.031167542
-0.027038492
-0.022804077
-0.01848742
-0.014111734
-0.0096999025
-0.0052743111
-0.00085647522
0.00353308
0.007875118
0.012151747
0.016346629
0.020444972
0.024433652
0.028301136
0.032037539
0.035634499
0.039085161
0.042384046
0.045526966
0.048510907
0.05133388
0.053994871
0.056493573
0.058830519
0.061006535
0.063023343
0.064882273
0.066586117
0.068135844
0.06953574
0.070784816
0.071890636
0.072846623
0.073668878
0.074336111
0.074887321
0.07526274
0.075562514
0.075628055
-0.0011092609
-2.1232524e-05
-0.0011544772
-0.00080522754
-0.00145776
-0.0014494586
-0.001896524
-0.0020533377
-0.002421655
-0.0026676989
-0.003017393
-0.0033218809
-0.0036833452
-0.0040359552
-0.00442644
-0.0048262599
-0.0052573374
-0.0057079048
-0.0061888236
-0.0066958925
-0.0072350694
-0.0078055859
-0.0084112441
-0.0090528436
-0.0097332438
-0.010453957
-0.011217415
-0.012025435
-0.012880209
-0.013783643
-0.014737714
-0.015744276
-0.016805056
-0.01792168
-0.019095561
-0.02032794
-0.021619774
-0.022971752
-0.024384203
-0.025857066
-0.027389842
-0.02898149
-0.030630452
-0.032334482
-0.034090687
-0.035895378
-0.037744073
-0.039631391
-0.041551023
-0.043495676
-0.045457034
-0.047425727
-0.049391325
-0.05134233
-0.0532662
-0.055149393
-0.056977427
-0.058734968
-0.060405949
-0.061973704
-0.063421132
-0.064730895
-0.065885612
-0.066868101
-0.06766161
-0.068250076
-0.068618371
-0.068752561
-0.068640143
-0.068270301
-0.067634055
-0.066724589
-0.065537394
-0.064070171
-0.062323076
-0.060298777
-0.058002435
-0.055441732
-0.052626771
-0.049569996
-0.046286049
-0.042791573
-0.039105032
-0.03524641
-0.031237001
-0.027099033
-0.02285545
-0.018529486
-0.014144469
-0.0097233891
-0.0052887361
-0.00086211732
0.0035358558
0.0078858763
0.012169991
0.016371815
0.020476522
0.024470968
0.02834361
0.032084566
0.035685486
0.039139537
0.042441267
0.045586524
0.048572331
0.051396743
0.05405879
0.056558209
0.058895579
0.061071769
0.063088544
0.064947275
0.066650791
0.068200097
0.06959951
0.070848074
0.071953373
0.072908862
0.073730649
0.074397481
0.074948338
0.075323514
0.075623086
0.075688589
-0.0011051283
-2.0858155e-05
-0.0011497979
-0.00080162155
-0.0014516
-0.0014431511
-0.0018884236
-0.0020445144
-0.0024113516
-0.0026563815
-0.0030047025
-0.0033080095
-0.0036681122
-0.0040194286
-0.0044085195
-0.0048069582
-0.005236592
-0.0056857053
-0.0061651279
-0.0066706844
-0.0072083213
-0.0077772857
-0.0083813793
-0.0090214139
-0.0097002552
-0.010419428
-0.011181377
-0.011987932
-0.012841304
-0.013743416
-0.014696268
-0.015701737
-0.016761575
-0.017877439
-0.019050773
-0.020282851
-0.021574668
-0.022926953
-0.024340075
-0.025814019
-0.02734833
-0.028942014
-0.030593559
-0.032300767
-0.03406079
-0.035869982
-0.037723899
-0.039617196
-0.041543594
-0.043495818
-0.045465565
-0.047443466
-0.049419078
-0.051380879
-0.053316285
-0.055211697
-0.057052559
-0.058823447
-0.060508183
-0.062089979
-0.06355159
-0.064875522
-0.066044226
-0.067040343
-0.067846933
-0.068447742
-0.068827455
-0.068971948
-0.068868537
-0.068506236
-0.0678759
-0.066970585
-0.065785719
-0.064318917
-0.06257027
-0.060542416
-0.058240518
-0.055672289
-0.052847896
-0.04977988
-0.04648301
-0.042974084
-0.039271747
-0.035396184
-0.031368912
-0.027212391
-0.022949808
-0.018604634
-0.014200442
-0.0097604427
-0.0053073447
-0.00086294334
0.0035519751
0.0079179647
0.012216951
0.016432468
0.020549624
0.024555246
0.028437784
0.032187372
0.035795698
0.03925598
0.042562837
0.045712193
0.04870116
0.051527885
0.054191491
0.056691813
0.059029522
0.06120558
0.063221838
0.065079753
0.066782228
0.068330342
0.069728472
0.070975729
0.072079735
0.073034009
0.073854673
0.074520547
0.075070572
0.07544517
0.075744263
0.075809661
-0.0010989388
-2.0250768e-05
-0.0011427472
-0.00079615381
-0.0014423063
-0.0014336208
-0.0018762023
-0.0020311973
-0.0023958081
-0.0026393057
-0.0029855572
-0.0032870797
-0.0036451267
-0.0039944867
-0.0043814697
-0.0047778167
-0.0052052632
-0.0056521713
-0.0061293228
-0.0066325807
-0.0071678748
-0.0077344748
-0.0083361816
-0.0089738252
-0.0096502803
-0.010367091
-0.011126718
-0.011931016
-0.012782218
-0.013682276
-0.014633223
-0.015636969
-0.016695308
-0.01780994
-0.018982355
-0.020213882
-0.021505569
-0.022858207
-0.024272228
-0.025747683
-0.027284187
-0.028880817
-0.030536134
-0.03224801
-0.034013669
-0.035829531
-0.037691214
-0.039593428
-0.041529938
-0.043493505
-0.045475845
-0.047467591
-0.049458285
-0.051436367
-0.053389194
-0.05530308
-0.057163358
-0.058954465
-0.060660057
-0.062263154
-0.063746296
-0.065091749
-0.066281705
-0.06729853
-0.068125001
-0.068744574
-0.069141641
-0.069301794
-0.069212077
-0.068861245
-0.068239922
-0.067340972
-0.066159731
-0.0646937
-0.062942865
-0.060909833
-0.058599754
-0.056020395
-0.053182012
-0.050097289
-0.046781182
-0.043250715
-0.039524806
-0.035623937
-0.03156996
-0.027385674
-0.023094635
-0.018720668
-0.014287711
-0.0098193078
-0.0053384965
-0.0008673546
0.0035730666
0.0079631112
0.012284522
0.016520703
0.020656669
0.0246792
0.028576729
0.032339417
0.035959001
0.039428782
0.042743474
0.045899124
0.048892969
0.051723295
0.054389366
0.056891159
0.059229489
0.061405453
0.063421033
0.065277812
0.066978806
0.068525205
0.069921477
0.07116683
0.072268949
0.073221446
0.074040461
0.07470493
0.075253732
0.075627481
0.07592587
0.07599112
-0.001090748
-1.9496606e-05
-0.001133425
-0.00078896246
-0.0014300215
-0.001421041
-0.0018600443
-0.0020135972
-0.0023752531
-0.0026167267
-0.0029602361
-0.0032594001
-0.0036147267
-0.0039615015
-0.0043456982
-0.0047392828
-0.005163841
-0.0056078389
-0.0060819944
-0.0065822223
-0.0071144294
-0.0076779163
-0.0082764826
-0.0089109829
-0.0095843038
-0.010298016
-0.011054601
-0.011855944
-0.012704312
-0.013601695
-0.014550166
-0.015551684
-0.016608096
-0.017721157
-0.018892424
-0.020123293
-0.021414886
-0.022768074
-0.024183373
-0.025660922
-0.027200428
-0.028801062
-0.03046148
-0.032179649
-0.033952885
-0.035777697
-0.037649785
-0.039563928
-0.041513954
-0.043492667
-0.045491807
-0.047502012
-0.049512803
-0.051512571
-0.053488591
-0.055427066
-0.057313182
-0.059131191
-0.060864533
-0.062495973
-0.064007767
-0.065381865
-0.066600117
-0.067644528
-0.068497498
-0.069142095
-0.069562327
-0.069743401
-0.069672
-0.069336525
-0.068727292
-0.067836874
-0.066660456
-0.065195383
-0.0634415
-0.061401365
-0.059080118
-0.056485595
-0.05362818
-0.050520749
-0.047178516
-0.043618819
-0.039860945
-0.035925783
-0.031835644
-0.027613794
-0.02328429
-0.018871442
-0.014399686
-0.009893018
-0.0053749246
-0.00086786425
0.0036067538
0.0080289933
0.012380352
0.016644069
0.020805032
0.024849968
0.028767294
0.032547213
0.036181536
0.039663683
0.042988505
0.046152213
0.049152223
0.051987011
0.054656033
0.057159464
0.059498307
0.061673848
0.063688244
0.065543246
0.067242025
0.068785916
0.070179511
0.071422147
0.072521593
0.073471585
0.074288287
0.074950786
0.075497879
0.075870441
0.076167849
0.076232886
-0.0010805515
-1.8525234e-05
-0.0011217702
-0.00077994723
-0.0014146486
-0.00140529
-0.0018398224
-0.0019915674
-0.0023495278
-0.002588466
-0.0029285426
-0.0032247511
-0.0035766689
-0.0039202016
-0.0043009029
-0.0046910199
-0.0051119505
-0.0055522909
-0.0060226786
-0.0065190928
-0.0070474115
-0.0076069735
-0.0082015764
-0.0088321052
-0.0095014613
-0.010211247
-0.010963971
-0.011761559
-0.012606315
-0.013500277
-0.014445571
-0.015444216
-0.016498122
-0.01760912
-0.018778844
-0.020008777
-0.021300136
-0.022653889
-0.024070661
-0.025550702
-0.027093834
-0.02869935
-0.030366025
-0.032091949
-0.033874554
-0.035710464
-0.037595484
-0.039524486
-0.041491377
-0.043489017
-0.045509185
-0.047542526
-0.049578536
-0.051605546
-0.053610735
-0.055580164
-0.057498833
-0.059350767
-0.061119129
-0.062786364
-0.064334365
-0.065744681
-0.066998731
-0.068078058
-0.068964582
-0.069640881
-0.070090473
-0.07029808
-0.070249926
-0.069933969
-0.069340145
-0.068460652
-0.067290475
-0.065826785
-0.064069237
-0.062020332
-0.059685194
-0.057071743
-0.054190521
-0.051054644
-0.04767965
-0.044083262
-0.04028524
-0.036306982
-0.032171376
-0.027902276
-0.023524378
-0.0190626
-0.014542012
-0.009987181
-0.0054221634
-0.00086989879
0.003647749
0.0081104905
0.012499513
0.016797847
0.020990222
0.025063299
0.029005475
0.032807011
0.036459812
0.039957445
0.04329494
0.046468718
0.049476417
0.052316756
0.054989435
0.057494874
0.059834317
0.062009286
0.06402216
0.065874901
0.06757087
0.069111591
0.070501806
0.071741016
0.072837093
0.07378393
0.074597719
0.075257741
0.075802684
0.076173754
0.076469928
0.076534701
-0.0010683983
-1.7385574e-05
-0.0011078653
-0.00076920726
-0.0013963038
-0.0013865025
-0.0018156869
-0.001965277
-0.0023188185
-0.00255473
-0.0028907033
-0.0031833816
-0.0035312253
-0.0038708844
-0.0042474084
-0.0046333815
-0.0050499765
-0.0054859451
-0.0059518287
-0.0064436836
-0.006967353
-0.0075222213
-0.0081120838
-0.0087378617
-0.009402474
-0.01010756
-0.010855664
-0.011648754
-0.012489183
-0.013379046
-0.014320531
-0.015315728
-0.016366626
-0.017475143
-0.018643007
-0.019871805
-0.021162867
-0.022517281
-0.023935798
-0.025418804
-0.026966262
-0.028577606
-0.030251759
-0.031986957
-0.033780776
-0.035629977
-0.037530492
-0.039477309
-0.041464429
-0.043484786
-0.045530204
-0.047591339
-0.049657663
-0.051717437
-0.053757724
-0.05576442
-0.057722305
-0.059615128
-0.061425722
-0.063136149
-0.064727865
-0.066181939
-0.067479263
-0.068600827
-0.069527968
-0.070242672
-0.070727862
-0.070967667
-0.070947757
-0.070655538
-0.070080492
-0.069214335
-0.068051792
-0.066589828
-0.064827858
-0.062768312
-0.060416294
-0.057779825
-0.054869639
-0.051699143
-0.04828427
-0.044643219
-0.040796325
-0.036765607
-0.03257467
-0.028248086
-0.023811336
-0.019290084
-0.014710181
-0.010096894
-0.0054749787
-0.00086795994
0.0037017416
0.0082134104
0.012647857
0.016987866
0.021217979
0.025324785
0.029296666
0.03312396
0.036798695
0.040314629
0.043667013
0.046852531
0.049869097
0.05271573
0.055392427
0.057899913
0.060239725
0.062413671
0.064424398
0.066274128
0.06796645
0.069503115
0.070889046
0.072123942
0.073215797
0.074158694
0.074968856
0.075625797
0.076168072
0.076537291
0.076831936
0.076896377
-0.0010542866
-1.6037737e-05
-0.0010916728
-0.00075668201
-0.0013749265
-0.0013646032
-0.0017875582
-0.0019346342
-0.002283025
-0.0025154056
-0.0028465925
-0.0031351501
-0.0034782375
-0.0038133715
-0.0041850136
-0.0045661409
-0.0049776632
-0.0054085135
-0.0058691204
-0.0063556297
-0.0068738438
-0.0074231998
-0.0080074896
-0.0086276762
-0.0092866985
-0.0099862402
-0.010728882
-0.011516645
-0.012351939
-0.013236923
-0.014173858
-0.015164917
-0.01621218
-0.017317666
-0.018483216
-0.019710537
-0.021001091
-0.022356108
-0.023776489
-0.025262778
-0.026815103
-0.028433072
-0.030115779
-0.031861636
-0.033668391
-0.035532968
-0.037451455
-0.039418978
-0.041429656
-0.043476515
-0.045551436
-0.047645096
-0.04974694
-0.051845155
-0.053926672
-0.055977195
-0.057981247
-0.059922256
-0.061782667
-0.063544087
-0.065187458
-0.066693277
-0.068041815
-0.0692134
-0.07018868
-0.070948934
-0.071476376
-0.071754435
-0.071768119
-0.071504183
-0.070951577
-0.070101429
-0.068948146
-0.067488467
-0.065721515
-0.063649637
-0.061277906
-0.05861446
-0.055670255
-0.05245904
-0.048997213
-0.04530353
-0.041399007
-0.037306402
-0.033050167
-0.028655727
-0.024149503
-0.019558044
-0.014908136
-0.010225876
-0.0055368574
-0.0008652986
0.0037657147
0.0083349658
0.012822817
0.017211769
0.021486142
0.025632448
0.029639056
0.033496404
0.03719667
0.040733847
0.04410345
0.04730248
0.050329186
0.053182938
0.055864093
0.058373734
0.060713745
0.062886273
0.064894282
0.066740297
0.068428178
0.069959937
0.071340715
0.07257044
0.073657246
0.074595439
0.075401279
0.076054553
0.076593656
0.076960674
0.077253504
0.077317555
-0.0010382524
-1.4515642e-05
-0.00107326
-0.00074244902
-0.0013506139
-0.0013397029
-0.0017555631
-0.001899781
-0.0022423053
-0.002470667
-0.0027964015
-0.0030802658
-0.003417933
-0.0037479098
-0.004113986
-0.004489587
-0.0048953219
-0.0053203308
-0.0057749129
-0.0062553159
-0.0067672952
-0.0073103476
-0.0078882608
-0.0085020452
-0.0091546617
-0.0098478435
-0.010584214
-0.011365855
-0.012195236
-0.013074593
-0.014006269
-0.014992531
-0.016035562
-0.017137499
-0.018300308
-0.019525837
-0.020815697
-0.022171281
-0.023593662
-0.025083568
-0.026641318
-0.028266715
-0.029959058
-0.031716959
-0.033538366
-0.035420399
-0.037359326
-0.039350436
-0.04138799
-0.043465123
-0.045573791
-0.047704698
-0.049847267
-0.051989605
-0.054118496
-0.056219429
-0.058276636
-0.06027318
-0.062191058
-0.064011359
-0.065714428
-0.067280102
-0.068687932
-0.069917479
-0.07094859
-0.071761719
-0.072338258
-0.072660816
-0.07271363
-0.072482687
-0.071956325
-0.071124961
-0.06998262
-0.068525789
-0.066753237
-0.064667212
-0.062272748
-0.059578109
-0.056594512
-0.053336095
-0.049819799
-0.046065024
-0.042093589
-0.037929109
-0.033597034
-0.029123787
-0.024536897
-0.01986395
-0.015132837
-0.010370625
-0.0056038946
-0.00085767169
0.0038441768
0.0084798575
0.013029212
0.01747442
0.021799551
0.025991043
0.030037258
0.033928766
0.037657933
0.041219033
0.044607903
0.047821921
0.050859729
0.053721119
0.056406863
0.058918467
0.06125822
0.063428662
0.065433123
0.067274479
0.068956902
0.070482708
0.071857281
0.073080814
0.074161604
0.07509421
0.075894928
0.076543865
0.077079221
0.077443642
0.077734331
0.077797919
-0.0010202945
-1.2797215e-05
-0.0010526069
-0.00072647547
-0.0013233341
-0.0013117619
-0.0017196601
-0.0018606692
-0.0021966066
-0.0024204539
-0.002740062
-0.00301865
-0.0033502217
-0.0036743952
-0.0040342053
-0.0044035805
-0.0048027918
-0.0052212111
-0.0056689918
-0.0061424957
-0.0066474244
-0.0071833414
-0.0077540287
-0.0083605492
-0.009005888
-0.0096918331
-0.010421055
-0.011195702
-0.012018312
-0.012891207
-0.013816819
-0.014797523
-0.015835618
-0.01693337
-0.01809289
-0.019316181
-0.020605027
-0.021961004
-0.023385381
-0.024879095
-0.026442682
-0.028076173
-0.029779098
-0.031550303
-0.033387968
-0.035289437
-0.03725119
-0.039268711
-0.041336426
-0.043447607
-0.045594299
-0.047767249
-0.049955865
-0.052148169
-0.054330787
-0.05648897
-0.058606626
-0.060666403
-0.062649794
-0.064537295
-0.06630857
-0.0679427
-0.069418409
-0.070714377
-0.071809525
-0.072683362
-0.073316327
-0.073690087
-0.073787988
-0.073595139
-0.073099168
-0.07228967
-0.071160205
-0.069706989
-0.067928383
-0.065826509
-0.063406358
-0.06067633
-0.057647935
-0.054335748
-0.050757333
-0.046932821
-0.042884952
-0.038638323
-0.034219544
-0.029656182
-0.024977054
-0.020210942
-0.015387026
-0.010533486
-0.0056780585
-0.00084669034
0.0039358427
0.0086470934
0.013266303
0.017775296
0.022157861
0.026400365
0.030491174
0.034421022
0.038182504
0.041770233
0.045180421
0.048410891
0.051460742
0.054330254
0.057020682
0.059534017
0.06187301
0.064040656
0.066040698
0.067876413
0.069552327
0.071071097
0.072438385
0.073654681
0.074728463
0.075654578
0.076449359
0.077093275
0.0776243
0.077985722
0.078273941
0.078336997
-0.0010004386
-1.0910061e-05
-0.0010297701
-0.00070882711
-0.0012931723
-0.001280877
-0.0016799621
-0.0018174248
-0.0021460697
-0.0023649209
-0.0026777438
-0.0029504872
-0.0032753034
-0.0035930427
-0.0039459022
-0.0043083681
-0.0047003357
-0.0051114336
-0.0055516528
-0.0060174809
-0.0065145594
-0.0070425247
-0.0076051521
-0.0082035616
-0.0088407644
-0.0095186084
-0.010239816
-0.011006607
-0.011821597
-0.012687198
-0.013605946
-0.01458033
-0.015612779
-0.016705704
-0.017861375
-0.01908197
-0.020369463
-0.021725634
-0.023151975
-0.024649654
-0.026219455
-0.027861664
-0.029576073
-0.031361794
-0.033217273
-0.035140109
-0.037127028
-0.03917374
-0.041274868
-0.043423841
-0.04561282
-0.047832611
-0.050072611
-0.052320761
-0.054563521
-0.056785882
-0.058971395
-0.061102249
-0.063159374
-0.0651226
-0.066970824
-0.068682274
-0.070234735
-0.071605886
-0.072773598
-0.073716303
-0.074413352
-0.074845339
-0.074994592
-0.074845214
-0.074384029
-0.073599673
-0.072485158
-0.071036418
-0.069251323
-0.067131853
-0.064682937
-0.06191312
-0.058834239
-0.055461354
-0.051812732
-0.047909331
-0.043774944
-0.039435281
-0.034918287
-0.030252832
-0.025469231
-0.020597623
-0.015668688
-0.010711874
-0.0057562549
-0.00082882213
0.0040446011
0.0088408365
0.013538441
0.018118856
0.022565556
0.026864854
0.031005131
0.034977338
0.03877434
0.042391156
0.045824441
0.049072534
0.052135066
0.05501288
0.057707783
0.06022232
0.062559769
0.064723635
0.066718134
0.06854699
0.070215125
0.071725581
0.073084326
0.074292184
0.075357829
0.076276431
0.077064359
0.07770249
0.078228534
0.078586508
0.07887189
0.078934333
-0.00097868479
-8.8439777e-06
-0.0010047436
-0.00068949187
-0.0012601196
-0.0012470365
-0.0016364586
-0.0017700349
-0.002090681
-0.002304051
-0.0026094259
-0.0028757508
-0.0031931444
-0.0035038096
-0.0038490229
-0.0042038823
-0.0045878698
-0.0049908952
-0.0054227703
-0.0058801201
-0.0063685188
-0.0068876823
-0.0074413771
-0.0080307852
-0.008658945
-0.0093277692
-0.010040035
-0.010798043
-0.011604489
-0.012461885
-0.013372879
-0.014340087
-0.015366079
-0.016453425
-0.01760457
-0.018821886
-0.020107556
-0.02146359
-0.022891722
-0.024393384
-0.025969633
-0.027621043
-0.029347702
-0.031149022
-0.033023749
-0.034969779
-0.036984119
-0.039062738
-0.04120049
-0.043390997
-0.045626558
-0.047898058
-0.050194901
-0.052504948
-0.054814486
-0.057108229
-0.059369341
-0.061579504
-0.063719024
-0.065766989
-0.067701438
-0.069499637
-0.071138314
-0.072594022
-0.073843436
-0.074863773
-0.075633147
-0.076130944
-0.076338323
-0.076238268
-0.075816667
-0.075061098
-0.073963897
-0.072520687
-0.070728812
-0.068590055
-0.066109294
-0.063295208
-0.060160001
-0.056719264
-0.052992055
-0.049000246
-0.044768827
-0.040324755
-0.035697502
-0.030917406
-0.026016503
-0.021026469
-0.015979711
-0.010907108
-0.0058392755
-0.00080437659
0.004170564
0.0090615601
0.013846392
0.018506092
0.023023794
0.027385771
0.031580445
0.035599031
0.039434721
0.043083015
0.046541079
0.049807856
0.052883583
0.055769745
0.058468777
0.060983852
0.063318841
0.06547782
0.067465533
0.069286203
0.07094519
0.072445963
0.073794827
0.074992974
0.076049292
0.076959307
0.077739422
0.078370968
0.078891352
0.07924541
0.079527576
0.079589325
-0.00095505277
-6.6238788e-06
-0.00097757727
-0.00066852966
-0.0012242544
-0.0012103304
-0.0015892551
-0.0017186177
-0.0020305726
-0.0022379894
-0.0025352674
-0.0027946127
-0.0031039299
-0.0034068939
-0.003743778
-0.0040903461
-0.004465629
-0.004859842
-0.005282601
-0.0057306794
-0.0062095774
-0.0067190959
-0.007262991
-0.0078425105
-0.0084607215
-0.0091196057
-0.0098219995
-0.010570287
-0.011367253
-0.012215519
-0.013117849
-0.014076999
-0.015095692
-0.016176671
-0.017322571
-0.018535976
-0.019819298
-0.021174799
-0.022604483
-0.024110069
-0.02569292
-0.027353929
-0.029093515
-0.030911427
-0.032806749
-0.034777712
-0.036821643
-0.038934812
-0.041112341
-0.043348077
-0.045634491
-0.047962571
-0.050321743
-0.052699801
-0.055082855
-0.057455328
-0.059799964
-0.062097898
-0.064328747
-0.066470782
-0.068501087
-0.070395859
-0.072130643
-0.073680727
-0.075021448
-0.076128652
-0.076979064
-0.077550708
-0.077823424
-0.077778943
-0.077402085
-0.07667924
-0.075601948
-0.074165513
-0.072366672
-0.070206971
-0.067691218
-0.064828225
-0.061630596
-0.058114495
-0.054299858
-0.050209569
-0.045869968
-0.041309399
-0.036559078
-0.031650988
-0.026619143
-0.021496942
-0.016318786
-0.011117155
-0.0059244433
-0.00077011271
0.004317436
0.0093133335
0.014194484
0.018941494
0.023537122
0.027967643
0.032221537
0.036290358
0.040167684
0.043849584
0.047333818
0.050620025
0.053709133
0.056603362
0.059305853
0.061820486
0.064151794
0.066304493
0.068283908
0.070094818
0.071743063
0.07323258
0.074570042
0.075757044
0.076802704
0.077702937
0.078474177
0.079098255
0.079612233
0.079961862
0.080240394
0.080301357
-0.00092954457
-4.2481311e-06
-0.00094827659
-0.00064594484
-0.0011855871
-0.0011707702
-0.0015383676
-0.0016631904
-0.0019657643
-0.0021667559
-0.0024552878
-0.0027070906
-0.0030076743
-0.0033023048
-0.0036301698
-0.0039677522
-0.0043335942
-0.0047182404
-0.0051310935
-0.0055690863
-0.0060376375
-0.0065366389
-0.0070698333
-0.0076385387
-0.0082458512
-0.0088938256
-0.0095853603
-0.010322929
-0.011109411
-0.011947542
-0.012840215
-0.013790332
-0.014800783
-0.015874497
-0.017014315
-0.018223052
-0.019503369
-0.020857802
-0.022288652
-0.023797956
-0.025387411
-0.027058265
-0.028811305
-0.030646656
-0.032563785
-0.034561296
-0.036636886
-0.038787166
-0.04100757
-0.043292212
-0.045633771
-0.048023369
-0.05045048
-0.052902841
-0.055366388
-0.057825243
-0.060261702
-0.062656309
-0.064987932
-0.067233938
-0.06937036
-0.071372205
-0.073213698
-0.074868717
-0.076311093
-0.077515145
-0.078456025
-0.07911024
-0.079456128
-0.079474053
-0.079147565
-0.078461858
-0.077407423
-0.075979184
-0.074173322
-0.071991024
-0.069437064
-0.066520355
-0.063253944
-0.059654605
-0.055743251
-0.051543868
-0.047084312
-0.04239446
-0.037507511
-0.032457273
-0.027280029
-0.022011098
-0.016687175
-0.011342521
-0.0060115712
-0.00072522404
0.0044865498
0.0095979254
0.014584821
0.019427406
0.024108039
0.028613035
0.032930969
0.037053811
0.040975602
0.044693076
0.048204682
0.051510853
0.054613308
0.057515095
0.060220149
0.062733138
0.065059334
0.06720416
0.069173583
0.070972987
0.072608742
0.074085292
0.075409709
0.076584024
0.077617602
0.07850678
0.079268016
0.079883692
0.080390474
0.080735133
0.081009591
0.081069674
-0.00090217707
-1.7407203e-06
-0.00091688877
-0.00062179536
-0.0011441941
-0.0011284442
-0.0014839001
-0.0016038696
-0.0018963868
-0.002090494
-0.002369644
-0.0026133535
-0.002904559
-0.0031902351
-0.0035084022
-0.0038363148
-0.0041919888
-0.0045663217
-0.0049684857
-0.0053955838
-0.0058529454
-0.0063405583
-0.0068621497
-0.0074191107
-0.008014567
-0.0086506499
-0.0093303227
-0.010056154
-0.01083112
-0.01165808
-0.012540063
-0.013480127
-0.01448134
-0.015546831
-0.016679661
-0.017882893
-0.019159461
-0.020512198
-0.021943725
-0.023456425
-0.025052367
-0.026733188
-0.028500078
-0.030353586
-0.032293599
-0.034319149
-0.036428343
-0.038618188
-0.040884476
-0.043221634
-0.04562259
-0.048078639
-0.050579331
-0.053112368
-0.055663518
-0.058216594
-0.060753422
-0.063253911
-0.065696115
-0.06805642
-0.070309695
-0.072429639
-0.07438901
-0.076160116
-0.077715114
-0.079026613
-0.080068009
-0.08081412
-0.081241592
-0.081329281
-0.08105928
-0.080415516
-0.07938721
-0.0779689
-0.076156157
-0.073949739
-0.071354361
-0.068379021
-0.065037235
-0.061346423
-0.057328566
-0.053008848
-0.048416823
-0.043584049
-0.038545979
-0.033338442
-0.028000327
-0.022569082
-0.017084047
-0.011581454
-0.0060980868
-0.00066641811
0.0046817873
0.0099196829
0.015022077
0.019968709
0.024741506
0.029326885
0.03371356
0.037894017
0.041862841
0.045617552
0.049157388
0.052483697
0.055599091
0.058507552
0.061213904
0.063723694
0.06604301
0.068178054
0.070135495
0.07192138
0.073542651
0.075004303
0.076313838
0.077473753
0.078493676
0.0793704
0.080120396
0.08072665
0.081225377
0.081564476
0.081834385
0.081893482
-0.00087295478
8.9344367e-07
-0.00088342892
-0.00059609917
-0.0011001022
-0.0010833837
-0.0014258912
-0.0015406984
-0.0018224888
-0.0020092556
-0.0022783911
-0.0025134579
-0.0027946408
-0.0030707398
-0.0033785266
-0.0036960793
-0.0040408502
-0.0044041123
-0.0047947903
-0.0052101671
-0.005655475
-0.0061308029
-0.0066398586
-0.00718411
-0.0077667118
-0.0083898749
-0.0090566295
-0.0097696425
-0.010531995
-0.011346672
-0.012216847
-0.013145745
-0.014136621
-0.015192816
-0.016317631
-0.017514392
-0.018786325
-0.020136584
-0.02156814
-0.023083754
-0.024685896
-0.02637663
-0.028157598
-0.030029808
-0.031993624
-0.034048551
-0.036193165
-0.038424919
-0.04074002
-0.04313326
-0.045597869
-0.048125359
-0.050705393
-0.053325663
-0.055971786
-0.058627262
-0.06127343
-0.063889521
-0.066452712
-0.06893832
-0.071319941
-0.073569828
-0.075659118
-0.077558375
-0.079237885
-0.080668357
-0.081821216
-0.082669404
-0.083187647
-0.083353189
-0.083146297
-0.08254994
-0.081551511
-0.080144971
-0.078325619
-0.07609351
-0.073453368
-0.070414216
-0.066990083
-0.063199062
-0.059064306
-0.05461228
-0.049874442
-0.044884175
-0.039679496
-0.034298451
-0.02878292
-0.023172697
-0.017510173
-0.011833745
-0.0061829056
-0.0005918332
0.0049056534
0.01028163
0.015509655
0.020569061
0.025441311
0.030113008
0.034573053
0.038814568
0.042832783
0.046626135
0.050194768
0.053541077
0.05666868
0.059582609
0.062288679
0.064793413
0.067103793
0.069226878
0.071170102
0.072940231
0.074544824
0.075989469
0.077282124
0.07842579
0.079430366
0.080293136
0.081030573
0.081626317
0.082116078
0.082448992
0.082713845
0.082771849
-0.00084189361
3.6302343e-06
-0.00084794424
-0.00056891509
-0.001053389
-0.0010356794
-0.0013644479
-0.0014737972
-0.0017442056
-0.0019231894
-0.0021816911
-0.0024075783
-0.0026781063
-0.0029440169
-0.0032407514
-0.0035472635
-0.003880404
-0.0042318444
-0.0046102437
-0.0050130751
-0.0054454654
-0.0059076084
-0.0064031899
-0.0069337564
-0.007502491
-0.0081116869
-0.0087644424
-0.0094635269
-0.010212128
-0.011013366
-0.011870562
-0.012787119
-0.013766487
-0.014812234
-0.015927913
-0.017117132
-0.018383431
-0.019730308
-0.021161109
-0.022679004
-0.024286902
-0.025987334
-0.027782432
-0.029673717
-0.031662078
-0.033747552
-0.035929237
-0.038205096
-0.040571811
-0.043024601
-0.045557054
-0.048160952
-0.050826115
-0.053540263
-0.05628888
-0.059055162
-0.061819938
-0.064561729
-0.06725677
-0.069879218
-0.07240128
-0.074793621
-0.077025585
-0.079065807
-0.080882498
-0.08244425
-0.083720296
-0.084681492
-0.085300422
-0.085552546
-0.085416019
-0.084872991
-0.083908706
-0.082516203
-0.080690822
-0.078431695
-0.075743536
-0.072635362
-0.06912172
-0.065221396
-0.060958813
-0.056361797
-0.051463927
-0.046300559
-0.040912636
-0.035340619
-0.029629844
-0.023822674
-0.017965041
-0.012097704
-0.0062632909
-0.00049781891
0.005162537
0.010688733
0.01605292
0.021234067
0.026213142
0.030977046
0.035514927
0.039820691
0.043890325
0.04772334
0.05132092
0.054686653
0.057825288
0.06074304
0.06344682
0.065944228
0.068243233
0.070351825
0.072278269
0.074030107
0.075615559
0.077040848
0.078314417
0.0794398
0.08042718
0.081274362
0.081997809
0.082581867
0.083061677
0.083387731
0.083646986
0.083703776
-0.00080900086
6.4594865e-06
-0.00081045873
-0.00054027282
-0.0010040965
-0.00098538008
-0.0012996296
-0.0014032326
-0.0016616122
-0.0018323765
-0.0020796317
-0.0022958065
-0.0025550506
-0.0028101628
-0.0030951728
-0.0033899611
-0.0037107391
-0.0040495991
-0.0044149168
-0.0048043644
-0.005222955
-0.0056709914
-0.0061521329
-0.0066680067
-0.0072218234
-0.0078159598
-0.0084535837
-0.0091375696
-0.0098712153
-0.01065778
-0.011500742
-0.012403684
-0.013370267
-0.014404295
-0.015509587
-0.016690052
-0.017949562
-0.019291985
-0.020721071
-0.022240431
-0.023853447
-0.02556316
-0.02737224
-0.029282771
-0.031296222
-0.033413221
-0.035633458
-0.037955471
-0.040376486
-0.042892218
-0.04549668
-0.048181988
-0.050938176
-0.053753035
-0.056611947
-0.059497816
-0.062390955
-0.065269139
-0.068107596
-0.070879236
-0.073554749
-0.076103059
-0.07849153
-0.080686667
-0.082654365
-0.08436087
-0.085772963
-0.086859183
-0.087589721
-0.08793806
-0.087880105
-0.087396762
-0.086471126
-0.085095388
-0.08326465
-0.080977118
-0.078237475
-0.075054702
-0.071443878
-0.067424501
-0.063022367
-0.058266731
-0.053193545
-0.04784027
-0.042251187
-0.036469365
-0.030544142
-0.024520666
-0.018448988
-0.012372422
-0.0063372392
-0.00038140954
0.0054561783
0.011145342
0.016656641
0.021968752
0.027062121
0.031924084
0.036544111
0.040917067
0.045039824
0.048913153
0.052539421
0.055923576
0.05907164
0.061991146
0.064690219
0.067177648
0.069462477
0.071553709
0.073460507
0.075191245
0.076754851
0.078158221
0.079410309
0.080515214
0.081483409
0.082313253
0.083021182
0.083592299
0.084061112
0.084379591
0.084632671
0.084688124
-0.00077429275
9.356184e-06
-0.00077102162
-0.00051023414
-0.00095230638
-0.00093258184
-0.0012315499
-0.0013291328
-0.0015748529
-0.0017369754
-0.0019723859
-0.002178329
-0.0024256735
-0.0026693889
-0.0029420133
-0.0032244038
-0.0035320954
-0.0038576224
-0.0042090593
-0.0045842864
-0.0049881939
-0.0054211969
-0.0058869239
-0.0063870843