/*--------------------------------*- C++ -*----------------------------------*\
| =========                 |                                                 |
| \\      /  F ield         | foam-extend: Open Source CFD                    |
|  \\    /   O peration     | Version:     4.1                                |
|   \\  /    A nd           | Web:         http://www.foam-extend.org         |
|    \\/     M anipulation  |                                                 |
\*---------------------------------------------------------------------------*/
FoamFile
{
    version     2.0;
    format      ascii;
    class       volScalarField;
    location    "1.1";
    object      rAU;
}
// * * * * * * * * * * * * * * * * * * * * * * * * * * * * * * * * * * * * * //

dimensions      [0 0 1 0 0 0 0];

internalField   nonuniform List<scalar> 
16796
(
0.00048789179
0.00048748115
0.0004874766
0.00048747192
0.00048746695
0.00048746182
0.00048745635
0.00048745071
0.0004874447
0.00048743848
0.00048743186
0.000487425
0.0004874177
0.00048741013
0.00048740209
0.00048739374
0.00048738488
0.00048737567
0.00048736592
0.00048735578
0.00048734506
0.00048733391
0.00048732213
0.00048730988
0.00048729697
0.00048728354
0.00048726941
0.00048725472
0.00048723928
0.00048722326
0.00048720645
0.00048718897
0.00048717082
0.00048715184
0.00048713221
0.00048711173
0.0004870906
0.00048706864
0.00048704602
0.00048702259
0.00048699853
0.00048697372
0.00048694829
0.00048692223
0.0004868956
0.00048686846
0.00048684086
0.0004868129
0.00048678464
0.00048675619
0.00048672764
0.00048669912
0.00048667075
0.00048664267
0.00048661503
0.00048658797
0.00048656165
0.00048653625
0.00048651192
0.00048648883
0.00048646715
0.00048644704
0.00048642866
0.00048641214
0.00048639761
0.00048638521
0.00048637504
0.00048636717
0.00048636169
0.00048635865
0.00048635809
0.00048635808
0.00048636002
0.00048636446
0.00048637139
0.00048638079
0.00048639262
0.00048640684
0.0004864234
0.0004864422
0.00048646318
0.00048648624
0.00048651127
0.00048653816
0.00048656677
0.00048659697
0.0004866286
0.00048666149
0.00048669548
0.00048673036
0.00048676599
0.00048680214
0.00048683863
0.00048687529
0.00048691192
0.00048694836
0.00048698444
0.00048702001
0.00048705491
0.00048708904
0.00048712226
0.00048715448
0.0004871856
0.00048721556
0.00048724428
0.00048727172
0.00048729782
0.00048732257
0.00048734592
0.00048736787
0.00048738841
0.00048740753
0.00048742523
0.00048744151
0.00048745638
0.00048746986
0.00048748195
0.00048749266
0.000487502
0.00048750998
0.00048751661
0.0004875219
0.00048752585
0.00048712273
0.00048758292
0.00048717262
0.00048716791
0.00048716303
0.00048715786
0.0004871525
0.00048714681
0.00048714092
0.00048713464
0.00048712814
0.00048712123
0.00048711405
0.00048710643
0.00048709851
0.00048709011
0.00048708138
0.00048707212
0.0004870625
0.00048705231
0.00048704172
0.00048703053
0.00048701888
0.00048700659
0.00048699381
0.00048698034
0.00048696634
0.00048695161
0.00048693631
0.00048692024
0.00048690357
0.00048688609
0.00048686793
0.00048684908
0.0004868294
0.00048680905
0.00048678786
0.00048676601
0.00048674332
0.00048671999
0.00048669585
0.00048667111
0.00048664562
0.00048661955
0.00048659289
0.0004865657
0.00048653805
0.00048651
0.00048648166
0.0004864531
0.00048642444
0.00048639578
0.00048636726
0.00048633901
0.00048631119
0.00048628394
0.00048625742
0.00048623179
0.00048620724
0.00048618392
0.00048616202
0.00048614168
0.00048612306
0.00048610632
0.00048609159
0.00048607899
0.00048606863
0.00048606061
0.00048605498
0.00048605182
0.00048605116
0.00048605301
0.00048605164
0.00048605103
0.00048605293
0.00048605736
0.00048606431
0.00048607374
0.00048608562
0.00048609993
0.00048611657
0.00048613549
0.0004861566
0.00048617981
0.00048620501
0.00048623209
0.0004862609
0.00048629132
0.00048632317
0.0004863563
0.00048639051
0.00048642565
0.0004864615
0.00048649788
0.00048653459
0.00048657146
0.00048660828
0.00048664489
0.00048668114
0.00048671684
0.00048675188
0.0004867861
0.00048681941
0.0004868517
0.00048688288
0.00048691287
0.00048694162
0.00048696907
0.00048699518
0.0004870199
0.00048704325
0.00048706518
0.00048708569
0.00048710478
0.00048712244
0.00048713869
0.00048715354
0.00048716698
0.00048717904
0.00048718972
0.00048719903
0.00048720699
0.0004872136
0.00048721888
0.0004868176
0.00048757897
0.00048716849
0.00048716363
0.00048715855
0.00048715319
0.00048714761
0.00048714169
0.00048713554
0.00048712901
0.00048712223
0.00048711502
0.00048710754
0.00048709959
0.00048709132
0.00048708256
0.00048707344
0.00048706379
0.00048705375
0.00048704312
0.00048703207
0.0004870204
0.00048700826
0.00048699545
0.00048698213
0.0004869681
0.00048695351
0.00048693818
0.00048692226
0.00048690554
0.0004868882
0.00048687005
0.00048685119
0.00048683163
0.00048681122
0.00048679013
0.0004867682
0.00048674559
0.00048672215
0.00048669807
0.00048667319
0.00048664771
0.00048662151
0.00048659475
0.00048656743
0.00048653962
0.00048651139
0.00048648282
0.00048645401
0.00048642507
0.0004863961
0.00048636724
0.00048633862
0.00048631039
0.0004862827
0.00048625573
0.00048622963
0.00048620458
0.00048618075
0.00048615832
0.00048613747
0.00048611834
0.0004861011
0.00048608589
0.00048607284
0.00048606205
0.00048605363
0.00048604767
0.00048604421
0.00048604329
0.00048604494
0.00048604916
0.00048604652
0.00048604331
0.00048604264
0.00048604455
0.00048604902
0.00048605606
0.00048606562
0.0004860777
0.00048609223
0.00048610915
0.00048612839
0.00048614986
0.00048617348
0.00048619912
0.00048622668
0.000486256
0.00048628695
0.00048631935
0.00048635303
0.00048638782
0.00048642351
0.00048645991
0.00048649682
0.00048653405
0.00048657139
0.00048660866
0.00048664569
0.0004866823
0.00048671834
0.00048675367
0.00048678815
0.00048682167
0.00048685415
0.00048688548
0.00048691559
0.00048694443
0.00048697194
0.00048699809
0.00048702285
0.0004870462
0.00048706813
0.00048708862
0.00048710769
0.00048712532
0.00048714155
0.00048715636
0.00048716977
0.00048718179
0.00048719244
0.00048720173
0.00048720967
0.00048721628
0.00048681632
0.00048757512
0.00048716448
0.00048715947
0.0004871542
0.00048714865
0.00048714286
0.00048713672
0.00048713033
0.00048712355
0.00048711649
0.000487109
0.00048710121
0.00048709294
0.00048708434
0.00048707522
0.00048706574
0.00048705569
0.00048704524
0.00048703419
0.00048702269
0.00048701055
0.00048699791
0.00048698459
0.00048697074
0.00048695616
0.000486941
0.00048692507
0.00048690853
0.00048689118
0.00048687319
0.00048685435
0.0004868348
0.00048681453
0.0004867934
0.00048677158
0.00048674889
0.00048672554
0.00048670134
0.0004866765
0.00048665086
0.00048662463
0.0004865977
0.00048657022
0.00048654221
0.00048651374
0.00048648489
0.00048645575
0.00048642644
0.00048639706
0.00048636773
0.0004863386
0.00048630981
0.00048628151
0.00048625389
0.00048622711
0.00048620134
0.00048617677
0.00048615358
0.00048613194
0.00048611204
0.00048609402
0.00048607806
0.00048606428
0.00048605281
0.00048604376
0.0004860372
0.00048603322
0.00048603185
0.00048603311
0.00048603703
0.00048604359
0.00048603989
0.00048603401
0.00048603071
0.00048603004
0.00048603201
0.00048603662
0.00048604386
0.00048605372
0.00048606615
0.00048608109
0.00048609849
0.00048611828
0.00048614036
0.00048616465
0.00048619101
0.00048621933
0.00048624946
0.00048628123
0.00048631447
0.00048634901
0.00048638464
0.00048642116
0.00048645836
0.00048649603
0.00048653398
0.00048657198
0.00048660988
0.00048664746
0.00048668457
0.00048672105
0.00048675676
0.00048679156
0.00048682536
0.00048685806
0.00048688956
0.00048691981
0.00048694875
0.00048697632
0.00048700251
0.00048702729
0.00048705063
0.00048707253
0.00048709299
0.00048711201
0.0004871296
0.00048714577
0.00048716053
0.0004871739
0.00048718588
0.00048719649
0.00048720575
0.00048721368
0.00048681505
0.00048757138
0.00048716058
0.00048715543
0.00048714998
0.00048714425
0.00048713825
0.0004871319
0.00048712528
0.00048711825
0.00048711094
0.00048710317
0.00048709508
0.0004870865
0.00048707758
0.00048706811
0.00048705826
0.00048704783
0.00048703698
0.00048702551
0.00048701357
0.00048700097
0.00048698786
0.00048697404
0.00048695966
0.00048694454
0.00048692882
0.0004869123
0.00048689515
0.00048687717
0.00048685853
0.00048683902
0.00048681879
0.00048679781
0.00048677595
0.00048675339
0.00048672996
0.00048670584
0.00048668088
0.00048665526
0.00048662885
0.00048660186
0.00048657417
0.00048654595
0.00048651721
0.00048648805
0.00048645854
0.00048642879
0.00048639892
0.00048636903
0.00048633928
0.00048630981
0.00048628077
0.00048625233
0.00048622469
0.000486198
0.00048617247
0.00048614828
0.00048612562
0.00048610467
0.00048608562
0.00048606863
0.00048605384
0.0004860414
0.00048603143
0.00048602402
0.00048601924
0.00048601717
0.00048601782
0.00048602122
0.00048602737
0.00048603623
0.00048603177
0.00048602314
0.00048601715
0.00048601385
0.00048601326
0.00048601542
0.00048602031
0.00048602794
0.00048603826
0.00048605124
0.00048606684
0.00048608498
0.00048610558
0.00048612857
0.00048615382
0.00048618121
0.00048621061
0.00048624185
0.00048627475
0.00048630914
0.00048634481
0.00048638154
0.00048641913
0.00048645735
0.00048649599
0.00048653482
0.00048657366
0.00048661229
0.00048665054
0.00048668824
0.00048672522
0.00048676135
0.00048679653
0.00048683062
0.00048686354
0.00048689523
0.0004869256
0.00048695462
0.00048698225
0.00048700845
0.00048703321
0.00048705652
0.00048707837
0.00048709877
0.00048711772
0.00048713525
0.00048715134
0.00048716604
0.00048717934
0.00048719127
0.00048720185
0.00048721109
0.00048681378
0.00048756775
0.0004871568
0.00048715152
0.00048714589
0.00048713999
0.0004871338
0.00048712725
0.0004871204
0.00048711314
0.00048710557
0.00048709753
0.00048708916
0.00048708028
0.00048707103
0.00048706123
0.00048705103
0.00048704023
0.00048702898
0.0004870171
0.00048700473
0.00048699168
0.0004869781
0.00048696378
0.0004869489
0.00048693324
0.00048691696
0.00048689986
0.00048688211
0.00048686351
0.00048684422
0.00048682405
0.00048680313
0.00048678145
0.00048675887
0.00048673557
0.00048671139
0.00048668651
0.00048666076
0.00048663436
0.00048660716
0.00048657939
0.00048655091
0.00048652191
0.00048649242
0.00048646252
0.00048643231
0.00048640189
0.0004863714
0.00048634095
0.00048631071
0.00048628082
0.00048625145
0.00048622278
0.00048619502
0.00048616834
0.00048614295
0.00048611904
0.00048609681
0.00048607645
0.00048605815
0.00048604206
0.00048602835
0.00048601715
0.00048600858
0.00048600272
0.00048599965
0.00048599942
0.00048600205
0.00048600754
0.00048601587
0.00048602701
0.00048602219
0.00048601074
0.00048600197
0.00048599597
0.00048599277
0.00048599242
0.00048599493
0.0004860003
0.00048600852
0.00048601955
0.00048603335
0.00048604988
0.00048606905
0.0004860908
0.000486115
0.00048614155
0.00048617031
0.0004862011
0.00048623377
0.00048626812
0.00048630393
0.00048634099
0.00048637907
0.00048641794
0.00048645737
0.00048649712
0.00048653699
0.00048657676
0.00048661622
0.00048665519
0.00048669352
0.00048673103
0.00048676762
0.00048680315
0.00048683753
0.00048687067
0.00048690251
0.00048693298
0.00048696205
0.00048698969
0.00048701587
0.00048704058
0.00048706383
0.0004870856
0.00048710591
0.00048712478
0.00048714221
0.00048715823
0.00048717284
0.00048718608
0.00048719797
0.00048720851
0.00048681251
0.00048756424
0.00048715314
0.00048714775
0.00048714195
0.00048713589
0.00048712951
0.00048712276
0.0004871157
0.0004871082
0.00048710039
0.00048709209
0.00048708344
0.00048707427
0.00048706471
0.00048705458
0.00048704403
0.00048703287
0.00048702124
0.00048700896
0.00048699617
0.00048698268
0.00048696863
0.00048695384
0.00048693845
0.00048692226
0.00048690543
0.00048688777
0.00048686943
0.00048685021
0.00048683029
0.00048680946
0.00048678786
0.00048676547
0.00048674217
0.00048671813
0.00048669319
0.00048666753
0.000486641
0.0004866138
0.00048658579
0.0004865572
0.00048652791
0.00048649811
0.00048646782
0.00048643714
0.00048640617
0.00048637503
0.00048634386
0.00048631279
0.00048628197
0.00048625158
0.0004862218
0.00048619281
0.00048616484
0.00048613806
0.0004861127
0.00048608897
0.00048606706
0.00048604717
0.00048602951
0.00048601422
0.00048600149
0.00048599143
0.00048598417
0.00048597978
0.00048597834
0.00048597988
0.00048598443
0.00048599196
0.00048600245
0.00048601587
0.0004860112
0.00048599681
0.00048598518
0.00048597639
0.00048597051
0.0004859676
0.00048596767
0.00048597076
0.00048597685
0.00048598592
0.00048599795
0.00048601289
0.00048603068
0.00048605124
0.00048607447
0.00048610025
0.00048612845
0.00048615891
0.00048619144
0.00048622585
0.00048626192
0.00048629942
0.00048633811
0.00048637774
0.00048641807
0.00048645884
0.00048649984
0.00048654082
0.00048658158
0.00048662191
0.00048666164
0.00048670059
0.00048673865
0.00048677566
0.00048681152
0.00048684615
0.00048687947
0.00048691141
0.00048694194
0.00048697102
0.00048699863
0.00048702475
0.00048704938
0.00048707251
0.00048709418
0.00048711438
0.00048713314
0.00048715047
0.00048716639
0.00048718093
0.00048719411
0.00048720595
0.00048681125
0.00048756085
0.00048714962
0.00048714411
0.00048713815
0.00048713193
0.00048712537
0.00048711843
0.00048711116
0.00048710345
0.0004870954
0.00048708685
0.00048707793
0.00048706847
0.00048705861
0.00048704817
0.00048703728
0.00048702577
0.00048701377
0.00048700109
0.00048698789
0.00048697397
0.00048695947
0.00048694421
0.00048692832
0.00048691162
0.00048689425
0.00048687603
0.0004868571
0.00048683728
0.00048681672
0.00048679524
0.00048677296
0.00048674987
0.00048672585
0.00048670106
0.00048667535
0.00048664891
0.00048662158
0.00048659357
0.00048656473
0.0004865353
0.00048650517
0.00048647452
0.0004864434
0.00048641189
0.00048638012
0.00048634819
0.00048631627
0.00048628449
0.00048625303
0.00048622206
0.00048619177
0.00048616237
0.00048613408
0.0004861071
0.00048608166
0.00048605798
0.00048603628
0.00048601675
0.00048599961
0.00048598502
0.00048597315
0.00048596413
0.00048595808
0.00048595508
0.00048595519
0.00048595845
0.00048596486
0.0004859744
0.00048598703
0.0004860027
0.0004859988
0.00048598137
0.00048596677
0.0004859551
0.00048594645
0.0004859409
0.00048593849
0.00048593925
0.00048594318
0.00048595029
0.00048596055
0.00048597393
0.00048599036
0.00048600979
0.00048603211
0.00048605721
0.00048608495
0.00048611516
0.00048614767
0.00048618226
0.0004862187
0.00048625676
0.00048629617
0.00048633668
0.00048637802
0.00048641992
0.00048646215
0.00048650445
0.00048654659
0.00048658836
0.00048662956
0.00048667002
0.00048670959
0.00048674813
0.00048678552
0.00048682167
0.00048685649
0.00048688992
0.00048692193
0.00048695246
0.00048698149
0.00048700901
0.00048703503
0.00048705953
0.00048708254
0.00048710407
0.00048712413
0.00048714276
0.00048715998
0.0004871758
0.00048719027
0.0004872034
0.00048681
0.00048755759
0.00048714623
0.00048714061
0.0004871345
0.00048712814
0.0004871214
0.00048711428
0.00048710682
0.00048709889
0.00048709061
0.00048708182
0.00048707265
0.00048706291
0.00048705276
0.000487042
0.00048703079
0.00048701893
0.00048700657
0.00048699351
0.00048697991
0.00048696557
0.00048695063
0.0004869349
0.00048691853
0.00048690132
0.00048688343
0.00048686465
0.00048684515
0.00048682472
0.00048680354
0.00048678141
0.00048675845
0.00048673467
0.00048670992
0.00048668439
0.0004866579
0.00048663067
0.00048660252
0.00048657367
0.00048654399
0.00048651369
0.00048648269
0.00048645116
0.00048641915
0.00048638677
0.00048635413
0.00048632136
0.00048628862
0.00048625606
0.00048622386
0.00048619221
0.00048616132
0.00048613139
0.00048610268
0.00048607538
0.00048604975
0.00048602601
0.00048600439
0.0004859851
0.00048596836
0.00048595435
0.00048594324
0.00048593515
0.00048593022
0.00048592852
0.0004859301
0.00048593501
0.00048594324
0.00048595475
0.00048596951
0.00048598744
0.00048598503
0.00048596443
0.00048594673
0.00048593208
0.00048592057
0.0004859123
0.00048590733
0.00048590571
0.00048590745
0.00048591257
0.00048592105
0.00048593288
0.000485948
0.00048596634
0.00048598782
0.00048601231
0.00048603968
0.00048606977
0.00048610236
0.00048613725
0.0004861742
0.00048621294
0.0004862532
0.00048629471
0.00048633719
0.00048638034
0.00048642391
0.00048646762
0.00048651124
0.00048655453
0.00048659728
0.00048663931
0.00048668046
0.00048672058
0.00048675954
0.00048679724
0.00048683359
0.00048686853
0.00048690202
0.00048693401
0.00048696447
0.0004869934
0.0004870208
0.00048704665
0.000487071
0.00048709385
0.00048711521
0.00048713513
0.00048715363
0.00048717073
0.00048718647
0.00048720088
0.00048680876
0.00048755447
0.00048714298
0.00048713726
0.00048713101
0.00048712451
0.00048711761
0.00048711032
0.00048710266
0.00048709454
0.00048708604
0.00048707701
0.00048706758
0.00048705758
0.00048704715
0.00048703609
0.00048702456
0.00048701237
0.00048699965
0.00048698623
0.00048697224
0.00048695748
0.00048694211
0.00048692593
0.00048690908
0.00048689138
0.00048687296
0.00048685364
0.00048683357
0.00048681255
0.00048679075
0.00048676797
0.00048674435
0.00048671986
0.00048669439
0.00048666811
0.00048664084
0.0004866128
0.00048658383
0.00048655413
0.00048652357
0.00048649238
0.00048646046
0.00048642801
0.00048639507
0.00048636176
0.00048632819
0.00048629451
0.00048626087
0.00048622745
0.00048619443
0.000486162
0.00048613041
0.00048609985
0.00048607059
0.00048604286
0.00048601691
0.00048599298
0.00048597131
0.00048595214
0.00048593568
0.00048592212
0.00048591164
0.00048590438
0.00048590047
0.00048589998
0.00048590296
0.00048590946
0.00048591946
0.00048593292
0.00048594979
0.00048596999
0.00048596989
0.00048594599
0.00048592507
0.00048590731
0.00048589283
0.00048588174
0.00048587412
0.00048587005
0.00048586955
0.00048587266
0.00048587936
0.00048588965
0.00048590348
0.00048592078
0.00048594148
0.00048596546
0.00048599256
0.00048602261
0.00048605541
0.00048609073
0.00048612831
0.00048616787
0.00048620913
0.00048625178
0.00048629552
0.00048634004
0.00048638507
0.00048643031
0.00048647551
0.00048652041
0.0004865648
0.00048660848
0.00048665127
0.00048669301
0.00048673358
0.00048677287
0.00048681079
0.00048684726
0.00048688225
0.0004869157
0.0004869476
0.00048697793
0.0004870067
0.0004870339
0.00048705958
0.00048708373
0.00048710638
0.00048712758
0.00048714734
0.0004871657
0.0004871827
0.00048719837
0.00048680753
0.00048755148
0.00048713988
0.00048713407
0.00048712768
0.00048712106
0.000487114
0.00048710655
0.00048709871
0.00048709039
0.00048708168
0.00048707242
0.00048706276
0.0004870525
0.00048704179
0.00048703044
0.00048701861
0.00048700609
0.00048699303
0.00048697924
0.00048696487
0.00048694972
0.00048693393
0.0004869173
0.00048689999
0.0004868818
0.00048686288
0.00048684302
0.00048682239
0.00048680079
0.00048677837
0.00048675495
0.00048673066
0.00048670548
0.00048667928
0.00048665224
0.00048662419
0.00048659533
0.00048656551
0.00048653494
0.00048650347
0.00048647136
0.0004864385
0.00048640509
0.00048637117
0.00048633687
0.00048630231
0.00048626764
0.00048623303
0.00048619865
0.00048616471
0.00048613141
0.00048609899
0.00048606769
0.00048603777
0.00048600947
0.00048598306
0.00048595881
0.00048593697
0.00048591777
0.00048590145
0.00048588822
0.00048587826
0.00048587171
0.00048586871
0.00048586934
0.00048587365
0.00048588167
0.00048589339
0.00048590878
0.00048592776
0.00048595024
0.00048595342
0.00048592605
0.00048590177
0.00048588076
0.00048586317
0.00048584916
0.0004858388
0.00048583221
0.00048582941
0.00048583046
0.00048583536
0.00048584411
0.00048585668
0.000485873
0.00048589299
0.00048591652
0.00048594345
0.0004859736
0.00048600673
0.00048604262
0.00048608097
0.0004861215
0.00048616389
0.00048620782
0.00048625297
0.000486299
0.00048634562
0.00048639251
0.0004864394
0.00048648601
0.00048653213
0.00048657752
0.00048662202
0.00048666545
0.00048670768
0.00048674859
0.0004867881
0.00048682612
0.00048686262
0.00048689755
0.00048693088
0.00048696262
0.00048699276
0.0004870213
0.00048704829
0.00048707373
0.00048709766
0.00048712011
0.00048714112
0.00048716073
0.00048717898
0.0004871959
0.00048680631
0.00048754864
0.00048713694
0.00048713105
0.00048712453
0.00048711778
0.00048711057
0.00048710297
0.00048709496
0.00048708645
0.00048707754
0.00048706807
0.00048705817
0.00048704767
0.0004870367
0.00048702507
0.00048701294
0.0004870001
0.00048698672
0.00048697258
0.00048695783
0.00048694229
0.00048692609
0.00048690903
0.00048689127
0.0004868726
0.00048685318
0.0004868328
0.00048681162
0.00048678944
0.00048676642
0.00048674236
0.0004867174
0.00048669152
0.00048666459
0.00048663679
0.00048660795
0.00048657826
0.00048654758
0.00048651611
0.00048648373
0.00048645066
0.00048641681
0.00048638239
0.00048634744
0.00048631209
0.00048627648
0.00048624074
0.00048620508
0.00048616965
0.00048613469
0.00048610041
0.00048606705
0.00048603487
0.00048600416
0.00048597516
0.00048594816
0.00048592344
0.00048590127
0.0004858819
0.00048586559
0.00048585255
0.00048584297
0.00048583702
0.00048583482
0.00048583647
0.00048584203
0.00048585152
0.00048586493
0.00048588221
0.0004859033
0.00048592809
0.00048593561
0.00048590462
0.0004858768
0.00048585239
0.00048583157
0.0004858145
0.0004858013
0.00048579209
0.00048578692
0.00048578587
0.00048578894
0.00048579616
0.00048580748
0.00048582286
0.0004858422
0.00048586539
0.00048589226
0.00048592261
0.00048595621
0.00048599281
0.00048603209
0.00048607374
0.00048611743
0.0004861628
0.0004862095
0.00048625719
0.00048630553
0.0004863542
0.00048640289
0.00048645133
0.00048649926
0.00048654645
0.00048659273
0.0004866379
0.00048668184
0.00048672442
0.00048676554
0.00048680514
0.00048684317
0.00048687958
0.00048691435
0.00048694749
0.00048697898
0.00048700886
0.00048703715
0.00048706386
0.00048708905
0.00048711274
0.00048713499
0.00048715582
0.0004871753
0.00048719345
0.00048680511
0.00048754596
0.00048713416
0.00048712819
0.00048712155
0.00048711469
0.00048710734
0.0004870996
0.00048709142
0.00048708274
0.00048707363
0.00048706396
0.00048705383
0.00048704309
0.00048703187
0.00048701997
0.00048700755
0.00048699441
0.00048698071
0.00048696623
0.00048695113
0.0004869352
0.00048691861
0.00048690113
0.00048688293
0.00048686379
0.00048684388
0.00048682299
0.00048680126
0.00048677851
0.00048675489
0.00048673021
0.00048670458
0.00048667801
0.00048665035
0.00048662178
0.00048659214
0.00048656161
0.00048653005
0.00048649767
0.00048646433
0.00048643028
0.00048639541
0.00048635993
0.00048632389
0.00048628743
0.00048625069
0.00048621381
0.000486177
0.00048614043
0.00048610434
0.00048606896
0.00048603454
0.00048600136
0.00048596971
0.00048593986
0.00048591212
0.00048588678
0.00048586413
0.00048584445
0.00048582799
0.000485815
0.00048580567
0.00048580018
0.00048579868
0.00048580125
0.00048580797
0.00048581887
0.00048583393
0.00048585309
0.00048587629
0.00048590342
0.00048591649
0.00048588168
0.00048585016
0.00048582218
0.00048579796
0.00048577769
0.00048576152
0.00048574959
0.00048574197
0.00048573876
0.00048573998
0.00048574565
0.00048575575
0.00048577022
0.00048578899
0.00048581192
0.00048583883
0.00048586953
0.00048590374
0.0004859412
0.00048598158
0.00048602452
0.00048606967
0.00048611665
0.00048616508
0.00048621458
0.00048626479
0.00048631537
0.00048636599
0.00048641636
0.0004864662
0.00048651529
0.00048656342
0.0004866104
0.0004866561
0.00048670038
0.00048674315
0.00048678434
0.00048682391
0.00048686181
0.00048689802
0.00048693255
0.0004869654
0.0004869966
0.00048702617
0.00048705415
0.00048708057
0.00048710549
0.00048712894
0.00048715099
0.00048717167
0.00048719103
0.00048680392
0.00048754343
0.00048713154
0.0004871255
0.00048711876
0.00048711179
0.00048710431
0.00048709643
0.0004870881
0.00048707925
0.00048706996
0.00048706009
0.00048704976
0.00048703879
0.00048702732
0.00048701517
0.00048700247
0.00048698904
0.00048697502
0.00048696021
0.00048694477
0.00048692848
0.00048691149
0.00048689361
0.00048687498
0.00048685539
0.000486835
0.0004868136
0.00048679134
0.00048676803
0.00048674382
0.00048671851
0.00048669223
0.00048666496
0.00048663657
0.00048660723
0.00048657678
0.0004865454
0.00048651295
0.00048647963
0.00048644531
0.00048641023
0.0004863743
0.00048633772
0.00048630054
0.00048626291
0.00048622496
0.00048618686
0.0004861488
0.00048611099
0.00048607366
0.00048603705
0.00048600144
0.00048596711
0.00048593438
0.00048590353
0.00048587489
0.00048584877
0.00048582548
0.00048580531
0.00048578855
0.00048577545
0.00048576622
0.00048576107
0.00048576014
0.00048576354
0.00048577134
0.00048578359
0.00048580025
0.00048582128
0.0004858466
0.0004858761
0.00048589606
0.00048585723
0.00048582181
0.00048579007
0.00048576228
0.00048573866
0.00048571938
0.00048570461
0.00048569446
0.00048568901
0.00048568833
0.00048569244
0.00048570133
0.00048571496
0.00048573322
0.00048575598
0.00048578306
0.00048581424
0.00048584922
0.00048588772
0.00048592936
0.00048597378
0.00048602058
0.00048606934
0.00048611967
0.00048617114
0.00048622339
0.00048627602
0.00048632871
0.00048638112
0.00048643299
0.00048648406
0.00048653412
0.00048658297
0.00048663048
0.00048667651
0.00048672096
0.00048676377
0.00048680489
0.00048684428
0.00048688193
0.00048691785
0.00048695204
0.00048698454
0.00048701538
0.0004870446
0.00048707224
0.00048709836
0.000487123
0.00048714623
0.0004871681
0.00048718866
0.00048680274
0.00048754107
0.0004871291
0.000487123
0.00048711615
0.0004871091
0.0004871015
0.00048709349
0.00048708501
0.000487076
0.00048706654
0.00048705649
0.00048704595
0.00048703476
0.00048702306
0.00048701066
0.0004869977
0.00048698399
0.00048696967
0.00048695454
0.00048693876
0.00048692212
0.00048690476
0.00048688648
0.00048686743
0.0004868474
0.00048682654
0.00048680465
0.00048678187
0.000486758
0.00048673321
0.00048670728
0.00048668035
0.00048665239
0.00048662327
0.00048659316
0.00048656189
0.00048652965
0.00048649628
0.00048646201
0.00048642668
0.00048639055
0.00048635351
0.00048631577
0.0004862774
0.00048623852
0.00048619929
0.00048615988
0.00048612048
0.00048608132
0.00048604263
0.00048600467
0.00048596773
0.00048593211
0.00048589813
0.00048586612
0.00048583641
0.00048580934
0.00048578523
0.0004857644
0.00048574717
0.00048573379
0.00048572452
0.00048571956
0.00048571907
0.00048572319
0.00048573198
0.00048574551
0.00048576373
0.00048578662
0.00048581409
0.00048584601
0.00048587434
0.00048583127
0.00048579172
0.00048575603
0.00048572448
0.00048569733
0.00048567478
0.00048565705
0.00048564424
0.00048563649
0.00048563386
0.00048563639
0.00048564409
0.0004856569
0.00048567473
0.00048569743
0.00048572481
0.00048575661
0.00048579253
0.00048583224
0.00048587534
0.00048592143
0.00048597008
0.00048602083
0.00048607324
0.00048612687
0.00048618132
0.00048623616
0.00048629105
0.00048634565
0.00048639965
0.00048645279
0.00048650486
0.00048655566
0.00048660503
0.00048665284
0.00048669901
0.00048674345
0.00048678613
0.00048682702
0.00048686611
0.00048690341
0.00048693893
0.00048697271
0.0004870048
0.00048703523
0.00048706407
0.00048709136
0.00048711717
0.00048714156
0.00048716459
0.00048718632
0.00048680159
0.00048753888
0.00048712684
0.00048712069
0.00048711375
0.00048710661
0.00048709889
0.00048709077
0.00048708215
0.000487073
0.00048706337
0.00048705314
0.00048704241
0.00048703102
0.0004870191
0.00048700646
0.00048699325
0.00048697926
0.00048696466
0.00048694923
0.00048693312
0.00048691614
0.00048689842
0.00048687975
0.0004868603
0.00048683984
0.00048681853
0.00048679615
0.00048677286
0.00048674845
0.00048672308
0.00048669655
0.00048666896
0.00048664032
0.00048661047
0.00048657958
0.00048654749
0.00048651437
0.00048648008
0.00048644483
0.00048640847
0.00048637124
0.00048633305
0.00048629411
0.00048625448
0.00048621429
0.0004861737
0.00048613289
0.00048609205
0.00048605142
0.00048601125
0.0004859718
0.00048593338
0.00048589631
0.00048586093
0.00048582758
0.00048579662
0.00048576841
0.0004857433
0.00048572163
0.00048570374
0.00048568991
0.00048568042
0.0004856755
0.00048567533
0.00048568004
0.00048568974
0.00048570448
0.00048572423
0.00048574897
0.0004857786
0.00048581298
0.00048584963
0.00048580377
0.00048575987
0.00048571999
0.00048568447
0.00048565359
0.00048562762
0.00048560676
0.00048559119
0.00048558104
0.00048557641
0.00048557734
0.00048558385
0.00048559589
0.00048561337
0.00048563611
0.00048566392
0.00048569651
0.00048573354
0.00048577467
0.00048581944
0.00048586742
0.00048591812
0.00048597106
0.00048602577
0.00048608175
0.00048613858
0.00048619581
0.00048625306
0.00048630996
0.00048636621
0.00048642153
0.0004864757
0.0004865285
0.00048657979
0.00048662943
0.00048667733
0.00048672343
0.00048676769
0.00048681007
0.00048685059
0.00048688926
0.00048692609
0.00048696114
0.00048699445
0.00048702608
0.00048705608
0.00048708452
0.00048711147
0.00048713699
0.00048716116
0.00048718403
0.00048680046
0.00048753687
0.00048712476
0.00048711857
0.00048711155
0.00048710433
0.00048709651
0.00048708828
0.00048707953
0.00048707025
0.00048706047
0.00048705007
0.00048703916
0.00048702757
0.00048701544
0.00048700257
0.00048698912
0.00048697488
0.00048696
0.00048694428
0.00048692786
0.00048691054
0.00048689248
0.00048687344
0.00048685359
0.00048683272
0.00048681096
0.00048678812
0.00048676433
0.00048673939
0.00048671346
0.00048668632
0.0004866581
0.00048662877
0.00048659818
0.00048656652
0.0004865336
0.0004864996
0.00048646437
0.00048642811
0.00048639069
0.00048635234
0.00048631296
0.00048627276
0.00048623181
0.00048619024
0.00048614821
0.00048610589
0.00048606352
0.0004860213
0.00048597951
0.00048593843
0.00048589838
0.00048585969
0.00048582273
0.00048578786
0.00048575545
0.0004857259
0.00048569959
0.00048567688
0.00048565814
0.00048564368
0.00048563379
0.00048562875
0.00048562874
0.00048563394
0.00048564444
0.00048566032
0.00048568157
0.00048570815
0.00048573996
0.00048577688
0.00048581871
0.00048577472
0.0004857262
0.0004856819
0.00048564217
0.00048560737
0.00048557776
0.00048555363
0.00048553515
0.0004855225
0.0004855158
0.0004855151
0.00048552044
0.00048553175
0.00048554895
0.00048557186
0.00048560024
0.00048563379
0.00048567214
0.00048571489
0.00048576156
0.00048581165
0.00048586465
0.00048592002
0.00048597724
0.00048603578
0.00048609519
0.00048615498
0.00048621474
0.00048627409
0.00048633272
0.00048639032
0.00048644667
0.00048650155
0.0004865548
0.00048660631
0.00048665598
0.00048670375
0.00048674959
0.00048679347
0.00048683541
0.00048687543
0.00048691356