/*--------------------------------*- C++ -*----------------------------------*\
| =========                 |                                                 |
| \\      /  F ield         | foam-extend: Open Source CFD                    |
|  \\    /   O peration     | Version:     4.1                                |
|   \\  /    A nd           | Web:         http://www.foam-extend.org         |
|    \\/     M anipulation  |                                                 |
\*---------------------------------------------------------------------------*/
FoamFile
{
    version     2.0;
    format      ascii;
    class       volVectorField;
    location    "1.1";
    object      U;
}
// * * * * * * * * * * * * * * * * * * * * * * * * * * * * * * * * * * * * * //

dimensions      [0 1 -1 0 0 0 0];

internalField   nonuniform List<vector> 
16796
(
(1.0041231 -0.00014069264 0)
(1.0048441 -0.00014740144 0)
(1.0051002 -0.00015317414 0)
(1.0057001 -0.00016051434 0)
(1.0061046 -0.00016766267 0)
(1.0066775 -0.00017579833 0)
(1.0071776 -0.0001841419 0)
(1.0077692 -0.00019322643 0)
(1.0083449 -0.00020270637 0)
(1.0089792 -0.00021282654 0)
(1.009625 -0.00022343699 0)
(1.0103166 -0.00023465414 0)
(1.0110339 -0.00024641732 0)
(1.0117933 -0.00025878634 0)
(1.0125867 -0.00027174195 0)
(1.0134225 -0.00028531953 0)
(1.0142982 -0.00029951931 0)
(1.0152186 -0.00031436608 0)
(1.0161837 -0.00032986872 0)
(1.0171968 -0.00034604646 0)
(1.0182591 -0.00036291049 0)
(1.0193733 -0.00038047494 0)
(1.020541 -0.00039874838 0)
(1.0217647 -0.0004177378 0)
(1.0230463 -0.00043744456 0)
(1.0243881 -0.00045786518 0)
(1.0257922 -0.00047898935 0)
(1.0272607 -0.00050079937 0)
(1.0287956 -0.00052326915 0)
(1.0303989 -0.00054636321 0)
(1.0320722 -0.00057003622 0)
(1.0338174 -0.00059423183 0)
(1.0356359 -0.00061888241 0)
(1.0375289 -0.00064390822 0)
(1.0394974 -0.00066921625 0)
(1.0415422 -0.0006947001 0)
(1.0436636 -0.00072023824 0)
(1.0458616 -0.00074569369 0)
(1.0481356 -0.00077091207 0)
(1.0504848 -0.00079572113 0)
(1.0529077 -0.0008199288 0)
(1.0554022 -0.00084332284 0)
(1.0579655 -0.00086566928 0)
(1.060594 -0.00088671257 0)
(1.0632836 -0.00090617524 0)
(1.0660291 -0.00092375877 0)
(1.0688243 -0.00093914499 0)
(1.0716622 -0.00095199843 0)
(1.0745347 -0.00096196971 0)
(1.0774326 -0.00096869989 0)
(1.0803457 -0.00097182597 0)
(1.0832627 -0.00097098751 0)
(1.0861711 -0.00096583433 0)
(1.0890574 -0.00095603512 0)
(1.0919074 -0.0009412869 0)
(1.0947057 -0.00092132503 0)
(1.0974364 -0.00089593336 0)
(1.1000828 -0.00086495408 0)
(1.102628 -0.00082829695 0)
(1.1050548 -0.00078594698 0)
(1.1073463 -0.00073797027 0)
(1.1094858 -0.00068451743 0)
(1.1114569 -0.00062582382 0)
(1.1132444 -0.00056220674 0)
(1.114834 -0.00049405904 0)
(1.1162128 -0.00042183964 0)
(1.1173692 -0.00034606126 0)
(1.1182932 -0.00026727563 0)
(1.1189766 -0.00018605829 0)
(1.1194131 -0.00010299237 0)
(1.1195978 -1.8652544e-05 0)
(1.1195278 6.6402986e-05 0)
(1.1192018 0.00015164293 0)
(1.11862 0.00023656731 0)
(1.1177841 0.00032070849 0)
(1.1166972 0.00040362863 0)
(1.1153635 0.00048491637 0)
(1.1137886 0.00056417508 0)
(1.1119791 0.00064101577 0)
(1.1099429 0.00071504756 0)
(1.1076891 0.00078587178 0)
(1.105228 0.00085307959 0)
(1.1025709 0.00091625262 0)
(1.0997306 0.00097497 0)
(1.0967212 0.0010288166 0)
(1.093558 0.0010773981 0)
(1.0902572 0.0011203533 0)
(1.0868364 0.0011573727 0)
(1.0833136 0.0011882093 0)
(1.0797079 0.0012126937 0)
(1.0760385 0.0012307392 0)
(1.0723247 0.0012423495 0)
(1.0685857 0.0012476145 0)
(1.0648405 0.00124671 0)
(1.0611071 0.0012398865 0)
(1.0574029 0.0012274613 0)
(1.0537442 0.001209804 0)
(1.0501461 0.0011873256 0)
(1.0466223 0.001160463 0)
(1.0431853 0.0011296688 0)
(1.0398463 0.0010953985 0)
(1.036615 0.0010581017 0)
(1.0334997 0.0010182128 0)
(1.0305077 0.00097614602 0)
(1.0276448 0.00093228872 0)
(1.0249158 0.00088699903 0)
(1.0223246 0.00084060255 0)
(1.0198739 0.00079339142 0)
(1.0175658 0.00074562331 0)
(1.0154016 0.00069752182 0)
(1.013382 0.00064927665 0)
(1.0115072 0.00060104516 0)
(1.0097768 0.00055295302 0)
(1.0081905 0.00050509672 0)
(1.0067471 0.00045754399 0)
(1.0054461 0.00041033797 0)
(1.0042856 0.00036349593 0)
(1.0032659 0.00031701716 0)
(1.0023835 0.00027087681 0)
(1.0016416 0.00022504229 0)
(1.0010325 0.00017945426 0)
(1.0005667 0.00013406377 0)
(1.0002257 8.8779965e-05 0)
(1.0000374 4.3559529e-05 0)
(1.0041145 -0.00042171128 0)
(1.0048341 -0.00044187964 0)
(1.0050897 -0.00045916909 0)
(1.0056886 -0.00048120803 0)
(1.0060924 -0.00050262733 0)
(1.0066643 -0.00052703667 0)
(1.0071637 -0.00055204827 0)
(1.0077543 -0.00057929608 0)
(1.0083291 -0.00060771997 0)
(1.0089625 -0.00063807032 0)
(1.0096074 -0.00066988655 0)
(1.0102982 -0.00070352502 0)
(1.0110146 -0.00073879873 0)
(1.011773 -0.00077589029 0)
(1.0125655 -0.00081473953 0)
(1.0134004 -0.00085545391 0)
(1.0142752 -0.00089803285 0)
(1.0151947 -0.00094255116 0)
(1.0161589 -0.0009890348 0)
(1.0171711 -0.0010375415 0)
(1.0182326 -0.0010881043 0)
(1.0193458 -0.0011407657 0)
(1.0205127 -0.001195551 0)
(1.0217355 -0.0012524812 0)
(1.0230163 -0.0013115603 0)
(1.0243572 -0.0013727779 0)
(1.0257605 -0.0014361035 0)
(1.0272282 -0.0015014841 0)
(1.0287623 -0.001568842 0)
(1.0303648 -0.0016380714 0)
(1.0320374 -0.001709037 0)
(1.0337819 -0.0017815707 0)
(1.0355998 -0.0018554705 0)
(1.0374923 -0.0019304983 0)
(1.0394605 -0.002006376 0)
(1.0415051 -0.0020827859 0)
(1.0436264 -0.0021593643 0)
(1.0458245 -0.0022357016 0)
(1.0480989 -0.0023113361 0)
(1.0504487 -0.0023857521 0)
(1.0528725 -0.0024583749 0)
(1.0553681 -0.0025285692 0)
(1.057933 -0.0025956344 0)
(1.0605635 -0.0026588054 0)
(1.0632554 -0.0027172513 0)
(1.0660037 -0.0027700781 0)
(1.0688021 -0.0028163326 0)
(1.0716438 -0.0028550097 0)
(1.0745205 -0.0028850624 0)
(1.0774233 -0.0029054147 0)
(1.0803417 -0.0029149777 0)
(1.0832645 -0.00291267 0)
(1.0861794 -0.0028974399 0)
(1.0890727 -0.0028682917 0)
(1.0919301 -0.0028243137 0)
(1.0947364 -0.002764708 0)
(1.0974754 -0.0026888212 0)
(1.1001306 -0.0025961737 0)
(1.102685 -0.0024864876 0)
(1.1051213 -0.00235971 0)
(1.1074225 -0.0022160304 0)
(1.1095717 -0.0020558915 0)
(1.1115527 -0.0018799904 0)
(1.11335 -0.0016892705 0)
(1.1149492 -0.0014849029 0)
(1.1163372 -0.0012682586 0)
(1.1175024 -0.0010408722 0)
(1.1184348 -0.00080439866 0)
(1.119126 -0.0005605685 0)
(1.1195695 -0.00031114025 0)
(1.1197603 -5.7857519e-05 0)
(1.1196956 0.00019757782 0)
(1.1193738 0.00045354434 0)
(1.1187951 0.00070854277 0)
(1.1179612 0.00096117512 0)
(1.1168751 0.0012101276 0)
(1.115541 0.0014541649 0)
(1.1139645 0.001692095 0)
(1.1121523 0.0019227484 0)
(1.1101122 0.00214495 0)
(1.1078535 0.0023575017 0)
(1.1053863 0.0025591758 0)
(1.1027224 0.0027487167 0)
(1.0998746 0.0029248625 0)
(1.0968569 0.0030863697 0)
(1.0936849 0.0032320579 0)
(1.090375 0.0033608479 0)
(1.0869447 0.0034718148 0)
(1.0834125 0.0035642223 0)
(1.0797973 0.0036375673 0)
(1.0761184 0.0036915939 0)
(1.0723955 0.0037263169 0)
(1.0686478 0.00374201 0)
(1.0648941 0.0037392032 0)
(1.0611529 0.0037186499 0)
(1.0574413 0.0036813037 0)
(1.0537759 0.0036282743 0)
(1.0501716 0.0035607949 0)
(1.0466422 0.0034801765 0)
(1.0432004 0.0033877768 0)
(1.0398571 0.0032849613 0)
(1.0366221 0.003173078 0)
(1.0335037 0.0030534299 0)
(1.0305091 0.002927258 0)
(1.0276442 0.0027957239 0)
(1.0249136 0.0026599006 0)
(1.0223211 0.0025207641 0)
(1.0198696 0.0023791896 0)
(1.017561 0.0022359491 0)
(1.0153966 0.0020917123 0)
(1.0133769 0.0019470474 0)
(1.0115023 0.0018024254 0)
(1.0097722 0.0016582225 0)
(1.0081863 0.0015147271 0)
(1.0067434 0.0013721416 0)
(1.005443 0.0012305946 0)
(1.004283 0.0010901368 0)
(1.0032639 0.00095076574 0)
(1.002382 0.00081240526 0)
(1.0016405 0.00067495788 0)
(1.0010319 0.00053824287 0)
(1.0005663 0.00040211547 0)
(1.0002255 0.00026629772 0)
(1.0000373 0.00013066533 0)
(1.0040973 -0.00070198729 0)
(1.0048142 -0.0007356043 0)
(1.005069 -0.000764392 0)
(1.0056657 -0.0008011253 0)
(1.0060682 -0.00083680181 0)
(1.0066382 -0.00087748178 0)
(1.007136 -0.0009191542 0)
(1.0077247 -0.00096456471 0)
(1.0082979 -0.0010119312 0)
(1.0089294 -0.001062515 0)
(1.0095726 -0.0011155414 0)
(1.0102615 -0.0011716092 0)
(1.0109761 -0.0012304036 0)
(1.0117327 -0.0012922311 0)
(1.0125234 -0.0013569898 0)
(1.0133564 -0.0014248598 0)
(1.0142294 -0.0014958394 0)
(1.0151471 -0.0015700534 0)
(1.0161095 -0.0016475449 0)
(1.0171199 -0.0017284102 0)
(1.0181795 -0.0018127044 0)
(1.019291 -0.0019004983 0)
(1.020456 -0.0019918347 0)
(1.0216771 -0.0020867492 0)
(1.0229561 -0.0021852494 0)
(1.0242953 -0.0022873192 0)
(1.0256969 -0.0023929091 0)
(1.0271629 -0.0025019329 0)
(1.0286954 -0.0026142632 0)
(1.0302963 -0.0027297262 0)
(1.0319675 -0.0028480991 0)
(1.0337107 -0.0029691046 0)
(1.0355274 -0.0030924089 0)
(1.0374189 -0.003217618 0)
(1.0393863 -0.0033442714 0)
(1.0414304 -0.0034718416 0)
(1.0435516 -0.0035997249 0)
(1.0457499 -0.0037272401 0)
(1.048025 -0.0038536187 0)
(1.0503761 -0.0039780021 0)
(1.0528017 -0.0040994322 0)
(1.0552998 -0.0042168496 0)
(1.0578678 -0.0043290855 0)
(1.0605023 -0.0044348626 0)
(1.063199 -0.0045327936 0)
(1.0659529 -0.0046213849 0)
(1.0687579 -0.0046990438 0)
(1.0716072 -0.0047640905 0)
(1.0744926 -0.0048147741 0)
(1.077405 -0.0048492947 0)
(1.0803342 -0.0048658305 0)
(1.0832689 -0.0048625709 0)
(1.0861967 -0.0048377547 0)
(1.089104 -0.0047897131 0)
(1.0919765 -0.0047169172 0)
(1.0947987 -0.0046180275 0)
(1.0975546 -0.0044919452 0)
(1.1002275 -0.0043378618 0)
(1.1028003 -0.0041553051 0)
(1.1052555 -0.0039441785 0)
(1.107576 -0.0037047905 0)
(1.1097447 -0.0034378726 0)
(1.1117453 -0.0031445813 0)
(1.113562 -0.002826485 0)
(1.1151803 -0.0024855327 0)
(1.1165868 -0.0021240079 0)
(1.1177697 -0.0017444677 0)
(1.1187188 -0.0013496706 0)
(1.1194254 -0.00094250202 0)
(1.1198828 -0.00052589315 0)
(1.120086 -0.00010275308 0)
(1.1200317 0.00032408922 0)
(1.1197183 0.00075192864 0)
(1.1191459 0.0011782441 0)
(1.1183159 0.0016006866 0)
(1.1172314 0.0020170425 0)
(1.1158965 0.0024252283 0)
(1.1143167 0.0028232312 0)
(1.1124989 0.0032090759 0)
(1.110451 0.0035807785 0)
(1.1081822 0.0039363178 0)
(1.1057031 0.0042736252 0)
(1.1030254 0.0045905887 0)
(1.1001622 0.0048850887 0)
(1.0971279 0.0051550397 0)
(1.0939381 0.005398466 0)
(1.0906097 0.0056135632 0)
(1.0871604 0.0057987895 0)
(1.083609 0.0059529204 0)
(1.0799745 0.0060751237 0)
(1.0762767 0.0061649827 0)
(1.0725353 0.0062225347 0)
(1.0687698 0.0062482501 0)
(1.0649993 0.006243029 0)
(1.0612421 0.0062081439 0)
(1.0575158 0.0061452029 0)
(1.0538367 0.0060560728 0)
(1.0502201 0.0059428265 0)
(1.0466797 0.0058076656 0)
(1.0432281 0.0056528679 0)
(1.0398763 0.0054807225 0)
(1.036634 0.0052934884 0)
(1.0335095 0.0050933469 0)
(1.0305099 0.0048823745 0)
(1.0276408 0.004662513 0)
(1.0249071 0.0044355558 0)
(1.0223124 0.0042031318 0)
(1.0198593 0.0039667016 0)
(1.0175498 0.0037275518 0)
(1.015385 0.003486798 0)
(1.0133655 0.0032453853 0)
(1.0114913 0.0030040966 0)
(1.009762 0.0027635557 0)
(1.0081771 0.0025242405 0)
(1.0067353 0.0022864844 0)
(1.005436 0.0020504986 0)
(1.0042772 0.0018163636 0)
(1.0032593 0.001584072 0)
(1.0023785 0.0013534926 0)
(1.0016381 0.0011244603 0)
(1.0010303 0.00089666887 0)
(1.0005654 0.000669876 0)
(1.0002252 0.00044361085 0)
(1.0000373 0.00021766808 0)
(1.0040719 -0.00098094222 0)
(1.0047849 -0.0010279423 0)
(1.0050383 -0.0010682223 0)
(1.0056319 -0.0011196099 0)
(1.0060323 -0.001169526 0)
(1.0065995 -0.0012264462 0)
(1.007095 -0.0012847582 0)
(1.007681 -0.0013483059 0)
(1.0082516 -0.001414594 0)
(1.0088805 -0.0014853892 0)
(1.009521 -0.0015596064 0)
(1.0102072 -0.0016380846 0)
(1.0109191 -0.0017203823 0)
(1.011673 -0.0018069288 0)
(1.012461 -0.0018975811 0)
(1.0132913 -0.001992591 0)
(1.0141616 -0.0020919554 0)
(1.0150765 -0.0021958491 0)
(1.0160362 -0.0023043317 0)
(1.0170439 -0.0024175379 0)
(1.0181008 -0.0025355447 0)
(1.0192095 -0.0026584516 0)
(1.0203719 -0.002786319 0)
(1.0215903 -0.0029191978 0)
(1.0228666 -0.0030571003 0)
(1.0242032 -0.0032000064 0)
(1.0256022 -0.0033478494 0)
(1.0270657 -0.0035005126 0)
(1.0285957 -0.003657822 0)
(1.0301943 -0.0038195391 0)
(1.0318633 -0.0039853576 0)
(1.0336045 -0.004154895 0)
(1.0354194 -0.0043276903 0)
(1.0373095 -0.0045031979 0)
(1.0392758 -0.0046807791 0)
(1.0413192 -0.0048597011 0)
(1.0434402 -0.0050391237 0)
(1.0456389 -0.005218098 0)
(1.0479151 -0.0053955514 0)
(1.050268 -0.0055702852 0)
(1.0526963 -0.0057409597 0)
(1.055198 -0.0059060925 0)
(1.0577707 -0.0060640475 0)
(1.060411 -0.0062130352 0)
(1.0631148 -0.0063511107 0)
(1.0658771 -0.0064761792 0)
(1.068692 -0.0065860057 0)
(1.0715526 -0.0066782315 0)
(1.0744508 -0.0067503967 0)
(1.0773776 -0.0067999709 0)
(1.0803229 -0.0068243911 0)
(1.0832753 -0.006821108 0)
(1.0862224 -0.0067876393 0)
(1.0891506 -0.0067216303 0)
(1.0920455 -0.00662092 0)
(1.0948917 -0.0064836114 0)
(1.0976729 -0.006308143 0)
(1.1003723 -0.0060933589 0)
(1.1029726 -0.0058385737 0)
(1.1054562 -0.005543628 0)
(1.1078057 -0.0052089304 0)
(1.1100038 -0.0048354832 0)
(1.1120338 -0.0044248861 0)
(1.1138797 -0.0039793178 0)
(1.1155266 -0.0035014939 0)
(1.116961 -0.0029946021 0)
(1.1181705 -0.0024622185 0)
(1.1191446 -0.0019082061 0)
(1.1198743 -0.0013366124 0)
(1.1203526 -0.00075155389 0)
(1.1205742 -0.00015712674 0)
(1.1205355 0.00044268889 0)
(1.1202346 0.0010440737 0)
(1.1196713 0.001643459 0)
(1.1188472 0.0022375217 0)
(1.1177648 0.0028231196 0)
(1.1164285 0.0033972922 0)
(1.1148438 0.0039571749 0)
(1.1130175 0.0044999555 0)
(1.1109577 0.0050228109 0)
(1.1086738 0.0055228681 0)
(1.1061766 0.0059971922 0)
(1.1034781 0.0064427921 0)
(1.1005918 0.0068566738 0)
(1.0975325 0.0072358967 0)
(1.0943162 0.0075776824 0)
(1.09096 0.0078794997 0)
(1.0874822 0.0081391932 0)
(1.0839019 0.0083550574 0)
(1.0802387 0.0085259442 0)
(1.0765125 0.0086512912 0)
(1.0727435 0.0087311769 0)
(1.0689513 0.0087662895 0)
(1.0651555 0.0087579212 0)
(1.0613745 0.0087078864 0)
(1.0576261 0.0086184701 0)
(1.0539267 0.0084923183 0)
(1.0502917 0.0083323647 0)
(1.0467348 0.00814172 0)
(1.0432686 0.0079235997 0)
(1.0399041 0.0076812313 0)
(1.0366509 0.007417797 0)
(1.0335173 0.0071363666 0)
(1.0305102 0.00683986 0)
(1.0276352 0.0065310051 0)
(1.0248969 0.0062123186 0)
(1.0222988 0.0058860845 0)
(1.0198435 0.0055543485 0)
(1.0175327 0.0052189108 0)
(1.0153674 0.0048813301 0)
(1.0133481 0.0045429254 0)
(1.0114746 0.0042047872 0)
(1.0097465 0.0038677825 0)
(1.0081631 0.0035325737 0)
(1.0067229 0.0031996203 0)
(1.0054255 0.0028692106 0)
(1.0042686 0.00254145 0)
(1.0032524 0.0022163207 0)
(1.0023734 0.0018936317 0)
(1.0016344 0.0015731456 0)
(1.0010279 0.0012544255 0)
(1.0005641 0.00093712751 0)
(1.0002246 0.00062058339 0)
(1.0000372 0.00030450373 0)
(1.0040385 -0.0012581406 0)
(1.0047463 -0.0013184727 0)
(1.004998 -0.001370224 0)
(1.0055874 -0.0014362337 0)
(1.0059853 -0.0015003648 0)
(1.0065487 -0.0015735005 0)
(1.0070411 -0.0016484307 0)
(1.0076235 -0.0017300968 0)
(1.0081908 -0.0018152906 0)
(1.0088161 -0.0019062849 0)
(1.0094532 -0.0020016836 0)
(1.0101358 -0.0021025664 0)
(1.0108442 -0.002208365 0)
(1.0115945 -0.0023196318 0)
(1.0123789 -0.0024361821 0)
(1.0132056 -0.0025583395 0)
(1.0140722 -0.0026860997 0)
(1.0149835 -0.0028196871 0)
(1.0159395 -0.0029591778 0)
(1.0169435 -0.0031047452 0)
(1.0179968 -0.0032564885 0)
(1.0191019 -0.0034145366 0)
(1.0202606 -0.0035789683 0)
(1.0214754 -0.0037498515 0)
(1.0227481 -0.003927205 0)
(1.0240812 -0.0041110073 0)
(1.0254766 -0.0043011777 0)
(1.0269367 -0.0044975726 0)
(1.0284634 -0.0046999755 0)
(1.0300589 -0.0049080881 0)
(1.0317249 -0.0051215259 0)
(1.0334634 -0.0053398066 0)
(1.035276 -0.0055623475 0)
(1.037164 -0.005788457 0)
(1.0391288 -0.0060173236 0)
(1.0411712 -0.006248014 0)
(1.0432919 -0.0064794562 0)
(1.0454912 -0.0067104371 0)
(1.0477688 -0.0069395832 0)
(1.0501241 -0.0071653573 0)
(1.0525559 -0.0073860394 0)
(1.0550625 -0.0075997242 0)
(1.0576415 -0.0078043065 0)
(1.0602895 -0.007997482 0)
(1.0630027 -0.0081767445 0)
(1.0657762 -0.0083393923 0)
(1.0686042 -0.0084825412 0)
(1.0714797 -0.0086031446 0)
(1.0743951 -0.0086980231 0)
(1.0773411 -0.0087639036 0)
(1.0803078 -0.0087974677 0)
(1.0832837 -0.0087954114 0)
(1.0862566 -0.0087545138 0)
(1.0892127 -0.0086717153 0)
(1.0921377 -0.0085442027 0)
(1.0950158 -0.0083695003 0)
(1.0978307 -0.0081455624 0)
(1.1005655 -0.0078708641 0)
(1.1032026 -0.0075444856 0)
(1.1057241 -0.0071661845 0)
(1.1081124 -0.0067364505 0)
(1.1103497 -0.0062565396 0)
(1.112419 -0.0057284794 0)
(1.114304 -0.0051550469 0)
(1.1159892 -0.0045397144 0)
(1.1174607 -0.0038865674 0)
(1.1187057 -0.0032001974 0)
(1.1197133 -0.0024855717 0)
(1.1204739 -0.001747903 0)
(1.1209802 -0.00099249968 0)
(1.1212263 -0.000224656 0)
(1.1212083 0.00055048487 0)
(1.1209241 0.0013279653 0)
(1.1203731 0.0021031325 0)
(1.1195566 0.0028716504 0)
(1.1184772 0.0036294022 0)
(1.117139 0.0043725017 0)
(1.1155475 0.0050971822 0)
(1.1137098 0.0057997436 0)
(1.1116339 0.006476474 0)
(1.1093297 0.0071236011 0)
(1.1068083 0.0077372806 0)
(1.1040819 0.0083136042 0)
(1.1011647 0.0088486713 0)
(1.0980718 0.0093386615 0)
(1.0948197 0.0097799771 0)
(1.0914263 0.01016935 0)
(1.0879102 0.010504012 0)
(1.0842912 0.010781782 0)
(1.0805893 0.011001211 0)
(1.076825 0.011161611 0)
(1.0730189 0.01126313 0)
(1.0691911 0.011306703 0)
(1.0653614 0.011294048 0)
(1.0615485 0.011227559 0)
(1.0577705 0.011110235 0)
(1.054044 0.010945537 0)
(1.0503844 0.010737295 0)
(1.0468055 0.010489561 0)
(1.0433199 0.01020652 0)
(1.0399386 0.0098923639 0)
(1.036671 0.0095512209 0)
(1.0335253 0.0091870687 0)
(1.0305083 0.0088036856 0)
(1.0276255 0.0084045969 0)
(1.0248813 0.007993051 0)
(1.0222789 0.0075719918 0)
(1.0198207 0.0071440519 0)
(1.0175083 0.0067115447 0)
(1.0153426 0.00627647 0)
(1.0133236 0.0058405161 0)
(1.0114514 0.0054050762 0)
(1.0097249 0.0049712542 0)
(1.0081436 0.0045398898 0)
(1.0067059 0.0041115615 0)
(1.005411 0.0036866272 0)
(1.0042566 0.0032652092 0)
(1.0032429 0.0028472721 0)
(1.0023662 0.0024325572 0)
(1.0016294 0.0020207477 0)
(1.0010247 0.0016112684 0)
(1.0005623 0.0012036673 0)
(1.0002239 0.00079706971 0)
(1.0000371 0.00039109814 0)
(1.0039974 -0.001533051 0)
(1.0046989 -0.0016066408 0)
(1.0049484 -0.001669834 0)
(1.0055327 -0.0017504123 0)
(1.0059273 -0.0018287229 0)
(1.0064862 -0.00191803 0)
(1.0069748 -0.0020095418 0)
(1.0075528 -0.0021092876 0)
(1.008116 -0.0022133525 0)
(1.0087369 -0.0023245115 0)
(1.0093697 -0.0024410603 0)
(1.0100479 -0.0025643177 0)
(1.0107519 -0.0026935894 0)
(1.0114977 -0.0028295499 0)
(1.0122776 -0.0029719734 0)
(1.0130998 -0.0031212548 0)
(1.0139619 -0.0032773882 0)
(1.0148687 -0.0034406473 0)
(1.0158201 -0.0036111253 0)
(1.0168196 -0.0037890339 0)
(1.0178682 -0.0039744953 0)
(1.0189687 -0.0041676681 0)
(1.0201229 -0.0043686514 0)
(1.021333 -0.0045775314 0)
(1.0226012 -0.0047943358 0)
(1.0239298 -0.0050190447 0)
(1.0253208 -0.0052515674 0)
(1.0267765 -0.0054917376 0)
(1.0282991 -0.0057393017 0)
(1.0298905 -0.0059939073 0)
(1.0315529 -0.0062550979 0)
(1.0332879 -0.0065222982 0)
(1.0350975 -0.006794811 0)
(1.036983 -0.0070718059 0)
(1.0389458 -0.0073523055 0)
(1.0409871 -0.007635183 0)
(1.0431074 -0.0079191409 0)
(1.0453072 -0.0082027076 0)
(1.0475865 -0.008484214 0)
(1.0499447 -0.0087617884 0)
(1.0523809 -0.0090333337 0)
(1.0548935 -0.0092965237 0)
(1.0574801 -0.0095487849 0)
(1.0601377 -0.0097872975 0)
(1.0628626 -0.010008991 0)
(1.0656499 -0.010210554 0)
(1.068494 -0.010388445 0)
(1.0713883 -0.010538921 0)
(1.0743248 -0.010658074 0)
(1.0772948 -0.010741873 0)
(1.080288 -0.010786229 0)
(1.0832934 -0.010787063 0)
(1.0862983 -0.010740395 0)
(1.0892893 -0.010642434 0)
(1.0922517 -0.01048969 0)
(1.0951698 -0.010279078 0)
(1.098027 -0.010008037 0)
(1.1008061 -0.0096746435 0)
(1.1034892 -0.0092777094 0)
(1.1060583 -0.0088168779 0)
(1.1084952 -0.0082926892 0)
(1.1107818 -0.0077066245 0)
(1.1129005 -0.0070611135 0)
(1.1148345 -0.0063595098 0)
(1.116568 -0.0056060258 0)
(1.1180861 -0.0048056335 0)
(1.1193758 -0.003963935 0)
(1.1204253 -0.0030870048 0)
(1.1212248 -0.0021812311 0)
(1.1217661 -0.001253132 0)
(1.122043 -0.00030922783 0)
(1.1220511 0.00064414307 0)
(1.1217877 0.001600842 0)
(1.1212521 0.0025550865 0)
(1.1204452 0.0035014808 0)
(1.1193693 0.0044348793 0)
(1.1180286 0.0053504137 0)
(1.1164286 0.0062433567 0)
(1.1145764 0.0071090604 0)
(1.1124803 0.0079428662 0)
(1.1101506 0.008740047 0)
(1.1075985 0.009495799 0)
(1.1048371 0.010205252 0)
(1.1018808 0.010863562 0)
(1.0987456 0.011466002 0)
(1.0954486 0.012008137 0)
(1.0920082 0.012485954 0)
(1.088444 0.012896072 0)
(1.0847763 0.013235847 0)
(1.0810258 0.01350355 0)
(1.0772136 0.013698395 0)
(1.0733609 0.013820632 0)
(1.0694884 0.013871482 0)
(1.0656161 0.013853136 0)
(1.0617634 0.013768607 0)
(1.0579483 0.013621655 0)
(1.0541879 0.013416598 0)
(1.0504975 0.013158207 0)
(1.0468912 0.012851513 0)
(1.0433814 0.012501704 0)
(1.0399791 0.012113968 0)
(1.0366937 0.011693404 0)
(1.0335331 0.011244919 0)
(1.030504 0.010773165 0)
(1.0276116 0.010282478 0)
(1.02486 0.0097768454 0)
(1.0222524 0.0092598738 0)
(1.0197909 0.0087347844 0)
(1.0174767 0.0082044013 0)
(1.0153105 0.0076711612 0)
(1.0132922 0.0071371157 0)
(1.0114215 0.0066039532 0)
(1.0096973 0.0060730059 0)
(1.0081188 0.005545282 0)
(1.0066841 0.0050214691 0)
(1.0053924 0.0045019853 0)
(1.0042414 0.0039869599 0)
(1.0032309 0.0034763309 0)
(1.0023571 0.0029697618 0)
(1.0016229 0.0024668482 0)
(1.0010206 0.0019668669 0)
(1.00056 0.0014692513 0)
(1.000223 0.00097291006 0)
(1.0000369 0.00047737327 0)
(1.0039489 -0.0018052401 0)
(1.0046427 -0.0018920224 0)
(1.0048897 -0.0019666243 0)
(1.005468 -0.0020617205 0)
(1.0058588 -0.0021541717 0)
(1.0064122 -0.0022596069 0)
(1.0068963 -0.0023676628 0)
(1.0074691 -0.0024854511 0)
(1.0080274 -0.0026083537 0)
(1.0086431 -0.0027396463 0)
(1.0092709 -0.0028773174 0)
(1.0099438 -0.0030229244 0)
(1.0106426 -0.0031756474 0)
(1.0113831 -0.003336283 0)
(1.0121576 -0.003504564 0)
(1.0129744 -0.0036809568 0)
(1.0138311 -0.003865454 0)
(1.0147323 -0.004058379 0)
(1.0156783 -0.0042598419 0)
(1.0166722 -0.0044700937 0)
(1.0177153 -0.0046892803 0)
(1.0188102 -0.0049175918 0)
(1.0199588 -0.0051551489 0)
(1.0211633 -0.0054020591 0)
(1.022426 -0.0056583623 0)
(1.0237491 -0.0059240437 0)
(1.0251347 -0.0061990073 0)
(1.0265852 -0.0064830696 0)
(1.0281026 -0.006775946 0)
(1.0296892 -0.0070772371 0)
(1.031347 -0.0073864214 0)
(1.0330779 -0.0077028388 0)
(1.0348837 -0.0080256853 0)
(1.0367661 -0.0083539998 0)
(1.0387266 -0.0086866471 0)
(1.0407663 -0.0090223144 0)
(1.042886 -0.0093594861 0)
(1.0450865 -0.0096964383 0)
(1.0473677 -0.010031212 0)
(1.0497294 -0.010361605 0)
(1.0521707 -0.010685146 0)
(1.0546903 -0.01099909 0)
(1.057286 -0.011300395 0)
(1.059955 -0.011585722 0)
(1.0626937 -0.011851435 0)
(1.0654974 -0.012093602 0)
(1.0683609 -0.01230802 0)
(1.0712773 -0.012490236 0)
(1.0742393 -0.012635595 0)
(1.0772378 -0.012739294 0)
(1.0802629 -0.01279645 0)
(1.0833035 -0.012802186 0)
(1.086347 -0.012751733 0)
(1.0893798 -0.012640542 0)
(1.0923872 -0.012464409 0)
(1.0953533 -0.012219608 0)
(1.0982614 -0.011903028 0)
(1.1010939 -0.011512304 0)
(1.1038326 -0.011045948 0)
(1.1064591 -0.010503452 0)
(1.1089546 -0.0098853714 0)
(1.1113007 -0.0091933816 0)
(1.1134791 -0.0084302869 0)
(1.1154723 -0.0075999939 0)
(1.1172639 -0.0067074365 0)
(1.1188385 -0.005758461 0)
(1.1201821 -0.0047596739 0)
(1.1212825 -0.0037182574 0)
(1.1221289 -0.0026417835 0)
(1.1227126 -0.0015379961 0)
(1.1230267 -0.00041466608 0)
(1.1230662 0.00072064038 0)
(1.1228281 0.0018605572 0)
(1.122311 0.0029981167 0)
(1.1215156 0.0041268024 0)
(1.120444 0.0052403706 0)
(1.1191003 0.006332896 0)
(1.1174899 0.0073986141 0)
(1.11562 0.0084318514 0)
(1.1134995 0.0094269266 0)
(1.1111386 0.010378085 0)
(1.1085494 0.011279496 0)
(1.1057454 0.012125268 0)
(1.1027418 0.012909567 0)
(1.0995552 0.013626718 0)
(1.0962037 0.014271424 0)
(1.0927065 0.014838912 0)
(1.0890839 0.015325192 0)
(1.0853571 0.015727166 0)
(1.0815477 0.016042849 0)
(1.0776775 0.01627139 0)
(1.0737685 0.016413187 0)
(1.0698418 0.016469797 0)
(1.0659181 0.016443937 0)
(1.0620172 0.016339297 0)
(1.0581575 0.016160458 0)
(1.0543562 0.015912654 0)
(1.0506289 0.01560165 0)
(1.0469897 0.015233509 0)
(1.043451 0.014814468 0)
(1.0400237 0.01435075 0)
(1.036717 0.013848464 0)
(1.0335387 0.013313471 0)
(1.0304952 0.012751321 0)
(1.0275915 0.012167176 0)
(1.0248315 0.011565771 0)
(1.0222179 0.010951385 0)
(1.0197525 0.010327828 0)
(1.0174365 0.0096984329 0)
(1.01527 0.0090660683 0)
(1.0132528 0.008433142 0)
(1.0113842 0.0078016283 0)
(1.0096629 0.0071730773 0)
(1.0080879 0.0065486545 0)
(1.0066571 0.0059291445 0)
(1.0053695 0.0053150135 0)
(1.0042225 0.0047063857 0)
(1.003216 0.0041031603 0)
(1.0023459 0.0035049115 0)
(1.001615 0.0029111357 0)
(1.0010155 0.00232095 0)
(1.0005572 0.0017336633 0)
(1.0002219 0.0011479543 0)
(1.0000367 0.00056325423 0)
(1.003893 -0.0020742081 0)
(1.004578 -0.0021741065 0)
(1.0048221 -0.0022600702 0)
(1.0053934 -0.002369619 0)
(1.0057798 -0.002476159 0)
(1.0063269 -0.0025976636 0)
(1.0068059 -0.002722211 0)
(1.0073726 -0.0028579873 0)
(1.0079254 -0.0029996766 0)
(1.008535 -0.0031510521 0)
(1.0091569 -0.0033097972 0)
(1.0098238 -0.0034777066 0)
(1.0105165 -0.0036538356 0)
(1.0112508 -0.0038391022 0)
(1.0120191 -0.0040331984 0)
(1.0128296 -0.0042366613 0)
(1.0136799 -0.0044494826 0)
(1.0145748 -0.0046720354 0)
(1.0155143 -0.0049044472 0)
(1.0165017 -0.0051470093 0)
(1.0175383 -0.0053998923 0)
(1.0186267 -0.0056633195 0)
(1.0197686 -0.0059374357 0)
(1.0209667 -0.0062223724 0)
(1.0222228 -0.0065181852 0)
(1.0235394 -0.0068248694 0)
(1.0249186 -0.0071423289 0)
(1.0263629 -0.0074703692 0)
(1.0278743 -0.0078086817 0)
(1.0294551 -0.0081568274 0)
(1.0311074 -0.008514229 0)
(1.0328334 -0.0088801498 0)
(1.0346348 -0.0092536887 0)
(1.0365135 -0.0096337634 0)
(1.038471 -0.010019091 0)
(1.0405088 -0.010408181 0)
(1.0426278 -0.010799309 0)
(1.0448288 -0.011190509 0)
(1.0471121 -0.011579536 0)
(1.0494776 -0.011963867 0)
(1.0519248 -0.01234066 0)
(1.0544523 -0.012706755 0)
(1.0570584 -0.013058643 0)
(1.0597405 -0.013392467 0)
(1.0624951 -0.013704019 0)
(1.0653178 -0.013988745 0)
(1.0682035 -0.014241767 0)
(1.0711458 -0.014457912 0)
(1.0741371 -0.014631763 0)
(1.0771688 -0.014757723 0)
(1.080231 -0.01483009 0)
(1.0833125 -0.014843163 0)
(1.086401 -0.01479135 0)
(1.0894827 -0.014669308 0)
(1.0925427 -0.014472079 0)
(1.095565 -0.014195253 0)
(1.0985326 -0.013835121 0)
(1.1014277 -0.013388835 0)
(1.1042316 -0.012854555 0)
(1.1069254 -0.012231577 0)
(1.1094899 -0.011520428 0)
(1.1119059 -0.010722935 0)
(1.1141544 -0.0098422403 0)
(1.1162174 -0.0088827731 0)
(1.1180775 -0.0078501648 0)
(1.1197186 -0.0067511206 0)
(1.1211258 -0.0055932449 0)
(1.1222859 -0.0043848317 0)
(1.1231876 -0.0031346502 0)
(1.1238213 -0.0018516956 0)
(1.1241793 -0.00054502448 0)
(1.1242559 0.00077652367 0)
(1.1240475 0.0021042962 0)
(1.1235522 0.0034300742 0)
(1.1227703 0.0047461503 0)
(1.1217037 0.0060451021 0)
(1.1203562 0.007319863 0)
(1.1187335 0.0085635438 0)
(1.1168428 0.0097693557 0)
(1.1146932 0.010930508 0)
(1.1122956 0.012040134 0)
(1.1096625 0.0130913 0)
(1.1068082 0.014077026 0)
(1.1037487 0.014990429 0)
(1.1005014 0.015824842 0)
(1.0970854 0.016574077 0)
(1.093521 0.017232587 0)
(1.0898295 0.017795772 0)
(1.0860331 0.018260095 0)
(1.0821542 0.018623348 0)
(1.0782158 0.018884653 0)
(1.0742403 0.019044611 0)
(1.07025 0.019105171 0)
(1.0662659 0.019069645 0)
(1.0623085 0.018942469 0)
(1.0583965 0.018729112 0)
(1.0545474 0.018435794 0)
(1.0507769 0.018069339 0)
(1.0470993 0.017636899 0)
(1.043527 0.017145815 0)
(1.0400707 0.016603392 0)
(1.0367394 0.016016784 0)
(1.0335408 0.015392841 0)
(1.0304808 0.014738035 0)
(1.0275643 0.014058367 0)
(1.0247947 0.013359337 0)
(1.0221744 0.012645897 0)
(1.019705 0.011922447 0)
(1.017387 0.011192825 0)
(1.0152205 0.010460325 0)
(1.0132048 0.009727701 0)
(1.011339 0.0089972017 0)
(1.0096214 0.0082705824 0)
(1.0080507 0.0075491515 0)
(1.0066246 0.0068337767 0)
(1.005342 0.0061249578 0)
(1.0041999 0.0054227992 0)
(1.0031982 0.0047271478 0)
(1.0023325 0.0040374738 0)
(1.0016056 0.0033531628 0)
(1.0010094 0.0026731577 0)
(1.0005538 0.0019966329 0)
(1.0002205 0.0013220225 0)
(1.0000365 0.00064865242 0)
(1.0038298 -0.0023395204 0)
(1.0045049 -0.0024524635 0)
(1.0047457 -0.0025497396 0)
(1.0053091 -0.0026736755 0)
(1.0056905 -0.0027942492 0)
(1.0062305 -0.0029317628 0)
(1.0067036 -0.0030727463 0)
(1.0072635 -0.0032264544 0)
(1.0078099 -0.0033868775 0)
(1.0084127 -0.003558284 0)
(1.009028 -0.0037380538 0)
(1.0096879 -0.0039282181 0)
(1.0103737 -0.0041277081 0)
(1.0111009 -0.0043375628 0)
(1.0118622 -0.0045574334 0)
(1.0126655 -0.0047879284 0)
(1.0135086 -0.0050290386 0)
(1.0143961 -0.0052811872 0)
(1.0153282 -0.0055445203 0)
(1.0163082 -0.0058193702 0)
(1.0173372 -0.0061059344 0)
(1.018418 -0.0064044714 0)
(1.0195524 -0.006715153 0)
(1.0207429 -0.0070381383 0)
(1.0219915 -0.0073735033 0)
(1.0233005 -0.0077212585 0)
(1.0246724 -0.0080813139 0)
(1.0261094 -0.0084534711 0)
(1.0276138 -0.0088374054 0)
(1.0291879 -0.0092326471 0)
(1.0308339 -0.0096385719 0)
(1.032554 -0.010054377 0)
(1.0343502 -0.010479074 0)
(1.0362245 -0.010911471 0)
(1.0381786 -0.011350146 0)
(1.040214 -0.011793444 0)
(1.0423319 -0.012239441 0)
(1.0445334 -0.012685934 0)
(1.0468189 -0.013130407 0)
(1.0491886 -0.013570018 0)
(1.0516421 -0.014001564 0)
(1.0541786 -0.014421471 0)
(1.0567963 -0.014825764 0)
(1.059493 -0.01521007 0)
(1.0622655 -0.015569604 0)
(1.0651097 -0.015899182 0)
(1.0680206 -0.01619324 0)
(1.070992 -0.016445872 0)
(1.0740168 -0.016650879 0)
(1.0770863 -0.016801845 0)
(1.0801907 -0.016892224 0)
(1.0833191 -0.016915452 0)
(1.0864589 -0.016865081 0)
(1.0895965 -0.016734927 0)
(1.0927168 -0.016519236 0)
(1.0958036 -0.01621286 0)
(1.0988397 -0.015811443 0)
(1.1018067 -0.015311599 0)
(1.1046857 -0.014711083 0)
(1.1074571 -0.014008939 0)
(1.110101 -0.013205616 0)
(1.1125976 -0.012303047 0)
(1.1149272 -0.01130467 0)
(1.1170708 -0.010215399 0)
(1.1190101 -0.0090415363 0)
(1.1207279 -0.0077906273 0)
(1.1222086 -0.0064712654 0)
(1.123438 -0.0050928589 0)
(1.1244036 -0.003665387 0)
(1.1250951 -0.0021991225 0)
(1.1255038 -0.00070444474 0)
(1.1256233 0.00080848114 0)
(1.1254492 0.0023296502 0)