/*--------------------------------*- C++ -*----------------------------------*\
| =========                 |                                                 |
| \\      /  F ield         | foam-extend: Open Source CFD                    |
|  \\    /   O peration     | Version:     4.1                                |
|   \\  /    A nd           | Web:         http://www.foam-extend.org         |
|    \\/     M anipulation  |                                                 |
\*---------------------------------------------------------------------------*/
FoamFile
{
    version     2.0;
    format      ascii;
    class       surfaceScalarField;
    location    "0.45";
    object      phi;
}
// * * * * * * * * * * * * * * * * * * * * * * * * * * * * * * * * * * * * * //

dimensions      [0 3 -1 0 0 0 0];

internalField   nonuniform List<scalar> 
32976
(
-0.24552728
2.3153621e-05
-0.24555052
2.3236163e-05
-0.24557394
2.3419387e-05
-0.24559765
2.370734e-05
-0.24562175
2.4100505e-05
-0.24564635
2.4600733e-05
-0.24567156
2.5209472e-05
-0.24569749
2.5929366e-05
-0.24572425
2.6762628e-05
-0.24575196
2.7712708e-05
-0.24578074
2.8782571e-05
-0.24581072
2.9976474e-05
-0.24584202
3.1298126e-05
-0.24587477
3.2752593e-05
-0.24590912
3.4344306e-05
-0.24594519
3.6079128e-05
-0.24598316
3.7962176e-05
-0.24602316
4.0000086e-05
-0.24606536
4.2198601e-05
-0.24610992
4.4565075e-05
-0.24615703
4.7105791e-05
-0.24620685
4.982873e-05
-0.2462596
5.274058e-05
-0.24631545
5.5849813e-05
-0.24637461
5.916333e-05
-0.2464373
6.268989e-05
-0.24650373
6.6436336e-05
-0.24657415
7.0411426e-05
-0.24664877
7.4621579e-05
-0.24672784
7.9075155e-05
-0.24681162
8.3777657e-05
-0.24690036
8.8736148e-05
-0.24699431
9.3956039e-05
-0.24709375
9.9440526e-05
-0.24719895
0.00010519428
-0.24731016
0.00011121729
-0.24742768
0.00011751118
-0.24755175
0.00012407193
-0.24768264
0.00013089687
-0.24782062
0.00013797654
-0.24796592
0.0001453025
-0.24811878
0.00015285838
-0.24827941
0.00016062731
-0.248448
0.00016858562
-0.2486247
0.00017670526
-0.24880965
0.00018495234
-0.24900294
0.00019328665
-0.2492046
0.00020166148
-0.24941462
0.00021002228
-0.24963293
0.00021830693
-0.24985937
0.00022644489
-0.25009373
0.00023435684
-0.25033569
0.00024195428
-0.25058483
0.00024913984
-0.25084063
0.00025580622
-0.25110247
0.00026183734
-0.25136958
0.00026710822
-0.25164106
0.00027148568
-0.25191589
0.00027482919
-0.25219289
0.00027699269
-0.25247071
0.00027782513
-0.25274788
0.0002771736
-0.25302277
0.00027488532
-0.25329358
0.00027081058
-0.25355839
0.00026480614
-0.25381512
0.0002567388
-0.25406161
0.00024649001
-0.25429557
0.00023395918
-0.25451464
0.00021906921
-0.25471641
0.00020177053
-0.25489846
0.00018204556
-0.25505837
0.00015991279
-0.2551938
0.00013543064
-0.2553025
0.00010869952
-0.25538237
7.9864294e-05
-0.25543148
4.9114641e-05
-0.25544817
1.6685122e-05
-0.25543102
-1.7145571e-05
-0.25537896
-5.2063368e-05
-0.25529124
-8.7722318e-05
-0.25516749
-0.00012374966
-0.25500773
-0.00015975394
-0.2548124
-0.00019533389
-0.25458231
-0.00023008797
-0.25431869
-0.00026362386
-0.25402312
-0.00029556806
-0.25369754
-0.00032557459
-0.25334421
-0.00035333284
-0.25296564
-0.00037857411
-0.25256456
-0.0004010765
-0.25214389
-0.00042066894
-0.25170666
-0.00043723116
-0.25125596
-0.00045069515
-0.25079492
-0.00046104265
-0.25032662
-0.00046830223
-0.24985407
-0.00047254501
-0.2493802
-0.0004738794
-0.24890775
-0.00047244638
-0.24843934
-0.0004684115
-0.24797738
-0.00046196079
-0.24752408
-0.00045329385
-0.24708146
-0.00044261845
-0.24665132
-0.00043014527
-0.24623523
-0.00041608418
-0.2458346
-0.0004006386
-0.24545059
-0.00038400397
-0.24508423
-0.00036636431
-0.24473634
-0.00034789033
-0.2444076
-0.00032873796
-0.24409855
-0.00030904809
-0.24380961
-0.00028894481
-0.24354107
-0.00026853675
-0.24329315
-0.00024791668
-0.24306599
-0.00022716224
-0.24285965
-0.00020633665
-0.24267416
-0.00018549007
-0.2425095
-0.00016465982
-0.24236563
-0.0001438724
-0.24224249
-0.00012314426
-0.24214
-0.00010248315
-0.24205812
-8.1889498e-05
-0.24199676
-6.135777e-05
-0.24195588
-4.0876766e-05
-2.0430567e-05
-0.24553733
4.626034e-05
-0.24556052
4.6426023e-05
-0.2455839
4.6792257e-05
-0.24560756
4.7367707e-05
-0.24563161
4.8153388e-05
-0.24565616
4.9153014e-05
-0.24568132
5.0369487e-05
-0.2457072
5.1808096e-05
-0.24573391
5.3473268e-05
-0.24576157
5.53719e-05
-0.2457903
5.7509925e-05
-0.24582022
5.9895857e-05
-0.24585146
6.2537117e-05
-0.24588415
6.5443836e-05
-0.24591843
6.862488e-05
-0.24595444
7.209198e-05
-0.24599233
7.5855375e-05
-0.24603226
7.9928341e-05
-0.24607439
8.4322378e-05
-0.24611887
8.9052199e-05
-0.2461659
9.4130389e-05
-0.24621564
9.9572923e-05
-0.2462683
0.0001053932
-0.24632405
0.00011160818
-0.24638312
0.00011823171
-0.24644571
0.00012528132
-0.24651205
0.00013277075
-0.24658235
0.00014071756
-0.24665687
0.00014913464
-0.24673583
0.00015803876
-0.24681949
0.00016744101
-0.24690811
0.00017735559
-0.24700195
0.00018779342
-0.24710127
0.00019876098
-0.24720634
0.00021026773
-0.24731744
0.00022231378
-0.24743483
0.00023490252
-0.24755879
0.00024802605
-0.24768957
0.00026167921
-0.24782744
0.00027584327
-0.24797263
0.00029050152
-0.2481254
0.00030562148
-0.24828594
0.0003211696
-0.24845445
0.00033709879
-0.2486311
0.00035335316
-0.24881601
0.00036986523
-0.24900928
0.0003865548
-0.24921095
0.0004033287
-0.24942101
0.00042007806
-0.24963938
0.00043667886
-0.24986592
0.00045299018
-0.25010042
0.00046885353
-0.25034256
0.000484092
-0.25059193
0.00049851085
-0.25084802
0.00051189544
-0.25111019
0.00052401343
-0.2513777
0.00053461455
-0.25164965
0.00054343205
-0.251925
0.00055018427
-0.25220259
0.00055457836
-0.25248107
0.00055631128
-0.25275898
0.00055507613
-0.25303466
0.00055056602
-0.25330633
0.00054248006
-0.25357205
0.00053053009
-0.25382976
0.0005144479
-0.25407726
0.00049399449
-0.25431227
0.00046896665
-0.25453241
0.00043920822
-0.25473526
0.00040461808
-0.25491837
0.00036515934
-0.25507933
0.00032086743
-0.25521575
0.00027185799
-0.25532538
0.0002183311
-0.2554061
0.00016057633
-0.25545596
9.8973569e-05
-0.25547326
3.39931e-05
-0.2554566
-3.3807297e-05
-0.25540487
-0.00010379692
-0.25531731
-0.0001752807
-0.25519355
-0.00024750961
-0.25503361
-0.00031969685
-0.25483791
-0.00039103579
-0.25460727
-0.00046071912
-0.25434294
-0.00052795809
-0.25404651
-0.00059200178
-0.25371993
-0.00065215476
-0.25336547
-0.00070779291
-0.25298566
-0.0007583766
-0.25258328
-0.00080346048
-0.25216125
-0.00084270166
-0.25172262
-0.00087585957
-0.25127051
-0.00090279888
-0.25080807
-0.00092348436
-0.2503384
-0.00093797492
-0.24986453
-0.00094641501
-0.24938939
-0.00094902392
-0.24891575
-0.0009460862
-0.24844622
-0.00093793562
-0.24798324
-0.00092494684
-0.24752901
-0.00090752155
-0.24708555
-0.00088607758
-0.24665466
-0.00086103827
-0.24623791
-0.00083282517
-0.24583671
-0.00080184657
-0.24545222
-0.00076849458
-0.24508544
-0.00073313812
-0.24473721
-0.00069611932
-0.2444082
-0.00065775043
-0.24409894
-0.0006183135
-0.24380982
-0.00057805672
-0.24354116
-0.00053719724
-0.24329316
-0.0004959204
-0.24306594
-0.00045438115
-0.24285957
-0.00041270551
-0.24267407
-0.00037099336
-0.24250941
-0.00032931882
-0.24236555
-0.00028773438
-0.24224242
-0.00024627238
-0.24213995
-0.00020494781
-0.24205808
-0.00016376092
-0.24199674
-0.00012270006
-0.24195588
-8.1742416e-05
-4.0855786e-05
-0.24555674
6.927629e-05
-0.24557984
6.9524682e-05
-0.24560312
7.0073289e-05
-0.24562669
7.09353e-05
-0.24565065
7.2112216e-05
-0.2456751
7.3609618e-05
-0.24570017
7.5431859e-05
-0.24572595
7.7586875e-05
-0.24575255
8.0081308e-05
-0.24578011
8.2925501e-05
-0.24580873
8.6128358e-05
-0.24583853
8.9702649e-05
-0.24586965
9.3659512e-05
-0.24590222
9.8014147e-05
-0.24593638
0.00010277986
-0.24597226
0.00010797426
-0.24601002
0.00011361272
-0.24604981
0.00011971517
-0.24609178
0.00012629888
-0.24613612
0.00013338595
-0.24618298
0.00014099529
-0.24623256
0.0001491509
-0.24628504
0.00015787294
-0.24634062
0.00016718691
-0.2463995
0.00017711363
-0.2464619
0.00018767951
-0.24652803
0.00019890524
-0.24659813
0.00021081727
-0.24667243
0.00022343508
-0.24675118
0.00023678398
-0.24683462
0.00025088076
-0.24692301
0.00026574693
-0.24701661
0.00028139909
-0.2471157
0.00029784722
-0.24722054
0.00031510577
-0.2473314
0.00033317526
-0.24744856
0.0003520611
-0.24757228
0.00037175182
-0.24770285
0.0003922401
-0.2478405
0.0004134983
-0.2479855
0.00043550187
-0.24813808
0.00045820258
-0.24829846
0.00048155069
-0.24846684
0.00050547612
-0.24864338
0.00052989568
-0.24882823
0.00055470872
-0.24902147
0.00057979558
-0.24922316
0.0006050171
-0.24943329
0.00063021055
-0.2496518
0.00065519041
-0.24987856
0.00067974576
-0.25011334
0.00070363921
-0.25035585
0.00072660559
-0.2506057
0.00074835285
-0.25086236
0.00076855883
-0.25112522
0.00078687463
-0.25139353
0.00080292414
-0.2516664
0.00081630617
-0.25194282
0.00082659682
-0.25222159
0.00083335498
-0.25250141
0.00083612379
-0.25278077
0.00083444017
-0.25305805
0.00082784053
-0.25333143
0.00081586988
-0.253599
0.00079809181
-0.25385865
0.00077409952
-0.25410818
0.0007435297
-0.25434529
0.00070607257
-0.25456757
0.00066148883
-0.25477257
0.000609622
-0.25495783
0.0005504122
-0.25512087
0.00048390867
-0.25525929
0.00041028177
-0.25537079
0.00032982961
-0.2554532
0.00024298588
-0.25550455
0.00015032129
-0.2555231
5.2543525e-05
-0.2555074
-4.9507853e-05
-0.25545631
-0.00015488037
-0.25536907
-0.00026252361
-0.25524528
-0.00037130518
-0.25508494
-0.0004800351
-0.25488848
-0.00058749297
-0.25465674
-0.00069245713
-0.25439097
-0.000793734
-0.25409278
-0.00089018742
-0.25376417
-0.00098076553
-0.25340744
-0.0010645249
-0.25302516
-0.0011406505
-0.25262015
-0.0012084705
-0.25219539
-0.0012674689
-0.25175396
-0.001317285
-0.25129904
-0.0013577174
-0.25083381
-0.0013887169
-0.25036141
-0.0014103763
-0.24988491
-0.001422918
-0.24940725
-0.0014266772
-0.24893125
-0.0014220874
-0.24845953
-0.0014096559
-0.24799453
-0.0013899514
-0.24753847
-0.0013635826
-0.24709336
-0.0013311819
-0.24666101
-0.0012933894
-0.24624299
-0.0012508418
-0.24584068
-0.0012041553
-0.24545526
-0.0011539209
-0.2450877
-0.0011006942
-0.24473883
-0.0010449901
-0.2444093
-0.00098727796
-0.24409964
-0.00092798133
-0.24381022
-0.00086747259
-0.24354134
-0.00080607717
-0.24329319
-0.00074407242
-0.24306588
-0.00068168995
-0.24285947
-0.00061911772
-0.24267396
-0.00055650439
-0.24250932
-0.00049395987
-0.24236549
-0.00043156154
-0.2422424
-0.00036935654
-0.24213999
-0.00030736595
-0.24205816
-0.00024558873
-0.24199685
-0.00018400602
-0.24195601
-0.00012258233
-6.1267893e-05
-0.245585
9.2156212e-05
-0.24560796
9.2486912e-05
-0.24563111
9.3216993e-05
-0.24565454
9.4364146e-05
-0.24567836
9.5930367e-05
-0.24570267
9.7923099e-05
-0.24572758
0.00010034815
-0.24575321
0.00010321611
-0.24577967
0.00010653582
-0.24580706
0.00011032108
-0.24583552
0.00011458376
-0.24586516
0.0001193409
-0.24589611
0.00012460735
-0.2459285
0.00013040338
-0.24596246
0.00013674677
-0.24599815
0.00014366099
-0.2460357
0.00015116657
-0.24607528
0.00015929012
-0.24611703
0.00016805472
-0.24616114
0.00017748986
-0.24620776
0.00018762085
-0.24625709
0.00019847975
-0.24630931
0.00021009353
-0.24636462
0.0002224963
-0.24642322
0.00023571597
-0.24648533
0.00024978789
-0.24655117
0.00026473984
-0.24662096
0.0002806073
-0.24669494
0.00029741649
-0.24677336
0.00031520143
-0.24685646
0.00033398486
-0.24694451
0.0003537958
-0.24703777
0.0003746568
-0.2471365
0.00039658166
-0.24724099
0.00041959017
-0.24735149
0.00044368359
-0.2474683
0.0004688698
-0.24759168
0.00049513423
-0.24772191
0.00052246789
-0.24785925
0.00055083479
-0.24800395
0.00058020312
-0.24815626
0.00061050955
-0.2483164
0.00064168879
-0.24848457
0.00067364852
-0.24866095
0.00070627893
-0.24884569
0.00073944697
-0.24903889
0.00077299426
-0.24924061
0.00080673637
-0.24945085
0.00084045742
-0.24966957
0.00087391102
-0.24989665
0.00090681679
-0.25013187
0.00093885885
-0.25037494
0.00096968407
-0.25062549
0.0009989031
-0.25088302
0.0010260861
-0.25114691
0.0010507672
-0.25141643
0.0010724434
-0.25169071
0.0010905781
-0.25196871
0.0011046032
-0.25224928
0.0011139273
-0.2525311
0.0011179369
-0.25281267
0.0011160094
-0.25309235
0.0011075208
-0.25336833
0.0010918573
-0.25363867
0.0010684295
-0.25390126
0.0010366864
-0.25415386
0.00099613462
-0.25439414
0.00094635172
-0.25461966
0.00088700925
-0.25482793
0.00081788938
-0.25501642
0.00073890381
-0.25518262
0.00065011075
-0.25532407
0.00055173154
-0.2554384
0.0004441598
-0.25552339
0.00032797242
-0.255577
0.00020393176
-0.25559744
7.2985481e-05
-0.25558321
-6.3740395e-05
-0.25553313
-0.00020496427
-0.25544638
-0.0003492715
-0.25532255
-0.00049513568
-0.25516163
-0.0006409517
-0.25496405
-0.00078507264
-0.25473066
-0.00092584947
-0.25446272
-0.001061671
-0.25416191
-0.0011910039
-0.25383024
-0.0013124291
-0.25347009
-0.0014246751
-0.2530841
-0.0015266447
-0.25267513
-0.0016174351
-0.25224625
-0.001696355
-0.25180061
-0.0017629234
-0.25134145
-0.0018168758
-0.25087201
-0.0018581526
-0.2503955
-0.0018868866
-0.24991504
-0.0019033848
-0.24943361
-0.0019081061
-0.24895406
-0.0019016411
-0.24847903
-0.0018846789
-0.24801099
-0.0018579899
-0.24755218
-0.0018223977
-0.2471046
-0.001778756
-0.24667007
-0.001727928
-0.24625014
-0.0016707707
-0.24584618
-0.0016081124
-0.24545935
-0.0015407468
-0.24509063
-0.0014694189
-0.2447408
-0.001394818
-0.24441051
-0.0013175719
-0.24410024
-0.0012382463
-0.24381038
-0.0011573377
-0.24354118
-0.0010752794
-0.24329281
-0.00099244008
-0.24306537
-0.00090912689
-0.2428589
-0.0008255885
-0.24267338
-0.00074202089
-0.24250878
-0.00065856821
-0.24236501
-0.00057533112
-0.24224199
-0.00049236992
-0.24213965
-0.00040971006
-0.24205789
-0.00032734755
-0.24199664
-0.00024525466
-0.24195584
-0.0001633816
-8.1659155e-05
-0.24562261
0.00011485507
-0.24564539
0.00011526796
-0.24566835
0.0001161784
-0.24569159
0.00011760883
-0.24571522
0.00011956179
-0.24573935
0.00012204661
-0.24576407
0.00012507055
-0.2457895
0.00012864684
-0.24581575
0.00013278654
-0.24584294
0.0001375069
-0.24587118
0.00014282277
-0.24590059
0.00014875543
-0.24593131
0.00015532348
-0.24596346
0.00016255226
-0.24599717
0.00017046401
-0.2460326
0.00017908811
-0.24606988
0.00018845026
-0.24610918
0.00019858377
-0.24615064
0.00020951756
-0.24619444
0.00022128858
-0.24624075
0.00023392856
-0.24628975
0.00024747769
-0.24634162
0.00026196985
-0.24639657
0.00027744785
-0.2464548
0.00029394679
-0.24651653
0.0003115111
-0.24658196
0.00033017581
-0.24665134
0.0003499856
-0.2467249
0.00037097364
-0.24680288
0.00039318291
-0.24688554
0.00041664236
-0.24697313
0.00044138885
-0.24706592
0.00046745122
-0.24716419
0.00049484751
-0.2472682
0.00052360327
-0.24737824
0.00055372105
-0.24749458
0.00058521171
-0.24761751
0.00061805821
-0.24774729
0.00065225057
-0.2478842
0.00068774519
-0.2480285
0.00072450374
-0.24818044
0.00076244869
-0.24834025
0.00080150008
-0.24850815
0.00084154427
-0.24868431
0.00088244582
-0.24886891
0.0009240403
-0.24906204
0.0009661316
-0.2492638
0.001008491
-0.24947419
0.0010508504
-0.24969318
0.0010929034
-0.24992067
0.001134301
-0.25015646
0.0011746493
-0.25040028
0.0012135076
-0.25065177
0.0012503895
-0.25091044
0.0012847573
-0.2511757
0.0013160271
-0.25144683
0.0013435686
-0.25172295
0.0013667075
-0.25200308
0.0013847299
-0.25228605
0.0013968907
-0.25257052
0.0014024164
-0.25285504
0.0014005205
-0.25313793
0.0013904131
-0.25341739
0.0013713161
-0.25369144
0.0013424799
-0.25395795
0.0013032023
-0.25421467
0.0012528518
-0.2544592
0.0011908853
-0.25468907
0.0011168767
-0.25490172
0.001030539
-0.25509456
0.00093174771
-0.25526502
0.00082056357
-0.25541054
0.00069725355
-0.25552868
0.0005623033
-0.25561714
0.00041643152
-0.2556738
0.00026059323
-0.2556968
9.5979624e-05
-0.25568455
-7.59903e-05
-0.25563582
-0.000253696
-0.25554974
-0.00043534664
-0.25542587
-0.0006190074
-0.25526418
-0.00080264184
-0.25506509
-0.00098415923
-0.25482948
-0.0011614654
-0.25455863
-0.0013325142
-0.25425428
-0.0014953588
-0.25391851
-0.0016481987
-0.25355376
-0.0017894219
-0.25316277
-0.0019176401
-0.25274849
-0.0020317135
-0.25231407
-0.0021307725
-0.25186278
-0.0022142167
-0.25139793
-0.002281721
-0.25092286
-0.0023332216
-0.25044085
-0.0023688992
-0.24995508
-0.0023891548
-0.24946861
-0.0023945815
-0.24898431
-0.002385938
-0.24850488
-0.0023641062
-0.2480328
-0.0023300696
-0.24757032
-0.0022848761
-0.24711947
-0.0022296106
-0.24668203
-0.0021653672
-0.24625957
-0.0020932305
-0.24585344
-0.0020142468
-0.24546476
-0.001929417
-0.2450945
-0.001839679
-0.24474342
-0.0017458992
-0.24441213
-0.0016488651
-0.24410109
-0.0015492854
-0.24381065
-0.0014477806
-0.24354104
-0.0013448914
-0.2432924
-0.0012410767
-0.24306481
-0.0011367176
-0.24285828
-0.0010321219
-0.24267277
-0.00092753078
-0.24250821
-0.00082312069
-0.24236453
-0.00071901334
-0.24224162
-0.00061527994
-0.24213938
-0.00051194807
-0.24205772
-0.00040900852
-0.24199655
-0.00030642252
-0.24195581
-0.00020412375
-0.00010202113
-0.24566936
0.0001373302
-0.24569191
0.00013782361
-0.24571465
0.00013891269
-0.24573766
0.00014062399
-0.24576106
0.00014296048
-0.24578495
0.00014593333
-0.24580943
0.00014955125
-0.24583461
0.00015383011
-0.24586061
0.00015878321
-0.24588753
0.00016443121
-0.2459155
0.00017079196
-0.24594464
0.00017789099
-0.24597506
0.00018575064
-0.24600691
0.00019440134
-0.24604032
0.00020386982
-0.24607542
0.00021419136
-0.24611237
0.00022539688
-0.24615131
0.00023752641
-0.24619241
0.00025061475
-0.24623583
0.00026470637
-0.24628174
0.00027983947
-0.24633032
0.00029606249
-0.24638177
0.00031341629
-0.24643627
0.00033195249
-0.24649404
0.00035171352
-0.24655528
0.00037275307
-0.24662022
0.00039511361
-0.24668908
0.00041884922
-0.24676211
0.00044400031
-0.24683955
0.0004706191
-0.24692164
0.00049874109
-0.24700867
0.00052841138
-0.24710088
0.00055966555
-0.24719856
0.00059252636
-0.24730198
0.0006270257
-0.24741143
0.00066316801
-0.24752719
0.00070096785
-0.24764953
0.00074040648
-0.24777876
0.00078147374
-0.24791513
0.00082411934
-0.24805893
0.00086829944
-0.2482104
0.00091392335
-0.2483698
0.00096089759
-0.24853734
0.0010090884
-0.24871323
0.0010583359
-0.24889764
0.0011084455
-0.24909069
0.0011591847
-0.24929248
0.0012102817
-0.24950305
0.0012614175
-0.24972237
0.0013122267
-0.24995036
0.0013622926
-0.25018686
0.0014111442
-0.2504316
0.0014582538
-0.25068425
0.0015030378
-0.25094435
0.0015448506
-0.25121131
0.0015829899
-0.25148444
0.0016166963
-0.25176289
0.0016451562
-0.25204566
0.0016675067
-0.25233162
0.001682846
-0.25261944
0.0016902357
-0.25290764
0.0016887199
-0.25319456
0.0016773365
-0.25347838
0.0016551354
-0.2537571
0.0016211985
-0.25402856
0.001574663
-0.25429046
0.0015147496
-0.25454035
0.0014407836
-0.25477571
0.0013522312
-0.2549939
0.0012487253
-0.25519224
0.001130096
-0.25536808
0.00099639773
-0.25551876
0.00084793625
-0.25564174
0.00068528452
-0.25573461
0.00050930106
-0.25579515
0.00032113459
-0.2558214
0.00012222425
-0.25581168
-8.5709725e-05
-0.25576468
-0.00030069532
-0.25567947
-0.00052055043
-0.25555557
-0.00074291345
-0.25539291
-0.00096529593
-0.25519193
-0.0011851411
-0.25495351
-0.0013998868
-0.254679
-0.0016070296
-0.25437017
-0.0018041882
-0.2540292
-0.0019891621
-0.25365864
-0.0021599838
-0.25326132
-0.0023149616
-0.25284032
-0.0024527113
-0.25239891
-0.0025721818
-0.25194048
-0.0026726534
-0.25146845
-0.0027537452
-0.25098628
-0.0028153968
-0.25049733
-0.0028578466
-0.25000488
-0.0028816022
-0.24951206
-0.0028874044
-0.2490218
-0.0028761939
-0.24853685
-0.0028490603
-0.24805971
-0.0028072133
-0.24759264
-0.0027519386
-0.24713769
-0.0026845637
-0.24669663
-0.0026064242
-0.24627102
-0.002518841
-0.24586218
-0.0024230857
-0.24547123
-0.0023203723
-0.24509907
-0.0022118359
-0.24474645
-0.0020985229
-0.24441393
-0.0019813826
-0.24410195
-0.0018612671
-0.24381081
-0.0017389212
-0.24354071
-0.0016149918
-0.24329176
-0.0014900266
-0.243064
-0.0013644791
-0.2428574
-0.0012387136
-0.24267192
-0.0011130144
-0.24250745
-0.00098758719
-0.24236389
-0.00086257215
-0.24224113
-0.00073804852
-0.24213903
-0.00061404324
-0.2420575
-0.000490539
-0.24199644
-0.00036748326
-0.24195577
-0.00024479037
-0.0001223444
-0.24572542
0.00015953452
-0.24574771
0.00016010916
-0.24577017
0.00016137537
-0.24579291
0.00016336476
-0.24581603
0.00016608094
-0.24583963
0.00016953695
-0.24586383
0.00017374298
-0.24588871
0.00017871751
-0.24591441
0.00018447608
-0.24594102
0.00019104277
-0.24596866
0.00019843843
-0.24599747
0.00020669285
-0.24602755
0.00021583211
-0.24605904
0.00022589174
-0.24609207
0.00023690297
-0.24612679
0.00024890701
-0.24616333
0.00026194003
-0.24620185
0.00027604881
-0.24624251
0.00029127409
-0.24628547
0.0003076679
-0.24633091
0.00032527505
-0.246379
0.00034415223
-0.24642993
0.00036434746
-0.2464839
0.00038592128
-0.24654111
0.00040892365
-0.24660177
0.00043341766
-0.24666611
0.00045945347
-0.24673436
0.00048709484
-0.24680675
0.00051638971
-0.24688353
0.0005473999
-0.24696496
0.00058016788
-0.24705129
0.00061474743
-0.24714281
0.0006511814
-0.24723978
0.00068949788
-0.24734249
0.00072973574
-0.24745122
0.0007719021
-0.24756627
0.00081601601
-0.24768792
0.00086205797
-0.24781647
0.00091001862
-0.24795219
0.00095984213
-0.24809537
0.0010114803
-0.24824628
0.0010648306
-0.24840517
0.0011197873
-0.24857228
0.001176198
-0.24874782
0.0012338799
-0.24893199
0.0012926098
-0.24912492
0.0013521204
-0.24932674
0.0014120983
-0.2495375
0.001472175
-0.2497572
0.0015319276
-0.24998578
0.0015908728
-0.2502231
0.0016484637
-0.25046893
0.0017040861
-0.25072295
0.0017570598
-0.25098473
0.0018066307
-0.25125372
0.0018519776
-0.25152923
0.0018922104
-0.25181045
0.001926374
-0.2520964
0.0019534535
-0.25238594
0.0019723857
-0.25267776
0.0019820623
-0.2529704
0.0019813513
-0.25326217
0.0019691106
-0.25355124
0.0019442088
-0.25383559
0.0019055496
-0.25411303
0.0018520978
-0.25438119
0.0017829141
-0.25463759
0.0016971798
-0.2548796
0.0015942398
-0.25510451
0.0014736346
-0.25530955
0.0013351364
-0.25549193
0.0011787827
-0.25564891
0.0010049092
-0.25577779
0.00081417015
-0.25587605
0.00060756103
-0.25594134
0.00038642526
-0.25597157
0.00015245517
-0.25596496
-9.2317905e-05
-0.2559201
-0.00034555531
-0.25583599
-0.00060466519
-0.25571207
-0.00086683648
-0.25554826
-0.0011291031
-0.25534499
-0.0013884146
-0.25510316
-0.0016417128
-0.25482418
-0.001886009
-0.25450991
-0.0021184617
-0.25416262
-0.0023364473
-0.25378498
-0.0025376236
-0.25337996
-0.0027199814
-0.25295079
-0.0028818828
-0.25250088
-0.003022091
-0.25203377
-0.0031397681
-0.25155303
-0.0032344831
-0.25106224
-0.0033061884
-0.25056489
-0.0033551934
-0.25006437
-0.0033821275
-0.24956387
-0.0033878958
-0.24906643
-0.0033736391
-0.24857482
-0.0033406717
-0.24809158
-0.0032904468
-0.24761902
-0.0032245038
-0.24715916
-0.0031444269
-0.24671377
-0.0030518058
-0.24628441
-0.0029482086
-0.24587235
-0.0028351409
-0.24547869
-0.0027140365
-0.24510429
-0.0025862329
-0.24474985
-0.00245296
-0.2444159
-0.0023153309
-0.24410283
-0.0021743419
-0.24381089
-0.0020308617
-0.24354024
-0.0018856426
-0.24329095
-0.001739319
-0.24306301
-0.0015924143
-0.24285638
-0.0014453468
-0.24267095
-0.0012984405
-0.24250661
-0.0011519274
-0.24236322
-0.0010059626
-0.24224064
-0.00086063011
-0.24213873
-0.00071595261
-0.24205737
-0.00057190143
-0.24199644
-0.00042840686
-0.24195587
-0.00028536064
-0.00014261839
-0.2457903
0.0001814291
-0.24581227
0.00018208181
-0.24583442
0.00018352259
-0.24585684
0.00018578668
-0.24587964
0.00018887806
-0.24590291
0.00019281156
-0.24592677
0.00019759884
-0.24595131
0.000203261
-0.24597665
0.0002098158
-0.2460029
0.00021729076
-0.24603017
0.00022570971
-0.24605858
0.00023510671
-0.24608826
0.00024551159
-0.24611934
0.00025696499
-0.24615194
0.00026950265
-0.2461862
0.00028317174
-0.24622228
0.00029801372
-0.24626031
0.00031408214
-0.24630046
0.00033142377
-0.24634289
0.00035009825
-0.24638777
0.00037015707
-0.24643528
0.00039166532
-0.24648561
0.00041467827
-0.24653896
0.00043926556
-0.24659552
0.00046548486
-0.24665551
0.00049340888
-0.24671915
0.00052309574
-0.24678668
0.00055461916
-0.24685832
0.000588035
-0.24693434
0.00062341504
-0.24701498
0.00066080922
-0.24710051
0.00070028053
-0.24719121
0.0007418797
-0.24728735
0.00078564083
-0.24738923
0.00083161056
-0.24749713
0.00087979955
-0.24761134
0.00093023229
-0.24773217
0.00098288959
-0.24785992
0.0010377641
-0.24799487
0.0010947957
-0.24813733
0.0011539332
-0.24828756
0.0012150637
-0.24844584
0.001278071
-0.24861243
0.0013427856
-0.24878755
0.0014090036
-0.24897142
0.001476475
-0.2491642
0.0015448993
-0.24936602
0.0016139238
-0.24957698
0.0016831319
-0.2497971
0.0017520451
-0.25002634
0.001820115
-0.2502646
0.0018867199
-0.25051167
0.00195116
-0.25076727
0.002012659
-0.25103099
0.0020703545
-0.25130232
0.0021233053
-0.2515806
0.0021704891
-0.25186503
0.0022108069
-0.25215467
0.0022430878
-0.25244838
0.0022661026
-0.25274489
0.0022785668
-0.2530427
0.0022791647
-0.25334016
0.0022665651
-0.25363539
0.0022394448
-0.25392636
0.0021965168
-0.25421082
0.0021365604
-0.25448637
0.0020584618
-0.25475043
0.0019612426
-0.2550003
0.0018441112
-0.25523317
0.0017064996
-0.25544614
0.0015481076
-0.2556363
0.0013689423
-0.25580075
0.0011693587
-0.25593666
0.00095008431
-0.25604135
0.00071224786
-0.25611231
0.00045738826
-0.25614732
0.00018745685
-0.25614444
-9.5192397e-05
-0.25610216
-0.00038783605
-0.25601937
-0.00068745044
-0.25589546
-0.00099074778
-0.25573031
-0.0012942534
-0.25552434
-0.0015943898
-0.25527848
-0.0018875685
-0.25499421
-0.0021702819
-0.25467347
-0.0024391967
-0.25431868
-0.0026912384
-0.25393264
-0.0029236671
-0.25351848
-0.003134139
-0.25307961
-0.0033207514
-0.25261963
-0.003482077
-0.25214223
-0.0036171618
-0.25165119
-0.0037255315
-0.25115021
-0.0038071636
-0.25064295
-0.0038624542
-0.2501329
-0.0038921734
-0.24962339
-0.0038974113
-0.2491175
-0.00387953
-0.24861808
-0.0038400896
-0.24812772
-0.0037808074
-0.24764873
-0.0037034951
-0.24718314
-0.0036100109
-0.24673274
-0.0035022133
-0.24629901
-0.0033819299
-0.24588324
-0.0032509108
-0.24548646
-0.0031108175
-0.2451095
-0.0029631956
-0.244753
-0.0028094625
-0.24441743
-0.0026508971
-0.24410313
-0.0024886408
-0.24381031
-0.0023236856
-0.24353906
-0.0021568874
-0.24328942
-0.0019889654
-0.24306132
-0.0018205098
-0.24285468
-0.0016519893
-0.24266936
-0.0014837643
-0.2425052
-0.0013160889
-0.24236203
-0.0011491293
-0.24223969
-0.00098297002
-0.24213802
-0.00081762571
-0.24205686
-0.00065305222
-0.24199611
-0.00048915882
-0.24195566
-0.00032581074
-0.00016283099
-0.24586444
0.00020296488
-0.24588606
0.00020369717
-0.24590785
0.00020531061
-0.24592991
0.00020784572
-0.24595234
0.00021130718
-0.24597524
0.00021571169
-0.24599871
0.00022107239
-0.24602286
0.00022741299
-0.2460478
0.00023475346
-0.24607363
0.00024312475
-0.24610048
0.00025255371
-0.24612845
0.00026307862
-0.24615767
0.00027473312
-0.24618827
0.00028756292
-0.24622037
0.00030160833
-0.24625413
0.00031692248
-0.24628966
0.00033355215
-0.24632714
0.00035155774
-0.24636671
0.00037099209
-0.24640853
0.00039192251
-0.24645278
0.00041440729
-0.24649964
0.00043852002
-0.24654928
0.0004643234
-0.24660191
0.00049189631
-0.24665773
0.00052130434
-0.24671695
0.00055263007
-0.2467798
0.00058593989
-0.2468465
0.0006213178
-0.24691729
0.00065882798
-0.24699243
0.00069855263
-0.24707217
0.0007405497
-0.24715678
0.00078489197
-0.24724654
0.00083163875
-0.24734173
0.00088083095
-0.24744264
0.00093252381
-0.24754957
0.00098673255
-0.24766283
0.0010434882
-0.24778271
0.0011027731
-0.24790953
0.0011645832
-0.24804359
0.0012288556
-0.2481852
0.0012955378
-0.24833464
0.0013645081
-0.24849221
0.0014356417
-0.24865818
0.0015087539
-0.2488328
0.0015836219
-0.24901629
0.0016599709
-0.24920886
0.0017374697
-0.24941067
0.0018157277
-0.24962182
0.0018942831
-0.24984238
0.0019726034
-0.25007234
0.002050077
-0.25031163
0.0021260089
-0.25056008
0.002199615
-0.25081745
0.0022700235
-0.25108336
0.0023362637
-0.25135733
0.0023972736
-0.25163873
0.0024518972
-0.25192682
0.0024988886
-0.25222065
0.0025369172
-0.25251913
0.0025645824
-0.25282097
0.0025804162
-0.25312472
0.0025829109
-0.25342869
0.0025705353
-0.25373101
0.0025417626
-0.25402959
0.0024951008
-0.25432216
0.0024291284
-0.25460624
0.0023425396
-0.25487917
0.0022341787
-0.25513816
0.0021030985
-0.25538027
0.0019486043
-0.25560246
0.0017703054
-0.25580169
0.0015681629
-0.25597486
0.0013425371
-0.256119
0.0010942192
-0.25623122
0.00082446614
-0.25630884
0.00053501252
-0.25634946
0.00022807508
-0.256351
-9.3656535e-05
-0.25631178
-0.00042705307
-0.2562306
-0.00076863311
-0.25610674
-0.0011145996
-0.25594006
-0.0014609325
-0.25573097
-0.0018034875
-0.25548043
-0.0021381046
-0.25519
-0.0024607171
-0.25486173
-0.0027674623
-0.25449819
-0.0030547816
-0.25410234
-0.0033195099
-0.25367753
-0.0035589486
-0.25322737
-0.0037709172
-0.25275565
-0.0039537934
-0.25226631
-0.0041065089
-0.25176328
-0.0042285555
-0.25125049
-0.0043199508
-0.25073175
-0.0043811971
-0.2502107
-0.0044132275
-0.24969077
-0.0044173419
-0.24917515
-0.0043951492
-0.24866676
-0.0043484807
-0.24816822
-0.0042793414
-0.24768188
-0.0041898377
-0.24720977
-0.0040821215
-0.24675364
-0.0039583373
-0.24631499
-0.0038205868
-0.24589502
-0.0036708759
-0.24549474
-0.0035111027
-0.24511491
-0.0033430274
-0.24475611
-0.0031682591
-0.24441876
-0.0029882448
-0.24410313
-0.0028042715
-0.24380936
-0.0026174534
-0.2435375
-0.0024287484
-0.24328751
-0.0022389571
-0.24305929
-0.0020487332
-0.24285268
-0.001858592
-0.24266752
-0.0016689253
-0.24250361
-0.0014800054
-0.24236073
-0.0012920046
-0.2422387
-0.0011050034
-0.24213732
-0.00091900359
-0.24205643
-0.00073394107
-0.24199589
-0.00054969963
-0.24195559
-0.00036611354
-0.00018296845
-0.24594766
0.00022410652
-0.24596887
0.0002249141
-0.24599026
0.00022669685
-0.24601191
0.00022949862
-0.24603393
0.00023332439
-0.24605641
0.00023819264
-0.24607946
0.00024411796
-0.24610317
0.00025112665
-0.24612766
0.00025924093
-0.24615303
0.00026849516
-0.24617939
0.00027891917
-0.24620687
0.00029055551
-0.24623558
0.00030344161
-0.24626564
0.00031762826
-0.2462972
0.00033316037
-0.24633037
0.00035009705
-0.24636531
0.00036849046
-0.24640216
0.00038840784