/*--------------------------------*- C++ -*----------------------------------*\
| =========                 |                                                 |
| \\      /  F ield         | foam-extend: Open Source CFD                    |
|  \\    /   O peration     | Version:     4.1                                |
|   \\  /    A nd           | Web:         http://www.foam-extend.org         |
|    \\/     M anipulation  |                                                 |
\*---------------------------------------------------------------------------*/
FoamFile
{
    version     2.0;
    format      ascii;
    class       volScalarField;
    location    "1.45";
    object      p;
}
// * * * * * * * * * * * * * * * * * * * * * * * * * * * * * * * * * * * * * //

dimensions      [0 2 -2 0 0 0 0];

internalField   nonuniform List<scalar> 
4393
(
-46.418262
-92.981778
-146.74655
-201.5376
-258.52836
-318.02952
-380.42402
-446.02141
-515.04595
-587.6078
-663.6749
-743.04485
-825.31953
-909.88635
-995.91008
-1082.3381
-1167.9201
-1251.2383
-1330.746
-1404.8057
-1471.7262
-1529.797
-1577.3235
-1612.668
-1634.3029
-1640.8851
-1631.3602
-1605.1084
-1562.0227
-1502.6036
-1428.0621
-1340.3037
-1241.8229
-1135.5202
-1024.4762
-911.72548
-800.06751
-691.93493
-589.32487
-493.78551
-406.44428
-328.06225
-259.09998
-199.78331
-150.1736
-110.23987
-79.762791
-57.831847
-43.62755
-45.166098
-92.395957
-146.03396
-200.67379
-257.49543
-316.8418
-379.10946
-444.62004
-513.60965
-586.20048
-662.3721
-741.93217
-824.48962
-909.43434
-995.9279
-1082.9087
-1169.1126
-1253.1057
-1333.3242
-1408.1147
-1475.7714
-1534.5692
-1582.797
-1618.7951
-1641.0072
-1648.0565
-1638.8535
-1612.7034
-1569.4357
-1509.5437
-1434.2444
-1345.4781
-1245.805
-1138.2113
-1025.8676
-911.88836
-799.13327
-690.07159
-586.71485
-490.60787
-402.8624
-324.21693
-255.1094
-195.75281
-146.20005
-106.35977
-75.961132
-54.862197
-44.264025
-44.361859
-91.499204
-144.77568
-199.05473
-255.52554
-314.56067
-376.5788
-441.92382
-510.85498
-583.51818
-659.91582
-739.87517
-823.01853
-908.73963
-996.19209
-1084.2944
-1171.7529
-1257.0993
-1338.735
-1414.9747
-1484.084
-1544.3098
-1593.9088
-1631.1781
-1654.5009
-1662.4205
-1653.7587
-1627.7377
-1584.0952
-1523.2529
-1446.4217
-1355.6115
-1253.5189
-1143.3087
-1028.3376
-911.88342
-796.92583
-686.00454
-581.15519
-483.91006
-395.34327
-316.14171
-246.68944
-187.15584
-137.55031
-97.687478
-67.257369
-46.702443
-37.919915
-43.57114
-90.203458
-142.87196
-196.57249
-252.49928
-311.05349
-372.68262
-437.76256
-506.58732
-579.33933
-656.0568
-736.59845
-820.60866
-907.48868
-996.38099
-1086.1737
-1175.5276
-1262.921
-1346.7022
-1425.1384
-1496.4542
-1558.858
-1610.5619
-1649.8025
-1674.8746
-1684.1992
-1676.4519
-1650.7038
-1606.5446
-1544.289
-1465.1351
-1371.1988
-1265.3936
-1151.1691
-1032.1783
-911.95562
-793.66668
-679.95703
-572.89503
-473.98915
-384.25228
-304.29056
-234.40427
-174.68756
-125.07478
-85.290947
-55.021757
-34.933807
-26.789682
-42.746005
-88.586036
-140.40157
-193.29779
-248.47655
-306.36986
-367.4607
-432.16645
-500.82775
-573.67689
-650.80192
-732.10608
-817.26606
-905.69509
-996.5209
-1088.5888
-1180.4944
-1270.6401
-1357.3003
-1438.6788
-1512.9479
-1578.2698
-1632.804
-1674.7128
-1702.1779
-1713.4585
-1707.0288
-1681.7387
-1636.9526
-1572.8173
-1490.4973
-1392.2533
-1281.3113
-1161.5344
-1037.0023
-911.61289
-788.78855
-671.31331
-561.28981
-460.18257
-368.91116
-287.965
-217.52537
-157.57721
-107.95321
-68.296152
-38.299299
-18.682939
-10.92653
-41.737428
-86.536848
-137.25301
-189.11392
-243.3303
-300.36933
-360.75676
-424.96177
-493.3846
-566.32269
-643.93045
-726.17203
-812.76993
-903.15653
-996.44189
-1091.4139
-1186.579
-1280.2365
-1370.5622
-1455.6794
-1533.7
-1602.7365
-1660.8932
-1706.2488
-1736.8498
-1750.7502
-1746.1561
-1721.6148
-1676.1686
-1609.7094
-1523.3298
-1419.4769
-1301.8085
-1174.7655
-1043.0174
-910.95424
-782.33277
-660.10504
-546.39963
-442.60476
-349.50265
-267.41919
-196.37181
-136.19464
-86.586268
-47.089991
-17.368241
1.8958098
9.4346324
-40.595497
-84.127131
-133.49112
-184.07
-237.08783
-293.0529
-352.54148
-416.08533
-484.15843
-557.14053
-635.27192
-718.59787
-806.90473
-899.65499
-995.93919
-1094.4701
-1193.6347
-1291.5937
-1386.395
-1476.0636
-1558.6459
-1632.2095
-1694.8098
-1744.4431
-1779.0046
-1796.3009
-1794.1933
-1770.8246
-1724.786
-1655.5858
-1564.1759
-1453.2317
-1326.9984
-1190.7115
-1049.8409
-909.42553
-773.64306
-645.63618
-527.53669
-420.60826
-325.43808
-242.13212
-170.49372
-110.1645
-60.679366
-21.460234
7.9045752
26.824142
34.191407
-39.185995
-81.20551
-128.95638
-178.00152
-229.57693
-284.23721
-342.61676
-405.32117
-472.91355
-545.87553
-624.55641
-709.10785
-799.40423
-894.9546
-994.83009
-1097.6465
-1201.6303
-1304.7569
-1404.9084
-1499.992
-1587.9886
-1666.9345
-1734.8564
-1789.6809
-1829.1464
-1850.7722
-1851.9884
-1830.41
-1784.005
-1711.7088
-1614.2138
-1494.4629
-1357.497
-1209.6427
-1057.449
-906.79841
-762.38271
-627.5438
-504.37007
-393.92759
-296.52987
-211.99104
-139.84036
-79.480899
-30.252713
8.5661295
37.490631
56.044268
63.249024
-37.653436
-77.930897
-123.79681
-171.03277
-220.89013
-273.97539
-330.98861
-392.62094
-459.54148
-532.35634
-611.55174
-697.418
-789.9508
-888.73151
-992.8166
-1100.698
-1210.387
-1319.6099
-1426.0325
-1527.4226
-1621.703
-1706.9068
-1781.0683
-1842.0767
-1887.5227
-1914.6046
-1920.226
-1901.323
-1855.0117
-1779.3757
-1674.6452
-1544.0576
-1393.739
-1231.5238
-1065.4176
-902.39081
-747.74662
-605.01038
-476.14607
-361.91615
-262.25611
-176.59895
-104.12997
-43.96274
4.7918179
43.024146
71.375256
89.494583
96.517396
-35.748802
-74.004787
-117.69201
-162.83145
-210.68174
-261.90411
-317.2706
-377.56946
-443.59393
-516.10017
-595.74456
-682.99643
-778.01762
-880.50077
-989.49966
-1103.3486
-1219.7668
-1336.1393
-1449.8467
-1558.4918
-1659.9566
-1752.3182
-1833.68
-1901.9524
-1954.6108
-1988.5126
-1999.9349
-1984.9549
-1939.5399
-1860.5122
-1747.297
-1603.4215
-1436.5071
-1256.5005
-1073.3825
-895.5184
-728.91314
-577.21739
-442.13746
-323.98052
-222.16683
-135.63906
-63.159087
-3.4975976
44.497019
81.904852
109.50796
127.08937
133.89308
-33.798621
-69.8062
-111.02782
-153.76783
-199.2947
-248.32719
-301.71439
-360.35234
-425.17721
-497.12389
-577.05802
-665.67835
-763.3739
-870.00829
-984.65989
-1105.4658
-1229.7459
-1354.4133
-1476.467
-1593.3169
-1702.8398
-1803.2309
-1892.7558
-1969.4397
-2030.7073
-2073.0751
-2092.1034
-2082.7925
-2039.5853
-1957.4484
-1834.4238
-1674.247
-1486.6339
-1284.544
-1080.6571
-885.11568
-704.69025
-543.02705
-401.36464
-279.3418
-175.68544
-88.716126
-16.683388
42.039932
88.898928
125.17925
151.81174
168.71765
175.25042
-31.322715
-64.748313
-103.16391
-143.16701
-186.01782
-232.49032
-283.5133
-340.10028
-403.35008
-474.40891
-554.39839
-644.30943
-744.8407
-856.11824
-977.29882
-1106.2774
-1239.8193
-1374.1691
-1505.8011
-1631.8961
-1750.3822
-1859.6798
-1958.3487
-2044.6709
-2116.1353
-2168.9569
-2197.9195
-2196.6904
-2157.7323
-2073.3251
-1939.1479
-1758.8893
-1545.2547
-1315.6013
-1086.3273
-869.81815
-673.60645
-501.08654
-352.70746
-227.14554
-122.20815
-35.439317
35.518751
92.743418
137.99785
172.78129
198.1735
214.2355
220.43303
-28.935339
-59.574974
-94.898002
-131.84678
-171.67513
-215.21008
-263.45956
-317.56055
-378.79188
-448.54462
-528.24802
-619.25826
-722.68918
-839.064
-967.71645
-1106.2529
-1250.6592
-1396.215
-1538.6632
-1674.9216
-1803.0775
-1921.9449
-2030.569
-2127.6995
-2211.0797
-2276.7102
-2318.5362
-2328.6702
-2297.0933
-2212.1918
-2065.6516
-1860.4849
-1613.749
-1349.4066
-1089.0108
-847.73803
-633.73433
-449.70474
-294.8269
-166.41656
-61.081032
24.586399
93.646228
148.66976
191.75149
224.60105
248.43783
263.45948
269.24667
-25.834171
-53.293374
-85.133257
-118.63348
-155.00873
-195.1275
-240.07098
-291.10174
-349.69448
-417.5222
-496.38325
-588.08814
-694.30501
-816.1604
-953.35311
-1103.1784
-1260.5216
-1419.2468
-1574.0529
-1721.557
-1860.1742
-1989.3358
-2108.7966
-2218.0395
-2315.3457
-2396.6697
-2455.0966
-2481.0196
-2461.4973
-2379.4186
-2219.7578
-1983.4121
-1693.8844
-1385.4096
-1086.7042
-816.33219
-582.61574
-386.83295
-226.18323
-96.095413
8.3590654
91.723134
157.84514
209.81656
250.05882
280.47351
302.39898
316.16005
321.45284
-22.988259
-47.105569
-75.194177
-104.93097
-137.49247
-173.77988
-214.93895
-262.35435
-317.70613
-382.98353
-460.41834
-552.3698
-661.22055
-788.98762
-936.05501
-1099.4238
-1272.3858
-1446.6585
-1615.3973
-1774.8817
-1924.1577
-2063.6281
-2194.0743
-2316.113
-2429.0544
-2529.1504
-2608.6682
-2656.1729
-2655.5151
-2582.0931
-2409.6772
-2133.8907
-1787.8779
-1422.5325
-1076.4499
-772.138
-517.10606
-310.00193
-145.03238
-15.064153
86.749359
166.26607
228.18043
276.10045
312.74435
340.16768
359.79328
372.05566
376.76349
-19.23399
-39.566088
-63.483911
-89.028578
-117.2854
-149.16084
-185.84166
-228.8159
-279.96317
-341.61472
-416.50466
-507.64506
-618.31798
-751.84254
-909.86949
-1089.2871
-1281.1048
-1473.7722
-1658.1735
-1830.2913
-1990.3735
-2140.3272
-2282.2794
-2418.3709
-2549.5394
-2672.7611
-2779.4819
-2856.4144
-2884.4359
-2829.5599
-2647.2457
-2321.0867
-1898.5222
-1458.8314
-1053.8853
-710.4576
-433.22492
-216.29655
-49.466513
77.790087
174.63863
248.39219
304.59784
347.33065
379.54078
403.37557
420.29215
430.80802
434.83707
-15.909546
-32.367204
-51.889379
-72.946058
-96.527979
-123.52984
-155.16098
-192.99603
-239.10659
-296.19261
-367.5737
-457.02978
-568.92142
-708.39556
-879.33982
-1079.0094
-1295.0586
-1510.7432
-1713.4123
-1898.7621
-2069.1467
-2228.6982
-2381.1213
-2530.477
-2680.3852
-2829.6034
-2969.1763
-3084.3376
-3154.0985
-3134.0107
-2949.9597
-2559.1603
-2029.2973
-1490.9051
-1012.5341
-624.92419
-325.99117
-102.36295
62.503016
183.47705
272.40225
338.09648
386.88016
423.18084
450.07185
469.70233
483.49678
492.01924
495.27653
-11.483919
-23.591221
-38.294628
-54.438573
-72.848015
-94.363094
-120.16982
-151.87497
-191.68049
-242.61922
-308.6366
-394.36229
-505.33275
-649.10769
-833.418
-1057.1177
-1303.0121
-1546.0295
-1768.1204
-1964.9805
-2142.9738
-2309.8843
-2471.3076
-2633.6114
-2804.735
-2986.7697
-3170.3476
-3338.4978
-3469.9063
-3511.2586
-3344.1363
-2870.798
-2184.1428
-1512.8696
-942.7447
-506.96132
-189.29425
35.499047
192.78397
302.75102
380.12615
435.11341
474.59812
503.16055
523.83684
538.65875
548.93524
555.23136
557.62968
-7.5459404
-15.399223
-25.2143
-36.272543
-49.208193
-64.767974
-84.068821
-108.69873
-140.93275
-184.11061
-242.90305
-322.98217
-431.14877
-577.96523
-777.58681
-1033.2893
-1320.8798
-1601.287
-1847.8974
-2056.6833
-2241.3067
-2415.2338
-2585.4237
-2759.5245
-2951.477
-3168.7933
-3401.841
-3630.6648
-3839.9337
-3979.4502
-3868.0215
-3294.1299
-2367.8694
-1515.4531
-830.29294
-345.15929
-15.871603
201.09555
342.92685
435.89078
497.45866
538.8271
567.06034
586.5896
600.19929
609.65778
616.06305
619.9289
621.3925
-2.4940477
-5.6553796
-10.105248
-15.57376
-22.444906
-31.342289
-43.273748
-59.749259
-83.012866
-116.56735
-165.75592
-237.36395
-339.18003
-484.64125
-697.71857
-992.03901
-1333.7668
-1659.611
-1930.1025
-2142.1461
-2323.1194
-2495.6054
-2666.7925
-2843.1717
-3048.9943
-3303.1735
-3599.0872
-3914.1972
-4241.4067
-4553.2171
-4583.023
-3903.478
-2589.3108
-1483.2199
-653.43051
-124.34792
202.50777
397.84758
513.68392
582.3993
623.4337
648.17778
663.26898
672.58044
678.38283
682.01683
684.26842
685.54526
686.01581
2.9587983
3.9730192
4.5463094
4.3728366
3.3874138
1.1547729
-3.1200473
-10.723911
-23.652172
-45.260986
-81.374149
-140.13059
-230.27303
-367.38798
-589.87722
-934.91
-1357.8532
-1750.6928
-2054.8895
-2266.9246
-2439.8802
-2611.5585
-2788.5983
-2969.4134
-3193.9257
-3500.0123
-3883.2968
-4313.0918
-4763.9029
-5291.5198
-5573.8099
-4825.3573
-2837.3015
-1376.2415
-376.92534
174.90888
474.14957
627.83487
704.34054
740.62175
756.28081
761.57967
761.89167
760.03477
757.47786
754.96778
752.88277
751.47306
750.91553
8.2851236
13.265358
19.323586
25.158053
31.020755
36.678
41.595269
44.763263
44.510622
37.800069
18.452391
-23.53885
-98.146378
-220.10599
-443.9415
-853.46371
-1397.2815
-1876.4143
-2210.7425
-2392.879
-2530.4281
-2685.6831
-2862.7823
-3027.8146
-3238.6397
-3573.5313
-4023.7135
-4561.7457
-5089.7114
-5960.3606
-6823.7177
-6299.5141
-3074.0125
-1170.9511
36.507155
572.65537
805.01251
890.17411
911.79958
907.31771
893.25974
876.87585
861.26427
847.66171
836.46227
827.67598
821.1973
817.07872
815.4864
17.841154
25.859747
36.761814
47.719848
59.416761
71.801528
84.631715
97.258686
108.52254
116.23606
114.96681
93.71573
41.620422
-49.537867
-244.67487
-715.15072
-1441.8795
-2033.6095
-2413.3725
-2545.7118
-2643.0178
-2787.1987
-2982.1456
-3113.6794
-3276.6771
-3677.6985
-4224.3711
-4961.703
-5679.3052
-7242.8536
-8882.0922
-9068.3523
-3578.1294
-1038.219
635.19368
1099.0926
1197.3514
1178.98
1129.5279
1077.289
1030.588
991.36713
959.44172
934.02489
914.2391
899.26914
888.48532
881.7208
879.11883
22.150595
30.895293
46.136827
62.238343
80.171692
100.10846
122.29233
146.74807
173.26316
201.23877
227.4154
240.71497
225.96366
180.34607
45.409297
-483.2837
-1555.1582
-2311.4988
-2773.662
-2771.0085
-2749.6653
-2813.1447
-3022.6406
-3099.9054
-3207.1634
-3763.2631
-4232.9943
-5185.2216
-6470.8429
-7863.4473
-9589.1438
-12103.54
-4823.2653
-72.514509
1722.8312
1811.9832
1641.1427
1478.7606
1346.2301
1243.2039
1163.5577
1101.957
1054.3119
1017.6222
989.69091
968.87495
954.02936
944.77116
941.21787
36.937102
46.533295
66.460194
87.314136
110.74822
137.0776
166.90681
200.72109
238.86238
281.66297
327.57496
365.35538
371.82704
347.26684
293.74232
-191.10877
-1818.0777
-2617.1346
-3115.4958
-2772.7572
-2626.808
-2732.5425
-3131.7554
-3271.1272
-3302.4336
0
0
0
0
0
0
0
0
6202.3756
3402.4566
2582.4959
2068.239
1755.8599
1545.1257
1396.0889
1287.0019
1205.4555
1143.7783
1096.9956
1061.7474
1035.6646
1017.151
1005.6374
1001.223
35.366762
42.182798
64.028506
87.075209
113.20507
142.73991
176.57951
215.67685
261.07507
314.42491
377.59055
445.98975
502.80011
560.82644
710.68161
552.80523
-1996.7848
-2776.9621
-3646.9052
-2968.637
-3044.3358
-3012.3242
0
0
0
0
0
0
0
0
0
0
10129.575
6286.2541
4123.9552
3000.3248
2361.3134
1969.1786
1709.0497
1527.5637
1396.2864
1299.0432
1225.9929
1170.8559
1129.4575
1098.8972
1077.2402
1063.7845
1058.627
44.263814
54.950319
80.950149
106.97773
136.15458
169.03623
206.87595
251.10445
303.50644
367.08073
447.11694
546.08891
653.28926
754.39193
842.19678
568.47421
-3108.2253
-3581.5984
-3205.2804
0
0
0
0
0
0
0
0
0
0
0
1780.6722
3364.5947
5756.1169
5236.0901
3961.3828
3100.1689
2507.1435
2107.7406
1830.6548
1632.9925
1488.4303
1380.7314
1299.5702
1238.1941
1192.0519
1157.9581
1133.7812
1118.7541
1112.993
22.191639
42.166391
66.371111
91.28506
118.75257
149.54749
184.7435
225.50561
273.13275
329.83012
399.50025
478.02762
537.53068
536.24841
558.10811
702.38816
0
0
0
0
0
0
-1132.0672
-1103.5229
-1011.3051
-917.55576
-790.08463
-495.29849
-94.946911
697.08425
2026.4402
3361.911
4750.9877
4489.858
3714.8026
3058.6871
2552.6659
2182.2208
1911.4461
1711.662
1562.3552
1449.5325
1363.6929
1298.3455
1248.9839
1212.3859
1186.3709
1170.1784
1163.9667
19.95403
50.022247
74.970604
100.54398
127.96179
158.057
191.47991
228.6652
269.57227
313.41827
357.90004
396.56261
406.14952
338.0924
142.01833
-338.135
-1284.4168
-1227.4742
-1147.1011
-1100.4777
-1051.0806
-1021.6121
-1010.3635
-803.28871
-838.6817
-583.18129
-362.34464
-204.61695
259.0832
904.85498
1960.293
3049.3238
3956.5659
3851.8971
3404.2985
2933.5976
2528.4622
2206.0161
1956.7045
1765.4229
1618.5293
1505.3813
1418.1059
1351.0018
1299.9428
1261.8838
1234.7289
1217.789
1211.2844
20.663348
46.48547
72.120361
97.971918
125.28656
154.81535
187.13937
222.62522
261.2594
302.13445
342.03538
373.73602
384.81921
353.15885
205.21612
-227.92187
-792.30474
-920.95857
-962.54754
-966.15018
-887.80218
-842.31962
-818.54888
-691.79957
-620.94322
-417.53991
-179.14291
77.74331
510.88734
1096.4667
1896.1872
2721.5886
3334.8859
3356.8272
3105.6572
2777.1436
2463.3579
2193.8106
1973.5979
1797.6791
1658.5143
1548.9436
1463.0393
1396.1809
1344.844
1306.3182
1278.6984
1261.419
1254.7762
14.99661
36.230657
58.79709
81.291157
104.291
128.03568
152.5307
177.4162
201.79026
223.68947
238.89724
240.18152
218.24939
159.21488
15.075522
-283.91163
-606.90278
-732.46415
-784.51795
-794.28585
-753.12461
-703.47353
-642.23439
-537.76159
-423.88589
-238.2427
-11.49815
269.88424
668.60886
1187.7226
1823.2427
2450.8969
2889.5209
2967.0591
2834.9726
2613.0016
2376.1819
2157.6767
1969.1889
1812.3861
1684.4727
1581.3767
1499.0914
1434.1702
1383.8005
1345.7044
1318.2399
1301
1294.3632
23.838382
46.444943
70.18996
93.656274
117.54438
141.96118
166.72617
191.21071
214.09603
232.81546
242.6847
236.67036
205.98918
135.39803
-7.2589154
-236.55057
-460.15428
-579.80532
-635.3827
-644.54035
-615.83405
-568.29214
-497.28049
-394.45946
-264.34861
-82.932426
139.16146
416.1139
777.02703
1223.7725
1735.5106
2221.7459
2557.2305
2658.5606
2599.6231
2454.8467
2280.1783
2107.1233
1949.7502
1813.4694
1698.7947
1604.1114
1527.1067
1465.4581
1417.0856
1380.1851
1353.4184
1336.5539
1330.0517
12.024221
29.927756
50.032278
70.035868
90.041178
109.92743
129.38639
147.74718
163.76106
175.18306
178.31607
168.06198
137.63898
74.654763
-40.054701
-203.50724
-358.80676
-456.74707
-506.07857
-514.23312
-488.92956
-440.00506
-365.68872
-262.60035
-128.53805
46.964654
261.85494
525.19141
849.67475
1232.3378
1648.6367
2032.8062
2301.9493
2411.5837
2398.1281
2308.536
2183.16
2048.9515
1920.3873
1804.4659
1703.8316
1618.6756
1548.0646
1490.6667
1445.0909
1410.0056
1384.3874
1368.1819
1361.9238
21.407276
40.632472
60.854173
80.367839
99.453735
117.84363
135.02386
150.10197
161.62926
167.32398
163.94579
147.54894
113.08149
52.274052
-43.556523
-165.6149
-279.00297
-356.12436
-395.68959
-400.45626
-375.18696
-324.7251
-248.67357
-145.28221
-11.773727
156.79289
361.05957
606.0224
895.95221
1224.4164
1567.8668
1878.5081
2101.9975
2212.188
2227.1471
2176.7611
2089.8442
1988.0682
1885.1004
1788.3903
1701.7417
1626.5702
1562.9913
1510.4915
1468.2871
1435.4864
1411.3704
1396.0513
1390.1254
11.864154
27.968696
45.959826
63.61173
80.820661
97.232106
112.31687
125.2223
134.61741
138.50997
134.2252
118.55946
87.502683
35.680067
-40.001863
-130.43136
-213.52441
-271.83033
-300.84864
-300.62608
-273.46159
-221.63342
-145.03146
-42.510658
87.994669
248.90906
441.01417
666.30089
924.5746
1207.7348
1495.1774
1752.1628
1942.6286
2049.7644
2082.4758
2059.9386
2002.6787
1927.634
1846.8499
1767.6921
1694.4098
1629.1888
1572.8944
1525.6529
1487.189
1456.9993
1434.6436
1420.3811
1414.8543
17.140369
33.237358
50.220073
66.364874
81.714454
95.88689
108.32945
118.22237
124.38353
125.18592
118.61259
102.3628
73.691421
29.625816
-29.988494
-97.381786
-158.13612
-200.46176
-219.38453
-213.53401
-183.55732
-130.34274
-53.763856
46.960775
173.10598
325.77706
505.17539
711.2468
941.41874
1187.1586
1431.2318
1648.3118
1813.9326
1916.4944
1960.2191
1957.4984
1922.9616
1869.6957
1807.8371
1744.311
1683.4271
1627.7756
1578.7196
1536.8598
1502.3262
1474.9444
1454.518
1441.4283
1436.3469
11.965886
26.365753
42.104258
57.216697
71.53588
84.633902
95.955683
104.72802
109.89869
110.11377
103.80233
89.277
64.758642
28.907693
-17.019283
-66.703312
-110.24972
-139.2285
-148.99415
-137.55093
-104.54741
-50.079167
26.068384
124.39927
245.54632
389.78591
556.64775
744.78807
950.46913
1165.4738
1375.7039
1562.538
1708.9278
1806.4504
1856.8896
1868.2996
1851.1316
1815.4439
1769.569
1719.7253
1670.0964
1623.4074
1581.3254
1544.7836
1514.2215
1489.732
1471.3244
1459.4747
1454.8664
13.67253
27.359615
41.871729
55.550849
68.315844
79.771331
89.415617
96.581345
100.40741
99.849231
93.763882
81.007507
60.559893
32.098804
-2.5890468
-38.476248
-68.501359
-86.407326
-88.109668
-71.430865
-35.489189
20.054476
95.479805
191.07422
307.00172
442.97396
597.96343
769.86616
954.48617
1144.3023
1327.8974
1491.405
1622.6066
1715.1571
1769.5582
1791.0642
1787.1669
1765.5777
1733.0737
1695.0585
1655.464
1616.9949
1581.4715
1550.0427
1523.3739
1501.7679
1485.4005
1474.8156
1470.6918
11.353757
24.027871
37.645182
50.500653
62.432489
73.046926
81.880209
88.352217
91.76092
91.312905
86.206375
75.733046
59.446347
37.651392
12.276366
-12.652065
-31.89655
-40.644801
-35.40472
-14.037474
24.575845
80.988768
155.4989
248.21899
358.97892
487.10063
631.16302
788.66247
955.34943
1124.5379
1287.0003
1432.2486
1551.2808
1639.1815
1695.7802
1724.5058
1730.7506
1720.4248
1699.0138
1671.1274
1640.352
1609.2942
1579.8161
1553.1938
1530.2484
1511.4419
1497.0804
1487.7498
1484.1082
11.407424
23.296033
35.923532
47.754429
58.666298
68.305158
76.268618
82.076909
85.18278
85.010621
81.033529
72.876641
60.489411
44.522383
26.847571
10.721457
0.16277496
-1.0279791
10.105733
35.554282
76.49915
133.5739
207.05546
296.91525
402.74715
523.60956
657.83583
802.75952
954.29758
1106.601
1252.1849
1382.9759
1492.165
1575.8552
1633.5319
1667.4218
1681.4228
1680.0726
1667.8008
1648.5069
1625.3927
1600.919
1576.9183
1554.7275
1535.2684
1519.1192
1506.6851
1498.5709
1495.3991
10.343709
21.515248
33.418533
44.560617
54.805767
63.82955
71.285881
76.787195
79.923052
80.301877
77.620881
71.762974
62.951385
52.019827
40.712048
31.705129
28.182375
33.206753
49.281614
78.204745
121.12252
178.6683
251.07301
338.19368
439.45942
553.75857
679.2936
813.38295
952.21585
1090.7119
1222.7519
1342.0036
1443.1856
1523.1439
1581.1977
1618.7743
1638.7043
1644.4834
1639.6909
1627.6172
1611.0833
1592.3718
1573.252
1555.0727
1538.8135
1525.1355
1514.517
1507.5616
1504.8399
9.9406176
20.476395
31.67036
42.130087
51.740159
60.213418
67.259849
72.575335
75.865453
76.886943
75.510659
71.807754
66.178594
59.538521
53.481817
50.250327
52.432124
62.544363
82.715565
114.54332
159.08992
216.94438
288.27853
372.85726
469.9965
578.48262
696.46816
821.3422
949.60257
1076.839
1197.9931
1307.9988
1402.6589
1479.3704
1537.382
1577.5857
1602.0463
1613.4722
1614.7647
1608.7022
1597.7602
1584.0289
1569.1948
1554.5871
1541.2129
1529.7902
1520.8531
1514.9878
1512.694
9.3564997
19.364719
30.008372
39.956402
49.10196
57.191966
63.988408
69.261656
72.816141
74.529501
74.408235
72.661456
69.801974
66.770033
65.018363
66.459915
73.249847
87.495887
111.02154
145.23613
191.09872
249.13327
319.44892
401.73702
495.23751
598.68253
710.22691
827.37355
946.92421
1065.0324
1177.4576
1280.0609
1369.4257
1443.3605
1501.0946
1543.1587
1571.0672
1586.935
1593.1299
1592.0074
1585.7422
1576.2389
1565.0925
1553.5965
1542.7641
1533.3529
1525.9441
1521.0965
1519.211
8.9349372
18.485972
28.650131
38.160539
46.922922
54.715782
61.346678
66.648699
70.5065
72.892479
73.915424
73.882015
73.37321
73.323976
75.062426
80.252384
90.73026
108.29483
134.52503
170.66378
217.56559
275.68362
345.0671
425.34949
515.72135
614.89217
721.04911
831.82375
944.29422
1055.075
1160.551
1257.2645
1342.3655
1413.9712
1471.3169
1514.689
1545.2063
1564.5402
1574.6432
1577.5296
1575.1206
1569.1532
1561.1303
1552.3031
1543.6757
1536.0302
1529.9961
1526.108
1524.6267
8.549102
17.743472
27.539729
36.720679
45.201226
52.78822
59.328906
64.708845
68.877279
71.880165
73.902456
75.318589
76.749024
79.109965
83.625912
91.773287
105.15357
125.33345
153.69962
191.35504
239.05894
297.19738
365.76653
444.3554
532.12369
627.77757
729.55015
835.19794
942.03571
1047.044
1147.0796
1239.1831
1320.9152
1390.623
1447.5587
1491.8431
1524.3124
1546.3091
1559.4686
1565.535
1566.2226
1563.125
1557.6597
1551.0358
1544.2394
1538.067
1533.2135
1530.2285
1529.1737
8.1798088
17.102114
26.616429
35.549448
43.821775
51.264975
57.759068
63.231293
67.680563
71.207788
74.052868
76.636091
79.599729
83.837722
90.492686
100.90266
116.49824
138.67482
168.67246
207.48222
255.78312
313.90341
381.79523
459.01443
544.70226
637.57152
735.90303
837.56268
940.05645
1040.645
1136.533
1225.1193
1304.2588
1372.4665
1429.0144
1473.9126
1507.7988
1531.7778
1547.2495
1555.7525
1558.8392
1557.988
1554.5463
1549.6894
1544.3866
1539.4372
1535.6174
1533.5688
1533.0782
7.8074795
16.603292
25.940328
34.712544
42.847072
50.199445
56.676702
62.23815
66.919439
70.860987
74.340773
77.808898
81.918556
87.542656
95.761964
107.81633
125.01769
148.64103
179.82051
219.46377
268.188
326.27619
393.64694
469.83271
553.96452
644.76538
740.55788
839.29484
938.6261
1036.0152
1128.9115
1214.9618
1292.2234
1359.3292
1415.5688
1460.8805
1495.7674
1521.1694
1538.3197
1548.6083
1553.4686
1554.2924
1552.3727
1548.8594
1544.7059
1540.6827
1537.6145
1536.3941
1536.6793
7.3041743
16.167725
25.424226
34.111464
42.165286
49.465681
55.94047
61.571131
66.417418
70.644792
74.554562
78.613906
83.480253
90.010775
99.246337
112.36682
130.61059
155.174
187.12093
227.30357
276.29729
334.35425
401.37054
476.86371
559.95945
649.38972
743.50722
840.32432
937.58634
1032.8883
1123.8351
1208.2297
1284.2568
1350.6238
1406.6339
1452.1819
1487.6875
1513.9866
1532.2053
1543.6372
1549.6376
1551.5387
1550.5931
1547.9365
1544.516
1541.0476
1538.3511
1537.9204
1540.1136
6.0814739
15.835508
25.143225
33.822876
41.846012
49.124651
55.600838
61.268245
66.198935
70.570893
74.697181
79.053722
84.300818
91.290472
101.04833
114.71812
133.49055
158.52507
190.85568
231.30765
280.43549
338.47568
405.31282
480.45692
563.03111
651.77219
745.0486
840.90323
937.12976
1031.3889
1121.3629
1204.9317
1280.3428
1346.3411
1402.2369
1447.9049
1483.7243
1510.4803
1529.247
1541.2708
1547.8639
1550.3276
1549.9026
1547.7279
1544.7609
1541.6765
1539.2608
1539.7838
1545.626
-2227.758
-2483.6246
-2699.5387
-2881.4835
-3023.9673
-3106.2144
-3108.2253
-3029.2211
-2857.2784
-2664.003
-3205.3885
-3205.2804
-3198.435
-3187.4481
-3173.3338
-3160.581
-3148.7452
-3158.2119
-3158.814
-3131.4097
-3183.0308
-3181.9063
-3167.152
-3150.1887
-3133.2736
-3124.2828
-3105.9902
-3113.2073
-3100.0757
-3046.5496
-3137.8414
-3135.1793
-3126.5762
-3117.8804
-3109.0869
-3112.0991
-3101.0035
-3098.9709
-3085.5696
-3048.7077
-3078.1493
-3076.7147
-3072.1692
-3066.2518
-3057.7463
-3058.1464
-3057.812
-3057.1419
-3055.6634
-3059.4002
-3030.1686
-3029.3763
-3023.6155
-3013.4543
-2998.1993
-2968.637
-2990.801
-3003.1019
-3009.7475
-3023.0963
-3013.4124
-3015.1065
-3018.3582
-3021.7454
-3032.662
-3008.5361
-3008.2142
-3004.5869
-2989.6687
-2966.6807
-3027.9227
-3029.5535
-3035.6394
-3044.3358
-3068.3858
-3076.1023
-3056.7211
-3030.7036
-3000.8667
-2965.4628
-3848.4524
-3860.7647
-3831.7259
-3787.3163
-3749.7565
-3717.6914
-3696.1881
-3682.4619
-3673.522
-3675.2641
-2986.9811
-2985.789
-2977.908
-2960.953
-2921.5848
-2946.9457
-2958.9505
-2961.1432
-2950.6573
-2923.5504
-3009.2478
-3012.3242
-3018.6875
-3037.9308
-3013.9708
-3005.2503
-3001.2986
-2993.8831
-2979.893
-2964.7512
-3048.5063
-3050.9589
-3056.1368
-3080.726
-3093.4957
-3069.4235
-3042.6915
-3022.407
-3003.5381
-2987.0524
-2999.6591
-2995.8305
-2976.9416
-2951.6606
-2974.5976
-2992.0786
-3003.3177
-3010.7376
-3013.0007
-3020.0181
-3033.2648
-3035.7252
-3034.8617
-2997.9705
-3007.1038
-3020.7166
-3031.5168
-3038.7499
-3041.7993
-3051.364
-3156.8898
-3164.6838
-3188.9171
-3187.4463
-3159.5465
-3131.7554
-3111.062
-3095.6691
-3080.2517
-3063.0189
-3141.9776
-3137.1429
-3129.6592
-3149.8303
-3150.4242
-3144.6315
-3138.409
-3132.9739
-3126.9759
-3128.8782
-3162.7551
-3162.0345
-3137.75
-3147.9041
-3159.3498
-3167.4859
-3171.906
-3173.7098
-3173.0003
-3177.7017
-3277.1159
-3289.5191
-3285.4684
-3271.1272
-3255.8054
-3243.7646
-3235.033
-3229.2394
-3222.4241
-3213.8637
-3282.4885
-3286.56
-3294.0146
-3285.9367
-3276.2936
-3270.7936
-3270.5584
-3274.9996
-3280.0403
-3292.3427
-3186.3245
-3172.2145
-3189.5509
-3215.4278
-3244.9012
-3273.5981
-3300.572
-3325.1449
-3345.2977
-3370.2629
-3326.0528
-3302.4336
-3312.0411
-3332.3487
-3359.1121
-3384.36
-3406.8255
-3425.2568
-3437.7752
-3453.49
-3701.6745
-3692.6551
-3661.9564
-3627.8853
-3602.8064
-3583.3212
-3571.2311
-3564.0732
-3557.9582
-3555.0921
-3016.6782
-3015.1526
-3009.7376
-2998.1193
-2992.6333
-2999.8922
-2999.5293
-2994.1788
-2984.9465
-2983.9228
-3540.5379
-3549.1347
-3563.5689
-3610.8528
-3667.0283
-3718.8598
-3739.9421
-3721.8031
-3638.1024
-3466.2528
-3268.7581
-3268.9929
-3271.9424
-3276.8105
-3277.9212
-3277.0251
-3275.0638
-3269.9192
-3265.7615
-3219.2844
-3179.5257
-3227.5518
-3289.6663
-3394.3694
-3505.6947
-3592.5204
-3635.0761
-3595.2068
-3447.0635
-3214.6347
-3480.2765
-3490.3201
-3511.2508
-3547.95
-3581.5984
-3610.2579
-3618.829
-3618.3242
-3582.5462
-3470.1571
-3367.3449
-3371.7348
-3385.9144
-3409.8726
-3430.8335
-3448.4894
-3456.615
-3446.1961
-3433.5784
-3381.8269
11318.722
10715.547
10129.575
9489.9396
8832.8464
8179.5395
7545.1807
6936.7841
6347.3445
5770.3045
8301.8488
8224.5319
8101.2599
7839.6079
7501.7196
7111.2853
6689.6069
6254.5666
5816.3994
5360.0015
-3709.5004
-3727.936
-3745.3437
-3751.3101
-3759.9988
-3763.2631
-3768.0586
-3771.4944
-3772.8196
-3776.3112
-3705.8516
-3709.7028
-3745.0491
-3776.2798
-3815.3388
-3842.5105
-3866.4368
-3882.4668
-3891.1143
-3895.3022
-3946.5151
-3939.2797
-3955.5086
-3963.0856
-3991.4655
-4009.8453
-4029.6722
-4042.6484
-4048.0678
-4043.6179
-4222.4228
-4212.0679
-4226.3368
-4216.9232
-4232.9943
-4234.8762
-4241.3989
-4242.4475
-4238.8754
-4234.5143
-4544.8764
-4526.7367
-4538.4818
-4511.4467
-4515.2325
-4497.3856
-4484.9274
-4464.9004
-4437.2329
-4404.8723
-4901.1051
-4873.883
-4883.49
-4837.0688
-4828.6368
-4790.1478
-4757.3169
-4713.8949
-4659.2253
-4599.0143
-5281.8492
-5243.3989
-5252.039
-5185.2216
-5165.6715
-5107.5828
-5056.1874
-4992.7184
-4916.4631
-4831.1511
-5682.8598
-5630.7847
-5639.6095
-5550.5883
-5519.7715
-5441.5434
-5370.8771
-5288.4422
-5198.4683
-5115.9178
-6105.0437
-6035.9211
-6045.7702
-5931.7759
-5888.3053
-5787.8964
-5693.5289
-5583.5005
-5458.1873
-5322.5868
-6548.4999
-6458.4121
-6470.8429
-6329.1979
-6271.9437
-6149.059
-6030.896
-5896.7839
-5747.1778
-5585.4185
-7019.341
-6902.21
-6917.974
-6744.4913
-6670.345
-6522.7542
-6376.8528
-6214.6279
-6036.1365
-5850.2659
-7516.4398
-7366.2085
-7388.3259
-7179.8865
-7085.7235
-6911.663
-6733.8681
-6537.7857
-6319.1645
-6081.8844
-8058.1143
-7863.4473
-7892.3972
-7643.1902