/*--------------------------------*- C++ -*----------------------------------*\
| =========                 |                                                 |
| \\      /  F ield         | foam-extend: Open Source CFD                    |
|  \\    /   O peration     | Version:     4.1                                |
|   \\  /    A nd           | Web:         http://www.foam-extend.org         |
|    \\/     M anipulation  |                                                 |
\*---------------------------------------------------------------------------*/
FoamFile
{
    version     2.0;
    format      ascii;
    class       surfaceScalarField;
    location    "1.45";
    object      phi;
}
// * * * * * * * * * * * * * * * * * * * * * * * * * * * * * * * * * * * * * //

dimensions      [0 3 -1 0 0 0 0];

internalField   nonuniform List<scalar> 
8438
(
-0.59746138
0.0016708902
-0.59919756
0.0017361766
-0.60096863
0.0017710745
-0.60278361
0.0018149724
-0.60465223
0.001868628
-0.60658495
0.00193272
-0.60859117
0.0020062203
-0.61067852
0.0020873411
-0.6128521
0.0021735888
-0.61511388
0.0022617767
-0.6174619
0.0023480207
-0.61988968
0.0024277746
-0.62238561
0.0024959322
-0.62493263
0.002547019
-0.6275081
0.0025754677
-0.63008408
0.0025759821
-0.63262791
0.0025438349
-0.63510308
0.0024751681
-0.6374702
0.0023671222
-0.63968803
0.0022178281
-0.64171437
0.0020263332
-0.64350688
0.00179251
-0.64502392
0.0015170397
-0.64622545
0.0012015338
-0.6470743
0.00084884634
-0.64753789
0.00046359035
-0.64759041
5.2520101e-05
-0.64721444
-0.0003759686
-0.64640495
-0.00080948726
-0.64517338
-0.0012315673
-0.64354859
-0.0016247937
-0.6415766
-0.0019719928
-0.63931846
-0.0022581413
-0.63684619
-0.0024722681
-0.63423752
-0.0026086662
-0.63157039
-0.0026671346
-0.62891807
-0.0026523193
-0.6263456
-0.0025724661
-0.62390765
-0.0024379505
-0.62164775
-0.0022598987
-0.61959866
-0.0020490881
-0.61778347
-0.0018151939
-0.61621711
-0.0015663545
-0.61490803
-0.001309082
-0.6138593
-0.0010487332
-0.61306912
-0.00079017534
-0.61253382
-0.00053530295
-0.61225853
-0.00027528582
-1.3584534e-05
-0.61125366
0.0031340025
-0.61271014
0.0031926501
-0.61419374
0.0032546838
-0.61571775
0.0033389797
-0.61729461
0.0034454816
-0.61893551
0.0035736267
-0.62065032
0.0037210321
-0.62244701
0.0038840284
-0.62433104
0.0040576177
-0.62630469
0.0042354259
-0.62836634
0.0044096697
-0.63050978
0.004571212
-0.6327236
0.0047097589
-0.63499083
0.0048142412
-0.63728874
0.0048733786
-0.63958918
0.004876426
-0.64185915
0.0048138054
-0.64406171
0.0046777238
-0.64615702
0.0044624375
-0.64810342
0.004164222
-0.64985828
0.003781193
-0.65137886
0.003313091
-0.65262304
0.0027612249
-0.65355022
0.0021287071
-0.65412244
0.0014210726
-0.65430614
0.00064728596
-0.65407456
-0.00017906466
-0.6534118
-0.0010387235
-0.6523147
-0.001906585
-0.65079416
-0.0027521118
-0.64887819
-0.003540758
-0.64661252
-0.0042376635
-0.64405853
-0.0048121329
-0.64128907
-0.0052417344
-0.63838287
-0.0055148603
-0.6354188
-0.0056312077
-0.63247075
-0.0056003672
-0.62960401
-0.0054392034
-0.62687315
-0.0051688091
-0.62432137
-0.0048116805
-0.62198097
-0.0043894911
-0.61987458
-0.0039215862
-0.61801678
-0.003424154
-0.61641577
-0.0029100863
-0.61507488
-0.0023896243
-0.61399436
-0.0018706985
-0.61317371
-0.0013559525
-0.61260466
-0.00084432999
-0.00037344717
-0.61229809
0.0045470165
-0.61370937
0.0046039266
-0.61514546
0.0046907765
-0.61662132
0.0048148418
-0.61815025
0.0049744097
-0.61974405
0.0051674242
-0.62141305
0.005390036
-0.62316573
0.0056367081
-0.62500811
0.0058999976
-0.62694309
0.0061704035
-0.62896969
0.0064362734
-0.63108234
0.0066838547
-0.63327015
0.0068975692
-0.63551648
0.0070605802
-0.63779877
0.007155664
-0.64008873
0.0071663836
-0.64235303
0.0070781115
-0.64455432
0.006879009
-0.64665232
0.0065604324
-0.64860494
0.006116844
-0.65036921
0.0055454643
-0.65190198
0.0048458635
-0.65316057
0.0040198087
-0.65410345
0.0030715892
-0.65469133
0.0020089579
-0.65488877
0.00084472135
-0.65466656
-0.00040127054
-0.65400461
-0.0017006787
-0.65289541
-0.003015779
-0.65134789
-0.0042996371
-0.6493899
-0.0054987427
-0.64706889
-0.0065586784
-0.64444966
-0.0074313644
-0.6416096
-0.0080817895
-0.6386323
-0.0084921659
-0.6356009
-0.0086626066
-0.63259256
-0.0086087067
-0.62967453
-0.0083572288
-0.62690214
-0.007941205
-0.62431833
-0.0073954907
-0.62195448
-0.0067533372
-0.61983193
-0.0060441405
-0.6179638
-0.0052922835
-0.6163569
-0.0045169858
-0.61501361
-0.00373291
-0.6139341
-0.002950213
-0.61311663
-0.0021734166
-0.61255271
-0.0014082529
-0.00068120481
-0.61265474
0.0059306552
-0.61404565
0.0059948419
-0.61546203
0.0061071523
-0.61691881
0.0062716264
-0.61842977
0.0064853682
-0.62000741
0.0067450629
-0.62166284
0.0070454629
-0.62340537
0.0073792362
-0.62524193
0.007736564
-0.62717639
0.0081048554
-0.62920867
0.0084685613
-0.63133401
0.0088091901
-0.63354208
0.0091056352
-0.63581642
0.0093349224
-0.63813417
0.0094734209
-0.64046632
0.0094985248
-0.64277837
0.0093901705
-0.64503163
0.0091322613
-0.64718443
0.0087132302
-0.64919341
0.0081258336
-0.65101448
0.0073665252
-0.65260335
0.0064347343
-0.65391606
0.0053325243
-0.65490943
0.0040649579
-0.65554185
0.0026413774
-0.6557748
0.0010776688
-0.65557526
-0.00060081304
-0.65491906
-0.0023568787
-0.653795
-0.00413984
-0.65220942
-0.0058852125
-0.65018989
-0.0075182724
-0.64778645
-0.0089621196
-0.64506931
-0.010148502
-0.64212309
-0.011028007
-0.63903901
-0.011576245
-0.635907
-0.011794626
-0.63280921
-0.011706493
-0.62981588
-0.011350562
-0.62698335
-0.01077373
-0.6243541
-0.010024739
-0.621958
-0.0091494425
-0.61981429
-0.0081878462
-0.61793387
-0.0071727073
-0.61632142
-0.0061294312
-0.61497764
-0.0050766956
-0.61390108
-0.0040267698
-0.61308816
-0.0029863344
-0.61253349
-0.0019629217
-0.00096974706
-0.61307917
0.0072872388
-0.61444685
0.0073625257
-0.61584096
0.0075012566
-0.61727662
0.0077072907
-0.6187681
0.0079768487
-0.62032868
0.0083056466
-0.62197043
0.0086872045
-0.62370373
0.0091125398
-0.62553674
0.0095695765
-0.62747459
0.0100427
-0.62951847
0.01051244
-0.63166468
0.010955407
-0.63390368
0.011344636
-0.63621926
0.0116505
-0.63858814
0.011842299
-0.64098019
0.01189057
-0.64335928
0.011769263
-0.64568476
0.01145774
-0.64791306
0.01094153
-0.64999913
0.010211907
-0.65189742
0.0092648175
-0.65356235
0.008099662
-0.65494845
0.0067186259
-0.6560105
0.0051270076
-0.65670398
0.0033348514
-0.6569863
0.0013599967
-0.65681931
-0.00076780506
-0.65617306
-0.0030031319
-0.65503074
-0.0052821582
-0.65339466
-0.0075212912
-0.65129156
-0.0096213718
-0.64877501
-0.011478674
-0.64592294
-0.013000572
-0.6428304
-0.014120544
-0.6395996
-0.014807042
-0.63633004
-0.015064192
-0.6331108
-0.014925727
-0.63001602
-0.014445347
-0.62710318
-0.013686564
-0.62441381
-0.012714112
-0.62197544
-0.011587814
-0.61980431
-0.010358971
-0.61790816
-0.0090688642
-0.61628877
-0.0077488193
-0.6149444
-0.0064210686
-0.61387144
-0.0050997208
-0.61306499
-0.0037927935
-0.61252111
-0.0025067944
-0.0012460595
-0.6136163
0.0086115787
-0.61495431
0.0087005401
-0.6163201
0.0088670499
-0.61772898
0.0091161637
-0.61919576
0.0094436307
-0.62073463
0.0098445206
-0.62235879
0.010311365
-0.62408
0.010833749
-0.62590795
0.011397528
-0.62784944
0.011984181
-0.62990731
0.012570319
-0.63207939
0.01312748
-0.63435718
0.013622431
-0.6367249
0.014018216
-0.63915876
0.014276163
-0.64162718
0.014358987
-0.64409179
0.014233872
-0.64650931
0.013875265
-0.64883365
0.013265871
-0.65101762
0.012395877
-0.65301397
0.011261168
-0.65477567
0.0098613592
-0.65625563
0.0081985819
-0.65740629
0.0062776734
-0.6581796
0.0041081605
-0.65852784
0.0017082386
-0.65840608
-0.00088957178
-0.65777651
-0.0036327031
-0.65661437
-0.0064442991
-0.65491586
-0.0092197995
-0.65270597
-0.011831259
-0.65004273
-0.01414191
-0.64701469
-0.016028614
-0.64373141
-0.017403823
-0.64031027
-0.018228189
-0.63686368
-0.018510775
-0.6334898
-0.018299604
-0.6302675
-0.017667646
-0.62725529
-0.016698784
-0.62449289
-0.015476507
-0.6220044
-0.014076309
-0.6198018
-0.012561568
-0.61788848
-0.010982179
-0.61626228
-0.0093750209
-0.61491802
-0.0077653334
-0.61384925
-0.0061684898
-0.61304938
-0.0045926655
-0.61251413
-0.0030420392
-0.00151524
-0.61426923
0.0098999339
-0.61557164
0.010002946
-0.61690272
0.010198132
-0.61827848
0.010491927
-0.61971454
0.010879688
-0.62122613
0.011356114
-0.62282781
0.011913037
-0.62453296
0.012538907
-0.62635321
0.013217775
-0.62829744
0.013928412
-0.63037068
0.014643558
-0.63257271
0.01532951
-0.63489657
0.015946291
-0.63732711
0.016448755
-0.63984
0.016789053
-0.64240176
0.016920742
-0.64497104
0.016803152
-0.64750109
0.01640532
-0.64994254
0.01570732
-0.65224558
0.014698914
-0.6543611
0.013376685
-0.65624065
0.011740912
-0.65783562
0.0097935534
-0.65909607
0.0075381267
-0.65996994
0.0049820229
-0.66040328
0.0021415827
-0.66034255
-0.0009502995
-0.6597395
-0.004235751
-0.65855826
-0.0076255486
-0.65678589
-0.010992163
-0.65444399
-0.014173163
-0.65159594
-0.016989959
-0.64834458
-0.019279968
-0.64481937
-0.020929033
-0.64115823
-0.021889335
-0.63749066
-0.022178345
-0.63392621
-0.02186405
-0.63054922
-0.021044639
-0.62741867
-0.019829334
-0.62457132
-0.018323852
-0.6220263
-0.016621329
-0.61978988
-0.014797989
-0.6178598
-0.012912265
-0.6162288
-0.011006015
-0.6148874
-0.0091067364
-0.61382567
-0.00723022
-0.61303465
-0.0053836834
-0.6125083
-0.0035683863
-0.0017785916
-0.6150324
0.011143859
-0.61629195
0.01126249
-0.61758153
0.011487717
-0.61891758
0.011827973
-0.62031654
0.012278649
-0.62179484
0.012834418
-0.62336859
0.013486783
-0.62505312
0.014223441
-0.62686236
0.015027015
-0.62880781
0.01587386
-0.63089723
0.01673298
-0.63313302
0.017565297
-0.63551029
0.018323561
-0.63801492
0.018953381
-0.64062201
0.019396141
-0.64329565
0.019594391
-0.64599058
0.019498076
-0.64865542
0.019070165
-0.65123657
0.018288469
-0.65368108
0.017143422
-0.65593791
0.015633513
-0.65795748
0.013760482
-0.65969003
0.011526108
-0.66108348
0.0089315694
-0.66208148
0.0059800281
-0.66262288
0.002682981
-0.66264344
-0.00092973677
-0.66208131
-0.004797881
-0.66088534
-0.0088215258
-0.65902911
-0.012848387
-0.65652796
-0.016674318
-0.65345138
-0.020066534
-0.64992139
-0.022809957
-0.64609461
-0.024755811
-0.64213665
-0.025847304
-0.63819923
-0.026115762
-0.63440589
-0.025657384
-0.63084678
-0.024603755
-0.62758022
-0.023095897
-0.62463811
-0.021265958
-0.62203257
-0.01922687
-0.61976225
-0.017068309
-0.61781766
-0.014856851
-0.61618526
-0.012638417
-0.61485033
-0.010441663
-0.61379891
-0.0082816461
-0.61301911
-0.0061634851
-0.6125025
-0.0040849895
-0.0020362943
-0.6159069
0.012339964
-0.61711761
0.012473193
-0.61835881
0.012728917
-0.61964805
0.013117215
-0.62100283
0.013633427
-0.62244091
0.014272503
-0.62398016
0.015026035
-0.62563818
0.015881457
-0.62743163
0.016820467
-0.62937521
0.017817439
-0.63148013
0.018837901
-0.63375219
0.019837351
-0.63618935
0.020760723
-0.6387791
0.021543131
-0.64149606
0.022113105
-0.64430131
0.022399634
-0.64714432
0.02234109
-0.64996761
0.021893458
-0.6527121
0.021032957
-0.6553211
0.019752423
-0.65774175
0.018054165
-0.65992394
0.015942671
-0.66181758
0.013419745
-0.66336907
0.01048306
-0.66451793
0.0071288911
-0.66519487
0.0033599214
-0.66532272
-0.00080189143
-0.66482209
-0.0052985099
-0.66362104
-0.010022573
-0.66167334
-0.014796094
-0.65898328
-0.01936438
-0.65562679
-0.023423018
-0.65175167
-0.026685077
-0.64755193
-0.028955552
-0.64323052
-0.030168718
-0.63896791
-0.030378366
-0.63490437
-0.029720922
-0.63113559
-0.028372541
-0.6277172
-0.026514285
-0.62467351
-0.024309649
-0.62200688
-0.021893502
-0.619706
-0.01936919
-0.61775231
-0.016810533
-0.61612462
-0.014266114
-0.61480205
-0.011764227
-0.61376597
-0.00931773
-0.61300107
-0.0069283843
-0.61249625
-0.0045898126
-0.00228759
-0.6168861
0.013476315
-0.61803922
0.01362632
-0.61922429
0.013913983
-0.62045908
0.014352003
-0.62176201
0.014936356
-0.62315225
0.015662745
-0.6246496
0.016523384
-0.62627421
0.01750607
-0.62804598
0.01859224
-0.62998346
0.019754919
-0.63210216
0.020956601
-0.63441227
0.022147457
-0.63691567
0.023264123
-0.63960231
0.024229774
-0.64244661
0.024957402
-0.64540582
0.025358847
-0.64842246
0.025357726
-0.65143074
0.024901736
-0.65436438
0.023966603
-0.65716227
0.022550308
-0.65977003
0.020661928
-0.66213807
0.018310715
-0.66421736
0.015499028
-0.66595407
0.012219775
-0.66728421
0.0084590335
-0.66812976
0.0042054661
-0.66839826
-0.00053338787
-0.66798807
-0.0057086986
-0.6667993
-0.011211343
-0.66475673
-0.01683867
-0.66184574
-0.022275364
-0.65814798
-0.027120778
-0.65384618
-0.030986879
-0.64918646
-0.033615269
-0.64442247
-0.034932713
-0.63977165
-0.035029182
-0.63539364
-0.034098929
-0.63138833
-0.032377853
-0.62780526
-0.030097358
-0.62465716
-0.027457748
-0.62193305
-0.024617616
-0.61960877
-0.021693466
-0.61765463
-0.018764678
-0.61604033
-0.015880413
-0.61473799
-0.01306656
-0.61372376
-0.010331964
-0.61297856
-0.0076735855
-0.61248848
-0.0050798938
-0.0025311177
-0.617969
0.014552219
-0.61905906
0.014716379
-0.62018075
0.015035677
-0.6213533
0.015524548
-0.62259624
0.016179295
-0.62393022
0.016996733
-0.62537714
0.017970301
-0.62695999
0.019088917
-0.62870238
0.020334635
-0.63062747
0.021680002
-0.63275606
0.023085193
-0.63510399
0.024495388
-0.63767848
0.025838609
-0.64047325
0.027024551
-0.6434631
0.027947245
-0.6466006
0.028496349
-0.64981888
0.028576004
-0.65304081
0.02812367
-0.65619058
0.027116367
-0.65920178
0.025561506
-0.66201927
0.023479422
-0.66459569
0.020887133
-0.66688518
0.017788518
-0.66883583
0.014170429
-0.67038152
0.010004719
-0.67143527
0.005259222
-0.67188733
-8.1327234e-05
-0.6716079
-0.0059881309
-0.67045998
-0.012359267
-0.66832637
-0.01897228
-0.66516055
-0.025441178
-0.6610469
-0.031234434
-0.65621606
-0.035817719
-0.65098812
-0.038843201
-0.64568617
-0.040234671
-0.64057499
-0.040140355
-0.63583567
-0.038838251
-0.63156908
-0.036644443
-0.62781322
-0.033853222
-0.62456366
-0.030707301
-0.6217914
-0.027389877
-0.61945598
-0.024028881
-0.61751423
-0.020706436
-0.61592534
-0.017469303
-0.6146536
-0.014338292
-0.61366954
-0.011316027
-0.61295013
-0.0083929929
-0.61247868
-0.0055513445
-0.0027650015
-0.61915223
0.015550715
-0.62016836
0.015732508
-0.62121761
0.016084929
-0.62231885
0.016625781
-0.62349234
0.017352792
-0.62476016
0.018264546
-0.62614633
0.01935647
-0.62767696
0.020619553
-0.62937991
0.022037588
-0.63128377
0.023583859
-0.63341588
0.0252173
-0.6357993
0.026878808
-0.6384485
0.028487809
-0.641363
0.029939054
-0.64451912
0.03110336
-0.64786384
0.031841073
-0.65131751
0.032029673
-0.65478715
0.031593317
-0.6581839
0.030513114
-0.66143495
0.028812558
-0.66448555
0.026530021
-0.66729305
0.023694629
-0.66981783
0.020313302
-0.67201309
0.016365691
-0.67381318
0.011804807
-0.67512275
0.006568792
-0.67581142
0.00060733897
-0.6757164
-0.0060831476
-0.67465375
-0.01342192
-0.67244482
-0.021181212
-0.66898975
-0.028896246
-0.66436789
-0.035856288
-0.65887645
-0.041309168
-0.65294298
-0.04477667
-0.64698663
-0.046191016
-0.64133245
-0.045794538
-0.63618336
-0.043987334
-0.63163494
-0.041192866
-0.62770521
-0.037782954
-0.62436488
-0.034047633
-0.62156096
-0.030193794
-0.61923269
-0.026357155
-0.61732093
-0.022618197
-0.61577305
-0.019017183
-0.6145449
-0.015566437
-0.61360118
-0.012259744
-0.61291495
-0.0090792269
-0.61246687
-0.0059994215
-0.0029869242
-0.62042574
0.016475574
-0.62136356
0.016670325
-0.62233308
0.017054449
-0.62335475
0.01764745
-0.62444978
0.01844783
-0.62564161
0.019456368
-0.62695643
0.02067129
-0.62842364
0.022086767
-0.6300758
0.023689748
-0.63194781
0.025455871
-0.63407492
0.027344408
-0.63648931
0.029293198
-0.63921516
0.031213657
-0.64226064
0.032984536
-0.64560568
0.0344484
-0.64919077
0.035426161
-0.65291862
0.035757522
-0.65667369
0.035348385
-0.66034894
0.034188364
-0.6638639
0.032327523
-0.66716646
0.029832579
-0.67022269
0.026750857
-0.67300376
0.023094372
-0.67547274
0.018834669
-0.67756876
0.013900829
-0.67919017
0.0081901972
-0.68018447
0.0016016427
-0.68034908
-0.005918539
-0.6794394
-0.014331601
-0.67719051
-0.023430096
-0.67341468
-0.03267208
-0.66816873
-0.041102233
-0.66184326
-0.04763464
-0.65502663
-0.051593305
-0.64827232
-0.052945323
-0.64198106
-0.0520858
-0.63637445
-0.049593939
-0.63153135
-0.04603597
-0.62743714
-0.041877164
-0.62402719
-0.037457577
-0.62121724
-0.033003741
-0.61892169
-0.028652709
-0.61706304
-0.024476848
-0.61557576
-0.020504467
-0.61440697
-0.016735226
-0.61351566
-0.013151054
-0.61287123
-0.0097236541
-0.61245206
-0.0064185948
-0.0031941798
-0.62179322
0.017303787
-0.62263952
0.017516629
-0.6235189
0.017933822
-0.6244504
0.018578948
-0.6254554
0.019452837
-0.62655834
0.020559308
-0.62778745
0.021900395
-0.62917547
0.023474789
-0.63076006
0.025274343
-0.6325834
0.027279208
-0.63469026
0.029451266
-0.63712432
0.031727262
-0.63992277
0.034012102
-0.64310677
0.036168538
-0.64666383
0.038005455
-0.65052774
0.039290079
-0.65457701
0.039806793
-0.65866353
0.039434899
-0.66265449
0.03817933
-0.66646011
0.036133135
-0.67003441
0.033406882
-0.67335766
0.030074105
-0.67641727
0.026153983
-0.67919208
0.021609476
-0.68163221
0.016340967
-0.68363374
0.010191721
-0.68502131
0.0029892131
-0.68554609
-0.0053937607
-0.68488931
-0.014988375
-0.6826673
-0.025652102
-0.67854918
-0.036790207
-0.67253171
-0.047119704
-0.66513704
-0.055029302
-0.65720283
-0.05952752
-0.64947197
-0.060676178
-0.64243819
-0.059119579
-0.63633116
-0.055700975
-0.63119345
-0.051173683
-0.62695917
-0.046111436
-0.62351459
-0.040902157
-0.62073548
-0.035782858
-0.6185067
-0.030881488
-0.61673033
-0.026253213
-0.61532739
-0.021907413
-0.61423649
-0.017826125
-0.61341144
-0.013976103
-0.61281858
-0.010316513
-0.61243451
-0.0068026621
-0.0033837411
-0.62322134
0.018044353
-0.62397304
0.018268331
-0.62475498
0.018715761
-0.62558762
0.019411589
-0.62649269
0.020357904
-0.62749542
0.021562041
-0.62862588
0.023030855
-0.62992014
0.024769053
-0.63142127
0.026775471
-0.6331796
0.029037535
-0.63525123
0.031522894
-0.63769409
0.034170128
-0.64056233
0.036880336
-0.64389602
0.039502233
-0.64769675
0.041806189
-0.65189249
0.043485817
-0.65632753
0.044241825
-0.660805
0.04391237
-0.66515402
0.042528352
-0.66927294
0.040252048
-0.67312799
0.037261934
-0.67672223
0.033668346
-0.68006728
0.029499034
-0.68316659
0.024708787
-0.68599206
0.019166434
-0.68844601
0.012645668
-0.69033156
0.0048747686
-0.69134745
-0.0043778707
-0.69108719
-0.01524864
-0.68900864
-0.027730655
-0.68455104
-0.041247804
-0.67757317
-0.054097576
-0.6687801
-0.063822369
-0.65941277
-0.068894847
-0.65048212
-0.069606833
-0.64259145
-0.06701025
-0.63595343
-0.062338993
-0.63054202
-0.056585086
-0.62621336
-0.050440101
-0.62278704
-0.044328476
-0.6200892
-0.038480691
-0.61797086
-0.032999836
-0.61631239
-0.027911676
-0.61502168
-0.023198124
-0.61402979
-0.018818016
-0.61328641
-0.014719478
-0.6127558
-0.010847125
-0.61241355
-0.0071449101
-0.0035523451
-0.62474495
0.018668429
-0.62538755
0.018910929
-0.62606158
0.0193898
-0.6267846
0.020134605
-0.62757735
0.021150654
-0.62846509
0.022449779
-0.62947909
0.024044852
-0.63065828
0.025948248
-0.63205099
0.028168182
-0.63371628
0.030702824
-0.63572335
0.033529963
-0.63814754
0.036594319
-0.64106471
0.039797508
-0.64454207
0.042979591
-0.64860672
0.045870837
-0.65318555
0.048064653
-0.6580756
0.049131873
-0.66300716
0.048843932
-0.66775367
0.047274861
-0.67220007
0.044698451
-0.67633673
0.041398585
-0.68020315
0.037534773
-0.68384437
0.033140255
-0.68729697
0.028161385
-0.69056697
0.022436435
-0.69357374
0.01565244
-0.69610034
0.0074013623
-0.69778666
-0.0026915523
-0.69812805
-0.014907249
-0.69638698
-0.029471721
-0.69164541
-0.045989375
-0.68346705
-0.062275934
-0.67279773
-0.074491684
-0.6615641
-0.080128478
-0.65115436
-0.080016574
-0.64229057
-0.075874041
-0.63511611
-0.069513451
-0.62948433
-0.062216867
-0.62513627
-0.054788165
-0.62180374
-0.047660999
-0.61925351
-0.041030925
-0.61729964
-0.034953709
-0.61580114
-0.029410176
-0.61465436
-0.024344898
-0.61378474
-0.019687636
-0.6131396
-0.015364617
-0.6126825
-0.011304229
-0.61238907
-0.0074383446
-0.0036966109
-0.62627349
0.019189732
-0.62680476
0.019442189
-0.62736307
0.019948113
-0.6279665
0.020738036
-0.62863487
0.021819026
-0.62939301
0.023207918
-0.6302729
0.024924748
-0.631316
0.026991343
-0.6325758
0.029427984
-0.63412076
0.032247778
-0.63603537
0.035444581
-0.63841649
0.038975435
-0.64136751
0.042748528
-0.64499337
0.046605447
-0.6493653
0.050242769
-0.65442106
0.053120412
-0.65989118
0.054601991
-0.66539201
0.054344763
-0.67061051
0.052493356
-0.67541301
0.049500959
-0.67983096
0.045816528
-0.68395831
0.04166212
-0.68788175
0.037063699
-0.69167882
0.03195845
-0.69541037
0.02616799
-0.69903833
0.019280404
-0.70234002
0.010703051
-0.70489994
-0.00013163037
-0.70611043
-0.013696758
-0.70501564
-0.030566511
-0.70015466
-0.050850355
-0.69048353
-0.071947065
-0.67721513
-0.08776009
-0.66350883
-0.093834777
-0.65127317
-0.09225223
-0.64133451
-0.085812706
-0.63366442
-0.077183533
-0.62791452
-0.067966775
-0.6236615
-0.059041176
-0.62052599
-0.050796512
-0.61820739
-0.043349526
-0.61648259
-0.036678511
-0.61519198
-0.030700782
-0.61422387
-0.02531301
-0.61350118
-0.020410327
-0.61297137
-0.015894422
-0.61259917
-0.011676435
-0.61236153
-0.0076759883
-0.003813186
-0.6278998
0.019574182
-0.62830535
0.019847745
-0.62873915
0.02038191
-0.62921424
0.021213126
-0.62974776
0.022352545
-0.63036291
0.023823072
-0.63109122
0.025653054
-0.63197531
0.027875436
-0.6330725
0.030525167
-0.63445956
0.03363484
-0.63623694
0.037221966
-0.63852631
0.0412648
-0.64146378
0.045685998
-0.64520297
0.05034464
-0.64988737
0.05492717
-0.65549318
0.058726221
-0.66165979
0.060768598
-0.66782332
0.060508298
-0.67353926
0.058209296
-0.67865334
0.054615041
-0.68327614
0.050439321
-0.68759359
0.045979576
-0.69175039
0.041220498
-0.69587415
0.036082205
-0.70011182
0.030405661
-0.70450421
0.023672796
-0.70883493
0.015033775
-0.71259491
0.0036283452
-0.71507241
-0.011219259
-0.71512116
-0.030517758
-0.71052007
-0.055451449
-0.69904492
-0.083422205
-0.68203953
-0.10476548
-0.66500243
-0.11087188
-0.65052095
-0.10673371
-0.63945376
-0.096879893
-0.63140933
-0.085227964
-0.62571532
-0.073660788
-0.62172317
-0.063033321
-0.6189202
-0.05359948
-0.61693574
-0.045333984
-0.61551424
-0.038100018
-0.61448391
-0.031731105
-0.61373084
-0.026066078
-0.61318001
-0.020961158
-0.61278233
-0.016292107
-0.61250595
-0.01195281
-0.61233069
-0.0078512514
-0.0038989274
-0.62935312
0.019833666
-0.62962962
0.020124248
-0.62992932
0.020681614
-0.63026316
0.021546965
-0.63064492
0.022734311
-0.63109498
0.024273128
-0.63164291
0.026200987
-0.63233104
0.028563563
-0.63321905
0.031413178
-0.63439116
0.034806946
-0.63596511
0.038795922
-0.63809356
0.043393252
-0.64095427
0.048546706
-0.64476284
0.054153211
-0.64977841
0.059942736
-0.65607829
0.065026102
-0.6631836
0.067873907
-0.67023321
0.06755791
-0.67657706
0.064553142
-0.68203085
0.060068833
-0.68684567
0.055254145
-0.69135037
0.050484271
-0.69575046
0.045620591
-0.70019748
0.040529218
-0.70494652
0.035154699
-0.71016055
0.028886827
-0.71566161
0.020534844
-0.72085173
0.0088184571
-0.72494223
-0.0071287499
-0.72677496
-0.028685031
-0.72320877
-0.059017641
-0.70977655
-0.096854422
-0.68721683
-0.1273252
-0.66564073
-0.13244798
-0.64843052
-0.12394392
-0.63629259
-0.10901782
-0.62812924
-0.093391322
-0.62276704
-0.079022985
-0.61926546
-0.066534902
-0.61696571
-0.055899223
-0.61543502
-0.046864674
-0.61439807
-0.039136969
-0.61368234
-0.032446841
-0.61318029
-0.026568123
-0.61282501
-0.021316444
-0.61257486
-0.016542255
-0.61240408
-0.012123586
-0.61229698
-0.0079583568
-0.0039511037
-0.63050681
0.019930245
-0.63063408
0.020251519
-0.6307827
0.020830232
-0.63095704
0.021721306
-0.63116611
0.022943386
-0.63142645
0.024533468
-0.63176448
0.026539015
-0.63222052
0.029019605
-0.63285434
0.032046993
-0.63375419
0.035706794
-0.63505197
0.040093711
-0.63693312
0.0452744
-0.63962217
0.051235757
-0.64339827
0.057929312
-0.64868022
0.065224682
-0.65576594
0.072111827
-0.66403797
0.076145937
-0.67212051
0.075640451
-0.67905403
0.071486662
-0.68461043
0.065625229
-0.68930396
0.059947679
-0.69369653
0.054876831
-0.698068
0.049992069
-0.70254435
0.045005562
-0.7075666
0.040176952
-0.71355482
0.034875045
-0.72047018
0.027450209
-0.72770456
0.016052832
-0.7342546
-0.00057870061
-0.73917989
-0.023759744
-0.73830914
-0.059888392
-0.7234742
-0.11168936
-0.69246557
-0.15833383
-0.66468327
-0.16023028
-0.64429128
-0.14433591
-0.63138423
-0.12192486
-0.62357783
-0.10119773
-0.6189628
-0.08363801
-0.61625568
-0.069242018
-0.61466356
-0.05749135
-0.61371845
-0.047809776
-0.6131494
-0.039706023
-0.61280055
-0.032795694
-0.6125823
-0.026786375
-0.61244308
-0.021455659
-0.61235326
-0.016632071
-0.61229591
-0.012180944
-0.61226146
-0.0079928036
-0.0039676141
-0.6300932
0.019827041
-0.63004061
0.020198926
-0.63000589
0.02079552
-0.62998469
0.021700105
-0.62997903
0.022937721
-0.62999881
0.024553256
-0.63006331
0.026603516
-0.63020543
0.029161719
-0.63047806
0.032319628
-0.63096464
0.036193372
-0.63180139
0.040930464
-0.63320521
0.046678216
-0.63546154
0.053492088
-0.6389181
0.061385871
-0.64420033
0.070506911
-0.65207996
0.079991458
-0.66187221
0.085938192
-0.67125683
0.085025073
-0.67883414
0.079063964
-0.68426575
0.071056838
-0.68856181
0.06424374
-0.69266489
0.058979916
-0.69698071
0.054307882
-0.7014624
0.049487254
-0.7067997
0.045514256
-0.71382529
0.041900637
-0.72256991
0.036194822
-0.73259852
0.026081451
-0.74188581
0.0087085852
-0.75051152
-0.01513403
-0.75419874
-0.056201171
-0.74045569
-0.12543241
-0.69640323
-0.20238629
-0.66054323
-0.19609028
-0.63702633
-0.16785281
-0.62414758
-0.13480361
-0.6175127
-0.10783261
-0.61423594
-0.086914771
-0.61270235
-0.070775605
-0.61204613
-0.058147568
-0.61182026
-0.048035651
-0.61179654
-0.039729735
-0.61185943
-0.032732811
-0.61195103
-0.026694773
-0.61204308
-0.021363615
-0.61212243
-0.016552721
-0.61218355
-0.012119817
-0.61222453
-0.0079518216
-0.0039471978
-0.62619251
0.019494599
-0.62590341
0.019909823
-0.62561005
0.020502166
-0.62530594
0.021395994
-0.62498579
0.02261757
-0.62465087
0.02421834
-0.62431004
0.026262685
-0.62398461
0.028836286
-0.62371608
0.032051102
-0.62357778
0.03605507
-0.62370206
0.041054747
-0.62433396
0.047310119
-0.62584248
0.055000603
-0.62864381
0.0641872
-0.63352648
0.075389584
-0.64211293
0.088577909
-0.65396255
0.097787821
-0.66477597
0.09583849
-0.67265161
0.086939599
-0.67697088
0.075376111
-0.67981961
0.067092472
-0.6827384
0.061898703
-0.68636496
0.057934444
-0.69000777
0.053130067
-0.69448693
0.049993417
-0.70159312
0.049006833
-0.71114443
0.04574613
-0.72409251
0.039029533
-0.73555928
0.020175348
-0.74985114
-0.00084216111
-0.7624346
-0.043617714
-0.75914572
-0.12872129
-0.69457483
-0.26695718
-0.6507234
-0.23994171
-0.62529685
-0.19327937
-0.61395805
-0.14614241
-0.60976
-0.11203067
-0.60860763
-0.08806714
-0.6086826
-0.070700636
-0.60919092
-0.05763924
-0.60980201
-0.047424562
-0.61038385
-0.039147895
-0.61088912
-0.032227547
-0.61130601
-0.026277885
-0.6116369
-0.021032722
-0.61188899
-0.01630063
-0.61207017
-0.011938634
-0.61218722
-0.0078347753
-0.0038896187
-0.61275557
0.01867489
-0.61202484
0.019179089
-0.61127812
0.019755448
-0.61048852
0.020606397
-0.60963832
0.021767368
-0.60871545
0.023295472
-0.60771162
0.025258848
-0.60662618
0.027750849
-0.60547362
0.030898544
-0.60429331
0.034874755
-0.60317199
0.039933438
-0.60231789
0.046456016
-0.60214454
0.054827251
-0.60312347
0.065166131
-0.6059925
0.078258615
-0.61369167
0.096277081
-0.62745938
0.11155553
-0.63858977
0.10696889
-0.64534859
0.093698415
-0.64624822
0.076275744
-0.64565669
0.066500943
-0.64559824
0.061840253
-0.64723569
0.059571893
-0.64830471
0.054199087
-0.64946884
0.05115755
-0.65617104
0.055709033
-0.66608663
0.055661726
-0.68385884
0.056801743
-0.69889822
0.035214729
-0.72786571
0.028125327
-0.75026819
-0.021215233
-0.77321643
-0.10577305
-0.67714498
-0.36302862
-0.63075982
-0.28632688
-0.60621893
-0.21782025
-0.59991823
-0.15244311
-0.6002645
-0.1116844
-0.60224788
-0.086083758
-0.60437262
-0.068575893
-0.60623132
-0.055780546
-0.60775506
-0.045900821
-0.60897129
-0.037931668
-0.609928
-0.031270827
-0.61067117
-0.025534718
-0.61123892
-0.02046497
-0.61166103
-0.015878524
-0.6119598
-0.011639867
-0.61215112
-0.0076434496
-0.0037957905
-0.58472768
0.017433612
-0.58346036
0.017911764
-0.58209409
0.018389179
-0.58062472
0.019137029
-0.57902601
0.020168661
-0.57726708
0.021536541
-0.57531131
0.023303075
-0.57311887
0.025558416
-0.57065223
0.028431905
-0.56788422
0.032106741
-0.56481356
0.036862778
-0.56154762
0.043190072
-0.55852972
0.051809354
-0.55652745
0.063163868
-0.55614715
0.077878314
-0.5615253
0.10165523
-0.58044498
0.13047522
-0.59256345
0.11908735
-0.59881818
0.099953147
-0.59399809
0.071455654
-0.58775683
0.060259688
-0.5824386
0.056522022
-0.58160834
0.058741643
-0.57959586
0.052186607
-0.57399476
0.045556452
-0.58529058
0.032551438
-0.59572817
0.037484085
-0.60478278
0.040347961
-0.60352259
0.020488573
-0.63532477
0.039896087
-0.7143754
0.019783346
-0.66918779
-0.054709934
-0.60684457
-0.22706569
-0.57379976
-0.31937169
-0.57150827
-0.22011174
-0.58113687
-0.14281451
-0.58945237
-0.1033689
-0.59561864
-0.079917485
-0.60008657
-0.06410797
-0.60336091
-0.052506203
-0.60579626
-0.043465468
-0.60762937
-0.03609856
-0.6090186
-0.029881599
-0.61007178
-0.024481534
-0.61086357
-0.019673186
-0.61144609
-0.015296005
-0.61185566
-0.011230296
-0.61211694
-0.0073821669
-0.0036678263
-0.52670865
0.015028147
-0.52421865
0.015421769
-0.52157455
0.015745074
-0.51873386
0.016296336
-0.5156422
0.017077002
-0.51223176
0.018126108
-0.50841694
0.019488254
-0.50409274
0.02123421
-0.49913516
0.023474335
-0.49340666
0.026378237
-0.48676464
0.030220763
-0.47910559
0.035531019
-0.47062642
0.043330194
-0.46229262
0.054830069
-0.4544518
0.070037493
-0.44774863
0.094952065
-0.47090627
0.15363286
-0.47012591
0.11830699
-0.46107711
0.090904353
-0.42742008
0.037798627
-0.39590767
0.028747286
-0.36856506
0.029179409
-0.30406677
0.020993868
-0.1636302
0.013504231
-0.041512433
0.0078319595
0
0
0
0
0
0
0
0
0
0
0
0
0
0
-0.21955066