/*--------------------------------*- C++ -*----------------------------------*\
| =========                 |                                                 |
| \\      /  F ield         | foam-extend: Open Source CFD                    |
|  \\    /   O peration     | Version:     4.1                                |
|   \\  /    A nd           | Web:         http://www.foam-extend.org         |
|    \\/     M anipulation  |                                                 |
\*---------------------------------------------------------------------------*/
FoamFile
{
    version     2.0;
    format      ascii;
    class       volScalarField;
    location    "1.45";
    object      rAU;
}
// * * * * * * * * * * * * * * * * * * * * * * * * * * * * * * * * * * * * * //

dimensions      [0 0 1 0 0 0 0];

internalField   nonuniform List<scalar> 
4393
(
0.0002276393
0.00022726607
0.00022690061
0.0002265273
0.00022614404
0.00022574941
0.00022534102
0.00022491769
0.00022447855
0.00022402341
0.00022355286
0.00022306841
0.00022257254
0.00022206879
0.00022156153
0.00022105688
0.00022056065
0.00022007981
0.00021962199
0.00021919477
0.00021880589
0.00021846304
0.00021817371
0.0002179451
0.00021778387
0.00021769595
0.00021768601
0.00021768601
0.00021775733
0.00021791105
0.00021814532
0.00021845517
0.00021883241
0.00021926599
0.00021974265
0.00022024787
0.00022076682
0.00022128531
0.00022179053
0.00022227146
0.00022271913
0.0002231266
0.00022348881
0.00022380231
0.000224065
0.00022427588
0.00022443504
0.00022454299
0.00022458509
0.00022450755
0.00022418762
0.00022388263
0.00022356859
0.00022324275
0.00022290344
0.00022254846
0.00022217692
0.00022178842
0.00022138332
0.00022096289
0.00022052939
0.0002200862
0.00021963778
0.00021918943
0.00021874817
0.00021832059
0.00021791428
0.00021753733
0.00021719757
0.00021690287
0.0002166609
0.00021647911
0.00021636448
0.00021632336
0.00021636114
0.000216448
0.00021642094
0.00021646392
0.00021659058
0.00021680241
0.00021709789
0.00021747187
0.00021791561
0.0002184171
0.0002189621
0.0002195351
0.00022012062
0.00022070407
0.00022127254
0.00022181512
0.00022232312
0.00022278994
0.00022321083
0.00022358254
0.00022390295
0.00022417116
0.00022438868
0.00022454274
0.00022400295
0.00022369484
0.00022339526
0.00022308413
0.00022275872
0.00022241753
0.00022205855
0.0002216812
0.00022128548
0.00022087227
0.00022044347
0.00022000214
0.0002195525
0.0002191
0.00021865096
0.00021821339
0.00021779475
0.00021740339
0.00021704791
0.0002167365
0.00021647719
0.00021627774
0.00021614555
0.00021608756
0.00021610993
0.00021621773
0.00021630531
0.00021618604
0.00021614755
0.00021619687
0.00021633891
0.00021657536
0.00021690368
0.0002173167
0.00021780288
0.00021834734
0.00021893311
0.00021954273
0.00022015941
0.00022076809
0.00022135591
0.00022191253
0.00022243003
0.00022290265
0.00022332642
0.00022369869
0.00022401839
0.00022428561
0.00022448066
0.00022364817
0.00022334545
0.00022304579
0.00022273153
0.0002224002
0.0002220505
0.00022168058
0.00022129011
0.0002208794
0.0002204498
0.0002200038
0.00021954517
0.00021907907
0.00021861197
0.00021815133
0.00021770629
0.00021728543
0.00021689797
0.00021655324
0.0002162599
0.0002160263
0.00021586038
0.00021576969
0.00021576129
0.00021584146
0.00021601524
0.000216098
0.00021589269
0.00021576988
0.00021574013
0.00021581214
0.00021599115
0.00021627729
0.00021666484
0.00021714224
0.00021769338
0.00021829924
0.0002189398
0.00021959572
0.00022024955
0.00022088641
0.00022149436
0.00022206427
0.00022258956
0.00022306572
0.00022348993
0.00022386097
0.00022417788
0.00022442249
0.00022328682
0.00022298825
0.00022268892
0.00022237184
0.00022203474
0.00022167643
0.00022129519
0.00022089087
0.00022046405
0.00022001644
0.00021955108
0.00021907246
0.00021858663
0.00021810116
0.00021762475
0.00021716783
0.00021674022
0.00021635219
0.00021601386
0.0002157344
0.00021552251
0.00021538634
0.00021533367
0.00021537182
0.00021550742
0.00021574585
0.0002158346
0.00021553881
0.00021532771
0.0002152159
0.00021521647
0.00021533875
0.00021558586
0.00021595335
0.00021642921
0.00021699534
0.00021762986
0.00021830957
0.00021901205
0.00021971716
0.00022040795
0.00022107088
0.00022169576
0.00022227538
0.00022280493
0.00022328157
0.00022370398
0.00022407101
0.00022436682
0.00022290966
0.00022261578
0.00022231783
0.0002219989
0.0002216568
0.00022129043
0.0002208981
0.00022047977
0.0002200362
0.0002195694
0.00021908287
0.00021858178
0.00021807308
0.0002175655
0.00021706912
0.00021659585
0.00021615692
0.00021576382
0.00021542753
0.0002151578
0.00021496363
0.00021485339
0.00021483514
0.00021491662
0.00021510509
0.00021540672
0.0002155166
0.0002151245
0.0002148195
0.00021462082
0.00021454684
0.00021461182
0.00021482239
0.00021517533
0.00021565753
0.00021624799
0.00021692094
0.00021764911
0.00021840639
0.00021916965
0.00021991968
0.00022064148
0.00022132399
0.0002219596
0.00022254347
0.000223073
0.00022354707
0.00022396496
0.00022431261
0.00022251719
0.00022222868
0.00022193312
0.00022161334
0.00022126711
0.00022089327
0.00022049014
0.00022005765
0.00021959666
0.00021910938
0.00021859969
0.00021807337
0.00021753829
0.00021700441
0.00021648335
0.00021598876
0.00021553353
0.00021513057
0.00021479184
0.00021452762
0.00021434717
0.00021425903
0.0002142715
0.00021439292
0.00021463149
0.00021499465
0.00021514602
0.00021465034
0.00021424394
0.00021395154
0.00021379796
0.0002138037
0.0002139797
0.00021432401
0.00021482161
0.00021544735
0.00021617022
0.00021695778
0.00021777945
0.00021860871
0.00021942401
0.00022020898
0.00022095192
0.00022164511
0.00022228401
0.00022286647
0.00022339194
0.00022386053
0.0002242596
0.0002221114
0.00022182962
0.00022153764
0.00022121802
0.0002208685
0.00022048779
0.00022007409
0.00021962724
0.00021914805
0.00021863881
0.00021810366
0.00021754893
0.0002169834
0.00021641835
0.00021586718
0.00021534556
0.00021486843
0.00021445037
0.0002141044
0.00021384132
0.00021367046
0.00021360039
0.00021363963
0.00021379719
0.00021408255
0.00021450505
0.00021472444
0.00021411623
0.00021359876
0.00021320322
0.00021296254
0.00021290529
0.00021304806
0.00021339025
0.00021391385
0.0002145878
0.00021537411
0.00021623374
0.00021713075
0.00021803479
0.00021892194
0.00021977463
0.00022058086
0.00022133317
0.00022202766
0.00022266297
0.00022323939
0.00022375812
0.00022420775
0.00022169399
0.00022141979
0.00022113248
0.0002208141
0.0002204622
0.00022007531
0.00021965139
0.00021919005
0.00021869192
0.00021815921
0.00021759619
0.00021700962
0.00021640914
0.00021580747
0.00021522003
0.00021466499
0.00021415978
0.00021372101
0.00021336288
0.00021309656
0.00021293122
0.00021287517
0.00021293699
0.00021312643
0.00021345458
0.00021393338
0.00021425475
0.00021352325
0.00021288246
0.00021237126
0.00021203284
0.00021190661
0.00021201684
0.00021236445
0.00021292687
0.00021366473
0.00021453067
0.00021547724
0.0002164621
0.00021745065
0.00021841665
0.00021934168
0.00022021384
0.00022102644
0.00022177661
0.00022246416
0.00022309058
0.0002236583
0.00022415721
0.00022126698
0.00022100223
0.000220721
0.00022040505
0.00022005181
0.00021965951
0.00021922579
0.00021874989
0.00021823207
0.00021767429
0.00021708074
0.00021645846
0.0002158179
0.00021517328
0.00021454239
0.00021394646
0.0002134061
0.00021294041
0.00021256494
0.00021229098
0.00021212711
0.00021208096
0.00021216086
0.00021237723
0.00021274316
0.00021327397
0.00021374034
0.00021287279
0.00021209344
0.00021145015
0.00021099924
0.000210795
0.00021087251
0.00021123459
0.00021185178
0.0002126729
0.00021363801
0.00021468901
0.00021577596
0.00021685969
0.00021791189
0.00021891377
0.00021985418
0.00022072775
0.00022153316
0.00022227183
0.00022294675
0.0002235618
0.00022410825
0.00022083299
0.00022057829
0.00022030425
0.00021999192
0.00021963842
0.00021924162
0.0002187987
0.00021830834
0.00021777026
0.00021718589
0.00021655913
0.00021589707
0.00021521081
0.00021451615
0.00021383361
0.00021318826
0.00021260485
0.00021210569
0.00021170778
0.00021142215
0.00021125613
0.00021121595
0.00021130923
0.00021154691
0.00021194431
0.00021252107
0.00021318654
0.00021216804
0.00021123135
0.00021043461
0.00020985095
0.00020955541
0.00020959893
0.00020998684
0.00021067911
0.00021160777
0.00021269586
0.00021387185
0.00021507697
0.00021626736
0.00021741314
0.00021849598
0.00021950629
0.00022044074
0.0002213002
0.00022208813
0.00022280937
0.00022346948
0.00022406126
0.00022039301
0.00022015092
0.00021988584
0.00021957864
0.00021922629
0.00021882621
0.000218375
0.00021787064
0.00021731202
0.00021669976
0.00021603712
0.00021533096
0.00021459276
0.00021383984
0.00021309591
0.00021239093
0.00021175513
0.00021121506
0.0002107894
0.00021048829
0.00021031676
0.00021027871
0.00021038032
0.00021063263
0.00021105344
0.00021166767
0.00021249014
0.00021141357
0.00021029702
0.00020931937
0.00020857515
0.00020816893
0.00020817563
0.00020860416
0.00020939808
0.00021046515
0.00021170544
0.00021303062
0.0002143719
0.00021568101
0.00021692749
0.00021809462
0.00021917548
0.00022016973
0.00022108107
0.00022191552
0.00022268014
0.00022338236
0.00022401669
0.00021995223
0.00021972283
0.00021946776
0.00021916703
0.00021881718
0.0002184151
0.00021795665
0.00021743889
0.0002168596
0.00021621826
0.00021551706
0.00021476218
0.00021396512
0.00021314452
0.00021232772
0.00021155095
0.00021085198
0.00021026317
0.00020980512
0.00020948606
0.00020930713
0.00020926846
0.00020937374
0.00020963346
0.0002100678
0.00021070804
0.00021159421
0.00021061742
0.0002092939
0.00020810014
0.00020715722
0.00020661187
0.00020657654
0.00020706574
0.0002079968
0.00020924216
0.0002106707
0.00021217337
0.00021367057
0.00021511061
0.00021646406
0.00021771751
0.00021886818
0.00021991976
0.00022087961
0.00022175682
0.00022256098
0.00022330162
0.00022397507
0.00021950934
0.00021929598
0.00021905312
0.00021876081
0.00021841544
0.00021801334
0.00021754951
0.00021701989
0.00021642083
0.00021575018
0.00021500856
0.00021420086
0.00021333799
0.00021243942
0.00021153636
0.00021067316
0.00020989811
0.00020925175
0.00020875695
0.00020841841
0.00020823101
0.00020818916
0.00020829277
0.0002085509
0.0002089858
0.00020963606
0.00021055469
0.00020979134
0.00020822897
0.00020677454
0.00020558044
0.00020485379
0.00020476736
0.00020534551
0.0002064622
0.00020793798
0.0002095993
0.00021131227
0.00021298655
0.00021456912
0.0002160342
0.00021737406
0.00021859183
0.00021969657
0.0002207001
0.00022161509
0.00022245399
0.00022322854
0.00022393703
0.00021907512
0.00021887727
0.00021864765
0.00021836534
0.00021802625
0.00021762601
0.00021715863
0.00021661867
0.00021600071
0.00021530043
0.00021451617
0.00021365077
0.00021271367
0.00021172428
0.00021071764
0.00020974861
0.00020888057
0.00020816618
0.0002076312
0.00020727431
0.00020708049
0.00020703569
0.00020713442
0.00020738286
0.00020780413
0.00020844464
0.00020937317
0.0002089519
0.00020711445
0.00020534395
0.00020382663
0.00020285512
0.00020270182
0.00020341045
0.00020478037
0.00020655547
0.00020850451
0.00021046516
0.00021233816
0.00021407307
0.00021565174
0.00021707525
0.0002183549
0.00021950649
0.00022054716
0.00022149364
0.00022236139
0.0002231645
0.0002239032
0.00021864108
0.00021846272
0.00021824878
0.0002179787
0.00021764837
0.00021725279
0.0002167849
0.00021623768
0.00021560357
0.00021487553
0.00021404874
0.000213123
0.0002121051
0.00021101277
0.00020988393
0.00020878672
0.00020780656
0.0002070143
0.00020643933
0.00020606999
0.00020587542
0.00020582923
0.00020591884
0.00020614608
0.0002065332
0.00020713475
0.00020803902
0.00020812478
0.00020597079
0.00020381664
0.00020187773
0.00020056404
0.00020031543
0.00020121817
0.00020293746
0.00020510379
0.00020740785
0.00020965748
0.00021174962
0.00021364311
0.00021533312
0.00021683364
0.00021816668
0.00021935628
0.00022042564
0.00022139582
0.00022228545
0.00022311088
0.00022387426
0.00021823007
0.00021807005
0.00021787288
0.00021761711
0.0002172982
0.00021691041
0.00021644547
0.00021589453
0.00021524749
0.00021449382
0.00021362442
0.00021263465
0.00021152703
0.00021031512
0.00020903718
0.00020777741
0.00020665425
0.0002057672
0.00020515081
0.00020477667
0.00020458932
0.00020454528
0.00020462424
0.00020482247
0.00020515762
0.00020569053
0.00020653185
0.00020733856
0.0002048276
0.00020221306
0.00019972061
0.00019791341
0.00019751537
0.000198714
0.0002009217
0.00020360279
0.00020634294
0.00020892483
0.00021125235
0.00021330437
0.00021509731
0.00021666302
0.000218037
0.00021925285
0.00022034033
0.00022132496
0.00022222838
0.00022306907
0.00022385089
0.00021782153
0.00021768405
0.00021750603
0.00021726685
0.00021696213
0.00021658553
0.00021612755
0.00021557745
0.00021492231
0.00021414756
0.00021323867
0.00021218492
0.00021098283
0.00020963843
0.00020818493
0.00020672416
0.00020542456
0.00020443199
0.00020378781
0.00020343593
0.00020328076
0.00020325392
0.00020332704
0.00020348956
0.00020374713
0.00020416242
0.00020487314
0.00020604575
0.00020374474
0.00020058082
0.00019735995
0.00019482192
0.0001941653
0.00019582846
0.00019872807
0.00020209026
0.00020536128
0.00020831619
0.00021088623
0.00021308664
0.00021496543
0.00021657794
0.00021797572
0.00021920284
0.00022029572
0.00022128407
0.00022219219
0.00022304032
0.0002238337
0.00021747311
0.00021735648
0.00021719898
0.0002169793
0.00021669292
0.00021633288
0.00021588852
0.00021534709
0.00021469262
0.00021390581
0.00021296504
0.00021185093
0.00021055121
0.00020905983
0.00020739438
0.00020567082
0.00020413404
0.00020300813
0.00020234335
0.00020203926
0.00020193506
0.00020192789
0.00020198659
0.00020209953
0.00020225116
0.00020250001
0.00020301614
0.00020404634
0.00020278922
0.00019901204
0.00019485846
0.00019121968
0.00019006912
0.00019247783
0.000196367
0.00020063377
0.00020454046
0.00020789784
0.0002107006
0.00021302391
0.00021495986
0.00021659279
0.00021799202
0.00021921215
0.00022029564
0.00022127568
0.00022217855
0.00022302568
0.00022382324
0.00021720599
0.00021711459
0.00021698153
0.00021678586
0.00021652341
0.00021618664
0.00021576374
0.00021523998
0.00021459617
0.0002138079
0.00021284521
0.00021167726
0.00021028042
0.00020863331
0.00020672237
0.00020466233
0.00020281535
0.00020154492
0.00020090845
0.00020073557
0.00020075525
0.00020081636
0.00020089598
0.00020099536
0.00020105221
0.00020109734
0.00020132997
0.00020205949
0.00020233574
0.0001978337
0.0001924617
0.00018713407
0.00018496834
0.00018858159
0.00019389085
0.00019935362
0.00020399702
0.00020775775
0.00021075443
0.00021315296
0.00021510265
0.00021672048
0.00021809344
0.00021928523
0.00022034282
0.00022130154
0.00022218862
0.00022302592
0.00022381993
0.00021726587
0.00021720257
0.00021709996
0.00021693606
0.00021670706
0.00021640519
0.000216018
0.00021552942
0.00021491779
0.00021415418
0.00021319985
0.00021200894
0.00021054118
0.00020875608
0.00020658537
0.00020409411
0.00020181519
0.00020037827
0.00019982986
0.00019989874
0.00020012002
0.00020027557
0.00020036719
0.00020044829
0.00020036636
0.00020008964
0.00019987828
0.00020009721
0.00020118695
0.00019741084
0.00019066984
0.00018292537
0.00017862347
0.00018417309
0.00019147646
0.00019846039
0.00020390221
0.00020800853
0.00021111405
0.00021351014
0.00021541273
0.00021697058
0.00021828471
0.00021942442
0.00022043846
0.00022136235
0.0002222229
0.00022304143
0.00022382402
0.00021802486
0.00021799646
0.00021793885
0.00021782482
0.00021765061
0.00021740837
0.00021708558
0.00021666539
0.00021612403
0.00021542813
0.00021452914
0.0002133607
0.00021185542
0.00020995189
0.00020751037
0.00020444271
0.00020150882
0.00019991273
0.00019960721
0.00020019721
0.00020083504
0.00020121477
0.00020138473
0.00020157595
0.0002014934
0.00020092726
0.00020030775
0.00019985351
0.00020080183
0.00019977046
0.0001913044
0.00018002892
0.0001709565
0.00017966688
0.0001894878
0.00019827942
0.00020449531
0.00020878638
0.00021184685
0.00021412546
0.00021590205
0.00021734694
0.0002185664
0.00021962918
0.00022058185
0.00022145757
0.0002222811
0.00022307214
0.00022383556
0.00022067609
0.00022072464
0.0002207548
0.00022073453
0.000220662
0.00022053026
0.00022032801
0.00022003937
0.0002196406
0.00021909692
0.00021835452
0.00021732891
0.00021591745
0.00021403765
0.0002114887
0.0002078153
0.00020391858
0.00020240196
0.00020275354
0.00020452374
0.00020601974
0.00020691656
0.00020731688
0.00020796091
0.00020830236
0.00020731404
0.00020617558
0.00020431182
0.00020495089
0.00020348358
0.00019650457
0.00018118765
0.00016222875
0.00017631761
0.00018870617
0.00019950453
0.00020615566
0.000210252
0.00021300883
0.00021501319
0.00021657019
0.00021784505
0.00021893367
0.00021989552
0.00022077007
0.00022158525
0.00022236205
0.00022311746
0.00022385438
0.00022644507
0.00022658814
0.00022675063
0.00022687803
0.00022696812
0.000227016
0.00022701451
0.00022695283
0.00022681263
0.00022656427
0.00022615674
0.00022549226
0.00022440836
0.00022274106
0.0002202456
0.00021579595
0.00020960545
0.00020828919
0.00020951409
0.00021349763
0.00021645748
0.00021834628
0.0002189411
0.00022036547
0.00022205705
9.2995301e-05
9.543696e-05
9.7689216e-05
9.9875752e-05
0.0001028721
9.4459766e-05
8.6205516e-05
0.00010656776
0.00017934384
0.00019344175
0.00020413447
0.00020946084
0.00021254009
0.00021461019
0.00021615599
0.00021739806
0.00021844966
0.00021937544
0.00022021574
0.00022099794
0.00022174204
0.00022246373
0.00022317633
0.00022388004
0.00023929625
0.00023974299
0.00024024259
0.00024072713
0.00024120579
0.00024168267
0.00024216257
0.00024264922
0.00024314144
0.00024362844
0.00024407742
0.00024439552
0.00024436225
0.00024364295
0.00024202156
0.00023808531
0.00022685038
0.00022938493
0.00023547464
0.00025013311
0.00026129285
0.00027007504
0.00012827038
0.00016667978
0.00032188981
0.00046128968
0.00049956686
0.00049956686
0.00049956686
0.00049956686
0.00049956686
0.00045031569
0.000336505
6.8076497e-05
0.00021298307
0.00021346847
0.00021438515
0.00021549977
0.00021654102
0.00021748499
0.00021834313
0.00021913406
0.00021987458
0.00022057871
0.0002212582
0.0002219233
0.00022258331
0.00022324718
0.0002239119
0.00026438769
0.00026539361
0.00026654409
0.00026773674
0.00026899215
0.00027033491
0.0002717991
0.0002734277
0.00027527375
0.00027740463
0.00027990645
0.00028287595
0.00028641425
0.00029057472
0.00029520107
0.00030231947
0.00027348475
0.00030501842
0.00035649562
0.0003720531
0.00027904615
0.00032406723
0.00049956686
0.00049956686
0.00049956686
0.00049956686
0.00049956686
0.00049956686
0.00049956686
0.00049956686
0.00041262792
0.00041825933
0.00010203587
0.00026660646
0.00023114991
0.00022210441
0.00021928135
0.00021853997
0.00021855864
0.00021888551
0.00021934462
0.00021986315
0.00022040964
0.00022097082
0.00022154212
0.00022212346
0.00022271734
0.00022332806
0.00022394912
0.00030212101
0.00030425845
0.00030638269
0.00030857845
0.00031092037
0.00031348128
0.00031634719
0.00031963143
0.00032349344
0.00032817691
0.00033407796
0.00034177114
0.00035180088
0.00036480056
0.00038495153
0.00040161861
0.00025765033
0.00025319947
0.00026449795
0.00048935649
0.00047867533
0.00048822177
0.00047869835
0.00047372133
0.0004774647
0.00045865634
0.00045171717
0.00045351387
0.00044093246
0.00043651526
0.00010691374
0.00010766628
0.00021975983
0.00025235201
0.00023695588
0.00022741711
0.00022312132
0.00022122378
0.00022045348
0.00022024822
0.00022034121
0.00022060047
0.00022095794
0.00022137757
0.00022184025
0.00022233637
0.00022286196
0.00022341674
0.00022399067
0.00028849295
0.00028901215
0.00028920668
0.00028939934
0.00028959171
0.00028981547
0.00029009641
0.00029047121
0.00029099264
0.00029173808
0.00029282945
0.00029387918
0.00029483794
0.00029561048
0.00029298433
0.00010296694
0.00037625212
0.00047078548
0.00047277235
0.00049383493
0.00048613666
0.00048244933
0.00012420988
0.0001212788
0.00010076806
0.00010005105
0.0001006257
0.00010196921
0.00010292356
0.0001045176
0.00020120045
0.00020766724
0.00021806846
0.00023899975
0.0002396363
0.000230767
0.00022596268
0.0002234213
0.00022211209
0.00022149608
0.00022128314
0.0002213139
0.00022149846
0.00022178498
0.00022214326
0.00022255584
0.00022301318
0.00022351086
0.00022403547
0.00022323931
0.00022307514
0.00022279115
0.00022251667
0.00022225937
0.00022203633
0.00022186347
0.00022176407
0.0002217704
0.00022192728
0.00022229958
0.00022208394
0.00022115426
0.00021941051
0.00021672673
0.00021314621
9.5870275e-05
9.9104651e-05
9.9865806e-05
9.9770785e-05
0.00010014628
0.00010017295
0.00021253535
0.00021080897
0.00020892476
0.00020553842
0.0002044296
0.00020387278
0.00020210124
0.00020211864
0.00020329794
0.00020900226
0.00021822351
0.00023216218
0.00023801816
0.00023248658
0.0002278617
0.00022509329
0.00022347954
0.00022258224
0.00022213543
0.00022197849
0.00022201366
0.0002221808
0.0002224426
0.000222776
0.00022316709
0.00022360803
0.00022408238
0.00021927076
0.00021935077
0.00021947658
0.00021961125
0.000219766
0.00021995299
0.00022018478
0.00022047744
0.00022085028
0.0002213261
0.00022185461
0.00022155555
0.00022080173
0.00021956812
0.00021779686
0.0002149852
0.00021250895
0.00021402952
0.00021587802
0.00021420918
0.00021237638
0.00021121058
0.00021005398
0.00020833186
0.00020729782
0.00020568017
0.00020477372
0.00020419895
0.00020347264
0.00020394075
0.00020592379
0.00021087873
0.00021853725
0.00022809678
0.00023382111
0.00023318598
0.00022902434
0.00022628942
0.00022455146
0.00022348772
0.00022287817
0.00022257743
0.00022249043
0.00022255513
0.000222731
0.00022299164
0.00022332012
0.00022370599
0.00022413027
0.00021789717
0.00021797596
0.00021810014
0.00021823767
0.00021839144
0.00021856901
0.00021877892
0.00021903225
0.00021934152
0.00021972042
0.0002199661
0.00021947516
0.0002187185
0.00021764599
0.00021622075
0.00021438779
0.00021326033
0.00021411162
0.00021526602
0.00021348911
0.0002118962
0.00021067719
0.00020952062
0.00020830547
0.00020735052
0.00020629136
0.00020564076
0.00020527984
0.00020520507
0.00020608023
0.00020832303
0.00021261117
0.00021874926
0.00022560472
0.00023029067
0.00023231041
0.00022963052
0.00022708437
0.00022535037
0.0002242129
0.00022350387
0.00022310146
0.00022292013
0.00022290076
0.00022300273
0.00022319838
0.00022346911
0.00022380268
0.00022417812
0.00021721999
0.00021734003
0.00021747857
0.00021762835
0.00021779533
0.00021798597
0.00021820645
0.00021846428
0.00021876647
0.00021911843
0.00021920296
0.00021876082
0.00021811055
0.00021722206
0.00021607496
0.00021481785
0.00021419299
0.00021469685
0.00021503191
0.00021340531
0.0002120082
0.00021085644
0.00020979898
0.00020881738
0.00020799719
0.00020726147
0.00020684268
0.00020672759
0.00020702334
0.00020811591
0.00021032759
0.00021398412
0.00021886197
0.00022400079
0.00022785481
0.00023021112
0.00022984931
0.00022756214
0.00022591332
0.00022477082
0.00022401426
0.00022354757
0.0002232982
0.00022321299
0.00022325362
0.00022339283
0.00022361147
0.00022389633
0.000224225
0.00021693049
0.00021700243
0.00021711724
0.00021725118
0.00021740235
0.00021757428
0.00021777079
0.00021799676
0.00021825609
0.00021855025
0.00021851225
0.00021812368
0.00021759229
0.00021690643
0.00021607863
0.00021528614
0.00021497401
0.00021536267
0.00021498886
0.00021358841
0.0002123634
0.00021131708
0.0002103837
0.00020956326
0.00020888882
0.00020837054
0.00020812956
0.00020820227
0.00020870569
0.0002098809
0.00021194578
0.00021504304
0.00021894314
0.00022293568
0.00022613178
0.00022829695
0.00022929867
0.00022779636
0.00022628079
0.00022518097
0.00022441708
0.00022391741
0.00022362339
0.00022348942
0.00022348101
0.0002235725
0.00022374517
0.00022398548
0.00022427011
0.00021678784
0.00021689982
0.00021702423
0.00021715872
0.00021730734
0.00021747316
0.00021765788
0.00021786337
0.0002180897
0.00021833369
0.00021823909
0.0002178912
0.00021743995
0.00021688998
0.00021628134
0.00021577282
0.00021563137
0.00021595788
0.00021504197
0.00021385316
0.0002127903
0.00021186449
0.00021105541
0.00021037063
0.00020983308
0.0002094753
0.00020937259
0.00020957751
0.00021019145
0.00021137044
0.00021325039
0.00021587586
0.00021903547
0.00022222652
0.00022490152
0.00022685051
0.00022808453
0.00022785287
0.00022649235
0.00022546548
0.00022472355
0.00022421579
0.00022389696
0.00022372951
0.00022368354
0.00022373583
0.00022386875
0.00022406901
0.00022431282
0.00021671397
0.00021678297
0.00021688827
0.00021701043
0.00021714695
0.00021729895
0.00021746663
0.00021765019
0.00021784774
0.00021805381
0.00021795902
0.00021767455
0.00021731946
0.00021690685
0.00021648504
0.00021617884
0.00021615291
0.00021617494
0.00021513446
0.00021413381
0.00021322289
0.00021242145
0.00021173203
0.00021116797
0.00021075203
0.00021051975
0.00021052556
0.00021082207
0.00021148934
0.00021262903
0.00021431919
0.00021655355
0.00021915094
0.00022175826
0.00022401762
0.00022575473
0.00022694396
0.00022750423
0.00022658222
0.00022564611
0.00022494635
0.00022444943
0.00022412195
0.00022393413
0.00022386094
0.00022388202
0.00022398129
0.00022414611
0.00022435265
0.00021666034
0.00021675089
0.00021685666
0.0002169717
0.00021709761
0.00021723535
0.00021738405
0.00021754253
0.00021770746
0.00021787208
0.00021778843
0.00021755113
0.00021726944
0.00021696226
0.00021667729
0.00021650803
0.00021655969
0.0002161031
0.00021524817
0.00021441198
0.0002136413
0.00021296113
0.0002123853
0.00021193114
0.00021162211
0.00021149142
0.00021158197
0.00021194006
0.00021262581
0.00021370436
0.00021521524
0.00021712794
0.00021929357
0.00022146174
0.00022338689
0.00022492873
0.00022604732
0.00022677268
0.00022658056
0.00022574314
0.00022509835
0.00022462596
0.0002243025
0.00022410522
0.0002240138
0.00022401092
0.0002240823
0.00022421628
0.00022438926
0.00021662768
0.00021669334
0.0002167873
0.00021689365
0.0002170102
0.00021713665
0.00021727113
0.00021741146
0.0002175533
0.00021768918
0.00021764033
0.00021745284
0.00021723956
0.00021702159
0.00021684167
0.00021676935
0.00021670508
0.00021608276
0.00021538064
0.0002146873
0.00021404418
0.00021347811
0.00021300813
0.00021265377
0.00021243829
0.00021239124
0.00021254752
0.00021294524
0.00021362796
0.00021463588
0.00021598414
0.0002176327
0.00021946173
0.00022129057
0.00022294428
0.00022431113
0.00022534784
0.00022606402
0.00022637873
0.0002257741
0.00022519169
0.00022475324
0.00022444336
0.00022424538
0.00022414334
0.0002241229
0.00022417173
0.00022427928
0.00022442247
0.00021660343
0.00021667493
0.0002167644
0.00021686199
0.00021696735
0.00021708013
0.00021719801
0.00021731835
0.00021743647
0.00021754503
0.00021753073
0.00021738481
0.00021722756
0.00021707995
0.00021697824
0.00021694673
0.00021663868
0.0002161044
0.00021553023
0.00021496118
0.00021443309
0.00021397232
0.00021359973
0.00021333544
0.00021320161
0.00021322396
0.00021343098
0.00021385272
0.00021451968
0.00021545505
0.00021665926
0.00021809049
0.0002196531
0.00022121412
0.00022264513
0.00022385737
0.00022480927
0.00022549906
0.00022595103
0.00022575428
0.00022523746
0.00022483888
0.00022454947
0.00022435762
0.00022425122
0.00022421875
0.0002242498
0.00022433508
0.00022445217
0.00021659206
0.00021665129
0.00021673301
0.00021682322
0.00021691999
0.00021702235
0.00021712755
0.00021723261
0.00021733279
0.0002174211
0.00021744245
0.00021733371
0.00021722363
0.00021713184
0.00021708847
0.00021696347
0.00021659556
0.00021616072
0.0002156952
0.00021523467
0.00021480971
0.00021444495
0.0002141611
0.00021397773
0.00021391518
0.00021399551
0.00021424173
0.00021467674
0.00021532108
0.00021618644
0.00021726487
0.00021851659
0.00021986526
0.00022121107
0.0002224575
0.00022353385
0.00022440249
0.00022505569
0.00022550715
0.00022566362
0.00022524538
0.00022489
0.00022462574
0.00022444513
0.00022433939
0.00022429953
0.00022431701
0.00022438385
0.0002244784
0.00021658793
0.00021664577
0.00021672194
0.00021680442
0.00021689187
0.00021698329
0.00021707583
0.00021716648
0.00021725071
0.00021732219
0.0002173627
0.00021729518
0.00021722334
0.00021717479
0.00021710984
0.00021689543
0.00021659487
0.00021624471
0.00021587271
0.0002155074
0.00021517472
0.00021489695
0.00021469353
0.00021458269
0.00021458257
0.00021471176
0.00021498853
0.00021542979
0.00021604855
0.0002168489
0.00021781847
0.00021892115
0.00022009574
0.00022126592
0.00022235779
0.00022331482
0.00022410401
0.00022471493
0.00022515455
0.00022544102
0.00022522383
0.00022491301
0.00022467685
0.00022451115
0.00022440994
0.00022436649
0.00022437404
0.00022442587
0.00022450124
0.0002165923
0.0002166437
0.0002167141
0.00021679012
0.00021686992
0.00021695235
0.0002170345
0.00021711349
0.00021718514
0.00021724392
0.00021728277
0.00021726448
0.00021722325
0.00021717366
0.00021705803
0.00021686842
0.00021662724
0.00021635045
0.00021605987
0.00021577859
0.00021552854
0.00021532939
0.00021519875
0.00021515302
0.00021520794
0.00021537887
0.00021567998
0.00021612323
0.00021671609
0.00021745765
0.00021833358
0.00021931186
0.00022034311
0.00022136804
0.00022232918
0.00022318115
0.00022389563
0.00022446142
0.00022488137
0.00022516804
0.00022518013
0.00022491374
0.00022470719
0.00022455884
0.00022446503
0.00022442101
0.00022442165
0.00022446154
0.00022452083
0.00021660259
0.00021665078
0.00021671624
0.00021678604
0.00021685852
0.00021693255
0.00021700534
0.00021707424
0.00021713556
0.00021718459
0.00021721557
0.00021722141
0.00021719566
0.00021713191
0.00021702397
0.00021687289
0.00021668465
0.00021647228
0.00021625336
0.00021604672
0.00021587087
0.00021574284
0.00021567817
0.00021569113
0.00021579505
0.00021600228
0.00021632343
0.00021676647
0.00021733476
0.00021802419
0.00021881984
0.00021969371
0.00022060563
0.00022150891
0.00022235831
0.00022311733
0.00022376201
0.00022428156
0.00022467644
0.00022495542
0.00022509727
0.00022489711
0.00022472069
0.00022459116
0.00022450677
0.0002244645
0.0002244607
0.00022449127
0.00022453735
0.00021661827
0.00021666252
0.00021672354
0.00021678802
0.00021685422
0.00021692108
0.00021698598
0.00021704658
0.00021709973
0.00021714157
0.00021716757
0.00021717271
0.00021715189
0.0002171007
0.00021701653
0.00021690129
0.00021676064
0.00021660547
0.00021645021
0.00021631037
0.00021620147
0.00021613807
0.00021613347
0.00021619979
0.00021634794
0.00021658751
0.00021692602
0.00021736821
0.00021791436
0.00021855834
0.00021928544
0.00022007125
0.00022088286
0.00022168305
0.00022243594
0.00022311213
0.00022369167
0.00022416481
0.00022453084