/*--------------------------------*- C++ -*----------------------------------*\
| =========                 |                                                 |
| \\      /  F ield         | foam-extend: Open Source CFD                    |
|  \\    /   O peration     | Version:     4.1                                |
|   \\  /    A nd           | Web:         http://www.foam-extend.org         |
|    \\/     M anipulation  |                                                 |
\*---------------------------------------------------------------------------*/
FoamFile
{
    version     2.0;
    format      ascii;
    class       volVectorField;
    location    "1.45";
    object      U;
}
// * * * * * * * * * * * * * * * * * * * * * * * * * * * * * * * * * * * * * //

dimensions      [0 1 -1 0 0 0 0];

internalField   nonuniform List<vector> 
4393
(
(146.05454 -0.15628091 0)
(146.60228 -0.16271389 0)
(147.01594 -0.16572649 0)
(147.4565 -0.16937532 0)
(147.90688 -0.17378117 0)
(148.37199 -0.17902971 0)
(148.85405 -0.18504302 0)
(149.3552 -0.19167515 0)
(149.87706 -0.1987208 0)
(150.42052 -0.20591737 0)
(150.98564 -0.21294512 0)
(151.57141 -0.21943037 0)
(152.17563 -0.22495423 0)
(152.79481 -0.22906844 0)
(153.42406 -0.23131835 0)
(154.05714 -0.23127075 0)
(154.68658 -0.22854142 0)
(155.30384 -0.22281654 0)
(155.89956 -0.21386376 0)
(156.46382 -0.20153241 0)
(156.98633 -0.18574668 0)
(157.45669 -0.16649793 0)
(157.86455 -0.14384244 0)
(158.19984 -0.11790991 0)
(158.45298 -0.088926005 0)
(158.61527 -0.057246008 0)
(158.67937 -0.023376625 0)
(158.64009 0.012014869 0)
(158.49408 0.047853851 0)
(158.24219 0.082725107 0)
(157.88938 0.1151818 0)
(157.44499 0.14381262 0)
(156.92237 0.16738884 0)
(156.33816 0.1850174 0)
(155.71102 0.19623951 0)
(155.06031 0.20105038 0)
(154.40476 0.1998453 0)
(153.76144 0.19331696 0)
(153.14505 0.18233441 0)
(152.5676 0.16782948 0)
(152.03836 0.1507066 0)
(151.56409 0.13178148 0)
(151.14934 0.11174801 0)
(150.79688 0.091179714 0)
(150.50807 0.070580707 0)
(150.28335 0.050409344 0)
(150.12215 0.030820568 0)
(150.02089 0.011712228 0)
(149.97388 -0.0031752065 0)
(149.4776 -0.39426677 0)
(149.94614 -0.40521315 0)
(150.29175 -0.41330724 0)
(150.66108 -0.42384295 0)
(151.04005 -0.43693605 0)
(151.43364 -0.4526229 0)
(151.84423 -0.47063404 0)
(152.27406 -0.49052493 0)
(152.72481 -0.51168427 0)
(153.19749 -0.5333323 0)
(153.69221 -0.55451866 0)
(154.20806 -0.57413025 0)
(154.74289 -0.59091586 0)
(155.29324 -0.60353249 0)
(155.85422 -0.6106138 0)
(156.41957 -0.61085408 0)
(156.98173 -0.60309241 0)
(157.53208 -0.58637855 0)
(158.06114 -0.56000738 0)
(158.55887 -0.52352009 0)
(159.0149 -0.47668397 0)
(159.41872 -0.41946984 0)
(159.75989 -0.3520473 0)
(160.02819 -0.27481403 0)
(160.21389 -0.18846989 0)
(160.30809 -0.094132843 0)
(160.30322 0.0065484606 0)
(160.19367 0.11133106 0)
(159.9773 0.21713681 0)
(159.65482 0.32015283 0)
(159.23096 0.41618277 0)
(158.7149 0.50103008 0)
(158.12002 0.57100327 0)
(157.4631 0.62339424 0)
(156.76306 0.65678335 0)
(156.03949 0.67110265 0)
(155.31133 0.66747608 0)
(154.59575 0.6479128 0)
(153.90745 0.61494592 0)
(153.2584 0.57129342 0)
(152.65775 0.51958794 0)
(152.11214 0.4621913 0)
(151.62603 0.40109108 0)
(151.20211 0.33789001 0)
(150.8418 0.27390639 0)
(150.54541 0.21019853 0)
(150.31211 0.1470547 0)
(150.14083 0.084312352 0)
(150.03531 0.028565015 0)
(149.74277 -0.62831235 0)
(150.19613 -0.63748069 0)
(150.5308 -0.64962096 0)
(150.88829 -0.66660125 0)
(151.25546 -0.68827086 0)
(151.63738 -0.71440844 0)
(152.03656 -0.7445056 0)
(152.45535 -0.77780506 0)
(152.89558 -0.81328649 0)
(153.35838 -0.84965049 0)
(153.84403 -0.88530959 0)
(154.35178 -0.91839804 0)
(154.87963 -0.94681095 0)
(155.42423 -0.96828137 0)
(155.98075 -0.98049744 0)
(156.54292 -0.98124834 0)
(157.10313 -0.96857219 0)
(157.65266 -0.94087154 0)
(158.18191 -0.89697139 0)
(158.68075 -0.83611626 0)
(159.13872 -0.75792775 0)
(159.54523 -0.66235756 0)
(159.88971 -0.54967295 0)
(160.16179 -0.42050355 0)
(160.35145 -0.27596878 0)
(160.44937 -0.11788916 0)
(160.44748 0.050963094 0)
(160.33955 0.22670284 0)
(160.12193 0.40427096 0)
(159.79466 0.5774255 0)
(159.36224 0.73906547 0)
(158.83404 0.88199229 0)
(158.22411 0.99984673 0)
(157.55026 1.0879741 0)
(156.8326 1.1439674 0)
(156.09189 1.1677691 0)
(155.34798 1.161374 0)
(154.61868 1.1282778 0)
(153.91903 1.0728403 0)
(153.26102 0.99969715 0)
(152.65365 0.91329965 0)
(152.10328 0.81760481 0)
(151.61399 0.71590918 0)
(151.18819 0.61082281 0)
(150.82697 0.50436306 0)
(150.53021 0.39795782 0)
(150.29664 0.29212031 0)
(150.12699 0.18715117 0)
(150.02927 0.08738789 0)
(149.83526 -0.85691427 0)
(150.28069 -0.86668086 0)
(150.61076 -0.88291622 0)
(150.96344 -0.90644257 0)
(151.32603 -0.93687229 0)
(151.70373 -0.97375603 0)
(152.09921 -1.0163526 0)
(152.51504 -1.0636073 0)
(152.95325 -1.1141094 0)
(153.41522 -1.1660562 0)
(153.90145 -1.2172312 0)
(154.41142 -1.2650111 0)
(154.9433 -1.3064154 0)
(155.49383 -1.3382132 0)
(156.05817 -1.3570926 0)
(156.62993 -1.359878 0)
(157.20124 -1.3437544 0)
(157.76306 -1.3064429 0)
(158.30547 -1.2462843 0)
(158.818 -1.1622256 0)
(159.2899 -1.0537413 0)
(159.71031 -0.92074751 0)
(160.0684 -0.76356489 0)
(160.35345 -0.58297508 0)
(160.55494 -0.38039979 0)
(160.6629 -0.15820983 0)
(160.66838 0.079884833 0)
(160.56416 0.32851847 0)
(160.34557 0.58047279 0)
(160.01183 0.82672669 0)
(159.56704 1.0569343 0)
(159.02086 1.2605127 0)
(158.3884 1.4280758 0)
(157.6891 1.5527843 0)
(156.94495 1.6311818 0)
(156.17852 1.6633284 0)
(155.41115 1.6523122 0)
(154.66161 1.6033869 0)
(153.9454 1.5230018 0)
(153.27455 1.4179303 0)
(152.65779 1.2946052 0)
(152.10101 1.1586903 0)
(151.60775 1.0148679 0)
(151.17989 0.86681266 0)
(150.81804 0.71728336 0)
(150.52152 0.56816178 0)
(150.28874 0.42047453 0)
(150.12118 0.27527174 0)
(150.02714 0.13498936 0)
(149.94423 -1.0800257 0)
(150.38158 -1.091335 0)
(150.70632 -1.1117855 0)
(151.05362 -1.1419747 0)
(151.4112 -1.1813442 0)
(151.78436 -1.2292558 0)
(152.176 -1.2847486 0)
(152.58895 -1.3464808 0)
(153.02552 -1.4126588 0)
(153.48739 -1.4809774 0)
(153.9754 -1.5485803 0)
(154.48929 -1.6120587 0)
(155.02751 -1.6675069 0)
(155.58691 -1.7106577 0)
(156.16264 -1.7371103 0)
(156.74809 -1.7426349 0)
(157.33507 -1.7234941 0)
(157.91407 -1.6766957 0)
(158.47467 -1.6001056 0)
(159.00598 -1.4924116 0)
(159.49687 -1.3529868 0)
(159.93615 -1.181741 0)
(160.31268 -0.97904287 0)
(160.61532 -0.7457775 0)
(160.83296 -0.48358067 0)
(160.95476 -0.19526163 0)
(160.97062 0.11464283 0)
(160.87197 0.43939019 0)
(160.65259 0.76967767 0)
(160.31046 1.0935263 0)
(159.84901 1.3969172 0)
(159.27826 1.6653054 0)
(158.61477 1.885719 0)
(157.88035 2.0487651 0)
(157.09973 2.1498486 0)
(156.29807 2.1893161 0)
(155.49874 2.1716852 0)
(154.72183 2.1043584 0)
(153.98341 1.9962314 0)
(153.2955 1.8564841 0)
(152.66638 1.6936943 0)
(152.10125 1.5152944 0)
(151.60289 1.3273292 0)
(151.17241 1.1344432 0)
(150.80974 0.93999544 0)
(150.51358 0.74617968 0)
(150.28212 0.55429022 0)
(150.11703 0.3655198 0)
(150.02585 0.1811458 0)
(150.08179 -1.3006096 0)
(150.50917 -1.3139527 0)
(150.82708 -1.3388043 0)
(151.16756 -1.3758776 0)
(151.51878 -1.4245097 0)
(151.88618 -1.4839308 0)
(152.27293 -1.5529991 0)
(152.68215 -1.6301194 0)
(153.11651 -1.7131434 0)
(153.5781 -1.7992808 0)
(154.06818 -1.8850349 0)
(154.58689 -1.9661847 0)
(155.13301 -2.0378387 0)
(155.70358 -2.0945954 0)
(156.29375 -2.1308362 0)
(156.89666 -2.1411394 0)
(157.50363 -2.1207314 0)
(158.10453 -2.0658436 0)
(158.6883 -1.9738621 0)
(159.24347 -1.8432501 0)
(159.75844 -1.6733201 0)
(160.2217 -1.4639867 0)
(160.62173 -1.2156206 0)
(160.94694 -0.92909315 0)
(161.18556 -0.60606928 0)
(161.32562 -0.24956916 0)
(161.35557 0.13525777 0)
(161.265 0.54037959 0)
(161.0456 0.95432042 0)
(160.69346 1.3618583 0)
(160.21098 1.7446979 0)
(159.60852 2.0834972 0)
(158.90463 2.3608794 0)
(158.12437 2.5643708 0)
(157.29629 2.6881414 0)
(156.44908 2.7331183 0)
(155.60884 2.7057825 0)
(154.79731 2.6162899 0)
(154.03121 2.4765287 0)
(153.32239 2.2985055 0)
(152.67845 2.0932199 0)
(152.10358 1.8700222 0)
(151.59951 1.6363667 0)
(151.16631 1.3978418 0)
(150.80296 1.1583431 0)
(150.50741 0.92029833 0)
(150.27741 0.68504557 0)
(150.11441 0.45342031 0)
(150.02513 0.22561595 0)
(150.2486 -1.5121399 0)
(150.66444 -1.5278125 0)
(150.97401 -1.5573338 0)
(151.30609 -1.601626 0)
(151.64943 -1.6599527 0)
(152.00964 -1.7314558 0)
(152.39019 -1.8148523 0)
(152.79457 -1.9083317 0)
(153.22589 -2.0094247 0)
(153.68674 -2.1148781 0)
(154.17892 -2.2205571 0)
(154.70309 -2.3213989 0)
(155.25848 -2.4114549 0)
(155.84244 -2.4840675 0)
(156.45011 -2.5322355 0)
(157.07432 -2.549166 0)
(157.70575 -2.5289059 0)
(158.33345 -2.4668467 0)
(158.94551 -2.3599225 0)
(159.52972 -2.2064636 0)
(160.07396 -2.0058272 0)
(160.56635 -1.7579981 0)
(160.99506 -1.4633356 0)
(161.34807 -1.1225821 0)
(161.61285 -0.73721198 0)
(161.7762 -0.31015642 0)
(161.82467 0.1531407 0)
(161.74554 0.64361778 0)
(161.52758 1.1477334 0)
(161.16422 1.6467077 0)
(160.65614 2.1171674 0)
(160.01397 2.5337827 0)
(159.25888 2.8735685 0)
(158.42039 3.1201968 0)
(157.53225 3.2664715 0)
(156.6279 3.3143291 0)
(155.73692 3.2729592 0)
(154.88307 3.1560781 0)
(154.08371 2.9792595 0)
(153.35029 2.7578339 0)
(152.68936 2.5055169 0)
(152.10378 2.2337024 0)
(151.59382 1.9512609 0)
(151.15824 1.664663 0)
(150.79484 1.378263 0)
(150.50066 1.0946568 0)
(150.27278 0.81513887 0)
(150.11211 0.54014847 0)
(150.02455 0.26909927 0)
(150.444 -1.7222336 0)
(150.84576 -1.7402516 0)
(151.14537 -1.7744623 0)
(151.46741 -1.8260792 0)
(151.80126 -1.8943418 0)
(152.15276 -1.9783597 0)
(152.52569 -2.0767654 0)
(152.92398 -2.1875917 0)
(153.35126 -2.3081025 0)
(153.81074 -2.4346236 0)
(154.30489 -2.5623978 0)
(154.83506 -2.6854969 0)
(155.40107 -2.7968339 0)
(156.00069 -2.8883421 0)
(156.62913 -2.951413 0)
(157.27883 -2.9776278 0)
(157.93964 -2.9596406 0)
(158.59949 -2.8919017 0)
(159.24536 -2.7709264 0)
(159.86412 -2.5950394 0)
(160.44308 -2.3637861 0)
(160.96999 -2.0773095 0)
(161.43285 -1.7359362 0)
(161.81929 -1.3401208 0)
(162.11604 -0.8908444 0)
(162.3085 -0.39053197 0)
(162.38098 0.15553939 0)
(162.3178 0.73763104 0)
(162.10385 1.3402587 0)
(161.72873 1.9407711 0)
(161.19042 2.5096919 0)
(160.49955 3.0140384 0)
(159.68069 3.4234806 0)
(158.76946 3.7167473 0)
(157.80669 3.8851651 0)
(156.83209 3.9323782 0)
(155.87967 3.8713962 0)
(154.97551 3.7206373 0)
(154.13748 3.5002935 0)
(153.37622 3.2296518 0)
(152.69674 2.925487 0)
(152.10002 2.6013504 0)
(151.58452 2.2674853 0)
(151.1473 1.9311085 0)
(150.78477 1.5968569 0)
(150.49283 1.2672997 0)
(150.26777 0.94348287 0)
(150.10981 0.62535017 0)
(150.02401 0.31165716 0)
(150.66742 -1.917416 0)
(151.05357 -1.9380184 0)
(151.34164 -1.977325 0)
(151.6519 -2.0368289 0)
(151.97453 -2.1157604 0)
(152.31558 -2.2132431 0)
(152.67922 -2.3278845 0)
(153.06986 -2.4576268 0)
(153.49176 -2.5995326 0)
(153.94887 -2.7495601 0)
(154.44447 -2.9023546 0)
(154.98081 -3.0511005 0)
(155.55851 -3.1874795 0)
(156.17593 -3.3018244 0)
(156.82847 -3.3836237 0)
(157.50807 -3.4224794 0)
(158.20352 -3.4093553 0)
(158.90124 -3.3376327 0)
(159.58674 -3.2034878 0)
(160.24576 -3.0054659 0)
(160.86496 -2.7435558 0)
(161.43189 -2.4182331 0)
(161.9345 -2.0298168 0)
(162.36031 -1.5783067 0)
(162.69544 -1.0638171 0)
(162.92381 -0.48771569 0)
(163.02707 0.14553345 0)
(162.98591 0.82611861 0)
(162.78007 1.5370212 0)
(162.39369 2.2514764 0)
(161.82053 2.9326246 0)
(161.07062 3.537483 0)
(160.17293 4.0258115 0)
(159.17151 4.3698092 0)
(158.11681 4.5592418 0)
(157.05685 4.6005419 0)
(156.03117 4.5121401 0)
(155.0684 4.3187087 0)
(154.18655 4.046253 0)
(153.39485 3.7187703 0)
(152.69604 3.3564612 0)
(152.08865 2.9751207 0)
(151.56876 2.5862787 0)
(151.13137 2.1977273 0)
(150.77121 1.8141885 0)
(150.48288 1.4380028 0)
(150.26173 1.0697765 0)
(150.10714 0.70883975 0)
(150.02341 0.35324566 0)
(150.9186 -2.1145277 0)
(151.28585 -2.1375895 0)
(151.56051 -2.1818384 0)
(151.85711 -2.2491363 0)
(152.16664 -2.3387673 0)
(152.49535 -2.449937 0)
(152.84783 -2.5813091 0)
(153.22905 -2.7308281 0)
(153.64397 -2.8954541 0)
(154.0974 -3.0708667 0)
(154.59367 -3.2511751 0)
(155.13611 -3.4286841 0)
(155.72645 -3.593766 0)
(156.3639 -3.7349448 0)
(157.04415 -3.8394364 0)
(157.75866 -3.894389 0)
(158.49473 -3.88866 0)
(159.2368 -3.8143888 0)
(159.96838 -3.6675496 0)
(160.6738 -3.4472581 0)
(161.33901 -3.1543253 0)
(161.95156 -2.7898121 0)
(162.4997 -2.3540713 0)
(162.97118 -1.8464335 0)
(163.3518 -1.2656517 0)
(163.62401 -0.61129118 0)
(163.76648 0.11390117 0)
(163.75547 0.90095133 0)
(163.56397 1.7319643 0)
(163.16847 2.5760306 0)
(162.55609 3.3874001 0)
(161.73512 4.1097989 0)
(160.74025 4.689255 0)
(159.62718 5.0891222 0)
(158.45971 5.2976553 0)
(157.29681 5.3258036 0)
(156.18481 5.1997679 0)
(155.15493 4.9525962 0)
(154.22464 4.6176205 0)
(153.40079 4.2244079 0)
(152.68294 3.7969192 0)
(152.06632 3.3531788 0)
(151.54405 2.9057969 0)
(151.10867 2.4628576 0)
(150.75294 2.0288764 0)
(150.47001 1.6056997 0)
(150.25416 1.193278 0)
(150.10388 0.79019028 0)
(150.02267 0.39368636 0)
(151.19566 -2.2864328 0)
(151.54299 -2.3120865 0)
(151.80264 -2.3616665 0)
(152.08371 -2.437366 0)
(152.37818 -2.5385388 0)
(152.69252 -2.6645377 0)
(153.03176 -2.8141738 0)
(153.40145 -2.9855053 0)
(153.80736 -3.1755117 0)
(154.25535 -3.3797113 0)
(154.75096 -3.5917634 0)
(155.29892 -3.8031179 0)
(155.90237 -4.0027589 0)
(156.56179 -4.1771469 0)
(157.27344 -4.3107239 0)
(158.02821 -4.3874852 0)
(158.8115 -4.3935329 0)
(159.60499 -4.3194725 0)
(160.38952 -4.1612662 0)
(161.14757 -3.9191255 0)
(161.86446 -3.5952601 0)
(162.52803 -3.1917166 0)
(163.12734 -2.7090125 0)
(163.65094 -2.1456243 0)
(164.08476 -1.4983851 0)
(164.41004 -0.76412787 0)
(164.60214 0.057318493 0)
(164.6321 0.95918994 0)
(164.46424 1.9238835 0)
(164.06431 2.9167006 0)
(163.40907 3.8813964 0)
(162.50294 4.7437839 0)
(161.38792 5.4303259 0)
(160.1363 5.8920485 0)
(158.83049 6.1160476 0)
(157.54402 6.1205533 0)
(156.33131 5.942987 0)
(155.22587 5.6276489 0)
(154.24346 5.217076 0)
(153.38712 4.7473378 0)
(152.65194 4.2464041 0)
(152.02888 3.7343688 0)
(151.5074 3.2245701 0)
(151.07712 2.7249786 0)
(150.72858 2.2395207 0)
(150.45335 1.7692191 0)
(150.24457 1.3131109 0)
(150.09981 0.86884313 0)
(150.02177 0.43271395 0)
(151.5001 -2.4689561 0)
(151.82306 -2.4972783 0)
(152.06551 -2.5521468 0)
(152.32884 -2.6361977 0)
(152.60599 -2.7489327 0)
(152.90358 -2.8899329 0)
(153.22708 -3.0582617 0)
(153.58267 -3.2522226 0)
(153.97702 -3.4689678 0)
(154.41717 -3.704014 0)
(154.91015 -3.950706 0)
(155.46243 -4.1997137 0)
(156.07904 -4.4385996 0)
(156.76223 -4.6515158 0)
(157.50933 -4.8195318 0)
(158.31065 -4.9225557 0)
(159.1491 -4.9430292 0)
(160.00252 -4.869664 0)
(160.84799 -4.698813 0)
(161.66564 -4.4327025 0)
(162.44017 -4.075898 0)
(163.1602 -3.6320686 0)
(163.81634 -3.1021133 0)
(164.39873 -2.4834353 0)
(164.89424 -1.7702029 0)
(165.28331 -0.9552024 0)
(165.53797 -0.033637118 0)
(165.62235 0.99184704 0)
(165.49157 2.1056648 0)
(165.09576 3.2707863 0)
(164.39559 4.4189783 0)
(163.38761 5.4517013 0)
(162.12313 6.2667599 0)
(160.69843 6.7974621 0)
(159.22242 7.0307999 0)
(157.78794 6.9967612 0)
(156.45886 6.7490901 0)
(155.26993 6.3472022 0)
(154.23322 5.8450913 0)
(153.34592 5.286236 0)
(152.59698 4.7026518 0)
(151.97189 4.1160899 0)
(151.45568 3.5400429 0)
(151.03461 2.9817967 0)
(150.69678 2.4441943 0)
(150.43208 1.9270416 0)
(150.23252 1.4281698 0)
(150.09475 0.94409008 0)
(150.02065 0.4699848 0)
(151.82652 -2.6087777 0)
(152.12499 -2.6393312 0)
(152.34868 -2.6993113 0)
(152.59234 -2.791738 0)
(152.85006 -2.9162835 0)
(153.1286 -3.0728516 0)
(153.43384 -3.2608993 0)
(153.77262 -3.4791602 0)
(154.15259 -3.7251855 0)
(154.58213 -3.9947411 0)
(155.07002 -4.2810941 0)
(155.62486 -4.5743101 0)
(156.25412 -4.860592 0)
(156.9626 -5.1215895 0)
(157.74939 -5.3342763 0)
(158.60443 -5.4731276 0)
(159.50724 -5.5154709 0)
(160.43023 -5.4474244 0)
(161.34519 -5.2661808 0)
(162.2291 -4.9771894 0)
(163.06629 -4.5885772 0)
(163.84698 -4.1063289 0)
(164.56436 -3.5318905 0)
(165.21144 -2.8613476 0)
(165.77718 -2.0854203 0)
(166.24209 -1.19133 0)
(166.57496 -0.16756663 0)
(166.73247 0.9895819 0)
(166.65803 2.2692713 0)
(166.28093 3.635063 0)
(165.5369 5.0060648 0)
(164.40731 6.2505959 0)
(162.95499 7.2232902 0)
(161.31188 7.8310311 0)
(159.62541 8.0633192 0)
(158.01397 7.9692046 0)
(156.55183 7.6263376 0)
(155.27276 7.1143591 0)
(154.18198 6.5012907 0)
(153.26792 5.8387224 0)
(152.51122 5.1623689 0)
(151.89051 4.4948486 0)
(151.3856 3.8489375 0)
(150.97898 3.2304605 0)
(150.65618 2.6405568 0)
(150.40542 2.0773516 0)
(150.2176 1.5371444 0)
(150.08853 1.0150894 0)
(150.01928 0.50508762 0)
(152.17967 -2.7758549 0)
(152.44789 -2.8095459 0)
(152.65031 -2.8753734 0)
(152.87177 -2.97687 0)
(153.10736 -3.1139753 0)
(153.36385 -3.2870181 0)
(153.64749 -3.4959835 0)
(153.96575 -3.7402093 0)
(154.32729 -4.0178644 0)
(154.742 -4.3252177 0)
(155.22073 -4.6557058 0)
(155.77464 -4.9989714 0)
(156.41439 -5.3399286 0)
(157.14837 -5.657528 0)
(157.97869 -5.9237205 0)
(158.89542 -6.1055668 0)
(159.87368 -6.1729794 0)
(160.87807 -6.1083939 0)
(161.87277 -5.9107389 0)
(162.83058 -5.5909395 0)
(163.73581 -5.1630054 0)
(164.58146 -4.6367402 0)
(165.36468 -4.0148528 0)
(166.08273 -3.2922959 0)
(166.72832 -2.4557095 0)
(167.28337 -1.4847877 0)
(167.71384 -0.35819055 0)
(167.96854 0.93775446 0)
(167.97752 2.4010493 0)
(167.64283 4.0012757 0)
(166.86185 5.6466724 0)
(165.58745 7.1609871 0)
(163.89578 8.3320581 0)
(161.97328 9.0255414 0)
(160.02469 9.2395407 0)
(158.20208 9.0541611 0)
(156.58992 8.5822753 0)
(155.21662 7.9303279 0)
(154.07561 7.1830427 0)
(153.1426 6.4002939 0)
(152.38723 5.6204956 0)
(151.77972 4.8657923 0)
(151.29388 4.1469861 0)
(150.90817 3.4674268 0)
(150.60555 2.8257993 0)
(150.37265 2.2180253 0)
(150.19946 1.638526 0)
(150.08101 1.0808786 0)
(150.01763 0.53755277 0)
(152.54675 -2.8735901 0)
(152.78563 -2.9086755 0)
(152.96527 -2.978731 0)
(153.16255 -3.0876781 0)
(153.37376 -3.2357145 0)
(153.60561 -3.4236785 0)
(153.86468 -3.6522424 0)
(154.15903 -3.9215917 0)
(154.49835 -4.2308582 0)
(154.89418 -4.5772698 0)
(155.35974 -4.9549532 0)
(155.90928 -5.3536321 0)
(156.55742 -5.7573943 0)
(157.31757 -6.1427768 0)
(158.19675 -6.476081 0)
(159.18622 -6.7145459 0)
(160.25523 -6.8173613 0)
(161.35684 -6.7616731 0)
(162.44385 -6.5495763 0)
(163.48318 -6.200754 0)
(164.45984 -5.7379944 0)
(165.37154 -5.1759635 0)
(166.22132 -4.5182191 0)
(167.01283 -3.7576768 0)
(167.74518 -2.8754217 0)
(168.40414 -1.8407777 0)
(168.95409 -0.61863699 0)
(169.33579 0.8185896 0)
(169.46531 2.4821348 0)
(169.21031 4.3555253 0)
(168.40994 6.342681 0)
(166.96431 8.20935 0)
(164.96219 9.6376001 0)
(162.67604 10.424987 0)
(160.39834 10.592126 0)
(158.3246 10.269905 0)
(156.5467 9.6233494 0)
(155.07964 8.7937788 0)
(153.89765 7.884889 0)
(152.95834 6.9639304 0)
(152.21723 6.0699788 0)
(151.63451 5.2226039 0)
(151.17743 4.4289006 0)
(150.82036 3.6884698 0)
(150.54385 2.9966712 0)
(150.33323 2.3466605 0)
(150.17782 1.730636 0)
(150.0721 1.1403972 0)
(150.01568 0.56686469 0)
(152.94189 -3.0244834 0)
(153.14456 -3.0635103 0)
(153.29886 -3.1401327 0)
(153.46944 -3.258839 0)
(153.65346 -3.4202585 0)
(153.8574 -3.6259433 0)
(154.08793 -3.8775072 0)
(154.35358 -4.176296 0)
(154.66497 -4.5227926 0)
(155.03534 -4.9156646 0)
(155.48052 -5.3502539 0)
(156.01839 -5.8168008 0)
(156.66838 -6.2988926 0)
(157.45074 -6.7708625 0)
(158.38046 -7.1924026 0)
(159.45235 -7.5068521 0)
(160.62826 -7.6563171 0)
(161.84421 -7.6087668 0)
(163.03607 -7.3708665 0)
(164.16283 -6.9759014 0)
(165.21205 -6.4602226 0)
(166.18946 -5.8456735 0)
(167.1066 -5.1375329 0)
(167.97567 -4.3281092 0)
(168.80503 -3.3945916 0)
(169.58735 -2.2953073 0)
(170.28654 -0.97769418 0)
(170.8352 0.60514515 0)
(171.13661 2.4848379 0)
(171.01884 4.6735529 0)
(170.23584 7.0894753 0)
(168.59122 9.4287718 0)
(166.17782 11.202992 0)
(163.40802 12.089027 0)
(160.71359 12.16193 0)
(158.34318 11.635795 0)
(156.38798 10.75313 0)
(154.83533 9.6991285 0)
(153.62938 8.5972644 0)
(152.70281 7.519285 0)
(151.99351 6.5013331 0)
(151.4503 5.5573068 0)
(151.03364 4.688319 0)
(150.71412 3.8886981 0)
(150.47034 3.1495253 0)
(150.2868 2.4606275 0)
(150.15254 1.8116694 0)
(150.06173 1.1925176 0)
(150.01341 0.59247832 0)
(153.33652 -3.0697833 0)
(153.50479 -3.1089454 0)
(153.63222 -3.1882315 0)
(153.7739 -3.3124932 0)
(153.92808 -3.4826669 0)
(154.10085 -3.7009634 0)
(154.29893 -3.9699361 0)
(154.53114 -4.2921726 0)
(154.80897 -4.6697347 0)
(155.1474 -5.1031985 0)
(155.56526 -5.5898636 0)
(156.08463 -6.1213571 0)
(156.73074 -6.6817559 0)
(157.53291 -7.2446488 0)
(158.5188 -7.7638832 0)
(159.69134 -8.1650919 0)
(161.00326 -8.3649098 0)
(162.36458 -8.3176687 0)
(163.68462 -8.0393992 0)
(164.91053 -7.5869722 0)
(166.03491 -7.0192533 0)
(167.07609 -6.3682576 0)
(168.05676 -5.6397705 0)
(168.99929 -4.8239192 0)
(169.92539 -3.8921222 0)
(170.8407 -2.7850688 0)
(171.71304 -1.4210026 0)
(172.46925 0.27803325 0)
(173.00509 2.371872 0)
(173.10943 4.9158237 0)
(172.41462 7.8710609 0)
(170.54868 10.86136 0)
(167.57724 13.122124 0)
(164.147 14.100473 0)
(160.92079 14.000111 0)
(158.20452 13.170676 0)
(156.06991 11.969737 0)
(154.45227 10.634335 0)
(153.25035 9.3050391 0)
(152.36365 8.051892 0)
(151.70908 6.9023002 0)
(151.2234 5.8601842 0)
(150.86073 4.9178494 0)
(150.58869 4.0626454 0)
(150.38476 3.2804139 0)
(150.2333 2.5571518 0)
(150.12362 1.8797589 0)
(150.04992 1.236089 0)
(150.01084 0.61384073 0)
(153.76044 -3.2030898 0)
(153.88664 -3.247919 0)
(153.98499 -3.3348389 0)
(154.09571 -3.4692816 0)
(154.21776 -3.6527545 0)
(154.35653 -3.8885209 0)
(154.51846 -4.1806083 0)
(154.71237 -4.533558 0)
(154.95023 -4.9519457 0)
(155.24844 -5.4395051 0)
(155.62878 -5.9970866 0)
(156.11789 -6.6193195 0)
(156.74722 -7.2921083 0)
(157.55715 -7.9901223 0)
(158.5947 -8.6628835 0)
(159.8795 -9.2121798 0)
(161.35428 -9.5117902 0)
(162.889 -9.4891175 0)
(164.35145 -9.1722539 0)
(165.67214 -8.6524241 0)
(166.85503 -8.0208272 0)
(167.941 -7.3194648 0)
(168.96939 -6.5489616 0)
(169.97518 -5.6951292 0)
(170.99961 -4.7283135 0)
(172.0707 -3.5745596 0)
(173.16473 -2.1224222 0)
(174.20038 -0.26435588 0)
(175.0591 2.0828422 0)
(175.51795 5.0260933 0)
(175.04338 8.6502413 0)
(172.95725 12.553151 0)
(169.21099 15.53573 0)
(164.851 16.574112 0)
(160.94391 16.169482 0)
(157.83442 14.889118 0)
(155.53708 13.261464 0)
(153.89438 11.577678 0)
(152.73946 9.9856676 0)
(151.92964 8.5423263 0)
(151.35864 7.2576026 0)
(150.95173 6.1198212 0)
(150.6582 5.1092226 0)
(150.44422 4.2044423 0)
(150.28745 3.3852405 0)
(150.17305 2.6334336 0)
(150.09126 1.9330603 0)
(150.03676 1.2699916 0)
(150.00797 0.63041785 0)
(154.14069 -3.1869044 0)
(154.22619 -3.2300221 0)
(154.29363 -3.3165171 0)
(154.37067 -3.4527321 0)
(154.45702 -3.6407251 0)
(154.55708 -3.8847041 0)
(154.67672 -4.1899539 0)
(154.82438 -4.5626621 0)
(155.01207 -5.009547 0)
(155.25724 -5.5372158 0)
(155.58475 -6.1501482 0)
(156.02665 -6.8463101 0)
(156.62141 -7.6136131 0)
(157.42258 -8.4295662 0)
(158.50645 -9.2443828 0)
(159.92633 -9.932887 0)
(161.61738 -10.30199 0)
(163.38654 -10.234621 0)
(165.03429 -9.7862996 0)
(166.46596 -9.1096295 0)
(167.70697 -8.3542155 0)
(168.836 -7.5786482 0)
(169.91332 -6.7758602 0)
(170.98164 -5.9304337 0)
(172.10271 -5.026468 0)
(173.33692 -3.9782388 0)
(174.67487 -2.62736 0)
(176.02496 -0.80339663 0)
(177.27535 1.639346 0)
(178.23867 4.9091377 0)
(178.2091 9.3213107 0)
(175.97754 14.528968 0)
(171.14823 18.668562 0)
(165.43983 19.67964 0)
(160.66635 18.747943 0)
(157.13007 16.794812 0)
(154.72108 14.599922 0)
(153.12235 12.493415 0)
(152.07703 10.607113 0)
(151.39256 8.9655288 0)
(150.93985 7.548954 0)
(150.63559 6.323374 0)
(150.42725 5.2536082 0)
(150.28204 4.3080938 0)
(150.17948 3.4599761 0)
(150.10677 2.6868043 0)
(150.05587 1.9698591 0)
(150.02241 1.2932024 0)
(150.00486 0.64172602 0)
(154.45363 -3.2939458 0)
(154.48927 -3.348282 0)
(154.52186 -3.4460346 0)
(154.56096 -3.5946191 0)
(154.60687 -3.7965374 0)
(154.66273 -4.0570769 0)
(154.73356 -4.3830909 0)
(154.82709 -4.7830726 0)
(154.95485 -5.2670978 0)
(155.13451 -5.8467888 0)
(155.39337 -6.5339992 0)
(155.76885 -7.3355303 0)
(156.30566 -8.2470727 0)
(157.069 -9.2559632 0)
(158.17426 -10.326992 0)
(159.73681 -11.312838 0)
(161.69364 -11.91009 0)
(163.74949 -11.907127 0)
(165.59441 -11.399439 0)
(167.09725 -10.624671 0)
(168.32478 -9.8220473 0)
(169.42227 -9.0619506 0)
(170.47867 -8.3072189 0)
(171.53518 -7.5185405 0)
(172.68036 -6.6960872 0)
(174.03784 -5.7300306 0)
(175.64112 -4.3802782 0)
(177.40084 -2.3844569 0)
(179.21973 0.46745599 0)
(180.99511 4.3198292 0)
(181.86217 9.7637347 0)
(179.7641 16.82946 0)
(173.45421 22.952005 0)
(165.74275 23.677271 0)
(159.90144 21.822128 0)
(155.94816 18.864208 0)
(153.54022 15.928362 0)
(152.09709 13.325998 0)
(151.24844 11.125789 0)
(150.74974 9.2905839 0)
(150.45495 7.7555228 0)
(150.2786 6.4571681 0)
(150.17137 5.3421386 0)
(150.10488 4.3678786 0)
(150.0628 3.5009418 0)
(150.03569 2.7149173 0)
(150.01812 1.9886932 0)
(150.00715 1.3048684 0)
(150.00154 0.64736661 0)
(154.3893 -3.218086 0)
(154.36438 -3.26789 0)
(154.35494 -3.3570435 0)
(154.34781 -3.4968603 0)
(154.34389 -3.6911345 0)
(154.3444 -3.9467713 0)
(154.35273 -4.2726119 0)
(154.37478 -4.6798593 0)
(154.42 -5.1822588 0)
(154.50411 -5.7965188 0)
(154.65451 -6.5418991 0)
(154.91326 -7.4340855 0)
(155.33088 -8.4738814 0)
(155.98057 -9.652246 0)
(157.02828 -10.954589 0)
(158.70664 -12.223209 0)
(160.99133 -12.974834 0)
(163.42101 -12.806735 0)
(165.50034 -11.924735 0)
(167.04213 -10.719817 0)
(168.1863 -9.611262 0)
(169.19777 -8.6746152 0)
(170.21108 -7.807364 0)
(171.24478 -6.9121747 0)
(172.40968 -6.0660601 0)
(173.92873 -5.2064609 0)
(175.89629 -4.0204562 0)
(178.20456 -2.2058741 0)
(180.67671 0.50625288 0)
(183.36906 4.0084971 0)
(185.59076 9.8448757 0)
(184.21315 19.134722 0)
(175.98986 28.85522 0)
(165.32208 28.713809 0)
(158.33888 25.412121 0)
(154.0943 21.012448 0)
(151.90499 17.14438 0)
(150.78746 13.993601 0)
(150.24987 11.485347 0)
(150.00764 9.4814999 0)
(149.91267 7.8551329 0)
(149.88862 6.5077459 0)
(149.89663 5.3666777 0)
(149.91708 4.3788704 0)
(149.94024 3.5051483 0)
(149.96152 2.7159634 0)
(149.9789 1.9884861 0)
(149.99135 1.3043833 0)
(149.99812 0.64706141 0)
(153.47797 -3.246993 0)
(153.37901 -3.3205706 0)
(153.31138 -3.4292468 0)
(153.23804 -3.5891949 0)
(153.1615 -3.8044936 0)
(153.08064 -4.0829404 0)
(152.99656 -4.4343162 0)
(152.91247 -4.8712302 0)
(152.8347 -5.4095898 0)
(152.77541 -6.0696397 0)
(152.76035 -6.8777057 0)
(152.8366 -7.8626076 0)
(153.06204 -9.0401575 0)
(153.50819 -10.417188 0)
(154.38773 -12.038281 0)
(156.13081 -13.825403 0)
(158.83409 -15.072417 0)
(161.73673 -14.958934 0)
(164.01568 -13.939594 0)
(165.4093 -12.553466 0)
(166.20453 -11.49206 0)
(166.8992 -10.761082 0)
(167.69922 -10.161033 0)
(168.52579 -9.4878179 0)
(169.4494 -9.0316598 0)
(170.86211 -8.8582465 0)
(172.96531 -8.302818 0)
(175.65582 -7.0525141 0)
(178.57076 -4.4844048 0)
(182.42741 -0.73444451 0)
(187.15521 7.2246792 0)
(188.2409 20.222214 0)
(177.92348 36.673125 0)
(163.24394 34.960975 0)
(155.59252 29.528625 0)
(151.34982 23.096508 0)
(149.73575 18.087008 0)
(149.18416 14.38381 0)
(149.09678 11.61788 0)
(149.18616 9.4998018 0)
(149.33008 7.8265349 0)
(149.47842 6.4634569 0)
(149.61193 5.3208358 0)
(149.72451 4.3375584 0)
(149.81552 3.4706686 0)
(149.88644 2.6888925 0)
(149.93933 1.9686756 0)
(149.97543 1.2914591 0)
(149.99467 0.6406853 0)
(150.27605 -3.146907 0)
(150.02923 -3.2127735 0)
(149.85781 -3.2972552 0)
(149.66967 -3.4268642 0)
(149.46959 -3.6068089 0)
(149.25273 -3.8459092 0)
(149.01665 -4.1550186 0)
(148.75994 -4.548897 0)
(148.48295 -5.0475576 0)
(148.1894 -5.6785452 0)
(147.89477 -6.4821639 0)
(147.64046 -7.5145208 0)
(147.48121 -8.8285863 0)
(147.45679 -10.454985 0)
(147.78057 -12.489427 0)
(149.197 -15.01492 0)
(152.16955 -17.030983 0)
(155.40939 -16.571107 0)
(157.55974 -14.739458 0)
(158.31138 -12.18827 0)
(158.21305 -10.360283 0)
(158.14912 -9.2039503 0)
(158.38903 -8.4539102 0)
(158.59759 -7.5462685 0)
(158.7218 -7.0430904 0)
(159.67017 -7.0271343 0)
(161.7828 -6.0080464 0)
(164.95378 -4.885319 0)
(168.68701 -1.9655734 0)
(175.064 4.1609068 0)
(184.04712 12.170826 0)
(189.65072 24.090367 0)
(176.91839 49.621658 0)
(157.54359 45.378193 0)
(150.91287 34.309369 0)
(147.4024 24.786393 0)
(146.9568 18.485606 0)
(147.31574 14.345364 0)
(147.8342 11.448335 0)
(148.32292 9.3097424 0)
(148.7339 7.6530022 0)
(149.0658 6.316588 0)
(149.32876 5.2011601 0)
(149.53441 4.2425008 0)
(149.69301 3.3969961 0)
(149.81293 2.6336106 0)
(149.90067 1.9293231 0)
(149.95989 1.2661837 0)
(149.99131 0.62829201 0)
(143.49678 -2.9100558 0)
(143.0974 -3.0022176 0)
(142.78775 -3.1036451 0)
(142.44015 -3.2531368 0)
(142.06628 -3.4555896 0)
(141.65692 -3.7211313 0)
(141.204 -4.062072 0)
(140.69815 -4.4955609 0)
(140.12899 -5.0453374 0)
(139.48457 -5.7440628 0)
(138.75826 -6.639356 0)
(137.97262 -7.8020871 0)
(137.18092 -9.3055169 0)
(136.39265 -11.16028 0)
(135.76091 -13.423312 0)
(136.50441 -16.51509 0)
(140.13655 -19.623295 0)
(144.23817 -18.143128 0)
(146.41438 -15.4292 0)
(146.24688 -11.960307 0)
(144.63177 -10.763319 0)
(143.25289 -10.892038 0)
(142.64097 -11.37694 0)
(142.05767 -10.917019 0)
(141.19394 -10.391046 0)
(142.01537 -10.534408 9.2103638e-18)
(143.29711 -11.937622 -2.0163536e-19)
(145.60341 -13.602312 0)
(146.68983 -7.4791 1.0014782e-17)
(144.05295 -14.516462 -7.4978769e-18)
(161.54398 -10.13841 4.4266399e-18)
(180.41644 5.4375341 -9.8914582e-18)
(167.92435 72.27898 6.3388008e-18)
(142.12775 58.019247 0)
(140.66643 37.117814 0)
(141.63421 24.700168 0)
(143.57066 17.825211 0)
(145.29832 13.688019 0)
(146.55469 10.908993 0)
(147.47728 8.8880875 0)
(148.16033 7.3274634 0)
(148.67269 6.065859 0)
(149.06042 5.0083258 0)
(149.35481 4.0948965 0)
(149.57745 3.2853239 0)
(149.74366 2.5511193 0)
(149.86426 1.8711828 0)
(149.94526 1.229056 0)
(149.98814 0.61012876 0)
(129.50752 -2.8621924 0)
(128.72533 -2.9374706 0)
(128.12345 -3.0012996 0)
(127.45135 -3.1027452 0)
(126.72888 -3.2437177 0)
(125.937 -3.4313891 0)
(125.05754 -3.6737214 0)