/*--------------------------------*- C++ -*----------------------------------*\
| =========                 |                                                 |
| \\      /  F ield         | foam-extend: Open Source CFD                    |
|  \\    /   O peration     | Version:     4.1                                |
|   \\  /    A nd           | Web:         http://www.foam-extend.org         |
|    \\/     M anipulation  |                                                 |
\*---------------------------------------------------------------------------*/
FoamFile
{
    version     2.0;
    format      ascii;
    class       volScalarField;
    location    "0";
    object      divFlux;
}
// * * * * * * * * * * * * * * * * * * * * * * * * * * * * * * * * * * * * * //

dimensions      [0 0 -1 0 0 0 0];

internalField   nonuniform List<scalar> 
4393
(
0
-2.9661407e-09
-1.1460273e-08
-1.9005798e-08
-1.9500473e-08
-3.6066008e-08
-3.1652089e-08
-5.5545041e-08
-6.427064e-08
-9.8914693e-08
-1.0896773e-07
-1.4480671e-07
-1.4672986e-07
-1.5817159e-07
-1.1668057e-07
-8.9364854e-08
-1.2615491e-08
4.7850331e-08
1.4495018e-07
1.8611607e-07
2.3666859e-07
2.3335569e-07
2.3911082e-07
1.9369136e-07
1.6578134e-07
1.142144e-07
8.9046435e-08
4.9823242e-08
3.9044594e-08
2.4022573e-08
2.989299e-08
2.4006578e-08
3.0652699e-08
2.8510409e-08
3.3962099e-08
2.680484e-08
2.4412423e-08
1.5140421e-08
1.0603048e-08
-3.6119493e-10
-6.9644425e-09
-1.5563814e-08
-1.9695564e-08
-2.557731e-08
-2.7567215e-08
-2.9171044e-08
-2.7620527e-08
-2.7470363e-08
-2.7324641e-08
-8.2252934e-09
-1.8472562e-08
-2.9183792e-08
-4.7370075e-08
-4.3820201e-08
-7.962494e-08
-8.6000609e-08
-1.320458e-07
-1.4895333e-07
-2.1092053e-07
-2.2422921e-07
-2.5945172e-07
-2.2613048e-07
-2.1302539e-07
-1.1305387e-07
-3.1318557e-08
1.1694492e-07
2.0618815e-07
3.3528422e-07
3.7179179e-07
4.13627e-07
3.6842503e-07
3.4879012e-07
2.6674884e-07
2.1511199e-07
1.3407627e-07
1.034937e-07
6.009832e-08
5.4462922e-08
3.6057748e-08
4.7606659e-08
4.3035074e-08
5.2375499e-08
4.359886e-08
4.6075247e-08
3.2752791e-08
2.5637738e-08
7.4100513e-09
-2.3537653e-09
-1.8616871e-08
-2.8310937e-08
-4.1008741e-08
-4.6116118e-08
-5.2044071e-08
-5.2651394e-08
-5.4041084e-08
-5.2074281e-08
-5.2703374e-08
-2.5921185e-08
-7.1181602e-09
-1.6395423e-08
-2.1014694e-08
-3.8891425e-08
-3.4841701e-08
-6.601897e-08
-6.3610171e-08
-1.0633029e-07
-1.2112307e-07
-1.7694511e-07
-1.8190049e-07
-2.1989881e-07
-1.9557225e-07
-1.9133288e-07
-9.9695612e-08
-3.6376611e-08
9.1173338e-08
1.6621587e-07
2.9068512e-07
3.2555448e-07
3.6915194e-07
3.3236781e-07
3.2528575e-07
2.5415605e-07
2.0933221e-07
1.3573593e-07
1.1145029e-07
6.9991514e-08
6.1900725e-08
4.2718964e-08
5.4410484e-08
4.8589379e-08
5.5094889e-08
4.588464e-08
4.9346871e-08
3.6674392e-08
2.917682e-08
1.1920766e-08
3.7190194e-09
-1.1439617e-08
-2.1059042e-08
-3.3190393e-08
-3.7690447e-08
-4.3433135e-08
-4.4470071e-08
-4.6059684e-08
-4.4474514e-08
-4.6177861e-08
-2.1629046e-08
-5.6867089e-09
-1.4166764e-08
-1.8318617e-08
-3.5760208e-08
-2.9758863e-08
-6.0750712e-08
-5.799077e-08
-9.8966617e-08
-1.118268e-07
-1.6941572e-07
-1.7756749e-07
-2.1879213e-07
-1.9854656e-07
-2.0356385e-07
-1.2213049e-07
-6.6494954e-08
5.5421394e-08
1.2145113e-07
2.377288e-07
2.6927071e-07
3.1262582e-07
2.7367158e-07
2.6493153e-07
1.9656204e-07
1.5613428e-07
8.5158758e-08
6.2761173e-08
2.5268318e-08
2.0990401e-08
3.8993947e-09
1.6739141e-08
1.3321784e-08
2.2118191e-08
1.439715e-08
1.8963845e-08
8.4363229e-09
3.151237e-09
-1.2310838e-08
-1.9001608e-08
-3.2119692e-08
-3.987672e-08
-5.056729e-08
-5.3997976e-08
-5.8514467e-08
-5.8486034e-08
-5.9194651e-08
-5.6543667e-08
-5.6312644e-08
-2.938163e-08
-4.3960936e-09
-1.0029186e-08
-1.3220047e-08
-3.0119378e-08
-1.4989865e-08
-4.3439581e-08
-4.311937e-08
-8.469472e-08
-8.9415523e-08
-1.4894583e-07
-1.6649133e-07
-2.1498608e-07
-1.8943521e-07
-1.9842243e-07
-1.248817e-07
-6.8409348e-08
7.3078968e-08
1.479389e-07
2.6424892e-07
2.9762025e-07
3.5301393e-07
3.1289124e-07
2.9282359e-07
2.1609394e-07
1.7761493e-07
1.033241e-07
7.2940846e-08
3.1878348e-08
3.1670983e-08
1.5209509e-08
2.4402433e-08
1.9259291e-08
3.0262634e-08
2.2078212e-08
2.3105376e-08
1.0246743e-08
5.3388445e-09
-1.0882499e-08
-1.9847067e-08
-3.4207345e-08
-4.1489446e-08
-5.2225334e-08
-5.658411e-08
-6.1436474e-08
-6.0794053e-08
-6.1205007e-08
-5.8212375e-08
-5.4926522e-08
-3.1314231e-08
-4.4263032e-09
-1.0765456e-08
-1.4659186e-08
-3.4280498e-08
-1.7474746e-08
-4.5974098e-08
-4.7008146e-08
-9.1244578e-08
-9.3958093e-08
-1.5462134e-07
-1.7605029e-07
-2.3136731e-07
-2.076113e-07
-2.2268064e-07
-1.5813919e-07
-1.1223464e-07
2.7069832e-08
9.6830452e-08
2.0591721e-07
2.3147719e-07
2.8699675e-07
2.4480453e-07
2.2033038e-07
1.403543e-07
1.051782e-07
3.390884e-08
5.0071925e-09
-3.3921446e-08
-2.8659463e-08
-4.0265682e-08
-2.8337808e-08
-3.1008117e-08
-1.6124044e-08
-2.0965744e-08
-1.8101509e-08
-2.9174154e-08
-3.1344878e-08
-4.5020527e-08
-5.2211549e-08
-6.4741859e-08
-6.9688852e-08
-7.8297554e-08
-8.1170231e-08
-8.466267e-08
-8.2429748e-08
-8.1368377e-08
-7.739701e-08
-7.2593961e-08
-3.9306716e-08
-2.9037757e-09
-9.3960092e-09
-1.0011135e-08
-3.0019104e-08
-1.1381322e-08
-3.9323759e-08
-3.7404439e-08
-8.2306893e-08
-8.4021957e-08
-1.4618568e-07
-1.6672586e-07
-2.2613109e-07
-2.0359162e-07
-2.2097651e-07
-1.5328082e-07
-1.0626882e-07
4.1445092e-08
1.2037699e-07
2.4339163e-07
2.7932752e-07
3.4827338e-07
3.1417722e-07
2.9351425e-07
2.1179675e-07
1.7467778e-07
9.8639925e-08
6.4071227e-08
1.8579992e-08
1.8727491e-08
3.1747835e-09
1.1874783e-08
6.2809263e-09
1.8588433e-08
1.165198e-08
1.2076706e-08
-1.54252e-09
-6.3895517e-09
-2.2689084e-08
-3.2517318e-08
-4.737207e-08
-5.4312522e-08
-6.4577477e-08
-6.9018442e-08
-7.3847259e-08
-7.2548645e-08
-7.1564578e-08
-6.7392843e-08
-7.1405083e-08
-2.825895e-08
-4.4023135e-09
-1.2760556e-08
-1.1902218e-08
-3.4973713e-08
-1.8886879e-08
-4.7134387e-08
-4.2981534e-08
-9.084031e-08
-9.571361e-08
-1.5956032e-07
-1.7991596e-07
-2.4679512e-07
-2.3238242e-07
-2.5546991e-07
-1.8964288e-07
-1.5125983e-07
-1.1610546e-08
6.1421146e-08
1.8162978e-07
2.0734682e-07
2.6648207e-07
2.2628774e-07
2.0309512e-07
1.1757017e-07
7.9432484e-08
6.6287394e-09
-2.2177841e-08
-6.2728201e-08
-5.7811418e-08
-6.7143844e-08
-5.2651616e-08
-5.3822054e-08
-3.837375e-08
-4.1333505e-08
-3.7380354e-08
-4.8151783e-08
-5.0619727e-08
-6.3764027e-08
-7.037705e-08
-8.2397336e-08
-8.6876954e-08
-9.4541575e-08
-9.6688752e-08
-9.9736474e-08
-9.7061943e-08
-9.4394076e-08
-8.7321228e-08
-8.9410206e-08
-4.0416079e-08
-5.9857054e-09
-1.4502024e-08
-5.875581e-09
-2.8757198e-08
-1.5585468e-08
-4.0681072e-08
-2.6380332e-08
-7.4304738e-08
-8.5080774e-08
-1.5016499e-07
-1.651548e-07
-2.3921519e-07
-2.3550017e-07
-2.5592389e-07
-1.6825056e-07
-1.1090226e-07
4.9134585e-08
1.5182827e-07
3.0979785e-07
3.5259045e-07
4.1050792e-07
3.6475257e-07
3.3550805e-07
2.3329858e-07
1.7344746e-07
8.5342243e-08
4.8383072e-08
5.1724625e-10
-1.949142e-09
-1.3102979e-08
1.5374109e-09
-7.1194938e-10
1.0332041e-08
4.9127842e-09
6.2087324e-09
-8.6864493e-09
-1.703525e-08
-3.4034514e-08
-4.3161684e-08
-5.7710331e-08
-6.5134153e-08
-7.4536772e-08
-7.7863498e-08
-8.2240043e-08
-8.1268859e-08
-7.9808974e-08
-7.254909e-08
-6.9751051e-08
-3.9222304e-08
-6.4286467e-09
-1.8142587e-08
-1.0199757e-08
-3.4015155e-08
-2.3171794e-08
-5.0894657e-08
-3.543475e-08
-8.3259972e-08
-9.6242328e-08
-1.6519545e-07
-1.8112701e-07
-2.5956938e-07
-2.6474396e-07
-2.9680611e-07
-2.1675026e-07
-1.6869711e-07
-1.9124659e-08
7.3037458e-08
2.263064e-07
2.617326e-07
3.1126195e-07
2.5813742e-07
2.2463215e-07
1.199873e-07
5.852464e-08
-2.7970227e-08
-6.006243e-08
-1.0161806e-07
-9.8984293e-08
-1.0274641e-07
-8.1368155e-08
-7.6304536e-08
-6.085135e-08
-6.0678527e-08
-5.4703486e-08
-6.4556597e-08
-6.988611e-08
-8.3332957e-08
-8.8594497e-08
-9.9183773e-08
-1.0343592e-07
-1.0970507e-07
-1.1023731e-07
-1.1217257e-07
-1.0950959e-07
-1.0688082e-07
-9.9111356e-08
-9.1003352e-08
-5.0505092e-08
-2.716737e-09
-1.4916063e-08
-9.3633018e-09
-3.1614694e-08
-1.6190879e-08
-4.3873359e-08
-2.9406734e-08
-7.4923519e-08
-8.2873862e-08
-1.5330849e-07
-1.7231887e-07
-2.4946699e-07
-2.4805208e-07
-2.777466e-07
-1.9372466e-07
-1.3427212e-07
3.6652052e-08
1.4903582e-07
3.2307384e-07
3.7620516e-07
4.4517064e-07
4.042422e-07
3.7042704e-07
2.6083351e-07
1.9105617e-07
9.3450548e-08
4.7881664e-08
-4.9491048e-09
-1.3768061e-08
-2.3537653e-08
-9.4257239e-09
-6.7563013e-09
3.7647806e-09
1.9343704e-09
3.2640836e-09
-8.8810436e-09
-1.9511639e-08
-3.8153834e-08
-4.8656035e-08
-6.315004e-08
-7.1097219e-08
-8.0310135e-08
-8.367729e-08
-8.7758394e-08
-8.7083542e-08
-8.6206988e-08
-8.2495076e-08
-8.9487954e-08
-3.6707721e-08
-3.6532662e-09
-1.7769688e-08
-1.4839145e-08
-3.8808679e-08
-2.3650334e-08
-5.2537471e-08
-3.9537233e-08
-8.6089221e-08
-9.4523709e-08
-1.6856616e-07
-1.9383103e-07
-2.7908846e-07
-2.8618296e-07
-3.2690968e-07
-2.5333597e-07
-2.0246972e-07
-3.8527212e-08
6.255603e-08
2.2692149e-07
2.6743686e-07
3.2417623e-07
2.7302727e-07
2.2969299e-07
1.1597812e-07
4.5662677e-08
-4.8853225e-08
-8.9735032e-08
-1.3339328e-07
-1.3475114e-07
-1.3389558e-07
-1.1348518e-07
-1.00898e-07
-8.4439644e-08
-7.8270897e-08
-7.2731246e-08
-7.8380633e-08
-8.4370338e-08
-9.7778978e-08
-1.0317646e-07
-1.1227609e-07
-1.1567745e-07
-1.2074884e-07
-1.2078039e-07
-1.2191951e-07
-1.1897397e-07
-1.158525e-07
-1.093652e-07
-1.1357381e-07
-5.2799768e-08
-5.1993415e-09
-1.987483e-08
-1.5289865e-08
-3.7113476e-08
-1.9719783e-08
-4.5490628e-08
-2.7639245e-08
-7.045101e-08
-7.8386359e-08
-1.5553119e-07
-1.8610437e-07
-2.8007637e-07
-2.961521e-07
-3.3862672e-07
-2.4866103e-07
-1.6135019e-07
5.2069804e-08
1.9944496e-07
4.1304961e-07
4.8879083e-07
5.5772132e-07
4.9990457e-07
4.3434801e-07
2.9463284e-07
1.9430091e-07
7.2017033e-08
6.1994593e-09
-4.9180889e-08
-6.0759844e-08
-5.9742456e-08
-4.5310427e-08
-2.9661529e-08
-1.6673171e-08
-9.8979875e-09
-1.2326836e-08
-2.3220886e-08
-3.7510081e-08
-5.7149671e-08
-6.7420405e-08
-7.9348281e-08
-8.5476601e-08
-9.2560111e-08
-9.4533578e-08
-9.7169901e-08
-9.6024118e-08
-9.4493149e-08
-8.8521213e-08
-8.5912435e-08
-4.9980416e-08
-6.2695966e-09
-2.303442e-08
-2.0876636e-08
-4.4306182e-08
-2.8285703e-08
-5.5541153e-08
-3.8632468e-08
-8.1940144e-08
-9.0764595e-08
-1.7065858e-07
-2.0604379e-07
-3.0790808e-07
-3.354734e-07
-3.9346739e-07
-3.2082065e-07
-2.5040201e-07
-4.9434359e-08
8.5479246e-08
2.9132659e-07
3.5240097e-07
4.1259235e-07
3.490076e-07
2.7189937e-07
1.2744517e-07
2.3601072e-08
-9.6741597e-08
-1.6015932e-07
-2.0816673e-07
-2.1648738e-07
-1.9995494e-07
-1.8028114e-07
-1.4950759e-07
-1.3065749e-07
-1.1018622e-07
-1.0697768e-07
-1.0522546e-07
-1.1356004e-07
-1.2725924e-07
-1.3124882e-07
-1.3633087e-07
-1.3656634e-07
-1.3851181e-07
-1.3637885e-07
-1.3544143e-07
-1.3171931e-07
-1.2860583e-07
-1.2214964e-07
-1.1169764e-07
-6.3712476e-08
-4.8616919e-09
-2.0824087e-08
-1.943362e-08
-4.226477e-08
-2.4095608e-08
-4.9350193e-08
-3.1418345e-08
-7.3611004e-08
-8.0640643e-08
-1.601525e-07
-1.9694617e-07
-2.9963447e-07
-3.2382464e-07
-3.7436849e-07
-2.917804e-07
-2.1004215e-07
1.3982411e-08
1.8260203e-07
4.3209487e-07
5.0887368e-07
5.9086293e-07
5.5083315e-07
4.6901095e-07
3.1552887e-07
1.9047238e-07
5.1153232e-08
-3.4066946e-08
-9.9545523e-08
-1.3797569e-07
-1.2130863e-07
-1.1825136e-07
-8.0318997e-08
-7.2640166e-08
-4.5518558e-08
-5.1418522e-08
-4.1193549e-08
-5.4571978e-08
-7.6003766e-08
-8.7128836e-08
-9.6896649e-08
-1.0095598e-07
-1.0590875e-07
-1.0665158e-07
-1.0783246e-07
-1.0615133e-07
-1.0530498e-07
-1.0413121e-07
-1.127719e-07
-4.9824464e-08
-6.4388666e-09
-2.4100295e-08
-2.4996396e-08
-4.975916e-08
-3.2815343e-08
-5.9003285e-08
-4.205861e-08
-8.5259504e-08
-9.3741032e-08
-1.7705128e-07
-2.2168441e-07
-3.3685462e-07
-3.7709132e-07
-4.4544802e-07
-3.7848829e-07
-3.0754418e-07
-9.2969671e-08
5.2078502e-08
2.9465206e-07
3.5152161e-07
4.1777891e-07
3.7002231e-07
2.7075143e-07
1.1172233e-07
-1.8815687e-08
-1.5856006e-07
-2.4479015e-07
-2.9533169e-07
-3.355334e-07
-2.9457964e-07
-2.9095458e-07
-2.3006122e-07
-2.1928403e-07
-1.6783395e-07
-1.7054581e-07
-1.4296437e-07
-1.4525149e-07
-1.5596028e-07
-1.5743349e-07
-1.5846154e-07
-1.5534896e-07
-1.5424405e-07
-1.5039041e-07
-1.478807e-07
-1.4332689e-07
-1.3977048e-07
-1.3530108e-07
-1.4075188e-07
-6.7777157e-08
-8.1475434e-09
-2.6840239e-08
-2.7695869e-08
-5.1312663e-08
-3.1972907e-08
-5.4567582e-08
-3.2984356e-08
-7.1519639e-08
-7.763946e-08
-1.6389662e-07
-2.1865451e-07
-3.5103854e-07
-4.1189366e-07
-4.9530013e-07
-4.1972801e-07
-2.9635439e-07
3.276298e-09
1.968037e-07
5.1137294e-07
6.1676211e-07
7.088144e-07
6.6447161e-07
5.2473093e-07
3.2808362e-07
1.5128606e-07
-3.4078831e-08
-1.7527145e-07
-2.3570035e-07
-3.0993091e-07
-2.4688162e-07
-2.6450354e-07
-1.8096532e-07
-1.8593409e-07
-1.0563508e-07
-1.2258015e-07
-9.4173692e-08
-1.0466789e-07
-1.1958795e-07
-1.2326566e-07
-1.2570028e-07
-1.2421907e-07
-1.2421463e-07
-1.2175068e-07
-1.2089545e-07
-1.1833332e-07
-1.1642872e-07
-1.1226498e-07
-1.0976016e-07
-6.3750683e-08
-9.3475278e-09
-2.9823088e-08
-3.2988896e-08
-5.8672647e-08
-4.1164482e-08
-6.5332677e-08
-4.499714e-08
-8.4378265e-08
-9.1460495e-08
-1.8021192e-07
-2.4096752e-07
-3.8453093e-07
-4.6213107e-07
-5.679103e-07
-5.2180038e-07
-4.3079552e-07
-1.4798897e-07
1.9061807e-08
3.3718147e-07
3.9587409e-07
4.937628e-07
4.6001529e-07
2.8993468e-07
8.56283e-08
-1.0557245e-07
-2.9171555e-07
-4.411273e-07
-4.8657283e-07
-5.8410396e-07
-4.7577902e-07
-5.0992905e-07
-3.8266446e-07
-3.9929589e-07
-2.7246271e-07
-2.9067619e-07
-2.2020629e-07
-2.1123728e-07
-2.1079123e-07
-2.0085193e-07
-1.9177096e-07
-1.8148202e-07
-1.7452735e-07
-1.6681919e-07
-1.6186598e-07
-1.5648271e-07
-1.5292673e-07
-1.4822631e-07
-1.3657345e-07
-7.7877714e-08
-8.8748223e-09
-2.8875834e-08
-3.2287284e-08
-5.7886268e-08
-3.9642822e-08
-6.2574417e-08
-4.1163952e-08
-8.0026175e-08
-8.7381136e-08
-1.7762828e-07
-2.4186045e-07
-3.9001503e-07
-4.6803614e-07
-5.6323667e-07
-5.0434472e-07
-4.1982494e-07
-1.2548009e-07
6.6837739e-08
4.9402593e-07
5.0303315e-07
6.5126572e-07
6.8618035e-07
4.7642778e-07
2.5443057e-07
1.2757783e-08
-2.0301959e-07
-3.9116565e-07
-4.395489e-07
-6.3478792e-07
-4.7471266e-07
-5.8033444e-07
-3.9379096e-07
-4.6590914e-07
-2.7937213e-07
-3.3801014e-07
-2.0874406e-07
-1.8172375e-07
-1.8010348e-07
-1.7159074e-07
-1.6314997e-07
-1.5364783e-07
-1.475355e-07
-1.4103355e-07
-1.3696577e-07
-1.3271718e-07
-1.3104626e-07
-1.3179709e-07
-1.4045555e-07
-6.6146226e-08
-1.0325375e-08
-3.2152938e-08
-3.7683818e-08
-6.5179347e-08
-4.8652707e-08
-7.285546e-08
-5.2305338e-08
-9.1689796e-08
-9.9939467e-08
-1.9307921e-07
-2.6539615e-07
-4.2998272e-07
-5.3335343e-07
-6.5769543e-07
-6.2520624e-07
-5.5601441e-07
-2.687524e-07
-1.8302498e-07
2.704728e-07
1.9547043e-07
3.1485846e-07
3.6089238e-07
1.375122e-07
-8.6396672e-08
-3.4340847e-07
-5.6457411e-07
-7.6861415e-07
-7.3646558e-07
-9.6586529e-07
-7.5840651e-07
-8.9310889e-07
-6.5143835e-07
-7.509136e-07
-4.9713395e-07
-5.6099484e-07
-4.131177e-07
-3.2510343e-07
-2.8074976e-07
-2.4799253e-07
-2.2515461e-07
-2.0654219e-07
-1.9395324e-07
-1.8294945e-07
-1.7552919e-07
-1.6875756e-07
-1.6462225e-07
-1.6222451e-07
-1.6793032e-07
-8.3127258e-08
-1.1926539e-08
-3.6063523e-08
-4.362865e-08
-7.1810694e-08
-5.453174e-08
-7.6113545e-08
-5.1177493e-08
-8.4875575e-08
-8.8194802e-08
-1.8073888e-07
-2.6260589e-07
-4.5162243e-07
-5.9494005e-07
-7.6464888e-07
-7.5722918e-07
-6.2086355e-07
-1.5233086e-07
-1.636684e-07
4.2824524e-07
3.4173572e-07
4.4836331e-07
4.7790177e-07
2.3010338e-07
-1.9780865e-08
-3.1645879e-07
-5.8678538e-07
-9.1125794e-07
-7.4335805e-07
-1.0186339e-06
-7.7906981e-07
-9.7261132e-07
-6.7641322e-07
-8.4255982e-07
-5.0941591e-07
-5.68129e-07
-4.9743206e-07
-3.7119999e-07
-2.8516851e-07
-2.3082222e-07
-1.9935428e-07
-1.7832456e-07
-1.6521092e-07
-1.5490553e-07
-1.4903978e-07
-1.4452462e-07
-1.4220196e-07
-1.4006011e-07
-1.3784762e-07
-7.8177155e-08
-1.3006573e-08
-3.8367607e-08
-4.7681039e-08
-7.783253e-08
-6.2578045e-08
-8.5940188e-08
-6.2341562e-08
-9.6427837e-08
-9.9464895e-08
-1.9188854e-07
-2.7662491e-07
-4.7432251e-07
-6.329734e-07
-8.2210172e-07
-8.5912228e-07
-8.1084581e-07
-3.5980509e-07
-5.4082357e-07
1.0162064e-07
-2.8763163e-07
-1.2913455e-07
-1.7567717e-07
-4.0950719e-07
-6.0504608e-07
-8.2271398e-07
-1.0080615e-06
-1.2918797e-06
-9.4826954e-07
-1.1257159e-06
-8.979658e-07
-1.0589194e-06
-7.9166792e-07
-9.5397869e-07
-6.7834913e-07
-6.2609583e-07
-6.8942355e-07
-5.4449905e-07
-4.0306077e-07
-3.1007149e-07
-2.5769954e-07
-2.2578643e-07
-2.0633876e-07
-1.919967e-07
-1.8346219e-07
-1.7732721e-07
-1.7418974e-07
-1.7192661e-07
-1.6091527e-07
-9.0118824e-08
-1.3896895e-08
-3.9393857e-08
-4.9009525e-08
-7.9894512e-08
-6.5052822e-08
-8.8268829e-08
-6.4332394e-08
-9.7840188e-08
-1.0107592e-07
-1.9513075e-07
-2.8483142e-07
-4.9006403e-07
-6.4930854e-07
-8.0126551e-07
-7.925226e-07
-8.5108596e-07
-4.3863475e-07
-8.0547314e-07
1.9498706e-07
-7.9543298e-07
-4.5461158e-07
-6.4816319e-07
-9.0046607e-07
-1.0034986e-06
-9.7206591e-07
-1.9810907e-06
-1.5912774e-06
-1.3549079e-06
-1.326852e-06
-1.2760051e-06
-1.4741658e-06
-1.3764787e-06
-1.7748972e-06
-3.9028645e-07
-7.0123889e-07
-6.6732563e-07
-5.6814541e-07
-4.2469504e-07
-3.1514058e-07
-2.5101315e-07
-2.126825e-07
-1.8984459e-07
-1.7384316e-07
-1.646227e-07
-1.5854903e-07
-1.5645605e-07
-1.5866676e-07
-1.661359e-07
-8.1707802e-08
-1.4691258e-08
-4.1578731e-08
-5.2680108e-08
-8.4836957e-08
-7.1572422e-08
-9.5962526e-08
-7.2509265e-08
-1.0491448e-07
-1.0517363e-07
-1.9429198e-07
-2.8096104e-07
-4.9127382e-07
-6.6913443e-07
-8.428905e-07
-8.6430504e-07
-9.6092926e-07
-4.603349e-07
-1.4199236e-06
-3.1639479e-07
-1.6191339e-06
-1.2111169e-06
-1.0203131e-06
-1.7566355e-06
-1.3403598e-06
-2.0111583e-06
-0
-0
-0
-0
-0
0
0
0
-2.245035e-06
-4.0045816e-07
-7.6038025e-07
-6.4743996e-07
-4.9690874e-07
-3.7080017e-07
-2.9367682e-07
-2.4787215e-07
-2.2127789e-07
-2.0325102e-07
-1.9276482e-07
-1.8573151e-07
-1.8254384e-07
-1.8260027e-07
-1.8802574e-07
-9.4733485e-08
-1.5689987e-08
-4.624881e-08
-6.1867925e-08
-9.687513e-08
-8.5497755e-08
-1.0958296e-07
-8.3315098e-08
-1.0962104e-07
-1.0079093e-07
-1.7800231e-07
-2.5727596e-07
-4.7719778e-07
-6.9651073e-07
-9.4411562e-07
-1.1015501e-06
-1.1920942e-06
2.7134032e-08
-1.8705217e-06
-6.4479921e-07
-2.3128304e-06
-1.9646674e-06
-1.7458832e-06
-0
-0
-0
0
0
0
0
0
0
0
0
0
-9.2949819e-07
-7.733513e-07
-6.4149825e-07
-4.9221144e-07
-3.6029487e-07
-2.7568906e-07
-2.2490007e-07
-1.9662068e-07
-1.7873109e-07
-1.6933558e-07
-1.639994e-07
-1.627652e-07
-1.6326546e-07
-1.6202282e-07
-8.8920159e-08
-1.625688e-08
-4.675801e-08
-6.2747919e-08
-9.8655338e-08
-8.848873e-08
-1.1352661e-07
-8.7485143e-08
-1.1159523e-07
-9.7033005e-08
-1.6218284e-07
-2.2270684e-07
-4.1878011e-07
-6.0884221e-07
-7.8099944e-07
-8.9889162e-07
-1.3467627e-06
-1.4588413e-06
2.1416771e-06
-1.5133114e-06
-0
-0
-0
0
0
0
0
0
0
0
0
0
0
0
-1.5633939e-06
-8.6176812e-07
-8.17302e-07
-6.6327923e-07
-5.1652212e-07
-3.8443183e-07
-2.9760776e-07
-2.4498392e-07
-2.1615141e-07
-1.9835157e-07
-1.8937101e-07
-1.8450887e-07
-1.8406548e-07
-1.8537165e-07
-1.7725609e-07
-9.6610988e-08
-1.9018931e-08
-5.0333726e-08
-6.6639426e-08
-1.0401883e-07
-9.5106496e-08
-1.2071103e-07
-9.4771746e-08
-1.1690184e-07
-9.9059943e-08
-1.5923399e-07
-2.1483387e-07
-4.0906958e-07
-6.0368003e-07
-6.3125835e-07
-3.5835588e-07
-3.9445341e-06
-0
-0
-0
0
0
0
0
0
0
0
0
0
0
0
0
0
-1.4678065e-06
-8.4687905e-07
-9.1007843e-07
-7.9181304e-07
-6.5230783e-07
-5.1595563e-07
-3.8559403e-07
-2.9619228e-07
-2.3973614e-07
-2.0763066e-07
-1.8736065e-07
-1.7707881e-07
-1.7166933e-07
-1.7162535e-07
-1.7608719e-07
-1.8229326e-07
-9.2255316e-08
-1.8626642e-08
-5.009929e-08
-6.6319277e-08
-1.0319958e-07
-9.4339846e-08
-1.1952461e-07
-9.2228334e-08
-1.095812e-07
-8.081529e-08
-1.1771961e-07
-1.3271686e-07
-2.6922428e-07
-4.2510667e-07
-4.6631891e-07
-1.1726326e-06
-0
0
0
0
0
0
0
0
0
0
0
0
0
0
0
-2.0310409e-06
-1.6785913e-06
-8.5857656e-07
-9.2211933e-07
-8.7226114e-07
-8.0115232e-07
-6.2881743e-07
-5.0265107e-07
-3.8207591e-07
-2.9854434e-07
-2.4562194e-07
-2.1636559e-07
-1.9835116e-07
-1.8982242e-07
-1.8560804e-07
-1.8619137e-07
-1.9003612e-07
-1.9554467e-07
-9.9780013e-08
-1.8440042e-08
-5.4241658e-08
-7.6736417e-08
-1.1778291e-07
-1.1289092e-07
-1.4033304e-07
-1.1328293e-07
-1.2696402e-07
-8.9052515e-08
-1.0439209e-07
-8.1746594e-08
-1.6442866e-07
-2.9968212e-07
-5.7096018e-07
-7.6146656e-08
-2.5609718e-06
-0
-0
-0
0
0
-0
-2.0433246e-06
-9.7460389e-07
-1.6989933e-06
-1.5187323e-06
-1.4977781e-06
-1.3690199e-06
-1.6714626e-06
-1.8711688e-06
-7.6259712e-07
-9.0132436e-07
-8.6615433e-07
-8.4312538e-07
-8.7756822e-07
-7.8480017e-07
-6.1418954e-07
-4.9086258e-07
-3.7121509e-07
-2.8600641e-07
-2.3023889e-07
-1.9942048e-07
-1.8110572e-07
-1.7307013e-07
-1.6975451e-07
-1.7176885e-07
-1.761956e-07
-1.7719299e-07
-9.4133708e-08
-1.8129939e-08
-5.2100038e-08
-7.2940095e-08
-1.1276524e-07
-1.0677306e-07
-1.324695e-07
-1.0270525e-07
-1.1035725e-07
-6.1462467e-08
-5.4147299e-08
1.3265942e-08
1.9904037e-08
2.0507028e-08
-3.3120143e-07
-6.6636098e-07
-1.4049214e-07
-7.1318115e-07
-1.8024813e-06
-2.2451735e-06
-1.8858974e-06
-1.3738727e-06
-2.2048018e-06
-6.8539604e-07
-6.5784526e-07
-4.9561373e-07
-3.9434001e-07
-3.9971262e-07
-5.0928308e-07
-5.3290291e-07
-7.024264e-07
-6.2894211e-07
-7.1195116e-07
-8.218442e-07
-9.1008327e-07
-7.7316911e-07
-6.91296e-07
-5.6091485e-07
-4.5560453e-07
-3.4852156e-07
-2.7248892e-07
-2.2295013e-07
-1.9700984e-07
-1.8251184e-07
-1.7750798e-07
-1.7643639e-07
-1.8043975e-07
-1.8641479e-07
-1.8333819e-07
-9.6825121e-08
-2.2716186e-08
-5.8139144e-08
-7.92685e-08
-1.2110311e-07
-1.1700837e-07
-1.4376131e-07
-1.1505576e-07
-1.2179423e-07
-7.2442414e-08
-6.6807601e-08
-7.2806552e-09
-6.6677234e-09
7.2438915e-09
-2.046857e-07
-2.7305395e-07
-5.3486098e-07
-8.7962525e-07
-1.1431012e-06
-1.1534148e-06
-1.2116991e-06
-1.2637005e-06
-1.1020633e-06
-6.9202922e-07
-3.9079657e-07
-3.3805549e-07
-2.6298241e-07
-2.7613115e-07
-3.6883298e-07
-3.8191198e-07
-5.9290318e-07
-5.6935131e-07
-6.4282981e-07
-7.6233563e-07
-7.88355e-07
-6.4020288e-07
-5.9827623e-07
-5.4045171e-07
-4.5472898e-07
-3.5098249e-07
-2.7452599e-07
-2.2279913e-07
-1.9471921e-07
-1.782353e-07
-1.7186263e-07
-1.6983807e-07
-1.7367216e-07
-1.8115641e-07
-1.8658677e-07
-9.5507871e-08
-2.1040379e-08
-5.5043976e-08
-7.4035813e-08
-1.1274277e-07
-1.0572673e-07
-1.2851723e-07
-9.460715e-08
-9.2140595e-08
-2.838001e-08
9.8306759e-10
9.5231105e-08
1.4527348e-07
2.0957599e-07
4.6235609e-08
-3.2499261e-08
-3.2385741e-07
-8.5019256e-07
-1.3828299e-06
-1.5666628e-06
-1.4436277e-06
-1.1748161e-06
-8.9086575e-07
-4.3429892e-07
-4.8616927e-09
1.8873305e-07
2.8919763e-07
2.6243588e-07
1.4032712e-07
8.3081498e-08
-1.8245853e-07
-5.0798935e-07
-6.8843439e-07
-5.5494247e-07
-5.873887e-07
-5.2766006e-07
-5.6785174e-07
-4.7713717e-07
-4.0710756e-07
-3.1777335e-07
-2.5207808e-07
-2.0788434e-07
-1.8557156e-07
-1.7343665e-07
-1.705542e-07
-1.7100292e-07
-1.764977e-07
-1.8445865e-07
-1.9017691e-07
-9.7199644e-08
-1.9558725e-08
-5.7647082e-08
-8.3330014e-08
-1.2587014e-07
-1.2286246e-07
-1.4875064e-07
-1.1753578e-07
-1.1534734e-07
-5.0966907e-08
-1.7390889e-08
8.1868116e-08
1.3543919e-07
1.7939901e-07
-4.6301251e-08
-2.8082481e-07
-5.8483114e-07
-9.0409676e-07
-1.4098029e-06
-1.6376432e-06
-1.4634806e-06
-1.0091618e-06
-5.8925865e-07
-3.074493e-07
4.7619531e-08
2.666472e-07
3.5089488e-07
2.975993e-07
1.3779831e-07
4.1420129e-08
-1.3274069e-07
-2.5145076e-07
-4.4319593e-07
-3.3939129e-07
-4.4090705e-07
-5.8171535e-07
-5.9523325e-07
-4.9025614e-07
-4.1467177e-07
-3.21862e-07
-2.5321675e-07
-2.0546527e-07
-1.8023138e-07
-1.6599817e-07
-1.6228182e-07
-1.6248218e-07
-1.682502e-07
-1.7601167e-07
-1.7901052e-07
-9.1862134e-08
-1.8446711e-08
-5.3256875e-08
-7.5618406e-08
-1.1478836e-07
-1.0794213e-07
-1.2847767e-07
-9.0817819e-08
-7.9007066e-08
-2.2743509e-09
4.9135954e-08
1.7048924e-07
2.537168e-07
3.2966715e-07
1.2859451e-07
-1.8549013e-07
-6.2741808e-07
-1.0274015e-06
-1.3383182e-06
-1.4959058e-06
-1.3999706e-06
-9.9876421e-07
-5.1612636e-07
3.5266495e-09
4.0012456e-07
6.3050444e-07
7.2974322e-07
6.7952023e-07
4.8903407e-07
2.2208207e-07
1.0060148e-08
4.1722245e-08
-1.7932954e-07
-3.0116379e-07
-5.3354369e-07
-4.9372207e-07
-5.0537581e-07
-4.3057867e-07
-3.6709987e-07
-2.8425426e-07
-2.2498807e-07
-1.8444626e-07
-1.6499104e-07
-1.5523389e-07
-1.5509883e-07
-1.5798173e-07
-1.6595956e-07
-1.7530132e-07
-1.7680341e-07
-9.015792e-08
-2.4283136e-08
-6.1067923e-08
-8.3884205e-08
-1.2562823e-07
-1.217535e-07
-1.4422577e-07
-1.0977886e-07
-1.015248e-07
-3.2541525e-08
6.6546712e-09
1.0326908e-07
1.549305e-07
2.1326314e-07
7.8060521e-08
-1.5023754e-07
-6.4793584e-07
-1.1327039e-06
-1.3876492e-06
-1.4004998e-06
-1.2738052e-06
-9.7468741e-07
-5.3989979e-07
4.8579608e-08
4.7007099e-07
6.1050839e-07
6.7487607e-07
6.3415434e-07
4.8462497e-07
3.4269491e-07
7.6387619e-08
4.9555678e-08
-1.5985563e-07
-3.5756166e-07
-4.9276718e-07
-4.1120601e-07
-4.4009492e-07
-4.2808841e-07
-3.7715015e-07
-2.9310635e-07
-2.3218126e-07
-1.8935011e-07
-1.6802762e-07
-1.5662088e-07
-1.5502771e-07
-1.5646316e-07
-1.6354622e-07
-1.729053e-07
-1.7762394e-07
-9.1073103e-08
-2.1910268e-08
-5.6253588e-08
-7.5615291e-08
-1.1226655e-07
-1.0311403e-07
-1.1860309e-07
-7.6023801e-08
-5.6010529e-08
2.611921e-08
8.0187816e-08
1.86951e-07
2.4147676e-07
2.9087538e-07
1.6168891e-07
-8.6682468e-08
-5.1033015e-07
-9.8443636e-07
-1.3184672e-06
-1.4099233e-06
-1.2446626e-06
-8.1683056e-07
-3.8887766e-07
1.4410922e-07
5.785863e-07
8.2624309e-07
9.054455e-07
8.681589e-07
7.1467326e-07
6.0257577e-07
2.9714658e-07
-3.016533e-08
-3.0170216e-07
-2.3840643e-07
-3.5006408e-07
-3.2981364e-07
-4.1762309e-07
-3.6857566e-07
-3.2793345e-07
-2.5425191e-07
-2.0218653e-07
-1.6612035e-07
-1.5007005e-07
-1.4280883e-07
-1.4467834e-07
-1.4873101e-07
-1.5760716e-07
-1.6791566e-07
-1.7350685e-07
-8.8346592e-08
-1.9694233e-08
-5.7373604e-08
-8.28913e-08
-1.2189833e-07
-1.1523171e-07
-1.3291136e-07
-9.43192e-08
-7.6392623e-08
7.3016472e-10
4.6108447e-08
1.3360948e-07
1.6181534e-07
1.7203254e-07
1.2327277e-08
-2.6135986e-07
-6.1103902e-07
-8.8123219e-07
-1.1772532e-06
-1.2876069e-06
-1.1307301e-06
-6.5590261e-07
-2.160044e-07
9.0675499e-08
4.1537027e-07
6.5124006e-07
7.2375663e-07
6.850861e-07
5.2959675e-07
4.214706e-07
2.1148524e-07
6.7504817e-08
-1.6760026e-07
-9.4826799e-08
-2.4702274e-07
-4.0695352e-07
-4.6762271e-07
-3.9670142e-07
-3.4756824e-07
-2.6884416e-07
-2.1348047e-07
-1.7416531e-07
-1.5467321e-07
-1.4422388e-07
-1.4412792e-07
-1.4720097e-07
-1.5544803e-07
-1.6489686e-07
-1.6917211e-07
-8.3912312e-08
-1.8304539e-08
-5.2275572e-08
-7.4100594e-08
-1.0883072e-07
-9.7194511e-08
-1.0762391e-07
-6.1401351e-08
-3.2882617e-08
5.5341674e-08
1.1465571e-07
2.1262149e-07
2.4751689e-07
2.5535322e-07
9.7036357e-08
-1.8037582e-07
-5.6178309e-07
-9.0955222e-07
-1.13269e-06
-1.2007426e-06
-1.092704e-06
-6.8779645e-07
-2.441971e-07
2.4666015e-07
5.826172e-07
8.0576249e-07
8.8628439e-07
8.5216369e-07
6.8365715e-07
4.4121005e-07
2.2766388e-07
2.378222e-07
2.5265873e-09
-8.9929985e-08
-3.4137053e-07
-3.4850248e-07
-4.0133155e-07
-3.4769077e-07
-3.0440114e-07
-2.3110122e-07
-1.8241144e-07
-1.4890872e-07
-1.3409839e-07
-1.2736497e-07
-1.3019633e-07
-1.3557205e-07
-1.4559577e-07
-1.5623613e-07
-1.6103874e-07
-7.8799139e-08
-2.4494172e-08
-6.0617222e-08
-8.307423e-08
-1.2051927e-07
-1.1317805e-07
-1.2606754e-07
-8.4592149e-08
-6.175934e-08
1.4390598e-08
6.2933668e-08
1.4602828e-07
1.6520782e-07
1.5949046e-07
2.2301679e-08
-1.6970704e-07
-5.3879937e-07
-9.1993335e-07
-1.12354e-06
-1.1082569e-06
-9.9283448e-07
-7.1158484e-07
-3.3297649e-07
1.9774294e-07
5.498139e-07
6.9596338e-07
7.554867e-07
7.2686877e-07
5.9951931e-07
4.7838748e-07
2.3961224e-07
2.2170088e-07
1.7997552e-09
-1.7937531e-07
-3.4406913e-07
-3.0593664e-07
-3.6373271e-07
-3.54004e-07
-3.1679291e-07
-2.3894183e-07
-1.8768324e-07
-1.5238387e-07
-1.3619585e-07
-1.2876092e-07
-1.3061043e-07
-1.3466888e-07
-1.4330068e-07
-1.5280193e-07
-1.5683594e-07
-7.8040782e-08
-2.2329662e-08
-5.5977583e-08
-7.5058921e-08
-1.070463e-07
-9.4302282e-08
-9.9680344e-08
-5.1273678e-08
-1.8153263e-08
6.6397214e-08
1.2332861e-07
2.0921669e-07
2.2793773e-07
2.1300301e-07
6.3608727e-08
-1.6627009e-07
-4.9132543e-07
-8.4378724e-07
-1.0870732e-06
-1.122712e-06
-9.9166935e-07
-6.1154256e-07
-2.45322e-07
2.3805634e-07
6.0082711e-07
8.1407042e-07
8.8425006e-07
8.5610307e-07
7.2735685e-07
6.363606e-07
3.7279537e-07
1.3028163e-07
-1.3013324e-07
-1.1282877e-07
-2.5159026e-07
-2.5118243e-07
-3.4478255e-07
-3.0589212e-07
-2.7462099e-07
-2.0248019e-07
-1.5663642e-07
-1.262614e-07
-1.1382083e-07
-1.095709e-07
-1.1420024e-07
-1.2059646e-07
-1.307188e-07
-1.4113614e-07
-1.462102e-07
-7.1812927e-08
-2.0196258e-08
-5.6226141e-08
-8.0533267e-08
-1.1301773e-07
-1.006327e-07
-1.0529752e-07
-6.1925595e-08
-3.0886049e-08
4.762441e-08
9.4277415e-08
1.5721262e-07
1.5288317e-07
1.1441214e-07
-4.7385613e-08
-2.8939487e-07
-5.6808223e-07
-7.7825506e-07
-9.9385384e-07
-1.0394972e-06
-9.1410307e-07
-4.9765153e-07
-1.2771284e-07
1.7553629e-07
4.6217446e-07
6.6059232e-07
7.2987988e-07
7.0591218e-07
5.817171e-07
4.9355088e-07
2.9831192e-07
1.6993622e-07
-5.2931715e-08
-1.9219302e-08
-1.8019318e-07
-3.1144956e-07
-3.8666739e-07
-3.2587913e-07
-2.8735211e-07
-2.1154694e-07
-1.6334585e-07
-1.3168687e-07
-1.1687655e-07
-1.0980193e-07
-1.1233829e-07
-1.1793925e-07
-1.2716461e-07
-1.3640329e-07
-1.4122988e-07
-6.6346577e-08
-1.9084689e-08
-5.1878209e-08
-7.317816e-08
-1.0151811e-07
-8.475267e-08
-8.2082221e-08
-3.3433081e-08
6.3257988e-09
9.2790008e-08
1.4850777e-07
2.1409243e-07
2.1078458e-07
1.6847235e-07
5.8162163e-09
-2.3850857e-07
-5.3941513e-07
-8.0394051e-07
-9.8469804e-07
-1.0070295e-06
-9.0452829e-07
-5.3024406e-07
-1.5422183e-07
2.698851e-07
5.6486991e-07
7.5765044e-07
8.3682977e-07
8.1698848e-07
6.8328368e-07
4.919334e-07
3.0012063e-07
2.8319555e-07
6.4798294e-08
-1.0770987e-08
-2.3375138e-07
-2.7382049e-07
-3.4309395e-07