/*--------------------------------*- C++ -*----------------------------------*\
| =========                 |                                                 |
| \\      /  F ield         | foam-extend: Open Source CFD                    |
|  \\    /   O peration     | Version:     4.1                                |
|   \\  /    A nd           | Web:         http://www.foam-extend.org         |
|    \\/     M anipulation  |                                                 |
\*---------------------------------------------------------------------------*/
FoamFile
{
    version     2.0;
    format      ascii;
    class       volScalarField;
    location    "0";
    object      p;
}
// * * * * * * * * * * * * * * * * * * * * * * * * * * * * * * * * * * * * * //

dimensions      [0 2 -2 0 0 0 0];

internalField   nonuniform List<scalar> 
4393
(
2542.81
2539.44
2532.58
2522.03
2507.46
2488.44
2464.45
2434.86
2398.99
2356.09
2305.37
2246.04
2177.38
2098.73
2009.61
1909.76
1799.16
1678.17
1547.49
1408.24
1261.94
1110.52
956.244
801.672
649.552
502.71
363.912
235.712
120.293
19.3241
-66.1506
-135.771
-189.853
-229.31
-255.52
-270.159
-275.029
-271.918
-262.488
-248.205
-230.314
-209.828
-187.546
-164.074
-139.856
-115.202
-90.3181
-65.3309
-40.3141
2544.32
2541
2534.24
2523.83
2509.44
2490.64
2466.91
2437.61
2402.05
2359.46
2309.03
2249.98
2181.52
2103.01
2013.92
1913.95
1803.1
1681.68
1550.4
1410.39
1263.18
1110.72
955.324
799.579
646.288
498.333
358.539
229.516
113.498
12.1922
-73.3405
-142.749
-196.383
-235.211
-260.678
-274.525
-278.615
-274.778
-264.702
-249.87
-231.528
-210.685
-188.128
-164.453
-140.092
-115.342
-90.3978
-65.3744
-40.3353
2547.32
2544.09
2537.52
2527.39
2513.37
2495.02
2471.81
2443.1
2408.15
2366.19
2316.38
2257.87
2189.85
2111.61
2022.57
1922.4
1811.03
1688.75
1556.28
1414.74
1265.7
1111.16
953.487
795.375
639.719
489.513
347.701
217.011
99.7823
-2.20202
-87.8455
-156.814
-209.528
-247.069
-271.02
-283.26
-285.769
-280.465
-269.093
-253.161
-233.918
-212.362
-189.261
-165.187
-140.545
-115.608
-90.5459
-65.4539
-40.3751
2551.77
2548.68
2542.39
2532.69
2519.22
2501.56
2479.14
2451.3
2417.31
2376.31
2327.43
2269.77
2202.43
2124.62
2035.69
1935.22
1823.09
1699.54
1565.26
1421.4
1269.58
1111.87
950.744
789.024
629.758
476.114
331.216
197.975
78.8933
-24.1225
-109.92
-178.188
-229.459
-264.996
-286.598
-296.361
-296.449
-288.914
-275.58
-257.992
-237.401
-214.786
-190.882
-166.221
-141.171
-115.965
-90.7397
-65.5567
-40.4295
2557.6
2554.7
2548.8
2539.65
2526.94
2510.19
2488.84
2462.21
2429.49
2389.82
2342.23
2285.74
2219.36
2142.18
2053.44
1952.61
1839.47
1714.22
1577.52
1430.53
1274.95
1112.93
947.108
780.473
616.28
457.93
308.801
172.058
50.4359
-53.9823
-139.958
-207.214
-256.44
-289.159
-307.486
-313.823
-310.59
-300.019
-284.04
-264.236
-241.857
-217.847
-192.894
-167.477
-141.907
-116.368
-90.9473
-65.6643
-40.4924
2564.72
2562.07
2556.64
2548.21
2536.44
2520.85
2500.87
2475.76
2444.7
2406.73
2360.83
2305.88
2240.77
2164.46
2076.04
1974.81
1860.46
1733.09
1593.33
1442.37
1281.97
1114.45
942.604
769.651
599.111
434.682
280.072
138.784
13.8661
-92.3536
-178.511
-244.369
-290.832
-319.785
-333.775
-335.624
-328.088
-313.628
-294.294
-271.713
-247.114
-221.393
-195.169
-168.848
-142.671
-116.754
-91.1254
-65.751
-40.5553
2573.03
2570.66
2565.81
2558.25
2547.63
2533.46
2515.14
2491.92
2462.9
2427.06
2383.27
2330.28
2266.84
2191.7
2103.76
2002.16
1886.4
1756.49
1613.01
1457.18
1290.87
1116.56
937.262
756.472
578.032
406.01
244.529
97.5257
-31.5365
-139.996
-226.311
-290.284
-333.108
-357.159
-365.57
-361.719
-348.793
-329.529
-306.11
-280.189
-252.957
-225.232
-197.544
-170.203
-143.358
-117.045
-91.2206
-65.7854
-40.6077
2582.4
2580.37
2576.2
2569.65
2560.38
2547.9
2531.56
2510.6
2484.05
2450.81
2409.62
2359.09
2297.77
2224.17
2136.97
2035.06
1917.74
1784.87
1636.99
1475.34
1301.93
1119.43
931.129
740.835
552.776
371.47
201.546
47.4916
-86.6904
-197.889
-284.303
-345.772
-383.865
-401.623
-402.972
-392.019
-372.491
-347.438
-319.178
-289.363
-259.11
-229.128
-199.821
-171.38
-143.844
-117.151
-91.1699
-65.7311
-40.6378
2592.66
2591.02
2587.63
2582.26
2574.56
2564.02
2550.01
2531.71
2508.09
2477.97
2439.95
2392.45
2333.78
2262.21
2176.08
2074
1955.01
1818.78
1665.77
1497.29
1315.49
1123.28
924.264
722.623
523.028
330.523
150.355
-12.3035
-152.753
-267.274
-353.694
-411.864
-443.845
-453.58
-446.07
-426.373
-398.877
-366.982
-333.107
-298.863
-265.243
-232.797
-201.769
-172.197
-143.988
-116.966
-90.9033
-65.5476
-40.6317
2603.65
2602.45
2599.94
2595.9
2589.98
2581.68
2570.34
2555.12
2534.95
2508.53
2474.3
2430.5
2375.15
2306.18
2221.58
2119.57
1998.86
1858.87
1699.99
1523.57
1331.96
1128.36
916.747
701.711
488.424
282.538
90.0341
-83.0658
-231.163
-349.72
-436.016
-489.864
-513.96
-513.485
-494.905
-464.527
-427.53
-387.666
-347.406
-308.238
-270.96
-235.908
-203.118
-172.444
-143.633
-116.378
-90.3439
-65.1898
-40.5743
2615.17
2614.45
2612.92
2610.36
2606.44
2600.66
2592.37
2580.69
2564.51
2542.43
2512.73
2473.4
2422.16
2356.54
2274.07
2172.48
2050.05
1905.93
1740.36
1554.79
1351.81
1134.99
908.684
677.965
448.551
226.776
19.4826
-166.26
-323.702
-447.195
-533.213
-581.421
-595.33
-581.838
-549.443
-506.086
-457.869
-408.856
-361.46
-316.937
-275.795
-238.08
-203.569
-171.89
-142.607
-115.265
-89.4109
-64.6119
-40.4502
2626.99
2626.81
2626.35
2625.42
2623.7
2620.73
2615.86
2608.21
2596.62
2579.58
2555.23
2521.3
2475.12
2413.78
2334.2
2233.55
2109.53
1960.9
1787.76
1591.7
1375.63
1143.52
900.208
651.255
402.957
162.392
-62.5953
-263.659
-432.572
-562.185
-647.774
-688.642
-689.328
-659.159
-609.504
-550.444
-489.104
-429.737
-374.517
-324.309
-279.21
-238.887
-202.792
-170.289
-140.731
-113.499
-88.021
-63.7663
-40.2427
2638.88
2639.27
2639.97
2640.81
2641.5
2641.62
2640.56
2637.43
2631.06
2619.86
2601.81
2574.33
2534.38
2478.44
2402.77
2303.75
2178.37
2024.88
1843.21
1635.15
1404.04
1154.37
891.481
621.45
351.151
88.4355
-157.71
-377.386
-560.483
-697.823
-782.897
-814.242
-797.65
-745.958
-674.682
-596.702
-520.174
-449.275
-385.66
-329.589
-280.593
-237.855
-200.433
-167.382
-137.821
-110.959
-86.0946
-62.6077
-39.9362
2650.59
2651.58
2653.52
2656.25
2659.54
2663.02
2666.12
2668.03
2667.56
2663.07
2652.36
2632.6
2600.24
2551.13
2480.66
2384.22
2257.87
2099.18
1907.9
1686.12
1437.78
1168.01
882.708
588.449
292.635
3.86248
-267.606
-509.982
-710.779
-858.092
-942.752
-961.782
-922.407
-842.653
-744.198
-643.543
-549.665
-466.17
-393.787
-331.889
-279.259
-234.475
-196.124
-162.912
-133.702
-107.524
-83.5569
-61.0941
-39.5155
2661.83
2663.46
2666.69
2671.41
2677.46
2684.54
2692.19
2699.63
2705.76
2708.9
2706.74
2696.13
2673.03
2632.49
2568.88
2476.31
2349.59
2185.36
1983.19
1745.68
1477.63
1184.95
874.124
552.18
226.924
-92.447
-394.272
-664.469
-887.574
-1048.07
-1132.84
-1136.04
-1066.26
-949.446
-816.7
-689.085
-575.724
-478.812
-397.586
-330.195
-274.457
-228.212
-189.498
-156.63
-128.21
-103.093
-80.3451
-59.1919
-38.9683
2672.33
2674.61
2679.17
2685.96
2694.89
2705.78
2718.28
2731.76
2745.19
2756.96
2764.67
2764.89
2753.02
2723.23
2668.58
2581.6
2455.36
2285.26
2070.66
1815.04
1524.44
1205.74
866.002
512.632
153.612
-201.636
-539.951
-844.427
-1095.94
-1274.26
-1360.51
-1343.56
-1232.63
-1066.07
-889.945
-730.676
-595.949
-485.22
-395.519
-323.374
-265.393
-218.531
-180.205
-148.319
-121.212
-97.5846
-76.4136
-56.8764
-38.2848
2681.79
2684.73
2690.63
2699.52
2711.42
2726.26
2743.88
2763.83
2785.26
2806.68
2825.7
2838.67
2840.41
2824.04
2781.08
2701.96
2577.41
2401.05
2172.09
1895.43
1579.02
1230.91
858.631
469.868
72.4608
-324.79
-707.129
-1054.07
-1342.1
-1545.04
-1635.76
-1593.63
-1426.02
-1191.37
-960.344
-764.666
-607.279
-482.989
-385.803
-310.184
-251.254
-204.929
-167.951
-137.812
-112.62
-90.9552
-71.7402
-54.1362
-37.459
2689.93
2693.51
2700.73
2711.71
2726.58
2745.45
2768.37
2795.14
2825.2
2857.31
2889.2
2917.09
2935.25
2935.64
2907.85
2839.63
2718.46
2535.36
2289.46
1988.09
1642.12
1260.99
852.295
424.039
-16.4149
-462.784
-898.516
-1298.35
-1633.72
-1871.22
-1972.29
-1899.8
-1652.55
-1322.49
-1022.33
-786.142
-605.848
-469.22
-366.414
-289.325
-231.27
-186.987
-152.527
-125.02
-102.405
-83.203
-66.3328
-50.9787
-36.4917
2696.44
2700.64
2709.14
2722.14
2739.91
2762.78
2791.04
2824.86
2864.07
2907.84
2954.21
2999.47
3037.39
3058.65
3050.53
2997.27
2881.86
2691.3
2424.91
2094.05
1714.31
1296.46
847.205
375.325
-112.229
-616.02
-1117
-1583
-1980.21
-2266.85
-2389.17
-2282.45
-1920.9
-1453.52
-1067.56
-788.67
-586.802
-440.426
-335.11
-259.523
-204.804
-164.436
-133.859
-109.957
-90.6146
-74.38
-60.2332
-47.4286
-35.3888
2701.06
2705.83
2715.51
2730.39
2750.91
2777.61
2811.13
2852.03
2900.71
2956.94
3019.4
3084.7
3146.35
3193.63
3210.97
3178.14
3071.78
2872.64
2580.69
2213.92
1795.73
1337.85
843.384
323.705
-212.889
-784.009
-1365.6
-1914.58
-2393.15
-2750.48
-2913.27
-2772.86
-2244.06
-1573.3
-1084.16
-763.968
-543.916
-392.423
-289.546
-219.701
-171.495
-137.261
-112.066
-92.7765
-77.3905
-64.5993
-53.5206
-43.5316
-34.1627
2703.54
2708.8
2719.52
2736.08
2759.07
2789.31
2827.76
2875.54
2933.69
3002.92
3082.88
3171.06
3261.09
3340.87
3391.26
3386.17
3293.48
3083.87
2759.09
2347.3
1885.85
1386.14
840.394
268.242
-313.703
-964.702
-1647.4
-2300.19
-2886.65
-3347.53
-3583.6
-3418.95
-2642.83
-1662.68
-1056.41
-701.095
-468.796
-320.282
-227.589
-169.297
-131.469
-105.807
-87.5128
-73.7915
-62.9762
-54.0379
-46.3139
-39.3547
-32.8332
2703.65
2709.32
2720.88
2738.84
2763.93
2797.22
2840.06
2894.14
2961.36
3043.61
3142.07
3255.88
3379.69
3500.3
3593.91
3626.3
3553.6
3330.18
2962.41
2491.87
1982.69
1444.05
836.668
205.237
-404.75
-1153.58
-1965.74
-2746.53
-3476.79
-4095.5
-4461.92
-4289.99
-3151.89
-1694.89
-965.58
-583.341
-349.344
-218.733
-148.088
-108.79
-85.5965
-70.8912
-60.8492
-53.484
-47.7167
-42.9331
-38.7659
-34.9827
-31.4263
2701.21
2707.17
2719.36
2738.35
2765.04
2800.72
2847.12
2906.54
2981.83
3076.35
3193.46
3335.14
3498.7
3671.03
3822.15
3904.99
3860.27
3616.95
3193.72
2641.5
2081.04
1520.22
827.281
124.237
-465.921
-1342.31
-2325.22
-3257.33
-4176.43
-5055.24
-5669.41
-5465.9
-3821.11
-1658.01
-789.555
-377.036
-168.168
-84.2158
-52.466
-40.4202
-35.7526
-33.8683
-33.0103
-32.4904
-32.0415
-31.5704
-31.0575
-30.5159
-29.973
2696.09
2702.21
2714.75
2734.35
2762.03
2799.25
2848.11
2911.43
2993.05
3098
3232.44
3402.75
3611.92
3850.45
4080.94
4231.82
4222.55
3947.54
3459.85
2782.55
2166.38
1642.31
794.904
2.22345
-414.691
-1334.38
-2246.77
-3418.66
-4740.53
-6081.28
-7692.07
-9648.05
-5098.16
-1385.44
-479.316
2.643
92.8512
78.7889
52.72
31.1273
15.109
3.42647
-5.15387
-11.5556
-16.4361
-20.2644
-23.3843
-26.0598
-28.5064
2688.2
2694.34
2706.94
2726.68
2754.63
2792.41
2842.33
2907.66
2993.06
3105.15
3253.27
3449.83
3708.16
4031.29
4378.87
4624.31
4647.19
4316.55
3782.6
2885.86
2193.24
1861.76
629.639
-202.685
-861.487
0
0
0
0
0
0
0
0
4288.3
1364.77
772.076
413.909
244.433
153.57
98.865
63.3008
38.9141
21.4784
8.54576
-1.39616
-9.3335
-15.9444
-21.7243
-27.0625
2677.55
2683.56
2695.9
2715.26
2742.72
2779.95
2829.34
2894.38
2980.2
3094.56
3249.53
3464.17
3767.48
4193.43
4730.29
5123.86
5126.97
4691.23
4240.56
3291.95
2707.93
1822.79
0
0
0
0
0
0
0
0
0
0
6755.43
4058.61
1821.28
958.795
569.437
356.291
232.334
155.64
105.35
70.6894
45.7554
27.107
12.6238
0.928682
-8.92104
-17.6102
-25.674
2664.18
2669.91
2681.68
2700.13
2726.33
2761.86
2809.04
2871.25
2953.59
3063.97
3215.47
3431.41
3756.75
4280.96
5148.32
5972.98
5828.69
5418.6
4187.39
0
0
0
0
0
0
0
0
0
0
0
-884
384.988
1472.09
2111.85
1485.42
942.667
618.526
415.019
284.298
198.034
139.132
97.4301
66.8309
43.5737
25.2557
10.2786
-2.46906
-13.8043
-24.3706
2648.21
2653.52
2664.4
2681.46
2705.64
2738.37
2781.69
2838.59
2913.49
3013.18
3148.81
3340.7
3632.53
4143.37
5272.06
2855.01
0
0
0
0
0
0
-953.883
-895.01
-1028.04
-1406.75
-1747.87
-1593.58
-1232.4
-1011.64
-1104.96
307.88
1182.45
1502.14
1200.65
859.101
610.533
435.486
312.736
226.154
164.09
118.558
84.2399
57.5978
36.2474
18.5406
3.29629
-10.3727
-23.1759
2629.84
2634.59
2644.32
2659.53
2681.02
2709.96
2747.99
2797.43
2861.51
2944.86
3054.03
3198.03
3385.97
3605.3
3694.88
2456.1
-1369.8
-1113.61
-776.155
-894.957
-1002.85
-958.583
-1456.15
-1012.4
-991.66
-1119
-1184
-1068.5
-863.71
-878.896
-591.654
228.824
865.25
1102.14
969.294
757.649
574.65
431.724
323.386
242.062
180.828
134.147
97.8821
69.0402
45.4708
25.612
8.30141
-7.35996
-22.1068
2609.3
2613.38
2621.72
2634.72
2652.96
2677.33
2708.96
2749.35
2800.36
2864.08
2942.3
3034.39
3130.38
3189.81
3079.7
2257.78
661.01
-258.258
-507.426
-668.674
-850.046
-1088.92
-1093.14
-925.918
-893.393
-945.84
-963.155
-881.14
-734.893
-634.406
-360.348
181.852
635.31
828.288
784.707
657.749
526.925
413.884
321.745
248.443
190.569
144.71
107.946
77.9475
52.914
31.4619
12.5147
-4.78942
-21.1738
2586.89
2590.21
2596.99
2607.47
2622.07
2641.31
2665.81
2696.25
2733.13
2776.34
2823.95
2869.45
2895.05
2856.42
2645.3
1986.94
925.335
183.83
-165.715
-402.521
-601.115
-777.63
-827.632
-780.706
-767.257
-788.033
-783.508
-716.826
-598.913
-465.492
-224.447
151.11
476.689
636.666
639.354
567.218
476.116
388.709
312.21
247.884
194.733
150.994
114.808
84.5003
58.6581
36.1227
15.9464
-2.66055
-20.3801
2562.95
2565.45
2570.53
2578.32
2589.01
2602.81
2619.85
2640.05
2662.81
2686.32
2706.33
2713.43
2687.96
2589.99
2340.95
1810.1
1060.97
461.55
92.6527
-169.688
-374.727
-533.267
-610.477
-623.273
-630.73
-642.138
-630.018
-573.425
-473.816
-341.295
-139.273
130.919
368.92
501.025
526.113
488.796
426.971
360.53
298.037
242.572
194.69
153.818
118.944
88.9679
62.8508
39.6728
18.6355
-0.956588
-19.723
2537.83
2539.48
2542.79
2547.79
2554.47
2562.75
2572.33
2582.53
2591.92
2597.6
2594.08
2571.13
2510.23
2379.01
2125.41
1691.2
1132.11
642.634
290.031
26.0032
-178.685
-332.606
-426.382
-471.087
-495.367
-507.557
-495.705
-448.337
-364.179
-245.839
-81.2425
118.664
296.047
404.385
438.64
422.797
381.935
332.059
281.537
234.24
191.641
153.969
120.853
91.6601
65.6819
42.2251
20.6459
0.354298
-19.1946
2511.92
2512.7
2514.24
2516.44
2519.13
2521.99
2524.39
2525.21
2522.44
2512.63
2489.88
2444.35
2360.08
2212.65
1969.8
1608.18
1170.54
764.782
441.65
187.666
-12.2147
-164.28
-267.851
-330.597
-367.449
-384.492
-377.013
-339.134
-269.604
-169.705
-38.0195
112.671
247.038
335.321
371.544
368.37
342.092
304.93
264.298
224.201
186.574
152.155
121.02
92.8985
67.3587
43.9106
22.0562
1.31239
-18.7843
2485.6
2485.53
2485.31
2484.78
2483.63
2481.33
2477.02
2469.28
2455.82
2432.98
2395.03
2333.14
2234.4
2081.32
1854.95
1548.11
1192.05
849.978
558.923
320.267
128.02
-21.6971
-130.541
-203.836
-249.922
-273.06
-271.85
-243.689
-188.189
-107.033
-3.18035
111.598
214.506
285.988
320.394
324.164
307.715
280.056
247.37
213.415
180.276
148.973
119.879
92.9893
68.0913
44.8666
22.9504
1.96274
-18.4788
2459.25
2458.36
2456.46
2453.33
2448.54
2441.46
2431.04
2415.71
2393.08
2359.57
2309.92
2236.65
2129.73
1977.14
1768.36
1503.31
1204.6
911.35
650.446
428.831
245.791
99.5812
-11.4815
-90.9812
-143.844
-173.07
-178.755
-160.183
-117.871
-54.1107
26.6027
114.287
193.49
250.916
281.645
288.694
278.611
257.869
231.415
202.564
173.35
144.914
117.808
92.2122
68.0791
45.2312
23.4186
2.35471
-18.2638
2433.24
2431.57
2428.1
2422.53
2414.4
2402.95
2387.08
2365.16
2334.84
2292.79
2234.41
2153.56
2042.73
1893.96
1701.84
1469.12
1212.31
956.896
722.605
517.812
344.603
202.876
91.6243
8.58166
-49.2621
-84.0606
-96.5534
-87.0886
-56.8618
-8.56231
53.0363
119.734
180.593
226.235
252.501
260.529
254.343
238.492
216.814
192.109
166.244
140.369
115.125
90.8122
67.5032
45.1314
23.5432
2.53485
-18.1246
2407.92
2405.53
2400.6
2392.8
2381.63
2366.29
2345.65
2318.11
2281.47
2232.73
2168
2082.4
1970.46
1827.09
1649.89
1442.57
1217.31
991.588
780.081
590.916
427.492
290.832
180.693
95.7954
34.2932
-5.38575
-24.2242
-23.1383
-3.73629
31.142
76.9729
127.083
173.433
209.161
230.774
238.381
234.365
221.856
203.754
182.349
159.28
135.637
112.087
88.9977
66.5252
44.6859
23.4043
2.5487
-18.0469
2383.62
2380.57
2374.31
2364.51
2350.63
2331.87
2307.12
2274.88
2233.12
2179.25
2110.04
2021.72
1910.41
1773
1608.82
1421.67
1220.78
1018.59
826.285
651.131
497.003
365.619
257.37
171.706
107.531
63.6874
39.1446
32.7168
42.6021
65.9955
98.814
135.617
170.301
197.66
214.751
221.126
218.103
207.776
192.287
173.458
152.681
130.944
108.899
86.9416
65.2818
43.9965
23.0727
2.43772
-18.0177
2360.62
2356.98
2349.55
2337.97
2321.71
2299.99
2271.77
2235.64
2189.81
2132.08
2059.83
1970.2
1860.53
1729.04
1576.05
1405.09
1223.32
1039.97
863.698
700.821
555.238
429.043
323.091
237.353
171.241
123.908
94.3677
81.3424
82.989
96.6521
118.728
144.749
169.939
190.227
203.099
207.817
205.004
196.01
182.378
165.521
146.592
126.455
105.719
84.7839
63.8888
43.1529
22.6107
2.23862
-18.0244
2339.2
2335.05
2326.57
2313.44
2295.13
2270.9
2239.77
2200.48
2151.46
2090.88
2016.65
1926.67
1819.15
1693.23
1549.73
1391.86
1225.29
1057.09
894.133
741.832
603.903
482.604
379.094
293.71
226.216
176.002
142.168
123.45
118.06
123.549
136.764
153.996
171.412
185.727
194.771
197.658
194.561
186.296
173.94
158.565
141.099
122.282
102.665
82.634
62.4392
42.228
22.0707
1.98265
-18.057
2319.6
2314.99
2305.62
2291.15
2271.1
2244.76
2211.24
2169.41
2117.94
2055.3
1979.88
1890.14
1784.96
1664.06
1528.55
1381.29
1226.87
1070.9
918.922
775.605
644.384
527.553
426.45
341.661
273.196
220.633
183.176
159.627
148.305
146.985
152.915
162.973
174.008
183.299
188.945
189.995
186.325
178.373
166.858
152.572
136.247
118.504
99.8281
80.5796
61.0106
41.2851
21.4987
1.6976
-18.1061
2302.02
2297.03
2286.89
2271.3
2249.79
2221.7
2186.24
2142.41
2089.08
2024.99
1948.91
1859.76
1756.89
1640.41
1511.55
1372.86
1228.17
1082.03
939.052
803.253
677.793
564.92
466.067
381.984
312.856
258.404
217.939
190.355
174.102
167.171
167.149
171.371
177.187
182.287
184.979
184.29
179.906
171.995
161.005
147.501
132.053
115.167
97.2677
78.6841
59.6616
40.3725
20.9307
1.40551
-18.1641
2286.63
2281.32
2270.55
2254.03
2231.32
2201.83
2164.83
2119.44
2064.71
1999.63
1923.26
1834.86
1734.12
1621.41
1498
1366.19
1229.24
1090.96
955.254
825.642
705.017
595.548
498.709
415.35
345.779
289.833
246.92
216.031
195.748
184.257
179.428
178.947
180.534
182.184
182.365
180.108
174.976
166.942
156.255
143.301
128.511
112.299
95.0281
76.9968
58.4392
39.5309
20.3973
1.12574
-18.2241
2273.6
2268.02
2256.74
2239.47
2215.81
2185.2
2146.99
2100.42
2044.68
1978.94
1902.5
1814.87
1716
1606.41
1487.37
1361
1230.12
1098.01
968.072
843.432
726.755
620.119
525.005
442.324
372.469
315.365
270.504
236.973
213.471
198.355
189.716
185.511
183.734
182.603
180.712
177.105
171.262
163.024
152.49
139.911
125.606
109.911
93.1364
75.5515
57.3778
38.7897
19.9211
0.872147
-18.2816
2263.03
2257.25
2245.57
2227.72
2203.32
2171.86
2132.75
2085.3
2028.84
1962.67
1886.28
1799.37
1702.04
1594.92
1479.28
1357.07
1230.81
1103.42
977.909
857.126
743.549
639.171
545.461
463.366
393.336
335.363
289.009
253.438
227.452
209.545
197.982
190.919
186.549
183.253
179.718
175.005
168.542
160.08
149.608
137.274
123.317
108.007
91.6108
74.3725
56.502
38.1721
19.5209
0.657048
-18.332
2255.02
2249.09
2237.12
2218.84
2193.9
2161.83
2122.07
2074.02
2017.06
1950.64
1874.35
1788.02
1691.87
1586.59
1473.44
1354.24
1231.33
1107.34
985.054
867.096
755.808
653.115
560.47
478.837
408.706
350.114
302.676
265.62
237.826
217.89
204.202
195.061
188.801
183.915
179.157
173.602
166.647
157.982
147.522
135.344
121.624
106.584
90.4603
73.4764
55.8317
37.6959
19.2097
0.488412
-18.3723
2249.64
2243.62
2231.45
2212.9
2187.61
2155.14
2114.97
2066.53
2009.27
1942.7
1866.5
1780.59
1685.23
1581.17
1469.65
1352.41
1231.67
1109.9
989.712
873.604
763.824
662.25
570.32
489.005
418.82
359.831
311.688
273.663
244.69
223.43
208.358
197.864
190.369
184.437
178.868
172.747
165.453
156.637
146.169
134.081
120.507
105.64
89.6918
72.874
55.3785
37.3724
18.9975
0.372906
-18.4004
2246.94
2240.87
2228.61
2209.92
2184.46
2151.79
2111.42
2062.79
2005.39
1938.76
1862.61
1776.9
1681.95
1578.5
1467.78
1351.52
1231.84
1111.16
992.01
876.816
767.786
666.77
575.198
494.046
423.837
364.654
316.165
277.662
248.105
226.193
210.439
199.277
191.172
184.722
178.749
172.343
164.875
155.98
145.504
133.456
119.952
105.168
89.3076
72.5722
55.1502
37.2086
18.8897
0.313926
-18.415
10487.6
9234.29
8249.76
7462.68
6822.65
6289.07
5828.69
5416.42
5031.23
4651.82
4182.57
4187.39
4182.73
4167.83
4139.91
4095.61
4030.6
3938.84
3811.31
3634.38
3885.58
3892.97
3893.78
3888.16
3874.13
3849.13
3809.64
3750.48
3663.16
3533.08
3647.47
3657.64
3664.63
3669.88
3673.02
3673.91
3672.85
3670.86
3669.82
3670.72
3428.33
3440.5
3452.45
3466.11
3482.27
3502.37
3529.12
3567.38
3626.03
3721.68
3197.03
3210.54
3224.99
3242.5
3264.2
3291.95
3328.95
3380.88
3458.42
3583.08
2940.73
2955.03
2969.55
2986.59
3006.75
3030.89
3060.17
3095.97
3139.11
3186.19
2666.81
2680.26
2693.44
2707.93
2723.76
2740.86
2758.85
2776.9
2793.43
2806.8
-1337.7
-1300.4
-1261.07
-1216.52
-1165.9
-1108.13
-1041.72
-964.509
-873.093
-762.042
2092.52
2107.11
2120.09
2133.47
2146.91
2159.7
2170.59
2177.1
2174.25
2151.72
1807.85
1822.79
1837.25
1853.07
1870.44
1889.65
1911.26
1936.37
1967.18
2007.29
1512.08
1529.06
1546.07
1565.32
1587.47
1613.7
1646.32
1690.13
1756.34
1874.7
1203.81
1222.08
1239.58
1258.99
1280.76
1305.61
1334.72
1369.69
1411.76
1456.42
884.186
901.583
917.085
932.476
947.124
959.868
968.349
967.213
942.768
855.037
565.907
583.294
598.337
611.856
622.796
629.639
630.417
623.457
611.807
623.216
269.01
288.6
305.957
322.478
337.645
350.977
362.277
372.199
383.518
402.765
-6.18279
14.9081
33.5888
51.4062
67.6402
81.2001
90.1553
90.1504
68.7307
-16.1516
-263.124
-240.518
-220.79
-202.685
-187.464
-177.132
-174.797
-184.974
-212.287
-250.263
-489.25
-463.291
-439.574
-415.827
-392.535
-370.33
-349.848
-331.311
-313.25
-289.403
-690.77
-662.131
-633.891
-603.245
-569.842
-533.102
-492.051
-445.107
-390.209
-326.646
-892.166
-861.487
-830.002
-794.902
-755.732
-711.931
-662.916
-608.418
-550.034
-497.498
-1105.63
-1072.61
-1038.12
-999.456
-956.151
-907.724
-853.634
-792.934
-722.524
-629.2
2379.78
2393.63
2406.38
2419.58
2432.91
2445.72
2456.82
2463.77
2461.57
2438.64
6651.27
6560.59
6406.36
6211.74
5988.29
5741.47
5473.33
5183.7
4869.99
4525.3
4566.02
4567.98
4557.05
4532.23
4490.93
4430.71
4349.33
4244.71
4114.41
3954.07
8255.87
7743.76
7307.29
6916.79
6542.4
6171.47
5799.68
5425.07
5043.22
4640.32
5711.07
5688.88
5631.73
5541.03
5418.6
5266.77
5087.76
4883.63
4657.06
4415.22
5057.57
5053.22
5029.39
4984.75
4917.44
4826.62
4712.63
4577.16
4423.8
4258.13
8113.94
7069.55
6755.43
6356.48
5912.78
5452.42
4994.42
4550.87
4127.86
3724.25
4093.1
4007.78
4054.07
4013.14
3904.47
3742.81
3540.26
3307.25
3054.02
2795.29
-1588.29
-1547.18
-1503.93
-1454.71
-1398.56
-1334.38
-1260.94
-1177.43
-1085.49
-997.122
-1861.75
-1818.31
-1772.18
-1719.93
-1660.72
-1593.65
-1517.64
-1431.27
-1331.71
-1209.87
-2164.2
-2116.64
-2065.61
-2007.96
-1942.73
-1868.76
-1784.49
-1687.6
-1573.95
-1434.54
-2492.1
-2439.32
-2382.74
-2318.93
-2246.77
-2164.85
-2071.34
-1963.8
-1839.36
-1696.74
-2847.81
-2790.04
-2728.44
-2659.56
-2582.47
-2496.17
-2399.55
-2291.49
-2170.99
-2036.05
-3232.2
-3169.3
-3102.35
-3028.35
-2946.62
-2856.43
-2757.04
-2647.75
-2528.66
-2404.85
-3641.12
-3571.87
-3498.59
-3418.66
-3331.82
-3237.96
-3137.31
-3030.34
-2916.6
-2787.27
-4064.12
-3987.32
-3905.88
-3817.3
-3721.14
-3616.89
-3504.04
-3382.04
-3250.91
-3114.06
-4499.76
-4414.69
-4324.63
-4227.77
-4124.07
-4013.73
-3897.4
-3776.85
-3657.86
-3562.57
-4935.76
-4840.83
-4740.53
-4633.9
-4521.74
-4405.62
-4288.35
-4173.67
-4062.39
-3929.05
-5356.49
-5247.84
-5130.56
-5003.59
-4866.47
-4718.78
-4560.23
-4391.5
-4218.98
-4077.11
-5781.07
-5657.08
-5521.48
-5373.83
-5213.7
-5040.83
-4855.25
-4657.16
-4446.12
-4217.05
-6224.15
-6081.28
-5922.8
-5748.97
-5559.04
-5352.46
-5128.78
-4886.62
-4618.39
-4285.95
-6715.54
-6547.48
-6358.51
-6149.43
-5918.24
-5662.41
-5378.69
-5064.12
-4722.59
-4397.13
-7293.21
-7095.35
-6874.42
-6634.36
-6375.2
-6097.55
-5802.68
-5492.14
-5165.06
-4802.77
-7930.76
-7692.07
-7426.41
-7141.6
-6839.28
-6522.03
-6193.3
-5856.77
-5514.05
-5157.04
-8614.41
-8313.53
-7979.11
-7623.64
-7250.4
-6863.65
-6468.59
-6071.45
-5680.89
-5314.26
-9368.48
-8969.79
-8529.31
-8069.05
-7595.81
-7116.92
-6640.17
-6174.09
-5729.41
-5322.12
-10212.2
-9648.05
-9037.13
-8420.67
-7810.33
-7216.36
-6647.7
-6111.97
-5615.1
-5160.93
-11143.2
-10279.8
-9375.47
-8518.33
-7715.77
-6971.82
-6288.8
-5668.13
-5109.8
-4605.63
-11772.5
-10678.5
-9274.72
-8081.95
-7058.89
-6176.09
-5410.22
-4741.63
-4155.2
-3649.22
-10113.6
-9774.19
-7719.45
-6219.64
-5098.16
-4244.07
-3582.98
-3061.77
-2638.62
-2272.59
-1069.55
-1609.66
-591.454
-49.4092
222.684
338.438
362.794
333.905
274.336
196.452
10544.1
9525.42
8409.77
7369.68
6442.7
5628.23
4914.56
4288.3
3737.76
3254.2
6997.15
6906.46
6536.25
6134.04
5753.63
5412.52
5112.42
4851.79
4628.19
3164.1
4560.79
4802.04
4706.57
4548.86
4386.95
4237.08
4104.16
3990.01
1703.65
2024.25
2196.18
2305.94
2359.25
2361.5
2317.86
2233.22
2111.67
1954.03
413.319
726.564
926.774
1090.43
1215.72
1301.82
1348.56
1355.96
1323.3
1247.41
-381.768
-117.291
69.81
238.655
384.988
505.099
595.82
654.411
678.499
666.447
-891.447
-670.146
-503.885
-345.534
-198.961
-68.1555
42.9084
130.17
189.142
213.209
-1220.65
-1032.21
-884
-737.47
-595.315
-460.431
-335.663
-223.469
-124.738
-34.5464
-1430.04
-1266.09
-1133.05
-997.705
-861.459
-725.569
-590.737
-456.454
-320.096
-176.776
-1560.7
-1418.06
-1300.43
-1179.79
-1057.49
-935.267
-815.228
-700.082
-594.049
-506.703
-1629.42
-1504.66
-1400.64
-1293.96
-1186.4
-1080.7
-981.169
-894.32
-829.205
-793.081
-1642.1
-1529.43
-1433.38
-1332.54
-1227.65
-1119.97
-1011.64
-906.523
-812.784
-751.569
-1619.62
-1517.56
-1427.08
-1329.07
-1223.09
-1108.63
-985.031
-851.617
-708.153
-557.765
-1593.55
-1500.61
-1415.17
-1319.9
-1213.3
-1093.22
-956.236
-796.131
-599.547
-331.751
-1592.78
-1507.47
-1427.33
-1336.33
-1232.4
-1112.6
-972.588
-805.953
-604.188
-361.876
-1632.36
-1555.22
-1482.93
-1401.77
-1310.45
-1207.47
-1090.99
-959.076
-810.054
-643.106
-1700.47
-1630.78
-1566.77
-1496.63
-1419.91
-1336.2
-1245.17
-1146.52
-1039.53
-920.678
-1773.48
-1710.36
-1653.86
-1593.58
-1529.59
-1462.06
-1391.36
-1318.13
-1243.76
-1171.99
-1833.69
-1776.32
-1726.67
-1675.64
-1623.88
-1572.35
-1522.33
-1475.57
-1434.31
-1401.42
-1859.9
-1808.25
-1764.83
-1722.27
-1681.96
-1645.92
-1617.16
-1600.15
-1601.79
-1632.75
-1833.05
-1786.47
-1747.87
-1711.04
-1677.66
-1650.25
-1632.54
-1630.18
-1651.75
-1710.08
-1750.07
-1707.48
-1671.29
-1636.03
-1602.97
-1574.01
-1551.89
-1540.66
-1545.76
-1572.37
-1629.51
-1588.49
-1552.32
-1515.5
-1478.68
-1442.83
-1409.53
-1381.71
-1366.26
-1383.44
-1481.69
-1442.3
-1406.75
-1369.01
-1329.22
-1287.67
-1244.8
-1201.08
-1156.1
-1104.14
-1320.86
-1284.4
-1249.34
-1209.96
-1165.57
-1115.33
-1057.96
-991.259
-910.508
-802.479
-1176.17
-1141.57
-1106.28
-1064.97
-1016.38
-958.798
-889.908
-806.811
-707.086
-594.82
-1060.86
-1028.04
-993.631
-952.948
-904.659
-847.072
-778.008
-694.776
-594.483
-475.644
-976.204
-944.877
-911.822
-872.569
-825.751
-769.497
-700.959
-615.125
-501.414
-333.74
-918.897
-889.44
-858.297
-821.074
-776.516
-723.064
-658.733
-580.8
-484.394
-355.524
-895.01
-867.775
-838.805
-804.322
-763.24
-714.371
-656.881
-592.179
-531.459
-526.228
-904.192
-878.685
-852.81
-823.115
-789.054
-749.93
-704.578
-649.988
-575.854
-442.973
-923.91
-899.989
-876.253
-849.215
-818.397
-783.165
-742.422
-693.508
-628.182
-517.9
-953.883
-931.878
-909.214
-883.362
-853.827
-820.178
-782.555
-743.698
-716.869
-757.481
-1001.86
-981.016
-960.212
-937.77
-913.73
-888.291
-861.925
-835.312
-807.921
-768.714
-1045.49
-1025.29
-1006.35
-986.619
-966.253
-945.406
-923.968
-900.67
-870.142
-813.801
-1071.73
-1053.06
-1035.47
-1017.08
-998.021
-978.448
-958.583
-938.749
-919.802
-905.308
-1091.24
-1072.83
-1055.13
-1036.67
-1017.57
-998.024
-978.35
-959.39
-943.896
-941.999
-1100.81
-1082.65
-1065.49
-1047.99
-1030.48
-1013.4
-997.356
-983.039
-970.568
-955.953
-1096.61
-1079.29
-1062.86
-1046.44
-1030.46
-1015.59
-1002.85
-993.723
-990.079
-993.521
-1081.58
-1063.88
-1047.14
-1030.46
-1014.38
-999.809
-988.214
-982.169
-986.636
-1013.28
-1048.2
-1030.39
-1013.32
-995.719
-978.075
-961.312
-947.154
-938.65
-940.573
-956.65
-1003.98
-985.916
-966.89
-945.494
-921.539
-894.957
-866.021
-836.077
-810.353
-809.868
-964.626
-945.701
-923.843
-897.446
-865.57
-826.971
-779.721
-720.087
-638.8
-507.884
-948.475
-927.724
-902.081
-869.478
-828.312
-776.546
-711.434
-628.932
-522.339
-379.062
-977.589
-954.834
-925.49
-887.17
-838.052
-776.155
-699.516
-606.923
-500.839
-398.655
-1072.1
-1047.06
-1013.46
-968.883
-911.648
-840.232
-753.15
-648.585
-523.255
-368.547
-1252.28
-1222.35
-1179.37
-1121.31
-1047.65
-958.602
-854.633
-735.573
-598.253
-429.066
-1560.73
-1516.57
-1446.7
-1353.32
-1240.75
-1113.61
-976.262
-832.979
-689.215
-557.119
-2171.72
-2050.72
-1878.96
-1685.63
-1485.4
-1285.45
-1089.95
-902.55
-727.413
-567.324
-3778.97
-3018.72
-2481.99
-2072.1
-1725.86
-1417.73
-1138.95
-888.776
-671.572
-498.485
-8065.98
-4780.64
-3378.61
-2480.79
-1847.66
-1369.8
-992.449
-688.4
-444.631
-260.292
-7321.63
-733.727
841.154
1650.85
2008.5
2183.5
2272.58
2338
2523.66
3329.71
2778.77
3042.3
3033.71
3073.06
3066.72
3023.41
2952.83
2855.01
2714.35
-4099.72
-795.982
501.109
1090.58
1416.16
1609.92
1723.54
1778.62
1782.1
-4683.96
-2088.63
-1002.52
-299.728
186.18
550.136
847.891
1115.32
1378.92
-6578.27
-3934.11
-2441.24
-1529.06
-912.583
-465.22
-119.856
165.198
426.749
-3979.92
-2524.38
2875.32
1408.3
4373.79
-1967.21
-1261.44
-934.933
2279.9
2793.73
-3786.87
-3281.93
-188.102
-1605.27
-847.846
-1321.33
5898.04
1610.22
3694.88
1516.87
4647.19
925.335
-975.965
-1265.69
1609.01
4417.69
526.339
-240.66
2705.82
4151.86
-117.853
4820.15
-186.94
1970.99
1648.18
-1398.02
-1226.35
2991.81
448.177
-183.145
-39.5818
-3116.27
-689.715
942.667
-971.606
2997.18
5272.06
-1489.1
-1000.4
-4182.14
-192.369
2611.77
134.375
-4177.98