/*--------------------------------*- C++ -*----------------------------------*\
| =========                 |                                                 |
| \\      /  F ield         | foam-extend: Open Source CFD                    |
|  \\    /   O peration     | Version:     4.1                                |
|   \\  /    A nd           | Web:         http://www.foam-extend.org         |
|    \\/     M anipulation  |                                                 |
\*---------------------------------------------------------------------------*/
FoamFile
{
    version     2.0;
    format      ascii;
    class       surfaceScalarField;
    location    "0";
    object      phi;
}
// * * * * * * * * * * * * * * * * * * * * * * * * * * * * * * * * * * * * * //

dimensions      [0 3 -1 0 0 0 0];

internalField   nonuniform List<scalar> 
8438
(
-0.60658129
6.9146183e-06
-0.60660325
2.1964504e-05
-0.60664394
4.0686051e-05
-0.60670949
6.5554831e-05
-0.60680856
9.907175e-05
-0.60695231
0.00014374145
-0.60715432
0.0002020151
-0.60743051
0.00027619403
-0.6077988
0.00036828182
-0.60827858
0.00047978512
-0.60889005
0.00061146626
-0.60965311
0.00076306236
-0.61058611
0.00093299737
-0.61170423
0.0011181262
-0.61301779
0.0013135568
-0.61453041
0.0015126148
-0.61623735
0.0017069467
-0.6181242
0.0018868497
-0.62016597
0.0020417679
-0.6223269
0.002160929
-0.62456099
0.0022340897
-0.6268133
0.0022523101
-0.62902201
0.0022087097
-0.63112117
0.0020991575
-0.63304402
0.0019228528
-0.63472677
0.0016827505
-0.63611253
0.0013857581
-0.63715517
0.0010426382
-0.63782269
0.00066752667
-0.63809972
0.00027702539
-0.63798861
-0.00011110861
-0.63750905
-0.00047955717
-0.63669596
-0.00081309266
-0.63559596
-0.001100002
-0.63426294
-0.001333014
-0.63275337
-0.0015095714
-0.63112192
-0.0016314485
-0.62941805
-0.0017038734
-0.62768366
-0.0017343916
-0.62595194
-0.0017317161
-0.6242472
-0.0017047417
-0.62258538
-0.0016618216
-0.62097506
-0.0016103183
-0.61941866
-0.0015563959
-0.61791367
-0.0015049898
-0.61645379
-0.0014598891
-0.61502991
-0.0014238756
-0.61363104
-0.0013988741
-0.0013860857
-0.60657445
1.3286722e-05
-0.60659478
4.229715e-05
-0.60663274
7.8639987e-05
-0.60669445
0.00012726594
-0.60678856
0.00019318682
-0.60692626
0.0002814366
-0.6071212
0.00039696114
-0.60738944
0.00054442847
-0.60774909
0.00072793441
-0.60821991
0.00095060216
-0.60882252
0.0012140813
-0.60957743
0.0015179739
-0.61050368
0.0018592417
-0.61161722
0.0022316726
-0.61292917
0.002625503
-0.61444389
0.0030273293
-0.61615724
0.003420305
-0.6180552
0.0037848039
-0.62011286
0.0040994274
-0.62229423
0.0043423022
-0.62455274
0.0044925969
-0.62683252
0.0045320957
-0.62907054
0.0044467308
-0.63119937
0.004227982
-0.63315058
0.00387406
-0.63485861
0.003390785
-0.63626487
0.002792017
-0.63732173
0.0020994948
-0.63799609
0.001341893
-0.63827206
0.0005529986
-0.63815221
-0.00023096629
-0.63765713
-0.00097463112
-0.63682332
-0.0016469078
-0.63569936
-0.0022239581
-0.63434126
-0.0026911188
-0.63280738
-0.0030434447
-0.63115396
-0.0032848753
-0.62943146
-0.0034263714
-0.62768231
-0.0034835357
-0.6259398
-0.0034742311
-0.62422797
-0.00341657
-0.62256234
-0.0033274575
-0.62095094
-0.0032217114
-0.61939567
-0.0031116732
-0.61789348
-0.0030071767
-0.61643763
-0.0029157392
-0.61501865
-0.0028428567
-0.6136252
-0.0027923197
-0.0027664873
-0.6065617
1.8575725e-05
-0.60657878
5.9370954e-05
-0.60661127
0.00011113477
-0.6066653
0.00018129027
-0.60674949
0.00027737824
-0.60687506
0.00040700957
-0.60705581
0.00057771043
-0.60730803
0.00079664583
-0.60765028
0.0010701819
-0.60810295
0.0014032809
-0.60868761
0.0017987349
-0.60942591
0.0022562744
-0.6103383
0.0027716359
-0.61144234
0.0033357064
-0.61275073
0.0039338996
-0.61426938
0.0045459768
-0.61599539
0.0051463184
-0.61791552
0.0057049263
-0.62000506
0.0061889757
-0.62222759
0.0065648226
-0.62453534
0.0068003472
-0.62687062
0.0068673767
-0.62916792
0.0067440343
-0.63135682
0.0064168838
-0.63336552
0.0058827584
-0.63512488
0.0051501499
-0.63657281
0.0042399447
-0.63765859
0.0031852758
-0.63834687
0.0020301674
-0.63862065
0.00082678097
-0.63848288
-0.00036873515
-0.63795608
-0.0015014332
-0.63707994
-0.0025230461
-0.63590714
-0.0033967542
-0.634498
-0.0041002617
-0.63291484
-0.0046266051
-0.631217
-0.0049827178
-0.62945702
-0.0051863508
-0.62767833
-0.0052622219
-0.62591433
-0.0052382384
-0.62418852
-0.0051423772
-0.62251549
-0.0050004866
-0.62090219
-0.0048350126
-0.61934937
-0.0046644878
-0.61785299
-0.0045035601
-0.61640539
-0.0043633428
-0.61499634
-0.0042519069
-0.61361387
-0.0041747858
-0.0041354082
-0.60654357
2.2245272e-05
-0.60655577
7.1569831e-05
-0.60658009
0.00013545548
-0.60662259
0.00022378881
-0.60669187
0.00034666189
-0.60679919
0.00051432926
-0.60695851
0.00073702216
-0.60718646
0.0010245963
-0.60750223
0.0013859568
-0.6079272
0.0018282465
-0.60848426
0.0023557948
-0.60919686
0.0029688764
-0.61008761
0.0036623817
-0.61117647
0.0044245714
-0.6124787
0.0052361312
-0.61400256
0.0060698388
-0.61574712
0.0068908772
-0.61770038
0.0076581872
-0.61983802
0.0083266141
-0.62212291
0.0088497084
-0.62450554
0.0091829843
-0.62692544
0.0092872674
-0.62931332
0.0091319191
-0.63159421
0.008697774
-0.63369112
0.0079796724
-0.63552942
0.0069884463
-0.63704155
0.0057520785
-0.63817197
0.0043156966
-0.63888171
0.0027398988
-0.63915199
0.0010970654
-0.6389863
-0.00053442323
-0.63841013
-0.0020776064
-0.63746826
-0.0034649199
-0.63621981
-0.004645195
-0.63473193
-0.0055881443
-0.63307311
-0.0062854235
-0.6313075
-0.0067483291
-0.62949074
-0.0070031133
-0.62766767
-0.0070852879
-0.62587172
-0.0070341914
-0.62412546
-0.0068886418
-0.62244195
-0.0066839971
-0.6208264
-0.0064505585
-0.61927785
-0.006213037
-0.61779067
-0.0059907389
-0.61635586
-0.0057981548
-0.61496206
-0.005645706
-0.61359637
-0.005540477
-0.005486828
-0.6065215
2.3766367e-05
-0.60652723
7.7297113e-05
-0.60654068
0.00014891056
-0.60656783
0.00025093607
-0.60661721
0.00039603745
-0.60670007
0.00059719297
-0.60683055
0.00086749777
-0.6070257
0.0012197527
-0.60730551
0.0016657633
-0.60769258
0.0022153192
-0.60821163
0.0028748399
-0.60888849
0.0036457343
-0.6097487
0.0045226009
-0.61081562
0.0054914898
-0.61210802
0.0065285266
-0.61363751
0.0075993291
-0.61540594
0.0086593114
-0.61740315
0.0096553974
-0.61960538
0.010528844
-0.62197463
0.011218957
-0.62445904
0.011667395
-0.62699433
0.011822549
-0.62950612
0.011643713
-0.63191321
0.011104866
-0.63413151
0.010197976
-0.63607876
0.0089356934
-0.63767979
0.007353107
-0.63887217
0.0055080798
-0.6396117
0.0034794235
-0.63987694
0.0013623076
-0.63967201
-0.00073935819
-0.63902656
-0.0027230547
-0.63799267
-0.0044988107
-0.63663875
-0.0059991133
-0.63504168
-0.0071852136
-0.63327869
-0.0080484074
-0.63142059
-0.0086064383
-0.62952711
-0.0088965906
-0.62764481
-0.0089675851
-0.62580688
-0.0088721231
-0.62403435
-0.0086611705
-0.62233804
-0.0083803045
-0.62072068
-0.0080679188
-0.6191789
-0.00775482
-0.61770493
-0.007464711
-0.61628795
-0.0072151285
-0.61491514
-0.0070185183
-0.61357238
-0.0068832434
-0.0068144035
-0.60649786
2.262168e-05
-0.60649555
7.4987643e-05
-0.60649549
0.00014884916
-0.60650349
0.00025893816
-0.60652795
0.00042050064
-0.60658008
0.00064932347
-0.60667414
0.00096155115
-0.60682763
0.0013732399
-0.60706141
0.0018995497
-0.60739961
0.0025535188
-0.60786916
0.0033443857
-0.60849892
0.0042754937
-0.60931824
0.0053419214
-0.61035486
0.0065281155
-0.61163226
0.0078059247
-0.61316656
0.0091336265
-0.61496339
0.01045614
-0.61701511
0.011707117
-0.61929882
0.012812557
-0.62177548
0.013695618
-0.62439024
0.014282155
-0.62707396
0.014506272
-0.62974576
0.014315512
-0.63231643
0.013675532
-0.63469268
0.012574233
-0.63678229
0.011025297
-0.63849996
0.0090707764
-0.63977395
0.0067820761
-0.64055279
0.0042582638
-0.64081117
0.0016206833
-0.6405538
-0.00099672411
-0.63981594
-0.0034609211
-0.63865962
-0.0056551254
-0.63716606
-0.0074926774
-0.63542548
-0.0089257977
-0.63352686
-0.0099470195
-0.6315497
-0.010583605
-0.62955882
-0.010887472
-0.62760254
-0.010923863
-0.62571328
-0.010761385
-0.62390967
-0.010464772
-0.62219936
-0.010090621
-0.62058168
-0.0096855963
-0.61905011
-0.0092863856
-0.61759415
-0.0089206718
-0.61620072
-0.0086085592
-0.61485517
-0.0083640707
-0.61354193
-0.0081964835
-0.0081113837
-0.60647459
1.8311393e-05
-0.60646272
6.3124595e-05
-0.60644656
0.00013268668
-0.60643168
0.00024406279
-0.60642626
0.00041507093
-0.60644132
0.00066438494
-0.60649117
0.0010113996
-0.60659371
0.0014757845
-0.60677076
0.0020765986
-0.60704811
0.002830875
-0.60745533
0.0037516021
-0.60802495
0.0048451109
-0.60879104
0.0061080125
-0.60978694
0.0075240172
-0.61104218
0.0090611598
-0.61257878
0.010670227
-0.61440739
0.012284757
-0.6165238
0.013823522
-0.61890635
0.015195104
-0.6215148
0.016304067
-0.62429063
0.017057992
-0.62715874
0.017374384
-0.6300302
0.017186965
-0.63280589
0.016451229
-0.6353811
0.015149441
-0.63765097
0.013295161
-0.63951716
0.01093697
-0.64089565
0.0081605666
-0.64172505
0.0050876679
-0.64197446
0.001870093
-0.641649
-0.0013221836
-0.64079114
-0.0043187841
-0.63947631
-0.0069699523
-0.637803
-0.0091659886
-0.63587935
-0.010849448
-0.63380979
-0.012016581
-0.63168475
-0.012708647
-0.62957499
-0.012997231
-0.62753032
-0.012968528
-0.62558145
-0.012710261
-0.62374338
-0.012302836
-0.62201935
-0.011814659
-0.62040425
-0.01130069
-0.61888757
-0.010803064
-0.61745544
-0.01035281
-0.61609206
-0.0099719348
-0.61478069
-0.0096754448
-0.61350411
-0.0094730625
-0.0093705418
-0.60645452
1.0360925e-05
-0.60643166
4.0262052e-05
-0.60639691
9.7940187e-05
-0.60635553
0.00020268394
-0.6063153
0.00037483922
-0.60628694
0.00063602369
-0.60628462
0.0010090836
-0.60632653
0.0015176939
-0.60643538
0.0021854421
-0.60663875
0.003034253
-0.60696918
0.0040820265
-0.60746351
0.0053394424
-0.60816156
0.0068060575
-0.60910361
0.0084660725
-0.61032689
0.010284441
-0.61186106
0.012204396
-0.61372334
0.01414704
-0.61591406
0.016014234
-0.61841332
0.017694371
-0.62117957
0.019070309
-0.62414986
0.020028286
-0.62724189
0.020466413
-0.63035704
0.020302112
-0.63338431
0.019478503
-0.63620507
0.017970203
-0.63869889
0.015788983
-0.64075096
0.012989035
-0.64226122
0.0096708325
-0.64315493
0.0059813721
-0.64339309
0.002108259
-0.64298067
-0.0017346104
-0.64196928
-0.0053301721
-0.64045217
-0.0084870597
-0.63855105
-0.011067111
-0.63639792
-0.013002577
-0.63411722
-0.014297282
-0.63181285
-0.015013013
-0.62956208
-0.015248007
-0.62741539
-0.015115221
-0.62540022
-0.014725429
-0.62352626
-0.014176788
-0.62179076
-0.013550161
-0.62018293
-0.012908519
-0.61868731
-0.012298687
-0.61728601
-0.011754112
-0.61596014
-0.011297806
-0.61469059
-0.010944993
-0.61345839
-0.010705258
-0.010584135
-0.60644138
-1.6692248e-06
-0.60640617
5.0541706e-06
-0.60635051
4.2275645e-05
-0.60627917
0.00013134408
-0.60619937
0.00029503949
-0.60612128
0.00055793986
-0.60605872
0.0009465229
-0.6060299
0.0014888754
-0.60605828
0.0022138132
-0.60617323
0.0031492034
-0.60641048
0.0043192767
-0.60681183
0.0057407967
-0.60742392
0.0074181471
-0.60829559
0.0093377406
-0.60947374
0.011462588
-0.61099782
0.013728478
-0.61289363
0.016042851
-0.61516748
0.018288085
-0.61780195
0.020328838
-0.62075395
0.022022314
-0.62395529
0.023229625
-0.62731506
0.023826187
-0.63072324
0.023710287
-0.63405482
0.022810084
-0.63717466
0.021090045
-0.63994347
0.018557794
-0.64222587
0.015271436
-0.64390114
0.011346102
-0.64487647
0.0069567
-0.64510119
0.0023329835
-0.64457885
-0.002256952
-0.6433725
-0.0065365265
-0.64159902
-0.010260539
-0.63941141
-0.013254716
-0.6369735
-0.015440489
-0.63443548
-0.016835306
-0.63191745
-0.017531041
-0.62950322
-0.017662241
-0.6272423
-0.017376139
-0.62515653
-0.016811198
-0.62324792
-0.016085401
-0.62150574
-0.015292336
-0.61991205
-0.014502211
-0.61844543
-0.013765308
-0.61708336
-0.013116184
-0.61580348
-0.01257768
-0.61458419
-0.012164284
-0.61340471
-0.011884739
-0.011743896
-0.60643839
-1.8171305e-05
-0.60638963
-4.3708412e-05
-0.60631092
-3.6431984e-05
-0.60620641
2.6836397e-05
-0.60608252
0.00017114906
-0.60594858
0.00042399695
-0.60581768
0.00081562025
-0.60570771
0.0013789079
-0.60564255
0.0021486499
-0.60565319
0.0031598501
-0.60577869
0.0044447729
-0.60606634
0.0060284485
-0.60657077
0.0079225732
-0.6073512
0.010118176
-0.60846668
0.012578066
-0.60996921
0.015231008
-0.61189574
0.017969381
-0.61426048
0.020652822
-0.61704929
0.023117652
-0.62021737
0.025190391
-0.62369015
0.026702408
-0.62736658
0.027502612
-0.63112333
0.02746704
-0.63481928
0.026506035
-0.63830011
0.024570872
-0.64140408
0.021661763
-0.64397047
0.017837826
-0.64585199
0.013227625
-0.64693146
0.0080361676
-0.64714117
0.0025426942
-0.64648089
-0.0029172321
-0.64502762
-0.0079897969
-0.64292976
-0.01235839
-0.64038287
-0.015801612
-0.63759342
-0.018229939
-0.63474469
-0.019684032
-0.63197576
-0.020299974
-0.62937606
-0.020261942
-0.62699121
-0.019760986
-0.62483395
-0.018968459
-0.62289544
-0.01802391
-0.62115457
-0.017033204
-0.61958454
-0.016072249
-0.61815693
-0.015192916
-0.61684402
-0.014429093
-0.61561975
-0.013801951
-0.61445995
-0.013324086
-0.61334211
-0.013002573
-0.012841059
-0.60644959
-3.9475822e-05
-0.60638625
-0.00010705477
-0.60628265
-0.00014002489
-0.60614213
-0.00011369109
-0.60597
-9.789763e-07
-0.60577438
0.00022837611
-0.60556718
0.0006084224
-0.60536545
0.0011771831
-0.60519298
0.0019761719
-0.60508197
0.0030488424
-0.60507469
0.00443749
-0.60522436
0.006178123
-0.6055948
0.0082930092
-0.60625776
0.010781139
-0.60728746
0.013607762
-0.60875201
0.016695564
-0.61070295
0.019920316
-0.61316485
0.023114723
-0.61612792
0.026080726
-0.61954521
0.028607677
-0.62333435
0.030491551
-0.62738223
0.031550491
-0.63155029
0.031635096
-0.63567919
0.030634942
-0.63959289
0.028484566
-0.64310345
0.025172321
-0.64601929
0.020753666
-0.64815914
0.015367483
-0.64937284
0.0092498641
-0.64956764
0.0027374951
-0.6487352
-0.0037496728
-0.64696905
-0.0097559427
-0.64445993
-0.014867517
-0.64146197
-0.01879957
-0.63823953
-0.021452381
-0.63501829
-0.022905269
-0.6319587
-0.023359561
-0.62915326
-0.023067388
-0.62663883
-0.022275418
-0.624414
-0.021193284
-0.62245498
-0.019982934
-0.62072733
-0.018760848
-0.61919357
-0.017606011
-0.6178173
-0.016569185
-0.61656514
-0.015681254
-0.61540722
-0.014959875
-0.6143169
-0.014414398
-0.61327018
-0.014049297
-0.013866439
-0.60647978
-6.5834878e-05
-0.60640105
-0.00018578283
-0.6062711
-0.00026997513
-0.60609218
-0.00029260901
-0.60586821
-0.00022494841
-0.60560562
-3.4218538e-05
-0.60531455
0.00031735147
-0.6050105
0.0008731345
-0.60471638
0.0016820577
-0.60446494
0.0027974005
-0.60430122
0.0042737693
-0.60428456
0.0061614627
-0.60448911
0.0084975593
-0.60500162
0.01129365
-0.60591526
0.014521399
-0.60731894
0.018099249
-0.60928335
0.021884729
-0.61184677
0.025678142
-0.61500498
0.029238937
-0.61870808
0.032310775
-0.62286386
0.034647333
-0.62734478
0.036031409
-0.63199496
0.036285269
-0.63663507
0.035275058
-0.64106516
0.032914651
-0.64506745
0.029174614
-0.6484133
0.024099518
-0.65087824
0.017832425
-0.65226739
0.010639005
-0.65245099
0.0029210955
-0.65140481
-0.0047958465
-0.64924102
-0.011919731
-0.64620766
-0.017900877
-0.64264115
-0.022366082
-0.63888541
-0.025208124
-0.63522035
-0.026570327
-0.631829
-0.026750912
-0.62880143
-0.026094965
-0.62615803
-0.024918814
-0.62387622
-0.023475094
-0.62191198
-0.021947175
-0.62021422
-0.020458605
-0.61873291
-0.019087325
-0.61742282
-0.017879279
-0.61624468
-0.016859391
-0.61516493
-0.016039622
-0.61415479
-0.015424543
-0.61318906
-0.015015025
-0.014810548
-0.60653294
-9.7403616e-05
-0.60643832
-0.00028040226
-0.60628101
-0.0004272846
-0.60606196
-0.00051165762
-0.60578329
-0.00050361557
-0.60544921
-0.00036829736
-0.60506738
-6.4480677e-05
-0.60465083
0.00045657933
-0.60422053
0.0012517571
-0.60380863
0.0023855027
-0.6034621
0.0039272377
-0.60324615
0.0059455121
-0.60324626
0.0084976677
-0.60356691
0.011614302
-0.60432496
0.015279455
-0.60563636
0.01941065
-0.60759724
0.023845603
-0.61026405
0.028344953
-0.61363957
0.032614461
-0.61766946
0.036340663
-0.62224857
0.03922644
-0.6272318
0.041014645
-0.63244378
0.041497249
-0.63768398
0.040515257
-0.64272724
0.03795791
-0.64732289
0.033770263
-0.65119852
0.027975146
-0.65407516
0.020709067
-0.65569741
0.012261253
-0.65588058
0.0031042659
-0.65457082
-0.0061056014
-0.65189915
-0.014591402
-0.64819204
-0.021607987
-0.64390413
-0.026653997
-0.63949068
-0.029621573
-0.63530046
-0.030760546
-0.63153732
-0.030514053
-0.62827854
-0.029353743
-0.62551622
-0.027681128
-0.62319699
-0.025794325
-0.62125024
-0.023893926
-0.61960461
-0.022104232
-0.61819585
-0.020496089
-0.61696938
-0.019105747
-0.61588019
-0.017948587
-0.61489141
-0.017028394
-0.61397263
-0.016343328
-0.61309803
-0.015889623
-0.015663778
-0.60661442
-0.00013422062
-0.60650375
-0.00039107341
-0.60631866
-0.00061237603
-0.60605853
-0.00077177926
-0.6057233
-0.00083885075
-0.60531433
-0.00077726404
-0.60483595
-0.00054286548
-0.60429756
-8.180603e-05
-0.60371679
0.00067098188
-0.60312356
0.0017922763
-0.60256523
0.0033689109
-0.602112
0.0054922811
-0.60186123
0.0082468968
-0.60193809
0.011691154
-0.60248904
0.015830405
-0.60366543
0.020587043
-0.60559767
0.025777843
-0.60836664
0.031113924
-0.61198363
0.036231455
-0.61638704
0.040744073
-0.62145396
0.044293357
-0.62701747
0.046578149
-0.63288038
0.047360163
-0.63882073
0.046455612
-0.64458858
0.043725753
-0.64989866
0.039080342
-0.65442805
0.032504535
-0.6578299
0.024110926
-0.65976734
0.014198688
-0.65997401
0.0033109387
-0.65834245
-0.0077371646
-0.65501779
-0.017916057
-0.65043487
-0.02619091
-0.64522321
-0.031865661
-0.63999704
-0.034847736
-0.63519106
-0.03556653
-0.63102178
-0.034683337
-0.62753531
-0.032840213
-0.6246778
-0.030538639
-0.62235252
-0.028119598
-0.62045497
-0.025791477
-0.61889003
-0.023669171
-0.61757807
-0.021808052
-0.61645524
-0.020228579
-0.61547136
-0.018932465
-0.61458709
-0.017912666
-0.61377113
-0.017159287
-0.61299781
-0.016662949
-0.016416634
-0.60672858
-0.00017618804
-0.6066021
-0.00051754464
-0.6063895
-0.0008249783
-0.60608835
-0.0010729366
-0.60569593
-0.0012312686
-0.60521016
-0.0012630353
-0.60463103
-0.0011219884
-0.60396299
-0.00074984846
-0.60321843
-7.3573978e-05
-0.60242283
0.00099667643
-0.60162151
0.0025675904
-0.60088773
0.0047584966
-0.60033045
0.0076896184
-0.60009841
0.011459108
-0.60037498
0.016106983
-0.60135841
0.021570473
-0.60322607
0.027645501
-0.60609218
0.033980034
-0.60997803
0.040117299
-0.61480958
0.045575633
-0.6204385
0.049922272
-0.6266699
0.052809553
-0.6332824
0.053972661
-0.640034
0.053207211
-0.64665321
0.05034496
-0.65282124
0.045248372
-0.65815854
0.037841837
-0.66223534
0.028187732
-0.66460634
0.016569683
-0.66488428
0.0035888802
-0.6628664
-0.0097550441
-0.65869551
-0.022086953
-0.65295698
-0.031929433
-0.64654858
-0.03827407
-0.64031651
-0.041079804
-0.63479853
-0.041084506
-0.63020261
-0.039279256
-0.62651239
-0.036530439
-0.62360267
-0.033448356
-0.6213178
-0.030404463
-0.61951173
-0.027597553
-0.61806287
-0.025118026
-0.61687608
-0.02299484
-0.61587919
-0.021225474
-0.61501812
-0.019793535
-0.61425226
-0.018678528
-0.61355054
-0.017861005
-0.61288833
-0.017325154
-0.017060016
-0.60688014
-0.00022305301
-0.60673859
-0.00065909269
-0.60649956
-0.001064014
-0.60615857
-0.0014139268
-0.6057099
-0.0016799394
-0.60514732
-0.0018256116
-0.60446549
-0.0018038193
-0.60366228
-0.0015530615
-0.60274262
-0.00099322998
-0.6017245
-2.144025e-05
-0.60064763
0.0014907182
-0.59958486
0.0036957278
-0.59865498
0.0067597323
-0.59803252
0.010836656
-0.59794663
0.016021087
-0.59865826
0.022282105
-0.60041057
0.029397807
-0.60336436
0.036933826
-0.60755195
0.044304889
-0.6128776
0.050901279
-0.61915511
0.056199787
-0.62615281
0.059807256
-0.63362245
0.061442294
-0.64130595
0.060890718
-0.6489182
0.057957211
-0.65611287
0.052443039
-0.66244909
0.044178056
-0.66739876
0.033137401
-0.67037542
0.019546347
-0.67081475
0.0040282085
-0.66834709
-0.012222708
-0.66306978
-0.027364258
-0.65577666
-0.039222553
-0.64779541
-0.046255321
-0.64031844
-0.048556775
-0.63399604
-0.047406903
-0.62898076
-0.044294537
-0.62514242
-0.040368782
-0.62224967
-0.0363411
-0.62007014
-0.032584002
-0.61840956
-0.029258126
-0.61711908
-0.026408506
-0.61608955
-0.024024374
-0.61524262
-0.022072401
-0.61452241
-0.020513748
-0.61388876
-0.019312175
-0.61331223
-0.018437536
-0.61277034
-0.017867042
-0.017585558
-0.60707409
-0.00027439191
-0.60691871
-0.00081447115
-0.60665522
-0.001327498
-0.60627694
-0.0017922046
-0.60577479
-0.0021820975
-0.60513778
-0.0024626156
-0.60435419
-0.0025874126
-0.60341361
-0.0024936409
-0.60231086
-0.0020959787
-0.60105258
-0.001279721
-0.59966777
0.00010591208
-0.59822323
0.0022511832
-0.59684316
0.0053796598
-0.59572847
0.009721965
-0.59516411
0.015456733
-0.59549588
0.022613874
-0.59706137
0.030963291
-0.60008848
0.03996094
-0.60462037
0.048836779
-0.61052285
0.056803761
-0.61755194
0.063228878
-0.62542628
0.067681597
-0.63386775
0.069883756
-0.64260989
0.069632857
-0.65136911
0.066716436
-0.65978636
0.060860285
-0.66735621
0.05174791
-0.67343939
0.03922058
-0.67727254
0.023379493
-0.67803755
0.0047932165
-0.67507683
-0.015183426
-0.6683403
-0.034100788
-0.6589025
-0.048660352
-0.64881844
-0.05633938
-0.63980754
-0.057567674
-0.63261292
-0.05460152
-0.62723613
-0.049671326
-0.62335249
-0.044252428
-0.62058001
-0.039113585
-0.61859212
-0.034571887
-0.61714322
-0.030707031
-0.61605962
-0.027492103
-0.61522215
-0.024861839
-0.61455004
-0.02274452
-0.61398853
-0.021075258
-0.61350018
-0.019800518
-0.61305883
-0.018878891
-0.61264539
-0.018280481
-0.017985997
-0.60731412
-0.00032959951
-0.60714672
-0.0009818729
-0.60686176
-0.0016124576
-0.60645023
-0.0022037313
-0.60589946
-0.0027328697
-0.60519325
-0.0031688274
-0.60431251
-0.0034681475
-0.60323687
-0.0035692828
-0.60194808
-0.0033847697
-0.60043674
-0.0027910575
-0.59871432
-0.001616511
-0.5968328
0.0003696586
-0.59491324
0.0034601078
-0.59317967
0.0079883884
-0.59198317
0.014260234
-0.59178504
0.022415743
-0.5930624
0.032240655
-0.59614366
0.043042199
-0.60107949
0.053772605
-0.60766724
0.063391518
-0.61557296
0.07113459
-0.62444755
0.076556188
-0.63397926
0.079415467
-0.64390607
0.079559669
-0.65397185
0.076782216
-0.6638363
0.070724738
-0.67292391
0.060835522
-0.68047988
0.046776542
-0.68553311
0.028432724
-0.68691605
0.0061761649
-0.68348454
-0.018614937
-0.67481122
-0.042774116
-0.6623154
-0.06115617
-0.64936435
-0.06929043
-0.63848925
-0.068442774
-0.63042173
-0.062669043
-0.62482774
-0.055265316
-0.62106856
-0.048011604
-0.61856147
-0.041620671
-0.61687441
-0.036258954
-0.61571436
-0.031867078
-0.61489061
-0.028315851
-0.61428112
-0.025471327
-0.61380814
-0.023217502
-0.61342198
-0.021461424
-0.61309057
-0.020131923
-0.61279287
-0.019176594
-0.61251451
-0.018558842
-0.018255554
-0.60760387
-0.00038788516
-0.60742683
-0.001158914
-0.6071244
-0.0019148888
-0.60668526
-0.0026428714
-0.60609307
-0.0033250595
-0.60532613
-0.0039357651
-0.60435731
-0.0044369643
-0.60315472
-0.0047718792
-0.60168406
-0.0048554267
-0.59991458
-0.004560542
-0.59783143
-0.0036996547
-0.59545912
-0.0020026563
-0.59290053
0.00090152051
-0.59039202
0.0054798824
-0.58835836
0.012226571
-0.58741828
0.021475657
-0.58826156
0.033083943
-0.59137445
0.046155082
-0.59680427
0.059202427
-0.60422573
0.07081298
-0.61316321
0.080072065
-0.6231766
0.086569585
-0.63391501
0.090153876
-0.64514033
0.090784986
-0.65666391
0.088305795
-0.66823135
0.082292175
-0.67917218
0.071776361
-0.68863251
0.056236872
-0.69542474
0.035224949
-0.69793415
0.0086855761
-0.69422179
-0.022327302
-0.68298085
-0.054015052
-0.66593046
-0.078206559
-0.64898746
-0.086233437
-0.63592299
-0.081507241
-0.62713103
-0.071461006
-0.62160371
-0.060792631
-0.61822799
-0.051387322
-0.61617834
-0.043670328
-0.61492231
-0.03751498
-0.61413589
-0.032653503
-0.61362623
-0.028825507
-0.61327927
-0.025818282
-0.61302751
-0.023469262
-0.61283094
-0.021658002
-0.61266583
-0.020297028
-0.61251816
-0.019324262
-0.61237956
-0.018697441
-0.018390316
-0.6079467
-0.00044827815
-0.60776297
-0.0013426458
-0.60744809
-0.002229761
-0.6069886
-0.0031023621
-0.60636464
-0.0039490243
-0.60554903
-0.0047513702
-0.60450631
-0.0054796854
-0.603192
-0.0060861948
-0.60155315
-0.006494276
-0.59953211
-0.0065815836
-0.59707736
-0.0061544039
-0.59416852
-0.0049114953
-0.59086585
-0.0024011495
-0.58739363
0.0020076639
-0.58424781
0.0090807492
-0.58225919
0.01948704
-0.5824523
0.033277056
-0.58557577
0.04927855
-0.59164417
0.065270825
-0.60011073
0.07927954
-0.61027557
0.090236906
-0.62158374
0.097877752
-0.63363467
0.10220481
-0.64624234
0.10339266
-0.65933679
0.10140025
-0.6729052
0.095860585
-0.68607879
0.084949946
-0.69797132
0.068129399
-0.70722019
0.044473821
-0.71171782
0.013183212
-0.7083054
-0.025739726
-0.6937328
-0.068587651
-0.66949813
-0.10244123
-0.64688708
-0.10884448
-0.63145815
-0.096936177
-0.62238968
-0.080529476
-0.61742373
-0.065758585
-0.61479837
-0.054012679
-0.61344278
-0.045025921
-0.6127618
-0.038195952
-0.6124347
-0.032980603
-0.61228983
-0.028970378
-0.61223541
-0.025872701
-0.61222266
-0.023482018
-0.61222621
-0.021654453
-0.61223364
-0.020289597
-0.61223972
-0.019318177
-0.61224321
-0.018693953
-0.018388579
-0.6083442
-0.00050964385
-0.60815724
-0.001529601
-0.60783592
-0.0025510839
-0.6073649
-0.0035733779
-0.60672124
-0.0045926909
-0.60587273
-0.0055998752
-0.60477587
-0.0065765425
-0.60337337
-0.0074887006
-0.60159195
-0.0082756913
-0.59934225
-0.0088312861
-0.59652495
-0.0089716992
-0.59305281
-0.0083836396
-0.58890638
-0.0065475828
-0.58425003
-0.0026486844
-0.57962279
0.0044535145
-0.57613031
0.015994552
-0.57534052
0.032487271
-0.57846809
0.052406121
-0.58541807
0.072220805
-0.59524079
0.089102255
-0.60687964
0.10187576
-0.6196606
0.11065871
-0.63310674
0.11565096
-0.64712785
0.11741377
-0.66179887
0.11607127
-0.67775438
0.11181609
-0.69355459
0.10075016
-0.70848491
0.083059716
-0.72112713
0.05711604
-0.72901691
0.021072996
-0.72734892
-0.027407714
-0.70877884
-0.087157732
-0.67234402
-0.13887606
-0.64159451
-0.13959399
-0.62416628
-0.11436441
-0.61582484
-0.088870916
-0.61220332
-0.0693801
-0.61080425
-0.055411747
-0.61040723
-0.04542294
-0.61044387
-0.038159316
-0.61065238
-0.032772093
-0.61091309
-0.02870967
-0.61117289
-0.025612901
-0.61141041
-0.0232445
-0.61161961
-0.021445255
-0.6118019
-0.020107305
-0.61196229
-0.019157782
-0.61210749
-0.018548754
-0.01825112
-0.60879736
-0.00057071202
-0.60861108
-0.0017158779
-0.60829012
-0.0028720463
-0.60781778
-0.0040457148
-0.60716872
-0.0052417547
-0.60630666
-0.0064619401
-0.60518113
-0.0077020701
-0.60372299
-0.0089468359
-0.60183874
-0.010159949
-0.59940451
-0.011265513
-0.59626345
-0.012112759
-0.59223664
-0.012410448
-0.58717339
-0.011610833
-0.58109335
-0.0087287258
-0.5744933
-0.0021465301
-0.56880008
0.010301328
-0.56648755
0.030174744
-0.56966143
0.055579995
-0.57791506
0.080474442
-0.58956353
0.10075072
-0.60297595
0.11528818
-0.61744167
0.12512443
-0.63232312
0.1305324
-0.64772435
0.132815
-0.66368991
0.13203683
-0.6826724
0.13079858
-0.70141684
0.11949459
-0.72001525
0.10165813
-0.73714608
0.074246864
-0.75056371
0.034490627
-0.7539043
-0.024067124
-0.73176459
-0.10929745
-0.67266293
-0.19797772
-0.63038121
-0.18187571
-0.61283569
-0.13190993
-0.6071621
-0.094544497
-0.60599502
-0.070547188
-0.60636464
-0.055042128
-0.60717881
-0.044608767
-0.6080494
-0.037288724
-0.60884671
-0.031974783
-0.6095366
-0.028019784
-0.61012012
-0.025029382
-0.61061059
-0.022754024
-0.61102481
-0.021031036
-0.61137974
-0.019752378
-0.61169146
-0.018846056
-0.61197506
-0.018265159
-0.017981378
-0.60930647
-0.00063011715
-0.60912509
-0.001897265
-0.6088119
-0.0031852308
-0.60834951
-0.0045081048
-0.60771117
-0.0058800948
-0.60685797
-0.0073151377
-0.60573451
-0.0088255377
-0.6042623
-0.010419039
-0.60233024
-0.012092006
-0.59978121
-0.013814549
-0.5963959
-0.015498068
-0.5918814
-0.016924948
-0.5858926
-0.017599636
-0.57816807
-0.016453253
-0.56896106
-0.011353542
-0.5599676
0.0013078697
-0.55519646
0.025403606
-0.55859737
0.0589809
-0.56890353
0.090780599
-0.58310259
0.11494978
-0.59860443
0.13079003
-0.61503828
0.14155827
-0.63130879
0.14680291
-0.64807035
0.14957656
-0.66424042
0.1482069
-0.68769656
0.15425472
-0.70934433
0.14114236
-0.73219822
0.12451203
-0.7548157
0.096864345
-0.77658956
0.056264489
-0.79178463
-0.0088720595
-0.77117823
-0.12990385
-0.66550665
-0.3036493
-0.60817434
-0.23920802
-0.59622897
-0.1438553
-0.59649678
-0.09427669
-0.59910403
-0.067939942
-0.60172773
-0.052418421
-0.6039256
-0.042410897
-0.6056878
-0.03552653
-0.60708908
-0.030573499
-0.60820768
-0.026901187
-0.609109
-0.024128065
-0.60984497
-0.02201805
-0.61045667
-0.020419338
-0.61097708
-0.019231969
-0.61143344
-0.018389698
-0.61184908
-0.017849512
-0.017585512
-0.6098696
-0.00068644959
-0.60969747
-0.0020693996
-0.6093998
-0.0034829007
-0.60895924
-0.0049486607
-0.60834892
-0.0064904198
-0.60752922
-0.0081348393
-0.60644268
-0.0099120711
-0.6050058
-0.011855925
-0.60309577
-0.01400203
-0.6005294
-0.016380927
-0.59703003
-0.018997438
-0.59218122
-0.021773756
-0.58538305
-0.024397804
-0.5759015
-0.025934807
-0.56333371
-0.023921327
-0.54925836
-0.012767487
-0.54027318
0.016418428
-0.54446413
0.063171848
-0.55816162
0.1044781
-0.57606243
0.13285059
-0.5938185
0.1485461
-0.61270728
0.16044705
-0.63007601
0.16417163
-0.64867903
0.16817959
-0.66155246
0.16108032
-0.6122449
0
-0.6122449
0
-0.6122449
0
-0.6122449
0
-0.6122449
0
-0.6122449
0
-0.6122449
0
-0.63686603
0
-0.56579531
-0.31027873
-0.57419399
-0.13545662
-0.58479152
-0.083679164
-0.59220553
-0.06052593
-0.5972799
-0.047344048
-0.60086584
-0.038824957
-0.60348641
-0.032905965
-0.6054569
-0.028603007
-0.60697514
-0.02538295
-0.60817117
-0.022932033
-0.60913439
-0.021054831
-0.6099289
-0.019624822
-0.61060269
-0.018558182
-0.61119331
-0.017799079
-0.61173171
-0.017311115
-0.017072312
-0.61048423
-0.00073831497
-0.61032568
-0.002227956
-0.61005123
-0.0037573443
-0.60964446
-0.0053554338
-0.60907975
-0.0070551275
-0.60831908
-0.0088955093
-0.6073066
-0.01092455
-0.60595961
-0.013202921
-0.60415305
-0.015808591
-0.60169227
-0.0188417
-0.59826393
-0.022425783
-0.59334745