/*--------------------------------*- C++ -*----------------------------------*\
| =========                 |                                                 |
| \\      /  F ield         | foam-extend: Open Source CFD                    |
|  \\    /   O peration     | Version:     4.1                                |
|   \\  /    A nd           | Web:         http://www.foam-extend.org         |
|    \\/     M anipulation  |                                                 |
\*---------------------------------------------------------------------------*/
FoamFile
{
    version     2.0;
    format      ascii;
    class       surfaceScalarField;
    location    "0";
    object      phi;
}
// * * * * * * * * * * * * * * * * * * * * * * * * * * * * * * * * * * * * * //

dimensions      [0 3 -1 0 0 0 0];

internalField   nonuniform List<scalar> 
8438
(
-0.537792
5.1811e-05
-0.537949
0.000157102
-0.538216
0.000267343
-0.538602
0.000385788
-0.539118
0.000515608
-0.539778
0.000659816
-0.540599
0.000821175
-0.541601
0.00100206
-0.542805
0.00120429
-0.544234
0.00142891
-0.54591
0.00167598
-0.547854
0.00194427
-0.550085
0.00223101
-0.552617
0.00253177
-0.555457
0.00284028
-0.558606
0.00314852
-0.562053
0.00344688
-0.565777
0.00372459
-0.569748
0.00397021
-0.57392
0.00417234
-0.57824
0.00432022
-0.582645
0.00440451
-0.587062
0.00441784
-0.591418
0.00435542
-0.595633
0.0042155
-0.599633
0.00399985
-0.603347
0.00371397
-0.606714
0.00336727
-0.609687
0.00297279
-0.612234
0.00254656
-0.61434
0.00210641
-0.616011
0.00167049
-0.617266
0.00125546
-0.618141
0.000874885
-0.618679
0.000538203
-0.61893
0.000250302
-0.618942
1.19274e-05
-0.618762
-0.000179411
-0.618434
-0.000328457
-0.617993
-0.000441104
-0.617469
-0.00052357
-0.616887
-0.00058191
-0.616265
-0.000621618
-0.615618
-0.00064744
-0.614955
-0.000663334
-0.614282
-0.00067247
-0.613605
-0.000677289
-0.612925
-0.000679546
-0.000680402
-0.537745
0.000102892
-0.5379
0.000312001
-0.538163
0.000531036
-0.538544
0.000766527
-0.539053
0.00102484
-0.539705
0.00131204
-0.540518
0.00163371
-0.541511
0.00199471
-0.542705
0.00239875
-0.544124
0.00284803
-0.545791
0.00334276
-0.547727
0.00388058
-0.549952
0.00445606
-0.552481
0.00506036
-0.555322
0.00568094
-0.558475
0.00630164
-0.561931
0.00690309
-0.56567
0.00746347
-0.569659
0.00795968
-0.573855
0.00836858
-0.578204
0.00866838
-0.582639
0.0088401
-0.58709
0.00886881
-0.591479
0.00874467
-0.595728
0.00846404
-0.599758
0.00803028
-0.603499
0.00745443
-0.606887
0.00675538
-0.609874
0.00595952
-0.612427
0.00509937
-0.614531
0.00421128
-0.616193
0.00333226
-0.617434
0.0024963
-0.61829
0.00173102
-0.618807
0.00105542
-0.619036
0.000479146
-0.619028
3.34905e-06
-0.61883
-0.000377445
-0.618485
-0.000673085
-0.61803
-0.000895687
-0.617496
-0.00105801
-0.616906
-0.0011723
-0.616278
-0.00124962
-0.615625
-0.00129949
-0.614959
-0.00132983
-0.614284
-0.00134698
-0.613606
-0.00135581
-0.612926
-0.00135983
-0.00136128
-0.537651
0.000152495
-0.537802
0.000462479
-0.538058
0.000787403
-0.538428
0.00113711
-0.538925
0.00152123
-0.539562
0.00194898
-0.540357
0.00242888
-0.541331
0.00296838
-0.542505
0.00357333
-0.543904
0.00424728
-0.545553
0.00499081
-0.547473
0.00580065
-0.549685
0.00666889
-0.552207
0.00758232
-0.555049
0.00852209
-0.558211
0.00946376
-0.561685
0.0103778
-0.565453
0.011231
-0.569481
0.0119878
-0.573725
0.0126129
-0.57813
0.0130728
-0.582628
0.0133384
-0.587146
0.0133866
-0.591603
0.0132022
-0.595919
0.0127793
-0.600011
0.0121226
-0.603805
0.0112485
-0.607235
0.0101857
-0.61025
0.00897444
-0.612816
0.00766472
-0.614917
0.0063128
-0.616561
0.00497606
-0.617772
0.0037072
-0.61859
0.00254886
-0.619064
0.00152993
-0.61925
0.000664457
-0.6192
-4.67266e-05
-0.618964
-0.000612957
-0.618587
-0.00105011
-0.618105
-0.00137726
-0.617549
-0.00161414
-0.616942
-0.00177954
-0.616301
-0.00189022
-0.61564
-0.00196057
-0.614968
-0.0020025
-0.614289
-0.00202548
-0.613608
-0.00203672
-0.612927
-0.00204145
-0.00204298
-0.537512
0.000199883
-0.537656
0.000606311
-0.537901
0.00103274
-0.538257
0.0014924
-0.538734
0.00199825
-0.539347
0.0025628
-0.540116
0.00319769
-0.541061
0.00391319
-0.542205
0.00471757
-0.543574
0.0056161
-0.545193
0.00661004
-0.547088
0.00769555
-0.549282
0.0088625
-0.551793
0.0100935
-0.554634
0.0113633
-0.557809
0.0126388
-0.561311
0.0138801
-0.565122
0.0150414
-0.569208
0.0160742
-0.573525
0.0169299
-0.578015
0.0175625
-0.582609
0.0179319
-0.587228
0.0180062
-0.59179
0.017764
-0.596207
0.0171965
-0.600394
0.0163096
-0.60427
0.0151247
-0.607765
0.0136807
-0.610823
0.0120325
-0.613408
0.010249
-0.615504
0.00840866
-0.617119
0.00659151
-0.618283
0.00487132
-0.619042
0.00330722
-0.61945
0.00193842
-0.619568
0.000782919
-0.619455
-0.000160093
-0.619163
-0.000905325
-0.618737
-0.00147603
-0.618215
-0.00189929
-0.617626
-0.0022026
-0.616994
-0.00241169
-0.616335
-0.00254934
-0.615661
-0.00263486
-0.614979
-0.0026841
-0.614295
-0.0027096
-0.613611
-0.00272087
-0.612928
-0.00272476
-0.00272562
-0.53733
0.000244271
-0.537465
0.000741208
-0.537695
0.00126328
-0.53803
0.00182712
-0.538481
0.00244918
-0.539063
0.00314541
-0.539797
0.0039308
-0.540702
0.00481881
-0.541805
0.00582044
-0.543132
0.00694315
-0.544712
0.00818944
-0.546571
0.00955533
-0.548738
0.0110288
-0.551233
0.0125887
-0.554073
0.0142031
-0.557264
0.0158302
-0.560802
0.0174185
-0.56467
0.0189091
-0.568835
0.0202391
-0.57325
0.0213453
-0.577856
0.0221679
-0.582579
0.0226548
-0.587337
0.0227642
-0.59204
0.0224677
-0.596597
0.021753
-0.600913
0.0206261
-0.604902
0.0191137
-0.608486
0.0172646
-0.611603
0.0151496
-0.614213
0.0128589
-0.6163
0.0104957
-0.617875
0.00816652
-0.618973
0.00596941
-0.619648
0.00398229
-0.619965
0.00225531
-0.619992
0.000809354
-0.619792
-0.000359874
-0.619423
-0.00127466
-0.618931
-0.00196757
-0.618355
-0.00247518
-0.617724
-0.00283375
-0.617059
-0.00307651
-0.616376
-0.00323251
-0.615685
-0.00332606
-0.614992
-0.0033769
-0.614301
-0.00340056
-0.613613
-0.00340874
-0.612928
-0.00340977
-0.00340898
-0.537107
0.000284938
-0.537231
0.000864916
-0.537443
0.00147519
-0.537752
0.00213592
-0.538169
0.00286715
-0.538712
0.00368844
-0.5394
0.00461846
-0.540256
0.00567423
-0.541305
0.00687004
-0.542578
0.0082161
-0.544105
0.00971678
-0.545919
0.0113686
-0.548048
0.0131584
-0.550521
0.0150612
-0.553357
0.0170389
-0.556567
0.0190402
-0.56015
0.0210012
-0.564089
0.0228485
-0.568353
0.0245032
-0.572893
0.0258855
-0.577646
0.0269207
-0.582534
0.027543
-0.58747
0.0276996
-0.592356
0.027354
-0.597092
0.0264891
-0.601576
0.0251104
-0.605712
0.0232489
-0.609411
0.020964
-0.612605
0.0183434
-0.615247
0.0155012
-0.617321
0.0125696
-0.618841
0.00968642
-0.61985
0.0069788
-0.620415
0.00454656
-0.620611
0.00245153
-0.620517
0.000715945
-0.620206
-0.000670914
-0.619739
-0.00174197
-0.619165
-0.00254174
-0.618522
-0.00311819
-0.617838
-0.0035175
-0.617134
-0.00378112
-0.616422
-0.00394456
-0.61571
-0.0040372
-0.615005
-0.00408261
-0.614306
-0.00409908
-0.613615
-0.00410032
-0.612928
-0.00409603
-0.00409238
-0.536847
0.00032109
-0.536957
0.000975085
-0.537147
0.00166458
-0.537424
0.00241333
-0.537802
0.00324502
-0.538297
0.00418316
-0.538929
0.00525038
-0.539722
0.00646774
-0.540705
0.00785348
-0.541911
0.00942128
-0.543372
0.0111782
-0.545126
0.0131224
-0.547207
0.0152399
-0.549649
0.0175027
-0.552476
0.0198664
-0.555706
0.0222699
-0.55934
0.0246357
-0.563366
0.0268741
-0.56775
0.0288877
-0.572444
0.0305788
-0.577378
0.0318549
-0.58247
0.0326353
-0.587625
0.0328546
-0.592738
0.032467
-0.597698
0.0314491
-0.602392
0.0298045
-0.606711
0.027568
-0.610556
0.0248089
-0.613847
0.0216338
-0.616529
0.0181834
-0.618584
0.0146245
-0.62003
0.0111331
-0.620924
0.00787204
-0.621345
0.00496744
-0.621387
0.00249359
-0.621142
0.000471487
-0.620693
-0.00112019
-0.620106
-0.0023293
-0.619432
-0.00321576
-0.618709
-0.00384124
-0.617963
-0.00426317
-0.617212
-0.00453184
-0.616467
-0.00468952
-0.615734
-0.00477057
-0.615014
-0.00480214
-0.614308
-0.00480512
-0.613614
-0.00479495
-0.612927
-0.00478248
-0.00477458
-0.536554
0.00035195
-0.536648
0.00106939
-0.536811
0.00182753
-0.537051
0.00265371
-0.537382
0.00357549
-0.537819
0.00462046
-0.538384
0.00581566
-0.539103
0.00718676
-0.540006
0.00875663
-0.541129
0.0105435
-0.542508
0.0125581
-0.544187
0.0148011
-0.546207
0.0172592
-0.548606
0.019902
-0.551419
0.0226791
-0.554667
0.0255187
-0.55836
0.0283286
-0.562486
0.0310001
-0.567014
0.0334152
-0.57189
0.0354548
-0.577042
0.0370069
-0.58238
0.0379735
-0.5878
0.0382752
-0.593188
0.037855
-0.598421
0.0366819
-0.603372
0.0347558
-0.607918
0.0321134
-0.611943
0.0288339
-0.615353
0.0250435
-0.618083
0.0209138
-0.620111
0.0166528
-0.621462
0.0124839
-0.622205
0.00861522
-0.622443
0.00520549
-0.622292
0.00234207
-0.621861
4.06124e-05
-0.621244
-0.00173713
-0.620513
-0.00305979
-0.619722
-0.00400695
-0.618907
-0.00465667
-0.618091
-0.0050791
-0.617289
-0.00533397
-0.616508
-0.00547033
-0.615751
-0.00552736
-0.615018
-0.00553551
-0.614305
-0.00551786
-0.613609
-0.00549124
-0.612924
-0.00546739
-0.00545369
-0.536232
0.000376759
-0.536308
0.00114551
-0.53644
0.00196006
-0.536638
0.0028514
-0.536914
0.00385102
-0.537284
0.00499086
-0.537771
0.00630277
-0.538402
0.00781769
-0.53921
0.00956403
-0.540232
0.0115655
-0.541512
0.0138382
-0.543097
0.0163866
-0.545038
0.0191995
-0.547381
0.0222452
-0.550169
0.0254675
-0.553434
0.0287838
-0.557191
0.032085
-0.561432
0.0352409
-0.566125
0.038109
-0.571216
0.0405456
-0.576625
0.042416
-0.582255
0.0436031
-0.587991
0.0440115
-0.593708
0.0435716
-0.599269
0.0422425
-0.604531
0.0400181
-0.609352
0.0369345
-0.613598
0.0330796
-0.617154
0.0285998
-0.619942
0.0237021
-0.621934
0.0186443
-0.62316
0.0137099
-0.62371
0.0091657
-0.623717
0.00521221
-0.623325
0.00195011
-0.622667
-0.000617188
-0.62185
-0.00255397
-0.620952
-0.00395753
-0.620027
-0.00493237
-0.619108
-0.00557591
-0.618214
-0.00597236
-0.617357
-0.00619133
-0.616539
-0.00628855
-0.615759
-0.00630756
-0.615013
-0.00628162
-0.614295
-0.00623546
-0.613599
-0.00618693
-0.612918
-0.00614828
-0.00612713
-0.535887
0.000394765
-0.535943
0.00120113
-0.536041
0.00205824
-0.53619
0.00300067
-0.536403
0.00406393
-0.536697
0.00528452
-0.537093
0.00669956
-0.537622
0.00834592
-0.538316
0.0102586
-0.539219
0.0124683
-0.540378
0.0149978
-0.541849
0.0178576
-0.54369
0.0210401
-0.545959
0.0245142
-0.54871
0.0282187
-0.551986
0.0320596
-0.55581
0.0359088
-0.56018
0.0396109
-0.565065
0.0429941
-0.570405
0.0458856
-0.576114
0.0481252
-0.582085
0.0495739
-0.588193
0.0501191
-0.594297
0.0496765
-0.600248
0.048193
-0.605883
0.0456531
-0.611037
0.0420889
-0.615552
0.037594
-0.619288
0.0323357
-0.622146
0.0265602
-0.624087
0.0205859
-0.625151
0.0147737
-0.625455
0.00946901
-0.625169
0.00492706
-0.624481
0.0012613
-0.623549
-0.00154837
-0.622498
-0.00360577
-0.621408
-0.00504719
-0.620332
-0.00600832
-0.619299
-0.00660888
-0.618323
-0.00694828
-0.617408
-0.00710601
-0.616553
-0.00714403
-0.615751
-0.00710963
-0.614994
-0.00703805
-0.614275
-0.00695505
-0.613583
-0.00687887
-0.612909
-0.00682183
-0.0067915
-0.535525
0.000405215
-0.535558
0.001234
-0.535618
0.0021182
-0.535713
0.00309585
-0.535855
0.00420646
-0.536062
0.00549132
-0.536356
0.00699323
-0.536766
0.00875575
-0.537329
0.0108216
-0.53809
0.0132301
-0.539105
0.0160127
-0.540436
0.0191883
-0.542152
0.0227557
-0.544324
0.0266862
-0.54702
0.0309153
-0.550298
0.0353369
-0.554191
0.0398018
-0.558704
0.0441241
-0.563807
0.0480969
-0.569434
0.0515127
-0.57549
0.0541815
-0.581857
0.0559408
-0.588397
0.0566592
-0.594957
0.0562361
-0.601367
0.0546036
-0.607446
0.0517322
-0.613002
0.0476446
-0.617844
0.0424359
-0.6218
0.0362924
-0.624744
0.0295037
-0.62662
0.0224615
-0.627473
0.0156273
-0.627459
0.00945449
-0.626805
0.00427338
-0.625751
0.000207298
-0.624493
-0.00280617
-0.623169
-0.00493023
-0.621862
-0.00635351
-0.620621
-0.00724961
-0.619467
-0.00776333
-0.618405
-0.00800974
-0.617433
-0.00807774
-0.616543
-0.00803461
-0.615722
-0.00793025
-0.614959
-0.00780093
-0.614242
-0.00767249
-0.613558
-0.00756286
-0.612896
-0.00748384
-0.00744264
-0.535153
0.000407437
-0.535161
0.00124203
-0.535179
0.00213625
-0.535215
0.00313141
-0.535279
0.00427095
-0.535389
0.00560103
-0.535566
0.0071705
-0.535841
0.00903043
-0.536252
0.0112326
-0.536848
0.0138265
-0.537691
0.0168552
-0.538851
0.0203487
-0.540411
0.0243154
-0.542457
0.0287323
-0.545075
0.0335337
-0.54834
0.038602
-0.552302
0.0437632
-0.556972
0.0487947
-0.562321
0.0534461
-0.568277
0.0574682
-0.574732
0.0606367
-0.581555
0.0627641
-0.588596
0.0636994
-0.595684
0.0633246
-0.602635
0.0615539
-0.609241
0.0583384
-0.615279
0.053683
-0.62052
0.0476772
-0.62475
0.0405224
-0.627801
0.0325542
-0.629591
0.0242514
-0.630171
0.0162077
-0.629745
0.00902891
-0.628625
0.00315289
-0.627123
-0.00129496
-0.625478
-0.00445111
-0.623841
-0.00656701
-0.622294
-0.00790005
-0.620876
-0.00866851
-0.619595
-0.00904389
-0.618448
-0.0091565
-0.617423
-0.0091034
-0.616502
-0.0089556
-0.615668
-0.00876407
-0.614904
-0.00856475
-0.614194
-0.00838239
-0.613523
-0.00823364
-0.612878
-0.00812924
-0.00807556
-0.534778
0.00040079
-0.534759
0.00122325
-0.534732
0.00210897
-0.534703
0.00310215
-0.534682
0.00424997
-0.534684
0.00560344
-0.534731
0.00721778
-0.534853
0.00915232
-0.53509
0.0114692
-0.535494
0.0142304
-0.536132
0.0174933
-0.537086
0.0213028
-0.538452
0.0256814
-0.540336
0.0306161
-0.542845
0.0360434
-0.546078
0.0418349
-0.550104
0.0477887
-0.554946
0.0536367
-0.560573
0.0590735
-0.566903
0.0637983
-0.573815
0.0675483
-0.581161
0.0701102
-0.588776
0.0713141
-0.596476
0.0710244
-0.604056
0.0691346
-0.611287
0.0655687
-0.617906
0.0603019
-0.623636
0.0534073
-0.628207
0.0450941
-0.631396
0.0357426
-0.633077
0.0259329
-0.633302
0.016432
-0.63234
0.008067
-0.630625
0.00143786
-0.628573
-0.00334645
-0.626473
-0.00655087
-0.624484
-0.00855635
-0.622676
-0.00970775
-0.621072
-0.0102732
-0.619665
-0.0104508
-0.618437
-0.0103842
-0.617364
-0.0101763
-0.61642
-0.00989938
-0.615581
-0.00960345
-0.614823
-0.00932221
-0.614128
-0.00907793
-0.613477
-0.00888493
-0.612854
-0.0087521
-0.00868454
-0.534409
0.000384752
-0.534361
0.00117602
-0.534286
0.00203334
-0.534187
0.00300337
-0.534074
0.00413659
-0.533959
0.0054887
-0.533863
0.00712145
-0.533813
0.0091031
-0.533852
0.0115075
-0.534033
0.0144115
-0.53443
0.0178902
-0.535135
0.0220082
-0.536261
0.0268077
-0.537937
0.0322917
-0.540298
0.038404
-0.543471
0.045008
-0.547552
0.05187
-0.55258
0.0586646
-0.558521
0.0650148
-0.565278
0.0705552
-0.57271
0.0749801
-0.580652
0.0780521
-0.588923
0.0795849
-0.597325
0.0794265
-0.605638
0.0774478
-0.613606
0.0735367
-0.620924
0.0676197
-0.627255
0.0597385
-0.632258
0.0500977
-0.635631
0.0391154
-0.637181
0.0274823
-0.636939
0.0161906
-0.635269
0.00639675
-0.632791
-0.00103969
-0.630069
-0.00606908
-0.627441
-0.00917891
-0.62506
-0.0109365
-0.622976
-0.0117925
-0.621183
-0.012066
-0.619655
-0.0119786
-0.618356
-0.0116834
-0.617247
-0.0112854
-0.616291
-0.010855
-0.615457
-0.0104382
-0.614715
-0.0100642
-0.614042
-0.00975099
-0.613417
-0.00950945
-0.612824
-0.00934573
-0.00926316
-0.534053
0.000358929
-0.533976
0.00109905
-0.53385
0.00190697
-0.533678
0.00283109
-0.533466
0.00392467
-0.533225
0.00524766
-0.532971
0.00686828
-0.532732
0.00886411
-0.532547
0.0113221
-0.532472
0.0143365
-0.532586
0.0180041
-0.532993
0.022415
-0.533823
0.0276382
-0.535233
0.0337013
-0.537392
0.0405631
-0.540467
0.0480834
-0.544591
0.0559932
-0.54982
0.0638937
-0.556116
0.0713114
-0.56336
0.0777988
-0.571383
0.083003
-0.58
0.0866692
-0.589015
0.0886001
-0.598218
0.0886297
-0.607378
0.0866077
-0.616217
0.0823758
-0.624378
0.0757805
-0.631452
0.0668126
-0.637009
0.0556538
-0.640636
0.0427429
-0.642033
0.0288792
-0.64118
0.0153377
-0.638559
0.00377564
-0.635095
-0.00450326
-0.631557
-0.00960763
-0.628325
-0.012411
-0.625521
-0.01374
-0.623152
-0.0141618
-0.621178
-0.0140405
-0.619542
-0.0136136
-0.618188
-0.0130377
-0.617059
-0.0124145
-0.616106
-0.0118075
-0.615289
-0.0112552
-0.614574
-0.0107795
-0.613933
-0.0103921
-0.613343
-0.010099
-0.612786
-0.00990277
-0.0098045
-0.53372
0.000323065
-0.533613
0.000991538
-0.533434
0.0017282
-0.533185
0.00258241
-0.53287
0.0036093
-0.532495
0.0048724
-0.532073
0.00644595
-0.531625
0.00841703
-0.53119
0.0108867
-0.530823
0.0139691
-0.530606
0.0177875
-0.530655
0.0224643
-0.531122
0.0281049
-0.532193
0.0347723
-0.534082
0.0424523
-0.537008
0.0510094
-0.541152
0.0601374
-0.5466
0.0693414
-0.553302
0.0780136
-0.561103
0.0855991
-0.569796
0.0916962
-0.579174
0.0960479
-0.589029
0.0984546
-0.599139
0.0987398
-0.609271
0.0967398
-0.619139
0.0922433
-0.628318
0.0849603
-0.636315
0.0748094
-0.642586
0.0619247
-0.646577
0.0467338
-0.647814
0.0301164
-0.646157
0.0136805
-0.642232
-0.000149431
-0.637482
-0.00925274
-0.632962
-0.0141282
-0.629054
-0.0163184
-0.625807
-0.0169878
-0.623158
-0.0168108
-0.62102
-0.0161785
-0.619301
-0.0153323
-0.617916
-0.014423
-0.616789
-0.0135413
-0.615858
-0.012738
-0.615074
-0.012039
-0.614399
-0.0114554
-0.6138
-0.0109908
-0.613254
-0.0106447
-0.612742
-0.0104154
-0.0103013
-0.53342
0.000277109
-0.533282
0.00085324
-0.53305
0.00149642
-0.532723
0.00225577
-0.532301
0.00318725
-0.531786
0.00435686
-0.531184
0.00584396
-0.530511
0.00774472
-0.5298
0.0101749
-0.529101
0.0132708
-0.528501
0.0171871
-0.528124
0.0220872
-0.528144
0.0281247
-0.528785
0.0354134
-0.530315
0.0439825
-0.533021
0.0537157
-0.537156
0.0642719
-0.542844
0.0750294
-0.550015
0.0851848
-0.558456
0.09404
-0.567907
0.101147
-0.578139
0.10628
-0.588934
0.109249
-0.60006
0.109866
-0.611297
0.107977
-0.62238
0.103326
-0.632794
0.0953746
-0.641942
0.0839573
-0.649146
0.069129
-0.653667
0.0512545
-0.65477
0.0312198
-0.652056
0.0109663
-0.646293
-0.00591256
-0.639855
-0.0156909
-0.634174
-0.0198086
-0.629536
-0.0209563
-0.625842
-0.0206821
-0.622936
-0.0197165
-0.620669
-0.0184455
-0.618904
-0.0170976
-0.617522
-0.0158051
-0.616426
-0.014637
-0.615541
-0.0136231
-0.614809
-0.0127709
-0.614187
-0.0120775
-0.613643
-0.0115356
-0.61315
-0.0111372
-0.61269
-0.0108757
-0.0107461
-0.533161
0.000221276
-0.532993
0.000684696
-0.532708
0.00121217
-0.532304
0.0018513
-0.531774
0.00265746
-0.531115
0.00369756
-0.530325
0.00505454
-0.529413
0.00683239
-0.528399
0.0091613
-0.52733
0.0122016
-0.526287
0.0161442
-0.525403
0.0212034
-0.524876
0.0275968
-0.524971
0.0355093
-0.526026
0.045037
-0.528417
0.0561066
-0.532498
0.0683532
-0.538457
0.0809877
-0.546181
0.0929093
-0.555366
0.103225
-0.56567
0.111451
-0.576852
0.117463
-0.588693
0.12109
-0.600944
0.122116
-0.613415
0.120448
-0.625939
0.11585
-0.637852
0.107288
-0.648441
0.0945461
-0.656873
0.0775611
-0.662178
0.0565597
-0.663242
0.0322842
-0.659153
0.00687688
-0.650708
-0.0143576
-0.642047
-0.0243519
-0.635042
-0.0268132
-0.629651
-0.0263474
-0.625536
-0.024797
-0.622423
-0.0228304
-0.620083
-0.0207849
-0.618325
-0.0188553
-0.616993
-0.0171379
-0.615964
-0.0156652
-0.615152
-0.0144351
-0.614493
-0.0134305
-0.61394
-0.0126304
-0.613461
-0.0120147
-0.613031
-0.0115672
-0.612631
-0.0112756
-0.0111318
-0.532953
0.000156017
-0.532755
0.000487223
-0.53242
0.000877461
-0.53194
0.0013713
-0.531305
0.00202173
-0.530502
0.00289452
-0.529521
0.00407388
-0.528358
0.00566935
-0.52702
0.00782385
-0.525541
0.0107219
-0.523992
0.0145952
-0.522508
0.01972
-0.52131
0.0263982
-0.520714
0.034914
-0.52114
0.045463
-0.523085
0.0580512
-0.527051
0.0723191
-0.533325
0.0872618
-0.541719
0.101303
-0.551782
0.113288
-0.563037
0.122706
-0.575265
0.12969
-0.58827
0.134095
-0.601742
0.135589
-0.615547
0.134253
-0.629798
0.130101
-0.643533
0.121023
-0.65593
0.106943
-0.665986
0.0876167
-0.672459
0.0630329
-0.673709
0.0335341
-0.667873
0.00104107
-0.655353
-0.0268776
-0.643792
-0.0359131
-0.635364
-0.0352406
-0.629248
-0.0324638
-0.624777
-0.0292683
-0.62154
-0.0260669
-0.619216
-0.0231091
-0.617541
-0.02053
-0.616316
-0.0183628
-0.615399
-0.0165827
-0.614691
-0.0151432
-0.614125
-0.0139958
-0.613658
-0.0130982
-0.613256
-0.0124166
-0.612897
-0.0119258
-0.612565
-0.011608
-0.0114518
-0.532804
8.20984e-05
-0.53258
0.000263074
-0.532198
0.000495907
-0.531647
0.000820449
-0.530911
0.00128519
-0.529968
0.00195221
-0.528798
0.00290376
-0.52738
0.00425112
-0.525702
0.00614621
-0.523776
0.00879548
-0.521655
0.0124737
-0.519465
0.0175308
-0.517446
0.0243785
-0.515972
0.0334406
-0.515569
0.0450595
-0.516888
0.0593702
-0.520648
0.0760799
-0.527311
0.0939247
-0.536539
0.11053
-0.547662
0.124412
-0.559957
0.135002
-0.573314
0.143047
-0.587632
0.148413
-0.602404
0.150362
-0.617548
0.149397
-0.633917
0.146469
-0.649863
0.136969
-0.664528
0.121607
-0.676743
0.0998312
-0.68496
0.0712502
-0.686839
0.035413
-0.67889
-0.00690761
-0.659916
-0.0458514
-0.644686
-0.0511435
-0.634884
-0.0450423
-0.62813
-0.0392176
-0.623422
-0.0339765
-0.620205
-0.0292838
-0.618027
-0.0252876
-0.616536
-0.0220204
-0.615491
-0.0194079
-0.614733
-0.0173408
-0.614162
-0.0157148
-0.613713
-0.0144447
-0.613345
-0.0134658
-0.613031
-0.0127305
-0.612752
-0.012205
-0.612494
-0.0118664
-0.0117004
-0.532723
6.20874e-07
-0.532475
1.5544e-05
-0.532052
7.29402e-05
-0.531438
0.000206157
-0.53061
0.000456934
-0.529538
0.00088054
-0.528187
0.00155308
-0.526518
0.00258212
-0.524494
0.00412194
-0.522093
0.0063945
-0.519334
0.00971522
-0.516321
0.0145169
-0.513295
0.021353
-0.510701
0.0308465
-0.5092
0.0435589
-0.509649
0.0598191
-0.513074
0.0795043
-0.520248
0.101099
-0.53054
0.120823
-0.542998
0.13687
-0.556381
0.148385
-0.5709
0.157566
-0.586772
0.164285
-0.602892
0.166482
-0.619142
0.165646
-0.638226
0.165553
-0.656839
0.155583
-0.674335
0.139103
-0.689445
0.114941
-0.700292
0.0820977
-0.703574
0.0386951
-0.693236
-0.0172457
-0.663735
-0.0753527
-0.644191
-0.0706873
-0.63328
-0.0559536
-0.626024
-0.0464736
-0.621294
-0.0387067
-0.618333
-0.0322451
-0.616488
-0.0271325
-0.61531
-0.0231984
-0.614526
-0.020192
-0.613977
-0.0178889
-0.613574
-0.0161182
-0.613261
-0.0147573
-0.613007
-0.0137203
-0.61279
-0.0129475
-0.612597
-0.0123982
-0.612418
-0.0120456
-0.0118731
-0.532716
-8.70137e-05
-0.532449
-0.000251129
-0.531992
-0.000384236
-0.531325
-0.000461249
-0.530418
-0.000449598
-0.529233
-0.000304269
-0.52772
3.96815e-05
-0.525817
0.000678792
-0.523454
0.00175955
-0.520567
0.00350688
-0.517117
0.00626544
-0.513151
0.0105515
-0.508893
0.0170942
-0.504853
0.0268064
-0.501891
0.0405976
-0.501145
0.0590729
-0.504043
0.082402
-0.511936
0.108992
-0.523597
0.132484
-0.537861
0.151134
-0.552269
0.162793
-0.567824
0.17312
-0.585776
0.182237
-0.603232
0.183938
-0.619809
0.182223
-0.642627
0.188371
-0.664425
0.177382
-0.68537
0.160047
-0.704417
0.133989
-0.719395
0.0970755
-0.725339
0.0446394
-0.712165
-0.0304195
-0.665682
-0.121836
-0.641765
-0.0946047
-0.630072
-0.0676462
-0.622495
-0.0540511
-0.618174
-0.0430272
-0.615859
-0.0345605
-0.614603
-0.0283885
-0.613885
-0.0239164
-0.613444
-0.0206325
-0.613152
-0.0181808
-0.612943
-0.016327
-0.612783
-0.0149177
-0.612652
-0.0138516
-0.612538
-0.0130611
-0.612435
-0.012501
-0.612339
-0.0121422
-0.011967
-0.53279
-0.000179095
-0.53251
-0.000531695
-0.532027
-0.000866589
-0.53132
-0.00116857
-0.530353
-0.0014165
-0.529078
-0.00157914
-0.52743
-0.00160826
-0.525324
-0.0014272
-0.522654
-0.000911109
-0.519294
0.000147277
-0.515124
0.00209562
-0.510086
0.00551296
-0.504317
0.0113252
-0.498376
0.0208653
-0.49343
0.0356519
-0.491081
0.0567236
-0.493195
0.0845163
-0.502154
0.117951
-0.515488
0.145817
-0.532513
0.168159
-0.547635
0.177915
-0.563563
0.189048
-0.585009
0.203683
-0.603577
0.202507
-0.618618
0.197263
-0.646943
0.216696
-0.672618
0.203057
-0.697396
0.184824
-0.721859
0.158452
-0.743963
0.119179
-0.754972
0.0556479
-0.735424
-0.0499669
-0.664962
-0.192299
-0.637241
-0.122326
-0.624153
-0.0807336
-0.616813
-0.0613915
-0.613862
-0.0459776
-0.612802
-0.0356214
-0.612438
-0.0287525
-0.612321
-0.0240326
-0.612291
-0.0206626
-0.612288
-0.0181837
-0.612291
-0.0163242
-0.612292
-0.0149168
-0.612289
-0.0138547
-0.612282
-0.0130682
-0.612271
-0.0125115
-0.612259
-0.0121549
-0.0119808
-0.532949
-0.000273648
-0.532661
-0.000820108
-0.532164
-0.00136355
-0.531432
-0.00189994
-0.530427
-0.00242156
-0.529092
-0.00291409
-0.527349
-0.00335144
-0.52509
-0.00368631
-0.522169
-0.00383221
-0.518393
-0.00362856
-0.513526
-0.0027717
-0.507331
-0.000682033
-0.499734
0.00372879
-0.491225
0.0123556
-0.483443
0.0278704
-0.479042
0.0523221
-0.480142
0.0856166
-0.490709
0.128518
-0.50567
0.160778
-0.527655
0.190144
-0.54276
0.19302
-0.556569
0.202858
-0.5858
0.232914
-0.604052
0.220758
-0.612058
0.205269
-0.690203
0.0790394
-0.715426
0.0738478
-0.744555
0.0648976
-0.775315
0.053131
-0.80832
0.0337706
-0.845169
-0.00134352
-0.795891
-0.067213
-0.652969
-0.189815
-0.631063
-0.144232
-0.61194
-0.0998559
-0.607968
-0.0653641
-0.608409
-0.0455366
-0.609365
-0.0346654
-0.610149
-0.0279688
-0.610719
-0.0234618
-0.611128
-0.0202536
-0.611424
-0.017888
-0.611641
-0.016107
-0.611804
-0.0147541
-0.611929
-0.0137299
-0.612027
-0.0129695
-0.612109
-0.0124302
-0.612179
-0.0120843
-0.0119152
-0.533195
-0.00036849
-0.532906
-0.00110967
-0.532406
-0.00186333
-0.531668
-0.00263742
-0.530651
-0.00343898
-0.529292
-0.00427299
-0.527504
-0.00513989
-0.52516
-0.00603021
-0.522079
-0.00691279
-0.518
-0.00770797
-0.512547
-0.00822453
-0.50522
-0.00800858
-0.495505
-0.00598676
-0.483432
0.000282738
-0.471149
0.0155871
-0.464319
0.045492
-0.464768
0.086066
-0.477573
0.141323
-0.492577
0.175781
-0.524951
0.222519
-0.53909
0.207159
-0.543808
0.207575
-0.632272
0.0886668
-0.652534
0.0918914
-0.331045
0.0915888
0
0
0
0
0
0
0
0
0
0
0
0
0
0
-0.236933
0.0699146
-0.558659
-0.117618
-0.581457
-0.0770585
-0.596162
-0.0506591
-0.602725
-0.0389732
-0.606058
-0.031333
-0.607987
-0.0260389
-0.609208
-0.0222415
-0.610027
-0.0194348
-0.610601
-0.0173135
-0.61102
-0.0156885
-0.611335
-0.0144385
-0.611582
-0.0134834
-0.611782
-0.0127694
-0.611951
-0.0122606
-0.612103
-0.0119332
-0.0117729
-0.533529
-0.000461357
-0.533245
-0.00139331
-0.532755
-0.0023534
-0.532031
-0.00336172
-0.531029
-0.00444055
-0.529687
-0.00561526
-0.527912
-0.00691514
-0.525568
-0.00837398
-0.522452
-0.0100285
-0.51825
-0.0119103
-0.512458
-0.0140166
-0.504258
-0.0162087
-0.492384
-0.0178608
-0.475427
-0.0166739
-0.454722
-0.00511797
-0.44518
0.0359502
-0.448506
0.0893915
-0.463167
0.155984
-0.471193
0.183807
-0.556684
0.0852869
-0.578285
0.0915849
-0.295377
0.0969674
0
0
0
0
0
0
0
0
0
0
0
0
0
0
0
0
0
0.108148
-0.166765
0.110191
-0.433434
0.120777
-0.539898
-0.0111541
-0.576712
-0.040245
-0.591428
-0.0359427
-0.599197
-0.0312045
-0.603581
-0.0269489
-0.60622
-0.0233998
-0.60791
-0.0205513
-0.609052
-0.0182934
-0.609858
-0.0165075
-0.61045
-0.0150964
-0.610901
-0.0139872
-0.611258
-0.0131265
-0.611551
-0.0124759
-0.611803
-0.0120086
-0.61203
-0.0117064
-0.011558
-0.533948
-0.000549964
-0.533678
-0.00166397
-0.53321
-0.0028211
-0.532519
-0.00405323
-0.531562
-0.00539728
-0.530279
-0.00689845
-0.528579
-0.0086145
-0.526331
-0.0106226
-0.523329
-0.0130301
-0.519247
-0.0159924
-0.513522
-0.0197415
-0.505103
-0.0246275
-0.491848
-0.0311158
-0.469256
-0.0392659
-0.429865
-0.0445096
-0.405946
0.0120319
-0.452134
-0.0304647
-0.479588
0.0580311
-0.251456
0.0896081
0
0
0
0
0
0
0
0.0190718
0
0.0241614
0
0.0302378
0
0.0371528
0
0.0455126
0
0.054192
0
0.0654903
-0.305194
0.075605
-0.588591
0.124286
-0.589915
0.0990188
-0.542647
0.0735093
-0.559257
0.00545576
-0.579192
-0.0203097
-0.590597
-0.0245374
-0.597624
-0.0241775
-0.602071
-0.0225016
-0.604959
-0.0205126
-0.606897
-0.018613
-0.608247
-0.0169436
-0.609221
-0.0155331
-0.609949
-0.0143682
-0.610513
-0.0134237
-0.610965
-0.0126747
-0.611341
-0.0120997
-0.611667
-0.0116823
-0.611963
-0.0114104
-0.0112764
-0.534449
-0.00063211
-0.534198
-0.00191483
-0.533765
-0.00325435
-0.533125
-0.00469313
-0.532241
-0.00628131
-0.531058
-0.00808165
-0.529496
-0.0101768
-0.527437
-0.0126817
-0.524703
-0.0157643
-0.521009
-0.0196854
-0.515869
-0.0248818
-0.508335
-0.0321615
-0.496192
-0.0432587
-0.472738
-0.06272
-0.412178
-0.10507
-0.284857
-0.238645
0
-0.0653136
0
-0.0150519
0
-0.0025088
0
0.00241302
0
0.00675661
-0.342195
0.013017
-0.683904
-0.0179982
-0.683464
-0.0268859
-0.683082
-0.0297884
-0.682188
-0.025021
-0.677985
-0.00567862
-0.667594
0.0128937
-0.651209
0.0238992
-0.662119
0.015307
-0.612753
0.0749198
-0.587797
0.0740631
-0.565941
0.0516532
-0.572187
0.0117017
-0.583349
-0.00914799
-0.591567
-0.016319
-0.597336
-0.0184083
-0.601364
-0.0184745
-0.604182
-0.0176946
-0.60618
-0.0166143
-0.607628
-0.0154954
-0.608705
-0.0144563
-0.609529
-0.0135444
-0.610179
-0.0127741
-0.610708
-0.0121455
-0.611154
-0.0116533
-0.611546
-0.011291
-0.611903
-0.0110528
-0.0109348
-0.535026
-0.000705823
-0.534801
-0.00213976
-0.534413
-0.00364222
-0.533842
-0.00526458
-0.533055
-0.00706783
-0.532008
-0.00912868
-0.530636
-0.0115488
-0.528848
-0.0144701
-0.526511
-0.0181007
-0.523434
-0.0227633
-0.519325
-0.0289902
-0.513764
-0.0377229
-0.506269
-0.0507537
-0.497292
-0.071697
-0.494178
-0.108184
-0.549457
-0.183367
-0.727041
-0.221727
-0.714693
-0.14077
-0.703266
-0.110781
-0.693675
-0.0961693
-0.686253
-0.0828106
-0.659371
-0.0723434
-0.640005
-0.0373645
-0.636371
-0.0305204
-0.63893
-0.0272293
-0.643208
-0.0207427
-0.642641
-0.00624549
-0.637161
0.00741351
-0.631691
0.0184297
-0.638033
0.0216483
-0.613963
0.0508499
-0.593485
0.053585
-0.579876
0.0380439
-0.581375
0.013201
-0.587564
-0.00295882
-0.59327
-0.0106132
-0.597787
-0.0138909
-0.601225
-0.0150368
-0.603802
-0.0151176
-0.605732
-0.0146845
-0.607191
-0.0140366
-0.608312
-0.0133349
-0.609193
-0.0126636
-0.609903
-0.0120646
-0.610491
-0.0115574
-0.610994
-0.01115
-0.61144
-0.0108448
-0.611851
-0.010642
-0.0105408
-0.53567
-0.000769394
-0.535476
-0.00233353
-0.535143
-0.00397549
-0.534654
-0.00575353
-0.533985
-0.00773657
-0.533103
-0.0100109
-0.531962
-0.0126898
-0.530503
-0.0159297
-0.528648
-0.0199551
-0.526308
-0.0251034
-0.523396
-0.0319026
-0.519909
-0.04121
-0.516209
-0.0544531
-0.513889
-0.074017
-0.518211
-0.103862
-0.552075
-0.149503
-0.605491
-0.168311
-0.618449
-0.127812
-0.623511
-0.105719
-0.629208
-0.0904725
-0.634743
-0.0772762
-0.642959
-0.0641274
-0.63707
-0.0432533
-0.634655
-0.0329351
-0.635567
-0.0263173
-0.637633
-0.018677
-0.636713
-0.00716565