/*--------------------------------*- C++ -*----------------------------------*\
| =========                 |                                                 |
| \\      /  F ield         | foam-extend: Open Source CFD                    |
|  \\    /   O peration     | Version:     4.1                                |
|   \\  /    A nd           | Web:         http://www.foam-extend.org         |
|    \\/     M anipulation  |                                                 |
\*---------------------------------------------------------------------------*/
FoamFile
{
    version     2.0;
    format      ascii;
    class       volVectorField;
    location    "0";
    object      U;
}
// * * * * * * * * * * * * * * * * * * * * * * * * * * * * * * * * * * * * * //

dimensions      [0 1 -1 0 0 0 0];

internalField   nonuniform List<vector> 
4393
(
(148.61156 -0.00056469373 0)
(148.61509 -0.0017937675 0)
(148.62277 -0.0033226936 0)
(148.63578 -0.0053536436 0)
(148.65595 -0.0080908715 0)
(148.68569 -0.011738883 0)
(148.72805 -0.016497897 0)
(148.78663 -0.022555842 0)
(148.86558 -0.030076343 0)
(148.96947 -0.039182445 0)
(149.10314 -0.049936403 0)
(149.27152 -0.062316749 0)
(149.47929 -0.076194772 0)
(149.73055 -0.091313627 0)
(150.02844 -0.10727396 0)
(150.37464 -0.12353019 0)
(150.76904 -0.13940056 0)
(151.20928 -0.15409273 0)
(151.69053 -0.16674438 0)
(152.20536 -0.17647587 0)
(152.74375 -0.18245066 0)
(153.29334 -0.18393866 0)
(153.83981 -0.18037796 0)
(154.36753 -0.17143119 0)
(154.86022 -0.15703301 0)
(155.30191 -0.13742463 0)
(155.6778 -0.11317025 0)
(155.97528 -0.08514879 0)
(156.18477 -0.054514678 0)
(156.30048 -0.02262374 0)
(156.32081 0.0090738698 0)
(156.24845 0.039163834 0)
(156.0901 0.066402567 0)
(155.85575 0.089833498 0)
(155.5577 0.10886282 0)
(155.20949 0.12328166 0)
(154.82471 0.13323496 0)
(154.41613 0.13914966 0)
(153.99495 0.14164198 0)
(153.57035 0.14142348 0)
(153.14938 0.13922057 0)
(152.73698 0.13571543 0)
(152.33614 0.13150933 0)
(151.94822 0.12710567 0)
(151.5732 0.1229075 0)
(151.21 0.11922428 0)
(150.85674 0.11628318 0)
(150.51095 0.11424138 0)
(150.1698 0.113197 0)
(148.60998 -0.0016497759 0)
(148.61325 -0.0052480342 0)
(148.62039 -0.0097449582 0)
(148.6326 -0.015747027 0)
(148.65169 -0.023867818 0)
(148.68009 -0.034722868 0)
(148.72084 -0.048916385 0)
(148.77758 -0.067017493 0)
(148.85449 -0.08952431 0)
(148.95623 -0.11681494 0)
(149.08772 -0.14908636 0)
(149.25402 -0.1862846 0)
(149.45996 -0.22803282 0)
(149.70983 -0.27356686 0)
(150.00696 -0.32169036 0)
(150.35322 -0.37076205 0)
(150.74866 -0.41872529 0)
(151.19105 -0.46318505 0)
(151.67561 -0.50153095 0)
(152.19489 -0.53109721 0)
(152.73878 -0.54934607 0)
(153.29472 -0.55405981 0)
(153.84815 -0.54352764 0)
(154.38309 -0.51671639 0)
(154.88289 -0.47341462 0)
(155.33115 -0.41433874 0)
(155.71265 -0.34118497 0)
(156.01438 -0.25660753 0)
(156.22646 -0.16410261 0)
(156.34287 -0.067785293 0)
(156.362 0.027936116 0)
(156.28667 0.1187587 0)
(156.12388 0.20090004 0)
(155.88405 0.27145674 0)
(155.58 0.32863753 0)
(155.22573 0.37182964 0)
(154.83529 0.40149977 0)
(154.42174 0.41896999 0)
(153.99646 0.42613073 0)
(153.56873 0.42515235 0)
(153.14558 0.41824046 0)
(152.73184 0.40745779 0)
(152.3304 0.39461576 0)
(151.94248 0.38122565 0)
(151.56794 0.3684936 0)
(151.20558 0.35734298 0)
(150.85342 0.34844981 0)
(150.5089 0.34228082 0)
(150.1691 0.33912679 0)
(148.60696 -0.0026020995 0)
(148.6097 -0.0083028938 0)
(148.61577 -0.015498269 0)
(148.62637 -0.025198753 0)
(148.6433 -0.038429536 0)
(148.66899 -0.056223095 0)
(148.70652 -0.079598165 0)
(148.75956 -0.10952105 0)
(148.83238 -0.14684614 0)
(148.92976 -0.19223375 0)
(149.05683 -0.24604661 0)
(149.21889 -0.30823023 0)
(149.4211 -0.37818827 0)
(149.66812 -0.45466921 0)
(149.96364 -0.53568533 0)
(150.30995 -0.61848657 0)
(150.70742 -0.69960712 0)
(151.15407 -0.77499463 0)
(151.64526 -0.84021959 0)
(152.17349 -0.89074852 0)
(152.72844 -0.9222571 0)
(153.29722 -0.93095691 0)
(153.86471 -0.91391248 0)
(154.41427 -0.8693307 0)
(154.92847 -0.79680696 0)
(155.39006 -0.69750969 0)
(155.78295 -0.57427687 0)
(156.09333 -0.4315896 0)
(156.31066 -0.27538494 0)
(156.42851 -0.112682 0)
(156.44517 0.048975617 0)
(156.36376 0.20221191 0)
(156.1919 0.34054624 0)
(155.9409 0.45902484 0)
(155.62462 0.55462943 0)
(155.25806 0.62638739 0)
(154.85614 0.67518676 0)
(154.43255 0.70337231 0)
(153.99907 0.71423687 0)
(153.56509 0.71151834 0)
(153.13759 0.69898069 0)
(152.72123 0.68011543 0)
(152.31865 0.65796579 0)
(151.9308 0.63505315 0)
(151.55728 0.61337684 0)
(151.19664 0.59445836 0)
(150.8467 0.57940569 0)
(150.50474 0.56898028 0)
(150.16769 0.5636548 0)
(148.60271 -0.0033337142 0)
(148.60466 -0.010693496 0)
(148.60913 -0.020138201 0)
(148.61732 -0.033081453 0)
(148.63101 -0.050963352 0)
(148.65264 -0.075242659 0)
(148.68531 -0.10736981 0)
(148.73275 -0.14873475 0)
(148.79935 -0.20058463 0)
(148.89009 -0.26390803 0)
(149.01039 -0.33928653 0)
(149.16592 -0.42672058 0)
(149.36233 -0.52544468 0)
(149.60484 -0.63375591 0)
(149.89775 -0.74888694 0)
(150.24394 -0.86695813 0)
(150.64432 -0.98303699 0)
(151.09731 -1.0913209 0)
(151.59844 -1.1854398 0)
(152.1402 -1.2588534 0)
(152.71197 -1.3053054 0)
(153.30028 -1.3192959 0)
(153.88923 -1.2965362 0)
(154.46116 -1.2343637 0)
(154.99744 -1.1320987 0)
(155.4795 -0.99131868 0)
(155.88993 -0.81601522 0)
(156.21364 -0.61257941 0)
(156.43906 -0.38955541 0)
(156.55911 -0.15711412 0)
(156.57193 0.073757934 0)
(156.48105 0.29228822 0)
(156.29509 0.48901723 0)
(156.02678 0.65675918 0)
(155.69158 0.79121986 0)
(155.3061 0.89114899 0)
(154.88661 0.95803549 0)
(154.44777 0.9954729 0)
(154.00189 1.00838 0)
(153.55856 1.0022484 0)
(153.12464 0.98253321 0)
(152.70449 0.95423283 0)
(152.30036 0.92165497 0)
(151.91276 0.88833119 0)
(151.54088 0.85703441 0)
(151.18294 0.82985563 0)
(150.83643 0.80830505 0)
(150.49839 0.79341312 0)
(150.16555 0.78581596 0)
(148.59761 -0.0037576165 0)
(148.59849 -0.012157465 0)
(148.60084 -0.023223223 0)
(148.60582 -0.038769192 0)
(148.61519 -0.060653869 0)
(148.63139 -0.0907743 0)
(148.65752 -0.13103577 0)
(148.69741 -0.18328847 0)
(148.7556 -0.24922377 0)
(148.83729 -0.33022448 0)
(148.94829 -0.42716843 0)
(149.09479 -0.54019312 0)
(149.28308 -0.66844013 0)
(149.51915 -0.80981153 0)
(149.80817 -0.96078179 0)
(150.15385 -1.1163152 0)
(150.55785 -1.2699312 0)
(151.01914 -1.4139427 0)
(151.53357 -1.5398624 0)
(152.09358 -1.638941 0)
(152.68815 -1.702781 0)
(153.30306 -1.7239684 0)
(153.92133 -1.6966766 0)
(154.52389 -1.6172156 0)
(155.0905 -1.4845082 0)
(155.60078 -1.3004714 0)
(156.03545 -1.0702568 0)
(156.37764 -0.80227507 0)
(156.6143 -0.50791132 0)
(156.73738 -0.2008488 0)
(156.74477 0.10402548 0)
(156.6406 0.39205397 0)
(156.43488 0.65037133 0)
(156.14237 0.86928517 0)
(155.78088 1.0431576 0)
(155.36927 1.1705962 0)
(154.92569 1.2539727 0)
(154.46612 1.2984758 0)
(154.00358 1.3109846 0)
(153.54786 1.2990157 0)
(153.10558 1.2699013 0)
(152.68064 1.2302513 0)
(152.27472 1.1856756 0)
(151.88772 1.1407083 0)
(151.51829 1.0988617 0)
(151.16415 1.0627515 0)
(150.8224 1.034245 0)
(150.48974 1.0146038 0)
(150.16263 1.0046006 0)
(148.5921 -0.0037883566 0)
(148.59168 -0.012436586 0)
(148.59139 -0.02431704 0)
(148.59236 -0.041639722 0)
(148.59634 -0.066684042 0)
(148.60572 -0.10179883 0)
(148.62363 -0.1493723 0)
(148.65395 -0.21176103 0)
(148.70139 -0.29116718 0)
(148.77146 -0.38945504 0)
(148.87041 -0.50790334 0)
(149.00508 -0.64690018 0)
(149.18259 -0.80560252 0)
(149.40994 -0.98160094 0)
(149.69341 -1.1706486 0)
(150.03784 -1.3665245 0)
(150.44591 -1.5610942 0)
(150.91735 -1.7446053 0)
(151.44844 -1.9062144 0)
(152.03159 -2.0346903 0)
(152.65529 -2.1192133 0)
(153.30435 -2.1501871 0)
(153.9604 -2.1200034 0)
(154.6026 -2.0237325 0)
(155.2086 -1.8597307 0)
(155.75567 -1.6301476 0)
(156.22206 -1.3412838 0)
(156.58854 -1.0036961 0)
(156.84001 -0.63191113 0)
(156.96707 -0.24361092 0)
(156.9672 0.14178005 0)
(156.84528 0.50502466 0)
(156.61324 0.82923811 0)
(156.28863 1.1018296 0)
(155.89245 1.3157326 0)
(155.44665 1.4696265 0)
(154.97187 1.5671869 0)
(154.48578 1.6156984 0)
(154.00225 1.6244683 0)
(153.53117 1.6034031 0)
(153.0788 1.561952 0)
(152.64834 1.5084589 0)
(152.24066 1.4498704 0)
(151.85488 1.3916984 0)
(151.48891 1.3381396 0)
(151.13986 1.2922678 0)
(150.80433 1.2562448 0)
(150.47863 1.231511 0)
(150.15888 1.2189393 0)
(148.58679 -0.0033428671 0)
(148.58481 -0.011279164 0)
(148.58137 -0.02299209 0)
(148.57757 -0.041078404 0)
(148.57509 -0.068238445 0)
(148.57626 -0.10728617 0)
(148.58422 -0.16112429 0)
(148.60288 -0.23267029 0)
(148.63713 -0.32471872 0)
(148.6928 -0.43972542 0)
(148.77666 -0.57950557 0)
(148.89632 -0.74484925 0)
(149.05995 -0.93507778 0)
(149.27579 -1.1475906 0)
(149.55155 -1.3774806 0)
(149.89355 -1.6173144 0)
(150.30579 -1.857172 0)
(150.78906 -2.0850022 0)
(151.34018 -2.2872923 0)
(151.95158 -2.4499742 0)
(152.61115 -2.5594453 0)
(153.30254 -2.6035869 0)
(154.00563 -2.5727023 0)
(154.69741 -2.4603522 0)
(155.35289 -2.2641004 0)
(155.94641 -1.9861708 0)
(156.45308 -1.6339659 0)
(156.85056 -1.2203158 0)
(157.12102 -0.76325109 0)
(157.25318 -0.28508006 0)
(157.24386 0.18937747 0)
(157.0989 0.63534256 0)
(156.83275 1.031048 0)
(156.4667 1.3604577 0)
(156.02608 1.6149785 0)
(155.53691 1.793694 0)
(155.02307 1.9022006 0)
(154.5043 1.9505841 0)
(153.99539 1.951212 0)
(153.50618 1.916851 0)
(153.04228 1.8593546 0)
(152.60592 1.7889312 0)
(152.19688 1.71388 0)
(151.81324 1.6406384 0)
(151.45201 1.574001 0)
(151.10956 1.517407 0)
(150.7819 1.4732271 0)
(150.46487 1.4430129 0)
(150.15425 1.4276906 0)
(148.58236 -0.0023415722 0)
(148.57858 -0.0084432414 0)
(148.57152 -0.018834524 0)
(148.5622 -0.03648431 0)
(148.5522 -0.064509424 0)
(148.5438 -0.10620002 0)
(148.54004 -0.1650061 0)
(148.54489 -0.24446736 0)
(148.56336 -0.3480666 0)
(148.6016 -0.47898538 0)
(148.667 -0.63974623 0)
(148.76803 -0.83173839 0)
(148.91409 -1.0546489 0)
(149.11501 -1.3058571 0)
(149.38026 -1.5798931 0)
(149.71805 -1.8680939 0)
(150.13411 -2.1585954 0)
(150.63061 -2.43675 0)
(151.20513 -2.6859738 0)
(151.85015 -2.8889074 0)
(152.55288 -3.0287126 0)
(153.29551 -3.0903317 0)
(154.05589 -3.0616079 0)
(154.80834 -2.9342615 0)
(155.52472 -2.7047714 0)
(156.17576 -2.3752051 0)
(156.73263 -1.9539571 0)
(157.16902 -1.4562309 0)
(157.4635 -0.90397159 0)
(157.60216 -0.32489875 0)
(157.58081 0.24963818 0)
(157.40639 0.78799805 0)
(157.09665 1.2623226 0)
(156.67792 1.6523698 0)
(156.18127 1.9479155 0)
(155.63813 2.1489655 0)
(155.07646 2.2639356 0)
(154.51845 2.3066945 0)
(153.97976 2.2935062 0)
(153.46994 2.2405814 0)
(152.99352 2.1625026 0)
(152.55136 2.0714603 0)
(152.1418 1.9770854 0)
(151.76163 1.886643 0)
(151.40676 1.8053986 0)
(151.07268 1.7370288 0)
(150.75474 1.6840024 0)
(150.44827 1.6478962 0)
(150.14867 1.6296319 0)
(148.5796 -0.00070982202 0)
(148.57381 -0.0037008242 0)
(148.56268 -0.011450958 0)
(148.54712 -0.02727895 0)
(148.52861 -0.054706841 0)
(148.50927 -0.097507006 0)
(148.49204 -0.15970784 0)
(148.48084 -0.24553645 0)
(148.48079 -0.35927245 0)
(148.49835 -0.50498219 0)
(148.54149 -0.68610632 0)
(148.61972 -0.90488604 0)
(148.74387 -1.1616432 0)
(148.92563 -1.4539778 0)
(149.17673 -1.77601 0)
(149.50775 -2.117851 0)
(149.92669 -2.4655062 0)
(150.43747 -2.801356 0)
(151.03874 -3.1052288 0)
(151.72308 -3.3558975 0)
(152.47687 -3.5327293 0)
(153.28061 -3.617229 0)
(154.10968 -3.5943459 0)
(154.9353 -3.4535679 0)
(155.7256 -3.1899208 0)
(156.44696 -2.8049868 0)
(157.06573 -2.3079385 0)
(157.55055 -1.716383 0)
(157.87524 -1.0566092 0)
(158.02225 -0.36270147 0)
(157.98579 0.3259776 0)
(157.77403 0.96911367 0)
(157.409 1.5310539 0)
(156.92376 1.9862826 0)
(156.35714 2.3228505 0)
(155.74759 2.5424947 0)
(155.12822 2.6577645 0)
(154.52402 2.6876703 0)
(153.95131 2.6534611 0)
(153.41884 2.5754912 0)
(152.92953 2.471412 0)
(152.48231 2.3554705 0)
(152.07367 2.238543 0)
(151.69878 2.1285596 0)
(151.35226 2.0310742 0)
(151.02862 1.9498313 0)
(150.72248 1.8872576 0)
(150.42863 1.8448497 0)
(150.14207 1.8234558 0)
(148.57941 0.0016203096 0)
(148.57142 0.0031567625 0)
(148.5558 -0.00047723225 0)
(148.53336 -0.01291807 0)
(148.50538 -0.03807212 0)
(148.4738 -0.080191492 0)
(148.44135 -0.14390833 0)
(148.41185 -0.23420227 0)
(148.39039 -0.35626776 0)
(148.38372 -0.51523928 0)
(148.40039 -0.7157306 0)
(148.451 -0.96115486 0)
(148.54803 -1.2528253 0)
(148.70543 -1.5888996 0)
(148.93768 -1.963323 0)
(149.25838 -2.3650243 0)
(149.67844 -2.7776638 0)
(150.20412 -3.1801741 0)
(150.83543 -3.54813 0)
(151.56515 -3.8557042 0)
(152.37866 -4.0777826 0)
(153.25444 -4.1918519 0)
(154.165 -4.1794817 0)
(155.07796 -4.027483 0)
(155.95711 -3.7289754 0)
(156.76375 -3.2845972 0)
(157.45837 -2.703923 0)
(158.00324 -2.0068544 0)
(158.36596 -1.2244175 0)
(158.52388 -0.39818035 0)
(158.46869 0.42255837 0)
(158.20978 1.1863163 0)
(157.77477 1.8472126 0)
(157.20578 2.3729335 0)
(156.55208 2.7497518 0)
(155.86141 2.9824126 0)
(155.17324 3.0895329 0)
(154.51558 3.0971416 0)
(153.90498 3.0328652 0)
(153.34857 2.9220053 0)
(152.84684 2.7855937 0)
(152.39611 2.639919 0)
(151.99053 2.4969143 0)
(151.62332 2.3649216 0)
(151.2876 2.249531 0)
(150.9768 2.1543365 0)
(150.68475 2.0815502 0)
(150.40574 2.0324638 0)
(150.1344 2.0077713 0)
(148.58278 0.0047078479 0)
(148.57241 0.012312324 0)
(148.55196 0.014410643 0)
(148.52206 0.0070931324 0)
(148.48376 -0.013897244 0)
(148.43871 -0.053277124 0)
(148.38936 -0.1162968 0)
(148.33927 -0.2087474 0)
(148.29343 -0.33686039 0)
(148.2587 -0.50704314 0)
(148.24421 -0.72538468 0)
(148.26166 -0.99686984 0)
(148.32537 -1.3242723 0)
(148.45196 -1.7067771 0)
(148.65931 -2.1385125 0)
(148.96486 -2.6073362 0)
(149.38326 -3.0943233 0)
(149.92383 -3.5743495 0)
(150.58839 -4.0178675 0)
(151.36998 -4.3935088 0)
(152.25277 -4.67084 0)
(153.21281 -4.82267 0)
(154.21926 -4.8266744 0)
(155.23564 -4.6665131 0)
(156.22086 -4.3328614 0)
(157.13033 -3.8247835 0)
(157.91756 -3.1516385 0)
(158.53688 -2.3352672 0)
(158.94769 -1.4116926 0)
(159.12023 -0.43121546 0)
(159.04212 0.5444639 0)
(158.7238 1.4492353 0)
(158.20008 2.2234491 0)
(157.52546 2.8257632 0)
(156.76346 3.2407229 0)
(155.97411 3.4781263 0)
(155.20471 3.5655287 0)
(154.48624 3.5385619 0)
(153.83455 3.432973 0)
(153.254 3.2798756 0)
(152.74147 3.1038923 0)
(152.28986 2.9231809 0)
(151.89033 2.7503913 0)
(151.53386 2.5939049 0)
(151.21187 2.4590116 0)
(150.91664 2.3488824 0)
(150.64123 2.2653095 0)
(150.37944 2.2092361 0)
(150.12561 2.1811123 0)
(148.59076 0.0086003724 0)
(148.57789 0.023915066 0)
(148.55233 0.033483329 0)
(148.51449 0.03318117 0)
(148.46514 0.018450763 0)
(148.40553 -0.015856199 0)
(148.33771 -0.075604854 0)
(148.2648 -0.16744257 0)
(148.19153 -0.29875537 0)
(148.1247 -0.47744309 0)
(148.07384 -0.71141939 0)
(148.05175 -1.0077327 0)
(148.07476 -1.3712295 0)
(148.1626 -1.8027741 0)
(148.3373 -2.2972182 0)
(148.62118 -2.8415759 0)
(149.03377 -3.4140764 0)
(149.58843 -3.9847506 0)
(150.28933 -4.5177725 0)
(151.12984 -4.9750068 0)
(152.09255 -5.3196755 0)
(153.15055 -5.5191885 0)
(154.2691 -5.5468298 0)
(155.40716 -5.3826499 0)
(156.51826 -5.0142702 0)
(157.55123 -4.438333 0)
(158.45138 -3.66301 0)
(159.1632 -2.7113259 0)
(159.63533 -1.6242577 0)
(159.82799 -0.46211824 0)
(159.72232 0.69788408 0)
(159.3291 1.7701799 0)
(158.69245 2.6760855 0)
(157.88397 3.3618616 0)
(156.98699 3.810608 0)
(156.07794 4.040507 0)
(155.21353 4.0923553 0)
(154.42721 4.0149254 0)
(153.73252 3.8541956 0)
(153.12918 3.6479175 0)
(152.60904 3.4242922 0)
(152.16045 3.202922 0)
(151.77101 2.9966224 0)
(151.42906 2.8132912 0)
(151.12426 2.657486 0)
(150.84766 2.5316256 0)
(150.59165 2.4368469 0)
(150.34961 2.3735863 0)
(150.11565 2.3419539 0)
(148.60446 0.013331141 0)
(148.589 0.038071776 0)
(148.55814 0.056942868 0)
(148.51204 0.065681764 0)
(148.45107 0.059499479 0)
(148.37601 0.032872126 0)
(148.28831 -0.020651111 0)
(148.1905 -0.10859328 0)
(148.08676 -0.23959484 0)
(147.9836 -0.42327036 0)
(147.89069 -0.66974879 0)
(147.82178 -0.98873611 0)
(147.79534 -1.3879433 0)
(147.83464 -1.8708157 0)
(147.96678 -2.43374 0)
(148.22029 -3.0633079 0)
(148.62114 -3.7346413 0)
(149.18803 -4.4118861 0)
(149.92822 -5.0513608 0)
(150.83538 -5.606534 0)
(151.88998 -6.0330248 0)
(153.06137 -6.2920944 0)
(154.31028 -6.3522389 0)
(155.59068 -6.1895423 0)
(156.8504 -5.7879268 0)
(158.03117 -5.1404983 0)
(159.0689 -4.2527642 0)
(159.89605 -3.1475552 0)
(160.44717 -1.8701877 0)
(160.66833 -0.49207118 0)
(160.53032 0.89028491 0)
(160.0426 2.1650757 0)
(159.2612 3.2265572 0)
(158.28181 4.0033064 0)
(157.21589 4.4777587 0)
(156.16194 4.6820213 0)
(155.18765 4.6766388 0)
(154.32747 4.5283111 0)
(153.58988 4.2956619 0)
(152.96739 4.0236691 0)
(152.44481 3.7436899 0)
(152.00474 3.475965 0)
(151.63058 3.2326454 0)
(151.30776 3.0204438 0)
(151.0241 2.8426516 0)
(150.76954 2.7005546 0)
(150.53587 2.5943762 0)
(150.31618 2.5238795 0)
(150.10452 2.4887366 0)
(148.62503 0.018915976 0)
(148.60696 0.054837171 0)
(148.57073 0.084905604 0)
(148.51619 0.10481399 0)
(148.44326 0.10963491 0)
(148.3521 0.093554165 0)
(148.2434 0.049599928 0)
(148.11884 -0.030606481 0)
(147.98175 -0.15702366 0)
(147.83793 -0.34118523 0)
(147.69686 -0.59585204 0)
(147.57295 -0.93408629 0)
(147.48671 -1.3674725 0)
(147.4654 -1.9032786 0)
(147.54231 -2.5406423 0)
(147.75391 -3.2664777 0)
(148.13472 -4.0525787 0)
(148.71062 -4.8558083 0)
(149.4929 -5.6224164 0)
(150.4754 -6.2952534 0)
(151.63551 -6.8207834 0)
(152.93774 -7.1534114 0)
(154.33747 -7.2566886 0)
(155.78337 -7.1026209 0)
(157.21763 -6.6708336 0)
(158.57467 -5.9494661 0)
(159.78001 -4.939174 0)
(160.75159 -3.6602995 0)
(161.40565 -2.1608951 0)
(161.6683 -0.52390838 0)
(161.49375 1.1304926 0)
(160.88662 2.6547757 0)
(159.91794 3.9035765 0)
(158.7181 4.7791054 0)
(157.43947 5.2649938 0)
(156.21053 5.4167112 0)
(155.11106 5.3244535 0)
(154.17323 5.0791731 0)
(153.39609 4.7546143 0)
(152.7612 4.4029703 0)
(152.24391 4.0576412 0)
(151.81975 3.7381612 0)
(151.46733 3.4548382 0)
(151.16907 3.2123033 0)
(150.911 3.0119526 0)
(150.68215 2.8535199 0)
(150.47387 2.7360469 0)
(150.27918 2.65846 0)
(150.09222 2.6199003 0)
(148.65363 0.025350037 0)
(148.633 0.074203795 0)
(148.59146 0.11738392 0)
(148.52852 0.15065177 0)
(148.44356 0.16906 0)
(148.33598 0.16662442 0)
(148.20553 0.13596305 0)
(148.05276 0.067918439 0)
(147.87971 -0.048788304 0)
(147.69104 -0.22776443 0)
(147.49542 -0.48481419 0)
(147.30737 -0.83714671 0)
(147.14921 -1.3014819 0)
(147.05252 -1.8906045 0)
(147.05798 -2.6082238 0)
(147.21233 -3.4428632 0)
(147.56159 -4.3629035 0)
(148.14147 -5.3160065 0)
(148.96859 -6.2351482 0)
(150.03647 -7.0494427 0)
(151.31788 -7.6942763 0)
(152.77077 -8.1166623 0)
(154.34414 -8.2755139 0)
(155.98125 -8.1391305 0)
(157.61917 -7.6824429 0)
(159.18561 -6.886845 0)
(160.59501 -5.7449537 0)
(161.74824 -4.2710571 0)
(162.53809 -2.5127503 0)
(162.86259 -0.56348521 0)
(162.64944 1.4285304 0)
(161.89132 3.2669123 0)
(160.67742 4.7464946 0)
(159.18942 5.728078 0)
(157.64096 6.2007494 0)
(156.20158 6.2598346 0)
(154.96263 6.0402784 0)
(153.94757 5.6652699 0)
(153.13908 5.2256046 0)
(152.50274 4.779465 0)
(152.0016 4.3601041 0)
(151.60288 3.9842877 0)
(151.28001 3.6589029 0)
(151.01251 3.3854143 0)
(150.78491 3.1626233 0)
(150.58561 2.9882808 0)
(150.40583 2.8599905 0)
(150.23875 2.775695 0)
(150.07881 2.7339263 0)
(148.6914 0.03260468 0)
(148.66832 0.096092032 0)
(148.6217 0.15426768 0)
(148.55064 0.20309381 0)
(148.45391 0.23774901 0)
(148.33003 0.25223946 0)
(148.17759 0.23894092 0)
(147.99567 0.18807095 0)
(147.78462 0.087122309 0)
(147.54725 -0.079644275 0)
(147.29061 -0.33142849 0)
(147.0285 -0.69042821 0)
(146.7844 -1.1800301 0)
(146.59424 -1.8208205 0)
(146.50747 -2.6237962 0)
(146.58412 -3.5812932 0)
(146.88596 -4.6585337 0)
(147.46245 -5.7912986 0)
(148.33727 -6.8944786 0)
(149.50264 -7.8789478 0)
(150.92403 -8.6666348 0)
(152.55025 -9.1970394 0)
(154.32249 -9.4255546 0)
(156.17875 -9.3179975 0)
(158.05248 -8.8446788 0)
(159.86633 -7.9781318 0)
(161.52387 -6.6982913 0)
(162.90639 -5.0082192 0)
(163.87736 -2.9494758 0)
(164.29582 -0.62206224 0)
(164.04735 1.7948498 0)
(163.09859 4.0385153 0)
(161.55872 5.8107455 0)
(159.6876 6.9032336 0)
(157.79397 7.320321 0)
(156.10355 7.2267984 0)
(154.71468 6.8251931 0)
(153.63011 6.2801031 0)
(152.80556 5.6994722 0)
(152.1842 5.144058 0)
(151.71379 4.6432138 0)
(151.35228 4.2080001 0)
(151.06808 3.8399025 0)
(150.83821 3.5359931 0)
(150.64624 3.2917614 0)
(150.48039 3.1025741 0)
(150.33215 2.9643808 0)
(150.19514 2.8740293 0)
(150.06438 2.8293885 0)
(148.73943 0.040624661 0)
(148.7141 0.12034103 0)
(148.66279 0.19530678 0)
(148.58418 0.26183402 0)
(148.47632 0.31540014 0)
(148.33678 0.35020517 0)
(148.16275 0.35861721 0)
(147.95154 0.33048065 0)
(147.70124 0.25228533 0)
(147.41201 0.10626148 0)
(147.08823 -0.13039145 0)
(146.74164 -0.48566432 0)
(146.39562 -0.99138352 0)
(146.09001 -1.6789538 0)
(145.88433 -2.5706924 0)
(145.85584 -3.6665043 0)
(146.08825 -4.9294864 0)
(146.65084 -6.2797392 0)
(147.57682 -7.6065695 0)
(148.85503 -8.7959116 0)
(150.43915 -9.753341 0)
(152.26482 -10.41159 0)
(154.26351 -10.724961 0)
(156.3685 -10.659425 0)
(158.51241 -10.181683 0)
(160.61653 -9.2531048 0)
(162.57495 -7.8339539 0)
(164.24745 -5.9092351 0)
(165.4622 -3.5056103 0)
(166.02547 -0.72041637 0)
(165.7565 2.2381677 0)
(164.56858 5.0196452 0)
(162.58723 7.1771039 0)
(160.1958 8.3785672 0)
(157.85667 8.6668304 0)
(155.87149 8.3306879 0)
(154.3315 7.6738788 0)
(153.19709 6.9107321 0)
(152.38172 6.1621326 0)
(151.79857 5.4843976 0)
(151.37757 4.8971545 0)
(151.06733 4.4018831 0)
(150.832 3.992374 0)
(150.64708 3.6600485 0)
(150.49596 3.3964354 0)
(150.36735 3.1942033 0)
(150.25347 3.0475081 0)
(150.14875 2.9520477 0)
(150.04905 2.9050103 0)
(148.79871 0.049325958 0)
(148.77144 0.14670141 0)
(148.71603 0.24009634 0)
(148.63071 0.32633472 0)
(148.51282 0.40138958 0)
(148.35884 0.4599011 0)
(148.16444 0.49453733 0)
(147.92479 0.49513869 0)
(147.63514 0.44759438 0)
(147.29213 0.33244685 0)
(146.89599 0.12336555 0)
(146.45451 -0.21403538 0)
(145.98888 -0.72191423 0)
(145.54137 -1.4463453 0)
(145.18244 -2.4268891 0)
(145.01159 -3.6774182 0)
(145.1438 -5.1616522 0)
(145.67773 -6.7785897 0)
(146.65982 -8.3797663 0)
(148.07146 -9.8159478 0)
(149.84691 -10.973016 0)
(151.9025 -11.779419 0)
(154.15727 -12.19277 0)
(156.54094 -12.184056 0)
(158.99003 -11.719058 0)
(161.43148 -10.74611 0)
(163.75311 -9.1943136 0)
(165.79195 -7.0230983 0)
(167.33658 -4.2313311 0)
(168.12501 -0.89583281 0)
(167.87406 2.7601996 0)
(166.39122 6.2781169 0)
(163.798 8.9683493 0)
(160.68076 10.259768 0)
(157.76205 10.290854 0)
(155.44158 9.577096 0)
(153.76805 8.5698257 0)
(152.62228 7.5348959 0)
(151.85467 6.5932975 0)
(151.34088 5.7845187 0)
(150.99211 5.1102189 0)
(150.7491 4.5576496 0)
(150.57352 4.1105418 0)
(150.44092 3.753565 0)
(150.33568 3.473829 0)
(150.24777 3.2611493 0)
(150.17071 3.1078645 0)
(150.10014 3.0085447 0)
(150.03302 2.9597266 0)
(148.87011 0.058594572 0)
(148.84128 0.1748309 0)
(148.78255 0.28806658 0)
(148.69171 0.39580582 0)
(148.56537 0.49473161 0)
(148.39888 0.58020829 0)
(148.18625 0.64558402 0)
(147.92025 0.68119479 0)
(147.59277 0.67294926 0)
(147.19586 0.60038052 0)
(146.72391 0.43415346 0)
(146.17812 0.13336145 0)
(145.57408 -0.35619959 0)
(144.95336 -1.0999086 0)
(144.39695 -2.1630922 0)
(144.03266 -3.5844638 0)
(144.0208 -5.3348387 0)
(144.50543 -7.2844446 0)
(145.55192 -9.2262943 0)
(147.1262 -10.960034 0)
(149.13017 -12.348543 0)
(151.45165 -13.321938 0)
(153.99375 -13.848163 0)
(156.6843 -13.91148 0)
(159.47104 -13.48219 0)
(162.29969 -12.496381 0)
(165.05696 -10.82997 0)
(167.5561 -8.4127621 0)
(169.54704 -5.19871 0)
(170.68649 -1.2137088 0)
(170.53913 3.3436161 0)
(168.70735 7.9044483 0)
(165.24166 11.381289 0)
(161.07747 12.701116 0)
(157.40155 12.245918 0)
(154.72414 10.953954 0)
(152.97003 9.4780656 0)
(151.87941 8.1175789 0)
(151.2148 6.9654316 0)
(150.80985 6.0248712 0)
(150.55965 5.2691807 0)
(150.40088 4.6665442 0)
(150.29595 4.1886513 0)
(150.22261 3.8127523 0)
(150.16768 3.5214198 0)
(150.12338 3.3016976 0)
(150.08506 3.1442365 0)
(150.05 3.0425964 0)
(150.01651 2.9927461 0)
(148.95433 0.068286658 0)
(148.92442 0.20429402 0)
(148.86334 0.33847968 0)
(148.76848 0.46919399 0)
(148.63576 0.59405105 0)
(148.45941 0.70944926 0)
(148.23177 0.80985959 0)
(147.94303 0.88674256 0)
(147.58127 0.92689223 0)
(147.13293 0.9099401 0)
(146.58465 0.80474799 0)
(145.92761 0.56465562 0)
(145.1667 0.12246968 0)
(144.33677 -0.61148285 0)
(143.52606 -1.7401004 0)
(142.8971 -3.3452864 0)
(142.67715 -5.419478 0)
(143.08343 -7.7937466 0)
(144.20943 -10.165316 0)
(145.98996 -12.257556 0)
(148.27231 -13.908566 0)
(150.90275 -15.063199 0)
(153.76424 -15.709293 0)
(156.78492 -15.857841 0)
(159.93343 -15.492662 0)
(163.19963 -14.549142 0)
(166.47553 -12.799315 0)
(169.54612 -10.156579 0)
(172.13594 -6.5087329 0)
(173.81989 -1.785951 0)
(173.95283 3.9254739 0)
(171.74967 10.012553 0)
(166.99577 14.752903 0)
(161.25717 15.931363 0)
(156.59728 14.57288 0)
(153.59635 12.412556 0)
(151.87713 10.335016 0)
(150.94719 8.6076667 0)
(150.45953 7.2435269 0)
(150.21005 6.1830594 0)
(150.08656 5.3601187 0)
(150.02874 4.7199972 0)
(150.00433 4.2214303 0)
(149.9961 3.8343545 0)
(149.99497 3.5371838 0)
(149.99632 3.3145743 0)
(149.99797 3.1557991 0)
(149.99915 3.0536305 0)
(149.99979 3.0036098 0)
(149.05183 0.078230283 0)
(149.02141 0.23456678 0)
(148.95915 0.3904356 0)
(148.86209 0.54518534 0)
(148.72554 0.69757443 0)
(148.54275 0.84535156 0)
(148.30444 0.98459178 0)
(147.99827 1.1086163 0)
(147.60824 1.2062138 0)
(147.11443 1.2587175 0)
(146.49372 1.2352982 0)
(145.72326 1.0857692 0)
(144.78999 0.73081302 0)
(143.71165 0.052349998 0)
(142.57441 -1.1052998 0)
(141.57974 -2.8976628 0)
(141.05516 -5.3707498 0)
(141.34154 -8.3042481 0)
(142.57604 -11.228483 0)
(144.6307 -13.75118 0)
(147.25974 -15.689201 0)
(150.25117 -17.030478 0)
(153.46399 -17.791554 0)
(156.82872 -18.032524 0)
(160.34351 -17.760177 0)
(164.09526 -16.960262 0)
(167.98533 -15.165508 0)
(171.74982 -12.347111 0)
(175.12746 -8.2965053 0)
(177.64263 -2.7975903 0)
(178.4048 4.3403743 0)
(175.92564 12.719206 0)
(169.18754 19.707579 0)
(160.95746 20.289142 0)
(155.05568 17.256215 0)
(151.8989 13.834365 0)
(150.43344 11.036326 0)
(149.81842 8.936328 0)
(149.59839 7.3866569 0)
(149.55425 6.2356802 0)
(149.58428 5.3698035 0)
(149.64176 4.7105372 0)
(149.70552 4.2046575 0)
(149.76644 3.815999 0)
(149.82116 3.5198094 0)
(149.86912 3.2990802 0)
(149.9111 3.1422033 0)
(149.94854 3.0414878 0)
(149.98316 2.992242 0)
(149.16286 0.088229048 0)
(149.13256 0.2650474 0)
(149.07042 0.44288889 0)
(148.97324 0.6222258 0)
(148.83587 0.80314757 0)
(148.65076 0.98504809 0)
(148.40728 1.1660865 0)
(148.09078 1.3422353 0)
(147.68134 1.505577 0)
(147.15232 1.6412383 0)
(146.46935 1.7218972 0)
(145.59128 1.6981836 0)
(144.47775 1.4829371 0)
(143.1127 0.92915501 0)
(141.55939 -0.18840401 0)
(140.05346 -2.1474965 0)
(139.07276 -5.1173945 0)
(139.17827 -8.8188662 0)
(140.57814 -12.470112 0)
(143.01615 -15.50466 0)
(146.08611 -17.735055 0)
(149.50118 -19.255623 0)
(153.09621 -20.104974 0)
(156.80584 -20.435349 0)
(160.64827 -20.262165 0)
(164.92941 -19.813531 0)
(169.55096 -17.986655 0)
(174.12546 -15.085291 0)
(178.50229 -10.727971 0)
(182.24448 -4.5376958 0)
(184.29736 4.2037784 0)
(181.99447 16.043839 0)
(172.0424 27.509725 0)
(159.62293 26.253359 0)
(152.29409 20.112405 0)
(149.44975 14.978925 0)
(148.61177 11.427395 0)
(148.51408 9.0203998 0)
(148.6591 7.3525894 0)
(148.86548 6.1615899 0)
(149.0698 5.2876615 0)
(149.25198 4.6329054 0)
(149.40797 4.1357864 0)
(149.53954 3.7565461 0)
(149.65036 3.4688971 0)
(149.74458 3.2552074 0)
(149.82625 3.1036468 0)
(149.89917 3.0064696 0)
(149.96696 2.9589873 0)
(149.28735 0.098067699 0)
(149.25785 0.29507329 0)
(149.19727 0.49467755 0)
(149.10226 0.69856182 0)
(148.96742 0.9082857 0)
(148.78471 1.1251278 0)
(148.54257 1.3497544 0)
(148.2246 1.5815462 0)
(147.80757 1.8172427 0)
(147.25864 2.0482047 0)
(146.53168 2.2548839 0)
(145.56396 2.3957237 0)
(144.2773 2.3855213 0)
(142.59742 2.0565279 0)
(140.52331 1.1025075 0)
(138.29375 -0.94808429 0)
(136.60759 -4.5388956 0)
(136.43973 -9.3558064 0)
(138.11885 -13.985828 0)
(141.12074 -17.615541 0)
(144.7591 -20.096387 0)
(148.67122 -21.779087 0)
(152.6775 -22.649051 0)
(156.72393 -23.061977 0)
(160.75806 -22.886575 0)
(165.61227 -23.279352 0)
(171.13749 -21.285351 0)
(176.58895 -18.470563 0)
(182.15919 -13.974082 0)
(187.59713 -7.4116678 0)
(192.12582 2.6900333 0)
(191.46293 19.534771 0)
(175.99388 40.966206 0)
(156.02591 34.388505 0)
(147.53939 22.520828 0)
(146.10889 15.420397 0)
(146.46109 11.309782 0)
(147.10188 8.7759448 0)
(147.69252 7.1066058 0)
(148.17763 5.946579 0)
(148.56516 5.1081097 0)
(148.87384 4.4852126 0)
(149.12128 4.0145248 0)
(149.32185 3.6563861 0)
(149.48694 3.3851139 0)
(149.62562 3.1837217 0)
(149.74528 3.0409199 0)
(149.8521 2.9493648 0)
(149.95151 2.9046293 0)
(149.42495 0.1075196 0)
(149.39696 0.32394422 0)
(149.33941 0.54456398 0)
(149.24898 0.77230238 0)
(149.12025 1.0102602 0)
(148.94507 1.2617479 0)
(148.71156 1.5302378 0)
(148.40244 1.8191218 0)
(147.99244 2.1310126 0)
(147.44408 2.4659635 0)
(146.70103 2.8171325 0)
(145.67838 3.1603936 0)
(144.25162 3.4297904 0)
(142.25736 3.461691 0)
(139.55631 2.8807851 0)
(136.29253 0.93586861 0)
(133.46761 -3.4154639 0)
(132.88032 -9.9758077 0)
(135.07165 -15.946127 0)
(138.94245 -20.237031 0)
(143.31041 -22.81245 0)
(147.79941 -24.663768 0)
(152.24095 -25.396254 0)
(156.64749 -25.950085 0)
(160.50336 -25.258461 0)
(166.24865 -25.819537 -4.4238713e-17)
(171.95071 -24.123612 -3.9384609e-18)
(178.60804 -21.199876 0)
(186.22406 -17.356123 3.3942878e-17)
(193.68043 -11.031714 -1.8672496e-17)
(202.39622 0.43888367 -1.4820077e-20)
(211.73672 21.956244 7.8854392e-19)
(178.24998 62.006329 -1.0633627e-16)
(147.32601 44.874751 0)
(139.64869 22.810474 0)
(141.97572 14.533061 0)
(144.18214 10.49138 0)
(145.71196 8.1472683 0)
(146.77285 6.6342613 0)
(147.53315 5.5886537 0)
(148.09555 4.832748 0)
(148.52292 4.2698711 0)
(148.85542 3.8432413 0)
(149.11993 3.5176187 0)
(149.33525 3.2702731 0)
(149.51512 3.0861956 0)