/*--------------------------------*- C++ -*----------------------------------*\
| =========                 |                                                 |
| \\      /  F ield         | foam-extend: Open Source CFD                    |
|  \\    /   O peration     | Version:     4.1                                |
|   \\  /    A nd           | Web:         http://www.foam-extend.org         |
|    \\/     M anipulation  |                                                 |
\*---------------------------------------------------------------------------*/
FoamFile
{
    version     2.0;
    format      ascii;
    class       volVectorField;
    location    "0";
    object      U;
}
// * * * * * * * * * * * * * * * * * * * * * * * * * * * * * * * * * * * * * //

dimensions      [0 1 -1 0 0 0 0];

internalField   nonuniform List<vector> 
4393
(
(131.753 -0.00423123 0)
(131.778 -0.01283 0)
(131.83 -0.021833 0)
(131.91 -0.031506 0)
(132.021 -0.042108 0)
(132.165 -0.0538849 0)
(132.346 -0.0670626 0)
(132.569 -0.0818351 0)
(132.84 -0.0983506 0)
(133.162 -0.116695 0)
(133.543 -0.136872 0)
(133.986 -0.158782 0)
(134.498 -0.182199 0)
(135.081 -0.206761 0)
(135.739 -0.231956 0)
(136.473 -0.257129 0)
(137.281 -0.281495 0)
(138.159 -0.304174 0)
(139.102 -0.324234 0)
(140.099 -0.340741 0)
(141.14 -0.352818 0)
(142.208 -0.359702 0)
(143.289 -0.36079 0)
(144.364 -0.355693 0)
(145.414 -0.344266 0)
(146.42 -0.326654 0)
(147.365 -0.303307 0)
(148.233 -0.274993 0)
(149.009 -0.242778 0)
(149.685 -0.207969 0)
(150.255 -0.172024 0)
(150.718 -0.136423 0)
(151.076 -0.102529 0)
(151.337 -0.0714489 0)
(151.51 -0.0439533 0)
(151.607 -0.0204413 0)
(151.639 -0.000974069 0)
(151.619 0.0146519 0)
(151.556 0.026824 0)
(151.462 0.0360235 0)
(151.344 0.0427583 0)
(151.209 0.0475226 0)
(151.061 0.0507655 0)
(150.906 0.0528743 0)
(150.745 0.0541723 0)
(150.582 0.0549184 0)
(150.416 0.0553119 0)
(150.25 0.0554962 0)
(150.083 0.0555662 0)
(131.741 -0.012634 0)
(131.766 -0.03831 0)
(131.818 -0.065201 0)
(131.897 -0.0941057 0)
(132.006 -0.125804 0)
(132.148 -0.161035 0)
(132.327 -0.200483 0)
(132.549 -0.244736 0)
(132.816 -0.294248 0)
(133.137 -0.349284 0)
(133.515 -0.409864 0)
(133.956 -0.475696 0)
(134.466 -0.54611 0)
(135.048 -0.620024 0)
(135.706 -0.6959 0)
(136.44 -0.771763 0)
(137.25 -0.845247 0)
(138.131 -0.913692 0)
(139.078 -0.974275 0)
(140.081 -1.02417 0)
(141.127 -1.06074 0)
(142.203 -1.08164 0)
(143.292 -1.08508 0)
(144.375 -1.06984 0)
(145.433 -1.0355 0)
(146.447 -0.98246 0)
(147.399 -0.912085 0)
(148.272 -0.826683 0)
(149.053 -0.729472 0)
(149.732 -0.624418 0)
(150.302 -0.515945 0)
(150.764 -0.408558 0)
(151.119 -0.306394 0)
(151.376 -0.212816 0)
(151.544 -0.130146 0)
(151.636 -0.0595716 0)
(151.663 -0.00124757 0)
(151.638 0.0454765 0)
(151.571 0.0817927 0)
(151.473 0.109171 0)
(151.352 0.129162 0)
(151.214 0.143261 0)
(151.065 0.152818 0)
(150.908 0.158999 0)
(150.747 0.162775 0)
(150.582 0.164922 0)
(150.417 0.166036 0)
(150.25 0.166549 0)
(150.083 0.166738 0)
(131.718 -0.0208565 0)
(131.743 -0.0632492 0)
(131.793 -0.107673 0)
(131.87 -0.155464 0)
(131.976 -0.20793 0)
(132.115 -0.266316 0)
(132.29 -0.331779 0)
(132.507 -0.405319 0)
(132.77 -0.487719 0)
(133.085 -0.579451 0)
(133.458 -0.680575 0)
(133.896 -0.790634 0)
(134.402 -0.908537 0)
(134.982 -1.03249 0)
(135.639 -1.15992 0)
(136.374 -1.28751 0)
(137.187 -1.41127 0)
(138.074 -1.52671 0)
(139.029 -1.62905 0)
(140.043 -1.71348 0)
(141.102 -1.77553 0)
(142.193 -1.81124 0)
(143.297 -1.81753 0)
(144.397 -1.79233 0)
(145.471 -1.73488 0)
(146.501 -1.64582 0)
(147.467 -1.52741 0)
(148.352 -1.38352 0)
(149.142 -1.21961 0)
(149.826 -1.0424 0)
(150.397 -0.859467 0)
(150.856 -0.678512 0)
(151.206 -0.506619 0)
(151.454 -0.349524 0)
(151.613 -0.211137 0)
(151.693 -0.0933942 0)
(151.71 0.0035425 0)
(151.675 0.0808828 0)
(151.6 0.140728 0)
(151.495 0.185624 0)
(151.368 0.218226 0)
(151.225 0.241067 0)
(151.072 0.25642 0)
(150.913 0.266238 0)
(150.749 0.272141 0)
(150.584 0.275417 0)
(150.417 0.277056 0)
(150.251 0.27777 0)
(150.084 0.278015 0)
(131.685 -0.0287775 0)
(131.708 -0.0872845 0)
(131.756 -0.148645 0)
(131.829 -0.214743 0)
(131.931 -0.287424 0)
(132.065 -0.368462 0)
(132.234 -0.459503 0)
(132.444 -0.561995 0)
(132.7 -0.67709 0)
(133.008 -0.805509 0)
(133.374 -0.947403 0)
(133.804 -1.10219 0)
(134.305 -1.2684 0)
(134.882 -1.44352 0)
(135.537 -1.62397 0)
(136.274 -1.80505 0)
(137.092 -1.98106 0)
(137.988 -2.14558 0)
(138.955 -2.29174 0)
(139.985 -2.41266 0)
(141.064 -2.50188 0)
(142.176 -2.55374 0)
(143.305 -2.56375 0)
(144.43 -2.52891 0)
(145.53 -2.44803 0)
(146.584 -2.32196 0)
(147.571 -2.15382 0)
(148.474 -1.94909 0)
(149.277 -1.71556 0)
(149.968 -1.46296 0)
(150.542 -1.20225 0)
(150.996 -0.944685 0)
(151.337 -0.700579 0)
(151.572 -0.478247 0)
(151.715 -0.283249 0)
(151.78 -0.118202 0)
(151.78 0.0168902 0)
(151.731 0.123993 0)
(151.643 0.206302 0)
(151.527 0.267585 0)
(151.391 0.311701 0)
(151.241 0.342284 0)
(151.083 0.362564 0)
(150.919 0.375293 0)
(150.753 0.382739 0)
(150.586 0.386698 0)
(150.418 0.388537 0)
(150.251 0.38924 0)
(150.084 0.389436 0)
(131.64 -0.0362726 0)
(131.662 -0.110047 0)
(131.707 -0.187508 0)
(131.776 -0.271094 0)
(131.873 -0.363207 0)
(131.999 -0.46617 0)
(132.16 -0.582159 0)
(132.361 -0.713113 0)
(132.607 -0.860604 0)
(132.905 -1.02567 0)
(133.261 -1.20862 0)
(133.682 -1.40882 0)
(134.175 -1.62446 0)
(134.746 -1.85237 0)
(135.4 -2.08792 0)
(136.139 -2.32497 0)
(136.963 -2.55605 0)
(137.87 -2.77263 0)
(138.854 -2.96559 0)
(139.905 -3.12581 0)
(141.011 -3.24465 0)
(142.153 -3.31458 0)
(143.315 -3.32958 0)
(144.474 -3.28559 0)
(145.608 -3.18088 0)
(146.695 -3.01642 0)
(147.712 -2.79614 0)
(148.64 -2.5272 0)
(149.461 -2.21987 0)
(150.163 -1.88715 0)
(150.738 -1.54385 0)
(151.187 -1.20524 0)
(151.514 -0.885327 0)
(151.731 -0.59531 0)
(151.853 -0.342488 0)
(151.895 -0.130036 0)
(151.874 0.0424639 0)
(151.804 0.178032 0)
(151.698 0.281227 0)
(151.568 0.357249 0)
(151.42 0.411302 0)
(151.261 0.448204 0)
(151.096 0.472184 0)
(150.927 0.486808 0)
(150.758 0.494982 0)
(150.588 0.498996 0)
(150.42 0.500585 0)
(150.251 0.500986 0)
(150.084 0.500993 0)
(131.586 -0.0432188 0)
(131.606 -0.131167 0)
(131.647 -0.223642 0)
(131.711 -0.323649 0)
(131.8 -0.434168 0)
(131.918 -0.558097 0)
(132.069 -0.698189 0)
(132.258 -0.856931 0)
(132.491 -1.03639 0)
(132.776 -1.23801 0)
(133.119 -1.46234 0)
(133.528 -1.70879 0)
(134.011 -1.9753 0)
(134.575 -2.25807 0)
(135.225 -2.55144 0)
(135.966 -2.84775 0)
(136.798 -3.13761 0)
(137.719 -3.41021 0)
(138.724 -3.65395 0)
(139.803 -3.85718 0)
(140.941 -4.0089 0)
(142.122 -4.09948 0)
(143.325 -4.12121 0)
(144.529 -4.06877 0)
(145.707 -3.93978 0)
(146.837 -3.73515 0)
(147.893 -3.45962 0)
(148.853 -3.122 0)
(149.697 -2.73527 0)
(150.412 -2.31608 0)
(150.99 -1.88366 0)
(151.43 -1.45799 0)
(151.74 -1.05744 0)
(151.932 -0.696523 0)
(152.026 -0.384392 0)
(152.038 -0.124566 0)
(151.989 0.084181 0)
(151.893 0.246358 0)
(151.766 0.36826 0)
(151.617 0.456792 0)
(151.454 0.518685 0)
(151.284 0.56004 0)
(151.11 0.586127 0)
(150.936 0.601333 0)
(150.763 0.609193 0)
(150.591 0.612471 0)
(150.42 0.61324 0)
(150.251 0.612973 0)
(150.084 0.612611 0)
(131.523 -0.0494923 0)
(131.541 -0.150267 0)
(131.578 -0.256414 0)
(131.635 -0.371522 0)
(131.715 -0.499161 0)
(131.822 -0.642847 0)
(131.96 -0.805955 0)
(132.135 -0.991593 0)
(132.352 -1.20242 0)
(132.62 -1.44039 0)
(132.947 -1.70643 0)
(133.341 -2.0001 0)
(133.811 -2.31919 0)
(134.365 -2.65938 0)
(135.01 -3.01394 0)
(135.752 -3.37366 0)
(136.593 -3.72702 0)
(137.532 -4.06068 0)
(138.562 -4.36026 0)
(139.674 -4.61125 0)
(140.853 -4.80001 0)
(142.081 -4.91456 0)
(143.337 -4.94526 0)
(144.595 -4.88538 0)
(145.828 -4.73162 0)
(147.011 -4.48472 0)
(148.115 -4.15005 0)
(149.115 -3.73812 0)
(149.989 -3.26481 0)
(150.721 -2.75092 0)
(151.301 -2.22085 0)
(151.73 -1.70026 0)
(152.017 -1.21282 0)
(152.178 -0.776977 0)
(152.235 -0.403851 0)
(152.21 -0.0969737 0)
(152.125 0.146273 0)
(151.998 0.332487 0)
(151.843 0.470196 0)
(151.672 0.568353 0)
(151.492 0.635421 0)
(151.309 0.678892 0)
(151.126 0.705117 0)
(150.945 0.719301 0)
(150.767 0.725588 0)
(150.592 0.727176 0)
(150.42 0.726447 0)
(150.251 0.725078 0)
(150.084 0.724135 0)
(131.452 -0.054965 0)
(131.467 -0.166965 0)
(131.499 -0.285189 0)
(131.548 -0.413808 0)
(131.618 -0.557009 0)
(131.712 -0.718962 0)
(131.835 -0.903726 0)
(131.992 -1.11512 0)
(132.191 -1.35649 0)
(132.439 -1.63045 0)
(132.746 -1.93847 0)
(133.12 -2.28041 0)
(133.573 -2.65409 0)
(134.115 -3.05472 0)
(134.753 -3.47456 0)
(135.496 -3.90274 0)
(136.346 -4.32541 0)
(137.304 -4.72639 0)
(138.364 -5.08807 0)
(139.516 -5.39274 0)
(140.744 -5.62372 0)
(142.029 -5.76639 0)
(143.347 -5.80894 0)
(144.671 -5.74296 0)
(145.972 -5.56403 0)
(147.22 -5.27243 0)
(148.383 -4.87398 0)
(149.433 -4.38083 0)
(150.344 -3.81198 0)
(151.096 -3.19295 0)
(151.679 -2.55432 0)
(152.093 -1.92873 0)
(152.349 -1.34646 0)
(152.469 -0.83079 0)
(152.48 -0.394912 0)
(152.409 -0.0418215 0)
(152.28 0.233348 0)
(152.115 0.440109 0)
(151.929 0.589855 0)
(151.732 0.693996 0)
(151.532 0.762952 0)
(151.334 0.805708 0)
(151.14 0.829721 0)
(150.952 0.840997 0)
(150.769 0.844242 0)
(150.592 0.843043 0)
(150.419 0.840039 0)
(150.25 0.837072 0)
(150.083 0.835309 0)
(131.374 -0.0595113 0)
(131.386 -0.180883 0)
(131.412 -0.30932 0)
(131.452 -0.449584 0)
(131.51 -0.606499 0)
(131.589 -0.784924 0)
(131.694 -0.989672 0)
(131.831 -1.22536 0)
(132.007 -1.49619 0)
(132.232 -1.80557 0)
(132.514 -2.1557 0)
(132.865 -2.547 0)
(133.297 -2.97746 0)
(133.821 -3.44202 0)
(134.45 -3.93198 0)
(135.191 -4.4347 0)
(136.052 -4.93377 0)
(137.031 -5.40968 0)
(138.126 -5.84115 0)
(139.324 -6.2067 0)
(140.611 -6.48621 0)
(141.963 -6.66209 0)
(143.355 -6.72008 0)
(144.758 -6.64984 0)
(146.14 -6.44549 0)
(147.465 -6.10654 0)
(148.701 -5.63892 0)
(149.811 -5.05627 0)
(150.767 -4.38087 0)
(151.544 -3.64364 0)
(152.13 -2.8826 0)
(152.524 -2.13916 0)
(152.742 -1.45211 0)
(152.81 -0.850779 0)
(152.763 -0.350528 0)
(152.634 0.047087 0)
(152.453 0.35044 0)
(152.243 0.573081 0)
(152.02 0.730045 0)
(151.794 0.835661 0)
(151.572 0.902536 0)
(151.358 0.941232 0)
(151.152 0.960308 0)
(150.956 0.966518 0)
(150.769 0.965066 0)
(150.59 0.959855 0)
(150.417 0.953718 0)
(150.248 0.948613 0)
(150.082 0.945767 0)
(131.29 -0.0630078 0)
(131.299 -0.191642 0)
(131.318 -0.328161 0)
(131.348 -0.477919 0)
(131.393 -0.646388 0)
(131.455 -0.839156 0)
(131.539 -1.06186 0)
(131.653 -1.32003 0)
(131.802 -1.61885 0)
(131.998 -1.96276 0)
(132.251 -2.35494 0)
(132.573 -2.79661 0)
(132.979 -3.28624 0)
(133.482 -3.81868 0)
(134.097 -4.38438 0)
(134.835 -4.96887 0)
(135.705 -5.55283 0)
(136.709 -6.1129 0)
(137.842 -6.62342 0)
(139.095 -7.05855 0)
(140.449 -7.3942 0)
(141.879 -7.60946 0)
(143.359 -7.68734 0)
(144.855 -7.61526 0)
(146.332 -7.38557 0)
(147.751 -6.99648 0)
(149.073 -6.45358 0)
(150.257 -5.77168 0)
(151.268 -4.9764 0)
(152.076 -4.10476 0)
(152.664 -3.2038 0)
(153.032 -2.32616 0)
(153.199 -1.52183 0)
(153.201 -0.828041 0)
(153.082 -0.262265 0)
(152.884 0.176854 0)
(152.641 0.503046 0)
(152.378 0.735385 0)
(152.113 0.89349 0)
(151.855 0.995092 0)
(151.609 1.05519 0)
(151.377 1.08595 0)
(151.16 1.09699 0)
(150.957 1.09574 0)
(150.766 1.08777 0)
(150.585 1.07723 0)
(150.413 1.06704 0)
(150.245 1.05923 0)
(150.081 1.05502 0)
(131.202 -0.0653317 0)
(131.208 -0.198869 0)
(131.219 -0.341076 0)
(131.238 -0.497882 0)
(131.267 -0.675416 0)
(131.31 -0.880027 0)
(131.371 -1.11824 0)
(131.457 -1.39664 0)
(131.577 -1.72155 0)
(131.739 -2.0987 0)
(131.957 -2.53252 0)
(132.244 -3.02541 0)
(132.617 -3.57666 0)
(133.093 -4.18136 0)
(133.69 -4.82928 0)
(134.421 -5.50405 0)
(135.3 -6.18303 0)
(136.33 -6.83836 0)
(137.508 -7.43909 0)
(138.822 -7.9542 0)
(140.253 -8.35504 0)
(141.775 -8.61704 0)
(143.356 -8.72023 0)
(144.961 -8.64953 0)
(146.55 -8.39505 0)
(148.08 -7.95313 0)
(149.505 -7.32824 0)
(150.779 -6.53578 0)
(151.856 -5.60462 0)
(152.702 -4.57855 0)
(153.292 -3.51554 0)
(153.626 -2.48275 0)
(153.729 -1.54542 0)
(153.647 -0.751369 0)
(153.438 -0.119935 0)
(153.155 0.355621 0)
(152.839 0.697107 0)
(152.516 0.931057 0)
(152.204 1.08273 0)
(151.911 1.17373 0)
(151.639 1.22157 0)
(151.39 1.24001 0)
(151.162 1.23959 0)
(150.953 1.22826 0)
(150.759 1.21185 0)
(150.577 1.19458 0)
(150.406 1.17941 0)
(150.241 1.1683 0)
(150.08 1.16245 0)
(131.112 -0.0663666 0)
(131.113 -0.202209 0)
(131.117 -0.347447 0)
(131.123 -0.508559 0)
(131.135 -0.692323 0)
(131.157 -0.905875 0)
(131.192 -1.1567 0)
(131.247 -1.45254 0)
(131.331 -1.80109 0)
(131.455 -2.20962 0)
(131.631 -2.68422 0)
(131.876 -3.22886 0)
(132.21 -3.84414 0)
(132.651 -4.52585 0)
(133.223 -5.26334 0)
(133.943 -6.03834 0)
(134.829 -6.82447 0)
(135.886 -7.58837 0)
(137.113 -8.29268 0)
(138.498 -8.9001 0)
(140.019 -9.37681 0)
(141.645 -9.69424 0)
(143.343 -9.82928 0)
(145.074 -9.76412 0)
(146.794 -9.4862 0)
(148.455 -8.98909 0)
(150.004 -8.27509 0)
(151.385 -7.35924 0)
(152.546 -6.2732 0)
(153.438 -5.06806 0)
(154.03 -3.81489 0)
(154.321 -2.59986 0)
(154.34 -1.50948 0)
(154.15 -0.606479 0)
(153.829 0.0888262 0)
(153.444 0.592678 0)
(153.042 0.938941 0)
(152.652 1.16404 0)
(152.288 1.29998 0)
(151.958 1.37259 0)
(151.66 1.40191 0)
(151.394 1.40313 0)
(151.156 1.38753 0)
(150.941 1.36337 0)
(150.745 1.33653 0)
(150.564 1.31115 0)
(150.395 1.29005 0)
(150.234 1.27507 0)
(150.078 1.26732 0)
(131.021 -0.0660052 0)
(131.018 -0.201331 0)
(131.013 -0.346692 0)
(131.006 -0.509074 0)
(131 -0.695877 0)
(130.997 -0.915031 0)
(131.003 -1.17504 0)
(131.024 -1.48492 0)
(131.068 -1.85398 0)
(131.147 -2.29132 0)
(131.274 -2.80513 0)
(131.469 -3.40154 0)
(131.753 -4.08307 0)
(132.152 -4.84679 0)
(132.69 -5.68214 0)
(133.393 -6.56901 0)
(134.282 -7.47673 0)
(135.369 -8.36523 0)
(136.651 -9.1891 0)
(138.116 -9.90343 0)
(139.738 -10.4684 0)
(141.485 -10.8514 0)
(143.317 -11.0261 0)
(145.193 -10.9718 0)
(147.065 -10.6729 0)
(148.88 -10.1191 0)
(150.576 -9.30876 0)
(152.089 -8.25523 0)
(153.351 -6.99201 0)
(154.301 -5.57757 0)
(154.898 -4.09839 0)
(155.131 -2.66558 0)
(155.041 -1.39617 0)
(154.713 -0.374911 0)
(154.252 0.379049 0)
(153.743 0.898495 0)
(153.242 1.23507 0)
(152.777 1.43797 0)
(152.359 1.54691 0)
(151.99 1.59207 0)
(151.667 1.59583 0)
(151.386 1.57451 0)
(151.139 1.53982 0)
(150.92 1.50001 0)
(150.725 1.46077 0)
(150.547 1.42593 0)
(150.382 1.39802 0)
(150.226 1.37864 0)
(150.075 1.36874 0)
(130.932 -0.0641526 0)
(130.924 -0.19594 0)
(130.909 -0.338289 0)
(130.888 -0.498618 0)
(130.862 -0.684904 0)
(130.834 -0.905858 0)
(130.808 -1.17104 0)
(130.79 -1.49086 0)
(130.789 -1.87643 0)
(130.816 -2.33909 0)
(130.887 -2.88965 0)
(131.022 -3.53707 0)
(131.246 -4.28661 0)
(131.589 -5.13747 0)
(132.084 -6.07988 0)
(132.762 -7.09217 0)
(133.65 -8.13878 0)
(134.766 -9.17128 0)
(136.11 -10.1339 0)
(137.665 -10.9722 0)
(139.404 -11.6398 0)
(141.287 -12.0999 0)
(143.273 -12.3234 0)
(145.315 -12.2868 0)
(147.363 -11.9709 0)
(149.357 -11.3603 0)
(151.23 -10.4469 0)
(152.902 -9.24024 0)
(154.29 -7.77399 0)
(155.316 -6.1134 0)
(155.919 -4.36225 0)
(156.08 -2.66418 0)
(155.845 -1.18121 0)
(155.337 -0.0325174 0)
(154.7 0.768935 0)
(154.045 1.2846 0)
(153.431 1.59192 0)
(152.884 1.75585 0)
(152.409 1.82437 0)
(152.003 1.83173 0)
(151.656 1.80219 0)
(151.361 1.7527 0)
(151.108 1.69494 0)
(150.889 1.63673 0)
(150.696 1.58322 0)
(150.523 1.53769 0)
(150.364 1.50221 0)
(150.214 1.47799 0)
(150.071 1.46573 0)
(130.846 -0.060734 0)
(130.834 -0.185798 0)
(130.809 -0.321792 0)
(130.772 -0.476481 0)
(130.725 -0.658337 0)
(130.67 -0.876802 0)
(130.609 -1.14249 0)
(130.549 -1.46732 0)
(130.497 -1.86441 0)
(130.465 -2.34775 0)
(130.47 -2.93137 0)
(130.533 -3.6279 0)
(130.685 -4.44642 0)
(130.959 -5.38942 0)
(131.397 -6.44899 0)
(132.038 -7.60246 0)
(132.92 -8.80882 0)
(134.065 -10.0089 0)
(135.477 -11.1333 0)
(137.136 -12.1156 0)
(139.006 -12.902 0)
(141.044 -13.4522 0)
(143.204 -13.7351 0)
(145.436 -13.7246 0)
(147.686 -13.3979 0)
(149.89 -12.7329 0)
(151.973 -11.711 0)
(153.839 -10.335 0)
(155.386 -8.63637 0)
(156.511 -6.6851 0)
(157.127 -4.60286 0)
(157.194 -2.57481 0)
(156.768 -0.830745 0)
(156.023 0.452674 0)
(155.165 1.28026 0)
(154.336 1.76318 0)
(153.596 2.01525 0)
(152.962 2.1196 0)
(152.43 2.13203 0)
(151.988 2.09003 0)
(151.622 2.01889 0)
(151.318 1.93549 0)
(151.063 1.85077 0)
(150.846 1.77163 0)
(150.658 1.70223 0)
(150.492 1.64502 0)
(150.341 1.60136 0)
(150.201 1.57196 0)
(150.066 1.55719 0)
(130.766 -0.0556962 0)
(130.748 -0.170732 0)
(130.713 -0.296872 0)
(130.661 -0.442103 0)
(130.592 -0.615276 0)
(130.507 -0.826471 0)
(130.41 -1.08733 0)
(130.303 -1.41129 0)
(130.195 -1.81372 0)
(130.097 -2.31163 0)
(130.025 -2.92298 0)
(130.005 -3.66514 0)
(130.068 -4.55236 0)
(130.256 -5.59201 0)
(130.619 -6.77961 0)
(131.209 -8.09257 0)
(132.075 -9.48399 0)
(133.25 -10.8809 0)
(134.738 -12.1949 0)
(136.515 -13.3442 0)
(138.535 -14.2671 0)
(140.749 -14.9219 0)
(143.105 -15.2761 0)
(145.551 -15.3018 0)
(148.03 -14.9734 0)
(150.48 -14.2606 0)
(152.814 -13.1272 0)
(154.918 -11.5658 0)
(156.665 -9.60225 0)
(157.922 -7.30726 0)
(158.563 -4.81798 0)
(158.511 -2.36982 0)
(157.828 -0.29614 0)
(156.765 1.12341 0)
(155.629 1.93842 0)
(154.597 2.34624 0)
(153.72 2.50944 0)
(152.998 2.52942 0)
(152.412 2.46788 0)
(151.939 2.36392 0)
(151.559 2.24263 0)
(151.251 2.11972 0)
(150.999 2.00455 0)
(150.789 1.90236 0)
(150.61 1.81585 0)
(150.454 1.74627 0)
(150.314 1.69407 0)
(150.185 1.65932 0)
(150.061 1.64197 0)
(130.694 -0.0490142 0)
(130.671 -0.150657 0)
(130.626 -0.263344 0)
(130.557 -0.395118 0)
(130.466 -0.555053 0)
(130.351 -0.753723 0)
(130.214 -1.00368 0)
(130.058 -1.31988 0)
(129.888 -1.72003 0)
(129.715 -2.2246 0)
(129.556 -2.85626 0)
(129.437 -3.63837 0)
(129.393 -4.59208 0)
(129.474 -5.73183 0)
(129.74 -7.05885 0)
(130.259 -8.55255 0)
(131.097 -10.1601 0)
(132.3 -11.7903 0)
(133.875 -13.3279 0)
(135.788 -14.6705 0)
(137.979 -15.7489 0)
(140.391 -16.5235 0)
(142.966 -16.9625 0)
(145.652 -17.0362 0)
(148.391 -16.7185 0)
(151.125 -15.9715 0)
(153.759 -14.7274 0)
(156.155 -12.9659 0)
(158.158 -10.7027 0)
(159.595 -8.00238 0)
(160.284 -5.00913 0)
(160.086 -2.01282 0)
(159.048 0.495063 0)
(157.553 2.03707 0)
(156.069 2.7715 0)
(154.805 3.04411 0)
(153.784 3.07638 0)
(152.975 2.98306 0)
(152.342 2.82763 0)
(151.848 2.64844 0)
(151.462 2.46863 0)
(151.159 2.30123 0)
(150.916 2.15282 0)
(150.718 2.02614 0)
(150.552 1.92186 0)
(150.409 1.83965 0)
(150.282 1.77885 0)
(150.165 1.73877 0)
(150.054 1.71887 0)
(130.631 -0.0407014 0)
(130.604 -0.125598 0)
(130.548 -0.221201 0)
(130.464 -0.335411 0)
(130.35 -0.477319 0)
(130.204 -0.657777 0)
(130.026 -0.890044 0)
(129.818 -1.19046 0)
(129.582 -1.57912 0)
(129.327 -2.08025 0)
(129.068 -2.72206 0)
(128.832 -3.53539 0)
(128.659 -4.55059 0)
(128.606 -5.79202 0)
(128.747 -7.26993 0)
(129.169 -8.96882 0)
(129.962 -10.831 0)
(131.192 -12.7414 0)
(132.868 -14.5443 0)
(134.94 -16.11 0)
(137.327 -17.3622 0)
(139.959 -18.2723 0)
(142.779 -18.811 0)
(145.731 -18.9452 0)
(148.759 -18.6547 0)
(151.821 -17.8993 0)
(154.814 -16.5508 0)
(157.571 -14.5778 0)
(159.901 -11.9797 0)
(161.584 -8.80483 0)
(162.364 -5.18616 0)
(161.993 -1.4572 0)
(160.458 1.6554 0)
(158.362 3.27017 0)
(156.443 3.80745 0)
(154.925 3.86314 0)
(153.76 3.71413 0)
(152.875 3.47466 0)
(152.207 3.20382 0)
(151.705 2.93615 0)
(151.326 2.69034 0)
(151.037 2.47468 0)
(150.812 2.29142 0)
(150.631 2.13979 0)
(150.483 2.01781 0)
(150.357 1.92328 0)
(150.245 1.8542 0)
(150.144 1.80902 0)
(150.047 1.7867 0)
(130.581 -0.0308122 0)
(130.549 -0.0957067 0)
(130.484 -0.170653 0)
(130.384 -0.26318 0)
(130.248 -0.382134 0)
(130.071 -0.538353 0)
(129.853 -0.745488 0)
(129.59 -1.02098 0)
(129.284 -1.38712 0)
(128.939 -1.87209 0)
(128.568 -2.51038 0)
(128.196 -3.34207 0)
(127.868 -4.40959 0)
(127.648 -5.75124 0)
(127.627 -7.39085 0)
(127.918 -9.32289 0)
(128.642 -11.4882 0)
(129.896 -13.7404 0)
(131.693 -15.8607 0)
(133.954 -17.682 0)
(136.565 -19.1229 0)
(139.442 -20.1842 0)
(142.533 -20.8401 0)
(145.777 -21.0459 0)
(149.118 -20.8006 0)
(152.555 -20.086 0)
(155.983 -18.6454 0)
(159.184 -16.4549 0)
(161.935 -13.4895 0)
(163.959 -9.76673 0)
(164.906 -5.37516 0)
(164.344 -0.646632 0)
(162.095 3.36754 0)
(159.145 4.92164 0)
(156.697 5.06773 0)
(154.915 4.80291 0)
(153.618 4.41534 0)
(152.674 3.99328 0)
(151.993 3.58468 0)
(151.503 3.21647 0)
(151.148 2.89922 0)
(150.885 2.63358 0)
(150.686 2.41557 0)
(150.53 2.23982 0)
(150.403 2.10116 0)
(150.297 1.99523 0)
(150.204 1.9186 0)
(150.119 1.86883 0)
(150.039 1.84433 0)
(130.546 -0.019446 0)
(130.509 -0.0612742 0)
(130.435 -0.112158 0)
(130.321 -0.178993 0)
(130.163 -0.270065 0)
(129.958 -0.395817 0)
(129.699 -0.569841 0)
(129.382 -0.810171 0)
(129.003 -1.14089 0)
(128.561 -1.59392 0)
(128.065 -2.21062 0)
(127.537 -3.04214 0)
(127.022 -4.14676 0)
(126.594 -5.58229 0)
(126.364 -7.39269 0)
(126.476 -9.58941 0)
(127.098 -12.1192 0)
(128.375 -14.7969 0)
(130.322 -17.2997 0)
(132.815 -19.4122 0)
(135.683 -21.0461 0)
(138.826 -22.2735 0)
(142.216 -23.0715 0)
(145.779 -23.3526 0)
(149.444 -23.1647 0)
(153.304 -22.5866 0)
(157.263 -21.0694 0)
(161.013 -18.6649 0)
(164.306 -15.3082 0)
(166.809 -10.9665 0)
(168.045 -5.63068 0)
(167.302 0.479101 0)
(164.004 5.93954 0)
(159.814 7.10962 0)
(156.747 6.55644 0)
(154.719 5.85398 0)
(153.315 5.16499 0)
(152.344 4.52031 0)
(151.683 3.9524 0)
(151.234 3.47494 0)
(150.923 3.08461 0)
(150.702 2.77042 0)
(150.54 2.52007 0)
(150.415 2.32264 0)
(150.315 2.16939 0)
(150.231 2.05368 0)
(150.158 1.97069 0)
(150.093 1.91708 0)
(150.03 1.89077 0)
(130.527 -0.0067554 0)
(130.487 -0.0227538 0)
(130.405 -0.0464558 0)
(130.278 -0.0838395 0)
(130.101 -0.142274 0)
(129.868 -0.231341 0)
(129.571 -0.363975 0)
(129.201 -0.558048 0)
(128.749 -0.838566 0)
(128.207 -1.24051 0)
(127.575 -1.81209 0)
(126.868 -2.61723 0)
(126.128 -3.73474 0)
(125.44 -5.25011 0)
(124.938 -7.23718 0)
(124.809 -9.73379 0)
(125.284 -12.706 0)
(126.582 -15.9269 0)
(128.722 -18.8938 0)
(131.508 -21.338 0)
(134.674 -23.1432 0)
(138.092 -24.55 0)
(141.815 -25.537 0)
(145.734 -25.8755 0)
(149.699 -25.7285 0)
(154.027 -25.4818 0)
(158.645 -23.8918 0)
(163.069 -21.2913 0)
(167.063 -17.5397 0)
(170.243 -12.5234 0)
(171.974 -6.05216 0)
(171.109 1.97252 0)
(166.229 9.89834 0)
(160.221 9.94951 0)
(156.49 8.248 0)
(154.265 6.99812 0)
(152.796 5.93579 0)
(151.854 5.02486 0)
(151.265 4.28098 0)
(150.895 3.69287 0)
(150.655 3.23399 0)
(150.492 2.87709 0)
(150.375 2.59969 0)
(150.287 2.38483 0)
(150.218 2.2202 0)
(150.16 2.09704 0)
(150.11 2.00926 0)
(150.064 1.95281 0)
(150.021 1.92518 0)
(130.526 0.00705541 0)
(130.483 0.0192394 0)
(130.394 0.0254225 0)
(130.256 0.0208325 0)
(130.064 -0.00059908 0)
(129.807 -0.0470621 0)
(129.477 -0.130076 0)
(129.058 -0.266308 0)
(128.536 -0.480322 0)
(127.893 -0.808612 0)
(127.116 -1.30509 0)
(126.208 -2.04726 0)
(125.2 -3.13986 0)
(124.184 -4.70831 0)
(123.326 -6.8728 0)
(122.872 -9.70951 0)
(123.136 -13.2223 0)
(124.457 -17.1574 0)
(126.853 -20.6867 0)
(130.029 -23.5203 0)
(133.541 -25.4128 0)
(137.211 -27.006 0)
(141.316 -28.2993 0)
(145.654 -28.6176 0)
(149.823 -28.4093 0)
(154.648 -28.9038 0)
(160.114 -27.1922 0)
(165.35 -24.4306 0)
(170.249 -20.3293 0)
(174.417 -14.6325 0)
(176.98 -6.80564 0)
(176.094 3.89266 0)
(168.786 16.1037 0)
(160.162 13.4988 0)
(155.8 10.094 0)
(153.439 8.20951 0)
(151.982 6.67493 0)
(151.169 5.45579 0)
(150.732 4.53422 0)
(150.49 3.84771 0)
(150.348 3.334 0)
(150.258 2.94569 0)
(150.197 2.64969 0)
(150.152 2.42346 0)
(150.116 2.2517 0)
(150.086 2.12403 0)
(150.059 2.03344 0)
(150.035 1.97534 0)
(150.011 1.94694 0)
(130.545 0.0217322 0)
(130.499 0.0639306 0)
(130.406 0.102151 0)
(130.26 0.133102 0)
(130.055 0.152398 0)
(129.78 0.153812 0)
(129.422 0.128101 0)
(128.962 0.0611201 0)
(128.377 -0.0692895 0)
(127.639 -0.298422 0)
(126.716 -0.68282 0)
(125.588 -1.31193 0)
(124.264 -2.32092 0)
(122.83 -3.89319 0)
(121.496 -6.22705 0)
(120.603 -9.45671 0)
(120.574 -13.6317 0)
(121.93 -18.5337 0)
(124.661 -22.7279 0)
(128.38 -26.0756 0)
(132.318 -27.8245 0)
(136.122 -29.5771 0)
(140.7 -31.5168 0)
(145.602 -31.5597 0)
(149.719 -30.9914 0)
(155.031 -33.0805 0)
(161.646 -31.0692 0)
(167.827 -28.1645 0)
(173.859 -23.8827 0)
(179.563 -17.6608 0)
(183.62 -8.19012 0)
(182.574 6.56489 0)
(171.547 25.6543 0)
(159.52 17.716 0)
(154.521 12.1177 0)
(152.018 9.42781 0)
(150.758 7.26872 0)
(150.266 5.73153 0)
(150.092 4.66652 0)
(150.033 3.91584 0)
(150.015 3.37244 0)
(150.011 2.96977 0)
(150.011 2.66652 0)
(150.011 2.43649 0)
(150.011 2.26268 0)
(150.01 2.13389 0)
(150.008 2.04269 0)
(150.005 1.98426 0)
(150.002 1.95573 0)
(130.584 0.036974 0)
(130.537 0.110397 0)
(130.441 0.182128 0)
(130.291 0.250595 0)
(130.078 0.313442 0)
(129.791 0.366947 0)
(129.414 0.405042 0)
(128.924 0.417603 0)
(128.289 0.387371 0)
(127.469 0.284305 0)
(126.41 0.0552137 0)
(125.055 -0.394526 0)
(123.365 -1.22941 0)
(121.392 -2.71305 0)
(119.397 -5.18766 0)
(117.904 -8.90539 0)
(117.5 -13.8942 0)
(118.929 -20.1284 0)
(122.056 -25.0386 0)
(126.582 -29.2615 0)
(131.126 -30.293 0)
(134.668 -32.0056 0)
(139.94 -35.6554 0)
(145.757 -34.5666 0)
(148.973 -32.8735 0)
(156.61 -24.2187 -4.16692e-17)
(162.594 -22.3893 -4.4237e-18)
(169.961 -19.8707 0)
(177.92 -16.4294 3.25543e-17)
(185.732 -10.5182 -1.79058e-17)
(194.495 0.429472 -1.43431e-20)
(203.225 20.9767 6.76683e-19)
(171.446 56.9817 -1.01393e-16)
(157.294 21.7689 0)
(152.268 14.7481 0)
(149.439 10.3517 0)
(149.006 7.47366 0)
(149.177 5.74009 0)
(149.39 4.63224 0)
(149.556 3.87871 0)
(149.676 3.34149 0)
(149.763 2.94586 0)
(149.825 2.64855 0)
(149.872 2.42313 0)
(149.907 2.25274 0)
(149.935 2.12641 0)
(149.957 2.0369 0)
(149.975 1.97953 0)
(149.992 1.95151 0)
(130.644 0.0524413 0)
(130.597 0.157598 0)
(130.501 0.263528 0)
(130.349 0.370552 0)
(130.134 0.478612 0)
(129.843 0.586945 0)
(129.457 0.693458 0)
(128.951 0.793515 0)
(128.287 0.877508 0)
(127.41 0.925816 0)
(126.242 0.898025 0)
(124.677 0.709734 0)
(122.589 0.1844 0)
(119.92 -1.03213 0)
(116.936 -3.54904 0)
(114.595 -7.98815 0)
(113.813 -14.0207 0)
(115.437 -22.0371 0)
(118.843 -27.4856 0)
(124.647 -33.7009 0)
(130.345 -32.6813 0)
(132.655 -33.5187 0)
(143.104 -26.5787 2.98086e-21)
(148.507 -28.2054 -1.67654e-21)
(152.879 -28.2017 0)
(0 0 0)
(0 0 0)
(0 0 0)
(0 0 0)
(0 0 0)
(0 0 0)
(0 0 0)
(0 0 0)
(116.813 14.9131 -3.03052e-16)
(139.664 14.448 0)
(144.258 9.47523 0)
(146.864 6.90164 0)
(148.076 5.38987 0)
(148.721 4.41063 0)
(149.106 3.73244 0)
(149.356 3.24121 0)
(149.527 2.87479 0)
(149.649 2.59664 0)
(149.738 2.38406 0)
(149.807 2.22242 0)
(149.862 2.10201 0)
(149.907 2.01641 0)
(149.947 1.96143 0)
(149.983 1.93453 0)
(130.726 0.0677709 0)
(130.68 0.20441 0)
(130.585 0.344366 0)
(130.436 0.48993 0)
(130.225 0.643496 0)
(129.938 0.807541 0)
(129.556 0.984494 0)
(129.051 1.17634 0)
(128.383 1.38354 0)
(127.486 1.60215 0)
(126.262 1.81636 0)
(124.548 1.97774 0)
(122.089 1.94755 0)
(118.557 1.33861 0)
(113.943 -0.854982 0)
(110.238 -6.65112 0)
(109.477 -14.329 0)
(111.68 -24.2801 0)
(114.459 -29.3664 0)
(123.223 -26.01 3.03776e-17)
(127.578 -27.4312 -1.82109e-18)
(133.969 -29.1759 2.63942e-17)
(0 0 0)
(0 0 0)
(0 0 0)
(0 0 0)
(0 0 0)
(0 0 0)
(0 0 0)
(0 0 0)
(0 0 0)
(0 0 0)
(89.2166 -31.2076 1.72443e-17)
(119.233 10.5164 0)
(136.785 9.57979 0)
(143.097 7.07247 0)
(145.852 5.73118 0)
(147.34 4.75969 0)
(148.201 4.0375 0)
(148.731 3.49475 0)
(149.078 3.08113 0)
(149.316 2.76204 0)
(149.488 2.51411 0)
(149.615 2.32143 0)
(149.714 2.17314 0)
(149.794 2.0617 0)
(149.861 1.98199 0)
(149.92 1.93057 0)
(149.974 1.90536 0)
(130.828 0.0825913 0)
(130.784 0.249678 0)
(130.694 0.422584 0)
(130.552 0.605554 0)
(130.35 0.803424 0)
(130.075 1.02195 0)
(129.71 1.26825 0)
(129.226 1.55139 0)
(128.583 1.88312 0)
(127.716 2.27871 0)
(126.514 2.75691 0)
(124.782 3.33495 0)
(122.127 3.99976 0)
(117.735 4.56841 0)
(110.142 4.05292 0)
(102.387 -3.91854 0)
(103.694 5.88453 6.68786e-17)
(106.114 -18.628 3.10635e-17)
(115.357 -27.6119 0)
(0 0 0)
(0 0 0)
(0 0 0)
(0 0 0)
(0 0 0)
(0 0 0)
(0 0 0)
(0 0 0)
(0 0 0)
(0 0 0)
(0 0 0)
(151.263 -36.4971 5.44593e-17)
(142.178 -38.2093 -8.50505e-17)
(138.739 -15.8667 0)
(134.983 0.465362 0)
(139.46 4.9453 0)
(143.299 4.93921 0)
(145.557 4.52287 0)
(146.963 4.03846 0)
(147.861 3.58618 0)
(148.452 3.19842 0)
(148.855 2.87769 0)
(149.14 2.61665 0)
(149.348 2.40628 0)
(149.507 2.23856 0)
(149.631 2.10709 0)
(149.732 2.00701 0)
(149.818 1.93476 0)
(149.895 1.88788 0)
(149.965 1.86481 0)
(130.95 0.096536 0)
(130.909 0.292269 0)
(130.826 0.496162 0)
(130.694 0.714286 0)
(130.507 0.953754 0)
(130.254 1.22337 0)
(129.918 1.53462 0)
(129.474 1.90318 0)
(128.887 2.35154 0)
(128.1 2.91369 0)
(127.018 3.64423 0)
(125.465 4.63777 0)
(123.055 6.07391 0)
(118.694 8.32884 0)
(108.402 12.2157 0)
(127.778 20.1757 -7.66342e-17)
(0 0 0)
(0 0 0)
(0 0 0)
(0 0 0)
(0 0 0)
(0 0 0)
(155.944 -5.78569 4.13384e-18)
(155.501 -7.32915 -5.91693e-22)
(156.241 -9.44079 -5.15727e-20)
(158.465 -12.1118 1.39065e-17)
(160.4 -14.5616 -1.40934e-17)
(159.18 -17.1255 -2.54716e-17)
(156.381 -21.3112 2.2827e-17)
(154.079 -26.9674 4.594e-20)
(156.172 -16.2685 0)
(147.067 -14.135 0)
(141.333 -10.2216 0)
(139.421 -1.40119 0)
(141.553 2.40571 0)
(143.927 3.33661 0)
(145.641 3.47785 0)
(146.841 3.34639 0)
(147.679 3.12025 0)
(148.269 2.87689 0)
(148.692 2.64919 0)
(149.001 2.44913 0)
(149.234 2.27952 0)
(149.414 2.13949 0)
(149.559 2.02698 0)
(149.678 1.93983 0)
(149.781 1.87615 0)
(149.873 1.8345 0)
(149.958 1.81391 0)
(131.09 0.109264 0)
(131.054 0.331125 0)
(130.979 0.56322 0)
(130.861 0.813213 0)
(130.695 1.09018 0)
(130.47 1.40551 0)
(130.174 1.77426 0)
(129.787 2.21739 0)
(129.282 2.76564 0)
(128.618 3.46665 0)
(127.738 4.39954 0)
(126.553 5.70723 0)
(124.954 7.67767 0)
(122.936 10.9774 0)
(121.455 17.4157 0)
(127.845 34.4643 0)
(157.93 15.5645 2.59868e-18)
(157.025 3.82151 6.8715e-19)
(154.909 -0.176207 -6.22364e-19)
(155.653 -2.52111 -2.58957e-18)
(156.329 -3.38952 0)
(156.029 -4.0623 -3.98473e-20)
(159.174 4.52128 0)
(156.356 4.68818 0)
(156.224 4.65645 0)
(157.062 3.73737 0)
(157.517 0.973802 0)
(156.776 -1.65842 0)
(155.434 -3.45686 0)
(155.541 -3.01802 0)
(153.369 -10.2712 0)
(147.912 -10.4246 0)
(143.737 -7.32527 0)
(142.253 -2.03372 0)