/*--------------------------------*- C++ -*----------------------------------*\
| =========                 |                                                 |
| \\      /  F ield         | foam-extend: Open Source CFD                    |
|  \\    /   O peration     | Version:     4.1                                |
|   \\  /    A nd           | Web:         http://www.foam-extend.org         |
|    \\/     M anipulation  |                                                 |
\*---------------------------------------------------------------------------*/
FoamFile
{
    version     2.0;
    format      ascii;
    class       regIOobject;
    location    "0.3/uniform";
    object      profilingInfo;
}
// * * * * * * * * * * * * * * * * * * * * * * * * * * * * * * * * * * * * * //

profilingInfo
(

    {
        id              16;
        parentId        11;
        description     "Foam::Time::writeObject - outputTime";
        calls           6;
        totalTime       0.711049;
        childTime       0;
        onStack         1;
    }

    {
        id              11;
        parentId        1;
        description     "Foam::Time::writeObject";
        calls           600;
        totalTime       0.712448;
        childTime       0.711049;
        onStack         1;
    }

    {
        id              1;
        description     "application::main";
        calls           1;
        totalTime       145.44519;
        childTime       138.45206;
        onStack         1;
    }

    {
        id              13;
        parentId        1;
        description     "FO::forceCoeffs::execute";
        calls           599;
        totalTime       0.69618;
        childTime       0;
        onStack         0;
    }

    {
        id              12;
        parentId        1;
        description     "FO::forces::execute";
        calls           599;
        totalTime       1.05403;
        childTime       0;
        onStack         0;
    }

    {
        id              14;
        parentId        1;
        description     "FO::pressureTools1::execute";
        calls           599;
        totalTime       0.001033;
        childTime       0;
        onStack         0;
    }

    {
        id              15;
        parentId        1;
        description     "FO::probes::execute";
        calls           599;
        totalTime       0.027151;
        childTime       0;
        onStack         0;
    }

    {
        id              2;
        parentId        1;
        description     "functionObjectList::read";
        calls           1;
        totalTime       0.001978;
        childTime       0;
        onStack         0;
    }

    {
        id              3;
        parentId        1;
        description     "fvMatrix::solve_U";
        calls           600;
        totalTime       14.809774;
        childTime       14.451671;
        onStack         0;
    }

    {
        id              8;
        parentId        1;
        description     "fvMatrix::solve_p";
        calls           2400;
        totalTime       121.14946;
        childTime       120.71479;
        onStack         0;
    }

    {
        id              5;
        parentId        4;
        description     "lduMatrix::smoother_Ux";
        calls           600;
        totalTime       6.916096;
        childTime       0;
        onStack         0;
    }

    {
        id              7;
        parentId        6;
        description     "lduMatrix::smoother_Uy";
        calls           600;
        totalTime       7.093603;
        childTime       0;
        onStack         0;
    }

    {
        id              4;
        parentId        3;
        description     "lduMatrix::solver_Ux";
        calls           600;
        totalTime       7.145635;
        childTime       6.916096;
        onStack         0;
    }

    {
        id              6;
        parentId        3;
        description     "lduMatrix::solver_Uy";
        calls           600;
        totalTime       7.306036;
        childTime       7.093603;
        onStack         0;
    }

    {
        id              9;
        parentId        8;
        description     "lduMatrix::solver_p";
        calls           2400;
        totalTime       120.71479;
        childTime       11.700621;
        onStack         0;
    }

    {
        id              10;
        parentId        9;
        description     "lduMatrix::solver_topLevelCorr";
        calls           97248;
        totalTime       11.700621;
        childTime       0;
        onStack         0;
    }
);


// ************************************************************************* //
