/*--------------------------------*- C++ -*----------------------------------*\
| =========                 |                                                 |
| \\      /  F ield         | foam-extend: Open Source CFD                    |
|  \\    /   O peration     | Version:     4.1                                |
|   \\  /    A nd           | Web:         http://www.foam-extend.org         |
|    \\/     M anipulation  |                                                 |
\*---------------------------------------------------------------------------*/
FoamFile
{
    version     2.0;
    format      ascii;
    class       volScalarField;
    location    "0.6";
    object      p;
}
// * * * * * * * * * * * * * * * * * * * * * * * * * * * * * * * * * * * * * //

dimensions      [0 2 -2 0 0 0 0];

internalField   nonuniform List<scalar> 
16126
(
0.00018027462
0.00085220582
0.0012765687
0.0018927896
0.0023639034
0.0029404656
0.0034373984
0.003988537
0.0044965765
0.0050305889
0.0055405367
0.0060612937
0.0065673689
0.0070759705
0.0075742349
0.0080703937
0.0085578332
0.0090403214
0.0095143187
0.0099813672
0.010439421
0.010888909
0.0113285
0.011758062
0.012176602
0.012583767
0.012978657
0.013360621
0.013728928
0.014082939
0.014421938
0.014745273
0.015052284
0.015342362
0.015614934
0.01586949
0.016105597
0.016322909
0.016521198
0.016700366
0.016860473
0.017001762
0.017124682
0.017229925
0.017318446
0.017391504
0.01745068
0.017497921
0.017535562
0.017566353
0.017593486
0.017620613
0.017651862
0.017691844
0.017745654
0.017818861
0.017917491
0.018047995
0.018217211
0.018432306
0.018700718
0.019030071
0.019428096
0.019902519
0.020460968
0.021110843
0.021859207
0.022712645
0.023677156
0.024758005
0.025959628
0.027285493
0.028738026
0.030318498
0.032026983
0.033862286
0.035821947
0.037902228
0.040098153
0.042403587
0.044811279
0.047313043
0.04989973
0.052561472
0.055287443
0.058064941
0.060884105
0.063729237
0.066580902
0.069425258
0.072247514
0.07503106
0.077757816
0.08040679
0.082954754
0.085375233
0.087641138
0.089725541
0.091607979
0.093280042
0.094749029
0.096050148
0.097222045
0.098406569
0.099638995
0.10098317
0.10249641
0.10428559
0.10630048
0.10872939
0.1114283
0.11483331
0.11862535
0.12381609
0.12955599
0.13810513
0.14695423
0.16139148
0.1739212
0.19879285
0.21244771
0.26283053
0.2590422
0.42808369
0.00017662573
0.00085478043
0.0012776836
0.0018938922
0.0023656125
0.0029414615
0.0034391297
0.0039897444
0.0044983124
0.0050320163
0.0055423027
0.006062886
0.0065692185
0.0070778974
0.007576404
0.0080727327
0.0085604315
0.0090431575
0.0095174525
0.0099848054
0.010443212
0.010893075
0.011333083
0.011763087
0.012182093
0.012589627
0.012984898
0.01336739
0.013736293
0.014090968
0.014430693
0.014754821
0.015062697
0.015353716
0.015627313
0.015882983
0.016120299
0.016338923
0.016538633
0.016719338
0.016881102
0.017024178
0.017149016
0.017256317
0.017347037
0.017422438
0.017484102
0.017533974
0.017574385
0.017608078
0.017638235
0.017668494
0.017702963
0.017746231
0.017803364
0.017879897
0.017981815
0.018115527
0.018287818
0.018505803
0.018776862
0.019108556
0.019508554
0.019984521
0.020544026
0.021194412
0.021942694
0.022795415
0.023758544
0.024837327
0.026036195
0.027358623
0.028807062
0.030382821
0.032086028
0.033915553
0.035869017
0.037942767
0.040131931
0.042430477
0.044831273
0.047326262
0.049906479
0.052562423
0.055282806
0.058062892
0.060877122
0.063707948
0.066551877
0.069389545
0.072206367
0.07498497
0.077707098
0.080351394
0.082894236
0.085308884
0.087568004
0.08964588
0.091523213
0.09319853
0.094676002
0.096061567
0.097400176
0.098627047
0.099902362
0.10141413
0.10312378
0.10514498
0.10741702
0.11011773
0.11310761
0.11679633
0.12088455
0.12632726
0.13233504
0.14103539
0.15009641
0.1644306
0.17713515
0.20083924
0.2151345
0.25539022
0.26342159
0.32337406
0.00016310902
0.0008559596
0.0012759889
0.0018937677
0.0023667952
0.0029420327
0.0034412665
0.0039913145
0.0045010807
0.0050345855
0.0055457624
0.0060664648
0.0065734773
0.0070823759
0.0075814516
0.0080781136
0.0085663423
0.0090494884
0.0095243158
0.0099921588
0.010451126
0.010901544
0.011342161
0.011772795
0.012192495
0.012600814
0.012996906
0.013380185
0.013749893
0.014105387
0.014445952
0.014770933
0.015079674
0.015371561
0.015646023
0.015902546
0.016140692
0.016360112
0.01656057
0.016741958
0.016904324
0.017047899
0.017173114
0.017280642
0.017371414
0.017446664
0.017507943
0.017557166
0.017596629
0.017629044
0.017657559
0.017685779
0.017717784
0.017758134
0.017811873
0.017884517
0.017982044
0.018110855
0.018277746
0.018489848
0.018754568
0.019079512
0.019472404
0.019940977
0.020492885
0.021135565
0.021876143
0.022721281
0.023677077
0.024748911
0.025941354
0.027258017
0.028701487
0.030273194
0.03197338
0.033801004
0.03575376
0.037828029
0.040018949
0.042320449
0.044725341
0.047225532
0.049811999
0.052476098
0.055208847
0.057981101
0.060789585
0.063633159
0.066486386
0.069335947
0.072165082
0.07495721
0.077694051
0.08035497
0.082917458
0.085356167
0.087646454
0.089762577
0.091688796
0.093414878
0.095001298
0.096400857
0.097609541
0.098858111
0.10020889
0.10173431
0.10348115
0.10554895
0.10790828
0.1107267
0.11389998
0.11780435
0.12219421
0.12791194
0.13426149
0.14306255
0.15224208
0.16592508
0.17820553
0.1993661
0.21331452
0.24651508
0.25961388
0.30334011
0.00014770195
0.00085807305
0.0012738855
0.0018945998
0.002368568
0.0029437894
0.0034445967
0.0039943849
0.0045054876
0.005038987
0.0055512255
0.0060721771
0.0065801
0.0070895052
0.0075894506
0.0080867992
0.0085759263
0.0090599069
0.0095357072
0.010004524
0.010464569
0.010916102
0.011357919
0.011789805
0.012210824
0.012620513
0.013018074
0.013402928
0.013774312
0.014131581
0.014474023
0.014800979
0.015111799
0.015405864
0.015682604
0.015941498
0.016182106
0.016404067
0.016607136
0.016791191
0.016956262
0.01710256
0.017230485
0.017340683
0.017434047
0.017511769
0.017575351
0.017626652
0.01766791
0.017701769
0.017731303
0.017760043
0.017791986
0.01783161
0.017883875
0.017954218
0.018048535
0.018173163
0.018334837
0.018540642
0.018797963
0.019114398
0.019497692
0.019955625
0.020495928
0.021126148
0.021853548
0.022684962
0.023626686
0.024684323
0.025862691
0.027165659
0.028596084
0.030155663
0.031844902
0.033663001
0.035607879
0.037676094
0.039862937
0.042162414
0.044567412
0.047069652
0.049660853
0.052329465
0.055054951
0.05783638
0.060664135
0.063516795
0.066383501
0.069246666
0.072091455
0.074900634
0.077656621
0.080339582
0.082928593
0.085401014
0.087734597
0.089911608
0.091925495
0.093779581
0.095420466
0.096927812
0.098420608
0.099903647
0.10146909
0.10324545
0.10525265
0.10759542
0.11024721
0.11335904
0.11684503
0.12102952
0.12570128
0.13157415
0.13804146
0.14662645
0.15554602
0.16816374
0.1795761
0.19759856
0.20997388
0.23367575
0.24475753
0.26283032
0.00013179797
0.00086032822
0.0012707564
0.0018956908
0.0023702838
0.0029463101
0.0034487515
0.0039988128
0.0045114708
0.0050453877
0.0055589858
0.0060805992
0.0065897529
0.0070999979
0.0076011329
0.0080994846
0.0085898334
0.0090749704
0.009552076
0.010022203
0.010483673
0.010936677
0.011380071
0.011813605
0.012236379
0.012647911
0.013047398
0.013434249
0.013807712
0.014167136
0.01451181
0.014841067
0.015154251
0.015450731
0.015729923
0.01599129
0.01623437
0.016458778
0.01666424
0.016850599
0.017017842
0.017166137
0.017295829
0.017407507
0.017501995
0.017580412
0.017644181
0.017695074
0.017735237
0.017767216
0.017793988
0.017818982
0.017846095
0.01787971
0.0179247
0.017986424
0.01807072
0.018183882
0.01833263
0.018524064
0.018765613
0.019064962
0.019429977
0.019868607
0.020388791
0.020998326
0.021704765
0.022515267
0.023436485
0.024474398
0.025634216
0.026920198
0.028335591
0.029882452
0.031561627
0.033372595
0.035313519
0.037381103
0.039570736
0.041876372
0.044290771
0.046805395
0.049410655
0.052090856
0.054840427
0.057647116
0.060496422
0.063377717
0.066272879
0.069167432
0.072045006
0.074889268
0.077683062
0.080408009
0.083045404
0.085575464
0.087983359
0.090249737
0.092351036
0.094287973
0.096100222
0.097805058
0.099429239
0.10108254
0.10283008
0.10475482
0.10690185
0.10936287
0.11213576
0.11535976
0.11897817
0.12327329
0.12807385
0.13397309
0.14045138
0.14874507
0.15735877
0.16897051
0.17967481
0.19541275
0.20715441
0.22647814
0.23780053
0.25011336
0.00011948029
0.00086348816
0.0012688577
0.0018982505
0.0023731561
0.0029505023
0.0034544186
0.0040051665
0.0045193872
0.0050540388
0.0055691076
0.0060916442
0.0066022238
0.0071136081
0.0076162026
0.0081158961
0.0086078001
0.0090944753
0.0095732777
0.010045143
0.010508486
0.010963437
0.011408902
0.011844602
0.012269661
0.01268359
0.013085606
0.01347511
0.013851357
0.014213687
0.014561392
0.014893794
0.015210234
0.015510068
0.0157927
0.016057574
0.016304207
0.016532187
0.016741207
0.016931071
0.017101721
0.01725327
0.017386004
0.017500441
0.017597326
0.01767769
0.01774286
0.017794504
0.017834651
0.017865729
0.017890589
0.017912532
0.017935325
0.017963227
0.018000991
0.018053868
0.018127607
0.018228433
0.018363025
0.018538476
0.018762249
0.019042104
0.019386033
0.019802159
0.020298651
0.020883584
0.021564845
0.022349968
0.023246023
0.024259435
0.025395885
0.026660108
0.028055829
0.029585554
0.031250564
0.033050702
0.034984461
0.037048776
0.039239191
0.041549749
0.043972916
0.046500648
0.049120052
0.051822231
0.05459666
0.057430918
0.060312475
0.063224832
0.066154273
0.06908436
0.071999946
0.074884495
0.077721797
0.080494577
0.083186355
0.085780147
0.088255646
0.090605968
0.092831539
0.094934817
0.096916127
0.098817488
0.10070041
0.10260922
0.10460615
0.1067772
0.10915555
0.1118281
0.11479542
0.11818026
0.12193873
0.12630792
0.13114227
0.13692666
0.14321655
0.15100159
0.1590351
0.16938363
0.1789379
0.19195705
0.20185052
0.21579375
0.22438124
0.23055204
0.00011018348
0.00086664707
0.0012675953
0.0019013658
0.0023765459
0.0029555987
0.0034609925
0.0040128075
0.0045286925
0.005064408
0.0055811218
0.0061048835
0.0066170998
0.0071298901
0.0076341692
0.0081354549
0.0086291485
0.0091176091
0.0095983514
0.010072206
0.010537674
0.010994833
0.011442633
0.011880771
0.012308391
0.012724988
0.013129787
0.013522176
0.013901412
0.014266827
0.014617705
0.014953354
0.015273101
0.015576281
0.015862274
0.016130493
0.016380422
0.016611606
0.01682369
0.017016421
0.017189679
0.017343505
0.017478102
0.017593898
0.01769154
0.017771951
0.01783634
0.017886251
0.017923584
0.017950634
0.017970115
0.017985191
0.017999504
0.018017187
0.018042888
0.018081772
0.018139524
0.018222339
0.018336902
0.018490355
0.018690259
0.018944524
0.019261353
0.019649132
0.020116355
0.020671477
0.02132282
0.022078393
0.022945786
0.023931961
0.025043159
0.026284662
0.027660738
0.029174388
0.030827355
0.032619858
0.034550716
0.036617045
0.038814561
0.04113712
0.043577621
0.046125768
0.048772233
0.05150606
0.05431595
0.057188537
0.060109859
0.063065938
0.066040772
0.069018919
0.071984527
0.074921533
0.077814055
0.080645985
0.083401091
0.086065341
0.088628773
0.09108099
0.093415906
0.095639715
0.097773491
0.099843951
0.10188474
0.10396007
0.10612002
0.10843168
0.11093384
0.11370272
0.1167503
0.12018685
0.12398479
0.12834596
0.13315151
0.13879631
0.1449072
0.15226858
0.15986609
0.16928683
0.17812922
0.18946611
0.19857348
0.20996983
0.21777075
0.22192091
0.00010452371
0.00086989624
0.0012679191
0.0019054768
0.0023811257
0.0029619953
0.0034688759
0.0040219864
0.0045395816
0.0050765871
0.0055950495
0.0061202511
0.006634262
0.0071486883
0.0076548599
0.0081579928
0.0086537268
0.0091442567
0.0096272283
0.010103387
0.010571305
0.011031017
0.011481509
0.011922459
0.012353031
0.01277271
0.01318073
0.01357647
0.013959187
0.014328202
0.014682794
0.015022253
0.015345893
0.015653023
0.015943002
0.016215208
0.016469087
0.01670414
0.016919958
0.017116228
0.017292759
0.017449514
0.017586605
0.017704362
0.017803322
0.017884287
0.017948338
0.017996881
0.018031672
0.018054854
0.01806899
0.018077092
0.018082653
0.018089671
0.018102668
0.018126706
0.018167394
0.018230883
0.018323856
0.018453498
0.018627469
0.018853831
0.019141007
0.019497662
0.019932641
0.020454806
0.021072954
0.021795613
0.022630946
0.023586507
0.024669163
0.025884806
0.02723832
0.028733262
0.030371912
0.032154921
0.034081493
0.036148994
0.038353297
0.040688363
0.043146702
0.045718897
0.048394449
0.051162458
0.054010562
0.056925101
0.059892123
0.062895702
0.065920895
0.068951283
0.071971513
0.074965379
0.077917753
0.080812987
0.083637473
0.086379268
0.089027597
0.091577957
0.094031614
0.096395772
0.098683372
0.10092408
0.10315707
0.10542502
0.10777218
0.11025935
0.11291865
0.1158183
0.11897029
0.12246946
0.12629434
0.13061131
0.13531879
0.14073174
0.14653417
0.15333301
0.16029871
0.1686063
0.17639396
0.1857744
0.19339714
0.20194093
0.20798586
0.21055513
0.00010139764
0.00087278224
0.001269234
0.0019099451
0.0023863945
0.0029691185
0.003477611
0.0040322119
0.004551634
0.0050901474
0.0056105022
0.0061373591
0.0066533307
0.0071695992
0.0076778421
0.0081830227
0.0086809852
0.0091737844
0.009659181
0.010137847
0.010608417
0.011070888
0.01152428
0.011968249
0.012401975
0.012824931
0.013236352
0.013635608
0.014021951
0.014394688
0.014753083
0.015096407
0.01542395
0.015734994
0.016028859
0.016304885
0.016562468
0.016801051
0.017020161
0.017219411
0.017398525
0.017557373
0.017695961
0.017814504
0.017913414
0.017993359
0.018055275
0.018100417
0.018130383
0.018147157
0.01815314
0.018151191
0.018144652
0.018137387
0.018133806
0.018138881
0.018158165
0.018197793
0.01826448
0.018365497
0.018508649
0.018702208
0.018954878
0.019275672
0.019673859
0.020158788
0.020739809
0.021426053
0.022226337
0.023148889
0.024201275
0.025390065
0.026720819
0.028197699
0.029823559
0.031599495
0.033525113
0.035597998
0.037814195
0.040167649
0.042650732
0.04525354
0.047966224
0.050776354
0.053671355
0.056636643
0.059657591
0.062718378
0.065803132
0.068895371
0.071979361
0.075038931
0.078059232
0.081025435
0.083924618
0.086745768
0.08948157
0.092127131
0.09468308
0.097157605
0.099567336
0.10193694
0.10429603
0.10668858
0.10915281
0.11174024
0.11448328
0.11744202
0.12063265
0.12413827
0.12794546
0.13219286
0.13679667
0.1420079
0.14756467
0.15393426
0.1604535
0.16798874
0.17512779
0.18331127
0.190186
0.19724475
0.20250846
0.20428384
0.00010067616
0.00087547637
0.0012719564
0.0019150832
0.0023927975
0.0029772934
0.0034875585
0.0040437629
0.0045651242
0.0051053115
0.0056276871
0.006156383
0.0066744742
0.0071927862
0.0077032928
0.0082107441
0.0087111595
0.0092064756
0.0096945523
0.010176
0.010649506
0.011115038
0.011571644
0.012018965
0.012456194
0.012882792
0.013298001
0.013701177
0.014091568
0.014468467
0.014831122
0.015178785
0.01551072
0.015826175
0.016124437
0.016404798
0.016666603
0.016909234
0.017132147
0.017334875
0.017517052
0.017678443
0.017818944
0.017938643
0.018037814
0.01811698
0.018176918
0.018218717
0.018243803
0.018253983
0.018251482
0.018238982
0.018219663
0.018197236
0.018175981
0.018160764
0.018157071
0.018171012
0.018209326
0.018279365
0.018389086
0.018546978
0.018762042
0.019043664
0.019401569
0.01984563
0.020385804
0.021031881
0.021793397
0.022679324
0.023698008
0.024856772
0.026161938
0.027618345
0.029229502
0.030997012
0.032920949
0.034999147
0.03722788
0.039601051
0.042110922
0.0447476
0.047500393
0.050356518
0.053302663
0.056323534
0.05940402
0.062527137
0.065676977
0.06883623
0.071989209
0.075119455
0.078212509
0.081254162
0.084232213
0.087136605
0.089961222
0.092703513
0.095366274
0.09795798
0.10049298
0.10299468
0.10549175
0.10801924
0.1106106
0.11331105
0.11614855
0.11917547
0.1224066
0.12591186
0.12968017
0.13382318
0.1382686
0.14321085
0.14842994
0.1542743
0.1602101
0.16685202
0.17312837
0.17998059
0.18578474
0.19131049
0.19554305
0.19685862
0.00010162694
0.00087781209
0.0012756357
0.0019205124
0.0023999669
0.0029861356
0.0034983836
0.0040562871
0.004579736
0.0051217525
0.0056462951
0.0061770035
0.0066973718
0.007217907
0.007730846
0.008240752
0.0087437993
0.0092418221
0.0097327676
0.010217193
0.010693833
0.011162628
0.011622651
0.012073528
0.01251446
0.0129449
0.013364086
0.013771365
0.014165973
0.014547186
0.014914236
0.015266344
0.015602746
0.015922654
0.016225307
0.016509947
0.016775858
0.01702235
0.017248799
0.017454647
0.017639423
0.01780278
0.017944485
0.018064488
0.018162912
0.018240117
0.01829671
0.018333598
0.018352023
0.018353601
0.018340369
0.018314829
0.018279987
0.018239401
0.018197218
0.018158208
0.018127797
0.018112084
0.018117855
0.018152571
0.018224376
0.018342018
0.018514847
0.018752678
0.019065757
0.019464555
0.019959715
0.020561761
0.021281044
0.022127358
0.023109923
0.024236891
0.025515429
0.026951112
0.028548168
0.030308735
0.032233394
0.034320218
0.036565707
0.038963699
0.041506212
0.044182982
0.046983123
0.049892824
0.052898262
0.055983076
0.059131505
0.062325758
0.065549256
0.068783975
0.072013869
0.075222016
0.078394105
0.0815159
0.084576162
0.087564344
0.090475848
0.093307972
0.09606386
0.098751558
0.10138559
0.10398667
0.10657937
0.10919644
0.11186789
0.11463324
0.11751928
0.12057204
0.12380725
0.12728487
0.13099764
0.13503633
0.13934071
0.14406117
0.14901668
0.15446515
0.15998434
0.16600404
0.1717215
0.17772709
0.18290609
0.18753961
0.19117981
0.1921339
0.00010412199
0.00087996551
0.0012804684
0.0019264706
0.0024081879
0.0029959
0.0035103641
0.0040700285
0.0045957194
0.0051396983
0.0056665562
0.0061994421
0.0067222522
0.0072451979
0.0077607582
0.0082733285
0.0087792231
0.0092801858
0.009774243
0.010261905
0.010741951
0.011214296
0.011678038
0.012132788
0.012577758
0.01301239
0.013435922
0.013847688
0.014246915
0.014632861
0.015004736
0.015361736
0.015703064
0.016027891
0.016335412
0.016624809
0.016895304
0.01714613
0.017376578
0.01758599
0.017773787
0.017939495
0.018082746
0.018203339
0.018301233
0.018376613
0.018429896
0.018461796
0.018473347
0.018465959
0.01844146
0.018402149
0.018350839
0.018290913
0.018226368
0.018161855
0.018102728
0.01805506
0.018025677
0.018022149
0.018052806
0.018126671
0.018253463
0.018443455
0.018707461
0.019056596
0.019502255
0.020055773
0.020728398
0.021530838
0.022473285
0.023564821
0.024813563
0.026225915
0.027806922
0.02955933
0.031484306
0.033580178
0.035843805
0.038268692
0.040846825
0.043567663
0.04641957
0.049387984
0.052458347
0.055613184
0.058836038
0.062107827
0.065411502
0.068727934
0.072040839
0.075332587
0.078589047
0.081795635
0.084942405
0.088018518
0.091019215
0.093943954
0.096795675
0.099582568
0.10231771
0.10502011
0.10771229
0.11042218
0.11317617
0.11600874
0.11894333
0.12201945
0.12525096
0.12868734
0.13232198
0.13622606
0.14034728
0.14479788
0.14942687
0.15441774
0.15943488
0.16476578
0.16981204
0.17492239
0.17935407
0.1831265
0.18615142
0.18694382
0.00010775203
0.00088186352
0.0012861304
0.0019327131
0.0024171734
0.0030063038
0.0035232249
0.004084702
0.0046127994
0.0051588618
0.0056881842
0.0062233968
0.0067488028
0.007274323
0.007792669
0.0083080783
0.0088169965
0.0093210845
0.0098184418
0.010309536
0.010793188
0.01126929
0.01173696
0.012195797
0.01264502
0.013084061
0.013512154
0.01392862
0.014332675
0.014723553
0.015100443
0.01546251
0.015808919
0.016138798
0.016451288
0.01674551
0.017020613
0.017275747
0.017510108
0.017722929
0.017913511
0.018081244
0.018225611
0.018346247
0.018442934
0.018515664
0.018564654
0.018590403
0.018593725
0.018575806
0.018538252
0.018483141
0.018413082
0.018331269
0.018241542
0.018148429
0.018057208
0.01797393
0.017905472
0.017859525
0.017844636
0.01787013
0.01794614
0.018083447
0.018293494
0.018588114
0.018979538
0.019479996
0.020101735
0.020856475
0.021755491
0.022808889
0.024025847
0.025413676
0.026978335
0.028723219
0.03065015
0.032757707
0.035043091
0.037499493
0.040118882
0.042889999
0.045800829
0.048835624
0.051979153
0.05521251
0.058518466
0.061876505
0.065268861
0.068675102
0.072078484
0.075460386
0.078806574
0.082102025
0.085336532
0.088500938
0.091588955
0.094599091
0.097536079
0.10040652
0.10322338
0.10600346
0.10876725
0.11154002
0.11434594
0.11721544
0.1201705
0.12324564
0.12645438
0.12983832
0.13339271
0.13717376
0.14113749
0.14536715
0.14973879
0.15438035
0.15902783
0.16386522
0.16844875
0.17295676
0.17689823
0.18011233
0.18271774
0.18332168
0.00011244709
0.00088364297
0.0012927251
0.0019394145
0.0024271052
0.0030175374
0.0035371666
0.0041005002
0.0046311755
0.005179436
0.0057113789
0.0062490689
0.0067772362
0.0073055062
0.0078268223
0.008345269
0.0088574184
0.0093648542
0.0098657452
0.010360521
0.01084804
0.011328177
0.011800067
0.012263299
0.012717101
0.013160892
0.013593905
0.014015448
0.014424722
0.014820942
0.015203272
0.015570844
0.015922788
0.016258182
0.016576112
0.016875636
0.017155824
0.017415738
0.017654476
0.017871153
0.018064941
0.018235088
0.018380912
0.018501876
0.018597567
0.018667773
0.018712488
0.018731979
0.01872682
0.018697949
0.018646723
0.018574978
0.018485092
0.018380044
0.018263491
0.018139813
0.01801419
0.017892637
0.017782066
0.017690285
0.017626058
0.017599024
0.017619755
0.017699573
0.017850603
0.018085455
0.018417275
0.018859278
0.019424821
0.020126742
0.020977533
0.021988444
0.023169852
0.024530089
0.026076157
0.027812187
0.029740752
0.031860716
0.034169694
0.036660475
0.039324983
0.042151242
0.045126667
0.048234232
0.051457933
0.0547772
0.058173979
0.061625946
0.065114656
0.068618022
0.072118892
0.07559737
0.079039199
0.082428519
0.085755638
0.089010484
0.092189347
0.09528792
0.098311388
0.10126674
0.10416552
0.10702322
0.10985826
0.11269299
0.11554875
0.11845225
0.1214228
0.12448986
0.12766514
0.13098238
0.13443697
0.13807157
0.14184793
0.14582498
0.14989986
0.15415688
0.15838814
0.16270261
0.1667749
0.17067502
0.17409559
0.17679809
0.17901977
0.17955158
0.00011797402
0.00088525936
0.0013000223
0.0019464029
0.0024377562
0.0030293817
0.0035519577
0.0041171841
0.0046506041
0.0052011644
0.0057358757
0.0062761764
0.0068072547
0.0073384267
0.0078628726
0.0083845237
0.0089000771
0.009411042
0.0099156541
0.010414308
0.010905896
0.011390278
0.011866605
0.012334458
0.012793068
0.013241846
0.013680021
0.014106884
0.014521624
0.014923432
0.015311447
0.015684766
0.016042476
0.016383606
0.016707183
0.017012193
0.017297626
0.017562449
0.017805648
0.01802622
0.018223195
0.018395665
0.018542778
0.018663805
0.01875813
0.018825315
0.018865119
0.018877557
0.018862942
0.018821945
0.018755655
0.018665643
0.018554032
0.018423569
0.018277708
0.018120663
0.017957508
0.017794206
0.017637708
0.017495939
0.017377895
0.017293552
0.017253955
0.017271016
0.017357601
0.01752717
0.017793879
0.018172022
0.018676187
0.019320443
0.020118641
0.021083288
0.022226111
0.023556563
0.025082823
0.026809823
0.028740987
0.030875481
0.033211349
0.035740919
0.038456149
0.041344036
0.044391546
0.047580016
0.050892681
0.054306925
0.057803826
0.061358884
0.064952883
0.068561688
0.07216765
0.0757492
0.079291933
0.082778853
0.086200326
0.089545739
0.092811718
0.095994636
0.0990967
0.10212534
0.10509212
0.10801055
0.11089819
0.11377482
0.1166606
0.11957897
0.12254813
0.12559359
0.12872646
0.13197461
0.13533442
0.13883839
0.14245411
0.14622237
0.15005863
0.15401512
0.15792861
0.16185402
0.16555262
0.16901867
0.17206565
0.17440367
0.17633188
0.17675476
0.00012429609
0.00088681056
0.0013080835
0.0019538043
0.0024492458
0.0030419766
0.0035677411
0.0041349007
0.0046712373
0.005224201
0.0057618355
0.0063048856
0.0068390361
0.0073732741
0.0079010272
0.00842607
0.0089452265
0.0094599322
0.0099684896
0.010471259
0.01096717
0.011456065
0.011937114
0.012409887
0.012873624
0.013327724
0.013771414
0.014203971
0.014624568
0.015032375
0.015426502
0.015806013
0.016169951
0.016517293
0.016847005
0.017157999
0.01744918
0.017719415
0.017967577
0.018192532
0.018393163
0.018568397
0.018717199
0.018838636
0.018931872
0.018996227
0.019031204
0.019036544
0.019012277
0.018958779
0.018876839
0.018767733
0.018633301
0.018476021
0.018299112
0.01810659
0.01790339
0.017695401
0.017489589
0.017293984
0.017117812
0.016971388
0.016866259
0.016814954
0.016831146
0.016929205
0.017124401
0.017432206
0.017868577
0.018448948
0.019188696
0.020101734
0.021201323
0.022498175
0.024001823
0.025718102
0.027651424
0.029801293
0.032166283
0.03473811
0.037508843
0.040464255
0.043590837
0.046867987
0.050278152
0.053796269
0.05740254
0.061069812
0.064778144
0.0685009
0.072220016
0.075911863
0.079562014
0.08315198
0.086672475
0.09011184
0.093467048
0.09673483
0.099918075
0.10301994
0.10605342
0.10903102
0.11196843
0.1148839
0.11779513
0.12072323
0.12368416
0.12669984
0.1297799
0.13294669
0.13619668
0.13955353
0.14298912
0.14652965
0.15010524
0.15374423
0.15731887
0.16084766
0.16415871
0.16720325
0.1698824
0.17189836
0.17357543
0.17395813
0.00013127119
0.00088826226
0.0013167426
0.0019614898
0.002461393
0.0030551469
0.0035843209
0.0041534473
0.0046928604
0.0052483181
0.0057890181
0.0063349393
0.0068723054
0.0074097517
0.0079409657
0.0084695596
0.0089924874
0.0095111104
0.010023798
0.010530879
0.011031316
0.011524937
0.012010931
0.01248886
0.012957967
0.013417645
0.013867114
0.014305638
0.014732375
0.015146471
0.015547008
0.015933013
0.016303485
0.016657347
0.016993499
0.017310777
0.017607994
0.017883916
0.018137294
0.018366855
0.018571329
0.018749467
0.018900039
0.019021896
0.019113965
0.019175311
0.019205159
0.019202957
0.019168427
0.019101624
0.019003015
0.018873549
0.018714752
0.018528805
0.01831866
0.018088109
0.017841922
0.017585889
0.017326976
0.017073307
0.016834343
0.016620748
0.016444598
0.016319082
0.01625874
0.01627893
0.016396137
0.016627119
0.01698935
0.017499759
0.018175432
0.019031828
0.020083939
0.021343862
0.022822678
0.024527206
0.026462995
0.028629965
0.03102711
0.033645563
0.036477728
0.039507652
0.042721518
0.04609633
0.049613797
0.053245865
0.056971899
0.060761502
0.064594046
0.0684398
0.072280344
0.076089444
0.079852706
0.083549716
0.08717151
0.090705158
0.094148135
0.097495673
0.10075272
0.10392183
0.10701201
0.11003644
0.11301113
0.11595148
0.11887541
0.12180092
0.12474363
0.12772235
0.13074627
0.13383367
0.13698169
0.14020752
0.1434872
0.14683629
0.15019719
0.15358102
0.15688746
0.16010924
0.16312217
0.16584857
0.16824544
0.17001376
0.17148371
0.17179866
0.00013887812
0.00088968281
0.0013260389
0.0019695487
0.002474277
0.0030689932
0.0036017973
0.004172932
0.0047155848
0.0052736321
0.0058175456
0.0063664658
0.0069072008
0.007448008
0.0079828512
0.0085151722
0.0090420604
0.0095648015
0.010081834
0.010593454
0.01109866
0.011597267
0.012088483
0.012571861
0.01304665
0.013512238
0.013967838
0.014412703
0.014845974
0.015266776
0.015674162
0.016067122
0.016444609
0.016805493
0.017148606
0.017472705
0.017776512
0.018058682
0.018317841
0.018552575
0.018761447
0.018943025
0.019095873
0.019218614
0.019309919
0.019368579
0.019393522
0.019383877
0.019339028
0.019258681
0.019142943
0.018992401
0.018808227
0.018592261
0.018347147
0.018076406
0.017784604
0.017477392
0.017161706
0.016845736
0.016539163
0.016252999
0.015999868
0.015793646
0.015649806
0.015584763
0.015616336
0.015762685
0.016042974
0.016475783
0.017080129
0.017873193
0.01887195
0.020090048
0.021540363
0.023230816
0.025168301
0.027353164
0.029784997
0.032454224
0.035353568
0.03846511
0.041774776
0.045256664
0.048891827
0.052648568
0.056505524
0.060428332
0.064395849
0.068374553
0.072345897
0.07628045
0.08016412
0.083974101
0.087702069
0.09133346
0.094866456
0.098295472
0.10162503
0.10485862
0.10800603
0.11107514
0.11408245
0.11704409
0.11997469
0.12289199
0.12580932
0.12874339
0.13170232
0.13470075
0.13773612
0.14082018
0.14393235
0.14708007
0.15021585
0.15333891
0.15637106
0.15928947
0.16200701
0.1644333
0.16656522
0.1681195
0.16941762
0.16970631
0.00014702289
0.0008910431
0.0013358484
0.0019778794
0.0024877513
0.0030833711
0.0036200032
0.0041931806
0.0047392211
0.0052999411
0.0058472014
0.0063992325
0.0069434721
0.0074877728
0.0080263917
0.0085625911
0.0090936019
0.0096206316
0.01014219
0.010658541
0.01116872
0.011672529
0.012169194
0.012658262
0.01313899
0.013610756
0.014072774
0.014524279
0.014964401
0.015392239
0.01580682
0.016207096
0.016591976
0.01696027
0.017310744
0.017642074
0.017952885
0.018241721
0.018507078
0.01874739
0.018961052
0.019146437
0.019301892
0.019425798
0.019516558
0.019572671
0.019592743
0.019575564
0.019520155
0.019425839
0.019292331
0.019119822
0.018909087
0.018661586
0.018379613
0.018066375
0.017726192
0.01736454
0.016988289
0.016605671
0.016226576
0.015862358
0.015526211
0.015232726
0.014998378
0.01484071
0.014778996
0.014832916
0.015023505
0.015371146
0.015897021
0.016620203
0.017559917
0.018731512
0.020149933
0.021824291
0.02376308
0.025967028
0.02843658
0.031161186
0.034134089
0.037335028
0.040749824
0.044349033
0.048113224
0.052006223
0.05600615
0.060073749
0.064187618
0.068309534
0.072421121
0.076488956
0.080499559
0.084427121
0.088264232
0.091994299
0.095616519
0.099123853
0.10252209
0.10581278
0.10900746
0.11211494
0.11514731
0.11811911
0.12104871
0.12394925
0.12683533
0.12972106
0.13261447
0.13552764
0.13845859
0.14141531
0.14438027
0.14735522
0.15030092
0.15320829
0.15601591
0.15869046
0.16117076
0.16335929
0.16527718
0.16665693
0.16780625
0.16805046
0.00015569034
0.00089239083
0.0013461956
0.0019865439
0.0025018678
0.0030983506
0.0036390061
0.0042142689
0.0047638464
0.0053273274
0.0058780718
0.0064333314
0.006981218
0.0075291533
0.008071705
0.008611947
0.0091472581
0.0096787657
0.010205054
0.010726352
0.011241737
0.011750998
0.012253381
0.012748426
0.013235401
0.013713676
0.014182461
0.014640983
0.015088357
0.015523661
0.015945892
0.016353968
0.016746749
0.017122993
0.017481395
0.017820548
0.018138981
0.01843512
0.01870733
0.018953889
0.019173015
0.019362877
0.019521595
0.019647293
0.019738091
0.019792173
0.019807806
0.019783408
0.019717604
0.019609303
0.019457787
0.0192628
0.019024677
0.018744441
0.018423982
0.018066134
0.017674917
0.017255569
0.016814854
0.016360994
0.015904065
0.015455739
0.015029794
0.014641551
0.014308557
0.014049549
0.013885399
0.013837431
0.013928774
0.014181794
0.014620128
0.015264951
0.016138086
0.017256774
0.018638398
0.020293373
0.022232136
0.024455775
0.026965875
0.029750607
0.032803994
0.036102878
0.039633215
0.043361189
0.047267161
0.051309429
0.055465948
0.059691406
0.063964595
0.06824147
0.072504356
0.076714882
0.080860744
0.084912404