/*--------------------------------*- C++ -*----------------------------------*\
| =========                 |                                                 |
| \\      /  F ield         | foam-extend: Open Source CFD                    |
|  \\    /   O peration     | Version:     4.1                                |
|   \\  /    A nd           | Web:         http://www.foam-extend.org         |
|    \\/     M anipulation  |                                                 |
\*---------------------------------------------------------------------------*/
FoamFile
{
    version     2.0;
    format      ascii;
    class       surfaceScalarField;
    location    "0.6";
    object      phi;
}
// * * * * * * * * * * * * * * * * * * * * * * * * * * * * * * * * * * * * * //

dimensions      [0 3 -1 0 0 0 0];

internalField   nonuniform List<scalar> 
31929
(
-6.4442515e-05
1.0732993e-08
-6.4445439e-05
2.924028e-09
-6.4448682e-05
3.2425917e-09
-6.4450949e-05
2.2668765e-09
-6.4452422e-05
1.473395e-09
-6.4453934e-05
1.5116148e-09
-6.4454676e-05
7.4158649e-10
-6.4455508e-05
8.3216303e-10
-6.4455783e-05
2.7519569e-10
-6.445607e-05
2.8721696e-10
-6.4455979e-05
-9.0685406e-11
-6.4455851e-05
-1.2802887e-10
-6.4455467e-05
-3.8409252e-10
-6.4455008e-05
-4.5890633e-10
-6.4454372e-05
-6.36783e-10
-6.4453657e-05
-7.1476979e-10
-6.4452825e-05
-8.3167158e-10
-6.445194e-05
-8.8545076e-10
-6.4450997e-05
-9.425577e-10
-6.4450047e-05
-9.4994355e-10
-6.444911e-05
-9.3724055e-10
-6.4448236e-05
-8.7450845e-10
-6.4447464e-05
-7.7172015e-10
-6.4446855e-05
-6.0925298e-10
-6.4446469e-05
-3.8605562e-10
-6.444638e-05
-8.8615034e-11
-6.4446661e-05
2.8059036e-10
-6.4447395e-05
7.3407254e-10
-6.4448682e-05
1.2873517e-09
-6.4450639e-05
1.9570236e-09
-6.4453398e-05
2.7587661e-09
-6.445711e-05
3.7120639e-09
-6.4461946e-05
4.836329e-09
-6.4468101e-05
6.1548856e-09
-6.4475793e-05
7.692104e-09
-6.4485269e-05
9.4753743e-09
-6.4496803e-05
1.153399e-08
-6.4510702e-05
1.3899774e-08
-6.4527309e-05
1.6606629e-08
-6.4547e-05
1.9690412e-08
-6.4570188e-05
2.3188919e-08
-6.4597329e-05
2.7140635e-08
-6.4628915e-05
3.1585752e-08
-6.4665478e-05
3.6563446e-08
-6.4707591e-05
4.2112762e-08
-6.4755862e-05
4.8270443e-08
-6.4810932e-05
5.5070223e-08
-6.4873473e-05
6.2541112e-08
-6.4944179e-05
7.0705645e-08
-6.5023757e-05
7.9578342e-08
-6.511292e-05
8.9163385e-08
-6.5212373e-05
9.9452617e-08
-6.5322796e-05
1.104234e-07
-6.5444833e-05
1.2203646e-07
-6.5579066e-05
1.3423356e-07
-6.5726003e-05
1.4693631e-07
-6.5886047e-05
1.6004426e-07
-6.6059481e-05
1.7343422e-07
-6.6246441e-05
1.8696003e-07
-6.6446895e-05
2.0045317e-07
-6.6660618e-05
2.1372348e-07
-6.6887181e-05
2.2656243e-07
-6.7125926e-05
2.3874555e-07
-6.7375963e-05
2.5003694e-07
-6.7636157e-05
2.6019405e-07
-6.7905131e-05
2.6897371e-07
-6.8181269e-05
2.7613854e-07
-6.8462733e-05
2.8146315e-07
-6.8747475e-05
2.8474218e-07
-6.9033272e-05
2.8579701e-07
-6.9317754e-05
2.8448218e-07
-6.9598447e-05
2.8069244e-07
-6.9872814e-05
2.7436738e-07
-7.013831e-05
2.6549605e-07
-7.0392429e-05
2.5411928e-07
-7.0632762e-05
2.4033278e-07
-7.0857046e-05
2.2428354e-07
-7.1063217e-05
2.0617172e-07
-7.1249457e-05
1.8623952e-07
-7.1414227e-05
1.6476967e-07
-7.155629e-05
1.4206349e-07
-7.1674733e-05
1.1844253e-07
-7.1768958e-05
9.4225049e-08
-7.1838732e-05
6.9774593e-08
-7.1884548e-05
4.5815749e-08
-7.1907621e-05
2.3073116e-08
-7.191074e-05
3.1187689e-09
-7.1893876e-05
-1.6863994e-08
-7.1853677e-05
-4.0199071e-08
-7.1788479e-05
-6.5198519e-08
-7.1697619e-05
-9.0859756e-08
-7.158061e-05
-1.1700938e-07
-7.1436724e-05
-1.4388542e-07
-7.1264801e-05
-1.7192359e-07
-7.1063289e-05
-2.0151118e-07
-7.0830666e-05
-2.3262353e-07
-7.0566324e-05
-2.6434176e-07
-7.0272163e-05
-2.9416099e-07
-6.9954689e-05
-3.1747479e-07
-6.9627392e-05
-3.2729677e-07
-6.9312685e-05
-3.1470648e-07
-6.9048478e-05
-2.6420691e-07
-6.8889429e-05
-1.5904902e-07
-6.8931607e-05
4.2177818e-08
-6.9274008e-05
3.4240015e-07
-6.9975417e-05
7.0140897e-07
-7.1087638e-05
1.1122216e-06
-7.2675367e-05
1.5877291e-06
-7.4818563e-05
2.1431959e-06
-7.7628411e-05
2.8098473e-06
-8.1247252e-05
3.6188414e-06
-8.5874565e-05
4.6273133e-06
-9.1752028e-05
5.877463e-06
-9.9199471e-05
7.4474422e-06
-0.00010855755
9.3580779e-06
-0.00012024953
1.1691978e-05
-0.00013463636
1.4386829e-05
-0.00015216864
1.7532288e-05
-0.00017302915
2.0860508e-05
-0.0001976139
2.4584745e-05
-0.00022535232
2.7738428e-05
-0.00025686377
3.1511445e-05
-0.0002873075
3.0443732e-05
3.5273099e-05
-0.00017698875
2.3764633e-08
-0.0001769984
1.2582939e-08
-0.00017700801
1.2846034e-08
-0.00017701663
1.0887309e-08
-0.00017702503
9.8706598e-09
-0.00017703325
9.7389998e-09
-0.00017704142
8.9072868e-09
-0.00017704972
9.1324651e-09
-0.00017705815
8.7035621e-09
-0.00017706688
9.0208076e-09
-0.00017707592
8.9517519e-09
-0.00017708541
9.3587074e-09
-0.00017709539
9.592162e-09
-0.00017710598
1.0135427e-08
-0.00017711726
1.0641365e-08
-0.00017712934
1.1370605e-08
-0.00017714233
1.2148671e-08
-0.00017715633
1.311606e-08
-0.00017717146
1.4191546e-08
-0.00017718787
1.5454705e-08
-0.00017720568
1.6874407e-08
-0.00017722505
1.8501415e-08
-0.00017724616
2.0332484e-08
-0.00017726917
2.2406632e-08
-0.0001772943
2.473742e-08
-0.00017732175
2.7360607e-08
-0.00017735177
3.0301647e-08
-0.00017738463
3.35999e-08
-0.00017742064
3.7290273e-08
-0.0001774601
4.1417471e-08
-0.00017750336
4.6025984e-08
-0.00017755082
5.1168676e-08
-0.00017760288
5.6899739e-08
-0.00017766001
6.3279863e-08
-0.00017772269
7.0374259e-08
-0.00017779147
7.8252043e-08
-0.00017786692
8.6988128e-08
-0.00017794968
9.6659784e-08
-0.00017804042
1.0734997e-07
-0.00017813988
1.191418e-07
-0.00017824881
1.3212317e-07
-0.00017836805
1.4637846e-07
-0.00017849846
1.6199436e-07
-0.00017864094
1.7905086e-07
-0.00017879646
1.9762315e-07
-0.00017896596
2.1777634e-07
-0.00017915045
2.3956271e-07
-0.00017935093
2.6301768e-07
-0.00017956838
2.8815455e-07
-0.00017980376
3.1496077e-07
-0.00018005799
3.4339205e-07
-0.0001803319
3.7336736e-07
-0.00018062625
4.0476366e-07
-0.00018094162
4.3741158e-07
-0.00018127848
4.7108956e-07
-0.00018163706
5.0552228e-07
-0.0001820174
5.4037734e-07
-0.00018241923
5.7526498e-07
-0.00018284201
6.0973921e-07
-0.00018328485
6.4330231e-07
-0.00018374654
6.7540821e-07
-0.00018422545
7.0547359e-07
-0.00018471959
7.328868e-07
-0.00018522658
7.5702162e-07
-0.00018574363
7.7725175e-07
-0.00018626763
7.9296776e-07
-0.00018679509
8.035958e-07
-0.00018732224
8.0861339e-07
-0.00018784506
8.0757065e-07
-0.00018835937
8.0010679e-07
-0.00018886086
7.8596565e-07
-0.00018934518
7.6501087e-07
-0.00018980805
7.3723646e-07
-0.00019024532
7.0277395e-07
-0.0001906531
6.6189656e-07
-0.00019102779
6.1502183e-07
-0.00019136621
5.6270227e-07
-0.00019166566
5.0562385e-07
-0.00019192401
4.4458362e-07
-0.00019213972
3.804796e-07
-0.00019231193
3.1427517e-07
-0.00019244048
2.4699113e-07
-0.00019252592
1.7966919e-07
-0.00019256969
1.1354061e-07
-0.00019257361
4.9738489e-08
-0.00019253921
-1.1325877e-08
-0.00019246249
-7.3602493e-08
-0.00019234165
-1.3770161e-07
-0.00019218106
-2.0078954e-07
-0.00019198364
-2.6261409e-07
-0.00019175186
-3.2264205e-07
-0.00019148761
-3.8126097e-07
-0.00019119235
-4.39144e-07
-0.0001908673
-4.9697639e-07
-0.00019051409
-5.547181e-07
-0.00019013622
-6.1050067e-07
-0.00018974141
-6.5914315e-07
-0.00018934538
-6.901911e-07
-0.00018897678
-6.8608176e-07
-0.00018868477
-6.1930837e-07
-0.00018854576
-4.5371411e-07
-0.00018866614
-1.4382774e-07
-0.00018916433
3.3914437e-07
-0.00019010554
9.8338238e-07
-0.00019155696
1.793824e-06
-0.00019363445
2.7789031e-06
-0.00019643993
3.9177021e-06
-0.00020005492
5.202717e-06
-0.00020454023
6.6285072e-06
-0.00020994169
8.2113083e-06
-0.00021629089
9.9680371e-06
-0.00022360923
1.1945656e-05
-0.00023190024
1.4168472e-05
-0.00024114985
1.6697047e-05
-0.00025130246
1.9510693e-05
-0.00026226153
2.2651043e-05
-0.00027383417
2.5959469e-05
-0.00028575294
2.9451064e-05
-0.00029754018
3.2647744e-05
-0.00030862995
3.5674516e-05
-0.00031801935
3.7127829e-05
-0.00032464743
3.8139524e-05
-0.00032738852
3.3184825e-05
3.0465175e-05
-0.00025502143
3.9513135e-08
-0.00025503701
2.816883e-08
-0.00025505301
2.8845767e-08
-0.00025506877
2.6649421e-08
-0.0002550851
2.6198777e-08
-0.00025510173
2.6364232e-08
-0.00025511912
2.6300481e-08
-0.00025513722
2.7232813e-08
-0.00025515631
2.779451e-08
-0.00025517644
2.9150057e-08
-0.00025519781
3.0323552e-08
-0.00025522053
3.2077211e-08
-0.00025524478
3.3837463e-08
-0.00025527069
3.6049561e-08
-0.00025529845
3.8404931e-08
-0.00025532824
4.1155143e-08
-0.00025536024
4.414904e-08
-0.00025539465
4.7531858e-08
-0.0002554317
5.1240938e-08
-0.00025547162
5.536774e-08
-0.00025551464
5.9899082e-08
-0.00025556104
6.4902219e-08
-0.0002556111
7.0393013e-08
-0.00025566513
7.6430601e-08
-0.00025572344
8.3049813e-08
-0.00025578639
9.031087e-08
-0.00025585435
9.8263672e-08
-0.00025592773
1.0697406e-07
-0.00025600694
1.1650337e-07
-0.00025609245
1.2692673e-07
-0.00025618474
1.3831795e-07
-0.00025628433
1.5076292e-07
-0.00025639178
1.6434906e-07
-0.00025650767
1.7916996e-07
-0.00025663263
1.9532743e-07
-0.0002567673
2.1292385e-07
-0.00025691238
2.3207124e-07
-0.0002570686
2.5287891e-07
-0.00025723672
2.7546503e-07
-0.00025741752
2.9994055e-07
-0.00025761182
3.2642316e-07
-0.00025782045
3.5501676e-07
-0.00025804429
3.8582624e-07
-0.00025828417
4.1893904e-07
-0.00025854098
4.5442921e-07
-0.00025881555
4.9234876e-07
-0.00025910871
5.3272279e-07
-0.00025942124
5.7554356e-07
-0.00025975385
6.2076162e-07
-0.00026010716
6.6828059e-07
-0.00026048172
7.1794831e-07
-0.0002608779
7.6954952e-07
-0.00026129594
8.227984e-07
-0.00026173586
8.773336e-07
-0.00026219748
9.3270964e-07
-0.00026268036
9.8839693e-07
-0.00026318376
1.0437784e-06
-0.00026370664
1.0981516e-06
-0.00026424764
1.1507324e-06
-0.000264805
1.2006659e-06
-0.00026537662
1.2470333e-06
-0.00026596002
1.2888724e-06
-0.00026655233
1.3251945e-06
-0.00026715032
1.3550081e-06
-0.00026775041
1.3773436e-06
-0.00026834872
1.3912812e-06
-0.00026894111
1.3959821e-06
-0.00026952321
1.3907127e-06
-0.00027009052
1.3748781e-06
-0.00027063846
1.348047e-06
-0.00027116247
1.3099741e-06
-0.00027165808
1.2606215e-06
-0.00027212101
1.2001727e-06
-0.00027254728
1.1290398e-06
-0.00027293325
1.0478665e-06
-0.00027327575
9.5752793e-07
-0.00027357216
8.5911302e-07
-0.00027382046
7.5391659e-07
-0.00027401928
6.4340366e-07
-0.00027416799
5.2918884e-07
-0.00027426669
4.1297566e-07
-0.00027431623
2.9653708e-07
-0.00027431814
1.8158029e-07
-0.00027427449
6.9885722e-08
-0.00027418656
-3.8192773e-08
-0.00027405369
-1.4419231e-07
-0.0002738809
-2.4639162e-07
-0.00027367707
-3.4153228e-07
-0.00027344908
-4.2878215e-07
-0.00027320398
-5.0771121e-07
-0.00027294841
-5.7821113e-07
-0.00027268918
-6.4049782e-07
-0.0002724334
-6.9492537e-07
-0.00027218905
-7.4131709e-07
-0.00027196588
-7.7789254e-07
-0.00027177672
-7.9965966e-07
-0.00027163948
-7.963826e-07
-0.00027157952
-7.5015179e-07
-0.00027163189
-6.3371064e-07
-0.00027183968
-4.115217e-07
-0.00027225511
-3.8282127e-08
-0.00027291451
5.155672e-07
-0.00027384306
1.2676996e-06
-0.0002751039
2.2442236e-06
-0.00027677424
3.4641629e-06
-0.00027891842
4.9230785e-06
-0.00028158824
6.5875243e-06
-0.0002848118
8.4262773e-06
-0.00028859381
1.0410518e-05
-0.00029291382
1.2531321e-05
-0.00029772684
1.4781051e-05
-0.00030296137
1.7180183e-05
-0.00030851896
1.9726068e-05
-0.00031426884
2.2446924e-05
-0.0003200453
2.5287156e-05
-0.00032563912
2.8244859e-05
-0.00033079296
3.111331e-05
-0.0003351972
3.3855308e-05
-0.00033848088
3.5931427e-05
-0.00034022778
3.7421412e-05
-0.0003399971
3.6897152e-05
-0.0003372106
3.5353024e-05
-0.00033228228
2.8256501e-05
2.0763694e-05
-0.00029893725
5.7959087e-08
-0.00029895757
4.8490334e-08
-0.00029897895
5.0231953e-08
-0.00029900105
4.8740763e-08
-0.0002990244
4.9549569e-08
-0.00029904873
5.0698169e-08
-0.00029907454
5.2114141e-08
-0.00029910176
5.444931e-08
-0.00029913074
5.6769996e-08
-0.00029916153
5.9940955e-08
-0.00029919441
6.3209677e-08
-0.00029922953
6.719667e-08
-0.00029926714
7.1441558e-08
-0.00029930742
7.6328898e-08
-0.00029935062
8.1612732e-08
-0.00029939699
8.7524084e-08
-0.00029944679
9.3950145e-08
-0.0002995003
1.0103605e-07
-0.0002995578
1.0874665e-07
-0.00029961962
1.1718427e-07
-0.00029968608
1.2635909e-07
-0.00029975753
1.3635555e-07
-0.00029983435
1.4721183e-07
-0.00029991693
1.5900829e-07
-0.00030000568
1.7180232e-07
-0.00030010105
1.8567772e-07
-0.00030020349
2.0070715e-07
-0.0003003135
2.1698251e-07
-0.00030043159
2.3458911e-07
-0.00030055829
2.5362894e-07
-0.00030069417
2.7419918e-07
-0.00030083982
2.9641195e-07
-0.00030099585
3.2037926e-07
-0.0003011629
3.4621582e-07
-0.00030134162
3.740477e-07
-0.00030153269
4.0399389e-07
-0.0003017368
4.3618595e-07
-0.00030195466
4.707429e-07
-0.00030218699
5.0779469e-07
-0.00030243451
5.4745135e-07
-0.00030269791
5.8983045e-07
-0.00030297792
6.3502011e-07
-0.0003032752
6.831064e-07
-0.0003035904
7.341432e-07
-0.00030392413
7.8815968e-07
-0.00030427693
8.4514853e-07
-0.00030464927
9.050593e-07
-0.00030504151
9.677916e-07
-0.00030545394
1.033183e-06
-0.00030588666
1.1010038e-06
-0.00030633966
1.170946e-06
-0.00030681272
1.2426155e-06
-0.00030730545
1.3155237e-06
-0.0003078172
1.3890833e-06
-0.00030834709
1.4625989e-06
-0.00030889396
1.5352703e-06
-0.00030945637
1.6061903e-06
-0.00031003257
1.6743506e-06
-0.00031062049
1.7386497e-06
-0.00031121773
1.7979103e-06
-0.00031182159
1.8508901e-06
-0.00031242903
1.8963125e-06
-0.00031303673
1.93289e-06
-0.00031364108
1.9593569e-06
-0.00031423824
1.9745034e-06
-0.00031482417
1.9772126e-06
-0.00031539469
1.9665013e-06
-0.00031594552
1.9415507e-06
-0.0003164724
1.9017497e-06
-0.00031697107
1.846725e-06
-0.00031743747
1.7763685e-06
-0.00031786771
1.6908621e-06
-0.00031825823
1.5906928e-06
-0.00031860585
1.4766594e-06
-0.00031890785
1.3498727e-06
-0.00031916208
1.2117524e-06
-0.00031936697
1.0640017e-06
-0.00031952165
9.0859567e-07
-0.00031962598
7.4773461e-07
-0.0003196806
5.8381526e-07
-0.00031968699
4.1936395e-07
-0.00031964741
2.5695085e-07
-0.00031956504
9.9212791e-08
-0.00031944323
-5.1921901e-08
-0.00031928597
-1.9545745e-07
-0.00031910201
-3.2815253e-07
-0.00031890263
-4.4577031e-07
-0.00031869784
-5.4631859e-07
-0.00031849779
-6.2883317e-07
-0.00031831319
-6.9230755e-07
-0.00031815528
-7.3612674e-07
-0.00031803558
-7.601961e-07
-0.00031796592
-7.6458186e-07
-0.00031795842
-7.4882185e-07
-0.00031802555
-7.1076569e-07
-0.00031818032
-6.4488517e-07
-0.00031843626
-5.404416e-07
-0.00031880654
-3.798769e-07
-0.00031930265
-1.3760046e-07
-0.00031993097
2.1680153e-07
-0.00032068383
7.145743e-07
-0.00032156161
1.3933473e-06
-0.00032258805
2.2941468e-06
-0.00032379259
3.4487637e-06
-0.00032519499
4.8665565e-06
-0.0003268035
6.5315882e-06
-0.00032862382
8.4078437e-06
-0.00033065307
1.0455532e-05
-0.00033287386
1.2631308e-05
-0.00033524962
1.4907076e-05
-0.0003377233
1.725473e-05
-0.00034021316
1.9670043e-05
-0.00034261424
2.2127148e-05
-0.000344793
2.4625683e-05
-0.00034659387
2.7088032e-05
-0.00034783317
2.9484158e-05
-0.00034831773
3.1597868e-05
-0.00034783886
3.3376434e-05
-0.00034622584
3.4318407e-05
-0.00034331625
3.4511823e-05
-0.00033918743
3.2768333e-05
-0.00033379246
2.9958057e-05
-0.00032845171
2.2915754e-05
1.489258e-05
-0.00031949613
7.8930041e-08
-0.00031952007
7.2431383e-08
-0.00031954537
7.5529393e-08
-0.00031957216
7.5529684e-08
-0.00031960067
7.8063534e-08
-0.00031963078
8.0805502e-08
-0.00031966288
8.4222284e-08
-0.00031969698
8.8542563e-08
-0.00031973341
9.3199375e-08
-0.00031977227
9.8805395e-08
-0.00031981388
1.0481366e-07
-0.0003198584
1.1171856e-07
-0.00031990613
1.1917143e-07
-0.0003199573
1.2750213e-07
-0.00032001222
1.3652797e-07
-0.00032007115
1.464629e-07
-0.00032013444
1.5723378e-07
-0.00032020239
1.6898824e-07
-0.00032027536
1.8172008e-07
-0.00032035372
1.955444e-07
-0.00032043786
2.1049576e-07
-0.00032052818
2.2667696e-07
-0.00032062512
2.4414868e-07
-0.00032072912
2.6301282e-07
-0.00032084067
2.8334846e-07
-0.00032096026
3.0526273e-07
-0.0003210884
3.2884905e-07
-0.00032122564
3.5422257e-07
-0.00032137254
3.8148802e-07
-0.00032152968
4.1076975e-07
-0.00032169766
4.4218163e-07
-0.0003218771
4.7585465e-07
-0.00032206864
5.1191616e-07
-0.00032227291
5.504905e-07
-0.00032249058
5.9171561e-07
-0.0003227223
6.3571141e-07
-0.00032296873
6.8261242e-07
-0.00032323051
7.3252715e-07
-0.00032350829
7.8557605e-07
-0.00032380268
8.4184314e-07
-0.00032411427
9.0141975e-07
-0.0003244436
9.6434832e-07
-0.00032479116
1.0306651e-06
-0.00032515737
1.1003568e-06
-0.00032554259
1.1733724e-06
-0.00032594705
1.2496091e-06
-0.00032637089
1.3289038e-06
-0.00032681413
1.4110264e-06
-0.00032727661
1.4956654e-06
-0.00032775803
1.5824236e-06
-0.00032825789
1.670806e-06
-0.00032877548
1.7602125e-06
-0.00032930989
1.84993e-06
-0.00032985994
1.9391308e-06
-0.0003304242
2.0268627e-06
-0.00033100099
2.1120573e-06
-0.00033158833
2.1935303e-06
-0.00033218397
2.2699917e-06
-0.00033278538
2.3400584e-06
-0.00033338975
2.4022784e-06
-0.000333994
2.4551456e-06
-0.00033459483
2.4971399e-06
-0.0003351887
2.5267562e-06
-0.00033577189
2.5425454e-06
-0.00033634054
2.5431552e-06
-0.0003368907
2.527375e-06
-0.00033741838
2.494184e-06
-0.00033791962
2.4427868e-06
-0.00033839053
2.372663e-06
-0.00033882741
2.283602e-06
-0.00033922677
2.175732e-06
-0.00033958546
2.0495482e-06
-0.00033990069
1.9059273e-06
-0.00034017017
1.7461335e-06
-0.00034039211
1.5718166e-06
-0.00034056537
1.3850082e-06
-0.00034068946
1.1880907e-06
-0.00034076465
9.8378656e-07
-0.00034079202
7.7510719e-07
-0.00034077353
5.6532903e-07
-0.00034071209
3.5791687e-07
-0.00034061162
1.5647945e-07
-0.00034047702
-3.5383522e-08
-0.00034031435
-2.1458862e-07
-0.00034013306
-3.7675349e-07
-0.00033994445
-5.1675946e-07
-0.000339759
-6.3121677e-07
-0.00033958792
-7.1739793e-07
-0.00033944375
-7.7301109e-07
-0.00033933967
-7.9638097e-07
-0.0003392891
-7.8669874e-07
-0.00033930526
-7.4404143e-07
-0.00033940064
-6.6919783e-07
-0.00033958647
-5.6299231e-07
-0.00033987201
-4.2522797e-07
-0.00034026366
-2.532276e-07
-0.00034076418
-3.9923634e-08
-0.00034137057
2.2650766e-07
-0.00034207317
5.650042e-07
-0.00034285993
1.0035596e-06
-0.00034372164
1.5762883e-06
-0.00034465151
2.3232144e-06
-0.00034563916
3.2817962e-06
-0.00034666544
4.4750477e-06
-0.00034770868
5.9097874e-06
-0.00034875121
7.5741237e-06
-0.00034977718
9.4338142e-06
-0.00035076897
1.1447318e-05
-0.00035170436
1.3566703e-05
-0.00035255134
1.5754057e-05
-0.00035326629
1.7969673e-05
-0.00035378924
2.0192999e-05
-0.00035404632
2.2384221e-05
-0.00035394633
2.4525694e-05
-0.00035339155
2.6533256e-05
-0.00035227511
2.8367714e-05
-0.00035050673
2.9829497e-05
-0.00034800297
3.0872672e-05
-0.00034474968
3.1065113e-05
-0.00034073589
3.0498031e-05
-0.00033618376
2.8216206e-05
-0.00033113143
2.4905728e-05
-0.0003266504
1.8434725e-05
1.0822779e-05
-0.00032768189
1.0174413e-07
-0.00032770811
9.8646027e-08
-0.00032773577
1.0319889e-07
-0.00032776545
1.052035e-07
-0.0003277971
1.0971447e-07
-0.00032783076
1.1446904e-07
-0.00032786674
1.2019919e-07
-0.00032790509
1.2689135e-07
-0.00032794613
1.3424061e-07
-0.00032799001
1.4268043e-07
-0.00032803702
1.5182943e-07
-0.00032808739
1.6208612e-07
-0.00032814141
1.731977e-07
-0.00032819937
1.8545257e-07
-0.00032826156
1.9872557e-07
-0.00032832832
2.1321983e-07
-0.00032839999
2.289002e-07
-0.00032847692
2.4591998e-07
-0.0003285595
2.6430156e-07
-0.00032864813
2.8417457e-07
-0.00032874323
3.0559785e-07
-0.00032884525
3.2869341e-07
-0.00032895464
3.5354411e-07
-0.0003290719
3.8027338e-07
-0.00032919754
4.089809e-07
-0.00032933207
4.3979591e-07
-0.00032947605
4.7283059e-07
-0.00032963005
5.0822149e-07
-0.00032979465
5.4608942e-07
-0.00032997046
5.8657756e-07
-0.00033015809
6.2981146e-07
-0.00033035817
6.7593557e-07
-0.00033057134
7.2508588e-07
-0.00033079824
7.773882e-07
-0.00033103951
8.3298362e-07
-0.00033129578
8.9198215e-07
-0.00033156767
9.5450989e-07
-0.0003318558
1.0206511e-06
-0.00033216072
1.0905025e-06
-0.00033248299
1.1641054e-06
-0.00033282307
1.2415077e-06
-0.00033318141
1.3226868e-06
-0.00033355836
1.4076091e-06
-0.00033395417
1.4961728e-06
-0.00033436903
1.5882252e-06
-0.00033480296
1.6835451e-06
-0.00033525589
1.7818347e-06
-0.00033572758
1.8827127e-06
-0.00033621761
1.9856978e-06
-0.00033672539
2.0902065e-06
-0.00033725013
2.1955409e-06
-0.0003377908
2.3008822e-06
-0.00033834615
2.405284e-06
-0.0003389147
2.5076748e-06
-0.00033949468
2.6068476e-06
-0.0003400841
2.7014743e-06
-0.00034068068
2.7901089e-06
-0.00034128189
2.8712022e-06
-0.00034188495
2.9431194e-06
-0.00034248684
3.0041713e-06
-0.00034308433
3.0526322e-06
-0.00034367398
3.0867891e-06
-0.0003442522
3.1049756e-06
-0.00034481527
3.1056197e-06
-0.00034535941
3.0872912e-06
-0.00034588078
3.0487518e-06
-0.00034637561
2.9890103e-06
-0.00034684019
2.907361e-06
-0.00034727096
2.803439e-06
-0.00034766462
2.6772579e-06
-0.00034801813
2.52924e-06
-0.00034832882
2.3602469e-06
-0.00034859449
2.1715932e-06
-0.00034881341
1.9650523e-06
-0.00034898444
1.7428526e-06
-0.00034910711
1.5076743e-06
-0.00034918163
1.2626138e-06
-0.00034920903
1.0111782e-06
-0.00034919115
7.5722759e-07
-0.00034913079
5.0497167e-07
-0.00034903173
2.5885893e-07
-0.00034889894
2.3684382e-08
-0.00034873833
-1.9598744e-07
-0.00034855809
-3.9482807e-07
-0.00034836793
-5.6691761e-07
-0.00034817747
-7.0722188e-07
-0.00034799749
-8.1118902e-07
-0.00034784007
-8.7482448e-07
-0.000347718
-8.9507613e-07
-0.00034764459
-8.6979712e-07
-0.00034763306
-7.9822847e-07
-0.00034769601
-6.8109183e-07
-0.00034784468
-5.2052367e-07
-0.00034808818
-3.1949143e-07
-0.00034843258
-8.082552e-08
-0.00034887982
1.9401209e-07
-0.0003494266
5.0685516e-07
-0.00035006581
8.6571221e-07
-0.00035078658
1.2857771e-06
-0.00035157318
1.7901634e-06
-0.00035240569
2.4087946e-06
-0.0003532564
3.1739255e-06
-0.00035409066
4.1160503e-06
-0.00035487387
5.2582584e-06
-0.00035557197
6.6078899e-06
-0.00035615259
8.1547489e-06
-0.00035658936
9.8705817e-06
-0.00035686045
1.1718408e-05
-0.00035694656
1.3652809e-05
-0.00035682648
1.563398e-05
-0.00035647504
1.7618235e-05
-0.0003558585
1.9576458e-05
-0.00035493644
2.1462153e-05
-0.00035365877
2.3248028e-05
-0.00035197612
2.4850601e-05
-0.00034983703
2.6228627e-05
-0.00034721344
2.7205905e-05
-0.0003440866
2.7745838e-05
-0.00034051197
2.7490478e-05
-0.00033654025
2.6526317e-05
-0.00033244348
2.4119435e-05
-0.00032832725
2.0789491e-05
-0.0003250178
1.5125274e-05
8.3855835e-06
-0.00033050646
1.2575145e-07
-0.00033053383
1.2601912e-07
-0.00033056263
1.3199453e-07
-0.00033059369
1.3626061e-07
-0.0003306268
1.4282934e-07
-0.00033066216
1.498335e-07
-0.00033069998
1.5801737e-07
-0.00033074038
1.6729288e-07
-0.00033078365
1.7750754e-07
-0.00033082996
1.8898945e-07
-0.00033087961
2.0147733e-07
-0.00033093283
2.153056e-07
-0.00033098993
2.3029895e-07
-0.00033105119
2.4671833e-07
-0.00033111696
2.6448843e-07
-0.00033118755
2.8380797e-07
-0.00033126332
3.046766e-07
-0.00033134466
3.2725639e-07
-0.00033143195
3.5159705e-07
-0.00033152562
3.7784425e-07
-0.00033162611
4.0608048e-07
-0.00033173386
4.3644767e-07
-0.00033184937
4.6905032e-07
-0.00033197313
5.0403345e-07
-0.00033210566
5.4151671e-07
-0.00033224752
5.8165102e-07
-0.00033239925
6.2456617e-07
-0.00033256145
6.7041888e-07
-0.00033273471
7.1934415e-07
-0.00033291963
7.7150213e-07
-0.00033311685
8.270274e-07
-0.00033332699
8.8607504e-07
-0.00033355069
9.4878618e-07
-0.00033378858
1.015284e-06
-0.00033404131
1.0857082e-06
-0.00033430948
1.1601535e-06
-0.0003345937
1.238732e-06
-0.00033489455
1.3214968e-06
-0.00033521256
1.4085139e-06
-0.00033554823
1.499774e-06
-0.00033590199
1.5952734e-06
-0.00033627422
1.694915e-06
-0.0003366652
1.7985865e-06
-0.00033707511
1.9060878e-06
-0.00033750404
2.0171542e-06
-0.00033795193
2.1314369e-06
-0.00033841859
2.2484935e-06
-0.00033890366
2.3677824e-06
-0.00033940661
2.4886444e-06
-0.0003399267
2.6103026e-06
-0.00034046301
2.7318503e-06
-0.00034101438
2.8522461e-06
-0.0003415794
2.970309e-06
-0.00034215645
3.0847236e-06
-0.00034274364
3.1940317e-06
-0.00034333881
3.2966515e-06
-0.00034393959
3.3908842e-06
-0.00034454332
3.4749333e-06
-0.00034514713
3.5469271e-06
-0.00034574791
3.6049566e-06
-0.00034634238
3.6470964e-06
-0.00034692705
3.6714623e-06
-0.00034749832
3.6762502e-06
-0.00034805249
3.6597901e-06
-0.0003485858
3.6205987e-06
-0.00034909449
3.5574359e-06
-0.00034957484
3.4693651e-06
-0.00035002328
3.3557946e-06
-0.00035043637
3.2165384e-06
-0.00035081097
3.0518563e-06
-0.00035114422
2.8624851e-06
-0.00035143364
2.6496719e-06
-0.00035167724
2.4151862e-06
-0.00035187351
2.1613268e-06
-0.00035202157
1.890914e-06
-0.00035212119
1.6072887e-06
-0.00035217284
1.3142701e-06
-0.00035217782
1.0161537e-06
-0.00035213824
7.1765063e-07
-0.00035205715
4.2387751e-07
-0.00035193859
1.402996e-07
-0.00035178755
-1.2735131e-07
-0.00035161053
-3.7301342e-07
-0.00035141524
-5.9011326e-07
-0.00035120993
-7.7223377e-07
-0.00035100383
-9.1331678e-07
-0.00035080721
-1.0078128e-06
-0.00035063116
-1.050872e-06
-0.00035048752
-1.0387192e-06
-0.00035038835
-9.689636e-07
-0.00035034548
-8.4110194e-07
-0.0003503699
-6.5666669e-07
-0.00035047113
-4.1929659e-07
-0.00035065647
-1.3415091e-07
-0.00035093021
1.9291505e-07
-0.00035129319
5.5699495e-07
-0.00035174257
9.5623022e-07
-0.00035227098
1.3941274e-06
-0.0003528657
1.8804898e-06
-0.00035350738
2.4318525e-06
-0.00035416967
3.0710772e-06
-0.00035482116
3.8254205e-06
-0.00035542644
4.7213317e-06
-0.00035594635
5.7781653e-06
-0.00035634231
7.003849e-06
-0.00035658046
8.3928945e-06
-0.00035663352
9.9236433e-06
-0.00035648074
1.156563e-05
-0.00035610713
1.3279199e-05
-0.00035550011
1.5026962e-05
-0.00035464787
1.6765994e-05
-0.00035353525
1.8463833e-05
-0.00035214514
2.0072043e-05
-0.00035045558
2.1558469e-05
-0.00034844844
2.2843465e-05
-0.0003461055
2.3885691e-05
-0.00034343029
2.4530693e-05
-0.00034043011
2.4745661e-05
-0.00033717362
2.4233985e-05
-0.00033371084
2.3063536e-05
-0.00033026756
2.0676155e-05
-0.00032693096
1.7452887e-05
-0.00032431357
1.250789e-05
6.6528106e-06
-0.00033136326
1.503355e-07
-0.00033139096
1.5371894e-07
-0.00033142005
1.6108108e-07
-0.00033145149
1.6769948e-07
-0.00033148498
1.7632783e-07
-0.00033152084
1.8569199e-07
-0.00033155919
1.9636809e-07
-0.00033160022
2.0832031e-07
-0.00033164417
2.2145794e-07
-0.00033169125
2.3606565e-07
-0.00033174173
2.5196157e-07
-0.00033179587
2.694442e-07
-0.00033185397
2.88398e-07
-0.00033191632
3.0906902e-07
-0.00033198326
3.3142421e-07
-0.00033205511
3.556636e-07
-0.00033213225
3.8181845e-07
-0.00033221506
4.1006225e-07
-0.00033230393
4.4047073e-07
-0.0003323993
4.7320684e-07
-0.00033250159
5.0837621e-07
-0.00033261129
5.4614126e-07
-0.00033272886
5.8662783e-07
-0.00033285483
6.3000277e-07
-0.00033298972
6.7640537e-07
-0.00033313408
7.2600817e-07
-0.00033328847
7.7895824e-07
-0.00033345348
8.3543224e-07
-0.00033362972
8.9557885e-07
-0.00033381779
9.5957463e-07
-0.00033401833
1.0275625e-06
-0.00033423196
1.0997072e-06
-0.00033445933
1.1761542e-06
-0.00033470106
1.2570227e-06
-0.00033495781
1.34245e-06
-0.00033523017
1.4325139e-06
-0.00033551875
1.5273106e-06
-0.00033582411
1.6268608e-06
-0.00033614679
1.7311976e-06
-0.00033648728
1.8402589e-06
-0.00033684599
1.9539872e-06
-0.00033722329
2.072209e-06
-0.00033761943
2.1947309e-06
-0.00033803459
2.3212519e-06
-0.00033846883
2.4513935e-06
-0.00033892207
2.5846767e-06
-0.00033939409
2.7205128e-06
-0.00033988451
2.8581981e-06
-0.00034039276
2.9968939e-06
-0.00034091808
3.1356288e-06
-0.00034145952
3.2732867e-06
-0.00034201588
3.408603e-06
-0.00034258573
3.5401617e-06
-0.00034316741
3.6664047e-06
-0.000343759
3.7856228e-06
-0.00034435833
3.8959816e-06
-0.00034496298
3.9955304e-06
-0.00034557027
4.0822268e-06
-0.00034617731
4.153963e-06
-0.00034678096
4.2086109e-06
-0.00034737791
4.2440456e-06
-0.00034796466
4.2582118e-06
-0.00034853758
4.2491666e-06
-0.00034909293
4.2151404e-06
-0.00034962692
4.154595e-06
-0.00035013578
4.066286e-06
-0.00035061574
3.9493286e-06
-0.00035106319
3.8032427e-06
-0.00035147467
3.6280183e-06
-0.00035184697
3.4241599e-06
-0.0003521772
3.1927178e-06
-0.00035246286
2.9353247e-06
-0.00035270188
2.6542062e-06
-0.00035289274
2.3521881e-06
-0.00035303451
2.0326848e-06
-0.00035312692
1.6996984e-06
-0.00035317042
1.3577677e-06
-0.00035316623
1.01197e-06
-0.00035311643
6.6784533e-07
-0.00035302395
3.3139589e-07
-0.00035289266
9.0175963e-09
-0.00035272745
-2.9256702e-07
-0.00035253422
-5.6624067e-07
-0.00035231972
-8.0461811e-07
-0.00035209141
-1.0005358e-06
-0.00035185769
-1.1470396e-06
-0.00035162775
-1.2377583e-06
-0.00035141148
-1.2671326e-06
-0.00035121921
-1.2309984e-06
-0.00035106132
-1.1268498e-06
-0.00035094793
-9.5449194e-07
-0.00035088839
-7.1620367e-07
-0.00035089078
-4.1691088e-07
-0.0003509613
-6.36259e-08
-0.00035110384
3.3544736e-07
-0.00035131946
7.7262221e-07
-0.00035160556
1.2423239e-06
-0.00035195455
1.7431239e-06
-0.00035235341
2.2793455e-06
-0.00035278371
2.8621578e-06
-0.00035322167
3.5090286e-06
-0.00035363762
4.2413708e-06
-0.00035399729
5.0810047e-06
-0.00035426509
6.0459662e-06
-0.00035440635
7.1451053e-06
-0.00035438971
8.376253e-06
-0.00035419017
9.7241112e-06
-0.00035378948
1.1164935e-05
-0.00035317585
1.2665574e-05
-0.00035234154
1.4192646e-05
-0.0003512814
1.5705862e-05
-0.00034998944
1.717187e-05
-0.00034845973
1.8542331e-05
-0.00034668354
1.978228e-05
-0.00034465668
2.0816609e-05
-0.00034237518
2.1604189e-05
-0.00033985513
2.2010644e-05
-0.00033711524
2.2005767e-05
-0.00033423009
2.1348839e-05
-0.00033125877
2.0092213e-05
-0.00032840534
1.7822725e-05
-0.0003257688
1.4816354e-05
-0.00032377929
1.0518376e-05
5.4541209e-06
-0.0003315936
1.751106e-07
-0.00033162119
1.8130118e-07
-0.00033165012
1.9001894e-07
-0.00033168141
1.9898082e-07
-0.00033171471
2.0963286e-07
-0.00033175041
2.2139043e-07
-0.00033178859
2.3454436e-07
-0.00033182946
2.4919948e-07
-0.00033187326
2.6525677e-07
-0.0003319202
2.8300602e-07
-0.00033197055
3.0231062e-07
-0.00033202456
3.2345655e-07
-0.00033208254
3.4637253e-07
-0.00033214477
3.7130055e-07
-0.00033221159
3.9824292e-07
-0.00033228333
4.2740589e-07
-0.00033236036
4.5884934e-07
-0.00033244306
4.9276046e-07
-0.00033253183
5.2923968e-07
-0.00033262709