/*--------------------------------*- C++ -*----------------------------------*\
| =========                 |                                                 |
| \\      /  F ield         | foam-extend: Open Source CFD                    |
|  \\    /   O peration     | Version:     4.1                                |
|   \\  /    A nd           | Web:         http://www.foam-extend.org         |
|    \\/     M anipulation  |                                                 |
\*---------------------------------------------------------------------------*/
FoamFile
{
    version     2.0;
    format      ascii;
    class       volScalarField;
    location    "0.6";
    object      rAU;
}
// * * * * * * * * * * * * * * * * * * * * * * * * * * * * * * * * * * * * * //

dimensions      [0 0 1 0 0 0 0];

internalField   nonuniform List<scalar> 
16126
(
0.00049468186
0.00049426405
0.00049426394
0.00049426388
0.00049426382
0.00049426379
0.00049426375
0.00049426374
0.00049426372
0.00049426372
0.00049426371
0.00049426372
0.00049426372
0.00049426374
0.00049426374
0.00049426377
0.00049426378
0.00049426382
0.00049426384
0.00049426388
0.00049426389
0.00049426393
0.00049426395
0.00049426398
0.00049426399
0.00049426401
0.00049426399
0.00049426398
0.00049426393
0.00049426388
0.00049426378
0.00049426366
0.00049426352
0.00049426332
0.00049426309
0.00049426278
0.00049426243
0.00049426198
0.00049426147
0.00049426084
0.00049426012
0.00049425927
0.00049425828
0.00049425713
0.00049425581
0.0004942543
0.00049425258
0.00049425062
0.00049424841
0.00049424592
0.00049424313
0.00049424002
0.00049423656
0.00049423274
0.00049422854
0.00049422395
0.00049421894
0.00049421351
0.00049420767
0.0004942014
0.00049419471
0.00049418763
0.00049418016
0.00049417234
0.0004941642
0.00049415579
0.00049414716
0.00049413835
0.00049412945
0.00049412051
0.00049411162
0.00049410284
0.00049409426
0.00049408596
0.00049407802
0.0004940705
0.00049406349
0.00049405704
0.00049405122
0.00049404607
0.00049404162
0.00049403792
0.00049403497
0.00049403279
0.00049403136
0.00049403064
0.00049403054
0.00049403054
0.00049403107
0.00049403232
0.00049403436
0.0004940372
0.00049404085
0.00049404535
0.00049405071
0.00049405701
0.00049406427
0.00049407253
0.00049408172
0.00049409165
0.00049410189
0.00049411175
0.00049412005
0.00049412384
0.00049411323
0.00049409139
0.00049405669
0.00049400712
0.00049394018
0.00049385241
0.00049373939
0.00049359492
0.00049341153
0.00049317934
0.00049288788
0.00049252421
0.00049207745
0.0004915341
0.00049088916
0.00049013124
0.0004892789
0.00048831422
0.00048738583
0.00048591085
0.00049210563
0.00049169221
0.00049169188
0.00049169167
0.0004916914
0.00049169117
0.00049169092
0.00049169068
0.00049169041
0.00049169017
0.00049168987
0.0004916896
0.00049168927
0.00049168897
0.00049168859
0.00049168824
0.00049168781
0.0004916874
0.00049168691
0.00049168642
0.00049168585
0.00049168527
0.00049168459
0.0004916839
0.0004916831
0.00049168227
0.0004916813
0.0004916803
0.00049167914
0.00049167792
0.00049167652
0.00049167502
0.0004916734
0.00049167156
0.0004916696
0.00049166739
0.00049166501
0.00049166235
0.00049165948
0.00049165627
0.00049165282
0.00049164898
0.00049164481
0.00049164024
0.00049163525
0.00049162981
0.00049162389
0.00049161745
0.00049161047
0.0004916029
0.00049159474
0.00049158594
0.00049157649
0.00049156637
0.00049155557
0.00049154408
0.0004915319
0.00049151906
0.00049150556
0.00049149144
0.00049147675
0.00049146154
0.00049144588
0.00049142985
0.00049141354
0.00049139706
0.00049138054
0.00049136407
0.0004913478
0.00049133187
0.00049131641
0.00049130155
0.00049128744
0.0004912742
0.00049126195
0.00049125079
0.00049124083
0.00049123213
0.00049122476
0.00049121876
0.00049121414
0.0004912109
0.000491209
0.00049120841
0.00049120903
0.00049121044
0.00049121151
0.00049121336
0.00049121637
0.00049122056
0.00049122587
0.00049123223
0.00049123956
0.00049124782
0.00049125695
0.0004912669
0.0004912776
0.00049128888
0.0004913004
0.0004913115
0.00049132095
0.00049132685
0.00049131615
0.00049128595
0.00049123195
0.00049115679
0.00049105756
0.00049093136
0.00049077588
0.00049058879
0.00049036823
0.00049011188
0.00048981844
0.0004894861
0.00048911606
0.00048870895
0.00048827273
0.00048781299
0.00048735255
0.00048690213
0.00048652141
0.00048620616
0.00048615548
0.00048575138
0.00048969577
0.00048928633
0.00048928579
0.0004892854
0.0004892849
0.00048928443
0.00048928388
0.00048928336
0.00048928275
0.00048928216
0.00048928147
0.00048928079
0.00048928001
0.00048927923
0.00048927833
0.00048927743
0.00048927639
0.00048927534
0.00048927413
0.0004892729
0.0004892715
0.00048927006
0.00048926844
0.00048926675
0.00048926485
0.00048926288
0.00048926067
0.00048925835
0.00048925577
0.00048925306
0.00048925005
0.00048924683
0.0004892434
0.00048923961
0.0004892356
0.00048923119
0.00048922651
0.00048922139
0.00048921594
0.00048921
0.00048920368
0.00048919682
0.00048918948
0.00048918161
0.00048917317
0.00048916413
0.00048915447
0.00048914418
0.00048913322
0.00048912157
0.00048910922
0.00048909616
0.00048908239
0.00048906792
0.00048905275
0.0004890369
0.00048902042
0.00048900333
0.00048898571
0.00048896762
0.00048894913
0.00048893035
0.00048891138
0.00048889234
0.00048887335
0.00048885455
0.0004888361
0.00048881814
0.00048880081
0.00048878427
0.00048876867
0.00048875415
0.00048874084
0.00048872885
0.0004887183
0.00048870925
0.00048870179
0.00048869594
0.00048869173
0.00048868914
0.00048868815
0.00048868869
0.00048869069
0.00048869405
0.00048869753
0.00048869987
0.00048870204
0.00048870537
0.00048870968
0.00048871476
0.00048872044
0.00048872647
0.00048873264
0.00048873871
0.00048874443
0.00048874956
0.00048875386
0.00048875712
0.00048875909
0.00048875953
0.00048875825
0.00048873944
0.0004887009
0.00048864276
0.00048856702
0.00048847148
0.00048835521
0.00048821759
0.00048805868
0.00048787867
0.00048767844
0.0004874588
0.00048722207
0.00048697042
0.00048670956
0.00048644461
0.00048618818
0.00048594915
0.00048575315
0.00048560887
0.00048557193
0.00048562556
0.00048592438
0.00048589678
0.00048835024
0.00048794291
0.00048794219
0.00048794163
0.00048794089
0.00048794018
0.00048793936
0.00048793854
0.0004879376
0.00048793666
0.00048793558
0.00048793449
0.00048793325
0.000487932
0.00048793057
0.00048792911
0.00048792746
0.00048792576
0.00048792385
0.00048792188
0.00048791968
0.00048791739
0.00048791484
0.00048791217
0.00048790922
0.00048790614
0.00048790273
0.00048789915
0.00048789522
0.00048789107
0.00048788654
0.00048788172
0.00048787659
0.000487871
0.0004878651
0.0004878587
0.00048785193
0.00048784462
0.00048783689
0.00048782855
0.00048781976
0.00048781032
0.00048780033
0.00048778972
0.00048777846
0.00048776656
0.00048775398
0.00048774073
0.00048772678
0.00048771215
0.00048769684
0.00048768086
0.00048766422
0.00048764698
0.00048762916
0.00048761081
0.000487592
0.0004875728
0.00048755329
0.0004875336
0.00048751381
0.00048749404
0.00048747444
0.00048745514
0.00048743629
0.00048741804
0.00048740054
0.00048738394
0.00048736839
0.00048735404
0.00048734101
0.00048732942
0.00048731938
0.00048731097
0.00048730426
0.00048729927
0.00048729604
0.00048729453
0.00048729472
0.00048729654
0.00048729988
0.00048730463
0.00048731063
0.00048731616
0.0004873187
0.00048732027
0.00048732277
0.00048732595
0.00048732954
0.00048733323
0.00048733673
0.00048733966
0.00048734167
0.0004873424
0.00048734154
0.00048733886
0.00048733427
0.0004873279
0.00048732017
0.00048730533
0.00048728244
0.00048724027
0.00048718626
0.00048712003
0.00048704041
0.00048694727
0.00048684147
0.00048672407
0.00048659648
0.00048646011
0.00048631693
0.00048616882
0.00048601904
0.00048587078
0.00048573042
0.00048560358
0.00048550228
0.00048543394
0.00048541995
0.00048546281
0.00048560336
0.00048581311
0.00048618952
0.00048619045
0.00048772289
0.00048731644
0.00048731558
0.00048731485
0.00048731391
0.00048731301
0.00048731194
0.00048731088
0.00048730966
0.00048730842
0.00048730701
0.00048730558
0.00048730396
0.0004873023
0.00048730042
0.00048729849
0.00048729633
0.00048729409
0.00048729159
0.000487289
0.00048728612
0.00048728311
0.00048727979
0.00048727631
0.00048727248
0.00048726847
0.00048726407
0.00048725945
0.0004872544
0.00048724909
0.00048724331
0.00048723718
0.00048723067
0.00048722363
0.00048721621
0.00048720821
0.00048719979
0.00048719073
0.00048718121
0.00048717101
0.00048716029
0.00048714888
0.00048713686
0.00048712418
0.00048711084
0.00048709681
0.00048708211
0.00048706674
0.0004870507
0.00048703402
0.00048701671
0.00048699881
0.00048698036
0.00048696143
0.00048694206
0.00048692234
0.00048690235
0.0004868822
0.00048686198
0.00048684184
0.00048682189
0.00048680227
0.00048678314
0.00048676464
0.00048674692
0.00048673014
0.00048671446
0.0004867
0.00048668692
0.00048667534
0.00048666535
0.00048665706
0.00048665054
0.00048664582
0.00048664294
0.00048664187
0.00048664259
0.00048664501
0.00048664907
0.0004866546
0.00048666146
0.00048666944
0.00048667723
0.00048667974
0.00048668033
0.00048668181
0.00048668398
0.00048668657
0.00048668928
0.00048669175
0.00048669361
0.00048669445
0.00048669386
0.00048669148
0.00048668704
0.00048668041
0.00048667171
0.0004866546
0.00048663329
0.00048660294
0.00048656174
0.00048651299
0.00048645577
0.0004863897
0.00048631513
0.00048623311
0.00048614519
0.00048605314
0.00048595893
0.00048586441
0.00048577174
0.00048568287
0.00048560081
0.00048552832
0.00048547067
0.00048543201
0.00048542157
0.00048544346
0.00048551325
0.00048562866
0.00048581896
0.00048605686
0.00048640594
0.00048636834
0.0004874733
0.0004870671
0.00048706612
0.00048706527
0.00048706418
0.00048706312
0.00048706188
0.00048706063
0.0004870592
0.00048705774
0.00048705608
0.00048705439
0.00048705248
0.00048705051
0.0004870483
0.00048704601
0.00048704347
0.00048704082
0.00048703788
0.00048703481
0.00048703142
0.00048702788
0.00048702398
0.00048701989
0.00048701541
0.0004870107
0.00048700557
0.00048700017
0.00048699429
0.00048698811
0.00048698141
0.00048697431
0.00048696679
0.00048695869
0.00048695015
0.00048694099
0.00048693136
0.00048692105
0.00048691022
0.00048689869
0.0004868866
0.00048687378
0.00048686033
0.0004868462
0.00048683139
0.00048681591
0.00048679975
0.00048678295
0.00048676551
0.00048674748
0.00048672887
0.00048670976
0.00048669018
0.00048667024
0.00048664998
0.00048662952
0.00048660896
0.00048658841
0.00048656799
0.00048654786
0.00048652814
0.00048650899
0.00048649056
0.00048647301
0.0004864565
0.00048644116
0.00048642718
0.00048641465
0.00048640372
0.00048639448
0.00048638704
0.00048638144
0.00048637774
0.00048637594
0.00048637604
0.00048637798
0.00048638169
0.00048638704
0.00048639392
0.0004864021
0.0004864114
0.00048642153
0.00048642518
0.00048642462
0.00048642517
0.0004864267
0.00048642902
0.00048643188
0.00048643499
0.000486438
0.00048644055
0.00048644223
0.00048644264
0.00048644139
0.00048643823
0.00048642725
0.0004864107
0.00048638454
0.00048635245
0.00048631534
0.00048627279
0.0004862244
0.00048617011
0.00048611026
0.00048604568
0.0004859777
0.00048590817
0.000485839
0.00048577222
0.00048570965
0.00048565323
0.00048560461
0.00048556621
0.00048554006
0.00048553021
0.00048553938
0.00048557446
0.0004856374
0.00048573962
0.00048587686
0.00048606988
0.00048629481
0.00048659135
0.00048649173
0.00048738682
0.00048698063
0.00048697958
0.00048697862
0.00048697743
0.00048697626
0.00048697489
0.00048697351
0.00048697192
0.00048697031
0.00048696848
0.00048696659
0.00048696448
0.00048696229
0.00048695985
0.00048695731
0.00048695449
0.00048695155
0.00048694829
0.00048694489
0.00048694114
0.00048693722
0.00048693291
0.00048692839
0.00048692345
0.00048691825
0.0004869126
0.00048690664
0.00048690019
0.00048689339
0.00048688605
0.00048687827
0.00048687003
0.00048686118
0.00048685187
0.00048684189
0.00048683142
0.00048682023
0.00048680851
0.00048679604
0.00048678301
0.00048676922
0.00048675479
0.00048673966
0.00048672386
0.00048670738
0.00048669024
0.00048667247
0.00048665409
0.00048663515
0.00048661569
0.00048659578
0.00048657547
0.00048655488
0.00048653407
0.00048651316
0.00048649226
0.0004864715
0.00048645101
0.00048643096
0.00048641147
0.00048639272
0.00048637485
0.00048635804
0.00048634243
0.00048632818
0.00048631544
0.00048630432
0.00048629495
0.00048628742
0.0004862818
0.00048627814
0.00048627648
0.00048627679
0.00048627903
0.00048628313
0.00048628899
0.00048629645
0.00048630534
0.00048631544
0.0004863265
0.00048633433
0.00048633295
0.00048633229
0.00048633299
0.00048633497
0.00048633807
0.00048634211
0.00048634685
0.00048635198
0.00048635719
0.00048636207
0.00048636623
0.0004863693
0.00048636525
0.00048634848
0.0004863254
0.00048629853
0.00048626779
0.00048623308
0.00048619428
0.00048615138
0.00048610451
0.00048605418
0.00048600132
0.00048594725
0.00048589368
0.00048584233
0.00048579504
0.00048575342
0.00048571911
0.00048569348
0.00048567844
0.00048567548
0.00048568766
0.0004857168
0.00048576811
0.00048584249
0.00048594871
0.00048608269
0.00048625985
0.00048646191
0.00048671315
0.00048656565
0.00048736009
0.00048695383
0.00048695272
0.00048695168
0.00048695042
0.00048694917
0.00048694771
0.00048694623
0.00048694454
0.0004869428
0.00048694085
0.00048693883
0.00048693657
0.00048693422
0.0004869316
0.00048692888
0.00048692586
0.00048692271
0.00048691922
0.00048691558
0.00048691157
0.00048690737
0.00048690276
0.00048689792
0.00048689264
0.00048688709
0.00048688106
0.0004868747
0.00048686782
0.00048686058
0.00048685276
0.00048684449
0.00048683573
0.00048682633
0.00048681645
0.00048680588
0.00048679478
0.00048678296
0.00048677058
0.00048675743
0.0004867437
0.0004867292
0.00048671404
0.00048669819
0.00048668165
0.00048666444
0.00048664657
0.00048662808
0.00048660901
0.00048658939
0.00048656929
0.00048654877
0.00048652791
0.00048650681
0.00048648556
0.00048646429
0.0004864431
0.00048642215
0.00048640157
0.00048638152
0.00048636215
0.00048634363
0.00048632613
0.0004863098
0.00048629481
0.0004862813
0.00048626942
0.00048625931
0.00048625105
0.00048624476
0.00048624049
0.00048623827
0.00048623813
0.00048624003
0.00048624392
0.00048624971
0.00048625726
0.00048626641
0.00048627697
0.00048628867
0.00048630125
0.0004863016
0.00048629916
0.00048629843
0.00048629941
0.00048630205
0.00048630627
0.00048631194
0.00048631886
0.00048632681
0.00048633549
0.00048634454
0.00048635356
0.00048636217
0.00048635427
0.00048633671
0.00048631595
0.00048629211
0.00048626529
0.00048623554
0.0004862029
0.00048616744
0.0004861294
0.00048608927
0.00048604786
0.00048600627
0.00048596593
0.00048592831
0.00048589495
0.00048586725
0.00048584665
0.00048583431
0.00048583188
0.00048584059
0.00048586299
0.00048590045
0.00048595716
0.00048603355
0.00048613638
0.00048626182
0.00048642064
0.00048659836
0.00048680883
0.00048661822
0.00048735236
0.00048694602
0.00048694488
0.00048694377
0.00048694245
0.00048694113
0.0004869396
0.00048693804
0.00048693627
0.00048693445
0.00048693239
0.00048693027
0.00048692789
0.00048692541
0.00048692266
0.00048691979
0.00048691662
0.00048691329
0.00048690963
0.00048690579
0.00048690158
0.00048689715
0.00048689231
0.00048688722
0.00048688167
0.00048687583
0.0004868695
0.00048686282
0.0004868556
0.000486848
0.0004868398
0.00048683113
0.00048682196
0.00048681212
0.00048680178
0.00048679073
0.00048677914
0.0004867668
0.00048675387
0.00048674018
0.00048672587
0.00048671079
0.00048669504
0.00048667858
0.00048666143
0.00048664361
0.00048662512
0.00048660603
0.00048658635
0.00048656614
0.00048654547
0.00048652441
0.00048650304
0.00048648147
0.0004864598
0.00048643815
0.00048641665
0.00048639544
0.00048637468
0.00048635454
0.00048633516
0.00048631672
0.0004862994
0.00048628336
0.00048626876
0.00048625576
0.00048624451
0.00048623513
0.00048622773
0.0004862224
0.0004862192
0.00048621817
0.0004862193
0.00048622257
0.00048622789
0.00048623517
0.00048624427
0.00048625498
0.00048626711
0.00048628037
0.00048629039
0.00048628584
0.00048628299
0.00048628218
0.00048628343
0.00048628676
0.00048629213
0.00048629946
0.00048630862
0.00048631942
0.00048633161
0.00048634486
0.00048635878
0.00048637295
0.00048636721
0.00048635251
0.00048633519
0.00048631549
0.00048629359
0.00048626962
0.00048624366
0.00048621582
0.00048618628
0.00048615543
0.00048612389
0.00048609253
0.00048606246
0.0004860349
0.00048601114
0.00048599239
0.00048597994
0.0004859749
0.00048597877
0.00048599268
0.00048601883
0.00048605839
0.00048611481
0.00048618836
0.00048628429
0.0004863994
0.00048654115
0.00048669838
0.00048687803
0.00048665459
0.00048734998
0.00048694357
0.0004869424
0.00048694123
0.00048693987
0.00048693849
0.0004869369
0.00048693527
0.00048693343
0.00048693153
0.00048692939
0.00048692717
0.00048692469
0.00048692211
0.00048691924
0.00048691625
0.00048691293
0.00048690947
0.00048690565
0.00048690164
0.00048689725
0.00048689262
0.00048688758
0.00048688227
0.00048687649
0.0004868704
0.0004868638
0.00048685684
0.00048684932
0.00048684141
0.00048683288
0.00048682385
0.00048681431
0.00048680408
0.00048679333
0.00048678185
0.00048676981
0.00048675701
0.00048674361
0.00048672941
0.00048671459
0.00048669897
0.00048668268
0.00048666566
0.00048664795
0.00048662954
0.00048661048
0.0004865908
0.00048657055
0.00048654977
0.00048652854
0.00048650694
0.00048648504
0.00048646298
0.00048644084
0.00048641877
0.00048639689
0.00048637537
0.00048635435
0.00048633401
0.00048631452
0.00048629606
0.00048627879
0.00048626291
0.00048624857
0.00048623594
0.00048622518
0.0004862164
0.00048620973
0.00048620524
0.00048620301
0.00048620305
0.00048620538
0.00048620994
0.00048621665
0.0004862254
0.00048623603
0.00048624833
0.00048626208
0.00048627698
0.00048627987
0.0004862743
0.00048627099
0.00048627002
0.00048627147
0.00048627539
0.00048628178
0.00048629061
0.00048630179
0.00048631516
0.00048633051
0.00048634751
0.00048636579
0.00048638491
0.00048638947
0.00048637781
0.00048636402
0.00048634839
0.00048633117
0.00048631253
0.00048629258
0.00048627143
0.00048624921
0.00048622621
0.00048620288
0.00048617986
0.00048615803
0.00048613837
0.00048612198
0.00048610994
0.00048610345
0.00048610356
0.00048611168
0.00048612892
0.00048615721
0.00048619758
0.00048625282
0.00048632303
0.00048641209
0.00048651713
0.00048664292
0.00048678074
0.00048693351
0.00048668219
0.00048734896
0.0004869425
0.0004869413
0.00048694008
0.00048693868
0.00048693724
0.0004869356
0.00048693392
0.00048693201
0.00048693004
0.00048692782
0.00048692552
0.00048692295
0.00048692027
0.0004869173
0.00048691419
0.00048691075
0.00048690715
0.00048690319
0.00048689903
0.00048689447
0.00048688967
0.00048688444
0.00048687892
0.00048687293
0.00048686661
0.00048685976
0.00048685255
0.00048684476
0.00048683654
0.00048682771
0.00048681835
0.00048680846
0.00048679787
0.00048678674
0.00048677486
0.0004867624
0.00048674916
0.00048673529
0.00048672062
0.0004867053
0.00048668917
0.00048667235
0.00048665479
0.00048663652
0.00048661755
0.0004865979
0.00048657765
0.0004865568
0.00048653544
0.00048651363
0.00048649145
0.000486469
0.0004864464
0.00048642375
0.00048640119
0.00048637887
0.00048635695
0.00048633559
0.00048631497
0.00048629527
0.00048627668
0.00048625938
0.00048624355
0.00048622937
0.00048621701
0.00048620665
0.00048619839
0.00048619236
0.00048618866
0.00048618734
0.00048618843
0.00048619193
0.00048619778
0.0004862059
0.00048621616
0.00048622838
0.00048624235
0.00048625782
0.00048627449
0.00048626934
0.00048626295
0.00048625907
0.00048625786
0.00048625941
0.00048626379
0.00048627104
0.00048628116
0.00048629409
0.00048630969
0.00048632776
0.000486348
0.00048637003
0.0004863934
0.00048641242
0.00048640695
0.0004863965
0.00048638462
0.00048637159
0.00048635761
0.00048634281
0.00048632727
0.00048631109
0.00048629446
0.00048627769
0.00048626125
0.00048624583
0.00048623221
0.00048622136
0.00048621424
0.00048621196
0.00048621554
0.00048622631
0.00048624533
0.0004862743
0.00048631414
0.0004863671
0.00048643323
0.00048651536
0.00048661109
0.00048672331
0.00048684518
0.00048697702
0.00048670351
0.00048734829
0.00048694177
0.00048694055
0.00048693929
0.00048693784
0.00048693636
0.00048693467
0.00048693293
0.00048693096
0.00048692893
0.00048692664
0.00048692426
0.00048692161
0.00048691884
0.00048691577
0.00048691255
0.000486909
0.00048690527
0.00048690118
0.00048689687
0.00048689216
0.0004868872
0.00048688179
0.00048687609
0.00048686989
0.00048686335
0.00048685628
0.00048684881
0.00048684076
0.00048683227
0.00048682314
0.00048681347
0.00048680325
0.00048679231
0.00048678081
0.00048676854
0.00048675567
0.000486742
0.00048672769
0.00048671254
0.00048669674
0.0004866801
0.00048666275
0.00048664465
0.00048662581
0.00048660627
0.00048658604
0.00048656518
0.00048654373
0.00048652175
0.00048649932
0.00048647654
0.00048645348
0.00048643029
0.00048640706
0.00048638396
0.00048636113
0.00048633874
0.00048631696
0.00048629598
0.00048627599
0.00048625718
0.00048623975
0.00048622389
0.0004862098
0.00048619764
0.00048618759
0.0004861798
0.00048617437
0.00048617141
0.00048617098
0.00048617311
0.0004861778
0.00048618497
0.00048619455
0.00048620638
0.00048622029
0.00048623604
0.00048625337
0.00048626798
0.00048625804
0.00048625073
0.00048624622
0.00048624466
0.00048624618
0.00048625089
0.00048625884
0.00048627004
0.00048628445
0.00048630194
0.00048632233
0.00048634531
0.0004863705
0.00048639744
0.00048642561
0.00048643786
0.00048643038
0.00048642175
0.00048641227
0.00048640217
0.00048639161
0.00048638067
0.0004863694
0.00048635795
0.00048634652
0.00048633546
0.0004863253
0.0004863167
0.00048631047
0.00048630751
0.00048630882
0.00048631537
0.00048632841
0.0004863489
0.00048637833
0.00048641749
0.00048646814
0.00048653021
0.00048660567
0.00048669242
0.00048679198
0.00048689904
0.00048701263
0.00048672048
0.00048734771
0.00048694115
0.0004869399
0.0004869386
0.00048693712
0.00048693559
0.00048693386
0.00048693207
0.00048693005
0.00048692795
0.0004869256
0.00048692315
0.00048692042
0.00048691757
0.0004869144
0.00048691109
0.00048690743
0.00048690359
0.00048689937
0.00048689493
0.00048689008
0.00048688496
0.00048687938
0.0004868735
0.00048686711
0.00048686037
0.00048685308
0.00048684538
0.00048683708
0.00048682832
0.0004868189
0.00048680894
0.0004867984
0.00048678712
0.00048677526
0.00048676262
0.00048674935
0.00048673526
0.00048672051
0.0004867049
0.00048668861
0.00048667147
0.00048665359
0.00048663494
0.00048661553
0.0004865954
0.00048657456
0.00048655308
0.000486531
0.00048650837
0.0004864853
0.00048646185
0.00048643814
0.0004864143
0.00048639045
0.00048636673
0.00048634331
0.00048632037
0.00048629808
0.00048627666
0.00048625628
0.00048623717
0.00048621952
0.00048620355
0.00048618945
0.00048617741
0.00048616763
0.00048616023
0.00048615536
0.00048615311
0.00048615356
0.00048615672
0.00048616261
0.00048617115
0.00048618224
0.00048619573
0.00048621143
0.00048622907
0.00048624839
0.00048625679
0.0004862456
0.00048623727
0.00048623202
0.00048623002
0.00048623141
0.00048623632
0.00048624482
0.00048625693
0.0004862726
0.00048629173
0.00048631412
0.00048633947
0.00048636737
0.00048639736
0.00048642889
0.00048645866
0.00048646545
0.00048645968
0.00048645325
0.00048644642
0.00048643937
0.00048643216
0.00048642486
0.00048641755
0.00048641036
0.00048640354
0.00048639753
0.00048639285
0.00048639022
0.00048639044
0.00048639443
0.00048640311
0.0004864176
0.00048643881
0.00048646802
0.00048650589
0.00048655384
0.00048661175
0.00048668096
0.00048675966
0.00048684849
0.00048694321
0.00048704204
0.00048673447
0.00048734717
0.00048694058
0.00048693932
0.00048693797
0.00048693647
0.0004869349
0.00048693313
0.00048693129
0.00048692922
0.00048692707
0.00048692465
0.00048692214
0.00048691934
0.00048691641
0.00048691316
0.00048690975
0.000486906
0.00048690205
0.00048689771
0.00048689315
0.00048688816
0.0004868829
0.00048687716
0.00048687111
0.00048686454
0.00048685761
0.00048685011
0.00048684219
0.00048683365
0.00048682464
0.00048681495
0.0004868047
0.00048679385
0.00048678224
0.00048677004
0.00048675703
0.00048674337
0.00048672886
0.00048671368
0.00048669761
0.00048668084
0.00048666319
0.00048664478
0.00048662557
0.00048660559
0.00048658485
0.00048656339
0.00048654127
0.00048651852
0.00048649522
0.00048647144
0.0004864473
0.00048642288
0.00048639833
0.00048637378
0.00048634938
0.0004863253
0.00048630173
0.00048627885
0.00048625689
0.00048623604
0.00048621653
0.00048619858
0.0004861824
0.00048616822
0.00048615623
0.00048614663
0.00048613957
0.00048613521
0.00048613365
0.00048613496
0.00048613917
0.00048614629
0.00048615624
0.00048616891
0.00048618415
0.00048620173
0.0004862214
0.00048624285
0.00048624445
0.0004862319
0.00048622246
0.00048621636
0.00048621382
0.00048621498
0.00048621998
0.0004862289
0.00048624176
0.00048625852
0.00048627907
0.0004863032
0.00048633059
0.00048636085
0.00048639347
0.00048642788
0.00048646349
0.00048649217
0.00048649807
0.00048649422
0.00048649012
0.00048648594
0.00048648178
0.0004864777
0.00048647375
0.00048647001
0.00048646668
0.00048646408
0.00048646268
0.00048646307
0.00048646598
0.00048647224
0.0004864827
0.00048649836
0.00048652004
0.00048654883
0.00048658528
0.00048663046
0.00048668421
0.00048674735
0.00048681834
0.00048689721
0.00048698062
0.00048706656
0.00048674599
0.00048734668
0.00048694006
0.00048693878
0.0004869374
0.00048693587
0.00048693427
0.00048693246
0.00048693058
0.00048692846
0.00048692626
0.0004869238
0.00048692122
0.00048691835
0.00048691535
0.00048691203
0.00048690854
0.00048690469
0.00048690065
0.0004868962
0.00048689152
0.0004868864
0.00048688101
0.00048687513
0.00048686892
0.00048686218
0.00048685507
0.00048684737
0.00048683924
0.00048683047
0.00048682122
0.00048681127
0.00048680074
0.0004867896
0.00048677768
0.00048676514
0.00048675177
0.00048673773
0.00048672282
0.00048670721
0.00048669069
0.00048667343
0.00048665528
0.00048663633
0.00048661656
0.00048659599
0.00048657464
0.00048655253
0.00048652974
0.00048650629
0.00048648228
0.00048645777
0.00048643288
0.0004864077
0.00048638238
0.00048635706
0.0004863319
0.00048630708
0.00048628279
0.00048625923
0.00048623663
0.00048621521
0.0004861952
0.00048617685
0.00048616037
0.00048614601
0.00048613398
0.0004861245
0.00048611772
0.00048611382
0.00048611291
0.00048611507
0.00048612033
0.0004861287
0.00048614011
0.00048615443
0.00048617151
0.0004861911
0.00048621293
0.00048623668
0.00048623083
0.00048621679
0.00048620613
0.0004861991
0.00048619591
0.00048619674
0.00048620173
0.00048621097
0.00048622447
0.00048624219
0.00048626399
0.00048628968
0.00048631891
0.00048635126
0.00048638622
0.00048642319
0.00048646154
0.00048650063
0.0004865291
0.00048653555
0.00048653372
0.00048653191
0.00048653021
0.00048652869
0.00048652738
0.00048652635
0.00048652572
0.00048652577
0.00048652687
0.00048652955
0.00048653445
0.00048654232
0.00048655394
0.00048657019
0.00048659183
0.00048661976
0.00048665447
0.00048669677
0.00048674647
0.00048680405
0.00048686819
0.00048693851
0.00048701233
0.0004870875
0.00048675585
0.00048734623
0.00048693958
0.00048693829
0.00048693689
0.00048693533
0.0004869337
0.00048693186
0.00048692994
0.00048692779
0.00048692554
0.00048692302
0.0004869204
0.00048691747
0.00048691441
0.00048691101
0.00048690745
0.00048690351
0.00048689938
0.00048689484
0.00048689005
0.00048688482
0.00048687929
0.00048687328
0.00048686692
0.00048686003
0.00048685274
0.00048684486
0.00048683653
0.00048682755
0.00048681807
0.00048680788
0.00048679708
0.00048678566
0.00048677343
0.00048676057
0.00048674685
0.00048673244
0.00048671713
0.00048670109
0.00048668412
0.00048666639
0.00048664773
0.00048662825
0.00048660791
0.00048658673
0.00048656475
0.00048654198
0.00048651849
0.00048649432
0.00048646955
0.00048644427
0.00048641857
0.00048639257
0.00048636643
0.00048634027
0.00048631427
0.00048628862
0.00048626352
0.00048623918
0.00048621585
0.00048619376
0.00048617315
0.00048615429
0.00048613742
0.00048612279
0.00048611063
0.00048610118
0.00048609462
0.00048609112
0.00048609082
0.00048609382
0.00048610013
0.00048610979
0.0004861227
0.00048613876
0.00048615777
0.0004861795
0.00048620364
0.00048622984
0.00048621585
0.00048620021
0.00048618821
0.00048618012
0.00048617619
0.0004861766
0.00048618149
0.00048619095
0.000486205
0.00048622356
0.00048624651
0.0004862736
0.0004863045
0.00048633875
0.00048637583
0.0004864151
0.0004864559
0.00048649757
0.00048653951
0.00048656876
0.00048657716
0.00048657727
0.00048657755
0.00048657808
0.00048657888
0.00048658001
0.00048658155
0.00048658372
0.00048658683
0.00048659135
0.00048659784
0.00048660696
0.00048661942
0.000486636
0.00048665735
0.00048668425
0.00048671708
0.00048675645
0.00048680214
0.00048685438
0.000486912
0.00048697445
0.00048703954
0.00048710527
0.00048676418
0.00048734583
0.00048693915
0.00048693785
0.00048693642
0.00048693485
0.00048693319
0.00048693132
0.00048692937
0.00048692718
0.0004869249
0.00048692234
0.00048691967
0.00048691669
0.00048691357
0.00048691011
0.00048690647
0.00048690247
0.00048689825
0.00048689362
0.00048688873
0.0004868834
0.00048687776
0.00048687162
0.00048686513
0.00048685809
0.00048685064
0.00048684259
0.00048683407
0.00048682489
0.0004868152
0.00048680477
0.00048679372
0.00048678203
0.00048676951
0.00048675633
0.00048674228
0.0004867275
0.00048671181
0.00048669536
0.00048667794
0.00048665973
0.00048664056
0.00048662054
0.00048659962
0.00048657784
0.0004865552
0.00048653175
0.00048650754
0.00048648262
0.00048645706
0.00048643095
0.0004864044
0.00048637752
0.00048635047
0.0004863234
0.00048629648
0.00048626991
0.0004862439
0.00048621868
0.00048619452
0.00048617164
0.00048615032
0.00048613084
0.00048611346
0.00048609845
0.00048608607
0.00048607657
0.00048607015
0.000486067
0.00048606728
0.00048607108
0.00048607846
0.00048608943
0.0004861039
0.00048612177
0.00048614283
0.00048616682
0.00048619342
0.00048621952
0.0004861994
0.000486182
0.00048616854
0.00048615928
0.00048615451
0.00048615441
0.00048615914
0.00048616875
0.00048618327
0.00048620262
0.00048622663
0.00048625505
0.00048628752
0.00048632355
0.0004863626
0.00048640401
0.00048644709
0.00048649112
0.00048653549
0.00048657961
0.00048661072
0.00048662233
0.00048662415
0.00048662624
0.00048662864
0.00048663137
0.00048663451
0.00048663822
0.00048664278
0.00048664858
0.00048665613
0.00048666601
0.00048667884
0.00048669534
0.00048671606