/*--------------------------------*- C++ -*----------------------------------*\
| =========                 |                                                 |
| \\      /  F ield         | foam-extend: Open Source CFD                    |
|  \\    /   O peration     | Version:     4.1                                |
|   \\  /    A nd           | Web:         http://www.foam-extend.org         |
|    \\/     M anipulation  |                                                 |
\*---------------------------------------------------------------------------*/
FoamFile
{
    version     2.0;
    format      ascii;
    class       volVectorField;
    location    "0.6";
    object      U;
}
// * * * * * * * * * * * * * * * * * * * * * * * * * * * * * * * * * * * * * //

dimensions      [0 1 -1 0 0 0 0];

internalField   nonuniform List<vector> 
16126
(
(0.19974174 -1.0607055e-05 0)
(0.1997962 2.4174834e-07 0)
(0.19977007 -5.0569228e-07 0)
(0.19980838 2.8323244e-07 0)
(0.19979012 1.3285791e-06 0)
(0.19981306 9.5954005e-07 0)
(0.19980275 2.0682174e-06 0)
(0.1998153 1.8086009e-06 0)
(0.19980961 2.658161e-06 0)
(0.19981579 2.6296845e-06 0)
(0.19981226 3.2661577e-06 0)
(0.19981461 3.3857466e-06 0)
(0.1998119 3.9022509e-06 0)
(0.19981192 4.1751307e-06 0)
(0.19980927 4.6566927e-06 0)
(0.19980782 5.0332053e-06 0)
(0.19980495 5.5172981e-06 0)
(0.19980259 5.9593013e-06 0)
(0.19979951 6.4603409e-06 0)
(0.19979671 6.9470359e-06 0)
(0.19979364 7.4667154e-06 0)
(0.19979088 7.9812684e-06 0)
(0.19978823 8.5105872e-06 0)
(0.19978609 9.0332552e-06 0)
(0.19978446 9.5555e-06 0)
(0.19978369 1.0074482e-05 0)
(0.19978392 1.0613671e-05 0)
(0.19978543 1.1165275e-05 0)
(0.19978847 1.1717116e-05 0)
(0.19979341 1.2259776e-05 0)
(0.1998006 1.2787238e-05 0)
(0.19981051 1.328966e-05 0)
(0.19982362 1.3759014e-05 0)
(0.1998405 1.4183176e-05 0)
(0.19986178 1.4550374e-05 0)
(0.19988819 1.4845807e-05 0)
(0.19992053 1.5053804e-05 0)
(0.1999597 1.515599e-05 0)
(0.20000671 1.5132688e-05 0)
(0.20006266 1.4961598e-05 0)
(0.20012879 1.4618863e-05 0)
(0.20020644 1.4078666e-05 0)
(0.20029707 1.3312804e-05 0)
(0.20040227 1.2292481e-05 0)
(0.20052376 1.0986795e-05 0)
(0.20066337 9.364508e-06 0)
(0.20082304 7.3937782e-06 0)
(0.20100481 5.0433394e-06 0)
(0.2012108 2.2831017e-06 0)
(0.20144319 -9.1505536e-07 0)
(0.20170419 -4.5759041e-06 0)
(0.20199601 -8.7198236e-06 0)
(0.20232081 -1.3361627e-05 0)
(0.20268064 -1.8508835e-05 0)
(0.20307744 -2.4160454e-05 0)
(0.20351289 -3.0305761e-05 0)
(0.20398845 -3.6922627e-05 0)
(0.20450517 -4.3976473e-05 0)
(0.20506374 -5.1419519e-05 0)
(0.20566433 -5.9189594e-05 0)
(0.20630655 -6.7210039e-05 0)
(0.20698942 -7.5390007e-05 0)
(0.20771124 -8.3624483e-05 0)
(0.20846964 -9.1795683e-05 0)
(0.20926147 -9.9774291e-05 0)
(0.21008284 -0.00010742211 0)
(0.2109291 -0.000114594 0)
(0.21179489 -0.00012114155 0)
(0.21267416 -0.00012691681 0)
(0.21356028 -0.00013177624 0)
(0.2144461 -0.00013558473 0)
(0.21532406 -0.00013822108 0)
(0.21618638 -0.00013958068 0)
(0.21702513 -0.00013958141 0)
(0.21783244 -0.00013816491 0)
(0.21860066 -0.00013530179 0)
(0.21932249 -0.00013098818 0)
(0.2199912 -0.00012525096 0)
(0.22060075 -0.00011813318 0)
(0.22114588 -0.00010969876 0)
(0.22162231 -9.9988231e-05 0)
(0.22202666 -8.9044984e-05 0)
(0.22235665 -7.6752743e-05 0)
(0.22261084 -6.3050477e-05 0)
(0.22278923 -4.7703875e-05 0)
(0.22289493 -2.8432121e-05 0)
(0.22293222 -2.1366528e-05 0)
(0.22291423 -2.2799355e-05 0)
(0.22282772 -1.4945741e-05 0)
(0.22266499 -2.8004183e-06 0)
(0.22242347 1.1671946e-05 0)
(0.22210164 2.7345407e-05 0)
(0.22169799 4.3977528e-05 0)
(0.22120953 6.1454395e-05 0)
(0.22063203 7.9723264e-05 0)
(0.21996015 9.8648808e-05 0)
(0.21918976 0.000117923 0)
(0.2183213 0.00013747327 0)
(0.21736609 0.00015743047 0)
(0.21635312 0.00018012984 0)
(0.21533713 0.00021109569 0)
(0.21440197 0.00028449123 0)
(0.2137001 0.00043583553 0)
(0.21341478 0.00048438529 0)
(0.2139619 0.00037038441 0)
(0.21553759 0.00024846702 0)
(0.21831114 0.00014209427 0)
(0.22243176 1.8685724e-05 0)
(0.2281575 -0.00016306258 0)
(0.23571619 -0.00046949444 0)
(0.24558447 -0.00096630942 0)
(0.2581453 -0.0017655871 0)
(0.27428739 -0.0029625256 0)
(0.2945666 -0.004724298 0)
(0.32049322 -0.0071396306 0)
(0.35253812 -0.010418716 0)
(0.39306282 -0.014557775 0)
(0.44160649 -0.019819749 0)
(0.50198381 -0.025922384 0)
(0.57055824 -0.033341408 0)
(0.65513307 -0.040669261 0)
(0.74113348 -0.049830547 0)
(0.85370965 -0.051303901 0)
(0.92415872 -0.062797919 0)
(0.5486281 -3.3850651e-05 0)
(0.54869639 -1.2388424e-05 0)
(0.54869844 -1.2956955e-05 0)
(0.54874794 -9.6885647e-06 0)
(0.54875784 -7.4528354e-06 0)
(0.54879562 -7.2292652e-06 0)
(0.54881204 -5.1537965e-06 0)
(0.54884395 -5.2611749e-06 0)
(0.54886515 -3.8065005e-06 0)
(0.54889503 -3.821315e-06 0)
(0.54892013 -2.8925671e-06 0)
(0.5489505 -2.850678e-06 0)
(0.54897937 -2.3062857e-06 0)
(0.54901206 -2.2689564e-06 0)
(0.54904526 -2.01401e-06 0)
(0.54908184 -2.0682999e-06 0)
(0.54912029 -2.0690382e-06 0)
(0.54916224 -2.2896328e-06 0)
(0.54920715 -2.5555993e-06 0)
(0.54925604 -3.0136154e-06 0)
(0.54930888 -3.5880185e-06 0)
(0.54936645 -4.3649053e-06 0)
(0.54942903 -5.3225112e-06 0)
(0.54949729 -6.5206269e-06 0)
(0.54957173 -7.9691023e-06 0)
(0.54965305 -9.7167725e-06 0)
(0.54974192 -1.1781172e-05 0)
(0.54983918 -1.4211288e-05 0)
(0.54994569 -1.7056028e-05 0)
(0.5500624 -2.0374405e-05 0)
(0.55019034 -2.4225181e-05 0)
(0.55033066 -2.8679133e-05 0)
(0.55048458 -3.380863e-05 0)
(0.55065345 -3.969847e-05 0)
(0.55083875 -4.643752e-05 0)
(0.55104208 -5.4125e-05 0)
(0.55126517 -6.2866074e-05 0)
(0.5515099 -7.2775016e-05 0)
(0.55177828 -8.3971814e-05 0)
(0.55207251 -9.6583869e-05 0)
(0.55239489 -0.00011074277 0)
(0.5527479 -0.00012658359 0)
(0.55313416 -0.00014424371 0)
(0.55355644 -0.00016385727 0)
(0.55401759 -0.00018555517 0)
(0.5545206 -0.00020945854 0)
(0.55506853 -0.00023567555 0)
(0.55566446 -0.00026429499 0)
(0.55631149 -0.00029538058 0)
(0.55701265 -0.00032896441 0)
(0.55777086 -0.00036503917 0)
(0.55858887 -0.00040355083 0)
(0.55946914 -0.00044439105 0)
(0.56041379 -0.00048738916 0)
(0.56142447 -0.00053230548 0)
(0.5625023 -0.00057882569 0)
(0.56364771 -0.00062655575 0)
(0.56486037 -0.00067501972 0)
(0.56613906 -0.0007236599 0)
(0.5674816 -0.00077183904 0)
(0.56888473 -0.00081884659 0)
(0.57034405 -0.00086390858 0)
(0.57185398 -0.00090619946 0)
(0.57340773 -0.0009448591 0)
(0.57499728 -0.00097901113 0)
(0.57661348 -0.0010077859 0)
(0.57824604 -0.0010303429 0)
(0.57988371 -0.0010458973 0)
(0.58151437 -0.0010537448 0)
(0.58312524 -0.0010532879 0)
(0.58470308 -0.0010440584 0)
(0.58623443 -0.0010257409 0)
(0.58770584 -0.00099818783 0)
(0.5891042 -0.00096143658 0)
(0.59041696 -0.0009157138 0)
(0.59163241 -0.0008614451 0)
(0.59274002 -0.00079924326 0)
(0.5937306 -0.00072991129 0)
(0.59459661 -0.00065440888 0)
(0.59533232 -0.00057384597 0)
(0.595934 -0.00048943133 0)
(0.59640002 -0.00040245511 0)
(0.596731 -0.00031435562 0)
(0.59692976 -0.00022669471 0)
(0.59700241 -0.00014265248 0)
(0.59695387 -6.8119643e-05 0)
(0.59678922 7.3559087e-06 0)
(0.59647834 9.2015188e-05 0)
(0.59603987 0.00018099112 0)
(0.59548273 0.00027256231 0)
(0.59481586 0.00036450975 0)
(0.59404567 0.00045727834 0)
(0.59317747 0.00055209925 0)
(0.59221504 0.00065090955 0)
(0.59116211 0.00075539169 0)
(0.59002515 0.00086560843 0)
(0.58881929 0.00097811868 0)
(0.58757745 0.0010826027 0)
(0.58636408 0.0011599098 0)
(0.58529214 0.0011784818 0)
(0.58455465 0.0010968764 0)
(0.58442968 0.00081238286 0)
(0.58529988 0.0002193145 0)
(0.58752076 -0.00066193628 0)
(0.59113563 -0.0017890151 0)
(0.59651729 -0.0031559113 0)
(0.60401765 -0.0047529954 0)
(0.6139095 -0.0066013908 0)
(0.62643299 -0.008722093 0)
(0.64171522 -0.011177648 0)
(0.65992762 -0.014030753 0)
(0.68107306 -0.017405186 0)
(0.70531405 -0.021379961 0)
(0.73245966 -0.026110912 0)
(0.7626911 -0.031595828 0)
(0.79536082 -0.037966544 0)
(0.83071045 -0.044970797 0)
(0.86699199 -0.052716701 0)
(0.90480373 -0.060382337 0)
(0.93974018 -0.068359749 0)
(0.97412148 -0.074091671 0)
(0.99701396 -0.080325745 0)
(1.0166459 -0.074719738 0)
(1.0120398 -0.080145209 0)
(0.79052093 -6.4254864e-05 0)
(0.79060468 -3.9585515e-05 0)
(0.79062879 -4.0103473e-05 0)
(0.79069566 -3.5279014e-05 0)
(0.79073247 -3.3329007e-05 0)
(0.79079259 -3.3000737e-05 0)
(0.79083864 -3.1651147e-05 0)
(0.79089823 -3.2469046e-05 0)
(0.79095243 -3.2159185e-05 0)
(0.79101548 -3.3454228e-05 0)
(0.79107801 -3.410352e-05 0)
(0.79114743 -3.5829828e-05 0)
(0.79121926 -3.7342271e-05 0)
(0.79129747 -3.9622744e-05 0)
(0.79138012 -4.196951e-05 0)
(0.79146947 -4.4926358e-05 0)
(0.79156488 -4.8140361e-05 0)
(0.79166781 -5.1914585e-05 0)
(0.7917783 -5.6091091e-05 0)
(0.79189748 -6.0849371e-05 0)
(0.79202579 -6.613866e-05 0)
(0.79216422 -7.2080685e-05 0)
(0.79231348 -7.8685821e-05 0)
(0.79247459 -8.6053886e-05 0)
(0.79264843 -9.4233728e-05 0)
(0.79283612 -0.00010332565 0)
(0.79303873 -0.00011341489 0)
(0.79325748 -0.00012460903 0)
(0.79349365 -0.00013700836 0)
(0.7937486 -0.00015073631 0)
(0.79402381 -0.0001659208 0)
(0.79432081 -0.00018270725 0)
(0.79464129 -0.00020124681 0)
(0.794987 -0.00022170818 0)
(0.79535981 -0.00024426764 0)
(0.79576171 -0.00026911593 0)
(0.79619478 -0.00029645209 0)
(0.79666122 -0.00032648657 0)
(0.79716334 -0.0003594356 0)
(0.79770353 -0.00039552201 0)
(0.7982843 -0.00043496928 0)
(0.79890819 -0.00047799866 0)
(0.79957786 -0.00052482483 0)
(0.80029595 -0.00057564656 0)
(0.80106517 -0.00063064292 0)
(0.80188815 -0.00068996162 0)
(0.80276752 -0.00075371085 0)
(0.80370575 -0.00082194685 0)
(0.80470518 -0.00089466213 0)
(0.80576792 -0.00097177239 0)
(0.80689577 -0.0010531021 0)
(0.80809017 -0.0011383709 0)
(0.8093521 -0.0012271797 0)
(0.81068199 -0.0013189979 0)
(0.81207962 -0.0014131525 0)
(0.81354404 -0.0015088203 0)
(0.81507345 -0.0016050229 0)
(0.81666513 -0.0017006268 0)
(0.81831535 -0.0017943493 0)
(0.82001929 -0.0018847693 0)
(0.821771 -0.0019703454 0)
(0.82356336 -0.0020494419 0)
(0.82538807 -0.0021203585 0)
(0.82723567 -0.0021813693 0)
(0.82909558 -0.0022307641 0)
(0.83095623 -0.0022668971 0)
(0.83280512 -0.0022882349 0)
(0.83462902 -0.0022934085 0)
(0.83641413 -0.0022812626 0)
(0.83814632 -0.0022509044 0)
(0.83981135 -0.002201744 0)
(0.84139516 -0.0021335344 0)
(0.84288412 -0.0020463944 0)
(0.84426535 -0.0019408331 0)
(0.84552695 -0.0018177505 0)
(0.84665835 -0.0016784449 0)
(0.84765048 -0.0015245849 0)
(0.84849608 -0.0013582005 0)
(0.84918988 -0.0011816202 0)
(0.84972875 -0.00099744554 0)
(0.85011187 -0.00080844298 0)
(0.85034069 -0.00061754188 0)
(0.85041906 -0.00042759404 0)
(0.85035253 -0.00024219113 0)
(0.85014819 -6.3088663e-05 0)
(0.84980762 0.00011519422 0)
(0.84932444 0.00029752008 0)
(0.84873608 0.00047733639 0)
(0.84806082 0.00064892784 0)
(0.84732249 0.00081264156 0)
(0.84654122 0.00096858962 0)
(0.84573795 0.0011178847 0)
(0.84493393 0.0012620863 0)
(0.84415209 0.0014020742 0)
(0.84341899 0.0015359848 0)
(0.84276841 0.001656027 0)
(0.84224619 0.0017441791 0)
(0.84191763 0.0017676865 0)
(0.84187449 0.0016731594 0)
(0.84224305 0.0013790373 0)
(0.84316168 0.00077383048 0)
(0.84481916 -0.00022004579 0)
(0.8472523 -0.0016124724 0)
(0.8505745 -0.0033905351 0)
(0.85506961 -0.0056116713 0)
(0.86093034 -0.0083105018 0)
(0.86836402 -0.011414656 0)
(0.87748193 -0.014871384 0)
(0.88835207 -0.018638281 0)
(0.90092764 -0.022719973 0)
(0.91514098 -0.027124441 0)
(0.93076205 -0.031922179 0)
(0.94760599 -0.037135451 0)
(0.96520364 -0.042858128 0)
(0.98328052 -0.049007509 0)
(1.0009785 -0.055620911 0)
(1.0180245 -0.062295801 0)
(1.0328316 -0.068979791 0)
(1.0454933 -0.074524763 0)
(1.0529256 -0.079046217 0)
(1.0567512 -0.079324994 0)
(1.0508349 -0.07735566 0)
(1.0403792 -0.062487238 0)
(1.0190233 -0.047360991 0)
(0.9266526 -9.9045235e-05 0)
(0.92675143 -7.6857416e-05 0)
(0.92679079 -7.9135241e-05 0)
(0.92687544 -7.4882271e-05 0)
(0.9269338 -7.4969288e-05 0)
(0.92701594 -7.59776e-05 0)
(0.92708769 -7.7063342e-05 0)
(0.92717386 -8.0095215e-05 0)
(0.92725793 -8.2726016e-05 0)
(0.92735245 -8.7029956e-05 0)
(0.92744957 -9.1229702e-05 0)
(0.92755583 -9.6747044e-05 0)
(0.92766768 -0.00010250952 0)
(0.92778871 -0.0001093711 0)
(0.92791759 -0.00011676022 0)
(0.92805648 -0.0001251708 0)
(0.92820516 -0.000134333 0)
(0.92836518 -0.00014454172 0)
(0.92853693 -0.00015569857 0)
(0.92872169 -0.00016799909 0)
(0.92892022 -0.00018144293 0)
(0.92913373 -0.00019618255 0)
(0.92936323 -0.00021227711 0)
(0.92961 -0.00022986663 0)
(0.92987522 -0.00024905041 0)
(0.93016026 -0.00026997105 0)
(0.9304665 -0.00029275794 0)
(0.93079541 -0.00031757055 0)
(0.93114855 -0.0003445681 0)
(0.93152754 -0.00037392999 0)
(0.9319341 -0.00040584182 0)
(0.93237001 -0.00044050677 0)
(0.93283713 -0.00047813468 0)
(0.93333739 -0.00051895223 0)
(0.93387281 -0.00056319253 0)
(0.93444546 -0.00061110111 0)
(0.93505745 -0.00066292821 0)
(0.93571097 -0.0007189308 0)
(0.93640821 -0.00077936479 0)
(0.93715141 -0.00084448436 0)
(0.93794279 -0.0009145331 0)
(0.93878454 -0.00098973924 0)
(0.93967881 -0.0010703074 0)
(0.94062768 -0.0011564069 0)
(0.94163308 -0.0012481639 0)
(0.94269681 -0.001345646 0)
(0.94382044 -0.0014488497 0)
(0.9450053 -0.0015576842 0)
(0.94625238 -0.0016719555 0)
(0.94756232 -0.0017913485 0)
(0.94893527 -0.0019154094 0)
(0.95037091 -0.0020435289 0)
(0.95186829 -0.0021749253 0)
(0.95342581 -0.0023086309 0)
(0.95504114 -0.0024434807 0)
(0.95671113 -0.0025781064 0)
(0.95843176 -0.0027109349 0)
(0.96019809 -0.0028401941 0)
(0.9620042 -0.0029639268 0)
(0.96384318 -0.0030800126 0)
(0.96570712 -0.0031861984 0)
(0.9675871 -0.0032801397 0)
(0.96947325 -0.003359448 0)
(0.97135481 -0.0034217484 0)
(0.97322021 -0.0034647414 0)
(0.9750572 -0.0034862716 0)
(0.97685298 -0.0034843964 0)
(0.97859441 -0.0034574581 0)
(0.98026817 -0.0034041494 0)
(0.98186101 -0.0033235793 0)
(0.98335996 -0.0032153234 0)
(0.98475264 -0.0030794739 0)
(0.98602745 -0.0029166645 0)
(0.98717385 -0.0027280961 0)
(0.98818267 -0.002515529 0)
(0.98904628 -0.0022812836 0)
(0.98975885 -0.0020281942 0)
(0.99031658 -0.0017595866 0)
(0.99071785 -0.0014791864 0)
(0.99096342 -0.0011910747 0)
(0.99105652 -0.00089952867 0)
(0.99100303 -0.00060894642 0)
(0.99081106 -0.00032357579 0)
(0.99049226 -4.7145702e-05 0)
(0.99005605 0.00022124715 0)
(0.98951713 0.00048108103 0)
(0.98891537 0.00072083436 0)
(0.98828109 0.00093461684 0)
(0.98764563 0.0011238211 0)
(0.9870408 0.0012865911 0)
(0.98650111 0.00142225 0)
(0.98606172 0.0015306256 0)
(0.98575896 0.0016116059 0)
(0.98562984 0.0016635897 0)
(0.98571241 0.0016810838 0)
(0.98604603 0.0016512276 0)
(0.98667206 0.0015498165 0)
(0.98763298 0.0013353076 0)
(0.98896786 0.00094795324 0)
(0.99070829 0.00032184213 0)
(0.99286481 -0.0006130832 0)
(0.9953764 -0.001908517 0)
(0.99830589 -0.0036334855 0)
(1.0017413 -0.0058959115 0)
(1.0057744 -0.008719789 0)
(1.010435 -0.012056281 0)
(1.015748 -0.015837029 0)
(1.0217197 -0.019986294 0)
(1.0283312 -0.024426621 0)
(1.0354862 -0.029116274 0)
(1.043065 -0.034015349 0)
(1.0508176 -0.039137533 0)
(1.0585114 -0.044449237 0)
(1.065691 -0.049972871 0)
(1.0720411 -0.055561365 0)
(1.0768233 -0.061169427 0)
(1.0797764 -0.066345771 0)
(1.0797446 -0.070988231 0)
(1.076935 -0.074015454 0)
(1.0695425 -0.075630805 0)
(1.0591888 -0.073152554 0)
(1.0435331 -0.068625523 0)
(1.0261774 -0.054020802 0)
(1.0099717 -0.037734961 0)
(0.99037781 -0.00014045772 0)
(0.99049057 -0.00012355735 0)
(0.9905395 -0.00012845648 0)
(0.99063837 -0.00012656085 0)
(0.9907118 -0.00012981767 0)
(0.99081086 -0.00013356069 0)
(0.99090145 -0.00013833183 0)
(0.99100786 -0.0001449529 0)
(0.99111427 -0.00015191841 0)
(0.99123271 -0.00016072171 0)
(0.99135594 -0.00017003656 0)
(0.99149016 -0.00018099996 0)
(0.99163232 -0.00019278611 0)
(0.99178585 -0.00020612478 0)
(0.99194976 -0.00022057762 0)
(0.99212621 -0.00023659886 0)
(0.99231526 -0.00025399911 0)
(0.99251851 -0.00027307624 0)
(0.9927366 -0.00029379076 0)
(0.99297092 -0.0003163624 0)
(0.99322245 -0.00034084176 0)
(0.99349256 -0.00036741679 0)
(0.99378245 -0.00039619546 0)
(0.99409356 -0.00042736022 0)
(0.99442728 -0.00046105986 0)
(0.99478514 -0.00049748662 0)
(0.99516871 -0.00053682246 0)
(0.99557962 -0.00057927422 0)
(0.9960196 -0.0006250499 0)
(0.9964904 -0.00067437622 0)
(0.99699387 -0.00072748587 0)
(0.99753189 -0.00078462605 0)
(0.99810641 -0.00084604857 0)
(0.99871942 -0.0009120172 0)
(0.99937292 -0.00098279692 0)
(1.000069 -0.0010586585 0)
(1.0008096 -0.0011398686 0)
(1.0015968 -0.0012266907 0)
(1.0024326 -0.0013193748 0)
(1.003319 -0.0014181548 0)
(1.0042579 -0.0015232366 0)
(1.0052509 -0.0016347917 0)
(1.0062997 -0.0017529445 0)
(1.0074058 -0.0018777597 0)
(1.0085702 -0.0020092294 0)
(1.0097941 -0.0021472555 0)
(1.0110779 -0.0022916342 0)
(1.0124219 -0.0024420365 0)
(1.013826 -0.0025979897 0)
(1.0152893 -0.0027588575 0)
(1.0168108 -0.002923821 0)
(1.0183885 -0.0030918607 0)
(1.0200199 -0.0032617404 0)
(1.0217018 -0.0034319947 0)
(1.0234302 -0.0036009212 0)
(1.0252002 -0.0037665785 0)
(1.0270063 -0.0039267912 0)
(1.0288417 -0.0040791643 0)
(1.0306992 -0.0042211064 0)
(1.0325705 -0.0043498637 0)
(1.0344463 -0.0044625648 0)
(1.0363169 -0.0045562761 0)
(1.0381715 -0.0046280659 0)
(1.0399988 -0.0046750794 0)
(1.0417872 -0.0046946174 0)
(1.0435245 -0.0046842235 0)
(1.0451982 -0.0046417679 0)
(1.0467961 -0.0045655362 0)
(1.0483059 -0.0044543071 0)
(1.0497158 -0.0043074306 0)
(1.0510145 -0.0041248848 0)
(1.0521918 -0.0039073327 0)
(1.0532384 -0.0036561465 0)
(1.0541462 -0.0033734345 0)
(1.0549091 -0.0030620251 0)
(1.0555223 -0.0027254652 0)
(1.0559833 -0.0023679598 0)
(1.0562916 -0.0019943457 0)
(1.0564494 -0.0016099857 0)
(1.0564613 -0.0012207069 0)
(1.0563348 -0.00083267081 0)
(1.0560803 -0.00045209072 0)
(1.0557118 -8.5616992e-05 0)
(1.0552459 0.00026269283 0)
(1.0547032 0.00058711834 0)
(1.0541219 0.00087554932 0)
(1.0535339 0.0011220764 0)
(1.052972 0.0013236347 0)
(1.0524732 0.0014753523 0)
(1.0520781 0.0015747381 0)
(1.051828 0.0016200174 0)
(1.0517646 0.0016109345 0)
(1.0519281 0.0015478861 0)
(1.0523559 0.0014305479 0)
(1.0530803 0.0012555152 0)
(1.0541263 0.0010127958 0)
(1.0555085 0.00068193791 0)
(1.0572295 0.00023226643 0)
(1.0592683 -0.00038122841 0)
(1.061586 -0.0012180372 0)
(1.064146 -0.0023423732 0)
(1.0669288 -0.0038539038 0)
(1.069912 -0.0058480158 0)
(1.0730517 -0.0083557474 0)
(1.0762751 -0.011390574 0)
(1.0795194 -0.014933189 0)
(1.0827393 -0.018904433 0)
(1.0858795 -0.023215176 0)
(1.0888898 -0.027764392 0)
(1.091677 -0.032477763 0)
(1.0941445 -0.037279498 0)
(1.0961051 -0.042138608 0)
(1.0973945 -0.04698207 0)
(1.0976877 -0.051785904 0)
(1.0967922 -0.056376563 0)
(1.0942207 -0.060674587 0)
(1.0899121 -0.064238353 0)
(1.0831908 -0.066952063 0)
(1.0744876 -0.067827391 0)
(1.0628701 -0.067030876 0)
(1.0498089 -0.0623352 0)
(1.0343742 -0.055338607 0)
(1.0187313 -0.040914143 0)
(1.0063677 -0.024343118 0)
(1.0157484 -0.00018579567 0)
(1.0158711 -0.00017583875 0)
(1.0159251 -0.00018374129 0)
(1.0160332 -0.00018564164 0)
(1.0161154 -0.00019285523 0)
(1.0162251 -0.00020044627 0)
(1.0163271 -0.0002097968 0)
(1.0164461 -0.0002210319 0)
(1.0165663 -0.00023331468 0)
(1.0166996 -0.00024768111 0)
(1.016839 -0.00026320122 0)
(1.0169906 -0.0002807756 0)
(1.0171516 -0.00029979638 0)
(1.0173254 -0.00032088966 0)
(1.0175111 -0.00034374654 0)
(1.0177109 -0.00036878861 0)
(1.017925 -0.00039591207 0)
(1.0181552 -0.00042541929 0)
(1.018402 -0.00045733495 0)
(1.0186671 -0.00049190331 0)
(1.0189516 -0.00052922929 0)
(1.0192568 -0.00056953606 0)
(1.0195841 -0.00061298135 0)
(1.019935 -0.00065978774 0)
(1.0203111 -0.00071015055 0)
(1.0207139 -0.000764302 0)
(1.0211452 -0.00082246699 0)
(1.0216066 -0.00088489307 0)
(1.0221 -0.00095182839 0)
(1.0226271 -0.0010235351 0)
(1.02319 -0.0011002784 0)
(1.0237904 -0.0011823315 0)
(1.0244305 -0.0012699675 0)
(1.0251121 -0.0013634629 0)
(1.0258373 -0.0014630866 0)
(1.026608 -0.0015691029 0)
(1.0274261 -0.0016817592 0)
(1.0282937 -0.0018012859 0)
(1.0292125 -0.0019278826 0)
(1.0301843 -0.002061715 0)
(1.0312105 -0.0022028989 0)
(1.0322928 -0.0023514934 0)
(1.0334323 -0.0025074836 0)
(1.0346299 -0.0026707676 0)
(1.0358863 -0.00284114 0)
(1.037202 -0.0030182731 0)
(1.0385767 -0.0032016992 0)
(1.0400101 -0.0033907897 0)
(1.0415012 -0.0035847363 0)
(1.0430483 -0.0037825306 0)
(1.0446494 -0.0039829461 0)
(1.0463017 -0.0041845215 0)
(1.0480016 -0.0043855477 0)
(1.0497449 -0.0045840593 0)
(1.0515266 -0.0047778317 0)
(1.0533408 -0.0049643862 0)
(1.055181 -0.0051410024 0)
(1.0570396 -0.0053047421 0)
(1.0589085 -0.0054524828 0)
(1.0607786 -0.0055809637 0)
(1.0626402 -0.0056868421 0)
(1.064483 -0.0057667628 0)
(1.066296 -0.0058174355 0)
(1.068068 -0.0058357237 0)
(1.0697871 -0.0058187364 0)
(1.0714416 -0.0057639292 0)
(1.0730196 -0.0056691989 0)
(1.0745095 -0.0055329842 0)
(1.0759 -0.0053543506 0)
(1.0771803 -0.0051330774 0)
(1.0783406 -0.0048697165 0)
(1.0793721 -0.0045656547 0)
(1.080267 -0.0042231342 0)
(1.0810192 -0.0038452823 0)
(1.0816243 -0.0034360881 0)
(1.0820796 -0.0030004026 0)
(1.0823848 -0.0025438696 0)
(1.0825416 -0.0020729091 0)
(1.0825546 -0.0015946001 0)
(1.0824308 -0.0011166711 0)
(1.0821804 -0.00064726487 0)
(1.0818165 -0.00019513769 0)
(1.0813571 0.0002316157 0)
(1.0808208 0.00062400933 0)
(1.0802396 0.00097001357 0)
(1.0796418 0.0012604014 0)
(1.0790587 0.0014869162 0)
(1.078526 0.0016417276 0)
(1.0780826 0.0017199574 0)
(1.0777692 0.0017172948 0)
(1.0776274 0.0016320965 0)
(1.0776977 0.0014649675 0)
(1.0780177 0.0012187531 0)
(1.0786195 0.00089719093 0)
(1.0795274 0.000502842 0)
(1.0807547 3.4636135e-05 0)
(1.0823004 -0.00051575452 0)
(1.0841449 -0.00116698 0)
(1.0862635 -0.0019533853 0)
(1.0886136 -0.002931222 0)
(1.0911408 -0.00417438 0)
(1.0937754 -0.0057505422 0)
(1.0964151 -0.007722014 0)
(1.0989479 -0.010149009 0)
(1.1012712 -0.013046754 0)
(1.1032756 -0.016386462 0)
(1.1048716 -0.020104935 0)
(1.1059827 -0.024119811 0)
(1.1065536 -0.028333564 0)
(1.1065149 -0.032663604 0)
(1.105812 -0.037021374 0)
(1.1043321 -0.04135269 0)
(1.1019957 -0.045565788 0)
(1.098606 -0.049611619 0)
(1.0940886 -0.053315787 0)
(1.0881511 -0.056595594 0)
(1.0808595 -0.059067564 0)
(1.0718329 -0.060656724 0)
(1.0615471 -0.060563571 0)
(1.0495612 -0.058993995 0)
(1.0370607 -0.054223867 0)
(1.0239947 -0.047479254 0)
(1.0116641 -0.035082565 0)
(1.0034088 -0.020122997 0)
(1.0245005 -0.0002347383 0)
(1.0246296 -0.00023189593 0)
(1.0246851 -0.00024280065 0)
(1.0247983 -0.00024919196 0)
(1.0248843 -0.00026062202 0)
(1.0249991 -0.00027268548 0)
(1.0251065 -0.00028702145 0)
(1.0252316 -0.00030344746 0)
(1.0253584 -0.00032154473 0)
(1.0254989 -0.00034206205 0)
(1.0256462 -0.0003643614 0)
(1.0258062 -0.00038917997 0)
(1.0259764 -0.00041609071 0)
(1.0261601 -0.00044564841 0)
(1.0263564 -0.0004776568 0)
(1.0265677 -0.00051252074 0)
(1.0267941 -0.00055021301 0)
(1.0270375 -0.00059104957 0)
(1.0272985 -0.0006351148 0)
(1.0275787 -0.00068268258 0)
(1.0278792 -0.00073391007 0)
(1.0282016 -0.00078905824 0)
(1.0285473 -0.00084833363 0)
(1.0289178 -0.00091200037 0)
(1.0293146 -0.00098030038 0)
(1.0297395 -0.0010535082 0)
(1.0301941 -0.0011318915 0)
(1.0306803 -0.0012157359 0)
(1.0311997 -0.0013053261 0)
(1.0317544 -0.0014009555 0)
(1.0323463 -0.0015029168 0)
(1.0329772 -0.0016115034 0)
(1.0336491 -0.001727002 0)
(1.0343641 -0.0018496932 0)
(1.0351241 -0.0019798394 0)
(1.035931 -0.0021176864 0)
(1.0367868 -0.0022634484 0)
(1.0376932 -0.0024173068 0)
(1.038652 -0.0025793935 0)
(1.0396648 -0.002749786 0)
(1.0407332 -0.0029284889 0)
(1.0418582 -0.0031154251 0)
(1.043041 -0.0033104153 0)
(1.0442823 -0.0035131645 0)
(1.0455824 -0.003723242 0)
(1.0469416 -0.0039400616 0)
(1.0483594 -0.0041628626 0)
(1.0498349 -0.0043906885 0)
(1.0513668 -0.0046223673 0)
(1.0529532 -0.0048564926 0)
(1.0545914 -0.0050914065 0)
(1.0562783 -0.0053251857 0)
(1.0580099 -0.0055556325 0)
(1.0597815 -0.0057802708 0)
(1.0615876 -0.0059963493 0)
(1.063422 -0.0062008538 0)
(1.0652777 -0.0063905283 0)
(1.0671468 -0.0065619084 0)
(1.0690208 -0.0067113655 0)
(1.0708904 -0.006835164 0)
(1.0727457 -0.0069295302 0)
(1.0745761 -0.0069907344 0)
(1.0763707 -0.0070151803 0)
(1.078118 -0.0069995083 0)
(1.0798065 -0.0069406982 0)
(1.0814245 -0.0068361833 0)
(1.0829604 -0.0066839549 0)
(1.0844027 -0.0064826738 0)
(1.0857406 -0.0062317616 0)
(1.0869639 -0.0059314959 0)
(1.0880631 -0.0055830709 0)
(1.08903 -0.0051886647 0)
(1.0898576 -0.0047514571 0)
(1.0905403 -0.0042756622 0)
(1.0910744 -0.0037664975 0)
(1.0914582 -0.0032301888 0)
(1.091692 -0.0026738903 0)
(1.0917785 -0.0021056775 0)
(1.0917229 -0.001534422 0)
(1.0915331 -0.00096979288 0)
(1.09122 -0.00042205468 0)
(1.0907981 9.7817574e-05 0)
(1.0902836 0.00057887685 0)
(1.0897005 0.0010082502 0)
(1.0890728 0.0013734311 0)
(1.0884275 0.0016628599 0)
(1.087795 0.001866052 0)
(1.0872084 0.0019741331 0)
(1.0867035 0.0019795173 0)
(1.0863179 0.0018775689 0)
(1.0860887 0.001666837 0)
(1.086052 0.0013496839 0)
(1.0862401 0.0009321099 0)
(1.0866796 0.00042263074 0)
(1.0873893 -0.00016954969 0)
(1.0883769 -0.00083733383 0)
(1.0896398 -0.001580381 0)
(1.091163 -0.0024127576 0)
(1.0929161 -0.0033622537 0)
(1.0948504 -0.0044682241 0)
(1.0968946 -0.0057818044 0)
(1.0989566 -0.0073677523 0)
(1.1009342 -0.009288366 0)
(1.1027092 -0.011580756 0)
(1.1041578 -0.014259822 0)
(1.1051639 -0.017311681 0)
(1.1056346 -0.020683195 0)
(1.1054922 -0.02430375 0)
(1.1046884 -0.028083462 0)
(1.1031745 -0.031940429 0)
(1.1009272 -0.035782925 0)
(1.0978874 -0.039544906 0)
(1.0940341 -0.043126116 0)
(1.089261 -0.046462919 0)
(1.0835704 -0.049384849 0)
(1.0767987 -0.051804212 0)
(1.0690704 -0.053376774 0)
(1.0601723 -0.05402718 0)
(1.0505242 -0.053076606 0)
(1.0399038 -0.050680732 0)
(1.0291479 -0.045529 0)
(1.0184509 -0.038557157 0)
(1.0085195 -0.02758583 0)
(1.0022187 -0.0147435 0)
(1.0271556 -0.00028505204 0)
(1.0272876 -0.00028898883 0)
(1.0273428 -0.00030278679 0)
(1.0274577 -0.000314027 0)
(1.0275444 -0.00032974799 0)
(1.0276609 -0.00034663361 0)
(1.0277698 -0.0003661252 0)
(1.0278967 -0.0003880357 0)
(1.0280255 -0.00041216089 0)
(1.0281682 -0.00043909913 0)
(1.028318 -0.00046841904 0)
(1.0284808 -0.00050075375 0)
(1.028654 -0.00053581922 0)
(1.0288408 -0.00057412455 0)
(1.0290407 -0.0006155707 0)
(1.0292557 -0.000660557 0)
(1.0294863 -0.0007091277 0)
(1.029734 -0.00076161678 0)
(1.0299997 -0.00081816684 0)
(1.030285 -0.0008790829 0)
(1.030591 -0.00094457371 0)
(1.0309192 -0.0010149381 0)
(1.0312711 -0.0010904304 0)
(1.0316482 -0.0011713548 0)
(1.0320521 -0.0012579973 0)
(1.0324845 -0.0013506717 0)
(1.0329471 -0.0014496851 0)
(1.0334417 -0.0015553587 0)
(1.0339702 -0.0016680102 0)
(1.0345344 -0.0017879602 0)
(1.0351362 -0.0019155238 0)
(1.0357777 -0.0020510089 0)
(1.0364607 -0.0021947093 0)
(1.0371874 -0.0023469022 0)
(1.0379595 -0.0025078356 0)
(1.0387792 -0.0026777274 0)
(1.0396482 -0.0028567492 0)
(1.0405683 -0.0030450225 0)
(1.0415414 -0.0032426001 0)
(1.042569 -0.0034494594 0)
(1.0436524 -0.003665481 0)
(1.044793 -0.0038904387 0)
(1.0459917 -0.0041239763 0)
(1.0472491 -0.0043655924 0)
(1.0485657 -0.0046146185 0)
(1.0499414 -0.0048701987 0)
(1.0513758 -0.0051312691 0)
(1.0528679 -0.0053965363 0)
(1.0544164 -0.0056644588 0)
(1.0560191 -0.005933228 0)
(1.0576734 -0.0062007543 0)
(1.059376 -0.006464656 0)
(1.0611228 -0.0067222536 0)
(1.0629091 -0.0069705718 0)
(1.0647292 -0.0072063488 0)
(1.0665769 -0.0074260554 0)
(1.0684451 -0.007625925 0)
(1.0703258 -0.0078019962 0)
(1.0722103 -0.0079501669 0)
(1.0740894 -0.0080662627 0)
(1.075953 -0.0081461168 0)
(1.0777905 -0.0081856643 0)
(1.0795908 -0.008181043 0)
(1.0813426 -0.0081287094 0)
(1.083034 -0.0080255519 0)
(1.0846533 -0.0078690172 0)
(1.0861889 -0.0076572233 0)
(1.0876291 -0.0073890821 0)
(1.088963 -0.0070643958 0)
(1.0901803 -0.0066839605 0)
(1.0912713 -0.0062496279 0)
(1.0922277 -0.0057643782 0)
(1.0930423 -0.0052323332 0)
(1.0937096 -0.004658793 0)
(1.0942257 -0.0040501945 0)
(1.0945886 -0.0034141208 0)
(1.0947986 -0.0027592045 0)
(1.0948583 -0.0020951287 0)
(1.0947726 -0.0014324878 0)
(1.0945494 -0.00078277439 0)
(1.0941992 -0.00015829403 0)
(1.0937355 0.00042816832 0)
(1.0931749 0.00096260323 0)
(1.0925375 0.0014306573 0)
(1.0918449 0.0018183306 0)
(1.091122 0.0021121229 0)
(1.0903958 0.0022995487 0)
(1.0896963 0.0023695348 0)
(1.089055 0.0023139831 0)
(1.0885042 0.0021276918 0)
(1.0880761 0.0018099957 0)
(1.0878012 0.0013648834 0)
(1.087707 0.00080137978 0)
(1.087816 0.00013230988 0)
(1.0881442 -0.00062739332 0)
(1.0886997 -0.0014645522 0)
(1.0894812 -0.0023715943 0)
(1.0904736 -0.0033491786 0)
(1.091645 -0.00441037 0)
(1.0929465 -0.0055841159 0)
(1.0943131 -0.0069131622 0)
(1.0956619 -0.0084458069 0)
(1.096892 -0.010229814 0)
(1.0978919 -0.01230708 0)
(1.0985526 -0.014695593 0)
(1.0987674 -0.017386781 0)
(1.0984497 -0.020343969 0)
(1.0975298 -0.023511888 0)
(1.0959663 -0.026816305 0)
(1.0937241 -0.030184413 0)
(1.0907954 -0.033530398 0)
(1.0871486 -0.036785989 0)
(1.0827894 -0.039851088 0)
(1.077658 -0.042656333 0)
(1.0717863 -0.045042865 0)
(1.0650771 -0.046927231 0)
(1.0576611 -0.048014936 0)
(1.0494223 -0.048245142 0)
(1.0407137 -0.047069501 0)
(1.0314795 -0.044611932 0)
(1.0223521 -0.039874209 0)
(1.0137269 -0.033497913 0)
(1.0060301 -0.024000548 0)
(1.0014109 -0.012636683 0)
(1.0278692 -0.00033633788 0)
(1.0280019 -0.00034637884 0)
(1.028056 -0.00036301005 0)
(1.028171 -0.00037912464 0)
(1.0282568 -0.00039906846 0)
(1.0283729 -0.00042088673 0)
(1.0284811 -0.00044552574 0)
(1.0286076 -0.00047301553 0)
(1.0287359 -0.00050319629 0)
(1.0288782 -0.00053663346 0)
(1.0290276 -0.00057302107 0)
(1.02919 -0.00061294394 0)
(1.0293627 -0.0006562257 0)
(1.0295492 -0.00070335554 0)
(1.0297487 -0.00075431612 0)
(1.0299634 -0.00080951305 0)
(1.0301936 -0.00086905482 0)
(1.0304409 -0.0009332993 0)
(1.0307063 -0.001002444 0)
(1.0309913 -0.0010768283 0)
(1.031297 -0.0011567113 0)
(1.0316249 -0.001242432 0)
(1.0319765 -0.0013342923 0)
(1.0323533 -0.0014326387 0)
(1.032757 -0.0015378025 0)
(1.0331892 -0.0016501385 0)
(1.0336516 -0.0017699951 0)
(1.0341461 -0.0018977299 0)
(1.0346745 -0.002033695 0)
(1.0352386 -0.0021782402 0)
(1.0358405 -0.0023317043 0)
(1.0364821 -0.0024944119 0)
(1.0371653 -0.0026666657 0)
(1.0378922 -0.0028487421 0)