/*--------------------------------*- C++ -*----------------------------------*\
| =========                 |                                                 |
| \\      /  F ield         | foam-extend: Open Source CFD                    |
|  \\    /   O peration     | Version:     4.1                                |
|   \\  /    A nd           | Web:         http://www.foam-extend.org         |
|    \\/     M anipulation  |                                                 |
\*---------------------------------------------------------------------------*/
FoamFile
{
    version     2.0;
    format      ascii;
    class       volScalarField;
    location    "0.8";
    object      p;
}
// * * * * * * * * * * * * * * * * * * * * * * * * * * * * * * * * * * * * * //

dimensions      [0 2 -2 0 0 0 0];

internalField   nonuniform List<scalar> 
16126
(
0.00010309341
0.00070067888
0.00097851527
0.0015083342
0.0018428078
0.0023210195
0.0026880449
0.003130875
0.0035118136
0.0039297586
0.004312223
0.0047101708
0.0050859801
0.0054653345
0.0058287523
0.0061888356
0.0065353699
0.0068742627
0.0071999669
0.0075149817
0.0078160793
0.008104025
0.0083767267
0.0086340685
0.0088745057
0.0090974835
0.0093017268
0.0094864583
0.0096505931
0.0097931931
0.0099131911
0.010009729
0.010081897
0.010128947
0.010150143
0.010145062
0.010113264
0.010055184
0.0099710044
0.0098599731
0.0097225136
0.0095596032
0.009372337
0.0091621724
0.008930946
0.0086809156
0.0084147877
0.0081357467
0.0078474709
0.0075541513
0.0072604957
0.0069717328
0.0066936002
0.0064323303
0.0061946222
0.0059876038
0.0058187854
0.0056960004
0.005627338
0.0056210618
0.0056855266
0.0058290729
0.0060599336
0.0063861084
0.0068152652
0.0073546012
0.0080107472
0.0087896258
0.0096963693
0.010735181
0.01190929
0.013220816
0.014670788
0.016258995
0.017984106
0.019843463
0.021833359
0.023948669
0.026183398
0.028529944
0.030980188
0.033523963
0.036151297
0.038849254
0.041605881
0.044406307
0.047226554
0.050039034
0.052818282
0.055541209
0.05818352
0.060723215
0.063141898
0.065429466
0.067585767
0.069625288
0.071578826
0.073479795
0.075375701
0.077319785
0.079314312
0.081380654
0.083530722
0.085773806
0.088083624
0.090479066
0.09291358
0.09545771
0.098044389
0.10087096
0.10381928
0.10735919
0.11120511
0.11639722
0.12210601
0.13060588
0.13939583
0.15377055
0.16623784
0.19105158
0.20465418
0.25499651
0.25117495
0.42020772
9.8973548e-05
0.00070360703
0.00097902485
0.001508897
0.0018436122
0.0023206338
0.0026884185
0.0031307573
0.0035123538
0.0039301064
0.0043128747
0.0047105846
0.0050865296
0.0054657232
0.005829198
0.0061891867
0.006535747
0.0068745937
0.0072003211
0.0075153312
0.0078164706
0.0081044583
0.0083772451
0.0086346999
0.0088753099
0.0090985544
0.009303172
0.0094886479
0.0096539129
0.0097975654
0.0099185173
0.010016085
0.010089412
0.01013777
0.010160457
0.010156971
0.010126899
0.010069868
0.0099860223
0.0098760643
0.0097404471
0.0095796615
0.0093947903
0.0091872584
0.0089589019
0.0087119799
0.0084491987
0.0081737401
0.007889275
0.0075999823
0.0073105513
0.0070261857
0.0067525912
0.0064959607
0.0062629461
0.0060606204
0.0058964322
0.0057781461
0.0057137771
0.00571151
0.0057796182
0.0059263595
0.0061598852
0.0064881166
0.0069186488
0.007458614
0.0081145882
0.0088924521
0.0097973097
0.010833353
0.012003817
0.013310848
0.014755516
0.016337679
0.018056088
0.019908191
0.021890398
0.023997723
0.026224308
0.028562707
0.031004927
0.03354097
0.036161065
0.038852409
0.041605313
0.044403121
0.047213597
0.050014183
0.052784514
0.05549804
0.058130704
0.06066038
0.063068559
0.065347283
0.06749442
0.069539491
0.07149335
0.073476393
0.075472861
0.077434484
0.079487702
0.081653333
0.083917193
0.086288793
0.088739387
0.091288503
0.093893107
0.096622606
0.09941637
0.10246402
0.10565731
0.10944228
0.11355399
0.11897519
0.12493463
0.13357259
0.14256383
0.1568271
0.16946224
0.19310328
0.20734198
0.24755481
0.25555031
0.31549389
8.151022e-05
0.00070650743
0.00097658831
0.0015095894
0.0018455223
0.0023222356
0.002691828
0.0031330623
0.0035158973
0.0039328825
0.0043167996
0.0047145885
0.0050915261
0.0054711541
0.0058355482
0.006196183
0.0065436649
0.0068833183
0.0072100232
0.0075259827
0.007828189
0.0081172589
0.0083912118
0.0086498522
0.0088916876
0.0091160837
0.0093217891
0.0095077647
0.0096728846
0.0098167154
0.0099383002
0.010036585
0.010110662
0.010159773
0.010183212
0.010180533
0.010151322
0.010095635
0.01001344
0.0099046027
0.0097696254
0.0096092324
0.0094245148
0.0092168902
0.0089881731
0.0087405924
0.0084768229
0.0082000137
0.0079138041
0.0076223418
0.0073302883
0.0070428226
0.0067656301
0.0065048891
0.0062672439
0.0060597674
0.0058899173
0.0057654775
0.0056944925
0.0056851885
0.0057458932
0.00588493
0.0061105289
0.0064307014
0.0068531445
0.007385101
0.0080332665
0.0088036464
0.0097014729
0.010731065
0.011895785
0.013197893
0.014638572
0.016217773
0.017934328
0.019785752
0.021768496
0.023877609
0.026107219
0.028449875
0.030897486
0.033439903
0.036067254
0.038765505
0.04152743
0.044323895
0.0471347
0.049947825
0.052731292
0.055462314
0.058115919
0.060670667
0.063109821
0.065423088
0.067617887
0.06969381
0.071745883
0.07370493
0.075593979
0.077588748
0.079660263
0.081831517
0.084104346
0.08648569
0.088954454
0.091528192
0.094173763
0.096959391
0.099844155
0.10301138
0.10638748
0.11038632
0.11479698
0.12049069
0.12679034
0.13552941
0.14464168
0.15825853
0.17047596
0.19158128
0.20548151
0.23864731
0.25171798
0.29543837
5.7954476e-05
0.00071013615
0.00097181642
0.0015099511
0.0018461673
0.0023230069
0.0026944845
0.0031355436
0.0035203072
0.0039374347
0.0043227326
0.004720691
0.0050986975
0.0054786982
0.0058440137
0.006205208
0.0065535711
0.0068939386
0.0072215537
0.0075383669
0.0078415628
0.0081316336
0.008406707
0.0086665373
0.0089097085
0.0091356158
0.0093430548
0.0095313006
0.0096991532
0.0098456008
0.0099697016
0.010070576
0.010147377
0.010199347
0.010225794
0.010226177
0.010200089
0.010147252
0.010067738
0.0099618679
0.0098300414
0.0096729062
0.0094914617
0.0092870716
0.0090614818
0.0088168615
0.008555816
0.0082814214
0.0079972375
0.0077073274
0.0074162631
0.0071291315
0.0068515244
0.0065895277
0.0063496974
0.0061390241
0.0059648933
0.0058350303
0.0057574373
0.0057403185
0.0057920033
0.0059208424
0.0061351223
0.0064429406
0.0068521125
0.0073700289
0.0080035645
0.0087589304
0.0096415898
0.010656111
0.011806121
0.013094152
0.014521658
0.016088856
0.017794826
0.019637313
0.021612955
0.023716972
0.025943572
0.028285402
0.030734215
0.033279958
0.035911512
0.038616023
0.041375798
0.044177117
0.04700289
0.049828446
0.052630365
0.055384174
0.058067442
0.060660468
0.063147114
0.065522892
0.067782968
0.069979099
0.072048157
0.074065446
0.076144355
0.078247196
0.080434049
0.082729318
0.085134099
0.087660222
0.090289378
0.093041521
0.095892164
0.09890564
0.10205331
0.10549857
0.10918448
0.11346898
0.11817222
0.12403426
0.13046572
0.13900269
0.14786842
0.16043262
0.1717935
0.18977097
0.20210685
0.22578064
0.23683973
0.25490781
3.0835464e-05
0.00071439086
0.00096534415
0.0015112261
0.0018473284
0.0023258118
0.0026992138
0.0031405365
0.0035272357
0.003944631
0.0043317309
0.0047304429
0.0051101484
0.0054912743
0.0058582761
0.0062208815
0.0065710027
0.0069130296
0.0072425383
0.0075612472
0.0078665138
0.0081587094
0.0084360438
0.0086982001
0.0089437857
0.0091721229
0.0093820123
0.0095725588
0.0097427304
0.009891745
0.010018601
0.010122387
0.010202222
0.010257334
0.010287024
0.010290766
0.010268127
0.010218919
0.010143038
0.010040512
0.0099117327
0.0097573134
0.0095782115
0.0093757145
0.0091514841
0.0089075888
0.0086465254
0.0083712543
0.008085215
0.0077923479
0.0074971034
0.0072044513
0.0069198739
0.0066493602
0.0063993867
0.0061768856
0.0059892114
0.005844089
0.0057495564
0.0057138925
0.0057455449
0.0058530261
0.0060448311
0.0063293101
0.0067145752
0.0072083524
0.0078178877
0.008549789
0.0094099385
0.010403329
0.011534016
0.01280494
0.014217944
0.015773589
0.017471252
0.01930891
0.021283361
0.023389905
0.025622736
0.027974415
0.030436453
0.032998541
0.035648888
0.038374396
0.041154622
0.043979306
0.046835131
0.049694299
0.052535714
0.055336978
0.058077148
0.06073804
0.063306981
0.065777067
0.068155938
0.07041395
0.072607879
0.074776458
0.07692715
0.07913351
0.081408768
0.083777613
0.086247169
0.088829026
0.091515344
0.094327227
0.097252048
0.10035173
0.10361296
0.10718392
0.11102883
0.11545723
0.12032386
0.12624492
0.13271674
0.14098824
0.14957075
0.16114869
0.17181865
0.18752605
0.19924035
0.21854488
0.22985144
0.24216142
6.5104656e-06
0.0007194843
0.00095925452
0.0015135038
0.0018487508
0.0023295772
0.0027046736
0.0031470693
0.0035359038
0.00395433
0.0043434151
0.0047432635
0.0051248212
0.0055072975
0.0058761304
0.0062403244
0.006592356
0.0069362167
0.0072677935
0.0075885971
0.0078961552
0.0081907384
0.0084706548
0.0087355471
0.0089840909
0.0092156083
0.0094289434
0.0096232625
0.0097974469
0.0099505718
0.010081673
0.010189848
0.010274237
0.010334045
0.010368561
0.010377188
0.010359467
0.010315079
0.010243943
0.010146164
0.010022028
0.0098720879
0.0096971763
0.0094984785
0.0092775269
0.0090362613
0.0087770348
0.0085026578
0.0082164118
0.007922074
0.0076239302
0.0073267876
0.0070359726
0.0067573308
0.0064972132
0.0062624505
0.0060603264
0.0058985318
0.0057851139
0.0057284086
0.0057369747
0.005819491
0.0059846789
0.0062411721
0.0065974262
0.0070615617
0.007641271
0.0083436452
0.0091750853
0.010141117
0.011246339
0.012494222
0.013887119
0.015426052
0.017110809
0.018939696
0.020909757
0.023016438
0.02525396
0.027614838
0.030090357
0.03267005
0.035341798
0.038092175
0.040903982
0.04376006
0.046647927
0.049548063
0.052436413
0.055291933
0.058096237
0.060833683
0.06349199
0.066062259
0.068538648
0.070949739
0.073297333
0.075613114
0.077947319
0.080311565
0.082738641
0.085250523
0.08785529
0.090568534
0.0933864
0.096332184
0.099399914
0.10264643
0.10606519
0.10978339
0.11377318
0.11829222
0.12321542
0.12904623
0.13535352
0.14313799
0.15115928
0.16149007
0.17102345
0.1840228
0.19389746
0.20782732
0.21640343
0.22257203
-1.3683232e-05
0.00072512252
0.00095448438
0.0015174245
0.0018517865
0.0023357678
0.0027125378
0.003156549
0.0035475602
0.0039673908
0.0043587352
0.0047602341
0.005144097
0.0055285307
0.0058997697
0.006266222
0.0066208266
0.0069672431
0.0073016151
0.0076252754
0.0079358889
0.0082336311
0.0085168775
0.0087852165
0.0090373477
0.0092725569
0.0094896953
0.0096878963
0.0098661182
0.01002347
0.010158962
0.010271676
0.010360726
0.010425293
0.010464641
0.010478144
0.010465288
0.010425718
0.010359214
0.010265733
0.010145479
0.0099988977
0.0098267187
0.0096299993
0.0094101335
0.009168908
0.0089085133
0.0086315892
0.0083412421
0.0080410736
0.007735198
0.00742826
0.0071254388
0.0068324535
0.0065555574
0.0063015182
0.0060775989
0.0058915181
0.0057514061
0.005665741
0.0056432892
0.0056930017
0.0058239415
0.0060451467
0.0063655426
0.0067937716
0.0073381001
0.0080062246
0.0088051818
0.009741134
0.010819319
0.012043807
0.013417523
0.014941978
0.01661739
0.018442371
0.020414186
0.022528355
0.02477907
0.027158669
0.029658187
0.032266763
0.034971995
0.037760074
0.040614274
0.043519273
0.046458843
0.0494117
0.052359689
0.055283359
0.058164811
0.060988217
0.063743151
0.066424362
0.069034525
0.071571047
0.074057645
0.076519489
0.078974813
0.081459475
0.083991431
0.086591572
0.089270712
0.09204432
0.094915574
0.097908688
0.10102563
0.10432003
0.10779373
0.11155885
0.115598
0.12012807
0.12504583
0.13076115
0.13691235
0.14429378
0.15189721
0.16131571
0.17015037
0.1814781
0.1905753
0.20196424
0.20975835
0.21390742
-2.827528e-05
0.00073071665
0.00095163939
0.0015223604
0.0018559528
0.0023432429
0.0027216612
0.0031677211
0.0035610318
0.0039827311
0.004376491
0.0047799648
0.0051662907
0.0055529205
0.0059267285
0.0062956464
0.0066530026
0.0070021845
0.0073395595
0.0076663156
0.007980244
0.0082814488
0.0085683782
0.0088405894
0.0090968262
0.009336361
0.0095580666
0.0097610663
0.0099442836
0.010106784
0.010247576
0.010365722
0.010460324
0.010530524
0.010575549
0.010594708
0.010587434
0.010553282
0.010491986
0.010403447
0.010287756
0.010145252
0.0099765221
0.0097824789
0.009564352
0.0093237578
0.009062703
0.0087836379
0.0084894739
0.0081836167
0.0078699881
0.0075530496
0.0072378119
0.0069298478
0.0066352941
0.0063608381
0.0061137084
0.0059016401
0.0057328407
0.005615929
0.0055598843
0.0055739413
0.0056675243
0.0058501026
0.0061311075
0.0065197461
0.0070249115
0.007654963
0.0084176405
0.0093198115
0.010367429
0.011565239
0.012916815
0.014424232
0.01608821
0.01790773
0.019880341
0.022001678
0.024265949
0.026665347
0.029190664
0.031830715
0.034572784
0.037402599
0.040304006
0.043260018
0.046254819
0.049269133
0.052283872
0.055280604
0.058243421
0.061158545
0.064016093
0.06681026
0.069540196
0.072216998
0.074850101
0.077458541
0.080068027
0.082695465
0.085361511
0.088084564
0.090875397
0.093750871
0.096716378
0.099796309
0.10299586
0.1063632
0.10990266
0.11370903
0.11776811
0.12225717
0.1270865
0.13258284
0.13843957
0.14527205
0.15225622
0.16057253
0.16836192
0.17774082
0.18535961
0.19390012
0.19994148
0.20251007
-3.8006269e-05
0.00073607103
0.00095096036
0.0015285331
0.0018619518
0.0023527032
0.0027329685
0.0031813936
0.0035771487
0.0040010359
0.0043974485
0.0048032844
0.005192414
0.0055816839
0.0059584813
0.0063303495
0.0066909327
0.0070433925
0.0073842783
0.0077146537
0.0080324093
0.0083375814
0.0086286687
0.0089051895
0.0091659086
0.0094100757
0.0096365702
0.0098445044
0.01003282
0.010200571
0.010346746
0.010470378
0.010570538
0.010646325
0.010696921
0.010721574
0.010719641
0.010690594
0.010634043
0.010549757
0.010437709
0.010298098
0.010131365
0.0099382632
0.0097198482
0.0094775512
0.0092131852
0.0089290004
0.0086277064
0.0083125096
0.0079871403
0.0076558827
0.0073235915
0.0069957113
0.0066782874
0.0063779595
0.006101961
0.0058580913
0.0056546898
0.0055005783
0.0054050183
0.0053776034
0.0054282006
0.0055667952
0.0058034134
0.006147916
0.0066099139
0.0071985152
0.0079222475
0.0087887582
0.0098047863
0.010975806
0.012306091
0.013798305
0.015453692
0.017271598
0.019249851
0.021384159
0.023668733
0.026095527
0.028655108
0.031335765
0.034124546
0.037006514
0.039965545
0.042984496
0.046046338
0.049131682
0.052223016
0.05530228
0.058354209
0.061365088
0.064326046
0.067231569
0.070082058
0.072879675
0.075636439
0.078367869
0.081089254
0.083821217
0.086579259
0.08938035
0.092236412
0.095163886
0.098171757
0.10128417
0.10451036
0.10789474
0.11144542
0.11524446
0.11928278
0.12370686
0.12844187
0.13374817
0.13937173
0.14578708
0.15233612
0.15989011
0.16703969
0.1752288
0.18210555
0.18916509
0.19442847
0.19620395
-4.3343299e-05
0.0007408553
0.00095231351
0.0015353678
0.0018692783
0.002363294
0.0027456188
0.0031965876
0.0035949566
0.0040213098
0.0044205474
0.0048290011
0.005221111
0.0056132491
0.0059932227
0.0063682622
0.006732279
0.0070882513
0.0074328874
0.0077671508
0.0080890236
0.0083984909
0.0086941026
0.008975351
0.009241027
0.0094903627
0.0097222434
0.0099357591
0.010129833
0.010303489
0.010455696
0.010585454
0.010691798
0.010773779
0.01083052
0.010861197
0.010865092
0.01084158
0.010790181
0.010710556
0.010602544
0.010466203
0.010301806
0.010109932
0.0098914465
0.0096475788
0.0093799314
0.0090905382
0.00878189
0.0084569769
0.0081193207
0.007773011
0.0074227297
0.0070737774
0.0067320935
0.006404257
0.0060974971
0.0058196704
0.0055792466
0.0053852534
0.0052472442
0.005175187
0.0051794158
0.005270463
0.0054589908
0.0057555611
0.0061705603
0.0067139074
0.0073949908
0.0082223094
0.0092034708
0.010344753
0.011651215
0.013126175
0.014771485
0.016586905
0.018570607
0.020718404
0.023024542
0.025480759
0.028077348
0.030802164
0.03364178
0.036580706
0.039602623
0.042689466
0.045824078
0.048987117
0.052161
0.055327958
0.058473444
0.061584276
0.064651654
0.06766951
0.070636995
0.073558538
0.076442001
0.07929874
0.082144067
0.084991944
0.087857041
0.090754526
0.093695844
0.096697235
0.099768452
0.10293238
0.10619918
0.10960792
0.11316691
0.11694446
0.12093247
0.12524826
0.12982636
0.13486855
0.14016119
0.14605877
0.1520319
0.15869954
0.16499273
0.1718558
0.17766636
0.18319582
0.1874304
0.18874636
-4.5207313e-05
0.00074518201
0.00095572606
0.001543101
0.0018783823
0.0023755181
0.0027602672
0.0032139396
0.0036151555
0.004044224
0.0044465322
0.0048579123
0.0052532983
0.0056486566
0.0060321506
0.0064107447
0.0067785753
0.0071384633
0.0074872495
0.0078258094
0.008152199
0.0084663547
0.008766864
0.0090531905
0.0093241406
0.0095789271
0.0098164373
0.010035745
0.010235768
0.010415503
0.010573893
0.010709898
0.010822507
0.010910715
0.010973581
0.011010201
0.011019763
0.011001534
0.010954905
0.010879398
0.010774701
0.010640709
0.01047752
0.010285523
0.01006538
0.0098181061
0.0095450822
0.0092481149
0.0089294676
0.0085919071
0.0082387435
0.0078738713
0.0075018038
0.0071277054
0.0067574234
0.0063974946
0.006055169
0.0057383912
0.0054557998
0.0052166725
0.0050309072
0.0049089048
0.0048615334
0.0048999433
0.0050355128
0.0052795855
0.0056434119
0.006137807
0.00677311
0.007558753
0.0085032966
0.0096138898
0.010896446
0.012354983
0.013992006
0.0158077
0.017800605
0.019966608
0.0223
0.024792191
0.027433271
0.030210334
0.033109745
0.036114948
0.03920925
0.042373932
0.045591143
0.048841016
0.052106117
0.055368238
0.058612924
0.061826265
0.064999559
0.068126441
0.071205738
0.074238143
0.077230108
0.080191192
0.08313276
0.086067924
0.089009512
0.091971362
0.094965279
0.098006931
0.10110754
0.10428904
0.10756317
0.11096518
0.11450465
0.11823964
0.12216452
0.12637409
0.13081333
0.13563844
0.14067368
0.14618208
0.15174535
0.15779708
0.16353713
0.16955839
0.17474792
0.17938799
0.18303257
0.18398762
-4.4194559e-05
0.00074895227
0.00096089126
0.0015513535
0.0018888404
0.0023887989
0.0027763188
0.0032327588
0.0036370453
0.0040690209
0.0044746005
0.0048891291
0.0052879948
0.0056868038
0.006074036
0.0064564274
0.0068283137
0.0071923837
0.007545597
0.0078887572
0.0082199883
0.0085391885
0.0088449817
0.0091368093
0.0094134924
0.009674225
0.0099178915
0.010143542
0.010350075
0.010536454
0.010701593
0.010844405
0.010963833
0.011058808
0.011128317
0.01117137
0.01118706
0.011174541
0.011133083
0.011062068
0.010961027
0.010829683
0.010667943
0.010475989
0.010254265
0.010003554
0.0097249981
0.0094201567
0.0090910465
0.0087401914
0.0083706689
0.0079861589
0.0075909856
0.007190159
0.0067894168
0.0063952397
0.0060148872
0.0056563857
0.0053285419
0.0050408892
0.0048036845
0.0046277834
0.0045246215
0.0045060087
0.0045840942
0.0047710654
0.0050791133
0.0055200288
0.0061051968
0.0068450731
0.0077492767
0.0088259191
0.010081873
0.011521936
0.01314936
0.014964808
0.016967256
0.01915268
0.021515436
0.024046624
0.026735979
0.029570074
0.032534442
0.035611818
0.038784951
0.04203394
0.045340528
0.048684012
0.052046713
0.055409864
0.058759027
0.062080203
0.065364312
0.068603318
0.071794759
0.074939468
0.078043269
0.081111866
0.08415539
0.087184668
0.090210881
0.093246608
0.096303153
0.09939515
0.10253393
0.1057395
0.10902343
0.11241615
0.11592646
0.11960187
0.1234368
0.12750531
0.1317591
0.136315
0.14102632
0.14608078
0.15114622
0.15651334
0.16158623
0.16671568
0.17116089
0.17494186
0.1779728
0.17876636
-4.0867166e-05
0.0007523563
0.00096779221
0.0015603495
0.0019009398
0.0024035044
0.0027942254
0.0032535184
0.0036611537
0.0040962374
0.0045053428
0.0049232809
0.0053259014
0.0057284611
0.0061197367
0.0065062534
0.006882527
0.0072511263
0.0076091155
0.0079572327
0.0082936597
0.0086182583
0.0089296814
0.0092273476
0.0095100879
0.0097770777
0.010027197
0.010259475
0.01047279
0.010666076
0.010838206
0.010988048
0.011114488
0.011216386
0.011292651
0.011342197
0.011364007
0.011357109
0.011320629
0.011253793
0.011155958
0.011026657
0.010865592
0.010672727
0.010448268
0.010192756
0.0099070749
0.0095925247
0.009250861
0.0088843516
0.0084958307
0.0080887536
0.0076672496
0.0072361706
0.0068011462
0.0063686057
0.00594583
0.0055409442
0.0051629484
0.0048216634
0.0045277478
0.004292561
0.0041281675
0.004047105
0.0040623747
0.0041870921
0.0044344875
0.004817423
0.0053484387
0.0060391118
0.00690023
0.0079409541
0.009169217
0.010590655
0.012209347
0.014026454
0.01604144
0.018250334
0.020647603
0.023223863
0.025968683
0.028867423
0.031905208
0.035063634
0.038324929
0.041667757
0.045073117
0.048519031
0.051987396
0.055458225
0.058916768
0.062347626
0.065741702
0.069090274
0.0723911
0.075641084
0.078843073
0.082003505
0.085131356
0.088234483
0.091324165
0.094411747
0.097508334
0.10062822
0.10378288
0.10699127
0.11026518
0.11363169
0.11709966
0.12070873
0.12445455
0.12839535
0.13249022
0.13682603
0.1412824
0.14599082
0.15069033
0.15556767
0.16018143
0.16471166
0.16866943
0.17189402
0.17450711
0.17511264
-3.5618986e-05
0.0007553657
0.00097613407
0.0015698339
0.0019143342
0.0024192308
0.0028135433
0.0032757165
0.003686954
0.0041252995
0.0045381499
0.0049597022
0.0053662983
0.0057728398
0.0061683964
0.0065592935
0.0069402186
0.0073136323
0.0076766973
0.0080300949
0.0083720618
0.0087024294
0.0090198781
0.0093238067
0.0096130545
0.0098867778
0.010143849
0.01038327
0.010603899
0.01080463
0.010984298
0.01114172
0.011275718
0.011385082
0.011468634
0.011525188
0.011553614
0.011552809
0.011521754
0.01145951
0.011365252
0.011238311
0.011078171
0.010884558
0.010657428
0.010397053
0.010104043
0.0097794133
0.0094246364
0.0090416989
0.0086331661
0.0082022435
0.0077528402
0.0072896253
0.0068180983
0.0063446177
0.005876471
0.0054218718
0.004990012
0.004591005
0.0042359279
0.0039366701
0.0037059669
0.003557134
0.003504095
0.0035609705
0.0037421282
0.0040616011
0.0045332065
0.0051697558
0.0059833417
0.0069842854
0.0081817164
0.0095822023
0.011190767
0.013009125
0.015037311
0.017271413
0.019706015
0.022331259
0.02513628
0.028105163
0.031223071
0.034469863
0.03782701
0.041271516
0.04478369
0.048339913
0.051921566
0.055507199
0.059081707
0.062628403
0.066137576
0.069598919
0.073009278
0.076366159
0.079672539
0.082928767
0.08614252
0.089323721
0.09248077
0.095624053
0.098764874
0.1019156
0.10508807
0.10829894
0.11155961
0.11489309
0.11830729
0.12183409
0.12546898
0.12925609
0.1331595
0.13724103
0.14140073
0.14572584
0.15001107
0.15436771
0.15847258
0.162397
0.16583578
0.16855005
0.17078051
0.17131401
-2.8746508e-05
0.00075814146
0.00098589767
0.0015799812
0.001929197
0.0024362296
0.0028345633
0.0032996747
0.003714803
0.0041565809
0.0045734292
0.0049988243
0.0054096555
0.0058204447
0.0062205624
0.0066161334
0.0070020125
0.0073805556
0.007749018
0.0081080272
0.0084558694
0.0087923471
0.0091161642
0.0094267005
0.009722801
0.010003603
0.01026797
0.01051488
0.010743164
0.010951678
0.011139216
0.011304535
0.011446395
0.011563503
0.011654589
0.011718361
0.011753561
0.011758946
0.011733337
0.011675614
0.011584756
0.011459879
0.01130023
0.011105284
0.010874727
0.010608548
0.010307061
0.0099709795
0.0096014708
0.0092002211
0.0087695073
0.0083122656
0.007832168
0.0073336858
0.0068221766
0.0063039201
0.0057862089
0.0052773488
0.0047867369
0.0043248001
0.0039030677
0.0035340016
0.0032310675
0.0030084264
0.0028810121
0.0028640421
0.0029731362
0.0032236093
0.0036306911
0.0042085456
0.0049707154
0.0059287906
0.0070932371
0.008471631
0.010070063
0.011890823
0.013934611
0.016197517
0.01867434
0.021354575
0.024226453
0.027273678
0.030480395
0.03382477
0.037287453
0.040843365
0.044471959
0.048147478
0.051850635
0.055557921
0.059253746
0.062919506
0.066545191
0.070118851
0.073636774
0.077093892
0.080492281
0.083835186
0.087126591
0.090371026
0.093580514
0.096764893
0.099933811
0.10310071
0.10627617
0.10947639
0.11271225
0.11600413
0.11935961
0.12280482
0.126336
0.12998662
0.13372608
0.13759744
0.1415186
0.14554419
0.1495133
0.1534828
0.15721601
0.16070823
0.16377516
0.1661262
0.16806428
0.16848916
-2.0490219e-05
0.00076066877
0.00099684838
0.0015906124
0.0019452555
0.0024542113
0.0028569503
0.0033250251
0.0037443044
0.0041896521
0.0046107237
0.0050401545
0.0054554478
0.0058707118
0.0062756356
0.0066761381
0.0070672439
0.0074512073
0.0078253755
0.0081903259
0.0085443938
0.0088873556
0.0092179384
0.0095355041
0.0098389028
0.010127253
0.010399406
0.010654314
0.01089078
0.011107621
0.011303583
0.011477365
0.011627659
0.011753088
0.011852286
0.011923846
0.011966383
0.011978505
0.011958867
0.011906161
0.011819158
0.011696745
0.01153792
0.011341885
0.011108038
0.010836062
0.010525951
0.010178091
0.009793314
0.0093729764
0.0089190348
0.0084341237
0.007921645
0.0073858399
0.0068318941
0.0062659805
0.0056953748
0.0051284579
0.0045748252
0.0040452172
0.0035516329
0.0031071318
0.0027259585
0.0024231764
0.0022148144
0.0021172777
0.0021475613
0.0023223823
0.0026585388
0.003171685
0.0038769902
0.0047874486
0.005915043
0.0072684648
0.0088550352
0.010677675
0.012737863
0.015031686
0.017554217
0.020293756
0.023238533
0.026371019
0.029674502
0.033125033
0.03670244
0.040379103
0.044133664
0.047937724
0.051771362
0.05560858
0.059433364
0.063224885
0.066972765
0.07066308
0.074291839
0.077852602
0.081347193
0.084774922
0.088143425
0.091456853
0.094720894
0.097945578
0.10114426
0.10432576
0.10750279
0.11068865
0.11389425
0.11713671
0.12042284
0.12377341
0.12718459
0.13068076
0.13423517
0.13787584
0.14153487
0.14524259
0.14887324
0.15244694
0.15579369
0.15886546
0.16156563
0.16359533
0.16528291
0.16566767
-1.1008896e-05
0.00076306136
0.0010089698
0.001601848
0.0019626071
0.0024733357
0.0028808773
0.0033519685
0.0037756772
0.0042247464
0.004650284
0.0050839561
0.0055039558
0.005923936
0.0063339269
0.0067396306
0.007136246
0.0075259242
0.0079061037
0.0082773124
0.0086379332
0.008987717
0.009325413
0.0096503658
0.0099614294
0.010257704
0.010538029
0.010801328
0.011046377
0.011271952
0.011476749
0.011659405
0.011818539
0.011952686
0.012060378
0.012140088
0.012190292
0.01220944
0.01219601
0.012148494
0.012065443
0.011945497
0.01178739
0.011590036
0.011352524
0.011074209
0.010754744
0.010394159
0.0099929283
0.009552049
0.0090731292
0.008558472
0.0080111809
0.0074352384
0.0068356338
0.0062184107
0.0055908123
0.0049612835
0.0043396193
0.0037368821
0.0031655659
0.0026393632
0.0021733559
0.001783577
0.0014872483
0.0013020629
0.0012465286
0.0013388929
0.0015976931
0.0020402155
0.0026834473
0.0035419188
0.0046293236
0.0059555605
0.0075293603
0.0093542905
0.011432767
0.013760765
0.016333869
0.019138549
0.022163826
0.025389955
0.028799657
0.032366389
0.036069133
0.039877144
0.04376823
0.047710683
0.051683957
0.055658879
0.059619078
0.063540913
0.067413877
0.0712217
0.074960246
0.078621031
0.082205722
0.085713257
0.089149176
0.092517634
0.095829137
0.099086758
0.1023017
0.1054891
0.10865735
0.11182094
0.11498965
0.11817887
0.1213951
0.12465511
0.12795579
0.13131466
0.13470889
0.13815545
0.14159841
0.14505051
0.14841318
0.15168048
0.15473
0.15748455
0.15990337
0.16168614
0.16316726
0.16348445
-4.5390894e-07
0.00076530583
0.0010220871
0.0016135589
0.0019810431
0.0024933921
0.0029060918
0.0033802337
0.0038086242
0.0042615447
0.00469177
0.0051298664
0.0055547969
0.0059797132
0.0063950144
0.0068061722
0.007208569
0.0076042502
0.0079907485
0.0083685435
0.0087360663
0.0090930445
0.009438249
0.0097710087
0.010090181
0.010394848
0.010683838
0.010956046
0.011210218
0.011445087
0.011659301
0.011851432
0.012020024
0.012163522
0.012280351
0.01236886
0.012427383
0.012454207
0.012447622
0.012405914
0.012327398
0.01221046
0.012053547
0.011855269
0.011614381
0.011329889
0.011001072
0.010627578
0.010209488
0.0097474013
0.0092425389
0.0086968312
0.0081130409
0.0074948491
0.0068470072
0.0061753897
0.0054871744
0.0047908411
0.0040963682
0.003415131
0.0027601311
0.0021457149
0.0015878535
0.00110361
0.00071149944
0.00043060653
0.00028110425
0.00028291238
0.00045650755
0.00082097327
0.0013953479
0.0021958594
0.0032381579
0.0045334721
0.0060921742
0.007918543
0.010016059
0.012380831
0.015008101
0.01788341
0.020996354
0.024324355
0.027849831
0.031542993
0.035382117
0.039332634
0.043371663
0.047463446
0.051587005
0.0557093
0.05981385
0.063873637
0.067878287
0.071808793
0.075661322
0.079425318
0.08310278
0.086690509
0.090195269
0.09361976
0.096972468
0.10026321
0.10349773
0.10668557
0.1098425
0.11297856
0.11610444
0.11923311
0.12237052
0.12553014
0.12870888
0.1319189
0.13514035
0.13838187
0.14159729
0.1447872
0.14787491
0.15083866
0.15359296
0.1560477
0.15820198
0.159771
0.16108058
0.16137152
1.1082128e-05
0.00076747608
0.0010361825
0.0016258187
0.002000609
0.002514471
0.0029326829
0.0034099304
0.0038432606
0.0043001712
0.0047353116
0.0051780197
0.0056081097
0.0060381838
0.00645904
0.0068759031
0.0072843488
0.0076863125
0.0080794235
0.0084641127
0.0088388604
0.0092033708
0.0095564374
0.0098973736
0.010225041
0.010538504
0.010836579
0.011118133
0.011381882
0.011626516
0.011850631
0.012052735
0.012231293
0.012384656
0.012511139
0.012608961
0.012676308
0.012711293
0.012712013
0.012676533
0.012602924
0.012489297
0.012333803
0.012134723
0.011890462
0.011599647
0.011261163
0.010874239
0.010438532
0.0099542082
0.0094220632
0.0088436137
0.0082212405
0.0075582805
0.0068592079
0.0061296888
0.005376804
0.0046090399
0.0038365449
0.0030709996
0.0023259293
0.0016163584
0.00095920616
0.00037262991
-0.00012345101
-0.00050845158
-0.00076036642
-0.00085745611
-0.00077708658
-0.00049820956
5.1901662e-07
0.00073718095
0.0017296537
0.0029905949
0.0045322938
0.0063597019
0.0084776915
0.01088208
0.013568342
0.016521088
0.019729689
0.023168972
0.02682091
0.030651882
0.034639561
0.03874468
0.042943872
0.04719634
0.051480948
0.055759828
0.060016739
0.064220483
0.068361244
0.072416708
0.076383736
0.080249347
0.08401627
0.087679949
0.091247404
0.094720504
0.098109705
0.10142
0.10466574
0.10785225
0.11098983
0.11409355
0.11717288
0.12023948
0.12329968
0.12636396
0.12943034
0.13250665
0.1355762
0.13864152
0.14166458
0.14463735
0.14749977
0.15021935
0.15273644
0.15495363
0.15689421
0.15828898
0.15945005
0.15969662
2.34981e-05
0.00076955923
0.0010511272
0.0016385318
0.0020211462
0.0025364157
0.0029604587
0.0034408558
0.0038793612
0.004340386
0.0047806526
0.0052281453
0.0056636101
0.0060990516
0.0065256979
0.00694851
0.0073632692
0.0077717956
0.0081718205
0.0085637255
0.0089460419
0.0093184522
0.0096797731
0.010029304
0.010365913
0.010688645
0.010996305
0.011287736
0.011561622