/*--------------------------------*- C++ -*----------------------------------*\
| =========                 |                                                 |
| \\      /  F ield         | foam-extend: Open Source CFD                    |
|  \\    /   O peration     | Version:     4.1                                |
|   \\  /    A nd           | Web:         http://www.foam-extend.org         |
|    \\/     M anipulation  |                                                 |
\*---------------------------------------------------------------------------*/
FoamFile
{
    version     2.0;
    format      ascii;
    class       surfaceScalarField;
    location    "0.8";
    object      phi;
}
// * * * * * * * * * * * * * * * * * * * * * * * * * * * * * * * * * * * * * //

dimensions      [0 3 -1 0 0 0 0];

internalField   nonuniform List<scalar> 
31929
(
-5.5626425e-05
1.2701393e-08
-5.5628224e-05
1.7994368e-09
-5.5630834e-05
2.6097638e-09
-5.5631582e-05
7.4856644e-10
-5.5631315e-05
-2.6709217e-10
-5.5630906e-05
-4.097048e-10
-5.5629237e-05
-1.6687287e-09
-5.5627385e-05
-1.851661e-09
-5.5624465e-05
-2.9200561e-09
-5.5621202e-05
-3.2626631e-09
-5.5617048e-05
-4.1543484e-09
-5.561243e-05
-4.617902e-09
-5.5607035e-05
-5.3949566e-09
-5.5601099e-05
-5.9360053e-09
-5.5594453e-05
-6.6462578e-09
-5.5587223e-05
-7.2301216e-09
-5.5579323e-05
-7.9000544e-09
-5.5570823e-05
-8.4999568e-09
-5.5561686e-05
-9.1370618e-09
-5.5551957e-05
-9.7282931e-09
-5.5541633e-05
-1.0324384e-08
-5.5530754e-05
-1.0878791e-08
-5.5519343e-05
-1.1411635e-08
-5.5507449e-05
-1.1893508e-08
-5.5495122e-05
-1.2327532e-08
-5.548243e-05
-1.2691614e-08
-5.5469451e-05
-1.2979134e-08
-5.5456279e-05
-1.3171572e-08
-5.5443028e-05
-1.3251201e-08
-5.5429842e-05
-1.3185828e-08
-5.5416895e-05
-1.2946814e-08
-5.5404397e-05
-1.2498574e-08
-5.5392599e-05
-1.1797848e-08
-5.5381814e-05
-1.0784885e-08
-5.5372426e-05
-9.387853e-09
-5.5364926e-05
-7.5003625e-09
-5.5359897e-05
-5.0286608e-09
-5.5358098e-05
-1.7995731e-09
-5.5360053e-05
1.9558243e-09
-5.5366104e-05
6.0511703e-09
-5.5376835e-05
1.0730495e-08
-5.5392934e-05
1.6098737e-08
-5.5415169e-05
2.2234927e-08
-5.5444364e-05
2.9195605e-08
-5.5481396e-05
3.7032306e-08
-5.5527183e-05
4.5786687e-08
-5.5582675e-05
5.5491589e-08
-5.5648843e-05
6.6167851e-08
-5.5726665e-05
7.7822223e-08
-5.581711e-05
9.0445114e-08
-5.5921118e-05
1.0400793e-07
-5.6039579e-05
1.1846098e-07
-5.617331e-05
1.3373157e-07
-5.6323033e-05
1.497225e-07
-5.6489343e-05
1.6631056e-07
-5.667269e-05
1.833468e-07
-5.6873346e-05
2.006562e-07
-5.7091385e-05
2.1803881e-07
-5.7326657e-05
2.3527163e-07
-5.7578768e-05
2.5211137e-07
-5.7847065e-05
2.682972e-07
-5.8130622e-05
2.8355627e-07
-5.842823e-05
2.9760805e-07
-5.87384e-05
3.1017062e-07
-5.9059367e-05
3.2096706e-07
-5.93891e-05
3.2973284e-07
-5.9725324e-05
3.362235e-07
-6.0065545e-05
3.4022132e-07
-6.0407089e-05
3.415445e-07
-6.0747143e-05
3.4005358e-07
-6.1082801e-05
3.3565827e-07
-6.1411124e-05
3.283231e-07
-6.1729196e-05
3.1807186e-07
-6.2034184e-05
3.0498771e-07
-6.2323399e-05
2.8921477e-07
-6.259435e-05
2.7095108e-07
-6.2844794e-05
2.5044451e-07
-6.3072769e-05
2.2797514e-07
-6.3276621e-05
2.0385162e-07
-6.3454996e-05
1.7837465e-07
-6.3606843e-05
1.5184765e-07
-6.3731346e-05
1.2450241e-07
-6.3827869e-05
9.6523558e-08
-6.3895867e-05
6.7997654e-08
-6.3934542e-05
3.8674758e-08
-6.3945229e-05
1.0687279e-08
-6.3928862e-05
-1.6367109e-08
-6.3880963e-05
-4.7898548e-08
-6.3796557e-05
-8.4406338e-08
-6.367347e-05
-1.2308736e-07
-6.3511141e-05
-1.6232892e-07
-6.3311215e-05
-1.999254e-07
-6.3078351e-05
-2.3286398e-07
-6.282129e-05
-2.5706138e-07
-6.255391e-05
-2.6737988e-07
-6.2295426e-05
-2.5848384e-07
-6.2069417e-05
-2.2600923e-07
-6.1906339e-05
-1.6307784e-07
-6.1846321e-05
-6.0018072e-08
-6.1941873e-05
9.5551773e-08
-6.2226254e-05
2.8438106e-07
-6.2707956e-05
4.8170247e-07
-6.3396201e-05
6.8824498e-07
-6.4302743e-05
9.0654214e-07
-6.5445468e-05
1.1427243e-06
-6.6853136e-05
1.4076681e-06
-6.8567891e-05
1.7147549e-06
-7.0653749e-05
2.0858588e-06
-7.3198235e-05
2.5444856e-06
-7.6326318e-05
3.128083e-06
-8.0197516e-05
3.871198e-06
-8.5028079e-05
4.8305632e-06
-9.1073086e-05
6.0450066e-06
-9.8661425e-05
7.5883396e-06
-0.00010813895
9.4775219e-06
-0.00011993177
1.1792823e-05
-0.00013440253
1.4470761e-05
-0.00015200327
1.7600734e-05
-0.00017291809
2.0914826e-05
-0.0001975445
2.4626408e-05
-0.00022531338
2.776888e-05
-0.00025684562
3.1532244e-05
-0.00028730189
3.0456267e-05
3.5278709e-05
-0.00015625475
2.7740945e-08
-0.00015626344
1.048807e-08
-0.00015627189
1.1061455e-08
-0.00015627807
6.9219629e-09
-0.00015628328
4.9500426e-09
-0.00015628739
3.6989414e-09
-0.0001562907
1.6417119e-09
-0.0001562935
9.4779173e-10
-0.00015629572
-6.9859378e-10
-0.00015629767
-1.3128228e-09
-0.0001562992
-2.6309054e-09
-0.00015630048
-3.3355194e-09
-0.00015630146
-4.4132713e-09
-0.00015630228
-5.1206381e-09
-0.00015630293
-5.9914646e-09
-0.00015630354
-6.6211848e-09
-0.00015630416
-7.2859819e-09
-0.00015630489
-7.7651625e-09
-0.00015630584
-8.1915342e-09
-0.00015630713
-8.4385633e-09
-0.00015630889
-8.5586919e-09
-0.0001563113
-8.4693073e-09
-0.00015631454
-8.1751613e-09
-0.00015631882
-7.6095067e-09
-0.0001563244
-6.7456296e-09
-0.00015633158
-5.5168025e-09
-0.00015634068
-3.8781272e-09
-0.0001563521
-1.7537496e-09
-0.00015636621
8.676e-10
-0.00015638342
4.0153601e-09
-0.00015640416
7.7930831e-09
-0.00015642896
1.2307479e-08
-0.00015645842
1.7662238e-08
-0.00015649318
2.3973245e-08
-0.00015653393
3.1364974e-08
-0.00015658141
3.9979489e-08
-0.0001566364
4.9960012e-08
-0.00015669966
6.1461186e-08
-0.00015677229
7.4587816e-08
-0.00015685569
8.9447227e-08
-0.00015695116
1.0619961e-07
-0.00015706004
1.2498092e-07
-0.00015718373
1.4592507e-07
-0.00015732368
1.6914738e-07
-0.0001574814
1.9474643e-07
-0.00015765841
2.2279537e-07
-0.00015785625
2.5333724e-07
-0.00015807646
2.8637821e-07
-0.00015832052
3.2188032e-07
-0.00015858983
3.5975613e-07
-0.00015888569
3.9986182e-07
-0.00015920922
4.4199207e-07
-0.00015956136
4.8587559e-07
-0.00015994281
5.3117275e-07
-0.00016035397
5.7747236e-07
-0.00016079492
6.2429427e-07
-0.00016126535
6.7109064e-07
-0.00016176457
7.1725128e-07
-0.00016229141
7.6211068e-07
-0.00016284425
8.0495908e-07
-0.00016342101
8.4505156e-07
-0.00016401908
8.8162593e-07
-0.00016463539
9.1391698e-07
-0.00016526639
9.411755e-07
-0.00016590811
9.6268734e-07
-0.00016655617
9.7779405e-07
-0.00016720586
9.8591498e-07
-0.00016785221
9.8656446e-07
-0.00016849004
9.7937536e-07
-0.0001691141
9.6411539e-07
-0.00016971914
9.4070246e-07
-0.00017030004
9.0921707e-07
-0.00017085188
8.6991026e-07
-0.00017137009
8.2320108e-07
-0.00017185055
7.6967405e-07
-0.00017228966
7.1006011e-07
-0.00017268443
6.4521511e-07
-0.00017303253
5.7607855e-07
-0.00017333232
5.0364451e-07
-0.00017358284
4.2888984e-07
-0.00017378376
3.5276484e-07
-0.00017393533
2.7607254e-07
-0.00017403829
1.9948267e-07
-0.00017409358
1.2329003e-07
-0.00017410209
4.7184839e-08
-0.00017406202
-2.9378913e-08
-0.0001739672
-1.111903e-07
-0.00017381517
-1.9992925e-07
-0.00017360761
-2.919687e-07
-0.00017334618
-3.845114e-07
-0.00017303544
-4.7307224e-07
-0.00017268417
-5.5119244e-07
-0.00017230759
-6.0944491e-07
-0.00017192984
-6.3481434e-07
-0.00017158618
-6.1103679e-07
-0.00017132655
-5.1811303e-07
-0.00017121774
-3.348214e-07
-0.00017134569
-3.5124642e-08
-0.00017177812
3.7240908e-07
-0.0001725368
8.5423487e-07
-0.00017365626
1.4038348e-06
-0.00017519105
2.0164996e-06
-0.00017718455
2.6817402e-06
-0.00017967475
3.3967419e-06
-0.00018269509
4.1630677e-06
-0.00018627927
4.9918445e-06
-0.00019046325
5.8987399e-06
-0.00019528793
6.910531e-06
-0.00020079818
8.0547377e-06
-0.00020704317
9.3730782e-06
-0.00021407077
1.0898794e-05
-0.00022192555
1.2685344e-05
-0.00023063603
1.4755488e-05
-0.00024021148
1.7163784e-05
-0.00025061607
1.9882113e-05
-0.00026176903
2.2945782e-05
-0.00027348965
2.619139e-05
-0.00028551995
2.9631031e-05
-0.00029738964
3.278451e-05
-0.00030853877
3.5775547e-05
-0.0003179693
3.7199409e-05
-0.0003246243
3.8187236e-05
-0.00032738115
3.3213126e-05
3.0478155e-05
-0.00023300634
4.6439593e-08
-0.00023302276
2.6911299e-08
-0.00023303928
2.7581902e-08
-0.00023305449
2.2131423e-08
-0.0002330697
2.0161001e-08
-0.0002330844
1.8402178e-08
-0.00023309928
1.6514131e-08
-0.00023311415
1.5827061e-08
-0.00023312937
1.4517841e-08
-0.00023314493
1.4245832e-08
-0.00023316111
1.3546052e-08
-0.00023317802
1.3581274e-08
-0.00023319587
1.3436482e-08
-0.00023321481
1.3817373e-08
-0.00023323502
1.4213309e-08
-0.00023325667
1.5029889e-08
-0.00023327996
1.6005043e-08
-0.0002333051
1.7373311e-08
-0.00023333231
1.9016881e-08
-0.00023336183
2.1081692e-08
-0.00023339392
2.3533633e-08
-0.00023342887
2.6478356e-08
-0.00023346697
2.9933042e-08
-0.00023350857
3.3990543e-08
-0.00023355402
3.8702997e-08
-0.0002336037
4.4165905e-08
-0.00023365804
5.045838e-08
-0.00023371748
5.7684966e-08
-0.00023378256
6.5947658e-08
-0.00023385392
7.5376479e-08
-0.00023393223
8.6103814e-08
-0.0002340182
9.8278695e-08
-0.0002341126
1.1206023e-07
-0.00023421625
1.2762493e-07
-0.00023433005
1.4516156e-07
-0.00023445494
1.6487348e-07
-0.00023459195
1.8696749e-07
-0.00023474215
2.116554e-07
-0.00023490672
2.3916207e-07
-0.00023508695
2.6968286e-07
-0.00023528415
3.0339847e-07
-0.00023549965
3.4048044e-07
-0.00023573483
3.8110072e-07
-0.00023599108
4.2539418e-07
-0.00023626979
4.7346262e-07
-0.00023657236
5.2535901e-07
-0.0002369001
5.8108017e-07
-0.00023725428
6.4055631e-07
-0.00023763604
7.0363917e-07
-0.00023804637
7.700945e-07
-0.0002384861
8.3959188e-07
-0.00023895581
9.1169765e-07
-0.0002394558
9.8586907e-07
-0.00023998608
1.0614531e-06
-0.00024054629
1.1376823e-06
-0.00024113568
1.2136825e-06
-0.00024175307
1.2884771e-06
-0.00024239681
1.3609984e-06
-0.00024306481
1.4301023e-06
-0.00024375444
1.4945894e-06
-0.00024446261
1.553222e-06
-0.00024518574
1.6047563e-06
-0.00024591979
1.6479679e-06
-0.0002466603
1.6816845e-06
-0.00024740243
1.7048188e-06
-0.00024814104
1.7164022e-06
-0.00024887074
1.7156221e-06
-0.00024958603
1.7018488e-06
-0.00025028133
1.6746726e-06
-0.00025095114
1.6339289e-06
-0.00025159016
1.5797204e-06
-0.00025219337
1.5124334e-06
-0.00025275621
1.4327461e-06
-0.00025327463
1.3416201e-06
-0.00025374524
1.2402871e-06
-0.00025416539
1.1302126e-06
-0.00025453323
1.013047e-06
-0.0002548477
8.9055229e-07
-0.00025510858
7.6452992e-07
-0.0002553164
6.3670243e-07
-0.0002554723
5.0866454e-07
-0.00025557792
3.8169532e-07
-0.00025563527
2.5683306e-07
-0.00025564621
1.3423072e-07
-0.00025561303
1.4003546e-08
-0.00025553409
-1.0831808e-07
-0.0002554114
-2.338801e-07
-0.00025525271
-3.5861866e-07
-0.00025506445
-4.8022734e-07
-0.00025485529
-5.9366969e-07
-0.00025463714
-6.9122793e-07
-0.00025442701
-7.6131941e-07
-0.0002542485
-7.8795501e-07
-0.00025413276
-7.505586e-07
-0.0002541198
-6.2399738e-07
-0.00025425578
-3.8213463e-07
-0.00025459269
2.089041e-09
-0.0002551541
5.2629395e-07
-0.00025595523
1.1735335e-06
-0.00025704489
1.9438936e-06
-0.00025847387
2.8328209e-06
-0.00026028264
3.8252659e-06
-0.00026250126
4.9003628e-06
-0.00026514833
6.0438104e-06
-0.00026823345
7.248191e-06
-0.00027175816
8.5165526e-06
-0.00027571739
9.8579653e-06
-0.00028009957
1.1292712e-05
-0.00028488638
1.2841551e-05
-0.00029005036
1.4537057e-05
-0.0002955523
1.6400738e-05
-0.00030133553
1.8468571e-05
-0.00030732132
2.074128e-05
-0.00031339996
2.3242417e-05
-0.00031942554
2.5907695e-05
-0.00032520595
2.8726191e-05
-0.00033049786
3.1483299e-05
-0.00033500276
3.413594e-05
-0.00033835843
3.6140172e-05
-0.00034015546
3.7572583e-05
-0.00033995842
3.7002363e-05
-0.00033719322
3.5422043e-05
-0.00033227697
2.829687e-05
2.0781986e-05
-0.00028279227
6.9562558e-08
-0.0002828163
5.094175e-08
-0.00028284123
5.2517578e-08
-0.00028286624
4.7143662e-08
-0.00028289228
4.620108e-08
-0.00028291885
4.4968106e-08
-0.00028294665
4.4314467e-08
-0.0002829755
4.4676249e-08
-0.00028300588
4.489521e-08
-0.00028303779
4.6156112e-08
-0.00028307159
4.7352947e-08
-0.00028310743
4.9413351e-08
-0.00028314558
5.1594797e-08
-0.00028318627
5.4498951e-08
-0.00028322976
5.7705992e-08
-0.00028327631
6.158183e-08
-0.00028332622
6.5918098e-08
-0.00028337979
7.0941902e-08
-0.00028343735
7.6572905e-08
-0.00028349923
8.2966966e-08
-0.00028356582
9.0121428e-08
-0.0002836375
9.8162225e-08
-0.00028371471
1.0713697e-07
-0.00028379788
1.171658e-07
-0.00028388751
1.2833267e-07
-0.00028398411
1.407658e-07
-0.00028408823
1.5457882e-07
-0.00028420047
1.6991706e-07
-0.00028432145
1.8693202e-07
-0.00028445187
2.0579823e-07
-0.00028459245
2.2668107e-07
-0.00028474394
2.4977443e-07
-0.00028490717
2.7528281e-07
-0.00028508297
3.0342514e-07
-0.00028527224
3.344372e-07
-0.00028547593
3.6855942e-07
-0.000285695
4.0604337e-07
-0.00028593048
4.4713174e-07
-0.00028618338
4.9206135e-07
-0.00028645474
5.4103869e-07
-0.00028674561
5.9427618e-07
-0.00028705708
6.5194321e-07
-0.00028739017
7.1419349e-07
-0.0002877459
7.8112417e-07
-0.00028812522
8.5278022e-07
-0.00028852899
9.2913556e-07
-0.000288958
1.0100821e-06
-0.00028941286
1.095418e-06
-0.00028989405
1.1848317e-06
-0.00029040185
1.2778943e-06
-0.00029093631
1.3740477e-06
-0.0002914972
1.472597e-06
-0.00029208404
1.5727054e-06
-0.00029269598
1.6733953e-06
-0.00029333185
1.7735452e-06
-0.00029399007
1.871903e-06
-0.00029466868
1.9670948e-06
-0.00029536533
2.0576433e-06
-0.00029607722
2.1419894e-06
-0.00029680115
2.2185245e-06
-0.00029753354
2.285614e-06
-0.00029827043
2.3416442e-06
-0.00029900752
2.3850573e-06
-0.00029974023
2.4143974e-06
-0.00030046377
2.4283548e-06
-0.00030117318
2.4258131e-06
-0.00030186346
2.4058981e-06
-0.00030252962
2.3680142e-06
-0.00030316684
2.3118934e-06
-0.00030377054
2.2376277e-06
-0.00030433652
2.1456957e-06
-0.00030486107
2.0369824e-06
-0.0003053411
1.9127847e-06
-0.00030577428
1.7747936e-06
-0.00030615906
1.6250662e-06
-0.00030649481
1.465968e-06
-0.00030678185
1.3000874e-06
-0.00030702143
1.1301261e-06
-0.00030721567
9.5877169e-07
-0.0003073675
7.8853105e-07
-0.00030748045
6.2161423e-07
-0.00030755849
4.5973778e-07
-0.00030760581
3.0414962e-07
-0.00030762684
1.5526486e-07
-0.00030762617
1.3332894e-08
-0.00030761071
-1.2377468e-07
-0.00030758914
-2.5545534e-07
-0.00030756923
-3.7852413e-07
-0.00030755901
-4.9044711e-07
-0.00030756778
-5.8490571e-07
-0.00030760672
-6.5228104e-07
-0.00030768942
-6.7862532e-07
-0.00030783178
-6.4558679e-07
-0.00030805176
-5.3058444e-07
-0.0003083663
-3.0946021e-07
-0.00030879129
4.2861015e-08
-0.00030932497
5.3576529e-07
-0.00030997266
1.1739904e-06
-0.00031076917
1.9700432e-06
-0.00031174948
2.9241945e-06
-0.00031293777
4.0211202e-06
-0.00031434919
5.2366805e-06
-0.00031599441
6.5455806e-06
-0.0003178773
7.9267083e-06
-0.0003199936
9.3644877e-06
-0.0003223304
1.0853353e-05
-0.00032486634
1.2393908e-05
-0.00032757098
1.3997345e-05
-0.00033040475
1.5675324e-05
-0.00033331654
1.7448851e-05
-0.00033624293
1.9327122e-05
-0.00033910299
2.1328628e-05
-0.00034179812
2.3436415e-05
-0.00034420457
2.5648864e-05
-0.00034617793
2.788106e-05
-0.00034754546
3.0093715e-05
-0.00034812371
3.2061551e-05
-0.00034771212
3.3724349e-05
-0.00034614649
3.4574541e-05
-0.0003432695
3.4695595e-05
-0.00033916239
3.2895257e-05
-0.00033378119
3.0040839e-05
-0.00032844832
2.2964001e-05
1.4914267e-05
-0.00031058883
9.7326936e-08
-0.00031061973
8.1839959e-08
-0.00031065208
8.4862951e-08
-0.00031068582
8.0884422e-08
-0.00031072141
8.179591e-08
-0.00031075857
8.2126233e-08
-0.0003107979
8.364699e-08
-0.00031083931
8.608818e-08
-0.0003108833
8.8884211e-08
-0.00031092994
9.2795662e-08
-0.00031097963
9.7037787e-08
-0.00031103254
1.0232611e-07
-0.00031108905
1.081011e-07
-0.00031114941
1.1486213e-07
-0.00031121399
1.2228977e-07
-0.00031128312
1.3070919e-07
-0.00031135717
1.3997165e-07
-0.00031143653
1.5029641e-07
-0.0003115216
1.6164387e-07
-0.00031161281
1.7417967e-07
-0.00031171062
1.879337e-07
-0.00031181551
2.0305161e-07
-0.00031192799
2.1961057e-07
-0.00031204858
2.3775652e-07
-0.00031217785
2.5760247e-07
-0.00031231639
2.7930654e-07
-0.00031246482
3.0301203e-07
-0.0003126238
3.2889526e-07
-0.000312794
3.5712799e-07
-0.00031297611
3.8791319e-07
-0.00031317088
4.2144742e-07
-0.00031337906
4.5795404e-07
-0.00031360143
4.9766022e-07
-0.00031383881
5.4080039e-07
-0.000314092
5.8762743e-07
-0.00031436182
6.3838404e-07
-0.00031464911
6.9332643e-07
-0.00031495466
7.5268482e-07
-0.00031527929
8.1669645e-07
-0.0003156238
8.8554539e-07
-0.00031598893
9.5940742e-07
-0.00031637538
1.0383945e-06
-0.00031678379
1.1225955e-06
-0.00031721468
1.21202e-06
-0.00031766851
1.3066081e-06
-0.00031814558
1.4062074e-06
-0.00031864606
1.5105608e-06
-0.00031916994
1.6192945e-06
-0.00031971701
1.7319002e-06
-0.00032028684
1.8477282e-06
-0.00032087877
1.9659759e-06
-0.00032149185
2.0856814e-06
-0.00032212487
2.2057196e-06
-0.00032277628
2.3248078e-06
-0.00032344424
2.4415035e-06
-0.00032412656
2.5542249e-06
-0.00032482073
2.6612642e-06
-0.0003255239
2.7608126e-06
-0.0003262329
2.8509889e-06
-0.00032694425
2.929882e-06
-0.00032765422
2.9955807e-06
-0.00032835881
3.0462323e-06
-0.00032905384
3.0800881e-06
-0.000329735
3.0955588e-06
-0.00033039792
3.0912707e-06
-0.00033103823
3.0661226e-06
-0.00033165168
3.0193473e-06
-0.00033223422
2.9505548e-06
-0.00033278212
2.8597925e-06
-0.00033329207
2.7475837e-06
-0.00033376133
2.6149581e-06
-0.00033418782
2.4634733e-06
-0.00033457025
2.2952144e-06
-0.00033490823
2.1127658e-06
-0.00033520232
1.9191625e-06
-0.00033545416
1.7178062e-06
-0.00033566641
1.5123367e-06
-0.00033584276
1.3064805e-06
-0.00033598785
1.1038603e-06
-0.0003361071
9.0778019e-07
-0.00033620653
7.2103709e-07
-0.0003362925
5.4570895e-07
-0.00033637145
3.8310668e-07
-0.00033644988
2.3368716e-07
-0.00033653379
9.7245791e-08
-0.00033663161
-2.5948782e-08
-0.0003367508
-1.3627318e-07
-0.00033689572
-2.3359775e-07
-0.00033707119
-3.1498243e-07
-0.00033728144
-3.7465832e-07
-0.00033753047
-4.0324288e-07
-0.00033782191
-3.871893e-07
-0.00033815858
-3.0891694e-07
-0.00033854162
-1.4754297e-07
-0.00033896989
1.1880903e-07
-0.00033943542
5.0838811e-07
-0.00033993854
1.038886e-06
-0.00034049391
1.7293614e-06
-0.00034111235
2.5884888e-06
-0.00034179772
3.6095554e-06
-0.00034255253
4.7759305e-06
-0.00034338025
6.0644017e-06
-0.00034428225
7.4475827e-06
-0.0003452563
8.900763e-06
-0.00034629535
1.0403532e-05
-0.000347386
1.1944002e-05
-0.00034850805
1.3515961e-05
-0.00034963313
1.5122423e-05
-0.0003507246
1.6766796e-05
-0.00035173553
1.8459781e-05
-0.00035260922
2.0200815e-05
-0.00035327609
2.1995497e-05
-0.00035365664
2.3816961e-05
-0.00035365779
2.5650021e-05
-0.00035318278
2.7406043e-05
-0.00035212732
2.9038259e-05
-0.00035040448
3.0338714e-05
-0.0003479341
3.1253966e-05
-0.00034470494
3.1345378e-05
-0.00034070838
3.0699035e-05
-0.00033616835
2.8355224e-05
-0.0003311242
2.4996689e-05
-0.00032664818
1.8487986e-05
1.0846687e-05
-0.00032411899
1.2904077e-07
-0.00032415518
1.1803254e-07
-0.00032419314
1.2281408e-07
-0.00032423351
1.2126023e-07
-0.00032427634
1.2462195e-07
-0.00032432158
1.2737001e-07
-0.0003243697
1.3176236e-07
-0.0003244207
1.3709204e-07
-0.00032447505
1.4323627e-07
-0.0003245329
1.5063878e-07
-0.00032459465
1.5879377e-07
-0.00032466057
1.6824043e-07
-0.00032473104
1.785776e-07
-0.0003248064
1.9022106e-07
-0.00032488705
2.0294247e-07
-0.00032497338
2.1703558e-07
-0.00032506582
2.3240795e-07
-0.0003251648
2.4927541e-07
-0.00032527079
2.6763737e-07
-0.00032538428
2.8767079e-07
-0.00032550578
3.0943613e-07
-0.00032563583
3.33098e-07
-0.00032577498
3.5875964e-07
-0.00032592381
3.8658956e-07
-0.00032608293
4.1672382e-07
-0.00032625297
4.4934415e-07
-0.00032643457
4.8461424e-07
-0.00032662841
5.2273447e-07
-0.00032683518
5.638947e-07
-0.00032705558
6.0831624e-07
-0.00032729034
6.5620449e-07
-0.00032754018
7.0779462e-07
-0.00032780584
7.6331881e-07
-0.00032808804
8.2300659e-07
-0.00032838752
8.8710728e-07
-0.00032870498
9.5584184e-07
-0.0003290411
1.0294463e-06
-0.00032939653
1.1081093e-06
-0.00032977185
1.192022e-06
-0.00033016761
1.2813042e-06
-0.00033058427
1.3760711e-06
-0.00033102222
1.4763429e-06
-0.00033148174
1.5821088e-06
-0.00033196297
1.6932555e-06
-0.00033246595
1.8095838e-06
-0.00033299052
1.9307836e-06
-0.00033353638
2.0564209e-06
-0.00033410302
2.1859278e-06
-0.0003346897
2.3185816e-06
-0.00033529547
2.4535029e-06
-0.00033591914
2.5896431e-06
-0.00033655924
2.725781e-06
-0.00033721404
2.8605211e-06
-0.00033788154
2.9923045e-06
-0.00033855944
3.1194075e-06
-0.00033924519
3.2399697e-06
-0.00033993593
3.3520116e-06
-0.00034062859
3.4534659e-06
-0.00034131981
3.5422127e-06
-0.00034200606
3.616131e-06
-0.00034268361
3.673133e-06
-0.00034334861
3.7112352e-06
-0.00034399714
3.7286102e-06
-0.00034462523
3.7236528e-06
-0.000345229
3.6950443e-06
-0.0003458047
3.6418201e-06
-0.00034634879
3.5634402e-06
-0.00034685808
3.4598401e-06
-0.00034732979
3.3314986e-06
-0.00034776169
3.1794832e-06
-0.00034815221
3.005481e-06
-0.00034850056
2.8118204e-06
-0.0003488068
2.6014621e-06
-0.000349072
2.3779581e-06
-0.00034929821
2.1453772e-06
-0.0003494886
1.9081915e-06
-0.00034964736
1.6710985e-06
-0.0003497797
1.4388225e-06
-0.00034989169
1.2158547e-06
-0.0003499901
1.0061867e-06
-0.00035008211
8.1304401e-07
-0.00035017506
6.3865834e-07
-0.00035027608
4.8413538e-07
-0.00035039188
3.49479e-07
-0.00035052835
2.3371695e-07
-0.00035069045
1.361575e-07
-0.00035088241
5.5685485e-08
-0.00035110704
-8.968547e-09
-0.00035136534
-5.6686988e-08
-0.000351657
-8.299703e-08
-0.00035198043
-7.9814368e-08
-0.00035233266
-3.495989e-08
-0.00035270896
6.7386805e-08
-0.00035310255
2.4604895e-07
-0.00035350551
5.2177099e-07
-0.00035391281
9.1568602e-07
-0.00035432249
1.4485658e-06
-0.00035472891
2.1357809e-06
-0.00035512312
2.9826943e-06
-0.00035549826
3.9846947e-06
-0.00035584896
5.1266308e-06
-0.00035617059
6.3860304e-06
-0.00035645983
7.7368264e-06
-0.00035671304
9.1539711e-06
-0.00035692482
1.0615319e-05
-0.00035708632
1.2105496e-05
-0.00035718413
1.3613772e-05
-0.00035719884
1.5137133e-05
-0.00035710482
1.6672782e-05
-0.00035686871
1.8223664e-05
-0.00035645045
1.9782557e-05
-0.00035580154
2.1346584e-05
-0.0003548689
2.2884321e-05
-0.0003535929
2.4374023e-05
-0.00035191777
2.5730914e-05
-0.00034978829
2.6908781e-05
-0.00034717446
2.7724882e-05
-0.00034405669
2.8136193e-05
-0.00034049012
2.7778809e-05
-0.00033652538
2.6734294e-05
-0.00033243441
2.4264261e-05
-0.00032832269
2.0884967e-05
-0.00032501633
1.5181625e-05
8.4109591e-06
-0.00032993174
1.6374555e-07
-0.00032997146
1.5774595e-07
-0.00033001302
1.6437145e-07
-0.00033005764
1.6588808e-07
-0.00033010503
1.7201279e-07
-0.00033015542
1.7775172e-07
-0.0003302091
1.8544383e-07
-0.00033026622
1.9421202e-07
-0.00033032719
2.0420527e-07
-0.00033039221
2.1566671e-07
-0.00033046171
2.282926e-07
-0.00033053597
2.4249922e-07
-0.00033061541
2.5801492e-07
-0.00033070038
2.7519489e-07
-0.00033079133
2.9389009e-07
-0.00033088867
3.1437292e-07
-0.00033099286
3.3660188e-07
-0.00033110438
3.607937e-07
-0.00033122373
3.8698386e-07
-0.00033135142
4.1536215e-07
-0.000331488
4.4601719e-07
-0.00033163403
4.7913229e-07
-0.00033179011
5.148341e-07
-0.00033195683
5.5331194e-07
-0.00033213483
5.9472138e-07
-0.00033232475
6.3926433e-07
-0.00033252725
6.871192e-07
-0.00033274302
7.3850267e-07
-0.00033297274
7.9361124e-07
-0.0003332171
8.5267684e-07
-0.0003334768
9.1590598e-07
-0.00033375254
9.8353459e-07
-0.00033404501
1.0557868e-06
-0.00033435487
1.132872e-06
-0.00033468279
1.2150198e-06
-0.00033502936
1.3024116e-06
-0.00033539515
1.3952451e-06
-0.00033578069
1.4936482e-06
-0.00033618643
1.5977547e-06
-0.00033661272
1.7076002e-06
-0.00033705986
1.8232124e-06
-0.00033752802
1.9444967e-06
-0.00033801723
2.0713221e-06
-0.00033852741
2.2034332e-06
-0.0003390583
2.3404743e-06
-0.00033960948
2.4819624e-06
-0.00034018033
2.6272746e-06
-0.00034077004
2.7756402e-06
-0.00034137758
2.9261182e-06
-0.00034200168
3.0776e-06
-0.00034264083
3.2287971e-06
-0.00034329329
3.3782411e-06
-0.00034395705
3.5242848e-06
-0.00034462987
3.6651176e-06
-0.00034530923
3.7987657e-06
-0.00034599238
3.9231276e-06
-0.00034667637
4.0359956e-06
-0.00034735799
4.1350925e-06
-0.00034803389
4.2181133e-06
-0.00034870055
4.2827842e-06
-0.00034935432
4.3269015e-06
-0.00034999149
4.3484128e-06
-0.00035060836
4.3454748e-06
-0.00035120123
4.3165287e-06
-0.00035176656
4.2603718e-06
-0.00035230098
4.176234e-06
-0.00035280139
4.0638559e-06
-0.0003532651
3.9235456e-06
-0.00035368985
3.756254e-06
-0.00035407399
3.5636232e-06
-0.00035441653
3.3480167e-06
-0.00035471725
3.1125395e-06
-0.0003549768
2.8610174e-06
-0.00035519679
2.5979414e-06
-0.00035537977
2.3283658e-06
-0.00035552935
2.0577644e-06
-0.00035565005
1.7918029e-06
-0.00035574733
1.5360959e-06
-0.00035582735
1.2958778e-06
-0.00035589685
1.0756905e-06
-0.00035596285
8.7904333e-07
-0.00035603236
7.0817051e-07
-0.00035611207
5.638375e-07
-0.00035620802
4.4543034e-07
-0.00035632534
3.5104019e-07
-0.00035646765
2.7846947e-07
-0.00035663707
2.2510456e-07
-0.0003568346
1.8855819e-07
-0.00035705985
1.6855978e-07
-0.0003573108
1.679573e-07
-0.00035758386
1.9325087e-07
-0.00035787391
2.5508466e-07
-0.00035817451
3.6798732e-07
-0.00035847826
5.4979592e-07
-0.000358777
8.205169e-07
-0.00035906214
1.20082e-06
-0.00035932241
1.7088356e-06
-0.00035954471
2.3580798e-06
-0.00035971635
3.1543411e-06
-0.000359825
4.0933425e-06
-0.00035986061
5.1622377e-06
-0.00035981632
6.3417469e-06
-0.00035968779
7.608296e-06
-0.00035947222
8.9383995e-06
-0.00035916713
1.031023e-05
-0.00035876869
1.1707051e-05
-0.00035827055
1.3115638e-05
-0.00035766233
1.4528912e-05
-0.00035692926
1.5939711e-05
-0.00035605095
1.734535e-05
-0.00035500256
1.8734167e-05
-0.00035375375
2.0097772e-05
-0.0003522726
2.1403172e-05
-0.00035052435
2.2625773e-05
-0.00034848082
2.3687382e-05
-0.00034611641
2.4544375e-05
-0.00034342953
2.5038004e-05
-0.00034042401
2.5130667e-05
-0.00033716611
2.4520913e-05
-0.0003337042
2.3272388e-05
-0.00033026288
2.0822937e-05
-0.00032692841
1.75505e-05
-0.00032431274
1.2565951e-05
6.6790207e-06
-0.00033215934
2.0033952e-07
-0.00033220091
1.9931289e-07
-0.00033224433
2.0779227e-07
-0.00033229116
2.1271392e-07
-0.00033234088
2.2173473e-07
-0.00033239393
2.3079903e-07
-0.00033245048
2.4200181e-07
-0.00033251079
2.5451795e-07
-0.0003325752
2.6861516e-07
-0.00033264397
2.8444156e-07
-0.00033271751
3.0183143e-07
-0.00033279614
3.2112412e-07
-0.00033288027
3.42147e-07
-0.00033297029
3.6521592e-07
-0.00033306665
3.9024739e-07
-0.00033316978
4.1750234e-07
-0.00033328016
4.4698401e-07
-0.00033339828
4.7891448e-07
-0.00033352466
5.1336212e-07
-0.00033365983
5.5053113e-07
-0.00033380435
5.905361e-07
-0.00033395879
6.3357887e-07
-0.00033412377
6.7980719e-07
-0.00033429988
7.2942975e-07
-0.00033448778
7.8261866e-07
-0.00033468811
8.395935e-07
-0.00033490154
9.0054395e-07
-0.00033512873
9.6570059e-07
-0.00033537039
1.0352638e-06
-0.00033562718
1.1094712e-06
-0.0003358998
1.1885229e-06
-0.00033618891
1.2726492e-06
-0.00033649518
1.3620594e-06
-0.00033681925
1.4569358e-06
-0.00033716171
1.5574811e-06
-0.00033752313
1.6638291e-06
-0.00033790401
1.7761304e-06
-0.00033830481
1.8944423e-06
-0.00033872588
2.0188273e-06
-0.0003391675
2.1492256e-06
-0.00033962986
2.2855703e-06
-0.00034011301
2.4276432e-06
-0.00034061687
2.5751855e-06
-0.00034114123
2.7277919e-06
-0.0003416857
2.884944e-06
-0.00034224972
3.0459815e-06
-0.00034283253
3.2100896e-06
-0.00034343319
3.3762939e-06
-0.00034405051
3.5434374e-06
-0.00034468309
3.7101862e-06
-0.00034532932
3.8750194e-06
-0.00034598731
4.0362316e-06
-0.00034665496
4.191936e-06
-0.00034732993
4.3400858e-06
-0.00034800963
4.4784749e-06
-0.00034869129
4.6047805e-06
-0.00034937188
4.7165877e-06
-0.00035004822
4.8114324e-06
-0.00035071695
4.886847e-06
-0.0003513746
4.940428e-06
-0.00035201757
4.9698775e-06
-0.00035264225
4.9730948e-06
-0.00035324502
4.948239e-06
-0.0003538223
4.8938125e-06
-0.00035437067
4.8087394e-06
-0.00035488689
4.6924492e-06
-0.00035536799
4.5449623e-06
-0.0003558114
4.366951e-06
-0.00035621496
4.1598197e-06
-0.0003565771
3.9257561e-06
-0.00035689684
3.6677578e-06
-0.00035717395
3.3896501e-06
-0.00035740898
3.0960514e-06
-0.00035760334
2.7923044e-06
-0.00035775932
2.4843459e-06
-0.0003578801
2.1785388e-06
-0.00035796969
1.8813974e-06
-0.00035803291
1.5993122e-06
-0.00035807519
1.3381603e-06
-0.00035810246
1.1029627e-06
-0.0003581209
8.9748035e-07
-0.0003581367
7.2396653e-07
-0.00035815578
5.8291996e-07
-0.00035818356
4.7320783e-07
-0.00035822465
3.9213777e-07
-0.00035828252
3.363335e-07
-0.00035835936
3.0194161e-07
-0.00035845636
2.8555883e-07
-0.00035857347
2.8567625e-07
-0.00035870922
3.0370311e-07
-0.00035886058
3.4461061e-07
-0.000359023
4.1750408e-07
-0.00035919039
5.3537702e-07
-0.00035935516
7.145705e-07
-0.0003595079
9.7325415e-07
-0.00035963699
1.3299086e-06
-0.00035972953
1.801376e-06
-0.00035977146
2.4000102e-06
-0.0003597482
3.1310853e-06
-0.00035964699
3.9921311e-06
-0.00035945751
4.9727603e-06
-0.00035917228
6.0565165e-06
-0.00035878696
7.2229702e-06
-0.00035829951
8.4509541e-06
-0.00035770927
9.7199914e-06
-0.00035701542
1.1013195e-05
-0.00035621585
1.231607e-05
-0.00035530575
1.3618809e-05
-0.00035427717
1.4911138e-05
-0.00035311798
1.6186161e-05
-0.00035181284
1.7429024e-05
-0.00035034239
1.862732e-05
-0.00034868671
1.9747496e-05
-0.00034682421
2.0763265e-05
-0.00034473989
2.1603066e-05
-0.00034242134
2.2225828e-05
-0.00033987837
2.2495034e-05
-0.00033712511
2.2377403e-05
-0.00033423288
2.1628685e-05
-0.00033125842
2.0297928e-05
-0.00032840414
1.7968657e-05
-0.00032576785
1.4914214e-05
-0.00032377892
1.0577016e-05
5.4807008e-06
-0.00033292765
2.3795449e-07
-0.00033296989
2.4155499e-07
-0.00033301397
2.518705e-07
-0.00033306156
2.6030182e-07
-0.00033311206
2.7223422e-07
-0.00033316604
2.8477942e-07
-0.0003332236
2.9956301e-07
-0.00033328505
3.1597568e-07
-0.00033335072
3.3427921e-07
-0.00033342089
3.5461247e-07
-0.00033349594
3.7688656e-07
-0.00033357623
4.0140559e-07
-0.00033366215
4.2806875e-07
-0.0003337541
4.5717195e-07
-0.00033385254
4.8868515e-07
-0.00033395791
5.2286664e-07
-0.00033407068
5.5975887e-07
-0.00033419136
5.9959316e-07
-0.00033432047
6.4246807e-07
-0.00033445854
6.8860387e-07
-0.00033460614
7.3813957e-07
-0.00033476386