/*--------------------------------*- C++ -*----------------------------------*\
| =========                 |                                                 |
| \\      /  F ield         | foam-extend: Open Source CFD                    |
|  \\    /   O peration     | Version:     4.1                                |
|   \\  /    A nd           | Web:         http://www.foam-extend.org         |
|    \\/     M anipulation  |                                                 |
\*---------------------------------------------------------------------------*/
FoamFile
{
    version     2.0;
    format      ascii;
    class       volScalarField;
    location    "0.8";
    object      rAU;
}
// * * * * * * * * * * * * * * * * * * * * * * * * * * * * * * * * * * * * * //

dimensions      [0 0 1 0 0 0 0];

internalField   nonuniform List<scalar> 
16126
(
0.00049495877
0.00049454053
0.00049454044
0.00049454043
0.00049454041
0.00049454043
0.00049454044
0.0004945405
0.00049454055
0.00049454065
0.00049454074
0.00049454088
0.00049454101
0.00049454119
0.00049454137
0.00049454158
0.0004945418
0.00049454206
0.00049454231
0.00049454261
0.0004945429
0.00049454324
0.00049454356
0.00049454393
0.00049454429
0.00049454469
0.00049454508
0.00049454549
0.00049454589
0.00049454632
0.00049454672
0.00049454712
0.00049454752
0.00049454788
0.00049454823
0.00049454851
0.00049454875
0.0004945489
0.0004945489
0.0004945487
0.00049454838
0.00049454786
0.00049454717
0.00049454625
0.00049454509
0.00049454366
0.00049454192
0.00049453985
0.00049453741
0.00049453458
0.00049453132
0.00049452761
0.00049452342
0.00049451873
0.00049451352
0.00049450778
0.0004945015
0.00049449467
0.0004944873
0.00049447941
0.00049447101
0.00049446213
0.00049445281
0.0004944431
0.00049443305
0.00049442273
0.0004944122
0.00049440155
0.00049439086
0.00049438021
0.0004943697
0.00049435942
0.00049434947
0.00049433992
0.00049433087
0.00049432238
0.00049431455
0.00049430741
0.00049430103
0.00049429545
0.00049429069
0.00049428679
0.00049428377
0.00049428164
0.00049428043
0.0004942801
0.0004942801
0.0004942806
0.0004942821
0.00049428473
0.00049428858
0.00049429366
0.00049429991
0.0004943072
0.00049431525
0.00049432362
0.00049433173
0.00049433883
0.00049434397
0.00049434296
0.00049433411
0.00049431908
0.00049429757
0.00049426923
0.00049423349
0.00049418946
0.00049413582
0.00049407059
0.00049399102
0.00049389325
0.00049377229
0.00049362143
0.00049343278
0.00049319616
0.00049290095
0.00049253412
0.00049208472
0.00049153923
0.0004908926
0.00049013338
0.0004892801
0.00048831478
0.000487386
0.00048591085
0.00049275039
0.00049233602
0.0004923357
0.00049233559
0.00049233543
0.00049233533
0.0004923352
0.00049233514
0.00049233502
0.00049233497
0.00049233485
0.00049233481
0.00049233473
0.0004923347
0.00049233463
0.00049233461
0.00049233455
0.00049233453
0.00049233447
0.00049233444
0.00049233436
0.00049233431
0.00049233419
0.0004923341
0.00049233393
0.00049233376
0.00049233351
0.00049233324
0.00049233283
0.00049233231
0.00049233164
0.00049233087
0.00049232998
0.00049232887
0.00049232763
0.00049232613
0.00049232444
0.00049232245
0.00049232016
0.00049231741
0.00049231433
0.00049231076
0.00049230673
0.00049230217
0.00049229703
0.00049229127
0.00049228482
0.00049227766
0.00049226972
0.00049226097
0.00049225137
0.00049224088
0.00049222947
0.00049221715
0.00049220387
0.00049218967
0.00049217453
0.00049215851
0.00049214163
0.00049212396
0.00049210557
0.00049208655
0.00049206701
0.00049204705
0.00049202682
0.00049200645
0.00049198611
0.00049196595
0.00049194614
0.00049192684
0.00049190823
0.00049189045
0.00049187367
0.00049185801
0.00049184361
0.00049183057
0.00049181898
0.00049180889
0.00049180035
0.00049179338
0.00049178798
0.00049178413
0.00049178181
0.00049178098
0.00049178162
0.00049178282
0.00049178356
0.00049178551
0.00049178909
0.00049179432
0.0004918012
0.00049180966
0.00049181952
0.00049183043
0.00049184183
0.00049185277
0.00049186186
0.00049186724
0.00049185513
0.0004918288
0.00049178835
0.00049173477
0.00049166669
0.00049158289
0.00049148215
0.0004913631
0.00049122425
0.0004910637
0.00049087937
0.00049066865
0.00049042907
0.0004901576
0.00048985227
0.00048951066
0.00048913349
0.00048872097
0.00048828071
0.00048781802
0.00048735548
0.00048690364
0.000486522
0.00048620623
0.00048615532
0.00048575121
0.00049037344
0.00048996301
0.00048996245
0.00048996215
0.00048996171
0.00048996133
0.0004899609
0.00048996049
0.00048996002
0.00048995958
0.00048995904
0.00048995856
0.00048995797
0.00048995742
0.00048995677
0.00048995613
0.00048995538
0.00048995464
0.00048995377
0.00048995289
0.00048995187
0.00048995083
0.00048994962
0.00048994838
0.00048994694
0.00048994545
0.00048994374
0.00048994194
0.00048993988
0.00048993762
0.00048993506
0.00048993227
0.00048992924
0.00048992582
0.00048992213
0.00048991799
0.0004899135
0.00048990849
0.00048990306
0.00048989703
0.00048989048
0.00048988325
0.00048987539
0.0004898668
0.00048985744
0.00048984728
0.00048983627
0.00048982437
0.00048981155
0.00048979778
0.00048978303
0.00048976731
0.0004897506
0.00048973292
0.00048971429
0.00048969475
0.00048967436
0.00048965317
0.00048963128
0.0004896088
0.00048958583
0.00048956251
0.00048953899
0.00048951542
0.00048949199
0.00048946886
0.00048944622
0.00048942426
0.00048940315
0.00048938307
0.00048936419
0.00048934665
0.0004893306
0.00048931613
0.00048930334
0.00048929229
0.000489283
0.00048927548
0.00048926971
0.00048926563
0.00048926319
0.00048926231
0.0004892629
0.00048926491
0.00048926826
0.00048926882
0.00048926873
0.00048926978
0.00048927183
0.00048927476
0.00048927847
0.00048928276
0.00048928742
0.00048929212
0.00048929641
0.00048929967
0.00048930113
0.00048928406
0.00048924827
0.00048920017
0.0004891396
0.00048906546
0.00048897717
0.00048887426
0.00048875641
0.00048862324
0.00048847446
0.00048830964
0.00048812852
0.00048793072
0.00048771645
0.00048748586
0.00048724069
0.00048698267
0.00048671711
0.00048644882
0.0004861901
0.00048594959
0.00048575272
0.000485608
0.00048557093
0.00048562464
0.00048592369
0.00048589639
0.00048884395
0.00048843592
0.0004884351
0.00048843454
0.00048843377
0.00048843305
0.00048843222
0.00048843139
0.00048843047
0.00048842954
0.00048842849
0.00048842743
0.00048842623
0.00048842501
0.00048842363
0.00048842222
0.00048842063
0.00048841898
0.00048841714
0.00048841522
0.00048841307
0.00048841083
0.00048840832
0.00048840569
0.00048840277
0.00048839969
0.00048839628
0.00048839266
0.00048838867
0.00048838444
0.00048837977
0.00048837477
0.0004883694
0.00048836351
0.00048835723
0.00048835037
0.00048834304
0.00048833505
0.00048832653
0.00048831726
0.00048830739
0.00048829672
0.00048828531
0.00048827309
0.00048826004
0.00048824613
0.00048823133
0.00048821563
0.00048819901
0.00048818149
0.00048816305
0.00048814373
0.00048812356
0.00048810258
0.00048808086
0.00048805846
0.00048803547
0.00048801201
0.00048798819
0.00048796415
0.00048794003
0.00048791599
0.0004878922
0.00048786883
0.00048784607
0.00048782409
0.00048780308
0.0004877832
0.00048776461
0.00048774746
0.00048773187
0.00048771793
0.00048770574
0.00048769532
0.00048768669
0.00048767983
0.00048767466
0.0004876711
0.00048766904
0.00048766831
0.00048766879
0.00048767029
0.00048767267
0.00048767577
0.00048767947
0.00048767659
0.00048767325
0.00048767012
0.00048766704
0.0004876639
0.00048766067
0.00048765735
0.00048765401
0.0004876508
0.00048764794
0.00048764453
0.00048762829
0.00048759273
0.00048754881
0.00048749556
0.00048743238
0.00048735926
0.00048727652
0.00048718451
0.00048708356
0.00048697401
0.00048685624
0.00048673057
0.00048659757
0.00048645785
0.00048631265
0.00048616337
0.00048601297
0.00048586448
0.00048572421
0.0004855977
0.00048549695
0.00048542927
0.00048541603
0.00048545965
0.00048560093
0.00048581136
0.0004861884
0.00048618989
0.00048799405
0.00048758721
0.00048758614
0.00048758531
0.00048758422
0.00048758317
0.00048758194
0.00048758071
0.00048757933
0.00048757791
0.00048757632
0.00048757469
0.00048757286
0.00048757097
0.00048756886
0.00048756668
0.00048756425
0.00048756173
0.00048755892
0.00048755599
0.00048755275
0.00048754936
0.00048754561
0.00048754168
0.00048753736
0.00048753281
0.00048752782
0.00048752256
0.00048751682
0.00048751074
0.00048750413
0.00048749709
0.00048748959
0.00048748146
0.00048747285
0.00048746356
0.00048745372
0.00048744312
0.00048743192
0.0004874199
0.00048740721
0.00048739367
0.00048737936
0.00048736421
0.00048734823
0.00048733139
0.0004873137
0.00048729518
0.00048727582
0.00048725567
0.00048723474
0.00048721311
0.00048719082
0.00048716796
0.00048714461
0.00048712088
0.0004870969
0.00048707278
0.00048704867
0.00048702473
0.00048700113
0.00048697802
0.0004869556
0.00048693402
0.00048691346
0.00048689409
0.00048687607
0.00048685954
0.00048684461
0.00048683138
0.00048681993
0.00048681028
0.00048680245
0.00048679639
0.00048679202
0.00048678921
0.00048678782
0.00048678764
0.00048678846
0.00048679003
0.0004867921
0.00048679442
0.00048679677
0.00048679893
0.00048680071
0.00048679733
0.00048679038
0.00048678305
0.00048677527
0.00048676708
0.00048675866
0.0004867503
0.00048674244
0.00048673568
0.0004867272
0.00048671189
0.00048668168
0.0004866455
0.00048660262
0.00048655291
0.00048649677
0.00048643483
0.0004863678
0.00048629643
0.00048622138
0.00048614324
0.00048606261
0.00048598001
0.0004858962
0.00048581198
0.00048572876
0.0004856481
0.00048557291
0.00048550604
0.00048545296
0.00048541802
0.00048541062
0.000485435
0.00048550684
0.00048562392
0.00048581558
0.00048605457
0.00048640454
0.00048636768
0.00048758109
0.00048717469
0.0004871734
0.00048717233
0.00048717096
0.00048716962
0.00048716807
0.00048716649
0.0004871647
0.00048716287
0.00048716082
0.0004871587
0.00048715634
0.00048715389
0.00048715117
0.00048714833
0.00048714519
0.00048714192
0.00048713831
0.00048713452
0.00048713036
0.000487126
0.00048712122
0.00048711619
0.00048711071
0.00048710492
0.00048709864
0.00048709201
0.00048708482
0.00048707723
0.00048706904
0.00048706034
0.0004870511
0.00048704117
0.0004870307
0.00048701947
0.00048700763
0.00048699499
0.00048698169
0.00048696753
0.00048695268
0.00048693695
0.00048692045
0.00048690312
0.00048688498
0.00048686603
0.00048684628
0.00048682579
0.00048680456
0.00048678266
0.00048676015
0.00048673709
0.00048671357
0.00048668971
0.00048666561
0.00048664139
0.00048661719
0.00048659316
0.00048656946
0.00048654626
0.00048652373
0.00048650203
0.00048648134
0.00048646183
0.00048644366
0.00048642697
0.0004864119
0.00048639855
0.00048638701
0.00048637732
0.00048636951
0.00048636354
0.00048635937
0.00048635688
0.0004863559
0.00048635625
0.00048635768
0.00048635992
0.0004863627
0.00048636568
0.00048636858
0.00048637111
0.000486373
0.00048637404
0.00048637406
0.00048637208
0.00048636629
0.00048635919
0.00048634994
0.00048634031
0.00048633061
0.00048632129
0.00048631094
0.00048629899
0.00048628324
0.00048625911
0.00048623063
0.00048619742
0.00048615947
0.0004861172
0.00048607126
0.0004860225
0.00048597186
0.0004859202
0.0004858683
0.00048581679
0.00048576627
0.00048571722
0.00048567033
0.00048562629
0.0004855863
0.00048555167
0.00048552481
0.00048550798
0.00048550552
0.00048552054
0.00048556021
0.00048562675
0.00048573178
0.00048587122
0.00048606593
0.00048629219
0.00048658977
0.000486491
0.00048740338
0.00048699702
0.00048699557
0.00048699431
0.00048699272
0.00048699115
0.00048698935
0.00048698749
0.00048698541
0.00048698326
0.00048698085
0.00048697836
0.00048697559
0.0004869727
0.0004869695
0.00048696616
0.00048696249
0.00048695863
0.00048695441
0.00048694997
0.00048694511
0.00048694001
0.00048693444
0.00048692858
0.00048692222
0.0004869155
0.00048690824
0.00048690058
0.00048689231
0.00048688359
0.0004868742
0.00048686426
0.00048685375
0.00048684248
0.00048683063
0.00048681798
0.00048680469
0.00048679056
0.00048677574
0.00048676005
0.00048674366
0.00048672638
0.00048670833
0.00048668949
0.00048666985
0.00048664946
0.00048662833
0.00048660652
0.00048658407
0.00048656106
0.00048653755
0.00048651364
0.00048648943
0.00048646505
0.0004864406
0.00048641624
0.00048639212
0.00048636839
0.00048634522
0.00048632278
0.00048630125
0.00048628079
0.00048626158
0.00048624377
0.00048622751
0.00048621293
0.00048620016
0.00048618925
0.00048618028
0.00048617325
0.00048616815
0.00048616491
0.00048616343
0.00048616355
0.00048616506
0.00048616773
0.00048617128
0.00048617538
0.00048617974
0.00048618402
0.00048618789
0.0004861911
0.00048619339
0.00048619459
0.00048619456
0.00048619322
0.00048619053
0.00048618621
0.0004861794
0.00048617179
0.00048616353
0.00048615473
0.00048614358
0.00048612897
0.00048611157
0.00048609101
0.000486067
0.00048603947
0.00048600863
0.00048597501
0.00048593935
0.00048590256
0.00048586554
0.00048582916
0.00048579415
0.0004857611
0.00048573051
0.00048570281
0.00048567852
0.00048565817
0.00048564272
0.00048563317
0.00048563145
0.00048563925
0.00048565998
0.00048569584
0.00048575239
0.00048583083
0.00048594019
0.00048607658
0.0004862556
0.00048645909
0.00048671146
0.00048656488
0.00048733464
0.0004869282
0.00048692663
0.00048692521
0.00048692347
0.00048692173
0.00048691974
0.00048691768
0.00048691538
0.00048691299
0.00048691033
0.00048690756
0.00048690449
0.00048690128
0.00048689774
0.00048689403
0.00048688996
0.00048688569
0.00048688101
0.00048687609
0.00048687073
0.00048686508
0.00048685894
0.00048685248
0.00048684547
0.00048683808
0.00048683011
0.0004868217
0.00048681265
0.00048680311
0.00048679287
0.00048678205
0.00048677061
0.00048675839
0.00048674555
0.00048673189
0.00048671756
0.00048670237
0.00048668649
0.00048666972
0.00048665223
0.00048663387
0.00048661475
0.00048659484
0.00048657418
0.00048655279
0.00048653071
0.000486508
0.00048648473
0.00048646096
0.00048643679
0.00048641232
0.00048638766
0.00048636295
0.0004863383
0.00048631388
0.00048628985
0.00048626636
0.00048624358
0.00048622171
0.0004862009
0.00048618133
0.00048616317
0.00048614656
0.00048613166
0.00048611857
0.00048610741
0.00048609823
0.00048609108
0.00048608595
0.0004860828
0.00048608154
0.00048608205
0.00048608414
0.00048608759
0.00048609215
0.0004860975
0.00048610335
0.00048610937
0.00048611524
0.00048612066
0.00048612538
0.0004861292
0.00048613196
0.00048613359
0.00048613404
0.00048613334
0.0004861315
0.00048612855
0.00048612444
0.00048611908
0.00048611227
0.00048610377
0.00048609327
0.00048608044
0.00048606501
0.00048604682
0.0004860259
0.00048600249
0.00048597712
0.00048595048
0.00048592339
0.00048589669
0.00048587116
0.00048584747
0.00048582616
0.0004858077
0.00048579245
0.00048578085
0.00048577338
0.00048577082
0.00048577403
0.00048578461
0.00048580395
0.00048583486
0.00048587906
0.00048594106
0.00048602157
0.00048612758
0.00048625549
0.00048641622
0.00048659542
0.00048680707
0.00048661742
0.00048731021
0.00048690363
0.00048690199
0.00048690044
0.00048689859
0.00048689672
0.00048689459
0.00048689239
0.00048688992
0.00048688736
0.00048688451
0.00048688153
0.00048687824
0.00048687479
0.000486871
0.00048686702
0.00048686266
0.00048685807
0.00048685306
0.00048684779
0.00048684205
0.000486836
0.00048682944
0.00048682253
0.00048681505
0.00048680716
0.00048679866
0.0004867897
0.00048678007
0.00048676993
0.00048675906
0.00048674758
0.00048673546
0.00048672254
0.00048670898
0.00048669457
0.00048667948
0.00048666352
0.00048664684
0.00048662927
0.00048661098
0.00048659182
0.00048657191
0.00048655121
0.00048652978
0.00048650765
0.00048648485
0.00048646147
0.00048643757
0.00048641322
0.00048638853
0.00048636361
0.00048633856
0.00048631355
0.00048628869
0.00048626416
0.0004862401
0.0004862167
0.00048619412
0.00048617256
0.00048615218
0.00048613316
0.00048611566
0.00048609984
0.00048608583
0.00048607376
0.00048606372
0.00048605577
0.00048604993
0.00048604621
0.00048604454
0.00048604483
0.00048604695
0.00048605071
0.00048605587
0.00048606217
0.00048606932
0.00048607701
0.00048608494
0.00048609279
0.00048610029
0.00048610722
0.00048611339
0.00048611868
0.00048612303
0.00048612644
0.00048612893
0.00048613054
0.00048613128
0.00048613111
0.00048612996
0.00048612763
0.00048612389
0.00048611846
0.00048611104
0.0004861014
0.00048608938
0.00048607501
0.00048605852
0.00048604035
0.00048602109
0.00048600147
0.00048598222
0.00048596403
0.00048594752
0.0004859332
0.00048592152
0.00048591283
0.0004859076
0.00048590626
0.00048590957
0.00048591831
0.00048593387
0.00048595749
0.00048599154
0.00048603744
0.0004860989
0.00048617642
0.00048627546
0.000486393
0.00048653665
0.00048669538
0.00048687624
0.00048665378
0.00048730182
0.00048689512
0.00048689342
0.00048689177
0.00048688983
0.00048688786
0.00048688562
0.00048688331
0.00048688071
0.00048687801
0.00048687501
0.00048687187
0.00048686841
0.00048686477
0.00048686078
0.00048685659
0.00048685199
0.00048684716
0.00048684189
0.00048683633
0.00048683029
0.00048682393
0.00048681703
0.00048680976
0.00048680191
0.00048679362
0.00048678471
0.00048677531
0.00048676522
0.00048675459
0.00048674322
0.00048673121
0.00048671855
0.00048670507
0.00048669092
0.00048667591
0.00048666021
0.00048664361
0.0004866263
0.00048660807
0.00048658913
0.00048656931
0.00048654873
0.00048652739
0.00048650531
0.00048648254
0.00048645913
0.00048643515
0.00048641068
0.0004863858
0.00048636062
0.00048633525
0.00048630981
0.00048628445
0.00048625932
0.00048623457
0.00048621038
0.00048618692
0.00048616437
0.00048614292
0.00048612275
0.00048610404
0.00048608695
0.00048607164
0.00048605826
0.00048604692
0.00048603773
0.00048603073
0.00048602596
0.00048602341
0.00048602302
0.00048602469
0.0004860283
0.00048603364
0.00048604049
0.00048604859
0.00048605765
0.00048606736
0.00048607745
0.0004860876
0.00048609756
0.00048610711
0.0004861161
0.00048612442
0.000486132
0.00048613886
0.00048614501
0.00048615048
0.00048615528
0.00048615937
0.00048616265
0.00048616494
0.000486166
0.00048616556
0.00048616332
0.00048615905
0.0004861526
0.00048614399
0.00048613338
0.00048612113
0.00048610776
0.00048609387
0.00048608011
0.0004860671
0.00048605544
0.00048604562
0.00048603811
0.00048603332
0.00048603172
0.00048603382
0.00048604035
0.00048605207
0.00048607025
0.000486096
0.00048613135
0.0004861775
0.0004862374
0.00048631136
0.00048640338
0.00048651078
0.00048663845
0.00048677775
0.00048693173
0.00048668139
0.00048729868
0.00048689187
0.00048689014
0.0004868884
0.00048688639
0.00048688433
0.000486882
0.00048687958
0.00048687688
0.00048687407
0.00048687094
0.00048686767
0.00048686405
0.00048686026
0.0004868561
0.00048685172
0.00048684693
0.00048684188
0.00048683638
0.00048683059
0.0004868243
0.00048681766
0.00048681048
0.0004868029
0.00048679472
0.0004867861
0.00048677682
0.00048676704
0.00048675655
0.00048674551
0.0004867337
0.00048672124
0.0004867081
0.00048669412
0.00048667947
0.00048666393
0.00048664768
0.00048663053
0.00048661264
0.00048659384
0.00048657431
0.00048655388
0.0004865327
0.00048651075
0.00048648807
0.0004864647
0.0004864407
0.00048641615
0.00048639112
0.0004863657
0.00048634
0.00048631414
0.00048628825
0.00048626249
0.00048623699
0.00048621194
0.0004861875
0.00048616385
0.00048614119
0.00048611971
0.00048609959
0.00048608102
0.00048606417
0.00048604921
0.00048603629
0.00048602552
0.00048601701
0.00048601083
0.00048600701
0.00048600553
0.00048600635
0.00048600937
0.00048601446
0.00048602142
0.00048603004
0.00048604004
0.00048605116
0.00048606309
0.00048607554
0.00048608823
0.0004861009
0.00048611334
0.0004861254
0.00048613654
0.00048614428
0.00048615262
0.00048616142
0.00048617052
0.0004861798
0.00048618914
0.00048619847
0.00048620773
0.00048621437
0.00048621847
0.00048622089
0.00048622138
0.00048621977
0.00048621606
0.00048621035
0.00048620293
0.00048619424
0.00048618479
0.00048617515
0.00048616592
0.00048615765
0.00048615084
0.000486146
0.00048614357
0.00048614407
0.00048614805
0.00048615623
0.00048616935
0.00048618859
0.00048621493
0.00048625012
0.00048629513
0.00048635236
0.00048642196
0.0004865069
0.00048660488
0.00048671891
0.00048684224
0.00048697526
0.00048670272
0.00048729713
0.00048689023
0.00048688846
0.00048688664
0.00048688458
0.00048688244
0.00048688003
0.00048687753
0.00048687473
0.00048687181
0.00048686857
0.00048686517
0.00048686143
0.00048685749
0.00048685317
0.00048684863
0.00048684366
0.00048683843
0.00048683272
0.00048682671
0.00048682019
0.0004868133
0.00048680586
0.000486798
0.00048678953
0.00048678059
0.00048677098
0.00048676086
0.00048675
0.00048673857
0.00048672636
0.00048671348
0.0004866999
0.00048668547
0.00048667033
0.0004866543
0.00048663754
0.00048661986
0.00048660143
0.00048658207
0.00048656197
0.00048654096
0.0004865192
0.00048649665
0.00048647336
0.00048644939
0.00048642479
0.00048639964
0.00048637402
0.00048634803
0.00048632177
0.00048629537
0.00048626897
0.00048624273
0.00048621679
0.00048619134
0.00048616655
0.00048614262
0.00048611974
0.00048609811
0.00048607793
0.00048605939
0.00048604267
0.00048602795
0.00048601538
0.0004860051
0.00048599721
0.00048599179
0.00048598887
0.00048598846
0.0004859905
0.00048599489
0.00048600152
0.00048601019
0.00048602068
0.00048603273
0.00048604607
0.00048606038
0.00048607539
0.0004860908
0.00048610635
0.00048612184
0.000486132
0.00048614085
0.00048614788
0.00048615696
0.00048616776
0.00048617996
0.00048619324
0.00048620741
0.00048622237
0.00048623815
0.00048625238
0.00048626544
0.00048627726
0.00048628173
0.00048628414
0.00048628446
0.00048628276
0.00048627928
0.00048627437
0.0004862685
0.00048626219
0.00048625599
0.00048625043
0.00048624605
0.00048624335
0.00048624284
0.00048624505
0.00048625057
0.0004862601
0.00048627436
0.00048629441
0.00048632112
0.00048635595
0.0004863997
0.00048645421
0.00048651947
0.00048659755
0.00048668642
0.00048678772
0.00048689618
0.00048701092
0.00048671972
0.00048729605
0.00048688907
0.00048688727
0.00048688538
0.00048688326
0.00048688105
0.00048687857
0.00048687599
0.0004868731
0.00048687008
0.00048686674
0.00048686323
0.00048685937
0.0004868553
0.00048685084
0.00048684614
0.00048684101
0.0004868356
0.0004868297
0.00048682349
0.00048681675
0.00048680964
0.00048680194
0.00048679383
0.00048678508
0.00048677585
0.00048676593
0.00048675547
0.00048674427
0.00048673248
0.00048671989
0.00048670661
0.00048669261
0.00048667773
0.00048666214
0.00048664563
0.00048662838
0.00048661018
0.00048659122
0.00048657131
0.00048655064
0.00048652906
0.0004865067
0.00048648355
0.00048645965
0.00048643506
0.00048640983
0.00048638406
0.00048635781
0.00048633119
0.00048630432
0.00048627733
0.00048625035
0.00048622355
0.00048619709
0.00048617116
0.00048614593
0.00048612162
0.00048609841
0.00048607654
0.00048605619
0.00048603758
0.0004860209
0.00048600633
0.00048599404
0.00048598417
0.00048597685
0.00048597215
0.00048597013
0.00048597077
0.00048597406
0.00048597988
0.00048598813
0.0004859986
0.00048601109
0.00048602532
0.00048604103
0.00048605789
0.00048607563
0.00048609392
0.00048611252
0.00048612338
0.00048612819
0.00048613392
0.00048614241
0.00048615336
0.00048616642
0.00048618123
0.00048619745
0.00048621482
0.00048623317
0.00048625245
0.00048627276
0.00048629432
0.00048631622
0.00048633265
0.00048634502
0.00048634869
0.0004863503
0.00048635004
0.00048634822
0.00048634525
0.00048634161
0.00048633783
0.00048633443
0.00048633194
0.00048633089
0.0004863318
0.00048633523
0.00048634177
0.00048635211
0.00048636693
0.00048638717
0.00048641361
0.00048644747
0.0004864894
0.00048654081
0.00048660162
0.00048667325
0.00048675394
0.00048684441
0.00048694046
0.00048704039
0.00048673374
0.00048729512
0.00048688808
0.00048688625
0.0004868843
0.00048688213
0.00048687985
0.00048687731
0.00048687465
0.00048687169
0.00048686858
0.00048686514
0.00048686153
0.00048685755
0.00048685336
0.00048684876
0.00048684392
0.00048683863
0.00048683306
0.00048682699
0.00048682059
0.00048681364
0.00048680631
0.00048679839
0.00048679002
0.00048678101
0.0004867715
0.00048676129
0.00048675052
0.00048673899
0.00048672685
0.00048671389
0.00048670022
0.00048668581
0.00048667051
0.00048665447
0.00048663749
0.00048661975
0.00048660104
0.00048658155
0.00048656109
0.00048653986
0.00048651769
0.00048649473
0.00048647096
0.00048644643
0.00048642119
0.0004863953
0.00048636886
0.00048634195
0.00048631466
0.00048628712
0.00048625947
0.00048623184
0.00048620441
0.00048617735
0.00048615084
0.00048612509
0.0004861003
0.00048607668
0.00048605446
0.00048603386
0.00048601509
0.00048599836
0.00048598386
0.00048597179
0.00048596228
0.00048595549
0.00048595149
0.00048595034
0.00048595207
0.00048595663
0.00048596394
0.00048597389
0.00048598628
0.00048600088
0.00048601744
0.00048603567
0.00048605525
0.00048607588
0.00048609722
0.00048611176
0.00048611375
0.00048611672
0.00048612308
0.0004861326
0.00048614497
0.00048615983
0.00048617679
0.00048619548
0.00048621559
0.00048623689
0.00048625926
0.0004862827
0.00048630735
0.00048633346
0.00048636135
0.00048638718
0.00048640653
0.00048641311
0.0004864155
0.00048641623
0.00048641568
0.00048641429
0.00048641257
0.00048641103
0.00048641019
0.0004864106
0.00048641279
0.00048641732
0.00048642477
0.0004864358
0.00048645106
0.00048647137
0.0004864974
0.00048653016
0.00048657013
0.00048661839
0.00048667476
0.00048674012
0.00048681295
0.00048689335
0.00048697802
0.00048706501
0.0004867453
0.00048729426
0.00048688717
0.00048688532
0.00048688331
0.0004868811
0.00048687876
0.00048687616
0.00048687343
0.0004868704
0.00048686721
0.00048686368
0.00048685997
0.00048685589
0.00048685158
0.00048684687
0.00048684189
0.00048683646
0.00048683073
0.0004868245
0.00048681791
0.00048681078
0.00048680324
0.0004867951
0.0004867865
0.00048677724
0.00048676746
0.00048675697
0.0004867459
0.00048673406
0.00048672158
0.00048670826
0.00048669422
0.00048667941
0.00048666369
0.00048664722
0.00048662978
0.00048661156
0.00048659234
0.00048657233
0.00048655132
0.00048652951
0.00048650675
0.00048648317
0.00048645876
0.00048643358
0.00048640766
0.00048638109
0.00048635395
0.00048632631
0.0004862983
0.00048627004
0.00048624166
0.00048621331
0.00048618518
0.00048615743
0.00048613026
0.00048610388
0.00048607852
0.00048605438
0.00048603173
0.00048601077
0.00048599174
0.00048597487
0.00048596036
0.00048594843
0.00048593922
0.00048593291
0.00048592958
0.00048592931
0.00048593213
0.000485938
0.00048594686
0.00048595858
0.00048597298
0.00048598983
0.00048600886
0.00048602977
0.00048605222
0.0004860759
0.00048609814
0.00048609992
0.00048609893
0.00048610183
0.00048610851
0.00048611872
0.00048613217
0.00048614848
0.00048616725
0.00048618807
0.00048621059
0.00048623453
0.0004862597
0.00048628602
0.00048631355
0.00048634244
0.00048637293
0.00048640529
0.00048643981
0.0004864637
0.00048647707
0.00048647988
0.00048648129
0.00048648171
0.00048648164
0.00048648156
0.00048648201
0.00048648352
0.00048648663
0.00048649189
0.00048649988
0.00048651122
0.00048652649
0.00048654645
0.00048657165
0.00048660294
0.00048664069
0.00048668569
0.00048673774
0.00048679733
0.00048686316
0.0004869349
0.00048700989
0.00048708604
0.0004867552
0.00048729348
0.00048688634
0.00048688447
0.00048688241
0.00048688016
0.00048687777
0.00048687512
0.00048687232
0.00048686922
0.00048686596
0.00048686235
0.00048685855
0.00048685437
0.00048684996
0.00048684513
0.00048684003
0.00048683447
0.00048682859
0.0004868222
0.00048681545
0.00048680814
0.00048680041
0.00048679206
0.00048678324
0.00048677374
0.00048676372
0.00048675295
0.0004867416
0.00048672945
0.00048671665
0.00048670299
0.00048668858
0.00048667339
0.00048665726
0.00048664036
0.00048662247
0.00048660377
0.00048658405
0.00048656351
0.00048654195
0.00048651956
0.00048649619
0.00048647198
0.00048644692
0.00048642105
0.00048639444
0.00048636714
0.00048633925
0.00048631085
0.00048628207
0.00048625301
0.00048622384
0.0004861947
0.00048616577
0.00048613725
0.00048610933
0.00048608224
0.0004860562
0.00048603145
0.00048600825
0.00048598683
0.00048596745
0.00048595034
0.00048593575
0.00048592387
0.0004859149
0.00048590902
0.00048590633
0.00048590693
0.00048591084
0.00048591807
0.00048592852
0.00048594211
0.00048595862
0.00048597783
0.00048599947
0.00048602321
0.00048604871
0.00048607562
0.00048608877
0.00048608281
0.00048608112
0.00048608368
0.00048609038
0.00048610101
0.00048611526
0.00048613275
0.00048615305
0.00048617575
0.00048620043
0.00048622677
0.0004862545
0.00048628349
0.00048631371
0.00048634523
0.00048637821
0.00048641284
0.00048644936
0.00048648793
0.00048652023
0.00048653988
0.00048654289
0.0004865448
0.00048654609
0.00048654723
0.00048654875
0.00048655118
0.00048655504
0.00048656089
0.00048656927
0.00048658076
0.0004865959
0.00048661534
0.00048663958
0.00048666926
0.00048670469
0.0004867464
0.00048679417
0.0004868482
0.00048690737
0.00048697111
0.00048703729
0.00048710392
0.00048676358
0.00048729275
0.00048688557
0.00048688368
0.00048688158
0.0004868793
0.00048687686
0.00048687416
0.00048687131
0.00048686815
0.00048686482
0.00048686114
0.00048685726
0.00048685299
0.00048684849
0.00048684355
0.00048683834
0.00048683265
0.00048682664
0.00048682011
0.0004868132
0.00048680572
0.00048679781
0.00048678927
0.00048678024
0.00048677052
0.00048676026
0.00048674924
0.00048673761
0.00048672517
0.00048671206
0.00048669807
0.00048668331
0.00048666775
0.00048665123
0.0004866339
0.00048661556
0.00048659639
0.00048657618
0.0004865551
0.00048653299
0.00048651002
0.00048648603
0.00048646118
0.00048643544
0.00048640887
0.00048638152
0.00048635346
0.00048632478
0.00048629558
0.00048626595
0.00048623605
0.00048620601
0.000486176
0.0004861462
0.00048611681
0.00048608804
0.00048606013
0.00048603331
0.00048600783
0.00048598397
0.00048596199
0.00048594215
0.0004859247
0.00048590992
0.00048589802
0.00048588922
0.00048588371
0.00048588162
0.00048588306
0.00048588808
0.00048589668
0.00048590879
0.0004859243
0.00048594303
0.00048596473
0.00048598912
0.00048601586
0.00048604458
0.00048607413
0.00048607022
0.00048606298
0.00048606035
0.00048606233
0.00048606884
0.00048607966
0.00048609451
0.00048611297
0.00048613464
0.00048615902
0.00048618571
0.00048621429
0.00048624446
0.00048627601
0.00048630883
0.0004863429
0.00048637833
0.00048641521
0.00048645373
0.000486494
0.00048653613
0.00048657617
0.00048660111
0.00048660443
0.00048660673
0.00048660875
0.00048661102
0.00048661405
0.00048661835
0.00048662447
0.00048663292
0.00048664425
0.00048665894
0.00048667758
0.00048670057