/*--------------------------------*- C++ -*----------------------------------*\
| =========                 |                                                 |
| \\      /  F ield         | foam-extend: Open Source CFD                    |
|  \\    /   O peration     | Version:     4.1                                |
|   \\  /    A nd           | Web:         http://www.foam-extend.org         |
|    \\/     M anipulation  |                                                 |
\*---------------------------------------------------------------------------*/
FoamFile
{
    version     2.0;
    format      ascii;
    class       volVectorField;
    location    "0.8";
    object      U;
}
// * * * * * * * * * * * * * * * * * * * * * * * * * * * * * * * * * * * * * //

dimensions      [0 1 -1 0 0 0 0];

internalField   nonuniform List<vector> 
16126
(
(0.17240657 -1.2835301e-05 0)
(0.17247004 1.135758e-06 0)
(0.17243084 -6.0634212e-07 0)
(0.1724758 7.4426519e-07 0)
(0.17244352 1.5630085e-06 0)
(0.17246808 7.0651526e-07 0)
(0.1724455 2.0856936e-06 0)
(0.17245441 1.8537172e-06 0)
(0.17243643 3.1068931e-06 0)
(0.17243456 3.4063999e-06 0)
(0.17241747 4.4223078e-06 0)
(0.17240789 4.8063272e-06 0)
(0.17238948 5.6157869e-06 0)
(0.17237398 6.0739258e-06 0)
(0.17235301 6.7832999e-06 0)
(0.17233254 7.3185335e-06 0)
(0.17230835 8.0029984e-06 0)
(0.17228345 8.6141754e-06 0)
(0.17225573 9.3219742e-06 0)
(0.17222674 1.0014893e-05 0)
(0.17219545 1.0783596e-05 0)
(0.1721627 1.1576987e-05 0)
(0.17212803 1.2448055e-05 0)
(0.17209193 1.3380176e-05 0)
(0.1720543 1.4411571e-05 0)
(0.17201549 1.5544446e-05 0)
(0.17197561 1.6803329e-05 0)
(0.17193502 1.8184851e-05 0)
(0.17189395 1.9567812e-05 0)
(0.17185286 2.0870208e-05 0)
(0.1718122 2.2142508e-05 0)
(0.17177259 2.3376796e-05 0)
(0.17173471 2.4540816e-05 0)
(0.17169944 2.5561168e-05 0)
(0.17166785 2.6331912e-05 0)
(0.17164124 2.6661085e-05 0)
(0.17162136 2.6392917e-05 0)
(0.17161006 2.5166197e-05 0)
(0.17161019 2.3835438e-05 0)
(0.17162219 2.3044995e-05 0)
(0.17164771 2.219135e-05 0)
(0.17168872 2.1123672e-05 0)
(0.17174753 1.973274e-05 0)
(0.17182659 1.7974203e-05 0)
(0.17192854 1.5802644e-05 0)
(0.17205619 1.3183611e-05 0)
(0.17221243 1.0084168e-05 0)
(0.17240024 6.4763583e-06 0)
(0.17262267 2.336707e-06 0)
(0.17288275 -2.3525107e-06 0)
(0.17318344 -7.6019346e-06 0)
(0.1735276 -1.341409e-05 0)
(0.1739179 -1.9782428e-05 0)
(0.17435674 -2.668987e-05 0)
(0.17484618 -3.4108073e-05 0)
(0.17538787 -4.1996858e-05 0)
(0.17598294 -5.0303171e-05 0)
(0.17663194 -5.8960852e-05 0)
(0.17733478 -6.7890748e-05 0)
(0.17809063 -7.7000273e-05 0)
(0.17889787 -8.6184173e-05 0)
(0.17975407 -9.5325661e-05 0)
(0.18065592 -0.0001042971 0)
(0.18159924 -0.00011296212 0)
(0.18257897 -0.00012117753 0)
(0.18358923 -0.00012879654 0)
(0.18462331 -0.00013567126 0)
(0.1856738 -0.00014165681 0)
(0.18673267 -0.00014661566 0)
(0.18779137 -0.00015042146 0)
(0.18884099 -0.0001529637 0)
(0.18987244 -0.00015415192 0)
(0.19087658 -0.00015391918 0)
(0.19184447 -0.00015222361 0)
(0.19276749 -0.0001490516 0)
(0.19363759 -0.00014441221 0)
(0.19444738 -0.00013833964 0)
(0.19519034 -0.0001308752 0)
(0.19586081 -0.00012207541 0)
(0.19645422 -0.00011196291 0)
(0.19696671 -0.00010056548 0)
(0.19739567 -8.7762382e-05 0)
(0.19773859 -7.3430628e-05 0)
(0.19799413 -5.7039523e-05 0)
(0.19816015 -3.8156807e-05 0)
(0.19823382 -1.9856534e-05 0)
(0.19822637 -1.1456457e-05 0)
(0.19813237 -2.8667215e-06 0)
(0.19792943 1.4989646e-05 0)
(0.19760903 3.507888e-05 0)
(0.19716631 5.6303415e-05 0)
(0.19660263 7.656588e-05 0)
(0.19592685 9.3904048e-05 0)
(0.19515898 0.00010654355 0)
(0.19433322 0.00011194635 0)
(0.19350139 0.00011428073 0)
(0.19273065 0.00011411636 0)
(0.19210027 0.0001497418 0)
(0.19171963 0.00022758505 0)
(0.19172764 0.00022460608 0)
(0.19231224 0.00015827217 0)
(0.19349071 0.00011953482 0)
(0.19529877 0.00010427904 0)
(0.19775746 0.00011075408 0)
(0.20091979 0.00012700579 0)
(0.20484169 0.00013799401 0)
(0.20964853 0.00012606098 0)
(0.21547176 6.1034987e-05 0)
(0.22258356 -9.1073169e-05 0)
(0.23124436 -0.00039012761 0)
(0.24198367 -0.00089704263 0)
(0.25523808 -0.0017178457 0)
(0.27194669 -0.0029406425 0)
(0.29269806 -0.0047263462 0)
(0.31902602 -0.0071596438 0)
(0.35141007 -0.010449719 0)
(0.39222085 -0.014593567 0)
(0.44099879 -0.019855831 0)
(0.50156623 -0.02595565 0)
(0.57028728 -0.033369953 0)
(0.65497385 -0.040691891 0)
(0.7410512 -0.049846883 0)
(0.8536796 -0.051313942 0)
(0.92415382 -0.062802107 0)
(0.48434732 -3.9804507e-05 0)
(0.48442479 -8.6187286e-06 0)
(0.48441462 -1.023348e-05 0)
(0.48446668 -3.8449871e-06 0)
(0.48446091 -4.5447946e-07 0)
(0.48449303 1.0231758e-06 0)
(0.48449081 4.8523387e-06 0)
(0.48451031 5.8385792e-06 0)
(0.48451053 9.0002538e-06 0)
(0.48452238 1.0110973e-05 0)
(0.48452385 1.2788996e-05 0)
(0.48453094 1.4329411e-05 0)
(0.48453243 1.6742858e-05 0)
(0.48453658 1.8532504e-05 0)
(0.4845378 2.0771237e-05 0)
(0.48454041 2.2661946e-05 0)
(0.48454174 2.4759936e-05 0)
(0.48454411 2.6641939e-05 0)
(0.48454637 2.8581865e-05 0)
(0.48454991 3.0347172e-05 0)
(0.48455441 3.2057489e-05 0)
(0.48456083 3.3570694e-05 0)
(0.48456936 3.4917435e-05 0)
(0.48458088 3.5991493e-05 0)
(0.48459593 3.676769e-05 0)
(0.48461548 3.7148886e-05 0)
(0.48464043 3.708379e-05 0)
(0.4846719 3.6482311e-05 0)
(0.48471121 3.5391919e-05 0)
(0.48475944 3.3789612e-05 0)
(0.48481786 3.1510084e-05 0)
(0.48488803 2.8402529e-05 0)
(0.48497166 2.4317945e-05 0)
(0.48507068 1.9082365e-05 0)
(0.48518717 1.2502876e-05 0)
(0.48532335 4.3357668e-06 0)
(0.48548154 -5.6522224e-06 0)
(0.48566428 -1.778393e-05 0)
(0.48587376 -3.1960487e-05 0)
(0.4861146 -4.8113275e-05 0)
(0.48639082 -6.6647292e-05 0)
(0.48670651 -8.7827503e-05 0)
(0.4870659 -0.00011187036 0)
(0.4874734 -0.00013896458 0)
(0.4879336 -0.00016927801 0)
(0.48845123 -0.0002029489 0)
(0.48903106 -0.0002400806 0)
(0.48967788 -0.00028073144 0)
(0.49039637 -0.00032490638 0)
(0.49119104 -0.00037254806 0)
(0.4920661 -0.00042352751 0)
(0.49302534 -0.00047763642 0)
(0.494072 -0.00053458046 0)
(0.49520864 -0.00059397322 0)
(0.496437 -0.00065533319 0)
(0.49775785 -0.00071808297 0)
(0.49917087 -0.00078155012 0)
(0.50067454 -0.000844972 0)
(0.50226599 -0.00090750365 0)
(0.50394095 -0.00096822786 0)
(0.50569365 -0.0010261697 0)
(0.50751682 -0.0010803142 0)
(0.50940168 -0.0011296257 0)
(0.51133794 -0.0011730717 0)
(0.5133139 -0.0012096469 0)
(0.5153166 -0.0012384016 0)
(0.51733188 -0.001258468 0)
(0.51934468 -0.0012690898 0)
(0.5213392 -0.0012696495 0)
(0.52329922 -0.0012596948 0)
(0.52520837 -0.0012389613 0)
(0.52705048 -0.0012073924 0)
(0.5288099 -0.0011651513 0)
(0.53047187 -0.001112626 0)
(0.53202281 -0.0010504264 0)
(0.5334507 -0.0009793644 0)
(0.53474527 -0.00090043317 0)
(0.53589827 -0.0008147532 0)
(0.5369035 -0.0007235468 0)
(0.53775698 -0.00062804066 0)
(0.53845667 -0.00052946567 0)
(0.53900267 -0.00042890827 0)
(0.53939638 -0.00032726217 0)
(0.53964105 -0.00022543872 0)
(0.53973912 -0.00012286882 0)
(0.53969366 -2.5427974e-05 0)
(0.53949081 7.8300436e-05 0)
(0.53910577 0.00020059535 0)
(0.53854815 0.00033411068 0)
(0.53781891 0.00047445731 0)
(0.53692734 0.00061604517 0)
(0.53589234 0.00075187002 0)
(0.53474959 0.00087147139 0)
(0.5335576 0.00095964487 0)
(0.53240785 0.00099789881 0)
(0.53142673 0.00095909498 0)
(0.53079926 0.00082651914 0)
(0.53075071 0.00052790191 0)
(0.53159224 1.9365986e-05 0)
(0.53343354 -0.00062070788 0)
(0.536295 -0.0013363835 0)
(0.5403738 -0.0021161905 0)
(0.54581098 -0.0029579859 0)
(0.55273308 -0.0038705329 0)
(0.56125071 -0.0048670273 0)
(0.57145858 -0.0059774343 0)
(0.58347375 -0.0072393613 0)
(0.59739797 -0.008713032 0)
(0.61338926 -0.010461516 0)
(0.63155852 -0.012579578 0)
(0.65211385 -0.015148886 0)
(0.67512241 -0.018297665 0)
(0.70082614 -0.022098106 0)
(0.72910965 -0.026694327 0)
(0.76022334 -0.0320721 0)
(0.793573 -0.038354545 0)
(0.82944482 -0.045283736 0)
(0.86612166 -0.052965016 0)
(0.90422955 -0.060574759 0)
(0.93938098 -0.06850431 0)
(0.97391546 -0.074195551 0)
(0.99690961 -0.080395826 0)
(1.016607 -0.074761757 0)
(1.0120328 -0.080164407 0)
(0.72226601 -7.4747096e-05 0)
(0.7223643 -3.4720392e-05 0)
(0.72238237 -3.5477804e-05 0)
(0.72245582 -2.4772735e-05 0)
(0.72248474 -2.0041838e-05 0)
(0.72254419 -1.6355057e-05 0)
(0.72258022 -1.1695872e-05 0)
(0.72263328 -9.7904131e-06 0)
(0.72267473 -6.1454115e-06 0)
(0.722726 -4.6947375e-06 0)
(0.72277235 -1.9340226e-06 0)
(0.72282547 -5.655518e-07 0)
(0.72287782 1.4638596e-06 0)
(0.72293572 2.587895e-06 0)
(0.72299553 3.9355407e-06 0)
(0.72306078 4.6349447e-06 0)
(0.72312992 5.2706197e-06 0)
(0.72320508 5.3546738e-06 0)
(0.72328585 5.1616354e-06 0)
(0.72337372 4.4012269e-06 0)
(0.72346891 3.1707637e-06 0)
(0.72357266 1.2708488e-06 0)
(0.72368561 -1.3087456e-06 0)
(0.72380892 -4.737286e-06 0)
(0.72394354 -9.0984425e-06 0)
(0.7240907 -1.4566939e-05 0)
(0.72425157 -2.127604e-05 0)
(0.72442758 -2.9424747e-05 0)
(0.7246201 -3.9106091e-05 0)
(0.72483107 -5.046411e-05 0)
(0.72506253 -6.3765771e-05 0)
(0.7253166 -7.9284577e-05 0)
(0.72559556 -9.7296502e-05 0)
(0.72590187 -0.00011810634 0)
(0.7262382 -0.00014203329 0)
(0.7266074 -0.00016942719 0)
(0.72701255 -0.0002006437 0)
(0.72745685 -0.00023603276 0)
(0.72794375 -0.00027611627 0)
(0.72847721 -0.00032135646 0)
(0.72906122 -0.00037200745 0)
(0.72969985 -0.00042838808 0)
(0.73039732 -0.00049083239 0)
(0.73115794 -0.00055963158 0)
(0.73198605 -0.00063502533 0)
(0.73288598 -0.00071717761 0)
(0.73386195 -0.0008061636 0)
(0.73491799 -0.00090194923 0)
(0.73605786 -0.0010043744 0)
(0.7372849 -0.001113135 0)
(0.73860196 -0.0012277665 0)
(0.74001123 -0.0013476294 0)
(0.74151414 -0.001471899 0)
(0.74311119 -0.0015995569 0)
(0.74480188 -0.0017293893 0)
(0.7465845 -0.0018599903 0)
(0.74845609 -0.0019897703 0)
(0.75041229 -0.0021169722 0)
(0.75244732 -0.0022396942 0)
(0.75455384 -0.0023559189 0)
(0.75672302 -0.0024635488 0)
(0.7589445 -0.0025604501 0)
(0.76120643 -0.0026444982 0)
(0.76349561 -0.0027136319 0)
(0.76579758 -0.0027659067 0)
(0.76809681 -0.0027995547 0)
(0.77037694 -0.0028130402 0)
(0.77262099 -0.0028051187 0)
(0.77481169 -0.0027748892 0)
(0.77693182 -0.0027218441 0)
(0.77896452 -0.0026459082 0)
(0.78089372 -0.0025474716 0)
(0.78270445 -0.0024274023 0)
(0.78438328 -0.0022870473 0)
(0.78591863 -0.0021282082 0)
(0.78730107 -0.0019530915 0)
(0.78852356 -0.0017642381 0)
(0.78958162 -0.001564408 0)
(0.79047328 -0.001356481 0)
(0.7911991 -0.0011432678 0)
(0.7917617 -0.00092746083 0)
(0.79216568 -0.00071128456 0)
(0.79241652 -0.00049662651 0)
(0.79252132 -0.00028373628 0)
(0.79248413 -7.2101726e-05 0)
(0.79231569 0.00014699553 0)
(0.79199479 0.00038148896 0)
(0.79155481 0.00062560757 0)
(0.79101101 0.00087226639 0)
(0.79038759 0.0011141004 0)
(0.78971426 0.0013382293 0)
(0.78903507 0.0015249666 0)
(0.78841154 0.0016457602 0)
(0.78792849 0.0016622096 0)
(0.78769385 0.0015250758 0)
(0.7878491 0.0011807642 0)
(0.78853525 0.00055301035 0)
(0.78993887 -0.00038425509 0)
(0.79201759 -0.0015525121 0)
(0.79490377 -0.0029030872 0)
(0.798774 -0.004457005 0)
(0.80376327 -0.0062063246 0)
(0.80998839 -0.0081107356 0)
(0.81751844 -0.010149671 0)
(0.8264006 -0.012316639 0)
(0.83664568 -0.014627554 0)
(0.8482548 -0.017109685 0)
(0.86119177 -0.019813528 0)
(0.87542657 -0.022790092 0)
(0.89086741 -0.026117233 0)
(0.90744813 -0.029851371 0)
(0.92497315 -0.034085466 0)
(0.94331501 -0.038842247 0)
(0.96206945 -0.044202576 0)
(0.98102778 -0.050065127 0)
(0.99938882 -0.05644985 0)
(1.0169286 -0.06294019 0)
(1.0320978 -0.069474145 0)
(1.0450216 -0.074896571 0)
(1.0526381 -0.079318343 0)
(1.0565904 -0.079516258 0)
(1.0507558 -0.077482249 0)
(1.0403507 -0.062561844 0)
(1.0190187 -0.047395167 0)
(0.87658988 -0.00011716498 0)
(0.87671305 -7.6514313e-05 0)
(0.87675496 -7.8517883e-05 0)
(0.87685609 -6.6684756e-05 0)
(0.87691832 -6.326342e-05 0)
(0.8770116 -5.9663694e-05 0)
(0.87708728 -5.6519834e-05 0)
(0.87718092 -5.5592598e-05 0)
(0.87726831 -5.3836793e-05 0)
(0.87736772 -5.4174838e-05 0)
(0.87746725 -5.4040511e-05 0)
(0.87757654 -5.5546859e-05 0)
(0.87768996 -5.6969649e-05 0)
(0.87781274 -5.965547e-05 0)
(0.87794246 -6.2628339e-05 0)
(0.8780822 -6.6688479e-05 0)
(0.87823122 -7.1341166e-05 0)
(0.87839156 -7.7064715e-05 0)
(0.87856341 -8.3649499e-05 0)
(0.87874836 -9.1406072e-05 0)
(0.87894713 -0.00010029313 0)
(0.87916118 -0.00011054606 0)
(0.87939159 -0.00012222835 0)
(0.87963984 -0.00013555313 0)
(0.87990728 -0.00015065608 0)
(0.88019554 -0.00016775844 0)
(0.8805062 -0.000187058 0)
(0.88084108 -0.00020880468 0)
(0.88120204 -0.00023332682 0)
(0.88159118 -0.00026097783 0)
(0.88201066 -0.00029204219 0)
(0.88246276 -0.00032686985 0)
(0.88294993 -0.00036584512 0)
(0.88347474 -0.00040939909 0)
(0.8840399 -0.00045798524 0)
(0.88464825 -0.00051209968 0)
(0.88530276 -0.00057223147 0)
(0.88600652 -0.00063890026 0)
(0.88676271 -0.00071250833 0)
(0.8875745 -0.00079344742 0)
(0.88844513 -0.00088218908 0)
(0.88937794 -0.00097913601 0)
(0.8903762 -0.0010846491 0)
(0.89144312 -0.0011990004 0)
(0.89258173 -0.0013223692 0)
(0.89379489 -0.0014548108 0)
(0.89508515 -0.0015962377 0)
(0.89645471 -0.0017463927 0)
(0.8979053 -0.001904826 0)
(0.89943811 -0.0020708721 0)
(0.90105366 -0.0022436295 0)
(0.90275174 -0.0024219444 0)
(0.90453124 -0.0026043992 0)
(0.90639013 -0.0027893067 0)
(0.90832529 -0.0029747126 0)
(0.91033248 -0.0031584059 0)
(0.91240626 -0.0033379376 0)
(0.91453992 -0.0035106502 0)
(0.91672546 -0.0036737162 0)
(0.91895362 -0.0038241864 0)
(0.92121386 -0.0039590465 0)
(0.92349445 -0.0040752846 0)
(0.92578256 -0.0041699614 0)
(0.9280644 -0.0042402907 0)
(0.93032538 -0.0042837193 0)
(0.93255032 -0.0042980134 0)
(0.93472372 -0.0042813387 0)
(0.93683003 -0.0042323439 0)
(0.93885394 -0.0041502326 0)
(0.94078079 -0.0040348315 0)
(0.94259686 -0.0038866391 0)
(0.94428982 -0.0037068654 0)
(0.94584905 -0.0034974389 0)
(0.94726605 -0.0032609959 0)
(0.94853472 -0.0030008248 0)
(0.94965167 -0.0027207797 0)
(0.95061638 -0.0024251436 0)
(0.95143131 -0.0021184439 0)
(0.95210173 -0.0018052454 0)
(0.9526356 -0.0014898672 0)
(0.95304305 -0.0011762056 0)
(0.95333588 -0.0008673327 0)
(0.95352689 -0.00056562663 0)
(0.95362919 -0.00027152789 0)
(0.95365734 1.4287556e-05 0)
(0.953625 0.00030097223 0)
(0.95356144 0.00058547443 0)
(0.95349124 0.00085726362 0)
(0.95343801 0.0011134915 0)
(0.9534279 0.0013408462 0)
(0.95349238 0.0015202364 0)
(0.95366941 0.0016234577 0)
(0.9540052 0.0016130335 0)
(0.95455209 0.0014420687 0)
(0.95536961 0.0010566248 0)
(0.95650106 0.00039900001 0)
(0.95800598 -0.00055850752 0)
(0.95981024 -0.0017877966 0)
(0.96202017 -0.0033010899 0)
(0.96474958 -0.005135874 0)
(0.96809768 -0.0072580668 0)
(0.97211681 -0.0096134086 0)
(0.97684856 -0.012155617 0)
(0.98231686 -0.014846311 0)
(0.98852291 -0.01766116 0)
(0.99543745 -0.020596921 0)
(1.003012 -0.02366375 0)
(1.0111594 -0.026894918 0)
(1.0197826 -0.030325089 0)
(1.0287265 -0.034010695 0)
(1.0378399 -0.037983948 0)
(1.0468647 -0.042300099 0)
(1.0555815 -0.046939012 0)
(1.0635612 -0.051916766 0)
(1.0705228 -0.057068948 0)
(1.0757628 -0.062330328 0)
(1.0790531 -0.067231028 0)
(1.079265 -0.071654194 0)
(1.0766289 -0.07450682 0)
(1.0693566 -0.075983859 0)
(1.0590849 -0.073396457 0)
(1.0434818 -0.068784449 0)
(1.026159 -0.054113241 0)
(1.0099689 -0.037776535 0)
(0.96274571 -0.00017026457 0)
(0.96289468 -0.00013404127 0)
(0.96295525 -0.00013852368 0)
(0.9630828 -0.00012817397 0)
(0.96317307 -0.00012770529 0)
(0.96329745 -0.00012622036 0)
(0.96340769 -0.00012666734 0)
(0.96353833 -0.00012908359 0)
(0.96366654 -0.00013174229 0)
(0.96380959 -0.00013660556 0)
(0.96395674 -0.00014169121 0)
(0.96411691 -0.00014870343 0)
(0.96428531 -0.00015630537 0)
(0.96446689 -0.00016563047 0)
(0.96465982 -0.00017592372 0)
(0.96486713 -0.00018789291 0)
(0.96508853 -0.00020117551 0)
(0.96532617 -0.00021622753 0)
(0.96558059 -0.00023293107 0)
(0.96585357 -0.00025161468 0)
(0.96614614 -0.00027231392 0)
(0.96645998 -0.00029530771 0)
(0.96679647 -0.00032073522 0)
(0.96715731 -0.00034887202 0)
(0.96754413 -0.00037993565 0)
(0.96795878 -0.00041422383 0)
(0.96840309 -0.00045201642 0)
(0.96887907 -0.00049364322 0)
(0.96938875 -0.00053942079 0)
(0.96993428 -0.00058972267 0)
(0.97051786 -0.00064495881 0)
(0.97114183 -0.00070556648 0)
(0.97180858 -0.00077200307 0)
(0.97252057 -0.00084475646 0)
(0.97328031 -0.00092432768 0)
(0.97409035 -0.0010112392 0)
(0.97495323 -0.0011060171 0)
(0.9758715 -0.0012091814 0)
(0.97684767 -0.0013212719 0)
(0.97788424 -0.0014427658 0)
(0.97898361 -0.0015740371 0)
(0.98014805 -0.0017154196 0)
(0.98137962 -0.0018671635 0)
(0.98268015 -0.0020294099 0)
(0.98405118 -0.0022021636 0)
(0.98549389 -0.0023852615 0)
(0.98700903 -0.0025783459 0)
(0.98859686 -0.0027808344 0)
(0.99025707 -0.002991894 0)
(0.99198869 -0.003210416 0)
(0.99379004 -0.0034349949 0)
(0.99565865 -0.0036639131 0)
(0.99759117 -0.0038951319 0)
(0.99958334 -0.0041262911 0)
(1.0016299 -0.0043547178 0)
(1.0037247 -0.004577446 0)
(1.0058603 -0.0047912474 0)
(1.0080285 -0.0049926746 0)
(1.01022 -0.0051781159 0)
(1.0124243 -0.0053438625 0)
(1.0146304 -0.0054861854 0)
(1.0168261 -0.0056014243 0)
(1.0189988 -0.0056860821 0)
(1.0211353 -0.0057369293 0)
(1.023222 -0.0057511078 0)
(1.0252454 -0.0057262424 0)
(1.027192 -0.005660544 0)
(1.0290488 -0.005552916 0)
(1.0308037 -0.005403044 0)
(1.0324457 -0.0052114826 0)
(1.0339654 -0.0049797123 0)
(1.0353552 -0.0047101851 0)
(1.0366097 -0.0044063221 0)
(1.0377262 -0.0040724867 0)
(1.0387051 -0.0037138886 0)
(1.0395496 -0.0033364494 0)
(1.0402664 -0.0029465833 0)
(1.0408655 -0.0025509299 0)
(1.0413598 -0.0021560239 0)
(1.0417651 -0.0017679128 0)
(1.0420992 -0.0013918295 0)
(1.0423815 -0.0010317908 0)
(1.0426322 -0.00069058035 0)
(1.0428709 -0.00036945305 0)
(1.0431185 -6.8790097e-05 0)
(1.0433912 0.00021107786 0)
(1.0437249 0.00047065766 0)
(1.0441302 0.00070734352 0)
(1.0446234 0.00091352465 0)
(1.0452181 0.0010763295 0)
(1.0459269 0.0011751204 0)
(1.0467622 0.0011804725 0)
(1.0477339 0.0010539181 0)
(1.0488497 0.0007491478 0)
(1.0501084 0.00021948162 0)
(1.0515058 -0.00057689679 0)
(1.0529945 -0.0016579242 0)
(1.0546248 -0.003068099 0)
(1.0564384 -0.0048416869 0)
(1.0584586 -0.006949839 0)
(1.0606878 -0.0093602423 0)
(1.0631382 -0.012027407 0)
(1.0658197 -0.014893254 0)
(1.0687304 -0.017908724 0)
(1.0718591 -0.021034018 0)
(1.0751722 -0.024249326 0)
(1.0786219 -0.027547116 0)
(1.0821282 -0.030940439 0)
(1.085599 -0.03444303 0)
(1.0888934 -0.038085358 0)
(1.0918703 -0.04187357 0)
(1.0943058 -0.045828984 0)
(1.0960125 -0.049901926 0)
(1.0966539 -0.054069568 0)
(1.0960372 -0.058145552 0)
(1.0936813 -0.062032152 0)
(1.0895353 -0.065268808 0)
(1.0829337 -0.067723471 0)
(1.0743177 -0.068394173 0)
(1.0627626 -0.067436994 0)
(1.0497459 -0.062615597 0)
(1.0343415 -0.05552161 0)
(1.0187192 -0.041020944 0)
(1.006366 -0.024391031 0)
(1.0046778 -0.00023200073 0)
(1.0048485 -0.00020423429 0)
(1.0049219 -0.00021222974 0)
(1.0050705 -0.00020613794 0)
(1.0051813 -0.00021036473 0)
(1.0053298 -0.00021321191 0)
(1.0054661 -0.00021904897 0)
(1.0056251 -0.00022672556 0)
(1.0057843 -0.00023562769 0)
(1.0059607 -0.00024693609 0)
(1.006144 -0.0002593848 0)
(1.0063429 -0.00027422728 0)
(1.0065531 -0.00029049258 0)
(1.0067795 -0.00030910543 0)
(1.0070206 -0.00032950861 0)
(1.0072794 -0.00035233009 0)
(1.0075559 -0.00037732693 0)
(1.0078524 -0.00040493984 0)
(1.0081696 -0.00043513347 0)
(1.0085095 -0.0004682531 0)
(1.0088733 -0.00050439876 0)
(1.0092628 -0.00054388131 0)
(1.0096796 -0.00058689465 0)
(1.0101255 -0.00063375268 0)
(1.0106024 -0.00068472192 0)
(1.0111121 -0.0007401429 0)
(1.0116566 -0.00080034761 0)
(1.012238 -0.00086572002 0)
(1.0128584 -0.00093666882 0)
(1.01352 -0.0010136276 0)
(1.0142249 -0.0010970269 0)
(1.0149755 -0.0011873336 0)
(1.0157739 -0.001285029 0)
(1.0166225 -0.0013906197 0)
(1.0175236 -0.0015046145 0)
(1.0184793 -0.0016275306 0)
(1.0194918 -0.0017598595 0)
(1.0205633 -0.0019020736 0)
(1.0216955 -0.0020545696 0)
(1.0228903 -0.0022176938 0)
(1.0241492 -0.0023917387 0)
(1.0254736 -0.0025768915 0)
(1.0268645 -0.0027732246 0)
(1.0283226 -0.0029806558 0)
(1.0298482 -0.0031989284 0)
(1.031441 -0.0034275754 0)
(1.0331005 -0.003665894 0)
(1.0348254 -0.0039129146 0)
(1.0366137 -0.0041673751 0)
(1.0384628 -0.0044276971 0)
(1.0403695 -0.0046919678 0)
(1.0423295 -0.0049579279 0)
(1.0443381 -0.0052229685 0)
(1.0463893 -0.0054841363 0)
(1.0484766 -0.0057381519 0)
(1.0505923 -0.0059814381 0)
(1.0527282 -0.006210163 0)
(1.054875 -0.0064202958 0)
(1.0570226 -0.0066076763 0)
(1.0591606 -0.0067680981 0)
(1.0612774 -0.0068974029 0)
(1.0633614 -0.006991588 0)
(1.0654004 -0.0070469196 0)
(1.0673822 -0.007060058 0)
(1.0692946 -0.0070281813 0)
(1.0711256 -0.0069491178 0)
(1.0728639 -0.0068214689 0)
(1.074499 -0.0066447345 0)
(1.0760215 -0.0064194188 0)
(1.0774235 -0.0061471308 0)
(1.0786992 -0.0058306466 0)
(1.0798448 -0.0054739565 0)
(1.080859 -0.0050822466 0)
(1.0817435 -0.0046618495 0)
(1.0825032 -0.0042200978 0)
(1.083146 -0.0037651314 0)
(1.0836835 -0.003305583 0)
(1.0841303 -0.0028502191 0)
(1.084504 -0.0024074742 0)
(1.0848247 -0.0019849685 0)
(1.0851141 -0.0015890256 0)
(1.0853951 -0.0012242235 0)
(1.0856904 -0.00089320177 0)
(1.0860215 -0.00059659338 0)
(1.0864083 -0.0003333036 0)
(1.0868676 -0.00010382419 0)
(1.0874133 9.2869869e-05 0)
(1.0880577 0.0002585251 0)
(1.088806 0.00038881321 0)
(1.0896592 0.00047277614 0)
(1.0906144 0.00049222117 0)
(1.0916645 0.00042052495 0)
(1.0927982 0.00022355645 0)
(1.0939976 -0.00013861209 0)
(1.0952388 -0.00070899986 0)
(1.0964957 -0.0015246745 0)
(1.0977644 -0.0026370286 0)
(1.0990359 -0.0040807722 0)
(1.1002838 -0.0058608697 0)
(1.1014802 -0.0079745105 0)
(1.1026096 -0.010386787 0)
(1.1036544 -0.013047175 0)
(1.1046037 -0.015900466 0)
(1.1054475 -0.01889367 0)
(1.1061739 -0.021982119 0)
(1.1067603 -0.025136506 0)
(1.1071758 -0.028338588 0)
(1.1073661 -0.031587708 0)
(1.1072683 -0.034884089 0)
(1.1067816 -0.038241238 0)
(1.1058073 -0.041650522 0)
(1.1041846 -0.045113516 0)
(1.1017903 -0.048568614 0)
(1.0983928 -0.051975751 0)
(1.0938935 -0.055154826 0)
(1.0879845 -0.058010076 0)
(1.080724 -0.060142293 0)
(1.0717268 -0.061461705 0)
(1.0614678 -0.061155541 0)
(1.0495051 -0.059418962 0)
(1.0370246 -0.054518295 0)
(1.0239745 -0.047672387 0)
(1.0116561 -0.03519604 0)
(1.0034076 -0.020174004 0)
(1.0226881 -0.00030134668 0)
(1.0228749 -0.0002836414 0)
(1.0229556 -0.00029539369 0)
(1.0231185 -0.00029507944 0)
(1.0232418 -0.00030474767 0)
(1.0234059 -0.00031326695 0)
(1.0235585 -0.00032558721 0)
(1.0237357 -0.0003399393 0)
(1.0239146 -0.0003564345 0)
(1.0241124 -0.00037571929 0)
(1.0243188 -0.00039698229 0)
(1.0245426 -0.00042118605 0)
(1.0247796 -0.00044765516 0)
(1.0250348 -0.00047717104 0)
(1.0253067 -0.00050935926 0)
(1.0255985 -0.00054479269 0)
(1.0259103 -0.00058334614 0)
(1.0262444 -0.00062545567 0)
(1.0266018 -0.00067117039 0)
(1.0269843 -0.00072085874 0)
(1.0273935 -0.00077468919 0)
(1.0278311 -0.00083301061 0)
(1.0282989 -0.00089607729 0)
(1.0287988 -0.00096424749 0)
(1.0293326 -0.0010378417 0)
(1.0299024 -0.0011172422 0)
(1.0305101 -0.0012028224 0)
(1.0311579 -0.0012949928 0)
(1.0318478 -0.0013941682 0)
(1.0325821 -0.0015007962 0)
(1.0333629 -0.0016153344 0)
(1.0341923 -0.001738256 0)
(1.0350725 -0.0018700362 0)
(1.0360056 -0.0020111563 0)
(1.0369936 -0.0021620838 0)
(1.0380386 -0.0023232744 0)
(1.0391424 -0.0024951488 0)
(1.0403066 -0.0026780841 0)
(1.0415327 -0.0028723972 0)
(1.0428221 -0.0030783107 0)
(1.0441758 -0.0032959244 0)
(1.0455944 -0.0035252176 0)
(1.0470783 -0.0037660122 0)
(1.0486275 -0.0040179493 0)
(1.0502414 -0.0042804575 0)
(1.051919 -0.0045527216 0)
(1.0536587 -0.0048336544 0)
(1.0554583 -0.0051218672 0)
(1.057315 -0.0054156461 0)
(1.0592251 -0.0057129309 0)
(1.0611844 -0.0060113005 0)
(1.0631878 -0.0063079666 0)
(1.0652296 -0.0065997759 0)
(1.0673032 -0.0068832238 0)
(1.0694011 -0.0071544804 0)
(1.0715152 -0.0074094294 0)
(1.0736366 -0.0076437216 0)
(1.0757559 -0.007852844 0)
(1.0778627 -0.008032202 0)
(1.0799465 -0.008177218 0)
(1.081996 -0.0082834407 0)
(1.0839998 -0.0083466698 0)
(1.0859465 -0.0083630867 0)
(1.0878244 -0.0083293977 0)
(1.0896223 -0.0082429759 0)
(1.0913294 -0.0081020134 0)
(1.0929357 -0.0079056595 0)
(1.094432 -0.0076541664 0)
(1.0958106 -0.0073490044 0)
(1.0970655 -0.006992977 0)
(1.0981923 -0.0065902816 0)
(1.0991892 -0.0061465566 0)
(1.1000567 -0.0056688396 0)
(1.1007984 -0.0051654924 0)
(1.1014206 -0.004645995 0)
(1.1019329 -0.0041206905 0)
(1.1023479 -0.0036003616 0)
(1.1026813 -0.0030957695 0)
(1.102951 -0.0026170338 0)
(1.1031774 -0.0021730403 0)
(1.1033819 -0.0017707915 0)
(1.1035866 -0.0014149303 0)
(1.1038129 -0.0011073889 0)
(1.1040807 -0.00084755018 0)
(1.1044078 -0.00063244738 0)
(1.1048081 -0.00045891382 0)
(1.1052901 -0.00032323348 0)
(1.1058585 -0.00022169765 0)
(1.1065147 -0.0001548339 0)
(1.1072551 -0.000130184 0)
(1.1080707 -0.00016291678 0)
(1.1089481 -0.00027667409 0)
(1.109869 -0.00050275783 0)
(1.1108119 -0.00087919128 0)
(1.1117522 -0.0014492121 0)
(1.1126644 -0.0022610788 0)
(1.11352 -0.0033509627 0)
(1.114278 -0.0047476801 0)
(1.1148984 -0.0064667195 0)
(1.115342 -0.0084937788 0)
(1.1155721 -0.010800358 0)
(1.1155627 -0.013344141 0)
(1.1152976 -0.016072674 0)
(1.1147657 -0.018935293 0)
(1.1139612 -0.021885288 0)
(1.1128739 -0.024888404 0)
(1.1114914 -0.027918615 0)
(1.109785 -0.03096419 0)
(1.1077215 -0.034013476 0)
(1.1052386 -0.037065186 0)
(1.1022784 -0.040098332 0)
(1.0987354 -0.04309957 0)
(1.0945409 -0.046000766 0)
(1.0895446 -0.048752243 0)
(1.0837133 -0.051183905 0)
(1.0768566 -0.053200591 0)
(1.0690801 -0.054446779 0)
(1.0601579 -0.054835352 0)
(1.0505009 -0.053676144 0)
(1.0398806 -0.051115184 0)
(1.0291299 -0.045833006 0)
(1.0184398 -0.038758507 0)
(1.0085149 -0.027705143 0)
(1.0022181 -0.014797267 0)
(1.0295889 -0.00037548081 0)
(1.0297857 -0.00036837672 0)
(1.0298692 -0.00038400599 0)
(1.0300401 -0.00039058646 0)
(1.0301693 -0.00040622931 0)
(1.0303418 -0.00042142797 0)
(1.0305026 -0.00044090151 0)
(1.0306894 -0.00046278977 0)
(1.0308786 -0.00048760307 0)
(1.0310874 -0.00051569083 0)
(1.0313059 -0.0005466174 0)
(1.0315427 -0.00058112937 0)
(1.0317938 -0.00061879331 0)
(1.032064 -0.00066028033 0)
(1.0323522 -0.00070536658 0)
(1.0326613 -0.0007545861 0)
(1.0329917 -0.00080791343 0)
(1.0333456 -0.0008657862 0)
(1.0337241 -0.00092832602 0)
(1.0341291 -0.00099592343 0)
(1.0345621 -0.001068804 0)
(1.0350251 -0.0011473474 0)
(1.0355197 -0.0012318548 0)
(1.0360479 -0.0013227171 0)
(1.0366116 -0.0014202937 0)
(1.0372129 -0.0015249985 0)
(1.0378537 -0.0016372379 0)
(1.0385361 -0.0017574521 0)
(1.0392623 -0.0018860848 0)
(1.0400344 -0.0020235928 0)
(1.0408544 -0.0021704294 0)
(1.0417246 -0.0023270525 0)
(1.0426469 -0.0024939106 0)
(1.0436235 -0.0026714419 0)
(1.0446561 -0.0028600531 0)
(1.0457467 -0.0030601176 0)
(1.0468969 -0.0032719463 0)
(1.0481082 -0.0034957822 0)
(1.0493819 -0.003731765 0)
(1.0507189 -0.0039799282 0)
(1.05212 -0.0042401721 0)
(1.0535855 -0.0045122383 0)
(1.0551155 -0.0047956813 0)
(1.0567094 -0.00508984 0)
(1.0583665 -0.0053938086 0)
(1.0600852 -0.005706406 0)
(1.0618634 -0.0060261494 0)
(1.0636986 -0.0063512272 0)
(1.0655875 -0.0066794785 0)
(1.067526 -0.0070083753 0)
(1.0695095 -0.0073350135 0)
(1.0715326 -0.0076561116 0)
(1.0735891 -0.0079680192 0)
(1.075672 -0.0082667389 0)
(1.0777739 -0.0085479595 0)
(1.0798862 -0.0088071049 0)
(1.0820001 -0.0090393973 0)
(1.0841059 -0.0092399376 0)
(1.0861934 -0.0094037985 0)
(1.0882521 -0.009526137 0)
(1.0902708 -0.0096023161 0)
(1.0922385 -0.0096280448 0)
(1.0941439 -0.0095995221 0)
(1.0959757 -0.0095135975 0)
(1.097723 -0.0093679265 0)
(1.0993755 -0.0091611394 0)
(1.1009235 -0.0088929932 0)
(1.1023584 -0.0085645306 0)
(1.1036727 -0.0081782035 0)
(1.1048605 -0.0077379963 0)
(1.1059179 -0.0072494804 0)
(1.1068429 -0.0067198571 0)
(1.1076359 -0.0061578869 0)
(1.1083001 -0.0055737873 0)
(1.108841 -0.0049789645 0)
(1.1092671 -0.0043857019 0)
(1.1095898 -0.0038066362 0)
(1.1098226 -0.0032542163 0)
(1.1099817 -0.0027399513 0)
(1.1100847 -0.00227374 0)
(1.1101507 -0.0018630801 0)
(1.110199 -0.0015125682 0)
(1.1102487 -0.001223435 0)
(1.1103173 -0.00099376123 0)
(1.1104209 -0.00081863371 0)
(1.1105721 -0.0006920601 0)
(1.1107796 -0.00060704058 0)
(1.1110485 -0.00055750541 0)
(1.111381 -0.00054166791 0)
(1.1117747 -0.00056375913 0)
(1.1122226 -0.00063551964 0)
(1.1127132 -0.00077736791 0)
(1.1132297 -0.0010180267 0)
(1.113751 -0.0013931232 0)
(1.1142514 -0.0019418596 0)
(1.114698 -0.0027024293 0)
(1.1150519 -0.0037128034 0)
(1.1152718 -0.0049999891 0)
(1.1153117 -0.0065732977 0)
(1.1151276 -0.0084283569 0)
(1.1146842 -0.010540952 0)
(1.1139528 -0.012873671 0)
(1.1129158 -0.015381482 0)
(1.1115637 -0.018017986 0)
(1.1098939 -0.020739621 0)
(1.107904 -0.023511441 0)
(1.1055924 -0.026304738 0)
(1.1029462 -0.029101913 0)
(1.0999507 -0.031884941 0)
(1.096568 -0.034643824 0)
(1.0927656 -0.037351288 0)
(1.0884734 -0.039985862 0)
(1.083653 -0.042479157 0)
(1.0782019 -0.044779104 0)
(1.0721147 -0.04673246 0)
(1.0652646 -0.048253791 0)
(1.0577598 -0.049042132 0)
(1.0494677 -0.049028583 0)
(1.0407295 -0.047656144 0)
(1.031481 -0.045040908 0)
(1.0223485 -0.040177043 0)
(1.0137231 -0.033700145 0)
(1.0060281 -0.024121311 0)
(1.0014106 -0.012691329 0)
(1.0319678 -0.00045259791 0)
(1.0321697 -0.00045545314 0)
(1.0322532 -0.00047487246 0)
(1.0324276 -0.00048863788 0)
(1.0325584 -0.00051028371 0)
(1.032734 -0.00053255223 0)
(1.0328975 -0.00055938734 0)
(1.0330878 -0.00058923031 0)
(1.0332806 -0.00062268956 0)
(1.0334936 -0.00066001347 0)
(1.0337166 -0.00070097103 0)
(1.0339583 -0.00074619884 0)
(1.0342148 -0.00079543761 0)
(1.0344907 -0.00084929933 0)
(1.0347851 -0.00090768645 0)
(1.0351009 -0.00097111779 0)
(1.0354384 -0.0010396595 0)
(1.0358 -0.0011137623 0)
(1.0361867 -0.0011936185 0)
(1.0366005 -0.0012796478 0)
(1.0370428 -0.0013721342 0)
(1.0375156 -0.0014714931 0)
(1.0380206 -0.0015780756 0)
(1.0385599 -0.0016923082 0)
(1.0391352 -0.0018145904 0)
(1.0397487 -0.0019453643 0)
(1.0404024 -0.0020850626 0)
(1.0410983 -0.0022341388 0)
(1.0418386 -0.0023930429 0)
(1.0426253 -0.0025622321 0)
(1.0434606 -0.0027421536 0)
(1.0443465 -0.0029332442 0)
(1.0452852 -0.0031359164 0)