/*--------------------------------*- C++ -*----------------------------------*\
| =========                 |                                                 |
| \\      /  F ield         | foam-extend: Open Source CFD                    |
|  \\    /   O peration     | Version:     4.1                                |
|   \\  /    A nd           | Web:         http://www.foam-extend.org         |
|    \\/     M anipulation  |                                                 |
\*---------------------------------------------------------------------------*/
FoamFile
{
    version     2.0;
    format      ascii;
    class       volScalarField;
    location    "2.2";
    object      p;
}
// * * * * * * * * * * * * * * * * * * * * * * * * * * * * * * * * * * * * * //

dimensions      [0 2 -2 0 0 0 0];

internalField   nonuniform List<scalar> 
16126
(
-9.4664956e-05
-0.00032098074
-0.00068794426
-0.00087304854
-0.0013040955
-0.0015374583
-0.0019919808
-0.00230495
-0.0027842169
-0.0031827987
-0.0037007047
-0.0041843246
-0.004755315
-0.0053229852
-0.0059583837
-0.0066096027
-0.0073168676
-0.0080508818
-0.0088336388
-0.0096485082
-0.010506732
-0.011398055
-0.01232718
-0.013287686
-0.01428003
-0.015300656
-0.016346782
-0.017413718
-0.018499856
-0.019604554
-0.020725789
-0.021857689
-0.023002515
-0.024157958
-0.025321457
-0.026490045
-0.027661671
-0.028833203
-0.030002081
-0.031165043
-0.032319019
-0.033460406
-0.034585511
-0.035690126
-0.036769742
-0.037819297
-0.038833282
-0.039805607
-0.040729656
-0.041598248
-0.042403692
-0.043137811
-0.04379203
-0.044357453
-0.044824979
-0.045185425
-0.045429661
-0.045548756
-0.045534125
-0.045377668
-0.045071901
-0.044610093
-0.043986348
-0.043195719
-0.042234253
-0.041099069
-0.039788365
-0.038301463
-0.036638798
-0.034801934
-0.032793526
-0.030617338
-0.028278174
-0.025781893
-0.023135314
-0.020346234
-0.017423277
-0.014375934
-0.011214341
-0.0079493366
-0.0045921819
-0.0011546267
0.0023514256
0.0059138293
0.0095205658
0.013159645
0.016819464
0.020488719
0.024156702
0.027813263
0.031448959
0.035055182
0.038623972
0.042148553
0.04562247
0.049041024
0.052399014
0.055694136
0.05892181
0.062082828
0.065172019
0.068195142
0.071144375
0.074035406
0.076854416
0.079639633
0.082365585
0.085123349
0.087863933
0.09079962
0.093823673
0.097414741
0.10129349
0.10650503
0.11222334
0.12072562
0.12951294
0.14388156
0.1563408
0.18114552
0.19473939
0.24507438
0.2412468
0.41027813
-9.6150814e-05
-0.00032492078
-0.00070492613
-0.00088538407
-0.0013235054
-0.0015562073
-0.0020143461
-0.0023286986
-0.0028101805
-0.0032107034
-0.0037302603
-0.0042157343
-0.0047880573
-0.0053572822
-0.0059937849
-0.0066462719
-0.0073544982
-0.0080893717
-0.0088725347
-0.0096872135
-0.010544553
-0.011434462
-0.012362254
-0.013321787
-0.014312069
-0.015328438
-0.016368015
-0.017432055
-0.018519055
-0.019612092
-0.020716986
-0.021843236
-0.022982205
-0.024128761
-0.025283588
-0.026443131
-0.027605606
-0.028767767
-0.029927109
-0.031080399
-0.032224622
-0.033356229
-0.034471585
-0.035566534
-0.036636618
-0.037676823
-0.038681684
-0.039645149
-0.040560641
-0.041421013
-0.042218605
-0.042945272
-0.043592473
-0.044151345
-0.044612823
-0.044967768
-0.045207093
-0.04532192
-0.045303716
-0.045144437
-0.044836657
-0.044373695
-0.043749705
-0.042959776
-0.041999979
-0.040867439
-0.039560342
-0.038077975
-0.036420714
-0.034590042
-0.032588512
-0.030419768
-0.028088472
-0.025600333
-0.022962005
-0.020181118
-0.017266119
-0.014226326
-0.011071701
-0.0078129139
-0.004461056
-0.0010277172
0.0024753586
0.0060361759
0.009642861
0.013283561
0.016946812
0.020621442
0.024296888
0.027963145
0.031610944
0.03523186
0.038818167
0.042363345
0.045861287
0.049307666
0.052697822
0.05603001
0.059300517
0.06251097
0.065657582
0.068747278
0.071774389
0.074755976
0.077681421
0.080589874
0.083460317
0.086382329
0.089312892
0.092455806
0.095713441
0.099540032
0.10367636
0.10910994
0.11507276
0.12370797
0.13269221
0.14694593
0.15957019
0.18320019
0.19742857
0.23763315
0.24562183
0.30556384
-0.00011352271
-0.00029734932
-0.00071887661
-0.00087060601
-0.0013254612
-0.0015463795
-0.0020085527
-0.0023186891
-0.0027995792
-0.0031985391
-0.0037162961
-0.004200975
-0.0047714599
-0.005339977
-0.0059747331
-0.0066261483
-0.0073322929
-0.0080656139
-0.0088466758
-0.0096603607
-0.010517231
-0.011407287
-0.01233402
-0.01329034
-0.014277371
-0.015294601
-0.016340321
-0.017400632
-0.018467436
-0.019564056
-0.020687661
-0.021815464
-0.022954174
-0.024101572
-0.025256737
-0.026416857
-0.027579862
-0.028742747
-0.02990297
-0.0310574
-0.032203045
-0.033336424
-0.034453947
-0.03555151
-0.036624697
-0.037668536
-0.038677588
-0.03964582
-0.040566658
-0.041432944
-0.042236993
-0.042970619
-0.043625223
-0.044191872
-0.044661418
-0.045024626
-0.04527231
-0.045395482
-0.045385501
-0.045234215
-0.044934087
-0.044478338
-0.043861021
-0.043077136
-0.04212267
-0.040994673
-0.039691262
-0.038211662
-0.036556193
-0.034726293
-0.032724472
-0.030554342
-0.028220541
-0.025728764
-0.023085659
-0.020298864
-0.017376847
-0.014328959
-0.011165206
-0.0078963213
-0.0045334639
-0.0010883154
0.0024272875
0.0060012337
0.0096215534
0.013276277
0.016953847
0.020642981
0.024333032
0.028013883
0.031676188
0.035311406
0.038911739
0.042470528
0.045981607
0.049440475
0.052842462
0.05618558
0.059466236
0.062685722
0.065840782
0.068937985
0.071973316
0.074963684
0.077902823
0.080830194
0.083734795
0.086706264
0.089721671
0.092979038
0.096415545
0.10045341
0.10488736
0.11059333
0.11689722
0.1256353
0.13474303
0.14835347
0.16056361
0.18166184
0.19555567
0.22871671
0.24178359
0.28550346
-0.00018382747
-0.00026558096
-0.00076467401
-0.00086840742
-0.001353386
-0.0015564343
-0.0020279554
-0.0023323601
-0.0028147754
-0.0032118641
-0.003728292
-0.0042116672
-0.0047795932
-0.0053462762
-0.005977881
-0.0066270527
-0.0073305537
-0.0080617178
-0.0088401637
-0.0096499777
-0.01050101
-0.01138303
-0.012303021
-0.013257792
-0.014243778
-0.015251728
-0.01626947
-0.017318771
-0.018411062
-0.019511274
-0.020617441
-0.021738257
-0.022870294
-0.024011149
-0.025159842
-0.026313468
-0.027470203
-0.028627084
-0.029781689
-0.030930968
-0.032072024
-0.033201462
-0.03431578
-0.035410954
-0.036482644
-0.037525942
-0.038535462
-0.039505216
-0.040428655
-0.041298635
-0.042107471
-0.042846959
-0.043508469
-0.044083024
-0.044561414
-0.044934334
-0.045192514
-0.045326871
-0.045328658
-0.045189608
-0.044902059
-0.044459093
-0.04385462
-0.043083482
-0.042141499
-0.041025545
-0.039733551
-0.038264551
-0.036618669
-0.034797145
-0.03280229
-0.03063753
-0.028307319
-0.025817187
-0.02317363
-0.020384159
-0.017457129
-0.014401818
-0.011228166
-0.0079468842
-0.0045691157
-0.0011065722
0.0024289021
0.0060251414
0.0096701195
0.013351778
0.017058492
0.020778884
0.02450227
0.028218481
0.031918215
0.035592974
0.039235155
0.042838297
0.046396676
0.049906175
0.053362908
0.056765565
0.060111928
0.063404375
0.066641968
0.069832781
0.072976592
0.076091882
0.07917829
0.082275481
0.085381022
0.088579232
0.091858794
0.095397054
0.099147424
0.10347587
0.10820796
0.11408828
0.12053027
0.12907265
0.13794014
0.15050396
0.16186306
0.17983827
0.19217177
0.21584373
0.22690129
0.24496927
-0.00032068177
-0.00021296253
-0.00082771702
-0.00085334961
-0.00137926
-0.0015516416
-0.0020337449
-0.0023255331
-0.0028073567
-0.0031979858
-0.0037101277
-0.0041888158
-0.0047514479
-0.0053136266
-0.0059394563
-0.006583047
-0.007278572
-0.0080015803
-0.0087693199
-0.009570317
-0.010414971
-0.011294271
-0.012208695
-0.0131461
-0.01410581
-0.015102503
-0.016148144
-0.017211071
-0.018279088
-0.019368175
-0.020475634
-0.021594197
-0.022724529
-0.023864006
-0.025011645
-0.026164993
-0.027322157
-0.028480471
-0.029637547
-0.0307905
-0.031936493
-0.033072228
-0.034194265
-0.03529864
-0.036381056
-0.037436635
-0.038460006
-0.039445178
-0.040385581
-0.041274031
-0.042102777
-0.042863533
-0.043547559
-0.044145746
-0.044648729
-0.04504702
-0.045331145
-0.045491789
-0.045519954
-0.045407097
-0.045145261
-0.044727219
-0.044146553
-0.043397774
-0.042476365
-0.041378866
-0.040102883
-0.03864714
-0.037011471
-0.035196859
-0.033205385
-0.031040288
-0.028705873
-0.02620757
-0.023551815
-0.02074612
-0.01779887
-0.014719445
-0.011517903
-0.0082051578
-0.0047925481
-0.0012920687
0.0022841378
0.0059235279
0.009613762
0.013342397
0.017097505
0.020867345
0.02464096
0.028407855
0.032158511
0.03588415
0.039577023
0.043230443
0.046838641
0.050397388
0.053903003
0.057354173
0.060749206
0.064090568
0.067378501
0.070621283
0.073821124
0.076996739
0.0801525
0.083327632
0.086528215
0.089834632
0.093249419
0.096934017
0.10086268
0.10535287
0.11026479
0.11621917
0.12271519
0.1310044
0.1395996
0.15118672
0.16186312
0.17757506
0.18929246
0.20859902
0.21990688
0.23221747
-0.00053234475
-0.00015465259
-0.00092266512
-0.0008476503
-0.0014265401
-0.0015610438
-0.0020583344
-0.0023348131
-0.0028175981
-0.0032000103
-0.0037073368
-0.0041788473
-0.0047334697
-0.0052870958
-0.0059023066
-0.0065357924
-0.0072218839
-0.0079363403
-0.0086972028
-0.0094885101
-0.010317621
-0.011169315
-0.012056976
-0.012991641
-0.013968277
-0.014967098
-0.015979231
-0.017016937
-0.018081685
-0.019162497
-0.020257045
-0.021365844
-0.022486946
-0.023618614
-0.024759525
-0.025907395
-0.027060456
-0.02821619
-0.029372343
-0.030526156
-0.031674896
-0.032815352
-0.033944157
-0.035057404
-0.036150831
-0.037219584
-0.038258296
-0.039260963
-0.040220982
-0.041131121
-0.04198356
-0.042769922
-0.043481353
-0.044108607
-0.044642152
-0.045072305
-0.045389364
-0.045583752
-0.045646173
-0.045567751
-0.04534016
-0.044955771
-0.044407738
-0.043690121
-0.042797933
-0.041727242
-0.040475179
-0.039040012
-0.037421136
-0.035619131
-0.033635713
-0.031473809
-0.02913746
-0.026631906
-0.02396344
-0.021139517
-0.018168515
-0.015059892
-0.011823833
-0.0084714683
-0.0050143793
-0.0014649265
0.0021644799
0.0058609218
0.0096116547
0.013403771
0.017224909
0.021062835
0.024906207
0.028744095
0.032566713
0.036365004
0.040131166
0.043858488
0.047541508
0.051176148
0.054759316
0.058290117
0.061767978
0.065196114
0.068576535
0.071918395
0.075226537
0.078520035
0.081806825
0.085124254
0.088482711
0.091954461
0.095546879
0.099398855
0.10349171
0.10809045
0.11307527
0.118954
0.12529843
0.13311185
0.14115549
0.15150354
0.16105003
0.17405913
0.18394097
0.19787553
0.20645495
0.21262445
-0.0007971117
-8.1155982e-05
-0.0010302093
-0.00083206343
-0.001470056
-0.0015562705
-0.0020681757
-0.0023226503
-0.0028036215
-0.0031727834
-0.0036722719
-0.0041331208
-0.0046779813
-0.005221682
-0.0058270839
-0.006450038
-0.0071211192
-0.0078186658
-0.0085530551
-0.0093201027
-0.010134211
-0.0109918
-0.011886308
-0.012801032
-0.013744181
-0.014717373
-0.015724389
-0.016754003
-0.017801486
-0.018869227
-0.01995505
-0.021056017
-0.022171242
-0.023298651
-0.024437047
-0.0255844
-0.026738998
-0.027898574
-0.02906096
-0.030223554
-0.031383694
-0.032538252
-0.033683899
-0.034816753
-0.035932552
-0.03702642
-0.038092948
-0.039126071
-0.040119101
-0.041064697
-0.041954907
-0.042781191
-0.043534505
-0.044205376
-0.044784007
-0.045260411
-0.045624534
-0.045866406
-0.045976288
-0.04594482
-0.045763148
-0.045423083
-0.04491719
-0.044238925
-0.043382689
-0.042343951
-0.04111926
-0.039706342
-0.038104093
-0.036312661
-0.034333392
-0.032168933
-0.029823114
-0.027301073
-0.02460907
-0.021754645
-0.018746316
-0.015593822
-0.012307636
-0.0088993618
-0.0053809944
-0.0017654602
0.0019341772
0.0057041719
0.0095311515
0.013401412
0.01730199
0.021219915
0.025143305
0.029060581
0.032961524
0.036836529
0.040677468
0.044477172
0.048229909
0.051931397
0.055578718
0.059171021
0.062708158
0.066193484
0.069629995
0.073027036
0.076391204
0.079741523
0.083088823
0.086469111
0.089897196
0.09343986
0.097110785
0.10103252
0.10519607
0.10982526
0.11482203
0.12060058
0.12680229
0.13422412
0.14185967
0.15130354
0.16015801
0.17150077
0.18060929
0.19200571
0.19980522
0.20395569
-0.001092408
-5.5701686e-06
-0.0011497769
-0.00081740134
-0.0015206123
-0.0015547327
-0.0020844961
-0.0023155803
-0.0027963171
-0.0031511435
-0.0036425433
-0.0040903399
-0.004622039
-0.0051501658
-0.0057353583
-0.0063373624
-0.0069918052
-0.0076744686
-0.0084070338
-0.0091705893
-0.0099660014
-0.010791041
-0.011651537
-0.01254762
-0.013478795
-0.014437021
-0.015419131
-0.016426628
-0.017458619
-0.018511042
-0.019582106
-0.020670702
-0.021775331
-0.022894539
-0.02402702
-0.025170984
-0.026324831
-0.02748647
-0.028653861
-0.029824534
-0.030995917
-0.032164959
-0.033328374
-0.034482303
-0.03562248
-0.036744004
-0.037841416
-0.038908577
-0.039938699
-0.040924318
-0.041857328
-0.042729003
-0.043530077
-0.044250814
-0.044881111
-0.045410625
-0.045828894
-0.046125488
-0.046290154
-0.046312966
-0.046184458
-0.045895792
-0.045438848
-0.044806383
-0.043992097
-0.042990764
-0.041798264
-0.040411702
-0.038829398
-0.037051006
-0.035077444
-0.032911037
-0.03055537
-0.028015463
-0.025297533
-0.022409215
-0.019359195
-0.016157509
-0.012815011
-0.0093437902
-0.0057563998
-0.0020666011
0.0017120847
0.0055653103
0.0094789146
0.013438381
0.017429961
0.021439806
0.025455339
0.029464181
0.03345557
0.037419314
0.041347003
0.045231295
0.049066834
0.052849239
0.056575959
0.060246218
0.063860726
0.067423267
0.07093791
0.074414357
0.077860613
0.081295247
0.084730585
0.088199932
0.09171928
0.095347465
0.099098918
0.10307734
0.10727602
0.11187848
0.11679992
0.12237118
0.1282887
0.13517043
0.14219426
0.1505422
0.15835655
0.16775448
0.17538777
0.18393784
0.18998621
0.19255642
-0.0013845369
7.9398671e-05
-0.0012661045
-0.00079461745
-0.0015614434
-0.001538236
-0.0020823268
-0.0022846453
-0.0027610709
-0.0030966446
-0.0035764331
-0.0040079071
-0.0045258596
-0.0050394531
-0.0056158547
-0.0062085439
-0.006845552
-0.0075079937
-0.0082101026
-0.0089441526
-0.0097185579
-0.010528593
-0.011374049
-0.012247836
-0.013152707
-0.014087027
-0.015051665
-0.016042016
-0.017056073
-0.018093144
-0.01915167
-0.020230013
-0.021327075
-0.022441359
-0.023571717
-0.024716553
-0.02587439
-0.027043342
-0.028221484
-0.029406493
-0.030595878
-0.031786662
-0.032975594
-0.034158827
-0.035332072
-0.036490384
-0.037628226
-0.038739351
-0.039816836
-0.040853041
-0.041839649
-0.042767683
-0.043627574
-0.04440924
-0.04510217
-0.045695561
-0.04617843
-0.046539769
-0.046768685
-0.046854567
-0.046787216
-0.046557028
-0.046155097
-0.04557339
-0.044804819
-0.043843411
-0.042684328
-0.041324033
-0.039760264
-0.0379922
-0.036020366
-0.033846821
-0.031474977
-0.028909829
-0.026157652
-0.023226305
-0.020124748
-0.016863516
-0.013453875
-0.0099087269
-0.0062411531
-0.0024655525
0.0014035134
0.0053502573
0.0093597518
0.013416305
0.017505425
0.021612242
0.02572353
0.029826049
0.03390857
0.037960208
0.041972255
0.045936738
0.049847616
0.053700296
0.057492504
0.061223724
0.064894871
0.068509838
0.07207349
0.075595602
0.079085249
0.082560717
0.086035756
0.089541946
0.093097054
0.096754469
0.10053086
0.10451608
0.10870779
0.11325821
0.11809718
0.12348901
0.12918272
0.13565543
0.14225108
0.14984252
0.1570219
0.16523387
0.17212817
0.17919933
0.18447135
0.18624884
-0.0016542159
0.00016246375
-0.0013719768
-0.00076500593
-0.0015962666
-0.0015170641
-0.0020783612
-0.0022533846
-0.0027283103
-0.0030459703
-0.0035158042
-0.0039308804
-0.0044333139
-0.0049280578
-0.0054814098
-0.0060500548
-0.0066667213
-0.007309835
-0.0079958079
-0.0087119783
-0.0094634458
-0.010246104
-0.011063631
-0.011913824
-0.012797305
-0.013710168
-0.014651428
-0.015620192
-0.01661555
-0.017635574
-0.018679058
-0.019744936
-0.020832103
-0.021939462
-0.023065937
-0.02421018
-0.025370857
-0.026546275
-0.027734652
-0.028933808
-0.030141356
-0.031354409
-0.032569764
-0.0337836
-0.034991621
-0.036188842
-0.037369651
-0.038527695
-0.0396559
-0.040746441
-0.041790763
-0.042779605
-0.043703063
-0.044550656
-0.045311419
-0.045974027
-0.046526914
-0.046958426
-0.047256964
-0.047411161
-0.047410018
-0.047243101
-0.046900654
-0.046373795
-0.045654601
-0.0447363
-0.043613297
-0.04228138
-0.040737674
-0.038980861
-0.037011051
-0.034830034
-0.032441032
-0.029849028
-0.027060348
-0.024083097
-0.020926543
-0.017601667
-0.014120373
-0.010496097
-0.0067427698
-0.0028764469
0.0010880022
0.0051344723
0.0092467704
0.01340819
0.017603189
0.021815717
0.026031664
0.030236679
0.034418788
0.038566233
0.042669675
0.04672094
0.050715107
0.054647184
0.058515012
0.062317531
0.066056597
0.06973637
0.073362194
0.076943904
0.080491236
0.08402157
0.087549009
0.091102293
0.094698808
0.098385037
0.1021766
0.10614854
0.11029869
0.11474955
0.11943997
0.12457538
0.12994514
0.13590622
0.14193129
0.14864089
0.15496767
0.16185657
0.16768712
0.17322978
0.17747427
0.1787924
-0.0018843968
0.00024004109
-0.0014636178
-0.00073137108
-0.0016184227
-0.0014831094
-0.0020561326
-0.0022006189
-0.002669681
-0.0029657334
-0.0034224343
-0.0038187517
-0.0043052698
-0.0047823513
-0.0053195683
-0.0058704889
-0.0064663384
-0.0070866006
-0.0077463236
-0.0084364735
-0.0091642566
-0.0099249524
-0.010720522
-0.011547089
-0.012406164
-0.013295934
-0.0142167
-0.015166256
-0.016143749
-0.017148226
-0.018178762
-0.019234392
-0.020314289
-0.021417489
-0.02254311
-0.023690015
-0.024857035
-0.026042687
-0.027245339
-0.028462973
-0.029693316
-0.030933581
-0.032180623
-0.033430656
-0.034679375
-0.035921755
-0.037152099
-0.038363931
-0.039550003
-0.040702267
-0.04181189
-0.042869276
-0.043864119
-0.044785473
-0.045621835
-0.04636128
-0.046991564
-0.0475003
-0.04787509
-0.048103724
-0.048174317
-0.04807553
-0.047796685
-0.047328001
-0.046660664
-0.045787076
-0.044700861
-0.043397125
-0.04187238
-0.040124835
-0.038154204
-0.03596205
-0.033551455
-0.030927443
-0.02809646
-0.025066944
-0.021848503
-0.018452844
-0.014892181
-0.011181409
-0.0073348907
-0.0033685312
0.00070118581
0.0048553147
0.0090772163
0.013348605
0.017653239
0.021973784
0.026295498
0.030602976
0.034883924
0.039125775
0.043319398
0.047455888
0.051528236
0.055531198
0.059463384
0.063324773
0.067116781
0.070843411
0.074510908
0.07812896
0.081707817
0.085264484
0.088813492
0.092381763
0.095986994
0.099670744
0.1034489
0.10738542
0.11147999
0.11583215
0.1203909
0.12531592
0.13043436
0.13601165
0.1416316
0.14772931
0.15350638
0.15955622
0.16476799
0.16942279
0.17307854
0.17403607
-0.0020703458
0.00031016869
-0.0015374588
-0.0006945516
-0.0016315198
-0.0014449593
-0.0020293328
-0.0021454418
-0.0026095099
-0.0028849199
-0.0033288271
-0.0037058344
-0.0041746865
-0.0046309389
-0.0051463889
-0.0056744729
-0.0062484312
-0.006846852
-0.0074852425
-0.0081530293
-0.0088566743
-0.0095918033
-0.010361693
-0.011164012
-0.011999882
-0.01286715
-0.013765798
-0.014694842
-0.015653887
-0.016641963
-0.017658459
-0.018702744
-0.01977418
-0.020872117
-0.021995855
-0.023144511
-0.024317114
-0.025512395
-0.026728905
-0.027964802
-0.029217955
-0.030485701
-0.031764978
-0.033052057
-0.034342645
-0.035631695
-0.036913437
-0.038181274
-0.039427788
-0.040644699
-0.04182288
-0.042952375
-0.044022447
-0.045021646
-0.04593789
-0.046758599
-0.047470803
-0.048061321
-0.048516901
-0.048824428
-0.048971074
-0.048944538
-0.048733169
-0.04832623
-0.047713975
-0.046887935
-0.045840912
-0.044567297
-0.043062956
-0.041325597
-0.039354512
-0.037151028
-0.03471805
-0.032060666
-0.029185403
-0.026101062
-0.022817647
-0.019347304
-0.015703381
-0.011900555
-0.0079543009
-0.0038847689
0.00029209358
0.004559012
0.0088967997
0.013285979
0.017709016
0.022147044
0.026584332
0.031004006
0.035392839
0.039737031
0.044025544
0.048249081
0.052404643
0.05648617
0.060491592
0.064418534
0.068270379
0.072051758
0.075768441
0.079430119
0.083047478
0.0866362
0.090210752
0.09379533
0.097406611
0.10108046
0.1048311
0.10871123
0.11271997
0.11693567
0.1213137
0.12597413
0.13077299
0.1359003
0.14102597
0.14644214
0.15155468
0.15671484
0.16118405
0.16498091
0.16802397
0.16882014
-0.0022115628
0.00037203665
-0.001591573
-0.00065355548
-0.0016300509
-0.0013954338
-0.0019861566
-0.0020731419
-0.0025291856
-0.0027824178
-0.003211865
-0.0035688344
-0.0040202136
-0.0044567456
-0.0049530392
-0.005460404
-0.0060123691
-0.0065874723
-0.0072012997
-0.0078444098
-0.0085239957
-0.0092356121
-0.009982154
-0.010761044
-0.011573755
-0.012418961
-0.013297162
-0.014207295
-0.015149227
-0.016122427
-0.017126576
-0.018161284
-0.019226183
-0.020320846
-0.021444808
-0.022597429
-0.023777956
-0.024985355
-0.026218375
-0.027475374
-0.02875438
-0.030052877
-0.031367903
-0.032695803
-0.034032313
-0.035372369
-0.036710135
-0.038038894
-0.039351044
-0.040638058
-0.04189049
-0.043097991
-0.044249348
-0.045332559
-0.046334904
-0.047243083
-0.048043331
-0.048721602
-0.049263709
-0.049655564
-0.049883317
-0.04993364
-0.049793836
-0.049452161
-0.04889788
-0.048121611
-0.047115296
-0.045872588
-0.044388683
-0.042660789
-0.040687768
-0.038470724
-0.036012408
-0.03331798
-0.030394119
-0.027250001
-0.023895976
-0.020345283
-0.016610705
-0.012710662
-0.0086609669
-0.0044775536
-0.00018274207
0.0042027162
0.0086610951
0.013171089
0.017714712
0.022271495
0.026825143
0.031357379
0.035854888
0.040302554
0.044691854
0.049009474
0.053247615
0.057400173
0.061467848
0.065452404
0.069354505
0.073177338
0.076928883
0.080618366
0.084256267
0.087858276
0.091438527
0.095019587
0.098617773
0.10226475
0.10597427
0.10979048
0.11371335
0.11780498
0.12202788
0.12647195
0.13101942
0.13580397
0.1405667
0.14549569
0.15015139
0.1547142
0.15869756
0.16193913
0.16456526
0.16517361
-0.002312308
0.00042466963
-0.0016277248
-0.00061152725
-0.0016191552
-0.001342523
-0.0019374796
-0.0019977165
-0.0024454529
-0.0026773318
-0.0030920728
-0.0034286223
-0.0038613679
-0.0042765375
-0.0047514587
-0.0052363248
-0.0057659676
-0.006318364
-0.006909394
-0.0075291114
-0.0081846617
-0.0088718124
-0.0095939977
-0.010349241
-0.011139084
-0.011962328
-0.012819577
-0.013710308
-0.014634707
-0.015592483
-0.016583618
-0.017608022
-0.018665589
-0.019756192
-0.020879614
-0.022035493
-0.023223322
-0.024442324
-0.025691476
-0.026969359
-0.028274194
-0.029603634
-0.030954854
-0.032324298
-0.033707758
-0.035100178
-0.036495675
-0.037887427
-0.039267658
-0.040627595
-0.041957469
-0.043246523
-0.04448305
-0.045654463
-0.046747368
-0.047747703
-0.048640854
-0.049411852
-0.050045517
-0.05052672
-0.050840522
-0.050972497
-0.050908835
-0.050636718
-0.05014435
-0.049421383
-0.04845883
-0.047249563
-0.045788048
-0.044070959
-0.042096674
-0.039866067
-0.03738167
-0.034648772
-0.031674068
-0.028467283
-0.025039192
-0.021403193
-0.017575222
-0.013570114
-0.0094080845
-0.0051101062
-0.00069278534
0.0038204562
0.0084097168
0.013051524
0.01772659
0.022412357
0.027091593
0.031744166
0.036356015
0.040910859
0.045398545
0.049808774
0.054136034
0.058373607
0.062516148
0.066560965
0.070514957
0.074384728
0.078174621
0.081894051
0.085554889
0.089170499
0.092755294
0.09632935
0.099907809
0.103518
0.10717192
0.11090562
0.11471838
0.11865784
0.12269127
0.12688324
0.13113631
0.13553974
0.13989024
0.14430039
0.14844886
0.15240721
0.15587274
0.15860477
0.16084891
0.16138533
-0.0023777333
0.00046939749
-0.0016454934
-0.00056616396
-0.0015946854
-0.0012803609
-0.0018749928
-0.0019090244
-0.0023461175
-0.0025562149
-0.0029551877
-0.0032711855
-0.0036853967
-0.0040798494
-0.0045343772
-0.0049975077
-0.0055048356
-0.0060340109
-0.0066012869
-0.0071970434
-0.0078288036
-0.0084924046
-0.0091913084
-0.0099236338
-0.010691161
-0.011493124
-0.012330441
-0.013202799
-0.014110668
-0.015054079
-0.016033316
-0.017048565
-0.018100011
-0.019187801
-0.020311995
-0.021472515
-0.02266912
-0.023901309
-0.025168312
-0.026468958
-0.027801682
-0.029164341
-0.030554265
-0.031968027
-0.033401496
-0.034849647
-0.036306565
-0.037765333
-0.039218006
-0.040655565
-0.042067904
-0.04344384
-0.044771142
-0.046036602
-0.0472261
-0.048324759
-0.049317049
-0.050187008
-0.050918384
-0.051494927
-0.051900524
-0.052119571
-0.052137059
-0.051939022
-0.051512527
-0.050846197
-0.049930054
-0.048756145
-0.047318159
-0.045612215
-0.043636181
-0.041390686
-0.038878067
-0.03610368
-0.033074448
-0.029800372
-0.026292677
-0.022566515
-0.018636424
-0.014523112
-0.01024241
-0.0058170105
-0.0012678897
0.003380115
0.0081063817
0.012885277
0.017696817
0.022516231
0.027325719
0.032103105
0.036834087
0.041500469
0.046092407
0.050596219
0.055006149
0.059315541
0.063525321
0.067633107
0.071637455
0.075542032
0.079359683
0.083099173
0.086769722
0.090386626
0.093963005
0.097517697
0.1010655
0.10463015
0.10822325
0.11187448
0.11558364
0.11938739
0.12325806
0.12724132
0.13125741
0.13536291
0.13939884
0.14342328
0.14720141
0.15072867
0.15382335
0.15619283
0.1581452
0.15857314
-0.0024144032
0.00050612835
-0.0016484837
-0.00052050496
-0.0015616161
-0.0012151976
-0.0018067296
-0.0018167208
-0.0022422747
-0.0024312692
-0.0028139393
-0.0031091694
-0.0035040459
-0.0038769586
-0.0043100968
-0.004750787
-0.0052356199
-0.0057417991
-0.0062858954
-0.0068581
-0.007466079
-0.0081058179
-0.0087810801
-0.0094903025
-0.010235446
-0.011015972
-0.01183301
-0.012686596
-0.01357749
-0.014506012
-0.015472748
-0.016478191
-0.017522825
-0.01860711
-0.019731405
-0.020895941
-0.022100775
-0.023345708
-0.024630252
-0.025953513
-0.027314179
-0.028710337
-0.030139512
-0.031598439
-0.033083097
-0.034588523
-0.036108801
-0.03763694
-0.039164845
-0.040683259
-0.042181744
-0.043648685
-0.045071311
-0.046435764
-0.047727165
-0.048929772
-0.05002708
-0.051002071
-0.05183734
-0.052515438
-0.053018986
-0.053331114
-0.05343552
-0.053316998
-0.052961385
-0.052356198
-0.051490377
-0.050355083
-0.048943147
-0.047250098
-0.04527321
-0.043012887
-0.040471128
-0.037653571
-0.03456683
-0.03122206
-0.027630321
-0.023808852
-0.019772518
-0.015540705
-0.011133365
-0.0065748285
-0.0018855922
0.0029068873
0.007780804
0.012707696
0.017666556
0.022629801
0.027578946
0.032489295
0.037346224
0.042129693
0.046829776
0.051432486
0.055932701
0.060322079
0.064599604
0.0687633
0.072820286
0.076770322
0.080617761
0.084373858
0.08805484
0.09166995
0.095234041
0.098763935
0.10227301
0.10578235
0.10930179
0.11285562
0.11644312
0.12009162
0.12377707
0.12752989
0.1312844
0.13507273
0.13877101
0.14240044
0.14579289
0.1489004
0.15162892
0.15367749
0.15537973
0.15576758
-0.0024276794
0.00053702536
-0.0016368527
-0.00047197939
-0.0015169278
-0.0011424199
-0.001726882
-0.0017137821
-0.0021258551
-0.002293751
-0.0026592468
-0.0029337018
-0.0033091137
-0.0036607487
-0.004072759
-0.0044912338
-0.0049535156
-0.0054364778
-0.005957067
-0.0065055587
-0.0070898866
-0.0077061379
-0.008358222
-0.0090447428
-0.0097678771
-0.010527384
-0.011324657
-0.012159997
-0.013034445
-0.013948626
-0.01490343
-0.015899651
-0.016938089
-0.018019515
-0.019144606
-0.02031392
-0.021527832
-0.022786466
-0.024089647
-0.025436786
-0.026826853
-0.0282582
-0.02972858
-0.031234923
-0.032773353
-0.034338997
-0.035925964
-0.037527213
-0.039134515
-0.040738383
-0.042328046
-0.043891448
-0.045415251
-0.046884919
-0.048284765
-0.049598123
-0.050807446
-0.051894577
-0.052840871
-0.053627581
-0.054235961
-0.054647773
-0.054845312
-0.054812041
-0.054532461
-0.053992905
-0.053181143
-0.052087395
-0.05070356
-0.049024547
-0.047046996
-0.044771042
-0.042198433
-0.03933477
-0.036187322
-0.0327666
-0.029087168
-0.025163461
-0.021012107
-0.016655517
-0.0121128
-0.0074108474
-0.0025718207
0.0023741629
0.0074044116
0.012487368
0.017601399
0.022715715
0.027811488
0.032861025
0.037849712
0.042754889
0.047566996
0.052269618
0.056858385
0.061324148
0.065667936
0.069886733
0.073984696
0.077966286
0.081841949
0.085613343
0.089292584
0.092898016
0.096441433
0.099938334
0.10340298
0.1068527
0.11029779
0.11375775
0.1172325
0.12074226
0.1242667
0.12782505
0.13136345
0.13489635
0.138327
0.14165046
0.14474616
0.14753689
0.14998452
0.15178648
0.15328256
0.15360293
-0.0024230812
0.00056232372
-0.0016142245
-0.00042297441
-0.0014647917
-0.0010665773
-0.0016411974
-0.001606707
-0.0020041467
-0.0021514262
-0.0024990686
-0.0027525845
-0.0031078794
-0.0034377458
-0.0038280175
-0.0042238636
-0.0046633516
-0.0051230364
-0.0056201575
-0.0061449228
-0.0067054452
-0.0072979359
-0.0079265251
-0.0085900425
-0.009290869
-0.010029001
-0.010806068
-0.011622664
-0.012480116
-0.013379347
-0.014321559
-0.015307865
-0.016339393
-0.017417254
-0.018542465
-0.019715934
-0.020938383
-0.022210292
-0.02353183
-0.024902747
-0.026322334
-0.027789246
-0.029301508
-0.030856283
-0.032449883
-0.034077565
-0.035733497
-0.037410625
-0.039100607
-0.040793749
-0.042478954
-0.044143721
-0.045774137
-0.04735496
-0.048869651
-0.050300572
-0.05162906
-0.05283574
-0.05390063
-0.054803588
-0.055524382
-0.056043296
-0.056341095
-0.056399803
-0.05620246
-0.055734118
-0.05498126
-0.053933097
-0.052580491
-0.050917698
-0.04894061
-0.04664916
-0.044044557
-0.041133067
-0.037920465
-0.034422226
-0.030647622
-0.026615572
-0.022342303
-0.017851744
-0.013164435
-0.0083097342
-0.0033102709
0.0018004605
0.0069990011
0.012249909
0.017530983
0.022807445
0.02806031
0.033258221
0.03838688
0.043420698
0.048350836
0.053158979
0.057841735
0.062388278
0.066800265
0.071074191
0.075216915
0.079230386
0.083123598
0.086908091
0.09059085
0.094181658
0.097698495
0.10115723
0.10456868
0.10795054
0.11131056
0.11466546
0.11801472
0.12137297
0.12472276
0.12807472
0.13138473
0.13465491
0.13781031
0.14083011
0.14363061
0.14612161
0.14830481
0.14989311
0.15121775
0.15151186
-0.0024043728
0.00058408846
-0.0015808135
-0.00037121021
-0.0014030888
-0.00098422468
-0.0015457168
-0.0014907036
-0.0018718516
-0.0019985985
-0.0023275693
-0.0025600888
-0.0028949443
-0.0032030396
-0.0035714721
-0.0039446372
-0.0043611511
-0.0047973478
-0.005270759
-0.0057716316
-0.0063082862
-0.0068770478
-0.0074822157
-0.0081227977
-0.0088013812
-0.0095182135
-0.010275172
-0.01107312
-0.01191367
-0.012798044
-0.01372776
-0.014704256
-0.015728998
-0.016803444
-0.017928971
-0.019106855
-0.020338195
-0.021623848
-0.02296436
-0.024359857
-0.025809986
-0.027313746
-0.028869473
-0.03047461
-0.032125694
-0.033818157
-0.035546263
-0.037302975
-0.039079867
-0.040867055
-0.042653126
-0.04442513
-0.04616856
-0.047867436
-0.049504321
-0.051060539
-0.052516233
-0.05385072
-0.055042571
-0.056070133
-0.05691156
-0.057545536
-0.057951161
-0.0581089
-0.058000201
-0.057608746