/*--------------------------------*- C++ -*----------------------------------*\
| =========                 |                                                 |
| \\      /  F ield         | foam-extend: Open Source CFD                    |
|  \\    /   O peration     | Version:     4.1                                |
|   \\  /    A nd           | Web:         http://www.foam-extend.org         |
|    \\/     M anipulation  |                                                 |
\*---------------------------------------------------------------------------*/
FoamFile
{
    version     2.0;
    format      ascii;
    class       surfaceScalarField;
    location    "2.2";
    object      phi;
}
// * * * * * * * * * * * * * * * * * * * * * * * * * * * * * * * * * * * * * //

dimensions      [0 3 -1 0 0 0 0];

internalField   nonuniform List<scalar> 
31929
(
-3.270062e-05
-3.698996e-08
-3.2648652e-05
-5.1968243e-08
-3.2611696e-05
-3.6956138e-08
-3.255718e-05
-5.4515273e-08
-3.2504778e-05
-5.2401939e-08
-3.2441395e-05
-6.3383566e-08
-3.2374255e-05
-6.7139574e-08
-3.2299695e-05
-7.4560491e-08
-3.2219502e-05
-8.019266e-08
-3.2133423e-05
-8.607926e-08
-3.2041559e-05
-9.1863389e-08
-3.1944663e-05
-9.6896647e-08
-3.1842596e-05
-1.0206704e-07
-3.1736339e-05
-1.0625664e-07
-3.1625982e-05
-1.1035738e-07
-3.1512566e-05
-1.1341541e-07
-3.1396524e-05
-1.1604237e-07
-3.1278966e-05
-1.1755803e-07
-3.1160653e-05
-1.1831241e-07
-3.1042852e-05
-1.1780197e-07
-3.0926708e-05
-1.1614363e-07
-3.0813616e-05
-1.1309161e-07
-3.0704922e-05
-1.0869463e-07
-3.0602143e-05
-1.0277826e-07
-3.0506676e-05
-9.5466927e-08
-3.0420377e-05
-8.6299471e-08
-3.0344992e-05
-7.5384656e-08
-3.0281872e-05
-6.3120518e-08
-3.023205e-05
-4.9821689e-08
-3.0197863e-05
-3.4187052e-08
-3.0182303e-05
-1.5560112e-08
-3.018838e-05
6.0775563e-09
-3.0216973e-05
2.85929e-08
-3.026668e-05
4.9706821e-08
-3.0337181e-05
7.0500612e-08
-3.042875e-05
9.1569668e-08
-3.0541937e-05
1.1318661e-07
-3.0677341e-05
1.3540369e-07
-3.0835512e-05
1.5817114e-07
-3.1016933e-05
1.8142127e-07
-3.1222014e-05
2.0508068e-07
-3.1451094e-05
2.2908012e-07
-3.1704454e-05
2.5336004e-07
-3.1982314e-05
2.7786062e-07
-3.2284842e-05
3.0252741e-07
-3.2612147e-05
3.2730464e-07
-3.2964281e-05
3.5213434e-07
-3.3341233e-05
3.7695248e-07
-3.3742918e-05
4.0168457e-07
-3.4169162e-05
4.2624397e-07
-3.4619689e-05
4.5052709e-07
-3.50941e-05
4.7441098e-07
-3.5591851e-05
4.9775134e-07
-3.6112233e-05
5.203816e-07
-3.6654344e-05
5.4211132e-07
-3.7217074e-05
5.6273025e-07
-3.7799084e-05
5.8200947e-07
-3.839879e-05
5.9970659e-07
-3.9014362e-05
6.1557199e-07
-3.9643719e-05
6.2935664e-07
-4.0284537e-05
6.4081843e-07
-4.0934272e-05
6.4973433e-07
-4.1590179e-05
6.5590731e-07
-4.2249355e-05
6.5917604e-07
-4.2908777e-05
6.5942225e-07
-4.3565355e-05
6.5657771e-07
-4.4215984e-05
6.5062926e-07
-4.4857604e-05
6.4161944e-07
-4.5487254e-05
6.2965038e-07
-4.6102135e-05
6.1488078e-07
-4.6699658e-05
5.9752345e-07
-4.72775e-05
5.7784182e-07
-4.7833645e-05
5.5614486e-07
-4.8366425e-05
5.3278013e-07
-4.8874555e-05
5.0812987e-07
-4.9357159e-05
4.8260443e-07
-4.9813795e-05
4.5663546e-07
-5.0244467e-05
4.3067251e-07
-5.0649642e-05
4.0517515e-07
-5.1030252e-05
3.8061001e-07
-5.1387696e-05
3.5744331e-07
-5.1723836e-05
3.3614045e-07
-5.2040991e-05
3.1715472e-07
-5.2341923e-05
3.0093177e-07
-5.2629819e-05
2.878969e-07
-5.2908281e-05
2.7846188e-07
-5.3181295e-05
2.7301387e-07
-5.3453222e-05
2.7192683e-07
-5.3728772e-05
2.7555026e-07
-5.4013001e-05
2.8422828e-07
-5.4311287e-05
2.9828686e-07
-5.462935e-05
3.1806268e-07
-5.4973238e-05
3.4388777e-07
-5.5349374e-05
3.7613632e-07
-5.5764572e-05
4.1519801e-07
-5.6226136e-05
4.6156348e-07
-5.6741907e-05
5.1577101e-07
-5.7320482e-05
5.7857552e-07
-5.7971323e-05
6.5084086e-07
-5.8705212e-05
7.3388863e-07
-5.9534495e-05
8.2928298e-07
-6.0474059e-05
9.3956421e-07
-6.1541852e-05
1.0677928e-06
-6.2760952e-05
1.2191009e-06
-6.4160591e-05
1.399638e-06
-6.5780375e-05
1.6197844e-06
-6.7671931e-05
1.8915565e-06
-6.9906987e-05
2.2350553e-06
-7.2578841e-05
2.6718546e-06
-7.5816536e-05
3.2376952e-06
-7.9782324e-05
3.9657881e-06
-8.4694357e-05
4.9120328e-06
-9.0809111e-05
6.1147538e-06
-9.8456647e-05
7.6475361e-06
-0.00010798381
9.527164e-06
-0.00011981763
1.1833817e-05
-0.00013432154
1.4503909e-05
-0.00015194836
1.7626821e-05
-0.00017288299
2.0934634e-05
-0.00019752377
2.4640782e-05
-0.00022530247
2.7778693e-05
-0.00025684088
3.1538417e-05
-0.00028730053
3.0459641e-05
3.5280074e-05
-9.6567266e-05
-8.6437062e-08
-9.6480409e-05
-1.3882514e-07
-9.6397691e-05
-1.1967406e-07
-9.6291559e-05
-1.6064758e-07
-9.6179441e-05
-1.6451938e-07
-9.6050728e-05
-1.9209704e-07
-9.5911876e-05
-2.0599106e-07
-9.5759766e-05
-2.2667016e-07
-9.5596607e-05
-2.4335172e-07
-9.5422133e-05
-2.6055392e-07
-9.5237253e-05
-2.767432e-07
-9.5042766e-05
-2.9138324e-07
-9.4839448e-05
-3.0538496e-07
-9.4628595e-05
-3.1711004e-07
-9.4411298e-05
-3.2765452e-07
-9.4189267e-05
-3.3544651e-07
-9.3964115e-05
-3.4119441e-07
-9.3737968e-05
-3.4370434e-07
-9.3512947e-05
-3.433338e-07
-9.329158e-05
-3.3916904e-07
-9.3076492e-05
-3.3123129e-07
-9.2870647e-05
-3.1893653e-07
-9.2677452e-05
-3.0188986e-07
-9.2500807e-05
-2.7942288e-07
-9.234451e-05
-2.5176478e-07
-9.2212108e-05
-2.1870145e-07
-9.2107177e-05
-1.8031472e-07
-9.2036122e-05
-1.3417581e-07
-9.2006634e-05
-7.9309743e-08
-9.2024991e-05
-1.58304e-08
-9.2094356e-05
5.3804763e-08
-9.2211361e-05
1.2308308e-07
-9.2374508e-05
1.917394e-07
-9.258659e-05
2.6178909e-07
-9.284944e-05
3.333504e-07
-9.3164815e-05
4.0694477e-07
-9.3534124e-05
4.8249608e-07
-9.3958587e-05
5.5986674e-07
-9.4439165e-05
6.387489e-07
-9.4976555e-05
7.1881094e-07
-9.557118e-05
7.9970564e-07
-9.6223178e-05
8.8107853e-07
-9.693242e-05
9.6260193e-07
-9.7698508e-05
1.0439488e-06
-9.8520793e-05
1.1248123e-06
-9.9398384e-05
1.2048955e-06
-0.00010033016
1.2839098e-06
-0.00010131478
1.3615704e-06
-0.00010235068
1.4375848e-06
-0.00010343608
1.5116506e-06
-0.000104569
1.5834435e-06
-0.0001057472
1.6526107e-06
-0.00010696821
1.7187636e-06
-0.00010822931
1.7814749e-06
-0.00010952747
1.8402707e-06
-0.00011085937
1.8946388e-06
-0.00011222139
1.9440296e-06
-0.00011360955
1.9878668e-06
-0.00011501954
2.0255616e-06
-0.00011644672
2.0565341e-06
-0.00011788613
2.0802271e-06
-0.00011933254
2.09614e-06
-0.00012078048
2.1038487e-06
-0.00012222433
2.1030321e-06
-0.00012365841
2.0934948e-06
-0.00012507701
2.0751866e-06
-0.0001264746
2.0482195e-06
-0.00012784585
2.0128692e-06
-0.00012918579
1.9695866e-06
-0.0001304899
1.9189895e-06
-0.00013175423
1.861855e-06
-0.00013297549
1.7991064e-06
-0.00013415115
1.731799e-06
-0.00013527946
1.6610956e-06
-0.00013635959
1.5882528e-06
-0.00013739158
1.5145992e-06
-0.00013837646
1.4415135e-06
-0.0001393162
1.3704107e-06
-0.00014021374
1.302721e-06
-0.00014107301
1.2398757e-06
-0.00014189886
1.1832909e-06
-0.00014269708
1.1343614e-06
-0.00014347436
1.0944371e-06
-0.00014423826
1.064831e-06
-0.00014499716
1.0467958e-06
-0.00014576023
1.0415379e-06
-0.00014653742
1.0501997e-06
-0.00014733938
1.0738857e-06
-0.00014817748
1.1136487e-06
-0.00014906378
1.1705322e-06
-0.00015001106
1.2455613e-06
-0.0001510328
1.3398016e-06
-0.00015214326
1.4543551e-06
-0.00015335758
1.5904515e-06
-0.00015469181
1.7494346e-06
-0.00015616316
1.9329128e-06
-0.00015779011
2.1427135e-06
-0.00015959268
2.3811511e-06
-0.00016159275
2.6509063e-06
-0.00016381438
2.955523e-06
-0.00016628423
3.2991356e-06
-0.00016903209
3.6874161e-06
-0.00017209122
4.1269312e-06
-0.00017549915
4.6270278e-06
-0.00017929778
5.1982646e-06
-0.00018353415
5.8561555e-06
-0.00018825997
6.617377e-06
-0.00019353202
7.5071044e-06
-0.00019940997
8.5498036e-06
-0.00020595595
9.783679e-06
-0.00021322881
1.1238642e-05
-0.00022128224
1.2965471e-05
-0.00023015234
1.4984846e-05
-0.00023985466
1.7349864e-05
-0.00025035876
2.0031265e-05
-0.00026158847
2.3063527e-05
-0.0002733671
2.6282537e-05
-0.00028544015
2.9699867e-05
-0.00029734037
3.283486e-05
-0.00030851049
3.5810901e-05
-0.0003179547
3.7222895e-05
-0.00032461798
3.8201699e-05
-0.00032737926
3.3220926e-05
3.0481413e-05
-0.00015503173
-1.364246e-07
-0.00015493222
-2.3833634e-07
-0.0001548312
-2.2069469e-07
-0.00015470593
-2.8592116e-07
-0.00015457129
-2.9915111e-07
-0.00015441966
-3.4373006e-07
-0.00015425666
-3.6899118e-07
-0.00015408004
-4.0329344e-07
-0.00015389241
-4.3098042e-07
-0.00015369368
-4.5928373e-07
-0.00015348559
-4.8482864e-07
-0.0001532691
-5.0787542e-07
-0.00015304592
-5.2857061e-07
-0.00015281767
-5.4535664e-07
-0.0001525864
-5.5892592e-07
-0.00015235431
-5.6753024e-07
-0.00015212394
-5.7157315e-07
-0.00015189807
-5.6956463e-07
-0.00015167989
-5.6151529e-07
-0.00015147307
-5.4599549e-07
-0.00015128172
-5.2257725e-07
-0.00015111018
-4.9047814e-07
-0.00015096288
-4.4918632e-07
-0.00015084438
-3.9792296e-07
-0.00015076005
-3.3610109e-07
-0.00015071758
-2.6116531e-07
-0.0001507255
-1.7239514e-07
-0.00015078986
-6.981967e-08
-0.00015091561
4.6444024e-08
-0.00015109913
1.6768266e-07
-0.00015133588
2.9056267e-07
-0.0001516308
4.1799722e-07
-0.00015198879
5.4972944e-07
-0.00015241346
6.8646066e-07
-0.00015290755
8.2744162e-07
-0.00015347298
9.7237256e-07
-0.0001541112
1.1207232e-06
-0.00015482323
1.2718918e-06
-0.00015560964
1.4251617e-06
-0.00015647058
1.579753e-06
-0.00015740578
1.7348966e-06
-0.00015841449
1.889795e-06
-0.00015949561
2.0437161e-06
-0.00016064759
2.1959369e-06
-0.00016186857
2.345786e-06
-0.0001631563
2.4926305e-06
-0.00016450827
2.6358746e-06
-0.00016592165
2.7749555e-06
-0.00016739339
2.9093232e-06
-0.00016892018
3.0384379e-06
-0.00017049848
3.1617494e-06
-0.00017212456
3.2786834e-06
-0.00017379442
3.3886276e-06
-0.00017550387
3.4909267e-06
-0.00017724847
3.5848632e-06
-0.0001790235
3.6696721e-06
-0.00018082401
3.7445396e-06
-0.00018264476
3.8086207e-06
-0.00018448026
3.8610603e-06
-0.00018632476
3.9010313e-06
-0.00018817229
3.9277552e-06
-0.00019001671
3.9405598e-06
-0.00019185177
3.9389129e-06
-0.0001936712
3.922466e-06
-0.0001954688
3.8910915e-06
-0.00019723853
3.8449143e-06
-0.00019897465
3.7843402e-06
-0.00020067184
3.7100551e-06
-0.00020232529
3.6230421e-06
-0.00020393087
3.5245671e-06
-0.00020548517
3.4161615e-06
-0.00020698567
3.2995986e-06
-0.00020843073
3.1768668e-06
-0.00020981976
3.0501247e-06
-0.00021115319
2.9216753e-06
-0.00021243251
2.7939268e-06
-0.00021366035
2.6693524e-06
-0.00021484041
2.5504632e-06
-0.00021597746
2.4397724e-06
-0.00021707735
2.3397666e-06
-0.00021814694
2.2528791e-06
-0.00021919405
2.1814766e-06
-0.00022022743
2.1278204e-06
-0.00022125668
2.094076e-06
-0.00022229216
2.082274e-06
-0.00022334495
2.0943308e-06
-0.00022442677
2.1320209e-06
-0.0002255499
2.1970129e-06
-0.0002267271
2.2908487e-06
-0.00022797157
2.4149996e-06
-0.00022929686
2.5708555e-06
-0.00023071685
2.7597956e-06
-0.00023224569
2.9831869e-06
-0.00023389772
3.24249e-06
-0.00023568754
3.5392453e-06
-0.00023762986
3.8752369e-06
-0.00023973959
4.2524438e-06
-0.00024203176
4.6733193e-06
-0.00024452151
5.1406547e-06
-0.00024722405
5.6580658e-06
-0.00025015461
6.2297014e-06
-0.00025332832
6.8611245e-06
-0.00025676002
7.5586288e-06
-0.00026046395
8.3309601e-06
-0.00026445334
9.1876521e-06
-0.00026873957
1.0142387e-05
-0.00027333126
1.1209065e-05
-0.00027823246
1.2408303e-05
-0.00028344077
1.3758118e-05
-0.00028894387
1.5286772e-05
-0.0002947162
1.7010976e-05
-0.000300713
1.8962272e-05
-0.00030686571
2.1137557e-05
-0.00031307318
2.355733e-05
-0.00031919671
2.6154795e-05
-0.00032505024
2.8917061e-05
-0.00033039555
3.1627844e-05
-0.00033493841
3.4242733e-05
-0.00033832017
3.6216611e-05
-0.00034013439
3.7625124e-05
-0.00033994804
3.7036542e-05
-0.00033718898
3.5442647e-05
-0.00033227579
2.8307736e-05
2.0786419e-05
-0.00020545546
-1.7347636e-07
-0.00020536774
-3.2605695e-07
-0.00020527741
-3.1102026e-07
-0.00020516567
-3.9766627e-07
-0.0002050457
-4.1912113e-07
-0.00020491217
-4.7725487e-07
-0.00020477025
-5.109196e-07
-0.00020461861
-5.5492523e-07
-0.00020446018
-5.8941037e-07
-0.00020429534
-6.2412793e-07
-0.00020412641
-6.5375926e-07
-0.00020395474
-6.7954892e-07
-0.00020378269
-7.0061306e-07
-0.00020361236
-7.1569196e-07
-0.00020344647
-7.2481508e-07
-0.00020328787
-7.2613262e-07
-0.00020313993
-7.1951007e-07
-0.0002030062
-7.0329475e-07
-0.00020289057
-6.771455e-07
-0.00020279709
-6.3947025e-07
-0.00020273008
-5.8959291e-07
-0.00020269415
-5.2640814e-07
-0.00020269522
-4.4812007e-07
-0.00020274029
-3.5285027e-07
-0.00020283595
-2.4044169e-07
-0.00020298697
-1.1014548e-07
-0.00020319777
3.8412167e-08
-0.00020346488
1.9728731e-07
-0.00020378146
3.6302539e-07
-0.00020415214
5.3836229e-07
-0.0002045846
7.230184e-07
-0.00020508428
9.1768144e-07
-0.00020565545
1.120897e-06
-0.00020630042
1.3314295e-06
-0.00020702115
1.5481707e-06
-0.00020781895
1.7701784e-06
-0.00020869462
1.9963859e-06
-0.00020964839
2.2256608e-06
-0.00021068003
2.4568036e-06
-0.00021178881
2.6885401e-06
-0.00021297357
2.919653e-06
-0.00021423266
3.1488836e-06
-0.00021556404
3.3750926e-06
-0.00021696526
3.597164e-06
-0.00021843355
3.8140726e-06
-0.00021996578
4.024866e-06
-0.00022155857
4.2286603e-06
-0.00022320825
4.4246379e-06
-0.00022491094
4.6120144e-06
-0.00022666254
4.7900369e-06
-0.00022845875
4.9579538e-06
-0.00023029506
5.1149958e-06
-0.00023216679
5.260355e-06
-0.00023406904
5.3931809e-06
-0.00023599673
5.5125518e-06
-0.00023794456
5.617498e-06
-0.00023990702
5.7070017e-06
-0.00024187842
5.7800217e-06
-0.00024385288
5.8355239e-06
-0.00024582439
5.8725356e-06
-0.0002477868
5.890171e-06
-0.00024973395
5.8877112e-06
-0.00025165969
5.864647e-06
-0.00025355796
5.8207364e-06
-0.00025542292
5.7560512e-06
-0.00025724902
5.6710147e-06
-0.00025903112
5.5664383e-06
-0.00026076457
5.4435131e-06
-0.00026244536
5.3038312e-06
-0.00026407016
5.1493608e-06
-0.00026563642
4.9824203e-06
-0.00026714246
4.8056423e-06
-0.00026858753
4.6219353e-06
-0.00026997182
4.434419e-06
-0.00027129653
4.2463869e-06
-0.00027256386
4.06125e-06
-0.00027377698
3.8824793e-06
-0.00027494009
3.7135653e-06
-0.00027605828
3.5579671e-06
-0.00027713758
3.4190694e-06
-0.00027818485
3.3001427e-06
-0.00027920769
3.2043229e-06
-0.00028021443
3.134553e-06
-0.00028121395
3.0935975e-06
-0.00028221566
3.0839864e-06
-0.00028322937
3.1080368e-06
-0.00028426516
3.1678133e-06
-0.00028533332
3.2651704e-06
-0.00028644419
3.4017205e-06
-0.00028760809
3.5788999e-06
-0.00028883518
3.7979505e-06
-0.00029013538
4.059997e-06
-0.00029151824
4.366042e-06
-0.00029299283
4.7170785e-06
-0.00029456766
5.1140744e-06
-0.00029625056
5.5581388e-06
-0.00029804858
6.0504655e-06
-0.00029996786
6.5926035e-06
-0.00030201352
7.1863148e-06
-0.00030418948
7.8340196e-06
-0.00030649829
8.5385177e-06
-0.00030894092
9.3037448e-06
-0.00031151642
1.0134132e-05
-0.00031422151
1.1036055e-05
-0.00031705012
1.2016259e-05
-0.00031999237
1.3084642e-05
-0.00032303389
1.4250578e-05
-0.0003261538
1.5528214e-05
-0.00032932355
1.6927873e-05
-0.00033250337
1.8466587e-05
-0.00033564071
2.0148314e-05
-0.00033866459
2.1986157e-05
-0.00034148517
2.3958139e-05
-0.00034398618
2.6058336e-05
-0.00034602954
2.8198155e-05
-0.00034744778
3.0335294e-05
-0.00034806183
3.2241899e-05
-0.00034767474
3.3855645e-05
-0.00034612525
3.4667117e-05
-0.00034325839
3.4758263e-05
-0.00033915724
3.2935392e-05
-0.00033377924
3.0064649e-05
-0.00032844784
2.297634e-05
1.4919177e-05
-0.00024660956
-1.8177484e-07
-0.00024655949
-3.7612624e-07
-0.00024650893
-3.6157991e-07
-0.00024644324
-4.633573e-07
-0.00024637343
-4.8893013e-07
-0.00024629611
-5.5457669e-07
-0.00024621588
-5.9114788e-07
-0.00024613239
-6.3841393e-07
-0.00024604867
-6.7312707e-07
-0.00024596569
-7.071102e-07
-0.00024588616
-7.332894e-07
-0.0002458119
-7.5380983e-07
-0.00024574576
-7.6675482e-07
-0.00024569024
-7.7120974e-07
-0.0002456485
-7.6655083e-07
-0.00024562359
-7.510419e-07
-0.00024561898
-7.2412623e-07
-0.00024563815
-6.8412427e-07
-0.00024568497
-6.3031977e-07
-0.00024576397
-5.6047126e-07
-0.00024588032
-4.7325053e-07
-0.00024603897
-3.6775104e-07
-0.0002462441
-2.4299712e-07
-0.00024649927
-9.7678261e-08
-0.00024680685
6.7138276e-08
-0.00024716288
2.4588264e-07
-0.00024756175
4.3728866e-07
-0.00024800783
6.4336231e-07
-0.00024850864
8.6383553e-07
-0.00024906999
1.0997136e-06
-0.00024969675
1.3497845e-06
-0.00025039089
1.6118176e-06
-0.00025115413
1.8841352e-06
-0.00025198798
2.1652762e-06
-0.00025289341
2.453609e-06
-0.00025387087
2.747636e-06
-0.00025492028
3.0457966e-06
-0.00025604108
3.3464613e-06
-0.00025723229
3.6480133e-06
-0.0002584925
3.9487446e-06
-0.00025981991
4.2470702e-06
-0.00026121238
4.5413461e-06
-0.00026266739
4.8301051e-06
-0.00026418213
5.1119084e-06
-0.0002657535
5.385439e-06
-0.00026737811
5.649474e-06
-0.00026905233
5.902878e-06
-0.00027077229
6.1446006e-06
-0.00027253391
6.3736325e-06
-0.00027433288
6.5890065e-06
-0.00027616468
6.7897608e-06
-0.0002780246
6.9749179e-06
-0.00027990771
7.1434618e-06
-0.00028180887
7.2943399e-06
-0.00028372275
7.4264285e-06
-0.00028564382
7.5385691e-06
-0.00028756639
7.6295716e-06
-0.00028948461
7.6982481e-06
-0.00029139254
7.7434524e-06
-0.00029328416
7.7641485e-06
-0.00029515342
7.7594387e-06
-0.00029699437
7.7286603e-06
-0.00029880116
7.6714332e-06
-0.00030056815
7.5877241e-06
-0.00030228999
7.4778974e-06
-0.00030396173
7.3427538e-06
-0.00030557886
7.1835694e-06
-0.00030713743
7.0020774e-06
-0.00030863409
6.8004896e-06
-0.00031006619
6.5814623e-06
-0.00031143183
6.3480588e-06
-0.00031272989
6.1037041e-06
-0.00031396009
5.8521357e-06
-0.00031512299
5.5973213e-06
-0.00031622001
5.3434114e-06
-0.00031725343
5.0946691e-06
-0.00031822635
4.8553961e-06
-0.00031914267
4.6298821e-06
-0.00032000704
4.4223382e-06
-0.00032082481
4.2368433e-06
-0.00032160196
4.0772894e-06
-0.000322345
3.9473596e-06
-0.00032306089
3.8504504e-06
-0.00032375698
3.7896872e-06
-0.00032444084
3.7678468e-06
-0.0003251202
3.7873891e-06
-0.00032580278
3.8504003e-06
-0.00032649626
3.9586483e-06
-0.00032720808
4.1135358e-06
-0.00032794536
4.3161815e-06
-0.0003287148
4.5673907e-06
-0.00032952255
4.8677469e-06
-0.00033037411
5.2176002e-06
-0.00033127422
5.6171923e-06
-0.00033222678
6.0666364e-06
-0.00033323473
6.5660872e-06
-0.00033429995
7.1156857e-06
-0.00033542317
7.7158253e-06
-0.00033660387
8.3670137e-06
-0.00033784012
9.0702688e-06
-0.00033912847
9.8268668e-06
-0.00034046369
1.063897e-05
-0.00034183861
1.1509047e-05
-0.00034324359
1.2441036e-05
-0.00034466625
1.3438918e-05
-0.00034609051
1.4508906e-05
-0.00034749609
1.565616e-05
-0.00034885682
1.6888941e-05
-0.00035013999
1.8211042e-05
-0.00035130368
1.9630281e-05
-0.0003522967
2.1141335e-05
-0.00035305495
2.27444e-05
-0.00035350404
2.4407235e-05
-0.0003535555
2.6109794e-05
-0.00035311649
2.7759143e-05
-0.00035208607
2.9304875e-05
-0.00035038005
3.0535886e-05
-0.00034792052
3.1396107e-05
-0.000344698
3.1444598e-05
-0.00034070525
3.0765513e-05
-0.00033616721
2.8397348e-05
-0.00033112394
2.5021387e-05
-0.0003266482
1.8500597e-05
1.0851576e-05
-0.00027849112
-1.4611332e-07
-0.00027850142
-3.6582182e-07
-0.00027851376
-3.4924165e-07
-0.00027851932
-4.5780371e-07
-0.00027852602
-4.8222689e-07
-0.00027853236
-5.4823586e-07
-0.00027854222
-5.8128572e-07
-0.00027855607
-6.2456153e-07
-0.0002785769
-6.5230334e-07
-0.0002786061
-6.7790995e-07
-0.00027864651
-6.9287622e-07
-0.00027870018
-7.0013935e-07
-0.00027877002
-6.9691408e-07
-0.00027885855
-6.8268073e-07
-0.00027896884
-6.5625868e-07
-0.00027910404
-6.1585044e-07
-0.00027926777
-5.6038821e-07
-0.00027946359
-4.8830975e-07
-0.00027969506
-3.9884327e-07
-0.00027996529
-2.9024357e-07
-0.00028027691
-1.6162844e-07
-0.00028063285
-1.1817047e-08
-0.00028103229
1.564404e-07
-0.00028147104
3.4107305e-07
-0.00028194751
5.4361139e-07
-0.00028246594
7.643144e-07
-0.00028303195
1.0032965e-06
-0.00028365022
1.2616348e-06
-0.00028432501
1.5386252e-06
-0.00028505737
1.8320691e-06
-0.00028584792
2.1403344e-06
-0.00028669787
2.461775e-06
-0.00028760808
2.7943387e-06
-0.00028857885
3.1360442e-06
-0.00028961018
3.4849433e-06
-0.00029070164
3.8390983e-06
-0.00029185245
4.1966081e-06
-0.00029306147
4.5554767e-06
-0.00029432725
4.913796e-06
-0.00029564805
5.2695456e-06
-0.00029702187
5.6208881e-06
-0.00029844642
5.9658974e-06
-0.00029991918
6.3028675e-06
-0.00030143738
6.6301074e-06
-0.000302998
6.9460585e-06
-0.00030459779
7.2492571e-06
-0.00030623323
7.5383262e-06
-0.00030790061
7.8119747e-06
-0.00030959592
8.0689461e-06
-0.00031131494
8.3080263e-06
-0.00031305319
8.528005e-06
-0.00031480593
8.7276583e-06
-0.00031656819
8.9057294e-06
-0.00031833479
9.0609396e-06
-0.00032010032
9.1919538e-06
-0.00032185918
9.2974321e-06
-0.00032360565
9.376037e-06
-0.00032533388
9.4264781e-06
-0.00032703798
9.4475573e-06
-0.00032871208
9.43825e-06
-0.00033035038
9.397731e-06
-0.0003319472
9.3254838e-06
-0.00033349711
9.2213468e-06
-0.00033499497
9.0855794e-06
-0.00033643598
8.9189118e-06
-0.00033781581
8.7225798e-06
-0.0003391306
8.4983629e-06
-0.00034037708
8.2485537e-06
-0.00034155257
7.9759779e-06
-0.00034265505
7.6839494e-06
-0.00034368322
7.3762239e-06
-0.00034463646
7.0569438e-06
-0.0003455149
6.7305795e-06
-0.00034631942
6.4018344e-06
-0.00034705159
6.0755875e-06
-0.00034771374
5.7568137e-06
-0.00034830883
5.4504944e-06
-0.00034884051
5.1615612e-06
-0.00034931299
4.8948139e-06
-0.00034973101
4.6548611e-06
-0.00035009977
4.4460506e-06
-0.00035042486
4.2724467e-06
-0.00035071213
4.1377237e-06
-0.00035096765
4.0452048e-06
-0.00035119756
3.9977635e-06
-0.00035140803
3.997856e-06
-0.00035160508
4.0474529e-06
-0.00035179454
4.148109e-06
-0.00035198191
4.3008998e-06
-0.00035217225
4.5065255e-06
-0.00035237012
4.7652646e-06
-0.00035257947
5.0770885e-06
-0.0003528035
5.4416375e-06
-0.00035304467
5.8583626e-06
-0.00035330455
6.3265097e-06
-0.00035358377
6.8453057e-06
-0.00035388197
7.4138877e-06
-0.00035419771
8.031569e-06
-0.0003545284
8.6977013e-06
-0.00035487017
9.4120395e-06
-0.00035521782
1.0174513e-05
-0.00035556459
1.0985741e-05
-0.00035590206
1.1846518e-05
-0.00035621976
1.2758739e-05
-0.00035650497
1.372413e-05
-0.00035674203
1.4745964e-05
-0.00035691205
1.5826176e-05
-0.00035699173
1.6968625e-05
-0.00035695325
1.8172556e-05
-0.00035676242
1.943946e-05
-0.00035637954
2.0758447e-05
-0.00035575707
2.2121936e-05
-0.00035484333
2.3493493e-05
-0.00035358015
2.4846609e-05
-0.00035191315
2.609215e-05
-0.00034978838
2.71801e-05
-0.00034717687
2.7924375e-05
-0.00034405987
2.827911e-05
-0.00034049316
2.7877894e-05
-0.00033652783
2.6800177e-05
-0.0003324361
2.4305625e-05
-0.00032832364
2.0908927e-05
-0.00032501669
1.5193644e-05
8.4154847e-06
-0.00030199347
-5.7786883e-08
-0.00030207581
-2.8347616e-07
-0.00030216278
-2.6226954e-07
-0.0003022517
-3.6888359e-07
-0.00030234671
-3.8722498e-07
-0.0003024481
-4.468425e-07
-0.0003025588
-4.705888e-07
-0.00030267995
-5.0340487e-07
-0.0003028143
-5.1796119e-07
-0.00030296353
-5.2867806e-07
-0.00030313041
-5.2599063e-07
-0.00030331712
-5.1343546e-07
-0.0003035265
-4.8753293e-07
-0.00030376107
-4.4811307e-07
-0.0003040237
-3.936212e-07
-0.00030431685
-3.2270772e-07
-0.00030464303
-2.3419998e-07
-0.00030500455
-1.2679243e-07
-0.00030540378
3.8144506e-10
-0.00030584043
1.4640986e-07
-0.00030631255
3.1048932e-07
-0.00030681857
4.9420481e-07
-0.00030736002
6.9788839e-07
-0.0003079408
9.2185844e-07
-0.00030856365
1.1664609e-06
-0.00030923198
1.4326386e-06
-0.00030994838
1.7197e-06
-0.00031071291
2.0261614e-06
-0.0003115251
2.3508164e-06
-0.00031238541
2.6923775e-06
-0.00031329405
3.048975e-06
-0.00031425071
3.4184363e-06
-0.00031525498
3.7986076e-06
-0.00031630625
4.1873215e-06
-0.00031740376
4.5824442e-06
-0.00031854645
4.9817955e-06
-0.00031973313
5.3832846e-06
-0.00032096235
5.7846972e-06
-0.00032223252
6.1839676e-06
-0.00032354186
6.5788817e-06
-0.00032488842
6.9674538e-06
-0.00032627009
7.3475612e-06
-0.00032768454
7.7173254e-06
-0.00032912929
8.0748487e-06
-0.00033060158
8.4183559e-06
-0.00033209847
8.7461489e-06
-0.00033361675
9.0565979e-06
-0.00033515292
9.3481469e-06
-0.00033670323
9.6192586e-06
-0.00033826364
9.8684332e-06
-0.00033982981
1.0094173e-05
-0.00034139712
1.0294974e-05
-0.0003429607
1.0469311e-05
-0.00034451543
1.0615666e-05
-0.00034605597
1.0732493e-05
-0.00034757682
1.0818285e-05
-0.00034907237
1.087159e-05
-0.00035053696
1.089106e-05
-0.0003519649
1.0875505e-05
-0.00035335063
1.082398e-05
-0.00035468871
1.0735809e-05
-0.00035597392
1.0610696e-05
-0.00035720135
1.0448774e-05
-0.00035836644
1.0250663e-05
-0.00035946504
1.0017515e-05
-0.0003604935
9.7510445e-06
-0.0003614487
9.4535613e-06
-0.00036232807
9.1279265e-06
-0.00036312966
8.7775685e-06
-0.00036385214
8.4064292e-06
-0.00036449483
8.0189074e-06
-0.00036505768
7.6197973e-06
-0.00036554132
7.2142194e-06
-0.000365947
6.8075182e-06
-0.00036627661
6.4051941e-06
-0.00036653262
6.0128191e-06
-0.00036671806
5.6359335e-06
-0.00036683648
5.2799871e-06
-0.00036689191
4.9502419e-06
-0.00036688876
4.651715e-06
-0.0003668318
4.3890836e-06
-0.00036672603
4.1666814e-06
-0.00036657668
3.9883715e-06
-0.00036638906
3.8575884e-06
-0.00036616851
3.7772078e-06
-0.00036592026
3.7496064e-06
-0.00036564938
3.7765721e-06
-0.00036536067
3.8594001e-06
-0.00036505857
3.9988065e-06
-0.00036474711
4.1950637e-06
-0.00036442978
4.4479315e-06
-0.0003641095
4.756807e-06
-0.00036378854
5.1206826e-06
-0.0003634685
5.5383176e-06
-0.0003631502
6.008211e-06
-0.00036283369
6.528794e-06
-0.00036251816
7.0983577e-06
-0.00036220193
7.7153413e-06
-0.00036188242
8.3781904e-06
-0.00036155606
9.0856813e-06
-0.00036121826
9.8367143e-06
-0.00036086326
1.0630743e-05
-0.00036048406
1.1467312e-05
-0.00036007211
1.2346786e-05
-0.0003596172
1.3269228e-05
-0.00035910696
1.4235724e-05
-0.00035852667
1.5245886e-05
-0.00035785845
1.6300406e-05
-0.00035708137
1.7395471e-05
-0.00035617026
1.8528356e-05
-0.00035509687
1.9685051e-05
-0.00035382847
2.0853543e-05
-0.00035233163
2.1996647e-05
-0.00035057059
2.3085566e-05
-0.00034851655
2.4038111e-05
-0.00034614352
2.4807069e-05
-0.00034344962
2.5230475e-05
-0.00034043844
2.5267938e-05
-0.00033717608
2.4615535e-05
-0.00033371072
2.3334808e-05
-0.00033026677
2.0861677e-05
-0.00032693038
1.7572541e-05
-0.00032431342
1.2576684e-05
6.6828636e-06
-0.00031850289
8.4289531e-08
-0.00031865666
-1.2970954e-07
-0.00031881716
-1.0176869e-07
-0.00031898756
-1.9848664e-07
-0.0003191682
-2.0658774e-07
-0.00031936099
-2.5405273e-07
-0.00031956775
-2.6382836e-07
-0.00031979014
-2.81007e-07
-0.00032003048
-2.7762222e-07
-0.00032029057
-2.6858604e-07
-0.00032057289
-2.436784e-07
-0.00032087944
-2.0688197e-07
-0.00032121272
-1.5425498e-07
-0.00032157476
-8.6069169e-08
-0.00032196782
-5.6560046e-10
-0.00032239276
1.0223492e-07
-0.00032284959
2.226334e-07
-0.00032333839
3.6200634e-07
-0.00032385889
5.2087763e-07
-0.00032441247
6.9998867e-07
-0.00032500163
8.9965527e-07
-0.00032562774
1.1203114e-06
-0.00032629259
1.3627385e-06
-0.00032699808
1.6273467e-06
-0.0003277449
1.9132791e-06
-0.00032853221
2.2199568e-06
-0.00032935903
2.5465125e-06
-0.00033022501
2.8921474e-06
-0.00033112964
3.2554429e-06
-0.00033207177
3.6345083e-06
-0.00033305017
4.0273764e-06
-0.00033406376
4.4320202e-06
-0.00033511138
4.846235e-06
-0.00033619182
5.2677609e-06
-0.00033730381
5.6944334e-06
-0.00033844599
6.1239701e-06
-0.00033961694
6.5542387e-06
-0.00034081518
6.9829361e-06
-0.00034203916
7.4079515e-06
-0.00034328726
7.8269738e-06
-0.00034455775
8.2379452e-06
-0.00034584879
8.6386071e-06
-0.00034715842
9.0269489e-06
-0.00034848446
9.4008908e-06
-0.00034982455
9.7584495e-06
-0.00035117609
1.0097687e-05
-0.0003525362
1.0416705e-05
-0.00035390171
1.071366e-05
-0.00035526916
1.0986707e-05
-0.00035663476
1.1234034e-05
-0.00035799442
1.1453831e-05
-0.00035934374
1.1644298e-05
-0.00036067806
1.1803634e-05
-0.00036199248
1.1930083e-05
-0.00036328189
1.2021901e-05
-0.00036454105
1.2077442e-05
-0.00036576463
1.2095175e-05
-0.00036694731
1.207374e-05
-0.00036808382
1.2012011e-05
-0.00036916902
1.1909177e-05
-0.00037019798
1.1764771e-05
-0.00037116606
1.1578778e-05
-0.00037206896
1.1351676e-05
-0.00037290279
1.1084489e-05
-0.0003736641
1.0778829e-05
-0.00037434997
1.0436911e-05
-0.00037495799
1.0061581e-05
-0.00037548632
9.6562629e-06
-0.00037593372
9.2249663e-06
-0.00037629952
8.7722244e-06
-0.00037658364
8.3030285e-06
-0.0003767866
7.8227622e-06
-0.0003769095
7.3371221e-06
-0.000376954
6.8520126e-06
-0.00037692227
6.3734675e-06
-0.00037681702
5.9075648e-06
-0.0003766414
5.4603104e-06
-0.00037639899
5.0375822e-06
-0.00037609376
4.6450165e-06
-0.00037573001
4.2879573e-06
-0.00037531227
3.9713473e-06
-0.00037484532
3.6997293e-06
-0.00037433401
3.4770611e-06
-0.00037378325
3.3068293e-06
-0.00037319794
3.1918953e-06
-0.00037258287
3.1345398e-06
-0.00037194266
3.1363623e-06
-0.00037128167
3.1984102e-06
-0.00037060392
3.3210608e-06
-0.00036991306
3.5042006e-06
-0.00036921225
3.7471212e-06
-0.00036850416
4.0487158e-06
-0.00036779088
4.4074016e-06
-0.00036707388
4.8213159e-06
-0.00036635397
5.288303e-06
-0.00036563133
5.8061582e-06
-0.00036490547
6.3724916e-06
-0.00036417516
6.9850366e-06
-0.00036343846
7.6414888e-06
-0.00036269262
8.3398392e-06
-0.00036193408
9.0781722e-06
-0.00036115835
9.855012e-06
-0.00036035995
1.0668913e-05
-0.0003595322
1.1519035e-05
-0.00035866711
1.2404139e-05
-0.00035775501
1.3323626e-05
-0.00035678448
1.4275356e-05
-0.00035574174
1.5257665e-05
-0.00035461085
1.6264586e-05
-0.00035337293
1.7290427e-05
-0.00035200717
1.8319296e-05
-0.00035048998
1.9336355e-05
-0.00034879821
2.0304873e-05
-0.00034690779
2.1195145e-05
-0.0003448019
2.1932222e-05
-0.00034246671
2.2471882e-05
-0.00033991095
2.2674717e-05
-0.00033714791
2.2504898e-05
-0.00033424827
2.1715888e-05
-0.00033126824
2.0354777e-05
-0.00032840985
1.8003293e-05
-0.00032577066
1.4933346e-05
-0.00032377985
1.0585875e-05
5.4836136e-06
-0.00032956908
2.77472e-07
-0.00032978732
8.8525571e-08
-0.00033001185
1.2275966e-07
-0.00033025239
4.2054431e-08
-0.00033050602
4.7045601e-08
-0.00033077615
1.6072481e-08
-0.00033106355
2.3572942e-08
-0.00033137017
2.5618762e-08
-0.00033169773
4.9937457e-08
-0.0003320478
8.1483286e-08
-0.00033242214
1.3066401e-07
-0.00033282209
1.9306087e-07
-0.00033324905
2.7270561e-07
-0.00033370402
3.688993e-07
-0.00033418787
4.8328625e-07
-0.00033470193
6.1629785e-07
-0.00033524806
7.6876189e-07
-0.00033582735