/*--------------------------------*- C++ -*----------------------------------*\
| =========                 |                                                 |
| \\      /  F ield         | foam-extend: Open Source CFD                    |
|  \\    /   O peration     | Version:     4.1                                |
|   \\  /    A nd           | Web:         http://www.foam-extend.org         |
|    \\/     M anipulation  |                                                 |
\*---------------------------------------------------------------------------*/
FoamFile
{
    version     2.0;
    format      ascii;
    class       volVectorField;
    location    "2.2";
    object      U;
}
// * * * * * * * * * * * * * * * * * * * * * * * * * * * * * * * * * * * * * //

dimensions      [0 1 -1 0 0 0 0];

internalField   nonuniform List<vector> 
16126
(
(0.10148623 3.0394833e-05 0)
(0.10125658 3.3597395e-05 0)
(0.10116839 1.1007674e-05 0)
(0.10101978 2.531424e-05 0)
(0.10083931 1.7968975e-05 0)
(0.10068606 2.5391924e-05 0)
(0.10045433 2.4898632e-05 0)
(0.10026293 2.8457255e-05 0)
(0.099997738 3.0355932e-05 0)
(0.099761155 3.2556116e-05 0)
(0.099467667 3.506374e-05 0)
(0.099188783 3.6886628e-05 0)
(0.098869082 3.9320695e-05 0)
(0.098554311 4.091954e-05 0)
(0.098211551 4.2856069e-05 0)
(0.097869151 4.3919958e-05 0)
(0.097509089 4.491196e-05 0)
(0.097149161 4.5175908e-05 0)
(0.096780626 4.5387337e-05 0)
(0.096415337 4.5362082e-05 0)
(0.096050475 4.5452502e-05 0)
(0.095695092 4.5191222e-05 0)
(0.095349422 4.3911744e-05 0)
(0.095021113 4.1028543e-05 0)
(0.094712239 3.7612305e-05 0)
(0.094429209 3.5551326e-05 0)
(0.094177203 3.5757728e-05 0)
(0.093961792 3.2138385e-05 0)
(0.093785846 2.1371855e-05 0)
(0.093652911 1.9116048e-05 0)
(0.093573926 2.8143575e-05 0)
(0.093556355 2.61771e-05 0)
(0.093611654 1.6116032e-05 0)
(0.093733633 9.6926803e-06 0)
(0.093919841 4.6341814e-06 0)
(0.094170726 3.675488e-07 0)
(0.094487585 -3.9000475e-06 0)
(0.094872476 -8.2838331e-06 0)
(0.095327097 -1.2854832e-05 0)
(0.095853133 -1.7614226e-05 0)
(0.096451917 -2.2582038e-05 0)
(0.097124632 -2.7785828e-05 0)
(0.097872221 -3.3266605e-05 0)
(0.098695467 -3.9066021e-05 0)
(0.099594962 -4.5230464e-05 0)
(0.10057114 -5.1801892e-05 0)
(0.10162426 -5.8817789e-05 0)
(0.10275438 -6.6305437e-05 0)
(0.10396137 -7.4279463e-05 0)
(0.10524483 -8.2739142e-05 0)
(0.10660409 -9.1664757e-05 0)
(0.1080381 -0.00010101597 0)
(0.10954544 -0.00011073121 0)
(0.11112416 -0.0001207263 0)
(0.1127718 -0.00013089576 0)
(0.11448525 -0.00014111561 0)
(0.11626073 -0.00015124512 0)
(0.11809371 -0.00016113133 0)
(0.11997891 -0.00017061442 0)
(0.12191025 -0.00017953157 0)
(0.12388091 -0.00018772294 0)
(0.12588332 -0.00019503776 0)
(0.12790925 -0.00020133759 0)
(0.12994993 -0.00020650122 0)
(0.13199613 -0.00021042697 0)
(0.13403834 -0.00021303567 0)
(0.13606691 -0.00021427005 0)
(0.13807223 -0.00021409527 0)
(0.14004494 -0.00021249896 0)
(0.14197605 -0.00020948874 0)
(0.14385719 -0.00020509108 0)
(0.14568069 -0.0001993507 0)
(0.14743979 -0.00019232768 0)
(0.14912878 -0.00018409746 0)
(0.15074302 -0.00017474994 0)
(0.15227917 -0.0001643887 0)
(0.15373516 -0.0001531293 0)
(0.15511031 -0.00014110061 0)
(0.15640532 -0.00012843996 0)
(0.15762239 -0.00011529495 0)
(0.1587651 -0.00010181674 0)
(0.15983853 -8.8162221e-05 0)
(0.16084917 -7.4482063e-05 0)
(0.1618049 -6.0930224e-05 0)
(0.16271495 -4.7651207e-05 0)
(0.16358986 -3.4782664e-05 0)
(0.16444141 -2.2440583e-05 0)
(0.16528255 -1.0723743e-05 0)
(0.16612737 3.0745487e-07 0)
(0.16699097 1.061977e-05 0)
(0.16788959 2.0238332e-05 0)
(0.16884036 2.9226173e-05 0)
(0.16986159 3.7728162e-05 0)
(0.17097246 4.593325e-05 0)
(0.17219366 5.4145615e-05 0)
(0.17354669 6.2701311e-05 0)
(0.17505538 7.2103533e-05 0)
(0.17674445 8.2834859e-05 0)
(0.1786426 9.5589179e-05 0)
(0.1807796 0.00011082089 0)
(0.18319282 0.00012914962 0)
(0.18592101 0.00015030341 0)
(0.18901836 0.00017385702 0)
(0.19254103 0.00019681015 0)
(0.19657732 0.00021510511 0)
(0.20121814 0.00021830474 0)
(0.20662117 0.00019318898 0)
(0.21294436 0.0001126456 0)
(0.22048119 -5.492912e-05 0)
(0.2295066 -0.00036788403 0)
(0.24056087 -0.00088630111 0)
(0.25408676 -0.0017160712 0)
(0.27102899 -0.002945491 0)
(0.29197916 -0.0047358694 0)
(0.31847533 -0.007172157 0)
(0.35099894 -0.01046377 0)
(0.39192432 -0.014607825 0)
(0.44079317 -0.019869182 0)
(0.50143142 -0.02596723 0)
(0.57020447 -0.033379249 0)
(0.65492816 -0.040698705 0)
(0.74102923 -0.049851359 0)
(0.85367222 -0.051316391 0)
(0.9241527 -0.062802984 0)
(0.29951148 0.00012227656 0)
(0.29920448 0.00018174747 0)
(0.29897772 0.00014205184 0)
(0.29868337 0.00020061985 0)
(0.2983291 0.00019919155 0)
(0.29797911 0.00023731859 0)
(0.29753925 0.00025338695 0)
(0.29711129 0.00028060727 0)
(0.29660188 0.00030206656 0)
(0.29609512 0.00032427974 0)
(0.29552375 0.00034575958 0)
(0.29494607 0.00036480828 0)
(0.29432009 0.00038381593 0)
(0.29368385 0.00039959087 0)
(0.29301404 0.00041466655 0)
(0.29233568 0.00042629594 0)
(0.29163816 0.00043622542 0)
(0.29093921 0.00044227435 0)
(0.29023644 0.00044522772 0)
(0.28954379 0.00044315053 0)
(0.28886419 0.00043618773 0)
(0.28821009 0.00042378644 0)
(0.28758807 0.00040686898 0)
(0.28701222 0.00038531543 0)
(0.28649291 0.00035849974 0)
(0.28604316 0.00032252324 0)
(0.28567198 0.00027690864 0)
(0.28539262 0.00022980329 0)
(0.28523159 0.00018593826 0)
(0.28520956 0.0001231575 0)
(0.28534537 3.635098e-05 0)
(0.28563981 -5.1315567e-05 0)
(0.28607077 -0.00013449334 0)
(0.28665125 -0.00021562705 0)
(0.28738572 -0.00029678643 0)
(0.2882809 -0.0003798929 0)
(0.28934107 -0.00046526243 0)
(0.29057061 -0.0005530099 0)
(0.29197275 -0.00064284787 0)
(0.29355018 -0.00073450602 0)
(0.29530458 -0.00082764807 0)
(0.29723685 -0.00092197152 0)
(0.29934698 -0.0010171791 0)
(0.30163415 -0.0011129852 0)
(0.30409673 -0.0012091166 0)
(0.30673233 -0.0013053 0)
(0.3095378 -0.001401258 0)
(0.31250934 -0.0014966958 0)
(0.31564244 -0.0015912918 0)
(0.31893193 -0.0016846867 0)
(0.32237197 -0.0017764707 0)
(0.32595601 -0.0018661742 0)
(0.32967681 -0.0019532615 0)
(0.3335263 -0.0020371235 0)
(0.33749559 -0.0021170786 0)
(0.34157488 -0.0021923783 0)
(0.34575342 -0.0022622142 0)
(0.35001941 -0.0023257341 0)
(0.35436001 -0.0023820638 0)
(0.35876134 -0.0024303304 0)
(0.3632085 -0.0024696926 0)
(0.36768566 -0.0024993752 0)
(0.37217621 -0.0025186993 0)
(0.37666289 -0.0025271168 0)
(0.38112811 -0.0025242385 0)
(0.38555413 -0.0025098613 0)
(0.38992347 -0.0024839841 0)
(0.39421918 -0.0024468211 0)
(0.39842521 -0.0023988066 0)
(0.40252677 -0.0023405907 0)
(0.40651067 -0.0022730291 0)
(0.41036562 -0.0021971701 0)
(0.41408251 -0.0021142317 0)
(0.41765467 -0.0020255823 0)
(0.42107805 -0.001932716 0)
(0.42435142 -0.0018372307 0)
(0.42747641 -0.0017408005 0)
(0.43045766 -0.0016451612 0)
(0.43330278 -0.0015520788 0)
(0.43602244 -0.0014633435 0)
(0.43863023 -0.0013807356 0)
(0.44114269 -0.0013060286 0)
(0.4435792 -0.0012409518 0)
(0.44596184 -0.0011871995 0)
(0.44831537 -0.0011463912 0)
(0.45066702 -0.0011200969 0)
(0.45304645 -0.0011098067 0)
(0.45548558 -0.0011169733 0)
(0.4580186 -0.0011429866 0)
(0.4606818 -0.0011892423 0)
(0.46351369 -0.0012571179 0)
(0.46655491 -0.0013480769 0)
(0.46984849 -0.0014636443 0)
(0.47343981 -0.0016055656 0)
(0.47737726 -0.0017757672 0)
(0.48171208 -0.0019766272 0)
(0.48649966 -0.0022108911 0)
(0.4917991 -0.00248218 0)
(0.49767568 -0.0027947857 0)
(0.50419945 -0.0031546548 0)
(0.51144992 -0.0035689063 0)
(0.51951241 -0.0040478088 0)
(0.52848684 -0.0046036297 0)
(0.5384788 -0.0052546196 0)
(0.54961649 -0.0060221758 0)
(0.56202967 -0.006938787 0)
(0.57588312 -0.0080408845 0)
(0.59132842 -0.0093843929 0)
(0.60857233 -0.01102676 0)
(0.62776866 -0.013057181 0)
(0.64916302 -0.015552607 0)
(0.67285313 -0.018637934 0)
(0.69910697 -0.022383069 0)
(0.72782993 -0.026930791 0)
(0.75929084 -0.032265882 0)
(0.79291023 -0.038510857 0)
(0.82898819 -0.045407243 0)
(0.86581848 -0.053060088 0)
(0.90403797 -0.060645511 0)
(0.93926715 -0.068554762 0)
(0.97385396 -0.074229527 0)
(0.99688054 -0.080417015 0)
(1.0165969 -0.074773333 0)
(1.0120311 -0.080169235 0)
(0.48075354 0.00023443234 0)
(0.48043987 0.00039164324 0)
(0.48014459 0.00035206945 0)
(0.47980255 0.00046278141 0)
(0.47937919 0.00048015954 0)
(0.47895753 0.00055593963 0)
(0.47844791 0.00059722856 0)
(0.47793964 0.00065541552 0)
(0.4773587 0.00070283537 0)
(0.47677173 0.00075167134 0)
(0.47613017 0.0007970517 0)
(0.47547884 0.00083847746 0)
(0.47479002 0.00087731109 0)
(0.4740935 0.00090997705 0)
(0.4733761 0.00093846846 0)
(0.47265873 0.0009590223 0)
(0.47193785 0.00097281852 0)
(0.47122989 0.00097711038 0)
(0.47053788 0.00097260074 0)
(0.4698769 0.00095748937 0)
(0.46925577 0.00093173683 0)
(0.46869041 0.000893463 0)
(0.46819232 0.00084001719 0)
(0.46777709 0.00076864252 0)
(0.46745764 0.00068109066 0)
(0.46725422 0.00058063461 0)
(0.46719449 0.00046830285 0)
(0.46730326 0.00032479643 0)
(0.46759318 0.00014086332 0)
(0.4680832 -5.850452e-05 0)
(0.46873116 -0.00025843466 0)
(0.4695508 -0.00045687835 0)
(0.47055972 -0.00065729367 0)
(0.47177032 -0.00086544078 0)
(0.47319271 -0.0010798211 0)
(0.47483367 -0.0013006557 0)
(0.47669837 -0.0015273053 0)
(0.47879066 -0.0017591082 0)
(0.48111294 -0.0019950475 0)
(0.48366641 -0.0022340626 0)
(0.4864508 -0.0024750095 0)
(0.48946458 -0.0027167732 0)
(0.49270485 -0.0029582617 0)
(0.49616748 -0.0031984252 0)
(0.49984717 -0.0034362661 0)
(0.50373752 -0.0036708311 0)
(0.50783113 -0.0039012074 0)
(0.51211971 -0.0041265067 0)
(0.51659412 -0.0043458491 0)
(0.52124449 -0.0045583427 0)
(0.5260602 -0.0047630588 0)
(0.53102998 -0.0049590097 0)
(0.53614185 -0.0051451291 0)
(0.54138314 -0.0053202543 0)
(0.54674045 -0.0054831183 0)
(0.55219961 -0.005632352 0)
(0.55774564 -0.0057664946 0)
(0.56336276 -0.0058840194 0)
(0.56903431 -0.0059833726 0)
(0.57474284 -0.006063022 0)
(0.58047018 -0.0061215188 0)
(0.5861975 -0.0061575672 0)
(0.59190556 -0.0061700943 0)
(0.59757488 -0.0061583225 0)
(0.60318604 -0.0061218337 0)
(0.60871997 -0.0060606262 0)
(0.61415833 -0.0059751529 0)
(0.6194839 -0.0058663484 0)
(0.62468087 -0.0057356358 0)
(0.62973531 -0.0055849162 0)
(0.63463543 -0.005416542 0)
(0.63937199 -0.0052332815 0)
(0.64393847 -0.0050382647 0)
(0.64833139 -0.0048349343 0)
(0.65255044 -0.0046269821 0)
(0.6565986 -0.0044182973 0)
(0.66048226 -0.0042128997 0)
(0.66421119 -0.0040148991 0)
(0.66779857 -0.0038284287 0)
(0.6712609 -0.0036576191 0)
(0.67461789 -0.0035065327 0)
(0.67789234 -0.0033791581 0)
(0.68111 -0.0032793396 0)
(0.68429932 -0.0032108056 0)
(0.68749131 -0.0031771104 0)
(0.69071928 -0.0031816653 0)
(0.69401863 -0.0032276987 0)
(0.69742658 -0.003318319 0)
(0.70098202 -0.0034564844 0)
(0.70472522 -0.0036451085 0)
(0.70869772 -0.0038870401 0)
(0.71294205 -0.0041852184 0)
(0.71750169 -0.0045426637 0)
(0.72242081 -0.0049627012 0)
(0.72774434 -0.0054489455 0)
(0.73351763 -0.0060056495 0)
(0.73978677 -0.006637605 0)
(0.74659793 -0.0073507189 0)
(0.75399826 -0.0081517615 0)
(0.76203432 -0.0090493902 0)
(0.77075411 -0.010053536 0)
(0.78020371 -0.011177322 0)
(0.79043131 -0.012435593 0)
(0.80148 -0.013848659 0)
(0.81339613 -0.015438784 0)
(0.82621368 -0.017237587 0)
(0.83997177 -0.019277675 0)
(0.85468099 -0.021607288 0)
(0.87036142 -0.02427046 0)
(0.8869699 -0.027336132 0)
(0.90448547 -0.030851703 0)
(0.92275202 -0.034902391 0)
(0.94167651 -0.039504634 0)
(0.96088321 -0.044734595 0)
(0.98018803 -0.050487216 0)
(0.99880985 -0.056779633 0)
(1.0165422 -0.063192884 0)
(1.0318499 -0.069663113 0)
(1.0448706 -0.075033516 0)
(1.0525519 -0.079413683 0)
(1.0565459 -0.079579101 0)
(1.0507359 -0.077520658 0)
(1.0403443 -0.062582397 0)
(1.0190177 -0.047403722 0)
(0.63702978 0.00032925232 0)
(0.63678712 0.00059373131 0)
(0.63650129 0.00056036075 0)
(0.63621098 0.00071941113 0)
(0.63582308 0.00075676169 0)
(0.63545485 0.00086533754 0)
(0.63500523 0.00092852966 0)
(0.63456697 0.0010122004 0)
(0.63407128 0.0010792917 0)
(0.63357996 0.0011475002 0)
(0.63305287 0.0012077657 0)
(0.63252985 0.0012616352 0)
(0.63199056 0.0013083812 0)
(0.63146164 0.0013451118 0)
(0.63093564 0.0013727346 0)
(0.63043227 0.0013877686 0)
(0.62995295 0.0013907654 0)
(0.62951459 0.001378244 0)
(0.62912418 0.0013496079 0)
(0.62879742 0.0013005927 0)
(0.62854484 0.0012294853 0)
(0.62838175 0.0011348683 0)
(0.62832218 0.0010175447 0)
(0.62838836 0.0008772897 0)
(0.62860169 0.00070973512 0)
(0.62898148 0.0005003269 0)
(0.62953767 0.00024437444 0)
(0.6302886 -3.6585831e-05 0)
(0.6311942 -0.00033175439 0)
(0.63225107 -0.00063328034 0)
(0.6334923 -0.00094209503 0)
(0.63493242 -0.0012705842 0)
(0.63659034 -0.0016148273 0)
(0.63847364 -0.0019720377 0)
(0.64058917 -0.002340552 0)
(0.64294214 -0.0027189831 0)
(0.64553559 -0.0031057037 0)
(0.64837123 -0.0034989673 0)
(0.65144898 -0.0038967427 0)
(0.6547674 -0.0042969608 0)
(0.65832348 -0.0046974822 0)
(0.66211288 -0.0050962291 0)
(0.66612984 -0.0054911892 0)
(0.67036741 -0.005880457 0)
(0.67481745 -0.006262248 0)
(0.6794708 -0.0066348989 0)
(0.68431732 -0.0069968623 0)
(0.68934608 -0.0073466867 0)
(0.69454536 -0.0076829903 0)
(0.69990277 -0.0080044287 0)
(0.70540528 -0.0083096546 0)
(0.71103924 -0.0085972814 0)
(0.71679042 -0.0088658477 0)
(0.72264396 -0.0091137893 0)
(0.7285844 -0.009339423 0)
(0.73459563 -0.0095409474 0)
(0.74066092 -0.0097164585 0)
(0.74676289 -0.0098639874 0)
(0.7528836 -0.0099815582 0)
(0.75900456 -0.010067262 0)
(0.76510692 -0.010119347 0)
(0.77117153 -0.010136324 0)
(0.77717925 -0.010117061 0)
(0.78311108 -0.010060895 0)
(0.78894851 -0.0099677158 0)
(0.79467382 -0.0098380464 0)
(0.80027033 -0.0096730916 0)
(0.80572281 -0.0094747711 0)
(0.81101776 -0.0092457206 0)
(0.8161437 -0.0089892718 0)
(0.82109147 -0.0087094043 0)
(0.82585449 -0.0084106875 0)
(0.83042893 -0.0080981958 0)
(0.83481391 -0.0077774294 0)
(0.83901155 -0.0074542135 0)
(0.84302711 -0.0071346166 0)
(0.84686895 -0.0068248456 0)
(0.85054849 -0.0065311787 0)
(0.85408017 -0.0062598603 0)
(0.85748129 -0.0060170608 0)
(0.86077185 -0.0058087693 0)
(0.86397433 -0.005640787 0)
(0.86711349 -0.0055186226 0)
(0.87021607 -0.0054475026 0)
(0.87331052 -0.0054322719 0)
(0.87642669 -0.0054774444 0)
(0.87959551 -0.0055871301 0)
(0.88284862 -0.005765122 0)
(0.88621809 -0.0060148401 0)
(0.88973603 -0.0063394604 0)
(0.89343428 -0.006741873 0)
(0.89734403 -0.0072248584 0)
(0.90149554 -0.0077910522 0)
(0.90591774 -0.0084431776 0)
(0.91063801 -0.0091840018 0)
(0.91568168 -0.010016662 0)
(0.92107203 -0.010944575 0)
(0.92682941 -0.011971976 0)
(0.93297163 -0.013103686 0)
(0.93951247 -0.014346022 0)
(0.94646264 -0.015706245 0)
(0.95382705 -0.017194273 0)
(0.96160708 -0.018821343 0)
(0.96979499 -0.020603298 0)
(0.97837907 -0.022557363 0)
(0.98733193 -0.024708464 0)
(0.99662192 -0.027081426 0)
(1.0061884 -0.02971313 0)
(1.0159673 -0.032633862 0)
(1.0258386 -0.035891135 0)
(1.0356863 -0.039506338 0)
(1.0452847 -0.043524129 0)
(1.0544436 -0.047914832 0)
(1.0627589 -0.052686605 0)
(1.0699712 -0.057668398 0)
(1.0753945 -0.062789645 0)
(1.0788159 -0.067575945 0)
(1.0791186 -0.071906785 0)
(1.0765435 -0.074685961 0)
(1.0693103 -0.076105811 0)
(1.0590624 -0.073474985 0)
(1.0434724 -0.068831285 0)
(1.0261563 -0.054137659 0)
(1.0099686 -0.037786348 0)
(0.76452304 0.00038766191 0)
(0.76444153 0.000753737 0)
(0.76424078 0.00072497044 0)
(0.76410376 0.00092393492 0)
(0.76385315 0.00097525306 0)
(0.7636556 0.0011068704 0)
(0.76338553 0.0011827832 0)
(0.76314928 0.0012809293 0)
(0.76287459 0.0013563306 0)
(0.76262523 0.0014315678 0)
(0.76236382 0.0014937524 0)
(0.76212939 0.001546455 0)
(0.76190545 0.0015867856 0)
(0.76171781 0.0016123898 0)
(0.76156235 0.0016225218 0)
(0.76145824 0.0016129391 0)
(0.76140851 0.0015825224 0)
(0.76142919 0.0015279231 0)
(0.76152765 0.0014483061 0)
(0.76171929 0.0013415237 0)
(0.76201764 0.0012066129 0)
(0.76244052 0.0010405151 0)
(0.76300144 0.00083459599 0)
(0.76371217 0.00058059966 0)
(0.76458335 0.00028249758 0)
(0.7656192 -4.6888074e-05 0)
(0.76679116 -0.00040319098 0)
(0.76809204 -0.00077794828 0)
(0.76955654 -0.0011689111 0)
(0.77119726 -0.0015923705 0)
(0.77303695 -0.0020463112 0)
(0.77508313 -0.002522245 0)
(0.77734064 -0.0030177525 0)
(0.77981518 -0.0035305879 0)
(0.78251051 -0.0040577439 0)
(0.78542888 -0.0045967995 0)
(0.78857077 -0.0051448675 0)
(0.79193521 -0.0056991352 0)
(0.79551975 -0.0062565357 0)
(0.7993207 -0.0068140291 0)
(0.80333304 -0.0073685484 0)
(0.80755068 -0.0079171443 0)
(0.81196633 -0.0084569904 0)
(0.81657176 -0.0089854365 0)
(0.82135775 -0.00950002 0)
(0.82631423 -0.0099984672 0)
(0.83143032 -0.01047868 0)
(0.83669439 -0.01093871 0)
(0.8420941 -0.011376718 0)
(0.84761643 -0.011790931 0)
(0.85324772 -0.012179589 0)
(0.85897364 -0.012540902 0)
(0.86477924 -0.012873 0)
(0.87064891 -0.013173907 0)
(0.87656643 -0.013441524 0)
(0.88251495 -0.013673639 0)
(0.88847707 -0.013867948 0)
(0.89443488 -0.014022119 0)
(0.90037007 -0.014133866 0)
(0.90626403 -0.014201047 0)
(0.91209806 -0.014221785 0)
(0.91785349 -0.01419459 0)
(0.92351194 -0.014118489 0)
(0.92905555 -0.013993145 0)
(0.93446725 -0.013818968 0)
(0.93973099 -0.013597192 0)
(0.94483203 -0.013329938 0)
(0.94975719 -0.013020239 0)
(0.95449511 -0.012672028 0)
(0.95903646 -0.012290108 0)
(0.96337413 -0.01188008 0)
(0.96750341 -0.011448263 0)
(0.97142211 -0.011001577 0)
(0.97513064 -0.010547439 0)
(0.97863209 -0.010093626 0)
(0.98193219 -0.0096481661 0)
(0.98503928 -0.0092191952 0)
(0.98796427 -0.0088148669 0)
(0.99072044 -0.0084432109 0)
(0.99332336 -0.0081120687 0)
(0.99579063 -0.0078289527 0)
(0.99814167 -0.0076010241 0)
(1.0003975 -0.0074349344 0)
(1.0025802 -0.0073368774 0)
(1.0047132 -0.0073124643 0)
(1.0068202 -0.0073667546 0)
(1.0089252 -0.0075041699 0)
(1.0110522 -0.0077285809 0)
(1.0132248 -0.0080432308 0)
(1.0154655 -0.0084508837 0)
(1.0177959 -0.0089537608 0)
(1.020236 -0.0095537438 0)
(1.022804 -0.010252329 0)
(1.0255157 -0.011050888 0)
(1.0283847 -0.011950641 0)
(1.0314216 -0.012953024 0)
(1.034634 -0.014059551 0)
(1.038026 -0.01527234 0)
(1.041598 -0.016593865 0)
(1.0453463 -0.018027775 0)
(1.0492629 -0.019578356 0)
(1.053334 -0.021251928 0)
(1.0575414 -0.023055565 0)
(1.0618583 -0.024999696 0)
(1.0662526 -0.027095039 0)
(1.0706784 -0.029357564 0)
(1.0750838 -0.031801265 0)
(1.0793923 -0.034447809 0)
(1.0835219 -0.037309783 0)
(1.087346 -0.040410162 0)
(1.0907403 -0.04374427 0)
(1.0934982 -0.047321763 0)
(1.095449 -0.051081752 0)
(1.0962713 -0.054991543 0)
(1.0957856 -0.05885622 0)
(1.093522 -0.062570921 0)
(1.0894389 -0.065668979 0)
(1.0828786 -0.06801329 0)
(1.0742886 -0.068597466 0)
(1.0627487 -0.067573908 0)
(1.0497404 -0.062702845 0)
(1.03434 -0.055573101 0)
(1.0187192 -0.04104746 0)
(1.0063661 -0.024401458 0)
(0.86322662 0.00036400687 0)
(0.86339242 0.00080105843 0)
(0.86333673 0.00076985627 0)
(0.86343373 0.00099156293 0)
(0.86339736 0.0010460441 0)
(0.86345605 0.0011858051 0)
(0.86345072 0.0012611416 0)
(0.86350699 0.0013584118 0)
(0.86354401 0.0014265683 0)
(0.86363072 0.0014918325 0)
(0.86372895 0.0015379053 0)
(0.86387846 0.0015700227 0)
(0.86406376 0.0015831964 0)
(0.86431 0.001575952 0)
(0.86461371 0.0015464906 0)
(0.86499302 0.0014918946 0)
(0.86545248 0.0014111347 0)
(0.86600778 0.0013005012 0)
(0.86666687 0.0011580923 0)
(0.8674427 0.00097636479 0)
(0.86834251 0.00075062489 0)
(0.86937447 0.00047976587 0)
(0.87054932 0.00016921006 0)
(0.87185115 -0.00017696532 0)
(0.87326972 -0.00055868562 0)
(0.87480518 -0.00096748392 0)
(0.87648378 -0.0014036936 0)
(0.87831454 -0.0018815469 0)
(0.88031719 -0.0024013556 0)
(0.88249816 -0.002952726 0)
(0.88485775 -0.0035327115 0)
(0.8873996 -0.0041399935 0)
(0.89012749 -0.0047702003 0)
(0.89304285 -0.0054196002 0)
(0.89614628 -0.0060843301 0)
(0.8994371 -0.0067607843 0)
(0.90291337 -0.0074452177 0)
(0.90657212 -0.0081339101 0)
(0.91040928 -0.0088230244 0)
(0.91441996 -0.0095087808 0)
(0.91859827 -0.010187435 0)
(0.92293761 -0.010855396 0)
(0.9274305 -0.011509238 0)
(0.93206874 -0.012145746 0)
(0.93684335 -0.012761923 0)
(0.94174459 -0.013354987 0)
(0.94676201 -0.013922353 0)
(0.95188438 -0.014461597 0)
(0.95709973 -0.014970416 0)
(0.96239533 -0.015446575 0)
(0.96775766 -0.015887856 0)
(0.97317245 -0.016292009 0)
(0.97862466 -0.016656716 0)
(0.98409852 -0.016979564 0)
(0.98957758 -0.017258041 0)
(0.99504478 -0.017489559 0)
(1.0004825 -0.017671501 0)
(1.0058729 -0.017801286 0)
(1.0111976 -0.017876477 0)
(1.0164383 -0.01789489 0)
(1.021577 -0.017854732 0)
(1.0265957 -0.017754738 0)
(1.0314773 -0.01759431 0)
(1.0362052 -0.017373646 0)
(1.040764 -0.017093844 0)
(1.0451394 -0.01675699 0)
(1.0493189 -0.0163662 0)
(1.0532912 -0.015925647 0)
(1.057047 -0.015440527 0)
(1.0605792 -0.014917017 0)
(1.0638824 -0.01436218 0)
(1.0669538 -0.013783869 0)
(1.0697925 -0.01319058 0)
(1.0724001 -0.012591332 0)
(1.0747805 -0.011995495 0)
(1.0769396 -0.011412666 0)
(1.0788858 -0.010852491 0)
(1.0806292 -0.010324558 0)
(1.0821822 -0.0098382205 0)
(1.0835586 -0.0094025318 0)
(1.0847739 -0.0090260502 0)
(1.0858449 -0.0087168441 0)
(1.0867894 -0.0084823077 0)
(1.087626 -0.0083291706 0)
(1.0883736 -0.0082633038 0)
(1.0890515 -0.0082898161 0)
(1.0896785 -0.0084129106 0)
(1.0902732 -0.008636026 0)
(1.0908532 -0.0089617176 0)
(1.0914349 -0.0093918541 0)
(1.0920333 -0.0099275225 0)
(1.0926617 -0.010569279 0)
(1.0933312 -0.011317072 0)
(1.0940507 -0.01217054 0)
(1.0948265 -0.013128943 0)
(1.095662 -0.014191495 0)
(1.0965577 -0.015357287 0)
(1.0975108 -0.016625805 0)
(1.0985153 -0.017996728 0)
(1.0995611 -0.019470621 0)
(1.1006344 -0.021048495 0)
(1.1017164 -0.022732987 0)
(1.1027845 -0.024527261 0)
(1.1038086 -0.026437117 0)
(1.1047546 -0.028468341 0)
(1.1055767 -0.030630598 0)
(1.1062249 -0.032931152 0)
(1.1066301 -0.035382381 0)
(1.1067203 -0.037987254 0)
(1.1063899 -0.040754813 0)
(1.1055401 -0.043667585 0)
(1.1040122 -0.046716465 0)
(1.1016871 -0.049828835 0)
(1.0983376 -0.0529544 0)
(1.0938697 -0.055903852 0)
(1.0879797 -0.058573508 0)
(1.0807293 -0.06055727 0)
(1.0717364 -0.061759552 0)
(1.0614779 -0.061362482 0)
(1.0495138 -0.059556923 0)
(1.0370311 -0.054605235 0)
(1.0239785 -0.047723038 0)
(1.011658 -0.035221693 0)
(1.003408 -0.020183821 0)
(0.9359288 0.00024027224 0)
(0.9363897 0.00071080344 0)
(0.93650779 0.00067368771 0)
(0.93688058 0.00090052461 0)
(0.93709308 0.0009470009 0)
(0.93744575 0.0010799679 0)
(0.93773846 0.0011411895 0)
(0.9381203 0.0012227019 0)
(0.93849792 0.0012691565 0)
(0.93894737 0.0013096618 0)
(0.9394273 0.0013254193 0)
(0.93997913 0.0013232943 0)
(0.94058695 0.0012968263 0)
(0.9412758 0.0012452923 0)
(0.94204235 0.0011657236 0)
(0.9429034 0.001053439 0)
(0.94386036 0.00090490519 0)
(0.94492545 0.00071744822 0)
(0.9461019 0.00048940043 0)
(0.94740046 0.00022170871 0)
(0.94880933 -8.4092718e-05 0)
(0.95032762 -0.000431367 0)
(0.95194676 -0.00081514983 0)
(0.95368435 -0.0012323986 0)
(0.95554769 -0.001688933 0)
(0.957546 -0.0021929439 0)
(0.95969144 -0.0027438129 0)
(0.96198765 -0.0033332675 0)
(0.96443142 -0.0039586148 0)
(0.96702329 -0.0046201555 0)
(0.96976532 -0.0053142127 0)
(0.97265684 -0.0060354568 0)
(0.97569664 -0.0067796797 0)
(0.97888328 -0.0075425997 0)
(0.98221458 -0.0083198143 0)
(0.98568777 -0.0091071447 0)
(0.98929932 -0.0099002302 0)
(0.99304514 -0.010694812 0)
(0.9969205 -0.011486543 0)
(1.0009202 -0.012271175 0)
(1.0050384 -0.013044511 0)
(1.0092689 -0.01380252 0)
(1.0136047 -0.014541329 0)
(1.0180385 -0.015257273 0)
(1.0225621 -0.015946885 0)
(1.0271668 -0.0166069 0)
(1.0318429 -0.017234224 0)
(1.03658 -0.017825906 0)
(1.0413671 -0.018379094 0)
(1.046192 -0.018890995 0)
(1.0510416 -0.019358823 0)
(1.0559022 -0.019779769 0)
(1.060759 -0.020150975 0)
(1.0655964 -0.020469523 0)
(1.0703983 -0.020732451 0)
(1.0751478 -0.020936796 0)
(1.0798276 -0.021079649 0)
(1.0844202 -0.021158255 0)
(1.088908 -0.021170119 0)
(1.0932735 -0.021113141 0)
(1.0974995 -0.020985755 0)
(1.1015695 -0.020787073 0)
(1.1054678 -0.020517027 0)
(1.1091796 -0.020176493 0)
(1.1126913 -0.019767391 0)
(1.1159909 -0.01929276 0)
(1.1190678 -0.018756792 0)
(1.1219131 -0.018164837 0)
(1.1245199 -0.017523363 0)
(1.126883 -0.016839891 0)
(1.1289992 -0.016122877 0)
(1.1308676 -0.015381606 0)
(1.1324889 -0.014626018 0)
(1.1338661 -0.013866572 0)
(1.1350041 -0.013114049 0)
(1.1359097 -0.012379414 0)
(1.1365914 -0.011673608 0)
(1.1370594 -0.011007434 0)
(1.1373256 -0.010391347 0)
(1.137403 -0.0098353745 0)
(1.1373061 -0.0093489093 0)
(1.1370498 -0.0089406864 0)
(1.1366503 -0.0086184923 0)
(1.1361239 -0.0083893206 0)
(1.1354871 -0.0082591781 0)
(1.1347564 -0.0082331028 0)
(1.1339479 -0.0083150361 0)
(1.133077 -0.0085079652 0)
(1.132158 -0.008813781 0)
(1.131204 -0.0092335146 0)
(1.1302269 -0.0097672069 0)
(1.1292366 -0.010414203 0)
(1.1282412 -0.011173054 0)
(1.1272467 -0.012041843 0)
(1.1262569 -0.013018174 0)
(1.1252732 -0.014099631 0)
(1.1242945 -0.015283558 0)
(1.1233169 -0.01656759 0)
(1.122334 -0.017949386 0)
(1.121336 -0.019427343 0)
(1.1203106 -0.021000148 0)
(1.1192416 -0.022667705 0)
(1.1181098 -0.024430149 0)
(1.1168904 -0.026289451 0)
(1.1155559 -0.028247036 0)
(1.1140698 -0.030306767 0)
(1.1123929 -0.032469437 0)
(1.1104715 -0.034738688 0)
(1.1082511 -0.037108573 0)
(1.1056523 -0.039576247 0)
(1.1026046 -0.042114419 0)
(1.098994 -0.044700978 0)
(1.0947457 -0.047258105 0)
(1.0897058 -0.049726664 0)
(1.0838388 -0.051927755 0)
(1.0769526 -0.053758418 0)
(1.0691521 -0.054856217 0)
(1.0602104 -0.055128099 0)
(1.0505379 -0.053878649 0)
(1.0399054 -0.051249453 0)
(1.0291455 -0.045916969 0)
(1.0184484 -0.038806834 0)
(1.0085185 -0.027729119 0)
(1.0022187 -0.014806114 0)
(0.98695165 -9.092623e-07 0)
(0.98771112 0.00046100575 0)
(0.98799779 0.00041059273 0)
(0.98864358 0.00062432775 0)
(0.98909672 0.00065378571 0)
(0.98973464 0.00076725213 0)
(0.99031175 0.00080429221 0)
(0.99100303 0.00085847148 0)
(0.99169992 0.00087227718 0)
(0.99248671 0.00087611721 0)
(0.99331694 0.00084931008 0)
(0.99423395 0.00079954472 0)
(0.99521973 0.00071891499 0)
(0.99629879 0.00060740442 0)
(0.99746542 0.00046141757 0)
(0.99873497 0.00028025371 0)
(1.0001007 6.2947735e-05 0)
(1.0015669 -0.00019343824 0)
(1.0031316 -0.00049023622 0)
(1.0047938 -0.00082542048 0)
(1.0065638 -0.001197839 0)
(1.0084465 -0.0016107614 0)
(1.0104457 -0.002069785 0)
(1.0125686 -0.0025781903 0)
(1.0148198 -0.0031321557 0)
(1.0171988 -0.0037280276 0)
(1.0197011 -0.0043641173 0)
(1.0223251 -0.0050416247 0)
(1.0250703 -0.0057581582 0)
(1.0279338 -0.0065083936 0)
(1.0309115 -0.0072884462 0)
(1.0339999 -0.0080944127 0)
(1.0371957 -0.0089216197 0)
(1.0404952 -0.0097655606 0)
(1.0438944 -0.010621553 0)
(1.0473895 -0.011485064 0)
(1.050976 -0.012351484 0)
(1.0546494 -0.013216276 0)
(1.0584051 -0.014074865 0)
(1.0622381 -0.014922759 0)
(1.0661432 -0.015755509 0)
(1.0701151 -0.016568799 0)
(1.0741477 -0.017358426 0)
(1.0782348 -0.018120346 0)
(1.0823692 -0.018850664 0)
(1.0865434 -0.019545626 0)
(1.0907488 -0.020201604 0)
(1.094976 -0.020815071 0)
(1.0992149 -0.02138257 0)
(1.1034542 -0.021900682 0)
(1.1076817 -0.022365999 0)
(1.1118841 -0.022775111 0)
(1.1160475 -0.023124595 0)
(1.1201569 -0.023411036 0)
(1.1241969 -0.023631056 0)
(1.1281513 -0.023781378 0)
(1.1320037 -0.023858901 0)
(1.1357375 -0.023860813 0)
(1.1393363 -0.023784706 0)
(1.1427838 -0.023628719 0)
(1.1460645 -0.023391674 0)
(1.1491634 -0.023073224 0)
(1.1520666 -0.022673981 0)
(1.1547614 -0.022195631 0)
(1.1572363 -0.02164102 0)
(1.1594815 -0.021014214 0)
(1.1614887 -0.020320515 0)
(1.1632512 -0.019566449 0)
(1.1647643 -0.018759705 0)
(1.1660251 -0.017909058 0)
(1.1670322 -0.017024231 0)
(1.1677866 -0.016115774 0)
(1.1682906 -0.015194871 0)
(1.1685486 -0.014273195 0)
(1.1685665 -0.01336269 0)
(1.1683519 -0.012475422 0)
(1.1679139 -0.011623351 0)
(1.167263 -0.010818214 0)
(1.166411 -0.010071273 0)
(1.1653706 -0.0093932793 0)
(1.1641556 -0.0087941499 0)
(1.1627806 -0.0082830597 0)
(1.1612605 -0.0078682022 0)
(1.1596105 -0.0075567943 0)
(1.1578458 -0.0073547145 0)
(1.1559816 -0.0072667519 0)
(1.1540324 -0.0072963519 0)
(1.1520123 -0.0074458814 0)
(1.1499343 -0.0077164073 0)
(1.1478103 -0.0081080287 0)
(1.1456509 -0.0086196881 0)
(1.1434653 -0.0092495719 0)
(1.1412608 -0.009994956 0)
(1.1390429 -0.010852641 0)
(1.1368154 -0.011818846 0)
(1.1345795 -0.012889504 0)
(1.132335 -0.014060224 0)
(1.1300792 -0.015326883 0)
(1.1278072 -0.016685447 0)
(1.1255116 -0.01813246 0)
(1.123183 -0.019664695 0)
(1.1208087 -0.021279995 0)
(1.1183736 -0.022976366 0)
(1.1158585 -0.024753273 0)
(1.1132417 -0.026609588 0)
(1.1104948 -0.028545887 0)
(1.1075872 -0.030559714 0)
(1.1044771 -0.032650213 0)
(1.1011231 -0.034807493 0)
(1.0974645 -0.037022935 0)
(1.0934498 -0.039265867 0)
(1.0889941 -0.041508595 0)
(1.0840474 -0.043675095 0)
(1.0784987 -0.045705366 0)
(1.0723361 -0.047438466 0)
(1.0654277 -0.048781913 0)
(1.057878 -0.049428359 0)
(1.0495515 -0.049303322 0)
(1.0407871 -0.047844821 0)
(1.0315188 -0.045164705 0)
(1.0223715 -0.040253255 0)
(1.0137355 -0.033742963 0)
(1.0060331 -0.024141733 0)
(1.0014114 -0.012698393 0)
(1.0211081 -0.00034719684 0)
(1.0221496 7.4955356e-05 0)
(1.0225786 1.0160911e-05 0)
(1.0234644 0.00019606232 0)
(1.0241211 0.00020005576 0)
(1.0250028 0.00028267485 0)
(1.0258187 0.00028594832 0)
(1.0267694 0.00030266604 0)
(1.0277302 0.00027477068 0)
(1.0287932 0.00023348198 0)
(1.0299054 0.00015726367 0)
(1.0311108 5.4885051e-05 0)
(1.0323873 -8.1989093e-05 0)
(1.0337564 -0.00025223437 0)
(1.0352092 -0.00045927381 0)
(1.0367555 -0.00070261982 0)
(1.0383969 -0.0009829318 0)
(1.0401412 -0.0013027098 0)
(1.0419887 -0.0016632358 0)
(1.0439443 -0.002068935 0)
(1.0460109 -0.0025218244 0)
(1.0481923 -0.0030204786 0)
(1.050488 -0.0035630268 0)
(1.0528948 -0.0041483456 0)
(1.0554087 -0.0047765545 0)
(1.0580273 -0.0054484206 0)
(1.0607477 -0.0061619335 0)
(1.0635654 -0.006912862 0)
(1.0664739 -0.0076980275 0)
(1.0694676 -0.0085145118 0)
(1.0725416 -0.0093583081 0)
(1.0756902 -0.010224807 0)
(1.0789083 -0.011109528 0)
(1.0821909 -0.012007901 0)
(1.0855333 -0.01291531 0)
(1.0889308 -0.013827232 0)
(1.092379 -0.014739058 0)
(1.0958736 -0.01564624 0)
(1.0994105 -0.016544163 0)
(1.1029853 -0.017428261 0)
(1.1065938 -0.018293956 0)
(1.1102315 -0.019136734 0)
(1.1138936 -0.01995212 0)