/*--------------------------------*- C++ -*----------------------------------*\
| =========                 |                                                 |
| \\      /  F ield         | foam-extend: Open Source CFD                    |
|  \\    /   O peration     | Version:     4.1                                |
|   \\  /    A nd           | Web:         http://www.foam-extend.org         |
|    \\/     M anipulation  |                                                 |
\*---------------------------------------------------------------------------*/
FoamFile
{
    version     2.0;
    format      ascii;
    class       surfaceScalarField;
    location    "0.1";
    object      phi;
}
// * * * * * * * * * * * * * * * * * * * * * * * * * * * * * * * * * * * * * //

dimensions      [0 3 -1 0 0 0 0];

internalField   nonuniform List<scalar> 
8438
(
-0.60494207
0.0020173702
-0.60702142
0.0020793506
-0.60913236
0.0021109308
-0.61128293
0.0021505783
-0.61348155
0.0021986152
-0.61573679
0.0022552436
-0.61805565
0.0023188577
-0.62044263
0.0023869832
-0.62289896
0.0024563295
-0.62542178
0.002522813
-0.62800335
0.0025815753
-0.63063041
0.0026270585
-0.63328358
0.0026531743
-0.63593719
0.002653601
-0.63855941
0.0026222225
-0.64111313
0.0025537205
-0.64355727
0.0024441425
-0.6458487
0.002291431
-0.64794433
0.0020956267
-0.64980302
0.0018586943
-0.65138706
0.0015840402
-0.65266293
0.0012758649
-0.65360152
0.00093859251
-0.65417812
0.00057659847
-0.65437232
0.00019419969
-0.65416783
-0.00020448818
-0.65355351
-0.00061431734
-0.65252653
-0.0010269814
-0.65109479
-0.0014317433
-0.64927876
-0.0018160288
-0.64711317
-0.0021655926
-0.64464724
-0.0024659311
-0.641943
-0.0027042326
-0.63907175
-0.0028712522
-0.63610922
-0.0029625328
-0.63313053
-0.0029786922
-0.63020569
-0.0029248349
-0.62739631
-0.0028093824
-0.62475363
-0.0026426804
-0.62231794
-0.0024356855
-0.62011902
-0.0021989191
-0.61817727
-0.0019417537
-0.61650526
-0.0016720062
-0.6151094
-0.0013958666
-0.61399102
-0.0011183788
-0.61314691
-0.00084411266
-0.61257225
-0.00057465324
-0.61227118
-0.00030107492
-2.6228932e-05
-0.61862976
0.0038250206
-0.62043009
0.0038796748
-0.62225483
0.0039356697
-0.62411597
0.004011723
-0.62602458
0.0041072218
-0.62799004
0.0042207109
-0.63001985
0.004348668
-0.63211892
0.0044860507
-0.63428885
0.004626261
-0.63652716
0.0047611192
-0.63882646
0.004880872
-0.64117372
0.0049743254
-0.64354972
0.0050291702
-0.64592869
0.0050325702
-0.64827852
0.00497205
-0.65056151
0.004836712
-0.6527358
0.0046184345
-0.65475736
0.0043129941
-0.65658225
0.0039205108
-0.65816864
0.0034450903
-0.6594784
0.0028937986
-0.66047782
0.0022752822
-0.66113777
0.0015985424
-0.66143348
0.00087230844
-0.66134448
0.00010520615
-0.66085578
-0.00069319028
-0.65995852
-0.0015115803
-0.6586503
-0.002335204
-0.65693769
-0.0031443529
-0.65483969
-0.0039140284
-0.6523899
-0.0046153785
-0.64963708
-0.0052187547
-0.64664346
-0.0056978498
-0.64348105
-0.0060336626
-0.64022653
-0.006217059
-0.63695587
-0.006249346
-0.6337397
-0.0061410025
-0.63063987
-0.0059092202
-0.62770753
-0.0055750124
-0.6249827
-0.0051605211
-0.62249472
-0.0046868986
-0.62026359
-0.0041728801
-0.61830159
-0.0036340094
-0.61661492
-0.0030825348
-0.61520523
-0.0025280745
-0.61407137
-0.0019779682
-0.61321178
-0.0014342451
-0.61261719
-0.00089566182
-0.00039862226
-0.61970542
0.0055787401
-0.62145485
0.0056291114
-0.62322645
0.0057072667
-0.62503429
0.005819565
-0.62689048
0.0059634061
-0.62880515
0.0061353841
-0.63078642
0.006329942
-0.63283986
0.0065394835
-0.63496776
0.0067541597
-0.63716838
0.0069617418
-0.63943509
0.0071475813
-0.64175553
0.0072947672
-0.64411094
0.0073845807
-0.64647573
0.0073973574
-0.64881751
0.0073138373
-0.65109787
0.0071170679
-0.65327379
0.0067943508
-0.65529988
0.0063390895
-0.65713093
0.0057515581
-0.65872417
0.0050383349
-0.66004098
0.0042106024
-0.66104755
0.0032818528
-0.66171486
0.0022658515
-0.66201814
0.0011755871
-0.66193651
2.357929e-05
-0.66145293
-0.0011767654
-0.66055508
-0.002409434
-0.65923751
-0.003652769
-0.65750462
-0.0048772505
-0.65537386
-0.0060447887
-0.65287856
-0.0071106782
-0.65006886
-0.008028457
-0.64701002
-0.0087566873
-0.64377818
-0.0092655014
-0.64045446
-0.0095407747
-0.63711885
-0.009584962
-0.63384494
-0.0094149082
-0.63069638
-0.0090577874
-0.62772494
-0.0085464433
-0.62497032
-0.0079151457
-0.6224609
-0.0071963231
-0.62021535
-0.0064184287
-0.6182445
-0.005604862
-0.61655316
-0.0047738676
-0.61514207
-0.0039391711
-0.61400999
-0.0031100428
-0.61315415
-0.0022900868
-0.61256506
-0.0014847561
-0.00071872803
-0.62010265
0.0073025259
-0.62183169
0.0073581474
-0.62358393
0.0074595064
-0.62537359
0.0076092327
-0.62721342
0.0078032267
-0.6291144
0.0080363694
-0.63108559
0.0083011338
-0.63313355
0.0085874361
-0.63526162
0.0088822309
-0.63746912
0.0091692478
-0.6397504
0.0094288614
-0.64209386
0.0096382291
-0.64448112
0.0097718347
-0.64688636
0.0098025994
-0.64927624
0.0097037119
-0.65161049
0.0094513224
-0.65384358
0.0090274389
-0.65592723
0.0084227394
-0.65781349
0.0076378172
-0.65945752
0.0066823677
-0.6608195
0.0055725814
-0.66186526
0.0043276137
-0.66256586
0.0029664533
-0.66289656
0.0015062885
-0.66283589
-3.7094613e-05
-0.66236539
-0.0016472677
-0.6614704
-0.0033044214
-0.66014232
-0.0049808448
-0.65838215
-0.0066374218
-0.65620477
-0.0082221669
-0.65364287
-0.0096725857
-0.65074864
-0.010922685
-0.64759212
-0.011913202
-0.64425604
-0.012601584
-0.64082858
-0.012968234
-0.637396
-0.01301754
-0.63403656
-0.012774348
-0.63081658
-0.012277768
-0.62778872
-0.01157431
-0.62499204
-0.010711826
-0.62245336
-0.0097349958
-0.62018928
-0.0086825102
-0.61820836
-0.007585781
-0.61651334
-0.0064688948
-0.61510324
-0.0053492705
-0.61397529
-0.004237995
-0.61312484
-0.0031405296
-0.61254556
-0.0020640356
-0.0010193416
-0.62057921
0.0090001753
-0.62228614
0.0090650766
-0.62401757
0.0091909366
-0.62578818
0.009379842
-0.6276114
0.0096264485
-0.62949924
0.009924209
-0.6314619
0.010263788
-0.63350721
0.010632753
-0.63563995
0.011014967
-0.63786085
0.011390152
-0.64016561
0.01173362
-0.64254371
0.012016329
-0.64497733
0.012205457
-0.64744045
0.012265715
-0.6498984
0.012161661
-0.6523084
0.011861327
-0.65462132
0.011340355
-0.65678474
0.010586159
-0.65874683
0.0095999087
-0.66045988
0.0083954173
-0.66188257
0.0069952741
-0.66298053
0.0054255713
-0.66372532
0.0037112442
-0.66409265
0.0018736149
-0.66406062
-6.9125283e-05
-0.66360901
-0.002098876
-0.66271983
-0.0041935952
-0.66137986
-0.0063208196
-0.65958497
-0.0084323103
-0.65734596
-0.010461183
-0.65469416
-0.012324384
-0.65168451
-0.013932328
-0.64839387
-0.015203843
-0.64491449
-0.016080966
-0.64134475
-0.016537973
-0.63777983
-0.016582464
-0.6343044
-0.016249774
-0.63098834
-0.015593831
-0.62788521
-0.01467744
-0.62503299
-0.013564048
-0.62245611
-0.012311877
-0.62016812
-0.0109705
-0.61817444
-0.0095794593
-0.61647493
-0.0081684016
-0.61506623
-0.0067579726
-0.61394342
-0.0053608011
-0.61310056
-0.0039833884
-0.61253282
-0.0026317809
-0.0013073613
-0.62117941
0.010666234
-0.62285785
0.010743512
-0.6245627
0.010895792
-0.62630903
0.011126168
-0.62811108
0.011428502
-0.62998203
0.011795152
-0.63193346
0.01221522
-0.63397485
0.012674141
-0.63611274
0.013152865
-0.63834979
0.0136272
-0.64068351
0.014067332
-0.6431049
0.014437725
-0.64559708
0.014697638
-0.64813392
0.014802552
-0.6506792
0.014706946
-0.65318688
0.014369004
-0.65560295
0.013756426
-0.65786932
0.012852526
-0.65992879
0.01165938
-0.66172977
0.010196398
-0.66322913
0.0084946379
-0.66439259
0.0065890235
-0.66519285
0.0045115095
-0.66560672
0.0022874823
-0.66561218
-6.3659735e-05
-0.66518694
-0.0025241199
-0.66430861
-0.0050719224
-0.66295757
-0.0076718655
-0.66112231
-0.010267563
-0.65880735
-0.012776147
-0.65604149
-0.01509024
-0.65288303
-0.017090794
-0.64941817
-0.018668703
-0.6457525
-0.019746635
-0.64199853
-0.020291943
-0.63826354
-0.020317452
-0.63464064
-0.019872676
-0.63120402
-0.019030456
-0.62800797
-0.017873489
-0.62508855
-0.01648346
-0.62246668
-0.014933752
-0.62015163
-0.013285544
-0.61814453
-0.011586568
-0.61644129
-0.0098716431
-0.61503517
-0.0081640909
-0.61391846
-0.0064775076
-0.61308359
-0.0048182617
-0.61252539
-0.003189982
-0.0015877974
-0.62190633
0.012297485
-0.62355049
0.012387666
-0.62522249
0.012567799
-0.62693847
0.012842143
-0.62871377
0.013203803
-0.63056294
0.013644317
-0.63249924
0.01415152
-0.63453411
0.014709014
-0.63667635
0.015295103
-0.638931
0.015881858
-0.64129801
0.016434338
-0.64377051
0.016910224
-0.64633303
0.017260162
-0.64895964
0.017429155
-0.65161241
0.017359719
-0.65424121
0.016997805
-0.65678565
0.016300865
-0.65917993
0.015246802
-0.66135957
0.01383902
-0.66326784
0.01210467
-0.66485954
0.010086336
-0.66610108
0.0078305635
-0.66696746
0.0053778956
-0.66743768
0.0027577047
-0.66749029
-1.1056488e-05
-0.66710062
-0.0029137838
-0.6662407
-0.0059318479
-0.66488224
-0.0090303212
-0.66300331
-0.012146494
-0.6605989
-0.015180555
-0.65769329
-0.017995855
-0.65434857
-0.020435507
-0.65066363
-0.022353649
-0.64676239
-0.023647879
-0.6427766
-0.024277727
-0.63882962
-0.024264432
-0.63502522
-0.023677076
-0.63144256
-0.022613117
-0.62813614
-0.021179915
-0.62513888
-0.01948072
-0.62246667
-0.017605954
-0.62012311
-0.015629108
-0.61810369
-0.013605991
-0.61639932
-0.011576011
-0.614999
-0.0095644077
-0.61389161
-0.0075849031
-0.61306724
-0.005642626
-0.61251902
-0.0037382022
-0.0018618712
-0.6227535
0.013884646
-0.62435578
0.013989953
-0.62598808
0.014200091
-0.6276672
0.014521266
-0.6294097
0.014946306
-0.63123168
0.015466292
-0.63314833
0.01606817
-0.63517343
0.016734112
-0.63731848
0.017440161
-0.63959157
0.018154949
-0.64199574
0.018838508
-0.64452703
0.019441508
-0.64717211
0.019905243
-0.64990574
0.020162791
-0.65268833
0.020142304
-0.65546477
0.019774241
-0.65816635
0.019002454
-0.66071693
0.017797374
-0.66304211
0.016164206
-0.66507839
0.014140946
-0.66677826
0.011786208
-0.66810994
0.0091622428
-0.6690525
0.0063204561
-0.6695889
0.0032941038
-0.66969935
9.9392375e-05
-0.66935684
-0.0032562863
-0.66852646
-0.0067622331
-0.66716849
-0.010388293
-0.66524637
-0.014068616
-0.66274091
-0.017686015
-0.65966849
-0.02106827
-0.65609525
-0.02400875
-0.65213706
-0.026311832
-0.64794311
-0.027841832
-0.64367123
-0.028549607
-0.6394658
-0.028469868
-0.63544373
-0.027699141
-0.63168948
-0.026367372
-0.62825658
-0.024612811
-0.62517299
-0.022564313
-0.62244756
-0.020331383
-0.6200763
-0.01800037
-0.61804755
-0.015634734
-0.61634602
-0.013277543
-0.61495557
-0.010954857
-0.61386109
-0.0086793795
-0.61304985
-0.0064538734
-0.61251261
-0.004275436
-0.0021296842
-0.62372146
0.01542499
-0.62527593
0.015544421
-0.62686153
0.015785687
-0.62849671
0.016156454
-0.63019951
0.016649103
-0.63198778
0.01725456
-0.63387892
0.017959313
-0.63588942
0.018744614
-0.63803404
0.019584781
-0.64032458
0.020445482
-0.64276806
0.021281991
-0.6453644
0.022037854
-0.64810349
0.022644324
-0.65096164
0.023020943
-0.65389788
0.023078541
-0.65685132
0.022727682
-0.65974257
0.021893709
-0.6624815
0.020536308
-0.66498022
0.018662923
-0.66716615
0.016326875
-0.66898939
0.013609444
-0.6704217
0.010594559
-0.67144897
0.0073477285
-0.67206079
0.0039059146
-0.67224069
0.00027929901
-0.67195977
-0.0035372044
-0.67117479
-0.0075472171
-0.66983102
-0.011732064
-0.6678717
-0.016027936
-0.66525661
-0.020301101
-0.66198881
-0.024336071
-0.65813802
-0.027859544
-0.65384313
-0.030606725
-0.64928829
-0.032396672
-0.64466678
-0.033171116
-0.64015033
-0.032986315
-0.63587168
-0.031977789
-0.63192029
-0.030318761
-0.62834676
-0.02818634
-0.62517135
-0.025739723
-0.62239321
-0.023109531
-0.61999845
-0.020395129
-0.61796647
-0.017666707
-0.61627443
-0.014969585
-0.61490016
-0.012329132
-0.61382395
-0.0097555818
-0.61302974
-0.0072480909
-0.61250567
-0.0047995005
-0.0023904069
-0.62480278
0.016904554
-0.6262997
0.017041336
-0.62783026
0.017316247
-0.62941349
0.017739688
-0.63106878
0.018304391
-0.63281585
0.019001629
-0.63467454
0.019818001
-0.63666441
0.020734492
-0.63880406
0.021724423
-0.64110977
0.022751198
-0.64359363
0.02376585
-0.64626069
0.024704911
-0.6491054
0.025489039
-0.65210705
0.026022585
-0.65522403
0.02619553
-0.65838898
0.025892631
-0.6615088
0.025013527
-0.66447439
0.023501901
-0.6671791
0.021367633
-0.66953809
0.018685861
-0.67149904
0.015570394
-0.67304008
0.012135603
-0.67415804
0.0084656906
-0.67485315
0.004601025
-0.67511517
0.00054131366
-0.67491401
-0.0037383598
-0.6741965
-0.0082647264
-0.67288871
-0.013039858
-0.67090634
-0.018010306
-0.66817826
-0.023029177
-0.66468536
-0.027828974
-0.66049926
-0.032045646
-0.65579024
-0.035315745
-0.65079161
-0.037395301
-0.64574509
-0.038217637
-0.64085784
-0.037873565
-0.63628103
-0.036554602
-0.63210782
-0.034491972
-0.62838252
-0.03191164
-0.62511382
-0.029008416
-0.62228763
-0.025935722
-0.61987738
-0.022805384
-0.61785146
-0.019692623
-0.61617811
-0.016642935
-0.61482827
-0.013678974
-0.61377714
-0.010806711
-0.61300496
-0.0080202755
-0.61249716
-0.0053073002
-0.0026426129
-0.62599483
0.018324012
-0.62742878
0.018475291
-0.62889684
0.018784306
-0.63042017
0.019263011
-0.63201979
0.019904015
-0.63371745
0.020699287
-0.63553561
0.021636158
-0.63749727
0.022696155
-0.63962539
0.023852548
-0.64194168
0.025067484
-0.64446445
0.026288623
-0.64720548
0.027445938
-0.65016569
0.028449251
-0.65332935
0.02918624
-0.65665587
0.029522055
-0.6600711
0.029307863
-0.66346462
0.028407042
-0.66670147
0.026738756
-0.66964869
0.024314854
-0.67220455
0.021241718
-0.67431462
0.01768046
-0.67596777
0.013788756
-0.67717793
0.0096758545
-0.67796174
0.0053848346
-0.67831913
0.00089869867
-0.67822024
-0.0038372479
-0.67760038
-0.0088845866
-0.6763614
-0.014278839
-0.67438205
-0.019989651
-0.67154617
-0.025865061
-0.66779817
-0.031576975
-0.66320732
-0.036636493
-0.65798729
-0.040535775
-0.65244179
-0.042940806
-0.64687935
-0.04378007
-0.64155285
-0.043200067
-0.63663396
-0.041473491
-0.63221646
-0.038909481
-0.62833302
-0.035795072
-0.62497533
-0.032366106
-0.62211145
-0.028799607
-0.61969873
-0.025218101
-0.61769232
-0.021699034
-0.61605013
-0.018285126
-0.61473544
-0.014993666
-0.61371796
-0.011824187
-0.61297409
-0.0087641499
-0.61248656
-0.0057948297
-0.0028843698
-0.6272934
0.019662581
-0.62865147
0.019833367
-0.63004652
0.02017936
-0.63149968
0.02071617
-0.63303323
0.021437557
-0.63467083
0.022336893
-0.63643771
0.02340304
-0.63836063
0.024619072
-0.64046751
0.025959429
-0.64278643
0.0273864
-0.64534344
0.028845628
-0.648159
0.030261498
-0.65124302
0.03153328
-0.6545878
0.032531017
-0.65815665
0.033090899
-0.66186924
0.033020459
-0.66559347
0.032131267
-0.66915874
0.030304023
-0.67239432
0.027550436
-0.67517445
0.024021854
-0.67744309
0.019949095
-0.67920654
0.015552205
-0.68050484
0.010974158
-0.68137923
0.0062592254
-0.68184556
0.0013650245
-0.68187663
-0.0038061731
-0.68139492
-0.0093662976
-0.68027244
-0.015401314
-0.67833936
-0.021922737
-0.67541464
-0.028789781
-0.67138322
-0.035608397
-0.66630256
-0.04171715
-0.6604471
-0.04639124
-0.65422378
-0.049164123
-0.6480343
-0.049969545
-0.64219007
-0.049044301
-0.63688383
-0.046779733
-0.63220382
-0.043589486
-0.62816291
-0.039835979
-0.62472817
-0.035800846
-0.62184403
-0.031683751
-0.61944783
-0.027614299
-0.61747906
-0.023667806
-0.61588403
-0.019880159
-0.61461777
-0.016259924
-0.61364434
-0.012797617
-0.61293631
-0.0094721795
-0.61247389
-0.0062572467
-0.0031133122
-0.6286833
0.020926131
-0.62996133
0.021111405
-0.63127589
0.021493915
-0.6326505
0.022090782
-0.63410898
0.022896039
-0.63567696
0.023904871
-0.63738244
0.025108516
-0.63925613
0.02649276
-0.64133142
0.028034724
-0.64364371
0.029698687
-0.64622835
0.031430268
-0.64911679
0.033149939
-0.652331
0.034747493
-0.6558754
0.036075417
-0.65972189
0.036937393
-0.66378632
0.037084881
-0.66790996
0.036254911
-0.67187282
0.034266884
-0.67544929
0.031126905
-0.67847891
0.027051478
-0.68090551
0.022375691
-0.68276375
0.017410447
-0.68413341
0.012343819
-0.68509186
0.0072176787
-0.68567868
0.0019518412
-0.68587281
-0.0036120459
-0.68558264
-0.0096564619
-0.68464415
-0.016339812
-0.68282509
-0.023741794
-0.6798526
-0.031762265
-0.67551521
-0.039945787
-0.6698387
-0.047393662
-0.66318353
-0.053046411
-0.65611256
-0.056235098
-0.6491586
-0.056923504
-0.64270716
-0.055495741
-0.63696912
-0.052517772
-0.63201611
-0.048542495
-0.62782876
-0.044023332
-0.62433929
-0.039290315
-0.62146133
-0.034561712
-0.61910782
-0.029967805
-0.61720024
-0.025575387
-0.61567227
-0.021408125
-0.61447046
-0.01746174
-0.61355331
-0.013714765
-0.61288988
-0.010135609
-0.61245818
-0.0066889435
-0.0033266967
-0.63017674
0.022086578
-0.63135851
0.022293171
-0.63257971
0.022715119
-0.6338629
0.023373975
-0.63523261
0.024265746
-0.63671606
0.025388322
-0.63834391
0.026736364
-0.6401509
0.028299752
-0.6421763
0.030060121
-0.64446376
0.031986153
-0.6470598
0.034026305
-0.65000971
0.036099849
-0.65335156
0.038089339
-0.65710779
0.039831648
-0.66126684
0.041096446
-0.66574669
0.041564732
-0.67035774
0.04086596
-0.67481135
0.038720494
-0.67880055
0.035116108
-0.68211289
0.030363813
-0.68469398
0.024956779
-0.68662318
0.019339652
-0.68803918
0.013759816
-0.68907051
0.0082490061
-0.68979042
0.0026717552
-0.69018913
-0.0032133322
-0.69016083
-0.0096847647
-0.68949981
-0.017000828
-0.68789699
-0.025344612
-0.68495272
-0.03470654
-0.68030064
-0.044597865
-0.67389406
-0.053800246
-0.66621556
-0.060724906
-0.65807186
-0.064378799
-0.65018179
-0.064813571
-0.64302264
-0.062654896
-0.63681324
-0.058727176
-0.63158952
-0.053766215
-0.6272816
-0.048331251
-0.62377335
-0.042798566
-0.62093909
-0.037395969
-0.61866279
-0.032244109
-0.61684589
-0.02739228
-0.61540897
-0.022845047
-0.6142903
-0.018580407
-0.61344342
-0.01456165
-0.61283444
-0.010744588
-0.61243972
-0.007083661
-0.0035214688
-0.63172194
0.023153705
-0.63280394
0.023375172
-0.63392413
0.0238353
-0.63510711
0.024556963
-0.63637834
0.025536977
-0.63776645
0.026776432
-0.63930457
0.028274475
-0.64103143
0.030026617
-0.64299243
0.032021118
-0.64524032
0.03423404
-0.64783458
0.036620569
-0.65083753
0.039102795
-0.65430781
0.041559619
-0.65829299
0.043816836
-0.66280944
0.045612886
-0.66778825
0.046543547
-0.6730055
0.046083214
-0.67807582
0.043790805
-0.68256861
0.039608907
-0.68619118
0.033986374
-0.68889544
0.027661038
-0.6908337
0.021277921
-0.69223448
0.015160596
-0.69329962
0.009314147
-0.6941501
0.0035222339
-0.69479522
-0.0025682146
-0.69511573
-0.0093642536
-0.694858
-0.017258563
-0.69362098
-0.026581624
-0.69083543
-0.03749209
-0.68588942
-0.049543881
-0.67858147
-0.061108192
-0.66956482
-0.069741556
-0.66004389
-0.073899734
-0.65100213
-0.07385533
-0.64302595
-0.070631078
-0.6363178
-0.065435325
-0.63084621
-0.059237801
-0.62646456
-0.052712907
-0.62299113
-0.046271996
-0.62025146
-0.040135632
-0.6180963
-0.034399272
-0.61640591
-0.029082675
-0.61508806
-0.02416289
-0.61407376
-0.019594707
-0.61331263
-0.015322788
-0.61276882
-0.01128839
-0.61241783
-0.0074346536
-0.0036943505
-0.6333788
0.024095577
-0.63434371
0.024340081
-0.6353493
0.024840891
-0.63641801
0.025625679
-0.63757492
0.026693881
-0.63884928
0.028050795
-0.64027607
0.029701264
-0.64189753
0.031648082
-0.64376487
0.033888451
-0.64594012
0.036409288
-0.64849719
0.039177644
-0.65151873
0.042124338
-0.65508918
0.045130065
-0.65929013
0.048017791
-0.66418347
0.050506218
-0.66973593
0.052096009
-0.67569337
0.05204066
-0.68153775
0.049635177
-0.68665115
0.044722309
-0.69061575
0.037950972
-0.69339832
0.030443608
-0.69526911
0.023148721
-0.6965897
0.016481182
-0.69765898
0.010383427
-0.69865692
0.0045201726
-0.69961787
-0.0016072608
-0.70040986
-0.0085722662
-0.70072758
-0.016940838
-0.70007046
-0.027238742
-0.6976578
-0.039904753
-0.69249822
-0.054703459
-0.68407228
-0.069534138
-0.67325738
-0.08055645
-0.66193874
-0.085218381
-0.6514741
-0.084319969
-0.64256954
-0.07953564
-0.63535989
-0.072644969
-0.62969518
-0.064902512
-0.6253155
-0.057092589
-0.62195277
-0.049634722
-0.61937419
-0.042714215
-0.6173943
-0.036379164
-0.61587251
-0.030604463
-0.61470548
-0.025329923
-0.61381883
-0.020481355
-0.61316002
-0.015981597
-0.61269267
-0.011755738
-0.61239241
-0.007734918
-0.0038419565
-0.63500888
0.024919608
-0.63585084
0.025182038
-0.63673212
0.025722176
-0.63767565
0.026569207
-0.63870597
0.027724201
-0.63985249
0.029197309
-0.64115149
0.03100027
-0.64264832
0.033144914
-0.64439976
0.035639891
-0.64647739
0.038486912
-0.64897121
0.04167147
-0.65198856
0.045141686
-0.65564614
0.048787646
-0.6600697
0.052441353
-0.6653905
0.055827015
-0.67164901
0.058354513
-0.67857513
0.058966785
-0.68546457
0.056524613
-0.69140307
0.050660815
-0.69576309
0.042310986
-0.69853612
0.033216644
-0.70018567
0.024798265
-0.70127658
0.017572095
-0.70223912
0.011345965
-0.70333044
0.0056115011
-0.70462757
-0.00031013469
-0.70600057
-0.0071992667
-0.70709712
-0.015844292
-0.70731135
-0.027024508
-0.70561313
-0.04160297
-0.70043972
-0.059876874
-0.6906352
-0.079338658
-0.67732121
-0.093870442
-0.66361284
-0.098926742
-0.65138655
-0.096546266
-0.64145605
-0.089466139
-0.63378758
-0.080313436
-0.62803265
-0.070657445
-0.6237695
-0.061355731
-0.6206206
-0.052783625
-0.61828698
-0.045047834
-0.61654682
-0.03811933
-0.61524145
-0.031909828
-0.61425987
-0.026311507
-0.61352547
-0.021215753
-0.61298604
-0.016521024
-0.61260651
-0.012135269
-0.61236394
-0.0079774932
-0.0039609429
-0.63673272
0.025595817
-0.63743768
0.025887
-0.63818396
0.026468453
-0.63899057
0.027375817
-0.63987988
0.028613507
-0.64088023
0.030197665
-0.64202804
0.032148078
-0.64337036
0.034487232
-0.644968
0.037237536
-0.6469003
0.040419212
-0.64927242
0.044043584
-0.65221848
0.048087749
-0.65589219
0.052461361
-0.66047026
0.057019416
-0.66618104
0.061537797
-0.67320368
0.065377156
-0.68129637
0.067059469
-0.68950709
0.064735332
-0.69646471
0.057618442
-0.7011996
0.047045875
-0.7037607
0.035777745
-0.70494389
0.025981459
-0.70563092
0.018259124
-0.70641484
0.012129879
-0.70763323
0.0068298914
-0.7094042
0.001460835
-0.71160497
-0.0049984888
-0.7138247
-0.013624563
-0.71534472
-0.02550449
-0.71489893
-0.042048755
-0.71013965
-0.064636155
-0.69869057
-0.090787745
-0.68176864
-0.11079237
-0.66482876
-0.11586662
-0.65042816
-0.11094687
-0.63942082
-0.10047348
-0.63141528
-0.088318979
-0.62574372
-0.076329004
-0.62176227
-0.065337182
-0.6189621
-0.055583791
-0.61697545
-0.047034481
-0.61554886
-0.039545927
-0.61451203
-0.032946658
-0.61375208
-0.027071455
-0.61319472
-0.021773107
-0.61279137
-0.016924375
-0.61251053
-0.012416115
-0.61233219
-0.0081558274
-0.004048185
-0.63816949
0.026117065
-0.63872228
0.026439793
-0.63931552
0.027061691
-0.63996524
0.028025532
-0.64069082
0.02933909
-0.6415186
0.031025441
-0.64248389
0.033113376
-0.64363412
0.035637455
-0.6450326
0.038636024
-0.64676461
0.042151218
-0.64894916
0.046228138
-0.65175088
0.050889461
-0.65537025
0.056080737
-0.66004434
0.061693497
-0.66613364
0.067627098
-0.67406933
0.073312845
-0.68374096
0.076731102
-0.69386931
0.074863678
-0.70235388
0.066103019
-0.70760971
0.052301702
-0.70976864
0.037936672
-0.71017992
0.026392737
-0.71022005
0.018299261
-0.71065728
0.012567105
-0.71189351
0.0080661197
-0.71409067
0.0036580016
-0.71717265
-0.0019165088
-0.72072428
-0.01007293
-0.72396552
-0.022263252
-0.72551637
-0.040497905
-0.72203479
-0.068117738
-0.70885821
-0.10396432
-0.68655356
-0.13309702
-0.66519294
-0.13722724
-0.64814028
-0.12799953
-0.63611407
-0.11249968
-0.62802534
-0.096407705
-0.62271124
-0.081643105
-0.61923961
-0.06880881
-0.61695767
-0.057865736
-0.61543675
-0.048555398
-0.61440437
-0.040578306
-0.61368995
-0.03366108
-0.61318731
-0.027574092
-0.61283047
-0.022129948
-0.61257846
-0.017176381
-0.61240597
-0.012588605
-0.6122976
-0.0082642042
-0.0041009814
-0.63914851
0.026447513
-0.63953223
0.02682352
-0.63995708
0.027486539
-0.64043208
0.028500526
-0.64097176
0.029878774
-0.64159896
0.031652641
-0.64234603
0.033860441
-0.64325817
0.036549604
-0.64439812
0.039775967
-0.6458526
0.043605696
-0.64774802
0.04812356
-0.65027625
0.053417695
-0.65369059
0.059495078
-0.65828465
0.066287556
-0.66455739
0.073899833
-0.67334786
0.082103315
-0.68488022
0.08826347
-0.69745513
0.087438589
-0.70785262
0.076500508
-0.71340765
0.057856727
-0.71444329
0.038972313
-0.71329478
0.025244228
-0.71216899
0.017173477
-0.71197279
0.0123709
-0.71312437
0.0092177064
-0.71585028
0.0063839114
-0.72015716
0.0023903707
-0.72574673
-0.0044833652
-0.73169395
-0.016316032
-0.73663676
-0.03555509
-0.73617689
-0.068577608
-0.72191869
-0.11822252
-0.691403
-0.16361271
-0.66397682
-0.16465342
-0.6438223
-0.14815405
-0.6310757
-0.12524628
-0.6233756
-0.1041078
-0.61883082
-0.086187894
-0.61617035
-0.071469273
-0.61460925
-0.059426836
-0.61368468
-0.049479967
-0.61312904
-0.041133948
-0.61278876
-0.034001364
-0.61257581
-0.027787042
-0.61243973
-0.022266022
-0.61235168
-0.017264438
-0.61229523
-0.012645047
-0.61226124
-0.0082982012
-0.004117269
-0.63820709
0.026534271
-0.63836716
0.026983582
-0.63856204
0.027681428
-0.63879342
0.028731901
-0.63906962
0.030154973
-0.63940828
0.031991302
-0.63983619
0.034288351
-0.64039264
0.037106054
-0.64113487
0.040518201
-0.64214448
0.044615306
-0.64354357
0.049522646
-0.64553876
0.055412883
-0.64844303
0.062399355
-0.65260816
0.070452681
-0.65864183
0.079933501
-0.66804001
0.0915015
-0.68186172
0.10208518
-0.69790603
0.1034829
-0.71129459
0.089889073
-0.71727727
0.063839408
-0.71649441
0.038189454
-0.71295671
0.021706527
-0.71032662
0.014543389
-0.70945098
0.011495258
-0.7105891
0.010355825
-0.71404584
0.0098406582
-0.71981557
0.008160095
-0.72798588
0.0036869421
-0.73699872
-0.00730319
-0.74614719
-0.02640662
-0.75084566
-0.063879138
-0.73818228
-0.1308859
-0.6949484
-0.20684659
-0.65960827
-0.19999355
-0.63641112
-0.17135121
-0.62373272
-0.13792468
-0.61722791
-0.11061261
-0.61403799
-0.089377817
-0.61256421
-0.072943053
-0.61194999
-0.060041053
-0.61175394
-0.049676012
-0.61175151
-0.041136384
-0.61182955
-0.033923322
-0.61193188
-0.027684707
-0.61203144
-0.022166467
-0.61211594
-0.017179938
-0.61218046
-0.012580528
-0.61222352
-0.0082551442
-0.0040958341
-0.63293557
0.026274338
-0.63279314
0.026841159
-0.63267148
0.027559762
-0.63256287
0.028623297
-0.63246766
0.030059754
-0.63239579
0.031919441
-0.63236433
0.03425689
-0.63240028
0.037142006
-0.63254684
0.040664757
-0.63286973
0.044938191
-0.6334682
0.050121116
-0.63453277
0.056477456
-0.63643211
0.064298696
-0.63960081
0.073621382
-0.64462974
0.084962427
-0.6538883
0.10076006
-0.67032072
0.1185176
-0.69082999
0.12399216
-0.70826774
0.10732683
-0.71378916
0.069360831
-0.70898261
0.033382906
-0.70079436
0.013518276
-0.69562552
0.0093745478
-0.69351789
0.0093876277
-0.69403873
0.010876663
-0.69781784
0.013619769
-0.70438743
0.014729694
-0.71552551
0.014825017
-0.72769001
0.0048613068
-0.74340672
-0.010689903
-0.7578522
-0.049433662
-0.7562396
-0.1324985
-0.69278745
-0.27029873
-0.64962851
-0.24315249
-0.62458891
-0.19639081
-0.61346894
-0.14904465
-0.60941146
-0.11467008
-0.60835521
-0.090434067
-0.60849895
-0.072799313
-0.60905774
-0.059482262
-0.60970637
-0.049027382
-0.6103163
-0.04052645
-0.61084259
-0.033397031
-0.61127514
-0.027252161
-0.61161756
-0.021824051
-0.61187794
-0.016919557
-0.61206482
-0.012393647
-0.61218546
-0.008134504
-0.0040364919
-0.61535588
0.025433095
-0.6146301
0.02611538
-0.61387298
0.026802638
-0.61307371
0.027824022
-0.61222186
0.029207903
-0.61131338
0.031010969
-0.61034606
0.033289562
-0.60932158
0.036117533
-0.60825151
0.039594689
-0.6071642
0.043850881
-0.60610464
0.049061554
-0.60517875
0.055551568
-0.60473836
0.063858307
-0.60534304
0.074226059
-0.60729907
0.086918452
-0.61352308
0.10698407
-0.63153365
0.13652818
-0.65606779
0.14852629
-0.67845185
0.12971089
-0.68143436
0.072343343
-0.66896243
0.020910982
-0.6528491
-0.0025950572
-0.64480178
0.0013272249
-0.64152281
0.0061086606
-0.64122736
0.010581219
-0.64592623
0.018318641
-0.65341506
0.022218523
-0.66994476
0.031354712
-0.68807156
0.022988116
-0.71933675
0.020575289
-0.74436663
-0.024403787
-0.76990649
-0.10695863
-0.67533221
-0.36487302
-0.62965536
-0.28882934
-0.60548075
-0.22056541
-0.59938695
-0.15513845
-0.59987031
-0.11418673
-0.60195214
-0.088352237
-0.60415065
-0.070600799
-0.60606588
-0.057567034
-0.60763334
-0.047459919
-0.60888345
-0.039276341
-0.60986635
-0.032414133
-0.61062958
-0.026488925
-0.6112125
-0.021241137
-0.61164576
-0.01648629
-0.61195235
-0.012087062
-0.61214867
-0.0079381819
-0.0039402132
-0.57099863
0.023565893
-0.56912068
0.024237426
-0.5670966
0.024778562
-0.5649225
0.025649921
-0.56257138
0.026856786
-0.56001192
0.028451508
-0.55720329
0.030480927
-0.55409549
0.033009733
-0.55063041
0.036129617
-0.54674606
0.039966525
-0.54236175
0.044677248
-0.53735468
0.050544496
-0.53177977
0.0582834
-0.52622547
0.068671757
-0.52051381
0.081206791
-0.51577394
0.1022442
-0.53216486
0.1529191
-0.5575985
0.17395993
-0.58624455
0.15835693
-0.57853167
0.06463047
-0.54993644
-0.0076842469
-0.52867092
-0.02386058
-0.52644191
-0.00090178248
-0.52278711
0.0024538656
-0.52175958
0.0095536856
-0.53426888
0.017134288
-0.55323373
0.019794075
-0.57177277
0.02922812
-0.57949361
0.017735607
-0.61944876
0.036482664
-0.70574208
0.018172549
-0.66537959
-0.055041035
-0.60599705
-0.22888863
-0.5728102
-0.32201619
-0.57079838
-0.22257724
-0.58059597
-0.14534086
-0.58903005
-0.10575266
-0.5952898
-0.082092483
-0.59983281
-0.066057788
-0.60316767
-0.054232177
-0.60565159
-0.044975997
-0.60752344
-0.03740449
-0.60894332
-0.03099425
-0.61002049
-0.025411764
-0.6108307
-0.020430923
-0.61142698
-0.015890009
-0.6118463
-0.01166774
-0.61211386
-0.0076706212
-0.0038091698
-0.4876882
0.02009961
-0.48377806
0.02032728
-0.47950427
0.020504774
-0.47487259
0.021018247
-0.46981931
0.021803499
-0.46425089
0.022883086
-0.45804131
0.024271349
-0.45102753
0.025995952
-0.4429957
0.028097785
-0.43366584
0.030636666
-0.42265291
0.033664323
-0.40931962
0.037211208
-0.39272425
0.041688024
-0.37236063
0.048308145
-0.34736671
0.056212869
-0.3090063
0.063883795
-0.3125678
0.1564806
-0.3165002
0.17789233
-0.31656132
0.15841805
-0.218597
-0.033333843
-0.15604451
-0.07023674
-0.1376342
-0.042270889
-0.066977085
-0.0051992739
0.041214765
-0.0077566407
0.038481487