/*--------------------------------*- C++ -*----------------------------------*\
| =========                 |                                                 |
| \\      /  F ield         | foam-extend: Open Source CFD                    |
|  \\    /   O peration     | Version:     4.1                                |
|   \\  /    A nd           | Web:         http://www.foam-extend.org         |
|    \\/     M anipulation  |                                                 |
\*---------------------------------------------------------------------------*/
FoamFile
{
    version     2.0;
    format      ascii;
    class       volVectorField;
    location    "0.1";
    object      U;
}
// * * * * * * * * * * * * * * * * * * * * * * * * * * * * * * * * * * * * * //

dimensions      [0 1 -1 0 0 0 0];

internalField   nonuniform List<vector> 
4393
(
(147.82116 -0.18469149 0)
(148.48009 -0.19079179 0)
(148.97435 -0.19351681 0)
(149.4981 -0.196808 0)
(150.03009 -0.200744 0)
(150.57529 -0.20536935 0)
(151.13535 -0.2105582 0)
(151.71175 -0.2161079 0)
(152.30525 -0.22174765 0)
(152.91569 -0.22714142 0)
(153.54182 -0.23189009 0)
(154.18111 -0.23553811 0)
(154.82955 -0.23758782 0)
(155.48162 -0.23752411 0)
(156.13022 -0.23485058 0)
(156.76682 -0.22913566 0)
(157.38172 -0.2200613 0)
(157.96447 -0.20746208 0)
(158.50439 -0.19134148 0)
(158.99109 -0.17185812 0)
(159.41485 -0.14928571 0)
(159.76694 -0.12396024 0)
(160.0397 -0.096232341 0)
(160.22652 -0.066440093 0)
(160.32183 -0.034901219 0)
(160.32123 -0.0019267934 0)
(160.2211 0.03203236 0)
(160.01948 0.066215667 0)
(159.71695 0.099701323 0)
(159.31689 0.13144357 0)
(158.82606 0.16026998 0)
(158.25486 0.18499412 0)
(157.61715 0.20457331 0)
(156.92954 0.21826046 0)
(156.21036 0.2257034 0)
(155.47834 0.22696803 0)
(154.75145 0.22248993 0)
(154.04593 0.21297811 0)
(153.37564 0.1993002 0)
(152.75175 0.18237451 0)
(152.18279 0.16308428 0)
(151.6748 0.1422199 0)
(151.23173 0.12044816 0)
(150.8558 0.0983153 0)
(150.54792 0.076298883 0)
(150.30811 0.054831998 0)
(150.13549 0.03404334 0)
(150.02631 0.013822064 0)
(149.97505 -0.0021420232 0)
(151.21882 -0.47904071 0)
(151.79834 -0.48938187 0)
(152.22485 -0.49670768 0)
(152.6777 -0.50621793 0)
(153.13868 -0.51794657 0)
(153.61283 -0.5318175 0)
(154.10195 -0.54742149 0)
(154.60766 -0.56414583 0)
(155.13078 -0.58118388 0)
(155.67126 -0.59753591 0)
(156.22794 -0.61201236 0)
(156.79836 -0.62325161 0)
(157.37858 -0.62976086 0)
(157.96307 -0.62998819 0)
(158.5447 -0.62243058 0)
(159.11482 -0.6057737 0)
(159.66355 -0.57904235 0)
(160.18024 -0.54172383 0)
(160.65398 -0.4938223 0)
(161.07417 -0.4358205 0)
(161.43099 -0.3685598 0)
(161.71563 -0.29308013 0)
(161.92039 -0.21047648 0)
(162.03868 -0.12182337 0)
(162.06493 -0.028179864 0)
(161.99466 0.069343005 0)
(161.8249 0.16936221 0)
(161.55426 0.26997696 0)
(161.18295 0.36870518 0)
(160.71401 0.46250704 0)
(160.15385 0.54790778 0)
(159.51268 0.62135104 0)
(158.80433 0.67968161 0)
(158.04555 0.72061101 0)
(157.25488 0.74302323 0)
(156.4513 0.74704903 0)
(155.65295 0.73392319 0)
(154.87617 0.70569712 0)
(154.13483 0.66489621 0)
(153.44007 0.61419691 0)
(152.80031 0.55616942 0)
(152.22148 0.49310199 0)
(151.70744 0.42690409 0)
(151.26037 0.35910021 0)
(150.88123 0.29093277 0)
(150.56992 0.22338792 0)
(150.32532 0.15667881 0)
(150.1462 0.090620089 0)
(150.03646 0.031656498 0)
(151.49248 -0.76925623 0)
(152.05527 -0.77756786 0)
(152.46943 -0.78847179 0)
(152.90912 -0.80377228 0)
(153.35711 -0.82320414 0)
(153.81857 -0.84636288 0)
(154.29549 -0.87250838 0)
(154.78961 -0.90060319 0)
(155.30195 -0.92930066 0)
(155.83263 -0.95693289 0)
(156.38066 -0.98150988 0)
(156.94378 -1.0007447 0)
(157.51818 -1.0121184 0)
(158.09843 -1.0129985 0)
(158.67739 -1.0008216 0)
(159.24627 -0.97333433 0)
(159.79496 -0.92885996 0)
(160.31248 -0.86652059 0)
(160.78758 -0.78633796 0)
(161.2094 -0.68916627 0)
(161.56792 -0.57647541 0)
(161.85428 -0.45006154 0)
(162.06083 -0.31178859 0)
(162.18096 -0.1634572 0)
(162.20909 -0.0068435761 0)
(162.14059 0.15613925 0)
(161.97164 0.32326038 0)
(161.69991 0.49156582 0)
(161.32506 0.65706056 0)
(160.84963 0.81464044 0)
(160.27979 0.95837472 0)
(159.62589 1.0821353 0)
(158.90233 1.1804633 0)
(158.12679 1.249406 0)
(157.3189 1.2870608 0)
(156.4987 1.2936966 0)
(155.68522 1.2714865 0)
(154.89536 1.2239897 0)
(154.14329 1.1555465 0)
(153.44015 1.0707179 0)
(152.79419 0.97384676 0)
(152.21105 0.86876395 0)
(151.69423 0.75863352 0)
(151.2456 0.64593347 0)
(150.86582 0.53255367 0)
(150.55437 0.41980116 0)
(150.30965 0.30806381 0)
(150.13228 0.19760397 0)
(150.03041 0.092512271 0)
(151.59498 -1.0530774 0)
(152.14975 -1.0616062 0)
(152.55934 -1.0762341 0)
(152.99436 -1.0975864 0)
(153.43807 -1.1251049 0)
(153.89579 -1.1580819 0)
(154.36974 -1.1954517 0)
(154.86189 -1.2357671 0)
(155.37351 -1.277158 0)
(155.90499 -1.3173002 0)
(156.45561 -1.3534026 0)
(157.0233 -1.3822336 0)
(157.60444 -1.4002041 0)
(158.19362 -1.4035286 0)
(158.78354 -1.3884845 0)
(159.36507 -1.3517683 0)
(159.92754 -1.2909021 0)
(160.45928 -1.2045852 0)
(160.94832 -1.0928598 0)
(161.38319 -0.95701115 0)
(161.75348 -0.79922554 0)
(162.05018 -0.62213088 0)
(162.2656 -0.42838521 0)
(162.39321 -0.22046207 0)
(162.42735 -0.0007050034 0)
(162.36317 0.22840429 0)
(162.19637 0.46385729 0)
(161.92391 0.70158782 0)
(161.5446 0.93600221 0)
(161.06014 1.159811 0)
(160.47629 1.3643747 0)
(159.80358 1.540644 0)
(159.0573 1.6805074 0)
(158.25659 1.7781071 0)
(157.42285 1.8306811 0)
(156.57778 1.8387283 0)
(155.74178 1.8055668 0)
(154.93265 1.7365204 0)
(154.16495 1.6379952 0)
(153.44984 1.5166471 0)
(152.79527 1.378748 0)
(152.20641 1.2297789 0)
(151.68622 1.0742329 0)
(151.23604 0.915598 0)
(150.85603 0.75645386 0)
(150.54514 0.5985134 0)
(150.30147 0.44262861 0)
(150.12635 0.28979643 0)
(150.02826 0.14210983 0)
(151.71653 -1.3319022 0)
(152.26354 -1.3416383 0)
(152.66808 -1.3601098 0)
(153.09815 -1.3876519 0)
(153.53743 -1.4234802 0)
(153.99144 -1.4666234 0)
(154.46265 -1.5157024 0)
(154.95334 -1.5688689 0)
(155.46513 -1.6237352 0)
(155.99873 -1.6773172 0)
(156.5538 -1.7260038 0)
(157.12859 -1.7655763 0)
(157.71967 -1.7913017 0)
(158.3217 -1.7981325 0)
(158.92721 -1.7810447 0)
(159.52659 -1.7355283 0)
(160.10837 -1.6581743 0)
(160.65989 -1.5472026 0)
(161.16816 -1.4027256 0)
(161.62085 -1.226609 0)
(162.00705 -1.0219586 0)
(162.31755 -0.79242607 0)
(162.54476 -0.54158743 0)
(162.6823 -0.27261323 0)
(162.72452 0.01166832 0)
(162.6664 0.30837766 0)
(162.50292 0.61404247 0)
(162.23003 0.92370595 0)
(161.84525 1.2302453 0)
(161.34905 1.5240426 0)
(160.74645 1.7933771 0)
(160.04816 2.0257416 0)
(159.27072 2.209833 0)
(158.43542 2.3375209 0)
(157.56616 2.4050834 0)
(156.68707 2.4134005 0)
(155.82043 2.3672505 0)
(154.98527 2.2740927 0)
(154.19665 2.1427379 0)
(153.46567 1.9821922 0)
(152.7998 1.8008089 0)
(152.20352 1.6057738 0)
(151.67901 1.4028807 0)
(151.22687 1.1965297 0)
(150.84659 0.98984752 0)
(150.53649 0.78481055 0)
(150.29447 0.58248944 0)
(150.12205 0.38400894 0)
(150.02693 0.19020977 0)
(151.86937 -1.6083582 0)
(152.40671 -1.6198835 0)
(152.80474 -1.6424948 0)
(153.2285 -1.6765996 0)
(153.66214 -1.7212537 0)
(154.1114 -1.7752796 0)
(154.57906 -1.8370239 0)
(155.06779 -1.9042707 0)
(155.57961 -1.9741402 0)
(156.11571 -2.0430002 0)
(156.67621 -2.1064072 0)
(157.25979 -2.1591078 0)
(157.86336 -2.195131 0)
(158.4817 -2.2080155 0)
(159.10715 -2.1912267 0)
(159.7295 -2.1388044 0)
(160.33624 -2.0461866 0)
(160.91332 -1.9109904 0)
(161.44636 -1.7334279 0)
(161.92185 -1.5161229 0)
(162.3282 -1.2633571 0)
(162.65604 -0.98004058 0)
(162.89801 -0.67079617 0)
(163.04806 -0.33947122 0)
(163.1007 0.010784226 0)
(163.05069 0.37694296 0)
(162.89218 0.75527924 0)
(162.61972 1.1401929 0)
(162.22901 1.5231386 0)
(161.71868 1.8919995 0)
(161.09258 2.2314557 0)
(160.36149 2.524758 0)
(159.54367 2.7566112 0)
(158.66336 2.9160805 0)
(157.74798 2.9983673 0)
(156.82499 3.0049988 0)
(155.9192 2.9427177 0)
(155.05116 2.8216955 0)
(154.23651 2.6536718 0)
(153.48613 2.4504054 0)
(152.80677 2.2225957 0)
(152.20193 1.9792743 0)
(151.67271 1.7275778 0)
(151.21868 1.47279 0)
(150.8384 1.2185201 0)
(150.52944 0.96692973 0)
(150.28928 0.71908517 0)
(150.11923 0.47573907 0)
(150.02616 0.23655682 0)
(152.05407 -1.8754696 0)
(152.58025 -1.8891189 0)
(152.97028 -1.916219 0)
(153.3862 -1.9573518 0)
(153.81277 -2.0114424 0)
(154.25598 -2.0771507 0)
(154.71899 -2.1525879 0)
(155.20493 -2.2352078 0)
(155.71633 -2.3216704 0)
(156.25498 -2.4077135 0)
(156.82158 -2.4880533 0)
(157.41541 -2.5563526 0)
(158.03385 -2.6052967 0)
(158.67193 -2.6268305 0)
(159.32181 -2.6126469 0)
(159.97257 -2.5550166 0)
(160.61034 -2.4479268 0)
(161.21926 -2.2882318 0)
(161.78297 -2.076313 0)
(162.28644 -1.8158485 0)
(162.71718 -1.5127133 0)
(163.06576 -1.1734591 0)
(163.32528 -0.80397601 0)
(163.49031 -0.40878252 0)
(163.55576 0.0088759238 0)
(163.51627 0.44621744 0)
(163.36492 0.8997813 0)
(163.09446 1.3637209 0)
(162.69805 1.8282826 0)
(162.17165 2.2786815 0)
(161.51719 2.6953059 0)
(160.74537 3.0560366 0)
(159.87666 3.3404033 0)
(158.93937 3.5338817 0)
(157.96577 3.6304355 0)
(156.98777 3.6326287 0)
(156.03349 3.5498735 0)
(155.12532 3.3958255 0)
(154.27945 3.1858168 0)
(153.50632 2.9348339 0)
(152.81161 2.6562019 0)
(152.19746 2.3609136 0)
(151.66354 2.05745 0)
(151.20812 1.7519138 0)
(150.8286 1.4483179 0)
(150.52164 1.1489441 0)
(150.28408 0.85476844 0)
(150.11671 0.56613315 0)
(150.02554 0.2818365 0)
(152.26994 -2.1422227 0)
(152.78223 -2.1580805 0)
(153.16261 -2.1897823 0)
(153.56903 -2.238183 0)
(153.98698 -2.3021309 0)
(154.42272 -2.3801822 0)
(154.87985 -2.470273 0)
(155.36202 -2.5695885 0)
(155.87238 -2.6743859 0)
(156.41343 -2.7798146 0)
(156.98667 -2.8797606 0)
(157.59212 -2.9667619 0)
(158.22784 -3.0320437 0)
(158.88926 -3.0657388 0)
(159.56849 -3.0574228 0)
(160.25377 -2.9971458 0)
(160.92952 -2.8769908 0)
(161.57741 -2.6927733 0)
(162.17849 -2.4450989 0)
(162.71558 -2.1390987 0)
(163.17513 -1.7828257 0)
(163.54775 -1.3850116 0)
(163.82741 -0.95311689 0)
(164.0098 -0.49231893 0)
(164.09058 -0.005641789 0)
(164.06441 0.50492396 0)
(163.92319 1.0367482 0)
(163.65734 1.5843269 0)
(163.25655 2.1370871 0)
(162.7129 2.6774561 0)
(162.0253 3.1806422 0)
(161.20398 3.6175634 0)
(160.27227 3.9608519 0)
(159.26408 4.1912806 0)
(158.21832 4.3014181 0)
(157.17283 4.2955087 0)
(156.15991 4.1866927 0)
(155.20413 3.9932058 0)
(154.32205 3.7348701 0)
(153.52328 3.4305078 0)
(152.81194 3.0963955 0)
(152.18831 2.7455915 0)
(151.65023 2.3878714 0)
(151.19433 2.0300187 0)
(150.8166 1.6762737 0)
(150.51262 1.328844 0)
(150.27844 0.98841176 0)
(150.11414 0.65481058 0)
(150.02494 0.32609712 0)
(152.51606 -2.392531 0)
(153.01305 -2.4108803 0)
(153.38217 -2.4477313 0)
(153.77734 -2.5041948 0)
(154.18493 -2.5790496 0)
(154.61154 -2.6707933 0)
(155.06125 -2.7772454 0)
(155.5383 -2.8953885 0)
(156.04659 -3.0211424 0)
(156.58948 -3.1491208 0)
(157.16943 -3.2723979 0)
(157.78747 -3.3823466 0)
(158.44258 -3.4686037 0)
(159.13088 -3.5192311 0)
(159.84458 -3.5212512 0)
(160.57105 -3.4618811 0)
(161.29258 -3.3306481 0)
(161.98758 -3.1219102 0)
(162.6335 -2.8365699 0)
(163.21028 -2.4818137 0)
(163.70304 -2.0687636 0)
(164.10268 -1.6091456 0)
(164.40466 -1.1124487 0)
(164.60648 -0.58450256 0)
(164.70515 -0.027675778 0)
(164.69555 0.55756868 0)
(164.56843 1.1703504 0)
(164.31116 1.8063926 0)
(163.90883 2.4549479 0)
(163.3479 3.0956669 0)
(162.6226 3.6974662 0)
(161.7419 4.2220357 0)
(160.73284 4.6325487 0)
(159.63707 4.9034448 0)
(158.50263 5.025747 0)
(157.37527 5.0063865 0)
(156.29253 4.8637648 0)
(155.28135 4.6221937 0)
(154.35837 4.3071388 0)
(153.53172 3.9419833 0)
(152.80328 3.5463044 0)
(152.17085 3.1353018 0)
(151.62997 2.7199551 0)
(151.17519 2.3075566 0)
(150.80087 1.9023771 0)
(150.50133 1.5063498 0)
(150.27168 1.119675 0)
(150.11118 0.74156059 0)
(150.02427 0.36928246 0)
(152.79239 -2.6474634 0)
(153.27028 -2.6683256 0)
(153.62611 -2.7103218 0)
(154.00803 -2.774931 0)
(154.40333 -2.8609325 0)
(154.81892 -2.9668384 0)
(155.25942 -3.0904388 0)
(155.72973 -3.2286146 0)
(156.2346 -3.3770579 0)
(156.77843 -3.5299487 0)
(157.36486 -3.6796216 0)
(157.99622 -3.8162933 0)
(158.67276 -3.9279207 0)
(159.39163 -4.0002426 0)
(160.14551 -4.0172246 0)
(160.92093 -3.9624531 0)
(161.69755 -3.8219654 0)
(162.44942 -3.5880013 0)
(163.14902 -3.2618068 0)
(163.77232 -2.853473 0)
(164.30272 -2.3784774 0)
(164.73189 -1.8526956 0)
(165.05766 -1.2882574 0)
(165.28046 -0.69159582 0)
(165.39949 -0.063799559 0)
(165.41033 0.59720919 0)
(165.30252 1.2934898 0)
(165.05969 2.0232631 0)
(164.66084 2.7766555 0)
(164.08446 3.5308416 0)
(163.31743 4.2471432 0)
(162.3661 4.8748185 0)
(161.26228 5.3637415 0)
(160.05852 5.6796271 0)
(158.81554 5.8119058 0)
(157.58959 5.7718236 0)
(156.42468 5.5853048 0)
(155.3502 5.2847914 0)
(154.38217 4.9028581 0)
(153.52631 4.4682779 0)
(152.78133 4.0042455 0)
(152.14179 3.5280787 0)
(151.60029 3.0517518 0)
(151.14896 2.5827821 0)
(150.78023 2.1251813 0)
(150.48699 1.6803458 0)
(150.26332 1.2477811 0)
(150.1076 0.8259333 0)
(150.02347 0.41120292 0)
(153.09615 -2.8729594 0)
(153.55413 -2.896353 0)
(153.89502 -2.9439255 0)
(154.26177 -3.0174782 0)
(154.6428 -3.1157989 0)
(155.04535 -3.2374797 0)
(155.47461 -3.3803753 0)
(155.93623 -3.5413811 0)
(156.43589 -3.7160915 0)
(156.97922 -3.8983833 0)
(157.5713 -4.07995 0)
(158.21608 -4.2498788 0)
(158.91551 -4.3943542 0)
(159.66835 -4.4965023 0)
(160.46824 -4.5365919 0)
(161.30115 -4.4934572 0)
(162.14357 -4.3482116 0)
(162.96374 -4.089852 0)
(163.7272 -3.7198941 0)
(164.40437 -3.25254 0)
(164.97646 -2.7095522 0)
(165.43658 -2.1126939 0)
(165.78641 -1.477661 0)
(166.0308 -0.81147203 0)
(166.17241 -0.11313214 0)
(166.20815 0.62332699 0)
(166.12643 1.4045526 0)
(165.90641 2.2330003 0)
(165.51918 3.1013019 0)
(164.93196 3.9850021 0)
(164.12029 4.8364375 0)
(163.0854 5.5879038 0)
(161.86521 6.1700871 0)
(160.52787 6.5363719 0)
(159.15196 6.6748137 0)
(157.80777 6.6036034 0)
(156.54713 6.3595301 0)
(155.40154 5.9859617 0)
(154.38526 5.524408 0)
(153.50022 5.0099339 0)
(152.7407 4.4695845 0)
(152.09705 3.9226301 0)
(151.55826 3.3816868 0)
(151.11359 2.8540942 0)
(150.75332 2.3432256 0)
(150.46875 1.8496155 0)
(150.25288 1.3718214 0)
(150.10318 0.90734955 0)
(150.02249 0.45158322 0)
(153.42941 -3.1150424 0)
(153.86211 -3.1415687 0)
(154.1855 -3.1951795 0)
(154.53455 -3.278127 0)
(154.89877 -3.3892858 0)
(155.2857 -3.5274101 0)
(155.70109 -3.690528 0)
(156.15136 -3.8756872 0)
(156.64329 -4.0785496 0)
(157.18386 -4.2928708 0)
(157.77991 -4.509871 0)
(158.43743 -4.7176124 0)
(159.16065 -4.9005021 0)
(159.95064 -5.0388521 0)
(160.8029 -5.1086015 0)
(161.70341 -5.0824731 0)
(162.625 -4.9346899 0)
(163.52813 -4.6493419 0)
(164.36842 -4.2280974 0)
(165.10836 -3.691158 0)
(165.72624 -3.0695677 0)
(166.21771 -2.3935652 0)
(166.59039 -1.6836339 0)
(166.85577 -0.94717209 0)
(167.02172 -0.17983133 0)
(167.08748 0.63019605 0)
(167.04056 1.4963908 0)
(166.85498 2.4278621 0)
(166.49182 3.42222 0)
(165.90269 4.4552002 0)
(165.04556 5.4690024 0)
(163.91212 6.3726219 0)
(162.54804 7.0683498 0)
(161.04425 7.4916536 0)
(159.505 7.6300836 0)
(158.0193 7.5130744 0)
(156.64814 7.1932486 0)
(155.42416 6.7286704 0)
(154.35795 6.1719819 0)
(153.44563 5.5654177 0)
(152.67541 4.939899 0)
(152.03225 4.3162351 0)
(151.5008 3.7071132 0)
(151.06702 3.1191292 0)
(150.71879 2.55453 0)
(150.44581 2.0126004 0)
(150.23993 1.4906631 0)
(150.09776 0.9850834 0)
(150.02129 0.49007114 0)
(153.78463 -3.3052787 0)
(154.19227 -3.3337633 0)
(154.49655 -3.3926862 0)
(154.82593 -3.4847015 0)
(155.17123 -3.6087983 0)
(155.54026 -3.7639971 0)
(155.93935 -3.9486523 0)
(156.37573 -4.1601657 0)
(156.85729 -4.3945193 0)
(157.3926 -4.6456447 0)
(157.99055 -4.9045961 0)
(158.65961 -5.1586602 0)
(159.40689 -5.3906006 0)
(160.23678 -5.577842 0)
(161.14793 -5.6913592 0)
(162.12745 -5.6959598 0)
(163.1442 -5.5559259 0)
(164.14815 -5.2474443 0)
(165.08073 -4.771517 0)
(165.89281 -4.1567024 0)
(166.55883 -3.4475305 0)
(167.07886 -2.6863051 0)
(167.46974 -1.8998471 0)
(167.75281 -1.095583 0)
(167.94353 -0.26425369 0)
(168.0448 0.61407672 0)
(168.04365 1.5624195 0)
(167.90832 2.5995168 0)
(167.58771 3.7314145 0)
(167.01213 4.9374576 0)
(166.11255 6.1495169 0)
(164.86317 7.2446115 0)
(163.31919 8.081917 0)
(161.60572 8.5699666 0)
(159.86454 8.6981729 0)
(158.20968 8.5142834 0)
(156.71228 8.0941794 0)
(155.40395 7.5156283 0)
(154.2885 6.8449221 0)
(153.35342 6.1321466 0)
(152.57874 5.4117494 0)
(151.94267 4.705293 0)
(151.42471 4.0246736 0)
(151.00714 3.3749764 0)
(150.67535 2.7567098 0)
(150.41738 2.1674524 0)
(150.22407 1.6029732 0)
(150.09116 1.0582786 0)
(150.01984 0.5262484 0)
(154.16978 -3.5337486 0)
(154.54531 -3.5666935 0)
(154.82736 -3.6332921 0)
(155.13396 -3.7367001 0)
(155.45709 -3.8760884 0)
(155.80472 -4.0508334 0)
(156.1837 -4.2597441 0)
(156.60202 -4.5007458 0)
(157.06878 -4.7703582 0)
(157.59426 -5.0629598 0)
(158.18971 -5.3697311 0)
(158.86666 -5.677414 0)
(159.63588 -5.9672414 0)
(160.50631 -6.2137187 0)
(161.48184 -6.382251 0)
(162.55287 -6.4274862 0)
(163.68464 -6.2993861 0)
(164.81312 -5.9615966 0)
(165.85907 -5.4132098 0)
(166.75593 -4.6953247 0)
(167.47277 -3.8734098 0)
(168.0169 -3.0081407 0)
(168.41909 -2.1353478 0)
(168.71483 -1.2619676 0)
(168.93022 -0.37147145 0)
(169.07355 0.56767945 0)
(169.13213 1.5921219 0)
(169.06824 2.7347319 0)
(168.8168 4.0151485 0)
(168.2801 5.4224021 0)
(167.34786 6.8803007 0)
(165.96266 8.2225618 0)
(164.19029 9.2412658 0)
(162.20871 9.8027094 0)
(160.21594 9.9039507 0)
(158.35915 9.6227297 0)
(156.71953 9.0693224 0)
(155.32342 8.3476685 0)
(154.16301 7.5403415 0)
(153.21327 6.7054426 0)
(152.44341 5.8799536 0)
(151.82336 5.0848645 0)
(151.32676 4.3300377 0)
(150.93195 3.6180468 0)
(150.62178 2.9469223 0)
(150.38281 2.312023 0)
(150.20496 1.7072256 0)
(150.08325 1.1259618 0)
(150.01811 0.55964006 0)
(154.56661 -3.677638 0)
(154.91095 -3.7110559 0)
(155.16917 -3.7815137 0)
(155.45095 -3.8926256 0)
(155.74966 -4.043783 0)
(156.0734 -4.2348376 0)
(156.42945 -4.4652421 0)
(156.82658 -4.7337166 0)
(157.27506 -5.0376958 0)
(157.787 -5.3725281 0)
(158.37637 -5.7301917 0)
(159.05828 -6.0976084 0)
(159.84796 -6.4551894 0)
(160.76032 -6.7752986 0)
(161.80723 -7.0181509 0)
(162.98603 -7.1263206 0)
(164.25955 -7.0296281 0)
(165.54497 -6.6717326 0)
(166.73219 -6.0466895 0)
(167.7279 -5.2132341 0)
(168.49345 -4.2678227 0)
(169.04848 -3.2970439 0)
(169.44553 -2.347114 0)
(169.74077 -1.421533 0)
(169.97533 -0.4923153 0)
(170.1654 0.48797524 0)
(170.29963 1.5738784 0)
(170.33437 2.8163584 0)
(170.18947 4.2538911 0)
(169.73164 5.8943077 0)
(168.78853 7.6607745 0)
(167.24556 9.3304593 0)
(165.17761 10.588814 0)
(162.84672 11.232204 0)
(160.53765 11.278871 0)
(158.44048 10.85586 0)
(156.6439 10.124582 0)
(155.16107 9.2231154 0)
(153.96532 8.2525629 0)
(153.01379 7.2781454 0)
(152.26181 6.3373675 0)
(151.66946 5.448571 0)
(151.20396 4.6178745 0)
(150.83966 3.8440836 0)
(150.55708 3.1218943 0)
(150.34154 2.4438938 0)
(150.18233 1.8017304 0)
(150.07393 1.1870649 0)
(150.01607 0.58972709 0)
(154.99602 -3.8894212 0)
(155.3014 -3.9295818 0)
(155.53252 -4.0103183 0)
(155.78614 -4.135761 0)
(156.05683 -4.3056042 0)
(156.3525 -4.5203301 0)
(156.68077 -4.7802521 0)
(157.05099 -5.085168 0)
(157.47447 -5.4337924 0)
(157.96515 -5.8229309 0)
(158.53989 -6.2459817 0)
(159.2179 -6.6906412 0)
(160.01966 -7.1368791 0)
(160.96755 -7.5553332 0)
(162.08536 -7.901231 0)
(163.38373 -8.1020667 0)
(164.82718 -8.0576127 0)
(166.3089 -7.6776062 0)
(167.67308 -6.9436427 0)
(168.78507 -5.9396975 0)
(169.59518 -4.8115484 0)
(170.14384 -3.6871403 0)
(170.51695 -2.6286227 0)
(170.79941 -1.6349178 0)
(171.0513 -0.66400654 0)
(171.29858 0.35077525 0)
(171.53167 1.4867497 0)
(171.70167 2.8202794 0)
(171.71504 4.4190516 0)
(171.39768 6.3261928 0)
(170.4864 8.4829219 0)
(168.76402 10.598132 0)
(166.30461 12.185047 0)
(163.50807 12.916176 0)
(160.79757 12.862492 0)
(158.41603 12.232208 0)
(156.4518 11.263037 0)
(154.89091 10.136104 0)
(153.67707 8.9718629 0)
(152.74292 7.8398194 0)
(152.02641 6.7744542 0)
(151.47652 5.788405 0)
(151.0538 4.8818018 0)
(150.72893 4.0481817 0)
(150.48058 3.2779687 0)
(150.29327 2.5604276 0)
(150.15606 1.8846774 0)
(150.06316 1.2404573 0)
(150.01372 0.61596286 0)
(155.41822 -3.9783207 0)
(155.68476 -4.0168414 0)
(155.88669 -4.0988267 0)
(156.10963 -4.2288736 0)
(156.34948 -4.4069637 0)
(156.6139 -4.6342424 0)
(156.91067 -4.9119626 0)
(157.24961 -5.2411495 0)
(157.643 -5.6220587 0)
(158.1065 -6.0534321 0)
(158.66015 -6.5309365 0)
(159.32799 -7.0441984 0)
(160.1366 -7.5739911 0)
(161.11732 -8.0912471 0)
(162.31077 -8.5497411 0)
(163.75113 -8.8627658 0)
(165.41284 -8.8903619 0)
(167.15837 -8.4903915 0)
(168.76165 -7.622355 0)
(170.02042 -6.408915 0)
(170.86673 -5.0746764 0)
(171.37565 -3.8089692 0)
(171.68553 -2.6891062 0)
(171.92206 -1.6965182 0)
(172.17014 -0.76233078 0)
(172.46965 0.21068429 0)
(172.81632 1.3341816 0)
(173.15968 2.7199599 0)
(173.39742 4.4693947 0)
(173.31284 6.67452 0)
(172.51311 9.3262411 0)
(170.59746 12.063415 0)
(167.60621 14.12065 0)
(164.17147 14.935199 0)
(160.94718 14.704618 0)
(158.23348 13.769855 0)
(156.1002 12.482422 0)
(154.48211 11.074414 0)
(153.27825 9.6830387 0)
(152.38858 8.3759753 0)
(151.73045 7.1789527 0)
(151.24099 6.0946538 0)
(150.87459 5.1144331 0)
(150.59906 4.2248791 0)
(150.39203 3.4112007 0)
(150.23794 2.658852 0)
(150.12616 1.9542003 0)
(150.05095 1.2849885 0)
(150.01106 0.63779475 0)
(155.86816 -4.1648 0)
(156.08899 -4.2133439 0)
(156.2592 -4.3087869 0)
(156.44879 -4.4564088 0)
(156.65467 -4.6566951 0)
(156.8839 -4.9118113 0)
(157.14415 -5.2244033 0)
(157.4454 -5.5973145 0)
(157.80048 -6.0331182 0)
(158.22632 -6.5335729 0)
(158.74582 -7.0982443 0)
(159.38807 -7.7208225 0)
(160.18593 -8.3848034 0)
(161.17977 -9.063603 0)
(162.43182 -9.7141735 0)
(164.01542 -10.237051 0)
(165.93217 -10.433875 0)
(168.00911 -10.070874 0)
(169.91475 -9.053281 0)
(171.33869 -7.5494872 0)
(172.18633 -5.9070219 0)
(172.59481 -4.4118983 0)
(172.78787 -3.1614351 0)
(172.94784 -2.1082054 0)
(173.18738 -1.1525595 0)
(173.56113 -0.16943209 0)
(174.06732 0.98165922 0)
(174.65446 2.440386 0)
(175.21571 4.3490333 0)
(175.50442 6.8783518 0)
(174.96045 10.146464 0)
(172.86477 13.765995 0)
(169.13363 16.532094 0)
(164.79654 17.401505 0)
(160.91215 16.866776 0)
(157.81999 15.482777 0)
(155.53468 13.77082 0)
(153.89927 12.016296 0)
(152.74821 10.363585 0)
(151.93989 8.8672447 0)
(151.36883 7.5356379 0)
(150.96094 6.3559446 0)
(150.66591 5.3075311 0)
(150.45025 4.3683295 0)
(150.29181 3.5175103 0)
(150.17589 2.7363784 0)
(150.09283 2.0084626 0)
(150.0374 1.3195432 0)
(150.00811 0.65469092 0)
(156.2497 -4.1937623 0)
(156.42114 -4.2396808 0)
(156.55562 -4.3336219 0)
(156.70724 -4.4817625 0)
(156.87399 -4.6849538 0)
(157.06207 -4.9462073 0)
(157.27881 -5.2693172 0)
(157.53405 -5.6586802 0)
(157.84077 -6.1189168 0)
(158.21662 -6.6545948 0)
(158.68699 -7.269392 0)
(159.28659 -7.9619555 0)
(160.05548 -8.7190392 0)
(161.0426 -9.5170689 0)
(162.33713 -10.323172 0)
(164.07692 -11.036302 0)
(166.32531 -11.385105 0)
(168.87409 -10.99613 0)
(171.22896 -9.6876632 0)
(172.89498 -7.7061227 0)
(173.72683 -5.6191836 0)
(173.96585 -3.8737084 0)
(173.97331 -2.5818734 0)
(174.00707 -1.6258039 0)
(174.20392 -0.8528189 0)
(174.63103 -0.097393763 0)
(175.2929 0.82656923 0)
(176.14579 2.1265666 0)
(177.10594 4.0320274 0)
(177.94312 6.82164 0)
(177.90406 10.827105 0)
(175.72307 15.722665 0)
(170.95694 19.639231 0)
(165.30558 20.482413 0)
(160.57829 19.425953 0)
(157.07451 17.374418 0)
(154.68802 15.099916 0)
(153.10388 12.926185 0)
(152.06779 10.981644 0)
(151.38893 9.2887161 0)
(150.93942 7.8263354 0)
(150.63679 6.5595154 0)
(150.42909 5.4523236 0)
(150.2839 4.4725792 0)
(150.18104 3.5928973 0)
(150.10787 2.7903579 0)
(150.05652 2.0457627 0)
(150.02268 1.3431066 0)
(150.00491 0.66617167 0)
(156.52471 -4.3388753 0)
(156.63859 -4.3999872 0)
(156.73398 -4.5100489 0)
(156.84364 -4.6775751 0)
(156.96644 -4.9043855 0)
(157.10735 -5.1950565 0)
(157.27291 -5.5552986 0)
(157.47236 -5.9920278 0)
(157.71813 -6.5131889 0)
(158.02746 -7.1278771 0)
(158.42683 -7.8466744 0)
(158.95616 -8.6782018 0)
(159.66264 -9.6187612 0)
(160.59909 -10.653854 0)
(161.87908 -11.777722 0)
(163.73581 -12.921688 0)
(166.35361 -13.730899 0)
(169.50011 -13.591525 0)
(172.43425 -12.128485 0)
(174.35351 -9.6392307 0)
(175.03062 -7.032438 0)
(174.90071 -5.004005 0)
(174.56174 -3.6734789 0)
(174.37272 -2.7815498 0)
(174.47772 -2.1028408 0)
(174.95375 -1.4306354 0)
(175.8248 -0.52708707 0)
(177.06388 0.86784551 0)
(178.62555 3.0457116 0)
(180.34512 6.2912287 0)
(181.28434 11.242298 0)
(179.32118 17.961677 0)
(173.14142 23.865926 0)
(165.53071 24.434543 0)
(159.76189 22.467869 0)
(155.85569 19.421325 0)
(153.47982 16.413374 0)
(152.05761 13.748959 0)
(151.22282 11.493966 0)
(150.73332 9.6097175 0)
(150.44463 8.0303841 0)
(150.27229 6.69181 0)
(150.16765 5.5400254 0)
(150.10279 4.5319644 0)
(150.06169 3.6337229 0)
(150.03514 2.8184717 0)
(150.01787 2.0646574 0)
(150.00706 1.3548371 0)
(150.00152 0.67184393 0)
(156.33947 -4.297902 0)
(156.37876 -4.360261 0)
(156.42142 -4.4668291 0)
(156.47314 -4.6305137 0)
(156.53418 -4.8537866 0)
(156.60778 -5.1422558 0)
(156.69924 -5.5026791 0)
(156.81643 -5.9434655 0)
(156.9703 -6.4747665 0)
(157.17608 -7.1088883 0)
(157.4587 -7.8620769 0)
(157.86159 -8.7534851 0)
(158.4392 -9.7907675 0)
(159.24046 -10.96478 0)
(160.38988 -12.299291 0)
(162.26038 -13.799526 0)
(165.28055 -15.016823 0)
(169.2479 -14.922733 0)
(173.05546 -12.839894 0)
(175.36427 -9.148304 0)
(175.77777 -5.4476784 0)
(175.06928 -2.8742696 0)
(174.24531 -1.5236593 0)
(173.79481 -0.80614831 0)
(173.81324 -0.39605261 0)
(174.3719 -0.078584774 0)
(175.51185 0.41990667 0)
(177.22798 1.3362005 0)
(179.44934 3.071447 0)
(182.20375 5.8598868 0)
(184.6486 11.186128 0)
(183.54765 20.133093 0)
(175.55012 29.666514 0)
(165.03738 29.397618 0)
(158.15671 26.011449 0)
(153.97167 21.53952 0)
(151.82196 17.609759 0)
(150.73003 14.403539 0)
(150.20987 11.844707 0)
(149.97975 9.7945905 0)
(149.89334 8.1258289 0)
(149.87539 6.7395195 0)
(149.88774 5.5626024 0)
(149.91128 4.5416296 0)
(149.93662 3.6370475 0)
(149.95942 2.8189454 0)
(149.97781 2.0640931 0)
(149.99091 1.3541429 0)
(149.99802 0.67143644 0)
(155.11167 -4.3698105 0)
(155.04785 -4.457669 0)
(155.01877 -4.580012 0)
(154.99011 -4.760249 0)
(154.96453 -5.002589 0)
(154.94289 -5.3148342 0)
(154.92846 -5.7059053 0)
(154.92653 -6.1871 0)
(154.94492 -6.7726382 0)
(154.99436 -7.4802792 0)
(155.09379 -8.3344898 0)
(155.28539 -9.3706855 0)
(155.63089 -10.620403 0)
(156.16602 -12.08736 0)
(156.98859 -13.830329 0)
(158.65081 -16.036155 0)
(162.03941 -18.29659 0)
(167.06781 -18.912168 0)
(172.06283 -16.757163 0)
(174.74884 -12.000185 0)
(174.43822 -7.3046053 0)
(172.56523 -4.4477755 0)
(170.87603 -3.5398631 0)
(169.99351 -3.3380069 0)
(169.78992 -3.440823 0)
(170.30306 -3.6913513 0)
(171.57351 -3.7211501 0)
(173.66887 -3.3994438 0)
(176.50982 -1.9097242 0)
(180.63101 1.0971185 0)
(185.82569 8.3958404 0)
(187.3668 21.008917 0)
(177.38058 37.303534 0)
(162.89949 35.542274 0)
(155.38337 30.070013 0)
(151.20701 23.589163 0)
(149.63598 18.530022 0)
(149.11237 14.778618 0)
(149.0446 11.966612 0)
(149.14822 9.8052587 0)
(149.30268 8.0916744 0)
(149.4589 6.6911614 0)
(149.59831 5.5137794 0)
(149.7153 4.498144 0)
(149.80957 3.6010004 0)
(149.88288 2.7907678 0)
(149.93746 2.0435344 0)
(149.97467 1.3407523 0)
(149.99451 0.66483213 0)
(150.91561 -4.2106963 0)
(150.66704 -4.3094471 0)
(150.49472 -4.4216968 0)
(150.30347 -4.5892405 0)
(150.10151 -4.8169166 0)
(149.88578 -5.1134028 0)
(149.65558 -5.487647 0)
(149.41088 -5.9510821 0)
(149.153 -6.5186395 0)
(148.88373 -7.2094219 0)
(148.60802 -8.0503151 0)
(148.35503 -9.0876178 0)
(148.18839 -10.381521 0)
(148.11838 -11.952384 0)
(148.12085 -13.866904 0)
(148.89079 -16.62963 0)
(152.17535 -20.237955 0)
(158.1951 -21.542359 0)
(164.55291 -18.662459 0)
(167.40766 -10.802887 0)
(165.51342 -3.3632241 0)
(161.51617 0.48471109 0)
(158.68889 0.84123709 0)
(157.34206 0.62678593 0)
(156.89963 0.2294679 0)
(157.39737 -0.23184401 0)
(158.83106 -0.5480912 0)
(161.54617 -0.47419691 0)
(165.62703 0.77757607 0)
(172.73642 5.599687 0)
(182.26093 12.895312 0)
(188.59039 24.526221 0)
(176.37551 49.966065 0)
(157.18116 45.84312 0)
(150.69778 34.788191 0)
(147.25094 25.243783 0)
(146.8461 18.905573 0)
(147.23304 14.724055 0)
(147.772 11.785292 0)
(148.27635 9.6063791 0)
(148.69939 7.9114522 0)
(149.04064 6.5391949 0)
(149.31085 5.3902229 0)
(149.52208 4.4001502 0)
(149.68493 3.5251352 0)
(149.80804 2.733888 0)
(149.89808 2.0030718 0)
(149.95884 1.3147719 0)
(149.99108 0.65209363 0)
(140.25076 -4.1059465 0)
(139.65584 -4.2312893 0)
(139.19699 -4.3457612 0)
(138.68157 -4.5150229 0)
(138.12925 -4.7430316 0)
(137.52974 -5.0394579 0)
(136.87454 -5.4137894 0)
(136.1527 -5.8788495 0)
(135.35173 -6.4525317 0)
(134.45466 -7.1591846 0)
(133.43597 -8.0327098 0)
(132.28268 -9.1343433 0)
(131.03249 -10.571839 0)
(129.63913 -12.428139 0)
(127.73152 -14.764359 0)
(125.86644 -18.509695 0)
(127.7017 -24.932015 0)
(134.18847 -27.412991 0)
(142.07592 -23.670469 0)
(143.99466 -11.64988 0)
(137.57636 -2.7724696 0)
(130.38759 0.36010154 0)
(129.74851 -1.3535308 0)
(128.33291 -2.854081 0)
(127.75179 -4.1179236 0)
(128.1227 -5.060199 8.2880845e-18)
(132.69377 -6.0295168 -6.4011997e-19)
(136.24234 -9.4385533 0)
(139.58452 -6.2718698 8.9706527e-18)
(138.79371 -13.267428 -6.9667975e-18)
(158.46761 -9.52114 4.2351402e-18)
(178.79124 5.6035696 -9.8241686e-18)
(167.63874 72.71696 5.430871e-18)
(141.84113 58.422911 0)
(140.47067 37.537899 0)
(141.48624 25.12395 0)
(143.45459 18.223297 0)
(145.20783 14.050672 0)
(146.4844 11.233645 0)
(147.42336 9.1750897 0)
(148.1196 7.5783294 0)
(148.64253 6.2825021 0)
(149.03866 5.1927231 0)
(149.33966 4.2489307 0)
(149.56744 3.4107064 0)
(149.73755 2.6493516 0)
(149.861 1.9434904 0)
(149.94394 1.2767197 0)
(149.98785 0.63347765 0)
(120.1692 -3.6109343 0)
(118.99328 -3.6908902 0)
(118.02633 -3.7505246 0)
(116.93339 -3.8648245 0)
(115.75275 -4.0311402 0)
(114.45823 -4.256808 0)
(113.02387 -4.5481957 0)
(111.4148 -4.9145658 0)