/*--------------------------------*- C++ -*----------------------------------*\
| =========                 |                                                 |
| \\      /  F ield         | foam-extend: Open Source CFD                    |
|  \\    /   O peration     | Version:     4.1                                |
|   \\  /    A nd           | Web:         http://www.foam-extend.org         |
|    \\/     M anipulation  |                                                 |
\*---------------------------------------------------------------------------*/
FoamFile
{
    version     2.0;
    format      ascii;
    class       volScalarField;
    location    "0";
    object      divFlux;
}
// * * * * * * * * * * * * * * * * * * * * * * * * * * * * * * * * * * * * * //

dimensions      [0 0 -1 0 0 0 0];

internalField   nonuniform List<scalar> 
16126
(
0
-6.4308784e-14
-1.5508999e-14
-4.1719009e-15
-1.2432612e-15
-4.3330501e-16
-2.0428816e-16
-1.4368592e-16
-1.3351542e-16
-1.3866741e-16
-1.4838095e-16
-1.5921997e-16
-1.699515e-16
-1.8004645e-16
-1.8920205e-16
-1.972454e-16
-2.0406526e-16
-2.0961916e-16
-2.138813e-16
-2.16868e-16
-2.185964e-16
-2.191075e-16
-2.1841539e-16
-2.1654654e-16
-2.1349987e-16
-2.092808e-16
-2.0384738e-16
-1.971607e-16
-1.891416e-16
-1.7971272e-16
-1.6873847e-16
-1.5608445e-16
-1.4157062e-16
-1.2502106e-16
-1.0619363e-16
-8.485615e-17
-6.0726471e-17
-3.3536124e-17
-2.9501999e-18
3.1344641e-17
6.9706652e-17
1.1246632e-16
1.6001441e-16
2.1270247e-16
2.7091333e-16
3.3498508e-16
4.0529831e-16
4.8217228e-16
5.6593591e-16
6.5684766e-16
7.5518394e-16
8.6112844e-16
9.748457e-16
1.096397e-15
1.2258281e-15
1.3630556e-15
1.5079418e-15
1.6602106e-15
1.8195341e-15
1.9854221e-15
2.1572963e-15
2.3344164e-15
2.5159633e-15
2.700941e-15
2.8882552e-15
3.0766546e-15
3.2648149e-15
3.4512623e-15
3.6344584e-15
3.812765e-15
3.9845283e-15
4.1480321e-15
4.3015837e-15
4.4435044e-15
4.5722067e-15
4.6861728e-15
4.7840308e-15
4.8645617e-15
4.9267512e-15
4.9697814e-15
4.9930798e-15
4.9963236e-15
4.9794523e-15
4.9426593e-15
4.8863966e-15
4.8113704e-15
4.7185083e-15
4.6089474e-15
4.484e-15
4.3451439e-15
4.1939567e-15
4.0321115e-15
3.8613215e-15
3.6833371e-15
3.4998712e-15
3.3126149e-15
3.1231789e-15
2.93311e-15
2.7438216e-15
2.5566363e-15
2.3727337e-15
2.1931854e-15
2.0189018e-15
1.8506896e-15
1.6892105e-15
1.5350269e-15
1.388563e-15
1.2501664e-15
1.1200787e-15
9.9847536e-16
8.8544548e-16
7.8104406e-16
6.8527437e-16
5.9811747e-16
5.195376e-16
4.4952231e-16
3.8810208e-16
3.3541404e-16
2.9189848e-16
2.5893146e-16
2.4131846e-16
2.5757039e-16
3.8910955e-16
0
0
-4.3112609e-14
-1.4334691e-14
-4.5648661e-15
-1.4941607e-15
-5.4855373e-16
-2.644361e-16
-1.8589159e-16
-1.7100016e-16
-1.7548522e-16
-1.8537472e-16
-1.960132e-16
-2.0557562e-16
-2.1314312e-16
-2.1814095e-16
-2.2019323e-16
-2.1905305e-16
-2.145826e-16
-2.0671419e-16
-1.9543854e-16
-1.8076547e-16
-1.627217e-16
-1.4132411e-16
-1.1658527e-16
-8.8484209e-17
-5.6978336e-17
-2.1982876e-17
1.6613843e-17
5.8977885e-17
1.0531074e-16
1.5586924e-16
2.1094388e-16
2.7088686e-16
3.3608825e-16
4.0699354e-16
4.8407914e-16
5.6787724e-16
6.5894929e-16
7.5790134e-16
8.6535424e-16
9.8196783e-16
1.1084097e-15
1.2453693e-15
1.3935219e-15
1.5535529e-15
1.7261195e-15
1.9118657e-15
2.1113777e-15
2.3252078e-15
2.5538305e-15
2.7976546e-15
3.056974e-15
3.331988e-15
3.6227537e-15
3.929197e-15
4.2510595e-15
4.5879165e-15
4.939132e-15
5.303869e-15
5.6810412e-15
6.0693334e-15
6.4671662e-15
6.8727155e-15
7.2838781e-15
7.6983051e-15
8.1133892e-15
8.5263025e-15
8.9339914e-15
9.3332302e-15
9.7206431e-15
1.0092767e-14
1.0446079e-14
1.0777074e-14
1.1082316e-14
1.1358516e-14
1.1602583e-14
1.1811703e-14
1.1983395e-14
1.2115579e-14
1.2206616e-14
1.2255355e-14
1.2261162e-14
1.222394e-14
1.2144134e-14
1.2022713e-14
1.186116e-14
1.166143e-14
1.1425912e-14
1.1157361e-14
1.0858852e-14
1.0533701e-14
1.018541e-14
9.8175824e-15
9.4338693e-15
9.0378965e-15
8.6332216e-15
8.2232646e-15
7.8112824e-15
7.400318e-15
6.9931921e-15
6.5924652e-15
6.2004427e-15
5.8191548e-15
5.4503773e-15
5.0956219e-15
4.756162e-15
4.4330343e-15
4.1270738e-15
3.8389234e-15
3.5690636e-15
3.3178272e-15
3.0854363e-15
2.8720245e-15
2.6776668e-15
2.5024133e-15
2.3463429e-15
2.2096432e-15
2.0927366e-15
1.996567e-15
1.9232902e-15
1.8782643e-15
1.8754524e-15
1.9456723e-15
0
0
-9.2351722e-15
-4.7203056e-15
-1.9910606e-15
-8.1382617e-16
-3.8578193e-16
-2.5199549e-16
-2.2147705e-16
-2.2454047e-16
-2.376886e-16
-2.5307892e-16
-2.6772344e-16
-2.800773e-16
-2.8910003e-16
-2.9402233e-16
-2.9429843e-16
-2.8957232e-16
-2.7964665e-16
-2.6442941e-16
-2.4390251e-16
-2.1808722e-16
-1.8702602e-16
-1.5074741e-16
-1.0925837e-16
-6.2530074e-17
-1.049798e-17
4.6963046e-17
1.1003495e-16
1.7896347e-16
2.5405069e-16
3.3567796e-16
4.2429584e-16
5.2042756e-16
6.2465513e-16
7.3764111e-16
8.6011374e-16
9.928639e-16
1.1367275e-15
1.2926045e-15
1.4614385e-15
1.6442088e-15
1.8419068e-15
2.0555534e-15
2.2861727e-15
2.534778e-15
2.8023425e-15
3.0898144e-15
3.3980826e-15
3.7279576e-15
4.080135e-15
4.4552074e-15
4.8536227e-15
5.275659e-15
5.7213836e-15
6.1906607e-15
6.6831066e-15
7.1980612e-15
7.7345476e-15
8.2912813e-15
8.866631e-15
9.4585959e-15
1.0064777e-14
1.0682403e-14
1.1308305e-14
1.1938925e-14
1.2570311e-14
1.3198174e-14
1.3817908e-14
1.4424626e-14
1.5013214e-14
1.557842e-14
1.6114921e-14
1.6617407e-14
1.7080667e-14
1.7499715e-14
1.7869874e-14
1.818688e-14
1.8446972e-14
1.8646997e-14
1.8784479e-14
1.8857677e-14
1.8865638e-14
1.880822e-14
1.8686109e-14
1.8500788e-14
1.8254519e-14
1.7950279e-14
1.7591702e-14
1.7182984e-14
1.6728802e-14
1.6234199e-14
1.5704493e-14
1.514516e-14
1.4561749e-14
1.395977e-14
1.3344614e-14
1.2721476e-14
1.2095302e-14
1.1470712e-14
1.0851977e-14
1.0242983e-14
9.6472324e-15
9.0678097e-15
8.5074005e-15
7.9683032e-15
7.4524553e-15
6.9614385e-15
6.4965164e-15
6.0586709e-15
5.6486393e-15
5.266937e-15
4.9139015e-15
4.5897378e-15
4.2945625e-15
4.0284469e-15
3.7914861e-15
3.5839027e-15
3.4061979e-15
3.2594236e-15
3.1456591e-15
3.0688415e-15
3.0355213e-15
3.0501167e-15
0
0
2.3057121e-14
5.6862389e-15
1.2705971e-15
1.9707456e-16
-9.5126728e-17
-1.9705984e-16
-2.4606145e-16
-2.7806404e-16
-3.039207e-16
-3.2672255e-16
-3.4666901e-16
-3.6291399e-16
-3.743985e-16
-3.8018431e-16
-3.795744e-16
-3.7211888e-16
-3.5758331e-16
-3.3587011e-16
-3.0697135e-16
-2.7092897e-16
-2.2781476e-16
-1.7767717e-16
-1.2052764e-16
-5.633004e-17
1.4994259e-17
9.3607334e-17
1.7975464e-16
2.7376511e-16
3.7603576e-16
4.8707183e-16
6.074793e-16
7.3795926e-16
8.7928251e-16
1.0323306e-15
1.1980816e-15
1.3775956e-15
1.5719823e-15
1.7824409e-15
2.0102384e-15
2.2566876e-15
2.5231065e-15
2.810856e-15
3.1213125e-15
3.4558363e-15
3.8157218e-15
4.2022342e-15
4.6165721e-15
5.0598275e-15
5.5329265e-15
6.0366616e-15
6.5716454e-15
7.1382622e-15
7.7366011e-15
8.366484e-15
9.0274143e-15
9.7185242e-15
1.0438508e-14
1.1185652e-14
1.195779e-14
1.2752257e-14
1.3565843e-14
1.4394835e-14
1.5235002e-14
1.6081583e-14
1.6929275e-14
1.777232e-14
1.8604539e-14
1.9419374e-14
2.0209942e-14
2.0969175e-14
2.1689911e-14
2.2365002e-14
2.2987422e-14
2.3550441e-14
2.4047756e-14
2.4473613e-14
2.4822933e-14
2.5091456e-14
2.5275838e-14
2.5373733e-14
2.5383852e-14
2.5306007e-14
2.5141125e-14
2.4891219e-14
2.4559348e-14
2.414954e-14
2.3666706e-14
2.3116519e-14
2.2505297e-14
2.1839853e-14
2.112736e-14
2.0375205e-14
1.9590871e-14
1.8781781e-14
1.7955191e-14
1.7118088e-14
1.627712e-14
1.5438498e-14
1.4607946e-14
1.3790674e-14
1.2991373e-14
1.2214173e-14
1.1462659e-14
1.0739894e-14
1.0048462e-14
9.3904687e-15
8.7675861e-15
8.181108e-15
7.6320067e-15
7.1209555e-15
6.6483835e-15
6.2145397e-15
5.8195531e-15
5.4634803e-15
5.1463826e-15
4.868437e-15
4.6300747e-15
4.4321831e-15
4.2763169e-15
4.1646996e-15
4.0990911e-15
4.0758716e-15
0
0
4.194531e-14
1.0334944e-14
3.0469453e-15
8.6079925e-16
1.1105309e-16
-1.6554687e-16
-2.7808506e-16
-3.3419624e-16
-3.7137299e-16
-4.0147681e-16
-4.2708066e-16
-4.4767347e-16
-4.6201375e-16
-4.689423e-16
-4.6761577e-16
-4.5751169e-16
-4.3837537e-16
-4.1012642e-16
-3.7279353e-16
-3.2645673e-16
-2.7121946e-16
-2.0715842e-16
-1.3430454e-16
-5.2622149e-17
3.7988307e-17
1.3772322e-16
2.468793e-16
3.6586371e-16
4.9517997e-16
6.3545716e-16
7.8744534e-16
9.5202037e-16
1.1301581e-15
1.3229614e-15
1.5316481e-15
1.7575462e-15
2.0020604e-15
2.2666939e-15
2.5530282e-15
2.8627108e-15
3.1974116e-15
3.5588396e-15
3.9487157e-15
4.3687507e-15
4.8205906e-15
5.3058291e-15
5.8259684e-15
6.3823891e-15
6.9762822e-15
7.6086552e-15
8.2802822e-15
8.9916627e-15
9.7429454e-15
1.0533927e-14
1.1363996e-14
1.2232085e-14
1.3136597e-14
1.4075403e-14
1.5045795e-14
1.6044447e-14
1.7067363e-14
1.8109893e-14
1.9166723e-14
2.0231875e-14
2.1298698e-14
2.2359946e-14
2.3407826e-14
2.4434067e-14
2.5429994e-14
2.6386673e-14
2.729504e-14
2.8146045e-14
2.8930797e-14
2.9640764e-14
3.0267943e-14
3.0805029e-14
3.1245578e-14
3.1584174e-14
3.1816565e-14
3.1939768e-14
3.1952144e-14
3.1853456e-14
3.164488e-14
3.1328978e-14
3.0909636e-14
3.0391979e-14
2.9782246e-14
2.9087645e-14
2.8316195e-14
2.7476542e-14
2.6577782e-14
2.5629279e-14
2.46405e-14
2.3620837e-14
2.2579462e-14
2.1525197e-14
2.046642e-14
1.9410952e-14
1.8366002e-14
1.7338115e-14
1.6333166e-14
1.5356328e-14
1.4412089e-14
1.3504268e-14
1.2636073e-14
1.1810116e-14
1.1028467e-14
1.0292716e-14
9.6040402e-15
8.9632465e-15
8.3708396e-15
7.8270892e-15
7.3321028e-15
6.8858862e-15
6.4884218e-15
6.139772e-15
5.8401921e-15
5.5902528e-15
5.3908685e-15
5.2429184e-15
5.1456726e-15
5.0935319e-15
0
8.8910551e-13
-1.102122e-14
4.1738198e-15
2.5559905e-15
8.8634777e-16
1.072165e-16
-2.0663107e-16
-3.3481532e-16
-3.9831968e-16
-4.4148714e-16
-4.7768622e-16
-5.0910606e-16
-5.3452936e-16
-5.5216418e-16
-5.6052655e-16
-5.586246e-16
-5.4589258e-16
-5.2208925e-16
-4.8718056e-16
-4.412575e-16
-3.8445739e-16
-3.1692846e-16
-2.3878436e-16
-1.5008491e-16
-5.080173e-17
5.9181661e-17
1.800941e-16
3.1227866e-16
4.562176e-16
6.1252021e-16
7.819409e-16
9.6537157e-16
1.1638625e-15
1.378597e-15
1.6109044e-15
1.8622426e-15
2.1342107e-15
2.4285137e-15
2.7469676e-15
3.0914717e-15
3.4640143e-15
3.866626e-15
4.3013761e-15
4.7703371e-15
5.2755793e-15
5.8191131e-15
6.402877e-15
7.0286878e-15
7.6982274e-15
8.4129691e-15
9.1741558e-15
9.9827376e-15
1.0839346e-14
1.174421e-14
1.2697123e-14
1.3697375e-14
1.4743717e-14
1.5834278e-14
1.6966533e-14
1.8137243e-14
1.9342431e-14
2.057732e-14
2.183633e-14
2.3113055e-14
2.4400287e-14
2.569001e-14
2.6973465e-14
2.8241208e-14
2.9483207e-14
3.0688943e-14
3.1847557e-14
3.2948011e-14
3.3979279e-14
3.4930526e-14
3.5791337e-14
3.6551927e-14
3.7203366e-14
3.7737771e-14
3.8148512e-14
3.8430377e-14
3.8579707e-14
3.8594493e-14
3.8474442e-14
3.8220992e-14
3.7837277e-14
3.7328058e-14
3.6699604e-14
3.5959555e-14
3.5116725e-14
3.4180913e-14
3.316268e-14
3.2073134e-14
3.0923692e-14
2.9725882e-14
2.8491129e-14
2.723059e-14
2.5954973e-14
2.4674425e-14
2.3398411e-14
2.2135649e-14
2.0894034e-14
1.9680632e-14
1.8501657e-14
1.7362492e-14
1.6267705e-14
1.5221108e-14
1.4225798e-14
1.3284224e-14
1.2398247e-14
1.1569223e-14
1.0798067e-14
1.0085332e-14
9.4312797e-15
8.8359669e-15
8.2993123e-15
7.8211771e-15
7.4014578e-15
7.0401705e-15
6.7375174e-15
6.4938374e-15
6.3091928e-15
6.1819482e-15
6.1062928e-15
0
0
1.0687892e-14
5.485394e-15
2.0884524e-15
5.1658974e-16
-1.028457e-16
-3.295752e-16
-4.1953847e-16
-4.7062866e-16
-5.1373881e-16
-5.5494934e-16
-5.926062e-16
-6.2353098e-16
-6.4498481e-16
-6.550803e-16
-6.5270081e-16
-6.3728695e-16
-6.0865829e-16
-5.6686751e-16
-5.1209633e-16
-4.4456054e-16
-3.6446789e-16
-2.7198223e-16
-1.6719993e-16
-5.0106464e-17
7.942713e-17
2.2165562e-16
3.7696614e-16
5.4591348e-16
7.2921193e-16
9.277377e-16
1.1425258e-15
1.3748018e-15
1.6259596e-15
1.8975546e-15
2.1912903e-15
2.5090412e-15
2.8528199e-15
3.2247583e-15
3.627083e-15
4.0621311e-15
4.532305e-15
5.0400414e-15
5.5877774e-15
6.1779558e-15
6.8129667e-15
7.4951045e-15
8.2265192e-15
9.0092116e-15
9.8449574e-15
1.0735252e-14
1.1681243e-14
1.2683718e-14
1.3743009e-14
1.4858927e-14
1.6030687e-14
1.7256882e-14
1.853539e-14
1.9863306e-14
2.1236877e-14
2.2651489e-14
2.4101594e-14
2.558068e-14
2.7081246e-14
2.8594841e-14
3.0112064e-14
3.1622608e-14
3.3115334e-14
3.4578399e-14
3.5999371e-14
3.7365393e-14
3.866337e-14
3.9880205e-14
4.1003025e-14
4.2019431e-14
4.291776e-14
4.3687358e-14
4.431882e-14
4.4804223e-14
4.5137333e-14
4.5313769e-14
4.5331127e-14
4.5189051e-14
4.4889254e-14
4.4435476e-14
4.3833401e-14
4.3090515e-14
4.2215938e-14
4.1220182e-14
4.0114927e-14
3.8912752e-14
3.7626875e-14
3.6270868e-14
3.485841e-14
3.340305e-14
3.1917998e-14
3.0415913e-14
2.8908762e-14
2.7407697e-14
2.5922969e-14
2.4463842e-14
2.3038579e-14
2.1654435e-14
2.0317678e-14
1.9033609e-14
1.7806625e-14
1.6640283e-14
1.5537383e-14
1.4500028e-14
1.3529724e-14
1.2627462e-14
1.1793811e-14
1.1028992e-14
1.0332975e-14
9.7055544e-15
9.146432e-15
8.6552913e-15
8.2318587e-15
7.8759253e-15
7.5872625e-15
7.3652872e-15
7.2081051e-15
7.1110624e-15
0
0
3.4428611e-14
5.9946483e-15
8.0997257e-16
-2.7621349e-16
-4.8713174e-16
-5.1293601e-16
-5.21106e-16
-5.4598376e-16
-5.8626343e-16
-6.3314662e-16
-6.7836922e-16
-7.1592287e-16
-7.4194007e-16
-7.5416551e-16
-7.5144476e-16
-7.3330876e-16
-6.9970436e-16
-6.5081693e-16
-5.8695186e-16
-5.0842778e-16
-4.1552993e-16
-3.0848261e-16
-1.8742723e-16
-5.2371413e-17
9.6818723e-17
2.6042114e-16
4.3886381e-16
6.3276975e-16
8.4295409e-16
1.0704162e-15
1.3163349e-15
1.5821108e-15
1.869348e-15
2.1798343e-15
2.5155242e-15
2.8785717e-15
3.271301e-15
3.6961707e-15
4.1557447e-15
4.6527175e-15
5.1898716e-15
5.7700265e-15
6.3959994e-15
7.0706185e-15
7.7966669e-15
8.5768166e-15
9.4135716e-15
1.0309271e-14
1.1266011e-14
1.2285567e-14
1.3369314e-14
1.4518217e-14
1.5732736e-14
1.7012732e-14
1.8357374e-14
1.9765122e-14
2.1233625e-14
2.2759628e-14
2.4338888e-14
2.5966164e-14
2.7635149e-14
2.9338403e-14
3.106733e-14
3.2812221e-14
3.456226e-14
3.6305559e-14
3.8029236e-14
3.971957e-14
4.1362143e-14
4.2942009e-14
4.4443916e-14
4.5852589e-14
4.7152997e-14
4.833064e-14
4.9371858e-14
5.0264158e-14
5.0996505e-14
5.1559593e-14
5.1946088e-14
5.2150835e-14
5.2170999e-14
5.2006152e-14
5.1658297e-14
5.1131823e-14
5.0433397e-14
4.9571806e-14
4.8557745e-14
4.740354e-14
4.6122868e-14
4.4730448e-14
4.3241732e-14
4.1672565e-14
4.003889e-14
3.8356477e-14
3.6640675e-14
3.4906172e-14
3.3166815e-14
3.1435486e-14
2.9724001e-14
2.8043013e-14
2.6401989e-14
2.480922e-14
2.3271849e-14
2.1795887e-14
2.0386292e-14
1.9047054e-14
1.7781287e-14
1.6591304e-14
1.5478723e-14
1.4444576e-14
1.348941e-14
1.261337e-14
1.1816304e-14
1.109785e-14
1.0457514e-14
9.8947466e-15
9.4089781e-15
8.9996258e-15
8.6660042e-15
8.407094e-15
8.2209785e-15
8.1041268e-15
0
8.8910551e-13
-1.4877128e-14
-3.8289684e-15
-2.2898222e-15
-1.4577242e-15
-9.5332415e-16
-7.0370608e-16
-6.1474704e-16
-6.1391215e-16
-6.551918e-16
-7.1134155e-16
-7.6670708e-16
-8.1250464e-16
-8.4398281e-16
-8.5874614e-16
-8.5576958e-16
-8.3479847e-16
-7.9599703e-16
-7.3973684e-16
-6.6647396e-16
-5.7665571e-16
-4.7067041e-16
-3.4881364e-16
-2.1127054e-16
-5.8080517e-17
1.1087842e-16
2.9590337e-16
4.974709e-16
7.1626616e-16
9.5319042e-16
1.2093662e-15
1.4861301e-15
1.785056e-15
2.1079467e-15
2.4568278e-15
2.8339257e-15
3.241677e-15
3.6827095e-15
4.1598196e-15
4.675936e-15
5.2341184e-15
5.8375251e-15
6.4893749e-15
7.192899e-15
7.9513251e-15
8.7678295e-15
9.6454845e-15
1.058719e-14
1.1595643e-14
1.267327e-14
1.3822154e-14
1.5043947e-14
1.6339818e-14
1.7710369e-14
1.9155544e-14
2.0674522e-14
2.2265658e-14
2.3926386e-14
2.5653129e-14
2.7441198e-14
2.9284748e-14
3.1176705e-14
3.3108713e-14
3.5071095e-14
3.7052867e-14
3.9041755e-14
4.1024252e-14
4.2985691e-14
4.4910402e-14
4.6781877e-14
4.8582982e-14
5.0296203e-14
5.1903957e-14
5.3388909e-14
5.4734319e-14
5.5924395e-14
5.6944672e-14
5.7782352e-14
5.8426636e-14
5.8869005e-14
5.910346e-14
5.9126697e-14
5.8938204e-14
5.8540294e-14
5.793805e-14
5.7139203e-14
5.6153934e-14
5.4994628e-14
5.3675556e-14
5.2212539e-14
5.0622581e-14
4.8923504e-14
4.7133566e-14
4.5271111e-14
4.3354244e-14
4.140055e-14
3.9426828e-14
3.7448884e-14
3.548138e-14
3.3537722e-14
3.162997e-14
2.9768815e-14
2.7963574e-14
2.6222236e-14
2.4551503e-14
2.295687e-14
2.1442723e-14
2.0012443e-14
1.8668512e-14
1.7412626e-14
1.6245814e-14
1.5168554e-14
1.4180877e-14
1.328247e-14
1.2472779e-14
1.1751087e-14
1.1116584e-14
1.0568407e-14
1.0105637e-14
9.7272261e-15
9.4318423e-15
9.21759e-15
9.0818296e-15
0
0
-5.3349128e-15
-9.4262205e-15
-5.0751901e-15
-2.4933511e-15
-1.3059822e-15
-8.2271514e-16
-6.6880183e-16
-6.6263348e-16
-7.169469e-16
-7.8924314e-16
-8.5857087e-16
-9.1463071e-16
-9.5253301e-16
-9.7018381e-16
-9.6694888e-16
-9.4294233e-16
-8.9864062e-16
-8.3466043e-16
-7.5164379e-16
-6.5018707e-16
-5.3079768e-16
-3.9385547e-16
-2.3959799e-16
-6.8101108e-17
1.2073784e-16
3.2722711e-16
5.5188695e-16
7.9546376e-16
1.058941e-15
1.3435602e-15
1.6508155e-15
1.9824588e-15
2.3404934e-15
2.7271839e-15
3.1450346e-15
3.5967759e-15
4.0853468e-15
4.6138879e-15
5.1857044e-15
5.8042388e-15
6.4730381e-15
7.1957325e-15
7.9759854e-15
8.8174473e-15
9.723708e-15
1.0698259e-14
1.1744422e-14
1.2865284e-14
1.4063628e-14
1.5341875e-14
1.6701984e-14
1.8145372e-14
1.9672816e-14
2.1284379e-14
2.2979284e-14
2.4755826e-14
2.661126e-14
2.8541717e-14
3.0542095e-14
3.2605971e-14
3.4725525e-14
3.689149e-14
3.9093106e-14
4.1318104e-14
4.3552726e-14
4.5781794e-14
4.7988797e-14
5.0156036e-14
5.2264812e-14
5.4295683e-14
5.6228739e-14
5.8043942e-14
5.9721495e-14
6.1242251e-14
6.2588121e-14
6.3742506e-14
6.4690702e-14
6.5420282e-14
6.5921435e-14
6.6187241e-14
6.6213879e-14
6.600074e-14
6.5550469e-14
6.48689e-14
6.3964913e-14
6.2850203e-14
6.153898e-14
6.0047615e-14
5.839424e-14
5.6598315e-14
5.4680199e-14
5.2660723e-14
5.0560784e-14
4.8400959e-14
4.6201183e-14
4.3980462e-14
4.1756641e-14
3.9546218e-14
3.7364227e-14
3.5224155e-14
3.3137918e-14
3.1115855e-14
2.9166779e-14
2.7298051e-14
2.5515667e-14
2.3824364e-14
2.222775e-14
2.0728424e-14
1.9328112e-14
1.8027794e-14
1.6827832e-14
1.5728096e-14
1.4728076e-14
1.3826986e-14
1.3023854e-14
1.2317595e-14
1.1707052e-14
1.1191007e-14
1.0768125e-14
1.0436856e-14
1.0195297e-14
1.0041357e-14
0
8.8910551e-13
-5.8888008e-14
-1.877545e-14
-7.0740082e-15
-2.9089042e-15
-1.3453297e-15
-7.9489437e-16
-6.5666837e-16
-6.8387399e-16
-7.7002414e-16
-8.6768579e-16
-9.5545716e-16
-1.0238519e-15
-1.0689956e-15
-1.0896924e-15
-1.0860197e-15
-1.0586306e-15
-1.0084028e-15
-9.3625272e-16
-8.4304529e-16
-7.295439e-16
-5.9638078e-16
-4.4403095e-16
-2.7279933e-16
-8.2804434e-17
1.2603824e-16
3.5404011e-16
6.0175131e-16
8.6997603e-16
1.1597856e-15
1.4725366e-15
1.8098709e-15
2.1737211e-15
2.5663041e-15
2.9901264e-15
3.4479656e-15
3.9428558e-15
4.478068e-15
5.0570961e-15
5.6836227e-15
6.3614887e-15
7.0946583e-15
7.8871882e-15
8.7431805e-15
9.666732e-15
1.0661882e-14
1.1732565e-14
1.2882538e-14
1.4115311e-14
1.543407e-14
1.6841604e-14
1.8340208e-14
1.9931585e-14
2.1616744e-14
2.3395904e-14
2.5268368e-14
2.7232413e-14
2.928517e-14
3.1422519e-14
3.3638966e-14
3.5927546e-14
3.8279726e-14
4.0685343e-14
4.3132542e-14
4.560776e-14
4.8095736e-14
5.0579573e-14
5.3040837e-14
5.545971e-14
5.7815203e-14
6.0085428e-14
6.224792e-14
6.4280018e-14
6.6159285e-14
6.7863974e-14
6.9373507e-14
7.0668965e-14
7.1733565e-14
7.2553101e-14
7.3116344e-14
7.341536e-14
7.3445754e-14
7.3206808e-14
7.2701524e-14
7.1936553e-14
7.0922026e-14
6.9671286e-14
6.8200534e-14
6.6528419e-14
6.4675575e-14
6.2664113e-14
6.0517132e-14
5.825822e-14
5.5910993e-14
5.3498652e-14
5.1043623e-14
4.8567225e-14
4.608942e-14
4.3628605e-14
4.1201489e-14
3.8823003e-14
3.6506284e-14
3.4262678e-14
3.2101805e-14
3.0031643e-14
2.805864e-14
2.6187838e-14
2.4423017e-14
2.2766842e-14
2.1221009e-14
1.9786392e-14
1.8463192e-14
1.7251066e-14
1.6149258e-14
1.5156709e-14
1.427216e-14
1.3494222e-14
1.2821437e-14
1.225229e-14
1.17852e-14
1.1418478e-14
1.1150288e-14
1.0978827e-14
0
0
-4.1184066e-14
-1.5497333e-14
-5.7231376e-15
-2.1679484e-15
-9.3405841e-16
-5.8346477e-16
-5.7053268e-16
-6.7836243e-16
-8.1734673e-16
-9.4979463e-16
-1.060128e-15
-1.1424752e-15
-1.1952773e-15
-1.2188615e-15
-1.2143266e-15
-1.1830216e-15
-1.126304e-15
-1.0454301e-15
-9.4151067e-16
-8.1548923e-16
-6.6813052e-16
-5.0001061e-16
-3.1150969e-16
-1.0279653e-16
1.261891e-16
3.7575614e-16
6.4647691e-16
9.3920725e-16
1.2551033e-15
1.5956356e-15
1.9625917e-15
2.3580851e-15
2.784551e-15
3.2447442e-15
3.7417212e-15
4.2788276e-15
4.859678e-15
5.4881337e-15
6.1682668e-15
6.904331e-15
7.7007261e-15
8.5619566e-15
9.4925821e-15
1.0497168e-14
1.1580229e-14
1.2746174e-14
1.3999222e-14
1.534334e-14
1.6782153e-14
1.8318862e-14
1.9956133e-14
2.1696e-14
2.3539752e-14
2.5487814e-14
2.7539617e-14
2.9693468e-14
3.1946425e-14
3.4294164e-14
3.6730843e-14
3.9248988e-14
4.1839386e-14
4.4490995e-14
4.7190874e-14
4.9924151e-14
5.2674033e-14
5.5421857e-14
5.8147189e-14
6.0827994e-14
6.3440866e-14
6.5961326e-14
6.8364176e-14
7.0623936e-14
7.2715322e-14
7.461377e-14
7.6295985e-14
7.7740515e-14
7.8928293e-14
7.984316e-14
8.0472317e-14
8.0806709e-14
8.0841302e-14
8.0575251e-14
8.0011946e-14
7.9158931e-14
7.8027708e-14
7.6633423e-14
7.499446e-14
7.3131957e-14
7.1069269e-14
6.8831391e-14
6.6444384e-14
6.3934811e-14
6.1329196e-14
5.8653545e-14
5.5932918e-14
5.3191075e-14
5.0450183e-14
4.7730609e-14
4.5050775e-14
4.242708e-14
3.9873875e-14
3.7403495e-14
3.5026334e-14
3.2750945e-14
3.0584174e-14
2.8531309e-14
2.6596245e-14
2.4781646e-14
2.3089116e-14
2.1519366e-14
2.0072374e-14
1.8747533e-14
1.7543792e-14
1.6459777e-14
1.5493905e-14
1.4644463e-14
1.3909675e-14
1.3287738e-14
1.277683e-14
1.2375123e-14
1.2080806e-14
1.1892248e-14
0
0
-1.325632e-14
-5.1468154e-15
-1.6080451e-15
-3.9500465e-16
-1.29843e-16
-2.2152163e-16
-4.3020715e-16
-6.5840377e-16
-8.6688583e-16
-1.0409506e-15
-1.1763553e-15
-1.2732382e-15
-1.3334353e-15
-1.3592931e-15
-1.3531607e-15
-1.3171883e-15
-1.2532631e-15
-1.163002e-15
-1.047768e-15
-9.0868806e-16
-7.4666494e-16
-5.6238022e-16
-3.5629253e-16
-1.2862673e-16
1.2064288e-16
3.9181464e-16
6.8547843e-16
1.0025363e-15
1.3442211e-15
1.7121139e-15
2.1081498e-15
2.5346257e-15
2.9941947e-15
3.4898651e-15
4.0249834e-15
4.6032172e-15
5.2285328e-15
5.9051709e-15
6.6376121e-15
7.4305408e-15
8.288807e-15
9.2173821e-15
1.0221311e-14
1.1305652e-14
1.2475422e-14
1.3735529e-14
1.5090696e-14
1.6545381e-14
1.8103685e-14
1.976926e-14
2.1545197e-14
2.343391e-14
2.5437014e-14
2.7555196e-14
2.9788071e-14
3.2134037e-14
3.4590131e-14
3.7151876e-14
3.9813138e-14
4.2565982e-14
4.5400544e-14
4.8304931e-14
5.1265126e-14
5.4264948e-14
5.7286038e-14
6.0307914e-14
6.330807e-14
6.6262145e-14
6.9144178e-14
7.1926928e-14
7.4582276e-14
7.7081706e-14
7.9396841e-14
8.1500048e-14
8.3365067e-14
8.4967659e-14
8.6286243e-14
8.7302494e-14
8.8001878e-14
8.8374087e-14
8.8413375e-14
8.8118748e-14
8.7494017e-14
8.654771e-14
8.529284e-14
8.3746541e-14
8.1929594e-14
7.986587e-14
7.7581706e-14
7.510524e-14
7.2465754e-14
6.9693022e-14
6.6816707e-14
6.3865809e-14
6.0868191e-14
5.7850181e-14
5.4836261e-14
5.1848832e-14
4.8908074e-14
4.6031862e-14
4.3235761e-14
4.0533069e-14
3.7934907e-14
3.545035e-14
3.3086583e-14
3.0849073e-14
2.8741754e-14
2.676722e-14
2.4926916e-14
2.3221318e-14
2.1650118e-14
2.0212384e-14
1.8906715e-14
1.7731379e-14
1.6684427e-14
1.5763792e-14
1.4967361e-14
1.429303e-14
1.3738732e-14
1.3302479e-14
1.2982426e-14
1.2777089e-14
0
0
1.4930595e-14
7.2353139e-15
3.5409354e-15
1.7995196e-15
8.3334043e-16
1.9287415e-16
-2.80679e-16
-6.4658858e-16
-9.3100842e-16
-1.1484743e-15
-1.3087792e-15
-1.4192633e-15
-1.4856838e-15
-1.512632e-15
-1.5037961e-15
-1.4621549e-15
-1.3901271e-15
-1.289683e-15
-1.1624291e-15
-1.0096689e-15
-8.3244052e-16
-6.3153211e-16
-4.0748457e-16
-1.6058493e-16
1.0914982e-16
4.019986e-16
7.1856054e-16
1.0597771e-15
1.4269521e-15
1.8217731e-15
2.2463217e-15
2.7030802e-15
3.1949232e-15
3.7251184e-15
4.2973112e-15
4.9155025e-15
5.5840222e-15
6.3075052e-15
7.0908564e-15
7.9392101e-15
8.857886e-15
9.8523447e-15
1.0928139e-14
1.2090852e-14
1.3346027e-14
1.4699106e-14
1.6155352e-14
1.7719753e-14
1.939693e-14
2.1191033e-14
2.3105624e-14
2.5143555e-14
2.7306824e-14
2.9596439e-14
3.2012261e-14
3.4552845e-14
3.7215267e-14
3.9994963e-14
4.2885564e-14
4.5878727e-14
4.8963984e-14
5.2128619e-14
5.5357561e-14
5.8633313e-14
6.193593e-14
6.5243056e-14
6.8530027e-14
7.1770046e-14
7.4934442e-14
7.7993029e-14
8.0914547e-14
8.3667194e-14
8.6219233e-14
8.8539672e-14
9.059899e-14
9.2369874e-14
9.3827956e-14
9.4952507e-14
9.5727052e-14
9.6139889e-14
9.6184466e-14
9.5859614e-14
9.5169608e-14
9.4124064e-14
9.2737667e-14
9.1029751e-14
8.902375e-14
8.6746547e-14
8.422776e-14
8.1498973e-14
7.8592979e-14
7.5543044e-14
7.238222e-14
6.914272e-14
6.5855393e-14
6.2549285e-14
5.9251298e-14
5.5985946e-14
5.2775204e-14
4.9638439e-14
4.6592414e-14
4.3651355e-14
4.0827061e-14
3.8129065e-14
3.5564819e-14
3.313989e-14
3.0858174e-14
2.8722113e-14
2.6732913e-14
2.489074e-14
2.3194929e-14
2.1644159e-14
2.0236622e-14
1.8970172e-14
1.7842456e-14
1.6851019e-14
1.599339e-14
1.5267147e-14
1.4669969e-14
1.4199684e-14
1.3854331e-14
1.3632334e-14
0
0
4.312746e-14
1.783944e-14
7.8221843e-15
3.6498145e-15
1.6521579e-15
5.3356016e-16
-1.7843525e-16
-6.7034648e-16
-1.0241495e-15
-1.2805617e-15
-1.4623949e-15
-1.5838044e-15
-1.6542807e-15
-1.6805417e-15
-1.6675296e-15
-1.6189853e-15
-1.5378067e-15
-1.4262782e-15
-1.2862239e-15
-1.1191074e-15
-9.2609231e-16
-7.0807005e-16
-4.656684e-16
-1.9924411e-16
9.1135378e-17
4.0572043e-16
7.4510797e-16
1.1102691e-15
1.5025734e-15
1.9238117e-15
2.3762088e-15
2.8624323e-15
3.3855846e-15
3.9492008e-15
4.5572322e-15
5.2140236e-15
5.9242844e-15
6.6930603e-15
7.5256961e-15
8.4277937e-15
9.4051661e-15
1.0463788e-14
1.1609745e-14
1.2849167e-14
1.4188163e-14
1.5632745e-14
1.7188749e-14
1.8861737e-14
2.0656895e-14
2.2578924e-14
2.4631914e-14
2.6819208e-14
2.9143252e-14
3.1605444e-14
3.420596e-14
3.6943579e-14
3.9815494e-14
4.2817126e-14
4.5941936e-14
4.9181236e-14
5.2524011e-14
5.5956767e-14
5.94634e-14
6.3025103e-14
6.6620324e-14
7.0224786e-14
7.3811581e-14
7.735135e-14
8.0812553e-14
8.4161857e-14
8.7364616e-14
9.0385464e-14
9.3188996e-14
9.5740538e-14
9.8006967e-14
9.9957568e-14
1.0156487e-13
1.0280546e-13
1.036607e-13
1.0411731e-13
1.0416783e-13
1.0381089e-13
1.0305127e-13
1.018998e-13
1.0037302e-13
9.8492722e-14
9.6285275e-14
9.3780904e-14
9.1012846e-14
8.8016476e-14
8.4828436e-14
8.1485794e-14
7.8025271e-14
7.4482537e-14
7.0891631e-14
6.7284474e-14
6.3690505e-14
6.0136423e-14
5.6646038e-14
5.3240213e-14
4.9936887e-14
4.6751166e-14
4.3695468e-14
4.0779706e-14
3.8011514e-14
3.5396467e-14
3.2938334e-14
3.0639315e-14
2.8500283e-14
2.6521015e-14
2.4700408e-14
2.3036678e-14
2.1527546e-14
2.0170398e-14
1.8962424e-14
1.7900743e-14
1.6982495e-14
1.6204924e-14
1.556544e-14
1.5061698e-14
1.4691682e-14
1.4453806e-14
0
0
6.143852e-14
2.1656713e-14
9.5059577e-15
4.5338939e-15
2.0806905e-15
6.9402683e-16
-1.7342229e-16
-7.5480474e-16
-1.1597898e-15
-1.4448975e-15
-1.6418459e-15
-1.7698319e-15
-1.8412361e-15
-1.8644593e-15
-1.8454413e-15
-1.7885262e-15
-1.6969867e-15
-1.5733522e-15
-1.4196197e-15
-1.2373857e-15
-1.0279246e-15
-7.9222649e-16
-5.3100859e-16
-2.4470525e-16
6.6554936e-17
4.0298226e-16
7.6515974e-16
1.1540776e-15
1.5711627e-15
2.0183047e-15
2.4978697e-15
3.0127118e-15
3.5661654e-15
4.1620415e-15
4.8046079e-15
5.4985653e-15
6.2490177e-15
7.0614388e-15
7.9416322e-15
8.8956877e-15
9.9299336e-15
1.1050884e-14
1.2265185e-14
1.3579546e-14
1.500067e-14
1.6535178e-14
1.818952e-14
1.9969877e-14
2.1882051e-14
2.3931348e-14
2.6122443e-14
2.8459235e-14
3.0944688e-14
3.3580663e-14
3.6367727e-14
3.9304963e-14
4.2389762e-14
4.5617613e-14
4.8981885e-14
5.247362e-14
5.6081318e-14
5.9790763e-14
6.3584854e-14
6.7443487e-14
7.1343486e-14
7.5258607e-14
7.9159612e-14
8.3014448e-14
8.6788531e-14
9.0445158e-14
9.3946027e-14
9.7251894e-14
1.0032334e-13
1.0312163e-13
1.0560966e-13
1.0775293e-13
1.095205e-13
1.1088595e-13
1.118282e-13
1.1233219e-13
1.1238945e-13
1.1199835e-13
1.1116424e-13
1.0989931e-13
1.0822216e-13
1.0615733e-13
1.0373447e-13
1.0098752e-13
9.7953734e-14
9.4672664e-14
9.1185185e-14
8.7532524e-14
8.3755384e-14
7.9893169e-14
7.5983327e-14
7.2060828e-14
6.8157769e-14
6.4303111e-14
6.0522535e-14
5.6838396e-14
5.3269777e-14
4.9832607e-14
4.6539844e-14
4.3401697e-14
4.0425881e-14
3.7617879e-14
3.4981227e-14
3.251778e-14
3.0227985e-14
2.8111133e-14
2.6165598e-14
2.4389057e-14
2.2778689e-14
2.1331348e-14
2.004372e-14
1.8912452e-14
1.7934262e-14
1.7106025e-14
1.6424855e-14
1.5888185e-14
1.5493884e-14
1.5240334e-14
0
8.8910551e-13
8.9923476e-15
1.3193682e-14
7.9994624e-15
4.2988021e-15
2.0356072e-15
6.2421231e-16
-2.949826e-16
-9.1700259e-16
-1.3479502e-15
-1.6475503e-15
-1.8509667e-15
-1.9799027e-15
-2.0483662e-15
-2.0657667e-15
-2.038655e-15
-1.9717446e-15
-1.8685362e-15
-1.7317104e-15
-1.5633769e-15
-1.3652292e-15
-1.1386348e-15
-8.8467723e-16
-6.0416613e-16
-2.9762249e-16
3.4750377e-17
3.9310756e-16
7.7800433e-16
1.1904379e-15
1.6318824e-15
2.1043194e-15
2.6102541e-15
3.1527293e-15
3.7353162e-15
4.362109e-15
5.0377041e-15
5.7671731e-15
6.5560295e-15
7.4101927e-15
8.3359453e-15
9.3398875e-15
1.0428886e-14
1.161002e-14
1.2890524e-14
1.4277719e-14
1.5778938e-14
1.7401449e-14
1.9152359e-14
2.1038516e-14
2.3066391e-14
2.5241951e-14
2.7570522e-14
3.005663e-14
3.270383e-14
3.5514525e-14
3.8489759e-14
4.1629011e-14
4.4929958e-14
4.8388248e-14
5.1997254e-14
5.5747833e-14
5.9628081e-14
6.3623123e-14
6.7714911e-14
7.1882071e-14
7.6099799e-14
8.0339839e-14
8.4570538e-14
8.8757018e-14
9.2861464e-14
9.6843558e-14
1.0066104e-13
1.0427046e-13
1.0762797e-13
1.1069037e-13
1.1341612e-13
1.1576649e-13
1.1770667e-13
1.1920685e-13
1.2024318e-13
1.2079862e-13
1.2086349e-13
1.2043591e-13
1.1952185e-13
1.18135e-13
1.1629632e-13
1.1403338e-13
1.1137954e-13
1.0837286e-13
1.0505507e-13
1.0147036e-13
9.7664272e-14
9.3682579e-14
8.9570326e-14
8.5370946e-14
8.1125539e-14
7.6872307e-14
7.2646133e-14
6.8478313e-14
6.4396422e-14
6.0424297e-14
5.6582114e-14
5.2886556e-14
4.9351028e-14
4.5985924e-14
4.279893e-14
3.9795319e-14
3.6978275e-14
3.4349195e-14
3.190799e-14
2.9653362e-14
2.7583068e-14