/*--------------------------------*- C++ -*----------------------------------*\
| =========                 |                                                 |
| \\      /  F ield         | foam-extend: Open Source CFD                    |
|  \\    /   O peration     | Version:     4.1                                |
|   \\  /    A nd           | Web:         http://www.foam-extend.org         |
|    \\/     M anipulation  |                                                 |
\*---------------------------------------------------------------------------*/
FoamFile
{
    version     2.0;
    format      ascii;
    class       surfaceScalarField;
    location    "0";
    object      phi;
}
// * * * * * * * * * * * * * * * * * * * * * * * * * * * * * * * * * * * * * //

dimensions      [0 3 -1 0 0 0 0];

internalField   nonuniform List<scalar> 
31929
(
-0.04838709
-2.3837608e-18
-0.04838709
-5.0189058e-19
-0.04838709
-1.2103772e-19
-0.04838709
-3.2559125e-20
-0.04838709
-9.7028499e-21
-0.04838709
-3.3816796e-21
-0.04838709
-1.5943371e-21
-0.04838709
-1.1213804e-21
-0.04838709
-1.0420016e-21
-0.04838709
-1.082214e-21
-0.04838709
-1.1580174e-21
-0.04838709
-1.2426141e-21
-0.04838709
-1.3263616e-21
-0.04838709
-1.405152e-21
-0.04838709
-1.4765997e-21
-0.04838709
-1.5393793e-21
-0.04838709
-1.5925975e-21
-0.04838709
-1.6359489e-21
-0.04838709
-1.6692054e-21
-0.04838709
-1.6925216e-21
-0.04838709
-1.7060036e-21
-0.04838709
-1.7099995e-21
-0.04838709
-1.704591e-21
-0.04838709
-1.6900128e-21
-0.04838709
-1.6662285e-21
-0.04838709
-1.6333081e-21
-0.04838709
-1.590897e-21
-0.04838709
-1.5387182e-21
-0.04838709
-1.476128e-21
-0.04838709
-1.4025475e-21
-0.04838709
-1.3168947e-21
-0.04838709
-1.2181383e-21
-0.04838709
-1.1048718e-21
-0.04838709
-9.7570861e-22
-0.04838709
-8.2877608e-22
-0.04838709
-6.6224741e-22
-0.04838709
-4.7393282e-22
-0.04838709
-2.6172778e-22
-0.04838709
-2.3024499e-23
-0.04838709
2.4462466e-22
-0.04838709
5.4401762e-22
-0.04838709
8.7772801e-22
-0.04838709
1.2488116e-21
-0.04838709
1.6600088e-21
-0.04838709
2.1143078e-21
-0.04838709
2.6143474e-21
-0.04838709
3.1630966e-21
-0.04838709
3.7630508e-21
-0.04838709
4.4167731e-21
-0.04838709
5.1262821e-21
-0.04838709
5.8937348e-21
-0.04838709
6.7205648e-21
-0.04838709
7.6080533e-21
-0.04838709
8.5566881e-21
-0.04838709
9.5668155e-21
-0.04838709
1.063779e-20
-0.04838709
1.1768536e-20
-0.04838709
1.2956897e-20
-0.04838709
1.4200312e-20
-0.04838709
1.5494969e-20
-0.04838709
1.6836338e-20
-0.04838709
1.8218649e-20
-0.04838709
1.9635508e-20
-0.04838709
2.1079143e-20
-0.04838709
2.2541011e-20
-0.04838709
2.401134e-20
-0.04838709
2.5479823e-20
-0.04838709
2.6934928e-20
-0.04838709
2.8364657e-20
-0.04838709
2.9756229e-20
-0.04838709
3.1096733e-20
-0.04838709
3.2372763e-20
-0.04838709
3.357115e-20
-0.04838709
3.4678752e-20
-0.04838709
3.5683192e-20
-0.04838709
3.6572625e-20
-0.04838709
3.7336346e-20
-0.04838709
3.7964823e-20
-0.04838709
3.8450193e-20
-0.04838709
3.8786009e-20
-0.04838709
3.8967839e-20
-0.04838709
3.8993156e-20
-0.04838709
3.8861484e-20
-0.04838709
3.8574339e-20
-0.04838709
3.8135243e-20
-0.04838709
3.7549711e-20
-0.04838709
3.6824982e-20
-0.04838709
3.596993e-20
-0.04838709
3.4994795e-20
-0.04838709
3.3911096e-20
-0.04838709
3.2731189e-20
-0.04838709
3.146809e-20
-0.04838709
3.0135181e-20
-0.04838709
2.8746125e-20
-0.04838709
2.7314289e-20
-0.04838709
2.5852872e-20
-0.04838709
2.4374434e-20
-0.04838709
2.2891075e-20
-0.04838709
2.1413798e-20
-0.04838709
1.9952935e-20
-0.04838709
1.8517691e-20
-0.04838709
1.711643e-20
-0.04838709
1.575625e-20
-0.04838709
1.4443466e-20
-0.04838709
1.3183224e-20
-0.04838709
1.1979918e-20
-0.04838709
1.083686e-20
-0.04838709
9.7567613e-21
-0.04838709
8.7415046e-21
-0.04838709
7.792471e-21
-0.04838709
6.910344e-21
-0.04838709
6.0955567e-21
-0.04838709
5.3481347e-21
-0.04838709
4.66793e-21
-0.04838709
4.054662e-21
-0.04838709
3.5082384e-21
-0.04838709
3.0288922e-21
-0.04838709
2.6176952e-21
-0.04838709
2.2780837e-21
-0.04838709
2.0207969e-21
-0.04838709
1.8833377e-21
-0.04838709
2.0101746e-21
-0.04838709
3.0367549e-21
8.3282691e-21
-0.04838709
-7.8383178e-19
-0.04838709
-3.3646744e-19
-0.04838709
-1.11873e-19
-0.04838709
-3.5625977e-20
-0.04838709
-1.1660959e-20
-0.04838709
-4.281125e-21
-0.04838709
-2.0637529e-21
-0.04838709
-1.4507697e-21
-0.04838709
-1.3345457e-21
-0.04838709
-1.3695544e-21
-0.04838709
-1.4467299e-21
-0.04838709
-1.5297627e-21
-0.04838709
-1.6043848e-21
-0.04838709
-1.6634512e-21
-0.04838709
-1.7024492e-21
-0.04838709
-1.718473e-21
-0.04838709
-1.7095675e-21
-0.04838709
-1.6746854e-21
-0.04838709
-1.6132706e-21
-0.04838709
-1.5252778e-21
-0.04838709
-1.4107577e-21
-0.04838709
-1.2699429e-21
-0.04838709
-1.1029434e-21
-0.04838709
-9.0987641e-22
-0.04838709
-6.9056207e-22
-0.04838709
-4.4468093e-22
-0.04838709
-1.7156214e-22
-0.04838709
1.2966084e-22
-0.04838709
4.6028428e-22
-0.04838709
8.2188567e-22
-0.04838709
1.2164587e-21
-0.04838709
1.6462807e-21
-0.04838709
2.1141056e-21
-0.04838709
2.6229516e-21
-0.04838709
3.1763347e-21
-0.04838709
3.7779248e-21
-0.04838709
4.4319332e-21
-0.04838709
5.1426734e-21
-0.04838709
5.9149546e-21
-0.04838709
6.7535306e-21
-0.04838709
7.663656e-21
-0.04838709
8.6504325e-21
-0.04838709
9.7193227e-21
-0.04838709
1.087556e-20
-0.04838709
1.2124501e-20
-0.04838709
1.3471275e-20
-0.04838709
1.4920901e-20
-0.04838709
1.6477972e-20
-0.04838709
1.8146782e-20
-0.04838709
1.9931037e-20
-0.04838709
2.1833931e-20
-0.04838709
2.3857756e-20
-0.04838709
2.6004056e-20
-0.04838709
2.827331e-20
-0.04838709
3.0664907e-20
-0.04838709
3.317684e-20
-0.04838709
3.5805797e-20
-0.04838709
3.8546813e-20
-0.04838709
4.1393338e-20
-0.04838709
4.4336946e-20
-0.04838709
4.7367322e-20
-0.04838709
5.0472157e-20
-0.04838709
5.3637214e-20
-0.04838709
5.6846079e-20
-0.04838709
6.0080421e-20
-0.04838709
6.3319864e-20
-0.04838709
6.6542418e-20
-0.04838709
6.9724173e-20
-0.04838709
7.2839981e-20
-0.04838709
7.5863494e-20
-0.04838709
7.8767685e-20
-0.04838709
8.1525029e-20
-0.04838709
8.4108272e-20
-0.04838709
8.6490493e-20
-0.04838709
8.864606e-20
-0.04838709
9.0550853e-20
-0.04838709
9.2182901e-20
-0.04838709
9.3522808e-20
-0.04838709
9.4554469e-20
-0.04838709
9.5264941e-20
-0.04838709
9.5645317e-20
-0.04838709
9.5690638e-20
-0.04838709
9.5400144e-20
-0.04838709
9.477731e-20
-0.04838709
9.3829692e-20
-0.04838709
9.2568871e-20
-0.04838709
9.1010111e-20
-0.04838709
8.9172044e-20
-0.04838709
8.7076173e-20
-0.04838709
8.4746461e-20
-0.04838709
8.2208899e-20
-0.04838709
7.9490711e-20
-0.04838709
7.6620045e-20
-0.04838709
7.3625405e-20
-0.04838709
7.0535087e-20
-0.04838709
6.7376854e-20
-0.04838709
6.4177372e-20
-0.04838709
6.0962137e-20
-0.04838709
5.7754819e-20
-0.04838709
5.4577458e-20
-0.04838709
5.1450037e-20
-0.04838709
4.8390548e-20
-0.04838709
4.5414818e-20
-0.04838709
4.253676e-20
-0.04838709
3.9768118e-20
-0.04838709
3.7118848e-20
-0.04838709
3.4597039e-20
-0.04838709
3.220921e-20
-0.04838709
2.9960366e-20
-0.04838709
2.7854293e-20
-0.04838709
2.589355e-20
-0.04838709
2.4079886e-20
-0.04838709
2.2414341e-20
-0.04838709
2.0897502e-20
-0.04838709
1.9529751e-20
-0.04838709
1.8311728e-20
-0.04838709
1.7244873e-20
-0.04838709
1.6332491e-20
-0.04838709
1.5581947e-20
-0.04838709
1.5010068e-20
-0.04838709
1.4658663e-20
-0.04838709
1.4636725e-20
-0.04838709
1.5184747e-20
1.6182613e-20
-0.04838712
-7.9492137e-20
-0.04838712
-7.2074894e-20
-0.04838712
-3.6838958e-20
-0.04838712
-1.5539015e-20
-0.04838712
-6.3513912e-21
-0.04838712
-3.010793e-21
-0.04838712
-1.9666631e-21
-0.04838712
-1.7284934e-21
-0.04838712
-1.7523944e-21
-0.04838712
-1.8550148e-21
-0.04838712
-1.9751186e-21
-0.04838712
-2.0894184e-21
-0.04838712
-2.1858237e-21
-0.04838712
-2.2562496e-21
-0.04838712
-2.2946557e-21
-0.04838712
-2.29682e-21
-0.04838712
-2.2599262e-21
-0.04838712
-2.1824717e-21
-0.04838712
-2.063702e-21
-0.04838712
-1.9035105e-21
-0.04838712
-1.7020309e-21
-0.04838712
-1.4596241e-21
-0.04838712
-1.1764868e-21
-0.04838712
-8.5269499e-22
-0.04838712
-4.8800712e-22
-0.04838712
-8.1930341e-23
-0.04838712
3.6651645e-22
-0.04838712
8.5875573e-22
-0.04838712
1.3966951e-21
-0.04838712
1.9827109e-21
-0.04838712
2.6197512e-21
-0.04838712
3.3113569e-21
-0.04838712
4.0616201e-21
-0.04838712
4.8750326e-21
-0.04838712
5.7568395e-21
-0.04838712
6.7126361e-21
-0.04838712
7.748698e-21
-0.04838712
8.8714287e-21
-0.04838712
1.008799e-20
-0.04838712
1.140559e-20
-0.04838712
1.2832048e-20
-0.04838712
1.4374919e-20
-0.04838712
1.6042309e-20
-0.04838712
1.7842148e-20
-0.04838712
1.9782357e-20
-0.04838712
2.1870531e-20
-0.04838712
2.4114059e-20
-0.04838712
2.651991e-20
-0.04838712
2.9094378e-20
-0.04838712
3.1842903e-20
-0.04838712
3.4770108e-20
-0.04838712
3.787949e-20
-0.04838712
4.1173203e-20
-0.04838712
4.4651822e-20
-0.04838712
4.8314236e-20
-0.04838712
5.2157468e-20
-0.04838712
5.6176367e-20
-0.04838712
6.0363307e-20
-0.04838712
6.4708239e-20
-0.04838712
6.9198511e-20
-0.04838712
7.3818427e-20
-0.04838712
7.8549294e-20
-0.04838712
8.3369474e-20
-0.04838712
8.8254253e-20
-0.04838712
9.3175845e-20
-0.04838712
9.8103375e-20
-0.04838712
1.030035e-19
-0.04838712
1.0784013e-19
-0.04838712
1.1257519e-19
-0.04838712
1.1716875e-19
-0.04838712
1.2157983e-19
-0.04838712
1.2576683e-19
-0.04838712
1.2968847e-19
-0.04838712
1.3330393e-19
-0.04838712
1.3657433e-19
-0.04838712
1.3946319e-19
-0.04838712
1.4193723e-19
-0.04838712
1.4396703e-19
-0.04838712
1.4552817e-19
-0.04838712
1.466011e-19
-0.04838712
1.4717237e-19
-0.04838712
1.472345e-19
-0.04838712
1.4678639e-19
-0.04838712
1.4583339e-19
-0.04838712
1.4438707e-19
-0.04838712
1.4246509e-19
-0.04838712
1.400907e-19
-0.04838712
1.3729224e-19
-0.04838712
1.3410245e-19
-0.04838712
1.3055778e-19
-0.04838712
1.2669778e-19
-0.04838712
1.2256375e-19
-0.04838712
1.181985e-19
-0.04838712
1.1364534e-19
-0.04838712
1.0894727e-19
-0.04838712
1.0414636e-19
-0.04838712
9.9283127e-20
-0.04838712
9.4396269e-20
-0.04838712
8.9521738e-20
-0.04838712
8.4692893e-20
-0.04838712
7.9940081e-20
-0.04838712
7.5290617e-20
-0.04838712
7.0768556e-20
-0.04838712
6.6394941e-20
-0.04838712
6.2187624e-20
-0.04838712
5.8161754e-20
-0.04838712
5.4329675e-20
-0.04838712
5.0701249e-20
-0.04838712
4.7284118e-20
-0.04838712
4.4084098e-20
-0.04838712
4.110515e-20
-0.04838712
3.8349928e-20
-0.04838712
3.5820034e-20
-0.04838712
3.3516375e-20
-0.04838712
3.1439496e-20
-0.04838712
2.9590178e-20
-0.04838712
2.797012e-20
-0.04838712
2.6583245e-20
-0.04838712
2.5437763e-20
-0.04838712
2.4549903e-20
-0.04838712
2.3950379e-20
-0.04838712
2.3690346e-20
-0.04838712
2.3804254e-20
2.3977493e-20
-0.04838709
5.5088846e-19
-0.04838709
1.7994668e-19
-0.04838709
4.437742e-20
-0.04838709
9.9162304e-21
-0.04838709
1.5380396e-21
-0.04838709
-7.424057e-22
-0.04838709
-1.5379247e-21
-0.04838709
-1.9203585e-21
-0.04838709
-2.1701102e-21
-0.04838709
-2.3719145e-21
-0.04838709
-2.5498584e-21
-0.04838709
-2.7055388e-21
-0.04838709
-2.8323092e-21
-0.04838709
-2.9219504e-21
-0.04838709
-2.9670929e-21
-0.04838709
-2.9623452e-21
-0.04838709
-2.9041473e-21
-0.04838709
-2.7907182e-21
-0.04838709
-2.6212491e-21
-0.04838709
-2.3957229e-21
-0.04838709
-2.1144255e-21
-0.04838709
-1.7779543e-21
-0.04838709
-1.3866555e-21
-0.04838709
-9.4064427e-22
-0.04838709
-4.3961956e-22
-0.04838709
1.1702098e-22
-0.04838709
7.3054475e-22
-0.04838709
1.4028746e-21
-0.04838709
2.1365597e-21
-0.04838709
2.9347282e-21
-0.04838709
3.8012808e-21
-0.04838709
4.7409834e-21
-0.04838709
5.7593189e-21
-0.04838709
6.8622317e-21
-0.04838709
8.0567067e-21
-0.04838709
9.3502528e-21
-0.04838709
1.0751288e-20
-0.04838709
1.2268306e-20
-0.04838709
1.3910857e-20
-0.04838709
1.5688611e-20
-0.04838709
1.7612061e-20
-0.04838709
1.969124e-20
-0.04838709
2.193696e-20
-0.04838709
2.4359878e-20
-0.04838709
2.6970625e-20
-0.04838709
2.9779304e-20
-0.04838709
3.2795777e-20
-0.04838709
3.6029436e-20
-0.04838709
3.9488765e-20
-0.04838709
4.3181005e-20
-0.04838709
4.711234e-20
-0.04838709
5.1287551e-20
-0.04838709
5.5709616e-20
-0.04838709
6.0379296e-20
-0.04838709
6.5295136e-20
-0.04838709
7.045328e-20
-0.04838709
7.5846958e-20
-0.04838709
8.1465979e-20
-0.04838709
8.7296932e-20
-0.04838709
9.3323016e-20
-0.04838709
9.9523332e-20
-0.04838709
1.0587285e-19
-0.04838709
1.1234262e-19
-0.04838709
1.1889959e-19
-0.04838709
1.2550663e-19
-0.04838709
1.3212227e-19
-0.04838709
1.3870176e-19
-0.04838709
1.451967e-19
-0.04838709
1.5155598e-19
-0.04838709
1.5772586e-19
-0.04838709
1.6365119e-19
-0.04838709
1.6927602e-19
-0.04838709
1.7454475e-19
-0.04838709
1.7940234e-19
-0.04838709
1.8379635e-19
-0.04838709
1.8767758e-19
-0.04838709
1.9100113e-19
-0.04838709
1.9372727e-19
-0.04838709
1.9582302e-19
-0.04838709
1.9726197e-19
-0.04838709
1.9802598e-19
-0.04838709
1.9810496e-19
-0.04838709
1.9749742e-19
-0.04838709
1.9621063e-19
-0.04838709
1.9426027e-19
-0.04838709
1.9167022e-19
-0.04838709
1.8847194e-19
-0.04838709
1.8470373e-19
-0.04838709
1.8040986e-19
-0.04838709
1.7563959e-19
-0.04838709
1.7044629e-19
-0.04838709
1.6488573e-19
-0.04838709
1.5901563e-19
-0.04838709
1.528944e-19
-0.04838709
1.4657997e-19
-0.04838709
1.4012895e-19
-0.04838709
1.3359583e-19
-0.04838709
1.2703267e-19
-0.04838709
1.2048775e-19
-0.04838709
1.1400581e-19
-0.04838709
1.0762752e-19
-0.04838709
1.0138948e-19
-0.04838709
9.5323887e-20
-0.04838709
8.9458833e-20
-0.04838709
8.3818105e-20
-0.04838709
7.8421915e-20
-0.04838709
7.3286691e-20
-0.04838709
6.8425485e-20
-0.04838709
6.3848366e-20
-0.04838709
5.9563004e-20
-0.04838709
5.557457e-20
-0.04838709
5.1886444e-20
-0.04838709
4.8500566e-20
-0.04838709
4.5417945e-20
-0.04838709
4.2639003e-20
-0.04838709
4.0164274e-20
-0.04838709
3.7995083e-20
-0.04838709
3.6134815e-20
-0.04838709
3.4590396e-20
-0.04838709
3.3373959e-20
-0.04838709
3.2502843e-20
-0.04838709
3.1990823e-20
-0.04838709
3.180961e-20
3.1786279e-20
-0.04838709
1.8358133e-18
-0.04838709
3.2735739e-19
-0.04838709
8.0657555e-20
-0.04838709
2.3779537e-20
-0.04838709
6.7179819e-21
-0.04838709
8.6670116e-22
-0.04838709
-1.2919864e-21
-0.04838709
-2.1702831e-21
-0.04838709
-2.6081857e-21
-0.04838709
-2.8983382e-21
-0.04838709
-3.133267e-21
-0.04838709
-3.3331023e-21
-0.04838709
-3.4938021e-21
-0.04838709
-3.6057337e-21
-0.04838709
-3.6597916e-21
-0.04838709
-3.649454e-21
-0.04838709
-3.5705831e-21
-0.04838709
-3.4212506e-21
-0.04838709
-3.2007717e-21
-0.04838709
-2.9094246e-21
-0.04838709
-2.5477838e-21
-0.04838709
-2.1167014e-21
-0.04838709
-1.6167376e-21
-0.04838709
-1.0481645e-21
-0.04838709
-4.1068187e-22
-0.04838709
2.9647541e-22
-0.04838709
1.0748408e-21
-0.04838709
1.9267414e-21
-0.04838709
2.8553298e-21
-0.04838709
3.8645756e-21
-0.04838709
4.9593325e-21
-0.04838709
6.145502e-21
-0.04838709
7.4299345e-21
-0.04838709
8.8201532e-21
-0.04838709
1.0324902e-20
-0.04838709
1.1953523e-20
-0.04838709
1.3716569e-20
-0.04838709
1.5624787e-20
-0.04838709
1.7690154e-20
-0.04838709
1.9924735e-20
-0.04838709
2.23417e-20
-0.04838709
2.4953762e-20
-0.04838709
2.77745e-20
-0.04838709
3.0817238e-20
-0.04838709
3.4095346e-20
-0.04838709
3.7621672e-20
-0.04838709
4.1408636e-20
-0.04838709
4.5468013e-20
-0.04838709
4.9810526e-20
-0.04838709
5.4445487e-20
-0.04838709
5.938076e-20
-0.04838709
6.4622385e-20
-0.04838709
7.0174232e-20
-0.04838709
7.603755e-20
-0.04838709
8.2210664e-20
-0.04838709
8.8688826e-20
-0.04838709
9.5463716e-20
-0.04838709
1.0252286e-19
-0.04838709
1.0984961e-19
-0.04838709
1.1742295e-19
-0.04838709
1.252168e-19
-0.04838709
1.3320001e-19
-0.04838709
1.413363e-19
-0.04838709
1.495842e-19
-0.04838709
1.5789704e-19
-0.04838709
1.6622285e-19
-0.04838709
1.7450529e-19
-0.04838709
1.8268333e-19
-0.04838709
1.906925e-19
-0.04838709
1.9846508e-19
-0.04838709
2.0593135e-19
-0.04838709
2.130205e-19
-0.04838709
2.1966214e-19
-0.04838709
2.2578664e-19
-0.04838709
2.3132749e-19
-0.04838709
2.3622222e-19
-0.04838709
2.4041384e-19
-0.04838709
2.4385195e-19
-0.04838709
2.4649461e-19
-0.04838709
2.4830822e-19
-0.04838709
2.4926974e-19
-0.04838709
2.4936634e-19
-0.04838709
2.4859613e-19
-0.04838709
2.4696834e-19
-0.04838709
2.4450291e-19
-0.04838709
2.4123021e-19
-0.04838709
2.3719023e-19
-0.04838709
2.3243167e-19
-0.04838709
2.2701074e-19
-0.04838709
2.2098997e-19
-0.04838709
2.1443709e-19
-0.04838709
2.0742284e-19
-0.04838709
2.0002038e-19
-0.04838709
1.9230358e-19
-0.04838709
1.8434575e-19
-0.04838709
1.7621847e-19
-0.04838709
1.6799053e-19
-0.04838709
1.5972751e-19
-0.04838709
1.5149025e-19
-0.04838709
1.4333508e-19
-0.04838709
1.3531306e-19
-0.04838709
1.2747007e-19
-0.04838709
1.1984642e-19
-0.04838709
1.1247727e-19
-0.04838709
1.053923e-19
-0.04838709
9.8616588e-20
-0.04838709
9.2170513e-20
-0.04838709
8.6070239e-20
-0.04838709
8.0328133e-20
-0.04838709
7.4953482e-20
-0.04838709
6.9952491e-20
-0.04838709
6.5329129e-20
-0.04838709
6.1085499e-20
-0.04838709
5.7222443e-20
-0.04838709
5.3739981e-20
-0.04838709
5.0638043e-20
-0.04838709
4.7917052e-20
-0.04838709
4.5579019e-20
-0.04838709
4.3628401e-20
-0.04838709
4.2072332e-20
-0.04838709
4.0917657e-20
-0.04838709
4.0158733e-20
-0.04838709
3.9751807e-20
3.9614352e-20
-0.04838709
-1.5158889e-18
-0.04838709
-8.6013852e-20
-0.04838709
3.2573966e-20
-0.04838709
1.9947936e-20
-0.04838709
6.9173716e-21
-0.04838709
8.3675892e-22
-0.04838709
-1.612622e-21
-0.04838709
-2.613028e-21
-0.04838709
-3.1086277e-21
-0.04838709
-3.4455361e-21
-0.04838709
-3.7280322e-21
-0.04838709
-3.9732602e-21
-0.04838709
-4.1716562e-21
-0.04838709
-4.3093024e-21
-0.04838709
-4.3745474e-21
-0.04838709
-4.359722e-21
-0.04838709
-4.2603388e-21
-0.04838709
-4.074586e-21
-0.04838709
-3.8021294e-21
-0.04838709
-3.4437439e-21
-0.04838709
-3.0004415e-21
-0.04838709
-2.4734321e-21
-0.04838709
-1.8635576e-21
-0.04838709
-1.1713206e-21
-0.04838709
-3.9647467e-22
-0.04838709
4.6187652e-22
-0.04838709
1.4055181e-21
-0.04838709
2.4371432e-21
-0.04838709
3.5604835e-21
-0.04838709
4.7803442e-21
-0.04838709
6.1025434e-21
-0.04838709
7.5341012e-21
-0.04838709
9.0832322e-21
-0.04838709
1.0759059e-20
-0.04838709
1.257212e-20
-0.04838709
1.45336e-20
-0.04838709
1.6656204e-20
-0.04838709
1.895298e-20
-0.04838709
2.1438395e-20
-0.04838709
2.4126939e-20
-0.04838709
2.7034505e-20
-0.04838709
3.0176554e-20
-0.04838709
3.356953e-20
-0.04838709
3.7229475e-20
-0.04838709
4.1172572e-20
-0.04838709
4.5414511e-20
-0.04838709
4.99704e-20
-0.04838709
5.485448e-20
-0.04838709
6.0079814e-20
-0.04838709
6.5657922e-20
-0.04838709
7.1598505e-20
-0.04838709
7.7908976e-20
-0.04838709
8.4594231e-20
-0.04838709
9.1656157e-20
-0.04838709
9.9093045e-20
-0.04838709
1.0689938e-19
-0.04838709
1.1506542e-19
-0.04838709
1.2357656e-19
-0.04838709
1.3241305e-19
-0.04838709
1.4154975e-19
-0.04838709
1.5095549e-19
-0.04838709
1.6059302e-19
-0.04838709
1.704188e-19
-0.04838709
1.8038283e-19
-0.04838709
1.9042886e-19
-0.04838709
2.0049425e-19
-0.04838709
2.105109e-19
-0.04838709
2.2040483e-19
-0.04838709
2.3009786e-19
-0.04838709
2.3950786e-19
-0.04838709
2.4855011e-19
-0.04838709
2.5713836e-19
-0.04838709
2.6518686e-19
-0.04838709
2.7261074e-19
-0.04838709
2.7932883e-19
-0.04838709
2.8526476e-19
-0.04838709
2.9034883e-19
-0.04838709
2.945194e-19
-0.04838709
2.9772514e-19
-0.04838709
2.9992485e-19
-0.04838709
3.0109027e-19
-0.04838709
3.0120568e-19
-0.04838709
3.0026875e-19
-0.04838709
2.9829075e-19
-0.04838709
2.9529608e-19
-0.04838709
2.9132195e-19
-0.04838709
2.8641727e-19
-0.04838709
2.8064167e-19
-0.04838709
2.7406391e-19
-0.04838709
2.6676038e-19
-0.04838709
2.5881382e-19
-0.04838709
2.503106e-19
-0.04838709
2.4133993e-19
-0.04838709
2.3199177e-19
-0.04838709
2.2235531e-19
-0.04838709
2.125176e-19
-0.04838709
2.0256213e-19
-0.04838709
1.9256834e-19
-0.04838709
1.8260986e-19
-0.04838709
1.7275479e-19
-0.04838709
1.6306477e-19
-0.04838709
1.5359493e-19
-0.04838709
1.4439372e-19
-0.04838709
1.3550331e-19
-0.04838709
1.2695919e-19
-0.04838709
1.1879116e-19
-0.04838709
1.1102339e-19
-0.04838709
1.03675e-19
-0.04838709
9.6760465e-20
-0.04838709
9.0290493e-20
-0.04838709
8.4272107e-20
-0.04838709
7.8709658e-20
-0.04838709
7.3605195e-20
-0.04838709
6.8959154e-20
-0.04838709
6.4770876e-20
-0.04838709
6.1039359e-20
-0.04838709
5.7763714e-20
-0.04838709
5.4944094e-20
-0.04838709
5.2582077e-20
-0.04838709
5.0680309e-20
-0.04838709
4.9239254e-20
-0.04838709
4.824621e-20
-0.04838709
4.7655768e-20
4.7425021e-20
-0.04838712
8.8341256e-20
-0.04838712
8.341249e-20
-0.04838712
4.2809982e-20
-0.04838712
1.6299099e-20
-0.04838712
4.0316516e-21
-0.04838712
-8.0264808e-22
-0.04838712
-2.572123e-21
-0.04838712
-3.2742422e-21
-0.04838712
-3.6729548e-21
-0.04838712
-4.0094185e-21
-0.04838712
-4.3310237e-21
-0.04838712
-4.6249304e-21
-0.04838712
-4.8662594e-21
-0.04838712
-5.0337136e-21
-0.04838712
-5.1124815e-21
-0.04838712
-5.0939322e-21
-0.04838712
-4.9736159e-21
-0.04838712
-4.7502072e-21
-0.04838712
-4.4240373e-21
-0.04838712
-3.9965999e-21
-0.04838712
-3.4695099e-21
-0.04838712
-2.8444498e-21
-0.04838712
-2.1226468e-21
-0.04838712
-1.3048936e-21
-0.04838712
-3.9104882e-22
-0.04838712
6.1988036e-22
-0.04838712
1.7298799e-21
-0.04838712
2.9419911e-21
-0.04838712
4.2605046e-21
-0.04838712
5.6910549e-21
-0.04838712
7.2403977e-21
-0.04838712
8.9166809e-21
-0.04838712
1.0729491e-20
-0.04838712
1.2689572e-20
-0.04838712
1.4809257e-20
-0.04838712
1.7101615e-20
-0.04838712
1.9581538e-20
-0.04838712
2.226443e-20
-0.04838712
2.5167274e-20
-0.04838712
2.8307057e-20
-0.04838712
3.1702459e-20
-0.04838712
3.5371778e-20
-0.04838712
3.9334372e-20
-0.04838712
4.3609109e-20
-0.04838712
4.8215082e-20
-0.04838712
5.3170945e-20
-0.04838712
5.849458e-20
-0.04838712
6.4202838e-20
-0.04838712
7.0311263e-20
-0.04838712
7.6833737e-20
-0.04838712
8.3781926e-20
-0.04838712
9.1164799e-20
-0.04838712
9.8988448e-20
-0.04838712
1.0725559e-19
-0.04838712
1.1596463e-19
-0.04838712
1.2510949e-19
-0.04838712
1.3467917e-19
-0.04838712
1.4465713e-19
-0.04838712
1.5502062e-19
-0.04838712
1.6574055e-19
-0.04838712
1.7678071e-19
-0.04838712
1.8809787e-19
-0.04838712
1.9964121e-19
-0.04838712
2.1135219e-19
-0.04838712
2.2316486e-19
-0.04838712
2.3500574e-19
-0.04838712
2.4679469e-19
-0.04838712
2.5844448e-19
-0.04838712
2.6986278e-19
-0.04838712
2.8095258e-19
-0.04838712
2.9161353e-19
-0.04838712
3.017433e-19
-0.04838712
3.1124006e-19
-0.04838712
3.2000297e-19
-0.04838712
3.2793539e-19
-0.04838712
3.3494628e-19
-0.04838712
3.4095252e-19
-0.04838712
3.4588053e-19
-0.04838712
3.4966899e-19
-0.04838712
3.5226863e-19
-0.04838712
3.536456e-19
-0.04838712
3.5378109e-19
-0.04838712
3.5267226e-19
-0.04838712
3.5033254e-19
-0.04838712
3.4679108e-19
-0.04838712
3.4209225e-19
-0.04838712
3.3629452e-19
-0.04838712
3.29469e-19
-0.04838712
3.2169775e-19
-0.04838712
3.1307179e-19
-0.04838712
3.0368969e-19
-0.04838712
2.9365423e-19
-0.04838712
2.8307144e-19
-0.04838712
2.7204809e-19
-0.04838712
2.6068992e-19
-0.04838712
2.4910002e-19
-0.04838712
2.3737709e-19
-0.04838712
2.2561481e-19
-0.04838712
2.1389994e-19
-0.04838712
2.0231256e-19
-0.04838712
1.9092499e-19
-0.04838712
1.798017e-19
-0.04838712
1.6899925e-19
-0.04838712
1.5856677e-19
-0.04838712
1.4854542e-19
-0.04838712
1.3896957e-19
-0.04838712
1.29867e-19
-0.04838712
1.2125956e-19
-0.04838712
1.1316361e-19
-0.04838712
1.0559104e-19
-0.04838712
9.8549447e-20
-0.04838712
9.2043317e-20
-0.04838712
8.6074386e-20
-0.04838712
8.0642406e-20
-0.04838712
7.5745752e-20
-0.04838712
7.1382182e-20
-0.04838712
6.7549137e-20
-0.04838712
6.424451e-20
-0.04838712
6.1466672e-20
-0.04838712
5.921384e-20
-0.04838712
5.7481437e-20
-0.04838712
5.6254753e-20
-0.04838712
5.5497396e-20
5.5182573e-20
-0.04838709
1.7732873e-18
-0.04838709
2.6869417e-19
-0.04838709
4.6784356e-20
-0.04838709
6.3213386e-21
-0.04838709
-2.1556678e-21
-0.04838709
-3.8017641e-21
-0.04838709
-4.0031341e-21
-0.04838709
-4.0669124e-21
-0.04838709
-4.2610504e-21
-0.04838709
-4.5754261e-21
-0.04838709
-4.9413002e-21
-0.04838709
-5.2942552e-21
-0.04838709
-5.5873153e-21
-0.04838709
-5.7903867e-21
-0.04838709
-5.8857744e-21
-0.04838709
-5.864565e-21
-0.04838709
-5.723001e-21
-0.04838709
-5.4607629e-21
-0.04838709
-5.0792055e-21
-0.04838709
-4.5807989e-21
-0.04838709
-3.9679502e-21
-0.04838709
-3.242956e-21
-0.04838709
-2.4075074e-21
-0.04838709
-1.4627544e-21
-0.04838709
-4.0872503e-22
-0.04838709
7.5561069e-22
-0.04838709
2.0324187e-21
-0.04838709
3.4250626e-21
-0.04838709
4.9383589e-21
-0.04838709
6.5787391e-21
-0.04838709
8.3539064e-21
-0.04838709
1.0273143e-20
-0.04838709
1.2347403e-20
-0.04838709
1.4589053e-20
-0.04838709
1.7012268e-20
-0.04838709
1.9632041e-20
-0.04838709
2.2465485e-20
-0.04838709
2.553039e-20
-0.04838709
2.8846343e-20
-0.04838709
3.2432902e-20
-0.04838709
3.6311604e-20
-0.04838709
4.0503644e-20
-0.04838709
4.5031421e-20
-0.04838709
4.9916745e-20
-0.04838709
5.5181722e-20
-0.04838709
6.0848072e-20
-0.04838709
6.6936622e-20
-0.04838709
7.3466994e-20
-0.04838709
8.045736e-20
-0.04838709
8.7924116e-20
-0.04838709
9.588111e-20
-0.04838709
1.0433907e-19
-0.04838709
1.1330549e-19
-0.04838709
1.2278409e-19
-0.04838709
1.3277365e-19
-0.04838709
1.4326773e-19
-0.04838709
1.5425432e-19
-0.04838709
1.6571507e-19
-0.04838709
1.7762448e-19
-0.04838709
1.8994968e-19
-0.04838709
2.0264955e-19
-0.04838709
2.1567492e-19
-0.04838709
2.2896775e-19
-0.04838709
2.4246094e-19
-0.04838709
2.5607871e-19
-0.04838709
2.6973655e-19
-0.04838709
2.8334201e-19
-0.04838709
2.9679422e-19
-0.04838709
3.0998622e-19
-0.04838709
3.2280546e-19
-0.04838709
3.3513532e-19
-0.04838709
3.4685661e-19
-0.04838709
3.5785057e-19
-0.04838709
3.6799943e-19
-0.04838709
3.7719019e-19
-0.04838709
3.8531624e-19
-0.04838709
3.9228008e-19
-0.04838709
3.9799542e-19
-0.04838709
4.0239018e-19
-0.04838709
4.0540645e-19
-0.04838709
4.0700437e-19
-0.04838709
4.0716176e-19
-0.04838709
4.0587521e-19
-0.04838709
4.0316044e-19
-0.04838709
3.9905162e-19
-0.04838709
3.9360085e-19
-0.04838709
3.868767e-19
-0.04838709
3.789626e-19
-0.04838709
3.6995476e-19
-0.04838709
3.5995977e-19
-0.04838709
3.4909296e-19
-0.04838709
3.3747447e-19
-0.04838709
3.2522811e-19
-0.04838709
3.1247831e-19
-0.04838709
2.9934813e-19
-0.04838709
2.8595738e-19
-0.04838709
2.7242056e-19
-0.04838709
2.5884609e-19
-0.04838709
2.4533416e-19
-0.04838709
2.319771e-19
-0.04838709
2.1885804e-19
-0.04838709
2.0605089e-19
-0.04838709
1.9362025e-19
-0.04838709
1.8162212e-19
-0.04838709
1.7010317e-19
-0.04838709
1.5910216e-19
-0.04838709
1.4865025e-19
-0.04838709
1.3877174e-19
-0.04838709
1.2948462e-19
-0.04838709
1.2080168e-19
-0.04838709
1.1273082e-19
-0.04838709
1.0527634e-19
-0.04838709
9.8439407e-20
-0.04838709
9.2218808e-20
-0.04838709
8.6611687e-20
-0.04838709
8.1614309e-20
-0.04838709
7.7222262e-20
-0.04838709
7.3431145e-20
-0.04838709
7.0236408e-20
-0.04838709
6.7632702e-20
-0.04838709
6.5612044e-20
-0.04838709
6.4159557e-20
-0.04838709
6.3247603e-20
6.2856354e-20
-0.04838709
-1.2356894e-18
-0.04838709
-1.1610685e-19
-0.04838709
-2.9882624e-20
-0.04838709
-1.7870656e-20
-0.04838709
-1.1376595e-20
-0.04838709
-7.4401096e-21
-0.04838709
-5.4919712e-21
-0.04838709
-4.7977232e-21
-0.04838709
-4.7911876e-21
-0.04838709
-5.1133697e-21
-0.04838709
-5.5515611e-21
-0.04838709
-5.983678e-21
-0.04838709
-6.3410737e-21
-0.04838709
-6.5867676e-21
-0.04838709
-6.7019587e-21
-0.04838709
-6.6787562e-21
-0.04838709
-6.5150625e-21
-0.04838709
-6.2122681e-21
-0.04838709
-5.773168e-21
-0.04838709
-5.2014201e-21
-0.04838709
-4.5004251e-21
-0.04838709
-3.6732935e-21
-0.04838709
-2.722265e-21
-0.04838709
-1.6488368e-21
-0.04838709
-4.532809e-22
-0.04838709
8.6533797e-22
-0.04838709
2.3093346e-21
-0.04838709
3.8824549e-21
-0.04838709
5.5899945e-21
-0.04838709
7.439066e-21
-0.04838709
9.4383217e-21
-0.04838709
1.1598285e-20
-0.04838709
1.3931266e-20
-0.04838709
1.6451162e-20
-0.04838709
1.9174033e-20
-0.04838709
2.2116959e-20
-0.04838709
2.5299299e-20
-0.04838709
2.8741168e-20
-0.04838709
3.2464838e-20
-0.04838709
3.6492658e-20
-0.04838709
4.084908e-20
-0.04838709
4.5558167e-20
-0.04838709
5.0645482e-20
-0.04838709
5.6136045e-20
-0.04838709
6.2055082e-20
-0.04838709
6.8427384e-20
-0.04838709
7.5276898e-20
-0.04838709
8.2626346e-20
-0.04838709
9.0496687e-20
-0.04838709
9.8906886e-20
-0.04838709
1.078732e-19
-0.04838709
1.1740852e-19
-0.04838709
1.2752193e-19
-0.04838709
1.3821827e-19
-0.04838709
1.4949695e-19
-0.04838709
1.6135162e-19
-0.04838709
1.7376943e-19
-0.04838709
1.8673037e-19
-0.04838709
2.0020642e-19
-0.04838709
2.1416126e-19
-0.04838709
2.28549e-19
-0.04838709
2.4331453e-19
-0.04838709
2.5839265e-19
-0.04838709
2.737078e-19
-0.04838709
2.8917428e-19
-0.04838709
3.0469617e-19
-0.04838709
3.2016843e-19
-0.04838709
3.3547623e-19
-0.04838709
3.5049739e-19
-0.04838709
3.6510307e-19
-0.04838709
3.7915956e-19
-0.04838709
3.9253001e-19
-0.04838709
4.0507767e-19
-0.04838709
4.1666679e-19
-0.04838709
4.2716687e-19
-0.04838709
4.3645467e-19
-0.04838709
4.4441728e-19
-0.04838709
4.5095466e-19
-0.04838709
4.5598313e-19
-0.04838709
4.5943545e-19
-0.04838709
4.6126523e-19
-0.04838709
4.614466e-19
-0.04838709
4.5997551e-19
-0.04838709
4.5687009e-19
-0.04838709
4.5216993e-19
-0.04838709
4.4593544e-19
-0.04838709
4.3824606e-19
-0.04838709
4.2919842e-19
-0.04838709
4.1890389e-19
-0.04838709
4.074858e-19
-0.04838709
3.9507735e-19
-0.04838709
3.8181712e-19
-0.04838709
3.6784778e-19
-0.04838709
3.5331249e-19
-0.04838709
3.3835256e-19
-0.04838709
3.2310521e-19
-0.04838709
3.0770142e-19
-0.04838709
2.9226494e-19
-0.04838709
2.7690981e-19
-0.04838709
2.6174078e-19
-0.04838709
2.4685199e-19
-0.04838709
2.3232684e-19
-0.04838709
2.1823798e-19
-0.04838709
2.0464803e-19
-0.04838709
1.9160901e-19
-0.04838709
1.7916391e-19
-0.04838709
1.6734694e-19
-0.04838709
1.5618451e-19
-0.04838709
1.4569591e-19
-0.04838709
1.3589458e-19
-0.04838709
1.2678834e-19
-0.04838709
1.1838101e-19
-0.04838709
1.1067281e-19
-0.04838709
1.0366131e-19
-0.04838709
9.7342142e-20
-0.04838709
9.170983e-20
-0.04838709
8.6757935e-20
-0.04838709
8.2479758e-20
-0.04838709
7.8868131e-20
-0.04838709
7.591487e-20
-0.04838709
7.3609555e-20
-0.04838709
7.1937482e-20
-0.04838709
7.0877957e-20
7.0416834e-20
-0.04838709
1.0982399e-18
-0.04838709
-4.1635719e-20
-0.04838709
-7.3565559e-20
-0.04838709
-3.9608743e-20
-0.04838709
-1.9458994e-20