/*--------------------------------*- C++ -*----------------------------------*\
| =========                 |                                                 |
| \\      /  F ield         | foam-extend: Open Source CFD                    |
|  \\    /   O peration     | Version:     4.1                                |
|   \\  /    A nd           | Web:         http://www.foam-extend.org         |
|    \\/     M anipulation  |                                                 |
\*---------------------------------------------------------------------------*/
FoamFile
{
    version     2.0;
    format      ascii;
    class       volVectorField;
    location    "0";
    object      U;
}
// * * * * * * * * * * * * * * * * * * * * * * * * * * * * * * * * * * * * * //

dimensions      [0 1 -1 0 0 0 0];

internalField   nonuniform List<vector> 
16126
(
(1 2.4632244e-15 0)
(1 5.1861916e-16 0)
(1 1.2507256e-16 0)
(1 3.3644358e-17 0)
(1 1.0026298e-17 0)
(1 3.4943948e-18 0)
(1 1.647485e-18 0)
(1 1.1587573e-18 0)
(1 1.0767371e-18 0)
(1 1.1182854e-18 0)
(1 1.1966204e-18 0)
(1 1.2840318e-18 0)
(1 1.3705764e-18 0)
(1 1.4519873e-18 0)
(1 1.5258228e-18 0)
(1 1.5906885e-18 0)
(1 1.6456874e-18 0)
(1 1.6904769e-18 0)
(1 1.724849e-18 0)
(1 1.7489353e-18 0)
(1 1.762874e-18 0)
(1 1.7669958e-18 0)
(1 1.7614142e-18 0)
(1 1.7463428e-18 0)
(1 1.7217729e-18 0)
(1 1.6877481e-18 0)
(1 1.6439302e-18 0)
(1 1.5900054e-18 0)
(1 1.5253353e-18 0)
(1 1.449296e-18 0)
(1 1.3607939e-18 0)
(1 1.2587454e-18 0)
(1 1.1416984e-18 0)
(1 1.0082342e-18 0)
(1 8.5640012e-19 0)
(1 6.8432369e-19 0)
(1 4.8972953e-19 0)
(1 2.7045258e-19 0)
(1 2.3791932e-20 0)
(1 -2.5277933e-19 0)
(1 -5.6215034e-19 0)
(1 -9.069863e-19 0)
(1 -1.2904386e-18 0)
(1 -1.7153423e-18 0)
(1 -2.1847846e-18 0)
(1 -2.7014922e-18 0)
(1 -3.2685343e-18 0)
(1 -3.8884856e-18 0)
(1 -4.5639986e-18 0)
(1 -5.2971578e-18 0)
(1 -6.0901922e-18 0)
(1 -6.9445832e-18 0)
(1 -7.8616578e-18 0)
(1 -8.8419104e-18 0)
(1 -9.8857087e-18 0)
(1 -1.0992383e-17 0)
(1 -1.2160819e-17 0)
(1 -1.3388793e-17 0)
(1 -1.467366e-17 0)
(1 -1.6011467e-17 0)
(1 -1.7397549e-17 0)
(1 -1.8825936e-17 0)
(1 -2.0290024e-17 0)
(1 -2.1781779e-17 0)
(1 -2.3292377e-17 0)
(1 -2.4811727e-17 0)
(1 -2.6329149e-17 0)
(1 -2.7832757e-17 0)
(1 -2.9310144e-17 0)
(1 -3.0748101e-17 0)
(1 -3.2133289e-17 0)
(1 -3.3451867e-17 0)
(1 -3.4690186e-17 0)
(1 -3.5834708e-17 0)
(1 -3.6872629e-17 0)
(1 -3.779171e-17 0)
(1 -3.8580888e-17 0)
(1 -3.9230331e-17 0)
(1 -3.9731859e-17 0)
(1 -4.0078877e-17 0)
(1 -4.0266767e-17 0)
(1 -4.0292927e-17 0)
(1 -4.0156868e-17 0)
(1 -3.986015e-17 0)
(1 -3.9406418e-17 0)
(1 -3.8801369e-17 0)
(1 -3.8052481e-17 0)
(1 -3.7168926e-17 0)
(1 -3.6161285e-17 0)
(1 -3.5041478e-17 0)
(1 -3.3822227e-17 0)
(1 -3.2517024e-17 0)
(1 -3.1139685e-17 0)
(1 -2.9704327e-17 0)
(1 -2.8224763e-17 0)
(1 -2.6714633e-17 0)
(1 -2.5186923e-17 0)
(1 -2.3654109e-17 0)
(1 -2.212759e-17 0)
(1 -2.0618032e-17 0)
(1 -1.9134946e-17 0)
(1 -1.7686976e-17 0)
(1 -1.6281464e-17 0)
(1 -1.4924914e-17 0)
(1 -1.3622663e-17 0)
(1 -1.2379248e-17 0)
(1 -1.1198087e-17 0)
(1 -1.0081986e-17 0)
(1 -9.0328912e-18 0)
(1 -8.0522195e-18 0)
(1 -7.1406883e-18 0)
(1 -6.2987415e-18 0)
(1 -5.5264055e-18 0)
(1 -4.8235273e-18 0)
(1 -4.1898188e-18 0)
(1 -3.6251794e-18 0)
(1 -3.129855e-18 0)
(1 -2.7049515e-18 0)
(1 -2.3540196e-18 0)
(1 -2.0881566e-18 0)
(1 -1.9461163e-18 0)
(1 -2.0771803e-18 0)
(1 -3.1379798e-18 0)
(1 -8.6058775e-18 0)
(1 3.2731855e-15 0)
(1 8.6630144e-16 0)
(1 2.4067489e-16 0)
(1 7.0457789e-17 0)
(1 2.207598e-17 0)
(1 7.9182145e-18 0)
(1 3.7800339e-18 0)
(1 2.6578828e-18 0)
(1 2.4557705e-18 0)
(1 2.5334886e-18 0)
(1 2.6915776e-18 0)
(1 2.8647832e-18 0)
(1 3.028444e-18 0)
(1 3.1708832e-18 0)
(1 3.2850238e-18 0)
(1 3.3664401e-18 0)
(1 3.412244e-18 0)
(1 3.4209815e-18 0)
(1 3.3918986e-18 0)
(1 3.3250523e-18 0)
(1 3.2206598e-18 0)
(1 3.0792673e-18 0)
(1 2.9011247e-18 0)
(1 2.6865464e-18 0)
(1 2.4353551e-18 0)
(1 2.1472508e-18 0)
(1 1.8212115e-18 0)
(1 1.4560228e-18 0)
(1 1.0497073e-18 0)
(1 6.0001591e-19 0)
(1 1.0378411e-19 0)
(1 -4.424147e-19 0)
(1 -1.0428728e-18 0)
(1 -1.7021545e-18 0)
(1 -2.4258054e-18 0)
(1 -3.2195398e-18 0)
(1 -4.089925e-18 0)
(1 -5.0436539e-18 0)
(1 -6.0883148e-18 0)
(1 -7.2314416e-18 0)
(1 -8.4812447e-18 0)
(1 -9.8457733e-18 0)
(1 -1.1333738e-17 0)
(1 -1.295342e-17 0)
(1 -1.4713435e-17 0)
(1 -1.6621809e-17 0)
(1 -1.8686804e-17 0)
(1 -2.0915722e-17 0)
(1 -2.3315672e-17 0)
(1 -2.5892562e-17 0)
(1 -2.8651919e-17 0)
(1 -3.1597596e-17 0)
(1 -3.4732525e-17 0)
(1 -3.8057662e-17 0)
(1 -4.1572777e-17 0)
(1 -4.5275116e-17 0)
(1 -4.916014e-17 0)
(1 -5.3220497e-17 0)
(1 -5.7446792e-17 0)
(1 -6.1826308e-17 0)
(1 -6.6343778e-17 0)
(1 -7.0980495e-17 0)
(1 -7.5715141e-17 0)
(1 -8.0522724e-17 0)
(1 -8.5375474e-17 0)
(1 -9.0242276e-17 0)
(1 -9.5089643e-17 0)
(1 -9.9881064e-17 0)
(1 -1.0457812e-16 0)
(1 -1.0914037e-16 0)
(1 -1.1352656e-16 0)
(1 -1.1769443e-16 0)
(1 -1.2160206e-16 0)
(1 -1.2520821e-16 0)
(1 -1.2847355e-16 0)
(1 -1.3136092e-16 0)
(1 -1.3383655e-16 0)
(1 -1.358706e-16 0)
(1 -1.3743813e-16 0)
(1 -1.3851932e-16 0)
(1 -1.3910026e-16 0)
(1 -1.3917325e-16 0)
(1 -1.3873702e-16 0)
(1 -1.377967e-16 0)
(1 -1.3636377e-16 0)
(1 -1.3445587e-16 0)
(1 -1.3209626e-16 0)
(1 -1.2931336e-16 0)
(1 -1.2613999e-16 0)
(1 -1.2261285e-16 0)
(1 -1.1877142e-16 0)
(1 -1.1465742e-16 0)
(1 -1.1031373e-16 0)
(1 -1.0578391e-16 0)
(1 -1.0111102e-16 0)
(1 -9.6337377e-17 0)
(1 -9.1503564e-17 0)
(1 -8.6648313e-17 0)
(1 -8.1807566e-17 0)
(1 -7.7014735e-17 0)
(1 -7.2299981e-17 0)
(1 -6.7690539e-17 0)
(1 -6.3210125e-17 0)
(1 -5.8879563e-17 0)
(1 -5.4716382e-17 0)
(1 -5.0735388e-17 0)
(1 -4.6948359e-17 0)
(1 -4.3364835e-17 0)
(1 -3.9991947e-17 0)
(1 -3.6834987e-17 0)
(1 -3.3897355e-17 0)
(1 -3.1181289e-17 0)
(1 -2.868789e-17 0)
(1 -2.6417612e-17 0)
(1 -2.4370568e-17 0)
(1 -2.2547297e-17 0)
(1 -2.0949556e-17 0)
(1 -1.9581858e-17 0)
(1 -1.8455364e-17 0)
(1 -1.7598559e-17 0)
(1 -1.7093407e-17 0)
(1 -1.7201795e-17 0)
(1 -1.8828884e-17 0)
(1 -2.532791e-17 0)
(1 8.9210316e-16 0)
(1 4.2215951e-16 0)
(1 1.5366933e-16 0)
(1 5.2870379e-17 0)
(1 1.8612799e-17 0)
(1 7.5349659e-18 0)
(1 4.1647716e-18 0)
(1 3.2852316e-18 0)
(1 3.1898444e-18 0)
(1 3.3320477e-18 0)
(1 3.5359172e-18 0)
(1 3.7398124e-18 0)
(1 3.9165566e-18 0)
(1 4.0503489e-18 0)
(1 4.13035e-18 0)
(1 4.1491272e-18 0)
(1 4.1018183e-18 0)
(1 3.9857206e-18 0)
(1 3.7995459e-18 0)
(1 3.5430737e-18 0)
(1 3.2165546e-18 0)
(1 2.8205466e-18 0)
(1 2.3554159e-18 0)
(1 1.8213199e-18 0)
(1 1.2178573e-18 0)
(1 5.4416382e-19 0)
(1 -2.0145319e-19 0)
(1 -1.0213616e-18 0)
(1 -1.9188825e-18 0)
(1 -2.8980769e-18 0)
(1 -3.9640914e-18 0)
(1 -5.1229024e-18 0)
(1 -6.3815696e-18 0)
(1 -7.7479325e-18 0)
(1 -9.230927e-18 0)
(1 -1.0840268e-17 0)
(1 -1.2586625e-17 0)
(1 -1.4481268e-17 0)
(1 -1.6536341e-17 0)
(1 -1.8764462e-17 0)
(1 -2.1178849e-17 0)
(1 -2.3792881e-17 0)
(1 -2.6620351e-17 0)
(1 -2.9674963e-17 0)
(1 -3.2970418e-17 0)
(1 -3.6519864e-17 0)
(1 -4.0336139e-17 0)
(1 -4.4431142e-17 0)
(1 -4.8815862e-17 0)
(1 -5.3499735e-17 0)
(1 -5.8490836e-17 0)
(1 -6.379515e-17 0)
(1 -6.9416525e-17 0)
(1 -7.5355964e-17 0)
(1 -8.1611776e-17 0)
(1 -8.817878e-17 0)
(1 -9.504823e-17 0)
(1 -1.0220712e-16 0)
(1 -1.0963834e-16 0)
(1 -1.1731996e-16 0)
(1 -1.2522527e-16 0)
(1 -1.3332216e-16 0)
(1 -1.4157357e-16 0)
(1 -1.49937e-16 0)
(1 -1.583648e-16 0)
(1 -1.6680407e-16 0)
(1 -1.7519743e-16 0)
(1 -1.834831e-16 0)
(1 -1.9159566e-16 0)
(1 -1.9946664e-16 0)
(1 -2.0702575e-16 0)
(1 -2.1420166e-16 0)
(1 -2.2092328e-16 0)
(1 -2.2712089e-16 0)
(1 -2.3272772e-16 0)
(1 -2.3768116e-16 0)
(1 -2.4192412e-16 0)
(1 -2.4540625e-16 0)
(1 -2.4808535e-16 0)
(1 -2.4992824e-16 0)
(1 -2.5091161e-16 0)
(1 -2.5102263e-16 0)
(1 -2.5025942e-16 0)
(1 -2.4863105e-16 0)
(1 -2.4615733e-16 0)
(1 -2.4286843e-16 0)
(1 -2.3880417e-16 0)
(1 -2.3401307e-16 0)
(1 -2.2855123e-16 0)
(1 -2.2248113e-16 0)
(1 -2.1587022e-16 0)
(1 -2.0878959e-16 0)
(1 -2.0131248e-16 0)
(1 -1.9351309e-16 0)
(1 -1.8546509e-16 0)
(1 -1.7724065e-16 0)
(1 -1.6890924e-16 0)
(1 -1.6053701e-16 0)
(1 -1.5218576e-16 0)
(1 -1.4391269e-16 0)
(1 -1.3576978e-16 0)
(1 -1.2780386e-16 0)
(1 -1.2005619e-16 0)
(1 -1.1256275e-16 0)
(1 -1.0535426e-16 0)
(1 -9.8456615e-17 0)
(1 -9.1890931e-17 0)
(1 -8.5674135e-17 0)
(1 -7.9819328e-17 0)
(1 -7.4336332e-17 0)
(1 -6.9231986e-17 0)
(1 -6.4510804e-17 0)
(1 -6.0175517e-17 0)
(1 -5.6227669e-17 0)
(1 -5.266824e-17 0)
(1 -4.9498633e-17 0)
(1 -4.6722156e-17 0)
(1 -4.4346257e-17 0)
(1 -4.2387031e-17 0)
(1 -4.0878633e-17 0)
(1 -3.9896024e-17 0)
(1 -3.9604637e-17 0)
(1 -4.0288631e-17 0)
(1 -4.1498774e-17 0)
(1 -4.8711051e-16 0)
(1 -1.1146727e-16 0)
(1 -7.7897599e-18 0)
(1 5.8101981e-18 0)
(1 4.9738067e-18 0)
(1 3.878297e-18 0)
(1 3.6214147e-18 0)
(1 3.7704723e-18 0)
(1 4.0532628e-18 0)
(1 4.3678175e-18 0)
(1 4.6758189e-18 0)
(1 4.9547785e-18 0)
(1 5.1854143e-18 0)
(1 5.3507953e-18 0)
(1 5.4371511e-18 0)
(1 5.434459e-18 0)
(1 5.33622e-18 0)
(1 5.1389519e-18 0)
(1 4.8411258e-18 0)
(1 4.4425317e-18 0)
(1 3.9436795e-18 0)
(1 3.3454906e-18 0)
(1 2.6485857e-18 0)
(1 1.8531133e-18 0)
(1 9.5854949e-19 0)
(1 -3.6260254e-20 0)
(1 -1.1336322e-18 0)
(1 -2.337013e-18 0)
(1 -3.6510373e-18 0)
(1 -5.0813429e-18 0)
(1 -6.6350797e-18 0)
(1 -8.3207682e-18 0)
(1 -1.0148282e-17 0)
(1 -1.2128531e-17 0)
(1 -1.4273967e-17 0)
(1 -1.6598352e-17 0)
(1 -1.9116611e-17 0)
(1 -2.1844436e-17 0)
(1 -2.4798756e-17 0)
(1 -2.7997398e-17 0)
(1 -3.1458846e-17 0)
(1 -3.5201724e-17 0)
(1 -3.9245242e-17 0)
(1 -4.3608757e-17 0)
(1 -4.8311412e-17 0)
(1 -5.3371493e-17 0)
(1 -5.8806851e-17 0)
(1 -6.463432e-17 0)
(1 -7.0869244e-17 0)
(1 -7.7524699e-17 0)
(1 -8.4611857e-17 0)
(1 -9.213927e-17 0)
(1 -1.0011228e-16 0)
(1 -1.0853215e-16 0)
(1 -1.1739634e-16 0)
(1 -1.2669776e-16 0)
(1 -1.3642409e-16 0)
(1 -1.4655692e-16 0)
(1 -1.5707206e-16 0)
(1 -1.679389e-16 0)
(1 -1.7911981e-16 0)
(1 -1.9056954e-16 0)
(1 -2.0223581e-16 0)
(1 -2.1405896e-16 0)
(1 -2.2597187e-16 0)
(1 -2.3789991e-16 0)
(1 -2.4976208e-16 0)
(1 -2.6147138e-16 0)
(1 -2.7293552e-16 0)
(1 -2.8405775e-16 0)
(1 -2.947387e-16 0)
(1 -3.0487771e-16 0)
(1 -3.143743e-16 0)
(1 -3.2312979e-16 0)
(1 -3.3104968e-16 0)
(1 -3.3804544e-16 0)
(1 -3.4403628e-16 0)
(1 -3.489509e-16 0)
(1 -3.527295e-16 0)
(1 -3.5532517e-16 0)
(1 -3.5670497e-16 0)
(1 -3.5685076e-16 0)
(1 -3.5575994e-16 0)
(1 -3.5344548e-16 0)
(1 -3.4993559e-16 0)
(1 -3.4527316e-16 0)
(1 -3.3951472e-16 0)
(1 -3.3272914e-16 0)
(1 -3.2499603e-16 0)
(1 -3.1640406e-16 0)
(1 -3.0704885e-16 0)
(1 -2.970311e-16 0)
(1 -2.8645459e-16 0)
(1 -2.7542439e-16 0)
(1 -2.640448e-16 0)
(1 -2.5241781e-16 0)
(1 -2.4064168e-16 0)
(1 -2.2880989e-16 0)
(1 -2.1700979e-16 0)
(1 -2.0532198e-16 0)
(1 -1.9381984e-16 0)
(1 -1.8256942e-16 0)
(1 -1.7162892e-16 0)
(1 -1.6104889e-16 0)
(1 -1.5087258e-16 0)
(1 -1.4113645e-16 0)
(1 -1.3187024e-16 0)
(1 -1.2309762e-16 0)
(1 -1.1483694e-16 0)
(1 -1.07102e-16 0)
(1 -9.9902371e-17 0)
(1 -9.3244245e-17 0)
(1 -8.7131281e-17 0)
(1 -8.1565458e-17 0)
(1 -7.6547809e-17 0)
(1 -7.2079595e-17 0)
(1 -6.8164038e-17 0)
(1 -6.4808658e-17 0)
(1 -6.2029094e-17 0)
(1 -5.9854653e-17 0)
(1 -5.8335016e-17 0)
(1 -5.7537204e-17 0)
(1 -5.7467655e-17 0)
(1 -5.7622561e-17 0)
(1 -2.4662634e-15 0)
(1 -5.2421309e-16 0)
(1 -1.2920307e-16 0)
(1 -3.4818885e-17 0)
(1 -8.5312392e-18 0)
(1 -1.2843836e-19 0)
(1 2.9242473e-18 0)
(1 4.2269873e-18 0)
(1 4.9375823e-18 0)
(1 5.4459161e-18 0)
(1 5.8725747e-18 0)
(1 6.2399158e-18 0)
(1 6.5369947e-18 0)
(1 6.7452592e-18 0)
(1 6.8477943e-18 0)
(1 6.8321779e-18 0)
(1 6.6905682e-18 0)
(1 6.4190207e-18 0)
(1 6.0161002e-18 0)
(1 5.4819741e-18 0)
(1 4.817626e-18 0)
(1 4.024469e-18 0)
(1 3.1035124e-18 0)
(1 2.055098e-18 0)
(1 8.7864657e-19 0)
(1 -4.2727869e-19 0)
(1 -1.8655688e-18 0)
(1 -3.4405958e-18 0)
(1 -5.1582962e-18 0)
(1 -7.0259324e-18 0)
(1 -9.0526519e-18 0)
(1 -1.1249391e-17 0)
(1 -1.3628866e-17 0)
(1 -1.6205164e-17 0)
(1 -1.8994288e-17 0)
(1 -2.2013946e-17 0)
(1 -2.5283398e-17 0)
(1 -2.8822921e-17 0)
(1 -3.2654308e-17 0)
(1 -3.6800531e-17 0)
(1 -4.1285465e-17 0)
(1 -4.6133204e-17 0)
(1 -5.1368506e-17 0)
(1 -5.7016349e-17 0)
(1 -6.3101499e-17 0)
(1 -6.9647671e-17 0)
(1 -7.6677919e-17 0)
(1 -8.4214025e-17 0)
(1 -9.2275928e-17 0)
(1 -1.008807e-16 0)
(1 -1.1004286e-16 0)
(1 -1.1977359e-16 0)
(1 -1.3008002e-16 0)
(1 -1.4096407e-16 0)
(1 -1.5242265e-16 0)
(1 -1.6444683e-16 0)
(1 -1.7702102e-16 0)
(1 -1.9012179e-16 0)
(1 -2.0371816e-16 0)
(1 -2.1777081e-16 0)
(1 -2.3223146e-16 0)
(1 -2.4704194e-16 0)
(1 -2.6213486e-16 0)
(1 -2.7743323e-16 0)
(1 -2.9285043e-16 0)
(1 -3.0829006e-16 0)
(1 -3.2364726e-16 0)
(1 -3.3880935e-16 0)
(1 -3.5365673e-16 0)
(1 -3.6806395e-16 0)
(1 -3.8190194e-16 0)
(1 -3.9503987e-16 0)
(1 -4.0734709e-16 0)
(1 -4.1869526e-16 0)
(1 -4.2896127e-16 0)
(1 -4.3802976e-16 0)
(1 -4.4579544e-16 0)
(1 -4.5216535e-16 0)
(1 -4.5706147e-16 0)
(1 -4.6042254e-16 0)
(1 -4.6220559e-16 0)
(1 -4.62387e-16 0)
(1 -4.6096335e-16 0)
(1 -4.5795159e-16 0)
(1 -4.5338862e-16 0)
(1 -4.4733045e-16 0)
(1 -4.398509e-16 0)
(1 -4.3103988e-16 0)
(1 -4.2100126e-16 0)
(1 -4.0985068e-16 0)
(1 -3.9771281e-16 0)
(1 -3.8471883e-16 0)
(1 -3.7100385e-16 0)
(1 -3.5670456e-16 0)
(1 -3.4195655e-16 0)
(1 -3.2689232e-16 0)
(1 -3.1163935e-16 0)
(1 -2.9631883e-16 0)
(1 -2.8104392e-16 0)
(1 -2.659189e-16 0)
(1 -2.5103858e-16 0)
(1 -2.3648818e-16 0)
(1 -2.2234272e-16 0)
(1 -2.0866729e-16 0)
(1 -1.9551741e-16 0)
(1 -1.8293977e-16 0)
(1 -1.7097243e-16 0)
(1 -1.5964557e-16 0)
(1 -1.4898243e-16 0)
(1 -1.3900036e-16 0)
(1 -1.2971129e-16 0)
(1 -1.2112275e-16 0)
(1 -1.1323893e-16 0)
(1 -1.0606173e-16 0)
(1 -9.9591651e-17 0)
(1 -9.3829055e-17 0)
(1 -8.8775866e-17 0)
(1 -8.4437623e-17 0)
(1 -8.0826085e-17 0)
(1 -7.7961162e-17 0)
(1 -7.5867876e-17 0)
(1 -7.4554536e-17 0)
(1 -7.3946792e-17 0)
(1 -7.3780648e-17 0)
(1 -3.3058919e-16 0)
(1 -2.4938779e-16 0)
(1 -1.1700614e-16 0)
(1 -4.5184959e-17 0)
(1 -1.4089893e-17 0)
(1 -1.7602383e-18 0)
(1 3.0014346e-18 0)
(1 4.9427443e-18 0)
(1 5.9073857e-18 0)
(1 6.5553227e-18 0)
(1 7.0900234e-18 0)
(1 7.5498919e-18 0)
(1 7.9209895e-18 0)
(1 8.1788532e-18 0)
(1 8.302167e-18 0)
(1 8.2761309e-18 0)
(1 8.0919688e-18 0)
(1 7.7456813e-18 0)
(1 7.2363456e-18 0)
(1 6.5649268e-18 0)
(1 5.7331776e-18 0)
(1 4.7431278e-18 0)
(1 3.5963122e-18 0)
(1 2.293463e-18 0)
(1 8.3406342e-19 0)
(1 -7.8362866e-19 0)
(1 -2.5630426e-18 0)
(1 -4.5093378e-18 0)
(1 -6.6296871e-18 0)
(1 -8.9330647e-18 0)
(1 -1.1430628e-17 0)
(1 -1.4135618e-17 0)
(1 -1.7063569e-17 0)
(1 -2.0231893e-17 0)
(1 -2.3660205e-17 0)
(1 -2.7370082e-17 0)
(1 -3.1385132e-17 0)
(1 -3.5730431e-17 0)
(1 -4.0432748e-17 0)
(1 -4.5520154e-17 0)
(1 -5.102197e-17 0)
(1 -5.6968037e-17 0)
(1 -6.3388828e-17 0)
(1 -7.0314932e-17 0)
(1 -7.7776844e-17 0)
(1 -8.5804051e-17 0)
(1 -9.4425036e-17 0)
(1 -1.0366657e-16 0)
(1 -1.1355334e-16 0)
(1 -1.2410685e-16 0)
(1 -1.3534523e-16 0)
(1 -1.472824e-16 0)
(1 -1.5992747e-16 0)
(1 -1.7328349e-16 0)
(1 -1.8734715e-16 0)
(1 -2.021078e-16 0)
(1 -2.1754676e-16 0)
(1 -2.3363606e-16 0)
(1 -2.5033817e-16 0)
(1 -2.6760511e-16 0)
(1 -2.8537801e-16 0)
(1 -3.0358611e-16 0)
(1 -3.2214691e-16 0)
(1 -3.4096591e-16 0)
(1 -3.5993674e-16 0)
(1 -3.7894113e-16 0)
(1 -3.9785003e-16 0)
(1 -4.1652441e-16 0)
(1 -4.3481667e-16 0)
(1 -4.5257201e-16 0)
(1 -4.6963082e-16 0)
(1 -4.8583099e-16 0)
(1 -5.010106e-16 0)
(1 -5.150106e-16 0)
(1 -5.2767816e-16 0)
(1 -5.3886984e-16 0)
(1 -5.4845472e-16 0)
(1 -5.5631725e-16 0)
(1 -5.623603e-16 0)
(1 -5.6650752e-16 0)
(1 -5.6870536e-16 0)
(1 -5.6892441e-16 0)
(1 -5.6716039e-16 0)
(1 -5.6343438e-16 0)
(1 -5.577923e-16 0)
(1 -5.503039e-16 0)
(1 -5.4106108e-16 0)
(1 -5.3017574e-16 0)
(1 -5.1777711e-16 0)
(1 -5.0400886e-16 0)
(1 -4.8902592e-16 0)
(1 -4.729912e-16 0)
(1 -4.5607229e-16 0)
(1 -4.384385e-16 0)
(1 -4.2025773e-16 0)
(1 -4.0169391e-16 0)
(1 -3.8290455e-16 0)
(1 -3.6403902e-16 0)
(1 -3.4523676e-16 0)
(1 -3.2662618e-16 0)
(1 -3.0832374e-16 0)
(1 -2.9043381e-16 0)
(1 -2.7304823e-16 0)
(1 -2.5624658e-16 0)
(1 -2.4009652e-16 0)
(1 -2.2465466e-16 0)
(1 -2.0996702e-16 0)
(1 -1.9607007e-16 0)
(1 -1.8299161e-16 0)
(1 -1.707521e-16 0)
(1 -1.5936541e-16 0)
(1 -1.4884007e-16 0)
(1 -1.3918037e-16 0)
(1 -1.3038764e-16 0)
(1 -1.2246126e-16 0)
(1 -1.1539997e-16 0)
(1 -1.0920345e-16 0)
(1 -1.0387388e-16 0)
(1 -9.9417487e-17 0)
(1 -9.5844389e-17 0)
(1 -9.3162174e-17 0)
(1 -9.1351768e-17 0)
(1 -9.0321155e-17 0)
(1 -8.994068e-17 0)
(1 1.4751355e-15 0)
(1 2.6880684e-18 0)
(1 -7.7896902e-17 0)
(1 -3.745519e-17 0)
(1 -1.1314013e-17 0)
(1 -3.5247794e-20 0)
(1 4.3242451e-18 0)
(1 6.0834996e-18 0)
(1 7.0076493e-18 0)
(1 7.7034366e-18 0)
(1 8.3277077e-18 0)
(1 8.884778e-18 0)
(1 9.3391981e-18 0)
(1 9.6544293e-18 0)
(1 9.8032829e-18 0)
(1 9.7687552e-18 0)
(1 9.5417722e-18 0)
(1 9.1189335e-18 0)
(1 8.5003893e-18 0)
(1 7.6883388e-18 0)
(1 6.6856298e-18 0)
(1 5.4951329e-18 0)
(1 4.1190862e-18 0)
(1 2.5587492e-18 0)
(1 8.1377589e-19 0)
(1 -1.1178131e-18 0)
(1 -3.2399177e-18 0)
(1 -5.5584269e-18 0)
(1 -8.0817039e-18 0)
(1 -1.0820423e-17 0)
(1 -1.3787733e-17 0)
(1 -1.6999176e-17 0)
(1 -2.0473103e-17 0)
(1 -2.42303e-17 0)
(1 -2.8294029e-17 0)
(1 -3.2689788e-17 0)
(1 -3.7445587e-17 0)
(1 -4.2591408e-17 0)
(1 -4.8159089e-17 0)
(1 -5.4181904e-17 0)
(1 -6.0694733e-17 0)
(1 -6.7733328e-17 0)
(1 -7.5334027e-17 0)
(1 -8.3533198e-17 0)
(1 -9.2367237e-17 0)
(1 -1.0187163e-16 0)
(1 -1.1208052e-16 0)
(1 -1.2302589e-16 0)
(1 -1.3473744e-16 0)
(1 -1.4724137e-16 0)
(1 -1.6055977e-16 0)
(1 -1.7470956e-16 0)
(1 -1.8970217e-16 0)
(1 -2.0554213e-16 0)
(1 -2.2222625e-16 0)
(1 -2.3974248e-16 0)
(1 -2.580694e-16 0)
(1 -2.7717479e-16 0)
(1 -2.9701489e-16 0)
(1 -3.1753329e-16 0)
(1 -3.3866071e-16 0)
(1 -3.6031389e-16 0)
(1 -3.8239531e-16 0)
(1 -4.0479283e-16 0)
(1 -4.2738015e-16 0)
(1 -4.5001681e-16 0)
(1 -4.7254907e-16 0)
(1 -4.9481092e-16 0)
(1 -5.1662596e-16 0)
(1 -5.3780909e-16 0)
(1 -5.5816906e-16 0)
(1 -5.7751125e-16 0)
(1 -5.9564112e-16 0)
(1 -6.1236747e-16 0)
(1 -6.2750631e-16 0)
(1 -6.408847e-16 0)
(1 -6.5234468e-16 0)
(1 -6.6174683e-16 0)
(1 -6.6897381e-16 0)
(1 -6.7393327e-16 0)
(1 -6.7656042e-16 0)
(1 -6.7681965e-16 0)
(1 -6.7470572e-16 0)
(1 -6.7024405e-16 0)
(1 -6.6349008e-16 0)
(1 -6.5452802e-16 0)
(1 -6.4346883e-16 0)
(1 -6.3044764e-16 0)
(1 -6.1562034e-16 0)
(1 -5.9916012e-16 0)
(1 -5.812536e-16 0)
(1 -5.6209695e-16 0)
(1 -5.4189172e-16 0)
(1 -5.2084116e-16 0)
(1 -4.9914671e-16 0)
(1 -4.7700484e-16 0)
(1 -4.5460401e-16 0)
(1 -4.3212256e-16 0)
(1 -4.0972676e-16 0)
(1 -3.8756957e-16 0)
(1 -3.6578939e-16 0)
(1 -3.4450983e-16 0)
(1 -3.2383951e-16 0)
(1 -3.038724e-16 0)
(1 -2.8468808e-16 0)
(1 -2.6635274e-16 0)
(1 -2.4892006e-16 0)
(1 -2.3243236e-16 0)
(1 -2.1692162e-16 0)
(1 -2.024109e-16 0)
(1 -1.8891559e-16 0)
(1 -1.7644473e-16 0)
(1 -1.6500222e-16 0)
(1 -1.5458827e-16 0)
(1 -1.4520057e-16 0)
(1 -1.3683558e-16 0)
(1 -1.2948994e-16 0)
(1 -1.2316155e-16 0)
(1 -1.1785037e-16 0)
(1 -1.1355728e-16 0)
(1 -1.1027809e-16 0)
(1 -1.0798432e-16 0)
(1 -1.065916e-16 0)
(1 -1.0602784e-16 0)
(1 -1.9236867e-15 0)
(1 -3.6384277e-16 0)
(1 -9.2581001e-17 0)
(1 -2.3374402e-17 0)
(1 -1.9385205e-18 0)
(1 4.7578825e-18 0)
(1 6.7944459e-18 0)
(1 7.5858436e-18 0)
(1 8.1984885e-18 0)
(1 8.8709871e-18 0)
(1 9.5814205e-18 0)
(1 1.0249803e-17 0)
(1 1.0802049e-17 0)
(1 1.118488e-17 0)
(1 1.1364887e-17 0)
(1 1.1323756e-17 0)
(1 1.1053193e-17 0)
(1 1.0551313e-17 0)
(1 9.8200372e-18 0)
(1 8.8632932e-18 0)
(1 7.6853908e-18 0)
(1 6.2903059e-18 0)
(1 4.6811688e-18 0)
(1 2.8598969e-18 0)
(1 8.2643463e-19 0)
(1 -1.4213377e-18 0)
(1 -3.8877163e-18 0)
(1 -6.5792747e-18 0)
(1 -9.5055113e-18 0)
(1 -1.267876e-17 0)
(1 -1.6114146e-17 0)
(1 -1.9829524e-17 0)
(1 -2.3846073e-17 0)
(1 -2.8187968e-17 0)
(1 -3.2882173e-17 0)
(1 -3.7958187e-17 0)
(1 -4.3448498e-17 0)
(1 -4.9388079e-17 0)
(1 -5.5813952e-17 0)
(1 -6.2764749e-17 0)
(1 -7.0281048e-17 0)
(1 -7.8404662e-17 0)
(1 -8.717798e-17 0)
(1 -9.6643376e-17 0)
(1 -1.0684336e-16 0)
(1 -1.1781964e-16 0)
(1 -1.2961229e-16 0)
(1 -1.4225882e-16 0)
(1 -1.5579423e-16 0)
(1 -1.7024977e-16 0)
(1 -1.8565179e-16 0)
(1 -2.0202066e-16 0)
(1 -2.1937048e-16 0)
(1 -2.3770766e-16 0)
(1 -2.5702954e-16 0)
(1 -2.7732311e-16 0)
(1 -2.9856459e-16 0)
(1 -3.2071791e-16 0)
(1 -3.4373339e-16 0)
(1 -3.6754654e-16 0)
(1 -3.9207791e-16 0)
(1 -4.1723186e-16 0)
(1 -4.4289589e-16 0)
(1 -4.689402e-16 0)
(1 -4.9521832e-16 0)
(1 -5.2156721e-16 0)
(1 -5.4780788e-16 0)
(1 -5.7374662e-16 0)
(1 -5.9917726e-16 0)
(1 -6.2388327e-16 0)
(1 -6.4764043e-16 0)
(1 -6.7022015e-16 0)
(1 -6.913936e-16 0)
(1 -7.1093577e-16 0)
(1 -7.2862972e-16 0)
(1 -7.4427123e-16 0)
(1 -7.5767363e-16 0)
(1 -7.6867209e-16 0)
(1 -7.7712766e-16 0)
(1 -7.8293093e-16 0)
(1 -7.8600499e-16 0)
(1 -7.8630759e-16 0)
(1 -7.838324e-16 0)
(1 -7.786094e-16 0)
(1 -7.7070414e-16 0)
(1 -7.6021622e-16 0)
(1 -7.472769e-16 0)
(1 -7.3204594e-16 0)
(1 -7.1470755e-16 0)
(1 -6.9546619e-16 0)
(1 -6.7454203e-16 0)
(1 -6.5216628e-16 0)
(1 -6.2857616e-16 0)
(1 -6.0401057e-16 0)
(1 -5.7870595e-16 0)
(1 -5.5289261e-16 0)
(1 -5.2679109e-16 0)
(1 -5.0060957e-16 0)
(1 -4.7454187e-16 0)
(1 -4.4876595e-16 0)
(1 -4.2344244e-16 0)
(1 -3.9871432e-16 0)
(1 -3.7470695e-16 0)
(1 -3.515285e-16 0)
(1 -3.2927018e-16 0)
(1 -3.0800744e-16 0)
(1 -2.8780114e-16 0)
(1 -2.6869899e-16 0)
(1 -2.5073659e-16 0)
(1 -2.3393913e-16 0)
(1 -2.1832292e-16 0)
(1 -2.0389697e-16 0)
(1 -1.9066424e-16 0)
(1 -1.7862324e-16 0)
(1 -1.6776941e-16 0)
(1 -1.5809636e-16 0)
(1 -1.495971e-16 0)
(1 -1.4226483e-16 0)
(1 -1.3609317e-16 0)
(1 -1.3107475e-16 0)
(1 -1.2719664e-16 0)
(1 -1.2442811e-16 0)
(1 -1.2270316e-16 0)
(1 -1.2197355e-16 0)
(1 -5.555189e-16 0)
(1 -1.5767323e-16 0)
(1 -1.7465158e-17 0)
(1 1.193427e-17 0)
(1 1.3983366e-17 0)
(1 1.1616578e-17 0)
(1 9.8116284e-18 0)
(1 9.1601039e-18 0)
(1 9.353998e-18 0)
(1 1.0011734e-17 0)
(1 1.0842645e-17 0)
(1 1.1653839e-17 0)
(1 1.2326027e-17 0)
(1 1.2789699e-17 0)
(1 1.300735e-17 0)
(1 1.2961404e-17 0)
(1 1.2646024e-17 0)
(1 1.2062106e-17 0)
(1 1.1214142e-17 0)
(1 1.0108271e-17 0)
(1 8.7506721e-18 0)
(1 7.1467759e-18 0)
(1 5.3007754e-18 0)
(1 3.2153041e-18 0)
(1 8.9074124e-19 0)
(1 -1.6749767e-18 0)
(1 -4.4864873e-18 0)
(1 -7.5510853e-18 0)
(1 -1.087932e-17 0)
(1 -1.4485034e-17 0)
(1 -1.8385339e-17 0)
(1 -2.2600521e-17 0)
(1 -2.7154567e-17 0)
(1 -3.2074953e-17 0)
(1 -3.7392431e-17 0)
(1 -4.3140719e-17 0)
(1 -4.9356838e-17 0)
(1 -5.6080722e-17 0)
(1 -6.3354752e-17 0)
(1 -7.1223222e-17 0)
(1 -7.9732536e-17 0)
(1 -8.8930606e-17 0)
(1 -9.8866127e-17 0)
(1 -1.0958788e-16 0)
(1 -1.2114469e-16 0)
(1 -1.3358463e-16 0)
(1 -1.4695402e-16 0)
(1 -1.6129644e-16 0)
(1 -1.766525e-16 0)
(1 -1.9305869e-16 0)
(1 -2.1054611e-16 0)
(1 -2.2913917e-16 0)
(1 -2.4885509e-16 0)
(1 -2.6970243e-16 0)
(1 -2.9167961e-16 0)
(1 -3.1477331e-16 0)
(1 -3.3895785e-16 0)
(1 -3.6419359e-16 0)
(1 -3.904254e-16 0)
(1 -4.1758128e-16 0)
(1 -4.4557181e-16 0)
(1 -4.7428907e-16 0)
(1 -5.0360571e-16 0)
(1 -5.3337433e-16 0)
(1 -5.6342805e-16 0)
(1 -5.9358068e-16 0)
(1 -6.2362742e-16 0)
(1 -6.5334609e-16 0)
(1 -6.8249968e-16 0)
(1 -7.1083877e-16 0)
(1 -7.3810466e-16 0)
(1 -7.6403311e-16 0)
(1 -7.8835913e-16 0)
(1 -8.1082171e-16 0)
(1 -8.3116891e-16 0)
(1 -8.4916322e-16 0)
(1 -8.6458722e-16 0)
(1 -8.7724872e-16 0)
(1 -8.8698559e-16 0)
(1 -8.9366998e-16 0)
(1 -8.9721193e-16 0)
(1 -8.9756194e-16 0)
(1 -8.9471243e-16 0)
(1 -8.8869819e-16 0)
(1 -8.7959562e-16 0)
(1 -8.6752084e-16 0)
(1 -8.5262682e-16 0)
(1 -8.3509967e-16 0)
(1 -8.1515389e-16 0)
(1 -7.9302737e-16 0)
(1 -7.6897594e-16 0)
(1 -7.4326793e-16 0)
(1 -7.1617838e-16 0)
(1 -6.8798378e-16 0)
(1 -6.5895733e-16 0)
(1 -6.2936464e-16 0)
(1 -5.9945959e-16 0)
(1 -5.6948137e-16 0)
(1 -5.3965207e-16 0)
(1 -5.1017511e-16 0)
(1 -4.8123367e-16 0)
(1 -4.5299029e-16 0)
(1 -4.2558699e-16 0)
(1 -3.9914579e-16 0)
(1 -3.7376922e-16 0)
(1 -3.4954158e-16 0)
(1 -3.2653041e-16 0)
(1 -3.047881e-16 0)
(1 -2.8435331e-16 0)
(1 -2.6525278e-16 0)
(1 -2.4750311e-16 0)
(1 -2.3111258e-16 0)
(1 -2.1608261e-16 0)
(1 -2.0240944e-16 0)
(1 -1.9008569e-16 0)
(1 -1.791016e-16 0)
(1 -1.6944619e-16 0)
(1 -1.6110792e-16 0)
(1 -1.5407468e-16 0)
(1 -1.4833248e-16 0)
(1 -1.4386237e-16 0)
(1 -1.406336e-16 0)
(1 -1.385964e-16 0)
(1 -1.3771562e-16 0)
(1 1.4203144e-16 0)
(1 1.630003e-16 0)
(1 1.0689667e-16 0)
(1 5.9395252e-17 0)
(1 3.1863506e-17 0)
(1 1.822021e-17 0)
(1 1.2309847e-17 0)
(1 1.0351199e-17 0)
(1 1.0294721e-17 0)
(1 1.1065633e-17 0)
(1 1.2101488e-17 0)
(1 1.3107078e-17 0)
(1 1.3928509e-17 0)
(1 1.4488029e-17 0)
(1 1.4749433e-17 0)
(1 1.469934e-17 0)
(1 1.4336617e-17 0)
(1 1.3666431e-17 0)
(1 1.269675e-17 0)
(1 1.1436432e-17 0)
(1 9.893892e-18 0)
(1 8.0763544e-18 0)
(1 5.9892662e-18 0)
(1 3.636036e-18 0)
(1 1.0175936e-18 0)
(1 -1.8678728e-18 0)
(1 -5.0252451e-18 0)
(1 -8.4625621e-18 0)
(1 -1.2191369e-17 0)
(1 -1.6226864e-17 0)
(1 -2.0588113e-17 0)
(1 -2.5297945e-17 0)
(1 -3.0383179e-17 0)
(1 -3.5874512e-17 0)
(1 -4.1806541e-17 0)
(1 -4.8217415e-17 0)
(1 -5.5148806e-17 0)
(1 -6.2645607e-17 0)
(1 -7.0755696e-17 0)
(1 -7.9529347e-17 0)
(1 -8.9018997e-17 0)
(1 -9.9278722e-17 0)
(1 -1.1036375e-16 0)
(1 -1.223297e-16 0)
(1 -1.3523202e-16 0)
(1 -1.4912528e-16 0)
(1 -1.6406243e-16 0)
(1 -1.8009362e-16 0)
(1 -1.9726551e-16 0)
(1 -2.1562012e-16 0)
(1 -2.3519375e-16 0)
(1 -2.5601553e-16 0)
(1 -2.7810633e-16 0)
(1 -3.0147726e-16 0)
(1 -3.2612837e-16 0)
(1 -3.5204678e-16 0)
(1 -3.7920547e-16 0)
(1 -4.0756161e-16 0)
(1 -4.3705515e-16 0)
(1 -4.6760713e-16 0)
(1 -4.9911863e-16 0)
(1 -5.3146952e-16 0)
(1 -5.6451769e-16 0)
(1 -5.9809832e-16 0)
(1 -6.3202387e-16 0)
(1 -6.6608443e-16 0)
(1 -7.0004866e-16 0)
(1 -7.3366513e-16 0)
(1 -7.6666471e-16 0)
(1 -7.9876351e-16 0)
(1 -8.2966654e-16 0)
(1 -8.5907199e-16 0)
(1 -8.8667648e-16 0)
(1 -9.1218055e-16 0)
(1 -9.3529478e-16 0)
(1 -9.5574597e-16 0)
(1 -9.7328356e-16 0)
(1 -9.8768578e-16 0)
(1 -9.9876533e-16 0)
(1 -1.0063744e-15 0)
(1 -1.0104087e-15 0)
(1 -1.010811e-15 0)
(1 -1.007572e-15 0)
(1 -1.0007318e-15 0)
(1 -9.9037849e-16 0)
(1 -9.7664596e-16 0)
(1 -9.5971065e-16 0)
(1 -9.3978703e-16 0)
(1 -9.1712222e-16 0)
(1 -8.9199003e-16 0)
(1 -8.6468453e-16 0)
(1 -8.3551362e-16 0)
(1 -8.0479254e-16 0)
(1 -7.7283775e-16 0)
(1 -7.3996122e-16 0)
(1 -7.064655e-16 0)
(1 -6.7263934e-16 0)
(1 -6.3875415e-16 0)
(1 -6.0506119e-16 0)
(1 -5.7178983e-16 0)
(1 -5.391461e-16 0)
(1 -5.0731229e-16 0)
(1 -4.7644693e-16 0)
(1 -4.4668555e-16 0)
(1 -4.1814151e-16 0)
(1 -3.909075e-16 0)
(1 -3.650571e-16 0)
(1 -3.4064667e-16 0)
(1 -3.1771718e-16 0)
(1 -2.9629624e-16 0)
(1 -2.7640002e-16 0)
(1 -2.5803534e-16 0)
(1 -2.4120136e-16 0)
(1 -2.2589147e-16 0)
(1 -2.1209485e-16 0)
(1 -1.9979788e-16 0)
(1 -1.8898529e-16 0)
(1 -1.7964078e-16 0)
(1 -1.7174711e-16 0)
(1 -1.6528507e-16 0)
(1 -1.6023141e-16 0)
(1 -1.5655552e-16 0)
(1 -1.5421922e-16 0)
(1 -1.5319702e-16 0)
(1 9.5651223e-16 0)
(1 5.1792671e-16 0)
(1 2.274328e-16 0)
(1 9.7977392e-17 0)
(1 4.3566569e-17 0)
(1 2.1381544e-17 0)
(1 1.3045236e-17 0)
(1 1.0689274e-17 0)
(1 1.085893e-17 0)
(1 1.19917e-17 0)
(1 1.3362328e-17 0)
(1 1.4629256e-17 0)
(1 1.5632922e-17 0)
(1 1.6302648e-17 0)
(1 1.6611903e-17 0)
(1 1.6556196e-17 0)
(1 1.6141715e-17 0)
(1 1.5379381e-17 0)
(1 1.4281556e-17 0)
(1 1.2860394e-17 0)
(1 1.1126861e-17 0)
(1 9.0901476e-18 0)
(1 6.7571477e-18 0)
(1 4.1322359e-18 0)
(1 1.21698e-18 0)
(1 -1.9901294e-18 0)
(1 -5.4940898e-18 0)
(1 -9.303533e-18 0)
(1 -1.3430964e-17 0)
(1 -1.7892954e-17 0)
(1 -2.2710455e-17 0)
(1 -2.7908757e-17 0)
(1 -3.3517575e-17 0)
(1 -3.9570943e-17 0)
(1 -4.6107335e-17 0)
(1 -5.3169349e-17 0)
(1 -6.0803473e-17 0)
(1 -6.9059787e-17 0)
(1 -7.7991795e-17 0)
(1 -8.7655851e-17 0)
(1 -9.8110691e-17 0)
(1 -1.0941689e-16 0)
(1 -1.2163644e-16 0)
(1 -1.3483196e-16 0)
(1 -1.4906594e-16 0)
(1 -1.643999e-16 0)
(1 -1.8089372e-16 0)
(1 -1.9860448e-16 0)
(1 -2.1758541e-16 0)
(1 -2.3788463e-16 0)
(1 -2.5954415e-16 0)
(1 -2.8259828e-16 0)
(1 -3.0707219e-16 0)
(1 -3.3298028e-16 0)
(1 -3.6032481e-16 0)
(1 -3.8909391e-16 0)
(1 -4.1925994e-16 0)
(1 -4.507776e-16 0)
(1 -4.8358248e-16 0)
(1 -5.1758913e-16 0)
(1 -5.5268958e-16 0)
(1 -5.8875194e-16 0)
(1 -6.2561954e-16 0)
(1 -6.6310997e-16 0)
(1 -7.0101494e-16 0)
(1 -7.3910039e-16 0)
(1 -7.7710769e-16 0)
(1 -8.14755e-16 0)
(1 -8.5173976e-16 0)
(1 -8.8774193e-16 0)
(1 -9.2242818e-16 0)
(1 -9.5545679e-16 0)
(1 -9.8648341e-16 0)
(1 -1.0151674e-15 0)
(1 -1.0411791e-15 0)
(1 -1.0642065e-15 0)
(1 -1.0839633e-15 0)
(1 -1.1001955e-15 0)
(1 -1.1126884e-15 0)
(1 -1.1212723e-15 0)
(1 -1.1258273e-15 0)
(1 -1.1262872e-15 0)
(1 -1.1226414e-15 0)
(1 -1.1149353e-15 0)
(1 -1.1032696e-15 0)
(1 -1.0877977e-15 0)
(1 -1.0687215e-15 0)
(1 -1.0462863e-15 0)
(1 -1.0207743e-15 0)
(1 -9.9249837e-16 0)
(1 -9.6179364e-16 0)
(1 -9.290106e-16 0)
(1 -8.9450748e-16 0)
(1 -8.5864324e-16 0)
(1 -8.2177095e-16 0)
(1 -7.842322e-16 0)
(1 -7.4635221e-16 0)
(1 -7.0843588e-16 0)
(1 -6.7076461e-16 0)
(1 -6.3359439e-16 0)
(1 -5.9715442e-16 0)
(1 -5.6164671e-16 0)
(1 -5.2724616e-16 0)
(1 -4.9410142e-16 0)
(1 -4.6233618e-16 0)
(1 -4.320508e-16 0)
(1 -4.0332415e-16 0)
(1 -3.7621581e-16 0)
(1 -3.5076823e-16 0)
(1 -3.27009e-16 0)
(1 -3.0495307e-16 0)
(1 -2.8460499e-16 0)
(1 -2.6596095e-16 0)
(1 -2.4901072e-16 0)
(1 -2.3373944e-16 0)
(1 -2.2012911e-16 0)
(1 -2.0815979e-16 0)
(1 -1.9781037e-16 0)
(1 -1.8905882e-16 0)
(1 -1.8188163e-16 0)
(1 -1.7625266e-16 0)
(1 -1.7214179e-16 0)
(1 -1.6951759e-16 0)
(1 -1.6835813e-16 0)
(1 2.8161558e-15 0)
(1 8.0703295e-16 0)
(1 2.7639345e-16 0)
(1 1.032028e-16 0)
(1 4.0942365e-17 0)
(1 1.8382164e-17 0)
(1 1.1115801e-17 0)
(1 9.8967841e-18 0)
(1 1.0985779e-17 0)
(1 1.280138e-17 0)
(1 1.4657103e-17 0)
(1 1.6254722e-17 0)
(1 1.7470384e-17 0)
(1 1.8260269e-17 0)
(1 1.8617374e-17 0)
(1 1.8551183e-17 0)
(1 1.8077844e-17 0)
(1 1.7215381e-17 0)
(1 1.5981316e-17 0)
(1 1.4391583e-17 0)
(1 1.2459947e-17 0)
(1 1.0197674e-17 0)
(1 7.6132398e-18 0)
(1 4.7121704e-18 0)
(1 1.4967823e-18 0)
(1 -2.0340918e-18 0)
(1 -5.8854548e-18 0)
(1 -1.0066358e-17 0)
(1 -1.459019e-17 0)
(1 -1.9474914e-17 0)
(1 -2.4743329e-17 0)
(1 -3.0423091e-17 0)
(1 -3.654683e-17 0)
(1 -4.3152066e-17 0)
(1 -5.0281224e-17 0)
(1 -5.7981356e-17 0)
(1 -6.6303911e-17 0)
(1 -7.5304418e-17 0)
(1 -8.5042191e-17 0)
(1 -9.5579771e-17 0)
(1 -1.0698244e-16 0)
(1 -1.1931764e-16 0)
(1 -1.3265442e-16 0)
(1 -1.4706263e-16 0)