/*--------------------------------*- C++ -*----------------------------------*\
| =========                 |                                                 |
| \\      /  F ield         | foam-extend: Open Source CFD                    |
|  \\    /   O peration     | Version:     4.1                                |
|   \\  /    A nd           | Web:         http://www.foam-extend.org         |
|    \\/     M anipulation  |                                                 |
\*---------------------------------------------------------------------------*/
FoamFile
{
    version     2.0;
    format      ascii;
    class       volScalarField;
    location    "1.1";
    object      p;
}
// * * * * * * * * * * * * * * * * * * * * * * * * * * * * * * * * * * * * * //

dimensions      [0 2 -2 0 0 0 0];

internalField   nonuniform List<scalar> 
16126
(
1.0545184e-05
0.00052299077
0.00061697147
0.0010512471
0.00121218
0.0015774394
0.0017786749
0.0020921768
0.0023101536
0.0025844649
0.0028018804
0.0030432771
0.0032480426
0.003458185
0.0036414449
0.0038190554
0.0039737132
0.0041157152
0.0042355283
0.0043377498
0.00441684
0.0044744525
0.0045070898
0.0045149212
0.0044954963
0.0044482997
0.004371476
0.004264136
0.0041249487
0.0039529968
0.0037474756
0.0035074299
0.0032327743
0.002922176
0.0025755495
0.0021930741
0.0017760472
0.0013245461
0.00083900014
0.00032083334
-0.00022528605
-0.00079766938
-0.0013965857
-0.0020167582
-0.0026550737
-0.0033068744
-0.0039675957
-0.0046318512
-0.0052939748
-0.0059476993
-0.0065863993
-0.0072029733
-0.0077899779
-0.0083396014
-0.0088437535
-0.0092940875
-0.0096820733
-0.0099990464
-0.01023628
-0.010385053
-0.010436727
-0.01038284
-0.010215192
-0.0099259684
-0.0095078462
-0.0089541523
-0.008258991
-0.0074174358
-0.0064256781
-0.0052812359
-0.003983096
-0.002531908
-0.00093008728
0.00081808606
0.0027064098
0.0047268938
0.0068696783
0.0091236512
0.011476007
0.013913927
0.016422757
0.018990313
0.021600907
0.024246813
0.02691109
0.029563425
0.032195532
0.034809714
0.037410936
0.04001489
0.042628843
0.04527059
0.047958815
0.050684914
0.053447238
0.056244406
0.059066132
0.061902669
0.064740337
0.067570453
0.070378927
0.073163426
0.075909236
0.078626255
0.081295947
0.083952686
0.086567837
0.089229876
0.091887591
0.094751442
0.097713059
0.10124985
0.10508127
0.11025168
0.11593413
0.12440549
0.13316598
0.14751183
0.15995142
0.18474
0.19832009
0.24864507
0.24480925
0.4138383
5.6216275e-06
0.00052634331
0.00061640191
0.0010509569
0.0012115287
0.0015756804
0.0017774371
0.0020900788
0.0023085611
0.0025821627
0.0027997
0.0030404968
0.0032451663
0.0034548071
0.0036378576
0.0038150421
0.0039694427
0.0041110847
0.0042306466
0.0043325895
0.0044114979
0.0044689651
0.0045015912
0.0045095163
0.0044903931
0.0044436918
0.0043673408
0.0042603518
0.0041214159
0.0039495739
0.0037438743
0.0035034225
0.0032277041
0.0029165623
0.0025709565
0.0021903816
0.0017786673
0.0013340369
0.00085324784
0.00033915605
-0.00020641475
-0.00077813776
-0.0013731481
-0.0019892852
-0.0026228927
-0.0032696643
-0.0039249663
-0.0045834805
-0.0052395583
-0.0058869811
-0.0065191705
-0.007129086
-0.0077093522
-0.0082522347
-0.0087497278
-0.0091935761
-0.0095753456
-0.0098864704
-0.010118323
-0.010262279
-0.010309792
-0.010252485
-0.010082233
-0.0097912826
-0.0093723605
-0.0088188274
-0.0081248076
-0.0072853809
-0.006296733
-0.0051563667
-0.0038632456
-0.002417992
-0.00082298763
0.00091752286
0.002797385
0.0048086594
0.0069415719
0.0091850964
0.011526594
0.013953373
0.016451068
0.019007658
0.021607628
0.024245568
0.026899229
0.029537852
0.032159352
0.034763708
0.037360838
0.039955366
0.042597714
0.045288319
0.047991987
0.050744501
0.053548385
0.05639086
0.059262586
0.062151794
0.065045982
0.067937018
0.070812542
0.073671605
0.076501967
0.079315164
0.082096094
0.084880231
0.087643527
0.090473039
0.093323586
0.096397172
0.099594559
0.10336875
0.10745932
0.11285304
0.11878101
0.12738602
0.13634395
0.15057519
0.16317992
0.1867938
0.20100826
0.24120276
0.24918288
0.30912266
-1.6632595e-05
0.00053252585
0.00061063218
0.0010514623
0.0012125503
0.0015772796
0.0017810656
0.0020927352
0.0023129258
0.0025859779
0.0028051266
0.0030460004
0.0032520787
0.0034622265
0.003646552
0.0038245239
0.0039801466
0.0041227605
0.0042435326
0.0043465511
0.0044266371
0.0044851721
0.0045188166
0.0045275986
0.0045090808
0.0044627116
0.0043869337
0.0042809051
0.0041432918
0.0039732586
0.0037701601
0.0035334037
0.0032646204
0.0029601357
0.0026173885
0.0022384246
0.001821282
0.0013686332
0.00088491253
0.00036985852
-0.00017392178
-0.00074434763
-0.0013400518
-0.0019570645
-0.0025921292
-0.0032407198
-0.0038982861
-0.0045594996
-0.0052187366
-0.005869792
-0.0065060985
-0.0071206241
-0.0077059951
-0.0082544747
-0.0087580467
-0.0092084392
-0.0095971922
-0.0099157054
-0.010155306
-0.010307314
-0.010363114
-0.010314246
-0.010152489
-0.0098699788
-0.0094593166
-0.0089137253
-0.0082271793
-0.0073946
-0.0064120105
-0.0052767524
-0.0039876337
-0.0025451374
-0.00095152403
0.00078904874
0.0026704862
0.0046848492
0.006822343
0.0090718171
0.011420534
0.013855465
0.016362128
0.018927397
0.021536206
0.024175532
0.026831635
0.029484558
0.032123566
0.034751849
0.037371558
0.04002756
0.042680143
0.045327234
0.048044871
0.050815339
0.053632122
0.056489345
0.059374631
0.06227812
0.065186132
0.06809035
0.070978373
0.073848765
0.076690746
0.079515643
0.082312687
0.085117674
0.08791661
0.090796649
0.093732751
0.096921186
0.10029758
0.10428295
0.10867087
0.11433653
0.12060499
0.12931215
0.13839274
0.15197983
0.1641696
0.18525101
0.19913049
0.23228138
0.24533997
0.28905789
-5.4376347e-05
0.00054100336
0.0006012869
0.0010524315
0.0012092862
0.0015744614
0.0017799593
0.002091755
0.002314715
0.0025877343
0.0028087019
0.0030496255
0.0032570411
0.0034674926
0.0036529335
0.0038314716
0.0039881663
0.0041316087
0.0042535571
0.0043577151
0.0044392527
0.0044993817
0.0045350526
0.0045462408
0.004530978
0.0044890393
0.0044177148
0.0043155137
0.0041815656
0.0040148236
0.0038141249
0.0035783641
0.0033051008
0.0029967684
0.0026558453
0.0022800749
0.0018711404
0.0014282693
0.00095116765
0.00044165227
-9.8601136e-05
-0.00066600038
-0.0012579403
-0.0018714146
-0.0025029222
-0.0031482902
-0.0038029811
-0.0044618236
-0.005119272
-0.0057692357
-0.006405241
-0.0070203572
-0.0076073011
-0.008158423
-0.0086657804
-0.009121164
-0.0095161586
-0.0098421891
-0.010090586
-0.010252647
-0.010319704
-0.01028322
-0.010134863
-0.0098666306
-0.0094709547
-0.008940865
-0.0082701185
-0.0074534014
-0.0064864864
-0.0053664575
-0.0040918573
-0.0026629071
-0.0010816016
0.00064815361
0.0025205252
0.0045278046
0.0066604594
0.0089075124
0.011256505
0.013694352
0.016206982
0.018780009
0.021400156
0.024044898
0.02671532
0.029399698
0.032076049
0.034751076
0.037435031
0.040096301
0.042775677
0.045519778
0.048299513
0.051128426
0.054005769
0.056923609
0.059873484
0.062844233
0.065824586
0.068806916
0.071781559
0.074748649
0.077701403
0.080652824
0.08359815
0.086573454
0.089573377
0.09267981
0.095879388
0.099347751
0.10303682
0.10731139
0.11199595
0.11783438
0.12423932
0.13274921
0.14158808
0.15412724
0.16546492
0.18342258
0.19574129
0.21940298
0.23045231
0.24851841
-0.00010438707
0.00055111763
0.00058699082
0.0010549507
0.0012093638
0.0015790607
0.0017859264
0.0020976957
0.0023221753
0.00259542
0.0028188677
0.0030608359
0.0032708065
0.0034828999
0.0036709295
0.0038515788
0.0040109821
0.0041569329
0.0042817776
0.0043887762
0.0044733856
0.0045365526
0.0045752524
0.0045892561
0.0045761593
0.0045348192
0.004464527
0.0043649068
0.0042341438
0.0040713948
0.0038757344
0.0036464814
0.0033832264
0.003084433
0.0027494116
0.0023784533
0.0019713232
0.0015293821
0.0010547175
0.00054817528
1.1823404e-05
-0.00055224376
-0.0011419254
-0.0017539383
-0.0023850318
-0.0030310458
-0.0036876036
-0.0043496464
-0.0050117589
-0.0056679701
-0.0063119132
-0.0069367496
-0.0075352658
-0.0080998576
-0.0086225968
-0.0090952562
-0.0095093647
-0.0098562522
-0.010127112
-0.010313063
-0.010405217
-0.010394775
-0.010273105
-0.010031876
-0.0096631598
-0.0091596058
-0.0085145747
-0.0077223492
-0.0067782938
-0.0056790895
-0.0044228779
-0.0030094944
-0.0014405499
0.00028041001
0.0021479149
0.004154574
0.0062911859
0.0085470082
0.010909847
0.013366734
0.015903685
0.018506882
0.021161612
0.0238545
0.026566691
0.029297112
0.032044454
0.034790647
0.037530074
0.040289397
0.043070483
0.045870752
0.048716918
0.051607504
0.054540019
0.05750959
0.060506254
0.063521685
0.0665451
0.069570143
0.072588561
0.075601091
0.078603495
0.081609099
0.08461788
0.087665471
0.090755012
0.093964464
0.097294326
0.10090435
0.10476734
0.10919962
0.11406034
0.11996952
0.1264256
0.13467979
0.1432443
0.15480508
0.16545884
0.18115243
0.19285465
0.21215087
0.2234506
0.23575941
-0.00015693417
0.00056208639
0.000570495
0.0010569583
0.0012055169
0.0015802493
0.0017882036
0.0021023899
0.0023300039
0.0026047579
0.0028308583
0.0030741721
0.0032865427
0.0035001973
0.0036905532
0.0038730841
0.0040349033
0.0041831074
0.004310616
0.004420324
0.0045080384
0.0045745485
0.0046171238
0.0046354903
0.0046277208
0.0045929356
0.0045292378
0.0044356267
0.0043107765
0.0041536819
0.003963241
0.0037385629
0.003478712
0.0031840985
0.0028552469
0.0024915138
0.0020935141
0.001661145
0.0011949387
0.00069618324
0.00016642378
-0.00039180653
-0.00097617103
-0.0015837303
-0.0022112579
-0.0028548973
-0.0035104216
-0.0041730112
-0.0048374327
-0.0054979159
-0.006148264
-0.0067817971
-0.0073914292
-0.0079696544
-0.0085086024
-0.0090000621
-0.0094355286
-0.0098062471
-0.010103271
-0.010317525
-0.01043987
-0.010461208
-0.01037256
-0.010165204
-0.0098307883
-0.0093615144
-0.0087502718
-0.0079908632
-0.0070781614
-0.0060083567
-0.0047790891
-0.0033896965
-0.0018412719
-0.00013684745
0.0017186564
0.0037183796
0.0058537069
0.0081143993
0.010488863
0.012964457
0.015527862
0.018165003
0.020862858
0.023605618
0.026385254
0.029190738
0.032011866
0.03484589
0.037695203
0.040553346
0.043432391
0.046349959
0.049300884
0.052289844
0.055315011
0.058370629
0.061450294
0.064545954
0.06764974
0.070756711
0.073861395
0.076966008
0.08006945
0.083185713
0.086318535
0.089501773
0.092742936
0.096111884
0.099613978
0.10338643
0.1074091
0.11194587
0.11687589
0.12270628
0.12900807
0.13678423
0.14479536
0.15511568
0.16463854
0.17762863
0.18749493
0.201419
0.20999024
0.21615796
-0.00020634928
0.00057440078
0.00055517538
0.0010621985
0.0012056113
0.0015875665
0.0017964287
0.0021134022
0.0023433853
0.0026201519
0.0028493468
0.0030950189
0.0033107689
0.003527275
0.0037212316
0.0039071006
0.004072791
0.0042247982
0.0043564973
0.0044704354
0.0045626513
0.0046337227
0.0046809775
0.0047040271
0.0047008264
0.0046705526
0.0046119089
0.0045240291
0.0044055439
0.0042555113
0.0040729025
0.0038568854
0.0036066772
0.0033213844
0.0030006077
0.0026442071
0.0022522845
0.0018255053
0.0013649889
0.00087169394
0.00034718971
-0.00020669266
-0.00078789143
-0.0013936417
-0.0020209581
-0.0026661696
-0.003325272
-0.0039936526
-0.0046662797
-0.005337571
-0.0060014905
-0.006651492
-0.007280582
-0.0078813043
-0.0084457844
-0.0089657515
-0.0094325784
-0.0098373244
-0.010170791
-0.010423586
-0.010586196
-0.010649088
-0.010602799
-0.010438087
-0.010146042
-0.0097182906
-0.0091471281
-0.0084257629
-0.0075484663
-0.0065108378
-0.0053099209
-0.0039444721
-0.0024149887
-0.00072392669
0.0011243964
0.0031236836
0.0052659159
0.0075413612
0.0099389605
0.012446477
0.015050928
0.017738805
0.020496515
0.023310937
0.026168645
0.029062221
0.031984651
0.034926467
0.037883465
0.040860449
0.043859613
0.046880894
0.049932176
0.053012168
0.056118453
0.059246988
0.062390756
0.065543992
0.068699948
0.071855168
0.075005957
0.078155434
0.081304704
0.084468014
0.087652158
0.090889741
0.094192716
0.097625474
0.10119966
0.10503615
0.10912446
0.11368726
0.11862543
0.12435244
0.13050886
0.13789128
0.14549264
0.15490753
0.16373748
0.17506066
0.18415331
0.19553909
0.20333034
0.20747902
-0.00024783269
0.00058649016
0.00054179026
0.0010680215
0.0012055754
0.0015948525
0.0018045586
0.0021254366
0.0023584264
0.0026381572
0.0028707126
0.003119212
0.003338427
0.0035579885
0.0037555732
0.0039448846
0.0041144917
0.0042704266
0.0044064747
0.0045249335
0.0046220984
0.0046984344
0.0047514562
0.0047807145
0.0047843366
0.0047613702
0.0047101917
0.0046297862
0.0045188132
0.0043762486
0.0042010191
0.0039922434
0.0037491873
0.0034715197
0.003159086
0.0028115029
0.0024289092
0.0020113405
0.0015593134
0.0010737326
0.00055583888
7.4629206e-06
-0.00056943344
-0.0011723305
-0.0017984139
-0.0024442965
-0.0031061975
-0.0037797695
-0.004460208
-0.0051421571
-0.0058197716
-0.0064866692
-0.0071359748
-0.0077603046
-0.0083517983
-0.0089021385
-0.0094025826
-0.009844005
-0.010216949
-0.010511695
-0.010718329
-0.010826859
-0.010827303
-0.010709853
-0.010464992
-0.010083712
-0.0095576502
-0.0088793497
-0.0080424011
-0.0070417317
-0.0058736987
-0.0045363883
-0.0030296057
-0.0013551406
0.00048338862
0.0024803328
0.0046283589
0.0069183078
0.0093397407
0.01188081
0.01452905
0.017271005
0.020093771
0.022983455
0.025929175
0.02891965
0.031945644
0.034999761
0.03807881
0.041178237
0.04429934
0.04744511
0.05061273
0.053802016
0.057009885
0.060231051
0.063460984
0.066694213
0.069926098
0.073154523
0.076377756
0.079599989
0.082824272
0.086064791
0.089330093
0.092650236
0.096038451
0.099551219
0.10320096
0.1070897
0.11120922
0.1157419
0.12060182
0.12611907
0.13198928
0.13882996
0.14581833
0.15413632
0.16192546
0.17130336
0.17892047
0.18745974
0.19349973
0.19606813
-0.00028007191
0.00059862459
0.00053268333
0.0010769348
0.0012099932
0.0016071976
0.0018180596
0.0021432798
0.0023792401
0.0026624207
0.0028987146
0.0031507835
0.0033741557
0.0035976889
0.0037997833
0.0039935422
0.0041680378
0.0043289149
0.0044702654
0.0045941526
0.0046970395
0.00477925
0.0048383732
0.0048738974
0.0048839714
0.0048677259
0.0048237154
0.0047509282
0.0046480506
0.004514045
0.0043478102
0.0041483893
0.0039149016
0.003646539
0.0033428031
0.0030033342
0.0026280835
0.0022172687
0.0017714586
0.0012913547
0.00077805673
0.00023299247
-0.00034212547
-0.00094504975
-0.0015732221
-0.0022235093
-0.0028923812
-0.0035757347
-0.0042689915
-0.0049670034
-0.0056640981
-0.0063540302
-0.0070300112
-0.0076846902
-0.0083101745
-0.0088980468
-0.0094393884
-0.0099248219
-0.010344558
-0.010688469
-0.010946156
-0.011107077
-0.011160632
-0.011096349
-0.010903998
-0.010573835
-0.010096728
-0.0094644524
-0.0086698153
-0.0077069808
-0.0065715356
-0.0052608341
-0.0037739431
-0.0021119747
-0.00027786103
0.0017233382
0.0038848868
0.0061980675
0.0086528861
0.011237719
0.013940302
0.0167472
0.019645224
0.022620734
0.025661053
0.028755097
0.031893156
0.035065577
0.038265309
0.041487775
0.044729812
0.047988425
0.051263962
0.054551116
0.057846735
0.061147117
0.064446478
0.067740966
0.071027023
0.074303328
0.077569755
0.080831105
0.084091976
0.087366587
0.090665107
0.094016023
0.09743439
0.10097131
0.10464142
0.10853292
0.11264195
0.11711954
0.12189444
0.12723012
0.13287477
0.13930505
0.14586417
0.15342485
0.16057845
0.16876998
0.17564783
0.18270802
0.18797152
0.18974718
-0.00030307197
0.00060939367
0.00052692312
0.0010863502
0.0012158014
0.0016204183
0.0018327721
0.0021627405
0.0024020935
0.0026892831
0.0029296065
0.0031856489
0.0034133792
0.003641164
0.0038479438
0.0040463899
0.0042259851
0.0043920883
0.0045390626
0.0046688077
0.0047779573
0.0048667507
0.0049328814
0.0049757773
0.0049936369
0.0049854805
0.0049497668
0.0048854108
0.0047910703
0.0046656522
0.0045080342
0.0043172314
0.0040924018
0.0038328514
0.003538067
0.0032075443
0.002841084
0.0024385682
0.0020002318
0.0015265893
0.0010184732
0.00047714336
-9.589751e-05
-0.00069865443
-0.0013288069
-0.001983504
-0.0026594733
-0.0033528837
-0.0040594007
-0.004774107
-0.0054915235
-0.0062055621
-0.00690954
-0.007596156
-0.0082574998
-0.008885065
-0.0094697633
-0.010001966
-0.010471547
-0.010867955
-0.011180285
-0.011397409
-0.011508069
-0.011501074
-0.011365416
-0.011090538
-0.010666454
-0.010084084
-0.0093353535
-0.0084135715
-0.0073134608
-0.0060315651
-0.0045661395
-0.0029175719
-0.0010880702
0.00091789532
0.0030941792
0.0054324546
0.007923123
0.010554684
0.013314993
0.016190463
0.019167659
0.022232207
0.025371615
0.028572904
0.031825045
0.035116563
0.038440207
0.041788107
0.045156063
0.048537182
0.051926193
0.055321361
0.058717966
0.062109119
0.065492247
0.068863066
0.072218976
0.075559969
0.078886795
0.082204936
0.085520015
0.088845684
0.092192721
0.095586903
0.099043055
0.1026054
0.10628762
0.11016306
0.1142281
0.11860401
0.12322855
0.1283063
0.13362578
0.13954343
0.14553121
0.15220947
0.15851004
0.1653782
0.17119209
0.17672364
0.1809595
0.18227577
-0.00031782894
0.00061939668
0.00052575265
0.0010980359
0.0012257537
0.0016375637
0.00185209
0.002187034
0.0024300879
0.0027216733
0.0029664212
0.0032269874
0.0034596156
0.0036923129
0.00390442
0.0041082633
0.0042936387
0.0044656629
0.0046189025
0.0047551048
0.0048710223
0.0049668031
0.0050402064
0.0050906186
0.0051162787
0.0051162281
0.0050889748
0.0050334089
0.0049481795
0.0048321424
0.0046841058
0.0045029776
0.0042877594
0.0040375263
0.00375157
0.0034292881
0.0030703354
0.0026745435
0.0022420277
0.0017731005
0.0012683848
0.00072883191
0.00015568183
-0.00044936304
-0.0010842584
-0.0017464371
-0.0024328988
-0.0031400784
-0.0038638854
-0.0045996242
-0.0053419998
-0.0060850667
-0.0068222295
-0.0075462142
-0.0082490648
-0.0089221525
-0.0095561799
-0.010141222
-0.010666757
-0.011121755
-0.011494729
-0.011773892
-0.011947236
-0.012002757
-0.011928565
-0.011713185
-0.011345666
-0.010815961
-0.01011501
-0.0092351734
-0.0081702247
-0.0069158435
-0.0054694335
-0.0038306657
-0.0020010507
1.5445584e-05
0.002213165
0.0045840026
0.0071185878
0.0098052764
0.0126319
0.015584189
0.018648523
0.021809723
0.025054445
0.028368251
0.03173773
0.035150601
0.038596786
0.042066597
0.045553178
0.049049997
0.052551003
0.056044925
0.059529175
0.06300208
0.066456254
0.069889069
0.073299572
0.076687073
0.080054084
0.08340616
0.08674987
0.090098737
0.093464108
0.096870149
0.10033201
0.10388911
0.1075554
0.11139317
0.11540066
0.11967619
0.12416764
0.12903382
0.13410102
0.13963412
0.14521621
0.15128214
0.15703267
0.16306154
0.16825647
0.17290003
0.17654704
0.17750269
-0.00032576062
0.00062785273
0.00052783608
0.0011101009
0.0012376065
0.0016558489
0.0018731578
0.0022131562
0.0024603347
0.0027566527
0.0030061542
0.00327159
0.0035093979
0.0037473265
0.0039650403
0.0041746046
0.0043660813
0.004544404
0.0047043207
0.0048474675
0.0049707089
0.0050741267
0.0051555385
0.0052142775
0.0052485936
0.0052574563
0.0052393334
0.0051930574
0.005117241
0.0050106859
0.0048721637
0.0047005329
0.0044947649
0.0042538943
0.0039771131
0.0036636693
0.0033130291
0.0029247771
0.002498767
0.0020350822
0.0015340853
0.00099648901
0.0004232741
-0.00018413586
-0.00082397497
-0.0014939744
-0.0021914192
-0.0029130317
-0.0036549852
-0.0044128279
-0.0051814704
-0.0059551313
-0.0067273224
-0.0074908146
-0.0082376209
-0.0089590005
-0.0096454505
-0.010286746
-0.010871962
-0.011389563
-0.01182745
-0.01217313
-0.012413788
-0.012536538
-0.012528522
-0.012377256
-0.012070721
-0.0115978
-0.010948334
-0.010113635
-0.0090864263
-0.0078614456
-0.0064351713
-0.0048065225
-0.0029762809
-0.00094792996
0.0012733427
0.0036795751
0.0062615489
0.0090074052
0.011904656
0.014938767
0.018094848
0.021357663
0.024712516
0.028141757
0.031632695
0.035170193
0.038743255
0.04233943
0.045950162
0.04956546
0.053178498
0.056783806
0.060370512
0.063930362
0.067465335
0.070971228
0.074445633
0.077890633
0.081308108
0.084704159
0.088085934
0.091465899
0.094855604
0.098276513
0.10174299
0.10528873
0.10892614
0.11270626
0.1166268
0.12076488
0.12507478
0.12967568
0.13442275
0.13950546
0.14459294
0.14997708
0.15506293
0.16020198
0.16465425
0.16843981
0.17147406
0.17226833
-0.00032796969
0.00063551274
0.00053386648
0.0011238892
0.0012531158
0.0016773035
0.001898239
0.0022433831
0.0024951518
0.0027965106
0.0030511861
0.0033219304
0.003565388
0.0038090664
0.0040329068
0.0042487451
0.0044468613
0.0046320261
0.0047991316
0.0049497106
0.0050807137
0.00519216
0.0052819156
0.0053492786
0.005392524
0.0054106059
0.0054019939
0.0053654794
0.0052996377
0.0052032013
0.0050748562
0.0049133488
0.0047175105
0.0044862124
0.0042184843
0.0039134324
0.0035703597
0.0031887021
0.0027681242
0.0023084831
0.0018098935
0.0012727757
0.00069782372
8.6151659e-05
-0.00056077808
-0.0012410077
-0.0019521232
-0.0026911407
-0.0034545053
-0.0042380125
-0.0050367806
-0.0058451911
-0.0066568587
-0.0074645909
-0.008260356
-0.0090352818
-0.0097796335
-0.010482852
-0.011133565
-0.011719678
-0.012228416
-0.012646505
-0.012960234
-0.013155742
-0.013219096
-0.013136692
-0.012895323
-0.012482692
-0.011887423
-0.011099684
-0.010111051
-0.0089152612
-0.0075078125
-0.0058868716
-0.004052494
-0.002007754
0.00024256397
0.0026904835
0.0053268387
0.008139216
0.011115066
0.014237961
0.017494468
0.020865806
0.024335737
0.027886614
0.031503152
0.035168465
0.038869522
0.042591634
0.046324565
0.050056343
0.053779019
0.057481841
0.061161742
0.064809829
0.068417372
0.0719839
0.075513102
0.079002108
0.082456001
0.085880429
0.08928277
0.0926757
0.096070391
0.099487041
0.1029395
0.10645752
0.11005295
0.1137684
0.11760239
0.12161582
0.12577012
0.13015429
0.13464969
0.13938942
0.1441138
0.14901067
0.15363961
0.15818125
0.16214762
0.16537784
0.16799511
0.16860156
-0.00032567001
0.00064196951
0.00054265476
0.0011381199
0.0012706593
0.0017000651
0.0019253501
0.0022756075
0.0025324215
0.0028390579
0.0030992703
0.0033756387
0.003625081
0.0038748514
0.0041051637
0.0043276493
0.0045327917
0.0047252256
0.0048999765
0.0050584934
0.0051978051
0.0053178761
0.0054166071
0.00549325
0.0055460782
0.005573992
0.0055754306
0.0055491307
0.0054936232
0.0054075783
0.0052896237
0.0051384303
0.0049527499
0.0047313516
0.0044731277
0.0041770169
0.0038421206
0.0034676446
0.0030530027
0.0025977982
0.0021018711
0.0015653611
0.00098866646
0.00037258973
-0.00028172311
-0.00097264188
-0.0016980733
-0.0024553511
-0.0032412165
-0.0040517382
-0.0048822682
-0.0057273765
-0.0065808042
-0.0074354165
-0.0082831532
-0.0091150224
-0.0099210607
-0.010690371
-0.011411114
-0.012070614
-0.012655374
-0.013151286
-0.013543673
-0.013817614
-0.013958002
-0.013950008
-0.013779117
-0.013431732
-0.01289513
-0.012158225
-0.011211323
-0.010047076
-0.0086599042
-0.0070471836
-0.0052081874
-0.003145602
-0.00086379688
0.0016291495
0.0043240596
0.0072079604
0.010267405
0.013486512
0.016848194
0.020333767
0.02392587
0.027604186
0.03135262
0.035151558
0.038986754
0.042840813
0.046702096
0.050556198
0.054394127
0.058205186
0.061982012
0.065717064
0.0694096
0.073048954
0.07663537
0.080175712
0.083671404
0.087128522
0.090555667
0.093963371
0.097363574
0.10077364
0.10420677
0.10768811
0.11122805
0.11486099
0.11858488
0.12244616
0.126411
0.13054312
0.13474417
0.13910285
0.1434151
0.14779321
0.15191498
0.15585223
0.15930081
0.16202151
0.16425678
0.16479131
-0.00031952525
0.00064786935
0.00055462389
0.001153778
0.0012913658
0.001725508
0.0019560008
0.0023114127
0.0025737899
0.0028859637
0.0031521421
0.0034345083
0.0036903688
0.0039466701
0.0041839121
0.0044135163
0.0046261567
0.0048263362
0.005009198
0.0051761115
0.0053241723
0.005453296
0.0055614168
0.0056477521
0.0057105834
0.0057487784
0.0057607559
0.0057452006
0.0057005896
0.0056255134
0.0055185066
0.005378125
0.0052029862
0.0049917087
0.0047430222
0.0044556974
0.0041286475
0.0037608799
0.0033515797
0.0029000949
0.0024059865
0.0018690871
0.0012894775
0.00066762384
4.3331095e-06
-0.00069911139
-0.0014409571
-0.0022188716
-0.0030299097
-0.0038704283
-0.0047360273
-0.0056214765
-0.0065206525
-0.0074264828
-0.0083308784
-0.0092247208
-0.010097802
-0.010938863
-0.011735563
-0.012474595
-0.013141681
-0.013721805
-0.014199233
-0.014557886
-0.014781368
-0.014853508
-0.014758348
-0.01448087
-0.014006868
-0.013323891
-0.012420856
-0.011289253
-0.0099223411
-0.008316685
-0.0064707389
-0.0043868572
-0.0020690159
0.00047446778
0.0032343522
0.006196725
0.0093483102
0.012669708
0.016145364
0.019752809
0.02347435
0.027287108
0.031173427
0.035110976
0.039083995
0.043072315
0.04706309
0.051039418
0.054991656
0.058906463
0.062778065
0.066597292
0.070359952
0.074065554
0.077709801
0.081290632
0.084817825
0.088297618
0.091736682
0.095147702
0.09854065
0.10193265
0.10533582
0.10877241
0.11225204
0.11580302
0.11942373
0.12314967
0.12695212
0.13087584
0.13484023
0.13890127
0.14289919
0.1468918
0.15064341
0.1541497
0.15722752
0.15958574
0.16152928
0.16195533
-0.00031032116
0.00065296721
0.00056886147
0.0011699947
0.0013140653
0.001752362
0.0019887901
0.0023493147
0.0026177222
0.0029356323
0.0032081563
0.0034968199
0.0037594599
0.0040226424
0.0042671916
0.004504308
0.0047248627
0.0049332325
0.0051246761
0.0053004896
0.0054578306
0.0055965667
0.005714655
0.0058112712
0.0058846891
0.0059337292
0.005956778
0.0059524635
0.0059192092
0.0058555335
0.0057598934
0.0056307485
0.0054666071
0.0052659542
0.0050273597
0.0047494088
0.0044308006
0.0040703044
0.0036668439
0.0032194892
0.0027275022
0.0021903993
0.0016079288
0.00098020677
0.00030768104
-0.00040873425
-0.0011676534
-0.0019671068
-0.0028044936
-0.0036764912
-0.0045789801
-0.0055069622
-0.00645448
-0.007414551
-0.0083790793
-0.0093388366
-0.010283377
-0.011201078
-0.012079079
-0.012903415
-0.013658975
-0.01432978
-0.014898951
-0.01534916
-0.015662602
-0.015821643
-0.015808734
-0.015607303
-0.0152015
-0.014577377
-0.013722308
-0.012626518
-0.011281974
-0.0096843774
-0.0078312682
-0.0057246899
-0.0033681581
-0.00077035775
0.0020594907
0.0051063008
0.0083559069
0.011787612
0.015384295
0.01912201
0.022981518
0.026937015
0.030969661
0.035053874
0.039172751
0.043302948
0.047430631
0.051536181
0.055609364
0.059635225
0.063607154
0.067515054
0.071357165
0.07512687
0.078828064
0.082459506
0.086021692
0.089523231
0.092976504
0.09638836
0.099772036
0.10314103
0.10650755
0.10989022
0.11329758
0.11675228
0.12025233
0.12382391
0.1274419
0.13113588
0.13483931
0.13858371
0.14224445
0.14584245
0.14920871
0.15229549
0.15500735
0.15704477
0.15873826
0.15912424
-0.00029839508
0.00065773501
0.00058564235
0.0011874574
0.0013394779
0.0017815446
0.0020247048
0.002390381
0.0026653325
0.002989212
0.0032685025
0.0035637966
0.0038336248
0.0041040803
0.0043563596
0.0046014154
0.0048303245
0.0050473314
0.0052478082
0.0054329785
0.0056000587
0.0057488721
0.0058773996
0.0059847816
0.0060692883
0.0061296996
0.00616437
0.0061718683
0.0061505546
0.0060988612
0.006015146
0.0058977495
0.0057450429
0.0055553566
0.0053270882
0.0050586338
0.0047484816
0.0043951693
0.0039973619
0.0035538445
0.0030635691
0.0025257161
0.00193968
0.0013052033
0.00062235035
-0.00010835858
-0.00088593049
-0.0017087845
-0.0025746908
-0.003480674
-0.0044229211
-0.0053966919
-0.0063962164
-0.0074146217
-0.0084438182
-0.0094744745
-0.010495904
-0.011496105
-0.012461673
-0.013377941
-0.01422891
-0.014997559
-0.015665772
-0.016214868
-0.016625497
-0.016878436
-0.016954387
-0.016835081
-0.016502855
-0.015942138
-0.015138595
-0.014081097
-0.01276018
-0.011170655
-0.0093090508
-0.0071771537
-0.004777994
-0.0021207256
0.00078514778
0.0039239217
0.0072788754
0.010829414
0.014556638
0.018433685
0.022440315
0.026547204
0.030734302
0.034972289
0.039243199
0.043520078
0.047788395
0.052025423
0.056220743
0.060356954
0.064428077
0.068422646
0.072338483
0.076171079
0.079921458
0.083590388
0.087185287
0.090705225
0.094160634
0.097567369
0.10093266
0.104272
0.10759595
0.11092125
0.11425594
0.11761837
0.12100706
0.12444111
0.1278992
0.13139966
0.13488782
0.13837753
0.14177126
0.14506382
0.14813375
0.15090409
0.15333531
0.15512629
0.15661374
0.15693227
-0.00028423217
0.00066200431
0.00060430947
0.0012055693
0.001366766
0.0018121772
0.002062749
0.0024335636
0.0027155156
0.0030455529
0.0033319898
0.0036342029
0.0039115871
0.0041896632
0.0044500596
0.0047034508
0.0049411379
0.0051672268
0.0053772071
0.0055722294
0.0057495673
0.0059089982
0.0060485218
0.0061672385
0.0062634081
0.0063357643
0.0063826257
0.0064025012
0.0063936896
0.0063545418
0.0062833246
0.0061782674
0.0060376126
0.0058595386
0.0056422664
0.0053839902
0.0050829691
0.0047374863
0.0043459265
0.0039067704
0.0034186413
0.0028803672
0.0022909688
0.0016497941
0.00095649791
0.00021117821
-0.0005855975
-0.0014326728
-0.0023282275
-0.0032696744
-0.004253549
-0.0052754109
-0.0063297187
-0.0074097474
-0.0085074453
-0.0096134054
-0.010716714
-0.011804999
-0.012864292
-0.013879206
-0.014832796
-0.01570694
-0.016482185
-0.017138391
-0.017654524
-0.018009627
-0.018182474
-0.018152937
-0.017901339
-0.017410324
-0.016663648
-0.015648699
-0.014354401
-0.01277461
-0.010904697
-0.0087462152
-0.0063015699
-0.0035806207
-0.00059231301
0.002643638
0.0061129476
0.0097909866
0.013658496
0.017685144
0.021849644
0.02611855
0.030470868
0.03487286
0.039305854
0.043738664
0.048156425
0.052532822
0.056857561
0.06111066
0.065286572
0.069372149
0.073366686
0.077263403
0.081066123
0.084774431
0.088394172
0.091933921
0.095396496
0.098791285
0.10213565
0.10543923
0.1087139
0.1119737
0.11522587
0.11848535
0.12175041
0.12503465
0.12831952
0.1316149
0.13487578
0.13810373
0.14122306
0.14421265
0.14698795
0.14945901
0.15162615
0.1532037
0.15451988
0.15481219
-0.0002680007
0.0006660942
0.00062504259
0.0012247898
0.001396381
0.0018448564
0.0021035492
0.002479556
0.0027689918
0.003105405
0.0033993897
0.0037088285
0.0039941555
0.0042802141
0.0045491276
0.0048112553
0.005058143
0.0052937465
0.0055136783
0.0057190137
0.0059070851
0.0060776259
0.0062286556
0.006359238
0.0064676232
0.0065525007
0.0066121513
0.0066450204
0.0066493379
0.0066233644
0.0065652629
0.0064731383
0.0063450905
0.0061791348
0.0059733078
0.0057255971
0.0054340303
0.0050966332
0.0047115044
0.0042768098
0.0037908296
0.00325202
0.0026590064
0.0020107162
0.0013063676
0.00054560569
-0.00027146005
-0.0011441326
-0.0020710386
-0.0030500176
-0.0040779932
-0.0051508648
-0.0062633568
-0.0074089281
-0.0085795938
-0.0097658943
-0.010956699
-0.012139267
-0.01329905
-0.014419906
-0.015483886
-0.016471695
-0.017362439
-0.018134403
-0.018764713
-0.019230534
-0.019508514
-0.019576504
-0.019412591
-0.018997485