/*--------------------------------*- C++ -*----------------------------------*\
| =========                 |                                                 |
| \\      /  F ield         | foam-extend: Open Source CFD                    |
|  \\    /   O peration     | Version:     4.1                                |
|   \\  /    A nd           | Web:         http://www.foam-extend.org         |
|    \\/     M anipulation  |                                                 |
\*---------------------------------------------------------------------------*/
FoamFile
{
    version     2.0;
    format      ascii;
    class       surfaceScalarField;
    location    "1.1";
    object      phi;
}
// * * * * * * * * * * * * * * * * * * * * * * * * * * * * * * * * * * * * * //

dimensions      [0 3 -1 0 0 0 0];

internalField   nonuniform List<scalar> 
31929
(
-4.7379416e-05
1.3786776e-08
-4.7377837e-05
-1.5787911e-09
-4.7378952e-05
1.1148483e-09
-4.7376496e-05
-2.4556777e-09
-4.7372592e-05
-3.9045123e-09
-4.7367353e-05
-5.2390427e-09
-4.7359869e-05
-7.4836351e-09
-4.7351383e-05
-8.4859928e-09
-4.7340742e-05
-1.0640554e-08
-4.7328955e-05
-1.1787223e-08
-4.7315188e-05
-1.3767335e-08
-4.7300075e-05
-1.5112424e-08
-4.7283096e-05
-1.6979837e-08
-4.7264606e-05
-1.8489895e-08
-4.7244297e-05
-2.0308658e-08
-4.7222358e-05
-2.1938918e-08
-4.7198614e-05
-2.3744143e-08
-4.7173164e-05
-2.5450124e-08
-4.7145918e-05
-2.7245632e-08
-4.711694e-05
-2.8978178e-08
-4.7086202e-05
-3.0737864e-08
-4.7053768e-05
-3.2434451e-08
-4.7019666e-05
-3.4101444e-08
-4.698399e-05
-3.5676361e-08
-4.6946832e-05
-3.7158027e-08
-4.6908341e-05
-3.8491137e-08
-4.6868696e-05
-3.9644382e-08
-4.6828132e-05
-4.0563876e-08
-4.678692e-05
-4.121264e-08
-4.6745377e-05
-4.1542272e-08
-4.6703862e-05
-4.1514979e-08
-4.6662757e-05
-4.1104991e-08
-4.6622583e-05
-4.0174382e-08
-4.6584115e-05
-3.8468199e-08
-4.6548207e-05
-3.5907564e-08
-4.6515631e-05
-3.2575893e-08
-4.6487044e-05
-2.8587588e-08
-4.6463227e-05
-2.3816967e-08
-4.644555e-05
-1.7676631e-08
-4.643578e-05
-9.7704872e-09
-4.643657e-05
7.9061824e-10
-4.644878e-05
1.2209501e-08
-4.6472218e-05
2.3438018e-08
-4.650808e-05
3.5862772e-08
-4.6557495e-05
4.9414694e-08
-4.6621722e-05
6.4226683e-08
-4.6701976e-05
8.0254027e-08
-4.679944e-05
9.7464463e-08
-4.6915221e-05
1.1578092e-07
-4.705033e-05
1.3510883e-07
-4.7205654e-05
1.5532408e-07
-4.7381933e-05
1.7627934e-07
-4.7579735e-05
1.9780154e-07
-4.779943e-05
2.1969519e-07
-4.8041172e-05
2.4174238e-07
-4.830488e-05
2.637071e-07
-4.8590217e-05
2.8533701e-07
-4.8896584e-05
3.0636752e-07
-4.922311e-05
3.2652552e-07
-4.9568643e-05
3.4553382e-07
-4.9931757e-05
3.6311403e-07
-5.0310749e-05
3.7899206e-07
-5.070365e-05
3.9290054e-07
-5.1108232e-05
4.0458226e-07
-5.1522024e-05
4.1379238e-07
-5.1942325e-05
4.2030041e-07
-5.2366217e-05
4.2389219e-07
-5.2790587e-05
4.2436973e-07
-5.3212142e-05
4.2155535e-07
-5.3627435e-05
4.1529333e-07
-5.4032891e-05
4.0545553e-07
-5.442484e-05
3.9194887e-07
-5.4799566e-05
3.7472667e-07
-5.5153368e-05
3.5380168e-07
-5.5482633e-05
3.2926452e-07
-5.5783937e-05
3.0130425e-07
-5.605416e-05
2.7022279e-07
-5.6290621e-05
2.3646113e-07
-5.6491205e-05
2.0058449e-07
-5.665452e-05
1.6331517e-07
-5.6779941e-05
1.2542058e-07
-5.6867758e-05
8.7817227e-08
-5.6918971e-05
5.1213132e-08
-5.6935381e-05
1.6409735e-08
-5.691992e-05
-1.5460983e-08
-5.6874596e-05
-4.5324178e-08
-5.6803274e-05
-7.1321277e-08
-5.6714554e-05
-8.8720465e-08
-5.6619748e-05
-9.4806016e-08
-5.6531716e-05
-8.8031752e-08
-5.6466054e-05
-6.5661992e-08
-5.6441972e-05
-2.4082168e-08
-5.6481849e-05
3.987668e-08
-5.6600046e-05
1.1819789e-07
-5.6799979e-05
1.9993276e-07
-5.7083441e-05
2.8346159e-07
-5.7452003e-05
3.6856227e-07
-5.7908568e-05
4.5656473e-07
-5.8457674e-05
5.4910653e-07
-5.9106076e-05
6.4840217e-07
-5.9862941e-05
7.568652e-07
-6.0740746e-05
8.7780417e-07
-6.1755662e-05
1.0149167e-06
-6.2929484e-05
1.1738213e-06
-6.4290488e-05
1.3610046e-06
-6.5877544e-05
1.5870558e-06
-6.7741653e-05
1.864109e-06
-6.995398e-05
2.2123271e-06
-7.2607302e-05
2.6533225e-06
-7.5830175e-05
3.2228722e-06
-7.9784404e-05
3.9542298e-06
-8.4687752e-05
4.9033472e-06
-9.0796351e-05
6.1085991e-06
-9.843997e-05
7.6436197e-06
-0.00010796519
9.525215e-06
-0.00011979876
1.1833575e-05
-0.00013430384
1.4505083e-05
-0.00015193293
1.7629089e-05
-0.00017287055
2.0937621e-05
-0.00019751465
2.4644096e-05
-0.00022529657
2.7781925e-05
-0.00025683778
3.1541209e-05
-0.00028729947
3.0461685e-05
3.5281133e-05
-0.00013550133
2.8768328e-08
-0.00013550427
1.3601982e-09
-0.00013550751
4.3538535e-09
-0.00013550613
-3.8350574e-09
-0.00013550326
-6.7776547e-09
-0.00013549778
-1.0720706e-08
-0.00013548997
-1.5291966e-08
-0.00013547995
-1.8503296e-08
-0.00013546751
-2.3083427e-08
-0.00013545295
-2.635043e-08
-0.00013543605
-3.0665213e-08
-0.00013541706
-3.4103662e-08
-0.00013539582
-3.8219426e-08
-0.00013537249
-4.1816785e-08
-0.000135347
-4.5801774e-08
-0.00013531946
-4.9479926e-08
-0.00013528986
-5.3342523e-08
-0.00013525832
-5.6992365e-08
-0.00013522489
-6.0673723e-08
-0.00013518972
-6.4150136e-08
-0.00013515293
-6.7520694e-08
-0.00013511474
-7.0627574e-08
-0.00013507536
-7.3481287e-08
-0.00013503508
-7.5954179e-08
-0.00013499424
-7.7996642e-08
-0.00013495328
-7.9452994e-08
-0.00013491274
-8.0189428e-08
-0.00013487324
-8.0059951e-08
-0.00013483553
-7.8926279e-08
-0.00013480046
-7.6609086e-08
-0.00013476906
-7.2915333e-08
-0.00013474252
-6.7649182e-08
-0.00013472216
-6.0531064e-08
-0.00013470949
-5.1135378e-08
-0.00013470643
-3.8971916e-08
-0.00013471518
-2.3823457e-08
-0.00013473865
-5.1186623e-09
-0.00013477838
1.5914441e-08
-0.0001348348
3.8740492e-08
-0.00013490918
6.4607961e-08
-0.00013500238
9.3999498e-08
-0.00013511707
1.2689296e-07
-0.00013525664
1.6301308e-07
-0.00013542339
2.0261329e-07
-0.00013561966
2.4568353e-07
-0.00013584762
2.9218953e-07
-0.00013610936
3.419929e-07
-0.0001364068
3.9489643e-07
-0.00013674163
4.5061858e-07
-0.00013711533
5.0880818e-07
-0.00013752904
5.6903443e-07
-0.00013798356
6.3079458e-07
-0.00013847927
6.9351347e-07
-0.00013901613
7.5655271e-07
-0.0001395936
8.1921414e-07
-0.00014021065
8.8075386e-07
-0.0001408657
9.4039141e-07
-0.00014155666
9.9732403e-07
-0.00014228087
1.0507406e-06
-0.00014303518
1.0998385e-06
-0.0001438159
1.1438339e-06
-0.00014461889
1.1819807e-06
-0.00014543956
1.2135789e-06
-0.00014627297
1.2379857e-06
-0.0001471138
1.2546214e-06
-0.00014795647
1.2629728e-06
-0.00014879517
1.2625966e-06
-0.00014962392
1.2531139e-06
-0.00015043658
1.2342152e-06
-0.00015122694
1.2056599e-06
-0.00015198877
1.1672831e-06
-0.00015271583
1.1190101e-06
-0.00015340199
1.0608813e-06
-0.00015404127
9.9308414e-07
-0.000154628
9.1600022e-07
-0.00015515696
8.3026182e-07
-0.00015562354
7.3679866e-07
-0.00015602398
6.3690561e-07
-0.00015635564
5.3223975e-07
-0.00015661721
4.2488281e-07
-0.00015680895
3.1716157e-07
-0.00015693296
2.1183456e-07
-0.00015699295
1.1119662e-07
-0.00015699493
1.8389964e-08
-0.00015694165
-6.873716e-08
-0.00015683963
-1.4734947e-07
-0.00015670609
-2.0485376e-07
-0.00015656337
-2.314475e-07
-0.00015644091
-2.1726339e-07
-0.00015637646
-1.5248417e-07
-0.00015641554
-2.6576977e-08
-0.00015659819
1.5856215e-07
-0.00015694082
3.8251619e-07
-0.00015745598
6.3335739e-07
-0.00015816406
9.0801023e-07
-0.0001590826
1.2019983e-06
-0.00016022783
1.5137949e-06
-0.00016161482
1.8435528e-06
-0.00016325908
2.1933705e-06
-0.00016517782
2.5671373e-06
-0.00016739094
2.9699876e-06
-0.00016992202
3.4088817e-06
-0.00017279883
3.8917282e-06
-0.00017605411
4.4290975e-06
-0.00017972567
5.0325719e-06
-0.00018385708
5.7184674e-06
-0.00018849704
6.5040693e-06
-0.00019369973
7.4150125e-06
-0.00019952253
8.476123e-06
-0.00020602556
9.7259031e-06
-0.00021326586
1.1194524e-05
-0.00022129551
1.2932999e-05
-0.00023014912
1.4962215e-05
-0.00023984096
1.7335456e-05
-0.00025033935
2.0023603e-05
-0.00026156703
2.3061261e-05
-0.00027334634
2.6284389e-05
-0.00028542189
2.970464e-05
-0.00029732568
3.2841406e-05
-0.00030849976
3.5818176e-05
-0.00031794778
3.7229946e-05
-0.00032461432
3.8207747e-05
-0.00032737797
3.3225342e-05
3.0483759e-05
-0.00020804965
4.8052138e-08
-0.00020806041
1.2124158e-08
-0.00020807039
1.4331431e-08
-0.00020807628
2.060435e-09
-0.0002080813
-1.7612183e-09
-0.00020808419
-7.8355361e-09
-0.0002080859
-1.3578632e-08
-0.00020808597
-1.8429976e-08
-0.00020808482
-2.4237882e-08
-0.00020808232
-2.8843879e-08
-0.00020807868
-3.4306363e-08
-0.00020807393
-3.8861061e-08
-0.0002080682
-4.3942427e-08
-0.00020806162
-4.839875e-08
-0.00020805434
-5.3084434e-08
-0.00020804652
-5.7301481e-08
-0.00020803835
-6.1505855e-08
-0.00020803007
-6.5273637e-08
-0.00020802193
-6.8810489e-08
-0.00020801425
-7.1836981e-08
-0.00020800737
-7.4401756e-08
-0.00020800171
-7.6287318e-08
-0.00020799775
-7.7436921e-08
-0.00020799606
-7.7642809e-08
-0.00020799729
-7.6768384e-08
-0.00020800217
-7.4578775e-08
-0.00020801152
-7.0833361e-08
-0.00020802635
-6.5233357e-08
-0.00020804779
-5.7481624e-08
-0.00020807718
-4.722193e-08
-0.00020811601
-3.4087127e-08
-0.00020816594
-1.7719389e-08
-0.00020822858
2.1153616e-09
-0.00020830486
2.5141951e-08
-0.0002083955
5.166747e-08
-0.0002085017
8.2373368e-08
-0.00020862442
1.1760341e-07
-0.00020876603
1.5752389e-07
-0.0002089297
2.0241186e-07
-0.00020911777
2.5267669e-07
-0.00020933246
3.0869423e-07
-0.00020957626
3.7068931e-07
-0.00020985176
4.3851726e-07
-0.00021016124
5.1209153e-07
-0.00021050685
5.9129546e-07
-0.00021089062
6.7595037e-07
-0.00021131435
7.6572753e-07
-0.00021177965
8.6019274e-07
-0.0002122878
9.5876986e-07
-0.00021283975
1.0607621e-06
-0.00021343606
1.1653407e-06
-0.00021407682
1.2715576e-06
-0.00021476166
1.3783497e-06
-0.00021548966
1.4845566e-06
-0.00021625938
1.5889301e-06
-0.00021706878
1.6901617e-06
-0.0002179153
1.7869021e-06
-0.00021879576
1.8777885e-06
-0.00021970649
1.9614708e-06
-0.00022064329
2.036643e-06
-0.00022160152
2.1020612e-06
-0.00022257612
2.156575e-06
-0.00022356168
2.1991408e-06
-0.00022455253
2.228836e-06
-0.00022554277
2.2448643e-06
-0.00022652635
2.2465546e-06
-0.00022749712
2.2333594e-06
-0.00022844884
2.2048372e-06
-0.00022937528
2.1606532e-06
-0.00023027019
2.1005724e-06
-0.00023112737
2.0244663e-06
-0.0002319407
1.9323358e-06
-0.00023270417
1.8243542e-06
-0.00023341201
1.7009248e-06
-0.00023405878
1.5627679e-06
-0.00023463954
1.4110234e-06
-0.00023515009
1.2473437e-06
-0.00023558719
1.0740131e-06
-0.00023594893
8.9398109e-07
-0.00023623501
7.1095625e-07
-0.00023644708
5.2923864e-07
-0.00023658915
3.5390455e-07
-0.00023666794
1.8998628e-07
-0.00023669323
4.3679409e-08
-0.0002366796
-8.2368754e-08
-0.00023664634
-1.8061249e-07
-0.00023661775
-2.3344533e-07
-0.00023662462
-2.2457626e-07
-0.0002367014
-1.4047874e-07
-0.00023688523
3.1345722e-08
-0.00023719749
2.8567749e-07
-0.00023764704
6.0811794e-07
-0.00023825709
9.9256113e-07
-0.00023905643
1.4327e-06
-0.00024006933
1.920911e-06
-0.00024131595
2.4486172e-06
-0.00024281174
3.0095859e-06
-0.00024456906
3.6008671e-06
-0.00024659797
4.2222899e-06
-0.00024890731
4.8764753e-06
-0.00025150526
5.5679366e-06
-0.00025439984
6.3034565e-06
-0.00025759908
7.0909693e-06
-0.00026111095
7.9409664e-06
-0.00026494301
8.8646321e-06
-0.00026910164
9.877097e-06
-0.00027359105
1.0993483e-05
-0.00027841146
1.223542e-05
-0.0002835571
1.3621768e-05
-0.0002890127
1.5181502e-05
-0.00029475013
1.6931951e-05
-0.00030072233
1.8905205e-05
-0.00030685876
2.1098638e-05
-0.00031305648
2.353318e-05
-0.00031917528
2.61424e-05
-0.00032502775
2.8913738e-05
-0.00033037454
3.1631175e-05
-0.00033492046
3.4250565e-05
-0.00033830607
3.6227009e-05
-0.00034012431
3.7636422e-05
-0.00033994167
3.7047307e-05
-0.00033718568
3.5451759e-05
-0.00033227467
2.8314323e-05
2.0789894e-05
-0.00026108375
7.5246204e-08
-0.00026110735
3.5724088e-08
-0.00026113084
3.7821987e-08
-0.00026115178
2.3006552e-08
-0.00026117217
1.862151e-08
-0.00026119124
1.1235338e-08
-0.0002612105
5.6901004e-09
-0.00026122963
6.9565532e-10
-0.00026124939
-4.4744569e-09
-0.00026126963
-8.6103135e-09
-0.00026129071
-1.3226131e-08
-0.00026131267
-1.690024e-08
-0.00026133584
-2.0773765e-08
-0.00026136039
-2.384714e-08
-0.00026138666
-2.6816941e-08
-0.00026141492
-2.9040656e-08
-0.00026144555
-3.0876822e-08
-0.00026147892
-3.190353e-08
-0.00026151548
-3.2251493e-08
-0.0002615557
-3.161027e-08
-0.00026160015
-2.995683e-08
-0.00026164941
-2.7019714e-08
-0.00026170419
-2.2663761e-08
-0.00026176521
-1.6618292e-08
-0.00026183332
-8.6598374e-09
-0.00026190935
1.4494646e-09
-0.00026199405
1.3866327e-08
-0.00026208821
2.8930667e-08
-0.00026219272
4.7028247e-08
-0.00026230848
6.8536591e-08
-0.00026243641
9.383906e-08
-0.00026257746
1.2333019e-07
-0.00026273273
1.5738477e-07
-0.000262904
1.9641993e-07
-0.00026309325
2.4091324e-07
-0.00026330209
2.9121499e-07
-0.00026353223
3.477384e-07
-0.0002637857
4.1099756e-07
-0.00026406469
4.8140079e-07
-0.00026437113
5.5911508e-07
-0.00026470685
6.4441411e-07
-0.00026507355
7.3739505e-07
-0.00026547296
8.3792032e-07
-0.00026590673
9.4586893e-07
-0.0002663764
1.0609662e-06
-0.00026688328
1.1828278e-06
-0.00026742845
1.3108918e-06
-0.0002680127
1.4444451e-06
-0.00026863652
1.5825935e-06
-0.00026930004
1.7242812e-06
-0.00027000298
1.8682846e-06
-0.00027074466
2.013229e-06
-0.00027152391
2.1575997e-06
-0.00027233912
2.29977e-06
-0.00027318821
2.4380179e-06
-0.00027406861
2.5705672e-06
-0.00027497733
2.6956179e-06
-0.00027591092
2.8113848e-06
-0.00027686559
2.916135e-06
-0.00027783718
3.0082302e-06
-0.00027882126
3.0861479e-06
-0.00027981321
3.1485196e-06
-0.00028080821
3.1941423e-06
-0.00028180136
3.2219881e-06
-0.0002827877
3.2312009e-06
-0.00028376223
3.2210835e-06
-0.00028471995
3.1910846e-06
-0.00028565588
3.1407651e-06
-0.00028656502
3.0697927e-06
-0.00028744238
2.9779306e-06
-0.00028828296
2.8650491e-06
-0.00028908179
2.7311656e-06
-0.00028983395
2.5765158e-06
-0.00029053468
2.4016495e-06
-0.00029117948
2.2075678e-06
-0.00029176433
1.9958809e-06
-0.00029228594
1.7689555e-06
-0.00029274202
1.5300865e-06
-0.00029313161
1.2835777e-06
-0.00029345551
1.0348506e-06
-0.00029371662
7.9035072e-07
-0.00029392032
5.5760453e-07
-0.0002940753
3.4496723e-07
-0.00029419315
1.6152534e-07
-0.00029429412
1.8608657e-08
-0.0002944004
-7.4340106e-08
-0.00029453052
-1.0331971e-07
-0.00029470461
-5.0489966e-08
-0.00029494041
9.5322907e-08
-0.00029524416
3.3509099e-07
-0.00029562407
6.6558764e-07
-0.00029610234
1.0863934e-06
-0.00029670355
1.5937691e-06
-0.00029744897
2.1781167e-06
-0.00029835426
2.8262075e-06
-0.00029943185
3.5262074e-06
-0.00030069095
4.2686783e-06
-0.00030213732
5.0472426e-06
-0.00030377366
5.8586309e-06
-0.00030559983
6.702642e-06
-0.00030761329
7.5814029e-06
-0.00030980936
8.4995214e-06
-0.00031218133
9.4629361e-06
-0.00031472029
1.047993e-05
-0.00031741492
1.1559261e-05
-0.00032025056
1.2712741e-05
-0.00032320856
1.3951476e-05
-0.00032626426
1.5291126e-05
-0.00032938582
1.6743329e-05
-0.00033253058
1.8326259e-05
-0.0003356435
2.0044868e-05
-0.00033865144
2.1913143e-05
-0.00034146268
2.3909883e-05
-0.00034395936
2.6029858e-05
-0.00034600204
2.8185079e-05
-0.00034742209
3.0333792e-05
-0.00034803953
3.224861e-05
-0.00034765662
3.3867658e-05
-0.00034611152
3.468191e-05
-0.00034324883
3.4773731e-05
-0.00033915132
3.2949796e-05
-0.00033377622
3.0076654e-05
-0.00032844683
2.2984935e-05
1.4923665e-05
-0.00029567357
1.1210094e-07
-0.00029571176
7.3915104e-08
-0.00029575106
7.712169e-08
-0.00029579048
6.2424992e-08
-0.00029583112
5.9255895e-08
-0.00029587237
5.2489264e-08
-0.0002959153
4.8620106e-08
-0.00029595957
4.4963348e-08
-0.00029600589
4.1848745e-08
-0.00029605431
3.9809695e-08
-0.00029610546
3.7922543e-08
-0.00029615953
3.7173811e-08
-0.00029621703
3.6720275e-08
-0.00029627824
3.7363381e-08
-0.00029634362
3.8569858e-08
-0.00029641357
4.0901896e-08
-0.00029648854
4.409741e-08
-0.000296569
4.8555952e-08
-0.00029665546
5.4210258e-08
-0.00029674845
6.137686e-08
-0.00029684853
7.0124907e-08
-0.0002969563
8.0745304e-08
-0.00029707237
9.3407494e-08
-0.0002971974
1.0841331e-07
-0.00029733207
1.2601009e-07
-0.00029747715
1.4652787e-07
-0.00029763358
1.7029805e-07
-0.00029780236
1.9770997e-07
-0.00029798447
2.2913734e-07
-0.00029818093
2.6500103e-07
-0.00029839281
3.057219e-07
-0.00029862124
3.5175373e-07
-0.00029886746
4.0360274e-07
-0.00029913288
4.6184621e-07
-0.00029941894
5.2696749e-07
-0.00029972703
5.9930412e-07
-0.00030005858
6.7929433e-07
-0.00030041487
7.6728578e-07
-0.00030079708
8.6361188e-07
-0.00030120647
9.6850368e-07
-0.00030164422
1.0821625e-06
-0.00030211144
1.2046195e-06
-0.00030260921
1.3356833e-06
-0.00030313839
1.4750503e-06
-0.00030369969
1.6222661e-06
-0.00030429359
1.776729e-06
-0.00030492033
1.937637e-06
-0.0003055799
2.104009e-06
-0.00030627196
2.2746565e-06
-0.00030699589
2.4482069e-06
-0.0003077507
2.6231023e-06
-0.0003085351
2.7976218e-06
-0.0003093474
2.9699005e-06
-0.00031018559
3.1379681e-06
-0.00031104735
3.299771e-06
-0.00031193001
3.4532277e-06
-0.00031283066
3.5962658e-06
-0.00031374614
3.7268707e-06
-0.00031467313
3.8431279e-06
-0.00031560818
3.9432717e-06
-0.00031654773
4.0257018e-06
-0.00031748823
4.0890214e-06
-0.00031842613
4.1320379e-06
-0.0003193579
4.1537601e-06
-0.00032028008
4.1533787e-06
-0.00032118923
4.1302361e-06
-0.00032208194
4.0837978e-06
-0.00032295478
4.0136029e-06
-0.00032380424
3.9192552e-06
-0.00032462673
3.8004136e-06
-0.00032541849
3.6568177e-06
-0.00032617568
3.4883555e-06
-0.00032689434
3.2951739e-06
-0.00032757051
3.0778213e-06
-0.00032820039
2.8374404e-06
-0.00032878049
2.5759815e-06
-0.00032930793
2.2963972e-06
-0.0003297807
2.0028525e-06
-0.00033019795
1.7008282e-06
-0.00033056032
1.3972279e-06
-0.00033087025
1.1002797e-06
-0.00033113219
8.1954558e-07
-0.00033135284
5.6561681e-07
-0.00033154143
3.5011082e-07
-0.00033170902
1.8619585e-07
-0.00033187023
8.6874679e-08
-0.00033203771
6.4160797e-08
-0.00033221766
1.2945608e-07
-0.00033241369
2.9135171e-07
-0.00033263356
5.5496386e-07
-0.00033289227
9.2430088e-07
-0.0003332052
1.3993221e-06
-0.0003335836
1.9721684e-06
-0.00033403647
2.6309893e-06
-0.00033457259
3.3623231e-06
-0.00033519901
4.1526324e-06
-0.00033592052
4.9901819e-06
-0.00033673929
5.8660122e-06
-0.00033765477
6.7741132e-06
-0.00033866374
7.7116148e-06
-0.00033976044
8.6781031e-06
-0.00034093663
9.6757141e-06
-0.00034218171
1.0708016e-05
-0.00034348249
1.1780705e-05
-0.00034482305
1.289982e-05
-0.00034618398
1.4073679e-05
-0.00034754195
1.5309442e-05
-0.00034886803
1.6617203e-05
-0.00035012709
1.8002394e-05
-0.00035127512
1.9474284e-05
-0.00035225909
2.1028838e-05
-0.00035301334
2.2667398e-05
-0.0003534622
2.4358736e-05
-0.00035351605
2.608371e-05
-0.00035308115
2.7750184e-05
-0.00035205583
2.9308469e-05
-0.00035035531
3.054809e-05
-0.00034790122
3.1413565e-05
-0.00034468377
3.1464469e-05
-0.00034069552
3.0785473e-05
-0.00033616123
2.8415515e-05
-0.0003311209
2.5036324e-05
-0.00032664718
1.8511214e-05
1.0857081e-05
-0.00031592337
1.5822947e-07
-0.00031597451
1.2505227e-07
-0.00031602756
1.3017275e-07
-0.00031608302
1.1788454e-07
-0.00031614118
1.1742028e-07
-0.0003162018
1.1310291e-07
-0.00031626559
1.1240731e-07
-0.00031633244
1.1181942e-07
-0.00031640305
1.1246133e-07
-0.00031647753
1.1428757e-07
-0.00031655649
1.1687831e-07
-0.00031664018
1.2086607e-07
-0.00031672915
1.2568712e-07
-0.00031682375
1.3196736e-07
-0.00031692452
1.3933464e-07
-0.00031703189
1.4827447e-07
-0.00031714641
1.5862204e-07
-0.00031726861
1.707536e-07
-0.00031739907
1.8466626e-07
-0.00031753837
2.0068199e-07
-0.00031768716
2.1891784e-07
-0.0003178461
2.3968534e-07
-0.00031801589
2.6319385e-07
-0.00031819725
2.8977384e-07
-0.00031839095
3.1971118e-07
-0.00031859782
3.5339445e-07
-0.00031881872
3.9120117e-07
-0.00031905455
4.3354133e-07
-0.00031930623
4.8081611e-07
-0.00031957472
5.3348609e-07
-0.000319861
5.9200489e-07
-0.0003201661
6.5685657e-07
-0.00032049102
7.2851669e-07
-0.00032083663
8.0746005e-07
-0.00032120383
8.9416498e-07
-0.00032159354
9.8901215e-07
-0.00032200665
1.0924087e-06
-0.00032244406
1.2046987e-06
-0.00032290662
1.3261682e-06
-0.00032339503
1.4569131e-06
-0.00032390987
1.597003e-06
-0.00032445155
1.7463031e-06
-0.00032502038
1.9045127e-06
-0.00032561652
2.0711842e-06
-0.00032623993
2.2456812e-06
-0.0003268904
2.4271939e-06
-0.00032756746
2.614697e-06
-0.00032827042
2.8069708e-06
-0.00032899834
3.0025778e-06
-0.00032975002
3.1998908e-06
-0.00033052402
3.3970972e-06
-0.00033131862
3.5922272e-06
-0.0003321319
3.7831807e-06
-0.00033296171
3.9677745e-06
-0.00033380571
4.1437697e-06
-0.00033466142
4.3089369e-06
-0.00033552625
4.4610982e-06
-0.00033639756
4.5981798e-06
-0.00033727269
4.7182549e-06
-0.00033814901
4.8195914e-06
-0.00033902396
4.900658e-06
-0.0003398951
4.9601548e-06
-0.00034076005
4.9969961e-06
-0.00034161658
5.0102903e-06
-0.0003424625
4.9992993e-06
-0.00034329566
4.9633898e-06
-0.00034411385
4.9019894e-06
-0.00034491477
4.8145254e-06
-0.00034569593
4.7004177e-06
-0.0003464546
4.5590802e-06
-0.00034718775
4.3899686e-06
-0.00034789208
4.192685e-06
-0.00034856404
3.967133e-06
-0.00034919993
3.7137115e-06
-0.00034979605
3.4335587e-06
-0.00035034888
3.1288135e-06
-0.00035085533
2.8028425e-06
-0.00035131294
2.4604704e-06
-0.0003517202
2.1080842e-06
-0.00035207668
1.7537112e-06
-0.00035238331
1.4069041e-06
-0.0003526424
1.0786347e-06
-0.00035285777
7.8098994e-07
-0.0003530345
5.2683769e-07
-0.00035317811
3.2981093e-07
-0.00035329485
2.0361201e-07
-0.00035339077
1.6007756e-07
-0.00035347063
2.0932124e-07
-0.00035353966
3.603831e-07
-0.00035360525
6.2055471e-07
-0.00035367383
9.9287903e-07
-0.00035374933
1.47482e-06
-0.00035383618
2.0590232e-06
-0.00035393916
2.7339625e-06
-0.00035406244
3.4856081e-06
-0.00035420978
4.2999683e-06
-0.00035438385
5.1642581e-06
-0.00035458586
6.0680158e-06
-0.00035481515
7.0034056e-06
-0.00035506902
7.9654803e-06
-0.00035534261
8.9516935e-06
-0.00035562884
9.9619509e-06
-0.00035591844
1.0997617e-05
-0.00035619972
1.2061983e-05
-0.00035645853
1.315863e-05
-0.00035667771
1.429286e-05
-0.00035683691
1.5468642e-05
-0.00035691147
1.6691758e-05
-0.0003568723
1.7963227e-05
-0.00035668416
1.9286141e-05
-0.00035630637
2.0651051e-05
-0.00035569064
2.2051664e-05
-0.00035478459
2.3452693e-05
-0.00035352954
2.4828658e-05
-0.00035187069
2.6091332e-05
-0.00034975374
2.719152e-05
-0.0003471495
2.7943852e-05
-0.00034403906
2.8303129e-05
-0.00034047811
2.7903519e-05
-0.00033651767
2.6825025e-05
-0.00033242993
2.4327781e-05
-0.00032832053
2.0926919e-05
-0.00032501565
1.5206339e-05
8.4220285e-06
-0.00032663611
2.1249415e-07
-0.00032669778
1.8672618e-07
-0.00032676181
1.942072e-07
-0.0003268299
1.8596664e-07
-0.00032690158
1.8910062e-07
-0.00032697709
1.8861616e-07
-0.00032705694
1.9226216e-07
-0.00032714126
1.9613942e-07
-0.00032723067
2.0187124e-07
-0.00032732538
2.0899028e-07
-0.00032742595
2.1744806e-07
-0.00032753271
2.2763149e-07
-0.00032764624
2.3921394e-07
-0.00032776696
2.5268503e-07
-0.00032789543
2.6781237e-07
-0.00032803218
2.8501933e-07
-0.00032817778
3.0422595e-07
-0.00032833282
3.2578946e-07
-0.00032849791
3.4976243e-07
-0.0003286737
3.7647141e-07
-0.00032886086
4.0607334e-07
-0.00032906007
4.3889691e-07
-0.00032927206
4.7518235e-07
-0.00032949757
5.1528333e-07
-0.00032973737
5.5950869e-07
-0.00032999222
6.0824955e-07
-0.0003302629
6.6187991e-07
-0.00033055019
7.2083016e-07
-0.00033085488
7.8550899e-07
-0.00033117777
8.5637561e-07
-0.00033151963
9.3386758e-07
-0.00033188124
1.0184578e-06
-0.00033226334
1.1106164e-06
-0.00033266667
1.2107982e-06
-0.00033309194
1.3194332e-06
-0.00033353976
1.4368349e-06
-0.00033401069
1.5633363e-06
-0.00033450513
1.6991405e-06
-0.00033502339
1.8444262e-06
-0.00033556568
1.9991982e-06
-0.00033613208
2.1634034e-06
-0.00033672254
2.3367672e-06
-0.00033733689
2.5188591e-06
-0.00033797476
2.7090537e-06
-0.00033863561
2.9065363e-06
-0.00033931872
3.1103015e-06
-0.00034002315
3.3191253e-06
-0.00034074776
3.5315858e-06
-0.00034149123
3.7460434e-06
-0.00034225201
3.9606755e-06
-0.0003430284
4.173485e-06
-0.00034381851
4.382335e-06
-0.00034462031
4.5849811e-06
-0.00034543166
4.7791268e-06
-0.00034625034
4.9624532e-06
-0.0003470741
5.1326912e-06
-0.00034790067
5.2876647e-06
-0.00034872783
5.4253429e-06
-0.00034955345
5.5438792e-06
-0.00035037552
5.6416538e-06
-0.00035119212
5.7172638e-06
-0.00035200151
5.769543e-06
-0.00035280204
5.7975245e-06
-0.00035359215
5.8004014e-06
-0.00035437032
5.7774668e-06
-0.00035513497
5.7280481e-06
-0.00035588444
5.651454e-06
-0.00035661682
5.5469072e-06
-0.00035732995
5.4135471e-06
-0.00035802132
5.2504493e-06
-0.00035868805
5.0567019e-06
-0.00035932692
4.8315519e-06
-0.00035993439
4.5746046e-06
-0.00036050674
4.2860653e-06
-0.00036104021
3.9670272e-06
-0.00036153117
3.6197696e-06
-0.00036197633
3.2480012e-06
-0.00036237296
2.8570982e-06
-0.00036271906
2.4541891e-06
-0.00036301355
2.0481986e-06
-0.00036325633
1.6496814e-06
-0.00036344834
1.27065e-06
-0.00036359152
9.2417108e-07
-0.00036368867
6.239907e-07
-0.00036374304
3.8417937e-07
-0.00036375771
2.1827807e-07
-0.00036373601
1.3837929e-07
-0.00036368189
1.5520399e-07
-0.00036359904
2.7752741e-07
-0.00036348969
5.1120882e-07
-0.00036335519
8.583769e-07
-0.00036319681
1.3164393e-06
-0.0003630154
1.8776095e-06
-0.00036281217
2.5307366e-06
-0.00036258915
3.262588e-06
-0.00036234863
4.0594509e-06
-0.00036209282
4.9084513e-06
-0.00036182333
5.7985247e-06
-0.00036154074
6.7208167e-06
-0.00036124432
7.6690568e-06
-0.00036093178
8.6391554e-06
-0.00036059913
9.6292979e-06
-0.00036024058
1.0639066e-05
-0.00035984836
1.1669763e-05
-0.00035941267
1.2722945e-05
-0.00035892129
1.3801474e-05
-0.00035835947
1.4906828e-05
-0.00035770924
1.6041528e-05
-0.00035694951
1.7203493e-05
-0.00035605496
1.8391594e-05
-0.00035499719
1.9593277e-05
-0.00035374337
2.0797841e-05
-0.00035225995
2.1969282e-05
-0.00035051115
2.3079858e-05
-0.00034846814
2.4048321e-05
-0.00034610493
2.4828303e-05
-0.00034341965
2.5258577e-05
-0.00034041596
2.5299435e-05
-0.00033715998
2.4647536e-05
-0.00033369992
2.3364971e-05
-0.00033026025
2.0888113e-05
-0.00032692711
1.7593776e-05
-0.00032431234
1.2591565e-05
6.6904925e-06
-0.00033179052
2.7300917e-07
-0.00033185958
2.5579181e-07
-0.00033193125
2.6587104e-07
-0.00033200811
2.628256e-07
-0.0003320892
2.7019799e-07
-0.00033217516
2.7456909e-07
-0.00033226621
2.8331984e-07
-0.00033236267
2.9259338e-07
-0.00033246505
3.0424869e-07
-0.00033257366
3.1760947e-07
-0.0003326891
3.3288358e-07
-0.00033281175
3.5028391e-07
-0.0003329422
3.6966116e-07
-0.00033308092
3.9140513e-07
-0.0003332285
4.1539534e-07
-0.00033338549
4.4200906e-07
-0.0003335525
4.712361e-07
-0.00033373013
5.0341937e-07
-0.00033391903
5.3865579e-07
-0.00033411983
5.7727402e-07
-0.00033433321
6.1945944e-07
-0.00033455987
6.6554951e-07
-0.00033480049
7.158017e-07
-0.00033505578
7.7057938e-07
-0.00033532647
8.302006e-07
-0.00033561329
8.9506768e-07
-0.00033591696
9.6555187e-07
-0.00033623821
1.0420782e-06
-0.00033657774
1.1250409e-06
-0.00033693625
1.214886e-06
-0.00033731441
1.3120191e-06
-0.00033771283
1.4168773e-06
-0.00033813208
1.5298669e-06
-0.00033857263
1.6513544e-06
-0.00033903491
1.7817111e-06
-0.00033951926
1.9211865e-06
-0.00034002596
2.0700351e-06
-0.00034055519
2.228367e-06
-0.00034110701
2.396254e-06
-0.00034168137
2.5735534e-06
-0.00034227804
2.7600712e-06
-0.00034289664
2.9553645e-06
-0.00034353664
3.1588629e-06
-0.00034419737
3.3697804e-06
-0.00034487797
3.5871361e-06
-0.00034557741
3.8097499e-06
-0.00034629451
4.0362232e-06
-0.00034702789
4.2649617e-06
-0.000347776
4.4941597e-06
-0.00034853717
4.7218401e-06
-0.00034930955
4.9458678e-06
-0.0003500912
5.1639886e-06
-0.00035088009
5.3738662e-06
-0.00035167411
5.5731433e-06
-0.00035247112
5.759471e-06
-0.00035326902
5.9305861e-06
-0.00035406571
6.0843522e-06
-0.00035485917
6.2188088e-06
-0.0003556475
6.3322045e-06
-0.00035642887
6.4230311e-06
-0.00035720161
6.4899984e-06
-0.00035796411
6.5320429e-06
-0.00035871486
6.5482713e-06
-0.00035945236
6.5379064e-06
-0.00036017511
6.5002116e-06
-0.00036088147
6.4344161e-06
-0.00036156968
6.3396578e-06
-0.00036223769
6.2149183e-06
-0.00036288318
6.059041e-06
-0.00036350351
5.8707731e-06
-0.00036409568
5.6488718e-06
-0.00036465641
5.3922901e-06
-0.00036518222
5.1004145e-06
-0.00036566951
4.7733465e-06
-0.0003661147
4.4122198e-06
-0.00036651445
4.0195233e-06
-0.0003668658
3.5993449e-06
-0.0003671663
3.1576068e-06
-0.00036741423
2.7021182e-06
-0.00036760862
2.2425836e-06
-0.00036774932
1.7903833e-06
-0.00036783701
1.3583369e-06
-0.00036787307
9.6023139e-07
-0.00036785945
6.1037103e-07
-0.00036779831
3.2303791e-07
-0.00036769197
1.1194486e-07
-0.00036754279
-1.080759e-08
-0.00036735264
-3.4938615e-08
-0.00036712269
4.757628e-08
-0.00036685342
2.4193877e-07
-0.00036654443
5.4938852e-07
-0.00036619484
9.6684511e-07
-0.00036580435
1.4871182e-06
-0.00036537341
2.0997953e-06
-0.00036490323
2.7924091e-06
-0.00036439581
3.5520338e-06
-0.00036385346
4.3661061e-06
-0.00036327847
5.2235275e-06
-0.00036267266
6.1150044e-06
-0.00036203703
7.0334273e-06
-0.00036137148
7.9736128e-06
-0.00036067458
8.9323981e-06
-0.00035994341
9.9078951e-06
-0.00035917338
1.0899728e-05
-0.00035835816
1.1907729e-05
-0.0003574894
1.2932712e-05
-0.00035655669
1.3974119e-05
-0.00035554706
1.5031897e-05
-0.00035444521
1.6101644e-05
-0.00035323276
1.7179148e-05
-0.00035188937
1.8249879e-05
-0.00035039177
1.9300247e-05
-0.00034871714
2.0294646e-05
-0.00034684167
2.1204389e-05
-0.00034474877
2.1955428e-05
-0.00034242483
2.250436e-05
-0.00033987874
2.2712487e-05
-0.00033712394
2.2544634e-05
-0.00033423122
2.1754819e-05
-0.0003312569
2.0390648e-05
-0.00032840306
1.8034273e-05
-0.00032576727
1.4957985e-05
-0.00032377873
1.0603027e-05
5.492364e-06
-0.00033406065
3.3788133e-07
-0.00033413425
3.2939716e-07
-0.00033421056
3.4217632e-07
-0.00033429266
3.4492845e-07
-0.00033437929
3.5682554e-07
-0.00033447138
3.6666303e-07
-0.00033456902
3.8096224e-07
-0.00033467267
3.9624119e-07
-0.00033478277
4.1434992e-07
-0.00033489972
4.3455978e-07
-0.00033502406
4.572177e-07
-0.00033515622
4.8244559e-07
-0.00033529678
5.102204e-07
-0.00033544624
5.4086915e-07
-0.00033560521
5.7435843e-07
-0.00033577423
6.1103492e-07
-0.00033595394
6.5094464e-07
-0.00033614494
6.9442162e-07
-0.00033634789