/*--------------------------------*- C++ -*----------------------------------*\
| =========                 |                                                 |
| \\      /  F ield         | foam-extend: Open Source CFD                    |
|  \\    /   O peration     | Version:     4.1                                |
|   \\  /    A nd           | Web:         http://www.foam-extend.org         |
|    \\/     M anipulation  |                                                 |
\*---------------------------------------------------------------------------*/
FoamFile
{
    version     2.0;
    format      ascii;
    class       volVectorField;
    location    "1.1";
    object      U;
}
// * * * * * * * * * * * * * * * * * * * * * * * * * * * * * * * * * * * * * //

dimensions      [0 1 -1 0 0 0 0];

internalField   nonuniform List<vector> 
16126
(
(0.1468385 -1.4652541e-05 0)
(0.14690461 3.6071e-06 0)
(0.14684578 -6.0238477e-07 0)
(0.14689749 2.1251543e-06 0)
(0.14684171 3.0048073e-06 0)
(0.14686463 2.8740722e-06 0)
(0.14681582 4.6965989e-06 0)
(0.14681328 4.690486e-06 0)
(0.14676689 6.5721756e-06 0)
(0.1467446 6.9975457e-06 0)
(0.14669579 8.599414e-06 0)
(0.14665779 9.2638707e-06 0)
(0.14660314 1.0637525e-05 0)
(0.14655176 1.1485841e-05 0)
(0.14648905 1.2757222e-05 0)
(0.14642545 1.3765643e-05 0)
(0.14635331 1.5034217e-05 0)
(0.14627804 1.6195503e-05 0)
(0.14619567 1.7532137e-05 0)
(0.14610901 1.8853125e-05 0)
(0.14601608 2.0308575e-05 0)
(0.14591838 2.1797591e-05 0)
(0.14581502 2.3389855e-05 0)
(0.14570692 2.5005266e-05 0)
(0.14559385 2.6641661e-05 0)
(0.14547653 2.8142163e-05 0)
(0.14535521 2.9400675e-05 0)
(0.14523073 3.0336338e-05 0)
(0.14510372 3.0876244e-05 0)
(0.14497521 3.090797e-05 0)
(0.14484616 3.0416011e-05 0)
(0.14471783 2.9425123e-05 0)
(0.14459129 2.8413333e-05 0)
(0.14446876 2.8279099e-05 0)
(0.14435279 2.9551717e-05 0)
(0.14424614 3.2345832e-05 0)
(0.14415081 3.8041836e-05 0)
(0.14406891 4.2949241e-05 0)
(0.14400316 4.3575883e-05 0)
(0.14395934 4.1187621e-05 0)
(0.14394255 3.3392018e-05 0)
(0.14396423 2.601927e-05 0)
(0.1440183 2.2203774e-05 0)
(0.14410952 1.8001312e-05 0)
(0.14424067 1.3666683e-05 0)
(0.14441589 8.763085e-06 0)
(0.14463888 3.3407135e-06 0)
(0.14491347 -2.6523729e-06 0)
(0.14524317 -9.1974713e-06 0)
(0.14563131 -1.6286874e-05 0)
(0.14608085 -2.38938e-05 0)
(0.14659432 -3.1987183e-05 0)
(0.14717378 -4.0525373e-05 0)
(0.1478207 -4.9459304e-05 0)
(0.1485359 -5.8730979e-05 0)
(0.1493195 -6.827508e-05 0)
(0.15017088 -7.8017906e-05 0)
(0.15108859 -8.7878095e-05 0)
(0.15207036 -9.7766802e-05 0)
(0.15311305 -0.00010758698 0)
(0.15421267 -0.0001172335 0)
(0.15536436 -0.00012659326 0)
(0.15656241 -0.00013554406 0)
(0.15780033 -0.00014395462 0)
(0.15907082 -0.00015168409 0)
(0.16036584 -0.00015858255 0)
(0.16167667 -0.00016449109 0)
(0.16299396 -0.00016924331 0)
(0.16430775 -0.00017266917 0)
(0.16560759 -0.00017459786 0)
(0.16688255 -0.00017486509 0)
(0.16812139 -0.00017332069 0)
(0.16931262 -0.00016983889 0)
(0.17044468 -0.00016432951 0)
(0.17150617 -0.000156751 0)
(0.1724861 -0.00014712325 0)
(0.17337424 -0.00013553165 0)
(0.17416146 -0.00012214318 0)
(0.1748403 -0.00010716896 0)
(0.17540507 -9.0897259e-05 0)
(0.17585288 -7.3527322e-05 0)
(0.17618264 -5.5306989e-05 0)
(0.17639743 -3.6325353e-05 0)
(0.17650007 -1.6507243e-05 0)
(0.17649903 -3.1064639e-06 0)
(0.17640443 4.9395486e-06 0)
(0.17621813 1.3240209e-05 0)
(0.17596227 1.7445875e-05 0)
(0.17566817 1.7233251e-05 0)
(0.17537439 1.0584089e-05 0)
(0.17512248 1.2474738e-05 0)
(0.17496729 4.2649353e-05 0)
(0.1749729 5.5607099e-05 0)
(0.1752146 3.8566537e-05 0)
(0.17570573 2.4833032e-05 0)
(0.17645409 1.772214e-05 0)
(0.17746319 2.0108454e-05 0)
(0.17873914 2.9932376e-05 0)
(0.18029395 4.5846733e-05 0)
(0.18214354 6.6397755e-05 0)
(0.18431416 9.0930075e-05 0)
(0.18683598 0.00011831634 0)
(0.1897568 0.00014761879 0)
(0.19312817 0.00017558037 0)
(0.19703503 0.00019807113 0)
(0.20156576 0.00020470776 0)
(0.20687597 0.00018239028 0)
(0.21312181 0.00010414516 0)
(0.22059507 -6.1510456e-05 0)
(0.22956916 -0.00037284554 0)
(0.24058286 -0.0008899062 0)
(0.25407765 -0.0017185924 0)
(0.27099713 -0.0029472269 0)
(0.29193189 -0.0047371582 0)
(0.3184192 -0.0071733367 0)
(0.35093958 -0.010465158 0)
(0.39186669 -0.014609637 0)
(0.44074109 -0.019871521 0)
(0.50138788 -0.025970025 0)
(0.57017089 -0.033382313 0)
(0.65490518 -0.04070172 0)
(0.74101565 -0.049853993 0)
(0.85366662 -0.051318312 0)
(0.92415171 -0.062803925 0)
(0.42001295 -4.2522405e-05 0)
(0.42008586 2.9103812e-06 0)
(0.42004865 -4.076399e-06 0)
(0.42009174 8.0415653e-06 0)
(0.42005126 1.3169435e-05 0)
(0.42006534 1.8858893e-05 0)
(0.42002379 2.6329174e-05 0)
(0.42001205 3.0489716e-05 0)
(0.41996529 3.7524335e-05 0)
(0.41993225 4.1851676e-05 0)
(0.41987694 4.8455381e-05 0)
(0.41982607 5.3369929e-05 0)
(0.41976022 5.9739658e-05 0)
(0.41969364 6.515572e-05 0)
(0.41961613 7.1428119e-05 0)
(0.4195352 7.7182824e-05 0)
(0.41944565 8.3402787e-05 0)
(0.4193515 8.9318348e-05 0)
(0.41925023 9.5429788e-05 0)
(0.41914414 0.00010129448 0)
(0.41903223 0.00010713647 0)
(0.41891604 0.00011268024 0)
(0.41879547 0.00011799469 0)
(0.41867185 0.00012289857 0)
(0.41854577 0.00012738703 0)
(0.41841864 0.00013138598 0)
(0.41829182 0.00013488916 0)
(0.41816726 0.00013775732 0)
(0.41804694 0.00013991219 0)
(0.41793343 0.00014126651 0)
(0.41782953 0.00014169158 0)
(0.41773875 0.00014105677 0)
(0.41766496 0.00013835988 0)
(0.41761255 0.00013156096 0)
(0.41758641 0.00011971618 0)
(0.4175936 0.00010311816 0)
(0.41764062 8.0690994e-05 0)
(0.41773909 5.5732527e-05 0)
(0.41788701 2.9534998e-05 0)
(0.41808886 -8.947244e-07 0)
(0.4183482 -3.6741201e-05 0)
(0.41866673 -7.6566944e-05 0)
(0.41905923 -0.00011929282 0)
(0.41953211 -0.00016658296 0)
(0.42009309 -0.00021842938 0)
(0.42074898 -0.00027493046 0)
(0.42150646 -0.00033595512 0)
(0.42237177 -0.00040131541 0)
(0.42335055 -0.00047071171 0)
(0.42444776 -0.00054375945 0)
(0.42566749 -0.00061997111 0)
(0.42701277 -0.00069876706 0)
(0.42848549 -0.00077947193 0)
(0.43008619 -0.00086132322 0)
(0.43181401 -0.00094347661 0)
(0.43366652 -0.0010250185 0)
(0.4356397 -0.0011049762 0)
(0.43772786 -0.0011823338 0)
(0.43992363 -0.0012560484 0)
(0.44221799 -0.0013250656 0)
(0.44460031 -0.0013883377 0)
(0.44705845 -0.0014448405 0)
(0.44957884 -0.0014935873 0)
(0.45214665 -0.0015336428 0)
(0.45474594 -0.0015641321 0)
(0.45735978 -0.0015842504 0)
(0.4599705 -0.0015932661 0)
(0.46255974 -0.0015905268 0)
(0.4651087 -0.0015754653 0)
(0.46759822 -0.0015476066 0)
(0.47000895 -0.0015065838 0)
(0.47232153 -0.0014521617 0)
(0.47451672 -0.0013842702 0)
(0.47657567 -0.001303054 0)
(0.47848025 -0.0012089292 0)
(0.48021341 -0.0011026588 0)
(0.48175977 -0.00098540836 0)
(0.48310617 -0.00085883852 0)
(0.48424253 -0.00072507972 0)
(0.48516241 -0.00058683979 0)
(0.48586427 -0.00044710118 0)
(0.48635117 -0.00030942642 0)
(0.48663328 -0.00017665121 0)
(0.4867229 -5.2350426e-05 0)
(0.48664547 6.6343097e-05 0)
(0.48639288 0.00018236936 0)
(0.48601294 0.00028211503 0)
(0.48556508 0.00035049175 0)
(0.48512798 0.00037632781 0)
(0.48480631 0.00035620341 0)
(0.48472786 0.00026113851 0)
(0.48504827 5.6941805e-05 0)
(0.48586098 -0.00022063838 0)
(0.4871723 -0.00052785954 0)
(0.48905481 -0.00085303794 0)
(0.49156241 -0.0011923403 0)
(0.49474971 -0.0015477991 0)
(0.49866285 -0.0019227587 0)
(0.50334909 -0.0023226965 0)
(0.50885724 -0.0027553308 0)
(0.51524536 -0.0032300359 0)
(0.52257849 -0.0037594091 0)
(0.53093828 -0.0043578511 0)
(0.54041446 -0.0050453761 0)
(0.55112151 -0.0058447091 0)
(0.56317757 -0.006789262 0)
(0.57673739 -0.0079160756 0)
(0.59194399 -0.0092814708 0)
(0.60899655 -0.010943178 0)
(0.62804231 -0.01299062 0)
(0.64932094 -0.015500961 0)
(0.6729249 -0.018599305 0)
(0.69911742 -0.022355738 0)
(0.72779955 -0.026913205 0)
(0.75923626 -0.032256577 0)
(0.79284443 -0.038508433 0)
(0.82892106 -0.045410273 0)
(0.86575687 -0.053067139 0)
(0.90398638 -0.06065509 0)
(0.9392276 -0.068565435 0)
(0.97382696 -0.074239913 0)
(0.99686462 -0.08042596 0)
(1.0165902 -0.074779889 0)
(1.0120298 -0.080172692 0)
(0.64489973 -7.6357692e-05 0)
(0.64499677 -8.5408617e-06 0)
(0.64498561 -1.389449e-05 0)
(0.64504366 7.8048719e-06 0)
(0.64503358 1.4754162e-05 0)
(0.64506616 2.5334744e-05 0)
(0.64505789 3.6731354e-05 0)
(0.64507204 4.5862433e-05 0)
(0.64506183 5.775714e-05 0)
(0.64506234 6.69384e-05 0)
(0.64504822 7.8150016e-05 0)
(0.64503842 8.7436404e-05 0)
(0.64501969 9.8055037e-05 0)
(0.64500224 0.00010748886 0)
(0.64497938 0.00011766339 0)
(0.64495673 0.00012708899 0)
(0.64493115 0.00013681042 0)
(0.64490593 0.00014595739 0)
(0.64487994 0.00015504038 0)
(0.64485539 0.00016352408 0)
(0.64483234 0.00017159824 0)
(0.64481268 0.00017888452 0)
(0.64479729 0.00018536625 0)
(0.64478813 0.00019069428 0)
(0.64478684 0.00019468498 0)
(0.64479573 0.00019676912 0)
(0.64481706 0.00019636872 0)
(0.64485374 0.00019299832 0)
(0.64490899 0.00018617823 0)
(0.64498669 0.00017524143 0)
(0.64509119 0.00015950458 0)
(0.64522745 0.00013826883 0)
(0.64540071 0.00011124718 0)
(0.64561587 7.894169e-05 0)
(0.64587367 4.0466227e-05 0)
(0.64617779 -5.5203598e-06 0)
(0.64653214 -6.0034999e-05 0)
(0.64693868 -0.00012151519 0)
(0.64741007 -0.00018940209 0)
(0.64795347 -0.00026571626 0)
(0.64857609 -0.00035134603 0)
(0.64928457 -0.00044746462 0)
(0.65008766 -0.00055389671 0)
(0.65099269 -0.0006701453 0)
(0.65200644 -0.00079615206 0)
(0.65313548 -0.00093169448 0)
(0.65438576 -0.0010763288 0)
(0.65576264 -0.0012294298 0)
(0.6572706 -0.0013901358 0)
(0.65891318 -0.0015573815 0)
(0.66069272 -0.0017298756 0)
(0.66261028 -0.0019061217 0)
(0.66466545 -0.0020844215 0)
(0.66685626 -0.0022628979 0)
(0.66917907 -0.0024395158 0)
(0.6716285 -0.0026121156 0)
(0.6741974 -0.002778447 0)
(0.67687687 -0.0029362107 0)
(0.67965628 -0.0030831021 0)
(0.68252339 -0.0032168551 0)
(0.68546446 -0.0033352861 0)
(0.6884644 -0.0034363356 0)
(0.69150694 -0.0035181 0)
(0.69457487 -0.0035788598 0)
(0.6976502 -0.0036170953 0)
(0.70071437 -0.0036314947 0)
(0.7037484 -0.0036209519 0)
(0.70673308 -0.003584561 0)
(0.70964907 -0.0035216094 0)
(0.71247698 -0.0034315776 0)
(0.7151975 -0.0033141516 0)
(0.71779149 -0.0031692597 0)
(0.7202401 -0.0029971326 0)
(0.722525 -0.0027984037 0)
(0.72462869 -0.0025742299 0)
(0.72653494 -0.0023264571 0)
(0.7282294 -0.0020577569 0)
(0.7297003 -0.001771814 0)
(0.73093946 -0.0014733339 0)
(0.73194308 -0.0011682062 0)
(0.73271313 -0.00086304937 0)
(0.73325794 -0.00056568619 0)
(0.73359398 -0.00028275033 0)
(0.73374643 -2.3531769e-05 0)
(0.73375072 0.0002178813 0)
(0.73366201 0.00042661892 0)
(0.73354463 0.00056442978 0)
(0.73348473 0.00060580513 0)
(0.73358766 0.00052156702 0)
(0.73395993 0.00027200198 0)
(0.73472779 -0.00015282132 0)
(0.7358967 -0.00071032281 0)
(0.73751408 -0.0013576662 0)
(0.73967909 -0.0020865117 0)
(0.74247001 -0.0028954045 0)
(0.74595901 -0.0037700906 0)
(0.75019907 -0.0047020638 0)
(0.75523287 -0.0056887125 0)
(0.76109446 -0.0067331499 0)
(0.76781212 -0.0078437065 0)
(0.77541246 -0.0090321621 0)
(0.7839193 -0.010314628 0)
(0.79335904 -0.011709347 0)
(0.80375437 -0.013239918 0)
(0.81513308 -0.0149315 0)
(0.82751263 -0.016818101 0)
(0.8409176 -0.018934234 0)
(0.85534585 -0.02132964 0)
(0.87080634 -0.024049561 0)
(0.8872462 -0.027163939 0)
(0.90463592 -0.030721036 0)
(0.92281191 -0.034806836 0)
(0.94167447 -0.039438448 0)
(0.9608421 -0.044692642 0)
(0.9801256 -0.050464859 0)
(0.99873939 -0.056772686 0)
(1.0164732 -0.063197492 0)
(1.0317886 -0.069675765 0)
(1.0448206 -0.075050958 0)
(1.0525145 -0.079433034 0)
(1.0565209 -0.079597805 0)
(1.0507214 -0.077536661 0)
(1.0403384 -0.062594054 0)
(1.0190167 -0.04740993 0)
(0.80928255 -0.00012220851 0)
(0.80942437 -4.1582302e-05 0)
(0.80945076 -4.5362873e-05 0)
(0.80955373 -1.6304867e-05 0)
(0.80959263 -7.3585735e-06 0)
(0.8096713 7.23174e-06 0)
(0.80971728 1.957305e-05 0)
(0.80978611 3.0474902e-05 0)
(0.80983923 4.2551478e-05 0)
(0.8099062 5.2403939e-05 0)
(0.80996644 6.3777994e-05 0)
(0.81003563 7.3332563e-05 0)
(0.81010351 8.3737163e-05 0)
(0.81017863 9.2745402e-05 0)
(0.81025619 0.00010196399 0)
(0.81034115 0.00010999471 0)
(0.81043165 0.00011767947 0)
(0.81053088 0.00012413256 0)
(0.81063866 0.0001296963 0)
(0.81075746 0.00013374572 0)
(0.81088813 0.00013629427 0)
(0.81103298 0.00013681426 0)
(0.81119362 0.00013508539 0)
(0.81137255 0.00013058968 0)
(0.81157199 0.00012292919 0)
(0.8117948 0.00011167293 0)
(0.81204337 9.6482635e-05 0)
(0.81231995 7.6642679e-05 0)
(0.81262719 5.1380411e-05 0)
(0.81296791 1.9897676e-05 0)
(0.81334489 -1.8612222e-05 0)
(0.81376104 -6.4905274e-05 0)
(0.81421945 -0.00011947407 0)
(0.81472371 -0.00018198263 0)
(0.81528132 -0.00025306777 0)
(0.81589707 -0.00033399956 0)
(0.81657612 -0.00042540522 0)
(0.81732391 -0.00052933688 0)
(0.81814768 -0.00064719249 0)
(0.81905363 -0.00077878126 0)
(0.82004762 -0.00092470657 0)
(0.82113508 -0.0010848599 0)
(0.82232121 -0.0012588726 0)
(0.82361139 -0.0014468296 0)
(0.82501063 -0.0016483229 0)
(0.82652335 -0.0018628227 0)
(0.82815328 -0.0020894186 0)
(0.82990337 -0.002326934 0)
(0.83177565 -0.002573853 0)
(0.83377108 -0.0028283582 0)
(0.83588947 -0.0030883142 0)
(0.83812934 -0.0033512975 0)
(0.84048784 -0.0036146124 0)
(0.84296069 -0.0038753308 0)
(0.84554216 -0.0041303338 0)
(0.84822504 -0.0043763676 0)
(0.85100068 -0.0046101027 0)
(0.85385908 -0.0048282026 0)
(0.85678898 -0.0050273921 0)
(0.859778 -0.0052045265 0)
(0.86281282 -0.0053566549 0)
(0.86587934 -0.0054810756 0)
(0.86896287 -0.0055753763 0)
(0.87204834 -0.0056374605 0)
(0.87512041 -0.0056655541 0)
(0.87816362 -0.0056581971 0)
(0.88116248 -0.0056142192 0)
(0.88410151 -0.0055327116 0)
(0.88696522 -0.0054129987 0)
(0.88973816 -0.0052546274 0)
(0.89240483 -0.0050573803 0)
(0.89494975 -0.0048213359 0)
(0.89735755 -0.0045469705 0)
(0.89961313 -0.0042353286 0)
(0.90170203 -0.003888229 0)
(0.90361088 -0.0035085388 0)
(0.90532813 -0.0031004201 0)
(0.90684485 -0.0026696352 0)
(0.90815578 -0.00222367 0)
(0.90926034 -0.0017719724 0)
(0.91016392 -0.0013257065 0)
(0.91087925 -0.00089800229 0)
(0.91142677 -0.00050309564 0)
(0.91184037 -0.00015699381 0)
(0.91215728 0.00012282715 0)
(0.91246633 0.00032012391 0)
(0.91281646 0.00040089664 0)
(0.91327314 0.00032288551 0)
(0.91389537 5.8755133e-05 0)
(0.91473584 -0.00039963027 0)
(0.91577865 -0.0010251628 0)
(0.91709052 -0.0018031668 0)
(0.91874439 -0.0027455203 0)
(0.92081786 -0.003836481 0)
(0.9233659 -0.0050463316 0)
(0.9264307 -0.0063536616 0)
(0.93004694 -0.0077414072 0)
(0.93423707 -0.0091998601 0)
(0.9390145 -0.0107253 0)
(0.94438237 -0.012320228 0)
(0.95033683 -0.013991583 0)
(0.95686579 -0.015751332 0)
(0.96395264 -0.017614102 0)
(0.97157181 -0.019599669 0)
(0.97969462 -0.021729185 0)
(0.9882781 -0.024031176 0)
(0.9972765 -0.026533615 0)
(1.0066167 -0.029276066 0)
(1.0162238 -0.032291093 0)
(1.0259681 -0.035628159 0)
(1.0357254 -0.039310347 0)
(1.0452628 -0.043383804 0)
(1.0543839 -0.047820165 0)
(1.0626791 -0.052628762 0)
(1.0698846 -0.05763955 0)
(1.0753105 -0.062782885 0)
(1.0787406 -0.067585131 0)
(1.0790556 -0.07192653 0)
(1.0764942 -0.074711522 0)
(1.0692745 -0.07613318 0)
(1.0590389 -0.073500803 0)
(1.0434591 -0.068852966 0)
(1.0261509 -0.054153245 0)
(1.0099677 -0.037794519 0)
(0.91648268 -0.00018866201 0)
(0.91667875 -0.00010608883 0)
(0.91674504 -0.00011092654 0)
(0.91690428 -7.8819919e-05 0)
(0.91700229 -6.9720529e-05 0)
(0.91714707 -5.3835102e-05 0)
(0.91726458 -4.3255248e-05 0)
(0.9174086 -3.3474066e-05 0)
(0.91754235 -2.4137434e-05 0)
(0.91769343 -1.6879623e-05 0)
(0.91784423 -9.1821925e-06 0)
(0.91800936 -3.5612346e-06 0)
(0.91818035 2.0242546e-06 0)
(0.91836521 5.6974037e-06 0)
(0.91856028 8.7281119e-06 0)
(0.9187703 9.8613737e-06 0)
(0.91899414 9.7373752e-06 0)
(0.91923499 7.4981463e-06 0)
(0.9194931 3.3436048e-06 0)
(0.91977098 -3.3845269e-06 0)
(0.92006968 -1.2790833e-05 0)
(0.92039144 -2.5468664e-05 0)
(0.92073785 -4.1746368e-05 0)
(0.92111106 -6.2221727e-05 0)
(0.92151305 -8.7391622e-05 0)
(0.92194602 -0.00011777234 0)
(0.92241254 -0.00015376919 0)
(0.92291589 -0.00019612405 0)
(0.92345898 -0.00024561722 0)
(0.92404497 -0.00030302015 0)
(0.92467706 -0.00036913244 0)
(0.92535864 -0.0004448491 0)
(0.92609328 -0.00053135637 0)
(0.9268852 -0.00063048018 0)
(0.92773893 -0.00074335475 0)
(0.92865873 -0.00087032941 0)
(0.92964911 -0.0010123405 0)
(0.93071438 -0.0011696216 0)
(0.93185809 -0.0013426039 0)
(0.9330841 -0.0015321314 0)
(0.9343963 -0.0017387301 0)
(0.93579813 -0.0019628728 0)
(0.93729311 -0.0022042929 0)
(0.93888426 -0.0024624467 0)
(0.94057404 -0.0027365933 0)
(0.94236432 -0.0030256839 0)
(0.94425623 -0.003328306 0)
(0.94625015 -0.003642684 0)
(0.94834554 -0.0039666448 0)
(0.95054094 -0.0042976412 0)
(0.95283388 -0.0046327514 0)
(0.95522082 -0.0049687178 0)
(0.95769712 -0.0053019802 0)
(0.96025709 -0.0056287339 0)
(0.96289395 -0.0059449924 0)
(0.96559996 -0.0062466664 0)
(0.96836645 -0.0065296462 0)
(0.97118398 -0.0067898926 0)
(0.97404246 -0.0070235244 0)
(0.97693134 -0.0072269027 0)
(0.97983972 -0.0073967017 0)
(0.98275657 -0.007529964 0)
(0.98567083 -0.0076241318 0)
(0.98857152 -0.0076770549 0)
(0.99144781 -0.0076869706 0)
(0.99428901 -0.0076524646 0)
(0.99708455 -0.0075724136 0)
(0.99982382 -0.0074459289 0)
(1.0024961 -0.007272309 0)
(1.0050905 -0.0070510286 0)
(1.0075955 -0.0067817698 0)
(1.0099994 -0.0064645304 0)
(1.0122901 -0.0060997946 0)
(1.0144551 -0.0056888035 0)
(1.0164823 -0.0052338702 0)
(1.0183603 -0.0047387808 0)
(1.0200789 -0.0042091536 0)
(1.0216304 -0.0036528444 0)
(1.0230101 -0.003080142 0)
(1.0242173 -0.0025040176 0)
(1.0252568 -0.0019399297 0)
(1.0261389 -0.0014058984 0)
(1.0268809 -0.00092212704 0)
(1.0275069 -0.00051062279 0)
(1.0280503 -0.00019974925 0)
(1.0285459 -1.2640444e-05 0)
(1.0290496 2.5902274e-05 0)
(1.0295844 -0.00011456754 0)
(1.0301656 -0.00045217619 0)
(1.0307995 -0.00098622497 0)
(1.0315288 -0.0017279347 0)
(1.0324039 -0.0026877205 0)
(1.0334687 -0.0038420065 0)
(1.0347499 -0.0051658439 0)
(1.0362764 -0.0066341214 0)
(1.0380738 -0.0082194722 0)
(1.0401603 -0.0098997981 0)
(1.0425471 -0.011658526 0)
(1.0452367 -0.013485819 0)
(1.0482231 -0.015378344 0)
(1.0514924 -0.017337913 0)
(1.0550226 -0.019371576 0)
(1.058785 -0.021489239 0)
(1.0627419 -0.023705287 0)
(1.0668502 -0.026034817 0)
(1.0710531 -0.02849811 0)
(1.0752887 -0.031113163 0)
(1.0794717 -0.033905223 0)
(1.083512 -0.036890027 0)
(1.087276 -0.040093315 0)
(1.0906332 -0.043512842 0)
(1.093372 -0.047160414 0)
(1.0953172 -0.050977043 0)
(1.0961437 -0.054931733 0)
(1.0956687 -0.058831052 0)
(1.0934198 -0.062571488 0)
(1.0893536 -0.065687533 0)
(1.0828105 -0.068043191 0)
(1.074237 -0.068633035 0)
(1.0627121 -0.067610458 0)
(1.0497167 -0.062736546 0)
(1.0343266 -0.055601028 0)
(1.0187137 -0.04106739 0)
(1.0063652 -0.024411827 0)
(0.97923001 -0.0002746037 0)
(0.97947761 -0.00019941887 0)
(0.9795766 -0.0002077927 0)
(0.97978633 -0.00017914625 0)
(0.97993435 -0.0001750854 0)
(0.98013731 -0.00016297585 0)
(0.98031686 -0.00015756257 0)
(0.9805281 -0.00015225972 0)
(0.98073466 -0.0001487594 0)
(0.98096359 -0.00014760026 0)
(0.98119805 -0.00014749406 0)
(0.98145196 -0.00015000887 0)
(0.98171775 -0.00015370324 0)
(0.98200299 -0.00016001321 0)
(0.9823047 -0.0001680081 0)
(0.98262744 -0.0001787543 0)
(0.98297061 -0.00019181274 0)
(0.98333736 -0.00020797408 0)
(0.98372833 -0.00022716497 0)
(0.98414611 -0.00025003285 0)
(0.98459207 -0.00027676566 0)
(0.9850686 -0.00030797039 0)
(0.98557752 -0.00034403189 0)
(0.98612126 -0.0003855974 0)
(0.98670197 -0.00043322218 0)
(0.9873222 -0.00048776691 0)
(0.98798455 -0.00055013025 0)
(0.98869179 -0.0006211309 0)
(0.9894467 -0.00070157562 0)
(0.99025221 -0.00079240887 0)
(0.99111131 -0.00089457768 0)
(0.99202716 -0.0010090353 0)
(0.99300296 -0.0011366367 0)
(0.99404163 -0.0012781012 0)
(0.99514576 -0.0014343615 0)
(0.99631826 -0.0016064227 0)
(0.99756195 -0.0017951838 0)
(0.99887957 -0.0020018038 0)
(1.0002739 -0.0022270883 0)
(1.0017474 -0.0024712372 0)
(1.0033021 -0.0027344715 0)
(1.0049394 -0.0030165581 0)
(1.0066605 -0.003316943 0)
(1.0084662 -0.0036349246 0)
(1.0103566 -0.0039693684 0)
(1.0123313 -0.0043188294 0)
(1.0143894 -0.0046814104 0)
(1.0165291 -0.0050548195 0)
(1.0187478 -0.005436326 0)
(1.0210422 -0.0058227999 0)
(1.0234083 -0.0062107218 0)
(1.025841 -0.0065962353 0)
(1.0283348 -0.006975196 0)
(1.0308834 -0.0073432475 0)
(1.0334796 -0.0076959027 0)
(1.0361161 -0.0080286396 0)
(1.038785 -0.0083370009 0)
(1.0414781 -0.0086166968 0)
(1.0441871 -0.0088637002 0)
(1.0469039 -0.0090743307 0)
(1.0496203 -0.0092453174 0)
(1.0523286 -0.0093738366 0)
(1.0550213 -0.0094575154 0)
(1.0576914 -0.0094944059 0)
(1.0603318 -0.0094829246 0)
(1.0629361 -0.0094217736 0)
(1.0654974 -0.0093098455 0)
(1.0680088 -0.0091461442 0)
(1.0704631 -0.0089297263 0)
(1.072852 -0.008659707 0)
(1.0751668 -0.0083353281 0)
(1.0773976 -0.0079561354 0)
(1.0795336 -0.0075222342 0)
(1.0815637 -0.0070346699 0)
(1.0834761 -0.0064958484 0)
(1.0852596 -0.0059100476 0)
(1.0869037 -0.0052838571 0)
(1.0883995 -0.0046266439 0)
(1.0897409 -0.0039507681 0)
(1.0909245 -0.0032718083 0)
(1.0919511 -0.0026083224 0)
(1.0928256 -0.0019817898 0)
(1.0935574 -0.0014158658 0)
(1.094161 -0.00093630944 0)
(1.0946531 -0.00056989522 0)
(1.0950514 -0.0003467182 0)
(1.0953769 -0.00029100427 0)
(1.0956462 -0.00042037222 0)
(1.095872 -0.00075278669 0)
(1.0960743 -0.0013080454 0)
(1.0962787 -0.002092537 0)
(1.0964993 -0.0030972994 0)
(1.0967469 -0.0043114227 0)
(1.0970377 -0.0057113761 0)
(1.0973853 -0.0072666838 0)
(1.0978021 -0.0089486601 0)
(1.0982988 -0.010731044 0)
(1.0988814 -0.012593284 0)
(1.0995512 -0.014520461 0)
(1.100303 -0.016504041 0)
(1.1011253 -0.018540535 0)
(1.1019992 -0.020631744 0)
(1.1029001 -0.022782552 0)
(1.1037946 -0.025002075 0)
(1.1046443 -0.027300228 0)
(1.105399 -0.029691059 0)
(1.1060038 -0.032186112 0)
(1.1063854 -0.034801754 0)
(1.1064674 -0.037544571 0)
(1.1061409 -0.040426852 0)
(1.1053038 -0.043434015 0)
(1.1037948 -0.046559533 0)
(1.1014925 -0.049733077 0)
(1.0981679 -0.052906398 0)
(1.0937256 -0.055891991 0)
(1.0878606 -0.058587805 0)
(1.0806337 -0.060589164 0)
(1.0716623 -0.061801819 0)
(1.061423 -0.061409057 0)
(1.0494754 -0.059602887 0)
(1.0370065 -0.054646635 0)
(1.0239648 -0.047756864 0)
(1.0116524 -0.035245655 0)
(1.0034071 -0.020196215 0)
(1.0124152 -0.00037934029 0)
(1.0127076 -0.0003174865 0)
(1.012831 -0.00033024436 0)
(1.0130823 -0.00030814887 0)
(1.0132682 -0.00031031431 0)
(1.0135165 -0.00030460829 0)
(1.0137433 -0.00030714659 0)
(1.0140068 -0.00031000632 0)
(1.0142694 -0.0003161406 0)
(1.0145588 -0.0003248395 0)
(1.0148582 -0.00033565873 0)
(1.0151813 -0.00034963285 0)
(1.0155209 -0.0003658811 0)
(1.0158846 -0.00038554365 0)
(1.0162697 -0.00040802134 0)
(1.0166809 -0.00043424444 0)
(1.0171177 -0.00046397987 0)
(1.0175835 -0.00049798103 0)
(1.018079 -0.00053631952 0)
(1.018607 -0.00057966528 0)
(1.019169 -0.00062832522 0)
(1.0197674 -0.00068296339 0)
(1.0204041 -0.0007440704 0)
(1.0210817 -0.00081234595 0)
(1.0218023 -0.0008884219 0)
(1.0225684 -0.00097302252 0)
(1.0233824 -0.0010668736 0)
(1.0242466 -0.0011708414 0)
(1.0251636 -0.0012857964 0)
(1.0261357 -0.0014126723 0)
(1.0271655 -0.0015524371 0)
(1.0282553 -0.0017061167 0)
(1.0294074 -0.0018748305 0)
(1.0306243 -0.0020597815 0)
(1.0319081 -0.0022619119 0)
(1.0332609 -0.0024818809 0)
(1.0346846 -0.0027203792 0)
(1.0361807 -0.0029777958 0)
(1.0377502 -0.0032544797 0)
(1.0393939 -0.0035506976 0)
(1.0411123 -0.0038664349 0)
(1.0429056 -0.0042014352 0)
(1.0447732 -0.0045549274 0)
(1.0467145 -0.004925799 0)
(1.048728 -0.0053125434 0)
(1.0508118 -0.0057132615 0)
(1.0529633 -0.0061256164 0)
(1.0551793 -0.0065468466 0)
(1.0574559 -0.0069737541 0)
(1.0597888 -0.0074027397 0)
(1.0621728 -0.007829831 0)
(1.0646024 -0.0082507442 0)
(1.0670714 -0.00866095 0)
(1.0695735 -0.0090557626 0)
(1.0721018 -0.009430436 0)
(1.0746494 -0.0097802718 0)
(1.0772091 -0.010100727 0)
(1.0797741 -0.010387521 0)
(1.0823375 -0.010636727 0)
(1.0848929 -0.010844843 0)
(1.0874343 -0.011008836 0)
(1.0899559 -0.011126151 0)
(1.0924525 -0.011194675 0)
(1.0949192 -0.011212671 0)
(1.0973512 -0.011178674 0)
(1.0997438 -0.011091373 0)
(1.1020921 -0.010949486 0)
(1.1043905 -0.010751666 0)
(1.1066328 -0.010496452 0)
(1.1088119 -0.010182307 0)
(1.1109193 -0.0098077384 0)
(1.1129456 -0.0093715632 0)
(1.1148802 -0.0088732563 0)
(1.1167119 -0.0083134416 0)
(1.1184288 -0.0076944103 0)
(1.1200194 -0.0070207246 0)
(1.1214727 -0.0062997087 0)
(1.1227793 -0.0055419406 0)
(1.1239318 -0.0047614445 0)
(1.1249252 -0.003975839 0)
(1.1257576 -0.0032060344 0)
(1.1264304 -0.0024759227 0)
(1.1269481 -0.0018117556 0)
(1.1273181 -0.0012410902 0)
(1.1275505 -0.0007931376 0)
(1.1276552 -0.00049475607 0)
(1.1276414 -0.00037090829 0)
(1.1275207 -0.00044531382 0)
(1.127306 -0.00073703867 0)
(1.127007 -0.0012574046 0)
(1.126628 -0.0020121588 0)
(1.1261732 -0.0029989014 0)
(1.125646 -0.004199177 0)
(1.1250484 -0.0055885867 0)
(1.1243859 -0.0071395988 0)
(1.1236656 -0.0088231495 0)
(1.1228947 -0.010612555 0)
(1.1220796 -0.012485159 0)
(1.1212239 -0.014423476 0)
(1.1203276 -0.016415589 0)
(1.1193862 -0.018454441 0)
(1.1183898 -0.020537831 0)
(1.1173239 -0.022666525 0)
(1.1161667 -0.024844951 0)
(1.1148924 -0.027078059 0)
(1.1134653 -0.02937373 0)
(1.1118463 -0.031736871 0)
(1.1099815 -0.034175094 0)
(1.107816 -0.036686152 0)
(1.1052698 -0.039270584 0)
(1.1022721 -0.041904152 0)
(1.0987084 -0.044567497 0)
(1.0945036 -0.047185253 0)
(1.0895035 -0.049700487 0)
(1.0836726 -0.051936245 0)
(1.0768187 -0.053791324 0)
(1.0690468 -0.054904824 0)
(1.06013 -0.055185109 0)
(1.0504789 -0.053937985 0)
(1.0398645 -0.051306191 0)
(1.0291195 -0.045967144 0)
(1.0184339 -0.038847371 0)
(1.0085127 -0.027757628 0)
(1.0022178 -0.014820765 0)
(1.0283765 -0.00049895081 0)
(1.0287027 -0.00045430926 0)
(1.0288416 -0.00047244491 0)
(1.0291228 -0.0004604737 0)
(1.0293342 -0.0004712339 0)
(1.0296148 -0.0004749266 0)
(1.0298744 -0.00048745601 0)
(1.0301744 -0.00050062926 0)
(1.0304758 -0.00051820006 0)
(1.0308069 -0.00053893003 0)
(1.0311508 -0.00056307157 0)
(1.0315215 -0.00059118106 0)
(1.031912 -0.00062280175 0)
(1.0323297 -0.00065880472 0)
(1.0327724 -0.00069884492 0)
(1.0332445 -0.0007437256 0)
(1.0337459 -0.00079336858 0)
(1.0342798 -0.00084847777 0)
(1.0348473 -0.00090922135 0)
(1.0354509 -0.00097625715 0)
(1.0360923 -0.0010499536 0)
(1.0367739 -0.0011309804 0)
(1.0374976 -0.0012198723 0)
(1.0382657 -0.0013173612 0)
(1.0390804 -0.0014241322 0)
(1.039944 -0.0015410349 0)
(1.0408587 -0.0016689076 0)
(1.0418268 -0.0018086132 0)
(1.0428504 -0.0019610187 0)
(1.0439319 -0.0021270338 0)
(1.0450732 -0.0023075532 0)
(1.0462764 -0.0025034607 0)
(1.0475434 -0.0027155766 0)
(1.0488758 -0.0029446794 0)
(1.0502749 -0.0031915504 0)
(1.0517419 -0.0034568984 0)
(1.0532778 -0.0037413258 0)
(1.0548834 -0.0040453531 0)
(1.0565591 -0.0043692295 0)
(1.0583047 -0.0047128366 0)
(1.0601201 -0.005075829 0)
(1.0620041 -0.0054574761 0)
(1.0639554 -0.0058566776 0)
(1.0659721 -0.0062720029 0)
(1.0680519 -0.0067015855 0)
(1.0701918 -0.0071431663 0)
(1.0723885 -0.0075940301 0)
(1.0746378 -0.0080510425 0)
(1.0769354 -0.0085106412 0)
(1.0792762 -0.0089688851 0)
(1.0816546 -0.0094214917 0)
(1.0840649 -0.009863911 0)
(1.0865009 -0.010291403 0)
(1.088956 -0.010699136 0)
(1.0914238 -0.011082295 0)
(1.0938976 -0.011436189 0)
(1.0963708 -0.011756366 0)
(1.098837 -0.012038712 0)
(1.1012902 -0.012279531 0)
(1.1037246 -0.012475597 0)
(1.1061348 -0.012624174 0)
(1.1085156 -0.012722987 0)
(1.1108623 -0.01277015 0)
(1.1131702 -0.012764064 0)
(1.1154348 -0.012703272 0)
(1.1176512 -0.012586315 0)
(1.1198143 -0.012411586 0)
(1.1219181 -0.012177248 0)
(1.1239559 -0.011881195 0)
(1.1259201 -0.011521144 0)
(1.1278019 -0.011094817 0)
(1.1295916 -0.010600294 0)
(1.1312785 -0.010036445 0)
(1.1328516 -0.0094035205 0)
(1.1342996 -0.0087037407 0)
(1.1356118 -0.0079419669 0)
(1.1367781 -0.0071262071 0)
(1.1377901 -0.0062681125 0)
(1.1386412 -0.0053831118 0)
(1.1393272 -0.004490496 0)
(1.1398464 -0.0036129789 0)
(1.1401996 -0.0027763138 0)
(1.14039 -0.002008293 0)
(1.1404232 -0.0013381079 0)
(1.1403056 -0.00079489095 0)
(1.1400441 -0.00040757936 0)
(1.1396463 -0.00020108485 0)
(1.1391192 -0.00019619891 0)
(1.1384674 -0.00041031461 0)
(1.1376936 -0.000855878 0)
(1.136798 -0.0015361267 0)
(1.1357778 -0.0024431972 0)
(1.1346305 -0.0035627924 0)
(1.1333567 -0.0048734215 0)
(1.1319587 -0.0063479116 0)
(1.1304416 -0.0079585598 0)
(1.1288127 -0.0096789486 0)
(1.1270791 -0.011485925 0)
(1.1252477 -0.013360434 0)
(1.123323 -0.015288471 0)
(1.1213069 -0.017260196 0)
(1.1191967 -0.019270321 0)
(1.1169862 -0.021316371 0)
(1.1146634 -0.023399243 0)
(1.1122122 -0.025520459 0)
(1.1096088 -0.027683913 0)
(1.1068263 -0.029890748 0)
(1.1038256 -0.032143703 0)
(1.1005675 -0.034436344 0)
(1.096993 -0.036763272 0)
(1.0930522 -0.039096766 0)
(1.0886613 -0.04141182 0)
(1.0837713 -0.04363482 0)
(1.0782722 -0.045707942 0)
(1.0721527 -0.047472173 0)
(1.0652818 -0.048836771 0)
(1.0577644 -0.049495911 0)
(1.0494655 -0.049376503 0)
(1.0407245 -0.047917763 0)
(1.0314757 -0.045232649 0)
(1.0223443 -0.040312356 0)
(1.0137205 -0.033790203 0)
(1.006027 -0.024174738 0)
(1.0014104 -0.01271528 0)
(1.0354015 -0.00062948944 0)
(1.0357508 -0.00060298258 0)
(1.0358975 -0.000626505 0)
(1.0361979 -0.00062590885 0)
(1.0364236 -0.00064563292 0)
(1.0367237 -0.00066001971 0)
(1.0370022 -0.00068366444 0)
(1.037324 -0.00070881738 0)
(1.0376482 -0.00073942008 0)
(1.0380043 -0.00077390823 0)
(1.0383749 -0.00081290651 0)
(1.0387741 -0.00085671766 0)
(1.039195 -0.00090520319 0)
(1.0396451 -0.00095907838 0)
(1.040122 -0.0010182153 0)
(1.0406304 -0.0010833422 0)
(1.0411702 -0.0011545236 0)
(1.0417445 -0.0012324412 0)
(1.0423545 -0.00131736 0)
(1.0430027 -0.0014099439 0)
(1.0436908 -0.0015106275 0)
(1.0444212 -0.0016200939 0)
(1.0451958 -0.0017389141 0)
(1.0460168 -0.0018678112 0)
(1.0468864 -0.0020074625 0)
(1.0478066 -0.0021586328 0)
(1.0487797 -0.002322089 0)
(1.0498075 -0.0024986653 0)
(1.0508922 -0.0026891929 0)
(1.0520356 -0.0028945333 0)
(1.0532395 -0.0031155489 0)
(1.0545056 -0.0033530994 0)
(1.0558354 -0.003608032 0)
(1.0572303 -0.0038811376 0)