/*--------------------------------*- C++ -*----------------------------------*\
| =========                 |                                                 |
| \\      /  F ield         | foam-extend: Open Source CFD                    |
|  \\    /   O peration     | Version:     4.1                                |
|   \\  /    A nd           | Web:         http://www.foam-extend.org         |
|    \\/     M anipulation  |                                                 |
\*---------------------------------------------------------------------------*/
FoamFile
{
    version     2.0;
    format      ascii;
    class       volScalarField;
    location    "1";
    object      p;
}
// * * * * * * * * * * * * * * * * * * * * * * * * * * * * * * * * * * * * * //

dimensions      [0 2 -2 0 0 0 0];

internalField   nonuniform List<scalar> 
16796
(
-8.0379946
-15.802674
-24.231055
-32.754504
-41.326954
-49.946343
-58.622134
-67.365969
-76.188567
-85.098481
-94.101647
-103.20107
-112.39681
-121.6859
-131.06256
-140.51828
-150.04224
-159.62156
-169.24187
-178.88784
-188.54382
-198.19458
-207.82612
-217.42651
-226.98682
-236.502
-245.97182
-255.40176
-264.80373
-274.19692
-283.60825
-293.07294
-302.6345
-312.34494
-322.2644
-332.46064
-343.00825
-353.98754
-365.48322
-377.5826
-390.37381
-403.94366
-418.37534
-433.74633
-450.12577
-467.57214
-486.13096
-505.83251
-526.68969
-548.69602
-571.82389
-596.02302
-621.21913
-647.31309
-674.18011
-701.66927
-729.60342
-757.7794
-785.96871
-813.91866
-841.3538
-867.97799
-893.47681
-917.52053
-939.76753
-959.86826
-977.46961
-992.21975
-1003.7734
-1011.7972
-1015.9756
-1016.0166
-1011.6574
-1002.67
-988.86625
-970.10266
-946.2844
-917.36817
-883.36376
-844.33317
-800.389
-751.7041
-698.53048
-641.14923
-579.85759
-515.00237
-446.96442
-376.1504
-302.9854
-227.90594
-151.35306
-73.765786
4.424836
82.801258
160.96414
238.53634
315.16607
390.52925
464.33115
536.30715
606.22299
673.87436
739.08596
801.71026
861.62578
918.73521
972.96344
1024.2554
1072.574
1117.898
1160.22
1199.5451
1235.8891
1269.2772
1299.7428
1327.328
1352.0898
1374.1196
1393.5138
1410.2409
1424.1471
1436.2424
1450.258
1468.3802
-6.5122795
-15.593077
-24.189315
-32.752832
-41.331076
-49.948478
-58.620826
-67.361597
-76.182118
-85.091156
-94.094702
-103.19574
-112.39421
-121.68704
-131.06825
-140.52912
-150.05856
-159.64342
-169.26902
-178.9197
-188.57946
-198.23275
-207.8652
-217.46457
-227.0216
-236.53094
-245.99211
-255.41035
-264.79742
-274.17239
-283.56213
-293.00187
-302.53526
-312.21449
-322.10001
-332.25994
-342.76938
-353.70923
-365.16488
-377.22439
-389.9767
-403.50955
-417.90709
-433.24791
-449.60208
-467.02906
-485.57535
-505.27217
-526.13332
-548.15311
-571.30466
-595.53829
-620.78025
-646.93177
-673.86834
-701.43913
-729.46687
-757.74809
-786.05375
-814.13038
-841.70157
-868.46993
-894.11963
-918.31926
-940.72534
-960.98627
-978.74673
-993.65258
-1005.3561
-1013.5215
-1017.8308
-1017.9897
-1013.7332
-1004.8313
-991.09437
-972.37746
-948.58507
-919.67396
-885.65551
-846.59743
-802.62164
-753.90059
-700.64601
-643.12981
-581.67972
-516.65027
-448.42641
-377.41802
-304.05326
-228.77156
-152.01676
-74.230498
4.153798
82.716464
161.05634
238.79478
315.57879
391.08343
465.01339
537.10374
607.12017
674.85855
740.14393
802.82926
862.79365
919.94049
974.19534
1025.5038
1073.8295
1119.1515
1161.463
1200.7689
1237.0848
1270.4349
1300.85
1328.3697
1353.0505
1374.9702
1394.1888
1410.6707
1424.3764
1436.1943
1447.8979
1458.2224
-6.1717215
-15.040757
-23.659692
-32.232065
-40.8094
-49.425843
-58.102507
-66.855171
-75.696038
-84.634078
-93.675071
-102.82152
-112.07269
-121.42459
-130.8702
-140.39964
-150.00048
-159.65821
-169.35669
-179.07874
-188.80686
-198.524
-208.21435
-217.86426
-227.46316
-237.00456
-246.4869
-255.91456
-265.2986
-274.65761
-284.01821
-293.41556
-302.89357
-312.50491
-322.31079
-332.38038
-342.79009
-353.62243
-364.96464
-376.90684
-389.54044
-402.95606
-417.24067
-432.47503
-448.73188
-466.07352
-484.54926
-504.19309
-525.02147
-547.0312
-570.19761
-594.47298
-619.78503
-646.036
-673.10205
-700.83261
-729.0501
-757.55015
-786.10228
-814.45098
-842.31722
-869.40046
-895.38112
-919.92361
-942.67979
-963.29303
-981.40268
-996.64903
-1008.6787
-1017.1503
-1021.7402
-1022.1488
-1018.1061
-1009.3778
-995.77011
-977.13485
-953.3741
-924.4437
-890.35585
-851.17841
-807.03594
-758.1077
-704.61638
-646.83488
-585.08624
-519.72972
-451.15584
-379.78022
-306.03668
-230.37023
-153.23003
-75.06273
3.6936869
82.615513
161.29813
239.36002
316.44598
392.22948
466.41417
538.73468
608.95674
676.87671
742.32051
805.14228
865.22257
922.46638
976.80104
1028.174
1076.5508
1121.9123
1164.2537
1203.5816
1239.913
1273.2735
1303.6951
1331.2184
1355.8983
1377.7993
1396.9584
1413.3697
1427.1339
1438.9322
1448.9088
1454.782
-6.1948552
-14.881994
-23.445436
-31.984375
-40.533746
-49.126504
-57.785172
-66.526812
-75.364411
-84.307295
-93.361279
-102.52862
-111.8081
-121.19503
-130.68148
-140.25646
-149.90631
-159.61513
-169.36527
-179.13803
-188.91429
-198.67539
-208.40395
-218.0848
-227.70597
-237.25966
-246.74319
-256.15999
-265.5204
-274.8425
-284.15266
-293.48609
-302.88705
-312.40881
-322.11353
-332.07165
-342.36118
-353.06649
-364.27703
-376.08579
-388.58766
-401.87571
-416.03936
-431.16248
-447.32114
-464.58095
-482.99458
-502.59935
-523.41497
-545.44129
-568.65646
-593.01522
-618.44738
-644.85678
-672.12049
-700.08835
-728.58256
-757.39781
-786.30193
-815.03694
-843.32059
-870.84833
-897.29584
-922.32205
-945.57275
-966.68458
-985.28977
-1001.0211
-1013.5174
-1022.4296
-1027.4264
-1028.2007
-1024.4757
-1016.0107
-1002.6065
-984.10988
-960.41969
-931.49083
-897.3351
-858.01881
-813.66637
-764.45804
-710.62489
-652.4483
-590.25615
-524.41478
-455.32265
-383.4037
-309.10021
-232.86549
-155.1567
-76.427999
2.8757813
82.324845
161.50934
240.04346
317.5686
393.75577
468.30705
540.95629
611.46919
679.64269
745.30389
808.30847
868.53892
925.90237
980.32845
1031.767
1080.1856
1125.5677
1167.91
1207.2212
1243.5195
1276.8311
1307.1885
1334.633
1359.2156
1380.9867
1399.9698
1416.1934
1429.8204
1441.301
1450.1
1454.3685
-5.9998016
-14.541884
-23.028486
-31.521573
-40.039922
-48.612609
-57.261764
-66.004823
-74.855082
-83.821918
-92.910886
-102.12369
-111.45828
-120.90885
-130.46613
-140.11758
-149.84779
-159.63893
-169.47134
-179.3242
-189.17623
-199.0066
-208.7958
-218.52663
-228.18517
-237.76185
-247.25244
-256.65902
-265.99088
-275.26538
-284.50849
-293.7554
-303.05075
-312.44865
-322.01252
-331.81451
-341.93475
-352.46028
-363.48403
-375.10363
-387.41714
-400.52075
-414.50813
-429.4682
-445.48176
-462.61921
-480.93803
-500.48023
-521.26992
-543.31111
-566.58565
-591.05156
-616.64121
-643.26045
-670.78754
-699.07277
-727.9379
-757.17617
-786.55292
-815.80667
-844.65063
-872.77468
-899.84796
-925.52192
-949.43399
-971.21174
-990.47768
-1006.8545
-1019.9705
-1029.4663
-1035.0001
-1036.2551
-1032.9449
-1024.8208
-1011.6762
-993.35112
-969.74078
-940.79893
-906.53702
-867.02211
-822.38077
-772.79644
-718.50663
-659.80045
-597.01381
-530.52252
-460.73558
-388.08797
-313.03319
-236.03564
-157.56317
-78.079954
1.9600321
82.1189
161.97987
241.15143
319.27057
396.0051
471.05508
544.15347
615.06606
683.59074
749.55627
812.82061
873.26896
930.81148
985.38102
1036.9307
1085.4313
1130.8694
1173.2445
1212.5675
1248.8582
1282.1437
1312.4567
1339.8371
1364.3295
1385.9703
1404.7749
1420.7866
1434.1418
1445.0678
1452.8523
1456.3099
-5.9345892
-14.379095
-22.778891
-31.205964
-39.672822
-48.206084
-56.827336
-65.554205
-74.400267
-83.37501
-92.483834
-101.72799
-111.10466
-120.607
-130.2244
-139.94273
-149.74475
-159.61063
-169.51854
-179.44534
-189.36741
-199.26151
-209.10573
-218.88054
-228.56982
-238.16195
-247.65082
-257.03695
-266.32832
-275.54135
-284.70147
-293.84375
-303.01318
-312.26471
-321.66315
-331.28251
-341.20532
-351.52197
-362.33002
-373.73118
-385.82643
-398.71712
-412.50241
-427.2764
-443.12553
-460.12604
-478.34114
-497.81847
-518.58758
-540.65756
-564.01483
-588.62156
-614.41343
-641.29871
-669.15745
-697.84049
-727.16942
-756.93579
-786.90208
-816.80269
-846.34537
-875.21333
-903.06777
-929.55101
-954.29026
-976.90194
-996.99655
-1014.1842
-1028.0802
-1038.312
-1044.525
-1046.3898
-1043.6081
-1035.9208
-1023.1115
-1005.0121
-981.51223
-952.56365
-918.17617
-878.41769
-833.4178
-783.36533
-728.5057
-669.13751
-605.60734
-538.30322
-467.6474
-394.08882
-318.09519
-240.14495
-160.71946
-80.295577
0.66118348
81.702712
162.40351
242.3649
321.21835
398.62769
474.29053
547.93877
619.33837
688.2885
754.62012
818.19412
878.89922
936.64951
991.38203
1043.0542
1091.6412
1137.1337
1179.5353
1218.8603
1255.1318
1288.3793
1318.6376
1345.9471
1370.3487
1391.8726
1410.5355
1426.389
1439.5205
1450.0073
1457.1386
1460.1755
-5.7573662
-14.100189
-22.409492
-30.767217
-39.181043
-47.676049
-56.273382
-64.990717
-73.841739
-82.835865
-91.97815
-101.26918
-110.70511
-120.27779
-129.97495
-139.78053
-149.67511
-159.63645
-169.64012
-179.66026
-189.67042
-199.6445
-209.55774
-219.38784
-229.11601
-238.72813
-248.21586
-257.57777
-266.82026
-275.95856
-285.01739
-294.03163
-303.04664
-312.11837
-321.31332
-330.70755
-340.38673
-350.44569
-360.98743
-372.11705
-383.94085
-396.56649
-410.09946
-424.64046
-440.28296
-457.11019
-475.19238
-494.58406
-515.32138
-537.41964
-560.87079
-585.64196
-611.67293
-638.8749
-667.1299
-696.28931
-726.17449
-756.57504
-787.24994
-817.9286
-848.31224
-878.07595
-906.87133
-934.32971
-960.06595
-983.68295
-1004.7768
-1022.9422
-1037.779
-1048.8987
-1055.9309
-1058.5312
-1056.387
-1049.2263
-1036.8211
-1018.9934
-995.62617
-966.66809
-932.12734
-892.07255
-846.63685
-796.01552
-740.46319
-680.28985
-615.85535
-547.56265
-475.85024
-401.18411
-324.04928
-244.94132
-164.35807
-82.791832
-0.72216588
81.390426
163.10988
244.02893
323.77237
401.99933
478.40454
552.71871
624.70811
694.17354
760.94867
824.89799
885.91444
943.91684
998.8472
1050.668
1099.3594
1144.9169
1187.3485
1226.6725
1262.9153
1296.1092
1326.2909
1353.5009
1377.7777
1399.1489
1417.6354
1433.2907
1446.1637
1456.2653
1462.952
1465.7442
-5.64744
-13.898051
-22.108076
-30.382219
-38.727667
-47.169597
-55.729369
-64.425012
-73.27048
-82.275228
-91.444027
-100.77681
-110.26873
-119.9102
-129.68721
-139.58161
-149.57158
-159.63223
-169.73624
-179.85471
-189.95803
-200.01685
-210.0032
-219.89156
-229.66009
-239.2918
-248.77572
-258.10811
-267.29345
-276.34555
-285.28818
-294.15592
-302.99441
-311.86066
-320.82292
-329.95958
-339.36009
-349.12463
-359.36096
-370.17858
-381.69063
-394.01166
-407.25432
-421.52713
-436.93161
-453.55922
-471.4884
-490.78179
-511.4833
-533.61556
-557.17719
-582.14105
-608.45199
-636.02474
-664.74378
-694.46158
-724.99896
-756.14358
-787.65047
-819.24331
-850.61578
-881.43359
-911.33718
-939.94501
-966.85747
-991.66162
-1013.9364
-1033.2587
-1049.2097
-1061.382
-1069.3867
-1072.8614
-1071.4761
-1064.9438
-1053.0223
-1035.5221
-1012.3176
-983.35374
-948.63654
-908.23581
-862.28896
-810.99889
-754.631
-693.50883
-628.00809
-558.54965
-485.59139
-409.61965
-331.1401
-250.66875
-168.72308
-85.813725
-2.43691
80.932215
163.84516
245.88458
326.66756
405.84787
483.11704
558.20461
630.8775
700.93869
768.22532
832.60639
893.98016
952.27127
1007.4279
1059.4188
1108.2304
1153.8641
1196.3336
1235.6622
1271.8808
1305.0253
1335.1351
1362.2517
1386.4123
1407.6441
1425.9701
1441.44
1454.0753
1463.8666
1470.2455
1472.8836
-5.4759137
-13.625117
-21.73038
-29.916396
-38.18973
-46.576375
-55.098335
-63.774182
-72.618194
-81.639835
-90.843508
-100.22837
-109.78835
-119.51228
-129.3841
-139.38328
-149.48527
-159.66216
-169.88337
-180.11653
-190.3284
-200.48597
-210.55753
-220.51393
-230.32977
-239.98475
-249.46483
-258.76358
-267.88322
-276.83582
-285.64401
-294.34194
-302.97547
-311.60285
-320.29411
-329.13049
-338.20587
-347.62616
-357.50425
-367.95582
-379.1015
-391.06367
-403.96348
-417.91855
-433.03976
-449.42813
-467.17169
-486.34249
-506.99352
-529.15591
-552.8361
-578.01364
-604.63935
-632.63211
-661.87942
-692.23505
-723.519
-755.51699
-787.97959
-820.62394
-853.13512
-885.16809
-916.35046
-946.28586
-974.55804
-1000.7357
-1024.378
-1045.041
-1062.2843
-1075.6786
-1084.8133
-1089.3047
-1088.8031
-1083.0034
-1071.6471
-1054.5308
-1031.519
-1002.5512
-967.63134
-926.83047
-880.29093
-828.22447
-770.90901
-708.68386
-641.94345
-571.12966
-496.72321
-419.23431
-339.19295
-257.1391
-173.61326
-89.147532
-4.2575837
80.564379
164.85547
248.18671
330.16639
410.44218
488.70213
564.67461
638.12747
708.86641
776.73277
841.60094
903.3754
961.98765
1017.3931
1069.5677
1118.5053
1164.2143
1206.7149
1246.0366
1282.2156
1315.2927
1345.3111
1372.3147
1396.3422
1417.4226
1435.5818
1450.8658
1463.2812
1472.8204
1478.9763
1481.5097
-5.3299721
-13.375374
-21.364899
-29.449992
-37.638401
-45.957936
-54.431849
-63.079629
-71.916111
-80.950896
-90.188065
-99.625972
-109.25727
-119.06902
-129.04296
-139.15591
-149.38032
-159.68491
-170.03546
-180.39571
-190.72839
-200.99633
-211.16363
-221.19699
-231.06701
-240.74955
-250.22706
-259.48998
-268.53788
-277.38074
-286.03981
-294.54859
-302.95307
-311.31278
-319.69954
-328.19785
-336.90661
-345.93787
-355.41021
-365.44634
-376.17521
-387.72817
-400.23605
-413.8268
-428.62198
-444.73355
-462.26052
-481.28578
-501.87274
-524.06235
-547.87011
-573.28334
-600.25977
-628.72331
-658.56497
-689.64028
-721.76851
-754.7333
-788.28036
-822.11958
-855.92641
-889.34368
-921.98453
-953.43577
-983.26214
-1011.0114
-1036.2202
-1058.4206
-1077.1473
-1091.9459
-1102.3807
-1108.0436
-1108.5617
-1103.609
-1092.908
-1076.2393
-1053.4553
-1024.4892
-989.34224
-948.08706
-900.87163
-847.91783
-789.51796
-726.02964
-657.86897
-585.50227
-509.43678
-430.21047
-348.38153
-264.51774
-179.18622
-92.943866
-6.328726
80.147458
166.00539
250.80297
334.13863
415.65339
495.03162
572.00078
646.33013
717.82887
786.34351
851.75488
913.97492
972.94322
1028.6236
1081.0006
1130.0765
1175.8676
1218.402
1257.716
1293.8523
1326.857
1356.7779
1383.6625
1407.552
1428.4787
1446.4713
1461.5746
1473.7897
1483.1209
1489.1074
1491.5645
-5.1444689
-13.075054
-20.939371
-28.915382
-37.01178
-45.25868
-53.68099
-62.299388
-71.129418
-80.180872
-89.457491
-98.95674
-108.66984
-118.58189
-128.67215
-138.91452
-149.27808
-159.72781
-170.22541
-180.7303
-191.20068
-201.5947
-211.87177
-221.99392
-231.92716
-241.64304
-251.11997
-260.34478
-269.31398
-278.0351
-286.5277
-294.82441
-302.97128
-311.0291
-319.07154
-327.18687
-335.47982
-344.06877
-353.07855
-362.64021
-372.89201
-383.9754
-396.03217
-409.20196
-423.61846
-439.40607
-456.67633
-475.52441
-496.02566
-518.23225
-542.17006
-567.83535
-595.19382
-624.17533
-654.675
-686.5506
-719.62059
-753.66654
-788.42887
-823.60948
-858.87313
-893.84916
-928.13447
-961.29698
-992.88007
-1022.4078
-1049.3913
-1073.3353
-1093.7465
-1110.1416
-1122.0561
-1129.0542
-1130.7362
-1126.7522
-1116.8029
-1100.6503
-1078.1327
-1049.1752
-1013.7762
-972.00987
-924.03066
-870.0719
-810.44234
-745.52057
-675.74762
-601.61801
-523.66952
-442.47215
-358.61654
-272.70249
-185.32768
-97.077417
-8.5153011
79.824726
167.44483
253.88819
338.74234
421.64111
502.26507
580.34101
655.64027
727.97636
797.20204
863.20581
925.90836
985.2587
1041.2304
1093.8181
1143.0335
1188.9025
1231.4619
1270.7565
1306.836
1339.7536
1369.5624
1396.3146
1420.0556
1440.8217
1458.6452
1473.5717
1485.6026
1494.7569
1500.6077
1503.0055
-4.9611363
-12.76805
-20.49348
-28.346826
-36.338627
-44.501953
-52.863863
-61.446573
-70.266565
-79.333947
-88.652155
-98.217717
-108.0203
-118.04285
-128.26193
-138.64817
-149.16695
-159.77909
-170.44179
-181.10966
-191.73583
-202.27328
-212.67612
-222.90112
-232.90919
-242.66693
-252.14818
-261.33566
-270.22227
-278.8127
-287.12446
-295.189
-303.05239
-310.77647
-318.43687
-326.1261
-333.95542
-342.04921
-350.53966
-359.56742
-369.28091
-379.83284
-391.3773
-404.06706
-418.04947
-433.46296
-450.43319
-469.06931
-489.46015
-511.67065
-535.73849
-561.67028
-589.44068
-618.98668
-650.20812
-682.9656
-717.0771
-752.32198
-788.43501
-825.10946
-861.99836
-898.71617
-934.8418
-969.92213
-1003.4766
-1035.0029
-1063.9831
-1089.8915
-1112.2029
-1130.4011
-1143.9894
-1152.4999
-1155.5027
-1152.6202
-1143.5281
-1127.9674
-1105.7597
-1076.8202
-1041.144
-998.8074
-949.97179
-894.88343
-833.86976
-767.33327
-695.7435
-619.62723
-539.55725
-456.14021
-370.00397
-281.78484
-192.11543
-101.61332
-10.871025
79.552489
169.13866
257.41437
343.95528
428.38755
510.38805
589.68333
666.04759
739.29977
809.30007
875.94608
939.16865
998.92767
1055.208
1108.0154
1157.3729
1203.3169
1245.8942
1285.1588
1321.1691
1353.9857
1383.6686
1410.2755
1433.8572
1454.4551
1472.1058
1486.8576
1498.7161
1507.7145
1513.4508
1515.7997
-4.7460938
-12.415286
-19.987907
-27.706372
-35.582996
-43.654217
-51.949631
-60.493281
-69.302771
-78.388616
-87.753949
-97.394279
-107.29757
-117.4444
-127.80833
-138.35644
-149.04997
-159.84518
-170.69428
-181.54654
-192.3495
-203.05033
-213.5973
-223.94129
-234.03744
-243.84681
-253.33808
-262.48922
-271.28906
-279.73893
-287.85391
-295.66394
-303.215
-310.56981
-317.80615
-325.02109
-332.33255
-339.87187
-347.77967
-356.20679
-365.31297
-375.26343
-386.22607
-398.36827
-411.85271
-426.83355
-443.45232
-461.83388
-482.0823
-504.27693
-528.46883
-554.67644
-582.88455
-613.03854
-645.04372
-678.76419
-714.01803
-750.58188
-788.18475
-826.5106
-865.19973
-903.8503
-942.0214
-979.23666
-1014.989
-1048.7465
-1079.9592
-1108.0669
-1132.5085
-1152.7313
-1168.2015
-1178.4154
-1182.9084
-1181.2716
-1173.1525
-1158.2677
-1136.4192
-1107.5106
-1071.5331
-1028.5653
-978.77611
-922.42637
-859.86457
-791.52036
-717.8957
-639.55414
-557.10842
-471.20704
-382.52022
-291.72593
-199.49636
-106.48566
-13.318932
79.41684
171.18006
261.4797
349.8786
435.99492
519.50202
600.12687
677.64752
751.88961
822.72229
890.05379
953.8268
1014.0138
1070.6124
1123.6415
1173.1363
1219.1455
1261.7272
1300.9458
1336.8693
1369.567
1399.1064
1425.5522
1448.9613
1469.3811
1486.853
1501.43
1513.1231
1521.9785
1527.6133
1529.9195
-4.5193175
-12.036712
-19.439319
-27.006939
-34.754245
-42.721603
-50.941576
-59.440359
-68.236897
-77.342228
-86.759194
-96.482217
-106.49741
-116.78273
-127.30847
-138.03776
-148.92734
-159.92841
-170.98768
-182.04852
-193.05228
-203.93974
-214.6526
-225.13522
-235.33628
-245.21063
-254.72107
-263.84021
-272.55218
-280.85442
-288.75909
-296.29422
-303.50549
-310.45633
-317.2267
-323.91847
-330.6565
-337.58012
-344.83896
-352.59497
-361.02035
-370.29428
-380.59995
-392.12103
-405.0373
-419.52047
-435.72988
-453.80797
-473.87591
-496.02935
-520.33437
-546.82292
-575.49124
-606.2944
-639.14417
-673.9089
-710.40735
-748.41321
-787.64964
-827.7907
-868.46294
-909.24682
-949.67975
-989.25983
-1027.4507
-1063.6876
-1097.3848
-1127.944
-1154.7637
-1177.2498
-1194.8273
-1206.9518
-1213.1197
-1212.8863
-1205.8669
-1191.7507
-1170.3168
-1141.4548
-1105.1515
-1061.488
-1010.6414
-952.88881
-888.60242
-818.24254
-742.3479
-661.52383
-576.42849
-487.758
-396.23074
-302.57191
-207.49854
-111.70595
-15.855838
79.433612
173.59536
266.11888
356.5533
444.50863
529.65504
611.72082
690.48912
765.79378
837.51459
905.57223
969.92305
1030.5539
1087.4772
1140.726
1190.35
1236.4112
1278.9803
1318.1336
1353.9497
1386.5076
1415.8836
1442.1499
1465.3708
1485.5998
1502.8847
1517.2836
1528.8139
1537.5333
1543.0739
1545.341
-4.2615229
-11.608862
-18.822699
-26.222932
-33.82669
-41.678722
-49.814948
-58.264016
-67.046409
-76.173782
-85.648685
-95.464357
-105.60487
-116.04534
-126.75244
-137.68498
-148.79473
-160.02735
-171.3235
-182.62007
-193.85157
-204.9517
-215.85493
-226.49834
-236.82341
-246.77804
-256.31841
-265.41109
-274.0348
-282.18248
-289.86287
-297.10161
-303.94384
-310.45347
-316.71262
-322.82823
-328.93252
-335.17366
-341.71098
-348.71854
-356.38226
-364.89672
-374.462
-385.27983
-397.54895
-411.46066
-427.19409
-444.91138
-464.75285
-486.83238
-511.233
-538.00196
-567.14844
-598.63869
-632.39205
-668.28208
-706.12874
-745.70273
-786.72125
-828.84794
-871.69461
-914.8226
-957.74578
-999.93429
-1040.8196
-1079.8008
-1116.2526
-1149.5339
-1178.9985
-1204.0064
-1223.9357
-1238.1963
-1246.2409
-1247.584
-1241.8048
-1228.561
-1207.6052
-1178.8103
-1142.1582
-1097.7323
-1045.7189
-986.41284
-920.213
-847.6142
-769.1968
-685.61349
-597.57401
-505.82851
-411.15004
-314.31726
-216.09785
-117.23342
-18.426577
79.669872
176.46094
271.41499
364.0667
454.01787
540.93617
624.55234
704.65613
781.09139
853.75057
922.56886
987.51837
1048.6024
1105.8498
1159.3102
1209.0489
1255.1431
1297.6775
1336.7412
1372.425
1404.8184
1434.0073
1460.0728
1483.0867
1503.1099
1520.1965
1534.4111
1545.7771
1554.3629
1559.8124
1562.0418
-3.9820534
-11.139794
-18.143043
-25.356226
-32.799417
-40.522299
-48.564584
-56.957696
-65.723873
-74.875487
-84.41479
-94.333731
-104.61415
-115.22803
-126.1381
-137.29841
-148.6553
-160.14834
-171.71156
-183.27471
-194.76481
-206.10773
-217.22996
-228.06051
-238.53285
-248.5871
-258.17202
-267.24731
-275.78556
-283.77448
-291.21877
-298.14112
-304.58579
-310.61686
-316.31854
-321.80298
-327.21026
-332.69813
-338.43639
-344.61223
-351.42667
-359.09118
-367.82447
-377.84824
-389.38226
-402.63959
-417.82139
-435.11172
-454.67231
-476.63745
-501.10917
-528.15196
-557.78968
-590.00134
-624.7151
-661.81085
-701.11043
-742.38167
-785.33576
-829.62542
-874.84683
-920.54084
-966.19583
-1011.2515
-1055.1042
-1097.1133
-1136.6095
-1172.9048
-1205.303
-1233.1125
-1255.6595
-1272.3025
-1282.4447
-1285.5545
-1281.1702
-1268.9143
-1248.5083
-1219.8054
-1182.7815
-1137.5227
-1084.225
-1023.203
-954.88527
-879.80544
-798.59088
-711.94789
-620.64473
-525.4928
-427.32711
-326.9868
-225.29659
-123.05011
-20.995528
80.176026
179.83903
277.43915
372.49601
464.60343
553.42745
638.7027
720.22743
797.85767
871.50075
941.10877
1006.6719
1068.2121
1125.7771
1179.4346
1229.2678
1275.3702
1317.8422
1356.7874
1392.3094
1424.5094
1453.484
1479.3236
1502.1087
1521.9078
1538.7823
1552.803
1563.9997
1572.4503
1577.8088
1580.0009
-3.6684204
-10.613073
-17.381437
-24.386148
-31.650469
-39.229544
-47.167304
-55.498278
-64.246658
-73.425622
-83.037096
-93.071612
-103.50855
-114.31648
-125.45375
-136.86926
-148.50337
-160.28902
-172.15294
-184.01711
-195.80029
-207.41976
-218.7932
-229.8407
-240.48686
-250.66311
-260.30991
-269.3792
-277.8366
-285.66381
-292.86077
-299.44662
-305.46428
-310.97767
-316.07291
-320.86758
-325.51007
-330.1684
-335.02362
-340.2772
-346.14664
-352.86188
-360.66216
-369.79119
-380.492
-393.00171
-407.54597
-424.3332
-443.54896
-465.35033
-489.86063
-517.16377
-547.30015
-580.26337
-615.99184
-654.37304
-695.23165
-738.33267
-783.38133
-830.01909
-877.82562
-926.31987
-974.96283
-1023.1613
-1070.2731
-1115.6143
-1158.4673
-1198.0918
-1233.7365
-1264.6523
-1290.1072
-1309.4021
-1321.8848
-1326.9716
-1324.1545
-1313.016
-1293.2423
-1264.6625
-1227.2455
-1181.0806
-1126.3737
-1063.4613
-992.80479
-914.98166
-830.67217
-740.64333
-645.72964
-546.812
-444.79559
-340.58791
-235.07795
-129.11759
-23.505745
81.024212
183.81353
284.28368
381.93879
476.36518
567.22855
654.26926
737.29632
816.18041
890.8465
961.26622
1027.4505
1089.4424
1147.3106
1201.1436
1251.0437
1297.1231
1339.4992
1378.2911
1413.6166
1445.5899
1474.3187
1499.9039
1522.4348
1541.9886
1558.6337
1572.4481
1583.4673
1591.7779
1597.0432
1599.1971
-3.3242693
-10.029964
-16.535812
-23.307499
-30.371929
-37.790331
-45.611338
-53.872926
-62.601458
-71.810995
-81.503098
-91.66673
-102.27857
-113.30341
-124.69485
-136.39611
-148.34106
-160.45534
-172.65777
-184.86179
-196.97714
-208.91167
-220.57337
-231.87249
-242.72379
-253.04905
-262.77941
-271.85811
-280.24281
-287.90833
-294.84901
-301.0797
-306.64145
-311.59753
-316.03576
-320.07928
-323.88521
-327.63246
-331.51423
-335.74742
-340.5675
-346.22464
-352.98058
-361.10329
-370.86145
-382.51885
-396.32819
-412.52498
-431.32127
-452.89955
-477.4069
-504.94903
-535.585
-569.32495
-606.11919
-645.86427
-688.38878
-733.45514
-780.76276
-829.94157
-880.55394
-932.09565
-983.99831
-1035.6332
-1086.3165
-1135.3166
-1181.8632
-1225.1583
-1264.3893
-1298.7432
-1327.4232
-1349.6658
-1364.7563
-1372.0522
-1370.9937
-1361.1177
-1342.0697
-1313.6503
-1275.8206
-1228.6723
-1172.4221
-1107.4302
-1034.1949
-953.3425
-865.61298
-771.84197
-672.93909
-569.86403
-463.60147
-355.13616
-245.4295
-135.39858
-25.898705
82.29031
188.47371
292.04738
392.49974
489.41049
582.44663
671.35656
755.96277
836.1536
911.87466
983.12023
1049.9249
1112.3556
1170.5047
1224.4832
1274.4154
1320.4334
1362.6734
1401.2712
1436.3603
1468.0683
1496.5155
1521.8135
1544.0615
1563.3451
1579.7407
1593.3331
1604.1636
1612.3269
1617.4946
1619.6088
-2.940488
-9.3770567
-15.589548
-22.101063
-28.942485
-36.181833
-43.872909
-52.057483
-60.764308
-70.008391
-79.790863
-90.098938
-100.90631
-112.17362
-123.84926
-135.87025
-148.16337
-160.64635
-173.22934
-185.81649
-198.30767
-210.60043
-222.59211
-234.18211
-245.27436
-255.77987
-265.61943
-274.72645
-283.04961
-290.55582
-297.2329
-303.09058
-308.16735
-312.52528
-316.25363
-319.48112
-322.37406
-325.12278
-327.93354
-331.03992
-334.69689
-339.17672
-344.76581
-351.75877
-360.45257
-371.1404
-384.10495
-399.61171
-417.90216
-439.18702
-463.63993
-491.39095
-522.52022
-557.05657
-594.96407
-636.15001
-680.44829
-727.61896
-777.3559
-829.27738
-882.92781
-937.7785
-993.2298
-1048.6148
-1103.2045
-1156.2157
-1206.82
-1254.156
-1297.3432
-1335.4979
-1367.7508
-1393.2661
-1411.2597
-1421.0224
-1421.9359
-1413.4855
-1395.2707
-1367.0575
-1328.7977
-1280.5854
-1222.6481
-1155.3724
-1079.2971
-995.10329
-903.59816
-805.69499
-702.38859
-594.72804
-483.78817
-370.64113
-256.3298
-141.84429
-28.102487
84.064848
193.92415
300.84445
404.29863
503.86101
599.20212
690.08122
776.33753
857.88055
934.68009
1006.7565
1074.1713
1137.0184
1195.4166
1249.5022
1299.423
1345.3335
1387.3897
1425.7463
1460.5529
1491.952
1520.0769
1545.0508
1566.9831
1585.9684
1602.0911
1615.443
1626.0708
1634.0771
1639.1413
1641.2134
-2.5172
-8.6510465
-14.535436
-20.756074
-27.348373
-34.387892
-41.934133
-50.033051
-58.715995
-67.99897
-77.882579
-88.352072
-99.377833
-110.91594
-122.9091
-135.28755
-147.97035
-160.86662
-173.87711
-186.89582
-199.81189
-212.51161
-224.88064
-236.80651
-248.18111
-258.90358
-268.88314
-278.04219
-286.31923
-293.67212
-300.08108
-305.54975
-310.11325
-313.8317
-316.79539
-319.13885
-321.03788
-322.69439
-324.32891
-326.193
-328.5628
-331.73463
-336.02187
-341.74842
-349.24237
-358.82937
-370.82522
-385.52861
-403.21361
-424.12237
-448.45803
-476.3779
-507.98583
-543.33168
-582.39546
-625.09701
-671.27723
-720.69412
-773.03654
-827.91106
-884.8436
-943.27983
-1002.587
-1062.0572
-1120.9131
-1178.3149
-1233.3709
-1285.15
-1332.6968
-1375.049
-1411.2565
-1440.403
-1461.626
-1474.1413
-1477.265
-1470.4237
-1453.1647
-1425.213
-1386.5088
-1337.1477
-1277.3689
-1207.5873
-1128.3867
-1040.5093
-944.83805
-842.37411
-734.20893
-621.49321
-505.40406
-387.11258
-267.75347
-148.39859
-30.035182
86.450249
200.28249
310.80272
417.4688
519.85155
617.62777
710.5711
798.54139
881.47335
959.36507
1032.2669
1100.271
1163.5016
1222.1069
1276.251
1326.1079
1371.856
1413.6734
1451.7343
1486.2061
1517.247
1545.0039
1569.6123
1591.1921
1609.8474
1625.6707
1638.7606
1649.1693
1657.0067
1661.96
1663.9871
-2.047212
-7.8400308
-13.357316
-19.252887
-25.567122
-32.383907
-39.769029
-47.773001
-56.429972
-65.756962
-75.75392
-86.403872
-97.673521
-109.51393
-121.86156
-134.63928
-147.75776
-161.11676
-174.60682
-188.11096
-201.50661
-214.66778
-227.46743
-239.77997
-251.48412
-262.46585
-272.62149
-281.86112
-290.11174
-297.32088
-303.45996
-308.52541
-312.54798
-315.58495
-317.72726
-319.1156
-319.93486
-320.3987
-320.74363
-321.24036
-322.18786
-323.90868
-326.74568
-331.05487
-337.1986
-345.53825
-356.42621
-370.19786
-387.16339
-407.59977
-431.74296
-459.78065
-491.84338
-528.00452
-568.26261
-612.552
-660.72255
-712.5306
-767.66085
-825.70821
-886.1797
-948.4943
-1011.9844
-1075.8986
-1139.4071
-1201.6093
-1261.5443
-1318.2044
-1370.5514
-1417.5358
-1458.1179
-1491.2909
-1516.1049
-1531.6911
-1537.2914
-1532.2656
-1516.1031
-1488.4802
-1449.3216
-1398.7231
-1336.9366
-1264.4077
-1181.7697
-1089.8329
-989.5656
-882.06848
-768.54287
-650.25505
-528.49848
-404.55637
-279.66704
-154.9938
-31.600766
89.564737
207.68307
322.06685
432.16002
537.53237
637.87056
732.96683
822.7063
907.05362
986.03984
1059.7497
1128.3101
1191.8795
1250.6384
1304.7818
1354.5122
1400.034
1441.549
1479.2523
1513.3303
1543.9575
1571.2955
1595.4922
1616.6788
1634.9687
1650.4628
1663.2666
1673.4373
1681.092
1685.9258
1687.9044
-1.5283632
-6.9372188
-12.043621
-17.575736
-23.579452
-30.147874
-37.353696
-45.252386
-53.881086
-63.257819
-73.381708
-84.233242
-95.775021
-107.95258
-120.69554
-133.91878
-147.52382
-161.40033
-175.42776
-189.47723
-203.41348
-217.09719
-230.3874
-243.14423
-255.23186
-266.52172
-276.89585
-286.25053
-294.49978
-301.57938
-307.45052
-312.10121
-315.55663
-317.87026
-319.13306
-319.49184
-319.13996
-318.30377
-317.23704
-316.23083
-315.60882
-315.72204
-316.94556
-319.67062
-324.29718
-331.22603
-340.8499
-353.5447
-369.66058
-389.51308
-413.37465
-441.4667
-473.94982
-510.92355
-552.40813
-598.35424
-648.62281
-702.96935
-761.07591
-822.52546
-886.80595
-953.30892
-1021.3302
-1090.0723
-1158.6494
-1226.0948
-1291.3724
-1353.3905
-1411.0198
-1463.1138
-1508.5328
-1546.1695
-1574.9758
-1593.9875
-1602.363
-1599.3846
-1584.4787
-1557.2671
-1517.6501
-1465.7206
-1401.7475
-1326.2084
-1239.7906
-1143.3805
-1038.0424
-924.98964
-805.54884
-681.11807
-553.12329
-422.97508
-292.0287
-161.54993
-32.68795
93.543716
216.27834
334.79975
448.53972
557.07036
660.09263
757.42252
848.97586
934.75283
1014.8227
1089.3098
1158.38
1222.23
1281.0765
1335.1482
1384.6786
1429.9003
1471.0402
1508.3161
1541.934
1572.0859
1598.9485
1622.6827
1643.4309
1661.3165
1676.4484
1688.9391
1698.8508
1706.3071
1711.0116
1712.9376
-0.9542967
-5.9305926
-10.577166
-15.703023
-21.360192
-27.651925
-34.658499
-42.440732
-51.038925
-60.472055
-70.738179
-81.814875
-93.660157