/*--------------------------------*- C++ -*----------------------------------*\
| =========                 |                                                 |
| \\      /  F ield         | foam-extend: Open Source CFD                    |
|  \\    /   O peration     | Version:     4.1                                |
|   \\  /    A nd           | Web:         http://www.foam-extend.org         |
|    \\/     M anipulation  |                                                 |
\*---------------------------------------------------------------------------*/
FoamFile
{
    version     2.0;
    format      ascii;
    class       volScalarField;
    location    "1";
    object      rAU;
}
// * * * * * * * * * * * * * * * * * * * * * * * * * * * * * * * * * * * * * //

dimensions      [0 0 1 0 0 0 0];

internalField   nonuniform List<scalar> 
16796
(
0.00012975349
0.00012964844
0.00012955907
0.00012945911
0.00012934689
0.00012922366
0.00012908762
0.00012894019
0.00012877981
0.0001286082
0.00012842409
0.00012822952
0.00012802352
0.00012780843
0.00012758357
0.00012735152
0.00012711184
0.00012686734
0.00012661775
0.00012636602
0.00012611199
0.00012585866
0.00012560592
0.00012535676
0.00012511101
0.00012487156
0.00012463813
0.00012441342
0.00012419696
0.00012399122
0.00012379547
0.00012361151
0.00012343983
0.00012327959
0.0001231325
0.00012299698
0.00012287436
0.00012276273
0.00012266306
0.0001225731
0.0001224935
0.00012242182
0.0001223579
0.00012230003
0.00012224694
0.00012219718
0.00012214924
0.00012210173
0.00012205305
0.00012200179
0.00012194657
0.0001218861
0.00012181921
0.000121745
0.00012166254
0.00012157124
0.00012147071
0.00012136076
0.00012124142
0.0001211131
0.00012097622
0.00012083159
0.00012068018
0.00012052318
0.00012036194
0.00012019794
0.00012003291
0.00011986849
0.00011970649
0.00011954872
0.000119397
0.00011925304
0.00011911865
0.00011899531
0.0001188845
0.00011878753
0.00011870553
0.00011863938
0.00011858994
0.00011855755
0.00011854259
0.00011854259
0.00011854518
0.00011856544
0.00011860318
0.00011865789
0.00011872882
0.00011881503
0.0001189154
0.00011902867
0.00011915362
0.00011928868
0.00011943241
0.00011958326
0.00011973967
0.00011990009
0.00012006295
0.00012022687
0.00012039027
0.00012055184
0.00012071025
0.0001208643
0.00012101282
0.00012115488
0.00012128943
0.00012141566
0.00012153282
0.00012164024
0.00012173732
0.00012182368
0.0001218988
0.00012196239
0.0001220142
0.00012205402
0.00012208171
0.00012209733
0.00012209222
0.00012207187
0.00012204004
0.00012199742
0.00012194515
0.00012188472
0.00012181258
0.000121704
0.00011731138
0.00011728259
0.00011727922
0.00011726986
0.00011725161
0.00011722538
0.0001171894
0.00011714504
0.00011709081
0.00011702831
0.0001169563
0.00011687662
0.00011678826
0.00011669327
0.00011659089
0.00011648337
0.00011637012
0.00011625358
0.0001161333
0.00011601183
0.00011588882
0.00011576688
0.00011564567
0.00011552781
0.00011541294
0.00011530357
0.00011519925
0.00011510237
0.00011501231
0.00011493126
0.0001148584
0.00011479529
0.00011474232
0.00011469859
0.00011466564
0.00011464193
0.00011462867
0.00011462401
0.00011462888
0.00011464112
0.00011466137
0.00011468734
0.00011471891
0.00011475454
0.00011479306
0.00011483319
0.00011487358
0.00011491302
0.00011495011
0.00011498364
0.00011501243
0.00011503541
0.00011505162
0.00011506038
0.00011506097
0.00011505302
0.00011503631
0.00011501086
0.00011497686
0.00011493488
0.00011488547
0.00011482957
0.00011476825
0.00011470275
0.00011463449
0.00011456496
0.0001144959
0.00011442891
0.00011436575
0.00011430816
0.00011425786
0.00011421646
0.00011418563
0.00011416671
0.00011416104
0.00011416978
0.00011419389
0.00011423411
0.00011429113
0.00011433708
0.00011439529
0.000114468
0.00011454365
0.00011463609
0.00011474518
0.00011487068
0.00011501211
0.00011516887
0.00011534014
0.00011552496
0.00011572237
0.0001159311
0.00011614992
0.00011637752
0.00011661252
0.00011685354
0.00011709913
0.00011734804
0.00011759877
0.00011785006
0.00011810064
0.00011834929
0.00011859484
0.00011883633
0.00011907268
0.000119303
0.00011952647
0.00011974233
0.00011994988
0.00012014863
0.00012033794
0.00012051738
0.00012068656
0.00012084515
0.00012099282
0.00012112945
0.00012124629
0.00012134843
0.00012143925
0.0001215189
0.00012158769
0.00012163426
0.00012166371
0.00012167777
0.00011625699
0.00011621497
0.00011618784
0.00011615441
0.00011611284
0.00011606447
0.00011600794
0.00011594493
0.00011587433
0.00011579804
0.00011571513
0.00011562768
0.00011553492
0.00011543909
0.00011533955
0.00011523865
0.00011513584
0.00011503355
0.0001149313
0.00011483154
0.00011473378
0.00011464046
0.00011455105
0.00011446791
0.00011439042
0.0001143208
0.00011425828
0.00011420492
0.00011415975
0.00011412461
0.00011409831
0.00011408206
0.00011407586
0.00011407848
0.0001140911
0.00011411184
0.00011414158
0.00011417819
0.0001142223
0.00011427151
0.00011432622
0.00011438397
0.00011442767
0.0001144755
0.00011452662
0.0001145799
0.00011463414
0.00011468824
0.00011474089
0.00011479092
0.00011483718
0.00011487858
0.00011490531
0.00011491332
0.00011491163
0.00011490021
0.00011487917
0.00011484887
0.00011480983
0.00011476294
0.00011470908
0.00011464946
0.0001145854
0.00011451839
0.00011445003
0.00011438197
0.00011431607
0.00011425401
0.00011419758
0.00011414854
0.00011410855
0.00011407916
0.00011406193
0.00011405807
0.00011406877
0.00011409499
0.0001141375
0.00011419682
0.00011423248
0.00011424966
0.0001142781
0.00011432282
0.00011438436
0.00011446307
0.00011455901
0.00011467209
0.000114802
0.00011494822
0.00011511008
0.00011528667
0.00011547711
0.00011568017
0.00011589465
0.00011611923
0.00011635254
0.00011659315
0.00011683961
0.00011709058
0.00011734454
0.00011760013
0.00011785602
0.00011811093
0.00011836359
0.00011861299
0.00011885794
0.0001190975
0.00011933077
0.00011955692
0.00011977518
0.00011998499
0.00012018566
0.00012037671
0.00012055768
0.00012072819
0.00012088786
0.00012103652
0.00012117382
0.0001212996
0.0001214136
0.0001215154
0.00012160458
0.00012166882
0.00012171648
0.00012172834
0.00011617786
0.00011612742
0.00011609084
0.00011604713
0.00011599495
0.00011593591
0.00011586883
0.00011579556
0.00011571513
0.00011562961
0.0001155382
0.00011544311
0.0001153437
0.00011524231
0.0001151384
0.00011503438
0.00011492978
0.00011482705
0.00011472575
0.0001146283
0.00011453423
0.00011444592
0.00011436281
0.00011428715
0.00011421827
0.00011415828
0.00011410632
0.0001140643
0.00011403115
0.00011400857
0.00011399523
0.00011399221
0.00011399936
0.00011401532
0.00011404111
0.00011407472
0.0001141169
0.00011416538
0.00011422067
0.00011428024
0.00011432287
0.00011436408
0.00011439396
0.00011443099
0.00011447458
0.0001145238
0.00011457757
0.00011463487
0.00011469436
0.00011475478
0.0001148148
0.00011487308
0.00011491949
0.00011494223
0.00011493319
0.00011491372
0.00011488415
0.000114845
0.00011479701
0.00011474127
0.00011467887
0.00011461123
0.00011453987
0.00011446647
0.00011439282
0.00011432071
0.00011425216
0.00011418893
0.00011413294
0.00011408597
0.00011404975
0.00011402581
0.0001140157
0.00011402057
0.00011404153
0.00011407945
0.00011413496
0.00011418572
0.00011417362
0.0001141698
0.00011418153
0.00011420973
0.00011425513
0.00011431824
0.00011439931
0.0001144984
0.00011461533
0.0001147497
0.00011490091
0.00011506814
0.00011525055
0.00011544694
0.00011565613
0.00011587678
0.0001161075
0.00011634684
0.00011659329
0.00011684545
0.00011710173
0.00011736072
0.00011762101
0.00011788122
0.00011814005
0.00011839636
0.00011864893
0.00011889672
0.00011913876
0.00011937417
0.0001196021
0.00011982196
0.00012003297
0.0001202346
0.00012042637
0.00012060781
0.00012077851
0.00012093823
0.00012108658
0.00012122331
0.00012134805
0.00012146033
0.00012155984
0.00012164491
0.0001217183
0.00012173865
0.00011617481
0.00011611893
0.00011607654
0.0001160265
0.00011596763
0.00011590168
0.00011582759
0.00011574729
0.00011565991
0.00011556759
0.00011546963
0.00011536832
0.0001152631
0.00011515638
0.0001150477
0.00011493954
0.00011483149
0.00011472605
0.00011462281
0.00011452424
0.00011442989
0.00011434216
0.00011426048
0.00011418712
0.00011412139
0.00011406537
0.00011401816
0.00011398165
0.00011395471
0.00011393897
0.00011393304
0.00011393791
0.00011395336
0.00011397792
0.0001140125
0.00011405499
0.00011410603
0.00011416321
0.00011422691
0.00011426454
0.00011428012
0.0001142979
0.00011432515
0.0001143609
0.00011440446
0.00011445493
0.00011451123
0.00011457231
0.00011463677
0.00011470328
0.00011477042
0.0001148367
0.00011490061
0.00011495347
0.00011495335
0.00011492578
0.00011488751
0.00011483926
0.00011478196
0.00011471692
0.00011464543
0.00011456912
0.00011448973
0.00011440916
0.00011432935
0.0001142523
0.00011418016
0.00011411485
0.00011405838
0.00011401262
0.00011397933
0.00011396008
0.00011395641
0.00011396943
0.00011400019
0.00011404946
0.00011411773
0.00011413226
0.00011409714
0.0001140762
0.00011407088
0.00011408233
0.00011411145
0.00011415894
0.00011422523
0.00011431052
0.00011441474
0.00011453762
0.00011467862
0.00011483699
0.00011501193
0.00011520224
0.00011540675
0.00011562412
0.0001158529
0.00011609161
0.00011633867
0.00011659262
0.00011685182
0.00011711476
0.00011737995
0.00011764596
0.00011791137
0.00011817501
0.00011843554
0.00011869189
0.000118943
0.00011918792
0.00011942577
0.00011965587
0.00011987741
0.00012008981
0.00012029252
0.00012048504
0.00012066692
0.00012083785
0.00012099739
0.00012114519
0.00012128082
0.00012140378
0.00012151372
0.00012160766
0.00012168912
0.00012172294
0.00011617678
0.00011611523
0.00011606711
0.00011601099
0.00011594572
0.00011587315
0.00011579228
0.00011570515
0.00011561096
0.00011551191
0.00011540739
0.00011529978
0.00011518857
0.00011507626
0.00011496246
0.00011484971
0.00011473766
0.00011462887
0.00011452299
0.00011442253
0.00011432707
0.00011423904
0.0001141579
0.00011408594
0.00011402244
0.00011396951
0.00011392622
0.00011389444
0.000113873
0.00011386347
0.00011386441
0.00011387675
0.00011390017
0.00011393311
0.00011397639
0.00011402777
0.00011408777
0.00011415385
0.00011420358
0.00011420419
0.00011420825
0.00011422243
0.00011424732
0.00011428199
0.0001143258
0.00011437785
0.00011443706
0.00011450235
0.00011457227
0.00011464539
0.00011472018
0.00011479502
0.00011486822
0.00011493825
0.00011497208
0.00011493619
0.00011488891
0.00011483116
0.00011476405
0.00011468913
0.0001146079
0.00011452221
0.00011443403
0.00011434547
0.00011425868
0.00011417585
0.0001140993
0.00011403108
0.00011397333
0.00011392803
0.00011389699
0.00011388182
0.00011388406
0.0001139048
0.00011394502
0.0001140054
0.00011408633
0.00011406122
0.00011400851
0.00011396993
0.00011394715
0.00011394152
0.00011395417
0.00011398596
0.00011403749
0.0001141091
0.00011420086
0.00011431256
0.00011444376
0.00011459374
0.00011476173
0.00011494655
0.000115147
0.00011536169
0.00011558917
0.00011582787
0.00011607615
0.00011633249
0.00011659515
0.00011686255
0.00011713311
0.00011740533
0.00011767771
0.00011794899
0.00011821777
0.00011848289
0.00011874324
0.00011899782
0.00011924567
0.00011948607
0.00011971817
0.00011994133
0.00012015498
0.00012035858
0.00012055161
0.00012073376
0.00012090453
0.00012106353
0.00012121029
0.00012134433
0.00012146522
0.00012156887
0.00012166046
0.00012170671
0.00011617789
0.00011611117
0.00011605742
0.00011599525
0.00011592358
0.00011584433
0.00011575658
0.00011566244
0.00011556119
0.00011545514
0.00011534373
0.00011522941
0.00011511179
0.00011499341
0.00011487397
0.00011475609
0.00011463948
0.00011452676
0.00011441765
0.0001143147
0.00011421754
0.00011412863
0.00011404748
0.00011397637
0.00011391463
0.00011386434
0.00011382459
0.0001137972
0.00011378099
0.00011377749
0.00011378519
0.00011380497
0.00011383641
0.00011387787
0.00011393006
0.00011399064
0.00011405998
0.00011413543
0.0001141395
0.00011412606
0.00011412542
0.00011413614
0.00011415889
0.00011419277
0.00011423719
0.00011429128
0.00011435393
0.00011442401
0.00011450001
0.00011458042
0.00011466356
0.00011474768
0.00011483091
0.00011491151
0.00011497995
0.00011494556
0.00011488894
0.00011482124
0.0001147438
0.00011465835
0.00011456665
0.0001144708
0.00011437299
0.00011427556
0.00011418089
0.00011409136
0.00011400949
0.00011393749
0.00011387765
0.00011383204
0.00011380256
0.00011379087
0.00011379853
0.00011382659
0.000113876
0.00011394734
0.00011404091
0.00011397952
0.00011390853
0.00011385173
0.00011381101
0.00011378795
0.00011378388
0.00011379985
0.00011383663
0.00011389468
0.0001139742
0.00011407506
0.00011419689
0.00011433899
0.00011450062
0.00011468058
0.00011487763
0.00011509037
0.00011531726
0.00011555667
0.00011580688
0.0001160663
0.00011633308
0.00011660557
0.00011688211
0.00011716109
0.00011744093
0.0001177203
0.00011799773
0.00011827198
0.00011854188
0.00011880638
0.00011906444
0.00011931532
0.00011955811
0.00011979214
0.00012001679
0.00012023148
0.00012043567
0.00012062902
0.00012081098
0.00012098114
0.00012113903
0.00012128418
0.0001214161
0.00012152987
0.00012163265
0.00012169171
0.00011617875
0.00011610653
0.00011604694
0.00011597853
0.00011590024
0.00011581406
0.00011571916
0.0001156177
0.00011550906
0.00011539561
0.0001152769
0.00011515545
0.00011503095
0.00011490604
0.00011478049
0.00011465697
0.00011453531
0.00011441817
0.00011430533
0.00011419942
0.0001141001
0.0001140099
0.00011392834
0.00011385774
0.00011379744
0.00011374954
0.00011371311
0.00011368997
0.00011367891
0.00011368143
0.00011369596
0.0001137233
0.00011376299
0.00011381326
0.00011387474
0.00011394496
0.00011402415
0.00011408678
0.00011405746
0.00011403811
0.00011403277
0.00011404009
0.00011406083
0.00011409417
0.00011413952
0.00011419603
0.00011426258
0.000114338
0.00011442068
0.00011450902
0.00011460122
0.00011469534
0.00011478934
0.00011488126
0.00011496893
0.00011495505
0.00011488866
0.00011481046
0.00011472201
0.00011462529
0.0001145223
0.00011441538
0.00011430699
0.0001141997
0.00011409615
0.00011399894
0.00011391078
0.00011383407
0.00011377125
0.00011372452
0.00011369589
0.00011368706
0.00011369961
0.00011373461
0.00011379294
0.00011387513
0.00011398135
0.00011388772
0.00011379766
0.00011372193
0.00011366269
0.00011362173
0.0001136006
0.00011360055
0.00011362249
0.00011366705
0.0001137345
0.00011382481
0.00011393765
0.00011407236
0.00011422817
0.00011440388
0.00011459821
0.00011480967
0.00011503668
0.00011527751
0.00011553036
0.00011579353
0.0001160651
0.0001163433
0.00011662637
0.00011691264
0.00011720043
0.00011748832
0.00011777477
0.00011805848
0.00011833821
0.00011861285
0.00011888134
0.00011914286
0.00011939648
0.00011964149
0.00011987723
0.00012010311
0.00012031855
0.00012052319
0.00012071644
0.00012089789
0.00012106707
0.00012122352
0.0001213667
0.00012149105
0.00012160559
0.0001216775
0.00011617962
0.00011610207
0.00011603661
0.00011596184
0.00011587676
0.00011578344
0.00011568109
0.00011557199
0.00011545558
0.00011533432
0.00011520784
0.00011507876
0.00011494686
0.00011481486
0.00011468261
0.00011455289
0.00011442558
0.00011430344
0.00011418631
0.00011407687
0.00011397487
0.00011388285
0.0001138004
0.00011372988
0.00011367065
0.0001136248
0.00011359143
0.00011357235
0.00011356632
0.00011357481
0.0001135962
0.00011363124
0.00011367936
0.00011373875
0.00011380989
0.00011389021
0.00011397981
0.00011400376
0.00011396482
0.00011393942
0.00011392933
0.00011393333
0.00011395222
0.00011398524
0.00011403187
0.00011409124
0.00011416222
0.00011424357
0.00011433362
0.00011443065
0.00011453269
0.00011463766
0.0001147433
0.00011484743
0.0001149476
0.00011496518
0.00011488852
0.00011479919
0.00011469899
0.00011459016
0.00011447494
0.00011435596
0.00011423594
0.00011411773
0.00011400421
0.00011389824
0.00011380274
0.00011372034
0.00011365362
0.00011360494
0.00011357641
0.00011356982
0.00011358678
0.00011362836
0.00011369541
0.00011378838
0.00011390679
0.00011378627
0.00011367625
0.00011358081
0.00011350238
0.00011344299
0.00011340441
0.00011338808
0.00011339509
0.00011342618
0.00011348173
0.00011356179
0.00011366605
0.00011379387
0.00011394448
0.0001141166
0.00011430891
0.00011451987
0.00011474777
0.00011499081
0.00011524708
0.00011551476
0.00011579184
0.00011607644
0.00011636671
0.00011666085
0.00011695712
0.00011725402
0.00011754993
0.00011784346
0.00011813335
0.00011841841
0.00011869752
0.00011896985
0.00011923442
0.00011949049
0.00011973738
0.00011997447
0.00012020118
0.0001204171
0.00012062166
0.00012081443
0.00012099496
0.00012116279
0.00012131739
0.00012145258
0.00012157918
0.00012166381
0.00011618123
0.00011609814
0.00011602664
0.00011594531
0.00011585321
0.00011575245
0.00011564234
0.00011552521
0.00011540061
0.00011527108
0.00011513635
0.00011499913
0.00011485928
0.00011471963
0.00011458012
0.00011444361
0.00011431007
0.00011418235
0.00011406035
0.00011394684
0.00011384163
0.00011374732
0.00011366355
0.0001135927
0.00011353417
0.0001134901
0.00011345957
0.00011344439
0.00011344331
0.00011345777
0.00011348612
0.00011352902
0.00011358586
0.00011365472
0.00011373597
0.00011382692
0.00011392753
0.00011390828
0.00011386182
0.00011383018
0.00011381525
0.0001138159
0.00011383304
0.00011386596
0.00011391417
0.00011397681
0.00011405272
0.00011414062
0.00011423874
0.00011434523
0.00011445798
0.0001145747
0.00011469292
0.00011481021
0.00011492386
0.00011497679
0.00011488925
0.00011478806
0.00011467526
0.00011455335
0.00011442486
0.0001142927
0.0001141599
0.00011402958
0.0001139049
0.00011378899
0.00011368503
0.00011359585
0.00011352424
0.00011347272
0.00011344352
0.00011343852
0.00011345939
0.0001135072
0.00011358277
0.00011368649
0.00011381778
0.00011367535
0.00011354437
0.00011342832
0.00011332992
0.00011325147
0.00011319496
0.00011316203
0.00011315393
0.00011317153
0.00011321532
0.0001132854
0.00011338147
0.00011350291
0.0001136489
0.00011381811
0.00011400915
0.00011422037
0.00011444997
0.00011469603
0.00011495652
0.00011522951
0.00011551285
0.00011580457
0.0001161027
0.00011640535
0.00011671067
0.00011701709
0.0001173229
0.00011762666
0.00011792704
0.0001182228
0.0001185128
0.00011879614
0.00011907182
0.00011933909
0.00011959723
0.00011984562
0.00012008364
0.00012031091
0.00012052682
0.00012073097
0.0001209229
0.00012110219
0.00012126833
0.00012141454
0.00012155329
0.0001216505
0.00011618396
0.00011609536
0.00011601771
0.00011592964
0.00011583027
0.00011572177
0.00011560353
0.00011547798
0.00011534472
0.00011520642
0.00011506289
0.00011491694
0.00011476855
0.00011462062
0.0001144732
0.00011432926
0.00011418885
0.0001140549
0.00011392742
0.00011380924
0.00011370025
0.0001136031
0.0001135175
0.00011344588
0.00011338769
0.00011334506
0.00011331712
0.00011330567
0.00011330946
0.00011332989
0.00011336528
0.00011341625
0.00011348209
0.0001135608
0.00011365266
0.00011375483
0.00011386082
0.00011380221
0.00011374791
0.00011370979
0.00011368987
0.00011368715
0.00011370261
0.00011373563
0.00011378573
0.00011385208
0.00011393347
0.00011402857
0.00011413552
0.00011425233
0.00011437672
0.00011450619
0.00011463804
0.00011476958
0.0001148978
0.00011499051
0.00011489142
0.00011477755
0.00011465119
0.00011451513
0.00011437221
0.00011422565
0.00011407877
0.00011393504
0.00011379791
0.0001136708
0.00011355715
0.00011346005
0.0001133825
0.00011332719
0.00011329651
0.00011329244
0.00011331672
0.00011337043
0.00011345437
0.00011356888
0.0001137138
0.00011355525
0.00011340218
0.00011326452
0.00011314529
0.00011304707
0.00011297207
0.00011292216
0.00011289874
0.00011290282
0.00011293497
0.00011299532
0.00011308363
0.00011319921
0.00011334122
0.00011350825
0.0001136988
0.00011391112
0.00011414328
0.00011439323
0.00011465881
0.00011493794
0.00011522837
0.00011552798
0.00011583469
0.0001161465
0.00011646148
0.00011677795
0.00011709414
0.00011740854
0.00011771976
0.00011802652
0.00011832763
0.00011862217
0.00011890911
0.00011918768
0.00011945715
0.00011971688
0.00011996626
0.00012020489
0.00012043218
0.00012064772
0.0001208511
0.00012104189
0.00012121964
0.00012137694
0.00012152785
0.00012163749
0.00011618842
0.00011609414
0.00011601017
0.00011591513
0.00011580821
0.00011569163
0.00011556486
0.00011543042
0.00011528803
0.00011514041
0.0001149875
0.00011483222
0.00011467464
0.00011451778
0.0001143618
0.00011420975
0.0001140618
0.00011392097
0.00011378736
0.00011366389
0.00011355052
0.00011344999
0.00011336206
0.00011328922
0.00011323096
0.00011318946
0.00011316387
0.00011315599
0.00011316457
0.000113191
0.00011323356
0.00011329281
0.00011336799
0.000113457
0.00011356
0.00011367403
0.00011376611
0.00011368542
0.00011362286
0.00011357795
0.00011355284
0.00011354667
0.0001135605
0.00011359377
0.00011364606
0.00011371653
0.00011380397
0.00011390696
0.00011402354
0.00011415158
0.00011428861
0.00011443193
0.00011457858
0.00011472556
0.00011486957
0.00011499949
0.00011489573
0.00011476824
0.00011462725
0.00011447584
0.00011431719
0.00011415485
0.0001139925
0.00011383392
0.00011368292
0.00011354321
0.00011341856
0.00011331229
0.00011322767
0.00011316757
0.00011313456
0.00011313073
0.0001131579
0.00011321719
0.00011330937
0.00011343473
0.00011359301
0.00011342603
0.0001132496
0.00011308921
0.00011294817
0.00011282936
0.00011273525
0.0001126679
0.0001126289
0.00011261937
0.00011263997
0.00011269088
0.00011277182
0.00011288211
0.0001130208
0.00011318641
0.00011337731
0.00011359161
0.00011382725
0.00011408201
0.0001143536
0.00011463978
0.00011493815
0.00011524647
0.00011556252
0.00011588421
0.00011620948
0.00011653658
0.00011686365
0.00011718913
0.00011751157
0.00011782964
0.00011814213
0.00011844808
0.00011874644
0.00011903643
0.00011931732
0.00011958845
0.00011984922
0.00012009923
0.00012033791
0.00012056487
0.00012077969
0.00012098201
0.00012117139
0.00012133979
0.00012150282
0.00012162473
0.00011618128
0.00011609508
0.00011600463
0.00011590238
0.00011578759
0.00011566255
0.00011552683
0.00011538301
0.00011523092
0.0001150734
0.00011491048
0.0001147452
0.00011457774
0.00011441123
0.00011424595
0.00011408507
0.00011392885
0.00011378043
0.00011364
0.00011351056
0.00011339219
0.00011328768
0.00011319689
0.00011312235
0.00011306361
0.0001130229
0.00011299939
0.00011299491
0.00011300822
0.00011304067
0.00011309054
0.00011315833
0.0001132432
0.00011334298
0.00011345772
0.00011358432
0.00011364833
0.0001135575
0.00011348621
0.00011343414
0.00011340361
0.00011339385
0.00011340605
0.00011343973
0.0001134945
0.00011356954
0.00011366361
0.00011377521
0.00011390228
0.00011404253
0.00011419332
0.00011435168
0.00011451439
0.00011467814
0.00011483929
0.00011499427
0.00011490291
0.00011476075
0.00011460392
0.00011443584
0.00011426003
0.0001140804
0.00011390102
0.00011372603
0.0001135596
0.0001134058
0.0001132687
0.00011315193
0.00011305902
0.00011299307
0.00011295682
0.00011295251
0.00011298206
0.00011304661
0.00011314693
0.00011328327
0.00011345525
0.00011328782
0.00011308666
0.00011290227
0.00011273834
0.00011259802
0.00011248408
0.00011239878
0.00011234389
0.00011232066
0.0001123298
0.00011237153
0.00011244556
0.00011255113
0.00011268722
0.00011285221
0.00011304435
0.00011326159
0.00011350168
0.00011376225
0.00011404082
0.00011433501
0.00011464225
0.00011496014
0.00011528634
0.00011561864
0.00011595487
0.00011629319
0.00011663168
0.00011696869
0.00011730273
0.00011763244
0.00011795655
0.00011827411
0.00011858406
0.00011888558
0.00011917795
0.00011946054
0.00011973272
0.00011999413
0.00012024419
0.00012048254
0.0001207088
0.00012092262
0.00012112363
0.00012130308
0.00012147815
0.00012161217
0.00011615987
0.00011609868
0.00011600154
0.00011589181
0.0001157688
0.00011563491
0.00011548974
0.00011533602
0.00011517364
0.00011500558
0.00011483198
0.00011465598
0.00011447791
0.000114301
0.00011412567
0.00011395517
0.00011378993
0.00011363315
0.00011348517
0.00011334907
0.00011322503
0.00011311593
0.0001130217
0.00011294496
0.00011288531
0.00011284503
0.00011282335
0.0001128221
0.00011284005
0.00011287857
0.0001129359
0.0001130125
0.00011310747
0.00011321854
0.00011334566
0.0001134856
0.00011351975
0.00011341813
0.00011333755
0.00011327788
0.00011324159
0.00011322807
0.00011323861
0.00011327281
0.00011333035
0.0001134104
0.00011351169
0.00011363267
0.00011377115
0.00011392468
0.00011409041
0.00011426512
0.00011444529
0.00011462729
0.00011480708
0.00011498072
0.00011491375
0.00011475574
0.00011458174
0.00011439551
0.00011420096
0.00011400238
0.00011380426
0.00011361114
0.00011342759
0.00011325804
0.00011310694
0.00011297823
0.00011287571
0.00011280277
0.00011276232
0.00011275678
0.00011278816
0.00011285767
0.00011296605
0.00011311353
0.00011329961
0.00011314064
0.00011291319
0.00011270342
0.00011251537
0.00011235254
0.00011221796
0.00011211413
0.000112043
0.00011200592
0.00011200369
0.00011203652
0.0001121041
0.00011220559
0.00011233983
0.00011250509
0.00011269943
0.00011292062
0.00011316621
0.00011343366
0.00011372027
0.00011402349
0.00011434057
0.00011466895
0.00011500617
0.00011534986
0.00011569776
0.00011604794
0.00011639838
0.0001167474
0.00011709344
0.00011743511
0.00011777112
0.0001181005
0.00011842218
0.00011873535
0.00011903928
0.00011933335
0.00011961696
0.00011988975
0.00012015117
0.00012040088
0.00012063854
0.00012086383
0.00012107641
0.00012126683
0.00012145383
0.0001215998
0.00011613535
0.00011610558
0.00011600154
0.00011588403
0.00011575244
0.00011560923
0.00011545411
0.00011528989
0.0001151166
0.0001149373
0.00011475228
0.0001145648
0.00011437531
0.00011418719
0.00011400096
0.00011382004
0.00011364494
0.00011347901
0.00011332269
0.00011317918
0.00011304876
0.0001129344
0.00011283614
0.00011275666
0.00011269564
0.00011265543
0.00011263528
0.00011263707
0.00011265961
0.00011270424
0.0001127692
0.0001128549
0.0001129604
0.00011308333
0.00011322354
0.00011337764
0.00011338005
0.00011326689
0.0001131764
0.00011310861
0.0001130662
0.00011304869
0.00011305749
0.00011309231
0.00011315287
0.00011323838
0.00011334752
0.00011347868
0.00011362955
0.00011379751
0.00011397948
0.00011417197
0.00011437114
0.00011457299
0.0001147731
0.00011496708
0.00011492917
0.00011475401
0.00011456135
0.00011435534
0.00011414028
0.00011392094
0.0001137022
0.00011348907
0.00011328653
0.00011309946
0.00011293265
0.00011279043
0.00011267691
0.00011259574
0.00011255007
0.00011254249
0.00011257515
0.00011264931
0.00011276571
0.00011292454
0.0001131252
0.00011298453
0.00011272908
0.00011249239
0.00011227887
0.0001120924
0.00011193628
0.00011181329
0.00011172551
0.00011167443
0.00011166091
0.00011168515
0.00011174677
0.00011184485
0.00011197808
0.00011214455
0.00011234213
0.00011256836
0.00011282059
0.00011309605
0.00011339183
0.00011370517
0.00011403313
0.00011437299
0.00011472212
0.00011507803
0.00011543834
0.00011580103
0.000116164
0.00011652551
0.00011688396
0.00011723792
0.0001175861
0.0001179275
0.00011826106
0.00011858597
0.00011890152
0.0001192071
0.00011950213
0.00011978627
0.00012005901
0.00012032003
0.00012056902
0.00012080569
0.00012102977
0.00012123105
0.00012142985
0.00012158761
0.00011610825
0.0001161164
0.00011600521
0.0001158796
0.00011573901
0.000115586
0.00011542037
0.00011524502
0.00011506011
0.00011486884
0.00011467161
0.00011447183
0.00011427008
0.00011406987
0.00011387188
0.00011367964
0.00011349382
0.00011331788
0.00011315239
0.00011300068
0.00011286312
0.00011274281
0.00011263988
0.00011255709
0.00011249422
0.00011245366
0.00011243475
0.00011243941
0.00011246645
0.00011251724
0.00011259
0.00011268513
0.00011280161
0.00011293701
0.00011309106
0.00011326023
0.0001132289
0.00011310338
0.00011300224
0.00011292575
0.00011287676
0.00011285496
0.00011286191
0.00011289741
0.00011296125
0.00011305265
0.0001131703
0.00011331249
0.0001134768
0.00011366041
0.00011386001
0.00011407184
0.00011429169
0.00011451518
0.00011473746
0.00011495365
0.00011495012
0.00011475638
0.00011454341
0.00011431581
0.00011407833
0.00011383619
0.00011359477
0.00011335957
0.00011313604
0.00011292948
0.00011274513
0.0001125877
0.00011246165
0.00011237093
0.00011231894
0.00011230848
0.00011234182
0.00011242032
0.00011254473
0.00011271516
0.00011293095
0.00011281944
0.00011253411
0.00011226878
0.00011202831
0.00011181695
0.00011163832
0.00011149543
0.00011139056
0.00011132532
0.00011130059
0.00011131656
0.00011137278
0.00011146818
0.0001116013
0.00011177001
0.00011197194
0.00011220441
0.00011246451
0.00011274921
0.00011305537
0.00011338
0.00011371995
0.00011407233
0.00011443433
0.00011480333
0.00011517683
0.0001155527
0.00011592879
0.00011630329
0.00011667457
0.00011704116
0.00011740177
0.00011775539
0.00011810096
0.0001184377
0.00011876491
0.000119082
0.00011938843
0.00011968388
0.00011996787
0.00012024011
0.00012050034
0.0001207483
0.00012098376
0.00012119577
0.00012140622
0.0001215756
0.00011607865
0.00011613188
0.00011601329
0.00011587921
0.00011572918
0.00011556583
0.00011538907
0.00011520192
0.00011500465
0.00011480059
0.00011459031
0.00011437733
0.0001141624
0.00011394917
0.00011373847
0.00011353398
0.00011333649
0.00011314963
0.00011297409
0.00011281332
0.00011266784
0.00011254083
0.00011243254
0.00011234584
0.0001122806
0.00011223928
0.00011222128
0.00011222859
0.00011226005
0.00011231704
0.00011239781
0.0001125027
0.00011263067
0.00011277919
0.00011294788
0.00011313309
0.00011306599
0.00011292717
0.00011281457
0.00011272869
0.0001126726
0.00011264615
0.00011265108
0.00011268729
0.00011275464
0.00011285239
0.00011297922
0.00011313333
0.00011331218
0.00011351277
0.00011373153
0.00011396438
0.00011420676
0.00011445385
0.00011470033
0.00011494082
0.00011497775
0.00011476381
0.00011452873
0.00011427754
0.0001140155
0.00011374835
0.00011348201
0.00011322247
0.00011297572
0.00011274755
0.00011254366
0.00011236918
0.00011222895
0.00011212725
0.00011206777
0.00011205351
0.00011208691
0.00011216945
0.00011230185
0.00011248421
0.00011271576
0.00011264531
0.00011232803
0.00011203219
0.00011176314
0.0001115255
0.00011132327
0.0001111597
0.00011103726
0.00011095766
0.00011092181
0.00011092988
0.0001109813
0.00011107484
0.00011120883
0.0001113809
0.00011158841
0.00011182841
0.0001120977
0.00011239296
0.0001127108
0.00011304797
0.0001134011
0.0001137671
0.00011414299
0.00011452598
0.00011491348
0.00011530325
0.00011569306
0.00011608107
0.00011646558
0.00011684514
0.00011721843
0.00011758446
0.00011794217
0.00011829081
0.00011862971
0.0001189583
0.00011927608