/*--------------------------------*- C++ -*----------------------------------*\
| =========                 |                                                 |
| \\      /  F ield         | foam-extend: Open Source CFD                    |
|  \\    /   O peration     | Version:     4.1                                |
|   \\  /    A nd           | Web:         http://www.foam-extend.org         |
|    \\/     M anipulation  |                                                 |
\*---------------------------------------------------------------------------*/
FoamFile
{
    version     2.0;
    format      ascii;
    class       volScalarField;
    location    "1";
    object      static(p)_coeff;
}
// * * * * * * * * * * * * * * * * * * * * * * * * * * * * * * * * * * * * * //

dimensions      [0 0 0 0 0 0 0];

internalField   nonuniform List<scalar> 
16796
(
-202666.08
-202681.61
-202698.46
-202715.51
-202732.65
-202749.89
-202767.24
-202784.73
-202802.38
-202820.2
-202838.2
-202856.4
-202874.79
-202893.37
-202912.13
-202931.04
-202950.08
-202969.24
-202988.48
-203007.78
-203027.09
-203046.39
-203065.65
-203084.85
-203103.97
-203123
-203141.94
-203160.8
-203179.61
-203198.39
-203217.22
-203236.15
-203255.27
-203274.69
-203294.53
-203314.92
-203336.02
-203357.98
-203380.97
-203405.17
-203430.75
-203457.89
-203486.75
-203517.49
-203550.25
-203585.14
-203622.26
-203661.67
-203703.38
-203747.39
-203793.65
-203842.05
-203892.44
-203944.63
-203998.36
-204053.34
-204109.21
-204165.56
-204221.94
-204277.84
-204332.71
-204385.96
-204436.95
-204485.04
-204529.54
-204569.74
-204604.94
-204634.44
-204657.55
-204673.59
-204681.95
-204682.03
-204673.31
-204655.34
-204627.73
-204590.21
-204542.57
-204484.74
-204416.73
-204338.67
-204250.78
-204153.41
-204047.06
-203932.3
-203809.72
-203680
-203543.93
-203402.3
-203255.97
-203105.81
-202952.71
-202797.53
-202641.15
-202484.4
-202328.07
-202172.93
-202019.67
-201868.94
-201721.34
-201577.39
-201437.55
-201302.25
-201171.83
-201046.58
-200926.75
-200812.53
-200704.07
-200601.49
-200504.85
-200414.2
-200329.56
-200250.91
-200178.22
-200111.45
-200050.51
-199995.34
-199945.82
-199901.76
-199862.97
-199829.52
-199801.71
-199777.52
-199749.48
-199713.24
-202663.02
-202681.19
-202698.38
-202715.51
-202732.66
-202749.9
-202767.24
-202784.72
-202802.36
-202820.18
-202838.19
-202856.39
-202874.79
-202893.37
-202912.14
-202931.06
-202950.12
-202969.29
-202988.54
-203007.84
-203027.16
-203046.47
-203065.73
-203084.93
-203104.04
-203123.06
-203141.98
-203160.82
-203179.59
-203198.34
-203217.12
-203236
-203255.07
-203274.43
-203294.2
-203314.52
-203335.54
-203357.42
-203380.33
-203404.45
-203429.95
-203457.02
-203485.81
-203516.5
-203549.2
-203584.06
-203621.15
-203660.54
-203702.27
-203746.31
-203792.61
-203841.08
-203891.56
-203943.86
-203997.74
-204052.88
-204108.93
-204165.5
-204222.11
-204278.26
-204333.4
-204386.94
-204438.24
-204486.64
-204531.45
-204571.97
-204607.49
-204637.31
-204660.71
-204677.04
-204685.66
-204685.98
-204677.47
-204659.66
-204632.19
-204594.75
-204547.17
-204489.35
-204421.31
-204343.19
-204255.24
-204157.8
-204051.29
-203936.26
-203813.36
-203683.3
-203546.85
-203404.84
-203258.11
-203107.54
-202954.03
-202798.46
-202641.69
-202484.57
-202327.89
-202172.41
-202018.84
-201867.83
-201719.97
-201575.79
-201435.76
-201300.28
-201169.71
-201044.34
-200924.41
-200810.12
-200701.61
-200598.99
-200502.34
-200411.7
-200327.07
-200248.46
-200175.83
-200109.13
-200048.3
-199993.26
-199943.9
-199900.06
-199861.62
-199828.66
-199801.25
-199777.61
-199754.2
-199733.56
-202662.34
-202680.08
-202697.32
-202714.46
-202731.62
-202748.85
-202766.21
-202783.71
-202801.39
-202819.27
-202837.35
-202855.64
-202874.15
-202892.85
-202911.74
-202930.8
-202950
-202969.32
-202988.71
-203008.16
-203027.61
-203047.05
-203066.43
-203085.73
-203104.93
-203124.01
-203142.97
-203161.83
-203180.6
-203199.32
-203218.04
-203236.83
-203255.79
-203275.01
-203294.62
-203314.76
-203335.58
-203357.24
-203379.93
-203403.81
-203429.08
-203455.91
-203484.48
-203514.95
-203547.46
-203582.15
-203619.1
-203658.39
-203700.04
-203744.06
-203790.4
-203838.95
-203889.57
-203942.07
-203996.2
-204051.67
-204108.1
-204165.1
-204222.2
-204278.9
-204334.63
-204388.8
-204440.76
-204489.85
-204535.36
-204576.59
-204612.81
-204643.3
-204667.36
-204684.3
-204693.48
-204694.3
-204686.21
-204668.76
-204641.54
-204604.27
-204556.75
-204498.89
-204430.71
-204352.36
-204264.07
-204166.22
-204059.23
-203943.67
-203820.17
-203689.46
-203552.31
-203409.56
-203262.07
-203110.74
-202956.46
-202800.13
-202642.61
-202484.77
-202327.4
-202171.28
-202017.11
-201865.54
-201717.17
-201572.53
-201432.09
-201296.25
-201165.36
-201039.72
-200919.55
-200805.07
-200696.4
-200593.65
-200496.9
-200406.18
-200321.49
-200242.84
-200170.17
-200103.45
-200042.61
-199987.56
-199938.2
-199894.4
-199856.08
-199823.26
-199795.73
-199772.14
-199752.18
-199740.44
-202662.39
-202679.76
-202696.89
-202713.97
-202731.07
-202748.25
-202765.57
-202783.05
-202800.73
-202818.61
-202836.72
-202855.06
-202873.62
-202892.39
-202911.36
-202930.51
-202949.81
-202969.23
-202988.73
-203008.28
-203027.83
-203047.35
-203066.81
-203086.17
-203105.41
-203124.52
-203143.49
-203162.32
-203181.04
-203199.68
-203218.31
-203236.97
-203255.77
-203274.82
-203294.23
-203314.14
-203334.72
-203356.13
-203378.55
-203402.17
-203427.18
-203453.75
-203482.08
-203512.32
-203544.64
-203579.16
-203615.99
-203655.2
-203696.83
-203740.88
-203787.31
-203836.03
-203886.89
-203939.71
-203994.24
-204050.18
-204107.17
-204164.8
-204222.6
-204280.07
-204336.64
-204391.7
-204444.59
-204494.64
-204541.15
-204583.37
-204620.58
-204652.04
-204677.03
-204694.86
-204704.85
-204706.4
-204698.95
-204682.02
-204655.21
-204618.22
-204570.84
-204512.98
-204444.67
-204366.04
-204277.33
-204178.92
-204071.25
-203954.9
-203830.51
-203698.83
-203560.65
-203416.81
-203268.2
-203115.73
-202960.31
-202802.86
-202644.25
-202485.35
-202326.98
-202169.91
-202014.86
-201862.49
-201713.39
-201568.09
-201427.06
-201290.71
-201159.39
-201033.38
-200912.92
-200798.2
-200689.34
-200586.47
-200489.63
-200398.86
-200314.18
-200235.56
-200162.96
-200096.34
-200035.62
-199980.73
-199931.57
-199888.03
-199850.06
-199817.61
-199790.36
-199767.4
-199749.8
-199741.26
-202662
-202679.08
-202696.06
-202713.04
-202730.08
-202747.23
-202764.52
-202782.01
-202799.71
-202817.64
-202835.82
-202854.25
-202872.92
-202891.82
-202910.93
-202930.24
-202949.7
-202969.28
-202988.94
-203008.65
-203028.35
-203048.01
-203067.59
-203087.05
-203106.37
-203125.52
-203144.5
-203163.32
-203181.98
-203200.53
-203219.02
-203237.51
-203256.1
-203274.9
-203294.03
-203313.63
-203333.87
-203354.92
-203376.97
-203400.21
-203424.83
-203451.04
-203479.02
-203508.94
-203540.96
-203575.24
-203611.88
-203650.96
-203692.54
-203736.62
-203783.17
-203832.1
-203883.28
-203936.52
-203991.58
-204048.15
-204105.88
-204164.35
-204223.11
-204281.61
-204339.3
-204395.55
-204449.7
-204501.04
-204548.87
-204592.42
-204630.96
-204663.71
-204689.94
-204708.93
-204720
-204722.51
-204715.89
-204699.64
-204673.35
-204636.7
-204589.48
-204531.6
-204463.07
-204384.04
-204294.76
-204195.59
-204087.01
-203969.6
-203844.03
-203711.05
-203571.47
-203426.18
-203276.07
-203122.07
-202965.13
-202806.16
-202646.08
-202485.76
-202326.04
-202167.7
-202011.46
-201857.99
-201707.89
-201561.69
-201419.87
-201282.82
-201150.89
-201024.36
-200903.46
-200788.38
-200679.24
-200576.14
-200479.14
-200388.26
-200303.51
-200224.87
-200152.28
-200085.71
-200025.09
-199970.33
-199921.34
-199878.06
-199840.45
-199808.43
-199781.72
-199759.86
-199744.3
-199737.38
-202661.87
-202678.76
-202695.56
-202712.41
-202729.35
-202746.41
-202763.65
-202781.11
-202798.8
-202816.75
-202834.97
-202853.46
-202872.21
-202891.21
-202910.45
-202929.89
-202949.49
-202969.22
-202989.04
-203008.89
-203028.73
-203048.52
-203068.21
-203087.76
-203107.14
-203126.32
-203145.3
-203164.07
-203182.66
-203201.08
-203219.4
-203237.69
-203256.03
-203274.53
-203293.33
-203312.57
-203332.41
-203353.04
-203374.66
-203397.46
-203421.65
-203447.43
-203475
-203504.55
-203536.25
-203570.25
-203606.68
-203645.64
-203687.18
-203731.32
-203778.03
-203827.24
-203878.83
-203932.6
-203988.31
-204045.68
-204104.34
-204163.87
-204223.8
-204283.61
-204342.69
-204400.43
-204456.14
-204509.1
-204558.58
-204603.8
-204643.99
-204678.37
-204706.16
-204726.62
-204739.05
-204742.78
-204737.22
-204721.84
-204696.22
-204660.02
-204613.02
-204555.13
-204486.35
-204406.84
-204316.84
-204216.73
-204107.01
-203988.28
-203861.21
-203726.61
-203585.29
-203438.18
-203286.19
-203130.29
-202971.44
-202810.59
-202648.68
-202486.59
-202325.19
-202165.27
-202007.56
-201852.74
-201701.42
-201554.12
-201411.32
-201273.42
-201140.76
-201013.61
-200892.2
-200776.7
-200667.24
-200563.89
-200466.72
-200375.73
-200290.93
-200212.28
-200139.74
-200073.24
-200012.72
-199958.11
-199909.3
-199866.25
-199828.93
-199797.22
-199770.96
-199749.99
-199735.72
-199729.65
-202661.51
-202678.2
-202694.82
-202711.53
-202728.36
-202745.35
-202762.55
-202779.98
-202797.68
-202815.67
-202833.96
-202852.54
-202871.41
-202890.56
-202909.95
-202929.56
-202949.35
-202969.27
-202989.28
-203009.32
-203029.34
-203049.29
-203069.12
-203088.78
-203108.23
-203127.46
-203146.43
-203165.16
-203183.64
-203201.92
-203220.03
-203238.06
-203256.09
-203274.24
-203292.63
-203311.42
-203330.77
-203350.89
-203371.97
-203394.23
-203417.88
-203443.13
-203470.2
-203499.28
-203530.57
-203564.22
-203600.38
-203639.17
-203680.64
-203724.84
-203771.74
-203821.28
-203873.35
-203927.75
-203984.26
-204042.58
-204102.35
-204163.15
-204224.5
-204285.86
-204346.62
-204406.15
-204463.74
-204518.66
-204570.13
-204617.37
-204659.55
-204695.88
-204725.56
-204747.8
-204761.86
-204767.06
-204762.77
-204748.45
-204723.64
-204687.99
-204641.25
-204583.34
-204514.25
-204434.15
-204343.27
-204242.03
-204130.93
-204010.58
-203881.71
-203745.13
-203601.7
-203452.37
-203298.1
-203139.88
-202978.72
-202815.58
-202651.44
-202487.22
-202323.78
-202161.94
-202002.46
-201846
-201693.19
-201544.56
-201400.58
-201261.65
-201128.1
-201000.2
-200878.17
-200762.17
-200652.31
-200548.66
-200451.28
-200360.17
-200275.3
-200196.65
-200124.17
-200057.78
-199997.42
-199943
-199894.44
-199851.7
-199814.73
-199783.42
-199757.67
-199737.47
-199724.1
-199718.51
-202661.29
-202677.8
-202694.22
-202710.76
-202727.46
-202744.34
-202761.46
-202778.85
-202796.54
-202814.55
-202832.89
-202851.55
-202870.54
-202889.82
-202909.37
-202929.16
-202949.14
-202969.26
-202989.47
-203009.71
-203029.92
-203050.03
-203070.01
-203089.78
-203109.32
-203128.58
-203147.55
-203166.22
-203184.59
-203202.69
-203220.58
-203238.31
-203255.99
-203273.72
-203291.65
-203309.92
-203328.72
-203348.25
-203368.72
-203390.36
-203413.38
-203438.02
-203464.51
-203493.05
-203523.86
-203557.12
-203592.98
-203631.56
-203672.97
-203717.23
-203764.35
-203814.28
-203866.9
-203922.05
-203979.49
-204038.92
-204100
-204162.29
-204225.3
-204288.49
-204351.23
-204412.87
-204472.67
-204529.89
-204583.71
-204633.32
-204677.87
-204716.52
-204748.42
-204772.76
-204788.77
-204795.72
-204792.95
-204779.89
-204756.04
-204721.04
-204674.64
-204616.71
-204547.27
-204466.47
-204374.58
-204272
-204159.26
-204037.02
-203906.02
-203767.1
-203621.18
-203469.24
-203312.28
-203151.34
-202987.45
-202821.63
-202654.87
-202488.14
-202322.31
-202158.23
-201996.66
-201838.3
-201683.77
-201533.59
-201388.24
-201248.12
-201113.55
-200984.79
-200862.04
-200745.46
-200635.14
-200531.16
-200433.54
-200342.27
-200257.33
-200178.68
-200106.24
-200039.95
-199979.73
-199925.5
-199877.18
-199834.71
-199798.06
-199767.12
-199741.85
-199722.27
-199709.51
-199704.23
-202660.95
-202677.25
-202693.46
-202709.83
-202726.38
-202743.15
-202760.2
-202777.55
-202795.24
-202813.28
-202831.69
-202850.46
-202869.58
-202889.02
-202908.77
-202928.77
-202948.97
-202969.32
-202989.77
-203010.23
-203030.66
-203050.97
-203071.12
-203091.03
-203110.66
-203129.97
-203148.93
-203167.53
-203185.77
-203203.67
-203221.29
-203238.68
-203255.95
-203273.21
-203290.59
-203308.26
-203326.41
-203345.25
-203365.01
-203385.91
-203408.2
-203432.13
-203457.93
-203485.84
-203516.08
-203548.86
-203584.34
-203622.68
-203663.99
-203708.31
-203755.67
-203806.03
-203859.28
-203915.26
-203973.76
-204034.47
-204097.04
-204161.03
-204225.96
-204291.25
-204356.27
-204420.34
-204482.7
-204542.57
-204599.12
-204651.47
-204698.76
-204740.08
-204774.57
-204801.36
-204819.63
-204828.61
-204827.61
-204816.01
-204793.29
-204759.06
-204713.04
-204655.1
-204585.26
-204503.66
-204410.58
-204306.45
-204191.82
-204067.37
-203933.89
-203792.26
-203643.45
-203488.47
-203328.39
-203164.28
-202997.23
-202828.3
-202658.52
-202488.87
-202320.29
-202153.63
-201989.67
-201829.12
-201672.6
-201520.65
-201373.75
-201232.27
-201096.53
-200966.8
-200843.25
-200726.02
-200615.21
-200510.86
-200412.99
-200321.57
-200236.57
-200157.93
-200085.57
-200019.41
-199959.38
-199905.37
-199857.32
-199815.15
-199778.84
-199748.27
-199723.44
-199704.36
-199692.05
-199686.98
-202660.66
-202676.75
-202692.73
-202708.9
-202725.28
-202741.92
-202758.86
-202776.16
-202793.83
-202811.9
-202830.38
-202849.25
-202868.51
-202888.14
-202908.09
-202928.31
-202948.76
-202969.37
-202990.07
-203010.79
-203031.46
-203051.99
-203072.33
-203092.39
-203112.13
-203131.5
-203150.45
-203168.98
-203187.08
-203204.76
-203222.08
-203239.1
-203255.91
-203272.63
-203289.4
-203306.4
-203323.81
-203341.88
-203360.82
-203380.89
-203402.35
-203425.46
-203450.47
-203477.65
-203507.24
-203539.47
-203574.52
-203612.57
-203653.75
-203698.12
-203745.74
-203796.57
-203850.52
-203907.45
-203967.13
-204029.28
-204093.54
-204159.47
-204226.56
-204294.24
-204361.85
-204428.69
-204493.97
-204556.87
-204616.52
-204672.02
-204722.44
-204766.84
-204804.29
-204833.89
-204854.76
-204866.09
-204867.12
-204857.22
-204835.82
-204802.48
-204756.91
-204698.98
-204628.68
-204546.17
-204451.74
-204345.84
-204229.04
-204102.06
-203965.74
-203821
-203668.87
-203510.42
-203346.76
-203179.04
-203008.37
-202835.89
-202662.66
-202489.71
-202317.99
-202148.39
-201981.72
-201818.69
-201659.94
-201506
-201357.34
-201214.34
-201077.31
-200946.49
-200822.05
-200704.11
-200592.75
-200488
-200389.85
-200298.26
-200213.2
-200134.57
-200062.3
-199996.29
-199936.44
-199882.68
-199834.9
-199793.04
-199757.06
-199726.85
-199702.42
-199683.76
-199671.79
-199666.87
-202660.29
-202676.15
-202691.88
-202707.83
-202724.02
-202740.52
-202757.36
-202774.6
-202792.26
-202810.36
-202828.91
-202847.91
-202867.34
-202887.16
-202907.34
-202927.83
-202948.56
-202969.46
-202990.45
-203011.46
-203032.4
-203053.19
-203073.74
-203093.99
-203113.85
-203133.29
-203152.24
-203170.69
-203188.63
-203206.07
-203223.06
-203239.65
-203255.94
-203272.06
-203288.14
-203304.37
-203320.96
-203338.14
-203356.16
-203375.28
-203395.78
-203417.95
-203442.06
-203468.4
-203497.24
-203528.81
-203563.35
-203601.05
-203642.05
-203686.46
-203734.34
-203785.67
-203840.39
-203898.35
-203959.35
-204023.1
-204089.24
-204157.33
-204226.86
-204297.22
-204367.75
-204437.7
-204506.27
-204572.59
-204635.76
-204694.82
-204748.78
-204796.67
-204837.49
-204870.28
-204894.11
-204908.11
-204911.47
-204903.5
-204883.61
-204851.3
-204806.27
-204748.35
-204677.55
-204594.02
-204498.06
-204390.14
-204270.88
-204141.04
-204001.5
-203853.24
-203697.34
-203534.94
-203367.23
-203195.4
-203020.66
-202844.15
-202667.03
-202490.35
-202315.11
-202142.22
-201972.52
-201806.72
-201645.47
-201489.32
-201338.72
-201194.05
-201055.6
-200923.59
-200798.18
-200679.48
-200567.54
-200462.36
-200363.93
-200272.19
-200187.08
-200108.49
-200036.33
-199970.49
-199910.88
-199857.37
-199809.89
-199768.36
-199732.71
-199702.86
-199678.79
-199660.49
-199648.78
-199643.99
-202659.92
-202675.54
-202690.99
-202706.69
-202722.68
-202739
-202755.73
-202772.89
-202790.53
-202808.67
-202827.3
-202846.44
-202866.04
-202886.09
-202906.52
-202927.3
-202948.33
-202969.56
-202990.88
-203012.22
-203033.47
-203054.55
-203075.35
-203095.8
-203115.82
-203135.33
-203154.3
-203172.67
-203190.44
-203207.63
-203224.25
-203240.38
-203256.1
-203271.55
-203286.87
-203302.25
-203317.91
-203334.1
-203351.08
-203369.13
-203388.56
-203409.67
-203432.75
-203458.13
-203486.1
-203516.93
-203550.87
-203588.14
-203628.92
-203673.34
-203721.48
-203773.34
-203828.88
-203887.97
-203950.42
-204015.93
-204084.15
-204154.64
-204226.87
-204300.22
-204374
-204447.43
-204519.68
-204589.84
-204656.95
-204720.01
-204777.97
-204829.78
-204874.41
-204910.8
-204937.98
-204955
-204961.01
-204955.24
-204937.06
-204905.93
-204861.52
-204803.64
-204732.29
-204647.61
-204549.94
-204439.77
-204317.74
-204184.67
-204041.49
-203889.25
-203729.11
-203562.28
-203390.01
-203213.57
-203034.23
-202853.23
-202671.74
-202490.9
-202311.72
-202135.17
-201962.09
-201793.22
-201629.22
-201470.63
-201317.9
-201171.4
-201031.4
-200898.11
-200771.66
-200652.14
-200539.58
-200433.97
-200335.25
-200243.37
-200158.21
-200079.68
-200007.66
-199942.03
-199882.66
-199829.45
-199782.29
-199741.09
-199705.79
-199676.28
-199652.57
-199634.57
-199623.1
-199618.4
-202659.49
-202674.83
-202689.98
-202705.41
-202721.17
-202737.31
-202753.9
-202770.99
-202788.61
-202806.78
-202825.51
-202844.79
-202864.6
-202884.89
-202905.62
-202926.71
-202948.1
-202969.69
-202991.39
-203013.09
-203034.7
-203056.1
-203077.19
-203097.88
-203118.07
-203137.69
-203156.68
-203174.98
-203192.58
-203209.48
-203225.71
-203241.33
-203256.43
-203271.14
-203285.61
-203300.04
-203314.67
-203329.74
-203345.56
-203362.41
-203380.63
-203400.53
-203422.45
-203446.74
-203473.71
-203503.67
-203536.9
-203573.67
-203614.16
-203658.55
-203706.94
-203759.35
-203815.77
-203876.08
-203940.09
-204007.53
-204078.04
-204151.16
-204226.37
-204303.02
-204380.4
-204457.7
-204534.04
-204608.47
-204679.98
-204747.49
-204809.92
-204866.13
-204915.02
-204955.46
-204986.4
-205006.83
-205015.82
-205012.54
-204996.3
-204966.54
-204922.84
-204865.02
-204793.07
-204707.13
-204607.55
-204494.85
-204369.73
-204233.04
-204085.79
-203929.11
-203764.22
-203592.41
-203415.04
-203233.45
-203048.99
-202862.97
-202676.64
-202491.17
-202307.64
-202127.04
-201950.24
-201778.01
-201611
-201449.75
-201294.7
-201146.22
-201004.56
-200869.89
-200742.35
-200621.97
-200508.78
-200402.72
-200303.73
-200211.71
-200126.55
-200048.11
-199976.26
-199910.87
-199851.79
-199798.9
-199752.08
-199711.24
-199676.29
-199647.14
-199623.75
-199606.04
-199594.77
-199590.16
-202659.04
-202674.07
-202688.88
-202704.01
-202719.51
-202735.44
-202751.88
-202768.88
-202786.47
-202804.68
-202823.52
-202842.96
-202862.99
-202883.57
-202904.62
-202926.08
-202947.85
-202969.86
-202991.98
-203014.1
-203036.1
-203057.88
-203079.31
-203100.27
-203120.67
-203140.42
-203159.44
-203177.68
-203195.1
-203211.71
-203227.52
-203242.59
-203257.01
-203270.91
-203284.45
-203297.84
-203311.31
-203325.16
-203339.68
-203355.19
-203372.04
-203390.59
-203411.2
-203434.24
-203460.07
-203489.04
-203521.46
-203557.62
-203597.75
-203642.06
-203690.67
-203743.65
-203800.98
-203862.59
-203928.29
-203997.82
-204070.81
-204146.83
-204225.3
-204305.58
-204386.93
-204468.49
-204549.36
-204628.52
-204704.9
-204777.38
-204844.77
-204905.89
-204959.53
-205004.5
-205039.65
-205063.9
-205076.24
-205075.77
-205061.73
-205033.5
-204990.63
-204932.91
-204860.3
-204772.98
-204671.28
-204555.78
-204427.2
-204286.49
-204134.7
-203973.05
-203802.86
-203625.52
-203442.46
-203255.14
-203065
-202873.41
-202681.71
-202491.13
-202302.81
-202117.76
-201936.89
-201760.98
-201590.69
-201426.56
-201269.02
-201118.41
-200974.97
-200838.86
-200710.15
-200588.89
-200475.05
-200368.55
-200269.3
-200177.18
-200092.04
-200013.73
-199942.1
-199876.98
-199818.23
-199765.7
-199719.26
-199678.8
-199644.23
-199615.43
-199592.37
-199574.93
-199563.85
-199559.32
-202658.52
-202673.22
-202687.65
-202702.45
-202717.65
-202733.36
-202749.63
-202766.53
-202784.09
-202802.35
-202821.3
-202840.93
-202861.21
-202882.09
-202903.5
-202925.37
-202947.59
-202970.05
-202992.65
-203015.24
-203037.7
-203059.9
-203081.71
-203103
-203123.65
-203143.56
-203162.64
-203180.82
-203198.07
-203214.36
-203229.73
-203244.2
-203257.89
-203270.91
-203283.43
-203295.66
-203307.87
-203320.35
-203333.42
-203347.44
-203362.76
-203379.79
-203398.92
-203420.56
-203445.1
-203472.92
-203504.39
-203539.82
-203579.51
-203623.66
-203672.47
-203726
-203784.3
-203847.28
-203914.78
-203986.56
-204062.26
-204141.41
-204223.44
-204307.7
-204393.39
-204479.65
-204565.49
-204649.87
-204731.64
-204809.6
-204882.51
-204949.07
-205008
-205058.01
-205097.87
-205126.39
-205142.48
-205145.17
-205133.61
-205107.12
-205065.21
-205007.62
-204934.32
-204845.46
-204741.44
-204622.83
-204490.43
-204345.23
-204188.39
-204021.23
-203845.15
-203661.66
-203472.3
-203278.63
-203082.2
-202884.47
-202686.85
-202490.66
-202297.08
-202107.17
-201921.87
-201741.96
-201568.13
-201400.9
-201240.69
-201087.82
-200942.5
-200804.86
-200674.96
-200552.8
-200438.3
-200331.38
-200231.9
-200139.71
-200054.65
-199976.52
-199905.15
-199840.36
-199781.99
-199729.85
-199683.83
-199643.78
-199609.61
-199581.18
-199558.45
-199541.27
-199530.38
-199525.92
-202657.96
-202672.28
-202686.29
-202700.71
-202715.6
-202731.04
-202747.13
-202763.92
-202781.45
-202799.75
-202818.83
-202838.67
-202859.23
-202880.46
-202902.28
-202924.6
-202947.31
-202970.3
-202993.42
-203016.55
-203039.53
-203062.22
-203084.46
-203106.12
-203127.07
-203147.17
-203166.34
-203184.49
-203201.57
-203217.55
-203232.44
-203246.28
-203259.17
-203271.23
-203282.64
-203293.61
-203304.42
-203315.4
-203326.87
-203339.22
-203352.85
-203368.18
-203385.65
-203405.7
-203428.76
-203455.28
-203485.64
-203520.22
-203559.34
-203603.27
-203652.22
-203706.3
-203765.58
-203830
-203899.43
-203973.62
-204052.22
-204134.76
-204220.67
-204309.25
-204399.69
-204491.08
-204582.39
-204672.5
-204760.21
-204844.23
-204923.22
-204995.81
-205060.61
-205116.23
-205161.32
-205194.6
-205214.89
-205221.11
-205212.34
-205187.83
-205147.02
-205089.61
-205015.56
-204925.05
-204818.45
-204696.41
-204559.77
-204409.61
-204247.18
-204073.9
-203891.29
-203700.99
-203504.65
-203303.97
-203100.59
-202896.1
-202691.99
-202489.65
-202290.32
-202095.12
-201905.01
-201720.79
-201543.15
-201372.59
-201209.55
-201054.28
-200907
-200767.78
-200636.66
-200513.58
-200398.45
-200291.13
-200191.46
-200099.26
-200014.32
-199936.43
-199865.38
-199800.98
-199743.03
-199691.35
-199645.78
-199606.18
-199572.44
-199544.39
-199522
-199505.1
-199494.38
-199490
-202657.34
-202671.23
-202684.76
-202698.77
-202713.3
-202728.46
-202744.33
-202761
-202778.49
-202796.85
-202816.07
-202836.14
-202857.02
-202878.63
-202900.91
-202923.74
-202947.01
-202970.58
-202994.31
-203018.03
-203041.6
-203064.84
-203087.59
-203109.68
-203130.97
-203151.33
-203170.62
-203188.76
-203205.67
-203221.33
-203235.72
-203248.89
-203260.93
-203271.96
-203282.15
-203291.74
-203301.02
-203310.34
-203320.05
-203330.55
-203342.29
-203355.72
-203371.32
-203389.58
-203410.98
-203436
-203465.09
-203498.67
-203537.1
-203580.7
-203629.72
-203684.33
-203744.6
-203810.53
-203881.98
-203958.75
-204040.46
-204126.67
-204216.76
-204310.04
-204405.65
-204502.64
-204599.93
-204696.32
-204790.55
-204881.23
-204966.93
-205046.18
-205117.47
-205179.3
-205230.21
-205268.8
-205293.77
-205303.94
-205298.31
-205276.03
-205236.48
-205179.32
-205104.49
-205012.16
-204902.75
-204776.92
-204635.61
-204479.96
-204311.34
-204131.29
-203941.46
-203743.62
-203539.59
-203331.18
-203120.16
-202908.24
-202697.01
-202487.95
-202282.37
-202081.43
-201886.12
-201697.27
-201515.54
-201341.46
-201175.41
-201017.64
-200868.31
-200727.47
-200595.1
-200471.12
-200355.38
-200247.71
-200147.91
-200055.75
-199971
-199893.42
-199822.77
-199758.82
-199701.36
-199650.19
-199605.13
-199566.02
-199532.73
-199505.1
-199483.07
-199466.44
-199455.91
-199451.61
-202656.65
-202670.06
-202683.07
-202696.61
-202710.74
-202725.58
-202741.22
-202757.75
-202775.2
-202793.62
-202813.01
-202833.33
-202854.56
-202876.61
-202899.39
-202922.79
-202946.68
-202970.91
-202995.32
-203019.72
-203043.95
-203067.82
-203091.15
-203113.74
-203135.45
-203156.1
-203175.56
-203193.72
-203210.49
-203225.82
-203239.7
-203252.16
-203263.28
-203273.2
-203282.07
-203290.16
-203297.77
-203305.26
-203313.03
-203321.49
-203331.13
-203342.45
-203355.96
-203372.21
-203391.72
-203415.04
-203442.66
-203475.05
-203512.64
-203555.8
-203604.81
-203659.9
-203721.17
-203788.65
-203862.24
-203941.73
-204026.78
-204116.91
-204211.53
-204309.88
-204411.11
-204514.19
-204618
-204721.27
-204822.63
-204920.63
-205013.73
-205100.32
-205178.78
-205247.49
-205304.85
-205349.33
-205379.51
-205394.1
-205391.99
-205372.24
-205334.14
-205277.3
-205201.64
-205107.34
-204994.84
-204864.86
-204718.39
-204556.69
-204381.23
-204193.68
-203995.88
-203789.73
-203577.2
-203360.27
-203140.86
-202920.8
-202701.8
-202485.42
-202273.05
-202065.91
-201865
-201671.18
-201485.11
-201307.29
-201138.07
-200977.69
-200826.25
-200683.76
-200550.15
-200425.29
-200308.99
-200201.03
-200101.17
-200009.13
-199924.65
-199847.46
-199777.28
-199713.86
-199656.97
-199606.37
-199561.88
-199523.31
-199490.52
-199463.33
-199441.67
-199425.35
-199415.01
-199410.78
-202655.88
-202668.75
-202681.18
-202694.2
-202707.88
-202722.36
-202737.75
-202754.11
-202771.53
-202790.02
-202809.58
-202830.2
-202851.81
-202874.35
-202897.7
-202921.74
-202946.33
-202971.29
-202996.46
-203021.63
-203046.62
-203071.2
-203095.18
-203118.36
-203140.55
-203161.56
-203181.24
-203199.45
-203216.1
-203231.11
-203244.47
-203256.18
-203266.33
-203275.05
-203282.51
-203288.96
-203294.75
-203300.25
-203305.87
-203312.08
-203319.39
-203328.35
-203339.53
-203353.52
-203370.91
-203392.28
-203418.21
-203449.22
-203485.8
-203528.37
-203577.28
-203632.78
-203695.04
-203764.11
-203839.93
-203922.3
-204010.9
-204105.24
-204204.71
-204308.55
-204415.86
-204525.56
-204636.46
-204747.23
-204856.41
-204962.43
-205063.64
-205158.31
-205244.69
-205321
-205385.5
-205436.53
-205472.52
-205492.04
-205493.87
-205476.97
-205440.54
-205384.11
-205307.6
-205211.17
-205095.3
-204960.74
-204808.59
-204640.21
-204457.2
-204261.39
-204054.78
-203839.46
-203617.58
-203391.28
-203162.66
-202933.69
-202706.2
-202481.87
-202262.15
-202048.31
-201841.4
-201642.28
-201451.6
-201269.84
-201097.32
-200934.24
-200780.64
-200636.49
-200501.66
-200375.96
-200259.17
-200151
-200051.15
-199959.33
-199875.22
-199798.51
-199728.89
-199666.1
-199609.85
-199559.9
-199516.03
-199478.06
-199445.82
-199419.11
-199397.86
-199381.85
-199371.72
-199367.57
-202655.03
-202667.3
-202679.07
-202691.51
-202704.7
-202718.78
-202733.87
-202750.07
-202767.43
-202786
-202805.77
-202826.7
-202848.76
-202871.83
-202895.82
-202920.58
-202945.94
-202971.73
-202997.75
-203023.79
-203049.62
-203075.02
-203099.76
-203123.61
-203146.36
-203167.81
-203187.77
-203206.08
-203222.64
-203237.34
-203250.16
-203261.1
-203270.23
-203277.66
-203283.59
-203288.28
-203292.08
-203295.39
-203298.66
-203302.39
-203307.13
-203313.47
-203322.04
-203333.5
-203348.48
-203367.66
-203391.65
-203421.06
-203456.43
-203498.24
-203546.92
-203602.76
-203665.97
-203736.66
-203814.79
-203900.19
-203992.55
-204091.39
-204196.07
-204305.82
-204419.69
-204536.56
-204655.17
-204774.11
-204891.83
-205006.63
-205116.74
-205220.3
-205315.39
-205400.1
-205472.51
-205530.81
-205573.25
-205598.28
-205604.53
-205590.85
-205556.33
-205500.43
-205423.02
-205324.3
-205204.74
-205065.17
-204906.77
-204731.02
-204539.68
-204334.75
-204118.42
-203892.99
-203660.81
-203424.23
-203185.51
-202946.8
-202710.07
-202477.1
-202249.44
-202028.39
-201815.06
-201610.3
-201414.74
-201228.86
-201052.92
-200887.05
-200731.27
-200585.47
-200449.46
-200323
-200205.79
-200097.5
-199997.78
-199906.29
-199822.65
-199746.53
-199677.59
-199615.51
-199559.99
-199510.78
-199467.62
-199430.31
-199398.66
-199372.48
-199351.66
-199335.99
-199326.08
-199322.03
-202654.09
-202665.68
-202676.71
-202688.51
-202701.13
-202714.77
-202729.54
-202745.55
-202762.86
-202781.51
-202801.51
-202822.81
-202845.35
-202869.03
-202893.72
-202919.28
-202945.52
-202972.23
-202999.21
-203026.22
-203053.01
-203079.34
-203104.93
-203129.56
-203152.97
-203174.93
-203195.24
-203213.72
-203230.22
-203244.64
-203256.92
-203267.05
-203275.1
-203281.17
-203285.45
-203288.23
-203289.87
-203290.8
-203291.49
-203292.48
-203294.38
-203297.82
-203303.49
-203312.11
-203324.4
-203341.08
-203362.85
-203390.4
-203424.33
-203465.2
-203513.49
-203569.56
-203633.69
-203706.01
-203786.53
-203875.1
-203971.45
-204075.06
-204185.32
-204301.42
-204422.36
-204546.99
-204673.97
-204801.8
-204928.81
-205053.22
-205173.09
-205286.41
-205391.1
-205485.07
-205566.24
-205632.58
-205682.21
-205713.38
-205724.58
-205714.53
-205682.21
-205626.96
-205548.64
-205447.45
-205323.87
-205178.82
-205013.54
-204829.67
-204629.13
-204414.14
-204187.09
-203950.51
-203707
-203459.11
-203209.33
-202959.99
-202713.2
-202470.87
-202234.63
-202005.87
-201785.68
-201574.94
-201374.26
-201184.07
-201004.59
-200835.89
-200677.92
-200530.5
-200393.38
-200266.24
-200148.72
-200040.44
-199940.98
-199849.93
-199766.9
-199691.5
-199623.34
-199562.09
-199507.41
-199459.02
-199416.64
-199380.06
-199349.07
-199323.47
-199303.13
-199287.82
-199278.15
-199274.19
-202653.06
-202663.87
-202674.09
-202685.15
-202697.16
-202710.3
-202724.71
-202740.5
-202757.76
-202776.52
-202796.76
-202818.47
-202841.55
-202865.91
-202891.39
-202917.84
-202945.05
-202972.8
-203000.86
-203028.95
-203056.83
-203084.19
-203110.77
-203136.29
-203160.46
-203183.04
-203203.79
-203222.5
-203239
-203253.16
-203264.9
-203274.2
-203281.11
-203285.74
-203288.27
-203288.98
-203288.28
-203286.61
-203284.47
-203282.46
-203281.22
-203281.44
-203283.89
-203289.34
-203298.59
-203312.45
-203331.7
-203357.09
-203389.32
-203429.03
-203476.75
-203532.93
-203597.9
-203671.85
-203754.82
-203846.71
-203947.25
-204055.94
-204172.15
-204295.05
-204423.61
-204556.62
-204692.66
-204830.14
-204967.3
-205102.19
-205232.74
-205356.78
-205472.04
-205576.23
-205667.07
-205742.34
-205799.95
-205837.98
-205854.73
-205848.77
-205818.96