/*--------------------------------*- C++ -*----------------------------------*\
| =========                 |                                                 |
| \\      /  F ield         | foam-extend: Open Source CFD                    |
|  \\    /   O peration     | Version:     4.1                                |
|   \\  /    A nd           | Web:         http://www.foam-extend.org         |
|    \\/     M anipulation  |                                                 |
\*---------------------------------------------------------------------------*/
FoamFile
{
    version     2.0;
    format      ascii;
    class       volScalarField;
    location    "1.4";
    object      p;
}
// * * * * * * * * * * * * * * * * * * * * * * * * * * * * * * * * * * * * * //

dimensions      [0 2 -2 0 0 0 0];

internalField   nonuniform List<scalar> 
16796
(
-0.0016807855
-4.1820314e-05
-0.0017690819
-0.0012440198
-0.0022433107
-0.002233668
-0.0029191738
-0.0031588077
-0.00372165
-0.0040946763
-0.0046254063
-0.005083954
-0.005627906
-0.006154986
-0.0067372851
-0.0073300308
-0.0079668794
-0.0086289754
-0.0093327274
-0.010070967
-0.010852376
-0.011675055
-0.012544223
-0.013460338
-0.014427038
-0.015445797
-0.016519477
-0.017649921
-0.018839513
-0.020090121
-0.021403699
-0.022781921
-0.024226262
-0.02573796
-0.027317917
-0.028966715
-0.030684504
-0.032470994
-0.034325363
-0.03624621
-0.038231509
-0.040278487
-0.042383662
-0.044542663
-0.046750285
-0.049000344
-0.051285705
-0.053598192
-0.05592859
-0.05826662
-0.060600944
-0.062919172
-0.065207905
-0.067452784
-0.069638553
-0.071749166
-0.073767891
-0.075677445
-0.077460153
-0.079098126
-0.080573438
-0.081868354
-0.082965532
-0.08384827
-0.08450072
-0.084908153
-0.08505715
-0.08493589
-0.084534261
-0.083844216
-0.082859698
-0.08157711
-0.079995234
-0.07811517
-0.075940642
-0.073477803
-0.070735346
-0.067724333
-0.064458159
-0.06095235
-0.057224423
-0.053293634
-0.049180771
-0.044907841
-0.040497839
-0.035974379
-0.031361471
-0.026683122
-0.021963151
-0.017224788
-0.012490536
-0.0077818286
-0.0031189365
0.001479297
0.0059954908
0.010413901
0.014720398
0.018902561
0.022949591
0.026852342
0.030603196
0.034196025
0.037626061
0.040889798
0.043984873
0.046909914
0.049664489
0.05224883
0.054663979
0.05691122
0.058992712
0.060910162
0.062666741
0.064263701
0.065705675
0.06699184
0.068130136
0.069113937
0.069959919
0.070646277
0.0712132
0.071599269
0.071907538
0.0719749
-0.0016785192
-4.1148504e-05
-0.0017660406
-0.0012412521
-0.0022390477
-0.0022290857
-0.0029134677
-0.0031525017
-0.0037143717
-0.0040866548
-0.004616464
-0.0050741861
-0.0056172229
-0.0061434223
-0.0067247918
-0.0073166158
-0.0079525138
-0.0086136573
-0.0093164396
-0.010053706
-0.010834136
-0.011655838
-0.012524032
-0.013439184
-0.01440494
-0.015422781
-0.016495578
-0.017625184
-0.018813997
-0.020063896
-0.021376852
-0.022754554
-0.024198495
-0.025709932
-0.027289789
-0.02893867
-0.030656748
-0.032443757
-0.034298902
-0.036220807
-0.038207471
-0.040256147
-0.042363379
-0.044524816
-0.046735277
-0.048988595
-0.051277649
-0.053594271
-0.055929254
-0.058272315
-0.060612107
-0.062936226
-0.065231248
-0.067482779
-0.069675525
-0.071793387
-0.073819575
-0.075736737
-0.077527126
-0.079172766
-0.080655647
-0.081957941
-0.08306221
-0.083951657
-0.084610337
-0.08502343
-0.085177426
-0.085060425
-0.084662236
-0.083974757
-0.082991856
-0.081709961
-0.080127907
-0.078246764
-0.07607026
-0.073604551
-0.070858344
-0.06784273
-0.064571136
-0.061059138
-0.05732431
-0.053385973
-0.049264996
-0.044983469
-0.040564484
-0.036031752
-0.031409391
-0.026721512
-0.021992039
-0.017244304
-0.012500908
-0.0077833732
-0.00311205
0.0014941513
0.0060177916
0.010443085
0.01475587
0.018943709
0.022995795
0.02690299
0.030657688
0.034253785
0.037686544
0.040952493
0.044049312
0.046975672
0.049731186
0.052316131
0.054731594
0.056978906
0.059060267
0.060977427
0.062733593
0.064330055
0.065771475
0.067057064
0.068194782
0.069178035
0.070023506
0.070709428
0.071275971
0.071661777
0.071969827
0.072037149
-0.0016741202
-4.01474e-05
-0.0017602203
-0.0012361214
-0.0022308807
-0.0022203663
-0.0029024961
-0.0031403912
-0.0037003377
-0.0040711879
-0.0045991931
-0.0050553188
-0.0055965759
-0.0061210751
-0.0067006479
-0.0072906994
-0.0079247709
-0.0085840918
-0.0092850232
-0.010020441
-0.010799015
-0.011618873
-0.012485239
-0.013398595
-0.014362598
-0.015378747
-0.016449933
-0.017578029
-0.018765456
-0.02001412
-0.021326021
-0.022702881
-0.024146227
-0.025657355
-0.027237228
-0.028886493
-0.030605369
-0.032393637
-0.034250549
-0.036174779
-0.038164375
-0.040216639
-0.042328159
-0.044494629
-0.046710905
-0.048970855
-0.051267382
-0.053592337
-0.055936517
-0.058289635
-0.060640325
-0.062976149
-0.065283635
-0.067548321
-0.06975483
-0.071886964
-0.073927811
-0.075859891
-0.077665304
-0.079325918
-0.080823551
-0.082140197
-0.083258237
-0.084160692
-0.084831437
-0.085255479
-0.085419143
-0.085310377
-0.084918849
-0.084236343
-0.083256596
-0.081975996
-0.080393378
-0.078509757
-0.076328859
-0.073856848
-0.071102473
-0.068076886
-0.064793605
-0.061268316
-0.057518729
-0.053564323
-0.049426147
-0.045126485
-0.040688642
-0.036136548
-0.031494549
-0.026786981
-0.022037994
-0.017271128
-0.012509186
-0.007773863
-0.0030856721
0.0015363511
0.0060746589
0.010513393
0.014838339
0.01903704
0.023098688
0.027014168
0.030775918
0.034377893
0.037815427
0.041085132
0.044184777
0.047113127
0.049869892
0.052455448
0.054870975
0.057117896
0.059198501
0.061114623
0.062869543
0.064464627
0.065904597
0.067188728
0.068325021
0.069306945
0.070151194
0.070836079
0.071401723
0.071786905
0.072094442
0.072161652
-0.0016674893
-3.856243e-05
-0.0017514025
-0.0012283049
-0.0022185095
-0.0022071453
-0.0028858916
-0.0031220616
-0.0036791125
-0.0040477967
-0.0045730812
-0.0050267935
-0.0055653616
-0.0060872884
-0.0066641419
-0.0072515075
-0.0078828101
-0.0085393644
-0.0092374838
-0.0099700894
-0.010745836
-0.011562882
-0.012426455
-0.013337063
-0.014298378
-0.015311928
-0.016380629
-0.017506387
-0.018691657
-0.019938388
-0.021248622
-0.022624129
-0.024066491
-0.025577057
-0.027156856
-0.028806597
-0.03052657
-0.032316625
-0.03417609
-0.036103713
-0.038097617
-0.040155177
-0.042273054
-0.044447007
-0.046671952
-0.048941809
-0.051249521
-0.053586966
-0.055944954
-0.058313189
-0.06068028
-0.063033738
-0.065360017
-0.067644558
-0.069871856
-0.072025561
-0.074088587
-0.076043248
-0.077871422
-0.079554733
-0.081074739
-0.082413164
-0.083552114
-0.084474328
-0.085163409
-0.085604098
-0.085782468
-0.085686238
-0.08530486
-0.08462995
-0.083655067
-0.082376538
-0.080793205
-0.078906014
-0.076718685
-0.074237402
-0.071470969
-0.068430631
-0.06513003
-0.061585016
-0.057813498
-0.053835185
-0.049671389
-0.045344681
-0.040878683
-0.036297644
-0.031626259
-0.026889191
-0.022110936
-0.017315342
-0.012525521
-0.0077634288
-0.0030498239
0.0015960656
0.0061565261
0.010615587
0.014958951
0.019174127
0.023250304
0.027178402
0.030950917
0.034561894
0.03800677
0.041282283
0.044386332
0.047317826
0.050076617
0.052663227
0.05507898
0.057325437
0.059405018
0.061319684
0.063072828
0.064665928
0.066103797
0.067385806
0.068520019
0.0695
0.070342458
0.07102582
0.071590145
0.071974414
0.072281195
0.072348245
-0.0016587299
-3.6565199e-05
-0.0017397874
-0.0012180689
-0.0022022073
-0.0021897442
-0.0028639898
-0.0030978878
-0.0036510947
-0.0040169173
-0.0045385961
-0.0049891181
-0.0055241272
-0.0060426541
-0.0066159125
-0.0071997304
-0.0078273757
-0.0084802786
-0.009174688
-0.0099035855
-0.010675607
-0.01148895
-0.012348847
-0.013255841
-0.014213625
-0.015223765
-0.01628921
-0.017411911
-0.018594368
-0.019838585
-0.02114666
-0.022520429
-0.023961542
-0.025471428
-0.027051194
-0.028701636
-0.030423133
-0.032215635
-0.034078563
-0.036010766
-0.038010466
-0.040075138
-0.042201534
-0.044385504
-0.046622044
-0.048905142
-0.051227794
-0.053581916
-0.055958332
-0.05834674
-0.060735711
-0.063112691
-0.065464037
-0.067775056
-0.070030078
-0.07221255
-0.074305149
-0.076289918
-0.078148439
-0.079862009
-0.081411841
-0.082779299
-0.08394612
-0.084894675
-0.0856082
-0.086071084
-0.086269068
-0.086189561
-0.085821734
-0.085156968
-0.084188587
-0.082912803
-0.081328425
-0.079436319
-0.077240185
-0.074746236
-0.071963352
-0.068902905
-0.065578714
-0.062006854
-0.058205512
-0.05419471
-0.049996131
-0.045632737
-0.041128586
-0.036508371
-0.031797256
-0.027020361
-0.022202646
-0.017368381
-0.012541093
-0.0077430932
-0.0029954662
0.0016823045
0.0062722853
0.010758361
0.015126131
0.019363067
0.023458358
0.027402981
0.031189519
0.034812143
0.038266438
0.041549314
0.044658854
0.047594161
0.050355285
0.052942944
0.055358656
0.057604171
0.059682085
0.061594529
0.063345048
0.064935268
0.066370123
0.067649116
0.06878039
0.069757637
0.070597584
0.071278818
0.071841302
0.072224294
0.072530022
0.072596843
-0.0016477762
-3.4024199e-05
-0.0017252216
-0.0012052082
-0.0021817616
-0.0021679149
-0.0028365306
-0.0030675806
-0.0036159755
-0.0039782119
-0.0044953733
-0.0049418949
-0.0054724409
-0.0059867012
-0.0065554464
-0.0071348074
-0.0077578557
-0.0084061655
-0.0090959046
-0.0098201304
-0.010587454
-0.011396122
-0.012251375
-0.013153796
-0.014107106
-0.015112916
-0.016174217
-0.017293017
-0.018471873
-0.019712855
-0.021018134
-0.022389628
-0.023829074
-0.025337996
-0.026917602
-0.0285688
-0.030292084
-0.03208752
-0.033954657
-0.035892468
-0.037899303
-0.03997276
-0.042109715
-0.044306129
-0.046557101
-0.048856707
-0.051198016
-0.053572992
-0.055972481
-0.058386172
-0.060802596
-0.063209117
-0.065591971
-0.067936301
-0.070226228
-0.072444943
-0.074574825
-0.07659758
-0.078494408
-0.080246196
-0.081833719
-0.083237886
-0.084439964
-0.085421854
-0.08616633
-0.086657333
-0.086880182
-0.086821896
-0.086471292
-0.085819454
-0.084859428
-0.083587269
-0.082001745
-0.080103628
-0.077896596
-0.075386899
-0.072583506
-0.069497948
-0.066144262
-0.062538802
-0.058700096
-0.054648564
-0.050406346
-0.045996895
-0.041444821
-0.03677537
-0.032014306
-0.027187319
-0.022319961
-0.017437035
-0.012562599
-0.0077194079
-0.0029289658
0.0017889221
0.0064160425
0.010936099
0.015334557
0.019598843
0.023718149
0.027683524
0.03148766
0.035124891
0.038590988
0.041883081
0.044999483
0.047939544
0.050703562
0.053292507
0.055708139
0.057952444
0.060028241
0.061937874
0.06368508
0.065271671
0.066702731
0.067977928
0.069105506
0.070079314
0.070916106
0.071594665
0.072154836
0.072536225
0.072840631
0.07290717
-0.0016347032
-3.1038534e-05
-0.001707854
-0.0011899067
-0.0021573798
-0.0021418952
-0.0028037716
-0.0030314252
-0.0035740626
-0.0039320159
-0.0044437741
-0.0048855152
-0.005410724
-0.0059198838
-0.0064832318
-0.0070572635
-0.0076748136
-0.0083176297
-0.0090017818
-0.009720418
-0.01048212
-0.011285192
-0.012134883
-0.013031827
-0.013979776
-0.014980397
-0.01603673
-0.017150849
-0.01832538
-0.019562473
-0.020864387
-0.022233135
-0.023670561
-0.025178301
-0.026757689
-0.028409763
-0.030135153
-0.031934072
-0.033806217
-0.035750715
-0.037766068
-0.039850027
-0.041999612
-0.044210925
-0.046479191
-0.048798593
-0.051162291
-0.053562306
-0.055989518
-0.058433608
-0.060883058
-0.063325139
-0.065745943
-0.068130417
-0.07046243
-0.072724869
-0.074899751
-0.076968372
-0.078911476
-0.080709451
-0.082342544
-0.083791108
-0.085035843
-0.086058081
-0.086840035
-0.087365104
-0.087618092
-0.087585547
-0.087255855
-0.086619733
-0.085669897
-0.084402184
-0.08281529
-0.080909888
-0.078689612
-0.076160763
-0.073332415
-0.070216295
-0.066826703
-0.063180334
-0.059296139
-0.055195018
-0.050899678
-0.046434172
-0.04182379
-0.037094457
-0.032272676
-0.027384834
-0.022457214
-0.01751527
-0.01258371
-0.0076858283
-0.0028436431
0.0019226545
0.0065945131
0.011155423
0.015590694
0.019887707
0.024035663
0.028025709
0.031850681
0.035505115
0.038985018
0.042287792
0.045412037
0.048357408
0.051124506
0.05371461
0.056129774
0.058372274
0.060445198
0.062351148
0.064094092
0.065676066
0.067102337
0.06837277
0.069495728
0.070465252
0.07129812
0.07197336
0.072530666
0.072910069
0.073212838
0.073279023
-0.0016194692
-2.7532908e-05
-0.0016875819
-0.0011720332
-0.0021289177
-0.0021115198
-0.0027655355
-0.0029892259
-0.0035251448
-0.0038780982
-0.0043835476
-0.0048197041
-0.0053386761
-0.0058418724
-0.006398907
-0.0069667008
-0.0075778117
-0.0082141891
-0.0088917883
-0.0096038629
-0.010358959
-0.011155451
-0.011998592
-0.012889078
-0.013830696
-0.014825177
-0.01587562
-0.016984174
-0.018153546
-0.019385979
-0.020683834
-0.022049237
-0.023484154
-0.024990358
-0.026569325
-0.028222246
-0.029949917
-0.031752722
-0.033630532
-0.035582658
-0.037607782
-0.039703837
-0.041868019
-0.044096595
-0.046384943
-0.04872738
-0.051117172
-0.05354642
-0.05600604
-0.058485715
-0.060973872
-0.063457677
-0.065923057
-0.06835473
-0.070736272
-0.073050213
-0.075278145
-0.077400879
-0.07939862
-0.081251165
-0.082938131
-0.084439215
-0.085734443
-0.086804469
-0.08763084
-0.088196308
-0.088485073
-0.088483116
-0.088178321
-0.087560966
-0.08662339
-0.085361158
-0.083772878
-0.081859116
-0.07962345
-0.077072239
-0.074214678
-0.071062719
-0.067630969
-0.063936519
-0.059998815
-0.055839321
-0.051481411
-0.046949848
-0.042270726
-0.037470775
-0.03257738
-0.027617756
-0.022619061
-0.017607522
-0.012608624
-0.0076463045
-0.0027431929
0.0020800638
0.0068045118
0.011413394
0.015891836
0.020227175
0.024408624
0.028427455
0.032276675
0.035951073
0.039446935
0.042761992
0.045895185
0.048846534
0.051617001
0.054208229
0.056622622
0.058862798
0.060932161
0.062833618
0.064571407
0.066147828
0.06756836
0.068833099
0.069950546
0.070914969
0.071743172
0.072414468
0.072968371
0.07334542
0.073646249
0.073712017
-0.0016021261
-2.3573423e-05
-0.0016645165
-0.0011517222
-0.0020965351
-0.0020769713
-0.0027220247
-0.0029412065
-0.0034694657
-0.0038167242
-0.0043149801
-0.0047447711
-0.0052566293
-0.0057530233
-0.0063028531
-0.0068635264
-0.0074672834
-0.0080963046
-0.0087664131
-0.0094709831
-0.01021852
-0.011007474
-0.011843109
-0.012726186
-0.013660534
-0.014647954
-0.015691614
-0.016793748
-0.017957154
-0.019184182
-0.020477308
-0.021838787
-0.023270727
-0.024775054
-0.026353409
-0.028007162
-0.029737294
-0.031544388
-0.033428519
-0.035389207
-0.037425347
-0.039535082
-0.041715814
-0.043964006
-0.046275213
-0.048643912
-0.051063498
-0.053526168
-0.056022891
-0.058543351
-0.061075923
-0.063607657
-0.066124293
-0.068610291
-0.071048894
-0.073422219
-0.07571137
-0.077896601
-0.079957487
-0.081873144
-0.083622459
-0.085184363
-0.086538099
-0.087663533
-0.088541434
-0.089153804
-0.089484136
-0.089517754
-0.089241958
-0.088646507
-0.087723314
-0.086467601
-0.084877861
-0.082954551
-0.080701166
-0.07812414
-0.075232797
-0.072039351
-0.068558761
-0.064808577
-0.060808817
-0.056581599
-0.052151082
-0.047542849
-0.042783947
-0.037902042
-0.032925561
-0.027882686
-0.022801611
-0.017709462
-0.012632646
-0.0075958424
-0.0026224014
0.002266507
0.0070514615
0.011715428
0.016243327
0.020622453
0.024842048
0.028893543
0.032770156
0.036466977
0.039980632
0.043309241
0.04645215
0.049409808
0.052183601
0.054775597
0.057188608
0.059425649
0.061490491
0.063386393
0.065117902
0.066687622
0.068101275
0.069359222
0.070470122
0.0714285
0.072251189
0.072917829
0.073467723
0.073841996
0.074140541
0.074205815
-0.0015826469
-1.9115577e-05
-0.001638592
-0.0011288923
-0.0020601393
-0.0020381449
-0.0026731251
-0.002887242
-0.0034068894
-0.003747745
-0.0042379087
-0.0046605365
-0.0051643854
-0.0056531168
-0.0061948258
-0.0067474683
-0.0073429254
-0.0079636376
-0.0086252782
-0.0093213564
-0.01006033
-0.010840737
-0.011667848
-0.012542501
-0.013468566
-0.014447928
-0.015483826
-0.016578593
-0.017735129
-0.018955901
-0.020243516
-0.021600376
-0.023028747
-0.024530728
-0.026108148
-0.027762579
-0.029495215
-0.031306863
-0.033197835
-0.035167888
-0.037216163
-0.039341046
-0.041540177
-0.043810245
-0.046147019
-0.048545161
-0.050998221
-0.053498512
-0.056037072
-0.058603597
-0.06118641
-0.063772435
-0.066347209
-0.068894906
-0.071398389
-0.07383931
-0.07619822
-0.078454734
-0.08058771
-0.082575481
-0.084396095
-0.086027603
-0.087448347
-0.088637283
-0.089574289
-0.0902405
-0.090618598
-0.090693149
-0.090450788
-0.089880672
-0.088974241
-0.087726304
-0.086135219
-0.084201331
-0.081928033
-0.07932184
-0.076392218
-0.073151674
-0.069615559
-0.06580194
-0.061731486
-0.057427057
-0.052913707
-0.048217961
-0.043367962
-0.038392451
-0.033321068
-0.02818311
-0.023007973
-0.017823822
-0.012658138
-0.0075364521
-0.0024829505
0.0024806026
0.0073342462
0.012060641
0.016644474
0.02107301
0.02533553
0.029423663
0.033330879
0.037052629
0.040585935
0.043929373
0.047082762
0.050047046
0.0528241
0.055416482
0.057827474
0.06006054
0.062119871
0.064009125
0.065733202
0.06729505
0.068700662
0.069950701
0.071053999
0.072005372
0.072821684
0.073482947
0.074028217
0.074399291
0.074695206
0.074759914
-0.0015610671
-1.4208903e-05
-0.0016098933
-0.0011036484
-0.0020198578
-0.0019951874
-0.0026190017
-0.0028275157
-0.0033376165
-0.0036713793
-0.0041525693
-0.0045672543
-0.0050622158
-0.0055424426
-0.0060751327
-0.0066188518
-0.0072050808
-0.0078165485
-0.0084687606
-0.009155376
-0.0098847987
-0.010655662
-0.011473245
-0.012338467
-0.013255247
-0.014225558
-0.015252721
-0.016339175
-0.017487932
-0.018701592
-0.019982905
-0.021334434
-0.022758622
-0.024257764
-0.025833896
-0.027488816
-0.029223958
-0.031040383
-0.032938664
-0.034918834
-0.03698031
-0.039121754
-0.04134108
-0.043635239
-0.046000242
-0.04843097
-0.050921159
-0.05346326
-0.0560484
-0.058666298
-0.061305229
-0.063951987
-0.066591889
-0.069208792
-0.071785142
-0.074302071
-0.076739509
-0.079076348
-0.08129064
-0.08335983
-0.085261009
-0.086971234
-0.088467817
-0.08972868
-0.090732684
-0.091459978
-0.091892321
-0.092013415
-0.09180914
-0.091267965
-0.090380802
-0.089141969
-0.087549662
-0.085604116
-0.083308589
-0.08066969
-0.077697034
-0.074403453
-0.070804736
-0.066919525
-0.062769223
-0.058377523
-0.053770502
-0.048975748
-0.044022668
-0.038941226
-0.033762464
-0.028516947
-0.023235474
-0.017947386
-0.01268141
-0.0074640424
-0.0023204336
0.002726989
0.0076576496
0.01245388
0.017100112
0.021583595
0.025893673
0.030022218
0.033963006
0.037711915
0.041266429
0.044625659
0.047789967
0.050760868
0.053540798
0.056132874
0.058540908
0.060768877
0.062821444
0.064702714
0.066417984
0.067970583
0.069366812
0.070607663
0.071702163
0.072645454
0.073454423
0.074109505
0.074649466
0.07501687
0.075309771
0.075373828
-0.0015373685
-8.8285838e-06
-0.0015783808
-0.0010759439
-0.0019756365
-0.0019480398
-0.0025595898
-0.0027619575
-0.0032615701
-0.0035875428
-0.0040588683
-0.0044648201
-0.0049500032
-0.0054208677
-0.0059436225
-0.0064775044
-0.007053552
-0.0076548113
-0.0082966018
-0.0089727462
-0.0096915882
-0.010451865
-0.011258863
-0.01211359
-0.013020018
-0.013980215
-0.01499759
-0.016074701
-0.017214678
-0.018420269
-0.01969438
-0.021039754
-0.022459027
-0.023954708
-0.025529066
-0.02718415
-0.028921661
-0.030742943
-0.032648864
-0.034639764
-0.036715372
-0.038874666
-0.041115869
-0.043436232
-0.045832049
-0.048298453
-0.050829397
-0.053417502
-0.056054005
-0.058728666
-0.061429718
-0.064143825
-0.066856067
-0.069549959
-0.072207489
-0.074809214
-0.07733437
-0.079761045
-0.082066382
-0.084226825
-0.086218394
-0.088017012
-0.089598832
-0.090940607
-0.092020042
-0.092816174
-0.093309716
-0.093483394
-0.093322244
-0.092813949
-0.091948844
-0.090720669
-0.089127441
-0.087169287
-0.084849294
-0.082174182
-0.079153717
-0.075801085
-0.072132555
-0.068167397
-0.063927837
-0.059438485
-0.054726576
-0.049820882
-0.044752254
-0.039552029
-0.034252865
-0.028886754
-0.023486115
-0.018081616
-0.012703422
-0.0073791091
-0.0021349381
0.0030059312
0.008022225
0.012895926
0.017611185
0.022155264
0.026517589
0.030690334
0.034667635
0.038445874
0.04202307
0.045398953
0.048574504
0.051551892
0.054334188
0.056925139
0.059329155
0.061550789
0.063595227
0.065467076
0.067172069
0.06871396
0.070099386
0.071329704
0.072414153
0.073348232
0.074148853
0.074796915
0.075330858
0.075694104
0.075983594
0.076046915
-0.0015115754
-3.0155793e-06
-0.0015441223
-0.0010458665
-0.0019275821
-0.0018968268
-0.0024950305
-0.0026907257
-0.0031789237
-0.0034964252
-0.0039570102
-0.0043534537
-0.0048279813
-0.0052886398
-0.0058005559
-0.0063236992
-0.0068886234
-0.0074787204
-0.0081091046
-0.0087737767
-0.0094810126
-0.010229661
-0.011025017
-0.011868181
-0.012763181
-0.01371219
-0.01471871
-0.015785423
-0.016915595
-0.018112127
-0.019378098
-0.020716446
-0.022130018
-0.023621558
-0.025193591
-0.02684844
-0.028588102
-0.030414235
-0.032328035
-0.034330184
-0.036420762
-0.0385991
-0.040863772
-0.04321237
-0.045641509
-0.048146617
-0.0507219
-0.053360182
-0.056052836
-0.058789686
-0.061558936
-0.064347118
-0.067139067
-0.069917932
-0.072665201
-0.0753608
-0.0779832
-0.080509597
-0.082916119
-0.085178096
-0.087270339
-0.089167509
-0.090844448
-0.092276595
-0.093440359
-0.09431352
-0.094875623
-0.095108294
-0.094995625
-0.094524413
-0.093684364
-0.092468546
-0.090874769
-0.088903063
-0.086556302
-0.083841327
-0.080768057
-0.077350061
-0.073604124
-0.069550204
-0.065211432
-0.060613428
-0.055784729
-0.050755422
-0.045558002
-0.040225339
-0.034791946
-0.029291419
-0.02375804
-0.018223967
-0.012721019
-0.0072779749
-0.0019223633
0.0033218545
0.0084326165
0.013391545
0.018182488
0.022792752
0.027211882
0.03143242
0.035448929
0.039258384
0.042859424
0.046252487
0.049439265
0.052422667
0.05520648
0.057795163
0.060193789
0.062407553
0.064442224
0.066302961
0.067995978
0.069525494
0.070898511
0.072116789
0.07318979
0.074113407
0.074904569
0.075544691
0.076071838
0.07643039
0.076716035
0.076778524
-0.0014836747
3.2407957e-06
-0.001507097
-0.0010133958
-0.0018756702
-0.001841525
-0.002425298
-0.0026137939
-0.0030896484
-0.0033979948
-0.0038469583
-0.0042331122
-0.0046960986
-0.005145697
-0.0056458572
-0.0061573443
-0.0067101832
-0.0072881407
-0.0079061065
-0.0085582731
-0.0092528407
-0.0099887786
-0.010771386
-0.011601865
-0.012484303
-0.013420981
-0.014415502
-0.015470683
-0.016589931
-0.017776316
-0.019033103
-0.020363437
-0.021770399
-0.023256987
-0.024826003
-0.026480074
-0.02822152
-0.030052345
-0.031974109
-0.033987873
-0.036094107
-0.038292539
-0.040582139
-0.042960884
-0.045425756
-0.047972523
-0.050595684
-0.053288306
-0.056041936
-0.058846482
-0.061690137
-0.064559309
-0.067438581
-0.07031071
-0.073156648
-0.075955634
-0.078685298
-0.081321851
-0.083840295
-0.086214718
-0.088418586
-0.090425141
-0.092207762
-0.093740414
-0.094998052
-0.095957051
-0.096595644
-0.096894229
-0.096835849
-0.096406309
-0.095594631
-0.094393111
-0.092799333
-0.090813238
-0.088437447
-0.085678934
-0.082547766
-0.07905792
-0.07522674
-0.071074915
-0.066626574
-0.061908431
-0.056950481
-0.05178425
-0.046444104
-0.040964609
-0.035382404
-0.02973287
-0.024052434
-0.018374909
-0.012734019
-0.0071598687
-0.0016814388
0.0036764432
0.0088908268
0.013942969
0.018816392
0.023498496
0.027978978
0.032250834
0.03630913
0.04015153
0.043777388
0.047187955
0.050385726
0.053374448
0.05615871
0.058743764
0.061135425
0.063339592
0.065362679
0.067210449
0.06888964
0.07040498
0.071763865
0.07296849
0.074028556
0.074940384
0.075720912
0.076352123
0.076871655
0.077224952
0.077506295
0.077567856
-0.0014536827
9.9034927e-06
-0.0014673619
-0.00097861009
-0.001819995
-0.0017822475
-0.0023505201
-0.0025313072
-0.0029939031
-0.0032924261
-0.0037289004
-0.0041039971
-0.0045545687
-0.0049922645
-0.0054797619
-0.005978684
-0.0065184828
-0.0070833287
-0.0076878665
-0.0083264945
-0.0090073287
-0.009729466
-0.010498208
-0.011314867
-0.012183586
-0.013106764
-0.014088111
-0.015130586
-0.016237746
-0.017412843
-0.018659337
-0.0199806
-0.021379961
-0.022860696
-0.024425906
-0.026078548
-0.027821295
-0.02965653
-0.031586212
-0.033611824
-0.035734266
-0.037953708
-0.040269564
-0.042680246
-0.045183154
-0.047774442
-0.050448955
-0.053200045
-0.05601947
-0.058897259
-0.061821616
-0.064778833
-0.06775324
-0.070727185
-0.073681046
-0.076593316
-0.079440708
-0.08219835
-0.084840003
-0.087338376
-0.089665438
-0.091792853
-0.093692366
-0.095336294
-0.096697968
-0.097752195
-0.098475746
-0.098847653
-0.098849796
-0.098466877
-0.097687176
-0.096502113
-0.094909018
-0.092907766
-0.090500667
-0.087694841
-0.084500497
-0.080932036
-0.077007394
-0.072748035
-0.068179177
-0.063328709
-0.058228254
-0.052910911
-0.047413164
-0.041771453
-0.036024857
-0.030210731
-0.02436798
-0.018532245
-0.012739445
-0.0070211381
-0.0014079652
0.0040743205
0.0094017683
0.014555279
0.019518027
0.024277573
0.02882381
0.033150291
0.03725267
0.04112942
0.044780714
0.048208732
0.051416878
0.054409841
0.057193108
0.059772812
0.062155586
0.06434811
0.066357497
0.068190172
0.069853443
0.071352584
0.072695416
0.073884604
0.0749301
0.075828685
0.076597298
0.07721854
0.077729568
0.078076999
0.078353548
0.078414071
-0.0014215885
1.6972046e-05
-0.0014249094
-0.00094150984
-0.0017605553
-0.0017189993
-0.0022707024
-0.0024432754
-0.0028916983
-0.003179731
-0.003602847
-0.0039661171
-0.0044033956
-0.0048283399
-0.005302258
-0.0057876941
-0.0063134824
-0.0068642254
-0.0074543022
-0.0080783305
-0.008744333
-0.0094515417
-0.010205259
-0.011006907
-0.011860694
-0.012769139
-0.013736062
-0.014764575
-0.015858391
-0.017020955
-0.018255937
-0.019566951
-0.02095759
-0.022431429
-0.023991893
-0.025642296
-0.027385694
-0.029224884
-0.031162264
-0.033199776
-0.035338801
-0.037579999
-0.039923277
-0.042367539
-0.044910657
-0.047549228
-0.050278498
-0.053092154
-0.055982213
-0.058938865
-0.061950353
-0.065002873
-0.068080503
-0.071165165
-0.074236628
-0.077272585
-0.080248751
-0.083139068
-0.085915929
-0.08855052
-0.091013148
-0.093273722
-0.095302163
-0.097068956
-0.098545616
-0.099705207
-0.10052287
-0.10097612
-0.10104556
-0.10071466
-0.0999709
-0.098804716
-0.097213165
-0.095196077
-0.092755399
-0.089898411
-0.086635448
-0.082981355
-0.078954689
-0.074577721
-0.069876857
-0.064881229
-0.059624274
-0.054140786
-0.048469657
-0.042649371
-0.036721811
-0.030726504
-0.024705215
-0.018695595
-0.012736094
-0.0068598495
-0.0010994053
0.0045185088
0.0099688148
0.015232081
0.020291113
0.025133712
0.029750027
0.034134284
0.038282826
0.042195072
0.045872127
0.049317232
0.052534814
0.055530621
0.058311137
0.060883472
0.063255157
0.065433726
0.067427057
0.06924229
0.070887346
0.072368091
0.073692796
0.074864626
0.075893799
0.07677759
0.077532925
0.078143076
0.078644658
0.078985578
0.079256813
0.079316186
-0.0013874016
2.4410011e-05
-0.00137979
-0.00090216969
-0.0016974391
-0.0016518895
-0.0021859679
-0.0023498398
-0.0027831888
-0.0030600804
-0.003468982
-0.0038196698
-0.0042427881
-0.0046541427
-0.0051135736
-0.00558461
-0.0060954217
-0.0066310728
-0.0072056548
-0.0078140181
-0.0084640826
-0.0091552219
-0.0098927351
-0.010678163
-0.011515773
-0.012408214
-0.01335942
-0.01437266
-0.015451815
-0.01660053
-0.0178227
-0.019122192
-0.020502884
-0.021968668
-0.023523319
-0.025170533
-0.026913783
-0.028756315
-0.030701002
-0.032750295
-0.034906099
-0.03716962
-0.039541315
-0.042020636
-0.044605989
-0.047294479
-0.05008181
-0.05296207
-0.055927585
-0.058968753
-0.062073897
-0.06522914
-0.068418316
-0.071622913
-0.074822057
-0.077992584
-0.08110913
-0.084144343
-0.087069112
-0.089852944
-0.092464305
-0.094871158
-0.097041393
-0.098943456
-0.10054684
-0.10182267
-0.10274428
-0.10328752
-0.10343155
-0.10315853
-0.10245506
-0.10131047
-0.099721531
-0.097688062
-0.095211579
-0.092299532
-0.088962365
-0.085215367
-0.081077738
-0.076572575
-0.071727563
-0.066573138
-0.061144756
-0.055479023
-0.049617576
-0.043601115
-0.037474762
-0.031280418
-0.025063168
-0.018862855
-0.012720867
-0.0066720409
-0.00075110561
0.0050141943
0.01059751
0.015979122
0.021141448
0.026072638
0.030763165
0.035208074
0.039404514
0.043353003
0.047055714
0.050517095
0.053742723
0.05673953
0.059515104
0.062077636
0.064435642
0.066597585
0.068572173
0.070367318
0.071991598
0.073451509
0.0747558
0.075908171
0.076919113
0.077786424
0.078527006
0.079124853
0.079615975
0.079949691
0.080215051
0.080273153
-0.0013511109
3.2207263e-05
-0.001332006
-0.00086060739
-0.0016306638
-0.0015809474
-0.0020963484
-0.0022510411
-0.0026684187
-0.0029335241
-0.0033273569
-0.0036647085
-0.0040727983
-0.0044697225
-0.0049137524
-0.005369467
-0.0058643243
-0.0063838787
-0.0069419122
-0.0075335206
-0.0081665107
-0.0088404041
-0.0095604927
-0.010328439
-0.011148572
-0.012023673
-0.012957794
-0.013954367
-0.015017448
-0.016150894
-0.017358831
-0.0186454
-0.020014778
-0.021471194
-0.023018797
-0.024661696
-0.02640381
-0.02824887
-0.030200272
-0.032261016
-0.034433587
-0.036719789
-0.039120693
-0.041636364
-0.044265811
-0.047006714
-0.049855308
-0.052806147
-0.055851932
-0.058983328
-0.062188782
-0.065454379
-0.068763724
-0.072097868
-0.075435263
-0.078751835
-0.082021053
-0.085214159
-0.088300396
-0.09124742
-0.09402166
-0.096588918
-0.098914829
-0.10096557
-0.10270838
-0.10411224
-0.10514847
-0.10579107
-0.10601765
-0.10580888
-0.10515045
-0.10403047
-0.10244538
-0.10039506
-0.097880516
-0.094909392
-0.09149221
-0.087644706
-0.083386741
-0.078742239
-0.073740262
-0.068412588
-0.06279692
-0.056931777
-0.050861922
-0.044630437
-0.038286196
-0.03187367
-0.025441813
-0.019032841
-0.012691553
-0.0064546002
-0.00035923194
0.0055657751
0.011292634
0.01680141
0.02207411
0.027099374
0.031868076
0.036376254
0.040621997
0.0446071
0.048334953
0.051811373
0.055043226
0.058038766
0.060806804
0.063356717
0.065698095
0.067840414
0.069793273
0.071565414
0.073166115
0.074602543
0.075883951
0.077014601
0.078005263
0.078854297
0.079578555
0.080162811
0.0806424
0.080968176
0.081227071
0.081283773
-0.0013127189
4.0325232e-05
-0.0012816034
-0.00081689861
-0.0015603159
-0.0015062838
-0.0020019682
-0.002147024
-0.0025475469
-0.0028002384
-0.0031781617
-0.0035014379
-0.0038936426
-0.0042753069
-0.0047030306
-0.0051425081
-0.005620437
-0.0061228913
-0.0066633199
-0.0072370773
-0.0078518456
-0.0085073006
-0.0092087221
-0.0099578979
-0.010759218
-0.011615598
-0.012531212
-0.013509661
-0.014555181
-0.01567185
-0.016864038
-0.01813617
-0.01949274
-0.020938335
-0.022477502
-0.024114789
-0.025854595