/*--------------------------------*- C++ -*----------------------------------*\
| =========                 |                                                 |
| \\      /  F ield         | foam-extend: Open Source CFD                    |
|  \\    /   O peration     | Version:     4.1                                |
|   \\  /    A nd           | Web:         http://www.foam-extend.org         |
|    \\/     M anipulation  |                                                 |
\*---------------------------------------------------------------------------*/
FoamFile
{
    version     2.0;
    format      ascii;
    class       surfaceScalarField;
    location    "1.4";
    object      phi;
}
// * * * * * * * * * * * * * * * * * * * * * * * * * * * * * * * * * * * * * //

dimensions      [0 3 -1 0 0 0 0];

internalField   nonuniform List<scalar> 
32976
(
-0.0016250931
1.0184166e-06
-0.0016261452
1.0520899e-06
-0.0016272263
1.0810752e-06
-0.0016283442
1.1179116e-06
-0.0016294979
1.1537202e-06
-0.0016306924
1.1944893e-06
-0.0016319287
1.2362606e-06
-0.0016332104
1.2817844e-06
-0.0016345397
1.3292962e-06
-0.0016359198
1.3800896e-06
-0.0016373532
1.4333891e-06
-0.0016388431
1.4898282e-06
-0.0016403921
1.5490729e-06
-0.0016420036
1.6114521e-06
-0.0016436804
1.6768219e-06
-0.0016454258
1.7453635e-06
-0.0016472428
1.8170057e-06
-0.0016491346
1.8918501e-06
-0.0016511045
1.969842e-06
-0.0016531555
2.0510314e-06
-0.0016552908
2.1353505e-06
-0.0016575136
2.2228067e-06
-0.0016598269
2.3133004e-06
-0.0016622337
2.4067935e-06
-0.0016647369
2.5031383e-06
-0.0016673391
2.6022406e-06
-0.001670043
2.703886e-06
-0.0016728509
2.8079075e-06
-0.0016757649
2.9140031e-06
-0.0016787868
3.0219132e-06
-0.0016819181
3.1312273e-06
-0.0016851596
3.2415609e-06
-0.0016885121
3.3524319e-06
-0.0016919753
3.463251e-06
-0.0016955488
3.5734605e-06
-0.0016992311
3.682327e-06
-0.0017030203
3.789174e-06
-0.0017069134
3.8931511e-06
-0.0017109069
3.993485e-06
-0.0017149961
4.0892383e-06
-0.0017191757
4.1795773e-06
-0.0017234392
4.2635245e-06
-0.0017277794
4.3402043e-06
-0.0017321881
4.4086829e-06
-0.0017366562
4.4680624e-06
-0.0017411737
4.5174599e-06
-0.0017457297
4.556011e-06
-0.0017503125
4.582877e-06
-0.0017549098
4.5972202e-06
-0.001759508
4.5982126e-06
-0.001764093
4.5850138e-06
-0.0017686497
4.5567597e-06
-0.0017731623
4.5125464e-06
-0.0017776137
4.4514297e-06
-0.0017819861
4.3724005e-06
-0.0017862605
4.2744059e-06
-0.0017904169
4.1563508e-06
-0.001794434
4.0171224e-06
-0.0017982896
3.8556214e-06
-0.0018019604
3.6708146e-06
-0.0018054222
3.4617715e-06
-0.0018086499
3.2277408e-06
-0.0018116182
2.9682056e-06
-0.0018143011
2.6829471e-06
-0.0018166732
2.3721029e-06
-0.0018187094
2.0362153e-06
-0.0018203857
1.6762718e-06
-0.0018216794
1.2937189e-06
-0.0018225699
8.9047296e-07
-0.0018230388
4.6891246e-07
-0.0018230706
3.1823054e-08
-0.001822653
-4.1757876e-07
-0.0018217773
-8.757893e-07
-0.0018204382
-1.339097e-06
-0.0018186346
-1.8035705e-06
-0.0018163694
-2.2651841e-06
-0.0018136495
-2.7198812e-06
-0.0018104859
-3.1636529e-06
-0.0018068932
-3.5926187e-06
-0.0018028902
-4.0030774e-06
-0.0017984986
-4.391586e-06
-0.0017937436
-4.7550026e-06
-0.001788653
-5.0905322e-06
-0.0017832573
-5.3957706e-06
-0.0017775886
-5.6687238e-06
-0.0017716807
-5.9078395e-06
-0.0017655687
-6.1120069e-06
-0.0017592881
-6.280571e-06
-0.0017528748
-6.4133137e-06
-0.0017463644
-6.5104508e-06
-0.0017397918
-6.5726062e-06
-0.001733191
-6.6007702e-06
-0.0017265947
-6.5962727e-06
-0.001720034
-6.5607423e-06
-0.0017135379
-6.4960473e-06
-0.0017071337
-6.4042594e-06
-0.0017008461
-6.2875882e-06
-0.0016946977
-6.1483551e-06
-0.0016887088
-5.9889092e-06
-0.0016828972
-5.8116172e-06
-0.0016772784
-5.6188015e-06
-0.0016718657
-5.4127138e-06
-0.0016666702
-5.1954966e-06
-0.001661701
-4.9691734e-06
-0.0016569654
-4.7356041e-06
-0.0016524689
-4.4964962e-06
-0.0016482155
-4.2533818e-06
-0.0016442079
-4.007618e-06
-0.0016404475
-3.7603829e-06
-0.0016369349
-3.5126877e-06
-0.0016336695
-3.2653646e-06
-0.0016306504
-3.0190928e-06
-0.001627876
-2.7743955e-06
-0.0016253443
-2.5316569e-06
-0.0016230532
-2.2911245e-06
-0.0016210003
-2.0529366e-06
-0.0016191832
-1.8171055e-06
-0.0016175996
-1.5835687e-06
-0.0016162475
-1.3521487e-06
-0.0016151248
-1.1226394e-06
-0.0016142301
-8.946989e-07
-0.0016135621
-6.6805062e-07
-0.0016131199
-4.4219067e-07
-2.1687776e-07
-0.0016250752
2.0354416e-06
-0.001626126
2.1029382e-06
-0.0016272058
2.1608749e-06
-0.0016283225
2.2346353e-06
-0.001629475
2.306218e-06
-0.0016306683
2.387798e-06
-0.0016319034
2.4713207e-06
-0.001633184
2.5623833e-06
-0.0016345121
2.6573907e-06
-0.001635891
2.7589751e-06
-0.0016373231
2.8655549e-06
-0.0016388117
2.978418e-06
-0.0016403595
3.0968833e-06
-0.0016419697
3.2216185e-06
-0.0016436452
3.3523308e-06
-0.0016453892
3.4893882e-06
-0.0016472049
3.6326471e-06
-0.0016490954
3.7823147e-06
-0.0016510638
3.9382821e-06
-0.0016531134
4.1006529e-06
-0.0016552474
4.2692932e-06
-0.0016574688
4.4442205e-06
-0.0016597807
4.6252382e-06
-0.0016621862
4.8122723e-06
-0.0016646881
5.0050303e-06
-0.0016672892
5.2033256e-06
-0.001669992
5.4067322e-06
-0.001672799
5.6149178e-06
-0.0016757123
5.8272809e-06
-0.0016787337
6.0433041e-06
-0.0016818646
6.2621687e-06
-0.0016851062
6.4831076e-06
-0.0016884589
6.7051586e-06
-0.0016919228
6.9271449e-06
-0.0016954973
7.147953e-06
-0.0016991811
7.366118e-06
-0.0017029722
7.580288e-06
-0.0017068678
7.7887633e-06
-0.0017108643
7.9899983e-06
-0.0017149572
8.1821182e-06
-0.0017191411
8.3634553e-06
-0.0017234096
8.5320527e-06
-0.0017277556
8.6861569e-06
-0.0017321708
8.8238968e-06
-0.0017366462
8.9434714e-06
-0.0017411718
9.0431085e-06
-0.0017457369
9.1210714e-06
-0.0017503297
9.1756731e-06
-0.0017549377
9.2052269e-06
-0.0017595475
9.2080638e-06
-0.001764145
9.1824893e-06
-0.001768715
9.1267594e-06
-0.0017732415
9.0390503e-06
-0.0017777076
8.9174567e-06
-0.0017820951
8.7599438e-06
-0.0017863851
8.5643892e-06
-0.0017905573
8.3285877e-06
-0.0017945905
8.0502997e-06
-0.0017984622
7.7273153e-06
-0.0018021489
7.3575589e-06
-0.0018056263
6.9391633e-06
-0.0018088692
6.4706233e-06
-0.0018118519
5.9509048e-06
-0.0018145485
5.3795743e-06
-0.0018169333
4.7569138e-06
-0.0018189811
4.0840172e-06
-0.0018206677
3.3628716e-06
-0.0018219704
2.5963842e-06
-0.0018228683
1.7884046e-06
-0.0018233431
9.4370618e-07
-0.0018233792
6.7889628e-08
-0.0018229642
-8.32602e-07
-0.0018220892
-1.7507388e-06
-0.0018207493
-2.6790655e-06
-0.0018189431
-3.6097087e-06
-0.0018166737
-4.5345964e-06
-0.001813948
-5.4455987e-06
-0.001810777
-6.3346802e-06
-0.0018071755
-7.1940628e-06
-0.0018031623
-8.0163276e-06
-0.0017987593
-8.7945727e-06
-0.0017939918
-9.5224995e-06
-0.0017888878
-1.0194504e-05
-0.0017834778
-1.0805767e-05
-0.0017777943
-1.135229e-05
-0.0017718711
-1.1830963e-05
-0.0017657436
-1.2239559e-05
-0.0017594474
-1.257677e-05
-0.0017530185
-1.2842162e-05
-0.0017464928
-1.3036175e-05
-0.0017399053
-1.3160068e-05
-0.0017332903
-1.3215836e-05
-0.0017266804
-1.3206156e-05
-0.0017201068
-1.3134303e-05
-0.0017135989
-1.3004035e-05
-0.0017071836
-1.2819516e-05
-0.001700886
-1.2585186e-05
-0.0016947286
-1.2305709e-05
-0.0016887318
-1.1985801e-05
-0.0016829132
-1.1630215e-05
-0.0016772883
-1.1243609e-05
-0.0016718706
-1.08305e-05
-0.0016666709
-1.0395186e-05
-0.0016616983
-9.9417198e-06
-0.0016569601
-9.4738297e-06
-0.0016524617
-8.9949343e-06
-0.0016482069
-8.5081004e-06
-0.0016441985
-8.016043e-06
-0.0016404378
-7.5211173e-06
-0.0016369251
-7.0253443e-06
-0.0016336601
-6.5303853e-06
-0.0016306416
-6.0375948e-06
-0.001627868
-5.5480152e-06
-0.0016253372
-5.0624103e-06
-0.0016230471
-4.5812698e-06
-0.0016209952
-4.1048655e-06
-0.001619179
-3.6332166e-06
-0.0016175964
-3.1661938e-06
-0.0016162451
-2.7034351e-06
-0.0016151232
-2.2445259e-06
-0.0016142292
-1.7887737e-06
-0.0016135616
-1.3356264e-06
-0.0016131197
-8.840616e-07
-4.3360514e-07
-0.0016250404
3.0499917e-06
-0.0016260888
3.1513092e-06
-0.0016271661
3.2382339e-06
-0.0016282804
3.3489315e-06
-0.0016294305
3.4563063e-06
-0.0016306214
3.5787047e-06
-0.0016318541
3.7039817e-06
-0.0016331323
3.8405774e-06
-0.001634458
3.9830667e-06
-0.0016358344
4.1354197e-06
-0.0016372641
4.295249e-06
-0.0016387502
4.4644976e-06
-0.0016402954
4.6421381e-06
-0.001641903
4.8291789e-06
-0.0016435758
5.0251804e-06
-0.0016453171
5.2307003e-06
-0.00164713
5.4455257e-06
-0.0016490177
5.6699736e-06
-0.0016509833
5.9038849e-06
-0.0016530301
6.1474212e-06
-0.0016551611
6.4003875e-06
-0.0016573797
6.6628162e-06
-0.0016596889
6.9344186e-06
-0.0016620917
7.2150903e-06
-0.0016645911
7.504398e-06
-0.0016671899
7.8020683e-06
-0.0016698906
8.1074677e-06
-0.0016726958
8.4201035e-06
-0.0016756076
8.7390791e-06
-0.0016786279
9.0636235e-06
-0.0016817582
9.3925139e-06
-0.0016849997
9.724605e-06
-0.001688353
1.0058458e-05
-0.0016918182
1.0392314e-05
-0.0016953948
1.0724505e-05
-0.0016990815
1.105284e-05
-0.0017028765
1.1375293e-05
-0.001706777
1.1689318e-05
-0.0017107796
1.1992597e-05
-0.0017148798
1.2282319e-05
-0.0017190724
1.255598e-05
-0.001723351
1.2810641e-05
-0.0017277085
1.3043665e-05
-0.0017321368
1.3252236e-05
-0.001736627
1.343364e-05
-0.0017411691
1.3585202e-05
-0.0017457523
1.3704297e-05
-0.001750365
1.3788372e-05
-0.0017549946
1.3834867e-05
-0.0017596278
1.3841249e-05
-0.0017642503
1.3804941e-05
-0.0017688468
1.3723287e-05
-0.0017734013
1.3593513e-05
-0.0017778965
1.3412719e-05
-0.0017823144
1.317781e-05
-0.0017866356
1.2885563e-05
-0.0017908396
1.253263e-05
-0.0017949049
1.2115618e-05
-0.0017988088
1.1631182e-05
-0.0018025274
1.1076186e-05
-0.0018060361
1.0447813e-05
-0.0018093092
9.7437998e-06
-0.0018123209
8.9625956e-06
-0.0018150449
8.1035606e-06
-0.0018174551
7.1671366e-06
-0.0018195261
6.1549906e-06
-0.0018212334
5.0701368e-06
-0.001822554
3.9169735e-06
-0.0018234669
2.7013186e-06
-0.0018239535
1.4303739e-06
-0.0018239983
1.1259299e-07
-0.0018235885
-1.242339e-06
-0.0018227154
-2.6238311e-06
-0.0018213739
-4.0206274e-06
-0.0018195627
-5.4208737e-06
-0.0018172849
-6.8124098e-06
-0.0018145475
-8.1829948e-06
-0.0018113616
-9.520528e-06
-0.0018077424
-1.0813297e-05
-0.0018037086
-1.205013e-05
-0.0017992825
-1.3220632e-05
-0.0017944897
-1.4315314e-05
-0.0017893585
-1.5325735e-05
-0.0017839196
-1.6244635e-05
-0.0017782059
-1.706599e-05
-0.0017722518
-1.7785119e-05
-0.0017660927
-1.8398672e-05
-0.0017597647
-1.8904687e-05
-0.0017533044
-1.9302524e-05
-0.0017467477
-1.9592863e-05
-0.0017401301
-1.9777621e-05
-0.0017334861
-1.9859827e-05
-0.0017268488
-1.9843542e-05
-0.0017202493
-1.9733729e-05
-0.0017137173
-1.9536075e-05
-0.0017072799
-1.9256882e-05
-0.0017009622
-1.8902865e-05
-0.0016947869
-1.848107e-05
-0.0016887741
-1.7998622e-05
-0.0016829416
-1.7462691e-05
-0.0016773049
-1.6880307e-05
-0.0016718771
-1.6258279e-05
-0.0016666692
-1.5603078e-05
-0.0016616901
-1.4920809e-05
-0.0016569469
-1.4217078e-05
-0.0016524448
-1.3497023e-05
-0.0016481876
-1.2765251e-05
-0.0016441779
-1.2025836e-05
-0.0016404167
-1.1282308e-05
-0.0016369043
-1.0537693e-05
-0.0016336402
-9.7944762e-06
-0.0016306231
-9.0546793e-06
-0.0016278513
-8.319855e-06
-0.0016253226
-7.5911369e-06
-0.0016230346
-6.869247e-06
-0.0016209849
-6.1545804e-06
-0.0016191709
-5.4471523e-06
-0.0016175904
-4.7467568e-06
-0.001616241
-4.0528373e-06
-0.0016151207
-3.3647612e-06
-0.001614228
-2.6814752e-06
-0.0016135615
-2.0021438e-06
-0.0016131204
-1.3252148e-06
-6.4997658e-07
-0.0016249866
4.0608242e-06
-0.0016260313
4.1959574e-06
-0.001627105
4.3119358e-06
-0.0016282156
4.4595874e-06
-0.0016293621
4.6027835e-06
-0.0016305494
4.7660081e-06
-0.0016317785
4.933042e-06
-0.0016330531
5.1151591e-06
-0.0016343751
5.3051077e-06
-0.0016357479
5.508194e-06
-0.0016371739
5.7212258e-06
-0.0016386562
5.9468019e-06
-0.0016401976
6.1835504e-06
-0.0016418012
6.432823e-06
-0.0016434701
6.6940363e-06
-0.0016452073
6.9679416e-06
-0.001647016
7.2542621e-06
-0.0016488995
7.5534293e-06
-0.0016508609
7.8652404e-06
-0.0016529034
8.1899216e-06
-0.0016550302
8.5272234e-06
-0.0016572446
8.8772005e-06
-0.0016595496
9.2394792e-06
-0.0016619485
9.6139318e-06
-0.0016644441
9.999992e-06
-0.0016670393
1.0397306e-05
-0.0016697369
1.080504e-05
-0.0016725393
1.1222549e-05
-0.0016754489
1.1648646e-05
-0.0016784676
1.2082314e-05
-0.001681597
1.2521933e-05
-0.0016848384
1.2965985e-05
-0.0016881925
1.3412562e-05
-0.0016916595
1.3859327e-05
-0.0016952391
1.4304066e-05
-0.0016989301
1.4743864e-05
-0.0017027308
1.5176027e-05
-0.0017066387
1.5597165e-05
-0.0017106503
1.6004191e-05
-0.0017147613
1.6393356e-05
-0.0017189666
1.6761318e-05
-0.0017232601
1.7104151e-05
-0.0017276348
1.7418328e-05
-0.0017320826
1.7700076e-05
-0.0017365948
1.7945754e-05
-0.0017411613
1.8151765e-05
-0.0017457716
1.8314573e-05
-0.001750414
1.8430728e-05
-0.0017550759
1.8496768e-05
-0.0017597439
1.8509255e-05
-0.0017644036
1.8464687e-05
-0.0017690398
1.8359456e-05
-0.001773636
1.8189784e-05
-0.0017781751
1.7951728e-05
-0.0017826383
1.7641082e-05
-0.0017870062
1.7253472e-05
-0.001791258
1.6784361e-05
-0.0017953715
1.622916e-05
-0.0017993237
1.5583352e-05
-0.0018030902
1.4842713e-05
-0.0018066459
1.4003455e-05
-0.0018099646
1.3062546e-05
-0.0018130199
1.201792e-05
-0.0018157851
1.0868742e-05
-0.0018182336
9.6156347e-06
-0.0018203395
8.2608679e-06
-0.0018220779
6.8085215e-06
-0.0018234254
5.2645303e-06
-0.0018243608
3.6367322e-06
-0.0018248653
1.9348101e-06
-0.0018249228
1.7013338e-07
-0.0018245208
-1.6443183e-06
-0.0018236503
-3.4943304e-06
-0.0018223062
-5.3647799e-06
-0.0018204873
-7.2397779e-06
-0.0018181967
-9.1030158e-06
-0.0018154416
-1.0938087e-05
-0.0018122333
-1.2728769e-05
-0.0018085873
-1.4459362e-05
-0.0018045225
-1.6114886e-05
-0.0018000617
-1.7681402e-05
-0.0017952309
-1.9146187e-05
-0.0017900587
-2.0497915e-05
-0.0017845765
-2.1726849e-05
-0.0017788176
-2.282491e-05
-0.0017728169
-2.3785823e-05
-0.0017666104
-2.4605106e-05
-0.001760235
-2.5280144e-05
-0.0017537274
-2.5810101e-05
-0.0017471243
-2.6195924e-05
-0.0017404617
-2.6440221e-05
-0.0017337745
-2.6547105e-05
-0.0017270959
-2.6522068e-05
-0.0017204578
-2.6371826e-05
-0.0017138898
-2.6104059e-05
-0.0017074195
-2.5727272e-05
-0.0017010718
-2.5250517e-05
-0.0016948696
-2.4683289e-05
-0.001688833
-2.4035178e-05
-0.0016829799
-2.3315829e-05
-0.0016773255
-2.2534687e-05
-0.0016718829
-2.1700893e-05
-0.0016666629
-2.0823126e-05
-0.0016616741
-1.9909567e-05
-0.0016569235
-1.896772e-05
-0.001652416
-1.8004455e-05
-0.0016481554
-1.7025924e-05
-0.0016441436
-1.6037562e-05
-0.0016403819
-1.5044073e-05
-0.0016368701
-1.4049479e-05
-0.0016336075
-1.3057081e-05
-0.0016305926
-1.2069555e-05
-0.0016278235
-1.1088951e-05
-0.0016252979
-1.0116759e-05
-0.0016230132
-9.1539162e-06
-0.0016209669
-8.2009269e-06
-0.0016191562
-7.2577865e-06
-0.0016175788
-6.3241971e-06
-0.0016162322
-5.3993917e-06
-0.0016151145
-4.4825059e-06
-0.0016142239
-3.5721098e-06
-0.0016135589
-2.6670725e-06
-0.0016131188
-1.7652952e-06
-8.6582079e-07
-0.0016249174
5.0667607e-06
-0.0016259571
5.2357107e-06
-0.001627026
5.3807895e-06
-0.0016281318
5.5654111e-06
-0.0016292735
5.7444498e-06
-0.001630456
5.9485036e-06
-0.0016316802
6.1572883e-06
-0.00163295
6.3849047e-06
-0.0016342671
6.6222767e-06
-0.001635635
6.8760449e-06
-0.001637056
7.1422131e-06
-0.0016385332
7.4240376e-06
-0.0016400695
7.7198038e-06
-0.0016416679
8.0312101e-06
-0.0016433314
8.3575335e-06
-0.0016450631
8.6997243e-06
-0.0016468663
9.0574473e-06
-0.0016487442
9.4312559e-06
-0.0016506998
9.8209112e-06
-0.0016527366
1.0226712e-05
-0.0016548578
1.0648364e-05
-0.0016570665
1.1085952e-05
-0.0016593661
1.1539028e-05
-0.0016617596
1.200745e-05
-0.0016642501
1.2490529e-05
-0.0016668406
1.2987839e-05
-0.001669534
1.3498357e-05
-0.0016723327
1.4021292e-05
-0.0016752392
1.4555179e-05
-0.0016782557
1.5098763e-05
-0.0016813838
1.5650036e-05
-0.0016846249
1.6207117e-05
-0.00168798
1.6767637e-05
-0.0016914494
1.7328688e-05
-0.0016950328
1.7887519e-05
-0.0016987294
1.8440498e-05
-0.0017025377
1.8984268e-05
-0.0017064551
1.9514601e-05
-0.0017104786
2.0027641e-05
-0.0017146039
2.0518702e-05
-0.0017188262
2.0983604e-05
-0.0017231395
2.1417425e-05
-0.0017275369
2.1815737e-05
-0.0017320106
2.2173799e-05
-0.0017365519
2.2487019e-05
-0.001741151
2.2750856e-05
-0.0017457972
2.2960829e-05
-0.0017504791
2.3112557e-05
-0.0017551839
2.3201628e-05
-0.0017598983
2.3223651e-05
-0.0017646078
2.3174146e-05
-0.0017692968
2.3048487e-05
-0.0017739488
2.2841831e-05
-0.0017785462
2.2549122e-05
-0.0017830701
2.2164978e-05
-0.0017875005
2.1683803e-05
-0.0017918159
2.1099812e-05
-0.0017959939
2.0407158e-05
-0.0018000107
1.9600106e-05
-0.0018038413
1.86733e-05
-0.0018074598
1.762196e-05
-0.0018108395
1.6442267e-05
-0.0018139532
1.5131642e-05
-0.0018167735
1.368907e-05
-0.0018192733
1.2115382e-05
-0.0018214259
1.0413494e-05
-0.001823206
8.588603e-06
-0.0018245897
6.6482411e-06
-0.0018255553
4.6023357e-06
-0.0018260836
2.4631214e-06
-0.0018261584
2.4496064e-07
-0.001825767
-2.0358028e-06
-0.0018249
-4.3612505e-06
-0.0018235525
-6.7123057e-06
-0.0018217233
-9.0689689e-06
-0.0018194156
-1.1410702e-05
-0.0018166369
-1.3716857e-05
-0.0018133986
-1.5967012e-05
-0.0018097166
-1.8141407e-05
-0.0018056103
-2.0221181e-05
-0.0018011029
-2.2188781e-05
-0.0017962209
-2.4028182e-05
-0.0017909937
-2.5725115e-05
-0.0017854532
-2.7267315e-05
-0.0017796335
-2.8644605e-05
-0.0017735703
-2.9849089e-05
-0.0017673003
-3.0875133e-05
-0.0017608609
-3.1719474e-05
-0.0017542899
-3.2381096e-05
-0.0017476246
-3.2861246e-05
-0.0017409016
-3.3163272e-05
-0.0017341562
-3.3292433e-05
-0.0017274226
-3.3255728e-05
-0.0017207327
-3.3061705e-05
-0.0017141166
-3.2720123e-05
-0.0017076021
-3.2241782e-05
-0.0017012145
-3.1638161e-05
-0.0016949765
-3.092129e-05
-0.0016889083
-3.0103301e-05
-0.0016830278
-2.9196387e-05
-0.00167735
-2.8212473e-05
-0.0016718878
-2.7163084e-05
-0.0016666518
-2.6059152e-05
-0.0016616504
-2.4910969e-05
-0.0016568901
-2.3727957e-05
-0.0016523759
-2.2518739e-05
-0.0016481108
-2.129102e-05
-0.0016440967
-2.0051595e-05
-0.0016403345
-1.8806335e-05
-0.0016368237
-1.7560256e-05
-0.0016335633
-1.6317454e-05
-0.0016305516
-1.5081248e-05
-0.0016277864
-1.3854165e-05
-0.0016252651
-1.2638032e-05
-0.0016229851
-1.1433982e-05
-0.0016209434
-1.0242606e-05
-0.0016191373
-9.0638594e-06
-0.0016175642
-7.8973311e-06
-0.0016162216
-6.7420236e-06
-0.0016151072
-5.5968218e-06
-0.0016142194
-4.4598984e-06
-0.0016135567
-3.3298117e-06
-0.0016131181
-2.2038933e-06
-1.0809307e-06
-0.0016248325
6.0665932e-06
-0.0016258662
6.2693652e-06
-0.001626929
6.4435997e-06
-0.0016280288
6.6652068e-06
-0.0016291644
6.8801094e-06
-0.0016303409
7.1249891e-06
-0.0016315591
7.3755108e-06
-0.0016328228
7.6485928e-06
-0.0016341339
7.9333377e-06
-0.0016354956
8.237719e-06
-0.0016369103
8.5569384e-06
-0.0016383812
8.8949108e-06
-0.0016399109
9.2495819e-06
-0.0016415027
9.623001e-06
-0.0016431595
1.001431e-05
-0.0016448845
1.0424665e-05
-0.0016466807
1.0853678e-05
-0.0016485515
1.1302035e-05
-0.0016505
1.1769469e-05
-0.0016525297
1.2256361e-05
-0.0016546437
1.2762381e-05
-0.0016568454
1.3287659e-05
-0.0016591381
1.3831681e-05
-0.0016615249
1.4394302e-05
-0.0016640091
1.4974723e-05
-0.0016665937
1.5572458e-05
-0.0016692817
1.6186306e-05
-0.0016720757
1.6815344e-05
-0.0016749784
1.7457839e-05
-0.0016779919
1.8112311e-05
-0.0016811183
1.8776375e-05
-0.0016843589
1.9447798e-05
-0.0016877151
2.0123762e-05
-0.0016911872
2.08008e-05
-0.0016947753
2.1475633e-05
-0.0016984787
2.214392e-05
-0.0017022961
2.2801653e-05
-0.0017062253
2.3443766e-05
-0.0017102633
2.4065643e-05
-0.0017144062
2.466166e-05
-0.0017186494
2.5226792e-05
-0.0017229871
2.5755119e-05
-0.0017274127
2.6241299e-05
-0.0017319185
2.66796e-05
-0.0017364959
2.7064461e-05
-0.0017411354
2.7390361e-05
-0.0017458264
2.7651839e-05
-0.0017505574
2.7843531e-05
-0.0017553158
2.7960025e-05
-0.0017600881
2.7995913e-05
-0.0017648596
2.7945665e-05
-0.0017696147
2.7803562e-05
-0.0017743364
2.7563614e-05
-0.0017790069
2.7219569e-05
-0.0017836067
2.6764779e-05
-0.0017881152
2.6192344e-05
-0.0017925106
2.5495146e-05
-0.0017967694
2.4666012e-05
-0.0018008672
2.3697919e-05
-0.0018047783
2.2584336e-05
-0.0018084758
2.1319449e-05
-0.0018119321
1.9898637e-05
-0.0018151193
1.8318807e-05
-0.001818009
1.657878e-05
-0.0018205733
1.4679631e-05
-0.0018227847
1.2624973e-05
-0.0018246173
1.0421185e-05
-0.0018260465
8.0774751e-06
-0.0018270502
5.6059464e-06
-0.0018276085
3.0214776e-06
-0.0018277051
3.4152497e-07
-0.0018273268
-2.4141084e-06
-0.0018264643
-5.2236961e-06
-0.0018251125
-8.0641038e-06
-0.0018232704
-1.0911127e-05
-0.0018209412
-1.3739897e-05
-0.0018181326
-1.652543e-05
-0.0018148566
-1.9243012e-05
-0.0018111293
-2.1868725e-05
-0.0018069707
-2.4379739e-05
-0.0018024047
-2.6754797e-05
-0.0017974584
-2.897449e-05
-0.001792162
-3.102153e-05
-0.0017865482
-3.2881057e-05
-0.0017806521
-3.454074e-05
-0.0017745102
-3.5991029e-05
-0.0017681602
-3.7225116e-05
-0.0017616406
-3.8239093e-05
-0.0017549899
-3.9031781e-05
-0.0017482464
-3.9604774e-05
-0.0017414474
-3.9962219e-05
-0.0017346292
-4.0110601e-05
-0.0017278265
-4.005852e-05
-0.0017210717
-3.9816461e-05
-0.0017143954
-3.9396374e-05
-0.0017078258
-3.881147e-05
-0.0017013882
-3.8075764e-05
-0.0016951055
-3.720393e-05
-0.0016889981
-3.6210746e-05
-0.0016830834
-3.5111042e-05
-0.0016773766
-3.3919301e-05
-0.0016718902
-3.2649505e-05
-0.0016666344
-3.1314889e-05
-0.0016616175
-2.9927897e-05
-0.0016568456
-2.8499906e-05
-0.001652323
-2.7041305e-05
-0.0016480526
-2.5561361e-05
-0.001644036
-2.4068235e-05
-0.0016402734
-2.2568957e-05
-0.0016367641
-2.106952e-05
-0.0016335068
-1.9574805e-05
-0.0016304993
-1.8088748e-05
-0.0016277391
-1.6614332e-05
-0.0016252234
-1.5153694e-05
-0.0016229493
-1.3708137e-05
-0.0016209136
-1.2278314e-05
-0.0016191133
-1.0864112e-05
-0.0016175457
-9.4649823e-06
-0.001616208
-8.0796701e-06
-0.0016150981
-6.7067865e-06
-0.0016142139
-5.3440806e-06
-0.0016135539
-3.9897802e-06
-0.0016131172
-2.6406195e-06
-1.295118e-06
-0.0016247334
7.0591522e-06
-0.0016257598
7.2957574e-06
-0.0016268154
7.4991902e-06
-0.001627908
7.7577938e-06
-0.0016290364
8.0085698e-06
-0.0016302057
8.294262e-06
-0.0016314167
8.5864925e-06
-0.0016326731
8.9049909e-06
-0.0016339768
9.2370401e-06
-0.001635331
9.5919459e-06
-0.0016367382
9.964109e-06
-0.0016382014
1.0358106e-05
-0.0016397233
1.0771545e-05
-0.0016413072
1.1206831e-05
-0.0016429558
1.1662977e-05
-0.0016446725
1.2141352e-05
-0.0016464604
1.2641525e-05
-0.0016483227
1.316432e-05
-0.0016502626
1.3709454e-05
-0.0016522837
1.4277403e-05
-0.0016543891
1.4867814e-05
-0.0016565823
1.5480871e-05
-0.0016588667
1.611601e-05
-0.0016612455
1.6773098e-05
-0.001663722
1.7451238e-05
-0.0016662994
1.81499e-05
-0.0016689808
1.8867718e-05
-0.0016717691
1.9603651e-05
-0.001674667
2.0355715e-05
-0.0016776769
2.1122219e-05
-0.001680801
2.1900414e-05
-0.0016840409
2.2687733e-05
-0.0016873981
2.348092e-05
-0.0016908732
2.4275966e-05
-0.0016944667
2.5069075e-05
-0.0016981779
2.5855209e-05
-0.001702006
2.6629717e-05
-0.001705949
2.7386707e-05
-0.0017100041
2.8120803e-05
-0.0017141679
2.8825445e-05
-0.0017184359
2.9494763e-05
-0.0017228026
3.0121827e-05
-0.0017272616
3.0700367e-05
-0.0017318057
3.1223642e-05
-0.0017364263
3.1685088e-05
-0.0017411141
3.2078169e-05
-0.0017458587
3.2396395e-05
-0.0017506485
3.2633368e-05
-0.0017554711
3.2782606e-05
-0.0017603128
3.2837609e-05
-0.0017651588
3.2791713e-05
-0.0017699933
3.2638012e-05
-0.0017747989
3.2369271e-05
-0.0017795573
3.1977937e-05
-0.0017842485
3.1455991e-05
-0.0017888513
3.0795128e-05
-0.001793343
2.9986796e-05
-0.0017976994
2.9022404e-05
-0.001801895
2.7893569e-05
-0.0018059032
2.6592515e-05
-0.0018096961
2.5112354e-05
-0.0018132451
2.3447641e-05
-0.001816521
2.1594766e-05
-0.0018194947
1.9552405e-05
-0.001822137
1.7321923e-05
-0.0018244197
1.4907689e-05
-0.0018263158
1.2317346e-05
-0.0018278002
9.5618695e-06
-0.0018288499
6.6556446e-06
-0.0018294448
3.6163046e-06
-0.0018295678
4.6451928e-07
-0.0018292055
-2.7763336e-06
-0.0018283486
-6.080595e-06
-0.0018269918
-9.4209482e-06
-0.001825134
-1.2768867e-05
-0.0018227789
-1.6095033e-05
-0.0018199343
-1.937001e-05
-0.0018166127
-2.2564673e-05
-0.0018128306
-2.5650835e-05
-0.0018086087
-2.8601584e-05
-0.0018039717
-3.139185e-05
-0.0017989474
-3.3998738e-05
-0.0017935671
-3.6401844e-05
-0.0017878645
-3.8583634e-05
-0.0017818757
-4.0529555e-05
-0.0017756384
-4.2228355e-05
-0.0017691915
-4.3672026e-05
-0.0017625746
-4.4856016e-05
-0.0017558273
-4.5779008e-05
-0.0017489891
-4.6443e-05
-0.0017420983
-4.6853007e-05
-0.0017351921
-4.7016848e-05
-0.0017283058
-4.6944831e-05
-0.0017214727
-4.6649516e-05
-0.0017147239
-4.6145176e-05
-0.0017080878
-4.5447577e-05
-0.0017015901
-4.4573408e-05
-0.001695254
-4.3540122e-05
-0.0016890994
-4.2365263e-05
-0.0016831441
-4.1066414e-05
-0.0016774027
-3.9660709e-05
-0.0016718875
-3.8164668e-05
-0.0016666085
-3.6593896e-05
-0.0016615733
-3.4963042e-05
-0.0016567878
-3.3285469e-05
-0.0016522557
-3.1573356e-05
-0.0016479795
-2.9837544e-05
-0.0016439602
-2.8087555e-05
-0.0016401976
-2.6331574e-05
-0.0016366906
-2.4576551e-05
-0.0016334373
-2.282813e-05
-0.0016304352
-2.1090841e-05
-0.0016276814
-1.9368092e-05
-0.0016251728
-1.7662301e-05
-0.001622906
-1.5974908e-05
-0.0016208777
-1.4306594e-05
-0.0016190847
-1.2657147e-05
-0.0016175238
-1.102585e-05
-0.0016161923
-9.4111589e-06
-0.0016150878
-7.8113828e-06
-0.001614208
-6.2238165e-06
-0.0016135515
-4.6463334e-06
-0.001613117
-3.0750367e-06
-1.5081629e-06
-0.0016246175
8.0432512e-06
-0.0016256355
8.3137062e-06
-0.0016266826
8.5463793e-06
-0.0016277668
8.8419873e-06
-0.0016288869
9.1286394e-06
-0.0016300478
9.4551208e-06
-0.0016312503
9.789019e-06
-0.0016324982
1.0152869e-05
-0.0016337933
1.0532135e-05
-0.0016351388
1.0937456e-05
-0.0016365371
1.1362433e-05
-0.0016379913
1.1812307e-05
-0.0016395041
1.2284352e-05
-0.0016410786
1.2781335e-05
-0.0016427178
1.3302146e-05
-0.0016444248
1.3848373e-05
-0.0016462028
1.4419552e-05
-0.0016480552
1.5016658e-05
-0.0016499851
1.5639401e-05
-0.0016519961
1.6288365e-05
-0.0016540915
1.6963188e-05
-0.0016562747
1.7664122e-05
-0.0016585493
1.8390569e-05
-0.0016609186
1.9142423e-05
-0.0016633861
1.9918704e-05
-0.001665955
2.0718858e-05
-0.0016686287
2.1541369e-05
-0.0016714101
2.2385096e-05
-0.0016743022
2.3247822e-05
-0.0016773077
2.4127661e-05
-0.0016804288
2.5021522e-05
-0.0016836676
2.5926518e-05
-0.0016870256
2.6838976e-05
-0.001690504
2.7754357e-05
-0.0016941033
2.8668366e-05
-0.0016978234
2.9575285e-05
-0.0017016635
3.046983e-05
-0.0017056221
3.134529e-05
-0.0017096968
3.219554e-05
-0.0017138844
3.3013085e-05
-0.0017181809
3.3791206e-05
-0.001722581
3.4521953e-05
-0.0017270788
3.5198113e-05
-0.001731667
3.5811909e-05
-0.0017363377
3.6355745e-05
-0.0017410815
3.6822025e-05
-0.0017458883
3.7203174e-05
-0.0017507466
3.7491694e-05
-0.001755644
3.7679957e-05
-0.0017605667
3.7760282e-05
-0.0017654997
3.772477e-05
-0.0017704269
3.7565221e-05
-0.0017753307
3.7273035e-05
-0.001780192
3.6839238e-05
-0.0017849903
3.6254313e-05
-0.0017897036
3.5508424e-05
-0.0017943083
3.4591472e-05
-0.0017987792
3.3493337e-05
-0.0018030898
3.2204181e-05
-0.0018072122
3.0714911e-05
-0.0018111174
2.901751e-05
-0.0018147754
2.7105678e-05
-0.0018181559
2.4975285e-05
-0.0018212284
2.2624891e-05
-0.0018239627
2.0056193e-05
-0.0018263294
1.7274391e-05
-0.0018283005
1.4288489e-05
-0.00182985
1.1111336e-05
-0.0018309541
7.7597271e-06
-0.001831592
4.2541827e-06
-0.0018317462
6.1872886e-07
-0.001831403
-3.119543e-06
-0.0018305527
-6.9308932e-06
-0.0018291899
-1.0783677e-05
-0.0018273139
-1.4644912e-05
-0.0018249282
-1.8480686e-05
-0.0018220413
-2.2256976e-05
-0.0018186658
-2.5940108e-05
-0.0018148192
-2.9497495e-05
-0.0018105228
-3.2898007e-05
-0.001805802
-3.6112633e-05
-0.0018006858
-3.911487e-05
-0.0017952066
-4.1881082e-05
-0.0017893993
-4.4390962e-05
-0.0017833012
-4.6627652e-05
-0.0017769514
-4.8578143e-05
-0.0017703902
-5.0233191e-05
-0.0017636586
-5.1587606e-05
-0.0017567977
-5.2639957e-05
-0.001749848
-5.3392712e-05
-0.0017428491
-5.3851846e-05
-0.0017358394
-5.4026632e-05
-0.001728855
-5.3929226e-05
-0.0017219301
-5.3574419e-05
-0.0017150963
-5.2978973e-05
-0.0017083825
-5.2161379e-05
-0.0017018147
-5.1141166e-05
-0.0016954161
-4.9938727e-05
-0.0016892068
-4.8574518e-05
-0.0016832043
-4.7069005e-05
-0.0016774229
-4.5442091e-05
-0.0016718746
-4.3712927e-05
-0.0016665689
-4.1899565e-05
-0.0016615131
-4.0018915e-05
-0.0016567122
-3.8086368e-05
-0.0016521696
-3.6115917e-05
-0.0016478872
-3.4119986e-05
-0.0016438653
-3.2109458e-05
-0.0016401032
-3.0093657e-05
-0.0016365993
-2.8080475e-05
-0.0016333511
-2.6076289e-05
-0.0016303557
-2.4086191e-05
-0.0016276099
-2.2113979e-05
-0.0016251098
-2.0162314e-05
-0.001622852
-1.8232737e-05
-0.0016208327
-1.632592e-05
-0.0016190483
-1.4441511e-05
-0.0016174956
-1.2578588e-05
-0.0016161715
-1.0735283e-05
-0.0016150733
-8.9095692e-06
-0.0016141988
-7.0982506e-06
-0.0016135464
-5.2988188e-06
-0.0016131147
-3.5067079e-06
-1.7198533e-06
-0.0016244879
9.0177273e-06
-0.0016254963
9.3220546e-06
-0.0016265339
9.5839995e-06
-0.0016276085
9.9166146e-06
-0.001628719
1.0239133e-05
-0.0016298703
1.0606368e-05
-0.0016310631
1.0981876e-05
-0.0016323013
1.1390995e-05
-0.0016335865
1.1817371e-05
-0.001634922
1.2272976e-05
-0.0016363102
1.2750613e-05
-0.0016377541
1.3256189e-05
-0.0016392564
1.3786652e-05
-0.0016408202
1.4345135e-05
-0.0016424484
1.493041e-05
-0.0016441444
1.5544296e-05
-0.0016459111
1.6186305e-05
-0.001647752
1.6857573e-05
-0.0016496704
1.7557817e-05
-0.0016516698
1.8287742e-05
-0.0016537536
1.9046992e-05
-0.0016559254
1.9835905e-05
-0.0016581887
2.0653864e-05
-0.0016605471
2.1500807e-05
-0.0016630041
2.2375694e-05
-0.0016655632
2.3277959e-05
-0.0016682278
2.4205963e-05
-0.0016710012
2.5158483e-05
-0.0016738864
2.6133088e-05
-0.0016768865
2.712772e-05
-0.0016800039
2.8138966e-05
-0.0016832411
2.9163641e-05
-0.0016865998
3.0197674e-05
-0.0016900814
3.123602e-05
-0.001693687
3.2273903e-05
-0.0016974166
3.330494e-05
-0.00170127
3.432323e-05
-0.001705246
3.5321258e-05
-0.0017093426
3.6292154e-05
-0.001713557
3.7227491e-05
-0.0017178855
3.8119701e-05
-0.0017223233
3.8959802e-05
-0.0017268648
3.9739623e-05
-0.0017315033
4.0450324e-05
-0.0017362308
4.1083235e-05