/*--------------------------------*- C++ -*----------------------------------*\
| =========                 |                                                 |
| \\      /  F ield         | foam-extend: Open Source CFD                    |
|  \\    /   O peration     | Version:     4.1                                |
|   \\  /    A nd           | Web:         http://www.foam-extend.org         |
|    \\/     M anipulation  |                                                 |
\*---------------------------------------------------------------------------*/
FoamFile
{
    version     2.0;
    format      ascii;
    class       volVectorField;
    location    "1.4";
    object      U;
}
// * * * * * * * * * * * * * * * * * * * * * * * * * * * * * * * * * * * * * //

dimensions      [0 1 -1 0 0 0 0];

internalField   nonuniform List<vector> 
16796
(
(1.0069769 -0.00021059294 0)
(1.0080545 -0.00021753098 0)
(1.0084224 -0.00022352744 0)
(1.0093004 -0.00023112968 0)
(1.0098722 -0.00023853814 0)
(1.0106884 -0.00024696001 0)
(1.011382 -0.00025559938 0)
(1.0122021 -0.00026500761 0)
(1.0129843 -0.00027483305 0)
(1.0138418 -0.00028533267 0)
(1.0147014 -0.00029635483 0)
(1.0156153 -0.00030802296 0)
(1.0165514 -0.00032027488 0)
(1.0175344 -0.00033317209 0)
(1.0185508 -0.0003466911 0)
(1.0196128 -0.00036086312 0)
(1.0207156 -0.00037567963 0)
(1.0218656 -0.00039115524 0)
(1.0230617 -0.00040728504 0)
(1.024308 -0.00042407263 0)
(1.0256051 -0.00044151083 0)
(1.0269558 -0.00045959388 0)
(1.0283614 -0.00047830861 0)
(1.0298243 -0.00049763925 0)
(1.0313459 -0.00051756331 0)
(1.0329281 -0.00053805277 0)
(1.0345726 -0.000559072 0)
(1.036281 -0.00058057727 0)
(1.0380544 -0.0006025155 0)
(1.0398943 -0.00062482309 0)
(1.0418016 -0.00064742522 0)
(1.0437771 -0.00067023451 0)
(1.0458212 -0.00069315083 0)
(1.0479341 -0.00071606073 0)
(1.0501156 -0.00073883706 0)
(1.0523652 -0.00076133998 0)
(1.0546817 -0.00078341694 0)
(1.0570637 -0.00080490461 0)
(1.0595092 -0.0008256297 0)
(1.0620156 -0.00084541162 0)
(1.0645799 -0.00086406394 0)
(1.0671983 -0.00088139733 0)
(1.0698667 -0.00089722131 0)
(1.0725802 -0.00091134669 0)
(1.0753335 -0.00092358708 0)
(1.0781206 -0.00093376004 0)
(1.0809351 -0.00094168744 0)
(1.0837701 -0.00094719509 0)
(1.0866179 -0.0009501114 0)
(1.0894706 -0.00095026539 0)
(1.0923197 -0.00094748409 0)
(1.095156 -0.00094158967 0)
(1.0979701 -0.0009323966 0)
(1.1007516 -0.00091970956 0)
(1.1034899 -0.00090332216 0)
(1.1061734 -0.00088301746 0)
(1.1087901 -0.00085857025 0)
(1.1113273 -0.00082975159 0)
(1.1137714 -0.00079633573 0)
(1.1161083 -0.00075810921 0)
(1.1183232 -0.00071488176 0)
(1.1204008 -0.00066649886 0)
(1.1223256 -0.00061285464 0)
(1.1240814 -0.00055390487 0)
(1.1256524 -0.00048967886 0)
(1.1270228 -0.00042028953 0)
(1.1281773 -0.00034594081 0)
(1.1291014 -0.00026693205 0)
(1.1297815 -0.00018365803 0)
(1.1302055 -9.6607961e-05 0)
(1.1303629 -6.3518059e-06 0)
(1.130245 8.6454038e-05 0)
(1.1298451 0.00018109301 0)
(1.129159 0.00027679906 0)
(1.1281846 0.00037275856 0)
(1.1269225 0.00046813921 0)
(1.1253757 0.0005621019 0)
(1.1235498 0.00065381753 0)
(1.1214528 0.00074248206 0)
(1.119095 0.00082733041 0)
(1.116489 0.00090764892 0)
(1.1136494 0.00098278688 0)
(1.1105927 0.0010521653 0)
(1.1073371 0.0011152858 0)
(1.103902 0.0011717351 0)
(1.1003079 0.0012211911 0)
(1.0965763 0.0012634232 0)
(1.092729 0.0012982952 0)
(1.0887884 0.0013257614 0)
(1.0847765 0.0013458665 0)
(1.0807154 0.0013587371 0)
(1.0766265 0.0013645794 0)
(1.0725305 0.0013636676 0)
(1.0684471 0.0013563381 0)
(1.0643952 0.0013429771 0)
(1.060392 0.0013240128 0)
(1.0564539 0.0012999026 0)
(1.0525954 0.001271125 0)
(1.0488299 0.0012381671 0)
(1.0451692 0.0012015179 0)
(1.0416236 0.0011616577 0)
(1.0382019 0.0011190521 0)
(1.0349118 0.0010741447 0)
(1.0317595 0.0010273526 0)
(1.02875 0.00097906177 0)
(1.0258874 0.00092962503 0)
(1.0231744 0.00087935926 0)
(1.0206132 0.00082854517 0)
(1.0182049 0.00077742679 0)
(1.0159503 0.00072621239 0)
(1.0138492 0.00067507515 0)
(1.0119013 0.00062415527 0)
(1.0101055 0.00057356113 0)
(1.0084611 0.00052337229 0)
(1.0069662 0.0004736403 0)
(1.0056201 0.0004243933 0)
(1.0044204 0.00037563468 0)
(1.0033672 0.00032735141 0)
(1.0024564 0.00027950714 0)
(1.0016911 0.00023205921 0)
(1.0010633 0.00018493769 0)
(1.0005834 0.00013808466 0)
(1.0002322 9.1397514e-05 0)
(1.0000384 4.4824916e-05 0)
(1.0069665 -0.00063130183 0)
(1.0080428 -0.00065220001 0)
(1.0084102 -0.00067016715 0)
(1.0092873 -0.00069301474 0)
(1.0098584 -0.00071521123 0)
(1.0106738 -0.00074048916 0)
(1.0113667 -0.00076638481 0)
(1.012186 -0.00079460622 0)
(1.0129676 -0.00082406195 0)
(1.0138242 -0.00085554775 0)
(1.0146832 -0.00088859188 0)
(1.0155962 -0.00092357587 0)
(1.0165316 -0.00096030558 0)
(1.0175138 -0.00099897068 0)
(1.0185294 -0.0010394973 0)
(1.0195906 -0.0010819815 0)
(1.0206925 -0.0011263965 0)
(1.0218417 -0.0011727872 0)
(1.0230369 -0.0012211386 0)
(1.0242824 -0.0012714622 0)
(1.0255786 -0.0013237365 0)
(1.0269284 -0.0013779447 0)
(1.0283332 -0.0014340477 0)
(1.0297952 -0.0014919985 0)
(1.031316 -0.00155173 0)
(1.0328975 -0.0016131586 0)
(1.0345413 -0.0016761777 0)
(1.036249 -0.0017406565 0)
(1.038022 -0.0018064364 0)
(1.0398615 -0.0018733271 0)
(1.0417685 -0.0019411046 0)
(1.0437439 -0.0020095077 0)
(1.0457881 -0.0020782365 0)
(1.0479013 -0.0021469519 0)
(1.0500833 -0.0022152733 0)
(1.0523336 -0.0022827824 0)
(1.0546512 -0.0023490229 0)
(1.0570346 -0.002413506 0)
(1.0594818 -0.0024757133 0)
(1.0619903 -0.0025351044 0)
(1.064557 -0.0025911213 0)
(1.0671783 -0.0026431972 0)
(1.06985 -0.0026907615 0)
(1.0725673 -0.0027332475 0)
(1.0753248 -0.0027700962 0)
(1.0781168 -0.0028007601 0)
(1.0809367 -0.0028247045 0)
(1.0837775 -0.0028414054 0)
(1.0866317 -0.0028503465 0)
(1.0894914 -0.0028510128 0)
(1.092348 -0.0028428824 0)
(1.0951923 -0.0028254189 0)
(1.0980148 -0.0027980621 0)
(1.1008052 -0.0027602221 0)
(1.1035527 -0.0027112758 0)
(1.1062457 -0.0026505681 0)
(1.1088722 -0.002577419 0)
(1.1114193 -0.0024911376 0)
(1.1138734 -0.0023910422 0)
(1.1162202 -0.0022764882 0)
(1.1184449 -0.0021469008 0)
(1.1205322 -0.0020018123 0)
(1.1224661 -0.0018409011 0)
(1.1242307 -0.0016640309 0)
(1.1258099 -0.0014712864 0)
(1.1271879 -0.0012630038 0)
(1.1283492 -0.0010397935 0)
(1.1292792 -0.00080255426 0)
(1.1299645 -0.00055247498 0)
(1.1303927 -0.00029103268 0)
(1.1305532 -1.9960381e-05 0)
(1.1304374 0.00025874079 0)
(1.1300385 0.00054289217 0)
(1.1293524 0.00083019192 0)
(1.1283769 0.0011182039 0)
(1.1271128 0.0014044322 0)
(1.1255629 0.0016863624 0)
(1.1237328 0.0019615107 0)
(1.1216308 0.0022274692 0)
(1.119267 0.0024819477 0)
(1.1166543 0.0027228106 0)
(1.1138073 0.0029481115 0)
(1.1107426 0.0031561189 0)
(1.1074784 0.0033453428 0)
(1.1040342 0.0035145483 0)
(1.1004307 0.0036627736 0)
(1.0966895 0.0037893306 0)
(1.0928326 0.0038938141 0)
(1.0888822 0.0039760894 0)
(1.0848608 0.0040362923 0)
(1.0807904 0.0040748051 0)
(1.0766924 0.0040922469 0)
(1.0725877 0.0040894408 0)
(1.0684961 0.0040673968 0)
(1.0644365 0.0040272731 0)
(1.0604262 0.0039703544 0)
(1.0564816 0.0038980122 0)
(1.0526172 0.003811681 0)
(1.0488465 0.0037128219 0)
(1.0451811 0.0036029005 0)
(1.0416314 0.0034833568 0)
(1.0382064 0.0033555867 0)
(1.0349134 0.0032209195 0)
(1.0317588 0.0030806059 0)
(1.0287474 0.0029358028 0)
(1.0258834 0.0027875672 0)
(1.0231694 0.002636849 0)
(1.0206075 0.0024844894 0)
(1.0181989 0.0023312194 0)
(1.0159442 0.0021776632 0)
(1.0138432 0.0020243393 0)
(1.0118956 0.0018716675 0)
(1.0101003 0.0017199722 0)
(1.0084563 0.0015694915 0)
(1.0069621 0.001420379 0)
(1.0056167 0.0012727185 0)
(1.0044176 0.0011265194 0)
(1.0033649 0.00098174214 0)
(1.0024547 0.00083827617 0)
(1.0016899 0.00069599391 0)
(1.0010625 0.00055468291 0)
(1.0005829 0.0004141716 0)
(1.0002321 0.0002741467 0)
(1.0000384 0.00013446018 0)
(1.0069457 -0.0010513319 0)
(1.0080194 -0.0010862214 0)
(1.008386 -0.0011161565 0)
(1.0092611 -0.0011542751 0)
(1.0098311 -0.0011912617 0)
(1.0106447 -0.0012334143 0)
(1.0113363 -0.0012765723 0)
(1.0121541 -0.00132362 0)
(1.0129341 -0.0013727124 0)
(1.0137893 -0.0014251931 0)
(1.0146467 -0.001480264 0)
(1.0155582 -0.0015385695 0)
(1.0164921 -0.0015997809 0)
(1.0174726 -0.0016642186 0)
(1.0184866 -0.0017317579 0)
(1.0195461 -0.0018025618 0)
(1.0206463 -0.0018765853 0)
(1.0217937 -0.0019539061 0)
(1.0229873 -0.0020344997 0)
(1.0242309 -0.0021183876 0)
(1.0255254 -0.0022055355 0)
(1.0268734 -0.0022959174 0)
(1.0282765 -0.0023894695 0)
(1.0297368 -0.0024861157 0)
(1.031256 -0.0025857456 0)
(1.032836 -0.0026882217 0)
(1.0344784 -0.002793368 0)
(1.0361849 -0.0029009681 0)
(1.0379568 -0.0030107588 0)
(1.0397955 -0.0031224245 0)
(1.041702 -0.0032355932 0)
(1.0436772 -0.0033498306 0)
(1.0457215 -0.0034646384 0)
(1.0478353 -0.0035794519 0)
(1.0500183 -0.0036936381 0)
(1.0522702 -0.0038065003 0)
(1.0545899 -0.0039172783 0)
(1.056976 -0.0040251579 0)
(1.0594266 -0.0041292748 0)
(1.0619392 -0.0042287274 0)
(1.0645108 -0.0043225847 0)
(1.0671379 -0.0044099002 0)
(1.0698163 -0.0044897203 0)
(1.0725412 -0.0045610971 0)
(1.0753074 -0.0046230949 0)
(1.078109 -0.0046747962 0)
(1.0809396 -0.0047153032 0)
(1.0837923 -0.0047437361 0)
(1.0866594 -0.004759226 0)
(1.089533 -0.0047609055 0)
(1.0924045 -0.0047478953 0)
(1.0952649 -0.0047192904 0)
(1.0981043 -0.0046741465 0)
(1.1009124 -0.004611469 0)
(1.1036784 -0.0045302082 0)
(1.1063906 -0.0044292617 0)
(1.1090366 -0.0043074863 0)
(1.1116036 -0.0041637218 0)
(1.1140776 -0.0039968253 0)
(1.1164444 -0.0038057176 0)
(1.1186887 -0.0035894379 0)
(1.1207951 -0.0033472068 0)
(1.1227475 -0.003078491 0)
(1.1245296 -0.0027830681 0)
(1.1261252 -0.0024610864 0)
(1.1275182 -0.0021131154 0)
(1.1286932 -0.0017401829 0)
(1.1296352 -0.0013437974 0)
(1.1303307 -0.00092595092 0)
(1.1307672 -0.00048911245 0)
(1.1309341 -3.6179022e-05 0)
(1.1308226 0.00042952388 0)
(1.130426 0.00090436181 0)
(1.12974 0.0013844742 0)
(1.1287625 0.0018657882 0)
(1.1274941 0.0023441268 0)
(1.125938 0.0028152839 0)
(1.1240997 0.003275103 0)
(1.1219875 0.0037195549 0)
(1.1196118 0.0041448065 0)
(1.1169856 0.0045472826 0)
(1.1141235 0.0049237239 0)
(1.1110425 0.0052712308 0)
(1.1077608 0.0055873078 0)
(1.1042983 0.0058698863 0)
(1.1006758 0.006117356 0)
(1.0969151 0.0063285649 0)
(1.0930385 0.0065028367 0)
(1.0890685 0.0066399484 0)
(1.0850277 0.0067401318 0)
(1.0809382 0.0068040318 0)
(1.0768219 0.0068326917 0)
(1.0726997 0.0068274967 0)
(1.0685916 0.0067901454 0)
(1.0645164 0.0067225846 0)
(1.0604919 0.0066269726 0)
(1.0565341 0.0065056122 0)
(1.052658 0.0063609112 0)
(1.0488767 0.0061953205 0)
(1.0452021 0.0060112974 0)
(1.0416444 0.0058112546 0)
(1.0382126 0.0055975297 0)
(1.034914 0.0053723478 0)
(1.0317548 0.0051378006 0)
(1.0287399 0.004895822 0)
(1.0258732 0.004648178 0)
(1.0231574 0.0043964538 0)
(1.0205943 0.0041420525 0)
(1.0181852 0.0038861927 0)
(1.0159305 0.0036299132 0)
(1.0138299 0.0033740764 0)
(1.011883 0.0031193797 0)
(1.0100887 0.0028663603 0)
(1.008446 0.0026154119 0)
(1.006953 0.0023667869 0)
(1.005609 0.0021206215 0)
(1.0044112 0.0018769271 0)
(1.0033599 0.0016356346 0)
(1.002451 0.0013965556 0)
(1.0016873 0.0011594747 0)
(1.0010609 0.00092403262 0)
(1.000582 0.00068994258 0)
(1.0002317 0.00045667472 0)
(1.0000383 0.00022398427 0)
(1.0069152 -0.0014700011 0)
(1.0079849 -0.0015188577 0)
(1.0083503 -0.0015607918 0)
(1.0092224 -0.0016141729 0)
(1.0097906 -0.0016659612 0)
(1.0106017 -0.00172498 0)
(1.0112913 -0.0017853969 0)
(1.0121066 -0.001851256 0)
(1.0128846 -0.0019199686 0)
(1.0137374 -0.0019934197 0)
(1.0145926 -0.0020704891 0)
(1.0155017 -0.0021520814 0)
(1.0164332 -0.0022377357 0)
(1.0174113 -0.0023279029 0)
(1.0184229 -0.002422409 0)
(1.0194799 -0.0025214848 0)
(1.0205776 -0.0026250693 0)
(1.0217224 -0.002733274 0)
(1.0229133 -0.0028460677 0)
(1.0241543 -0.0029634836 0)
(1.0254461 -0.003085477 0)
(1.0267916 -0.003212015 0)
(1.028192 -0.003343012 0)
(1.0296498 -0.0034783648 0)
(1.0311666 -0.0036179225 0)
(1.0327443 -0.0037614958 0)
(1.0343847 -0.0039088417 0)
(1.0360893 -0.0040596606 0)
(1.0378597 -0.0042135873 0)
(1.0396972 -0.004370183 0)
(1.0416029 -0.0045289303 0)
(1.0435777 -0.0046892241 0)
(1.0456222 -0.0048503699 0)
(1.0477368 -0.0050115803 0)
(1.0499213 -0.0051719718 0)
(1.0521754 -0.0053305719 0)
(1.0544982 -0.0054863188 0)
(1.0568883 -0.0056380744 0)
(1.0593439 -0.00578463 0)
(1.0618627 -0.005924724 0)
(1.0644416 -0.0060570525 0)
(1.0670773 -0.0061802884 0)
(1.0697656 -0.006293094 0)
(1.0725019 -0.0063941369 0)
(1.0752809 -0.0064821005 0)
(1.0780969 -0.0065556914 0)
(1.0809435 -0.0066136419 0)
(1.0838137 -0.0066547064 0)
(1.0867 -0.006677653 0)
(1.0895945 -0.0066812492 0)
(1.0924884 -0.0066642439 0)
(1.0953726 -0.006625348 0)
(1.0982372 -0.006563216 0)
(1.1010719 -0.0064764312 0)
(1.1038656 -0.0063634995 0)
(1.1066064 -0.006222853 0)
(1.1092818 -0.0060528687 0)
(1.1118786 -0.0058519011 0)
(1.1143826 -0.0056183323 0)
(1.1167793 -0.0053506369 0)
(1.1190531 -0.0050474597 0)
(1.1211882 -0.0047077036 0)
(1.1231683 -0.0043306214 0)
(1.1249768 -0.0039159063 0)
(1.1265972 -0.003463775 0)
(1.128013 -0.0029750387 0)
(1.1292084 -0.0024511547 0)
(1.1301685 -0.001894257 0)
(1.1308794 -0.0013071609 0)
(1.1313284 -0.0006933507 0)
(1.1315049 -5.6917656e-05 0)
(1.1313998 0.00059745841 0)
(1.1310064 0.0012646561 0)
(1.1303203 0.0019392323 0)
(1.1293396 0.0026154602 0)
(1.1280648 0.0032874643 0)
(1.1264992 0.0039493316 0)
(1.1246485 0.0045952185 0)
(1.122521 0.0052194611 0)
(1.1201274 0.0058166704 0)
(1.1174807 0.0063818196 0)
(1.114596 0.0069103263 0)
(1.1114904 0.0073981126 0)
(1.1081825 0.0078416698 0)
(1.1046924 0.0082380894 0)
(1.1010414 0.0085851091 0)
(1.0972515 0.0088811122 0)
(1.0933454 0.0091251535 0)
(1.089346 0.0093169268 0)
(1.0852761 0.0094567691 0)
(1.0811582 0.0095455991 0)
(1.0770144 0.009584899 0)
(1.072866 0.0095766321 0)
(1.0687331 0.0095232041 0)
(1.0646348 0.0094273693 0)
(1.0605888 0.0092921795 0)
(1.0566115 0.0091208878 0)
(1.0527177 0.0089168936 0)
(1.0489208 0.0086836547 0)
(1.0452324 0.0084246353 0)
(1.0416629 0.0081432343 0)
(1.038221 0.0078427423 0)
(1.0349141 0.0075262892 0)
(1.0317481 0.0071968146 0)
(1.028728 0.0068570344 0)
(1.0258574 0.006509426 0)
(1.0231388 0.0061562117 0)
(1.0205741 0.0057993562 0)
(1.0181643 0.0054405637 0)
(1.0159095 0.0050812852 0)
(1.0138096 0.0047227238 0)
(1.0118639 0.00436585 0)
(1.0100712 0.0040114097 0)
(1.0084303 0.003659947 0)
(1.0069394 0.0033118082 0)
(1.0055974 0.0029671767 0)
(1.0044017 0.0026260609 0)
(1.0033524 0.0022883571 0)
(1.0024453 0.0019537938 0)
(1.0016833 0.0016220634 0)
(1.0010583 0.0012926552 0)
(1.0005806 0.0009651626 0)
(1.0002311 0.00063883514 0)
(1.0000383 0.00031332834 0)
(1.006875 -0.0018869527 0)
(1.0079396 -0.001949791 0)
(1.0083034 -0.0020037466 0)
(1.0091715 -0.0020724084 0)
(1.0097374 -0.0021390108 0)
(1.0105451 -0.0022149079 0)
(1.011232 -0.0022925886 0)
(1.0120441 -0.0023772621 0)
(1.0128192 -0.0024655913 0)
(1.0136689 -0.0025600059 0)
(1.0145211 -0.0026590615 0)
(1.0154271 -0.002763925 0)
(1.0163554 -0.002874003 0)
(1.0173303 -0.002989879 0)
(1.0183386 -0.003111331 0)
(1.0193922 -0.0032386596 0)
(1.0204865 -0.0033717901 0)
(1.0216279 -0.0035108708 0)
(1.0228153 -0.0036558664 0)
(1.0240527 -0.0038068251 0)
(1.025341 -0.0039636953 0)
(1.0266829 -0.0041264407 0)
(1.0280799 -0.0042949571 0)
(1.0295343 -0.0044691181 0)
(1.0310478 -0.0046487355 0)
(1.0326226 -0.004833572 0)
(1.0342601 -0.0050233209 0)
(1.0359623 -0.0052176026 0)
(1.0377305 -0.0054159532 0)
(1.0395664 -0.0056178138 0)
(1.0414709 -0.0058225245 0)
(1.0434452 -0.0060293124 0)
(1.04549 -0.0062372897 0)
(1.0476055 -0.0064454487 0)
(1.049792 -0.0066526579 0)
(1.052049 -0.0068576707 0)
(1.0543758 -0.0070591252 0)
(1.0567712 -0.0072555603 0)
(1.0592335 -0.0074454231 0)
(1.0617603 -0.0076270914 0)
(1.0643489 -0.0077988862 0)
(1.0669959 -0.0079590973 0)
(1.0696974 -0.0081059976 0)
(1.0724487 -0.0082378649 0)
(1.0752448 -0.0083529934 0)
(1.0780799 -0.0084497041 0)
(1.0809477 -0.0085263472 0)
(1.0838413 -0.0085812979 0)
(1.0867532 -0.0086129446 0)
(1.0896753 -0.0086196717 0)
(1.092599 -0.0085998359 0)
(1.095515 -0.0085517424 0)
(1.0984134 -0.0084736212 0)
(1.1012836 -0.0083636096 0)
(1.1041142 -0.0082197449 0)
(1.1068932 -0.0080399709 0)
(1.1096078 -0.0078221621 0)
(1.1122444 -0.0075641686 0)
(1.1147886 -0.0072638808 0)
(1.1172252 -0.0069193146 0)
(1.1195385 -0.0065287122 0)
(1.1217121 -0.0060906563 0)
(1.1237293 -0.0056041876 0)
(1.1255731 -0.0050689219 0)
(1.1272265 -0.0044851569 0)
(1.1286728 -0.0038539612 0)
(1.1298958 -0.0031772413 0)
(1.1308801 -0.0024577777 0)
(1.1316115 -0.0016992315 0)
(1.1320774 -0.00090612321 0)
(1.1322666 -8.3760125e-05 0)
(1.1321702 0.00076180784 0)
(1.1317812 0.0016239495 0)
(1.1310952 0.0024956077 0)
(1.1301102 0.0033693737 0)
(1.1288269 0.0042376415 0)
(1.1272486 0.0050927611 0)
(1.1253812 0.0059271703 0)
(1.1232332 0.0067335397 0)
(1.1208155 0.0075048944 0)
(1.1181414 0.0082347265 0)
(1.1152263 0.0089171024 0)
(1.1120877 0.0095467407 0)
(1.1087446 0.010119097 0)
(1.1052175 0.010630405 0)
(1.1015281 0.011077738 0)
(1.0976991 0.011459006 0)
(1.0937533 0.011772994 0)
(1.0897143 0.012019319 0)
(1.0856053 0.012198433 0)
(1.0814493 0.012311548 0)
(1.0772687 0.012360607 0)
(1.0730851 0.01234818 0)
(1.068919 0.012277412 0)
(1.0647897 0.012151896 0)
(1.0607151 0.011975612 0)
(1.0567117 0.011752799 0)
(1.0527944 0.011487881 0)
(1.0489766 0.011185353 0)
(1.04527 0.010849715 0)
(1.0416847 0.010485377 0)
(1.0382295 0.010096605 0)
(1.0349116 0.0096874489 0)
(1.0317369 0.0092617123 0)
(1.0287099 0.0088229028 0)
(1.0258342 0.0083742163 0)
(1.0231122 0.007918516 0)
(1.0205455 0.0074583295 0)
(1.0181348 0.0069958458 0)
(1.0158803 0.0065329252 0)
(1.0137814 0.0060711067 0)
(1.0118374 0.0056116286 0)
(1.0100469 0.0051554388 0)
(1.0084086 0.0047032247 0)
(1.0069205 0.004255419 0)
(1.0055814 0.0038122448 0)
(1.0043886 0.0033736994 0)
(1.0033421 0.0029396373 0)
(1.0024376 0.0025096959 0)
(1.0016778 0.0020834684 0)
(1.0010548 0.0016602845 0)
(1.0005786 0.0012396124 0)
(1.0002303 0.00082047102 0)
(1.0000381 0.00040241264 0)
(1.0068259 -0.002301579 0)
(1.007884 -0.0023783888 0)
(1.0082459 -0.0024443839 0)
(1.009109 -0.0025283244 0)
(1.009672 -0.002609747 0)
(1.0104754 -0.0027025148 0)
(1.0111589 -0.0027974504 0)
(1.0119671 -0.0029009189 0)
(1.0127386 -0.0030088397 0)
(1.0135843 -0.0031241841 0)
(1.0144327 -0.0032451853 0)
(1.0153348 -0.0033732722 0)
(1.0162592 -0.0035077206 0)
(1.01723 -0.0036492474 0)
(1.0182342 -0.0037975846 0)
(1.0192836 -0.0039531051 0)
(1.0203736 -0.0041157231 0)
(1.0215106 -0.0042856266 0)
(1.0226936 -0.0044627796 0)
(1.0239266 -0.0046472494 0)
(1.0252105 -0.004838981 0)
(1.026548 -0.005037939 0)
(1.0279406 -0.005244005 0)
(1.0293908 -0.0054570334 0)
(1.0309003 -0.0056768035 0)
(1.0324712 -0.0059030342 0)
(1.0341053 -0.0061353595 0)
(1.0358043 -0.0063733243 0)
(1.0375699 -0.0066163703 0)
(1.0394036 -0.0068638232 0)
(1.0413067 -0.007114885 0)
(1.0432802 -0.0073686194 0)
(1.0453251 -0.0076239497 0)
(1.0474418 -0.007879652 0)
(1.0496306 -0.0081343509 0)
(1.0518911 -0.0083865297 0)
(1.0542228 -0.0086345294 0)
(1.0566246 -0.0088765688 0)
(1.059095 -0.0091107525 0)
(1.0616318 -0.0093350983 0)
(1.0642323 -0.0095475517 0)
(1.0668933 -0.0097460172 0)
(1.069611 -0.0099283745 0)
(1.072381 -0.010092505 0)
(1.0751982 -0.010236306 0)
(1.0780571 -0.0103577 0)
(1.0809512 -0.010454643 0)
(1.0838739 -0.010525113 0)
(1.0868177 -0.010567098 0)
(1.0897744 -0.010578578 0)
(1.0927353 -0.010557489 0)
(1.095691 -0.010501704 0)
(1.0986316 -0.010408997 0)
(1.1015461 -0.010277029 0)
(1.1044229 -0.010103334 0)
(1.1072498 -0.0098853375 0)
(1.1100135 -0.0096203802 0)
(1.1127001 -0.0093057799 0)
(1.1152945 -0.0089389111 0)
(1.1177813 -0.0085173113 0)
(1.1201442 -0.008038806 0)
(1.1223662 -0.0075016494 0)
(1.1244301 -0.006904669 0)
(1.1263183 -0.0062474088 0)
(1.1280133 -0.0055302589 0)
(1.129498 -0.0047545641 0)
(1.1307556 -0.0039227043 0)
(1.1317703 -0.0030381359 0)
(1.1325278 -0.0021054006 0)
(1.1330148 -0.001130092 0)
(1.1332201 -0.00011877535 0)
(1.1331345 0.00092108928 0)
(1.132751 0.0019813187 0)
(1.1320651 0.0030532021 0)
(1.1310747 0.0041276147 0)
(1.1297808 0.0051951844 0)
(1.1281865 0.0062464916 0)
(1.1262981 0.0072722233 0)
(1.1241242 0.0082633534 0)
(1.1216762 0.0092112905 0)
(1.1189676 0.010108017 0)
(1.1160143 0.01094622 0)
(1.1128342 0.011719391 0)
(1.1094468 0.012421928 0)
(1.1058731 0.013049189 0)
(1.1021355 0.013597572 0)
(1.0982571 0.014064508 0)
(1.0942616 0.014448515 0)
(1.0901728 0.014749138 0)
(1.0860147 0.014966964 0)
(1.0818108 0.015103518 0)
(1.077584 0.015161234 0)
(1.0733563 0.015143321 0)
(1.0691486 0.015053697 0)
(1.0649804 0.014896838 0)
(1.0608701 0.014677692 0)
(1.0568341 0.014401521 0)
(1.0528874 0.014073811 0)
(1.0490436 0.013700131 0)
(1.0453142 0.013286049 0)
(1.0417094 0.012837012 0)
(1.0382378 0.012358285 0)
(1.0349063 0.011854861 0)
(1.0317207 0.011331417 0)
(1.0286853 0.010792265 0)
(1.0258035 0.010241325 0)
(1.0230773 0.0096821052 0)
(1.0205082 0.0091176949 0)
(1.0180967 0.0085507655 0)
(1.0158426 0.0079835821 0)
(1.0137452 0.0074180132 0)
(1.0118035 0.0068555569 0)
(1.0100159 0.0062973547 0)
(1.0083809 0.0057442283 0)
(1.0068964 0.005196687 0)
(1.0055611 0.0046549839 0)
(1.004372 0.004119096 0)
(1.003329 0.003588826 0)
(1.0024277 0.0030637113 0)
(1.0016709 0.0025432373 0)
(1.0010504 0.0020265649 0)
(1.0005762 0.0015130297 0)
(1.0002294 0.0010014112 0)
(1.000038 0.00049115365 0)
(1.0067679 -0.0027134809 0)
(1.0078184 -0.0028042744 0)
(1.0081779 -0.0028823344 0)
(1.0090352 -0.0029815663 0)
(1.0095946 -0.0030778195 0)
(1.0103929 -0.0031874613 0)
(1.0110724 -0.0032996482 0)
(1.0118758 -0.0034219015 0)
(1.0126429 -0.0035493962 0)
(1.0134839 -0.0036856458 0)
(1.0143278 -0.003828561 0)
(1.015225 -0.0039798344 0)
(1.0161447 -0.0041386114 0)
(1.0171106 -0.004305745 0)
(1.0181098 -0.004480923 0)
(1.0191541 -0.0046645935 0)
(1.020239 -0.0048566627 0)
(1.0213707 -0.0050573622 0)
(1.0225485 -0.0052666596 0)
(1.0237762 -0.0054846453 0)
(1.0250546 -0.0057112659 0)
(1.0263868 -0.005946492 0)
(1.0277743 -0.0061901958 0)
(1.0292194 -0.0064422184 0)
(1.030724 -0.0067023113 0)
(1.0322902 -0.0069701553 0)
(1.03392 -0.0072453306 0)
(1.0356152 -0.0075273121 0)
(1.0373775 -0.0078154525 0)
(1.0392086 -0.0081089673 0)
(1.0411098 -0.0084069259 0)
(1.0430824 -0.0087082339 0)
(1.0451273 -0.0090116304 0)
(1.0472453 -0.0093156807 0)
(1.0494365 -0.0096187694 0)
(1.0517011 -0.0099191137 0)
(1.0540385 -0.010214761 0)
(1.0564479 -0.010503612 0)
(1.0589278 -0.01078343 0)
(1.0614763 -0.011051872 0)
(1.0640909 -0.011306508 0)
(1.0667686 -0.011544851 0)
(1.0695056 -0.011764383 0)
(1.0722978 -0.011962581 0)
(1.0751403 -0.012136931 0)
(1.0780274 -0.012284946 0)
(1.0809531 -0.012404167 0)
(1.0839107 -0.012492153 0)
(1.0868926 -0.01254647 0)
(1.0898907 -0.01256466 0)
(1.0928963 -0.012544211 0)
(1.0958998 -0.012482527 0)
(1.098891 -0.012376889 0)
(1.1018588 -0.012224441 0)
(1.1047914 -0.012022179 0)
(1.1076759 -0.011766968 0)
(1.1104988 -0.01145558 0)
(1.1132456 -0.011084768 0)
(1.1159008 -0.010651361 0)
(1.1184482 -0.010152397 0)
(1.1208709 -0.0095852681 0)
(1.1231514 -0.0089478936 0)
(1.1252716 -0.0082388881 0)
(1.1272135 -0.0074577322 0)
(1.1289589 -0.0066049255 0)
(1.13049 -0.0056821125 0)
(1.1317895 -0.0046921759 0)
(1.1328412 -0.0036392823 0)
(1.1336301 -0.0025288918 0)
(1.1341428 -0.0013677103 0)
(1.1343677 -0.00016360307 0)
(1.1342953 0.00107452 0)
(1.1339185 0.0023368791 0)
(1.1332327 0.003613063 0)
(1.132236 0.0048921863 0)
(1.1309291 0.0061630639 0)
(1.1293156 0.0074144611 0)
(1.1274018 0.0086352675 0)
(1.1251967 0.0098147152 0)
(1.1227119 0.010942552 0)
(1.1199616 0.012009205 0)
(1.116962 0.013005946 0)
(1.1137315 0.013924995 0)
(1.1102904 0.014759666 0)
(1.1066603 0.015504412 0)
(1.1028642 0.016154936 0)
(1.098926 0.016708179 0)
(1.0948701 0.017162394 0)
(1.0907211 0.017517063 0)
(1.0865035 0.017772928 0)
(1.0822417 0.017931852 0)
(1.077959 0.017996802 0)
(1.073678 0.017971665 0)
(1.06942 0.017861191 0)
(1.065205 0.017670781 0)
(1.0610515 0.01740641 0)
(1.0569762 0.017074415 0)
(1.0529944 0.016681399 0)
(1.0491194 0.01623405 0)
(1.0453628 0.015739047 0)
(1.0417347 0.015202914 0)
(1.0382435 0.014631945 0)
(1.034896 0.0140321 0)
(1.0316976 0.013408954 0)
(1.0286524 0.012767636 0)
(1.0257635 0.0121128 0)
(1.0230327 0.011448602 0)
(1.020461 0.010778696 0)
(1.0180487 0.010106232 0)
(1.0157954 0.0094338742 0)
(1.0137 0.0087638127 0)
(1.0117613 0.0080977962 0)
(1.0099774 0.0074371488 0)
(1.0083466 0.006782815 0)
(1.0068667 0.0061353686 0)
(1.0055359 0.0054950807 0)
(1.0043514 0.0048618952 0)
(1.0033128 0.0042355518 0)
(1.0024156 0.0036154754 0)
(1.0016624 0.0030010327 0)
(1.0010449 0.0023912038 0)
(1.0005731 0.0017851824 0)
(1.0002281 0.0011814948 0)
(1.0000378 0.00057947135 0)
(1.0067015 -0.0031220972 0)
(1.0077431 -0.0032268731 0)
(1.0080998 -0.0033170101 0)
(1.0089502 -0.0034315314 0)
(1.0095056 -0.0035426138 0)
(1.0102979 -0.0036691167 0)
(1.0109727 -0.0037985361 0)
(1.0117705 -0.0039395451 0)
(1.0125325 -0.0040865757 0)
(1.013368 -0.0042436831 0)
(1.0142066 -0.0044084564 0)
(1.0150982 -0.0045828525 0)
(1.0160123 -0.0047658882 0)
(1.0169724 -0.0049585541 0)
(1.0179658 -0.0051604964 0)
(1.0190042 -0.0053722418 0)
(1.020083 -0.0055936917 0)
(1.0212086 -0.0058251256 0)
(1.0223801 -0.0060665188 0)
(1.0236016 -0.0063179901 0)
(1.0248738 -0.006579493 0)
(1.0261998 -0.0068510092 0)
(1.0275811 -0.007132408 0)
(1.0290202 -0.0074235227 0)
(1.0305191 -0.0077240837 0)
(1.0320799 -0.00803374 0)
(1.0337046 -0.0083520247 0)
(1.0353952 -0.008678349 0)
(1.0371536 -0.0090119838 0)
(1.0389814 -0.0093520413 0)
(1.0408803 -0.0096974648 0)
(1.0428516 -0.010047009 0)
(1.0448964 -0.010399235 0)
(1.0470156 -0.010752504 0)
(1.0492096 -0.011104968 0)
(1.0514787 -0.011454582 0)
(1.0538226 -0.011799105 0)
(1.0562405 -0.012136124 0)
(1.0587312 -0.012463064 0)
(1.0612931 -0.012777223 0)
(1.0639239 -0.013075791 0)
(1.0666207 -0.013355891 0)
(1.0693801 -0.013614598 0)
(1.0721979 -0.013848974 0)
(1.0750695 -0.014056086 0)
(1.0779896 -0.014233018 0)
(1.0809519 -0.014376875 0)
(1.08395 -0.014484775 0)
(1.0869763 -0.014553828 0)
(1.0900227 -0.014581108 0)
(1.0930804 -0.014563615 0)
(1.0961397 -0.014498241 0)
(1.0991901 -0.014381732 0)
(1.1022204 -0.014210667 0)
(1.1052182 -0.013981455 0)
(1.1081703 -0.013690354 0)
(1.1110627 -0.013333523 0)
(1.1138801 -0.012907107 0)
(1.1166066 -0.012407355 0)
(1.1192253 -0.011830774 0)
(1.1217184 -0.011174306 0)
(1.1240677 -0.01043552 0)
(1.1262544 -0.0096128182 0)
(1.1282595 -0.0087056257 0)
(1.1300642 -0.0077145703 0)
(1.13165 -0.0066416237 0)
(1.1329989 -0.0054902081 0)
(1.1340942 -0.0042652431 0)
(1.1349202 -0.0029731564 0)
(1.1354632 -0.0016218183 0)
(1.1357112 -0.00022045074 0)
(1.1356544 0.0012205319 0)
(1.1352856 0.0026896952 0)
(1.1346 0.0041748715 0)
(1.1335958 0.0056633637 0)
(1.1322737 0.0071421203 0)
(1.1306375 0.0085980416 0)
(1.1286938 0.010018169 0)
(1.126452 0.011389945 0)
(1.1239239 0.012701406 0)
(1.1211244 0.01394138 0)
(1.1180702 0.015099674 0)
(1.1147804 0.016167202 0)
(1.1112759 0.017136153 0)
(1.1075793 0.018000046 0)
(1.1037142 0.018753872 0)
(1.0997055 0.01939407 0)
(1.0955784 0.019918627 0)
(1.0913584 0.020326972 0)
(1.0870708 0.02062003 0)
(1.0827407 0.020800035 0)
(1.0783923 0.020870531 0)
(1.0740486 0.020836137 0)
(1.0697316 0.020702487 0)
(1.0654618 0.020475976 0)
(1.0612578 0.020163665 0)
(1.0571367 0.019773028 0)
(1.0531137 0.019311844 0)
(1.0492024 0.018787973 0)
(1.0454143 0.018209257 0)
(1.0417592 0.017583338 0)
(1.0382454 0.016917575 0)
(1.0348794 0.016218923 0)
(1.0316664 0.015493878 0)
(1.0286101 0.014748398 0)
(1.0257133 0.013987882 0)
(1.0229774 0.013217137 0)
(1.020403 0.012440381 0)
(1.0179902 0.011661238 0)
(1.0157381 0.010882764 0)
(1.0136453 0.01010746 0)
(1.0117104 0.0093373143 0)
(1.0099311 0.0085738194 0)
(1.0083055 0.0078180288 0)
(1.006831 0.0070705667 0)
(1.0055059 0.0063317075 0)
(1.0043269 0.005601348 0)
(1.0032935 0.0048791507 0)
(1.0024011 0.0041644142 0)
(1.0016522 0.0034563741 0)
(1.0010384 0.0027538161 0)
(1.0005695 0.0020557819 0)
(1.0002267 0.0013605304 0)
(1.0000375 0.00066727148 0)
(1.0066267 -0.0035270033 0)
(1.0076581 -0.0036457754 0)
(1.0080117 -0.00374801 0)
(1.0088543 -0.0038778279 0)
(1.009405 -0.0040037418 0)
(1.0101905 -0.0041470983 0)
(1.0108599 -0.0042937341 0)
(1.0116513 -0.0044534732 0)
(1.0124075 -0.0046200047 0)
(1.0132367 -0.004797926 0)
(1.0140691 -0.0049845048 0)
(1.0149543 -0.0051819642 0)
(1.015862 -0.0053891934 0)
(1.0168155 -0.0056073238 0)
(1.0178022 -0.0058359623 0)
(1.0188338 -0.0060757178 0)
(1.0199057 -0.0063264907 0)
(1.0210242 -0.0065886131 0)
(1.0221886 -0.006862073 0)
(1.0234029 -0.0071470233 0)
(1.024668 -0.00744343 0)
(1.0259868 -0.0077512926 0)
(1.027361 -0.0080704841 0)
(1.0287932 -0.0084008367 0)
(1.0302854 -0.0087420673 0)
(1.0318399 -0.0090938003 0)
(1.0334587 -0.009455529 0)
(1.035144 -0.0098266095 0)
(1.0368977 -0.010206238 0)
(1.0387217 -0.010593432 0)
(1.0406178 -0.010987016 0)
(1.0425874 -0.011385601 0)
(1.0446318 -0.011787581 0)
(1.0467522 -0.012191118 0)
(1.0489491 -0.012594137 0)
(1.051223 -0.01299434 0)
(1.0535739 -0.013389202 0)
(1.0560012 -0.013776001 0)
(1.0585041 -0.014151824 0)
(1.061081 -0.014513611 0)
(1.06373 -0.014858174 0)
(1.0664484 -0.015182237 0)
(1.0692329 -0.015482464 0)
(1.0720798 -0.015755492 0)
(1.0749846 -0.01599795 0)
(1.0779419 -0.016206475 0)
(1.080946 -0.016377714 0)
(1.0839903 -0.016508311 0)
(1.0870673 -0.016594889 0)
(1.0901689 -0.016634012 0)
(1.0932863 -0.01662215 0)
(1.0964095 -0.016555633 0)
(1.0995279 -0.016430618 0)
(1.1026298 -0.016243067 0)
(1.1057025 -0.015988746 0)
(1.1087324 -0.015663251 0)
(1.1117047 -0.015262074 0)
(1.1146036 -0.014780705 0)
(1.1174123 -0.014214772 0)
(1.1201131 -0.013560218 0)
(1.1226874 -0.012813509 0)
(1.1251161 -0.011971854 0)
(1.1273795 -0.011033439 0)
(1.1294577 -0.009997646 0)
(1.131331 -0.0088652519 0)
(1.1329801 -0.0076385885 0)
(1.1343862 -0.0063216583 0)
(1.1355319 -0.0049201827 0)
(1.136401 -0.0034416114 0)
(1.1369791 -0.0018950374 0)
(1.1372538 -0.00029110054 0)
(1.1372152 0.0013582191 0)
(1.1368557 0.0030397678 0)
(1.1361705 0.0047395571 0)