/*--------------------------------*- C++ -*----------------------------------*\
| =========                 |                                                 |
| \\      /  F ield         | foam-extend: Open Source CFD                    |
|  \\    /   O peration     | Version:     4.1                                |
|   \\  /    A nd           | Web:         http://www.foam-extend.org         |
|    \\/     M anipulation  |                                                 |
\*---------------------------------------------------------------------------*/
FoamFile
{
    version     2.0;
    format      ascii;
    class       volScalarField;
    location    "2.25";
    object      p;
}
// * * * * * * * * * * * * * * * * * * * * * * * * * * * * * * * * * * * * * //

dimensions      [0 2 -2 0 0 0 0];

internalField   nonuniform List<scalar> 
4393
(
-46.41828
-92.981829
-146.74663
-201.53772
-258.52851
-318.0297
-380.42423
-446.02165
-515.04622
-587.6081
-663.67523
-743.04521
-825.31991
-909.88676
-995.91052
-1082.3386
-1167.9205
-1251.2388
-1330.7466
-1404.8063
-1471.7267
-1529.7975
-1577.3241
-1612.6686
-1634.3035
-1640.8857
-1631.3608
-1605.109
-1562.0234
-1502.6042
-1428.0627
-1340.3044
-1241.8236
-1135.521
-1024.4769
-911.72621
-800.06825
-691.93568
-589.32563
-493.78628
-406.44506
-328.06304
-259.10077
-199.78411
-150.17441
-110.24068
-79.7636
-57.832658
-43.628362
-45.166115
-92.396008
-146.03405
-200.6739
-257.49558
-316.84198
-379.10967
-444.62028
-513.60992
-586.20078
-662.37243
-741.93252
-824.49
-909.43476
-995.92834
-1082.9092
-1169.1131
-1253.1062
-1333.3247
-1408.1153
-1475.772
-1534.5698
-1582.7976
-1618.7957
-1641.0078
-1648.0571
-1638.8542
-1612.704
-1569.4364
-1509.5444
-1434.2451
-1345.4788
-1245.8057
-1138.212
-1025.8683
-911.88909
-799.13402
-690.07234
-586.71561
-490.60864
-402.86317
-324.21772
-255.11019
-195.75361
-146.20086
-106.36058
-75.961942
-54.863008
-44.264837
-44.361876
-91.499255
-144.77577
-199.05484
-255.52569
-314.56086
-376.57901
-441.92406
-510.85525
-583.51848
-659.91614
-739.87553
-823.01891
-908.74004
-996.19253
-1084.2949
-1171.7534
-1257.0998
-1338.7355
-1414.9753
-1484.0845
-1544.3104
-1593.9093
-1631.1787
-1654.5015
-1662.4211
-1653.7593
-1627.7383
-1584.0959
-1523.2535
-1446.4224
-1355.6122
-1253.5196
-1143.3094
-1028.3383
-911.88416
-796.92658
-686.00529
-581.15596
-483.91083
-395.34405
-316.14249
-246.69024
-187.15664
-137.55111
-97.688285
-67.258179
-46.703255
-37.920727
-43.571157
-90.20351
-142.87205
-196.57261
-252.49943
-311.05368
-372.68284
-437.7628
-506.58759
-579.33963
-656.05713
-736.59881
-820.60905
-907.4891
-996.38143
-1086.1742
-1175.5281
-1262.9215
-1346.7027
-1425.139
-1496.4548
-1558.8586
-1610.5625
-1649.8031
-1674.8752
-1684.1998
-1676.4526
-1650.7045
-1606.5452
-1544.2897
-1465.1358
-1371.1995
-1265.3943
-1151.1698
-1032.1791
-911.95635
-793.66743
-679.95778
-572.89579
-473.98992
-384.25306
-304.29135
-234.40506
-174.68836
-125.07558
-85.291755
-55.022568
-34.934619
-26.790495
-42.746023
-88.586089
-140.40165
-193.29791
-248.47671
-306.37005
-367.46091
-432.16669
-500.82802
-573.67719
-650.80225
-732.10644
-817.26645
-905.69551
-996.52134
-1088.5893
-1180.4949
-1270.6406
-1357.3009
-1438.6793
-1512.9485
-1578.2704
-1632.8046
-1674.7134
-1702.1785
-1713.4592
-1707.0294
-1681.7393
-1636.9533
-1572.818
-1490.4979
-1392.254
-1281.312
-1161.5351
-1037.003
-911.61362
-788.7893
-671.31407
-561.29057
-460.18334
-368.91194
-287.96579
-217.52617
-157.57801
-107.95402
-68.296961
-38.30011
-18.683752
-10.927344
-41.737446
-86.5369
-137.2531
-189.11404
-243.33045
-300.36952
-360.75698
-424.96202
-493.38488
-566.323
-643.93079
-726.17239
-812.77032
-903.15695
-996.44234
-1091.4143
-1186.5795
-1280.237
-1370.5627
-1455.6799
-1533.7005
-1602.7371
-1660.8938
-1706.2494
-1736.8504
-1750.7508
-1746.1567
-1721.6154
-1676.1693
-1609.7101
-1523.3305
-1419.4776
-1301.8092
-1174.7662
-1043.0181
-910.95497
-782.33352
-660.1058
-546.40039
-442.60554
-349.50343
-267.41998
-196.37261
-136.19544
-86.587074
-47.090802
-17.369054
1.8949952
9.4338172
-40.595516
-84.127185
-133.49121
-184.07012
-237.08798
-293.05309
-352.5417
-416.08558
-484.15871
-557.14084
-635.27226
-718.59823
-806.90513
-899.65541
-995.93964
-1094.4706
-1193.6352
-1291.5942
-1386.3955
-1476.0641
-1558.6465
-1632.21
-1694.8104
-1744.4437
-1779.0052
-1796.3015
-1794.194
-1770.8253
-1724.7867
-1655.5865
-1564.1766
-1453.2324
-1326.9991
-1190.7122
-1049.8417
-909.42627
-773.64381
-645.63694
-527.53746
-420.60904
-325.43887
-242.13291
-170.49452
-110.16531
-60.680174
-21.461046
7.9037609
26.823326
34.19059
-39.186013
-81.205565
-128.95647
-178.00164
-229.57708
-284.2374
-342.61698
-405.32142
-472.91383
-545.87584
-624.55675
-709.10822
-799.40463
-894.95502
-994.83055
-1097.6469
-1201.6308
-1304.7574
-1404.909
-1499.9926
-1587.9892
-1666.9351
-1734.857
-1789.6815
-1829.147
-1850.7728
-1851.9891
-1830.4106
-1784.0057
-1711.7095
-1614.2145
-1494.4636
-1357.4977
-1209.6434
-1057.4498
-906.79915
-762.38346
-627.54456
-504.37084
-393.92837
-296.53066
-211.99183
-139.84116
-79.481705
-30.253523
8.5653161
37.489815
56.04345
63.248206
-37.653454
-77.930952
-123.7969
-171.03289
-220.89029
-273.97559
-330.98884
-392.62119
-459.54176
-532.35665
-611.55208
-697.41838
-789.9512
-888.73194
-992.81707
-1100.6985
-1210.3875
-1319.6104
-1426.0331
-1527.4232
-1621.7036
-1706.9074
-1781.0689
-1842.0773
-1887.5233
-1914.6053
-1920.2267
-1901.3236
-1855.0123
-1779.3764
-1674.6458
-1544.0583
-1393.7397
-1231.5245
-1065.4183
-902.39155
-747.74737
-605.01114
-476.14685
-361.91693
-262.2569
-176.59975
-104.13077
-43.963548
4.7910059
43.023331
71.374438
89.493763
96.516576
-35.748821
-74.004843
-117.6921
-162.83158
-210.68191
-261.90431
-317.27083
-377.56972
-443.59421
-516.10049
-595.74491
-682.99681
-778.01803
-880.50121
-989.50013
-1103.3491
-1219.7673
-1336.1399
-1449.8473
-1558.4923
-1659.9572
-1752.3188
-1833.6806
-1901.953
-1954.6114
-1988.5132
-1999.9356
-1984.9556
-1939.5406
-1860.5129
-1747.2977
-1603.4222
-1436.5078
-1256.5012
-1073.3832
-895.51914
-728.91389
-577.21816
-442.13824
-323.98131
-222.16763
-135.63986
-63.159892
-3.4984078
44.496204
81.904034
109.50714
127.08855
133.89226
-33.798641
-69.806257
-111.02792
-153.76796
-199.29487
-248.32739
-301.71463
-360.35261
-425.1775
-497.12421
-577.05837
-665.67873
-763.37431
-870.00874
-984.66036
-1105.4663
-1229.7464
-1354.4139
-1476.4675
-1593.3174
-1702.8404
-1803.2315
-1892.7564
-1969.4403
-2030.7079
-2073.0758
-2092.1041
-2082.7932
-2039.586
-1957.449
-1834.4245
-1674.2477
-1486.6346
-1284.5447
-1080.6579
-885.11643
-704.69101
-543.02782
-401.36542
-279.34258
-175.68624
-88.716928
-16.684196
42.03912
88.898111
125.17843
151.81092
168.71683
175.24959
-31.322735
-64.748371
-103.164
-143.16715
-186.01799
-232.49053
-283.51354
-340.10055
-403.35038
-474.40923
-554.39875
-644.30982
-744.84112
-856.1187
-977.2993
-1106.2779
-1239.8199
-1374.1697
-1505.8017
-1631.8967
-1750.3828
-1859.6804
-1958.3493
-2044.6716
-2116.1359
-2168.9576
-2197.9202
-2196.6911
-2157.7329
-2073.3258
-1939.1486
-1758.89
-1545.2554
-1315.6021
-1086.3281
-869.8189
-673.60721
-501.08731
-352.70824
-227.14633
-122.20895
-35.440122
35.51794
92.742602
137.99703
172.78046
198.17267
214.23467
220.4322
-28.93536
-59.575034
-94.898101
-131.84692
-171.67531
-215.21029
-263.45981
-317.56083
-378.79219
-448.54495
-528.24839
-619.25865
-722.68961
-839.06447
-967.71695
-1106.2534
-1250.6597
-1396.2156
-1538.6637
-1674.9222
-1803.0781
-1921.9455
-2030.5696
-2127.7001
-2211.0803
-2276.7108
-2318.5369
-2328.6708
-2297.094
-2212.1925
-2065.6523
-1860.4856
-1613.7497
-1349.4073
-1089.0115
-847.73878
-633.73509
-449.70552
-294.82768
-166.41735
-61.081834
24.585591
93.645414
148.66894
191.75067
224.60022
248.437
263.45865
269.24584
-25.834192
-53.293435
-85.133359
-118.63362
-155.00891
-195.12772
-240.07123
-291.10203
-349.6948
-417.52254
-496.38363
-588.08855
-694.30545
-816.16087
-953.35362
-1103.1789
-1260.5222
-1419.2474
-1574.0535
-1721.5576
-1860.1748
-1989.3364
-2108.7972
-2218.0401
-2315.3464
-2396.6703
-2455.0973
-2481.0203
-2461.4979
-2379.4193
-2219.7585
-1983.4128
-1693.8851
-1385.4104
-1086.7049
-816.33294
-582.61651
-386.83373
-226.18402
-96.096212
8.3582593
91.722321
157.84432
209.81574
250.05799
280.47268
302.39815
316.15922
321.45201
-22.988281
-47.105632
-75.194281
-104.93112
-137.49265
-173.7801
-214.93921
-262.35464
-317.70645
-382.98388
-460.41872
-552.37021
-661.221
-788.9881
-936.05553
-1099.4243
-1272.3864
-1446.6591
-1615.3979
-1774.8823
-1924.1584
-2063.6288
-2194.0749
-2316.1136
-2429.055
-2529.151
-2608.6688
-2656.1735
-2655.5157
-2582.0938
-2409.6779
-2133.8914
-1787.8786
-1422.5332
-1076.4506
-772.13876
-517.10684
-310.00272
-145.03317
-15.064956
86.748549
166.26526
228.17961
276.09962
312.74352
340.16685
359.79244
372.05482
376.76266
-19.234012
-39.566153
-63.484019
-89.028728
-117.28559
-149.16107
-185.84192
-228.81619
-279.9635
-341.61508
-416.50505
-507.64549
-618.31844
-751.84304
-909.87003
-1089.2877
-1281.1054
-1473.7728
-1658.1741
-1830.2919
-1990.3742
-2140.3278
-2282.28
-2418.3715
-2549.54
-2672.7618
-2779.4825
-2856.415
-2884.4365
-2829.5606
-2647.2464
-2321.0874
-1898.5229
-1458.8321
-1053.886
-710.45836
-433.2257
-216.29734
-49.467312
77.789279
174.63782
248.39137
304.59702
347.32982
379.53995
403.37474
420.29131
430.80718
434.83623
-15.909569
-32.367271
-51.88949
-72.946213
-96.528177
-123.53008
-155.16125
-192.99633
-239.10692
-296.19298
-367.5741
-457.03021
-568.9219
-708.39607
-879.34036
-1079.0099
-1295.0592
-1510.7439
-1713.413
-1898.7628
-2069.1473
-2228.6988
-2381.1219
-2530.4776
-2680.3858
-2829.604
-2969.1769
-3084.3383
-3154.0991
-3134.0114
-2949.9603
-2559.161
-2029.298
-1490.9058
-1012.5349
-624.92496
-325.99195
-102.36374
62.502211
183.47624
272.40143
338.09565
386.87933
423.18
450.07101
469.70149
483.49594
492.0184
495.27568
-11.483943
-23.59129
-38.294743
-54.438733
-72.848219
-94.363339
-120.1701
-151.87529
-191.68084
-242.6196
-308.63701
-394.36274
-505.33324
-649.10822
-833.41856
-1057.1183
-1303.0127
-1546.0301
-1768.121
-1964.9811
-2142.9744
-2309.8849
-2471.3082
-2633.612
-2804.7356
-2986.7703
-3170.3482
-3338.4985
-3469.9069
-3511.2593
-3344.137
-2870.7987
-2184.1435
-1512.8704
-942.74545
-506.96209
-189.29504
35.498246
192.78316
302.7502
380.12532
435.11258
474.59728
503.15971
523.836
538.65791
548.9344
555.23052
557.62883
-7.545965
-15.399294
-25.214418
-36.272709
-49.208404
-64.768228
-84.069114
-108.69906
-140.93311
-184.111
-242.90347
-322.98263
-431.14928
-577.96578
-777.5874
-1033.29
-1320.8804
-1601.2877
-1847.8981
-2056.6839
-2241.3073
-2415.2344
-2585.4243
-2759.5251
-2951.4776
-3168.7939
-3401.8416
-3630.6654
-3839.9343
-3979.4508
-3868.0222
-3294.1306
-2367.8701
-1515.4538
-830.2937
-345.16007
-15.872398
201.09474
342.92603
435.88996
497.45783
538.82626
567.0595
586.58875
600.19844
609.65693
616.06221
619.92805
621.39165
-2.4940728
-5.6554525
-10.10537
-15.573931
-22.445124
-31.342551
-43.274051
-59.749599
-83.013239
-116.56776
-165.75636
-237.36443
-339.18055
-484.64182
-697.71918
-992.03965
-1333.7675
-1659.6116
-1930.1032
-2142.1468
-2323.1201
-2495.606
-2666.7931
-2843.1723
-3048.9949
-3303.1741
-3599.0878
-3914.1978
-4241.4073
-4553.2178
-4583.0237
-3903.4787
-2589.3115
-1483.2206
-653.43128
-124.34871
202.50697
397.84676
513.68309
582.39847
623.43286
648.17694
663.26814
672.57959
678.38198
682.01598
684.26756
685.5444
686.01496
2.9587725
3.9729437
4.5461831
4.3726596
3.3871873
1.1544996
-3.1203633
-10.724265
-23.652561
-45.261408
-81.374606
-140.13109
-230.27357
-367.38857
-589.87786
-934.91068
-1357.8539
-1750.6935
-2054.8902
-2266.9253
-2439.8809
-2611.5591
-2788.5989
-2969.414
-3193.9264
-3500.0129
-3883.2974
-4313.0924
-4763.9035
-5291.5204
-5573.8105
-4825.358
-2837.3023
-1376.2422
-376.92612
174.90809
474.14876
627.83405
704.33971
740.62092
756.27997
761.57882
761.89082
760.03392
757.477
754.96692
752.88192
751.4722
750.91468
8.2850976
13.265281
19.323456
25.157871
31.020522
36.677717
41.594942
44.762896
44.510219
37.799631
18.451916
-23.539368
-98.146946
-220.10661
-443.94217
-853.46442
-1397.2822
-1876.4151
-2210.7433
-2392.8797
-2530.4287
-2685.6837
-2862.7829
-3027.8153
-3238.6403
-3573.5319
-4023.7141
-4561.7462
-5089.712
-5960.3612
-6823.7184
-6299.5148
-3074.0132
-1170.9518
36.506371
572.65457
805.01169
890.17328
911.79874
907.31686
893.25889
876.875
861.26341
847.66085
836.46141
827.67512
821.19644
817.07786
815.48554
17.841127
25.859666
36.761678
47.719659
59.416518
71.801234
84.631375
97.258303
108.52212
116.2356
114.96632
93.715189
41.619824
-49.538525
-244.67558
-715.15148
-1441.8803
-2033.6103
-2413.3733
-2545.7126
-2643.0185
-2787.1993
-2982.1463
-3113.68
-3276.6777
-3677.699
-4224.3716
-4961.7035
-5679.3058
-7242.8542
-8882.0928
-9068.353
-3578.1301
-1038.2197
635.19289
1099.0918
1197.3506
1178.9791
1129.5271
1077.2882
1030.5872
991.36627
959.44086
934.02403
914.23823
899.26828
888.48446
881.71994
879.11797
22.150569
30.89521
46.136688
62.238148
80.171443
100.10815
122.29198
146.74768
173.26273
201.2383
227.41489
240.71441
225.96304
180.34537
45.40853
-483.28452
-1555.1591
-2311.4996
-2773.6627
-2771.0092
-2749.666
-2813.1453
-3022.6412
-3099.906
-3207.164
-3763.2637
-4232.9949
-5185.2222
-6470.8435
-7863.4479
-9589.1444
-12103.54
-4823.2661
-72.515296
1722.8304
1811.9824
1641.1418
1478.7598
1346.2292
1243.2031
1163.5568
1101.9562
1054.311
1017.6214
989.69004
968.87408
954.02849
944.77029
941.217
36.937076
46.533209
66.460049
87.313934
110.74796
137.07729
166.90644
200.72068
238.86193
281.66249
327.57444
365.35481
371.82639
347.26608
293.74147
-191.10969
-1818.0786
-2617.1355
-3115.4966
-2772.7581
-2626.8086
-2732.5432
-3131.756
-3271.1278
-3302.4341
0
0
0
0
0
0
0
0
6202.3748
3402.4558
2582.4951
2068.2381
1755.8591
1545.1249
1396.088
1287.0011
1205.4546
1143.7774
1096.9947
1061.7465
1035.6637
1017.1501
1005.6365
1001.2221
35.366735
42.182709
64.028359
87.075005
113.20481
142.7396
176.57915
215.67643
261.07462
314.42442
377.59003
445.98918
502.79946
560.82564
710.68066
552.80418
-1996.7858
-2776.9631
-3646.906
-2968.6379
-3044.3365
-3012.3248
0
0
0
0
0
0
0
0
0
0
10129.574
6286.2533
4123.9544
3000.3239
2361.3125
1969.1777
1709.0489
1527.5628
1396.2855
1299.0424
1225.992
1170.855
1129.4566
1098.8963
1077.2393
1063.7836
1058.6261
44.263788
54.950228
80.949997
106.97752
136.1543
169.0359
206.87557
251.10403
303.50599
367.08025
447.11645
546.08839
653.28866
754.39111
842.19562
568.47273
-3108.2264
-3581.5994
-3205.2814
0
0
0
0
0
0
0
0
0
0
0
1780.6713
3364.5938
5756.116
5236.0892
3961.3819
3100.168
2507.1426
2107.7397
1830.6539
1632.9917
1488.4294
1380.7305
1299.5693
1238.1932
1192.051
1157.9572
1133.7803
1118.7532
1112.9921
22.19161
42.166307
66.370968
91.284856
118.75231
149.54716
184.74312
225.50519
273.13229
329.82964
399.49975
478.02711
537.53011
536.24759
558.10676
702.38605
0
0
0
0
0
0
-1132.0679
-1103.5235
-1011.3058
-917.55648
-790.08535
-495.29925
-94.947697
697.08341
2026.4393
3361.9101
4750.9869
4489.8572
3714.8017
3058.6862
2552.6651
2182.2199
1911.4452
1711.6611
1562.3543
1449.5316
1363.692
1298.3446
1248.983
1212.385
1186.3701
1170.1775
1163.9658
19.953997
50.022155
74.970446
100.54375
127.96151
158.05666
191.47952
228.66477
269.57182
313.41781
357.89958
396.56215
406.14903
338.09182
142.01748
-338.13615
-1284.4179
-1227.4751
-1147.102
-1100.4787
-1051.0817
-1021.6131
-1010.3643
-803.28948
-838.68244
-583.18201
-362.34535
-204.61768
259.08244
904.85417
1960.2922
3049.3229
3956.565
3851.8962
3404.2976
2933.5967
2528.4613
2206.0152
1956.7036
1765.422
1618.5284
1505.3805
1418.105
1351.0009
1299.9419
1261.8829
1234.728
1217.7881
1211.2835
20.663329
46.48539
72.120221
97.971715
125.28629
154.81502
187.13898
222.62478
261.25892
302.13395
342.03487
373.7355
384.81866
353.15825
205.21537
-227.92276
-792.30564
-920.95946
-962.54846
-966.15116
-887.8032
-842.32059
-818.54973
-691.80036
-620.94398
-417.54065
-179.14364
77.742565
510.88656
1096.4658
1896.1864
2721.5878
3334.8851
3356.8263
3105.6563
2777.1427
2463.357
2193.8097
1973.597
1797.6782
1658.5134
1548.9427
1463.0384
1396.18
1344.8431
1306.3174
1278.6975
1261.4181
1254.7753
14.996588
36.230574
58.796947
81.290953
104.29073
128.03536
152.53032
177.41577
201.78979
223.68897
238.89672
240.18097
218.2488
159.21422
15.074749
-283.91251
-606.90372
-732.46511
-784.5189
-794.2868
-753.12557
-703.47447
-642.23525
-537.7624
-423.88667
-238.24347
-11.498916
269.88347
668.60807
1187.7218
1823.2419
2450.896
2889.5201
2967.0582
2834.9717
2613.0007
2376.181
2157.6758
1969.188
1812.3852
1684.4718
1581.3758
1499.0906
1434.1693
1383.7996
1345.7035
1318.239
1300.9991
1294.3623
23.838355
46.444862
70.189823
93.656078
117.54412
141.96086
166.7258
191.21028
214.09556
232.81495
242.68416
236.66978
205.98856
135.39734
-7.2596906
-236.55143
-460.15519
-579.80624
-635.38361
-644.54126
-615.83496
-568.29303
-497.28134
-394.46027
-264.3494
-82.933209
139.16068
416.11311
777.02623
1223.7717
1735.5098
2221.745
2557.2296
2658.5598
2599.6222
2454.8459
2280.1775
2107.1224
1949.7493
1813.4685
1698.7938
1604.1105
1527.1058
1465.4572
1417.0847
1380.1842
1353.4175
1336.553
1330.0508
12.024191
29.927674
50.032141
70.035674
90.040925
109.92712
129.38602
147.74676
163.7606
175.18256
178.31552
168.06139
137.63833
74.65406
-40.055472
-203.50807
-358.80764
-456.74796
-506.07945
-514.234
-488.93044
-440.00594
-365.68957
-262.60117
-128.53885
46.963859
261.85414
525.1906
849.67394
1232.337
1648.6359
2032.8053
2301.9484
2411.5828
2398.1272
2308.5351
2183.1591
2048.9506
1920.3864
1804.465
1703.8307
1618.6747
1548.0637
1490.6658
1445.09
1410.0047
1384.3865
1368.181
1361.9229
21.407246
40.632392
60.854039
80.367649
99.453488
117.84333
135.0235
150.10156
161.62881
167.32349
163.94525
147.54836
113.08085
52.273357
-43.557275
-165.6157
-279.0038
-356.12522
-395.69045
-400.45712
-375.18782
-324.72595
-248.67441
-145.28303
-11.77454
156.79209
361.05876
606.02159
895.95139
1224.4156
1567.866
1878.5072
2101.9967
2212.1871
2227.1462
2176.7602
2089.8433
1988.0673
1885.0995
1788.3894
1701.7408
1626.5693
1562.9904
1510.4906
1468.2862
1435.4855
1411.3695
1396.0504
1390.1245
11.864125
27.968617
45.959693
63.611543
80.820418
97.231809
112.31652
125.2219
134.61697
138.50949
134.22468
118.55888
87.502057
35.679387
-40.002592
-130.43213
-213.52522
-271.83116
-300.84947
-300.62692
-273.46243
-221.63426
-145.0323
-42.511485
87.993849
248.90824
441.01335
666.30007
924.57377
1207.734
1495.1765
1752.1619
1942.6278
2049.7635
2082.4749
2059.9378
2002.6778
1927.6331
1846.849
1767.6912
1694.4089
1629.1879
1572.8935
1525.652
1487.1881
1456.9984
1434.6427
1420.3802
1414.8534
17.140342
33.23728
50.219942
66.364689
81.714215
95.886598
108.32911
118.22198
124.3831
125.18545
118.61208
102.36224
73.690812
29.625157
-29.989198
-97.38253
-158.1369
-200.46256
-219.38534
-213.53484
-183.55815
-130.34358
-53.764692
46.959944
173.10515
325.77623
505.17457
711.24597
941.4179
1187.1577
1431.2309
1648.3109
1813.9318
1916.4935
1960.2183
1957.4975
1922.9607
1869.6948
1807.8362
1744.3101
1683.4262
1627.7747
1578.7186
1536.8589
1502.3253
1474.9434
1454.5171
1441.4274
1436.346
11.96586
26.365676
42.104129
57.216515
71.535645
84.633615
95.955347
104.72764
109.89827
110.11331
103.80183
89.276455
64.75805
28.907053
-17.019966
-66.704032
-110.25047
-139.22928
-148.99495
-137.55174
-104.54824
-50.080001
26.067549
124.39843
245.54549
389.78508
556.64692
744.78724
950.46829
1165.473
1375.7031
1562.5372
1708.9269
1806.4495
1856.8887
1868.2987
1851.1307
1815.443
1769.5681
1719.7244
1670.0955
1623.4065
1581.3245
1544.7826
1514.2205
1489.7311
1471.3235
1459.4738
1454.8655
13.672505
27.359539
41.871601
55.550669
68.315611
79.771047
89.415286
96.58097
100.407
99.848781
93.763393
81.006976
60.559316
32.098182
-2.5897103
-38.476948
-68.502091
-86.408086
-88.110452
-71.43167
-35.490008
20.053647
95.478972
191.07339
307.00089
442.97313
597.9626
769.86532
954.48533
1144.3015
1327.8965
1491.4042
1622.6058
1715.1563
1769.5573
1791.0633
1787.166
1765.5768
1733.0728
1695.0576
1655.4631
1616.994
1581.4706
1550.0417
1523.373
1501.767
1485.3996
1474.8147
1470.6909
11.353732
24.027796
37.645056
50.500474
62.432259
73.046646
81.879882
88.351848
91.760512
91.312461
86.205894
75.732526
59.445784
37.650786
12.275719
-12.652749
-31.897267
-40.645548
-35.405493
-14.038269
24.575032
80.987943
155.49807
248.21815
358.97808
487.0998
631.16218
788.66163
955.34858
1124.537
1286.9994
1432.2478
1551.28
1639.1806
1695.7793
1724.5049
1730.7497
1720.4239
1699.0129
1671.1265
1640.3511
1609.2933
1579.8152
1553.1929
1530.2475
1511.441
1497.0794
1487.7489
1484.1073
11.4074
23.295959
35.923407
47.754252
58.66607
68.304881
76.268295
82.076544
85.182378
85.010183
81.033055
72.876129
60.488858
44.521788
26.846937
10.720785
0.16206939
-1.0287158
10.104968
35.553494
76.498342
133.57308
207.05463
296.91442
402.74631
523.60872
657.83499
802.75868
954.29673
1106.6002
1252.184
1382.9751
1492.1641
1575.8543
1633.531
1667.4209
1681.422
1680.0717
1667.7999
1648.506
1625.3918
1600.9181
1576.9174
1554.7266
1535.2675
1519.1183
1506.6842
1498.57
1495.3982
10.343684
21.515174
33.418409
44.560442
54.805541
63.829276
71.28556
76.786833
79.922653
80.301443
77.620413
71.762469
62.950841
52.019243
40.711424
31.704467
28.181679
33.206024
49.280856
78.203963
121.12171
178.66749
251.07218
338.19285
439.45859
553.75773
679.29275
813.38211
952.215
1090.711
1222.751
1342.0027
1443.1847
1523.1431
1581.1968
1618.7735
1638.7034
1644.4825
1639.69
1627.6163
1611.0824
1592.3709
1573.2511
1555.0718
1538.8126
1525.1346
1514.5161
1507.5606
1504.839
9.9405932
20.476322
31.670237
42.129913
51.739935
60.213145
67.259532
72.574977
75.865057
76.886513
75.510194
71.807253
66.178056
59.537944
53.481201
50.249672
52.431435
62.543641
82.714814
114.54254
159.08912
216.94356
288.2777
372.85643
469.99566
578.48178
696.46732
821.34136
949.60172
1076.8381
1197.9922
1307.9979
1402.6581
1479.3696
1537.3811
1577.5848
1602.0454
1613.4713
1614.7638
1608.7013
1597.7593
1584.028
1569.1939
1554.5862
1541.212
1529.7893
1520.8522
1514.9869
1512.6931
9.3564752
19.364646
30.008249
39.956229
49.101737
57.191695
63.988092
69.2613
72.815747
74.529073
74.407773
72.660959
69.80144
66.769461
65.017752
66.459266
73.249163
87.49517
111.02079
145.23536
191.09793
249.13246
319.4481
401.73619
495.23668
598.68169
710.22606
827.3727
946.92336
1065.0316
1177.4568
1280.06
1369.4248
1443.3597
1501.0937
1543.1578
1571.0663
1586.9342
1593.129
1592.0065
1585.7413
1576.238
1565.0916
1553.5956
1542.7632
1533.352
1525.9432
1521.0956
1519.2101
8.9349127
18.485899
28.650008
38.160367
46.9227
54.715512
61.346364
66.648344
70.506108
72.892053
73.914964
73.881521
73.372679
73.323407
75.061819
80.25174
90.72958
108.29412
134.52429
170.66301
217.5648
275.68281
345.06628
425.34866
515.72052
614.89133
721.04827
831.8229
944.29337
1055.0741
1160.5502
1257.2636
1342.3647
1413.9703
1471.316
1514.6881
1545.2054
1564.5393
1574.6423
1577.5287
1575.1197
1569.1523
1561.1293
1552.3022
1543.6748
1536.0293
1529.9952
1526.1071
1524.6258
8.5490776
17.743399
27.539607
36.720507
45.201005
52.787951
59.328593
64.708491
68.876888
71.87974
73.901997
75.318096
76.748495
79.109399
83.625308
91.772645
105.15289
125.33274
153.69888
191.35427
239.05815
297.19658
365.76572
444.35457
532.12285
627.77673
729.5493
835.19709
942.03486
1047.0431
1147.0788
1239.1822
1320.9144
1390.6221
1447.5578
1491.8422
1524.3115
1546.3082
1559.4677
1565.5341
1566.2217
1563.1241
1557.6588
1551.0348
1544.2385
1538.0661
1533.2125
1530.2276
1529.1728
8.1797843
17.102041
26.616307
35.549276
43.821555
51.264706
57.758756
63.23094
67.680173
71.207363
74.05241
76.635599
79.599201
83.837157
90.492083
100.90202
116.49756
138.67412
168.67173
207.48146
255.78234
313.9026
381.79442
459.0136
544.70142
637.57068
735.90218
837.56183
940.05559
1040.6442
1136.5322
1225.1185
1304.258
1372.4656
1429.0135
1473.9117
1507.7979
1531.7769
1547.2486
1555.7516
1558.8383
1557.9871
1554.5454
1549.6885
1544.3857
1539.4363
1535.6165
1533.5679
1533.0772
7.807455
16.603219
25.940206
34.712372
42.846851
50.199177
56.67639
62.237797
66.919049
70.860562
74.340316
77.808407
81.918029
87.542092
95.761363
107.8157
125.01702
148.64033
179.81978
219.46301
268.18722
326.27539
393.64613
469.83189
553.96368
644.76454
740.55704
839.29399
938.62524
1036.0144
1128.9106
1214.9609
1292.2226
1359.3283
1415.568
1460.8796
1495.7665
1521.1685
1538.3188
1548.6074
1553.4677
1554.2915
1552.3718
1548.8585
1544.705
1540.6818
1537.6136
1536.3932
1536.6784
7.3041499
16.167651
25.424104
34.111292
42.165066
49.465413
55.940158
61.570779
66.417029
70.644368
74.554105
78.613415
83.479726
90.010212
99.245737
112.36619
130.60992
155.1733
187.1202
227.30281
276.29651
334.35345
401.36972
476.86288
559.95862
649.38888
743.50638
840.32347
937.58549
1032.8874
1123.8342
1208.2288
1284.2559
1350.623
1406.633
1452.181
1487.6866
1513.9857
1532.2044
1543.6363
1549.6367
1551.5378
1550.5922
1547.9356
1544.5151
1541.0467
1538.3502
1537.9195
1540.1127
6.0814496
15.835434
25.143102
33.822704
41.845791
49.124384
55.600526
61.267893
66.198546
70.57047
74.696724
79.053231
84.300292
91.289909
101.04773
114.71748
133.48988
158.52437
190.85495
231.30689
280.43471
338.47488
405.31201
480.45609
563.03028
651.77135
745.04775
840.90238
937.12891
1031.3881
1121.3621
1204.9309
1280.3419
1346.3402
1402.236
1447.904
1483.7234
1510.4794
1529.2461
1541.2699
1547.863
1550.3267
1549.9017
1547.727
1544.7599
1541.6756
1539.2599
1539.7829
1545.6251
-2227.7591
-2483.6258
-2699.5399
-2881.4847
-3023.9684
-3106.2155
-3108.2264
-3029.2222
-2857.2794
-2664.0041
-3205.3895
-3205.2814
-3198.436
-3187.4491
-3173.3348
-3160.582
-3148.7462
-3158.2129
-3158.8151
-3131.4107
-3183.0318
-3181.9073
-3167.1529
-3150.1897
-3133.2746
-3124.2838
-3105.9912
-3113.2083
-3100.0766
-3046.5505
-3137.8423
-3135.1803
-3126.5771
-3117.8813
-3109.0878
-3112.1
-3101.0044
-3098.9718
-3085.5705
-3048.7086
-3078.1502
-3076.7156
-3072.1701
-3066.2527
-3057.7472
-3058.1473
-3057.8129
-3057.1428
-3055.6643
-3059.4011
-3030.1695
-3029.3772
-3023.6163
-3013.4552
-2998.2003
-2968.6379
-2990.8019
-3003.1027
-3009.7484
-3023.0972
-3013.4132
-3015.1073
-3018.359
-3021.7462
-3032.6629
-3008.537
-3008.215
-3004.5878
-2989.6696
-2966.6815
-3027.9235
-3029.5543
-3035.6401
-3044.3365
-3068.3865
-3076.103
-3056.7218
-3030.7044
-3000.8675
-2965.4636
-3848.453
-3860.7654
-3831.7266
-3787.317
-3749.7571
-3717.692
-3696.1887
-3682.4625
-3673.5226
-3675.2647
-2986.9818
-2985.7896
-2977.9087
-2960.9536
-2921.5854
-2946.9464
-2958.9511
-2961.1439
-2950.658
-2923.5511
-3009.2484
-3012.3248
-3018.6881
-3037.9315
-3013.9714
-3005.2509
-3001.2993
-2993.8837
-2979.8936
-2964.7519
-3048.5069
-3050.9595
-3056.1374
-3080.7266
-3093.4963
-3069.4241
-3042.6921
-3022.4076
-3003.5387
-2987.053
-2999.6597
-2995.831
-2976.9421
-2951.6612
-2974.5982
-2992.0792
-3003.3183
-3010.7382
-3013.0013
-3020.0187
-3033.2654
-3035.7258
-3034.8622
-2997.971
-3007.1044
-3020.7172
-3031.5174
-3038.7505
-3041.7999
-3051.3646
-3156.8904
-3164.6844
-3188.9177
-3187.4469
-3159.5471
-3131.756
-3111.0626
-3095.6697
-3080.2523
-3063.0195
-3141.9783
-3137.1436
-3129.6599
-3149.8311
-3150.4249
-3144.6322
-3138.4096
-3132.9746
-3126.9765
-3128.8789
-3162.7558
-3162.0352
-3137.7507
-3147.9048
-3159.3505
-3167.4866
-3171.9067
-3173.7105
-3173.001
-3177.7024
-3277.1165
-3289.5198
-3285.4691
-3271.1278
-3255.8061
-3243.7652
-3235.0337
-3229.24
-3222.4247
-3213.8643
-3282.4891
-3286.5606
-3294.0152
-3285.9374
-3276.2943
-3270.7942
-3270.5591
-3275.0002
-3280.0409
-3292.3434
-3186.3251
-3172.2151
-3189.5515
-3215.4284
-3244.9018
-3273.5987
-3300.5726
-3325.1455
-3345.2983
-3370.2635
-3326.0533
-3302.4341
-3312.0416
-3332.3493
-3359.1127
-3384.3606
-3406.8261
-3425.2574
-3437.7758
-3453.4907
-3701.6751
-3692.6557
-3661.9569
-3627.8859
-3602.807
-3583.3218
-3571.2317
-3564.0738
-3557.9588
-3555.0927
-3016.6789
-3015.1533
-3009.7383
-2998.12
-2992.634
-2999.8929
-2999.53
-2994.1794
-2984.9472
-2983.9235
-3540.5388
-3549.1356
-3563.5699
-3610.8537
-3667.0293
-3718.8609
-3739.9431
-3721.8041
-3638.1033
-3466.2538
-3268.7591
-3268.994
-3271.9434
-3276.8115
-3277.9223
-3277.0262
-3275.0649
-3269.9202
-3265.7625
-3219.2854
-3179.5266
-3227.5528
-3289.6673
-3394.3704
-3505.6958
-3592.5214
-3635.0771
-3595.2078
-3447.0645
-3214.6356
-3480.2775
-3490.3211
-3511.2518
-3547.951
-3581.5994
-3610.2589
-3618.83
-3618.3252
-3582.5472
-3470.158
-3367.3459
-3371.7359
-3385.9154
-3409.8736
-3430.8345
-3448.4905
-3456.6161
-3446.1971
-3433.5794
-3381.8279
11318.721
10715.546
10129.574
9489.9387
8832.8456
8179.5386
7545.1798
6936.7833
6347.3436
5770.3036
8301.8479
8224.531
8101.259
7839.607
7501.7187
7111.2844
6689.606
6254.5657
5816.3985
5360.0006
-3709.501
-3727.9366
-3745.3444
-3751.3107
-3759.9994
-3763.2637
-3768.0592
-3771.495
-3772.8202
-3776.3118
-3705.8522
-3709.7034
-3745.0497
-3776.2804
-3815.3394
-3842.5111
-3866.4374
-3882.4674
-3891.1149
-3895.3028
-3946.5157
-3939.2802
-3955.5091
-3963.0862
-3991.4661
-4009.8458
-4029.6728
-4042.649
-4048.0684
-4043.6184
-4222.4234
-4212.0684
-4226.3373
-4216.9237
-4232.9949
-4234.8768
-4241.3995
-4242.448
-4238.876
-4234.5149
-4544.8769
-4526.7372
-4538.4824
-4511.4472
-4515.233
-4497.3861
-4484.928
-4464.901
-4437.2335
-4404.8728
-4901.1057
-4873.8835
-4883.4906
-4837.0693
-4828.6374
-4790.1484
-4757.3175
-4713.8954
-4659.2259
-4599.0149
-5281.8498
-5243.3994
-5252.0395
-5185.2222
-5165.6721
-5107.5834
-5056.188
-4992.719
-4916.4637
-4831.1517
-5682.8604
-5630.7853
-5639.61
-5550.5889
-5519.772
-5441.544
-5370.8777
-5288.4428
-5198.4688
-5115.9184
-6105.0443
-6035.9217
-6045.7708
-5931.7765
-5888.3058
-5787.897
-5693.5295
-5583.5011
-5458.1879
-5322.5874
-6548.5005
-6458.4127
-6470.8435
-6329.1985
-6271.9443
-6149.0596
-6030.8966
-5896.7845
-5747.1784
-5585.4191
-7019.3416
-6902.2106
-6917.9747
-6744.4919
-6670.3457
-6522.7548
-6376.8534
-6214.6285
-6036.1371
-5850.2665
-7516.4405
-7366.2091
-7388.3265
-7179.8872
-7085.7241
-6911.6637
-6733.8687
-6537.7863
-6319.1651
-6081.885
-8058.1149
-7863.4479
-7892.3978
-7643.1908