/*--------------------------------*- C++ -*----------------------------------*\
| =========                 |                                                 |
| \\      /  F ield         | foam-extend: Open Source CFD                    |
|  \\    /   O peration     | Version:     4.1                                |
|   \\  /    A nd           | Web:         http://www.foam-extend.org         |
|    \\/     M anipulation  |                                                 |
\*---------------------------------------------------------------------------*/
FoamFile
{
    version     2.0;
    format      ascii;
    class       volScalarField;
    location    "0.3";
    object      p;
}
// * * * * * * * * * * * * * * * * * * * * * * * * * * * * * * * * * * * * * //

dimensions      [0 2 -2 0 0 0 0];

internalField   nonuniform List<scalar> 
16796
(
-1.7359669
-3.8551786
-6.0673254
-8.302643
-10.575497
-12.895735
-15.273642
-17.719704
-20.244662
-22.859547
-25.575719
-28.404902
-31.359223
-34.451251
-37.694029
-41.101116
-44.68662
-48.46523
-52.452255
-56.663653
-61.116062
-65.826823
-70.81401
-76.096447
-81.693723
-87.6262
-93.915022
-100.5821
-107.65011
-115.14245
-123.08323
-131.49718
-140.40962
-149.84637
-159.83358
-170.39769
-181.56519
-193.3625
-205.81568
-218.95021
-232.79068
-247.36045
-262.68125
-278.77275
-295.65207
-313.33322
-331.82648
-351.13777
-371.2679
-392.21181
-413.95772
-436.48626
-459.76954
-483.77023
-508.44058
-533.72145
-559.54139
-585.81579
-612.44604
-639.31886
-666.30581
-693.26294
-720.03073
-746.43428
-772.28392
-797.37614
-821.49493
-844.41366
-865.89736
-885.70552
-903.59538
-919.32568
-932.66074
-943.37488
-951.25699
-956.11531
-957.78215
-956.11864
-951.01821
-942.40978
-930.26054
-914.57787
-895.41016
-872.84669
-847.01644
-818.08588
-786.25589
-751.75783
-714.84898
-675.80753
-634.92721
-592.51191
-548.87037
-504.31106
-459.13752
-413.64419
-368.11278
-322.8093
-277.98175
-233.85842
-190.64682
-148.53313
-107.6822
-68.237947
-30.324166
5.9544137
40.510829
73.274418
104.18926
133.21254
160.31293
185.46894
208.66739
229.90195
249.17186
266.48056
281.83374
295.23759
306.70096
316.24385
323.89539
329.63719
333.31378
334.79945
-1.7325132
-3.8474848
-6.0552393
-8.2861274
-10.55449
-12.870158
-15.243399
-17.684684
-20.204737
-22.814572
-25.525533
-28.349327
-31.298067
-34.384302
-37.621063
-41.021891
-44.600878
-48.372702
-52.352656
-56.556686
-61.001418
-65.704184
-70.68305
-75.956834
-81.545121
-87.468275
-93.747443
-100.40454
-107.46227
-114.94403
-122.87395
-131.27682
-140.17799
-149.60332
-159.57904
-170.13165
-181.28774
-193.07381
-205.51605
-218.64009
-232.47065
-247.03129
-262.34393
-278.42845
-295.30223
-312.97954
-331.47095
-350.78271
-370.91598
-391.86604
-413.6215
-436.16339
-459.46423
-483.4871
-508.18465
-533.49814
-559.35649
-585.6754
-612.35655
-639.28685
-666.33798
-693.36599
-720.21123
-746.69855
-772.63784
-797.82495
-822.04309
-845.06461
-866.65332
-886.56731
-904.56225
-920.39511
-933.82835
-944.63435
-952.60005
-957.53171
-959.2598
-957.64399
-952.57665
-943.98562
-931.8373
-916.13864
-896.93801
-874.32505
-848.42949
-819.41893
-787.49571
-752.89293
-715.8698
-676.70659
-635.69919
-593.15364
-549.38076
-504.69098
-459.38964
-413.77276
-368.12338
-322.70864
-277.77738
-233.55852
-190.25992
-148.06793
-107.14738
-67.641991
-29.675237
6.6485959
41.24307
74.038113
104.97843
134.02185
161.13771
186.30515
209.51161
230.75136
250.02419
267.33404
282.68707
296.08989
307.5517
317.09282
324.74262
330.48296
334.15855
335.64381
-1.7257313
-3.8322764
-6.0312722
-8.2533266
-10.512732
-12.819289
-15.183231
-17.614997
-20.125277
-22.725054
-25.425637
-28.238704
-31.176332
-34.251041
-37.475829
-40.864207
-44.430239
-48.188571
-52.154473
-56.343864
-60.77335
-65.460242
-70.422593
-75.679207
-81.249668
-87.154337
-93.414371
-100.05171
-107.08906
-114.54988
-122.45836
-130.83932
-139.71823
-149.12102
-159.07407
-169.60402
-180.73764
-192.50163
-204.92241
-218.02588
-231.83709
-246.37993
-261.67671
-277.74778
-294.61097
-312.28109
-330.76931
-350.0825
-370.22249
-391.18529
-412.96026
-435.52921
-458.86547
-482.93293
-507.68503
-533.06382
-558.99893
-585.4067
-612.18934
-639.23418
-666.41311
-693.58218
-720.58151
-747.23542
-773.35293
-798.7287
-823.14435
-846.37022
-868.16775
-888.29226
-906.49626
-922.53327
-936.16203
-947.15106
-955.28334
-960.3612
-962.21133
-960.69024
-955.68781
-947.12971
-934.98075
-919.24708
-899.97704
-877.26111
-851.23066
-822.05567
-789.94152
-755.12491
-717.86908
-678.45857
-637.19369
-594.38487
-550.34716
-505.39496
-459.83719
-413.97305
-368.08825
-322.45208
-277.31505
-232.9072
-189.43711
-147.09135
-106.03463
-66.410224
-28.340865
8.0700985
42.737338
75.592005
106.5801
135.66079
162.80473
187.99238
211.21242
232.46033
251.73699
269.04738
284.39858
297.79801
309.25561
318.79229
326.43793
332.17482
335.84809
337.33236
-1.7155384
-3.8094528
-5.9953119
-8.2041169
-10.450087
-12.742975
-15.092965
-17.510446
-20.006061
-22.590741
-25.275749
-28.07271
-30.993656
-34.051058
-37.257866
-40.627546
-44.174116
-47.912181
-51.856969
-56.024363
-60.430933
-65.093965
-70.031486
-75.262285
-80.805936
-86.682802
-92.914052
-99.521646
-106.52834
-113.95764
-121.83382
-130.1818
-139.02716
-148.39601
-158.31489
-168.81067
-179.91038
-191.64104
-204.02942
-217.10182
-230.88375
-245.39964
-260.67239
-276.723
-293.57004
-311.22913
-329.7123
-349.02738
-369.17722
-390.15891
-411.96296
-434.57235
-457.96164
-482.09593
-506.92988
-532.4067
-558.45713
-584.99848
-611.93378
-639.15096
-666.52226
-693.90376
-721.13523
-748.04018
-774.42639
-800.0867
-824.80031
-848.33463
-870.44747
-890.88997
-909.40993
-925.75564
-939.68026
-950.94647
-959.33131
-964.63116
-966.66704
-965.29061
-960.3878
-951.88088
-939.73224
-923.94672
-904.57267
-881.70177
-855.46785
-826.04452
-793.64178
-758.50181
-720.89397
-681.10932
-639.4549
-596.24781
-551.80954
-506.46053
-460.51517
-414.27742
-368.03707
-322.06667
-276.6192
-231.92644
-188.19795
-145.6207
-104.35915
-64.555875
-26.332482
10.209126
44.985315
77.929099
108.98845
138.12456
165.31009
190.52749
213.76734
235.0269
254.30876
271.61941
286.96734
300.36122
311.81206
321.34171
328.98078
334.71225
338.38184
339.86456
-1.7019503
-3.7790694
-5.9474567
-8.1386418
-10.366746
-12.641455
-14.972892
-17.371378
-19.847491
-22.412096
-25.076391
-27.851935
-30.750697
-33.785081
-36.967977
-40.312787
-43.83347
-47.544574
-51.461273
-55.5994
-59.975479
-64.606758
-69.511231
-74.707665
-80.215622
-86.055464
-92.248375
-98.816347
-105.78219
-113.16948
-121.00258
-129.30656
-138.10716
-147.43069
-157.30393
-167.75404
-178.80841
-190.49445
-202.8394
-215.87011
-229.61271
-244.09231
-259.3326
-275.35547
-292.18044
-309.82422
-328.3
-347.61688
-367.77907
-388.78511
-410.62702
-433.28939
-456.7484
-480.97081
-505.9129
-531.51947
-557.72273
-584.44135
-611.57946
-639.02585
-666.65325
-694.31783
-721.85892
-749.09904
-775.84428
-801.88509
-826.99755
-850.94504
-873.48062
-894.34981
-913.29405
-930.05463
-944.37716
-956.01644
-964.74145
-970.34057
-972.62715
-971.44611
-966.67795
-958.24036
-946.0924
-930.23718
-910.72297
-887.64316
-861.13491
-831.37677
-798.58505
-763.00937
-724.92742
-684.63913
-642.46065
-598.71814
-553.7418
-507.8602
-461.39508
-414.65684
-367.94067
-321.5235
-275.66157
-230.58893
-186.51643
-143.63144
-102.09806
-62.057861
-23.630875
13.082987
48.002405
81.062935
112.21522
141.42319
168.66223
193.91744
217.18196
238.45548
257.7428
275.05251
290.39493
303.78042
315.22142
324.74098
332.37076
338.09457
341.759
343.23955
-1.6851133
-3.741306
-5.8878999
-8.0571023
-10.262913
-12.514942
-14.823226
-17.198008
-19.649781
-22.18933
-24.82777
-27.576581
-30.447646
-33.453292
-36.606329
-39.920082
-43.408435
-47.085862
-50.967471
-55.069031
-59.40701
-63.998603
-68.861767
-74.015238
-79.47856
-85.272096
-91.417045
-97.935438
-104.85014
-112.18483
-119.964
-128.21285
-136.95735
-146.22404
-156.04001
-166.4328
-177.4302
-189.06014
-201.35045
-214.32863
-228.02159
-242.45531
-257.65446
-273.64201
-290.43872
-308.06261
-326.52835
-345.84663
-366.02335
-387.0589
-408.9472
-431.67484
-455.22006
-479.55171
-504.62815
-530.39617
-556.7899
-583.7297
-611.12117
-638.85421
-666.80225
-694.82159
-722.75108
-750.41205
-777.60855
-804.1281
-829.74283
-854.21117
-877.28017
-898.68831
-918.16901
-935.45469
-950.28141
-962.39392
-971.55097
-977.53071
-980.13666
-979.20506
-974.60935
-966.26128
-954.11562
-938.17322
-918.48225
-895.13823
-868.28262
-838.10026
-804.81555
-768.68769
-730.005
-689.0788
-646.23687
-601.81694
-556.16032
-509.60592
-462.48481
-415.11554
-367.80011
-320.8209
-274.43826
-228.88899
-184.3855
-141.11557
-99.242797
-58.90734
-20.2272
16.700301
51.796825
85.001185
116.26744
145.56299
172.86668
198.16698
221.46027
242.74926
262.04161
279.34846
294.68252
308.0562
319.48375
328.98977
336.60715
342.32083
345.97842
347.45612
-1.6647599
-3.695882
-5.8163924
-7.9592907
-10.138427
-12.363314
-14.643893
-16.990305
-19.412947
-21.922506
-24.529997
-27.2468
-30.084703
-33.055936
-36.173212
-39.449763
-42.899381
-46.536455
-50.376008
-54.433731
-58.726025
-63.270021
-68.083627
-73.18554
-78.595282
-84.333211
-90.420542
-96.87935
-103.73257
-111.00399
-118.71822
-126.90069
-135.57757
-144.77571
-154.52256
-164.84607
-175.77456
-187.33654
-199.56054
-212.47487
-226.10733
-240.48495
-255.63357
-271.57747
-288.33886
-305.93737
-324.38944
-343.70764
-363.89996
-384.96896
-406.9109
-429.71481
-453.36142
-477.8221
-503.05778
-529.01771
-555.63834
-582.84219
-610.53666
-638.6131
-666.94583
-695.39144
-723.7883
-751.95637
-779.69735
-806.79529
-833.01763
-858.11688
-881.83283
-903.89548
-924.0285
-941.95351
-957.39489
-970.08511
-979.77034
-986.21617
-989.21399
-988.58918
-984.20638
-975.96999
-963.82939
-947.78258
-927.8776
-904.21253
-876.93413
-846.23503
-812.34964
-775.54895
-736.13446
-694.4315
-650.78221
-605.53855
-559.05545
-511.68448
-463.7681
-415.63474
-367.59467
-319.9368
-272.92637
-226.80344
-181.78213
-138.05066
-95.771808
-55.083954
-16.102496
21.078482
56.384348
89.757931
121.15749
150.55467
177.93256
203.28371
226.60842
247.9131
267.20881
284.50984
299.83171
313.18934
324.59916
334.08759
341.68903
347.38973
351.0386
352.51268
-1.641394
-3.6434256
-5.7336198
-7.8459357
-9.9940556
-12.187382
-14.435742
-16.749163
-19.137925
-21.612601
-24.18409
-26.863658
-29.662978
-32.594166
-35.669824
-38.903072
-42.307598
-45.897686
-49.688262
-53.694926
-57.933992
-62.422522
-67.17836
-72.220157
-77.567406
-83.240456
-89.260538
-95.649772
-102.43117
-109.62864
-117.26695
-125.37173
-133.96944
-143.08726
-152.75304
-162.99523
-173.84273
-185.32473
-197.47057
-210.30948
-223.87032
-238.18132
-253.26967
-269.16118
-285.87975
-303.44689
-321.88108
-341.19713
-361.40546
-382.51119
-404.51334
-427.40378
-451.16621
-475.77504
-501.19418
-527.37587
-554.25937
-581.76977
-609.81674
-638.29339
-667.07522
-696.0193
-724.96356
-753.72651
-782.10719
-809.88567
-836.82404
-862.66786
-887.14848
-909.98585
-930.89216
-949.5762
-965.74842
-979.12661
-989.44185
-996.44463
-999.91173
-999.65523
-995.52911
-987.42879
-975.29709
-959.12852
-938.97084
-914.92523
-887.14482
-855.83163
-821.23216
-783.63166
-743.34753
-700.722
-656.1145
-609.89407
-562.43196
-514.09487
-465.23881
-416.20391
-367.31017
-318.85418
-271.10677
-224.31171
-178.68502
-134.41518
-91.663869
-50.56718
-11.237278
26.235722
61.781681
95.348275
126.89879
156.40997
183.86991
209.27603
232.63328
253.95239
273.24848
290.5395
305.84426
319.18064
330.56762
340.03373
347.61513
353.2996
356.93761
358.40719
-1.6143987
-3.5832377
-5.6388953
-7.7163823
-9.8291788
-11.98656
-14.198222
-16.47406
-18.824225
-21.259154
-23.789617
-26.426748
-29.182086
-32.067619
-35.095818
-38.279678
-41.632762
-45.169235
-48.90391
-52.852278
-57.030558
-61.455723
-66.145544
-71.118614
-76.39439
-81.993206
-87.936305
-94.245852
-100.94494
-108.05761
-115.6088
-123.62437
-132.13108
-141.15649
-150.7289
-160.87731
-171.63127
-183.02077
-195.07602
-207.8273
-221.30467
-235.53773
-250.5552
-266.38463
-283.05185
-300.58049
-318.99141
-338.30198
-358.52537
-379.66971
-401.73715
-424.7229
-448.61409
-473.38865
-499.01405
-525.44598
-552.62707
-580.48547
-608.93357
-637.86668
-667.16184
-696.6768
-726.2492
-755.69602
-784.81346
-813.37717
-841.14315
-867.84913
-893.21671
-916.95428
-938.76071
-958.32983
-975.3558
-989.53913
-1000.5931
-1008.2504
-1012.2704
-1012.4492
-1008.628
-1000.6914
-988.57449
-972.26734
-951.81736
-927.32936
-898.96399
-866.93443
-831.50156
-792.96759
-751.6688
-707.96748
-662.24356
-614.88622
-566.28596
-516.82723
-466.88186
-416.80361
-366.92369
-317.54746
-268.95212
-221.38548
-175.06554
-130.18086
-86.891573
-45.330906
-5.6070617
32.194623
68.00938
101.79063
133.50758
163.14295
190.69069
216.1539
239.54288
260.87342
280.16527
297.44062
312.72208
326.03089
337.38893
346.8272
354.38382
360.04835
363.67304
365.13712
-1.5846193
-3.5163751
-5.533375
-7.5718617
-9.6451003
-11.762225
-13.932784
-16.166525
-18.473451
-20.863851
-23.348344
-25.937915
-28.643958
-31.478309
-34.453294
-37.581766
-40.877145
-44.353461
-48.025395
-51.908318
-56.018334
-60.372315
-64.987946
-69.883752
-75.079139
-80.594421
-86.45085
-92.670631
-99.276948
-106.29396
-113.7468
-121.6616
-130.06541
-138.98621
-148.45281
-158.4948
-169.14247
-180.42663
-192.37852
-205.02956
-218.41115
-232.5544
-247.48976
-263.24671
-279.85324
-297.33541
-315.71669
-335.01738
-355.25377
-376.43736
-398.57392
-421.66243
-445.69398
-470.65053
-496.50365
-523.21309
-550.72536
-578.97227
-607.86944
-637.31487
-667.18755
-697.34625
-727.62848
-757.84976
-787.80327
-817.25987
-845.96884
-873.6591
-900.04129
-924.81068
-947.65086
-968.23848
-986.24885
-1001.3624
-1013.2718
-1021.6887
-1026.3521
-1027.0391
-1023.5759
-1015.8343
-1003.7397
-987.27717
-966.49357
-941.49783
-912.45942
-879.60466
-843.21132
-803.60157
-761.13392
-716.19418
-669.18625
-620.5229
-570.61701
-519.87358
-468.68271
-417.41376
-366.41071
-315.98879
-266.43222
-217.9932
-170.89164
-125.31588
-81.423991
-39.345608
0.81586216
38.980784
75.090723
109.10582
141.0022
170.76948
198.40836
223.92845
247.3462
268.68314
287.96429
305.21665
320.46712
333.74074
345.06268
354.46666
361.99305
367.63336
371.24194
372.69937
-1.5511814
-3.4418352
-5.4160606
-7.4114076
-9.4408895
-11.513481
-13.638566
-15.82573
-18.084807
-20.425923
-22.85953
-25.396448
-28.047903
-30.825567
-33.741602
-36.808698
-40.040119
-43.449739
-47.052093
-50.862411
-54.896669
-59.171622
-63.704852
-68.514803
-73.620821
-79.043189
-84.803159
-90.922974
-97.425901
-104.33623
-111.67931
-119.48152
-127.77025
-136.57393
-145.9219
-155.84441
-166.37252
-177.53799
-189.37312
-201.91062
-215.18334
-229.22405
-244.06511
-259.73813
-276.2735
-293.69994
-312.04387
-331.32882
-351.57459
-372.79647
-395.00427
-418.20124
-442.38295
-467.53599
-493.63657
-520.64911
-548.52466
-577.19928
-606.59245
-636.60539
-667.11957
-697.99516
-729.06985
-760.15782
-791.04915
-821.50963
-851.28121
-880.08312
-907.61381
-933.55375
-957.56932
-979.31757
-998.45228
-1014.6308
-1027.5217
-1036.8127
-1042.2187
-1043.4946
-1040.4486
-1032.9375
-1020.8756
-1004.2416
-983.08152
-957.50912
-927.70409
-893.90805
-856.41851
-815.58098
-771.77987
-725.42841
-676.95838
-626.80982
-575.42145
-523.22187
-470.62204
-418.009
-365.74108
-314.14444
-263.511
-214.0975
-166.12564
-119.78311
-75.225232
-32.577202
8.0633322
46.62348
83.052219
117.31749
149.40338
179.3074
207.03798
232.61209
256.05316
277.38916
296.65106
313.87121
329.08134
342.3107
353.58812
362.95035
370.44021
376.05143
379.64071
381.0902
-1.5151204
-3.3609154
-5.2883737
-7.2365364
-9.2181535
-11.242027
-13.317361
-15.453558
-17.660273
-19.947447
-22.325351
-24.804618
-27.396293
-30.111864
-32.96331
-35.963143
-39.124449
-42.460931
-45.986957
-49.717602
-53.668693
-57.856851
-62.299542
-67.015111
-72.022833
-77.342944
-82.996687
-89.006338
-95.395242
-102.18783
-109.40964
-117.08732
-125.24866
-133.9225
-143.13877
-152.92843
-163.32337
-174.35633
-186.06081
-198.47086
-211.62091
-225.54557
-240.27923
-255.85585
-272.30845
-289.66867
-307.96617
-327.22804
-347.47796
-368.73545
-391.0148
-414.32406
-438.66383
-464.02587
-490.39173
-517.73115
-546.00036
-575.1404
-605.07526
-635.71007
-666.92933
-698.59517
-730.54583
-762.59441
-794.5279
-826.10679
-857.06522
-887.11187
-915.93175
-943.18892
-968.53041
-991.59121
-1012.0006
-1029.3895
-1043.3991
-1053.6889
-1059.9465
-1061.9006
-1059.3381
-1052.0982
-1040.082
-1023.2608
-1001.6794
-975.45691
-944.7849
-909.92274
-871.19088
-828.96196
-783.65046
-735.70139
-685.57871
-633.75389
-580.69525
-526.8583
-472.67763
-418.56016
-364.88016
-311.97581
-260.14721
-209.65578
-160.72472
-113.54044
-68.254699
-24.987248
16.17115
55.15553
91.923483
126.45194
158.73408
188.77641
216.59608
242.21837
265.67448
286.99963
306.23136
323.408
338.56656
351.74097
362.96408
372.27596
379.72212
385.29868
388.86504
390.30512
-1.4754897
-3.2725387
-5.1492526
-7.046232
-8.9759267
-10.946948
-12.968302
-15.049195
-17.199083
-19.427707
-21.745136
-24.161804
-26.688551
-29.336666
-32.117928
-35.044649
-38.12972
-41.386654
-44.829634
-48.473557
-52.334087
-56.427691
-60.7717
-65.384346
-70.284812
-75.493278
-81.030963
-86.920165
-93.184301
-99.847929
-106.93679
-114.47782
-122.49917
-131.03016
-140.10132
-149.74434
-159.99199
-170.87808
-182.43734
-194.70529
-207.71806
-221.51218
-236.1243
-251.59088
-267.9478
-285.22986
-303.47027
-322.70001
-342.94704
-364.23549
-386.58466
-410.0079
-434.5114
-460.09277
-486.73953
-514.42746
-543.11874
-572.76014
-603.28093
-634.59091
-666.57834
-699.10791
-732.01896
-765.12383
-798.20662
-831.02241
-863.29711
-894.72805
-924.98558
-953.7157
-980.54394
-1005.0805
-1026.927
-1045.6845
-1060.9625
-1072.3886
-1079.6184
-1082.3502
-1080.346
-1073.4243
-1061.4705
-1044.4472
-1022.3974
-995.4465
-963.7995
-927.73636
-887.60414
-843.8069
-796.7939
-747.04687
-695.06679
-641.36116
-586.43205
-530.76552
-474.82272
-419.03277
-363.78752
-309.43815
-256.29341
-204.61932
-154.64012
-106.54017
-60.466627
-16.532597
25.179333
64.613466
101.73735
136.5382
169.01954
199.19804
227.10064
252.76188
276.22165
297.52314
316.71119
333.83066
348.92438
362.03138
373.18888
382.44057
389.83484
395.37046
398.90981
400.33881
-1.4333226
-3.1780068
-5.0001309
-6.8420303
-8.7158432
-10.629976
-12.593222
-14.614573
-16.703268
-18.868833
-21.121117
-23.470336
-25.92711
-28.502507
-31.208087
-34.055944
-37.058755
-40.229822
-43.583124
-47.133361
-50.89601
-54.887368
-59.12461
-63.625834
-68.410118
-73.497563
-78.909353
-84.667791
-90.796353
-97.319723
-104.26384
-111.65591
-119.52446
-127.89931
-136.81161
-146.29379
-156.37956
-167.10384
-178.50266
-190.61311
-203.47309
-217.12122
-231.59652
-246.93816
-263.18506
-280.37547
-298.54642
-317.73312
-337.96818
-359.28079
-381.69574
-405.23223
-429.90265
-455.71113
-482.65188
-510.70747
-539.84688
-570.02345
-601.17261
-633.20969
-666.02754
-699.49419
-733.45073
-767.70928
-802.05135
-836.22662
-869.95246
-902.91419
-934.76633
-965.1351
-993.62229
-1019.8105
-1043.2703
-1063.5688
-1080.2796
-1092.9934
-1101.3292
-1104.9504
-1103.5892
-1097.0396
-1085.1692
-1067.9298
-1045.3622
-1017.5987
-984.85968
-947.44903
-905.74449
-860.18647
-811.26444
-759.50237
-705.44378
-649.63731
-592.62341
-534.92261
-477.02584
-419.38679
-362.41657
-306.48027
-251.8956
-198.93294
-147.8169
-98.728777
-51.809864
-7.1652253
35.132232
75.037599
112.52987
147.608
180.28721
210.59558
238.57095
264.25818
287.70674
308.96861
328.0966
345.14269
360.15605
373.18124
384.26019
393.44048
400.77362
406.26121
409.76894
411.185
-1.3877766
-3.0763834
-4.8401124
-6.6231035
-8.4371482
-10.29043
-12.191514
-14.149159
-16.172373
-18.270445
-20.452992
-22.729988
-25.111818
-27.609309
-30.233784
-32.997099
-35.911696
-38.990645
-42.2477
-45.697344
-49.354847
-53.236311
-57.358736
-61.740066
-66.399248
-71.356291
-76.632318
-82.249625
-88.231732
-94.60343
-101.39085
-108.62146
-116.32417
-124.5293
-133.26862
-142.57534
-152.48414
-163.03107
-174.25355
-186.19028
-198.88105
-212.36666
-226.68866
-241.8891
-258.01015
-275.09375
-293.18103
-312.31175
-332.52358
-353.85121
-376.32539
-399.97177
-424.80957
-450.85012
-478.0951
-506.53475
-536.1457
-566.88881
-598.70667
-631.52112
-665.23056
-699.70733
-734.79508
-770.30639
-806.02064
-841.68234
-877.00018
-911.64684
-945.25991
-977.44418
-1007.7753
-1035.8054
-1061.0702
-1083.0985
-1101.4231
-1115.5927
-1125.1841
-1129.8208
-1129.1988
-1123.0837
-1111.3228
-1093.8545
-1070.717
-1042.0499
-1008.0918
-969.17355
-925.70869
-878.17957
-827.12204
-773.10868
-716.73175
-658.58682
-599.25784
-539.30412
-479.24978
-419.57562
-360.71361
-303.04363
-246.89242
-192.53431
-140.19332
-90.046416
-42.227516
3.1680273
46.078707
86.472126
124.3404
159.69581
192.56672
222.99398
251.02755
276.72369
300.14236
321.34516
340.39356
357.34729
372.26234
385.18921
396.17491
405.27116
412.53276
417.96437
421.43534
422.83637
-1.3397378
-2.9688
-4.670459
-6.3908185
-8.14131
-9.9298808
-11.764849
-13.654726
-15.608271
-17.634521
-19.742837
-21.94294
-24.244956
-26.659455
-29.1975
-31.870692
-34.691214
-37.671885
-40.826211
-44.168436
-47.713598
-51.477586
-55.477197
-59.730197
-64.255384
-69.072645
-74.203028
-79.668794
-85.493488
-91.701994
-98.320608
-105.37707
-112.90066
-120.92217
-129.47401
-138.5902
-148.30637
-158.65978
-169.68926
-181.43517
-193.93929
-207.24473
-221.39566
-236.43717
-252.4149
-269.37468
-287.36205
-306.42165
-326.59657
-347.92745
-370.45154
-394.20149
-419.20404
-445.47844
-473.0347
-501.87157
-531.97437
-563.3125
-595.83681
-629.47679
-664.13753
-699.69676
-736.00173
-772.86637
-810.0686
-847.34817
-884.40509
-920.89896
-956.44948
-990.63831
-1023.0127
-1053.0909
-1080.3698
-1104.3354
-1124.4742
-1140.2866
-1151.3013
-1157.0949
-1157.3218
-1151.7142
-1140.0949
-1122.3869
-1098.6243
-1068.9553
-1033.6387
-993.0373
-947.60553
-897.87432
-844.43302
-787.91012
-728.95366
-668.21267
-606.32027
-543.87933
-481.4508
-419.54524
-358.61704
-299.06155
-241.21449
-185.35335
-131.70035
-80.426537
-31.656627
14.525684
58.072273
98.965203
137.21158
172.83872
205.88978
236.41978
264.49211
290.17551
313.54144
334.66193
353.60784
370.44722
385.24338
398.05318
408.92904
417.92705
425.10548
430.47224
433.90073
435.28441
-1.2885712
-2.8545841
-4.4905679
-6.1446648
-7.8279146
-9.5480112
-11.31301
-13.131158
-15.010947
-16.961145
-18.990842
-21.109484
-23.326921
-25.653445
-28.099841
-30.67743
-33.398118
-36.27445
-39.319661
-42.547731
-45.973445
-49.612448
-53.481315
-57.597606
-61.979944
-66.648069
-71.622925
-76.926715
-82.582986
-88.61669
-95.05427
-101.92371
-109.25464
-117.07835
-125.42786
-134.33798
-143.84535
-153.98841
-164.80746
-176.34459
-188.64362
-201.75003
-215.71077
-230.57411
-246.38932
-263.20638
-281.07545
-300.04643
-320.16817
-341.48775
-364.0494
-387.89341
-413.05469
-439.56123
-467.43221
-496.67591
-527.28735
-559.24567
-592.51119
-627.02231
-662.69217
-699.40515
-737.01337
-775.33319
-814.14203
-853.17547
-892.12511
-930.63725
-968.31277
-1004.7087
-1039.3412
-1071.6916
-1101.2139
-1127.3454
-1149.5206
-1167.1849
-1179.8115
-1186.9227
-1188.1238
-1183.1087
-1171.6707
-1153.7139
-1129.2679
-1098.4897
-1061.6619
-1019.1836
-971.55686
-919.36874
-863.27033
-803.9544
-742.13286
-678.51553
-613.79113
-548.61121
-483.57756
-419.23311
-356.05625
-294.45827
-234.78348
-177.31147
-122.26106
-69.795393
-20.027829
26.971872
71.171242
112.569
151.18932
187.07647
220.29011
250.90098
278.98724
304.63128
327.91707
348.92792
367.74478
384.44461
399.09851
411.7701
422.5175
431.40143
438.48376
443.77585
447.15552
448.51928
-1.2349571
-2.7346275
-4.3014591
-5.8857717
-7.4981982
-9.1461644
-10.837447
-12.580012
-14.382067
-16.252093
-18.198891
-20.231613
-22.359814
-24.593489
-26.943122
-29.419735
-32.034934
-34.800966
-37.730772
-40.838042
-44.137282
-47.643869
-51.374126
-55.345381
-59.57605
-64.085701
-68.895141
-74.026488
-79.50326
-85.350449
-91.59462
-98.263979
-105.38848
-112.99987
-121.13179
-129.81984
-139.10164
-149.01686
-159.60725
-170.91669
-182.99108
-195.87835
-209.62834
-224.29262
-239.92428
-256.5776
-274.30771
-293.16999
-313.2195
-334.51015
-357.09372
-381.01872
-406.32899
-433.06204
-461.24716
-490.9032
-522.03607
-554.63587
-588.67378
-624.09858
-660.83292
-698.76938
-737.7664
-777.64421
-818.18088
-859.10876
-900.11156
-940.82222
-980.82217
-1019.6422
-1056.7653
-1091.6321
-1123.6488
-1152.199
-1176.6577
-1196.4082
-1210.8596
-1219.4714
-1221.7908
-1217.4671
-1206.2587
-1188.0473
-1162.8556
-1130.8512
-1092.3434
-1047.7737
-997.6991
-942.77172
-883.71397
-821.29261
-756.29265
-689.49309
-621.64532
-553.45531
-485.56984
-418.56698
-352.9505
-289.14788
-227.51126
-168.32082
-111.78996
-58.071548
-7.2649747
40.576567
85.438862
127.33977
166.3228
202.4513
235.80327
266.46682
294.5363
320.10897
343.28232
364.1518
382.80913
399.34076
413.82607
426.33577
436.93399
445.68626
452.65821
457.8648
461.18868
462.52969
-1.178488
-2.6085435
-4.1028426
-5.6139623
-7.1521003
-8.7243979
-10.338336
-12.001585
-13.722049
-15.507907
-17.36765
-19.310119
-21.344554
-23.480632
-25.728517
-28.098907
-30.603087
-33.252982
-36.061212
-39.041154
-42.207006
-45.573849
-49.157723
-52.975696
-57.045944
-61.387829
-66.02199
-70.970426
-76.256591
-81.905483
-87.943755
-94.399799
-101.30387
-108.68814
-116.58685
-125.03637
-134.07528
-143.74447
-154.08718
-165.14906
-176.97815
-189.62491
-203.14211
-217.58476
-233.00989
-249.47633
-267.04435
-285.77517
-305.73039
-326.97121
-349.55749
-373.5466
-398.99202
-425.94166
-454.4359
-484.50526
-516.16778
-549.42594
-584.26327
-620.64056
-658.49169
-697.71921
-738.18964
-779.72874
-822.11678
-865.08413
-908.30742
-951.40656
-993.94307
-1035.4202
-1075.2853
-1112.9346
-1147.722
-1178.9706
-1205.9888
-1228.0887
-1244.606
-1254.927
-1258.531
-1255.0147
-1244.0949
-1225.6261
-1199.6227
-1166.2635
-1125.8889
-1078.9889
-1026.1848
-968.204
-905.85144
-839.97909
-771.45576
-701.13904
-629.85102
-558.35829
-487.35711
-417.46342
-349.20758
-283.03309
-219.29876
-158.28338
-100.19234
-45.165334
6.7152418
55.415838
100.94345
143.33783
182.66441
219.00786
252.46654
283.14767
311.16326
336.6267
359.65003
380.34167
398.80484
415.136
429.42323
441.74471
452.17081
460.77205
467.61792
472.72713
475.98756
477.30275
-1.1196487
-2.4770001
-3.8955164
-5.3301522
-6.7906527
-8.2838602
-9.8169447
-11.397262
-13.032399
-14.730211
-16.498864
-18.34687
-20.283132
-22.316988
-24.458262
-26.717306
-29.105059
-31.633098
-34.313698
-37.159896
-40.185551
-43.405419
-46.835227
-50.491747
-54.392882
-58.557753
-63.006794
-67.761844
-72.846254
-78.284991
-84.104755
-90.334082
-97.003485
-104.14554
-111.79504
-119.98909
-128.76721
-138.1715
-148.24666
-159.04014
-170.60213
-182.98564
-196.24645
-210.44311
-225.63672
-241.89083
-259.27106
-277.84477
-297.68045
-318.84702
-341.41296
-365.44512
-391.00738
-418.15895
-446.95231
-477.43087
-509.62611
-543.55442
-579.21335
-616.5775
-655.59395
-696.17724
-738.20404
-781.50766
-825.87248
-871.02851
-916.64656
-962.33414
-1007.6328
-1052.0171
-1094.8964
-1135.6192
-1173.4813
-1207.7388
-1237.6248
-1262.3707
-1281.2277
-1293.497
-1298.5777
-1296.0047
-1285.4453
-1266.7211
-1239.8356
-1204.9801
-1162.5304
-1113.0334
-1057.1847
-995.79939
-929.77816
-860.07126
-787.64349
-713.44192
-638.36819
-563.25638
-488.85689
-415.82624
-344.72226
-276.00391
-210.03489
-147.09001
-87.363469
-30.978322
22.003648
71.572052
117.75845
160.62762
200.26967
236.79308
270.31872
300.97476
328.8924
354.20245
377.03251
397.50486
415.73481
431.82941
445.88581
457.98994
468.21868
476.64765
483.35027
488.34914
491.53781
492.8238
-1.0582253
-2.3398525
-3.6794551
-5.0344457
-6.4140922
-7.8249221
-9.2737783
-10.767686
-12.313897
-13.919928
-15.5936
-17.343074
-19.176901
-21.104058
-23.134004
-25.276725
-27.542789
-29.943399
-32.49046
-35.196635
-38.075419
-41.14121
-44.409387
-47.896389
-51.619813
-55.598497
-59.852628
-64.403843
-69.275349
-74.492031
-80.080589
-86.069658
-92.489963
-99.374432
-106.75836
-114.67953
-123.17841
-132.29824
-142.08517
-152.58842
-163.86033
-175.9565
-188.93576
-202.86025
-217.79525
-233.80918
-250.97323
-269.36114
-289.04864
-310.11279
-332.6312
-356.68086
-382.33682
-409.67047
-438.74751
-469.62545
-502.3507
-536.95515
-573.45223
-611.83238
-652.05805
-694.05809
-737.72175
-782.89233
-829.36059
-876.85833
-925.0522
-973.53848
-1021.8389
-1069.3988
-1115.5874
-1159.7014
-1200.9736
-1238.5851
-1271.6847
-1299.4114
-1320.9198
-1335.4121
-1342.1924
-1340.7227
-1330.6109
-1311.6389
-1283.7962
-1247.2877
-1202.5303
-1150.1366
-1090.8894
-1025.706
-955.59791
-881.62921
-804.87485
-726.38366
-647.14686
-568.07341
-489.97278
-413.54458
-339.37461
-267.93612
-199.59526
-134.61947
-73.187906
-15.402774
38.698933
89.134056
135.96251
179.27754
219.19701
255.8559
289.39985
319.9799
347.74804
372.85377
395.44131
415.64758
433.60064
449.41858
463.20796
475.06277
485.06652
493.30007
499.84076
504.71524
507.82313
509.07627
-0.99455602
-2.1976053
-3.4552997
-4.727613
-6.0233182
-7.3486132
-8.709998
-10.114151
-11.567973
-13.078624
-14.65356
-16.300576
-18.027846
-19.843968
-21.758015
-23.779581
-25.918838
-28.186591
-30.594343
-33.154357
-35.879732
-38.784471
-41.883571
-45.193104
-48.730314
-52.513716
-56.563206
-60.900173
-65.547624
-70.530314
-75.874889
-81.610027
-87.766606
-94.377846
-101.47949
-109.10997
-117.31059
-126.12571
-135.60288
-145.79308
-156.75077
-168.53411
-181.20502
-194.82926
-209.47641
-225.21982
-242.13648
-260.3067
-279.81378
-300.74335
-323.18264
-347.21941
-372.94064
-400.43089
-429.77014
-461.03135
-494.27738
-529.5574
-566.9027
-606.3218
-647.79498
-691.26806
-736.64564
-783.78386
-832.48271
-882.47836
-933.43562
-984.94116
-1036.4979
-1087.5213
-1137.3387
-1185.1917
-1230.2439
-1271.5938
-1308.295
-1339.3817
-1363.8973
-1380.929
-1389.6683
-1389.4905
-1379.9323
-1360.7273
-1331.8474
-1293.512
-1246.1854
-1190.5576
-1127.5127
-1058.0876
-983.42326
-904.71529
-823.16528
-739.93787
-656.125
-572.7186
-490.59219
-410.49079
-333.02808
-258.68966
-187.84079
-120.73735
-57.538642
1.6789034
56.907987
108.19732
155.63944
199.35989
239.50764
276.24702
309.75089
340.19514