/*--------------------------------*- C++ -*----------------------------------*\
| =========                 |                                                 |
| \\      /  F ield         | foam-extend: Open Source CFD                    |
|  \\    /   O peration     | Version:     4.1                                |
|   \\  /    A nd           | Web:         http://www.foam-extend.org         |
|    \\/     M anipulation  |                                                 |
\*---------------------------------------------------------------------------*/
FoamFile
{
    version     2.0;
    format      ascii;
    class       surfaceScalarField;
    location    "0.3";
    object      phi;
}
// * * * * * * * * * * * * * * * * * * * * * * * * * * * * * * * * * * * * * //

dimensions      [0 3 -1 0 0 0 0];

internalField   nonuniform List<scalar> 
32976
(
-0.24552728
2.315351e-05
-0.24555052
2.3236048e-05
-0.24557394
2.341927e-05
-0.24559765
2.370722e-05
-0.24562175
2.4100385e-05
-0.24564635
2.4600613e-05
-0.24567156
2.5209353e-05
-0.24569749
2.592925e-05
-0.24572425
2.6762516e-05
-0.24575196
2.77126e-05
-0.24578074
2.8782468e-05
-0.24581072
2.9976378e-05
-0.24584202
3.1298038e-05
-0.24587477
3.2752514e-05
-0.24590911
3.4344236e-05
-0.24594519
3.6079069e-05
-0.24598316
3.7962128e-05
-0.24602316
4.0000049e-05
-0.24606535
4.2198576e-05
-0.24610992
4.4565062e-05
-0.24615702
4.710579e-05
-0.24620685
4.9828742e-05
-0.24625959
5.2740604e-05
-0.24631544
5.584985e-05
-0.24637461
5.9163378e-05
-0.2464373
6.2689949e-05
-0.24650373
6.6436405e-05
-0.24657415
7.0411504e-05
-0.24664877
7.4621665e-05
-0.24672784
7.9075249e-05
-0.24681162
8.3777756e-05
-0.24690036
8.8736252e-05
-0.24699431
9.3956147e-05
-0.24709375
9.9440635e-05
-0.24719895
0.00010519439
-0.24731016
0.0001112174
-0.24742768
0.00011751129
-0.24755175
0.00012407204
-0.24768265
0.00013089697
-0.24782062
0.00013797663
-0.24796592
0.00014530258
-0.24811878
0.00015285846
-0.24827941
0.00016062738
-0.248448
0.00016858568
-0.2486247
0.0001767053
-0.24880965
0.00018495237
-0.24900294
0.00019328667
-0.2492046
0.00020166148
-0.24941462
0.00021002227
-0.24963293
0.00021830691
-0.24985938
0.00022644486
-0.25009373
0.0002343568
-0.25033569
0.00024195423
-0.25058483
0.00024913977
-0.25084063
0.00025580614
-0.25110247
0.00026183726
-0.25136958
0.00026710813
-0.25164106
0.00027148558
-0.25191589
0.00027482909
-0.25219289
0.00027699259
-0.25247071
0.00027782502
-0.25274788
0.00027717349
-0.25302277
0.00027488521
-0.25329358
0.00027081048
-0.25355839
0.00026480604
-0.25381512
0.0002567387
-0.25406161
0.00024648992
-0.25429557
0.00023395909
-0.25451464
0.00021906913
-0.25471641
0.00020177046
-0.25489846
0.0001820455
-0.25505837
0.00015991274
-0.2551938
0.0001354306
-0.2553025
0.00010869949
-0.25538237
7.9864269e-05
-0.25543148
4.9114626e-05
-0.25544817
1.6685117e-05
-0.25543102
-1.7145567e-05
-0.25537896
-5.2063354e-05
-0.25529123
-8.7722296e-05
-0.25516748
-0.00012374963
-0.25500773
-0.0001597539
-0.2548124
-0.00019533385
-0.25458231
-0.00023008792
-0.25431868
-0.00026362381
-0.25402312
-0.00029556801
-0.25369754
-0.00032557453
-0.25334421
-0.00035333277
-0.25296564
-0.00037857405
-0.25256456
-0.00040107644
-0.25214389
-0.00042066888
-0.25170666
-0.00043723109
-0.25125596
-0.00045069508
-0.25079492
-0.00046104259
-0.25032662
-0.00046830216
-0.24985407
-0.00047254495
-0.24938019
-0.00047387934
-0.24890775
-0.00047244633
-0.24843934
-0.00046841145
-0.24797738
-0.00046196074
-0.24752408
-0.0004532938
-0.24708146
-0.00044261841
-0.24665132
-0.00043014523
-0.24623523
-0.00041608415
-0.2458346
-0.00040063857
-0.24545059
-0.00038400395
-0.24508423
-0.00036636429
-0.24473634
-0.00034789032
-0.2444076
-0.00032873795
-0.24409855
-0.00030904809
-0.24380961
-0.00028894481
-0.24354107
-0.00026853675
-0.24329315
-0.00024791668
-0.24306599
-0.00022716224
-0.24285965
-0.00020633665
-0.24267416
-0.00018549008
-0.2425095
-0.00016465983
-0.24236563
-0.00014387241
-0.24224249
-0.00012314427
-0.24214
-0.00010248316
-0.24205812
-8.1889508e-05
-0.24199676
-6.1357778e-05
-0.24195588
-4.0876772e-05
-2.0430569e-05
-0.24553733
4.6260117e-05
-0.24556052
4.6425793e-05
-0.2455839
4.6792021e-05
-0.24560756
4.7367468e-05
-0.24563161
4.8153147e-05
-0.24565616
4.9152774e-05
-0.24568132
5.0369249e-05
-0.2457072
5.1807863e-05
-0.24573391
5.3473043e-05
-0.24576157
5.5371683e-05
-0.2457903
5.750972e-05
-0.24582022
5.9895666e-05
-0.24585146
6.2536941e-05
-0.24588415
6.5443677e-05
-0.24591843
6.8624741e-05
-0.24595444
7.2091861e-05
-0.24599233
7.5855278e-05
-0.24603226
7.9928266e-05
-0.24607439
8.4322327e-05
-0.24611887
8.9052174e-05
-0.2461659
9.4130388e-05
-0.24621564
9.9572946e-05
-0.24626829
0.00010539325
-0.24632405
0.00011160826
-0.24638312
0.0001182318
-0.24644571
0.00012528144
-0.24651205
0.00013277089
-0.24658235
0.00014071771
-0.24665687
0.00014913481
-0.24673583
0.00015803895
-0.24681949
0.00016744121
-0.24690811
0.0001773558
-0.24700195
0.00018779363
-0.24710127
0.0001987612
-0.24720634
0.00021026794
-0.24731744
0.000222314
-0.24743483
0.00023490273
-0.24755879
0.00024802626
-0.24768957
0.00026167941
-0.24782744
0.00027584345
-0.24797264
0.00029050169
-0.2481254
0.00030562163
-0.24828594
0.00032116973
-0.24845445
0.00033709889
-0.2486311
0.00035335325
-0.24881601
0.00036986529
-0.24900928
0.00038655484
-0.24921095
0.00040332871
-0.24942101
0.00042007805
-0.24963938
0.00043667882
-0.24986592
0.00045299012
-0.25010042
0.00046885344
-0.25034256
0.00048409189
-0.25059193
0.00049851072
-0.25084802
0.00051189529
-0.25111019
0.00052401326
-0.2513777
0.00053461437
-0.25164965
0.00054343185
-0.251925
0.00055018406
-0.25220259
0.00055457815
-0.25248107
0.00055631106
-0.25275898
0.00055507591
-0.25303466
0.0005505658
-0.25330633
0.00054247984
-0.25357205
0.00053052988
-0.25382976
0.0005144477
-0.25407726
0.0004939943
-0.25431227
0.00046896648
-0.25453241
0.00043920806
-0.25473526
0.00040461794
-0.25491837
0.00036515922
-0.25507932
0.00032086732
-0.25521575
0.0002718579
-0.25532538
0.00021833103
-0.2554061
0.00016057628
-0.25545595
9.8973539e-05
-0.25547326
3.3993089e-05
-0.2554566
-3.3807288e-05
-0.25540487
-0.00010379689
-0.25531731
-0.00017528066
-0.25519355
-0.00024750955
-0.25503361
-0.00031969677
-0.2548379
-0.00039103571
-0.25460727
-0.00046071903
-0.25434294
-0.00052795799
-0.25404651
-0.00059200167
-0.25371992
-0.00065215464
-0.25336546
-0.00070779279
-0.25298566
-0.00075837647
-0.25258328
-0.00080346035
-0.25216125
-0.00084270153
-0.25172262
-0.00087585944
-0.25127051
-0.00090279875
-0.25080807
-0.00092348423
-0.2503384
-0.00093797479
-0.24986453
-0.00094641489
-0.24938939
-0.00094902381
-0.24891575
-0.00094608609
-0.24844622
-0.00093793551
-0.24798324
-0.00092494675
-0.24752901
-0.00090752146
-0.24708555
-0.00088607749
-0.24665466
-0.00086103819
-0.24623791
-0.00083282511
-0.24583671
-0.00080184651
-0.24545222
-0.00076849453
-0.24508544
-0.00073313808
-0.24473721
-0.00069611928
-0.2444082
-0.00065775041
-0.24409894
-0.00061831348
-0.24380982
-0.0005780567
-0.24354116
-0.00053719723
-0.24329316
-0.0004959204
-0.24306594
-0.00045438115
-0.24285957
-0.00041270552
-0.24267407
-0.00037099337
-0.24250941
-0.00032931884
-0.24236555
-0.0002877344
-0.24224242
-0.0002462724
-0.24213995
-0.00020494782
-0.24205808
-0.00016376093
-0.24199674
-0.00012270007
-0.24195588
-8.1742425e-05
-4.085579e-05
-0.24555674
6.9275956e-05
-0.24557984
6.9524337e-05
-0.24560312
7.0072935e-05
-0.24562669
7.093494e-05
-0.24565065
7.2111854e-05
-0.2456751
7.3609256e-05
-0.24570017
7.5431501e-05
-0.24572594
7.7586525e-05
-0.24575255
8.0080968e-05
-0.24578011
8.2925175e-05
-0.24580872
8.6128049e-05
-0.24583853
8.970236e-05
-0.24586965
9.3659246e-05
-0.24590222
9.8013907e-05
-0.24593638
0.00010277965
-0.24597226
0.00010797408
-0.24601002
0.00011361257
-0.24604981
0.00011971505
-0.24609178
0.0001262988
-0.24613612
0.00013338591
-0.24618298
0.00014099528
-0.24623256
0.00014915094
-0.24628504
0.00015787301
-0.24634062
0.00016718702
-0.2463995
0.00017711377
-0.2464619
0.00018767969
-0.24652803
0.00019890545
-0.24659813
0.0002108175
-0.24667243
0.00022343533
-0.24675118
0.00023678426
-0.24683462
0.00025088106
-0.24692301
0.00026574725
-0.24701661
0.00028139941
-0.2471157
0.00029784754
-0.24722054
0.0003151061
-0.2473314
0.00033317559
-0.24744856
0.00035206142
-0.24757228
0.00037175213
-0.24770285
0.00039224039
-0.2478405
0.00041349857
-0.2479855
0.00043550212
-0.24813808
0.0004582028
-0.24829846
0.00048155088
-0.24846684
0.00050547628
-0.24864338
0.00052989581
-0.24882823
0.00055470881
-0.24902147
0.00057979564
-0.24922316
0.00060501712
-0.24943329
0.00063021053
-0.2496518
0.00065519035
-0.24987856
0.00067974567
-0.25011334
0.00070363908
-0.25035586
0.00072660542
-0.2506057
0.00074835265
-0.25086236
0.0007685586
-0.25112522
0.00078687438
-0.25139353
0.00080292387
-0.2516664
0.00081630587
-0.25194282
0.00082659651
-0.25222159
0.00083335466
-0.25250141
0.00083612346
-0.25278077
0.00083443984
-0.25305804
0.0008278402
-0.25333143
0.00081586955
-0.253599
0.0007980915
-0.25385865
0.00077409922
-0.25410818
0.00074352942
-0.25434529
0.0007060723
-0.25456757
0.00066148859
-0.25477257
0.00060962178
-0.25495783
0.00055041201
-0.25512087
0.0004839085
-0.25525929
0.00041028163
-0.25537079
0.00032982951
-0.2554532
0.00024298581
-0.25550455
0.00015032125
-0.2555231
5.2543509e-05
-0.2555074
-4.950784e-05
-0.25545631
-0.00015488033
-0.25536907
-0.00026252354
-0.25524527
-0.00037130509
-0.25508494
-0.00048003499
-0.25488848
-0.00058749284
-0.25465674
-0.00069245698
-0.25439097
-0.00079373384
-0.25409278
-0.00089018724
-0.25376417
-0.00098076535
-0.25340744
-0.0010645247
-0.25302516
-0.0011406503
-0.25262015
-0.0012084703
-0.25219539
-0.0012674687
-0.25175396
-0.0013172848
-0.25129904
-0.0013577172
-0.25083381
-0.0013887167
-0.25036141
-0.0014103761
-0.24988491
-0.0014229178
-0.24940725
-0.001426677
-0.24893125
-0.0014220872
-0.24845953
-0.0014096558
-0.24799453
-0.0013899513
-0.24753847
-0.0013635824
-0.24709336
-0.0013311817
-0.24666101
-0.0012933893
-0.24624299
-0.0012508417
-0.24584068
-0.0012041552
-0.24545526
-0.0011539208
-0.2450877
-0.0011006941
-0.24473883
-0.00104499
-0.2444093
-0.00098727791
-0.24409964
-0.0009279813
-0.24381022
-0.00086747257
-0.24354134
-0.00080607716
-0.24329319
-0.00074407242
-0.24306588
-0.00068168995
-0.24285947
-0.00061911773
-0.24267396
-0.00055650441
-0.24250932
-0.00049395989
-0.24236549
-0.00043156156
-0.2422424
-0.00036935657
-0.24213999
-0.00030736597
-0.24205816
-0.00024558875
-0.24199685
-0.00018400604
-0.24195601
-0.00012258234
-6.12679e-05
-0.245585
9.2155765e-05
-0.24560796
9.248645e-05
-0.24563111
9.321652e-05
-0.24565454
9.4363665e-05
-0.24567836
9.5929882e-05
-0.24570267
9.7922615e-05
-0.24572758
0.00010034767
-0.24575321
0.00010321564
-0.24577967
0.00010653536
-0.24580706
0.00011032064
-0.24583552
0.00011458335
-0.24586516
0.00011934051
-0.2458961
0.00012460699
-0.24592849
0.00013040306
-0.24596246
0.00013674648
-0.24599815
0.00014366074
-0.2460357
0.00015116637
-0.24607528
0.00015928997
-0.24611703
0.00016805461
-0.24616114
0.00017748981
-0.24620776
0.00018762084
-0.24625709
0.00019847979
-0.24630931
0.00021009362
-0.24636462
0.00022249644
-0.24642322
0.00023571616
-0.24648533
0.00024978812
-0.24655117
0.00026474012
-0.24662096
0.00028060761
-0.24669494
0.00029741683
-0.24677336
0.00031520181
-0.24685646
0.00033398526
-0.24694451
0.00035379622
-0.24703777
0.00037465723
-0.2471365
0.0003965821
-0.24724099
0.00041959061
-0.24735149
0.00044368403
-0.2474683
0.00046887023
-0.24759168
0.00049513464
-0.24772191
0.00052246828
-0.24785925
0.00055083516
-0.24800395
0.00058020345
-0.24815626
0.00061050985
-0.2483164
0.00064168906
-0.24848457
0.00067364874
-0.24866095
0.0007062791
-0.24884569
0.00073944709
-0.24903889
0.00077299434
-0.24924061
0.0008067364
-0.24945085
0.00084045739
-0.24966958
0.00087391095
-0.24989665
0.00090681666
-0.25013187
0.00093885867
-0.25037494
0.00096968384
-0.25062549
0.00099890284
-0.25088302
0.0010260858
-0.25114691
0.0010507668
-0.25141643
0.0010724431
-0.25169071
0.0010905777
-0.25196871
0.0011046028
-0.25224928
0.0011139269
-0.2525311
0.0011179365
-0.25281267
0.001116009
-0.25309235
0.0011075203
-0.25336833
0.0010918569
-0.25363867
0.0010684291
-0.25390126
0.001036686
-0.25415386
0.00099613424
-0.25439414
0.00094635137
-0.25461966
0.00088700893
-0.25482793
0.00081788909
-0.25501642
0.00073890355
-0.25518262
0.00065011054
-0.25532407
0.00055173136
-0.2554384
0.00044415967
-0.25552339
0.00032797232
-0.255577
0.0002039317
-0.25559744
7.298546e-05
-0.25558321
-6.3740379e-05
-0.25553313
-0.00020496422
-0.25544638
-0.00034927142
-0.25532255
-0.00049513556
-0.25516163
-0.00064095155
-0.25496405
-0.00078507247
-0.25473066
-0.00092584928
-0.25446272
-0.0010616708
-0.25416191
-0.0011910036
-0.25383024
-0.0013124289
-0.25347009
-0.0014246749
-0.2530841
-0.0015266444
-0.25267513
-0.0016174349
-0.25224625
-0.0016963547
-0.25180061
-0.0017629232
-0.25134145
-0.0018168755
-0.25087201
-0.0018581523
-0.2503955
-0.0018868863
-0.24991504
-0.0019033846
-0.24943361
-0.0019081059
-0.24895405
-0.0019016409
-0.24847903
-0.0018846787
-0.24801099
-0.0018579898
-0.24755218
-0.0018223975
-0.2471046
-0.0017787558
-0.24667007
-0.0017279278
-0.24625014
-0.0016707705
-0.24584618
-0.0016081123
-0.24545935
-0.0015407467
-0.24509063
-0.0014694188
-0.2447408
-0.0013948179
-0.24441051
-0.0013175718
-0.24410024
-0.0012382462
-0.24381038
-0.0011573377
-0.24354118
-0.0010752794
-0.24329281
-0.00099244008
-0.24306537
-0.0009091269
-0.2428589
-0.00082558852
-0.24267338
-0.00074202091
-0.24250878
-0.00065856823
-0.24236501
-0.00057533115
-0.24224199
-0.00049236995
-0.24213965
-0.00040971009
-0.24205789
-0.00032734758
-0.24199664
-0.00024525468
-0.24195584
-0.00016338161
-8.1659164e-05
-0.24562261
0.0001148545
-0.24564539
0.00011526738
-0.24566835
0.00011617781
-0.24569159
0.00011760822
-0.24571522
0.00011956118
-0.24573935
0.000122046
-0.24576407
0.00012506995
-0.2457895
0.00012864625
-0.24581575
0.00013278597
-0.24584294
0.00013750635
-0.24587118
0.00014282225
-0.24590059
0.00014875494
-0.24593131
0.00015532303
-0.24596346
0.00016255185
-0.24599717
0.00017046365
-0.2460326
0.0001790878
-0.24606988
0.00018845001
-0.24610918
0.00019858358
-0.24615064
0.00020951743
-0.24619444
0.00022128851
-0.24624075
0.00023392855
-0.24628974
0.00024747775
-0.24634162
0.00026196997
-0.24639657
0.00027744803
-0.2464548
0.00029394703
-0.24651653
0.00031151139
-0.24658196
0.00033017616
-0.24665134
0.00034998599
-0.2467249
0.00037097407
-0.24680288
0.00039318338
-0.24688554
0.00041664286
-0.24697313
0.00044138937
-0.24706592
0.00046745177
-0.24716419
0.00049484806
-0.2472682
0.00052360383
-0.24737824
0.0005537216
-0.24749458
0.00058521225
-0.24761751
0.00061805874
-0.24774729
0.00065225107
-0.2478842
0.00068774565
-0.2480285
0.00072450417
-0.24818044
0.00076244907
-0.24834025
0.00080150041
-0.24850815
0.00084154455
-0.24868431
0.00088244604
-0.24886891
0.00092404046
-0.24906205
0.00096613169
-0.2492638
0.001008491
-0.24947419
0.0010508504
-0.24969319
0.0010929033
-0.24992067
0.0011343008
-0.25015646
0.0011746491
-0.25040028
0.0012135074
-0.25065177
0.0012503892
-0.25091044
0.0012847569
-0.2511757
0.0013160267
-0.25144683
0.0013435681
-0.25172296
0.001366707
-0.25200308
0.0013847293
-0.25228605
0.0013968902
-0.25257052
0.0014024159
-0.25285504
0.00140052
-0.25313793
0.0013904126
-0.25341739
0.0013713155
-0.25369144
0.0013424794
-0.25395795
0.0013032018
-0.25421467
0.0012528513
-0.2544592
0.0011908848
-0.25468907
0.0011168763
-0.25490172
0.0010305386
-0.25509456
0.0009317474
-0.25526502
0.0008205633
-0.25541054
0.00069725333
-0.25552868
0.00056230312
-0.25561714
0.00041643139
-0.2556738
0.00026059315
-0.2556968
9.5979598e-05
-0.25568455
-7.5990279e-05
-0.25563581
-0.00025369594
-0.25554974
-0.00043534653
-0.25542587
-0.00061900725
-0.25526418
-0.00080264165
-0.25506509
-0.00098415901
-0.25482948
-0.0011614652
-0.25455863
-0.001332514
-0.25425428
-0.0014953585
-0.25391851
-0.0016481984
-0.25355376
-0.0017894216
-0.25316277
-0.0019176397
-0.25274849
-0.0020317131
-0.25231407
-0.0021307722
-0.25186278
-0.0022142163
-0.25139793
-0.0022817206
-0.25092286
-0.0023332213
-0.25044085
-0.0023688989
-0.24995508
-0.0023891545
-0.24946861
-0.0023945813
-0.24898431
-0.0023859377
-0.24850488
-0.002364106
-0.2480328
-0.0023300693
-0.24757032
-0.0022848759
-0.24711947
-0.0022296104
-0.24668203
-0.002165367
-0.24625957
-0.0020932303
-0.24585344
-0.0020142467
-0.24546476
-0.0019294169
-0.2450945
-0.0018396789
-0.24474342
-0.0017458991
-0.24441213
-0.0016488651
-0.24410109
-0.0015492853
-0.24381065
-0.0014477806
-0.24354104
-0.0013448914
-0.2432924
-0.0012410767
-0.24306481
-0.0011367176
-0.24285828
-0.0010321219
-0.24267277
-0.00092753081
-0.24250821
-0.00082312072
-0.24236453
-0.00071901338
-0.24224162
-0.00061527997
-0.24213938
-0.00051194811
-0.24205772
-0.00040900856
-0.24199655
-0.00030642255
-0.24195581
-0.00020412377
-0.00010202114
-0.24566936
0.00013732952
-0.24569191
0.00013782291
-0.24571465
0.00013891197
-0.24573766
0.00014062326
-0.24576106
0.00014295975
-0.24578495
0.00014593259
-0.24580943
0.00014955053
-0.24583461
0.0001538294
-0.24586061
0.00015878252
-0.24588753
0.00016443054
-0.2459155
0.00017079132
-0.24594464
0.0001778904
-0.24597506
0.00018575009
-0.24600691
0.00019440085
-0.24604032
0.00020386938
-0.24607542
0.00021419099
-0.24611237
0.00022539658
-0.24615131
0.00023752617
-0.24619241
0.00025061459
-0.24623582
0.00026470628
-0.24628174
0.00027983946
-0.24633032
0.00029606256
-0.24638177
0.00031341643
-0.24643627
0.0003319527
-0.24649404
0.00035171381
-0.24655528
0.00037275342
-0.24662022
0.00039511402
-0.24668908
0.00041884969
-0.24676211
0.00044400083
-0.24683954
0.00047061967
-0.24692164
0.00049874169
-0.24700867
0.00052841201
-0.24710088
0.00055966621
-0.24719856
0.00059252703
-0.24730198
0.00062702637
-0.24741143
0.00066316868
-0.24752719
0.00070096851
-0.24764953
0.00074040712
-0.24777876
0.00078147434
-0.24791513
0.0008241199
-0.24805893
0.00086829996
-0.2482104
0.00091392382
-0.2483698
0.00096089799
-0.24853734
0.0010090887
-0.24871323
0.0010583361
-0.24889764
0.0011084457
-0.24909069
0.0011591848
-0.24929248
0.0012102818
-0.24950305
0.0012614174
-0.24972237
0.0013122266
-0.24995036
0.0013622924
-0.25018686
0.0014111439
-0.25043161
0.0014582534
-0.25068425
0.0015030374
-0.25094435
0.0015448501
-0.25121131
0.0015829894
-0.25148444
0.0016166957
-0.25176289
0.0016451556
-0.25204566
0.0016675061
-0.25233162
0.0016828453
-0.25261944
0.001690235
-0.25290764
0.0016887192
-0.25319456
0.0016773359
-0.25347838
0.0016551347
-0.2537571
0.0016211979
-0.25402856
0.0015746624
-0.25429046
0.001514749
-0.25454035
0.0014407831
-0.25477571
0.0013522307
-0.25499389
0.0012487249
-0.25519224
0.0011300956
-0.25536808
0.0009963974
-0.25551876
0.00084793598
-0.25564174
0.00068528431
-0.25573461
0.00050930091
-0.25579515
0.0003211345
-0.2558214
0.00012222422
-0.25581168
-8.5709699e-05
-0.25576468
-0.00030069524
-0.25567947
-0.0005205503
-0.25555557
-0.00074291327
-0.25539291
-0.0009652957
-0.25519193
-0.0011851408
-0.25495351
-0.0013998865
-0.254679
-0.0016070293
-0.25437017
-0.0018041879
-0.2540292
-0.0019891618
-0.25365864
-0.0021599834
-0.25326132
-0.0023149612
-0.25284032
-0.0024527109
-0.25239891
-0.0025721814
-0.25194048
-0.002672653
-0.25146845
-0.0027537448
-0.25098628
-0.0028153964
-0.25049733
-0.0028578462
-0.25000488
-0.0028816019
-0.24951206
-0.002887404
-0.2490218
-0.0028761936
-0.24853685
-0.00284906
-0.2480597
-0.002807213
-0.24759264
-0.0027519384
-0.24713769
-0.0026845635
-0.24669663
-0.002606424
-0.24627102
-0.0025188408
-0.24586218
-0.0024230856
-0.24547123
-0.0023203722
-0.24509907
-0.0022118358
-0.24474645
-0.0020985228
-0.24441393
-0.0019813825
-0.24410195
-0.001861267
-0.24381081
-0.0017389211
-0.24354071
-0.0016149918
-0.24329176
-0.0014900266
-0.243064
-0.0013644791
-0.2428574
-0.0012387137
-0.24267192
-0.0011130144
-0.24250745
-0.00098758723
-0.24236389
-0.00086257219
-0.24224113
-0.00073804857
-0.24213903
-0.00061404328
-0.2420575
-0.00049053904
-0.24199644
-0.00036748329
-0.24195577
-0.0002447904
-0.00012234442
-0.24572542
0.00015953373
-0.24574771
0.00016010834
-0.24577017
0.00016137453
-0.24579291
0.0001633639
-0.24581603
0.00016608008
-0.24583963
0.00016953609
-0.24586383
0.00017374212
-0.24588871
0.00017871667
-0.24591441
0.00018447526
-0.24594102
0.00019104199
-0.24596866
0.00019843768
-0.24599747
0.00020669215
-0.24602755
0.00021583147
-0.24605904
0.00022589116
-0.24609207
0.00023690246
-0.24612679
0.00024890657
-0.24616333
0.00026193967
-0.24620185
0.00027604853
-0.24624251
0.0002912739
-0.24628547
0.0003076678
-0.24633091
0.00032527503
-0.246379
0.0003441523
-0.24642993
0.00036434762
-0.2464839
0.00038592153
-0.24654111
0.00040892398
-0.24660177
0.00043341807
-0.24666611
0.00045945396
-0.24673436
0.00048709539
-0.24680675
0.00051639033
-0.24688353
0.00054740057
-0.24696496
0.00058016859
-0.24705129
0.00061474818
-0.24714281
0.00065118218
-0.24723978
0.00068949867
-0.24734249
0.00072973654
-0.24745122
0.00077190289
-0.24756627
0.00081601679
-0.24768792
0.00086205872
-0.24781647
0.00091001934
-0.24795219
0.0009598428
-0.24809537
0.0010114809
-0.24824628
0.0010648311
-0.24840517
0.0011197878
-0.24857228
0.0011761984
-0.24874782
0.0012338802
-0.24893199
0.0012926101
-0.24912492
0.0013521205
-0.24932674
0.0014120984
-0.2495375
0.0014721749
-0.2497572
0.0015319275
-0.24998578
0.0015908726
-0.2502231
0.0016484634
-0.25046893
0.0017040857
-0.25072295
0.0017570593
-0.25098473
0.0018066301
-0.25125372
0.001851977
-0.25152923
0.0018922097
-0.25181045
0.0019263733
-0.2520964
0.0019534528
-0.25238594
0.001972385
-0.25267776
0.0019820615
-0.2529704
0.0019813505
-0.25326217
0.0019691098
-0.25355124
0.001944208
-0.25383559
0.0019055488
-0.25411303
0.0018520971
-0.25438119
0.0017829134
-0.25463759
0.0016971791
-0.2548796
0.0015942393
-0.25510451
0.0014736341
-0.25530955
0.001335136
-0.25549193
0.0011787823
-0.2556489
0.0010049089
-0.25577779
0.00081416991
-0.25587605
0.00060756085
-0.25594134
0.00038642516
-0.25597157
0.00015245513
-0.25596496
-9.2317872e-05
-0.2559201
-0.00034555521
-0.25583599
-0.00060466503
-0.25571207
-0.00086683626
-0.25554826
-0.0011291028
-0.25534499
-0.0013884143
-0.25510316
-0.0016417124
-0.25482418
-0.0018860086
-0.25450991
-0.0021184613
-0.25416262
-0.0023364469
-0.25378498
-0.0025376231
-0.25337996
-0.0027199809
-0.25295079
-0.0028818824
-0.25250088
-0.0030220905
-0.25203377
-0.0031397677
-0.25155303
-0.0032344826
-0.25106224
-0.003306188
-0.25056489
-0.003355193
-0.25006437
-0.0033821271
-0.24956387
-0.0033878953
-0.24906643
-0.0033736387
-0.24857482
-0.0033406713
-0.24809158
-0.0032904465
-0.24761902
-0.0032245035
-0.24715916
-0.0031444267
-0.24671377
-0.0030518056
-0.24628441
-0.0029482083
-0.24587235
-0.0028351407
-0.24547869
-0.0027140363
-0.24510429
-0.0025862327
-0.24474985
-0.0024529598
-0.24441591
-0.0023153308
-0.24410283
-0.0021743418
-0.24381089
-0.0020308617
-0.24354024
-0.0018856426
-0.24329095
-0.001739319
-0.24306301
-0.0015924144
-0.24285638
-0.0014453468
-0.24267095
-0.0012984405
-0.24250661
-0.0011519275
-0.24236322
-0.0010059627
-0.24224064
-0.00086063016
-0.24213873
-0.00071595266
-0.24205737
-0.00057190147
-0.24199644
-0.0004284069
-0.24195587
-0.00028536067
-0.0001426184
-0.2457903
0.00018142819
-0.24581227
0.00018208087
-0.24583442
0.00018352162
-0.24585684
0.00018578569
-0.24587964
0.00018887706
-0.24590291
0.00019281056
-0.24592677
0.00019759785
-0.24595131
0.00020326003
-0.24597665
0.00020981486
-0.2460029
0.00021728985
-0.24603017
0.00022570885
-0.24605858
0.0002351059
-0.24608826
0.00024551085
-0.24611934
0.00025696431
-0.24615194
0.00026950205
-0.2461862
0.00028317123
-0.24622227
0.0002980133
-0.24626031
0.00031408181
-0.24630046
0.00033142355
-0.24634289
0.00035009813
-0.24638777
0.00037015704
-0.24643528
0.0003916654
-0.24648561
0.00041467846
-0.24653896
0.00043926585
-0.24659552
0.00046548524
-0.24665551
0.00049340935
-0.24671915
0.0005230963
-0.24678668
0.0005546198
-0.24685832
0.00058803571
-0.24693434
0.00062341581
-0.24701498
0.00066081005
-0.24710051
0.00070028139
-0.24719121
0.0007418806
-0.24728735
0.00078564175
-0.24738923
0.00083161148
-0.24749713
0.00087980046
-0.24761134
0.00093023318
-0.24773217
0.00098289046
-0.24785992
0.0010377649
-0.24799487
0.0010947965
-0.24813733
0.0011539339
-0.24828756
0.0012150644
-0.24844584
0.0012780716
-0.24861243
0.0013427861
-0.24878756
0.0014090039
-0.24897142
0.0014764753
-0.2491642
0.0015448995
-0.24936602
0.0016139238
-0.24957698
0.0016831318
-0.2497971
0.0017520449
-0.25002634
0.0018201148
-0.2502646
0.0018867195
-0.25051167
0.0019511595
-0.25076727
0.0020126585
-0.25103099
0.0020703539
-0.25130232
0.0021233046
-0.2515806
0.0021704884
-0.25186503
0.0022108061
-0.25215467
0.0022430869
-0.25244838
0.0022661017
-0.25274489
0.0022785658
-0.2530427
0.0022791638
-0.25334016
0.0022665641
-0.25363539
0.0022394439
-0.25392636
0.0021965159
-0.25421082
0.0021365596
-0.25448637
0.002058461
-0.25475043
0.0019612419
-0.2550003
0.0018441105
-0.25523317
0.0017064991
-0.25544614
0.0015481071
-0.2556363
0.0013689419
-0.25580075
0.0011693584
-0.25593666
0.00095008403
-0.25604135
0.00071224766
-0.25611231
0.00045738815
-0.25614731
0.00018745681
-0.25614444
-9.5192356e-05
-0.25610216
-0.00038783593
-0.25601937
-0.00068745026
-0.25589546
-0.00099074753
-0.25573031
-0.001294253
-0.25552434
-0.0015943895
-0.25527848
-0.0018875681
-0.25499421
-0.0021702815
-0.25467347
-0.0024391962
-0.25431868
-0.0026912379
-0.25393264
-0.0029236666
-0.25351848
-0.0031341385
-0.25307961
-0.0033207508
-0.25261963
-0.0034820765
-0.25214223
-0.0036171613
-0.25165118
-0.0037255309
-0.25115021
-0.003807163
-0.25064295
-0.0038624537
-0.2501329
-0.0038921729
-0.24962339
-0.0038974108
-0.2491175
-0.0038795295
-0.24861808
-0.0038400892
-0.24812772
-0.003780807
-0.24764873
-0.0037034947
-0.24718314
-0.0036100105
-0.24673274
-0.003502213
-0.24629901
-0.0033819296
-0.24588324
-0.0032509106
-0.24548646
-0.0031108173
-0.2451095
-0.0029631954
-0.244753
-0.0028094623
-0.24441743
-0.0026508969
-0.24410313
-0.0024886407
-0.24381031
-0.0023236855
-0.24353906
-0.0021568874
-0.24328942
-0.0019889654
-0.24306132
-0.0018205098
-0.24285468
-0.0016519894
-0.24266936
-0.0014837643
-0.2425052
-0.0013160889
-0.24236203
-0.0011491293
-0.24223969
-0.00098297008
-0.24213802
-0.00081762577
-0.24205686
-0.00065305227
-0.24199611
-0.00048915887
-0.24195566
-0.00032581078
-0.000162831
-0.24586445
0.00020296384
-0.24588606
0.0002036961
-0.24590785
0.00020530951
-0.24592991
0.0002078446
-0.24595234
0.00021130605
-0.24597524
0.00021571056
-0.24599871
0.00022107127
-0.24602286
0.00022741188
-0.2460478
0.00023475238
-0.24607363
0.00024312372
-0.24610048
0.00025255273
-0.24612845
0.0002630777
-0.24615767
0.00027473227
-0.24618827
0.00028756214
-0.24622037
0.00030160765
-0.24625412
0.00031692189
-0.24628966
0.00033355167
-0.24632714
0.00035155736
-0.24636671
0.00037099183
-0.24640853
0.00039192237
-0.24645278
0.00041440726
-0.24649964
0.00043852011
-0.24654928
0.00046432361
-0.24660191
0.00049189663
-0.24665773
0.00052130477
-0.24671695
0.00055263061
-0.2467798
0.00058594053
-0.2468465
0.00062131853
-0.24691729
0.00065882879
-0.24699243
0.00069855351
-0.24707217
0.00074055064
-0.24715678
0.00078489295
-0.24724654
0.00083163977
-0.24734173
0.00088083199
-0.24744264
0.00093252486
-0.24754957
0.00098673359
-0.24766283
0.0010434892
-0.24778271
0.0011027741
-0.24790953
0.0011645842
-0.24804359
0.0012288565
-0.2481852
0.0012955386
-0.24833464
0.0013645088
-0.24849221
0.0014356423
-0.24865818
0.0015087545
-0.2488328
0.0015836223
-0.2490163
0.0016599712
-0.24920887
0.0017374699
-0.24941067
0.0018157278
-0.24962182
0.001894283
-0.24984238
0.0019726032
-0.25007234
0.0020500767
-0.25031163
0.0021260085
-0.25056009
0.0021996145
-0.25081745
0.0022700229
-0.25108336
0.0023362629
-0.25135733
0.0023972728
-0.25163873
0.0024518963
-0.25192682
0.0024988877
-0.25222065
0.0025369162
-0.25251913
0.0025645814
-0.25282097
0.0025804152
-0.25312472
0.0025829098
-0.25342869
0.0025705343
-0.25373101
0.0025417616
-0.25402959
0.0024950998
-0.25432216
0.0024291275
-0.25460624
0.0023425387
-0.25487917
0.0022341779
-0.25513816
0.0021030977
-0.25538027
0.0019486036
-0.25560246
0.0017703048
-0.25580168
0.0015681624
-0.25597486
0.0013425367
-0.256119
0.0010942189
-0.25623122
0.00082446592
-0.25630884
0.00053501239
-0.25634946
0.00022807504
-0.25635099
-9.3656484e-05
-0.25631178
-0.00042705293
-0.25623059
-0.00076863289
-0.25610674
-0.0011145993
-0.25594006
-0.0014609321
-0.25573097
-0.0018034871
-0.25548043
-0.0021381041
-0.25518999
-0.0024607166
-0.25486173
-0.0027674618
-0.25449819
-0.003054781
-0.25410234
-0.0033195093
-0.25367753
-0.003558948
-0.25322737
-0.0037709166
-0.25275565
-0.0039537928
-0.2522663
-0.0041065083
-0.25176328
-0.0042285549
-0.25125049
-0.0043199502
-0.25073175
-0.0043811965
-0.2502107
-0.0044132269
-0.24969077
-0.0044173414
-0.24917515
-0.0043951487
-0.24866676
-0.0043484802
-0.24816822
-0.0042793409
-0.24768188
-0.0041898373
-0.24720977
-0.0040821211
-0.24675364
-0.003958337
-0.24631499
-0.0038205865
-0.24589502
-0.0036708756
-0.24549474
-0.0035111024
-0.24511491
-0.0033430272
-0.24475611
-0.003168259
-0.24441876
-0.0029882447
-0.24410313
-0.0028042714
-0.24380936
-0.0026174534
-0.2435375
-0.0024287483
-0.24328751
-0.0022389571
-0.24305929
-0.0020487332
-0.24285268
-0.001858592
-0.24266752
-0.0016689254
-0.24250361
-0.0014800054
-0.24236073
-0.0012920046
-0.2422387
-0.0011050035
-0.24213732
-0.00091900365
-0.24205643
-0.00073394112
-0.24199589
-0.00054969968
-0.24195559
-0.00036611358
-0.00018296847
-0.24594766
0.00022410536
-0.24596887
0.0002249129
-0.24599026
0.00022669562
-0.24601191
0.00022949736
-0.24603393
0.00023332312
-0.24605641
0.00023819137
-0.24607946
0.00024411669
-0.24610317
0.0002511254
-0.24612766
0.00025923972
-0.24615303
0.00026849399
-0.24617939
0.00027891806
-0.24620687
0.00029055447
-0.24623558
0.00030344064
-0.24626564
0.00031762738
-0.2462972
0.0003331596
-0.24633037
0.00035009639
-0.24636531
0.00036848991
-0.24640216