/*--------------------------------*- C++ -*----------------------------------*\
| =========                 |                                                 |
| \\      /  F ield         | foam-extend: Open Source CFD                    |
|  \\    /   O peration     | Version:     4.1                                |
|   \\  /    A nd           | Web:         http://www.foam-extend.org         |
|    \\/     M anipulation  |                                                 |
\*---------------------------------------------------------------------------*/
FoamFile
{
    version     2.0;
    format      ascii;
    class       volVectorField;
    location    "0.3";
    object      U;
}
// * * * * * * * * * * * * * * * * * * * * * * * * * * * * * * * * * * * * * //

dimensions      [0 1 -1 0 0 0 0];

internalField   nonuniform List<vector> 
16796
(
(152.21595 -0.0047373044 0)
(152.23432 -0.0047543203 0)
(152.24854 -0.0047922229 0)
(152.26315 -0.0048517579 0)
(152.27795 -0.0049331051 0)
(152.29303 -0.0050365654 0)
(152.30846 -0.0051625218 0)
(152.32429 -0.0053114371 0)
(152.34061 -0.005483857 0)
(152.35748 -0.005680405 0)
(152.37497 -0.0059017888 0)
(152.39316 -0.0061487926 0)
(152.41214 -0.0064222847 0)
(152.43197 -0.0067232084 0)
(152.45275 -0.0070525903 0)
(152.47456 -0.0074115286 0)
(152.49749 -0.0078012024 0)
(152.52163 -0.0082228571 0)
(152.54709 -0.0086778142 0)
(152.57395 -0.0091674532 0)
(152.60234 -0.0096932213 0)
(152.63236 -0.010256611 0)
(152.66413 -0.01085917 0)
(152.69776 -0.011502472 0)
(152.73338 -0.012188128 0)
(152.77112 -0.012917748 0)
(152.81112 -0.013692951 0)
(152.8535 -0.014515322 0)
(152.89842 -0.015386414 0)
(152.94603 -0.016307701 0)
(152.99648 -0.017280573 0)
(153.04991 -0.018306275 0)
(153.10651 -0.019385899 0)
(153.16642 -0.02052033 0)
(153.22981 -0.021710182 0)
(153.29686 -0.022955781 0)
(153.36772 -0.024257067 0)
(153.44257 -0.025613568 0)
(153.52157 -0.027024284 0)
(153.60489 -0.028487657 0)
(153.69267 -0.030001438 0)
(153.78507 -0.03156264 0)
(153.88222 -0.033167398 0)
(153.98425 -0.034810898 0)
(154.09127 -0.03648725 0)
(154.20338 -0.038189382 0)
(154.32062 -0.039908922 0)
(154.44306 -0.041636086 0)
(154.5707 -0.043359569 0)
(154.70351 -0.045066431 0)
(154.84142 -0.046742007 0)
(154.98432 -0.048369822 0)
(155.13204 -0.049931531 0)
(155.28437 -0.051406878 0)
(155.44101 -0.052773691 0)
(155.6016 -0.054007919 0)
(155.76572 -0.055083706 0)
(155.93285 -0.055973532 0)
(156.10239 -0.056648406 0)
(156.27367 -0.057078136 0)
(156.4459 -0.057231672 0)
(156.61821 -0.057077533 0)
(156.78963 -0.056584323 0)
(156.9591 -0.055721329 0)
(157.12547 -0.054459209 0)
(157.28749 -0.052770756 0)
(157.44385 -0.050631738 0)
(157.59316 -0.048021774 0)
(157.73397 -0.04492526 0)
(157.86481 -0.041332286 0)
(157.98417 -0.037239522 0)
(158.09053 -0.032651039 0)
(158.18243 -0.027579019 0)
(158.25843 -0.022044282 0)
(158.31717 -0.016076623 0)
(158.35741 -0.0097149251 0)
(158.37801 -0.003007119 0)
(158.37802 0.0039902815 0)
(158.35666 0.011213653 0)
(158.31337 0.018591424 0)
(158.24779 0.026046251 0)
(158.15982 0.033496863 0)
(158.0496 0.040859915 0)
(157.91751 0.048051949 0)
(157.7642 0.054991414 0)
(157.59053 0.061600629 0)
(157.39762 0.067807633 0)
(157.18676 0.073547821 0)
(156.95943 0.078765318 0)
(156.71729 0.083414016 0)
(156.46207 0.087458274 0)
(156.19564 0.090873249 0)
(155.91991 0.093644856 0)
(155.63679 0.09576942 0)
(155.34823 0.097253025 0)
(155.05613 0.098110624 0)
(154.76231 0.098364978 0)
(154.46856 0.098045456 0)
(154.17653 0.09718678 0)
(153.88778 0.095827757 0)
(153.60375 0.094010035 0)
(153.32575 0.091776941 0)
(153.05495 0.089172412 0)
(152.79241 0.086240046 0)
(152.53905 0.083022284 0)
(152.29567 0.07955974 0)
(152.06293 0.075890653 0)
(151.84141 0.072050478 0)
(151.63158 0.068071598 0)
(151.4338 0.063983143 0)
(151.24838 0.059810898 0)
(151.07553 0.055577315 0)
(150.91542 0.05130157 0)
(150.76813 0.046999685 0)
(150.63374 0.042684702 0)
(150.51228 0.038366878 0)
(150.40374 0.034053904 0)
(150.30811 0.029751154 0)
(150.22537 0.025461932 0)
(150.15543 0.021187738 0)
(150.09817 0.01692855 0)
(150.05355 0.01268307 0)
(150.02216 0.0084488612 0)
(150.00495 0.0042224941 0)
(152.22221 -0.01440344 0)
(152.24053 -0.014454778 0)
(152.25473 -0.014568516 0)
(152.26931 -0.014747037 0)
(152.28408 -0.014990889 0)
(152.29913 -0.015300978 0)
(152.31453 -0.015678451 0)
(152.33033 -0.016124694 0)
(152.34661 -0.01664134 0)
(152.36345 -0.017230257 0)
(152.38091 -0.017893564 0)
(152.39907 -0.018633611 0)
(152.41801 -0.019452998 0)
(152.43781 -0.020354551 0)
(152.45855 -0.021341348 0)
(152.48031 -0.02241668 0)
(152.5032 -0.023584081 0)
(152.5273 -0.024847286 0)
(152.55271 -0.026210259 0)
(152.57953 -0.027677138 0)
(152.60787 -0.029252267 0)
(152.63784 -0.030940125 0)
(152.66955 -0.032745362 0)
(152.70313 -0.034672706 0)
(152.73869 -0.036726999 0)
(152.77637 -0.038913087 0)
(152.8163 -0.041235846 0)
(152.85862 -0.043700051 0)
(152.90348 -0.046310393 0)
(152.95102 -0.049071323 0)
(153.00139 -0.051987055 0)
(153.05476 -0.055061373 0)
(153.11128 -0.058297614 0)
(153.17112 -0.061698497 0)
(153.23444 -0.065265949 0)
(153.30141 -0.06900104 0)
(153.3722 -0.072903695 0)
(153.44697 -0.076972617 0)
(153.5259 -0.081204949 0)
(153.60915 -0.085596173 0)
(153.69686 -0.09013971 0)
(153.7892 -0.094826797 0)
(153.88629 -0.099646044 0)
(153.98828 -0.10458325 0)
(154.09526 -0.10962098 0)
(154.20733 -0.11473829 0)
(154.32456 -0.11991036 0)
(154.44699 -0.12510812 0)
(154.57464 -0.13029795 0)
(154.70748 -0.13544135 0)
(154.84544 -0.14049461 0)
(154.98842 -0.14540862 0)
(155.13624 -0.15012858 0)
(155.28869 -0.15459397 0)
(155.44549 -0.15873847 0)
(155.60627 -0.16249004 0)
(155.77062 -0.16577116 0)
(155.93801 -0.16849924 0)
(156.10787 -0.17058714 0)
(156.27949 -0.17194403 0)
(156.45211 -0.17247633 0)
(156.62485 -0.17208907 0)
(156.79675 -0.17068734 0)
(156.96673 -0.16817816 0)
(157.13365 -0.1644725 0)
(157.29626 -0.15948764 0)
(157.45324 -0.15314967 0)
(157.60318 -0.14539617 0)
(157.74466 -0.13617909 0)
(157.87616 -0.12546747 0)
(157.99619 -0.11325028 0)
(158.10321 -0.099538887 0)
(158.19575 -0.084369334 0)
(158.27235 -0.067804002 0)
(158.33164 -0.049932753 0)
(158.37237 -0.030873384 0)
(158.3934 -0.010771602 0)
(158.39375 0.010200227 0)
(158.37265 0.031847373 0)
(158.32951 0.05395512 0)
(158.26398 0.076292548 0)
(158.17595 0.098617149 0)
(158.06555 0.12068032 0)
(157.93318 0.14223318 0)
(157.77948 0.16303261 0)
(157.60532 0.18284702 0)
(157.41183 0.20146185 0)
(157.2003 0.21868446 0)
(156.97224 0.23434814 0)
(156.72931 0.24831522 0)
(156.47326 0.26047914 0)
(156.20597 0.27076543 0)
(155.92936 0.27913159 0)
(155.64538 0.28556606 0)
(155.35596 0.29008633 0)
(155.06301 0.29273628 0)
(154.76839 0.29358303 0)
(154.47387 0.29271342 0)
(154.18113 0.2902303 0)
(153.89171 0.28624873 0)
(153.60708 0.28089234 0)
(153.32852 0.27428986 0)
(153.05724 0.26657192 0)
(152.79427 0.25786826 0)
(152.54053 0.24830528 0)
(152.29681 0.23800404 0)
(152.0638 0.22707861 0)
(151.84205 0.21563485 0)
(151.63203 0.20376953 0)
(151.4341 0.1915698 0)
(151.24856 0.17911286 0)
(151.07562 0.16646605 0)
(150.91544 0.15368692 0)
(150.76811 0.14082367 0)
(150.6337 0.12791562 0)
(150.51222 0.11499377 0)
(150.40368 0.10208148 0)
(150.30805 0.08919521 0)
(150.22532 0.076345221 0)
(150.1554 0.063536411 0)
(150.09814 0.050769138 0)
(150.05353 0.038039974 0)
(150.02215 0.025342155 0)
(150.00495 0.012665961 0)
(152.23419 -0.023838029 0)
(152.25244 -0.023923427 0)
(152.26658 -0.024112555 0)
(152.2811 -0.024409536 0)
(152.29582 -0.024815292 0)
(152.31081 -0.025331337 0)
(152.32615 -0.025959584 0)
(152.34189 -0.026702341 0)
(152.35811 -0.02756233 0)
(152.37488 -0.028542665 0)
(152.39228 -0.029646874 0)
(152.41037 -0.030878874 0)
(152.42923 -0.032242998 0)
(152.44896 -0.033743957 0)
(152.46962 -0.035386877 0)
(152.49131 -0.037177245 0)
(152.51411 -0.039120951 0)
(152.53813 -0.041224221 0)
(152.56345 -0.04349366 0)
(152.59018 -0.045936169 0)
(152.61842 -0.048558987 0)
(152.64829 -0.051369585 0)
(152.67989 -0.054375715 0)
(152.71336 -0.057585264 0)
(152.74881 -0.061006306 0)
(152.78637 -0.064646928 0)
(152.82618 -0.068515263 0)
(152.86838 -0.072619284 0)
(152.9131 -0.076966822 0)
(152.96051 -0.081565313 0)
(153.01074 -0.086421797 0)
(153.06397 -0.091542607 0)
(153.12035 -0.096933326 0)
(153.18004 -0.10259852 0)
(153.24322 -0.10854143 0)
(153.31004 -0.11476388 0)
(153.38068 -0.12126579 0)
(153.45532 -0.12804504 0)
(153.53411 -0.13509693 0)
(153.61721 -0.14241398 0)
(153.7048 -0.1499853 0)
(153.79702 -0.15779634 0)
(153.89401 -0.16582821 0)
(153.9959 -0.1740573 0)
(154.1028 -0.18245466 0)
(154.21482 -0.19098546 0)
(154.33202 -0.1996084 0)
(154.45445 -0.20827514 0)
(154.58213 -0.21692974 0)
(154.71503 -0.22550808 0)
(154.8531 -0.23393741 0)
(154.99623 -0.24213589 0)
(155.14426 -0.25001228 0)
(155.29697 -0.25746567 0)
(155.45409 -0.26438551 0)
(155.61526 -0.27065167 0)
(155.78007 -0.27613483 0)
(155.948 -0.28069715 0)
(156.11847 -0.28419317 0)
(156.29079 -0.28647113 0)
(156.46419 -0.2873747 0)
(156.63779 -0.28674502 0)
(156.81064 -0.28442331 0)
(156.98165 -0.28025386 0)
(157.14967 -0.27408747 0)
(157.31346 -0.2657853 0)
(157.47167 -0.25522314 0)
(157.6229 -0.24229585 0)
(157.76569 -0.22692216 0)
(157.89854 -0.20904932 0)
(158.0199 -0.18865776 0)
(158.12824 -0.16576538 0)
(158.22204 -0.14043129 0)
(158.29985 -0.11275873 0)
(158.36026 -0.082897022 0)
(158.40198 -0.051042445 0)
(158.42386 -0.017438152 0)
(158.4249 0.017627777 0)
(158.4043 0.053828949 0)
(158.36146 0.090805211 0)
(158.29602 0.12816849 0)
(158.20785 0.16551112 0)
(158.0971 0.20241516 0)
(157.96415 0.23846221 0)
(157.80965 0.27324357 0)
(157.6345 0.30637008 0)
(157.43983 0.33748142 0)
(157.22696 0.3662543 0)
(156.99743 0.39240927 0)
(156.7529 0.41571598 0)
(156.49519 0.43599655 0)
(156.22618 0.45312726 0)
(155.94782 0.46703826 0)
(155.66209 0.47771178 0)
(155.37095 0.48517888 0)
(155.07634 0.48951491 0)
(154.78013 0.49083416 0)
(154.4841 0.48928392 0)
(154.18994 0.4850381 0)
(153.89922 0.47829093 0)
(153.61338 0.46925073 0)
(153.33375 0.45813414 0)
(153.06151 0.44516071 0)
(152.79769 0.43054827 0)
(152.54321 0.41450878 0)
(152.29887 0.39724504 0)
(152.06533 0.37894793 0)
(151.84314 0.35979444 0)
(151.63276 0.33994615 0)
(151.43455 0.31954841 0)
(151.2488 0.29872989 0)
(151.0757 0.27760257 0)
(150.9154 0.25626212 0)
(150.768 0.23478846 0)
(150.63355 0.21324662 0)
(150.51206 0.19168778 0)
(150.40352 0.1701503 0)
(150.30791 0.14866101 0)
(150.2252 0.1272364 0)
(150.15531 0.10588402 0)
(150.09808 0.084603809 0)
(150.0535 0.063389447 0)
(150.02214 0.042229087 0)
(150.00495 0.021105889 0)
(152.25187 -0.033430267 0)
(152.27002 -0.03355011 0)
(152.28407 -0.033814892 0)
(152.29851 -0.034230432 0)
(152.31314 -0.034798014 0)
(152.32804 -0.03551976 0)
(152.34328 -0.036398352 0)
(152.35894 -0.037437025 0)
(152.37506 -0.038639592 0)
(152.39174 -0.040010415 0)
(152.40903 -0.041554438 0)
(152.42702 -0.043277149 0)
(152.44578 -0.045184621 0)
(152.4654 -0.047283457 0)
(152.48595 -0.049580842 0)
(152.50751 -0.05208447 0)
(152.53019 -0.054802601 0)
(152.55408 -0.057743968 0)
(152.57927 -0.060917841 0)
(152.60586 -0.064333904 0)
(152.63395 -0.068002323 0)
(152.66367 -0.071933593 0)
(152.69512 -0.076138605 0)
(152.72842 -0.080628451 0)
(152.7637 -0.08541449 0)
(152.80109 -0.090508109 0)
(152.84071 -0.095920769 0)
(152.88272 -0.10166372 0)
(152.92725 -0.10774801 0)
(152.97445 -0.11418418 0)
(153.02449 -0.1209822 0)
(153.0775 -0.12815108 0)
(153.13367 -0.13569879 0)
(153.19314 -0.14363191 0)
(153.2561 -0.15195516 0)
(153.3227 -0.16067132 0)
(153.39313 -0.16978051 0)
(153.46754 -0.17928002 0)
(153.54612 -0.18916356 0)
(153.62903 -0.19942095 0)
(153.71642 -0.21003727 0)
(153.80846 -0.22099251 0)
(153.90529 -0.23226055 0)
(154.00704 -0.24380873 0)
(154.11383 -0.25559689 0)
(154.22576 -0.26757666 0)
(154.34292 -0.2796906 0)
(154.46534 -0.29187139 0)
(154.59306 -0.30404106 0)
(154.72607 -0.31611014 0)
(154.8643 -0.32797704 0)
(155.00765 -0.33952734 0)
(155.15599 -0.35063338 0)
(155.3091 -0.36115389 0)
(155.4667 -0.37093391 0)
(155.62846 -0.37980494 0)
(155.79396 -0.38758544 0)
(155.9627 -0.39408169 0)
(156.13409 -0.39908909 0)
(156.30746 -0.402394 0)
(156.48204 -0.40377605 0)
(156.65695 -0.40301112 0)
(156.83123 -0.39987488 0)
(157.00379 -0.39414703 0)
(157.17349 -0.38561614 0)
(157.33904 -0.37408512 0)
(157.49912 -0.35937713 0)
(157.6523 -0.34134204 0)
(157.79708 -0.31986308 0)
(157.93195 -0.29486356 0)
(158.05533 -0.26631346 0)
(158.16567 -0.23423558 0)
(158.2614 -0.19871089 0)
(158.34103 -0.15988281 0)
(158.40312 -0.11795997 0)
(158.44636 -0.073217548 0)
(158.46953 -0.025997012 0)
(158.47162 0.023296621 0)
(158.45179 0.074202717 0)
(158.40942 0.12621259 0)
(158.34412 0.17877817 0)
(158.25577 0.23132336 0)
(158.14448 0.28325718 0)
(158.01067 0.3339879 0)
(157.85498 0.38293734 0)
(157.67834 0.42955507 0)
(157.48189 0.47333152 0)
(157.26701 0.51380975 0)
(157.03525 0.55059513 0)
(156.78833 0.58336273 0)
(156.52811 0.61186223 0)
(156.2565 0.63592011 0)
(155.97552 0.6554393 0)
(155.68716 0.67039653 0)
(155.39344 0.68083757 0)
(155.09632 0.68687082 0)
(154.7977 0.6886596 0)
(154.49939 0.68641362 0)
(154.20311 0.68037999 0)
(153.91042 0.67083417 0)
(153.62279 0.65807122 0)
(153.34154 0.64239754 0)
(153.06785 0.62412333 0)
(152.80277 0.60355598 0)
(152.54719 0.58099431 0)
(152.3019 0.5567239 0)
(152.06757 0.53101331 0)
(151.84472 0.50411126 0)
(151.63381 0.47624463 0)
(151.43519 0.44761729 0)
(151.24911 0.41840947 0)
(151.07577 0.38877791 0)
(150.91531 0.35885627 0)
(150.76781 0.32875609 0)
(150.6333 0.29856795 0)
(150.51179 0.26836293 0)
(150.40326 0.23819413 0)
(150.30768 0.20809849 0)
(150.22502 0.17809843 0)
(150.15517 0.14820381 0)
(150.09799 0.11841389 0)
(150.05344 0.088719092 0)
(150.02212 0.059102192 0)
(150.00494 0.029538788 0)
(152.27527 -0.042752533 0)
(152.29327 -0.042905871 0)
(152.30722 -0.043244982 0)
(152.32154 -0.04377746 0)
(152.33605 -0.044504966 0)
(152.35084 -0.045430233 0)
(152.36597 -0.046556707 0)
(152.3815 -0.047888543 0)
(152.3975 -0.049430642 0)
(152.41405 -0.051188607 0)
(152.43121 -0.053168794 0)
(152.44906 -0.055378254 0)
(152.46768 -0.057824796 0)
(152.48715 -0.060516908 0)
(152.50755 -0.06346383 0)
(152.52896 -0.066675458 0)
(152.55147 -0.070162419 0)
(152.57519 -0.073935951 0)
(152.6002 -0.078007987 0)
(152.6266 -0.082390994 0)
(152.6545 -0.087098069 0)
(152.68402 -0.092142737 0)
(152.71526 -0.097539037 0)
(152.74834 -0.10330128 0)
(152.7834 -0.10944413 0)
(152.82055 -0.11598229 0)
(152.85993 -0.12293059 0)
(152.90169 -0.13030357 0)
(152.94596 -0.13811559 0)
(152.9929 -0.14638029 0)
(153.04265 -0.15511067 0)
(153.09539 -0.16431849 0)
(153.15127 -0.1740142 0)
(153.21045 -0.18420648 0)
(153.27312 -0.19490168 0)
(153.33943 -0.20610365 0)
(153.40956 -0.21781288 0)
(153.48369 -0.23002626 0)
(153.56199 -0.24273607 0)
(153.64463 -0.25592969 0)
(153.73176 -0.2695884 0)
(153.82356 -0.28368697 0)
(153.92017 -0.29819239 0)
(154.02173 -0.31306324 0)
(154.12837 -0.32824848 0)
(154.24019 -0.34368652 0)
(154.35728 -0.35930415 0)
(154.47969 -0.37501543 0)
(154.60747 -0.3907207 0)
(154.7406 -0.4063055 0)
(154.87904 -0.42163967 0)
(155.0227 -0.43657652 0)
(155.17144 -0.45095217 0)
(155.32506 -0.4645851 0)
(155.48331 -0.47727598 0)
(155.64585 -0.48880786 0)
(155.81227 -0.49894669 0)
(155.98208 -0.50744247 0)
(156.1547 -0.51403084 0)
(156.32947 -0.51843538 0)
(156.50562 -0.52037059 0)
(156.68227 -0.51954567 0)
(156.85845 -0.51566907 0)
(157.03309 -0.50845396 0)
(157.20502 -0.49762445 0)
(157.37295 -0.48292268 0)
(157.53553 -0.46411655 0)
(157.6913 -0.4410081 0)
(157.83877 -0.41344218 0)
(157.97635 -0.38131534 0)
(158.10245 -0.34458448 0)
(158.21546 -0.303275 0)
(158.31379 -0.25748793 0)
(158.39588 -0.20740566 0)
(158.46024 -0.15329583 0)
(158.50551 -0.095513091 0)
(158.53043 -0.034498844 0)
(158.53393 0.029222194 0)
(158.51515 0.095051953 0)
(158.47341 0.16232941 0)
(158.40831 0.23034101 0)
(158.3197 0.29833615 0)
(158.2077 0.3655445 0)
(158.07273 0.43119449 0)
(157.91544 0.4945323 0)
(157.73679 0.55484041 0)
(157.53796 0.61145503 0)
(157.32037 0.66378147 0)
(157.08562 0.71130689 0)
(156.83549 0.75361002 0)
(156.57189 0.79036741 0)
(156.2968 0.82135631 0)
(156.01229 0.846454 0)
(155.72041 0.86563419 0)
(155.42323 0.87896062 0)
(155.12275 0.88657851 0)
(154.82092 0.88870435 0)
(154.51957 0.88561459 0)
(154.22044 0.87763382 0)
(153.92513 0.86512291 0)
(153.63512 0.84846751 0)
(153.35172 0.82806731 0)
(153.07611 0.80432622 0)
(152.80934 0.77764384 0)
(152.55231 0.74840796 0)
(152.30578 0.71698866 0)
(152.0704 0.68373341 0)
(151.8467 0.64896348 0)
(151.63509 0.61297153 0)
(151.43592 0.57602007 0)
(151.24943 0.53834078 0)
(151.07579 0.50013478 0)
(150.91513 0.46157321 0)
(150.7675 0.42279851 0)
(150.63292 0.38392601 0)
(150.5114 0.34504584 0)
(150.40289 0.30622492 0)
(150.30736 0.26750932 0)
(150.22475 0.22892644 0)
(150.15497 0.1904875 0)
(150.09786 0.15219008 0)
(150.05337 0.1140205 0)
(150.02208 0.075955225 0)
(150.00494 0.037961349 0)
(152.30436 -0.052193051 0)
(152.32219 -0.052380587 0)
(152.336 -0.05279461 0)
(152.35017 -0.053444369 0)
(152.36454 -0.054331881 0)
(152.37919 -0.055460487 0)
(152.39416 -0.056834405 0)
(152.40954 -0.058458714 0)
(152.42539 -0.060339408 0)
(152.44178 -0.062483339 0)
(152.45878 -0.064898282 0)
(152.47646 -0.067592861 0)
(152.4949 -0.07057663 0)
(152.51419 -0.073859977 0)
(152.53439 -0.077454211 0)
(152.55561 -0.081371446 0)
(152.57792 -0.0856247 0)
(152.60142 -0.090227738 0)
(152.62621 -0.095195184 0)
(152.65238 -0.10054233 0)
(152.68004 -0.10628523 0)
(152.70931 -0.11244049 0)
(152.74029 -0.11902536 0)
(152.7731 -0.12605742 0)
(152.80787 -0.1335547 0)
(152.84473 -0.14153533 0)
(152.88381 -0.15001756 0)
(152.92525 -0.15901938 0)
(152.9692 -0.16855852 0)
(153.0158 -0.1786519 0)
(153.06522 -0.18931567 0)
(153.1176 -0.20056452 0)
(153.17312 -0.21241157 0)
(153.23195 -0.22486781 0)
(153.29424 -0.23794144 0)
(153.36019 -0.25163765 0)
(153.42996 -0.26595756 0)
(153.50373 -0.28089797 0)
(153.58167 -0.29645008 0)
(153.66396 -0.31259916 0)
(153.75078 -0.32932306 0)
(153.84227 -0.34659177 0)
(153.93861 -0.36436575 0)
(154.03993 -0.38259528 0)
(154.14637 -0.40121888 0)
(154.25805 -0.42016222 0)
(154.37505 -0.43933672 0)
(154.49744 -0.45863826 0)
(154.62528 -0.4779459 0)
(154.75856 -0.49712051 0)
(154.89726 -0.51600369 0)
(155.04129 -0.53441667 0)
(155.19054 -0.55215947 0)
(155.3448 -0.56901026 0)
(155.50385 -0.58472518 0)
(155.66735 -0.59903839 0)
(155.83491 -0.61166278 0)
(156.00606 -0.62229119 0)
(156.18023 -0.63059833 0)
(156.35675 -0.63624355 0)
(156.53485 -0.63887442 0)
(156.71368 -0.63813127 0)
(156.89226 -0.63365283 0)
(157.06951 -0.62508284 0)
(157.24424 -0.61207774 0)
(157.41516 -0.59431537 0)
(157.58088 -0.57150464 0)
(157.73994 -0.54339581 0)
(157.89078 -0.50979143 0)
(158.03179 -0.47055743 0)
(158.16133 -0.42563399 0)
(158.27773 -0.37504588 0)
(158.37934 -0.31891161 0)
(158.46455 -0.2574507 0)
(158.53179 -0.19098891 0)
(158.57964 -0.11996058 0)
(158.60679 -0.044908466 0)
(158.61209 0.033520187 0)
(158.59464 0.11458476 0)
(158.55371 0.19746553 0)
(158.48887 0.28127675 0)
(158.39996 0.36508577 0)
(158.28707 0.44793471 0)
(158.15063 0.52886376 0)
(157.99132 0.60693512 0)
(157.81013 0.68125644 0)
(157.60829 0.75100267 0)
(157.38727 0.81543551 0)
(157.14874 0.8739194 0)
(156.89455 0.92593361 0)
(156.62668 0.97108004 0)
(156.34719 1.0090866 0)
(156.05822 1.0398063 0)
(155.7619 1.0632122 0)
(155.46035 1.0793897 0)
(155.15564 1.0885249 0)
(154.84976 1.0908924 0)
(154.5446 1.0868405 0)
(154.2419 1.0767762 0)
(153.94331 1.0611508 0)
(153.6503 1.0404454 0)
(153.36421 1.0151572 0)
(153.08622 0.98578766 0)
(152.81735 0.9528319 0)
(152.55851 0.91676947 0)
(152.31044 0.87805715 0)
(152.07377 0.83712301 0)
(151.849 0.79436214 0)
(151.63655 0.75013373 0)
(151.43671 0.70475936 0)
(151.24971 0.65852227 0)
(151.07571 0.61166774 0)
(150.91481 0.56440401 0)
(150.76703 0.51690385 0)
(150.63239 0.46930663 0)
(150.51086 0.4217207 0)
(150.40239 0.37422593 0)
(150.30693 0.32687659 0)
(150.2244 0.2797041 0)
(150.15471 0.23272007 0)
(150.09769 0.1859194 0)
(150.05327 0.13928332 0)
(150.02204 0.092780981 0)
(150.00493 0.046369887 0)
(152.33915 -0.061334803 0)
(152.35677 -0.061555133 0)
(152.37041 -0.062042089 0)
(152.38442 -0.06280668 0)
(152.39862 -0.063851306 0)
(152.41309 -0.065179914 0)
(152.42789 -0.066797484 0)
(152.44308 -0.068710018 0)
(152.45875 -0.070924595 0)
(152.47494 -0.073449311 0)
(152.49174 -0.076293351 0)
(152.50922 -0.079466911 0)
(152.52746 -0.082981284 0)
(152.54652 -0.086848752 0)
(152.5665 -0.091082694 0)
(152.58748 -0.095697444 0)
(152.60955 -0.10070841 0)
(152.63279 -0.10613189 0)
(152.65732 -0.11198521 0)
(152.68321 -0.11828649 0)
(152.71059 -0.12505479 0)
(152.73955 -0.1323098 0)
(152.77021 -0.140072 0)
(152.8027 -0.14836231 0)
(152.83713 -0.15720217 0)
(152.87364 -0.16661318 0)
(152.91236 -0.17661712 0)
(152.95342 -0.18723547 0)
(152.99698 -0.19848947 0)
(153.04318 -0.21039945 0)
(153.09218 -0.22298485 0)
(153.14415 -0.23626344 0)
(153.19924 -0.25025121 0)
(153.25763 -0.26496168 0)
(153.31948 -0.28040515 0)
(153.38499 -0.29658844 0)
(153.45431 -0.3135136 0)
(153.52765 -0.33117768 0)
(153.60516 -0.3495712 0)
(153.68704 -0.36867772 0)
(153.77346 -0.38847216 0)
(153.86459 -0.40892018 0)
(153.96059 -0.42997629 0)
(154.06162 -0.45158298 0)
(154.16781 -0.47366896 0)
(154.2793 -0.49614773 0)
(154.39619 -0.51891598 0)
(154.51855 -0.54185204 0)
(154.64645 -0.56481425 0)
(154.77991 -0.58763942 0)
(154.9189 -0.61014138 0)
(155.06337 -0.63210971 0)
(155.2132 -0.65330861 0)
(155.36822 -0.67347617 0)
(155.52821 -0.69232394 0)
(155.69286 -0.70953699 0)
(155.86179 -0.7247746 0)
(156.03454 -0.73767164 0)
(156.21054 -0.74784077 0)
(156.38915 -0.75487551 0)
(156.56961 -0.75835454 0)
(156.75106 -0.75784691 0)
(156.93252 -0.75291873 0)
(157.1129 -0.74314095 0)
(157.29101 -0.72809854 0)
(157.46554 -0.70740089 0)
(157.63506 -0.68069336 0)
(157.79809 -0.64766975 0)
(157.95302 -0.60808552 0)
(158.09819 -0.56177126 0)
(158.23191 -0.50864607 0)
(158.35244 -0.44873022 0)
(158.45805 -0.38215654 0)
(158.54705 -0.30917965 0)
(158.61782 -0.23018253 0)
(158.66883 -0.14567978 0)
(158.6987 -0.056317576 0)
(158.70622 0.03713052 0)
(158.69041 0.13377628 0)
(158.65049 0.23263516 0)
(158.58599 0.33264087 0)
(158.4967 0.4326692 0)
(158.38275 0.53156458 0)
(158.24453 0.62816859 0)
(158.08277 0.72134927 0)
(157.8985 0.81002987 0)
(157.69299 0.89321571 0)
(157.46779 0.97001789 0)
(157.22466 1.0396729 0)
(156.96552 1.1015572 0)
(156.69246 1.1551965 0)
(156.40763 1.20027 0)
(156.11324 1.2366083 0)
(155.81153 1.2641878 0)
(155.5047 1.28312 0)
(155.19487 1.293638 0)
(154.88409 1.2960804 0)
(154.57431 1.290874 0)
(154.26732 1.2785151 0)
(153.96478 1.2595517 0)
(153.66817 1.234566 0)
(153.37886 1.2041582 0)
(153.098 1.1689321 0)
(152.82664 1.1294822 0)
(152.56564 1.0863832 0)
(152.31574 1.0401811 0)
(152.07754 0.99138644 0)
(151.85152 0.94046944 0)
(151.63807 0.88785655 0)
(151.43746 0.83392867 0)
(151.24988 0.77902044 0)
(151.07547 0.72342086 0)
(150.91429 0.6673745 0)
(150.76636 0.61108352 0)
(150.63166 0.55471024 0)
(150.51014 0.49838003 0)
(150.40173 0.44218443 0)
(150.30636 0.38618462 0)
(150.22395 0.33041471 0)
(150.15438 0.27488534 0)
(150.09746 0.21958748 0)
(150.05315 0.16449597 0)
(150.02199 0.10957139 0)
(150.00491 0.054760275 0)
(152.37962 -0.070544374 0)
(152.39699 -0.070798204 0)
(152.41044 -0.071358563 0)
(152.42425 -0.072238089 0)
(152.43825 -0.073439533 0)
(152.45252 -0.074967451 0)
(152.46711 -0.076827589 0)
(152.4821 -0.079026871 0)
(152.49754 -0.081573466 0)
(152.51352 -0.084476718 0)
(152.53009 -0.087747229 0)
(152.54733 -0.09139677 0)
(152.56532 -0.095438382 0)
(152.58414 -0.099886253 0)
(152.60385 -0.10475584 0)
(152.62456 -0.11006372 0)
(152.64634 -0.11582769 0)
(152.66929 -0.12206663 0)
(152.6935 -0.12880059 0)
(152.71907 -0.13605054 0)
(152.74611 -0.14383858 0)
(152.77472 -0.15218754 0)
(152.80502 -0.1611212 0)
(152.83713 -0.17066386 0)
(152.87117 -0.18084048 0)
(152.90727 -0.19167619 0)
(152.94556 -0.20319641 0)
(152.98618 -0.21542626 0)
(153.02928 -0.22839059 0)
(153.07502 -0.24211331 0)
(153.12354 -0.25661734 0)
(153.17501 -0.27192374 0)
(153.2296 -0.28805161 0)
(153.28748 -0.30501725 0)
(153.34882 -0.32283336 0)
(153.4138 -0.3415087 0)
(153.48261 -0.36104664 0)
(153.55543 -0.38144487 0)
(153.63244 -0.40269367 0)
(153.71383 -0.42477539 0)
(153.79979 -0.44766249 0)
(153.89048 -0.47131689 0)
(153.98608 -0.49568772 0)
(154.08675 -0.52071034 0)
(154.19265 -0.54630425 0)
(154.30391 -0.57237147 0)
(154.42066 -0.59879465 0)
(154.54297 -0.62543518 0)
(154.67093 -0.65213137 0)
(154.80457 -0.67869652 0)
(154.94389 -0.70491725 0)
(155.08885 -0.73055189 0)
(155.23936 -0.75532916 0)
(155.39525 -0.77894711 0)
(155.55633 -0.80107263 0)
(155.7223 -0.82134132 0)
(155.89281 -0.83935821 0)
(156.0674 -0.85469914 0)
(156.24554 -0.86691322 0)
(156.42659 -0.87552628 0)
(156.6098 -0.88004561 0)
(156.7943 -0.87996607 0)
(156.97913 -0.87477754 0)
(157.16319 -0.8639741 0)
(157.34527 -0.84706461 0)
(157.52403 -0.82358483 0)
(157.69804 -0.79311105 0)
(157.86575 -0.75527471 0)
(158.02551 -0.7097782 0)
(158.17561 -0.65641088 0)
(158.31427 -0.59506513 0)
(158.43969 -0.52575175 0)
(158.55005 -0.44861381 0)
(158.64357 -0.36393808 0)
(158.71854 -0.27216345 0)
(158.77332 -0.1738851 0)
(158.80645 -0.069854955 0)
(158.81662 0.039022603 0)
(158.80277 0.15170441 0)
(158.76408 0.26703202 0)
(158.7 0.38374824 0)
(158.6103 0.50052563 0)
(158.49508 0.61599833 0)
(158.35477 0.72879634 0)
(158.19011 0.83758086 0)
(158.00216 0.94107887 0)
(157.7923 1.0381155 0)
(157.56215 1.1276426 0)
(157.31355 1.208762 0)
(157.04855 1.2807432 0)
(156.76933 1.3430341 0)
(156.47816 1.3952652 0)
(156.17737 1.4372476 0)
(155.86928 1.4689653 0)
(155.5562 1.490562 0)
(155.24033 1.5023247 0)
(154.92379 1.5046639 0)
(154.60859 1.4980926 0)
(154.29655 1.4832045 0)
(153.98938 1.460652 0)
(153.68857 1.4311256 0)
(153.39549 1.3953352 0)
(153.11131 1.3539923 0)
(152.83704 1.307796 0)
(152.57355 1.2574199 0)
(152.32154 1.2035022 0)
(152.08158 1.1466385 0)
(151.85414 1.0873755 0)
(151.63955 1.0262079 0)
(151.43807 0.96357636 0)
(151.24985 0.89986673 0)
(151.07498 0.83541124 0)
(150.91352 0.77048997 0)
(150.76543 0.70533341 0)
(150.63069 0.64012559 0)
(150.5092 0.57500754 0)
(150.40088 0.51008103 0)
(150.30564 0.44541262 0)
(150.22338 0.38103758 0)
(150.15396 0.31696408 0)
(150.09719 0.25317763 0)
(150.05299 0.18964517 0)
(150.02192 0.12631725 0)
(150.0049 0.06312783 0)
(152.42576 -0.079439718 0)
(152.44284 -0.079725614 0)
(152.45608 -0.080357271 0)
(152.46966 -0.081349037 0)
(152.48344 -0.08270404 0)
(152.49748 -0.08442744 0)
(152.51184 -0.086525745 0)
(152.52658 -0.089006799 0)
(152.54178 -0.091879856 0)
(152.5575 -0.095155504 0)
(152.57382 -0.09884576 0)
(152.59079 -0.10296397 0)
(152.6085 -0.10752492 0)
(152.62702 -0.11254471 0)
(152.64644 -0.11804087 0)
(152.66683 -0.12403223 0)
(152.68829 -0.13053902 0)
(152.7109 -0.13758267 0)
(152.73476 -0.14518599 0)
(152.75996 -0.15337285 0)
(152.78662 -0.1621684 0)
(152.81483 -0.17159868 0)
(152.84471 -0.18169081 0)
(152.87639 -0.19247255 0)
(152.90997 -0.20397243 0)
(152.9456 -0.21621923 0)
(152.98341 -0.22924215 0)
(153.02353 -0.24307003 0)
(153.06611 -0.25773154 0)
(153.11131 -0.27325433 0)
(153.15928 -0.289665 0)
(153.21018 -0.30698816 0)
(153.2642 -0.32524627 0)
(153.32148 -0.34445875 0)
(153.38223 -0.36464102 0)
(153.44662 -0.38580419 0)
(153.51483 -0.40795339 0)
(153.58705 -0.43108743 0)
(153.66348 -0.45519686 0)
(153.74431 -0.48026341 0)
(153.82972 -0.50625774 0)
(153.9199 -0.53313868 0)
(154.01503 -0.56085073 0)
(154.11529 -0.58932286 0)
(154.22084 -0.6184662 0)
(154.33183 -0.64817209 0)
(154.44838 -0.67830998 0)
(154.57062 -0.70872521 0)
(154.69863 -0.73923684 0)
(154.83247 -0.76963546 0)
(154.97214 -0.79968117 0)
(155.11764 -0.82910166 0)
(155.26888 -0.85759056 0)
(155.42575 -0.8848062 0)
(155.58804 -0.91037078 0)
(155.75551 -0.93387015 0)
(155.9278 -0.9548544 0)
(156.10449 -0.97283928 0)
(156.28506 -0.9873088 0)
(156.46888 -0.99771897 0)
(156.65522 -1.003503 0)
(156.84322 -1.0040782 0)
(157.03192 -0.99885428 0)
(157.2202 -0.98724368 0)
(157.40684 -0.96867379 0)
(157.59049 -0.94260083 0)
(157.76967 -0.90852551 0)
(157.94278 -0.86601013 0)
(158.10814 -0.81469694 0)
(158.26395 -0.75432708 0)
(158.40836 -0.68475959 0)
(158.53947 -0.60598976 0)
(158.65538 -0.51816594 0)
(158.75419 -0.42160346 0)
(158.83406 -0.31679524 0)
(158.89327 -0.2044173 0)
(158.93023 -0.085329773 0)
(158.94353 0.039427139 0)
(158.93202 0.16864773 0)
(158.89478 0.30099029 0)
(158.83122 0.43499447 0)
(158.74107 0.56911569 0)
(158.6244 0.70176279 0)
(158.48165 0.83133874 0)
(158.31361 0.95628268 0)
(158.1214 1.0751111 0)
(157.90646 1.1864565 0)
(157.67053 1.2891009 0)
(157.41556 1.382004 0)
(157.14372 1.4643233 0)
(156.85733 1.5354266 0)
(156.55879 1.5948969 0)
(156.25055 1.6425292 0)
(155.93507 1.6783203 0)
(155.61474 1.7024534 0)
(155.29188 1.7152779 0)
(154.96869 1.7172854 0)
(154.64723 1.7090851 0)
(154.32939 1.6913772 0)
(154.01689 1.6649278 0)
(153.71128 1.6305443 0)
(153.4139 1.5890535 0)
(153.12593 1.5412816 0)
(152.84836 1.4880374 0)
(152.58205 1.430098 0)
(152.32766 1.3681976 0)
(152.08574 1.3030189 0)
(151.8567 1.235187 0)
(151.64086 1.1652658 0)
(151.43842 1.0937558 0)
(151.2495 1.0210937 0)
(151.07417 0.94765444 0)
(150.91241 0.87375237 0)
(150.76419 0.799645 0)
(150.62942 0.72553651 0)
(150.508 0.65158193 0)
(150.39982 0.57789148 0)
(150.30475 0.50453535 0)
(150.22267 0.43154816 0)
(150.15344 0.3589338 0)
(150.09684 0.28667051 0)
(150.0528 0.21471569 0)
(150.02184 0.14300807 0)
(150.00488 0.071467215 0)
(152.47754 -0.0883408 0)
(152.49431 -0.08865907 0)
(152.5073 -0.089361887 0)
(152.52064 -0.09046521 0)
(152.53416 -0.091972526 0)
(152.54794 -0.093889598 0)
(152.56203 -0.096223692 0)
(152.57651 -0.098983571 0)
(152.59144 -0.10217958 0)
(152.60687 -0.10582354 0)
(152.62289 -0.10992888 0)
(152.63957 -0.11451054 0)
(152.65696 -0.11958505 0)
(152.67516 -0.12517042 0)
(152.69424 -0.13128628 0)
(152.71429 -0.13795369 0)
(152.73538 -0.14519534 0)
(152.75761 -0.15303525 0)
(152.78107 -0.161499 0)