/*--------------------------------*- C++ -*----------------------------------*\
| =========                 |                                                 |
| \\      /  F ield         | foam-extend: Open Source CFD                    |
|  \\    /   O peration     | Version:     4.1                                |
|   \\  /    A nd           | Web:         http://www.foam-extend.org         |
|    \\/     M anipulation  |                                                 |
\*---------------------------------------------------------------------------*/
FoamFile
{
    version     2.0;
    format      ascii;
    class       volScalarField;
    location    "0.4";
    object      p;
}
// * * * * * * * * * * * * * * * * * * * * * * * * * * * * * * * * * * * * * //

dimensions      [0 2 -2 0 0 0 0];

internalField   nonuniform List<scalar> 
16796
(
-0.00026424163
-9.9079584e-06
-0.00027965321
-0.00020104072
-0.0003572682
-0.00035946605
-0.00046790521
-0.00050940722
-0.00060023861
-0.00066342603
-0.00075104183
-0.00082902968
-0.00092086525
-0.0010116497
-0.001112139
-0.0012160019
-0.0013283572
-0.0014467242
-0.0015737445
-0.001708689
-0.0018531339
-0.0020071686
-0.0021719352
-0.0023479282
-0.0025361368
-0.0027372774
-0.00295231
-0.0031820903
-0.0034275982
-0.0036897908
-0.0039696758
-0.0042682916
-0.0045866694
-0.0049258863
-0.0052869926
-0.0056710616
-0.0060791259
-0.0065122096
-0.0069712741
-0.007457228
-0.0079708932
-0.0085129717
-0.0090840524
-0.0096845311
-0.010314628
-0.010974309
-0.011663275
-0.012380901
-0.013126199
-0.013897764
-0.014693726
-0.015511699
-0.016348726
-0.017201229
-0.018064959
-0.018934952
-0.019805484
-0.020670043
-0.021521303
-0.022351117
-0.023150507
-0.023909703
-0.024618162
-0.025264649
-0.025837299
-0.02632375
-0.026711256
-0.026986868
-0.027137599
-0.027150657
-0.027013645
-0.026714831
-0.026243374
-0.025589596
-0.024745226
-0.023703619
-0.022460016
-0.02101164
-0.019357969
-0.017500751
-0.015444046
-0.013194267
-0.010760114
-0.008152431
-0.0053841099
-0.0024697791
0.0005743224
0.0037307691
0.0069810955
0.010306276
0.013686873
0.017103503
0.020536973
0.023968695
0.027380784
0.030756396
0.034079782
0.037336553
0.040513674
0.043599659
0.046584521
0.049459864
0.052218796
0.054855897
0.057367082
0.059749442
0.062001118
0.064120995
0.066108747
0.067964307
0.069688367
0.071281256
0.072744568
0.074078322
0.075285469
0.076364427
0.077321136
0.078149307
0.078862473
0.079441715
0.079920628
0.080247002
0.080507696
0.080564794
-0.00026360268
-9.8672016e-06
-0.00027896456
-0.00020053028
-0.00035638071
-0.00035856622
-0.00046674256
-0.00050814078
-0.00059875275
-0.00066178733
-0.00074919396
-0.00082699721
-0.00091861751
-0.0010091917
-0.0011094508
-0.0012130792
-0.001325184
-0.0014432913
-0.0015700373
-0.0017046955
-0.0018488398
-0.0020025607
-0.002166999
-0.00234265
-0.0025305026
-0.0027312738
-0.0029459241
-0.0031753103
-0.0034204134
-0.0036821924
-0.0039616568
-0.004259848
-0.0045778003
-0.0049165946
-0.0052772859
-0.0056609529
-0.0060686347
-0.0065013626
-0.0069601065
-0.0074457843
-0.0079592289
-0.0085011543
-0.0090721624
-0.009672664
-0.010302895
-0.010962838
-0.011652214
-0.012370416
-0.013116475
-0.013889009
-0.01468617
-0.01550559
-0.016344335
-0.017198845
-0.018064888
-0.018937515
-0.019811013
-0.020678878
-0.021533785
-0.022367581
-0.023171278
-0.023935087
-0.024648434
-0.025300048
-0.025878014
-0.026369914
-0.026762933
-0.027044045
-0.027200177
-0.027218444
-0.027086351
-0.026792063
-0.02632464
-0.025674302
-0.024832684
-0.023793058
-0.022550594
-0.021102454
-0.019448113
-0.017589358
-0.015530241
-0.013277199
-0.010838971
-0.0082264543
-0.0054526138
-0.0025321611
0.0005185644
0.0036820345
0.0069396688
0.010272333
0.013660473
0.017084605
0.020525434
0.023964288
0.027383203
0.030765277
0.034094713
0.03735709
0.040539354
0.043630013
0.04661908
0.049498169
0.052260401
0.054900372
0.057414014
0.059798438
0.062051804
0.064173022
0.066161795
0.068018086
0.069742627
0.071335783
0.072799187
0.074132896
0.075339897
0.076418641
0.077375093
0.078202994
0.078915888
0.079494889
0.079973582
0.080299803
0.080560367
0.08061744
-0.00026231393
-9.8080092e-06
-0.00027758793
-0.00019952959
-0.00035461607
-0.00035678758
-0.00046443539
-0.00050563285
-0.00059580689
-0.00065854143
-0.00074553309
-0.00082297301
-0.00091416811
-0.0010043288
-0.0011041349
-0.0012073029
-0.0013189165
-0.0014365156
-0.0015627257
-0.0016968261
-0.0018403856
-0.0019934975
-0.0021573005
-0.0023322915
-0.0025194591
-0.0027195222
-0.0029334424
-0.0031620791
-0.0034064162
-0.0036674164
-0.0039460941
-0.0042434965
-0.0045606647
-0.0048986881
-0.0052586314
-0.0056415848
-0.0060486004
-0.0064807247
-0.0069389445
-0.0074241973
-0.0079373375
-0.0084791029
-0.0090501223
-0.009650835
-0.010281508
-0.010942159
-0.011632542
-0.012352089
-0.013099871
-0.013874544
-0.0146743
-0.01549681
-0.016339178
-0.01719788
-0.018068714
-0.018946755
-0.019826311
-0.020700886
-0.021563154
-0.022404951
-0.023217259
-0.023990248
-0.024713286
-0.025375024
-0.025963452
-0.026466039
-0.026869837
-0.027161672
-0.027328306
-0.027356678
-0.027234103
-0.026948559
-0.026488907
-0.025845184
-0.025008844
-0.023972996
-0.022732675
-0.021284917
-0.019629138
-0.017767116
-0.015702897
-0.013442955
-0.010996116
-0.008373391
-0.005587907
-0.0026545559
0.00041010523
0.0035883263
0.0068612806
0.010209599
0.013613484
0.017053232
0.020509333
0.023962937
0.027395912
0.030791232
0.03413299
0.037406697
0.040599247
0.043699131
0.04669636
0.049582572
0.052350923
0.05499606
0.057513973
0.059901845
0.062157907
0.064281148
0.066271348
0.068128553
0.06985357
0.071446843
0.072910074
0.074243392
0.075449841
0.076527934
0.077483679
0.078310875
0.079023087
0.079601487
0.080079646
0.080405491
0.080665739
0.080722743
-0.00026038748
-9.7144488e-06
-0.00027552534
-0.00019802566
-0.00035196964
-0.00035411768
-0.00046097414
-0.00050186911
-0.00059138657
-0.00065366996
-0.00074003867
-0.00081693232
-0.0009074884
-0.00099702715
-0.0010961517
-0.0011986265
-0.0013095003
-0.0014263336
-0.0015517355
-0.0016849942
-0.0018276707
-0.0019798623
-0.0021427043
-0.002316696
-0.0025028256
-0.0027018142
-0.0029146253
-0.0031421217
-0.0033852915
-0.003645103
-0.0039225775
-0.0042187704
-0.0045347332
-0.0048715676
-0.0052303525
-0.005612195
-0.0060181668
-0.0064493367
-0.006906717
-0.0073912741
-0.0079038947
-0.0084453528
-0.0090163165
-0.009617269
-0.010248525
-0.010910151
-0.011601957
-0.012323432
-0.013073705
-0.013851493
-0.014655049
-0.015482105
-0.016329822
-0.017194731
-0.018072678
-0.018958779
-0.01984737
-0.020731972
-0.021605261
-0.022459054
-0.023284296
-0.024071095
-0.024808729
-0.025485738
-0.026089966
-0.026608711
-0.027028827
-0.027336912
-0.027519478
-0.027563196
-0.027455094
-0.027182859
-0.026735056
-0.026101435
-0.025273179
-0.024243151
-0.023006179
-0.02155912
-0.019901306
-0.018034503
-0.01596275
-0.013692585
-0.011232954
-0.0085950432
-0.0057922177
-0.0028396378
0.00024581417
0.0034460569
0.0067418942
0.010113607
0.013541029
0.017004132
0.020483083
0.023958763
0.027412794
0.03082796
0.034188195
0.037478909
0.040686923
0.043800702
0.046810258
0.049707262
0.05248492
0.055137955
0.057662439
0.060055651
0.062315924
0.064442359
0.066434848
0.068293553
0.070019397
0.071612939
0.07307599
0.074408783
0.075614457
0.076691617
0.077646339
0.078472508
0.079183719
0.079761241
0.080238613
0.080563905
0.080823688
0.080880594
-0.00025782505
-9.5962955e-06
-0.00027278418
-0.00019603289
-0.00034845502
-0.00035057525
-0.00045637863
-0.00049687366
-0.00058551843
-0.00064720386
-0.0007327454
-0.0008089147
-0.00089862294
-0.00098733706
-0.0010855578
-0.001187114
-0.0012970075
-0.0014128264
-0.001537158
-0.0016693023
-0.0018108103
-0.0019617843
-0.0021233557
-0.0022960268
-0.0024807851
-0.0026783552
-0.0028897029
-0.003115696
-0.0033573279
-0.0036155748
-0.003891467
-0.0041860714
-0.0045004534
-0.0048357309
-0.0051930021
-0.0055733968
-0.0059780127
-0.0064079485
-0.0068642507
-0.0073479242
-0.0078598987
-0.0084009961
-0.0089719378
-0.0095732645
-0.010205354
-0.01086834
-0.011562106
-0.012286213
-0.013039873
-0.01382188
-0.01463057
-0.015463755
-0.016318673
-0.017191927
-0.018079425
-0.01897634
-0.019877046
-0.020775085
-0.021663136
-0.022532991
-0.023375545
-0.024180823
-0.024937987
-0.025635424
-0.026260788
-0.02680115
-0.027243095
-0.027572923
-0.02777681
-0.02784107
-0.027752346
-0.027497937
-0.027066008
-0.026445928
-0.02562851
-0.024606285
-0.023373796
-0.021927658
-0.020267061
-0.018393734
-0.01631171
-0.014027603
-0.011550536
-0.0088919287
-0.0060654794
-0.0030867175
2.7025261e-05
0.0032572132
0.0065841415
0.0099876114
0.013446953
0.016941694
0.020451557
0.023957063
0.027439493
0.030881378
0.034266434
0.037579933
0.040808596
0.043940858
0.04696673
0.049877935
0.052667755
0.055331021
0.057863928
0.0602639
0.062529422
0.064659754
0.066654948
0.068515334
0.070241989
0.071835629
0.073298209
0.074630102
0.075834564
0.076910327
0.077863552
0.078688237
0.079398017
0.079974289
0.080450548
0.08077506
0.081034187
0.08109095
-0.00025463431
-9.446471e-06
-0.0002693671
-0.0001935462
-0.00034407203
-0.00034615623
-0.00045064677
-0.0004906421
-0.00057819827
-0.00063913696
-0.00072364601
-0.00079891052
-0.00088755976
-0.00097524332
-0.0010723345
-0.0011727419
-0.0012814091
-0.0013959583
-0.00151895
-0.0016496984
-0.0017897418
-0.0019391891
-0.002099166
-0.0022701787
-0.0024532139
-0.0026489999
-0.0028585054
-0.003082604
-0.0033222959
-0.0035785663
-0.0038524569
-0.0041450484
-0.0044574231
-0.0047907189
-0.0051460581
-0.005524598
-0.0059274688
-0.0063558064
-0.0068106994
-0.0072932006
-0.0078042936
-0.0083448603
-0.0089156879
-0.0095173901
-0.010150423
-0.010815007
-0.011511113
-0.012238401
-0.01299618
-0.013783347
-0.014598342
-0.015439078
-0.016302892
-0.01718648
-0.018085834
-0.018996194
-0.019911989
-0.020826792
-0.021733285
-0.022623236
-0.023487478
-0.024315936
-0.025097628
-0.025820752
-0.026472724
-0.02704033
-0.027509817
-0.027867111
-0.02809796
-0.028188227
-0.028124071
-0.027892293
-0.027480554
-0.026877735
-0.026074181
-0.025062001
-0.023835374
-0.022390612
-0.020726724
-0.018845381
-0.016750611
-0.01444912
-0.01195025
-0.0092657138
-0.0064096303
-0.0033979929
-0.00024870455
0.0030191252
0.0063851436
0.0098285463
0.013328022
0.016862535
0.02041125
0.023954229
0.027472322
0.030947748
0.034363946
0.037706021
0.04096057
0.044115994
0.047162307
0.050091301
0.052896352
0.05557243
0.058115886
0.060524321
0.062796409
0.06493161
0.066930178
0.068792647
0.070520292
0.072114025
0.073575981
0.074906713
0.076109624
0.077183605
0.078134924
0.078957724
0.079665689
0.080240376
0.080715225
0.081038748
0.081297046
0.081353631
-0.00025082222
-9.2698908e-06
-0.00026528494
-0.00019057789
-0.0003388366
-0.00034087909
-0.0004438003
-0.00048319932
-0.00056945448
-0.00062950133
-0.00071277661
-0.00078696021
-0.00087434405
-0.0009607963
-0.0010565377
-0.0011555724
-0.001262774
-0.001375806
-0.0014971962
-0.001626276
-0.0017645689
-0.0019121908
-0.0020702615
-0.0022392913
-0.0024202658
-0.002613918
-0.0028212199
-0.003043052
-0.0032804223
-0.0035343271
-0.0038058214
-0.0040960024
-0.0044059726
-0.0047368938
-0.0050899167
-0.0054662321
-0.0058670083
-0.0062934259
-0.006746624
-0.0072277129
-0.0077377403
-0.0082776603
-0.0088483393
-0.0094504785
-0.010084629
-0.010751112
-0.01145001
-0.012181097
-0.012943801
-0.013737146
-0.014559694
-0.015409485
-0.016283975
-0.017179974
-0.018093576
-0.019020109
-0.019954066
-0.020889063
-0.021817789
-0.022731987
-0.023622418
-0.02447889
-0.025290251
-0.026044475
-0.026728688
-0.027329338
-0.027832263
-0.028222933
-0.02848658
-0.028608517
-0.028574307
-0.028370149
-0.02798308
-0.027401383
-0.026614823
-0.025614988
-0.0243956
-0.022952599
-0.021284747
-0.019393635
-0.01728329
-0.014960528
-0.012434966
-0.0097186786
-0.0068263108
-0.0037744293
-0.0005816489
0.0027322132
0.0061459997
0.0096381613
0.013186592
0.016769571
0.020365567
0.023954091
0.027515464
0.031031524
0.034485376
0.037861929
0.041147632
0.04433085
0.047401608
0.05035179
0.053174895
0.055866073
0.058421871
0.060840122
0.063119733
0.06526042
0.067262687
0.069127319
0.070855838
0.072449393
0.073910336
0.075239433
0.076440271
0.077511924
0.078460791
0.079281189
0.079986855
0.080559542
0.081032619
0.081354901
0.081612159
0.081668518
-0.00024639672
-9.0630676e-06
-0.00026054299
-0.00018712801
-0.00033275347
-0.00033474644
-0.00043584424
-0.00047454945
-0.00055929223
-0.00061830153
-0.00070014182
-0.00077306751
-0.00085897866
-0.00094399722
-0.0010381666
-0.0011356019
-0.0012410955
-0.0013523583
-0.0014718802
-0.0015990127
-0.0017352612
-0.0018807505
-0.0020365925
-0.0022033023
-0.002381864
-0.0025730158
-0.002777733
-0.0029969039
-0.0032315454
-0.0034826659
-0.0037513356
-0.0040386706
-0.0043457962
-0.0046739017
-0.0050241704
-0.0053978311
-0.0057960969
-0.0062201993
-0.0066713362
-0.0071506843
-0.0076593661
-0.0081984195
-0.0087688035
-0.0093713212
-0.010006635
-0.010675186
-0.011377185
-0.012112542
-0.012880828
-0.013681213
-0.014512408
-0.015372601
-0.016259394
-0.017169732
-0.018099835
-0.019045137
-0.020000213
-0.020958734
-0.021913403
-0.02285594
-0.023777026
-0.024666341
-0.025512533
-0.026303319
-0.027025492
-0.027665099
-0.0282075
-0.028637628
-0.028940107
-0.029099597
-0.029100955
-0.028929662
-0.028572014
-0.028015582
-0.027249431
-0.026264531
-0.025054051
-0.023613488
-0.021941298
-0.020038962
-0.017910504
-0.015562855
-0.013005958
-0.010252309
-0.0073171815
-0.0042178219
-0.00097370019
0.0023945244
0.0058647251
0.0094144664
0.013020686
0.016660847
0.020312589
0.023954766
0.027567073
0.031130902
0.034628966
0.038045945
0.041368123
0.044583833
0.047683115
0.050657973
0.053502056
0.056210733
0.058780787
0.061210326
0.063498538
0.065645439
0.067651829
0.069518795
0.071248142
0.072841305
0.074300891
0.075627918
0.076826183
0.077894983
0.078840865
0.079658351
0.080361242
0.08093152
0.081402467
0.081723259
0.08197927
0.082035362
-0.00024136776
-8.8291086e-06
-0.00025515438
-0.00018320866
-0.00032584075
-0.00032777784
-0.00042680268
-0.00046471929
-0.00054774253
-0.00060557208
-0.00068578044
-0.00075727539
-0.00084151125
-0.00092489858
-0.0010172791
-0.0011128939
-0.0012164428
-0.0013256909
-0.0014430847
-0.0015679984
-0.0017019168
-0.0018449745
-0.0019982743
-0.0021623367
-0.002338144
-0.0025264398
-0.002728203
-0.0029443307
-0.0031758492
-0.003423781
-0.0036892129
-0.003973282
-0.0042771395
-0.0046020056
-0.0049491002
-0.0053196954
-0.0057150544
-0.0061364671
-0.0065851976
-0.0070624985
-0.0075695774
-0.0081075678
-0.0086775346
-0.0092803977
-0.0099169469
-0.010587762
-0.011293201
-0.012033332
-0.012807891
-0.013616216
-0.014457195
-0.015329188
-0.016229967
-0.017156641
-0.018105576
-0.019072335
-0.020051596
-0.021037098
-0.022021572
-0.022996715
-0.023953125
-0.024880343
-0.025766794
-0.026599904
-0.027366083
-0.028050924
-0.02863923
-0.029115315
-0.02946309
-0.029666457
-0.02970944
-0.029576679
-0.029253589
-0.028726899
-0.027984843
-0.027017655
-0.025817832
-0.024380351
-0.022703279
-0.020787959
-0.018638421
-0.016261726
-0.013668213
-0.010870875
-0.0078857402
-0.0047308574
-0.0014267207
0.0020050181
0.0055410757
0.0091579757
0.012831519
0.016538218
0.02025473
0.023959151
0.027630439
0.031249479
0.034798529
0.038262023
0.041626052
0.04487893
0.048010728
0.051013602
0.05388139
0.056609725
0.059195678
0.061637686
0.063935276
0.066088819
0.068099465
0.069968654
0.071698528
0.073290846
0.074748514
0.076072839
0.077267862
0.078333132
0.079275366
0.080089322
0.080788867
0.081356252
0.081824649
0.082143658
0.082398182
0.082453951
-0.00023574515
-8.5662137e-06
-0.00024912763
-0.00017882372
-0.00031810803
-0.00031998158
-0.00041668728
-0.00045372058
-0.00053481915
-0.00059132722
-0.00066970794
-0.00073959961
-0.00082195803
-0.00090351634
-0.00099389058
-0.0010874626
-0.0011888288
-0.0012958142
-0.001410817
-0.0015332362
-0.0016645337
-0.0018048543
-0.0019552906
-0.0021163688
-0.0022890685
-0.0024741391
-0.0026725632
-0.0028852469
-0.0031132269
-0.0033575402
-0.0036192922
-0.0038996426
-0.0041997711
-0.0045209313
-0.004864384
-0.0052314486
-0.0056234441
-0.006041725
-0.0064876293
-0.0069624941
-0.0074676223
-0.0080042545
-0.0085735745
-0.0091766341
-0.0098143668
-0.010487509
-0.011196587
-0.011941847
-0.012723213
-0.013540221
-0.014391955
-0.015276979
-0.016193261
-0.0171381
-0.018108035
-0.019098785
-0.020105149
-0.021120956
-0.022138974
-0.023150888
-0.024147212
-0.025117334
-0.026049439
-0.026930631
-0.027746889
-0.028483293
-0.029124018
-0.029652676
-0.030052358
-0.030306101
-0.030396973
-0.030308645
-0.030025512
-0.029533331
-0.028819367
-0.027872995
-0.026685929
-0.025252532
-0.023570406
-0.021640715
-0.019467481
-0.017057896
-0.014422747
-0.01157559
-0.0085333307
-0.0053149397
-0.0019421128
0.0015623515
0.0051738095
0.0088675825
0.012618137
0.01640089
0.02019135
0.02396675
0.027705193
0.031386995
0.034993893
0.038510051
0.041921356
0.045216113
0.048384441
0.051418686
0.054312911
0.057063069
0.059666564
0.062122224
0.064429963
0.066590567
0.068605588
0.070476872
0.072206943
0.073797937
0.075253096
0.076574059
0.077765138
0.07882617
0.079764064
0.080573842
0.081269448
0.081833436
0.082298847
0.082615772
0.08286856
0.082923955
-0.00022954123
-8.2767566e-06
-0.00024247791
-0.00017398596
-0.00030957571
-0.00031137904
-0.00040552492
-0.00044158285
-0.00052055641
-0.00057560484
-0.00065196685
-0.00072008692
-0.00080037057
-0.00087990686
-0.00096806263
-0.001059375
-0.0011583259
-0.0012628066
-0.0013751615
-0.0014948168
-0.001623209
-0.0017604939
-0.0019077526
-0.002065517
-0.0022347634
-0.0024162473
-0.0026109549
-0.0028198018
-0.0030438353
-0.0032841084
-0.0035417459
-0.0038179323
-0.0041138775
-0.0044308721
-0.0047702208
-0.0051332951
-0.005521475
-0.0059361855
-0.0063788465
-0.006850888
-0.0073537182
-0.0078886965
-0.0084571391
-0.0090602442
-0.0096991062
-0.010374637
-0.011087551
-0.011838298
-0.012627013
-0.013453454
-0.014316934
-0.015216246
-0.016149587
-0.017114476
-0.018107655
-0.019125027
-0.020161541
-0.021211138
-0.022266639
-0.023319732
-0.024360849
-0.025379222
-0.026362774
-0.02729826
-0.028171182
-0.02896605
-0.029666329
-0.030254836
-0.030713734
-0.03102507
-0.031170807
-0.031133504
-0.030896373
-0.030444039
-0.029762632
-0.028840528
-0.027668506
-0.026240216
-0.024552686
-0.022606863
-0.020406776
-0.017959755
-0.015277128
-0.012373094
-0.0092655976
-0.0059746733
-0.0025234308
0.0010640115
0.0047614142
0.0085427216
0.012380842
0.016249948
0.020124219
0.023979914
0.027794158
0.03154664
0.03521851
0.038793655
0.042257737
0.045599083
0.048807882
0.051876718
0.054799931
0.057573852
0.060196282
0.062666502
0.064984881
0.067152682
0.06917192
0.071044905
0.072774597
0.074363554
0.075815402
0.077132147
0.078318409
0.079374345
0.080307076
0.08111192
0.081802898
0.082362908
0.082824836
0.083139331
0.0833901
0.083445057
-0.00022276821
-7.9598798e-06
-0.00023521702
-0.00016870247
-0.000300258
-0.00030198358
-0.00039333346
-0.00042832474
-0.00050497607
-0.00055842809
-0.00063258261
-0.00069876418
-0.00077677734
-0.00085409964
-0.00093982561
-0.0010286618
-0.0011249647
-0.0012266978
-0.0013361465
-0.0014527665
-0.0015779658
-0.0017119122
-0.0018556734
-0.0020097872
-0.0021752259
-0.0023527508
-0.0025433514
-0.0027479528
-0.0029676135
-0.0032034027
-0.0034564656
-0.0037280128
-0.0040192866
-0.0043316164
-0.0046663542
-0.0050249274
-0.0054087816
-0.0058194185
-0.006258346
-0.0067270957
-0.0072271906
-0.0077601201
-0.0083273451
-0.0089302257
-0.0095700335
-0.010247874
-0.010964673
-0.011721103
-0.012517538
-0.013353985
-0.014230014
-0.015144681
-0.01609644
-0.017083063
-0.018101529
-0.019147957
-0.020217472
-0.021304154
-0.022400903
-0.02349942
-0.024590062
-0.025661905
-0.026702593
-0.027698508
-0.028634629
-0.02949484
-0.030261819
-0.030917501
-0.031443003
-0.031819266
-0.032027004
-0.032047521
-0.031862677
-0.031455815
-0.030811762
-0.029917749
-0.028763471
-0.027341754
-0.025648944
-0.023685716
-0.021456082
-0.018967493
-0.01623188
-0.013264151
-0.010083446
-0.0067109978
-0.0031715585
0.00050925539
0.0043033459
0.0081830957
0.012119601
0.016085632
0.020053827
0.023999365
0.027898248
0.031729484
0.03547356
0.039114081
0.042636472
0.046029113
0.049282288
0.052388881
0.055343555
0.058143092
0.06078575
0.063271337
0.065600739
0.067775765
0.069798952
0.071673138
0.073401769
0.074987879
0.076435518
0.077747105
0.078927597
0.079977507
0.080904185
0.081703281
0.082388893
0.082944306
0.08340222
0.083713921
0.08396237
0.084016826
-0.00021544073
-7.6176263e-06
-0.00022736226
-0.00016298712
-0.00029017784
-0.00029181887
-0.00038014297
-0.00041397908
-0.00048811632
-0.00053983897
-0.00061160231
-0.00067568292
-0.000751235
-0.00082615624
-0.00090924642
-0.00099539504
-0.001088823
-0.0011875713
-0.0012938613
-0.0014071803
-0.0015289051
-0.0016592158
-0.0017991656
-0.001949298
-0.0021105801
-0.0022837791
-0.002469887
-0.0026698391
-0.0028847044
-0.0031155692
-0.0033635999
-0.0036300341
-0.0039161481
-0.0042233126
-0.0045529296
-0.0049064859
-0.0052854974
-0.0056915479
-0.0061262403
-0.0065912156
-0.0070881212
-0.0076185877
-0.008184234
-0.0087865968
-0.0094271421
-0.01010719
-0.010827896
-0.011590184
-0.012394692
-0.013241707
-0.014131087
-0.015062184
-0.016033748
-0.01704384
-0.018089714
-0.019167742
-0.020273261
-0.021400527
-0.022542541
-0.023691046
-0.024836335
-0.025967334
-0.027071397
-0.028134511
-0.029141086
-0.030074329
-0.030916042
-0.031647182
-0.03224769
-0.032697263
-0.032975194
-0.033061357
-0.032936059
-0.032581174
-0.031980007
-0.031118467
-0.029984971
-0.028571389
-0.026873239
-0.024890861
-0.022628273
-0.020093051
-0.01729784
-0.014258358
-0.010995144
-0.0075307958
-0.0038919894
-0.00010603958
0.0037967882
0.0077871162
0.01183394
0.015908464
0.019981557
0.024027211
0.028020153
0.031938666
0.035762501
0.039474993
0.043061319
0.046509963
0.049811344
0.052958716
0.055947128
0.058773897
0.061437813
0.063939288
0.066279804
0.068461788
0.070488372
0.072362981
0.07408961
0.075671822
0.077114133
0.07841942
0.079593011
0.080635805
0.081555405
0.082347821
0.083027232
0.083577349
0.084030654
0.084339148
0.084584943
0.084638823
-0.00020757353
-7.2497541e-06
-0.0002189286
-0.00015684982
-0.0002793538
-0.00028090293
-0.00036597708
-0.00039857095
-0.00047000641
-0.00051986894
-0.00058906075
-0.00065088031
-0.00072378349
-0.00079611878
-0.00087636928
-0.00095962068
-0.0010499478
-0.0011454749
-0.0012483538
-0.0013581055
-0.0014760728
-0.0016024485
-0.0017382693
-0.0018840841
-0.0020408541
-0.0022093516
-0.0023905708
-0.0025854561
-0.0027950875
-0.0030205681
-0.0032630857
-0.0035239056
-0.0038043395
-0.0041058007
-0.0044297436
-0.0047777174
-0.0051513121
-0.0055521985
-0.0059820804
-0.0064427156
-0.0069358845
-0.0074633697
-0.0080269603
-0.008628384
-0.0092693183
-0.0099513155
-0.010675786
-0.011443925
-0.012256666
-0.013114603
-0.014017917
-0.01496629
-0.015958803
-0.01699385
-0.018068997
-0.019180908
-0.020325175
-0.021496261
-0.022687304
-0.023890114
-0.025094935
-0.026290555
-0.027464029
-0.028600932
-0.029685065
-0.030698903
-0.031623289
-0.032438114
-0.033122012
-0.033653306
-0.034009697
-0.034169467
-0.034111169
-0.033815023
-0.033262607
-0.032438327
-0.031329131
-0.02992579
-0.028222846
-0.026220233
-0.02392193
-0.021335594
-0.018474664
-0.015355722
-0.012000916
-0.0084343584
-0.0046849527
-0.00078191723
0.003241962
0.0073553375
0.011524767
0.015719716
0.019909015
0.024065357
0.028162018
0.032176513
0.036087776
0.039878888
0.043534771
0.047044074
0.05039739
0.053588428
0.056612697
0.059468134
0.062154141
0.064671829
0.067023347
0.069211827
0.071241062
0.073115135
0.074838647
0.076415746
0.077851463
0.079149174
0.080314608
0.081349091
0.082260491
0.083045214
0.083717517
0.084261584
0.084709638
0.085014485
0.085257268
0.085310496
-0.00019918354
-6.8581507e-06
-0.00020993558
-0.00015030579
-0.00026781152
-0.00026926202
-0.00035086938
-0.00038213685
-0.00045068887
-0.00049856466
-0.0005650102
-0.00062441345
-0.00069448544
-0.00076405514
-0.00084126773
-0.00092141781
-0.0010084242
-0.0011004992
-0.0011997206
-0.0013056445
-0.0014195769
-0.0015417237
-0.0016731032
-0.0018142697
-0.0019661766
-0.0021296012
-0.0023055388
-0.0024949427
-0.0026989031
-0.0029185399
-0.0031550624
-0.0034097642
-0.0036839927
-0.0039792057
-0.0042969117
-0.004638725
-0.0050063135
-0.0054014392
-0.0058259129
-0.0062816161
-0.0067704714
-0.0072944234
-0.0078554443
-0.0084554676
-0.0090963994
-0.0097800453
-0.010508092
-0.011282036
-0.01210313
-0.012972314
-0.013890125
-0.014856616
-0.015871244
-0.016932779
-0.018039146
-0.019187353
-0.02037329
-0.021591679
-0.022835833
-0.024097669
-0.02536741
-0.026633724
-0.027883367
-0.029101495
-0.030271256
-0.031374349
-0.032390562
-0.033298621
-0.034075702
-0.034698603
-0.035143219
-0.035386042
-0.035403612
-0.035174263
-0.034677568
-0.033896205
-0.032815384
-0.03142461
-0.029717235
-0.027692696
-0.025354964
-0.022711765
-0.019777486
-0.01656968
-0.013112387
-0.0094314239
-0.0055583095
-0.0015243947
0.0026345906
0.0068851085
0.01119089
0.015519489
0.0198374
0.024115918
0.02832668
0.032446414
0.036453156
0.040329773
0.044060937
0.047635546
0.051044425
0.054281842
0.057343848
0.060229113
0.062937741
0.065471642
0.067833725
0.070027911
0.072058733
0.073931008
0.075650005
0.077220514
0.078648131
0.079936772
0.081092603
0.082117408
0.08301934
0.083795232
0.084459416
0.084996592
0.085438687
0.085739398
0.085978771
0.086031259
-0.00019028804
-6.4430195e-06
-0.00020040121
-0.00014336749
-0.00025557368
-0.00025691848
-0.00033484894
-0.00036470787
-0.00043019994
-0.00047596537
-0.00053949424
-0.00059632924
-0.00066339158
-0.0007300193
-0.00080399908
-0.00088084658
-0.00096431484
-0.0010527092
-0.0011480283
-0.0012498647
-0.0013594852
-0.0014771085
-0.0016037327
-0.0017399167
-0.001886605
-0.0020445787
-0.0022148332
-0.0023983298
-0.0025961681
-0.0028094841
-0.0030395083
-0.0032875623
-0.0035550298
-0.0038434134
-0.004154277
-0.0044893023
-0.0048502372
-0.0052389392
-0.0056573306
-0.006107423
-0.0065912885
-0.0071110437
-0.0076688552
-0.0082668762
-0.0089072581
-0.0095920787
-0.010323323
-0.011102816
-0.011932159
-0.012812669
-0.013745277
-0.014730448
-0.015768058
-0.016857299
-0.017996505
-0.01918308
-0.02041326
-0.021682078
-0.022983065
-0.024308289
-0.02564798
-0.026990715
-0.028322948
-0.029629416
-0.030892576
-0.032093307
-0.033210251
-0.034220882
-0.035100767
-0.035825037
-0.036367577
-0.036702904
-0.036805293
-0.036650983
-0.036217267
-0.035484882
-0.034437048
-0.03306182
-0.031351159
-0.029303903
-0.026923948
-0.024219002
-0.021204492
-0.017898987
-0.014328695
-0.010521301
-0.0065113627
-0.0023325895
0.0019758512
0.0063780022
0.010834301
0.015310217
0.019769538
0.024182072
0.028517583
0.032752005
0.036862371
0.040831399
0.044643508
0.048287946
0.051755833
0.055042119
0.058143487
0.06105946
0.063790948
0.066340768
0.068712684
0.070911502
0.072942578
0.074811537
0.076524383
0.078086609
0.079504419
0.080782319
0.081926941
0.082940563
0.083831638
0.084597459
0.085252424
0.085781801
0.086217169
0.086513218
0.086748756
0.086800413
-0.00018090627
-6.0061799e-06
-0.00019034734
-0.00013605166
-0.00024266881
-0.00024390136
-0.00031795302
-0.00034632448
-0.00040858682
-0.00045212281
-0.00051257083
-0.00056669093
-0.00063057126
-0.00069408637
-0.00076464457
-0.0008379943
-0.00091771332
-0.0010022046
-0.0010933827
-0.0011908783
-0.0012959158
-0.0014087267
-0.001530287
-0.0016611594
-0.0018022779
-0.0019544266
-0.0021185993
-0.0022957645
-0.0024870301
-0.0026935473
-0.0029165671
-0.0031574386
-0.0034175818
-0.0036985443
-0.0040019468
-0.0043295392
-0.0046831524
-0.0050647423
-0.0054763474
-0.0059201154
-0.0063982756
-0.0069131259
-0.0074670389
-0.0080624024
-0.0087016296
-0.0093870917
-0.010121097
-0.010905822
-0.011743256
-0.012635125
-0.013582796
-0.014587196
-0.015648665
-0.016766877
-0.017940631
-0.01916779
-0.020444998
-0.021767664
-0.023129595
-0.024523071
-0.02593837
-0.027364021
-0.02878619
-0.030189209
-0.031554805
-0.032863004
-0.034091204
-0.035215528
-0.036209756
-0.037047189
-0.037699439
-0.038138817
-0.038337001
-0.038267853
-0.03790602
-0.037229998
-0.036220665
-0.034864384
-0.033151432
-0.031079893
-0.028653637
-0.025880315
-0.022776608
-0.019362211
-0.015665906
-0.011717454
-0.0075550038
-0.0032148784
0.0012597155
0.0058301689
0.01045308
0.015091672
0.019706617
0.024266169
0.028737975
0.033097202
0.037319787
0.041388394
0.045287204
0.049005956
0.052536145
0.055873551
0.059015603
0.061962823
0.064717036
0.067282098
0.069662729
0.071864729
0.07389436
0.075758144
0.077462884
0.079014839
0.080420874
0.081686124
0.082817723
0.083818473
0.084697142
0.085451516
0.086096052
0.08661663
0.087044433
0.087335244
0.087566481
0.087617204
-0.000171058
-5.5481802e-06
-0.00017979489
-0.00012837311
-0.00022912346
-0.00023023705
-0.0003002159
-0.00032702346
-0.00038589242
-0.00042708363
-0.00048429193
-0.00053555468
-0.00059608553
-0.00065632168
-0.00072327404
-0.00079293483
-0.00086869744
-0.00094906675
-0.0010358683
-0.0011287722
-0.0012289574
-0.001336668
-0.0014528559
-0.0015780864
-0.0017132813
-0.0018592262
-0.0020169118
-0.0021873124
-0.0023715425
-0.0025707675
-0.0027862573
-0.0030193876
-0.003271614
-0.0035445287
-0.0038398089
-0.0041592736
-0.004504838
-0.0048785588
-0.0052825939
-0.0057192317
-0.0061908648
-0.006699981
-0.0072491691
-0.0078410638
-0.0084783566
-0.0091637306
-0.009899839
-0.010689242
-0.011534339
-0.012437309
-0.013399993
-0.014423824
-0.01550966
-0.016657712
-0.017867304
-0.01913682
-0.020463378
-0.02184283
-0.02326932
-0.024735404
-0.026231452
-0.027745996
-0.029264929
-0.030772193
-0.032248756
-0.033673764
-0.035023269
-0.036271964
-0.03739166
-0.038353689
-0.039127129
-0.039681883
-0.039986715
-0.040012861
-0.039731972
-0.039120047
-0.038155273
-0.036822104
-0.035108838
-0.033012686
-0.030537372
-0.027690333
-0.024489623
-0.020956072
-0.017121421
-0.013017662
-0.0086871504
-0.004169054
0.00048866476
0.0052445163
0.010050593
0.014867713
0.019652924
0.024372873
0.028992785
0.033487104
0.03783055
0.042005855
0.045996976
0.049794302
0.053389793
0.056780236
0.059963922
0.062942533
0.065718937
0.068298164
0.070686005
0.072889363
0.074915503