/*--------------------------------*- C++ -*----------------------------------*\
| =========                 |                                                 |
| \\      /  F ield         | foam-extend: Open Source CFD                    |
|  \\    /   O peration     | Version:     4.1                                |
|   \\  /    A nd           | Web:         http://www.foam-extend.org         |
|    \\/     M anipulation  |                                                 |
\*---------------------------------------------------------------------------*/
FoamFile
{
    version     2.0;
    format      ascii;
    class       volScalarField;
    location    "0.4";
    object      rAU;
}
// * * * * * * * * * * * * * * * * * * * * * * * * * * * * * * * * * * * * * //

dimensions      [0 0 1 0 0 0 0];

internalField   nonuniform List<scalar> 
16796
(
0.00048792397
0.00048751656
0.00048751538
0.00048751421
0.00048751287
0.00048751152
0.00048750999
0.00048750844
0.00048750668
0.00048750489
0.00048750287
0.0004875008
0.00048749849
0.0004874961
0.00048749345
0.00048749069
0.00048748764
0.00048748447
0.00048748097
0.00048747732
0.00048747331
0.00048746912
0.00048746454
0.00048745973
0.00048745449
0.00048744899
0.00048744303
0.00048743675
0.00048742997
0.00048742283
0.00048741515
0.00048740701
0.00048739842
0.0004873892
0.00048737951
0.00048736916
0.00048735829
0.00048734672
0.00048733459
0.00048732171
0.00048730825
0.00048729402
0.00048727912
0.00048726351
0.00048724719
0.00048723014
0.00048721238
0.00048719392
0.00048717476
0.00048715492
0.00048713443
0.00048711333
0.00048709164
0.00048706943
0.00048704674
0.00048702363
0.00048700019
0.0004869765
0.00048695264
0.00048692874
0.0004869049
0.00048688124
0.0004868579
0.00048683504
0.00048681279
0.00048679132
0.00048677081
0.00048675139
0.00048673326
0.00048671657
0.00048670147
0.00048668813
0.00048667669
0.00048666727
0.00048666
0.00048665498
0.00048665228
0.00048665198
0.00048665199
0.00048665413
0.00048665874
0.00048666582
0.00048667534
0.00048668725
0.0004867015
0.00048671801
0.00048673667
0.00048675736
0.00048677997
0.00048680433
0.00048683033
0.00048685778
0.00048688654
0.00048691644
0.00048694732
0.000486979
0.0004870113
0.00048704404
0.00048707701
0.00048711
0.00048714276
0.00048717504
0.00048720658
0.00048723711
0.00048726638
0.00048729416
0.00048732028
0.00048734461
0.0004873671
0.00048738777
0.00048740667
0.00048742389
0.00048743955
0.00048745376
0.00048746662
0.00048747821
0.00048748858
0.00048749776
0.00048750578
0.00048751265
0.00048751837
0.00048752295
0.00048752637
0.0004871229
0.00048761815
0.00048721118
0.00048720994
0.00048720869
0.00048720727
0.00048720584
0.00048720421
0.00048720256
0.00048720069
0.00048719878
0.00048719664
0.00048719443
0.00048719198
0.00048718943
0.00048718661
0.00048718367
0.00048718043
0.00048717705
0.00048717334
0.00048716945
0.0004871652
0.00048716074
0.00048715587
0.00048715076
0.00048714521
0.00048713937
0.00048713305
0.0004871264
0.00048711922
0.00048711166
0.00048710353
0.00048709494
0.00048708585
0.00048707613
0.00048706591
0.000487055
0.00048704356
0.00048703139
0.00048701865
0.00048700514
0.00048699103
0.00048697613
0.00048696056
0.00048694427
0.00048692725
0.00048690951
0.00048689105
0.0004868719
0.00048685206
0.00048683157
0.00048681044
0.00048678872
0.00048676646
0.00048674372
0.00048672055
0.00048669703
0.00048667324
0.00048664928
0.00048662524
0.00048660126
0.00048657745
0.00048655395
0.00048653091
0.00048650847
0.00048648681
0.00048646608
0.00048644646
0.00048642811
0.00048641121
0.0004863959
0.00048638236
0.00048637072
0.00048636113
0.0004863537
0.00048634853
0.00048634572
0.00048634533
0.0004863474
0.00048634556
0.00048634523
0.00048634737
0.000486352
0.00048635912
0.00048636872
0.00048638074
0.00048639511
0.00048641176
0.00048643058
0.00048645144
0.00048647422
0.00048649878
0.00048652496
0.00048655261
0.00048658156
0.00048661166
0.00048664273
0.00048667461
0.00048670712
0.00048674008
0.00048677328
0.00048680651
0.00048683952
0.00048687205
0.00048690382
0.00048693455
0.00048696398
0.00048699186
0.000487018
0.0004870423
0.00048706472
0.00048708527
0.00048710403
0.00048712112
0.00048713667
0.00048715078
0.00048716357
0.00048717511
0.00048718544
0.0004871946
0.00048720261
0.00048720946
0.00048721518
0.00048721974
0.00048681794
0.00048761723
0.00048721019
0.00048720889
0.00048720756
0.00048720607
0.00048720455
0.00048720283
0.00048720107
0.0004871991
0.00048719707
0.00048719481
0.00048719247
0.00048718987
0.00048718717
0.00048718418
0.00048718107
0.00048717764
0.00048717406
0.00048717013
0.00048716601
0.00048716151
0.00048715679
0.00048715165
0.00048714624
0.00048714037
0.0004871342
0.00048712753
0.0004871205
0.00048711292
0.00048710495
0.00048709638
0.00048708733
0.00048707776
0.00048706752
0.00048705678
0.00048704532
0.0004870333
0.00048702053
0.00048700717
0.00048699302
0.00048697825
0.00048696268
0.00048694643
0.00048692943
0.0004869117
0.00048689324
0.00048687406
0.00048685419
0.00048683364
0.00048681244
0.00048679063
0.00048676825
0.00048674536
0.00048672203
0.00048669831
0.0004866743
0.00048665009
0.00048662578
0.00048660149
0.00048657735
0.00048655348
0.00048653005
0.0004865072
0.0004864851
0.00048646392
0.00048644382
0.00048642501
0.00048640763
0.00048639186
0.00048637786
0.00048636578
0.00048635577
0.00048634796
0.00048634245
0.00048633934
0.00048633871
0.00048634059
0.00048634502
0.00048634136
0.00048633854
0.0004863382
0.0004863404
0.00048634515
0.00048635245
0.00048636228
0.00048637458
0.00048638929
0.0004864063
0.00048642552
0.0004864468
0.00048647003
0.00048649503
0.00048652167
0.00048654978
0.00048657919
0.00048660976
0.00048664131
0.0004866737
0.00048670673
0.00048674024
0.00048677401
0.00048680783
0.00048684141
0.00048687449
0.00048690674
0.00048693785
0.00048696753
0.00048699554
0.00048702168
0.00048704588
0.00048706811
0.00048708843
0.00048710698
0.00048712387
0.00048713925
0.00048715326
0.00048716597
0.00048717746
0.00048718777
0.00048719692
0.00048720491
0.00048721177
0.00048721748
0.00048681683
0.00048761633
0.00048720923
0.00048720787
0.00048720647
0.00048720491
0.0004872033
0.0004872015
0.00048719964
0.00048719757
0.00048719543
0.00048719305
0.00048719058
0.00048718784
0.00048718499
0.00048718185
0.00048717857
0.00048717496
0.00048717118
0.00048716704
0.0004871627
0.00048715797
0.00048715299
0.00048714758
0.00048714189
0.00048713572
0.00048712922
0.0004871222
0.00048711482
0.00048710686
0.00048709848
0.00048708948
0.00048707998
0.00048706994
0.0004870592
0.00048704794
0.00048703593
0.00048702335
0.00048700999
0.00048699602
0.00048698124
0.00048696582
0.00048694958
0.00048693264
0.00048691494
0.00048689649
0.00048687731
0.0004868574
0.0004868368
0.00048681552
0.0004867936
0.00048677109
0.00048674803
0.00048672448
0.00048670052
0.00048667622
0.00048665168
0.000486627
0.00048660229
0.00048657768
0.00048655332
0.00048652934
0.0004865059
0.00048648318
0.00048646134
0.00048644057
0.00048642104
0.00048640295
0.00048638647
0.00048637176
0.00048635899
0.00048634832
0.00048633988
0.0004863338
0.00048633017
0.00048632909
0.0004863306
0.00048633474
0.00048634153
0.00048633613
0.00048633077
0.00048632794
0.00048632769
0.00048633007
0.00048633509
0.00048634275
0.00048635301
0.00048636581
0.00048638107
0.00048639869
0.00048641854
0.0004864405
0.0004864644
0.00048649009
0.00048651743
0.00048654623
0.00048657636
0.00048660765
0.00048663996
0.00048667313
0.00048670699
0.00048674135
0.000486776
0.00048681067
0.00048684508
0.00048687887
0.00048691169
0.00048694319
0.00048697306
0.00048700106
0.00048702704
0.00048705096
0.00048707286
0.00048709285
0.0004871111
0.00048712775
0.00048714297
0.00048715686
0.0004871695
0.00048718095
0.00048719124
0.00048720037
0.00048720837
0.00048721523
0.00048681572
0.00048761548
0.00048720831
0.0004872069
0.00048720543
0.00048720379
0.00048720211
0.00048720022
0.00048719828
0.00048719611
0.00048719386
0.00048719137
0.00048718878
0.00048718591
0.00048718292
0.00048717962
0.00048717618
0.00048717239
0.00048716843
0.00048716409
0.00048715954
0.00048715457
0.00048714936
0.00048714368
0.00048713772
0.00048713125
0.00048712444
0.00048711709
0.00048710935
0.00048710102
0.00048709225
0.00048708284
0.00048707289
0.00048706239
0.00048705118
0.0004870394
0.00048702686
0.00048701373
0.00048699979
0.00048698521
0.00048696981
0.00048695374
0.00048693683
0.0004869192
0.0004869008
0.00048688163
0.00048686172
0.00048684108
0.00048681973
0.00048679771
0.00048677505
0.00048675181
0.00048672803
0.00048670379
0.00048667917
0.00048665425
0.00048662913
0.00048660393
0.00048657877
0.00048655378
0.00048652913
0.00048650496
0.00048648145
0.00048645878
0.00048643713
0.00048641669
0.00048639765
0.00048638021
0.00048636454
0.00048635082
0.00048633922
0.00048632989
0.00048632296
0.00048631856
0.00048631678
0.00048631769
0.00048632133
0.00048632773
0.00048633687
0.00048632983
0.00048632191
0.00048631655
0.00048631383
0.00048631383
0.00048631657
0.00048632208
0.00048633032
0.00048634126
0.00048635481
0.00048637089
0.00048638937
0.00048641012
0.00048643299
0.00048645782
0.00048648445
0.00048651272
0.00048654248
0.00048657358
0.00048660589
0.00048663924
0.00048667351
0.00048670851
0.00048674404
0.00048677984
0.00048681561
0.00048685096
0.00048688551
0.00048691885
0.0004869506
0.00048698046
0.00048700824
0.00048703384
0.00048705731
0.00048707877
0.00048709836
0.00048711629
0.00048713272
0.00048714778
0.00048716157
0.00048717416
0.00048718558
0.00048719585
0.00048720498
0.00048721298
0.00048681461
0.00048761466
0.00048720744
0.00048720597
0.00048720444
0.00048720274
0.00048720097
0.00048719901
0.00048719698
0.00048719471
0.00048719237
0.00048718976
0.00048718706
0.00048718406
0.00048718094
0.0004871775
0.0004871739
0.00048716995
0.0004871658
0.00048716128
0.00048715652
0.00048715134
0.00048714588
0.00048713996
0.00048713373
0.00048712698
0.00048711987
0.0004871122
0.00048710412
0.00048709543
0.00048708627
0.00048707646
0.00048706609
0.00048705513
0.00048704344
0.00048703117
0.00048701811
0.00048700443
0.00048698992
0.00048697474
0.00048695872
0.000486942
0.00048692443
0.00048690611
0.00048688701
0.00048686712
0.00048684647
0.00048682508
0.00048680298
0.00048678019
0.00048675677
0.00048673277
0.00048670825
0.00048668328
0.00048665795
0.00048663236
0.00048660662
0.00048658084
0.00048655517
0.00048652974
0.00048650474
0.00048648031
0.00048645665
0.00048643395
0.0004864124
0.00048639221
0.00048637357
0.0004863567
0.00048634177
0.00048632897
0.00048631846
0.00048631041
0.00048630494
0.00048630218
0.0004863022
0.00048630508
0.00048631085
0.0004863195
0.00048633102
0.00048632247
0.00048631193
0.000486304
0.00048629879
0.00048629639
0.00048629686
0.00048630021
0.00048630646
0.00048631557
0.00048632746
0.00048634205
0.00048635921
0.00048637883
0.00048640074
0.00048642478
0.00048645079
0.0004864786
0.00048650808
0.00048653906
0.00048657143
0.00048660505
0.00048663978
0.00048667548
0.00048671193
0.0004867489
0.00048678605
0.000486823
0.0004868593
0.00048689449
0.00048692813
0.00048695986
0.00048698945
0.00048701675
0.0004870418
0.00048706472
0.00048708567
0.00048710486
0.0004871225
0.00048713873
0.00048715367
0.00048716739
0.00048717994
0.00048719134
0.00048720161
0.00048721074
0.00048681351
0.00048761389
0.00048720661
0.0004872051
0.0004872035
0.00048720173
0.0004871999
0.00048719786
0.00048719575
0.0004871934
0.00048719096
0.00048718825
0.00048718543
0.00048718232
0.00048717906
0.00048717549
0.00048717174
0.00048716763
0.00048716332
0.0004871586
0.00048715365
0.00048714826
0.00048714258
0.00048713642
0.00048712993
0.00048712291
0.00048711551
0.00048710753
0.00048709912
0.00048709008
0.00048708056
0.00048707035
0.00048705956
0.00048704817
0.00048703602
0.00048702326
0.00048700969
0.00048699546
0.00048698039
0.00048696463
0.00048694799
0.00048693064
0.0004869124
0.00048689339
0.00048687358
0.00048685296
0.00048683157
0.00048680941
0.00048678653
0.00048676297
0.00048673876
0.00048671397
0.00048668867
0.00048666293
0.00048663687
0.00048661056
0.00048658413
0.00048655772
0.00048653147
0.00048650553
0.00048648009
0.00048645533
0.00048643144
0.00048640862
0.00048638709
0.00048636706
0.00048634874
0.00048633235
0.00048631808
0.00048630611
0.00048629664
0.0004862898
0.00048628573
0.00048628457
0.00048628637
0.0004862912
0.00048629908
0.00048631
0.00048632392
0.00048631403
0.00048630082
0.00048629027
0.00048628252
0.0004862777
0.00048627587
0.00048627708
0.00048628135
0.00048628865
0.00048629892
0.00048631208
0.00048632799
0.00048634655
0.00048636757
0.00048639091
0.00048641638
0.00048644383
0.0004864731
0.00048650405
0.00048653657
0.00048657052
0.00048660579
0.00048664223
0.00048667967
0.00048671784
0.00048675643
0.000486795
0.00048683307
0.00048687013
0.00048690568
0.0004869393
0.00048697069
0.00048699971
0.00048702634
0.00048705071
0.00048707302
0.00048709349
0.00048711234
0.00048712973
0.00048714581
0.00048716066
0.00048717433
0.00048718685
0.00048719825
0.0004872085
0.00048681242
0.00048761315
0.00048720582
0.00048720427
0.00048720261
0.00048720079
0.00048719889
0.00048719678
0.00048719459
0.00048719215
0.00048718962
0.00048718682
0.0004871839
0.00048718067
0.0004871773
0.00048717359
0.0004871697
0.00048716544
0.00048716096
0.00048715608
0.00048715094
0.00048714535
0.00048713946
0.00048713307
0.00048712634
0.00048711905
0.00048711138
0.0004871031
0.00048709437
0.000487085
0.00048707512
0.00048706453
0.00048705334
0.00048704152
0.00048702891
0.00048701568
0.0004870016
0.00048698685
0.00048697122
0.00048695487
0.00048693762
0.00048691963
0.00048690073
0.00048688104
0.00048686051
0.00048683916
0.00048681701
0.00048679407
0.00048677041
0.00048674603
0.00048672101
0.00048669541
0.00048666929
0.00048664274
0.00048661588
0.0004865888
0.00048656163
0.00048653452
0.00048650762
0.0004864811
0.00048645516
0.00048642997
0.00048640576
0.00048638274
0.00048636114
0.00048634118
0.00048632308
0.00048630708
0.00048629338
0.00048628218
0.00048627365
0.00048626797
0.00048626526
0.00048626565
0.0004862692
0.00048627597
0.00048628597
0.00048629918
0.00048631553
0.00048630451
0.00048628854
0.00048627531
0.00048626498
0.00048625769
0.00048625355
0.00048625262
0.00048625492
0.00048626044
0.00048626913
0.0004862809
0.00048629563
0.0004863132
0.00048633343
0.00048635614
0.00048638117
0.00048640835
0.00048643751
0.00048646852
0.00048650126
0.00048653562
0.0004865715
0.00048660876
0.00048664723
0.00048668666
0.00048672672
0.00048676694
0.00048680681
0.00048684577
0.00048688324
0.00048691875
0.00048695197
0.0004869827
0.00048701092
0.00048703676
0.00048706043
0.00048708216
0.00048710222
0.00048712078
0.00048713799
0.00048715397
0.00048716876
0.00048718239
0.0004871949
0.00048720628
0.00048681133
0.00048761247
0.00048720509
0.00048720349
0.00048720177
0.0004871999
0.00048719794
0.00048719576
0.0004871935
0.00048719099
0.00048718837
0.00048718548
0.00048718246
0.00048717913
0.00048717564
0.00048717181
0.00048716779
0.00048716338
0.00048715876
0.00048715371
0.00048714839
0.00048714261
0.00048713652
0.00048712991
0.00048712295
0.00048711542
0.00048710747
0.00048709891
0.00048708988
0.00048708018
0.00048706995
0.000487059
0.00048704742
0.00048703518
0.00048702214
0.00048700844
0.00048699387
0.0004869786
0.00048696242
0.0004869455
0.00048692764
0.00048690902
0.00048688946
0.00048686907
0.00048684782
0.00048682573
0.00048680281
0.00048677908
0.0004867546
0.0004867294
0.00048670354
0.00048667708
0.00048665011
0.00048662271
0.000486595
0.00048656709
0.00048653912
0.00048651124
0.00048648362
0.00048645643
0.00048642989
0.0004864042
0.00048637957
0.00048635625
0.00048633448
0.00048631449
0.00048629652
0.00048628082
0.0004862676
0.00048625707
0.00048624943
0.00048624484
0.00048624343
0.00048624533
0.00048625062
0.00048625932
0.00048627145
0.00048628696
0.00048630578
0.00048629387
0.00048627506
0.00048625907
0.0004862461
0.00048623631
0.00048622983
0.00048622673
0.00048622707
0.00048623083
0.00048623798
0.00048624843
0.00048626205
0.0004862787
0.00048629822
0.00048632041
0.0004863451
0.0004863721
0.00048640125
0.00048643241
0.00048646548
0.00048650034
0.0004865369
0.00048657505
0.00048661462
0.00048665536
0.00048669693
0.00048673885
0.00048678055
0.00048682142
0.00048686083
0.00048689825
0.0004869333
0.00048696575
0.00048699556
0.00048702287
0.0004870479
0.0004870709
0.00048709216
0.00048711188
0.00048713023
0.00048714732
0.00048716322
0.00048717796
0.00048719158
0.00048720408
0.00048681024
0.00048761182
0.0004872044
0.00048720276
0.000487201
0.00048719907
0.00048719705
0.00048719482
0.00048719249
0.00048718991
0.00048718721
0.00048718424
0.00048718112
0.00048717769
0.0004871741
0.00048717015
0.00048716601
0.00048716147
0.0004871567
0.0004871515
0.00048714602
0.00048714006
0.00048713377
0.00048712696
0.00048711977
0.000487112
0.00048710381
0.00048709497
0.00048708565
0.00048707564
0.00048706508
0.00048705377
0.00048704181
0.00048702918
0.00048701571
0.00048700155
0.0004869865
0.00048697072
0.000486954
0.00048693651
0.00048691805
0.0004868988
0.00048687858
0.0004868575
0.00048683553
0.00048681268
0.00048678898
0.00048676444
0.00048673913
0.00048671308
0.00048668634
0.000486659
0.00048663113
0.00048660282
0.00048657421
0.00048654542
0.00048651657
0.00048648785
0.00048645943
0.00048643149
0.00048640426
0.00048637796
0.00048635282
0.0004863291
0.00048630705
0.00048628692
0.00048626898
0.00048625348
0.00048624065
0.00048623071
0.00048622387
0.0004862203
0.00048622015
0.00048622353
0.00048623052
0.00048624116
0.00048625543
0.00048627328
0.00048629462
0.0004862821
0.00048626035
0.00048624152
0.00048622584
0.00048621349
0.00048620463
0.00048619936
0.00048619773
0.00048619976
0.0004862054
0.00048621458
0.00048622715
0.00048624298
0.00048626188
0.00048628366
0.0004863081
0.00048633504
0.00048636429
0.00048639572
0.00048642921
0.00048646466
0.000486502
0.00048654111
0.00048658185
0.00048662395
0.00048666708
0.00048671072
0.00048675428
0.00048679709
0.00048683846
0.00048687781
0.0004869147
0.00048694887
0.00048698028
0.00048700906
0.00048703544
0.00048705972
0.00048708218
0.00048710305
0.00048712252
0.00048714072
0.00048715772
0.00048717356
0.00048718828
0.00048720188
0.00048680916
0.00048761123
0.00048720377
0.00048720209
0.00048720028
0.00048719831
0.00048719624
0.00048719395
0.00048719156
0.00048718891
0.00048718615
0.00048718309
0.00048717989
0.00048717637
0.00048717268
0.00048716862
0.00048716437
0.00048715971
0.0004871548
0.00048714945
0.00048714382
0.00048713769
0.00048713122
0.00048712422
0.00048711682
0.00048710883
0.00048710039
0.0004870913
0.0004870817
0.00048707139
0.00048706051
0.00048704886
0.00048703654
0.00048702352
0.00048700963
0.00048699503
0.00048697951
0.00048696323
0.00048694598
0.00048692793
0.00048690888
0.00048688899
0.00048686811
0.00048684634
0.00048682364
0.00048680003
0.00048677553
0.00048675018
0.00048672401
0.00048669707
0.00048666943
0.00048664116
0.00048661234
0.00048658309
0.00048655352
0.00048652377
0.00048649398
0.00048646434
0.00048643503
0.00048640624
0.00048637823
0.00048635122
0.00048632546
0.00048630123
0.00048627879
0.00048625842
0.00048624039
0.00048622499
0.00048621245
0.00048620301
0.00048619689
0.00048619428
0.00048619532
0.00048620015
0.00048620882
0.00048622139
0.00048623782
0.00048625806
0.00048628198
0.00048626918
0.00048624437
0.0004862226
0.00048620411
0.00048618914
0.00048617785
0.00048617038
0.00048616679
0.0004861671
0.00048617128
0.00048617924
0.00048619085
0.00048620594
0.00048622433
0.00048624579
0.00048627012
0.00048629711
0.00048632658
0.00048635838
0.00048639241
0.00048642856
0.00048646677
0.00048650693
0.0004865489
0.00048659244
0.00048663718
0.00048668259
0.00048672804
0.0004867728
0.00048681615
0.00048685743
0.00048689617
0.00048693208
0.00048696509
0.00048699534
0.00048702308
0.00048704862
0.00048707227
0.00048709429
0.00048711488
0.00048713418
0.00048715227
0.0004871692
0.00048718501
0.00048719971
0.00048680809
0.00048761069
0.00048720318
0.00048720148
0.00048719963
0.00048719762
0.0004871955
0.00048719316
0.00048719071
0.000487188
0.00048718517
0.00048718205
0.00048717877
0.00048717517
0.00048717138
0.00048716723
0.00048716286
0.00048715809
0.00048715306
0.00048714758
0.0004871418
0.00048713551
0.00048712888
0.00048712169
0.0004871141
0.0004871059
0.00048709723
0.00048708789
0.00048707803
0.00048706744
0.00048705626
0.00048704428
0.00048703161
0.00048701821
0.00048700392
0.00048698889
0.00048697291
0.00048695614
0.00048693837
0.00048691976
0.00048690012
0.00048687962
0.00048685807
0.00048683561
0.00048681217
0.00048678779
0.00048676249
0.00048673629
0.00048670924
0.0004866814
0.00048665281
0.00048662357
0.00048659377
0.00048656351
0.00048653292
0.00048650214
0.00048647134
0.00048644069
0.0004864104
0.00048638067
0.00048635177
0.00048632393
0.00048629744
0.00048627258
0.00048624963
0.0004862289
0.00048621067
0.00048619525
0.00048618289
0.00048617385
0.00048616837
0.00048616664
0.00048616883
0.00048617507
0.00048618542
0.00048619992
0.00048621854
0.00048624121
0.00048626778
0.00048625507
0.00048622708
0.00048620224
0.00048618086
0.00048616318
0.00048614942
0.00048613971
0.00048613415
0.00048613276
0.00048613552
0.00048614232
0.00048615304
0.0004861675
0.00048618548
0.00048620675
0.00048623109
0.00048625826
0.00048628809
0.00048632039
0.00048635507
0.00048639204
0.00048643121
0.00048647251
0.0004865158
0.00048656083
0.00048660723
0.00048665446
0.00048670183
0.00048674858
0.00048679392
0.00048683715
0.00048687775
0.00048691539
0.00048695001
0.00048698173
0.00048701083
0.00048703763
0.00048706247
0.00048708563
0.00048710733
0.00048712771
0.00048714688
0.00048716489
0.00048718178
0.00048719756
0.00048680704
0.00048761019
0.00048720266
0.00048720093
0.00048719904
0.00048719699
0.00048719483
0.00048719244
0.00048718995
0.00048718718
0.00048718429
0.0004871811
0.00048717776
0.00048717407
0.00048717021
0.00048716597
0.0004871615
0.00048715663
0.00048715148
0.00048714588
0.00048713996
0.00048713353
0.00048712674
0.00048711939
0.00048711161
0.00048710321
0.00048709433
0.00048708476
0.00048707465
0.00048706379
0.00048705232
0.00048704003
0.00048702702
0.00048701326
0.00048699859
0.00048698314
0.00048696672
0.00048694947
0.00048693119
0.00048691203
0.00048689181
0.00048687069
0.00048684848
0.00048682532
0.00048680114
0.00048677598
0.00048674986
0.0004867228
0.00048669485
0.00048666607
0.00048663651
0.00048660626
0.00048657541
0.00048654409
0.00048651242
0.00048648054
0.00048644864
0.00048641689
0.00048638552
0.00048635475
0.00048632485
0.00048629608
0.00048626873
0.0004862431
0.00048621952
0.0004861983
0.00048617974
0.00048616418
0.00048615189
0.00048614315
0.00048613822
0.0004861373
0.00048614057
0.00048614817
0.00048616018
0.00048617662
0.00048619746
0.00048622262
0.00048625193
0.00048623972
0.0004862084
0.00048618037
0.00048615598
0.00048613551
0.0004861192
0.00048610722
0.00048609967
0.0004860966
0.00048609797
0.0004861037
0.00048611361
0.00048612754
0.00048614524
0.00048616645
0.00048619093
0.00048621844
0.00048624875
0.0004862817
0.00048631717
0.00048635507
0.00048639532
0.00048643787
0.00048648256
0.00048652915
0.00048657728
0.00048662635
0.00048667568
0.00048672444
0.00048677179
0.00048681698
0.00048685944
0.00048689883
0.00048693505
0.00048696825
0.0004869987
0.00048702675
0.00048705277
0.00048707706
0.00048709986
0.00048712132
0.00048714156
0.00048716063
0.00048717858
0.00048719543
0.00048680599
0.00048760975
0.00048720218
0.00048720044
0.00048719851
0.00048719644
0.00048719423
0.00048719181
0.00048718927
0.00048718646
0.00048718351
0.00048718026
0.00048717686
0.00048717311
0.00048716917
0.00048716484
0.00048716029
0.00048715532
0.00048715007
0.00048714436
0.00048713832
0.00048713176
0.00048712482
0.00048711731
0.00048710936
0.00048710078
0.0004870917
0.00048708192
0.00048707158
0.00048706046
0.00048704872
0.00048703613
0.0004870228
0.0004870087
0.00048699365
0.0004869778
0.00048696094
0.00048694323
0.00048692445
0.00048690476
0.00048688396
0.00048686222
0.00048683936
0.00048681549
0.00048679057
0.00048676463
0.00048673767
0.00048670973
0.00048668086
0.0004866511
0.00048662053
0.00048658922
0.00048655729
0.00048652484
0.00048649201
0.00048645897
0.00048642587
0.00048639294
0.00048636039
0.00048632846
0.00048629744
0.0004862676
0.00048623926
0.00048621274
0.00048618839
0.00048616653
0.00048614751
0.00048613168
0.00048611934
0.00048611079
0.0004861063
0.00048610611
0.0004861104
0.00048611934
0.00048613299
0.00048615139
0.00048617449
0.0004862022
0.00048623434
0.00048622312
0.0004861883
0.00048615693
0.0004861294
0.00048610603
0.0004860871
0.0004860728
0.00048606326
0.00048605851
0.00048605855
0.00048606325
0.00048607246
0.00048608597
0.00048610352
0.00048612482
0.0004861496
0.00048617759
0.00048620855
0.0004862423
0.0004862787
0.00048631766
0.00048635912
0.00048640301
0.00048644919
0.00048649743
0.00048654733
0.00048659831
0.00048664963
0.00048670042
0.0004867498
0.00048679696
0.00048684129
0.00048688242
0.00048692025
0.00048695491
0.00048698671
0.00048701601
0.00048704321
0.00048706862
0.00048709249
0.00048711502
0.0004871363
0.00048715642
0.00048717542
0.00048719333
0.00048680495
0.00048760936
0.00048720177
0.0004872
0.00048719805
0.00048719595
0.00048719371
0.00048719126
0.00048718868
0.00048718582
0.00048718283
0.00048717954
0.00048717607
0.00048717226
0.00048716826
0.00048716386
0.00048715924
0.00048715418
0.00048714884
0.00048714302
0.00048713687
0.00048713019
0.00048712312
0.00048711547
0.00048710737
0.00048709862
0.00048708935
0.00048707937
0.00048706881
0.00048705746
0.00048704546
0.00048703259
0.00048701896
0.00048700453
0.00048698912
0.00048697288
0.00048695561
0.00048693744
0.00048691817
0.00048689795
0.00048687658
0.00048685423
0.00048683072
0.00048680615
0.00048678049
0.00048675374
0.00048672594
0.0004866971
0.00048666728
0.00048663652
0.00048660489
0.00048657249
0.00048653941
0.00048650577
0.00048647173
0.00048643743
0.00048640306
0.00048636884
0.000486335
0.00048630179
0.00048626953
0.00048623849
0.00048620902
0.00048618147
0.00048615619
0.00048613355
0.00048611392
0.00048609768
0.00048608515
0.00048607666
0.00048607252
0.00048607297
0.00048607822
0.00048608844
0.00048610371
0.00048612408
0.00048614949
0.00048617983
0.00048621489
0.0004862052
0.00048616669
0.00048613181
0.00048610099
0.00048607461
0.00048605297
0.0004860363
0.00048602473
0.00048601833
0.00048601707
0.00048602084
0.00048602945
0.00048604267
0.00048606021
0.00048608177
0.00048610701
0.00048613566
0.00048616744
0.00048620215
0.00048623964
0.00048627981
0.0004863226
0.00048636795
0.00048641572
0.00048646568
0.00048651743
0.00048657037
0.00048662371
0.00048667656
0.00048672798
0.00048677711
0.00048682332
0.0004868662
0.00048690563
0.00048694175
0.00048697489
0.00048700543
0.00048703379
0.0004870603
0.00048708524
0.00048710881
0.00048713113
0.00048715228
0.00048717231
0.00048719126
0.00048680393
0.00048760903
0.00048720142
0.00048719964
0.00048719766
0.00048719554
0.00048719327
0.00048719079
0.00048718817
0.00048718529
0.00048718226
0.00048717892
0.00048717541
0.00048717155
0.00048716748
0.00048716303
0.00048715833
0.0004871532
0.00048714778
0.00048714187
0.00048713562
0.00048712884
0.00048712165
0.00048711387
0.00048710563
0.00048709672
0.00048708729
0.00048707712
0.00048706636
0.00048705479
0.00048704255
0.00048702942
0.0004870155
0.00048700076
0.00048698501
0.0004869684
0.00048695072
0.00048693211
0.00048691237
0.00048689163
0.00048686971
0.00048684676
0.00048682259
0.00048679732
0.00048677091
0.00048674336
0.00048671469
0.00048668493
0.00048665414
0.00048662235
0.00048658963
0.00048655609
0.00048652181
0.00048648692
0.00048645158
0.00048641594
0.0004863802
0.00048634458
0.00048630934
0.00048627473
0.00048624108
0.0004862087
0.00048617795
0.0004861492
0.00048612284
0.00048609926
0.00048607886
0.00048606205
0.00048604919
0.00048604064
0.00048603672
0.00048603771
0.00048604384
0.00048605531
0.0004860722
0.00048609455
0.00048612232
0.00048615537
0.00048619349
0.00048618592
0.00048614351
0.00048610494
0.00048607067
0.00048604114
0.00048601669
0.00048599758
0.00048598396
0.00048597592
0.00048597342
0.00048597633
0.00048598446
0.00048599753
0.00048601523
0.00048603721
0.00048606311
0.0004860926
0.00048612539
0.00048616124
0.00048619999
0.00048624153
0.0004862858
0.00048633273
0.00048638219
0.00048643396
0.00048648762
0.00048654256
0.00048659796
0.00048665289
0.00048670637
0.00048675749
0.00048680558
0.00048685019
0.00048689122
0.0004869288
0.00048696326
0.00048699503
0.00048702453
0.00048705214
0.00048707813
0.00048710273
0.00048712606
0.00048714822
0.00048716926
0.00048718922
0.00048680293
0.00048760875
0.00048720112
0.00048719933
0.00048719733
0.00048719519
0.00048719291
0.0004871904
0.00048718776
0.00048718485
0.00048718179
0.00048717841
0.00048717486
0.00048717096
0.00048716685
0.00048716234
0.00048715758
0.00048715239
0.00048714689
0.00048714091
0.00048713458
0.0004871277
0.00048712041
0.00048711251
0.00048710415
0.0004870951
0.00048708552
0.00048707519
0.00048706424
0.00048705247
0.00048704
0.00048702663
0.00048701244
0.0004869974
0.00048698133
0.00048696437
0.0004869463
0.00048692727
0.00048690706
0.00048688582
0.00048686335
0.0004868398
0.00048681499
0.00048678903
0.00048676186
0.00048673349
0.00048670395
0.00048667326
0.00048664147
0.00048660861
0.00048657477
0.00048654003
0.0004865045
0.00048646829
0.00048643157
0.00048639451
0.0004863573
0.00048632018
0.00048628341
0.00048624727
0.00048621209
0.00048617822
0.00048614602
0.00048611591
0.00048608829
0.0004860636
0.00048604227
0.00048602472
0.00048601137
0.0004860026
0.00048599878
0.00048600021
0.00048600715
0.0004860198
0.00048603828
0.00048606264
0.00048609281
0.00048612867
0.00048616996
0.0004861652
0.00048611866
0.00048607616
0.00048603826
0.00048600543
0.00048597806
0.00048595643
0.00048594075
0.00048593108
0.00048592739
0.00048592955
0.00048593731
0.00048595041
0.00048596844
0.00048599104
0.0004860178
0.00048604835
0.00048608235
0.00048611954
0.00048615974
0.00048620282
0.00048624872
0.00048629736
0.00048634863
0.0004864023
0.00048645794
0.00048651493
0.00048657244
0.00048662947
0.00048668502
0.00048673813
0.00048678809
0.00048683444
0.00048687705
0.00048691607
0.00048695186
0.00048698483