/*--------------------------------*- C++ -*----------------------------------*\
| =========                 |                                                 |
| \\      /  F ield         | foam-extend: Open Source CFD                    |
|  \\    /   O peration     | Version:     4.1                                |
|   \\  /    A nd           | Web:         http://www.foam-extend.org         |
|    \\/     M anipulation  |                                                 |
\*---------------------------------------------------------------------------*/
FoamFile
{
    version     2.0;
    format      ascii;
    class       volVectorField;
    location    "0.4";
    object      U;
}
// * * * * * * * * * * * * * * * * * * * * * * * * * * * * * * * * * * * * * //

dimensions      [0 1 -1 0 0 0 0];

internalField   nonuniform List<vector> 
16796
(
(1.0011449 -3.3640045e-05 0)
(1.0013176 -3.6159166e-05 0)
(1.0013837 -3.844187e-05 0)
(1.0015334 -4.1259406e-05 0)
(1.0016408 -4.4077822e-05 0)
(1.0017912 -4.7274253e-05 0)
(1.0019287 -5.0621309e-05 0)
(1.0020918 -5.4296577e-05 0)
(1.0022562 -5.8208879e-05 0)
(1.0024395 -6.2448032e-05 0)
(1.0026315 -6.6984623e-05 0)
(1.0028406 -7.1870429e-05 0)
(1.0030629 -7.7104641e-05 0)
(1.0033027 -8.2723106e-05 0)
(1.0035591 -8.8738759e-05 0)
(1.0038347 -9.5181263e-05 0)
(1.0041299 -0.00010207052 0)
(1.0044467 -0.00010943417 0)
(1.0047861 -0.00011729581 0)
(1.00515 -0.00012568259 0)
(1.0055397 -0.00013462001 0)
(1.0059572 -0.00014413498 0)
(1.006404 -0.00015425358 0)
(1.0068821 -0.00016500199 0)
(1.0073934 -0.00017640557 0)
(1.0079399 -0.00018848878 0)
(1.0085237 -0.00020127478 0)
(1.0091469 -0.00021478487 0)
(1.0098116 -0.00022903823 0)
(1.0105203 -0.00024405112 0)
(1.0112751 -0.00025983666 0)
(1.0120784 -0.00027640374 0)
(1.0129326 -0.00029375684 0)
(1.0138399 -0.00031189505 0)
(1.0148029 -0.00033081115 0)
(1.0158237 -0.00035049125 0)
(1.0169047 -0.00037091345 0)
(1.018048 -0.00039204751 0)
(1.0192558 -0.00041385338 0)
(1.0205299 -0.00043628095 0)
(1.0218722 -0.00045926851 0)
(1.0232843 -0.00048274253 0)
(1.0247674 -0.00050661612 0)
(1.0263226 -0.00053078879 0)
(1.0279508 -0.0005551453 0)
(1.0296522 -0.00057955505 0)
(1.0314268 -0.00060387138 0)
(1.0332742 -0.000627931 0)
(1.0351932 -0.0006515535 0)
(1.0371824 -0.00067454092 0)
(1.0392394 -0.00069667749 0)
(1.0413615 -0.00071772943 0)
(1.043545 -0.00073744481 0)
(1.0457855 -0.0007555536 0)
(1.0480778 -0.00077176776 0)
(1.0504157 -0.00078578166 0)
(1.0527923 -0.00079727278 0)
(1.0551994 -0.00080590327 0)
(1.057628 -0.00081132244 0)
(1.0600679 -0.00081317102 0)
(1.0625078 -0.00081108709 0)
(1.0649355 -0.00080471462 0)
(1.0673375 -0.00079371364 0)
(1.0696994 -0.0007777726 0)
(1.0720061 -0.00075662074 0)
(1.0742415 -0.00073004076 0)
(1.0763891 -0.00069787909 0)
(1.0784318 -0.00066005458 0)
(1.0803527 -0.00061656347 0)
(1.0821348 -0.00056748298 0)
(1.0837615 -0.00051297157 0)
(1.0852166 -0.00045326939 0)
(1.0864851 -0.00038869623 0)
(1.0875528 -0.00031965017 0)
(1.0884069 -0.00024660358 0)
(1.0890361 -0.0001700986 0)
(1.0894308 -9.0739801e-05 0)
(1.0895833 -9.1820807e-06 0)
(1.0894882 7.3877225e-05 0)
(1.0891418 0.00015771092 0)
(1.0885432 0.00024156904 0)
(1.0876933 0.00032469802 0)
(1.0865956 0.00040636054 0)
(1.0852554 0.00048585263 0)
(1.0836805 0.00056251565 0)
(1.0818803 0.00063575292 0)
(1.0798658 0.00070503683 0)
(1.0776499 0.0007699202 0)
(1.0752462 0.00083003511 0)
(1.0726697 0.000885095 0)
(1.0699359 0.00093488134 0)
(1.0670609 0.00097923229 0)
(1.0640612 0.0010180142 0)
(1.0609538 0.0010510953 0)
(1.057756 0.0010783051 0)
(1.0544857 0.0010994022 0)
(1.0511616 0.0011140401 0)
(1.0478038 0.0011217582 0)
(1.0444337 0.0011219934 0)
(1.0410747 0.0011141376 0)
(1.037752 0.0010976328 0)
(1.0344921 0.0010721087 0)
(1.0313224 0.001037536 0)
(1.0282698 0.00099436744 0)
(1.0253589 0.00094362059 0)
(1.0226105 0.00088686941 0)
(1.0200398 0.00082611945 0)
(1.0176555 0.00076358103 0)
(1.0154596 0.0007013808 0)
(1.0134483 0.0006412815 0)
(1.0116128 0.00058447773 0)
(1.0099421 0.00053151802 0)
(1.0084242 0.00048235938 0)
(1.0070484 0.00043652523 0)
(1.0058054 0.00039330613 0)
(1.004689 0.00035194871 0)
(1.003694 0.00031178592 0)
(1.0028188 0.0002723067 0)
(1.00206 0.00023315947 0)
(1.0014206 0.00019413698 0)
(1.0008945 0.00015512348 0)
(1.0004914 0.0001160795 0)
(1.0001958 7.6971768e-05 0)
(1.0000324 3.7802797e-05 0)
(1.001142 -0.00010082648 0)
(1.0013143 -0.00010838936 0)
(1.0013802 -0.00011522365 0)
(1.0015296 -0.00012367561 0)
(1.0016367 -0.0001321195 0)
(1.0017867 -0.00014170379 0)
(1.0019239 -0.00015173458 0)
(1.0020866 -0.00016275258 0)
(1.0022506 -0.00017447885 0)
(1.0024335 -0.00018718641 0)
(1.002625 -0.00020078457 0)
(1.0028336 -0.00021543024 0)
(1.0030554 -0.00023111988 0)
(1.0032946 -0.00024796171 0)
(1.0035504 -0.00026599401 0)
(1.0038254 -0.00028530605 0)
(1.0041199 -0.00030595731 0)
(1.004436 -0.00032803078 0)
(1.0047747 -0.00035159716 0)
(1.0051378 -0.00037673794 0)
(1.0055267 -0.00040352953 0)
(1.0059433 -0.00043205274 0)
(1.0063892 -0.00046238569 0)
(1.0068664 -0.00049460705 0)
(1.0073766 -0.00052879282 0)
(1.0079221 -0.00056501651 0)
(1.0085047 -0.00060334759 0)
(1.0091267 -0.00064385008 0)
(1.0097903 -0.00068658164 0)
(1.0104977 -0.00073159119 0)
(1.0112513 -0.00077891822 0)
(1.0120533 -0.00082858971 0)
(1.0129062 -0.00088061929 0)
(1.0138123 -0.00093500455 0)
(1.0147739 -0.00099172417 0)
(1.0157934 -0.0010507369 0)
(1.0168731 -0.0011119776 0)
(1.0180152 -0.0011753559 0)
(1.0192218 -0.0012407522 0)
(1.0204948 -0.001308017 0)
(1.0218361 -0.0013769658 0)
(1.0232472 -0.0014473786 0)
(1.0247296 -0.0015189957 0)
(1.0262843 -0.0015915164 0)
(1.027912 -0.0016645959 0)
(1.0296133 -0.0017378431 0)
(1.031388 -0.0018108191 0)
(1.0332358 -0.0018830347 0)
(1.0351555 -0.0019539496 0)
(1.0371457 -0.0020229704 0)
(1.0392042 -0.0020894505 0)
(1.041328 -0.0021526889 0)
(1.0435137 -0.0022119298 0)
(1.0457569 -0.0022663633 0)
(1.0480523 -0.0023151249 0)
(1.0503938 -0.0023572974 0)
(1.0527743 -0.0023919128 0)
(1.0551858 -0.0024179574 0)
(1.0576192 -0.0024343789 0)
(1.0600642 -0.0024400995 0)
(1.0625097 -0.0024340337 0)
(1.0649432 -0.0024151136 0)
(1.0673514 -0.0023823188 0)
(1.0697198 -0.0023347134 0)
(1.0720332 -0.0022714819 0)
(1.0742754 -0.0021919679 0)
(1.07643 -0.0020957035 0)
(1.0784798 -0.0019824364 0)
(1.0804078 -0.0018521449 0)
(1.0821969 -0.0017050493 0)
(1.0838304 -0.001541614 0)
(1.0852922 -0.0013625491 0)
(1.0865669 -0.0011688057 0)
(1.0876403 -0.00096157197 0)
(1.0884995 -0.00074226262 0)
(1.0891331 -0.00051250647 0)
(1.0895314 -0.00027412609 0)
(1.0896867 -2.9107654e-05 0)
(1.0895933 0.00022041975 0)
(1.0892478 0.00047223729 0)
(1.088649 0.00072408915 0)
(1.087798 0.00097371456 0)
(1.0866981 0.0012188985 0)
(1.085355 0.0014575267 0)
(1.0837763 0.0016876215 0)
(1.0819715 0.0019073925 0)
(1.0799519 0.0021152575 0)
(1.0777303 0.0023098769 0)
(1.0753205 0.0024901494 0)
(1.0727377 0.0026552192 0)
(1.0699974 0.0028044348 0)
(1.0671159 0.0029373155 0)
(1.0641098 0.0030534659 0)
(1.0609963 0.0031524968 0)
(1.0577927 0.0032339043 0)
(1.0545169 0.0032969725 0)
(1.0511879 0.0033406725 0)
(1.0478256 0.0033636342 0)
(1.0444516 0.0033641816 0)
(1.0410893 0.0033405041 0)
(1.0377636 0.0032909391 0)
(1.0345012 0.0032143845 0)
(1.0313295 0.0031107537 0)
(1.0282752 0.0029813985 0)
(1.0253628 0.0028293572 0)
(1.0226131 0.0026593307 0)
(1.0200413 0.0024773122 0)
(1.017656 0.002289911 0)
(1.0154594 0.0021034913 0)
(1.0134474 0.001923334 0)
(1.0116114 0.0017530235 0)
(1.0099404 0.0015942122 0)
(1.0084223 0.0014467808 0)
(1.0070465 0.0013093092 0)
(1.0058036 0.0011796771 0)
(1.0046874 0.0010556296 0)
(1.0036925 0.00093516776 0)
(1.0028176 0.00081675923 0)
(1.0020591 0.00069934784 0)
(1.0014199 0.00058231139 0)
(1.0008941 0.00046529939 0)
(1.0004911 0.0003481944 0)
(1.0001957 0.00023089137 0)
(1.0000324 0.00011340218 0)
(1.0011362 -0.00016776596 0)
(1.0013077 -0.00018035819 0)
(1.0013733 -0.00019172503 0)
(1.001522 -0.00020579426 0)
(1.0016286 -0.00021984292 0)
(1.0017778 -0.00023579476 0)
(1.0019143 -0.00025248651 0)
(1.0020763 -0.00027082384 0)
(1.0022395 -0.00029033873 0)
(1.0024215 -0.00031148824 0)
(1.0026122 -0.00033411982 0)
(1.0028198 -0.00035849588 0)
(1.0030405 -0.00038460988 0)
(1.0032787 -0.00041264263 0)
(1.0035333 -0.00044265769 0)
(1.003807 -0.00047480411 0)
(1.0041002 -0.00050918093 0)
(1.0044149 -0.00054592672 0)
(1.0047521 -0.00058515941 0)
(1.0051137 -0.00062701508 0)
(1.0055009 -0.00067162133 0)
(1.0059158 -0.00071911317 0)
(1.0063599 -0.00076962121 0)
(1.0068351 -0.00082327704 0)
(1.0073434 -0.00088020789 0)
(1.0078867 -0.00094053696 0)
(1.0084672 -0.0010043808 0)
(1.0090869 -0.001071847 0)
(1.0097482 -0.0011430327 0)
(1.0104532 -0.0012180206 0)
(1.0112043 -0.0012968778 0)
(1.0120038 -0.0013796507 0)
(1.0128541 -0.0014663637 0)
(1.0137576 -0.0015570144 0)
(1.0147167 -0.0016515691 0)
(1.0157337 -0.0017499612 0)
(1.0168109 -0.0018520838 0)
(1.0179506 -0.0019577888 0)
(1.0191548 -0.0020668791 0)
(1.0204257 -0.0021791073 0)
(1.021765 -0.0022941682 0)
(1.0231744 -0.0024116972 0)
(1.0246553 -0.0025312631 0)
(1.0262089 -0.0026523664 0)
(1.0278359 -0.0027744333 0)
(1.0295369 -0.0028968131 0)
(1.0313119 -0.0030187739 0)
(1.0331604 -0.0031395002 0)
(1.0350815 -0.0032580897 0)
(1.0370738 -0.0033735516 0)
(1.039135 -0.0034848044 0)
(1.0412624 -0.0035906752 0)
(1.0434525 -0.0036898992 0)
(1.0457009 -0.0037811192 0)
(1.0480024 -0.0038628871 0)
(1.0503509 -0.0039336657 0)
(1.0527393 -0.003991833 0)
(1.0551595 -0.0040356913 0)
(1.0576025 -0.0040634792 0)
(1.0600579 -0.0040733946 0)
(1.0625146 -0.0040636234 0)
(1.06496 -0.0040323825 0)
(1.0673806 -0.0039779688 0)
(1.0697621 -0.0038988199 0)
(1.072089 -0.0037935736 0)
(1.0743452 -0.0036611303 0)
(1.0765139 -0.0035007034 0)
(1.0785782 -0.0033118635 0)
(1.0805205 -0.0030945647 0)
(1.0823238 -0.0028491655 0)
(1.0839711 -0.002576432 0)
(1.0854462 -0.002277544 0)
(1.0867333 -0.0019540856 0)
(1.0878182 -0.0016080406 0)
(1.0886876 -0.0012417733 0)
(1.08933 -0.00085800788 0)
(1.0897355 -0.00045979225 0)
(1.0898962 -5.0449608e-05 0)
(1.0898064 0.00036646438 0)
(1.0894626 0.00078724092 0)
(1.0888635 0.0012080962 0)
(1.0880101 0.001625239 0)
(1.0869061 0.0020349518 0)
(1.0855569 0.0024336861 0)
(1.0839705 0.0028181215 0)
(1.0821565 0.0031852527 0)
(1.0801264 0.003532424 0)
(1.0778932 0.0038573884 0)
(1.075471 0.0041583006 0)
(1.0728753 0.0044337285 0)
(1.0701217 0.0046825853 0)
(1.067227 0.0049040739 0)
(1.064208 0.0050975426 0)
(1.0610819 0.0052623548 0)
(1.0578663 0.0053976851 0)
(1.0545794 0.0055023583 0)
(1.0512401 0.0055746791 0)
(1.0478686 0.0056123851 0)
(1.0444864 0.0056127051 0)
(1.0411169 0.0055726425 0)
(1.037785 0.0054894464 0)
(1.0345174 0.0053612965 0)
(1.0313413 0.0051880603 0)
(1.0282833 0.0049719973 0)
(1.0253679 0.0047181721 0)
(1.0226157 0.0044344153 0)
(1.0200418 0.004130708 0)
(1.0176549 0.003818058 0)
(1.0154569 0.003507066 0)
(1.0134439 0.00320653 0)
(1.0116072 0.0029224246 0)
(1.0099358 0.0026575068 0)
(1.0084176 0.0024115818 0)
(1.0070419 0.0021822874 0)
(1.0057993 0.0019660917 0)
(1.0046835 0.0017592377 0)
(1.0036892 0.0015583927 0)
(1.0028149 0.0013610009 0)
(1.002057 0.0011652984 0)
(1.0014184 0.00097024586 0)
(1.0008931 0.00077525399 0)
(1.0004906 0.00058012577 0)
(1.0001955 0.00038467889 0)
(1.0000324 0.00018893434 0)
(1.0011277 -0.00023429586 0)
(1.0012979 -0.00025188298 0)
(1.001363 -0.00026775828 0)
(1.0015106 -0.00028741009 0)
(1.0016164 -0.00030703222 0)
(1.0017646 -0.00032931434 0)
(1.0019001 -0.00035262972 0)
(1.0020609 -0.00037824498 0)
(1.002223 -0.0004055055 0)
(1.0024037 -0.00043505061 0)
(1.002593 -0.0004666669 0)
(1.0027992 -0.00050072152 0)
(1.0030183 -0.00053720538 0)
(1.0032549 -0.00057637151 0)
(1.0035078 -0.00061830897 0)
(1.0037797 -0.00066322643 0)
(1.0040709 -0.00071126274 0)
(1.0043836 -0.00076261202 0)
(1.0047186 -0.00081743967 0)
(1.0050778 -0.00087593652 0)
(1.0054627 -0.00093828167 0)
(1.005875 -0.0010046647 0)
(1.0063164 -0.0010752691 0)
(1.0067888 -0.0011502799 0)
(1.0072941 -0.0012298763 0)
(1.0078344 -0.001314232 0)
(1.0084117 -0.0014035114 0)
(1.0090282 -0.0014978668 0)
(1.009686 -0.001597436 0)
(1.0103875 -0.0017023369 0)
(1.011135 -0.001812666 0)
(1.0119309 -0.0019284906 0)
(1.0127775 -0.0020498479 0)
(1.0136773 -0.0021767377 0)
(1.0146326 -0.0023091166 0)
(1.0156459 -0.0024468946 0)
(1.0167195 -0.0025899264 0)
(1.0178557 -0.0027380086 0)
(1.0190567 -0.0028908696 0)
(1.0203245 -0.0030481674 0)
(1.021661 -0.0032094789 0)
(1.0230679 -0.0033742983 0)
(1.0245467 -0.0035420257 0)
(1.0260987 -0.0037119655 0)
(1.0277247 -0.0038833178 0)
(1.0294253 -0.0040551738 0)
(1.0312006 -0.0042265108 0)
(1.0330503 -0.0043961876 0)
(1.0349734 -0.0045629404 0)
(1.0369687 -0.0047253797 0)
(1.039034 -0.0048819876 0)
(1.0411667 -0.0050311165 0)
(1.0433631 -0.0051709875 0)
(1.0456191 -0.0052996909 0)
(1.0479296 -0.0054151876 0)
(1.0502883 -0.0055153126 0)
(1.0526883 -0.0055977814 0)
(1.0551215 -0.005660203 0)
(1.0575786 -0.0057000983 0)
(1.0600496 -0.0057149321 0)
(1.0625229 -0.0057021539 0)
(1.0649861 -0.0056592575 0)
(1.0674256 -0.0055838487 0)
(1.0698268 -0.0054737286 0)
(1.0721742 -0.005326976 0)
(1.0744516 -0.0051420331 0)
(1.0766419 -0.004917776 0)
(1.078728 -0.0046535772 0)
(1.0806922 -0.0043493443 0)
(1.082517 -0.0040055519 0)
(1.0841853 -0.0036232491 0)
(1.0856804 -0.0032040703 0)
(1.0869864 -0.0027502241 0)
(1.0880885 -0.0022644892 0)
(1.0889733 -0.0017501859 0)
(1.0896289 -0.00121115 0)
(1.0900452 -0.00065167947 0)
(1.0902141 -7.6470033e-05 0)
(1.0901295 0.00050945351 0)
(1.089788 0.0011008438 0)
(1.0891881 0.0016923475 0)
(1.0883311 0.0022786056 0)
(1.0872205 0.0028543608 0)
(1.085862 0.0034145965 0)
(1.0842637 0.0039546187 0)
(1.0824356 0.0044701819 0)
(1.0803894 0.0049575361 0)
(1.0781385 0.0054135136 0)
(1.0756976 0.0058355162 0)
(1.0730822 0.006221536 0)
(1.0703086 0.0065700555 0)
(1.0673938 0.0068799736 0)
(1.0643551 0.0071503995 0)
(1.0612099 0.0073804722 0)
(1.0579763 0.0075690719 0)
(1.0546725 0.0077145959 0)
(1.0513178 0.0078147164 0)
(1.0479323 0.0078663157 0)
(1.0445377 0.0078655641 0)
(1.0411573 0.0078083146 0)
(1.0378162 0.0076907584 0)
(1.0345407 0.0075103804 0)
(1.031358 0.0072670156 0)
(1.0282945 0.0069638329 0)
(1.0253745 0.0066079128 0)
(1.0226186 0.0062101966 0)
(1.0200417 0.0057846284 0)
(1.0176524 0.0053465895 0)
(1.0154526 0.0049108962 0)
(1.0134381 0.0044898516 0)
(1.0116005 0.0040918159 0)
(1.0099286 0.0037206543 0)
(1.0084103 0.0033761048 0)
(1.0070348 0.0030548719 0)
(1.0057926 0.002752021 0)
(1.0046776 0.0024622983 0)
(1.0036841 0.0021810399 0)
(1.0028108 0.001904666 0)
(1.0020538 0.0016307027 0)
(1.0014161 0.0013576896 0)
(1.0008916 0.0010847941 0)
(1.0004897 0.00081173491 0)
(1.0001952 0.0005382474 0)
(1.0000323 0.00026435817 0)
(1.0011163 -0.0003002567 0)
(1.0012849 -0.00032279874 0)
(1.0013493 -0.00034314518 0)
(1.0014955 -0.0003683357 0)
(1.0016003 -0.0003934868 0)
(1.0017471 -0.00042205033 0)
(1.0018813 -0.00045193824 0)
(1.0020405 -0.00048477656 0)
(1.0022011 -0.0005197249 0)
(1.0023801 -0.00055760419 0)
(1.0025676 -0.00059814054 0)
(1.0027719 -0.0006418055 0)
(1.002989 -0.00068858762 0)
(1.0032234 -0.00073881209 0)
(1.003474 -0.00079259359 0)
(1.0037435 -0.00085020056 0)
(1.0040322 -0.00091181181 0)
(1.0043421 -0.00097767732 0)
(1.0046743 -0.0010480103 0)
(1.0050305 -0.0011230567 0)
(1.0054122 -0.0012030478 0)
(1.0058211 -0.0012882282 0)
(1.006259 -0.0013788353 0)
(1.0067277 -0.0014751085 0)
(1.0072292 -0.0015772798 0)
(1.0077654 -0.0016855748 0)
(1.0083386 -0.0018002074 0)
(1.0089507 -0.0019213762 0)
(1.0096041 -0.0020492617 0)
(1.010301 -0.002184019 0)
(1.0110438 -0.0023257762 0)
(1.0118349 -0.0024746246 0)
(1.0126767 -0.0026306168 0)
(1.0135716 -0.0027937582 0)
(1.0145222 -0.0029639985 0)
(1.0155307 -0.0031412286 0)
(1.0165996 -0.003325268 0)
(1.0177313 -0.0035158621 0)
(1.0189279 -0.0037126687 0)
(1.0201917 -0.0039152553 0)
(1.0215245 -0.0041230848 0)
(1.0229282 -0.0043355137 0)
(1.0244044 -0.0045517772 0)
(1.0259543 -0.0047709865 0)
(1.027579 -0.0049921181 0)
(1.0292791 -0.0052140074 0)
(1.0310548 -0.0054353416 0)
(1.0329059 -0.0056546539 0)
(1.0348317 -0.0058703179 0)
(1.0368309 -0.0060805429 0)
(1.0389015 -0.0062833705 0)
(1.0410409 -0.0064766722 0)
(1.0432457 -0.0066581477 0)
(1.0455117 -0.0068253251 0)
(1.0478338 -0.0069755633 0)
(1.050206 -0.0071060563 0)
(1.0526213 -0.0072138433 0)
(1.0550715 -0.007295825 0)
(1.0575476 -0.0073487898 0)
(1.0600391 -0.0073694539 0)
(1.0625347 -0.0073545159 0)
(1.0650217 -0.0073007317 0)
(1.0674865 -0.0072050011 0)
(1.0699143 -0.0070644737 0)
(1.0722894 -0.0068766524 0)
(1.0745954 -0.0066395036 0)
(1.076815 -0.0063515466 0)
(1.0789306 -0.0060119364 0)
(1.0809243 -0.0056205153 0)
(1.0827783 -0.0051778578 0)
(1.0844749 -0.0046852834 0)
(1.0859971 -0.0041448749 0)
(1.0873285 -0.0035594654 0)
(1.088454 -0.0029326352 0)
(1.0893595 -0.0022686748 0)
(1.0900329 -0.0015725521 0)
(1.0904636 -0.00084983983 0)
(1.0906433 -0.00010663687 0)
(1.0905657 0.00065053069 0)
(1.0902272 0.0014148407 0)
(1.0896262 0.002179323 0)
(1.0887641 0.0029370003 0)
(1.0876444 0.0036810226 0)
(1.0862731 0.0044048541 0)
(1.0846586 0.0051023788 0)
(1.0828112 0.0057680686 0)
(1.0807432 0.0063970431 0)
(1.0784684 0.0069851869 0)
(1.0760018 0.0075291309 0)
(1.0733597 0.0080262836 0)
(1.070559 0.008474698 0)
(1.067617 0.0088729811 0)
(1.0645516 0.0092200218 0)
(1.0613806 0.0095147633 0)
(1.0581225 0.0097558245 0)
(1.0547959 0.0099412146 0)
(1.0514202 0.010068016 0)
(1.0480158 0.010132301 0)
(1.0446044 0.010129225 0)
(1.0412093 0.010053533 0)
(1.0378556 0.0099003983 0)
(1.0345694 0.0096666415 0)
(1.0313778 0.009352088 0)
(1.028307 0.0089608291 0)
(1.025381 0.0085019643 0)
(1.0226203 0.0079895393 0)
(1.0200395 0.0074414496 0)
(1.0176471 0.0068774348 0)
(1.015445 0.0063165138 0)
(1.013429 0.0057744841 0)
(1.0115903 0.0052620871 0)
(1.0099179 0.0047842958 0)
(1.0083996 0.0043407843 0)
(1.0070246 0.0039273284 0)
(1.0057832 0.0035375945 0)
(1.0046692 0.0031648342 0)
(1.003677 0.0028030516 0)
(1.002805 0.0024476409 0)
(1.0020493 0.0020954135 0)
(1.0014129 0.0017444826 0)
(1.0008895 0.001393765 0)
(1.0004885 0.0010428896 0)
(1.0001947 0.00069149976 0)
(1.0000323 0.00033962376 0)
(1.0011022 -0.00036548788 0)
(1.0012687 -0.00039293104 0)
(1.0013324 -0.00041770245 0)
(1.0014767 -0.00044837359 0)
(1.0015803 -0.00047899741 0)
(1.0017253 -0.00051377845 0)
(1.0018579 -0.0005501734 0)
(1.0020152 -0.00059016342 0)
(1.0021738 -0.00063272498 0)
(1.0023508 -0.00067885867 0)
(1.0025361 -0.0007282312 0)
(1.002738 -0.0007814177 0)
(1.0029526 -0.00083840484 0)
(1.0031844 -0.00089958961 0)
(1.0034321 -0.00096511266 0)
(1.0036986 -0.0010353021 0)
(1.0039841 -0.001110377 0)
(1.0042907 -0.0011906435 0)
(1.0046193 -0.0012763628 0)
(1.0049718 -0.0013678367 0)
(1.0053495 -0.001465349 0)
(1.0057543 -0.0015692003 0)
(1.0061878 -0.0016796825 0)
(1.006652 -0.0017970905 0)
(1.0071487 -0.0019217107 0)
(1.00768 -0.0020538215 0)
(1.008248 -0.0021936883 0)
(1.0088548 -0.0023415578 0)
(1.0095027 -0.0024976554 0)
(1.010194 -0.0026621759 0)
(1.0109311 -0.0028352819 0)
(1.0117163 -0.0030170916 0)
(1.0125522 -0.0032076764 0)
(1.0134412 -0.003407051 0)
(1.0143857 -0.0036151622 0)
(1.0153884 -0.003831886 0)
(1.0164516 -0.0040570113 0)
(1.0175777 -0.004290237 0)
(1.0187691 -0.0045311553 0)
(1.0200279 -0.0047792481 0)
(1.0213562 -0.0050338697 0)
(1.022756 -0.0052942437 0)
(1.0242288 -0.0055594452 0)
(1.0257762 -0.0058283973 0)
(1.0273992 -0.0060998568 0)
(1.0290986 -0.006372407 0)
(1.0308748 -0.0066444482 0)
(1.0327277 -0.0069141899 0)
(1.0346567 -0.0071796439 0)
(1.0366606 -0.007438618 0)
(1.0387376 -0.0076887113 0)
(1.0408853 -0.0079273105 0)
(1.0431003 -0.0081515879 0)
(1.0453785 -0.0083585019 0)
(1.047715 -0.0085447988 0)
(1.0501038 -0.0087070199 0)
(1.0525379 -0.0088415133 0)
(1.0550093 -0.0089444558 0)
(1.0575087 -0.0090118849 0)
(1.060026 -0.0090397495 0)
(1.0625494 -0.0090239758 0)
(1.0650663 -0.0089605596 0)
(1.0675629 -0.0088456703 0)
(1.0700243 -0.0086757792 0)
(1.0724344 -0.0084477842 0)
(1.0747765 -0.0081591446 0)
(1.0770331 -0.0078079895 0)
(1.0791862 -0.0073932229 0)
(1.0812173 -0.0069145888 0)
(1.0831083 -0.006372732 0)
(1.0848408 -0.0057692184 0)
(1.0863973 -0.0051065626 0)
(1.0877608 -0.0043882149 0)
(1.0889157 -0.0036185617 0)
(1.0898474 -0.0028028791 0)
(1.0905432 -0.0019472955 0)
(1.0909921 -0.0010586992 0)
(1.0911853 -0.0001446453 0)
(1.0911164 0.00078677738 0)
(1.0907815 0.0017270982 0)
(1.090179 0.0026676562 0)
(1.0893101 0.0035997839 0)
(1.0881787 0.0045149667 0)
(1.0867911 0.0054050839 0)
(1.0851559 0.006262536 0)
(1.083284 0.0070804614 0)
(1.0811881 0.0078528066 0)
(1.0788827 0.0085744805 0)
(1.0763836 0.0092413243 0)
(1.0737077 0.0098501602 0)
(1.0708724 0.010398619 0)
(1.0678959 0.010885038 0)
(1.0647966 0.011308115 0)
(1.061593 0.011666641 0)
(1.058304 0.01195902 0)
(1.0549485 0.012182931 0)
(1.0515463 0.012334925 0)
(1.0481181 0.012410327 0)
(1.0446855 0.012403339 0)
(1.0412721 0.012307658 0)
(1.0379025 0.012117487 0)
(1.034603 0.011829026 0)
(1.0314003 0.011442115 0)
(1.0283204 0.010961779 0)
(1.0253871 0.010399133 0)
(1.0226205 0.0097713065 0)
(1.020035 0.0091001209 0)
(1.0176391 0.0084096442 0)
(1.0154343 0.0077230704 0)
(1.0134164 0.007059672 0)
(1.0115766 0.0064325613 0)
(1.0099038 0.0058478181 0)
(1.0083857 0.0053050576 0)
(1.0070113 0.0047991358 0)
(1.005771 0.0043223281 0)
(1.0046584 0.0038663975 0)
(1.0036678 0.0034240189 0)
(1.0027975 0.0029895593 0)
(1.0020436 0.0025591109 0)
(1.0014088 0.0021303552 0)
(1.0008868 0.0017019503 0)
(1.000487 0.0012734275 0)
(1.0001941 0.00084432866 0)
(1.0000322 0.00041467835 0)
(1.0010854 -0.00042983359 0)
(1.0012494 -0.0004621155 0)
(1.0013121 -0.0004912551 0)
(1.0014543 -0.00052733826 0)
(1.0015564 -0.00056336662 0)
(1.0016992 -0.00060428913 0)
(1.0018299 -0.00064711239 0)
(1.001985 -0.00069416905 0)
(1.0021413 -0.00074425462 0)
(1.0023157 -0.00079854771 0)
(1.0024984 -0.00085665658 0)
(1.0026975 -0.00091925923 0)
(1.0029092 -0.0009863409 0)
(1.0031377 -0.0010583702 0)
(1.0033822 -0.0011355139 0)
(1.0036451 -0.0012181601 0)
(1.0039268 -0.0013065684 0)
(1.0042294 -0.0014011013 0)
(1.0045538 -0.0015020689 0)
(1.0049018 -0.0016098291 0)
(1.0052748 -0.0017247192 0)
(1.0056746 -0.0018470968 0)
(1.006103 -0.0019773094 0)
(1.0065617 -0.0021157089 0)
(1.0070528 -0.0022626374 0)
(1.0075782 -0.0024184286 0)
(1.0081401 -0.0025834009 0)
(1.0087406 -0.002757852 0)
(1.009382 -0.0029420547 0)
(1.0100666 -0.0031362469 0)
(1.0107968 -0.0033406287 0)
(1.011575 -0.0035553493 0)
(1.0124038 -0.0037805031 0)
(1.0132857 -0.0040161182 0)
(1.0142232 -0.0042621439 0)
(1.0152189 -0.0045184459 0)
(1.0162753 -0.0047847882 0)
(1.0173947 -0.0050608288 0)
(1.0185798 -0.0053460998 0)
(1.0198327 -0.0056400038 0)
(1.0211557 -0.0059417918 0)
(1.0225507 -0.0062505606 0)
(1.0240195 -0.0065652308 0)
(1.0255638 -0.006884542 0)
(1.0271847 -0.0072070362 0)
(1.0288833 -0.0075310482 0)
(1.03066 -0.0078546941 0)
(1.0325148 -0.0081758615 0)
(1.0344475 -0.0084922006 0)
(1.0364569 -0.0088011162 0)
(1.0385414 -0.0090997612 0)
(1.0406987 -0.0093850323 0)
(1.0429257 -0.0096535666 0)
(1.0452183 -0.0099017416 0)
(1.0475718 -0.010125678 0)
(1.0499803 -0.010321249 0)
(1.0524368 -0.010484092 0)
(1.0549335 -0.010609639 0)
(1.057461 -0.010693153 0)
(1.060009 -0.010729789 0)
(1.0625659 -0.010714673 0)
(1.0651189 -0.010643011 0)
(1.067654 -0.01051021 0)
(1.070156 -0.010312029 0)
(1.0726086 -0.010044726 0)
(1.0749946 -0.0097052168 0)
(1.0772962 -0.0092912055 0)
(1.0794948 -0.0088013107 0)
(1.0815716 -0.0082351468 0)
(1.0835075 -0.0075934041 0)
(1.0852838 -0.0068778754 0)
(1.0868821 -0.0060914981 0)
(1.0882849 -0.0052383398 0)
(1.0894757 -0.0043236046 0)
(1.0904393 -0.0033535772 0)
(1.0911624 -0.0023355816 0)
(1.0916334 -0.0012778662 0)
(1.0918432 -0.00018949851 0)
(1.0917848 0.00091980631 0)
(1.0914542 0.0020398616 0)
(1.0908497 0.0031602384 0)
(1.0899725 0.004270498 0)
(1.0888267 0.0053603758 0)
(1.0874189 0.0064200854 0)
(1.0857583 0.0074404664 0)
(1.0838562 0.0084132584 0)
(1.0817261 0.009331178 0)
(1.0793833 0.010188119 0)
(1.0768443 0.010979105 0)
(1.0741269 0.011700365 0)
(1.0712494 0.012349113 0)
(1.0682308 0.012923438 0)
(1.0650902 0.013421884 0)
(1.0618468 0.013843135 0)
(1.05852 0.01418544 0)
(1.0551294 0.014446212 0)
(1.051695 0.014621542 0)
(1.0482378 0.01470608 0)
(1.0447796 0.014693149 0)
(1.0413439 0.014575466 0)
(1.0379553 0.014346324 0)
(1.0346397 0.014001352 0)
(1.0314238 0.013540442 0)
(1.028333 0.012969572 0)
(1.025391 0.01230187 0)
(1.0226175 0.011557544 0)
(1.0200267 0.010762315 0)
(1.0176267 0.0099445547 0)
(1.015419 0.0091316053 0)
(1.0133992 0.0083461948 0)
(1.0115584 0.0076037942 0)
(1.0098853 0.0069115867 0)
(1.0083676 0.0062691315 0)
(1.0069942 0.0056703708 0)
(1.0057555 0.0051061955 0)
(1.0046448 0.0045668843 0)
(1.0036563 0.004043783 0)
(1.0027881 0.0035302293 0)
(1.0020364 0.0030215902 0)
(1.0014036 0.0025151074 0)
(1.0008834 0.0020091696 0)
(1.0004851 0.001503202 0)
(1.0001933 0.00099663064 0)
(1.000032 0.00048946995 0)
(1.0010658 -0.00049313661 0)
(1.001227 -0.00053018296 0)
(1.0012886 -0.00056362411 0)
(1.0014284 -0.00060503772 0)
(1.0015287 -0.00064639036 0)
(1.001669 -0.0006933641 0)
(1.0017975 -0.00074252267 0)
(1.0019499 -0.00079654507 0)
(1.0021036 -0.00085404895 0)
(1.0022751 -0.00091638863 0)
(1.0024548 -0.00098311528 0)
(1.0026506 -0.0010550087 0)
(1.0028588 -0.0011320534 0)
(1.0030837 -0.0012147891 0)
(1.0033242 -0.0013034093 0)
(1.003583 -0.0013983618 0)
(1.0038603 -0.0014999475 0)
(1.0041583 -0.0016085853 0)
(1.0044777 -0.0017246348 0)
(1.0048206 -0.001848511 0)
(1.0051882 -0.0019806052 0)
(1.0055823 -0.0021213331 0)
(1.0060046 -0.0022710994 0)
(1.0064571 -0.0024303141 0)
(1.0069416 -0.002599377 0)
(1.0074602 -0.002778679 0)
(1.008015 -0.0029685942 0)
(1.0086082 -0.0031694737 0)
(1.009242 -0.003381641 0)
(1.0099188 -0.0036053803 0)
(1.010641 -0.0038409335 0)
(1.0114112 -0.0040884847 0)
(1.0122318 -0.004348156 0)
(1.0131055 -0.0046199943 0)
(1.0140348 -0.0049039566 0)
(1.0150223 -0.0051999044 0)
(1.0160707 -0.0055075829 0)
(1.0171825 -0.0058266159 0)
(1.0183602 -0.0061564825 0)
(1.0196062 -0.0064965124 0)
(1.0209228 -0.0068458611 0)
(1.0223122 -0.0072035056 0)
(1.0237764 -0.0075682186 0)
(1.0253169 -0.0079385635 0)
(1.0269353 -0.0083128734 0)
(1.0286327 -0.0086892405 0)
(1.0304098 -0.0090655014 0)
(1.0322668 -0.0094392256 0)
(1.0342034 -0.0098077041 0)
(1.036219 -0.010167939 0)
(1.038312 -0.010516637 0)
(1.0404804 -0.0108502 0)
(1.042721 -0.011164724 0)
(1.0450303 -0.011455997 0)
(1.0474034 -0.011719503 0)
(1.0498346 -0.011950428 0)
(1.0523171 -0.012143683 0)
(1.0548431 -0.01229393 0)
(1.0574032 -0.012395631 0)
(1.0599872 -0.012443118 0)
(1.0625834 -0.012430681 0)
(1.0651787 -0.012352696 0)
(1.067759 -0.012203767 0)
(1.0703087 -0.011978895 0)
(1.0728114 -0.011673649 0)
(1.0752494 -0.011284354 0)
(1.0776042 -0.010808235 0)
(1.0798567 -0.010243578 0)
(1.0819874 -0.0095898207 0)
(1.0839767 -0.0088476596 0)
(1.0858048 -0.0080190825 0)
(1.0874528 -0.0071074284 0)
(1.088902 -0.0061173743 0)
(1.0901354 -0.0050549497 0)
(1.0911368 -0.0039274706 0)
(1.0918922 -0.0027434979 0)
(1.0923895 -0.0015126973 0)
(1.0926188 -0.00024572295 0)
(1.0925728 0.0010459965 0)
(1.0922471 0.0023504507 0)
(1.0916401 0.0036553306 0)
(1.0907529 0.0049483162 0)
(1.0895898 0.0062172826 0)
(1.0881579 0.007450675 0)
(1.0864668 0.008637677 0)
(1.0845287 0.0097685494 0)
(1.0823579 0.010834713 0)
(1.0799704 0.011829002 0)
(1.077384 0.012745595 0)
(1.0746172 0.013580122 0)
(1.0716895 0.014329392 0)
(1.0686208 0.014991282 0)
(1.0654312 0.015564226 0)
(1.0621406 0.016046868 0)
(1.0587691 0.016437374 0)
(1.055337 0.016732976 0)
(1.0518647 0.016929391 0)
(1.0483734 0.017020689 0)
(1.0448851 0.016999401 0)
(1.0414232 0.016857349 0)
(1.0380124 0.01658699 0)
(1.0346782 0.016183442 0)
(1.0314469 0.015646688 0)
(1.0283437 0.014983677 0)
(1.0253919 0.014209555 0)
(1.0226106 0.013347582 0)
(1.0200139 0.01242735 0)
(1.0176095 0.011481495 0)
(1.0153987 0.010541472 0)
(1.0133769 0.0096334351 0)
(1.0115352 0.0087751972 0)
(1.0098621 0.0079750388 0)
(1.0083452 0.0072324662 0)
(1.0069732 0.0065405153 0)
(1.0057365 0.0058887015 0)
(1.0046281 0.0052658256 0)
(1.0036422 0.0046619071 0)
(1.0027768 0.0040692526 0)
(1.0020277 0.0034824974 0)
(1.0013974 0.0028984359 0)
(1.0008794 0.0023151753 0)
(1.0004829 0.0017320246 0)
(1.0001924 0.0011482791 0)
(1.0000319 0.00056393586 0)
(1.0010437 -0.00055524484 0)
(1.0012015 -0.00059697166 0)
(1.0012619 -0.00063463799 0)
(1.0013989 -0.0006812895 0)
(1.0014972 -0.00072787463 0)
(1.0016348 -0.00078079698 0)
(1.0017607 -0.00083618476 0)
(1.0019101 -0.00089705805 0)
(1.0020608 -0.0009618599 0)
(1.002229 -0.0010321179 0)
(1.0024052 -0.0011073275 0)
(1.0025973 -0.0011883694 0)
(1.0028016 -0.0012752278 0)
(1.0030223 -0.0013685133 0)
(1.0032584 -0.0014684467 0)
(1.0035124 -0.0015755355 0)
(1.0037848 -0.0016901221 0)
(1.0040775 -0.0018126828 0)
(1.0043914 -0.001943627 0)
(1.0047283 -0.0020834275 0)
(1.0050897 -0.0022325311 0)
(1.0054773 -0.0023914126 0)
(1.0058929 -0.0025605353 0)
(1.0063382 -0.0027403693 0)
(1.0068153 -0.0029313742 0)
(1.0073261 -0.0031340003 0)
(1.0078728 -0.0033486805 0)
(1.0084576 -0.0035758222 0)
(1.0090827 -0.0038158033 0)
(1.0097507 -0.0040689584 0)
(1.0104639 -0.0043355756 0)
(1.0112248 -0.0046158787 0)
(1.0120361 -0.0049100231 0)
(1.0129003 -0.0052180803 0)
(1.0138202 -0.005540021 0)
(1.0147985 -0.0058757097 0)
(1.0158377 -0.0062248797 0)
(1.0169406 -0.0065871278 0)
(1.0181098 -0.006961888 0)
(1.0193479 -0.0073484251 0)
(1.0206572 -0.0077458069 0)
(1.0220401 -0.0081528982 0)
(1.0234986 -0.0085683322 0)
(1.0250348 -0.0089905027 0)
(1.0266501 -0.0094175412 0)
(1.028346 -0.0098473029 0)
(1.0301232 -0.01027735 0)
(1.0319824 -0.010704938 0)
(1.0339234 -0.011127 0)
(1.0359457 -0.011540137 0)
(1.0380481 -0.011940604 0)
(1.0402287 -0.012324307 0)
(1.0424847 -0.012686792 0)
(1.0448126 -0.013023246 0)
(1.0472078 -0.013328498 0)
(1.0496648 -0.013597034 0)
(1.0521769 -0.01382301 0)
(1.0547362 -0.014000292 0)
(1.0573336 -0.014122508 0)
(1.0599587 -0.014183128 0)
(1.0625998 -0.014175564 0)
(1.0652438 -0.014093318 0)