/*--------------------------------*- C++ -*----------------------------------*\
| =========                 |                                                 |
| \\      /  F ield         | foam-extend: Open Source CFD                    |
|  \\    /   O peration     | Version:     4.1                                |
|   \\  /    A nd           | Web:         http://www.foam-extend.org         |
|    \\/     M anipulation  |                                                 |
\*---------------------------------------------------------------------------*/
FoamFile
{
    version     2.0;
    format      ascii;
    class       volScalarField;
    location    "2.1";
    object      p;
}
// * * * * * * * * * * * * * * * * * * * * * * * * * * * * * * * * * * * * * //

dimensions      [0 2 -2 0 0 0 0];

internalField   nonuniform List<scalar> 
16126
(
-9.9974787e-05
-0.00021595576
-0.00055376267
-0.00065344463
-0.0010319404
-0.0011899878
-0.0015799443
-0.0018196536
-0.0022278101
-0.0025519952
-0.0029948556
-0.0034021929
-0.0038957925
-0.0043857649
-0.0049428459
-0.0055161291
-0.0061457404
-0.0068032329
-0.0075108525
-0.008252531
-0.0090401856
-0.0098641421
-0.010730027
-0.011630919
-0.01256929
-0.01353887
-0.014541134
-0.015569514
-0.016622117
-0.01769419
-0.01878627
-0.019896154
-0.021016173
-0.022148674
-0.023291209
-0.024440345
-0.025592693
-0.026745657
-0.027895711
-0.029039857
-0.030174559
-0.031296464
-0.032401886
-0.033487049
-0.034547873
-0.035579994
-0.036578673
-0.037538748
-0.03845459
-0.039320053
-0.04012847
-0.040872626
-0.041544795
-0.042136764
-0.042639907
-0.043045271
-0.043343686
-0.043525903
-0.043582745
-0.043505272
-0.043284945
-0.04291381
-0.04238465
-0.04169115
-0.040828018
-0.03979111
-0.038577499
-0.037185549
-0.035614924
-0.033866619
-0.031942911
-0.029847357
-0.027584698
-0.025160846
-0.02258275
-0.019858392
-0.016996602
-0.014007083
-0.010900174
-0.0076868992
-0.0043786835
-0.00098741947
0.0024748633
0.0059959104
0.009563602
0.013165857
0.016790984
0.020427594
0.024064894
0.027692651
0.031301337
0.034882262
0.038427379
0.041929833
0.045383084
0.048782356
0.052122367
0.055400738
0.058612816
0.061759321
0.064835016
0.067845596
0.070783177
0.073663391
0.076472363
0.079248272
0.081965595
0.084715372
0.087448562
0.090377424
0.093395176
0.096980459
0.1008539
0.10606061
0.11177453
0.12027287
0.12905664
0.14342215
0.15587862
0.18068099
0.19427282
0.2446063
0.24077748
0.40980847
-0.00010168148
-0.00021835675
-0.00056795185
-0.00066360506
-0.0010482847
-0.0012060235
-0.0015991016
-0.0018403113
-0.0022504415
-0.0025766187
-0.0030210598
-0.0034303281
-0.0039253112
-0.0044169479
-0.0049752308
-0.0055498769
-0.0061805206
-0.0068391266
-0.0075474867
-0.0082897181
-0.0090772475
-0.0099005771
-0.010765214
-0.011664955
-0.012602363
-0.013570263
-0.014569003
-0.015590915
-0.016639768
-0.017713215
-0.018795864
-0.019888624
-0.021002219
-0.022129775
-0.02326317
-0.024403593
-0.025546706
-0.026690336
-0.027830787
-0.028965138
-0.030089885
-0.031201743
-0.032297097
-0.033372246
-0.034423185
-0.035445621
-0.036434884
-0.037385877
-0.038293029
-0.03915025
-0.039950916
-0.040687852
-0.041353363
-0.041939264
-0.042436947
-0.042837476
-0.043131695
-0.043310367
-0.043364329
-0.043284653
-0.043062817
-0.042690886
-0.042161663
-0.041468854
-0.040607182
-0.039572519
-0.038361939
-0.036973797
-0.035407732
-0.033664695
-0.031746896
-0.029657805
-0.027402055
-0.024985428
-0.022414729
-0.019697779
-0.01684324
-0.01386064
-0.010760142
-0.0075525924
-0.0042492428
-0.00086181871
0.0025978163
0.006117563
0.0096854522
0.013289544
0.016918289
0.020560434
0.024205334
0.027842903
0.031463788
0.035059485
0.038622184
0.042145289
0.045622606
0.049049734
0.052421931
0.055737383
0.058992299
0.062188241
0.065321353
0.068398498
0.071413945
0.074384701
0.07730009
0.080199216
0.083061008
0.085975009
0.08889815
0.092034208
0.095285504
0.099106268
0.10323723
0.10866593
0.11462429
0.12325549
0.13223612
0.14648664
0.15910806
0.18273565
0.19696192
0.23716495
0.24515232
0.30509399
-0.00012040413
-0.00019393548
-0.00058089363
-0.00065102843
-0.0010499375
-0.0011976753
-0.0015936581
-0.0018314373
-0.0022404779
-0.0025653527
-0.0030077138
-0.0034161842
-0.0039091186
-0.0043999825
-0.0049564515
-0.0055301336
-0.0061589736
-0.0068160982
-0.0075224876
-0.0082630217
-0.0090491722
-0.0098720171
-0.010736495
-0.011635312
-0.012569945
-0.01353445
-0.014532828
-0.015561143
-0.016609408
-0.017662796
-0.018744315
-0.019856858
-0.02097452
-0.022101487
-0.023236426
-0.024377446
-0.025521509
-0.026665944
-0.02780738
-0.028942828
-0.030068892
-0.031182304
-0.032279519
-0.033356875
-0.034410426
-0.035435926
-0.036428754
-0.03738385
-0.038295674
-0.039158153
-0.039964667
-0.040708028
-0.041380513
-0.041973885
-0.042479474
-0.042888258
-0.043190985
-0.043378304
-0.043440929
-0.043369803
-0.043156271
-0.042792264
-0.042270455
-0.041584429
-0.040728796
-0.039699325
-0.038493004
-0.037108113
-0.035544231
-0.033802263
-0.031884383
-0.029794041
-0.027535856
-0.025115614
-0.022540125
-0.019817235
-0.016955631
-0.013964888
-0.010855215
-0.0076375263
-0.004323142
-0.00092387759
0.0025483108
0.0060812117
0.0096627592
0.013280898
0.016923988
0.020580663
0.024240195
0.027892385
0.031527806
0.035137834
0.038714588
0.04225133
0.045741809
0.049181452
0.052565507
0.055891912
0.059157
0.062361995
0.065503571
0.068588237
0.071611913
0.074591453
0.077520535
0.080438573
0.083334511
0.086297952
0.089305916
0.092556403
0.095986548
0.10001856
0.10444713
0.11014819
0.1164476
0.12518165
0.13428576
0.14789301
0.16010032
0.18119618
0.19508798
0.22824758
0.24131329
0.2850329
-0.00018746843
-0.00016564099
-0.00062232738
-0.00064947685
-0.001074501
-0.0012068268
-0.0016104656
-0.0018436379
-0.0022536433
-0.002577269
-0.0030183237
-0.0034260101
-0.0039167397
-0.0044062499
-0.0049599662
-0.0055315546
-0.0061574349
-0.0068124606
-0.0075161434
-0.0082543227
-0.0090365157
-0.0098541304
-0.01071097
-0.011603283
-0.012535221
-0.013499072
-0.014491158
-0.015492188
-0.016523363
-0.017602099
-0.018692704
-0.019787343
-0.020896982
-0.022017614
-0.023145923
-0.024280636
-0.02541825
-0.026556502
-0.027691996
-0.028821903
-0.029942904
-0.031051833
-0.032145249
-0.033219584
-0.034270989
-0.035295303
-0.036287983
-0.037244033
-0.038157964
-0.039023734
-0.039834738
-0.040583781
-0.041263115
-0.041864458
-0.042379069
-0.042797843
-0.043111422
-0.043310336
-0.043385167
-0.043326714
-0.043126166
-0.042775297
-0.042266612
-0.041593528
-0.040750481
-0.039733067
-0.038538094
-0.037163664
-0.035609175
-0.033875353
-0.031964192
-0.02987897
-0.027624137
-0.025205323
-0.022629192
-0.019903467
-0.017036724
-0.01403846
-0.010918815
-0.0076886822
-0.0043593571
-0.00094268612
0.0025493704
0.0061045468
0.0097107273
0.013355768
0.017027964
0.020715858
0.024408685
0.028096197
0.031769008
0.035418544
0.039037115
0.042618189
0.046155949
0.049646205
0.053084986
0.056470912
0.059801689
0.063079627
0.066303718
0.069481974
0.07261411
0.075718552
0.078794883
0.08188272
0.084979578
0.088169741
0.091441843
0.094973208
0.098717202
0.10303978
0.10776649
0.11364189
0.1200794
0.12861777
0.13748165
0.15004231
0.16139863
0.17937155
0.1917031
0.21537371
0.22643018
0.24449791
-0.0003145238
-0.00011927341
-0.00068020409
-0.00063763171
-0.00109857
-0.0012041677
-0.0016165332
-0.0018389342
-0.0022478202
-0.0025658781
-0.0030025753
-0.0034060002
-0.0038914621
-0.0043767572
-0.0049249368
-0.0054917755
-0.0061113745
-0.0067595645
-0.0074549173
-0.0081836118
-0.0089567316
-0.0097678422
-0.010621048
-0.011507971
-0.012425409
-0.013363752
-0.014338728
-0.015366481
-0.016416787
-0.017471315
-0.018547734
-0.019643866
-0.02075164
-0.021870475
-0.02299766
-0.024131431
-0.02526901
-0.026407951
-0.02754522
-0.028678013
-0.029803193
-0.030917654
-0.032018063
-0.033100905
-0.034162392
-0.035198395
-0.03620439
-0.037175381
-0.038105852
-0.038989718
-0.039820303
-0.040590321
-0.041291904
-0.041916628
-0.042455589
-0.042899491
-0.043238767
-0.043463718
-0.043564675
-0.043532171
-0.043357113
-0.043030979
-0.042545969
-0.041895184
-0.04107274
-0.040073914
-0.038895198
-0.037534388
-0.035990589
-0.034264261
-0.032357155
-0.030272344
-0.028014109
-0.025587959
-0.023000482
-0.020259378
-0.017373246
-0.014351668
-0.011204899
-0.0079440217
-0.004580531
-0.0011265453
0.0024056748
0.0060034932
0.0096544712
0.013346083
0.017066315
0.020803342
0.024546125
0.028284085
0.032007617
0.035707859
0.039376971
0.043008191
0.046595657
0.050135072
0.053622667
0.057057053
0.060436462
0.063763286
0.067037702
0.070267919
0.073456086
0.07662086
0.079766555
0.082932351
0.086124274
0.089422672
0.092830035
0.096507777
0.10043011
0.1049145
0.1098211
0.11577063
0.12226227
0.13054755
0.13913925
0.15072332
0.16139706
0.17710683
0.18882243
0.20812776
0.21943464
0.23174502
-0.00050806016
-6.8244062e-05
-0.00076636662
-0.00063378998
-0.0011412536
-0.0012135207
-0.0016388154
-0.0018480825
-0.0022575437
-0.0025688134
-0.0030013056
-0.0033989697
-0.0038777812
-0.0043561456
-0.004895667
-0.0054534589
-0.0060628327
-0.0067023073
-0.0073887128
-0.0081104247
-0.0088739823
-0.0096710304
-0.0104993
-0.011360859
-0.012269893
-0.013223909
-0.01420575
-0.015200695
-0.016222818
-0.017273718
-0.018342929
-0.019425687
-0.020523155
-0.021632495
-0.022751555
-0.023878484
-0.025010531
-0.026145473
-0.027280404
-0.028412698
-0.029539356
-0.03065739
-0.031763572
-0.032854456
-0.033926307
-0.034975016
-0.035996059
-0.036984405
-0.037934485
-0.038840127
-0.039694549
-0.040490328
-0.041219441
-0.041873284
-0.042442748
-0.042918315
-0.043290173
-0.043548354
-0.043682901
-0.043684036
-0.043542331
-0.043248908
-0.042795588
-0.042175075
-0.041381069
-0.040408419
-0.039253181
-0.03791272
-0.036385715
-0.034672221
-0.03277361
-0.030692622
-0.028433241
-0.026000753
-0.023401565
-0.020643286
-0.017734471
-0.014684759
-0.011504502
-0.0082049909
-0.0047979397
-0.0012958385
0.0022887873
0.005942919
0.009653727
0.01340821
0.017193926
0.02099855
0.024810656
0.028619227
0.032414389
0.036187001
0.039929168
0.043634109
0.047296258
0.050911453
0.054476507
0.057990457
0.061452644
0.064866212
0.068233099
0.071562391
0.074858867
0.078141542
0.081418295
0.084726423
0.088076266
0.091540048
0.095125101
0.098970288
0.10305689
0.1076499
0.11262948
0.11850346
0.12484358
0.13265317
0.14069341
0.15103851
0.16058245
0.17358948
0.1834696
0.19740301
0.20598151
0.21215082
-0.00074557809
-2.9379177e-06
-0.00086360375
-0.00062162159
-0.0011817684
-0.0012116527
-0.0016497602
-0.0018399662
-0.0022475973
-0.002547357
-0.0029725534
-0.0033606495
-0.0038300919
-0.0042991536
-0.004828638
-0.0053772494
-0.0059758772
-0.0066019933
-0.0072721518
-0.0079707599
-0.0087109138
-0.0094922845
-0.010322151
-0.011189119
-0.012083286
-0.013004722
-0.013958707
-0.014948011
-0.015962957
-0.016996357
-0.018051278
-0.019124996
-0.020214253
-0.021317389
-0.022432031
-0.023556373
-0.024688031
-0.025824824
-0.02696415
-0.02810348
-0.029240001
-0.030370798
-0.03149273
-0.03260237
-0.033695986
-0.034769426
-0.035818096
-0.036836861
-0.037820014
-0.03876122
-0.039653502
-0.040489218
-0.041260096
-0.041957264
-0.042571312
-0.043092404
-0.043510376
-0.043814888
-0.043995578
-0.04404224
-0.043944987
-0.043694458
-0.043281962
-0.042699675
-0.041940755
-0.040999503
-0.03987143
-0.038553374
-0.037043511
-0.035341444
-0.033448137
-0.031366001
-0.029098756
-0.026651525
-0.024030628
-0.021243706
-0.018299413
-0.015207627
-0.011978969
-0.0086251726
-0.0051583694
-0.0015915824
0.0020620068
0.0057885755
0.0095746353
0.013406398
0.017270799
0.021154776
0.02504635
0.028933848
0.032806951
0.036655958
0.040472635
0.04424973
0.047981393
0.051663293
0.055292406
0.058867792
0.06238922
0.065859966
0.069282955
0.072667456
0.076020005
0.07935956
0.082696893
0.086067961
0.089487521
0.093022315
0.096685978
0.10060104
0.10475845
0.10938202
0.11437368
0.12014761
0.12634514
0.13376328
0.14139554
0.15083659
0.15968863
0.17102943
0.18013634
0.19153168
0.19933035
0.20348063
-0.0010106505
6.1927483e-05
-0.00097127634
-0.00060990279
-0.001227546
-0.0012113361
-0.0016650281
-0.0018348026
-0.0022421949
-0.0025297296
-0.0029480846
-0.0033253922
-0.0037842108
-0.0042407184
-0.004755882
-0.0052867696
-0.0058658087
-0.0064758672
-0.0071311356
-0.0078252312
-0.0085609675
-0.0093263446
-0.010126849
-0.010961592
-0.011834777
-0.012744222
-0.013684132
-0.01464871
-0.015640652
-0.016658164
-0.017697645
-0.018756073
-0.019832461
-0.020924611
-0.022030762
-0.023149119
-0.024277519
-0.02541396
-0.02655603
-0.027701365
-0.028847298
-0.029991011
-0.031129439
-0.032259177
-0.033376486
-0.034477161
-0.035556521
-0.036609304
-0.037629642
-0.038611009
-0.039546198
-0.040427315
-0.0412458
-0.041992466
-0.042657562
-0.043230874
-0.043701836
-0.044059671
-0.044293548
-0.04439276
-0.044346885
-0.044145998
-0.043780815
-0.0432429
-0.04252478
-0.041620129
-0.040523825
-0.039232109
-0.037742579
-0.036054323
-0.034167839
-0.032085165
-0.029809716
-0.027346434
-0.024701532
-0.021882689
-0.018898668
-0.015759608
-0.01247646
-0.0090614364
-0.0055271708
-0.0018875509
0.0018437841
0.0056523775
0.0095239997
0.013444014
0.017398586
0.021373755
0.025356843
0.029335366
0.033298454
0.037235822
0.041138943
0.045000428
0.048814784
0.052577514
0.056285952
0.059939264
0.063538064
0.067086047
0.07058721
0.074051175
0.077485881
0.080909833
0.084335296
0.087795522
0.09130645
0.094926874
0.098671181
0.10264304
0.1068357
0.11143268
0.11634912
0.12191587
0.12782934
0.13470748
0.14172814
0.15007336
0.15788538
0.16728144
0.17491319
0.18346224
0.1895098
0.19207984
-0.0012674564
0.00013978259
-0.0010754044
-0.00059094121
-0.0012660469
-0.0011994734
-0.0016663237
-0.0018110919
-0.002214896
-0.0024856973
-0.0028936863
-0.0032564059
-0.0037019898
-0.0041445864
-0.0046460575
-0.0051671505
-0.0057363729
-0.0063308925
-0.0069669582
-0.0076341216
-0.0083417134
-0.0090857429
-0.0098704216
-0.010690082
-0.011542448
-0.012425952
-0.013341542
-0.014288438
-0.015263228
-0.016262554
-0.017286097
-0.018331698
-0.019397516
-0.020481935
-0.021583164
-0.022699595
-0.023829325
-0.024970491
-0.026120929
-0.027278399
-0.028440397
-0.029604179
-0.030766741
-0.031924678
-0.033074218
-0.034211074
-0.035330443
-0.036426901
-0.037494377
-0.038526103
-0.039514595
-0.040451643
-0.041328335
-0.042135095
-0.042861747
-0.043497616
-0.044031633
-0.044452484
-0.044748762
-0.044909147
-0.044922572
-0.044778438
-0.044466763
-0.043978403
-0.043305168
-0.042440029
-0.041377179
-0.040112219
-0.038642151
-0.036965551
-0.035082471
-0.032994621
-0.030705172
-0.02821897
-0.025542217
-0.022682753
-0.019649568
-0.016453244
-0.013105135
-0.0096182146
-0.0060056934
-0.0022820144
0.0015381318
0.0054389244
0.009405267
0.013421385
0.017472655
0.021544101
0.025622375
0.029694125
0.033747997
0.037772996
0.041760276
0.045701769
0.049591252
0.05342415
0.057198058
0.060912329
0.064567787
0.068168243
0.071718492
0.075228206
0.078706409
0.08217131
0.085636599
0.089133801
0.092680624
0.09633042
0.10009981
0.10407861
0.10826445
0.11280952
0.11764364
0.1230311
0.12872089
0.13519013
0.14178274
0.14937157
0.15654873
0.16475892
0.17165176
0.17872195
0.1839932
0.18577053
-0.0015065472
0.000211067
-0.0011701012
-0.00056551094
-0.0012974755
-0.0011811457
-0.0016631453
-0.0017837693
-0.0021862729
-0.0024414653
-0.0028409449
-0.003189743
-0.0036225687
-0.0040495806
-0.004534231
-0.0050344889
-0.0055814741
-0.0061563429
-0.0067735974
-0.0074245078
-0.008114608
-0.0088370676
-0.0095957334
-0.010388449
-0.011216951
-0.012079367
-0.012973752
-0.013897411
-0.014850371
-0.015830833
-0.016837197
-0.017867547
-0.018920767
-0.019995286
-0.021089747
-0.022202692
-0.023332476
-0.024477427
-0.025635586
-0.026804878
-0.027982943
-0.029167136
-0.030354521
-0.031541712
-0.032724913
-0.033899768
-0.035061361
-0.03620411
-0.037321741
-0.038407236
-0.03945282
-0.040449947
-0.041389322
-0.042260945
-0.043054168
-0.0437578
-0.044360211
-0.044849484
-0.045213561
-0.045440439
-0.045518328
-0.045435882
-0.045182348
-0.044747806
-0.044123286
-0.043301002
-0.042274413
-0.041038441
-0.03958946
-0.037925511
-0.036046179
-0.033952844
-0.031648424
-0.029137681
-0.026426803
-0.023523819
-0.020437963
-0.01718024
-0.013762563
-0.010198483
-0.0065018906
-0.0026890009
0.0012251668
0.0052243636
0.009292401
0.013412388
0.017568695
0.021745124
0.025927442
0.030101163
0.034254178
0.038374614
0.042452972
0.046481121
0.050453979
0.054366305
0.058215801
0.06200141
0.065724878
0.069390238
0.073002764
0.076572208
0.080108226
0.083628132
0.087145964
0.090690402
0.094278783
0.097957539
0.10174225
0.10570792
0.10985234
0.11429799
0.11898369
0.12411487
0.12948083
0.13543857
0.14146071
0.14816779
0.15449244
0.16137964
0.16720879
0.17275051
0.17699427
0.17831225
-0.0017082574
0.00028022423
-0.0012521502
-0.00053673943
-0.0013191329
-0.0011532361
-0.0016461656
-0.0017399314
-0.0021374709
-0.0023735948
-0.0027613159
-0.0030932014
-0.0035111698
-0.0039216796
-0.0043902186
-0.0048744212
-0.005404461
-0.0059597526
-0.0065552739
-0.0071817094
-0.0078467561
-0.0085460512
-0.0092829829
-0.010054153
-0.010859689
-0.011698045
-0.012569431
-0.013472665
-0.014406477
-0.015369101
-0.016359853
-0.017377343
-0.018420453
-0.019488009
-0.020578798
-0.021691598
-0.022825008
-0.023977545
-0.025147476
-0.026332882
-0.027531564
-0.028740978
-0.029958259
-0.031180043
-0.032402516
-0.033621254
-0.034831224
-0.036026678
-0.037201125
-0.038347283
-0.039457056
-0.040521524
-0.041530968
-0.042474909
-0.043342162
-0.04412095
-0.044799002
-0.045363711
-0.045802282
-0.046101936
-0.046250069
-0.046234501
-0.046043627
-0.045666678
-0.045093839
-0.044316523
-0.04332741
-0.042120731
-0.040692215
-0.039039381
-0.037161367
-0.035059257
-0.032735757
-0.030195605
-0.027445048
-0.024492377
-0.021347146
-0.018021003
-0.014526217
-0.010877666
-0.0070899275
-0.0031788419
0.00083894614
0.0049445851
0.009121113
0.013350181
0.017615372
0.021899231
0.026186862
0.030462727
0.034714384
0.038929135
0.043097702
0.047211035
0.051261731
0.055244854
0.059158859
0.063003436
0.066779905
0.070492227
0.074146579
0.077752491
0.081320197
0.084866599
0.088406168
0.091965769
0.095563035
0.099239485
0.10301096
0.10694136
0.11103037
0.11537749
0.11993167
0.1248526
0.12996738
0.13554144
0.14115858
0.14725388
0.15302891
0.15907712
0.16428756
0.16894147
0.17259652
0.1735539
-0.0018730649
0.00034191388
-0.0013185368
-0.0005044817
-0.0013315138
-0.0011198232
-0.0016230257
-0.0016915418
-0.0020848181
-0.0023027666
-0.0026794008
-0.0029944911
-0.0033972756
-0.0037897396
-0.0042397303
-0.0047032946
-0.005212059
-0.0057463532
-0.0063208859
-0.0069266128
-0.0075700208
-0.0082461365
-0.008958369
-0.0097045991
-0.010486206
-0.0113018
-0.012151
-0.013032427
-0.013945893
-0.014890271
-0.015864844
-0.016868558
-0.017900688
-0.018960296
-0.020046508
-0.021158333
-0.022294637
-0.023454159
-0.024635391
-0.025836602
-0.027055762
-0.028290458
-0.02953792
-0.030794837
-0.032057401
-0.033321147
-0.034580948
-0.035830909
-0.037064338
-0.038273692
-0.039450552
-0.040585618
-0.041668727
-0.042688889
-0.043634348
-0.044492694
-0.04525096
-0.045895789
-0.046413581
-0.046790712
-0.047013694
-0.047069444
-0.046945432
-0.046629977
-0.04611236
-0.045383135
-0.044434158
-0.043258925
-0.041852485
-0.040211811
-0.038335562
-0.036224524
-0.033881169
-0.031310231
-0.028517982
-0.025513036
-0.022305255
-0.01890677
-0.015330823
-0.011592331
-0.0077063603
-0.0036933615
0.00043042034
0.0046474573
0.0089388507
0.013284779
0.017667621
0.022068321
0.026470998
0.03085861
0.035217762
0.039534477
0.043797428
0.047997683
0.052132212
0.056194163
0.060181274
0.06409147
0.067928015
0.071695271
0.075398959
0.079048715
0.082655101
0.086233747
0.08979905
0.093375139
0.096978641
0.10064537
0.1043895
0.10826369
0.11226704
0.11647784
0.12085146
0.12550793
0.13030327
0.13542748
0.14055045
0.1459643
0.15107489
0.15623348
0.16070142
0.16449743
0.16753982
0.16833584
-0.0019988087
0.00039727823
-0.0013677929
-0.00046862494
-0.001331786
-0.0010771408
-0.0015864831
-0.0016290345
-0.0020153319
-0.0022134404
-0.0025770574
-0.0028739792
-0.0032606929
-0.0036349932
-0.0040671415
-0.0045118671
-0.0050010745
-0.0055143105
-0.0060665955
-0.0066488938
-0.0072684883
-0.0079212526
-0.0086105222
-0.0093339814
-0.010092722
-0.010885631
-0.011713142
-0.012574481
-0.013469383
-0.014397029
-0.015357117
-0.016348994
-0.017372147
-0.018425978
-0.019509845
-0.020623026
-0.021764647
-0.02293368
-0.024128859
-0.025348654
-0.026591223
-0.027854301
-0.029135233
-0.03043078
-0.031737159
-0.033049881
-0.03436374
-0.035672706
-0.036969886
-0.038247474
-0.039496723
-0.04070793
-0.041870457
-0.04297277
-0.044002492
-0.044946523
-0.045791133
-0.046522145
-0.047125075
-0.047585374
-0.047888583
-0.048020636
-0.047967997
-0.047718006
-0.047258965
-0.046580518
-0.045673645
-0.044531076
-0.043147149
-0.041518283
-0.039642648
-0.037520746
-0.035154825
-0.032549634
-0.029711537
-0.02664945
-0.023373622
-0.019897089
-0.016232743
-0.012398728
-0.0084115244
-0.0042865308
-4.6046609e-05
0.0042887823
0.0086998781
0.013165939
0.017668777
0.022187787
0.026706494
0.031206464
0.035674216
0.040094475
0.044458652
0.04875261
0.052968654
0.057101347
0.061151348
0.065119459
0.069006239
0.072815081
0.076553912
0.080231604
0.083858754
0.087450904
0.09102211
0.094594902
0.098185507
0.10182557
0.10552877
0.10933923
0.11325688
0.11734378
0.12156243
0.1260027
0.13054679
0.13532836
0.14008849
0.14501528
0.14966911
0.15423043
0.15821257
0.16145333
0.16407881
0.16468703
-0.0020909641
0.00044479633
-0.0014013053
-0.00043106046
-0.001322749
-0.0010300144
-0.00154344
-0.0015618918
-0.0019409181
-0.0021199307
-0.0024705265
-0.0027492663
-0.003119429
-0.0034746129
-0.0038875598
-0.0043115951
-0.0047797274
-0.005271472
-0.0058020103
-0.0063622851
-0.0069592944
-0.0075888479
-0.0082544129
-0.0089542226
-0.0096898711
-0.010460492
-0.011266553
-0.012107473
-0.012983465
-0.013894118
-0.014839366
-0.015818893
-0.016832515
-0.017879927
-0.018960807
-0.02007471
-0.021221051
-0.022399066
-0.023607746
-0.024845794
-0.026111582
-0.027403027
-0.02871762
-0.030052228
-0.031403129
-0.032765841
-0.03413511
-0.035504795
-0.036867826
-0.038216149
-0.039540691
-0.040831347
-0.042076993
-0.043265526
-0.044383918
-0.045418334
-0.046354231
-0.047176551
-0.047869856
-0.048418598
-0.048807271
-0.049020743
-0.049044392
-0.048864497
-0.048468303
-0.047844476
-0.046983046
-0.045875923
-0.04451667
-0.042901118
-0.041026897
-0.038894212
-0.036505039
-0.033864194
-0.030978021
-0.027855967
-0.024508526
-0.020949122
-0.017193417
-0.013256379
-0.0091579229
-0.0049196938
-0.00055827822
0.0039029308
0.0084438701
0.013040871
0.017674478
0.022321938
0.026965835
0.031585846
0.036167734
0.040695037
0.045157492
0.049544739
0.053851072
0.058068805
0.0621928
0.066221035
0.070160354
0.074016467
0.077793734
0.081501739
0.085152049
0.088758023
0.092334022
0.095900014
0.099471125
0.1030746
0.10672241
0.11045055
0.11425828
0.11819319
0.12222253
0.12641085
0.13066067
0.13506125
0.13940928
0.14381731
0.14796399
0.15192092
0.15538529
0.15811654
0.16036006
0.16089636
-0.0021531768
0.00048588918
-0.0014189643
-0.00039048365
-0.0013020334
-0.0009748921
-0.0014884683
-0.0014831513
-0.0018527153
-0.0020119561
-0.0023482249
-0.0026081649
-0.0029612709
-0.0032973427
-0.0036914093
-0.0040954081
-0.0045430105
-0.0050132129
-0.005521529
-0.0060589365
-0.0066328177
-0.0072393289
-0.007882025
-0.008559228
-0.009272601
-0.010021532
-0.010806902
-0.011628497
-0.012486737
-0.013381535
-0.014313146
-0.015281602
-0.016287001
-0.017329364
-0.018408656
-0.019524732
-0.0206773
-0.021865877
-0.023089734
-0.024347828
-0.025638769
-0.026960682
-0.028311234
-0.029687425
-0.031085623
-0.03250138
-0.033929418
-0.035363506
-0.036796412
-0.038219842
-0.039624398
-0.040999566
-0.042333714
-0.043614145
-0.044827135
-0.045958069
-0.046991524
-0.04791149
-0.048701497
-0.049344914
-0.04982509
-0.050125742
-0.050231063
-0.050126187
-0.049797216
-0.049231763
-0.048418835
-0.047349472
-0.046016409
-0.044414863
-0.042541888
-0.040397388
-0.037983071
-0.03530377
-0.032365987
-0.029179332
-0.025754997
-0.02210767
-0.018251958
-0.014208549
-0.0099935083
-0.0056293977
-0.001137296
0.0034577621
0.0081349147
0.01286839
0.017637984
0.022418745
0.02719266
0.03193736
0.036638339
0.041277199
0.045843928
0.050324529
0.054713189
0.059003445
0.063195835
0.067287156
0.071276169
0.075167096
0.078972788
0.082700881
0.086361166
0.08996875
0.093536548
0.097083469
0.10062414
0.10418231
0.10776952
0.1114154
0.11511972
0.1189191
0.12278586
0.12676561
0.13077861
0.13488139
0.13891496
0.14293739
0.14671381
0.15023972
0.15333329
0.15570204
0.15765382
0.15808163
-0.0021914549
0.00052046726
-0.0014235757
-0.00034886993
-0.0012729063
-0.00091592309
-0.0014270796
-0.0013997198
-0.0017589832
-0.0018990276
-0.0022205819
-0.0024616572
-0.0027971956
-0.0031135738
-0.0034879699
-0.0038711017
-0.0042975377
-0.0047459985
-0.005232275
-0.0057472836
-0.0062984391
-0.0068819586
-0.0075015594
-0.0081558641
-0.0088468273
-0.0095740834
-0.010338705
-0.011140744
-0.011980944
-0.012859557
-0.013777128
-0.014734021
-0.015730657
-0.016767382
-0.017844485
-0.018962145
-0.020120387
-0.021319043
-0.022557683
-0.023835558
-0.025151545
-0.026504015
-0.027890846
-0.029309214
-0.030755611
-0.032225664
-0.033714107
-0.035214649
-0.036719925
-0.038221419
-0.039709422
-0.041173011
-0.042600041
-0.0439772
-0.045290036
-0.046523106
-0.047660056
-0.048683854
-0.049576916
-0.050321442
-0.050899542
-0.051293681
-0.051486764
-0.05146268
-0.051206282
-0.050704043
-0.049943849
-0.048915799
-0.047611711
-0.046026143
-0.044155497
-0.041999372
-0.039559098
-0.036839699
-0.033847405
-0.030593031
-0.027087069
-0.023346674
-0.019386895
-0.015226937
-0.010886762
-0.0063909247
-0.0017600122
0.0029784032
0.0078023227
0.012683091
0.017599482
0.022523697
0.027437025
0.032314556
0.037141454
0.041897471
0.04657251
0.05115238
0.055631764
0.060001974
0.064261957
0.068409935
0.072452668
0.076389029
0.080224025
0.083969422
0.087640451
0.091246415
0.094802283
0.098324594
0.10182683
0.10532992
0.10884369
0.1123924
0.11597526
0.11961958
0.12330129
0.12705078
0.13080234
0.13458808
0.13828412
0.14191164
0.14530247
0.14840869
0.15113616
0.15318403
0.15488571
0.15527344
-0.0022098865
0.00055024676
-0.0014154921
-0.00030455719
-0.0012335327
-0.00085007793
-0.0013553026
-0.0013065757
-0.0016536798
-0.0017742901
-0.0020800918
-0.0023019688
-0.0026194842
-0.0029160919
-0.0032708078
-0.0036332156
-0.0040385548
-0.0044651644
-0.0049291526
-0.0054214443
-0.0059497052
-0.0065103356
-0.0071071974
-0.0077390681
-0.0084080652
-0.0091140583
-0.0098584102
-0.010641466
-0.011464236
-0.012327283
-0.013231458
-0.014177456
-0.015166014
-0.016197814
-0.017273471
-0.0183935
-0.019558263
-0.020767922
-0.022022379
-0.023321199
-0.024663561
-0.026048113
-0.027472981
-0.028935549
-0.030432473
-0.031959489
-0.033511374
-0.03508181
-0.036663319
-0.038247185
-0.039823393
-0.041380612
-0.04290617
-0.044386114
-0.045805227
-0.047147188
-0.04839464
-0.049529455
-0.050532843
-0.051385738
-0.0520689
-0.052563438
-0.052850848
-0.052913672
-0.052735399
-0.052301276
-0.051597965
-0.050614563
-0.049341894
-0.047773824
-0.045906047
-0.043737843
-0.041270193
-0.038508106
-0.035458269
-0.032130614
-0.028539408
-0.02469943
-0.020626778
-0.016343988
-0.0118702
-0.0072323649
-0.0024527848
0.0024382438
0.0074177935
0.012454109
0.0175253
0.022600357
0.027660198
0.032676902
0.037635615
0.042513453
0.047300645
0.051980551
0.056548644
0.060995675
0.065322415
0.069525599
0.073609254
0.077578327
0.081442015
0.085202324
0.088871749
0.092468648
0.096003982
0.099493725
0.10295173
0.10639547
0.10983515
0.11329021
0.11676053
0.12026631
0.1237872
0.12734238
0.13087798
0.13440844
0.13783695
0.14115861
0.14425278
0.14704229
0.14948893
0.15129022
0.15278577
0.15310603
-0.0022130703
0.00057550782
-0.001397513
-0.00025916469
-0.0011868756
-0.00078056159
-0.0012773082
-0.0012085756
-0.0015424448
-0.0016439996
-0.0019334561
-0.0021360112
-0.0024349685
-0.0027113813
-0.0030458442
-0.0033870289
-0.0037708493
-0.0041753791
-0.0046169957
-0.0050865848
-0.0055919377
-0.0061295441
-0.0067034316
-0.0073125887
-0.0079593584
-0.0086438411
-0.0093676268
-0.010131327
-0.010936239
-0.011783238
-0.012673481
-0.013607996
-0.014587853
-0.015614081
-0.01668765
-0.017809432
-0.01898015
-0.020200332
-0.021470237
-0.022789784
-0.02415849
-0.025575321
-0.027038692
-0.028546242
-0.030094834
-0.031680358
-0.033297675
-0.034940482
-0.03660122
-0.038270998
-0.039939515
-0.041595039
-0.043224365
-0.044812882
-0.046344571
-0.047802187
-0.049167303
-0.050420617
-0.051542038
-0.052511128
-0.053307179
-0.053909823
-0.054299018
-0.054455836
-0.054362269
-0.054002227
-0.053361025
-0.052426676
-0.05118889
-0.049640795
-0.047777267
-0.045597281
-0.043101256
-0.040294623
-0.037182961
-0.033780512
-0.03009729
-0.026151284
-0.021958959
-0.017544083
-0.012927294
-0.0081380705
-0.0031992042
0.0018556414
0.0070027663
0.012206505
0.017444386
0.022681386
0.027898244
0.033063359
0.038162177
0.043168875
0.048074388
0.052860177
0.057522641
0.062050733
0.066445968
0.070704766
0.074833765
0.07883465
0.082716597
0.08649096
0.090163965
0.093745983
0.097255364
0.10070702
0.10411223
0.10748837
0.11084322
0.11419347
0.11753852
0.120893
0.12423942
0.12758839
0.13089576
0.13416362
0.13731702
0.14033512
0.14313417
0.14562402
0.14780629
0.14939396
0.1507181
0.15101211
-0.002203913
0.00059781449
-0.0013699836
-0.00021113665
-0.0011315922
-0.00070499894
-0.0011903022
-0.0011021952
-0.0014212304
-0.0015036239
-0.0017758199
-0.0019587883
-0.0022386923
-0.0024947207
-0.002808697
-0.0031285364
-0.0034906613
-0.0038729005
-0.0042918864
-0.0047385178
-0.0052207748
-0.0057352789
-0.0062862129
-0.0068727305
-0.0074973572
-0.0081604146
-0.0088637411
-0.0096082174
-0.010395413
-0.011226507
-0.012102967
-0.013026152
-0.013997472
-0.015018313
-0.016090006
-0.017213802
-0.018390805
-0.01962193
-0.020907828
-0.022248799
-0.023644736
-0.025094965
-0.026598228
-0.028152465
-0.02975479
-0.031401292
-0.03308696
-0.034805541
-0.036549431
-0.038309593
-0.040075453
-0.041834885
-0.043574144
-0.045277937
-0.046929405
-0.048510323
-0.05000112
-0.051381233
-0.052629158