/*--------------------------------*- C++ -*----------------------------------*\
| =========                 |                                                 |
| \\      /  F ield         | foam-extend: Open Source CFD                    |
|  \\    /   O peration     | Version:     4.1                                |
|   \\  /    A nd           | Web:         http://www.foam-extend.org         |
|    \\/     M anipulation  |                                                 |
\*---------------------------------------------------------------------------*/
FoamFile
{
    version     2.0;
    format      ascii;
    class       volVectorField;
    location    "2.1";
    object      U;
}
// * * * * * * * * * * * * * * * * * * * * * * * * * * * * * * * * * * * * * //

dimensions      [0 1 -1 0 0 0 0];

internalField   nonuniform List<vector> 
16126
(
(0.10434565 2.1111178e-05 0)
(0.10417516 2.8588999e-05 0)
(0.10408447 9.2206278e-06 0)
(0.10397453 2.2192404e-05 0)
(0.10380519 1.6375009e-05 0)
(0.10368191 2.2794871e-05 0)
(0.10346987 2.2982899e-05 0)
(0.1033056 2.6084165e-05 0)
(0.10306427 2.8285411e-05 0)
(0.10285399 3.0323916e-05 0)
(0.10258579 3.2990413e-05 0)
(0.10233238 3.4812051e-05 0)
(0.10203741 3.7402128e-05 0)
(0.10174627 3.9163621e-05 0)
(0.10142582 4.1408642e-05 0)
(0.1011036 4.2903805e-05 0)
(0.10076145 4.4486466e-05 0)
(0.10041624 4.5325951e-05 0)
(0.10005911 4.6051744e-05 0)
(0.099700975 4.6295871e-05 0)
(0.09933867 4.6595708e-05 0)
(0.098980199 4.6713451e-05 0)
(0.098626264 4.6655636e-05 0)
(0.098283109 4.5546322e-05 0)
(0.097953778 4.3067065e-05 0)
(0.097643751 3.9744647e-05 0)
(0.097356936 3.7522008e-05 0)
(0.097100258 3.7397049e-05 0)
(0.096878585 3.4304321e-05 0)
(0.096695998 2.3789899e-05 0)
(0.096555162 1.9602243e-05 0)
(0.096467605 2.8577992e-05 0)
(0.096440684 2.8129206e-05 0)
(0.09648747 1.7311978e-05 0)
(0.096603724 9.7352077e-06 0)
(0.096786434 3.9426268e-06 0)
(0.097036097 -9.367665e-07 0)
(0.097354178 -5.7405832e-06 0)
(0.097742829 -1.0632253e-05 0)
(0.098203883 -1.5677835e-05 0)
(0.098738984 -2.0862582e-05 0)
(0.099349361 -2.6191222e-05 0)
(0.10003593 -3.1677543e-05 0)
(0.10079928 -3.7346872e-05 0)
(0.10163964 -4.3233968e-05 0)
(0.102557 -4.9378387e-05 0)
(0.10355103 -5.5822174e-05 0)
(0.10462113 -6.2606773e-05 0)
(0.10576644 -6.9768774e-05 0)
(0.10698587 -7.7338192e-05 0)
(0.10827804 -8.5332639e-05 0)
(0.10964132 -9.375509e-05 0)
(0.11107378 -0.00010259043 0)
(0.11257318 -0.00011180217 0)
(0.11413692 -0.00012133051 0)
(0.11576201 -0.00013109248 0)
(0.11744501 -0.00014098061 0)
(0.11918198 -0.00015086492 0)
(0.12096844 -0.00016059619 0)
(0.12279932 -0.0001700086 0)
(0.12466894 -0.00017892537 0)
(0.12657098 -0.0001871656 0)
(0.12849849 -0.00019454953 0)
(0.13044393 -0.00020090629 0)
(0.13239924 -0.00020607985 0)
(0.13435588 -0.00020993615 0)
(0.13630501 -0.00021236658 0)
(0.1382376 -0.00021329215 0)
(0.14014463 -0.00021266637 0)
(0.14201722 -0.00021047454 0)
(0.1438469 -0.00020673309 0)
(0.14562575 -0.00020148827 0)
(0.14734661 -0.00019481152 0)
(0.14900325 -0.00018679697 0)
(0.15059055 -0.00017755765 0)
(0.15210459 -0.00016722198 0)
(0.15354277 -0.00015592944 0)
(0.15490392 -0.00014383025 0)
(0.15618831 -0.00013107896 0)
(0.1573977 -0.00011783637 0)
(0.15853535 -0.00010426221 0)
(0.159606 -9.0518783e-05 0)
(0.16061587 -7.6758763e-05 0)
(0.16157258 -6.313598e-05 0)
(0.16248515 -4.9792784e-05 0)
(0.16336389 -3.6864874e-05 0)
(0.1642204 -2.4465475e-05 0)
(0.16506744 -1.2691532e-05 0)
(0.16591894 -1.6015826e-06 0)
(0.16678985 8.7721618e-06 0)
(0.16769627 1.8455607e-05 0)
(0.1686552 2.7511888e-05 0)
(0.16968486 3.6085498e-05 0)
(0.17080432 4.4364567e-05 0)
(0.17203417 5.2651639e-05 0)
(0.17339587 6.128197e-05 0)
(0.17491318 7.0757824e-05 0)
(0.17661075 8.1561935e-05 0)
(0.17851727 9.4387705e-05 0)
(0.18066244 0.00010968953 0)
(0.18308362 0.00012808714 0)
(0.18581954 0.00014930863 0)
(0.18892435 0.00017292914 0)
(0.19245422 0.00019594836 0)
(0.19649743 0.00021430887 0)
(0.20114488 0.00021757271 0)
(0.20655426 0.00019251914 0)
(0.21288349 0.00011203337 0)
(0.22042609 -5.5490667e-05 0)
(0.229457 -0.0003684067 0)
(0.24051651 -0.00088679998 0)
(0.2540474 -0.0017165668 0)
(0.27099442 -0.0029460042 0)
(0.29194918 -0.0047364224 0)
(0.31844979 -0.0071727641 0)
(0.35097761 -0.010464439 0)
(0.39190703 -0.014608547 0)
(0.44077963 -0.019869935 0)
(0.50142134 -0.025967979 0)
(0.57019741 -0.033379954 0)
(0.6549237 -0.04069932 0)
(0.74102677 -0.049851845 0)
(0.85367126 -0.051316717 0)
(0.92415254 -0.062803133 0)
(0.30722278 8.9084549e-05 0)
(0.30698831 0.00015120799 0)
(0.30678665 0.00011810465 0)
(0.30655194 0.00017142937 0)
(0.3062388 0.00017268642 0)
(0.30594486 0.00020706868 0)
(0.30555553 0.00022377526 0)
(0.3051841 0.00024898355 0)
(0.30473022 0.00027053166 0)
(0.30428088 0.00029202157 0)
(0.30376665 0.00031387252 0)
(0.30324566 0.00033329753 0)
(0.30267522 0.00035339701 0)
(0.30209216 0.00037060928 0)
(0.30147266 0.00038769832 0)
(0.30084022 0.00040181968 0)
(0.30018343 0.00041480373 0)
(0.29951844 0.00042461128 0)
(0.29884198 0.0004321087 0)
(0.29816653 0.0004356956 0)
(0.29749411 0.00043538424 0)
(0.29683573 0.00042986483 0)
(0.29619717 0.000419526 0)
(0.29558933 0.00040433568 0)
(0.2950222 0.00038462982 0)
(0.29450852 0.00035971602 0)
(0.29405953 0.00032618345 0)
(0.2936859 0.00028263632 0)
(0.29339932 0.00023617272 0)
(0.29322555 0.00019320018 0)
(0.2931871 0.00013378177 0)
(0.2933013 4.7927903e-05 0)
(0.29357769 -4.1343832e-05 0)
(0.29399042 -0.00012614521 0)
(0.29455285 -0.00020949515 0)
(0.29527093 -0.00029292309 0)
(0.29615221 -0.00037857761 0)
(0.29720177 -0.00046674113 0)
(0.29842449 -0.00055746682 0)
(0.29982401 -0.00065037688 0)
(0.30140316 -0.0007450626 0)
(0.30316358 -0.00084104835 0)
(0.30510578 -0.00093787498 0)
(0.30722913 -0.001035077 0)
(0.30953184 -0.0011322111 0)
(0.31201099 -0.0012288464 0)
(0.31466262 -0.001324571 0)
(0.31748172 -0.0014189893 0)
(0.3204624 -0.001511718 0)
(0.32359789 -0.0016023849 0)
(0.32688064 -0.0016906181 0)
(0.33030245 -0.0017760414 0)
(0.33385445 -0.0018582647 0)
(0.33752725 -0.0019368753 0)
(0.34131091 -0.0020114289 0)
(0.34519502 -0.0020814458 0)
(0.34916868 -0.0021464028 0)
(0.35322051 -0.0022057337 0)
(0.35733861 -0.0022588325 0)
(0.36151058 -0.002305059 0)
(0.36572348 -0.0023437529 0)
(0.36996381 -0.0023742541 0)
(0.37421756 -0.0023959245 0)
(0.37847022 -0.0024081789 0)
(0.38270692 -0.0024105164 0)
(0.38691253 -0.002402556 0)
(0.39107188 -0.0023840674 0)
(0.39516998 -0.0023550025 0)
(0.3991923 -0.0023155205 0)
(0.40312511 -0.0022660033 0)
(0.40695579 -0.0022070633 0)
(0.4106732 -0.0021395434 0)
(0.414268 -0.0020645025 0)
(0.41773298 -0.0019831991 0)
(0.42106329 -0.0018970643 0)
(0.42425674 -0.0018076735 0)
(0.42731394 -0.0017167104 0)
(0.43023843 -0.0016259429 0)
(0.43303678 -0.0015371818 0)
(0.4357186 -0.0014522676 0)
(0.43829652 -0.0013730303 0)
(0.44078619 -0.0013012885 0)
(0.44320614 -0.0012388122 0)
(0.44557772 -0.0011873291 0)
(0.44792496 -0.0011484892 0)
(0.45027449 -0.001123888 0)
(0.45265537 -0.0011150389 0)
(0.45509903 -0.0011234162 0)
(0.45763917 -0.0011504301 0)
(0.46031167 -0.0011974965 0)
(0.46315466 -0.0012660119 0)
(0.46620841 -0.0013574585 0)
(0.46951568 -0.0014733789 0)
(0.47312158 -0.0016155348 0)
(0.47707425 -0.0017858678 0)
(0.48142474 -0.0019867695 0)
(0.48622826 -0.0022209991 0)
(0.49154376 -0.0024921898 0)
(0.49743637 -0.0028046438 0)
(0.50397607 -0.0031643175 0)
(0.51124223 -0.0035783374 0)
(0.51932013 -0.0040569799 0)
(0.5283096 -0.0046125176 0)
(0.5383162 -0.0052632075 0)
(0.54946807 -0.0060304507 0)
(0.56189494 -0.006946741 0)
(0.57576155 -0.0080485131 0)
(0.59121947 -0.0093916965 0)
(0.60847543 -0.011033742 0)
(0.62768323 -0.013063849 0)
(0.64908845 -0.015558969 0)
(0.67278876 -0.018644001 0)
(0.69905217 -0.022388846 0)
(0.72778399 -0.026936279 0)
(0.75925305 -0.032271068 0)
(0.79287982 -0.038515718 0)
(0.8289644 -0.045411736 0)
(0.86580048 -0.053064162 0)
(0.90402497 -0.060649103 0)
(0.93925829 -0.068557817 0)
(0.97384845 -0.074231992 0)
(0.99687754 -0.080418866 0)
(1.0165957 -0.074774556 0)
(1.0120308 -0.080169836 0)
(0.49180746 0.00017382273 0)
(0.4915678 0.00032403112 0)
(0.49131365 0.00029243074 0)
(0.4910382 0.00039361607 0)
(0.49067192 0.00041338671 0)
(0.49031704 0.00048283373 0)
(0.48987238 0.00052394895 0)
(0.48943261 0.00057864878 0)
(0.48892005 0.00062563628 0)
(0.48840184 0.00067329364 0)
(0.48782818 0.00071928776 0)
(0.48724278 0.00076177306 0)
(0.48661716 0.00080310482 0)
(0.48597947 0.00083937935 0)
(0.48531569 0.00087301845 0)
(0.48464495 0.00090036954 0)
(0.48396268 0.00092276805 0)
(0.48328344 0.00093722831 0)
(0.48260902 0.00094440287 0)
(0.48195229 0.00094221739 0)
(0.48131987 0.00093088935 0)
(0.48072552 0.00090870341 0)
(0.48018024 0.00087498695 0)
(0.47969819 0.00082648784 0)
(0.47929246 0.00076107411 0)
(0.47897737 0.00067903348 0)
(0.47877061 0.00058355168 0)
(0.47869947 0.00047628138 0)
(0.47878941 0.00034039699 0)
(0.47905235 0.00016289184 0)
(0.4795138 -3.2983997e-05 0)
(0.48013393 -0.00023174132 0)
(0.48092034 -0.00043071732 0)
(0.48189523 -0.00063201236 0)
(0.48307095 -0.00084246253 0)
(0.4844596 -0.0010603403 0)
(0.48606887 -0.0012856146 0)
(0.48790494 -0.001517503 0)
(0.48997227 -0.001755119 0)
(0.49227375 -0.001997208 0)
(0.49481066 -0.0022423827 0)
(0.49758258 -0.0024891459 0)
(0.50058738 -0.0027359853 0)
(0.50382121 -0.0029813822 0)
(0.50727856 -0.0032238645 0)
(0.51095232 -0.0034620146 0)
(0.51483393 -0.0036944952 0)
(0.5189135 -0.0039200595 0)
(0.52317997 -0.0041375581 0)
(0.52762127 -0.0043459437 0)
(0.53222449 -0.004544262 0)
(0.53697605 -0.0047316438 0)
(0.54186183 -0.0049072879 0)
(0.54686732 -0.0050704401 0)
(0.55197773 -0.0052203699 0)
(0.55717802 -0.0053563501 0)
(0.562453 -0.0054776322 0)
(0.56778734 -0.0055834321 0)
(0.57316555 -0.0056729226 0)
(0.57857201 -0.0057452344 0)
(0.58399093 -0.0057994718 0)
(0.58940638 -0.0058347443 0)
(0.59480232 -0.0058502076 0)
(0.60016264 -0.0058451212 0)
(0.60547129 -0.0058189137 0)
(0.61071243 -0.0057712551 0)
(0.61587064 -0.005702126 0)
(0.62093119 -0.0056118843 0)
(0.62588029 -0.0055013183 0)
(0.63070547 -0.0053716848 0)
(0.63539589 -0.0052247237 0)
(0.63994268 -0.005062659 0)
(0.64433929 -0.0048881685 0)
(0.64858176 -0.0047043466 0)
(0.65266898 -0.004514643 0)
(0.65660293 -0.0043228014 0)
(0.66038878 -0.0041327797 0)
(0.66403501 -0.0039486902 0)
(0.66755347 -0.0037747149 0)
(0.67095932 -0.0036150628 0)
(0.67427099 -0.0034738897 0)
(0.67751005 -0.0033552834 0)
(0.68070109 -0.0032631857 0)
(0.68387151 -0.0032014158 0)
(0.68705134 -0.0031736115 0)
(0.69027299 -0.003183262 0)
(0.69357104 -0.0032336665 0)
(0.69698201 -0.003328 0)
(0.70054412 -0.0034692822 0)
(0.70429705 -0.0036604852 0)
(0.70828181 -0.0039045124 0)
(0.71254046 -0.0042043552 0)
(0.71711608 -0.0045630827 0)
(0.72205246 -0.0049840661 0)
(0.72739422 -0.0054709647 0)
(0.73318641 -0.0060280697 0)
(0.7394749 -0.0066602091 0)
(0.74630562 -0.0073733197 0)
(0.75372553 -0.0081742006 0)
(0.76178106 -0.0090715336 0)
(0.77052007 -0.010075271 0)
(0.77998849 -0.011198556 0)
(0.79023444 -0.012456246 0)
(0.80130091 -0.01386867 0)
(0.81323419 -0.015458098 0)
(0.82606818 -0.017256164 0)
(0.83984197 -0.019295479 0)
(0.85456608 -0.021624292 0)
(0.87026056 -0.024286642 0)
(0.88688222 -0.027351476 0)
(0.90441007 -0.030866193 0)
(0.92268797 -0.034916014 0)
(0.94162286 -0.039517375 0)
(0.96083901 -0.044746436 0)
(0.9801523 -0.050498131 0)
(0.99878162 -0.05678959 0)
(1.0165205 -0.063201839 0)
(1.0318338 -0.069671019 0)
(1.0448591 -0.07504032 0)
(1.0525443 -0.079419348 0)
(1.0565412 -0.079583595 0)
(1.0507334 -0.077523986 0)
(1.0403434 -0.06258457 0)
(1.0190176 -0.047404798 0)
(0.64960405 0.00024362571 0)
(0.64942882 0.00048852032 0)
(0.64918768 0.00046316072 0)
(0.64896009 0.00060840239 0)
(0.64863051 0.00064707178 0)
(0.6483257 0.00074732505 0)
(0.64793883 0.00080962114 0)
(0.64756385 0.00088919088 0)
(0.64713041 0.00095610647 0)
(0.64669919 0.0010239393 0)
(0.64622936 0.0010864851 0)
(0.64575903 0.0011438677 0)
(0.6452671 0.0011964834 0)
(0.64477831 0.0012410358 0)
(0.64428417 0.0012788487 0)
(0.64380235 0.0013063572 0)
(0.64333254 0.0013242986 0)
(0.64288965 0.0013295387 0)
(0.64247914 0.0013217101 0)
(0.64211512 0.0012977389 0)
(0.6418068 0.0012556305 0)
(0.64156841 0.0011920604 0)
(0.64141168 0.0011064063 0)
(0.64135231 0.0009981074 0)
(0.64140931 0.00086718976 0)
(0.64160471 0.00071023495 0)
(0.64195801 0.00051398513 0)
(0.64247876 0.00027058814 0)
(0.64318987 1.0376565e-08 0)
(0.64405685 -0.00028777271 0)
(0.64506949 -0.00058472029 0)
(0.64626404 -0.00088963047 0)
(0.64765471 -0.0012157849 0)
(0.64926258 -0.001560473 0)
(0.65109649 -0.0019201558 0)
(0.65316416 -0.0022930599 0)
(0.65547174 -0.0026774714 0)
(0.65802301 -0.0030714879 0)
(0.66082007 -0.0034729664 0)
(0.66386298 -0.0038794311 0)
(0.66715002 -0.0042882534 0)
(0.67067759 -0.0046966826 0)
(0.67444026 -0.0051019662 0)
(0.67843089 -0.0055013832 0)
(0.68264066 -0.0058923252 0)
(0.68705924 -0.0062723267 0)
(0.69167497 -0.0066391105 0)
(0.69647498 -0.0069906115 0)
(0.70144541 -0.0073249921 0)
(0.70657162 -0.0076406482 0)
(0.71183831 -0.0079361964 0)
(0.7172297 -0.0082104561 0)
(0.72272972 -0.0084624175 0)
(0.72832205 -0.008691203 0)
(0.7339903 -0.0088960239 0)
(0.73971797 -0.0090761381 0)
(0.74548861 -0.0092308086 0)
(0.75128573 -0.0093592742 0)
(0.75709291 -0.009460732 0)
(0.76289374 -0.0095343378 0)
(0.76867188 -0.0095792262 0)
(0.77441111 -0.0095945556 0)
(0.78009535 -0.0095795692 0)
(0.78570878 -0.0095336787 0)
(0.79123602 -0.0094565571 0)
(0.79666223 -0.0093482419 0)
(0.80197338 -0.0092092315 0)
(0.80715645 -0.0090405759 0)
(0.81219972 -0.0088439461 0)
(0.81709304 -0.008621683 0)
(0.82182808 -0.0083768118 0)
(0.82639862 -0.0081130356 0)
(0.8308008 -0.0078346883 0)
(0.83503329 -0.0075466764 0)
(0.83909751 -0.0072543839 0)
(0.84299772 -0.0069635843 0)
(0.84674114 -0.0066803182 0)
(0.85033792 -0.0064108041 0)
(0.85380115 -0.0061613091 0)
(0.85714677 -0.0059380842 0)
(0.86039345 -0.0057472366 0)
(0.86356238 -0.0055947055 0)
(0.86667711 -0.0054861489 0)
(0.86976324 -0.0054269407 0)
(0.87284815 -0.0054220731 0)
(0.87596076 -0.0054761981 0)
(0.87913111 -0.0055935573 0)
(0.88239008 -0.0057780662 0)
(0.88576902 -0.00603326 0)
(0.88929943 -0.0063624221 0)
(0.89301259 -0.0067685426 0)
(0.89693919 -0.0072544948 0)
(0.90110907 -0.0078229999 0)
(0.90555076 -0.0084768586 0)
(0.91029131 -0.0092189098 0)
(0.91535577 -0.010052354 0)
(0.92076715 -0.010980667 0)
(0.92654559 -0.012008139 0)
(0.93270871 -0.013139637 0)
(0.93927012 -0.014381518 0)
(0.94624039 -0.015741081 0)
(0.95362432 -0.017228275 0)
(0.96142318 -0.018854364 0)
(0.96962917 -0.020635215 0)
(0.97823048 -0.022588073 0)
(0.98719969 -0.024737882 0)
(0.99650508 -0.027109482 0)
(1.006086 -0.029739769 0)
(1.0158783 -0.032659038 0)
(1.0257621 -0.035914813 0)
(1.0356212 -0.039528491 0)
(1.04523 -0.043544737 0)
(1.0543983 -0.047933876 0)
(1.0627219 -0.05270407 0)
(1.0699416 -0.057684263 0)
(1.0753713 -0.062803892 0)
(1.0787982 -0.067588546 0)
(1.0791056 -0.071917723 0)
(1.0765344 -0.074695218 0)
(1.0693042 -0.076113394 0)
(1.0590586 -0.073480915 0)
(1.0434704 -0.068835619 0)
(1.0261555 -0.05414046 0)
(1.0099685 -0.037787715 0)
(0.77684842 0.00027943462 0)
(0.77681858 0.00061324742 0)
(0.77665592 0.00059281744 0)
(0.77656634 0.00077472466 0)
(0.77636195 0.00082718418 0)
(0.7762106 0.00094994756 0)
(0.77598581 0.001025602 0)
(0.77579166 0.0011206759 0)
(0.77555603 0.0011977539 0)
(0.77534022 0.0012751075 0)
(0.77510656 0.0013428694 0)
(0.7748918 0.0014031693 0)
(0.77467867 0.0014543619 0)
(0.7744909 0.0014938445 0)
(0.77432322 0.0015215017 0)
(0.77419299 0.001533606 0)
(0.77410223 0.0015293117 0)
(0.77406533 0.0015046566 0)
(0.77408887 0.0014587155 0)
(0.77418624 0.0013884447 0)
(0.77436751 0.0012930472 0)
(0.77464871 0.0011700833 0)
(0.77504465 0.0010174732 0)
(0.77557059 0.00082704415 0)
(0.77623823 0.00059122418 0)
(0.7770583 0.00031036064 0)
(0.77804071 -3.0055884e-06 0)
(0.77916039 -0.00034544935 0)
(0.78040665 -0.00070975116 0)
(0.78181473 -0.0010913391 0)
(0.78339769 -0.0015065054 0)
(0.78517922 -0.0019556651 0)
(0.78716887 -0.0024297894 0)
(0.78937197 -0.0029262436 0)
(0.79179481 -0.0034427994 0)
(0.79444188 -0.0039761248 0)
(0.79731571 -0.00452339 0)
(0.80041699 -0.0050812219 0)
(0.80374445 -0.0056461882 0)
(0.80729512 -0.0062145294 0)
(0.81106433 -0.0067823863 0)
(0.81504584 -0.0073458159 0)
(0.81923188 -0.0079009298 0)
(0.8236133 -0.0084439482 0)
(0.82817966 -0.0089712949 0)
(0.8329194 -0.0094796423 0)
(0.8378199 -0.0099659658 0)
(0.84286774 -0.010427571 0)
(0.84804873 -0.010862106 0)
(0.85334811 -0.011267565 0)
(0.85875062 -0.01164226 0)
(0.86424066 -0.011984794 0)
(0.8698023 -0.012294011 0)
(0.87541943 -0.012568941 0)
(0.88107573 -0.012808744 0)
(0.88675479 -0.013012654 0)
(0.89244008 -0.013179926 0)
(0.89811502 -0.013309806 0)
(0.90376304 -0.013401514 0)
(0.90936757 -0.013454252 0)
(0.9149122 -0.013467233 0)
(0.92038068 -0.013439747 0)
(0.92575711 -0.013371241 0)
(0.93102608 -0.013261422 0)
(0.93617279 -0.013110374 0)
(0.9411833 -0.012918678 0)
(0.94604468 -0.012687525 0)
(0.95074529 -0.012418817 0)
(0.95527494 -0.012115245 0)
(0.95962511 -0.011780331 0)
(0.96378918 -0.01141844 0)
(0.96776258 -0.011034757 0)
(0.97154294 -0.010635224 0)
(0.97513024 -0.010226457 0)
(0.97852687 -0.0098156191 0)
(0.98173769 -0.0094103113 0)
(0.98477004 -0.0090184082 0)
(0.98763369 -0.0086479434 0)
(0.99034077 -0.00830694 0)
(0.99290563 -0.0080033193 0)
(0.99534469 -0.0077447319 0)
(0.99767622 -0.0075385181 0)
(0.9999201 -0.0073915281 0)
(1.0020976 -0.0073101593 0)
(1.0042309 -0.0073002247 0)
(1.006343 -0.0073669832 0)
(1.0084571 -0.0075150435 0)
(1.0105965 -0.0077484551 0)
(1.0127842 -0.0080706267 0)
(1.0150422 -0.0084844771 0)
(1.0173915 -0.0089923705 0)
(1.0198518 -0.0095963203 0)
(1.0224407 -0.010297945 0)
(1.025174 -0.011098728 0)
(1.0280648 -0.011999996 0)
(1.0311235 -0.013003277 0)
(1.0343575 -0.014110171 0)
(1.0377707 -0.015322867 0)
(1.0413635 -0.016643904 0)
(1.0451319 -0.018076991 0)
(1.0490678 -0.019626465 0)
(1.0531575 -0.021298691 0)
(1.0573826 -0.023100782 0)
(1.0617162 -0.025043201 0)
(1.0661263 -0.027136699 0)
(1.0705668 -0.029397269 0)
(1.0749859 -0.031838928 0)
(1.0793071 -0.034483366 0)
(1.0834484 -0.037343183 0)
(1.0872832 -0.040441372 0)
(1.0906871 -0.043773269 0)
(1.0934537 -0.047348539 0)
(1.0954123 -0.051106301 0)
(1.0962415 -0.055013868 0)
(1.0957618 -0.058876324 0)
(1.0935033 -0.062588815 0)
(1.0894246 -0.065684673 0)
(1.082868 -0.068026807 0)
(1.074281 -0.068608833 0)
(1.0627436 -0.067583178 0)
(1.0497372 -0.062710077 0)
(1.0343382 -0.055578389 0)
(1.0187185 -0.041050884 0)
(1.006366 -0.024403124 0)
(0.87391201 0.00024217262 0)
(0.8741033 0.00063703427 0)
(0.87407058 0.0006151277 0)
(0.87418924 0.00081816302 0)
(0.8741758 0.00087457812 0)
(0.87425159 0.0010066118 0)
(0.8742614 0.0010838568 0)
(0.8743254 0.0011810565 0)
(0.87436454 0.0012548402 0)
(0.8744441 0.0013271861 0)
(0.87452621 0.001384883 0)
(0.87464806 0.0014317769 0)
(0.87479373 0.0014641433 0)
(0.87498646 0.0014800897 0)
(0.87522223 0.0014782578 0)
(0.87551755 0.0014553242 0)
(0.87587517 0.001410302 0)
(0.87630965 0.0013399311 0)
(0.87682854 0.0012423833 0)
(0.87744518 0.0011139739 0)
(0.87816871 0.00094939134 0)
(0.87901006 0.00074267927 0)
(0.87997648 0.00049263666 0)
(0.88108032 0.00020219549 0)
(0.88231151 -0.00012456481 0)
(0.88366225 -0.00048883937 0)
(0.88512941 -0.00088309344 0)
(0.88674158 -0.0013058199 0)
(0.88850747 -0.0017711292 0)
(0.89044746 -0.0022814207 0)
(0.89257011 -0.002826758 0)
(0.89487649 -0.0034036963 0)
(0.89737031 -0.0040112118 0)
(0.90005598 -0.0046450642 0)
(0.90293492 -0.0053010629 0)
(0.90600761 -0.0059749659 0)
(0.90927285 -0.0066625183 0)
(0.91272793 -0.0073592901 0)
(0.91636874 -0.0080607084 0)
(0.92018982 -0.0087620202 0)
(0.92418453 -0.0094584137 0)
(0.92834513 -0.010145079 0)
(0.93266286 -0.010817323 0)
(0.93712805 -0.011470641 0)
(0.9417302 -0.012100806 0)
(0.94645808 -0.012703915 0)
(0.95129976 -0.013276444 0)
(0.95624272 -0.013815268 0)
(0.96127388 -0.014317671 0)
(0.96637965 -0.014781331 0)
(0.97154599 -0.015204297 0)
(0.97675839 -0.015584945 0)
(0.98200196 -0.015921921 0)
(0.98726141 -0.016214086 0)
(0.99252108 -0.016460453 0)
(0.997765 -0.016660131 0)
(1.0029769 -0.016812283 0)
(1.0081405 -0.016916101 0)
(1.013239 -0.016970794 0)
(1.018256 -0.016975619 0)
(1.0231751 -0.016929922 0)
(1.0279801 -0.016833216 0)
(1.0326554 -0.016685276 0)
(1.0371859 -0.016486256 0)
(1.0415575 -0.016236813 0)
(1.0457571 -0.01593823 0)
(1.0497728 -0.015592535 0)
(1.0535941 -0.015202593 0)
(1.0572124 -0.014772177 0)
(1.0606204 -0.014306003 0)
(1.0638131 -0.013809723 0)
(1.0667874 -0.013289891 0)
(1.0695421 -0.012753873 0)
(1.0720783 -0.012209751 0)
(1.0743992 -0.011666171 0)
(1.0765102 -0.01113221 0)
(1.0784186 -0.010617184 0)
(1.0801338 -0.010130517 0)
(1.0816672 -0.0096815322 0)
(1.0830317 -0.0092793568 0)
(1.0842418 -0.0089327008 0)
(1.0853135 -0.0086498305 0)
(1.0862638 -0.0084383752 0)
(1.0871103 -0.0083053084 0)
(1.0878715 -0.00825676 0)
(1.0885657 -0.0082980865 0)
(1.0892113 -0.0084337325 0)
(1.0898264 -0.0086673638 0)
(1.090428 -0.0090017495 0)
(1.0910323 -0.0094389564 0)
(1.0916538 -0.0099802558 0)
(1.0923055 -0.010626372 0)
(1.0929984 -0.011377409 0)
(1.093741 -0.012233141 0)
(1.0945394 -0.013192957 0)
(1.0953969 -0.014256176 0)
(1.096314 -0.015421999 0)
(1.0972878 -0.016690001 0)
(1.098312 -0.018059946 0)
(1.0993766 -0.019532468 0)
(1.1004677 -0.021108641 0)
(1.1015666 -0.022791158 0)
(1.1026505 -0.024583233 0)
(1.1036894 -0.026490707 0)
(1.104649 -0.028519404 0)
(1.1054838 -0.030679023 0)
(1.1061438 -0.032976854 0)
(1.1065597 -0.035425304 0)
(1.1066596 -0.03802736 0)
(1.1063381 -0.040792086 0)
(1.1054962 -0.043702023 0)
(1.1039754 -0.046748081 0)
(1.1016566 -0.049857651 0)
(1.0983127 -0.052980449 0)
(1.0938496 -0.05592717 0)
(1.0879638 -0.058594144 0)
(1.080717 -0.060575272 0)
(1.0717271 -0.061774985 0)
(1.0614712 -0.061375415 0)
(1.0495092 -0.059567448 0)
(1.0370282 -0.054613446 0)
(1.0239769 -0.047729049 0)
(1.0116573 -0.035225599 0)
(1.0034079 -0.020185722 0)
(0.9441332 0.00011473738 0)
(0.94458408 0.00053787761 0)
(0.94470437 0.0005121246 0)
(0.94506599 0.00072133203 0)
(0.94527122 0.0007726513 0)
(0.94560482 0.00090146724 0)
(0.94587547 0.00096911092 0)
(0.94622376 0.0010559484 0)
(0.94655989 0.0011142342 0)
(0.94695523 0.0011688415 0)
(0.94736941 0.0012039489 0)
(0.94784103 0.001224961 0)
(0.94835412 0.0012265622 0)
(0.94893197 0.0012076635 0)
(0.94957097 0.0011657855 0)
(0.95028733 0.0010977296 0)
(0.95108372 0.0010002098 0)
(0.95197202 0.00086842085 0)
(0.95295777 0.00070049271 0)
(0.95405046 0.00049321157 0)
(0.95525761 0.000247167 0)
(0.95657575 -3.7643142e-05 0)
(0.95800294 -0.00036370152 0)
(0.95953591 -0.00072864189 0)
(0.96118821 -0.0011292757 0)
(0.96297112 -0.0015699651 0)
(0.96489318 -0.0020594184 0)
(0.96696818 -0.0025987266 0)
(0.9692016 -0.0031799773 0)
(0.97159169 -0.0038002845 0)
(0.97413913 -0.0044600234 0)
(0.97684644 -0.0051561115 0)
(0.97971306 -0.0058828584 0)
(0.98273734 -0.0066357693 0)
(0.98591701 -0.0074100528 0)
(0.9892488 -0.0082006479 0)
(0.99272846 -0.0090025484 0)
(0.99635076 -0.0098104835 0)
(1.0001096 -0.010619157 0)
(1.003998 -0.011423144 0)
(1.0080084 -0.012217041 0)
(1.0121328 -0.012995509 0)
(1.0163623 -0.013753374 0)
(1.0206879 -0.014485701 0)
(1.0251001 -0.015187862 0)
(1.0295887 -0.015855583 0)
(1.0341433 -0.016484987 0)
(1.0387529 -0.017072607 0)
(1.0434061 -0.017615388 0)
(1.0480909 -0.018110673 0)
(1.0527949 -0.018556173 0)
(1.0575049 -0.018949924 0)
(1.0622073 -0.019290238 0)
(1.0668878 -0.019575653 0)
(1.0715316 -0.019804876 0)
(1.0761234 -0.019976751 0)
(1.0806476 -0.020090222 0)
(1.085088 -0.020144328 0)
(1.0894285 -0.020138215 0)
(1.0936528 -0.020071174 0)
(1.0977449 -0.019942701 0)
(1.1016892 -0.019752591 0)
(1.1054706 -0.019501035 0)
(1.1090748 -0.019188743 0)
(1.1124887 -0.018817069 0)
(1.1157003 -0.018388128 0)
(1.1186991 -0.017904904 0)
(1.121476 -0.017371333 0)
(1.1240239 -0.016792352 0)
(1.1263373 -0.016173929 0)
(1.1284129 -0.015523021 0)
(1.130249 -0.014847534 0)
(1.131846 -0.014156208 0)
(1.1332064 -0.013458503 0)
(1.1343346 -0.012764421 0)
(1.1352366 -0.012084365 0)
(1.1359205 -0.011428915 0)
(1.1363959 -0.010808688 0)
(1.1366739 -0.010234102 0)
(1.136767 -0.0097152654 0)
(1.136689 -0.0092617334 0)
(1.1364544 -0.0088824766 0)
(1.1360786 -0.0085855522 0)
(1.1355775 -0.0083782355 0)
(1.1349673 -0.0082668166 0)
(1.1342639 -0.0082566266 0)
(1.133483 -0.0083518816 0)
(1.1326398 -0.0085558348 0)
(1.1317484 -0.008870623 0)
(1.1308216 -0.0092975068 0)
(1.129871 -0.0098367369 0)
(1.1289065 -0.01048785 0)
(1.127936 -0.011249572 0)
(1.1269655 -0.012120145 0)
(1.1259987 -0.01309733 0)
(1.1250369 -0.014178847 0)
(1.124079 -0.015362157 0)
(1.123121 -0.016644988 0)
(1.1221565 -0.018025095 0)
(1.1211758 -0.019500958 0)
(1.1201666 -0.021071332 0)
(1.1191126 -0.022736188 0)
(1.1179947 -0.024495711 0)
(1.1167883 -0.026351925 0)
(1.1154656 -0.028306293 0)
(1.1139905 -0.030362716 0)
(1.1123235 -0.03252202 0)
(1.1104111 -0.034787872 0)
(1.1081989 -0.03715435 0)
(1.1056075 -0.039618631 0)
(1.1025664 -0.042153438 0)
(1.0989618 -0.044736677 0)
(1.0947188 -0.047290539 0)
(1.0896836 -0.0497559 0)
(1.0838207 -0.051953863 0)
(1.0769382 -0.05378148 0)
(1.0691408 -0.054876317 0)
(1.0602017 -0.055145332 0)
(1.0505315 -0.053893111 0)
(1.039901 -0.051261251 0)
(1.0291427 -0.045926207 0)
(1.0184468 -0.038813623 0)
(1.0085179 -0.027733545 0)
(1.0022186 -0.014808267 0)
(0.99239111 -0.0001139745 0)
(0.99310443 0.00030066056 0)
(0.99337101 0.00026307377 0)
(0.99397049 0.00046226927 0)
(0.99438399 0.00050039628 0)
(0.99496457 0.00061488027 0)
(0.99548063 0.00066420707 0)
(0.99609575 0.00073071983 0)
(0.99670684 0.0007642045 0)
(0.9973927 0.00079105609 0)
(0.99810877 0.00079346346 0)
(0.99889564 0.0007777232 0)
(0.99973604 0.00073701177 0)
(1.0006532 0.00067061945 0)
(1.0016428 0.0005751549 0)
(1.0027195 0.00044776529 0)
(1.0038853 0.00028708921 0)
(1.0051458 9.0931225e-05 0)
(1.0065007 -0.00014306638 0)
(1.0079547 -0.00041764415 0)
(1.0095065 -0.00073152312 0)
(1.0111679 -0.0010846607 0)
(1.012945 -0.0014796058 0)
(1.0148441 -0.0019220305 0)
(1.0168729 -0.0024154795 0)
(1.0190385 -0.0029579786 0)
(1.0213426 -0.0035457924 0)
(1.0237823 -0.0041772919 0)
(1.0263568 -0.0048535999 0)
(1.0290664 -0.0055728334 0)
(1.0319088 -0.0063296049 0)
(1.0348794 -0.0071196425 0)
(1.037974 -0.0079386625 0)
(1.0411882 -0.0087814584 0)
(1.0445164 -0.0096426926 0)
(1.0479529 -0.010516825 0)
(1.0514911 -0.011398274 0)
(1.0551244 -0.012281374 0)
(1.0588454 -0.013160435 0)
(1.0626468 -0.014029749 0)
(1.0665209 -0.014883667 0)
(1.07046 -0.01571665 0)
(1.0744562 -0.01652334 0)
(1.0785014 -0.017298619 0)
(1.0825874 -0.018037661 0)
(1.0867058 -0.018735972 0)
(1.0908479 -0.019389417 0)
(1.0950044 -0.019994229 0)
(1.0991656 -0.020547015 0)
(1.1033214 -0.021044738 0)
(1.1074607 -0.021484697 0)
(1.1115719 -0.021864492 0)
(1.1156428 -0.022181995 0)
(1.1196602 -0.022435311 0)
(1.1236104 -0.022622749 0)
(1.1274789 -0.022742805 0)
(1.1312509 -0.022794153 0)
(1.134911 -0.022775656 0)
(1.1384439 -0.022686405 0)
(1.1418342 -0.022525765 0)
(1.1450665 -0.022293455 0)
(1.1481263 -0.021989642 0)
(1.1509995 -0.021615044 0)
(1.153673 -0.02117105 0)
(1.1561351 -0.020659828 0)
(1.1583751 -0.020084438 0)
(1.1603841 -0.019448914 0)
(1.1621549 -0.01875833 0)
(1.1636818 -0.018018827 0)
(1.1649612 -0.01723762 0)
(1.1659913 -0.016422936 0)
(1.1667722 -0.015583952 0)
(1.1673059 -0.014730658 0)
(1.1675962 -0.013873737 0)
(1.1676486 -0.013024357 0)
(1.1674702 -0.012194029 0)
(1.1670698 -0.011394357 0)
(1.1664576 -0.010636898 0)
(1.1656448 -0.0099328871 0)
(1.164644 -0.0092931634 0)
(1.1634686 -0.0087278281 0)
(1.1621329 -0.0082462869 0)
(1.1606516 -0.0078570199 0)
(1.1590397 -0.0075675387 0)
(1.1573121 -0.0073840559 0)
(1.1554839 -0.0073116717 0)
(1.1535696 -0.0073541397 0)
(1.1515829 -0.0075141155 0)
(1.1495369 -0.0077929381 0)
(1.1474435 -0.0081909585 0)
(1.1453131 -0.0087073522 0)
(1.1431549 -0.0093405183 0)
(1.1409764 -0.010087927 0)
(1.138783 -0.010946552 0)
(1.1365782 -0.011912767 0)
(1.1343638 -0.012982618 0)
(1.1321393 -0.014151852 0)
(1.129902 -0.015416467 0)
(1.1276473 -0.016772521 0)
(1.1253678 -0.018216639 0)
(1.1230539 -0.01974567 0)
(1.1206932 -0.021357524 0)
(1.1182706 -0.02305026 0)
(1.1157671 -0.024823397 0)
(1.1131608 -0.026675847 0)
(1.1104235 -0.028608223 0)
(1.1075246 -0.030618105 0)
(1.1044224 -0.03270466 0)
(1.1010756 -0.034858023 0)
(1.0974235 -0.037069594 0)
(1.0934147 -0.039308718 0)
(1.0889643 -0.041547715 0)
(1.0840223 -0.04371057 0)
(1.0784778 -0.045737293 0)
(1.072319 -0.047466945 0)
(1.065414 -0.048807051 0)
(1.0578672 -0.049450265 0)
(1.0495432 -0.049322111 0)
(1.040781 -0.047860605 0)
(1.0315146 -0.045177603 0)
(1.0223689 -0.040263376 0)
(1.013734 -0.033750418 0)
(1.0060325 -0.024146606 0)
(1.0014113 -0.012700766 0)
(1.0239353 -0.00043771194 0)
(1.0249006 -5.7460895e-05 0)
(1.0252891 -0.00010481025 0)
(1.0260968 7.2647929e-05 0)
(1.0266841 9.1499817e-05 0)
(1.0274736 0.00018256984 0)
(1.0281932 0.00020601067 0)
(1.0290299 0.00024382572 0)
(1.0298665 0.0002448119 0)
(1.0307893 0.00023621062 0)
(1.0317484 0.00019901711 0)
(1.0327862 0.00014039721 0)
(1.0338824 5.2724708e-05 0)
(1.0350592 -6.3946813e-05 0)
(1.0363095 -0.00021329781 0)
(1.0376458 -0.00039737843 0)
(1.0390661 -0.00061736353 0)
(1.0405816 -0.00087477741 0)
(1.0421958 -0.001172033 0)
(1.0439152 -0.0015116061 0)
(1.0457439 -0.0018972628 0)
(1.0476885 -0.0023322179 0)
(1.0497537 -0.0028158677 0)
(1.0519426 -0.0033472421 0)
(1.0542542 -0.0039253897 0)
(1.056687 -0.0045504358 0)
(1.0592397 -0.005223248 0)
(1.0619112 -0.0059422047 0)
(1.0646978 -0.0067029184 0)
(1.0675935 -0.0075018643 0)
(1.0705924 -0.0083356013 0)
(1.0736886 -0.0091996668 0)
(1.0768751 -0.01008859 0)
(1.0801448 -0.010997011 0)
(1.0834903 -0.011919299 0)
(1.0869042 -0.012849744 0)
(1.0903788 -0.013782642 0)
(1.0939067 -0.01471223 0)
(1.0974805 -0.015632789 0)
(1.1010929 -0.016538614 0)
(1.1047369 -0.017424087 0)
(1.1084056 -0.018283699 0)
(1.1120923 -0.019112102 0)