/*--------------------------------*- C++ -*----------------------------------*\
| =========                 |                                                 |
| \\      /  F ield         | foam-extend: Open Source CFD                    |
|  \\    /   O peration     | Version:     4.1                                |
|   \\  /    A nd           | Web:         http://www.foam-extend.org         |
|    \\/     M anipulation  |                                                 |
\*---------------------------------------------------------------------------*/
FoamFile
{
    version     2.0;
    format      ascii;
    class       volScalarField;
    location    "0.9";
    object      p;
}
// * * * * * * * * * * * * * * * * * * * * * * * * * * * * * * * * * * * * * //

dimensions      [0 2 -2 0 0 0 0];

internalField   nonuniform List<scalar> 
16796
(
-0.00078465656
-1.9885391e-05
-0.00082134289
-0.00057891956
-0.0010414013
-0.0010398026
-0.0013581723
-0.001473428
-0.0017373321
-0.0019162479
-0.002168312
-0.0023895869
-0.0026515372
-0.0029083548
-0.0031927521
-0.0034849967
-0.0038005135
-0.0041312951
-0.0044850901
-0.0048591923
-0.0052579736
-0.0056811513
-0.0061316378
-0.0066102792
-0.0071193747
-0.0076603074
-0.0082351227
-0.0088454582
-0.009493236
-0.0101802
-0.010908161
-0.011678872
-0.012494003
-0.013355185
-0.014263901
-0.015221536
-0.016229275
-0.017288127
-0.018398838
-0.01956188
-0.020777396
-0.022045123
-0.023364406
-0.024734049
-0.026152351
-0.027616968
-0.029124912
-0.030672451
-0.032255071
-0.033867416
-0.035503238
-0.037155349
-0.038815598
-0.040474836
-0.04212291
-0.043748672
-0.045339999
-0.046883837
-0.048366273
-0.049772621
-0.051087534
-0.052295159
-0.053379284
-0.054323553
-0.055111652
-0.055727574
-0.056155834
-0.056381761
-0.056391728
-0.05617346
-0.055716228
-0.055011159
-0.054051373
-0.052832286
-0.051351656
-0.049609653
-0.04760905
-0.045355086
-0.042855553
-0.040120605
-0.037162704
-0.033996372
-0.030638047
-0.027105771
-0.023418995
-0.019598214
-0.015664763
-0.01164042
-0.0075472196
-0.0034070422
0.00075853139
0.0049285978
0.0090830444
0.013202863
0.017270212
0.021268653
0.02518316
0.029000269
0.032708023
0.036296052
0.039755471
0.043078877
0.046260235
0.049294805
0.052179029
0.054910399
0.057487398
0.059909245
0.062176028
0.064288159
0.066246969
0.068053447
0.069710043
0.071217464
0.072579681
0.073795557
0.074872311
0.07580341
0.076604437
0.077254564
0.077791718
0.078157616
0.078449792
0.078513709
-0.00078297297
-1.9738523e-05
-0.00081949334
-0.00057751759
-0.0010390026
-0.0010373606
-0.0013550339
-0.0014700133
-0.00173334
-0.0019118583
-0.0021633805
-0.0023841846
-0.002645589
-0.0029018819
-0.00318571
-0.0034773839
-0.003792299
-0.0041224674
-0.0044756247
-0.0048490743
-0.0052471827
-0.0056696727
-0.0061194559
-0.0065973824
-0.0071057532
-0.0076459556
-0.008220039
-0.0088296462
-0.0094767054
-0.010162967
-0.01089025
-0.011660318
-0.012474849
-0.013335487
-0.014243727
-0.015200968
-0.016208412
-0.017267084
-0.01837775
-0.019540899
-0.020756697
-0.022024904
-0.023344885
-0.024715471
-0.026134983
-0.027601103
-0.029110864
-0.030660558
-0.032245693
-0.033860928
-0.035500032
-0.03715583
-0.038820174
-0.040483919
-0.042136904
-0.043767968
-0.045364967
-0.046914817
-0.048403562
-0.04981647
-0.051138133
-0.052352628
-0.053443667
-0.054394807
-0.055189642
-0.055812064
-0.056246488
-0.05647814
-0.056493288
-0.056279562
-0.055826134
-0.055124055
-0.054166379
-0.052948558
-0.051468323
-0.049725804
-0.047723757
-0.045467407
-0.042964555
-0.04022537
-0.037262353
-0.034090078
-0.030725051
-0.027185398
-0.023490666
-0.019661459
-0.015719231
-0.011685876
-0.0075835565
-0.0034342695
0.00074028709
0.0049191069
0.0090819802
0.013209819
0.017284714
0.021290175
0.025211135
0.029034107
0.032747123
0.036339814
0.039803304
0.043130211
0.046314528
0.049351547
0.052237749
0.054970666
0.057548826
0.059971493
0.062238796
0.064351194
0.066310058
0.068116419
0.069772763
0.071279833
0.072641632
0.073857054
0.074933339
0.075863984
0.076664583
0.077314339
0.077851168
0.078216841
0.078508828
0.078572711
-0.00077961209
-1.9548193e-05
-0.0008158463
-0.00057482867
-0.0010342968
-0.001032606
-0.0013488839
-0.0014633381
-0.00172552
-0.0019032687
-0.0021537258
-0.0023736154
-0.002633954
-0.0028892296
-0.0031719527
-0.0034625237
-0.0037762771
-0.0041052659
-0.0044571991
-0.0048293999
-0.0052262249
-0.005647408
-0.0060958595
-0.0065724382
-0.007079449
-0.0076182887
-0.0081910144
-0.0087992806
-0.0094450274
-0.01013002
-0.010856094
-0.011625031
-0.012438529
-0.013298258
-0.014205737
-0.015162393
-0.01616946
-0.017227996
-0.018338802
-0.019502408
-0.020719018
-0.021988434
-0.023310067
-0.024682791
-0.026104972
-0.027574336
-0.029087961
-0.030642176
-0.032232527
-0.033853706
-0.035499507
-0.03716277
-0.038835358
-0.040508119
-0.04217088
-0.043812447
-0.045420631
-0.046982285
-0.048483378
-0.049909076
-0.05124386
-0.052471676
-0.05357609
-0.054540497
-0.055348319
-0.055983268
-0.056429569
-0.056672259
-0.056697416
-0.056492486
-0.056046465
-0.05535024
-0.054396711
-0.05318126
-0.051701543
-0.049957602
-0.047952166
-0.045690447
-0.043180275
-0.040431881
-0.037457861
-0.034272915
-0.030893712
-0.027338562
-0.02362723
-0.019780542
-0.015820203
-0.011768352
-0.0076474056
-0.0034795977
0.00071313909
0.004909594
0.0090893653
0.013233211
0.017323084
0.0213424
0.025276016
0.029110407
0.032833586
0.036435194
0.039906384
0.043239824
0.046429568
0.049470985
0.052360639
0.055096152
0.057676143
0.060099971
0.062367859
0.064480356
0.06643892
0.068244665
0.069900152
0.071406198
0.072766866
0.073981116
0.075056229
0.075985765
0.076785329
0.0774342
0.077970257
0.078335392
0.078626934
0.078690719
-0.00077458456
-1.9236406e-05
-0.00081036428
-0.00057076512
-0.0010272137
-0.0010254397
-0.0013396249
-0.0014532838
-0.0017137454
-0.0018903322
-0.0021391857
-0.002357695
-0.0026164261
-0.0028701649
-0.0031512188
-0.0034401218
-0.0037521174
-0.0040793192
-0.004429397
-0.0047997028
-0.0051945783
-0.005613774
-0.0060601978
-0.0065347215
-0.0070396557
-0.0075764106
-0.0081470553
-0.0087532613
-0.0093969864
-0.010080018
-0.010804215
-0.011571387
-0.012383264
-0.01324155
-0.014147804
-0.015103495
-0.016109902
-0.017168136
-0.018279051
-0.019443235
-0.020660956
-0.021932078
-0.023256079
-0.024631902
-0.026057982
-0.027532113
-0.029051439
-0.030612353
-0.032210459
-0.033840498
-0.035496303
-0.037170746
-0.038855702
-0.040542016
-0.042219493
-0.043876896
-0.045501968
-0.047081471
-0.048601251
-0.050046331
-0.051401018
-0.052649059
-0.053773793
-0.054758372
-0.055585951
-0.056239965
-0.056704349
-0.056963849
-0.057004253
-0.056812729
-0.056378
-0.055690724
-0.054743571
-0.053531828
-0.052053044
-0.050307139
-0.048296796
-0.046027206
-0.043506239
-0.040744208
-0.037753847
-0.034550043
-0.031149701
-0.027571403
-0.023835237
-0.019962367
-0.015974872
-0.011895259
-0.0077463283
-0.0035506738
0.00066941673
0.0048924229
0.0090976514
0.013265625
0.017378093
0.021418321
0.025371055
0.029222708
0.032961264
0.036576381
0.040059252
0.043402621
0.046600631
0.049648768
0.052543717
0.055283235
0.05786608
0.060291752
0.062560613
0.064673348
0.066631545
0.068436442
0.070090714
0.071595287
0.072954318
0.074166861
0.075240263
0.076168173
0.07696622
0.077613792
0.078148713
0.078513059
0.078803945
0.078867592
-0.00076791866
-1.885215e-05
-0.00080310085
-0.00056540521
-0.0010178336
-0.0010159617
-0.0013273638
-0.0014399752
-0.0016981529
-0.0018732039
-0.0021199317
-0.0023366156
-0.0025932185
-0.0028449251
-0.0031237714
-0.0034104701
-0.0037201431
-0.0040449855
-0.0043926139
-0.0047604198
-0.0051527246
-0.0055693014
-0.0060130548
-0.0064848741
-0.0069870774
-0.0075210934
-0.008089007
-0.0086925124
-0.0093335911
-0.01001406
-0.010735809
-0.011500687
-0.012310465
-0.013166892
-0.014071578
-0.015026052
-0.016031653
-0.017089559
-0.018200697
-0.019365732
-0.020585012
-0.021858488
-0.023185726
-0.024565759
-0.025997114
-0.027477674
-0.029004671
-0.030574582
-0.032183084
-0.033824987
-0.035494175
-0.037183557
-0.038885027
-0.040589426
-0.042286527
-0.043965038
-0.045612609
-0.047215881
-0.048760542
-0.050231421
-0.051612596
-0.052887549
-0.054039326
-0.055050752
-0.055904633
-0.056584035
-0.057072513
-0.057354427
-0.057415176
-0.05724156
-0.056821936
-0.056146648
-0.055208038
-0.054001223
-0.0525236
-0.05077492
-0.048757803
-0.046477414
-0.043941685
-0.041161046
-0.038148429
-0.034918977
-0.031489927
-0.027880236
-0.024110433
-0.020202146
-0.01617796
-0.012060884
-0.0078742412
-0.003641107
0.0006157498
0.0048743937
0.0091137391
0.013313997
0.017456641
0.021524745
0.025502904
0.029377458
0.033136356
0.036769283
0.040267495
0.043623839
0.046832589
0.049889387
0.052791091
0.055535642
0.058121987
0.060549819
0.062819688
0.064932464
0.06688991
0.068693432
0.070345857
0.071848261
0.07320492
0.074415019
0.075485989
0.076411603
0.077207516
0.077853264
0.078386597
0.078749838
0.079039808
0.079103255
-0.00075962283
-1.8355436e-05
-0.00079403143
-0.00055869721
-0.0010061111
-0.0010041104
-0.001312038
-0.001423337
-0.0016786606
-0.0018517891
-0.002095858
-0.002310256
-0.0025641942
-0.0028133545
-0.0030894337
-0.0033733677
-0.0036801264
-0.004002006
-0.0043465572
-0.00471122
-0.0051002906
-0.0055135694
-0.0059539574
-0.0064223649
-0.0069211194
-0.0074516721
-0.0080161274
-0.0086162076
-0.0092539236
-0.0099311281
-0.010649752
-0.011411689
-0.012218763
-0.013072781
-0.013975417
-0.014928271
-0.01593276
-0.016990146
-0.018101447
-0.019267426
-0.020488533
-0.021764827
-0.023095988
-0.024481161
-0.025918991
-0.027407476
-0.028943962
-0.030525029
-0.032146455
-0.033803134
-0.035489022
-0.037197075
-0.038919215
-0.040646281
-0.042368012
-0.044073043
-0.045748917
-0.047382119
-0.048958142
-0.050461571
-0.051876194
-0.05318516
-0.05437114
-0.055416546
-0.05630374
-0.05701532
-0.057534354
-0.057844712
-0.057931301
-0.057780455
-0.057380063
-0.056720084
-0.05579244
-0.054592027
-0.053116064
-0.051364081
-0.049338621
-0.047044816
-0.044490666
-0.041686748
-0.038646238
-0.035384599
-0.031919482
-0.028270319
-0.024458196
-0.020505323
-0.016434934
-0.012270668
-0.0080365164
-0.0037561641
0.00054700716
0.004850537
0.0091328406
0.013373736
0.017554346
0.021657506
0.025667621
0.029570939
0.033355369
0.037010634
0.040528068
0.043900653
0.047122831
0.050190442
0.053100562
0.055851368
0.058442044
0.060872528
0.063143606
0.065256382
0.067212839
0.069014595
0.070664667
0.072164316
0.073517971
0.074724981
0.07579288
0.076715596
0.077508819
0.07815227
0.078683602
0.079045452
0.079334269
0.07939747
-0.00074972742
-1.7773471e-05
-0.00078320554
-0.00055069958
-0.00099211691
-0.00098996789
-0.0012937407
-0.0014034749
-0.0016553868
-0.0018262201
-0.0020671114
-0.0022787792
-0.0025295333
-0.0027756515
-0.0030484244
-0.003329055
-0.003632331
-0.00395067
-0.0042915434
-0.0046524492
-0.0050376535
-0.0054469895
-0.0058833532
-0.0063476806
-0.0068423098
-0.0073687191
-0.0079290362
-0.0085250166
-0.0091587066
-0.0098320018
-0.010546881
-0.011305294
-0.012109124
-0.01296025
-0.013860423
-0.014811327
-0.015814472
-0.016871222
-0.017982704
-0.019149797
-0.020373077
-0.021652731
-0.022988574
-0.024379891
-0.025825465
-0.027323436
-0.028871284
-0.030465721
-0.032102642
-0.033777046
-0.035482976
-0.037213452
-0.038960426
-0.040714739
-0.042466091
-0.044203036
-0.045912984
-0.047582242
-0.049196064
-0.050738745
-0.052193727
-0.053543759
-0.054771058
-0.055857541
-0.056785034
-0.057535568
-0.058091623
-0.058436475
-0.058554432
-0.058431257
-0.058054271
-0.057412961
-0.056498719
-0.05530615
-0.053832248
-0.052076275
-0.050040671
-0.047730531
-0.045153937
-0.042321649
-0.039247142
-0.035946274
-0.032437209
-0.02873996
-0.0248763
-0.020869156
-0.016742559
-0.012520921
-0.0082290527
-0.0038913842
0.0004679511
0.0048258554
0.0091601342
0.013450131
0.017676546
0.021821929
0.025870458
0.02980828
0.033623261
0.037305178
0.040845468
0.04423729
0.047475288
0.050555558
0.053475442
0.056233408
0.058828933
0.061262255
0.063534448
0.065646902
0.067601867
0.069401216
0.071048198
0.072544297
0.073894127
0.075097233
0.076161272
0.077080362
0.077870227
0.078510816
0.079039661
0.079399782
0.079687169
0.079750059
-0.00073824079
-1.7083925e-05
-0.0007706116
-0.00054138395
-0.00097582743
-0.00097350084
-0.0012724385
-0.0013803482
-0.0016282868
-0.0017964443
-0.0020336322
-0.0022421155
-0.0024891554
-0.0027317227
-0.003000635
-0.0032774059
-0.003576611
-0.0038908087
-0.0042273777
-0.0045838836
-0.0049645564
-0.0053692676
-0.0058009068
-0.0062604395
-0.0067502157
-0.0072717449
-0.0078271812
-0.0084183186
-0.0090472438
-0.0097159023
-0.010426329
-0.011180535
-0.011980479
-0.012828119
-0.013725296
-0.014673793
-0.015675229
-0.016731088
-0.017842623
-0.019010852
-0.020236496
-0.021519897
-0.022861029
-0.024259341
-0.025713785
-0.027222666
-0.028783627
-0.030393537
-0.032048435
-0.033743448
-0.035472725
-0.037229364
-0.039005365
-0.040791572
-0.042577646
-0.04435205
-0.046102044
-0.047813726
-0.049472076
-0.051061049
-0.052563676
-0.053962237
-0.055238412
-0.056373532
-0.057348782
-0.058145523
-0.058745533
-0.059131381
-0.05928666
-0.059196458
-0.058847416
-0.058228461
-0.057330353
-0.05614733
-0.054676139
-0.052915715
-0.050868371
-0.048539154
-0.045936238
-0.043070597
-0.039956056
-0.036608939
-0.033048016
-0.029293989
-0.025369454
-0.021298185
-0.01710517
-0.01281574
-0.0084556894
-0.0040503328
0.00037529473
0.0047973403
0.0091928804
0.0135407
0.017820998
0.022015989
0.026109591
0.030087837
0.033938545
0.03765157
0.041218475
0.044632634
0.047888942
0.050983798
0.053914865
0.05668096
0.059281909
0.061718304
0.063991564
0.066103415
0.068056419
0.069852755
0.07149594
0.072987723
0.074332931
0.07553134
0.076590751
0.077505501
0.078291356
0.078928532
0.079454413
0.079812477
0.080098162
0.080160686
-0.00072518976
-1.6305528e-05
-0.00075629458
-0.00053079879
-0.00095730694
-0.00095478141
-0.0012482162
-0.0013540516
-0.0015974678
-0.0017625806
-0.0019955522
-0.0022004099
-0.0024432197
-0.0026817421
-0.0029462554
-0.0032186272
-0.0035131907
-0.0038226649
-0.0041543226
-0.0045058059
-0.0048813038
-0.0052807306
-0.0057069687
-0.0061610164
-0.0066452375
-0.007161176
-0.007711016
-0.0082965949
-0.0089200451
-0.0095833685
-0.010288662
-0.011038011
-0.011833456
-0.012677044
-0.01357072
-0.014516381
-0.015515771
-0.016570507
-0.017681993
-0.018851401
-0.020079621
-0.021367174
-0.022714215
-0.024120387
-0.025584834
-0.027106054
-0.028681882
-0.030309369
-0.031984724
-0.033703227
-0.035459152
-0.037245696
-0.039054914
-0.040877667
-0.042703572
-0.044520994
-0.04631703
-0.048077539
-0.049787191
-0.051429553
-0.052987186
-0.054441828
-0.055774543
-0.05696598
-0.057996585
-0.05884694
-0.059498005
-0.059931526
-0.060130265
-0.060078513
-0.059762122
-0.059169353
-0.058290227
-0.057118523
-0.055650693
-0.053885293
-0.051824476
-0.049473235
-0.046839841
-0.043935517
-0.040774496
-0.037373645
-0.033752449
-0.029932416
-0.02593711
-0.021791301
-0.017521107
-0.013152934
-0.0087137406
-0.0042298737
0.00027256791
0.0047688548
0.0092352072
0.013649769
0.017992151
0.022244198
0.026389523
0.030414047
0.034305542
0.038053966
0.041651041
0.045090403
0.04836725
0.051478344
0.05442173
0.057196634
0.059803294
0.062242717
0.064516723
0.066627429
0.068577762
0.07037025
0.072008721
0.073495228
0.074834843
0.076027607
0.077081485
0.077991065
0.078772158
0.079405287
0.079927662
0.080283292
0.080566968
0.080629057
-0.0007105841
-1.542592e-05
-0.0007402541
-0.00051893242
-0.00093655002
-0.00093379848
-0.001221065
-0.0013245725
-0.0015629164
-0.0017246115
-0.0019528505
-0.0021536357
-0.0023916929
-0.0026256678
-0.0028852335
-0.0031526542
-0.0034419912
-0.0037461428
-0.0040722626
-0.004418078
-0.0047877315
-0.0051811849
-0.0056013117
-0.0060491467
-0.0065270678
-0.0070366577
-0.0075801332
-0.0081593797
-0.0087765801
-0.009433799
-0.010133203
-0.010876959
-0.011667197
-0.01250607
-0.013395636
-0.01433792
-0.015334805
-0.016388064
-0.017499264
-0.01866976
-0.01990063
-0.021192597
-0.02254603
-0.023960788
-0.025436238
-0.026971102
-0.028563437
-0.030210506
-0.031908719
-0.033653534
-0.035439379
-0.037259568
-0.039106233
-0.040970256
-0.04284122
-0.044707386
-0.046555671
-0.048371674
-0.050139714
-0.051842921
-0.053463325
-0.054982048
-0.056379445
-0.057635388
-0.058729473
-0.059641381
-0.060351136
-0.060839529
-0.061088364
-0.061081006
-0.060802401
-0.060240037
-0.059383073
-0.058224737
-0.056761154
-0.054990439
-0.052914547
-0.050538407
-0.047870392
-0.044922008
-0.041707952
-0.038245709
-0.034555592
-0.03066003
-0.026583717
-0.022352568
-0.017994019
-0.013535718
-0.0090059805
-0.0044323435
0.0001578534
0.0047388764
0.0092859513
0.013776493
0.01818944
0.02250622
0.026710108
0.030786909
0.034724355
0.038512539
0.042143378
0.045610827
0.048910436
0.052039399
0.054996202
0.057780553
0.060393161
0.062835514
0.065109892
0.067218859
0.069165758
0.070953515
0.072586311
0.074066542
0.075399559
0.076585699
0.077633111
0.078536668
0.079312225
0.07994066
0.080458974
0.080811787
0.081093139
0.081154727
-0.00069444831
-1.4460282e-05
-0.00072253237
-0.00050582865
-0.0009136178
-0.00091061965
-0.0011910659
-0.001292001
-0.0015247348
-0.0016826495
-0.0019056515
-0.0021019287
-0.0023347234
-0.0025636605
-0.0028177432
-0.0030796741
-0.0033632131
-0.0036614567
-0.0039814259
-0.0043209422
-0.0046840959
-0.0050709009
-0.0054842202
-0.005925128
-0.0063960177
-0.0068985135
-0.0074348679
-0.0080070186
-0.0086172039
-0.0092675566
-0.0099603205
-0.010697751
-0.011482079
-0.012315571
-0.013200413
-0.01413877
-0.015132682
-0.016184092
-0.017294754
-0.018466221
-0.019699788
-0.020996403
-0.022356673
-0.023780704
-0.025268117
-0.026817889
-0.028428327
-0.030096942
-0.031820373
-0.033594288
-0.035413296
-0.037270852
-0.039159183
-0.041069211
-0.042990487
-0.044911168
-0.046817978
-0.048696233
-0.050529868
-0.052301527
-0.053992647
-0.055583656
-0.057054113
-0.058383011
-0.059548981
-0.060530686
-0.061307078
-0.061857862
-0.062163748
-0.06220704
-0.061971654
-0.061444169
-0.060612791
-0.059470051
-0.058011696
-0.056235367
-0.054142746
-0.051738705
-0.04903171
-0.046033583
-0.042759547
-0.039227789
-0.035459568
-0.031478365
-0.027310179
-0.022982233
-0.018523495
-0.013963029
-0.0093307287
-0.0046554859
3.3921702e-05
0.0047106231
0.0093486983
0.013924748
0.018416942
0.022806257
0.027075591
0.031210643
0.035199116
0.039031278
0.042699286
0.046197476
0.049521817
0.052670003
0.055641038
0.058435181
0.061053686
0.063498588
0.065772688
0.067879061
0.069821518
0.071603433
0.073229384
0.074702148
0.076027388
0.077205772
0.078245651
0.079142216
0.079911369
0.08053438
0.081048013
0.081397581
0.08167626
0.081737269
-0.00067679504
-1.3402686e-05
-0.00070313878
-0.00049148867
-0.00088852046
-0.00088525221
-0.0011582314
-0.0012563482
-0.0014829364
-0.0016367069
-0.0018539675
-0.0020452986
-0.0022723179
-0.002495722
-0.00274378
-0.0029996742
-0.0032768338
-0.0035685716
-0.0038817629
-0.0042143314
-0.0045703093
-0.0049497669
-0.0053555547
-0.0057887892
-0.0062518796
-0.006746495
-0.0072749255
-0.0078391654
-0.0084415122
-0.0090841732
-0.0097694751
-0.01049977
-0.0112774
-0.012104754
-0.012984157
-0.013917931
-0.014908287
-0.015957357
-0.0170671
-0.018239292
-0.019475465
-0.020776822
-0.022144236
-0.023578091
-0.025078291
-0.026644105
-0.028274128
-0.029966148
-0.031717073
-0.033522815
-0.035378195
-0.03727684
-0.039211096
-0.041171941
-0.043148909
-0.045130053
-0.047101898
-0.049049456
-0.05095624
-0.052804363
-0.054574602
-0.056246613
-0.057799064
-0.059209959
-0.06045684
-0.061517221
-0.062368835
-0.062990158
-0.063360657
-0.063461422
-0.063275206
-0.062787527
-0.061985557
-0.060860964
-0.059409045
-0.057626953
-0.055516024
-0.053081064
-0.050330629
-0.047276892
-0.043935661
-0.040325908
-0.03646997
-0.032392513
-0.028121034
-0.023684232
-0.019112843
-0.014437533
-0.0096900197
-0.0049007238
-0.00010008119
0.0046837619
0.0094235717
0.014095048
0.018675489
0.023145391
0.027487235
0.031686629
0.03573126
0.039611626
0.043320173
0.046851689
0.050202633
0.053371282
0.056357232
0.059161374
0.06178558
0.064232507
0.066505544
0.068608336
0.070545219
0.072320066
0.073937894
0.075401907
0.076718106
0.077887527
0.078918741
0.07980729
0.080569121
0.081185945
0.081694245
0.08204012
0.082315761
0.082376114
-0.00065764861
-1.2266703e-05
-0.00068211497
-0.0004759548
-0.00086131879
-0.00085776291
-0.0011226422
-0.0012177039
-0.0014376233
-0.0015868958
-0.001797922
-0.0019838797
-0.002204622
-0.0024220089
-0.0026635118
-0.0029128335
-0.003183043
-0.0034676877
-0.003773484
-0.0040984653
-0.0044466005
-0.0048180196
-0.0052155588
-0.0056403796
-0.006094907
-0.0065808575
-0.0071005614
-0.0076560727
-0.0082497525
-0.0088838875
-0.0095608935
-0.010283227
-0.011053348
-0.011873781
-0.012747002
-0.0136755
-0.014661676
-0.015707866
-0.016816254
-0.017988863
-0.019227485
-0.020533606
-0.021908393
-0.02335254
-0.02486627
-0.026449176
-0.028100178
-0.029817383
-0.031598003
-0.033438231
-0.035333137
-0.037276554
-0.039260974
-0.041277456
-0.043315532
-0.045363157
-0.04740665
-0.049430702
-0.051418376
-0.053351201
-0.055209233
-0.056971275
-0.058615004
-0.060117324
-0.061454559
-0.062602931
-0.06353881
-0.064239282
-0.064682415
-0.064847922
-0.064717267
-0.064274719
-0.06350634
-0.062402709
-0.060958661
-0.059170808
-0.057040033
-0.054571086
-0.051772586
-0.048657093
-0.045241063
-0.041544336
-0.037590474
-0.033405464
-0.029018522
-0.024460008
-0.019762692
-0.014959042
-0.010082883
-0.0051663474
-0.00024178073
0.0046612522
0.0095140158
0.014291224
0.018969195
0.023527914
0.027949413
0.032219237
0.036325077
0.040257726
0.044009977
0.047577159
0.050956299
0.05414635
0.057147584
0.059961614
0.062591011
0.065039132
0.067310024
0.069407969
0.071337883
0.073104193
0.0747124
0.076166175
0.077471891
0.078630984
0.079652262
0.080531653
0.081285143
0.081894932
0.082397183
0.082738873
0.083011073
0.083070682
-0.00063702552
-1.1050908e-05
-0.00065947911
-0.00045923879
-0.00083203668
-0.00082817484
-0.0010843294
-0.0011761001
-0.0013888327
-0.0015332546
-0.0017375563
-0.0019177136
-0.0021316776
-0.0023425614
-0.0025769762
-0.0028191845
-0.0030818672
-0.0033588231
-0.0036565961
-0.0039733377
-0.0043129466
-0.0046756165
-0.0050641667
-0.0054798058
-0.0059249747
-0.0064014395
-0.0069115721
-0.0074574897
-0.0080416203
-0.0086663348
-0.0093341438
-0.010047616
-0.010809336
-0.011621974
-0.012488169
-0.013410593
-0.014391848
-0.015434495
-0.016540965
-0.017713545
-0.018954319
-0.020265078
-0.021647319
-0.023102077
-0.024629932
-0.026230838
-0.027904083
-0.029648133
-0.031460548
-0.033337846
-0.035275387
-0.037267247
-0.039306102
-0.041383121
-0.043487852
-0.045608169
-0.047730181
-0.049838247
-0.051914947
-0.053941183
-0.055896221
-0.057757928
-0.059502885
-0.061106774
-0.062544559
-0.06379102
-0.064820993
-0.065610005
-0.066134547
-0.06637277
-0.066304697
-0.065913055
-0.065183042
-0.064103704
-0.062669078
-0.060875599
-0.058723454
-0.056217352
-0.053365954
-0.050182234
-0.046683367
-0.042890146
-0.038827518
-0.034522935
-0.030007576
-0.02531365
-0.020476269
-0.015529913
-0.010510829
-0.00545306
-0.00039114271
0.004643792
0.0096212951
0.014515013
0.019300159
0.023956198
0.028464669
0.032811096
0.036983202
0.040972154
0.044771162
0.048376193
0.051784933
0.054997114
0.058013778
0.060837357
0.063471205
0.065919463
0.068186913
0.07027854
0.072199903
0.073956035
0.075552964
0.076994874
0.078288537
0.079435826
0.080445801
0.081314809
0.082058872
0.082660726
0.083156167
0.083493148
0.083761485
0.083820258
-0.00061495158
-9.7681341e-06
-0.00063527417
-0.00044138349
-0.00080073695
-0.00079655669
-0.0010433769
-0.0011316295
-0.0013366702
-0.0014758993
-0.001672998
-0.0018469384
-0.002053634
-0.0022575392
-0.0024843431
-0.0027189074
-0.0029734957
-0.0032421755
-0.0035313053
-0.003839161
-0.0041695657
-0.0045227796
-0.0049016025
-0.0053072921
-0.0057423044
-0.0062084573
-0.0067081653
-0.0072436117
-0.0078172944
-0.0084316727
-0.0090893572
-0.0097930342
-0.010545424
-0.011349349
-0.012207623
-0.013123113
-0.014098639
-0.015137005
-0.016240905
-0.017412919
-0.018655443
-0.019970608
-0.021360266
-0.022825834
-0.024368282
-0.025987971
-0.027684596
-0.02945703
-0.031303227
-0.033220076
-0.035203275
-0.037247187
-0.039344713
-0.041487165
-0.043664136
-0.045863433
-0.048070965
-0.050270748
-0.052444848
-0.0545735
-0.056635109
-0.058606525
-0.06046312
-0.062179228
-0.063728303
-0.065083526
-0.066218017
-0.067105567
-0.067720894
-0.068040412
-0.068042515
-0.067708266
-0.067021665
-0.065970212
-0.064547098
-0.062748394
-0.060573529
-0.058027143
-0.055117913
-0.051859248
-0.04826911
-0.044369326
-0.040186404
-0.035749411
-0.03109177
-0.026247744
-0.021255139
-0.016150671
-0.010973387
-0.0057594406
-0.00054589458
0.0046344052
0.0097490535
0.014770554
0.019672878
0.024434969
0.029037834
0.033467037
0.037710369
0.041759466
0.04560804
0.049252812
0.052692227
0.055926914
0.05895879
0.06179121
0.064428409
0.066875401
0.069137778
0.071221306
0.073132244
0.074876288
0.076460043
0.077888241
0.079168089
0.080301929
0.081299087
0.082156363
0.082889806
0.08348274
0.08397054
0.084302242
0.084566254
0.084624089
-0.00059144764
-8.4202698e-06
-0.00060952648
-0.00042240967
-0.00076745586
-0.00076294551
-0.00099983229
-0.0010843432
-0.0012811944
-0.0014148921
-0.0016043149
-0.0017716247
-0.0019705648
-0.002167017
-0.0023856878
-0.0026120756
-0.002857999
-0.0031178103
-0.003397669
-0.0036959828
-0.0040164922
-0.004359527
-0.0047278645
-0.0051228127
-0.0055468421
-0.0060018234
-0.0064902149
-0.0070142678
-0.0075765525
-0.0081796205
-0.0088261872
-0.0095190624
-0.010261108
-0.011055311
-0.011904667
-0.012812254
-0.013781123
-0.014814338
-0.015914881
-0.017085643
-0.018329362
-0.019648536
-0.021045411
-0.022521817
-0.02407916
-0.025718249
-0.027439234
-0.029241448
-0.031123287
-0.033082068
-0.035113878
-0.037213421
-0.039373868
-0.041586721
-0.043841653
-0.04612643
-0.048426769
-0.050726339
-0.053006676
-0.055247299
-0.057425689
-0.059517587
-0.061497039
-0.0633369
-0.065008945
-0.066484579
-0.067735006
-0.06873208
-0.069448527
-0.069858816
-0.069939499
-0.069669781
-0.069032324
-0.068012825
-0.066603518
-0.064800106
-0.062601131
-0.060011145
-0.057038818
-0.053698008
-0.050007551
-0.045990384
-0.041674776
-0.037091561
-0.032276722
-0.027266786
-0.022102661
-0.016823532
-0.011471675
-0.0060855679
-0.00070518041
0.0046347788
0.0098996691
0.015060787
0.020090707
0.024967868
0.029672706
0.034190905
0.038510365
0.042623317
0.046524063
0.050210216
0.053681093
0.056938354
0.059984902
0.062825135
0.065464266
0.067908282
0.070163668
0.072237043
0.074135434
0.075865257
0.077433734
0.078846193
0.080110303
0.081228908
0.082211614
0.083055706
0.083777251
0.084360209
0.084839485
0.0851653
0.085424496
0.085481289
-0.00056654229
-7.019874e-06
-0.00058228187
-0.00040236212
-0.0007322602
-0.00072741402
-0.00095378504
-0.0010343397
-0.0012225181
-0.0013503562
-0.0015316429
-0.0016919194
-0.0018826286
-0.0020711639
-0.0022811898
-0.0024988781
-0.0027355751
-0.0029859333
-0.0032559001
-0.0035440213
-0.0038539482
-0.0041860824
-0.0045431757
-0.0049265872
-0.0053388006
-0.0057817404
-0.0062579087
-0.0067696266
-0.0073195387
-0.007910292
-0.0085447104
-0.009225733
-0.0099563699
-0.010739779
-0.011579151
-0.012477785
-0.01343898
-0.014466075
-0.015562359
-0.016731061
-0.017975286
-0.01929793
-0.020701666
-0.022188779
-0.023761151
-0.025420087
-0.027166244
-0.028999465
-0.03091865
-0.032921601
-0.035004851
-0.037163505
-0.039391062
-0.041679262
-0.044017899
-0.046394733
-0.048795308
-0.05120295
-0.053598639
-0.055961145
-0.058266952
-0.060490606
-0.062604702
-0.064580472
-0.066387837
-0.067996244
-0.06937476
-0.070493093
-0.071321741
-0.07183302
-0.072001407
-0.071804067
-0.071222098
-0.070239201
-0.068846526
-0.067039359
-0.064815198
-0.06217846
-0.059137767
-0.05570742
-0.051907202
-0.047761229
-0.043299752
-0.038555518
-0.033567449
-0.028374547
-0.023021312
-0.017549645
-0.012005567
-0.0064300984
-0.00086657162
0.0046482969
0.010077304
0.015390489
0.020558855
0.025560377
0.030374879
0.034988271
0.039388622
0.043568899
0.047524111
0.051252915
0.054755636
0.058035109
0.061095351
0.063941933
0.066581155
0.069020079
0.071266174
0.07332699
0.075210384
0.076923553
0.078474382
0.079868836
0.081115075
0.082216476
0.083182938
0.084012261
0.084720518
0.085292357
0.085762149
0.086081421
0.086335274
0.086390907
-0.00054026119
-5.5713483e-06
-0.00055357453
-0.00038126965
-0.00069519778
-0.00069001209
-0.00090529844
-0.00098168749
-0.0011607199
-0.0012823762
-0.0014550744
-0.0016079202
-0.0017899287
-0.0019700871
-0.0021709593
-0.0023794267
-0.0026063355
-0.0028466537
-0.0031061035
-0.0033833742
-0.0036820214
-0.0040025206
-0.0043475939
-0.0047186524
-0.0051181911
-0.0055481887
-0.0060111906
-0.006509589
-0.0070461041
-0.0076234806
-0.0082446544
-0.0089126982
-0.0096307768
-0.010402227
-0.011230444
-0.012118958
-0.013071331
-0.014091197
-0.01518217
-0.016347841
-0.017591709
-0.018917102
-0.020327154
-0.021824647
-0.023411985
-0.025091019
-0.026862967
-0.028728244
-0.030686316
-0.032735535
-0.03487295
-0.037094137
-0.039392982
-0.041761531
-0.044189752
-0.04666544
-0.049173994
-0.051698411
-0.054219103
-0.056714055
-0.059158689
-0.061526262
-0.063787788
-0.065912724
-0.067868941
-0.069623721
-0.071143746
-0.072396345
-0.073349506
-0.073973155
-0.074239417
-0.074123201
-0.073603816
-0.072662732
-0.071289822
-0.069479948
-0.067229423
-0.064542478
-0.061427665
-0.057899721
-0.053979468
-0.049692262
-0.045070591
-0.040149256
-0.03497055
-0.029576164
-0.024014763
-0.018331196
-0.01257585
-0.0067924925
-0.001028359
0.0046776978
0.01028553
0.015763893
0.021082019
0.026217487
0.031149468
0.035864239
0.040350105
0.044600948
0.048612606
0.052384969
0.055919511
0.059220413
0.062292945
0.065143989
0.067781052
0.070212383
0.072446522
0.074492035
0.07635768
0.078051486
0.079582052
0.080956018
0.082182062
0.083264126
0.084212408
0.085025259
0.085718738
0.086278236
0.086737525
0.087049557
0.087297503
0.087351855
-0.00051263662
-4.0872473e-06
-0.00052345434
-0.00035918003
-0.00065634093
-0.00065081808
-0.00085446932
-0.00092649312
-0.0010959219
-0.0012110858
-0.0013747568
-0.0015197864
-0.001692637
-0.0018639698
-0.0020551909