/*--------------------------------*- C++ -*----------------------------------*\
| =========                 |                                                 |
| \\      /  F ield         | foam-extend: Open Source CFD                    |
|  \\    /   O peration     | Version:     4.1                                |
|   \\  /    A nd           | Web:         http://www.foam-extend.org         |
|    \\/     M anipulation  |                                                 |
\*---------------------------------------------------------------------------*/
FoamFile
{
    version     2.0;
    format      ascii;
    class       surfaceScalarField;
    location    "0.9";
    object      phi;
}
// * * * * * * * * * * * * * * * * * * * * * * * * * * * * * * * * * * * * * //

dimensions      [0 3 -1 0 0 0 0];

internalField   nonuniform List<scalar> 
32976
(
-0.0016178921
4.8139524e-07
-0.0016184002
5.0808584e-07
-0.0016189314
5.3118719e-07
-0.0016194921
5.6075824e-07
-0.0016200819
5.8979527e-07
-0.001620705
6.2307204e-07
-0.0016213625
6.5749863e-07
-0.0016220577
6.9525623e-07
-0.0016227927
7.3498991e-07
-0.0016235705
7.7772111e-07
-0.0016243933
8.2287023e-07
-0.0016252643
8.7093822e-07
-0.001626186
9.2169085e-07
-0.0016271614
9.7539464e-07
-0.0016281933
1.0319674e-06
-0.0016292849
1.0915696e-06
-0.0016304391
1.154184e-06
-0.001631659
1.2199224e-06
-0.0016329478
1.2887937e-06
-0.0016343087
1.3608865e-06
-0.0016357449
1.4362173e-06
-0.0016372598
1.5148627e-06
-0.0016388566
1.5968366e-06
-0.0016405388
1.6822058e-06
-0.0016423098
1.7709734e-06
-0.001644173
1.8631926e-06
-0.0016461318
1.9588449e-06
-0.0016481898
2.057959e-06
-0.0016503502
2.1604793e-06
-0.0016526166
2.2663923e-06
-0.0016549922
2.375583e-06
-0.0016574802
2.4879611e-06
-0.0016600835
2.6033649e-06
-0.0016628051
2.7215453e-06
-0.0016656474
2.8422671e-06
-0.0016686125
2.9651379e-06
-0.0016717023
3.0897821e-06
-0.0016749179
3.2156473e-06
-0.0016782601
3.3421956e-06
-0.0016817288
3.4686965e-06
-0.0016853233
3.5944372e-06
-0.0016890418
3.7185057e-06
-0.0016928818
3.8399888e-06
-0.0016968396
3.957828e-06
-0.0017009105
4.0708936e-06
-0.0017050884
4.1779632e-06
-0.0017093662
4.277724e-06
-0.0017137349
4.3687837e-06
-0.0017181846
4.4496554e-06
-0.0017227034
4.5187797e-06
-0.0017272779
4.5745228e-06
-0.0017318931
4.6151883e-06
-0.0017365321
4.6390284e-06
-0.0017411764
4.6442722e-06
-0.0017458055
4.629128e-06
-0.0017503974
4.5918302e-06
-0.001754928
4.5306612e-06
-0.001759372
4.4439892e-06
-0.0017637023
4.3303072e-06
-0.0017678906
4.1882853e-06
-0.0017719074
4.0167997e-06
-0.0017757224
3.8150004e-06
-0.0017793047
3.5823524e-06
-0.0017826234
3.3186886e-06
-0.0017856477
3.0242598e-06
-0.0017883475
2.6997805e-06
-0.001790694
2.3464758e-06
-0.0017926601
1.9661047e-06
-0.001794221
1.5609922e-06
-0.0017953551
1.1340346e-06
-0.0017960438
6.8868392e-07
-0.0017962727
2.2892531e-07
-0.0017960319
-2.4079514e-07
-0.0017953163
-7.1561429e-07
-0.0017941259
-1.1904095e-06
-0.0017924659
-1.6599388e-06
-0.001790347
-2.1189482e-06
-0.0017877846
-2.5623863e-06
-0.001784799
-2.9855551e-06
-0.0017814148
-3.3842714e-06
-0.0017776598
-3.7550119e-06
-0.0017735648
-4.0950115e-06
-0.0017691624
-4.4023198e-06
-0.0017644866
-4.6758138e-06
-0.0017595715
-4.9151425e-06
-0.0017544508
-5.1206442e-06
-0.0017491576
-5.2932022e-06
-0.0017437235
-5.4341027e-06
-0.0017381787
-5.5448601e-06
-0.0017325516
-5.6270835e-06
-0.0017268692
-5.6823493e-06
-0.0017211571
-5.7121135e-06
-0.0017154394
-5.7176781e-06
-0.0017097392
-5.7001973e-06
-0.0017040785
-5.6606986e-06
-0.0016984784
-5.6001542e-06
-0.0016929589
-5.5195288e-06
-0.001687539
-5.4198634e-06
-0.0016822367
-5.3022861e-06
-0.0016770686
-5.1680688e-06
-0.00167205
-5.0186082e-06
-0.0016671946
-4.8554162e-06
-0.0016625145
-4.6800767e-06
-0.0016580203
-4.4942168e-06
-0.0016537209
-4.2994359e-06
-0.0016496236
-4.0972856e-06
-0.0016457344
-3.8892202e-06
-0.0016420578
-3.6765731e-06
-0.0016385973
-3.4605349e-06
-0.0016353551
-3.2421531e-06
-0.0016323328
-3.0223129e-06
-0.0016295311
-2.8017572e-06
-0.00162695
-2.5810832e-06
-0.0016245892
-2.3607578e-06
-0.0016224481
-2.1411207e-06
-0.0016205257
-1.9224103e-06
-0.0016188209
-1.7047495e-06
-0.0016173327
-1.488191e-06
-0.0016160601
-1.2726812e-06
-0.0016150019
-1.0581357e-06
-0.0016141576
-8.4434398e-07
-0.0016135264
-6.3114478e-07
-0.0016131083
-4.1816972e-07
-2.0526667e-07
-0.0016178806
9.6170204e-07
-0.0016183876
1.0150919e-06
-0.0016189177
1.0612243e-06
-0.0016194772
1.1203542e-06
-0.0016200658
1.1783652e-06
-0.0016206876
1.2448891e-06
-0.0016213438
1.3136876e-06
-0.0016220377
1.3891645e-06
-0.0016227713
1.4685824e-06
-0.0016235476
1.5540036e-06
-0.001624369
1.6442567e-06
-0.0016252384
1.7403527e-06
-0.0016261585
1.8418179e-06
-0.0016271323
1.9491901e-06
-0.0016281627
2.0623027e-06
-0.0016292526
2.181479e-06
-0.0016304051
2.3066843e-06
-0.0016316233
2.4381434e-06
-0.0016329104
2.575874e-06
-0.0016342695
2.7200547e-06
-0.001635704
2.8707183e-06
-0.0016372172
3.0280188e-06
-0.0016388124
3.1919842e-06
-0.0016404929
3.3627484e-06
-0.0016422622
3.5403181e-06
-0.0016441238
3.7247993e-06
-0.0016460812
3.9161556e-06
-0.0016481376
4.1144442e-06
-0.0016502967
4.3195544e-06
-0.0016525618
4.5314595e-06
-0.0016549361
4.7499298e-06
-0.001657423
4.9747858e-06
-0.0016600253
5.2057052e-06
-0.0016627459
5.4421921e-06
-0.0016655875
5.683778e-06
-0.001668552
5.9296813e-06
-0.0016716414
6.1791547e-06
-0.0016748568
6.431097e-06
-0.0016781991
6.6844374e-06
-0.0016816681
6.9377194e-06
-0.0016852632
7.1895225e-06
-0.0016889827
7.4380268e-06
-0.0016928241
7.6814098e-06
-0.0016967838
7.9175578e-06
-0.0017008572
8.1442129e-06
-0.0017050381
8.3589307e-06
-0.0017093195
8.559085e-06
-0.0017136926
8.7418882e-06
-0.0017181473
8.9043625e-06
-0.0017226719
9.0433832e-06
-0.0017272531
9.1556754e-06
-0.0017318757
9.2378372e-06
-0.001736523
9.2863632e-06
-0.0017411765
9.2976997e-06
-0.0017458156
9.2682507e-06
-0.0017504182
9.1944715e-06
-0.0017549605
9.0729117e-06
-0.0017594168
8.900293e-06
-0.0017637601
8.6735851e-06
-0.0017679619
8.3901123e-06
-0.0017719927
8.0476111e-06
-0.0017758221
7.6443662e-06
-0.001779419
7.1792928e-06
-0.0017827524
6.652044e-06
-0.0017857912
6.0631099e-06
-0.0017885053
5.4139107e-06
-0.0017908658
4.7068902e-06
-0.0017928452
3.9455628e-06
-0.0017944188
3.1345787e-06
-0.0017955645
2.2797344e-06
-0.0017962638
1.387942e-06
-0.001796502
4.6718752e-07
-0.0017962692
-4.7361434e-07
-0.0017955601
-1.4247125e-06
-0.0017943747
-2.3758463e-06
-0.0017927181
-3.3165191e-06
-0.0017906008
-4.2362097e-06
-0.0017880384
-5.1247954e-06
-0.0017850511
-5.972859e-06
-0.0017816634
-6.772009e-06
-0.0017779032
-7.515173e-06
-0.0017738014
-8.1967927e-06
-0.0017693908
-8.8129375e-06
-0.0017647053
-9.3613322e-06
-0.0017597792
-9.8412459e-06
-0.0017546465
-1.025333e-05
-0.0017493404
-1.0599328e-05
-0.0017438927
-1.0881796e-05
-0.0017383338
-1.1103755e-05
-0.0017326925
-1.1268419e-05
-0.0017269959
-1.1378947e-05
-0.0017212697
-1.1438264e-05
-0.0017155384
-1.1448992e-05
-0.0017098251
-1.1413463e-05
-0.0017041521
-1.1333759e-05
-0.0016985404
-1.1211854e-05
-0.0016930102
-1.1049704e-05
-0.0016875806
-1.0849419e-05
-0.0016822696
-1.0613283e-05
-0.0016770939
-1.034386e-05
-0.0016720685
-1.0043965e-05
-0.0016672073
-9.7166379e-06
-0.0016625223
-9.36506e-06
-0.001658024
-8.992496e-06
-0.0016537213
-8.6021529e-06
-0.0016496214
-8.1971394e-06
-0.0016457303
-7.7803675e-06
-0.0016420524
-7.3545056e-06
-0.001638591
-6.921935e-06
-0.0016353484
-6.4847494e-06
-0.001632326
-6.0447166e-06
-0.0016295244
-5.6033194e-06
-0.0016269437
-5.1617484e-06
-0.0016245836
-4.7209329e-06
-0.0016224431
-4.2815472e-06
-0.0016205215
-3.8440637e-06
-0.0016188175
-3.4087222e-06
-0.0016173301
-2.9756242e-06
-0.0016160581
-2.5446556e-06
-0.0016150006
-2.115645e-06
-0.0016141568
-1.6881626e-06
-0.001613526
-1.2618866e-06
-0.0016131081
-8.3606622e-07
-4.1040461e-07
-0.0016178588
1.439948e-06
-0.0016183636
1.5199235e-06
-0.0016188914
1.5890223e-06
-0.0016194487
1.677617e-06
-0.0016200348
1.7645215e-06
-0.0016206541
1.8642015e-06
-0.0016213077
1.9672851e-06
-0.0016219989
2.0803906e-06
-0.0016227298
2.1994043e-06
-0.0016235032
2.327427e-06
-0.0016243216
2.4626985e-06
-0.001625188
2.6067395e-06
-0.001626105
2.7588391e-06
-0.0016270757
2.9198065e-06
-0.0016281028
3.0893928e-06
-0.0016291894
3.2680848e-06
-0.0016303385
3.4558317e-06
-0.0016315533
3.6529726e-06
-0.001632837
3.8595352e-06
-0.0016341927
4.0757888e-06
-0.0016356238
4.3017841e-06
-0.0016371335
4.5377528e-06
-0.0016387253
4.7837382e-06
-0.0016404025
5.0399418e-06
-0.0016421685
5.3063743e-06
-0.0016440269
5.5831953e-06
-0.0016459811
5.8703508e-06
-0.0016480346
6.1679274e-06
-0.0016501908
6.4757596e-06
-0.0016524532
6.7938088e-06
-0.001654825
7.1217324e-06
-0.0016573094
7.4592635e-06
-0.0016599097
7.8059225e-06
-0.0016626284
8.1609705e-06
-0.0016654684
8.5237108e-06
-0.0016684317
8.8929787e-06
-0.0016715202
9.2676622e-06
-0.0016747352
9.6461199e-06
-0.0016780775
1.0026756e-05
-0.0016815472
1.0407399e-05
-0.0016851436
1.0785927e-05
-0.0016888652
1.1159623e-05
-0.0016927095
1.152576e-05
-0.0016966732
1.1881177e-05
-0.0017007514
1.2222489e-05
-0.0017049385
1.2546031e-05
-0.0017092273
1.284786e-05
-0.0017136092
1.312379e-05
-0.0017180742
1.3369341e-05
-0.0017226106
1.3579813e-05
-0.0017272052
1.3750274e-05
-0.001731843
1.3875599e-05
-0.0017365071
1.3950505e-05
-0.0017411791
1.396963e-05
-0.0017458384
1.3927551e-05
-0.0017504628
1.3818913e-05
-0.0017550284
1.3638506e-05
-0.0017595095
1.3381373e-05
-0.0017638788
1.3042928e-05
-0.0017681078
1.2619119e-05
-0.0017721667
1.2106512e-05
-0.0017760249
1.1502495e-05
-0.001779651
1.0805407e-05
-0.0017830136
1.0014698e-05
-0.0017860816
9.1310767e-06
-0.0017888243
8.1566552e-06
-0.0017912125
7.0950867e-06
-0.0017932186
5.9516383e-06
-0.0017948173
4.7332886e-06
-0.0017959863
3.4487441e-06
-0.0017967068
2.1083914e-06
-0.0017969638
7.2423657e-07
-0.0017967471
-6.9032369e-07
-0.0017960512
-2.1206335e-06
-0.0017948758
-3.5512555e-06
-0.0017932259
-4.9663933e-06
-0.0017911119
-6.3502143e-06
-0.0017885492
-7.6874745e-06
-0.0017855581
-8.963986e-06
-0.001782163
-1.0167093e-05
-0.0017783921
-1.1286116e-05
-0.0017742762
-1.2312643e-05
-0.0017698485
-1.3240703e-05
-0.001765143
-1.406681e-05
-0.0017601944
-1.4789798e-05
-0.0017550372
-1.5410583e-05
-0.0017497048
-1.5931731e-05
-0.0017442295
-1.6357042e-05
-0.0017386423
-1.6691026e-05
-0.0017329722
-1.6938506e-05
-0.0017272469
-1.7104235e-05
-0.0017214925
-1.7192635e-05
-0.0017157338
-1.7207683e-05
-0.0017099943
-1.7152939e-05
-0.0017042965
-1.703159e-05
-0.0016986617
-1.6846664e-05
-0.0016931102
-1.660117e-05
-0.0016876613
-1.6298339e-05
-0.0016823329
-1.5941658e-05
-0.0016771418
-1.5535034e-05
-0.001672103
-1.5082735e-05
-0.0016672303
-1.4589366e-05
-0.0016625356
-1.4059732e-05
-0.0016580293
-1.3498759e-05
-0.0016537202
-1.2911276e-05
-0.0016496154
-1.2301961e-05
-0.0016457206
-1.167519e-05
-0.0016420401
-1.1034971e-05
-0.0016385772
-1.0384876e-05
-0.0016353339
-9.72804e-06
-0.0016323115
-9.0671103e-06
-0.0016295105
-8.4043023e-06
-0.0016269309
-7.7413916e-06
-0.001624572
-7.0797612e-06
-0.0016224332
-6.4204103e-06
-0.0016205132
-5.764035e-06
-0.0016188109
-5.1109822e-06
-0.0016173252
-4.4613913e-06
-0.0016160547
-3.8150781e-06
-0.0016149986
-3.1717743e-06
-0.001614156
-2.5308205e-06
-0.0016135261
-1.8917263e-06
-0.0016131088
-1.2533469e-06
-6.1523592e-07
-0.0016178239
1.9151245e-06
-0.0016183255
2.0215265e-06
-0.00161885
2.1135012e-06
-0.0016194038
2.2314247e-06
-0.0016199863
2.3471073e-06
-0.001620602
2.4798112e-06
-0.0016212517
2.617054e-06
-0.001621939
2.7676562e-06
-0.0016226657
2.9261371e-06
-0.0016234349
3.0966321e-06
-0.001624249
3.2767968e-06
-0.0016251109
3.4686613e-06
-0.0016260234
3.6712801e-06
-0.0016269893
3.8857346e-06
-0.0016280116
4.111696e-06
-0.0016290934
4.3498158e-06
-0.0016302375
4.6000292e-06
-0.0016314474
4.8627908e-06
-0.001632726
5.1381404e-06
-0.0016340766
5.4264393e-06
-0.0016355026
5.7277574e-06
-0.0016370072
6.0424058e-06
-0.001638594
6.3704441e-06
-0.0016402662
6.7121426e-06
-0.0016420273
7.0675172e-06
-0.0016438809
7.4367819e-06
-0.0016458304
7.8198666e-06
-0.0016478794
8.2168881e-06
-0.0016500312
8.6276282e-06
-0.0016522895
9.0520384e-06
-0.0016546574
9.489666e-06
-0.0016571383
9.9401607e-06
-0.0016597353
1.040289e-05
-0.0016624512
1.0876879e-05
-0.0016652887
1.136121e-05
-0.00166825
1.1854344e-05
-0.0016713372
1.2354815e-05
-0.0016745515
1.2860453e-05
-0.0016778939
1.336915e-05
-0.0016813645
1.387803e-05
-0.0016849629
1.4384286e-05
-0.0016886876
1.4884311e-05
-0.0016925363
1.5374489e-05
-0.0016965058
1.5850612e-05
-0.0017005914
1.6308178e-05
-0.0017047877
1.6742301e-05
-0.0017090876
1.7147718e-05
-0.0017134826
1.7518834e-05
-0.0017179629
1.784966e-05
-0.001722517
1.8133899e-05
-0.0017271317
1.8364945e-05
-0.001731792
1.8535922e-05
-0.0017364812
1.8639737e-05
-0.0017411808
1.8669192e-05
-0.0017458703
1.8616993e-05
-0.0017505273
1.8475938e-05
-0.0017551278
1.823901e-05
-0.0017596459
1.7899527e-05
-0.0017640543
1.7451303e-05
-0.001768324
1.6888857e-05
-0.0017724251
1.6207537e-05
-0.0017763264
1.5403792e-05
-0.0017799963
1.4475339e-05
-0.001783403
1.3421388e-05
-0.0017865147
1.2242834e-05
-0.0017893005
1.0942455e-05
-0.0017917306
9.5250966e-06
-0.0017937767
7.997771e-06
-0.0017954132
6.3697869e-06
-0.0017966172
4.6527721e-06
-0.0017973694
2.86061e-06
-0.0017976546
1.0093584e-06
-0.0017974618
-8.830647e-07
-0.0017967854
-2.7970485e-06
-0.0017956247
-4.7119227e-06
-0.0017939846
-6.6065324e-06
-0.0017918751
-8.4596698e-06
-0.0017893117
-1.0250896e-05
-0.0017863145
-1.1961177e-05
-0.0017829081
-1.3573509e-05
-0.0017791207
-1.5073519e-05
-0.0017749835
-1.6449852e-05
-0.0017705298
-1.7694406e-05
-0.0017657942
-1.88024e-05
-0.0017608119
-1.9772152e-05
-0.0017556177
-2.0604775e-05
-0.0017502458
-2.1303598e-05
-0.0017447292
-2.1873627e-05
-0.0017390994
-2.232084e-05
-0.0017333862
-2.265167e-05
-0.001727618
-2.2872484e-05
-0.0017218214
-2.2989242e-05
-0.0017160217
-2.3007333e-05
-0.0017102431
-2.2931612e-05
-0.0017045082
-2.2766448e-05
-0.0016988388
-2.251601e-05
-0.0016932556
-2.2184437e-05
-0.0016877778
-2.1776166e-05
-0.0016824235
-2.129596e-05
-0.0016772094
-2.0749138e-05
-0.0016721506
-2.0141483e-05
-0.0016672608
-1.9479213e-05
-0.0016625517
-1.87688e-05
-0.0016580336
-1.8016862e-05
-0.001653715
-1.7229877e-05
-0.0016496028
-1.6414108e-05
-0.0016457026
-1.5575407e-05
-0.0016420185
-1.4719124e-05
-0.0016385533
-1.3850021e-05
-0.0016353091
-1.2972274e-05
-0.0016322868
-1.2089399e-05
-0.0016294868
-1.1204334e-05
-0.0016269087
-1.0319428e-05
-0.001624552
-9.4365043e-06
-0.0016224155
-8.5568717e-06
-0.0016204981
-7.6814354e-06
-0.0016187985
-6.8106332e-06
-0.0016173152
-5.9446281e-06
-0.0016160472
-5.0831493e-06
-0.0016149931
-4.2258176e-06
-0.0016141522
-3.3717281e-06
-0.0016135237
-2.5202095e-06
-0.0016131074
-1.6697056e-06
-8.1961253e-07
-0.0016177792
2.3862527e-06
-0.0016182765
2.5188902e-06
-0.0016187966
2.6336133e-06
-0.0016193459
2.7806923e-06
-0.0016199238
2.9250009e-06
-0.0016205345
3.0905576e-06
-0.0016211793
3.2617956e-06
-0.0016218614
3.4497231e-06
-0.0016225827
3.6475037e-06
-0.0016233464
3.8603028e-06
-0.0016241548
4.0851971e-06
-0.0016250109
4.3247256e-06
-0.0016259173
4.5777115e-06
-0.0016268771
4.8455098e-06
-0.0016278931
5.1277139e-06
-0.0016289684
5.4251421e-06
-0.0016301061
5.7377177e-06
-0.0016313093
6.0660128e-06
-0.0016325813
6.4100814e-06
-0.0016339252
6.7703786e-06
-0.0016353444
7.1469958e-06
-0.0016368424
7.5403249e-06
-0.0016384224
7.9504437e-06
-0.0016400879
8.3776931e-06
-0.0016418425
8.822096e-06
-0.0016436896
9.2839227e-06
-0.0016456329
9.7630889e-06
-0.0016476757
1.0259744e-05
-0.0016498217
1.0773621e-05
-0.0016520743
1.1304664e-05
-0.001654437
1.1852316e-05
-0.001656913
1.2416148e-05
-0.0016595055
1.2995384e-05
-0.0016622174
1.3588818e-05
-0.0016650515
1.4195324e-05
-0.0016680102
1.4813002e-05
-0.0016710954
1.5440043e-05
-0.0016743087
1.6073764e-05
-0.0016776511
1.6711561e-05
-0.001681123
1.7349869e-05
-0.0016847239
1.798521e-05
-0.0016884527
1.8613105e-05
-0.0016923072
1.9229054e-05
-0.0016962844
1.982782e-05
-0.0017003801
2.0403783e-05
-0.0017045886
2.0950838e-05
-0.0017089033
2.14624e-05
-0.0017133159
2.1931455e-05
-0.0017178167
2.2350486e-05
-0.0017223944
2.2711584e-05
-0.0017270359
2.3006435e-05
-0.0017317264
2.3226382e-05
-0.0017364491
2.3362487e-05
-0.0017411856
2.3405663e-05
-0.0017459153
2.3346699e-05
-0.0017506158
2.317649e-05
-0.001755263
2.2886153e-05
-0.0017598307
2.2467221e-05
-0.0017642912
2.1911839e-05
-0.0017686154
2.1213035e-05
-0.0017727727
2.0364874e-05
-0.0017767317
1.9362801e-05
-0.0017804603
1.8203859e-05
-0.0017839258
1.6886961e-05
-0.0017870961
1.5413148e-05
-0.0017899395
1.378583e-05
-0.0017924254
1.2011025e-05
-0.0017945251
1.0097476e-05
-0.0017962122
8.0568274e-06
-0.0017974631
5.9036422e-06
-0.0017982578
3.6553287e-06
-0.0017985805
1.332035e-06
-0.0017984198
-1.0437532e-06
-0.0017977694
-3.4474107e-06
-0.0017966284
-5.852958e-06
-0.0017950011
-8.2337964e-06
-0.0017928975
-1.0563252e-05
-0.0017903328
-1.2815588e-05
-0.0017873272
-1.4966816e-05
-0.0017839052
-1.6995471e-05
-0.0017800954
-1.8883364e-05
-0.0017759292
-2.061608e-05
-0.0017714403
-2.2183265e-05
-0.001766664
-2.3578726e-05
-0.001761636
-2.4800158e-05
-0.001756392
-2.5848781e-05
-0.0017509669
-2.6728613e-05
-0.0017453948
-2.7445819e-05
-0.0017397078
-2.8007818e-05
-0.0017339368
-2.842266e-05
-0.0017281109
-2.8698351e-05
-0.0017222577
-2.8842446e-05
-0.0017164032
-2.8861822e-05
-0.0017105721
-2.8762722e-05
-0.0017047878
-2.8550799e-05
-0.0016990723
-2.8231476e-05
-0.0016934466
-2.7810131e-05
-0.0016879303
-2.7292516e-05
-0.0016825414
-2.6684773e-05
-0.0016772969
-2.599372e-05
-0.0016722116
-2.5226739e-05
-0.0016672991
-2.4391726e-05
-0.001662571
-2.3496878e-05
-0.0016580373
-2.2550548e-05
-0.0016537063
-2.1560896e-05
-0.0016495846
-2.0535793e-05
-0.0016456775
-1.948258e-05
-0.0016419886
-1.8407956e-05
-0.0016385208
-1.7317871e-05
-0.0016352755
-1.6217536e-05
-0.0016322536
-1.5111325e-05
-0.001629455
-1.4002885e-05
-0.0016268793
-1.2895122e-05
-0.0016245256
-1.1790279e-05
-0.0016223925
-1.0689956e-05
-0.0016204787
-9.5952471e-06
-0.0016187826
-8.5066597e-06
-0.0016173029
-7.4243601e-06
-0.0016160381
-6.3479698e-06
-0.0016149869
-5.2769801e-06
-0.0016141484
-4.210219e-06
-0.0016135218
-3.1468184e-06
-0.0016131067
-2.0847875e-06
-1.0233542e-06
-0.0016177239
2.852365e-06
-0.0016182161
3.0110189e-06
-0.0016187308
3.1483357e-06
-0.0016192745
3.3243627e-06
-0.0016198466
3.4971133e-06
-0.0016204513
3.6953159e-06
-0.0016210899
3.9003501e-06
-0.0016217656
4.1253949e-06
-0.0016224803
4.3622712e-06
-0.0016232372
4.6171688e-06
-0.0016240386
4.8865928e-06
-0.0016248875
5.1735893e-06
-0.0016257865
5.4767549e-06
-0.0016267387
5.7977187e-06
-0.001627747
6.136e-06
-0.0016288144
6.4925851e-06
-0.0016299441
6.8673887e-06
-0.0016311392
7.2611021e-06
-0.0016324029
7.6737962e-06
-0.0016337386
8.1060221e-06
-0.0016351495
8.557895e-06
-0.001636639
9.0298899e-06
-0.0016382107
9.5221055e-06
-0.0016398679
1.0034955e-05
-0.0016416143
1.0568472e-05
-0.0016434534
1.1122985e-05
-0.0016453887
1.1698399e-05
-0.0016474238
1.22949e-05
-0.0016495624
1.2912176e-05
-0.0016518079
1.3550171e-05
-0.0016541638
1.4208229e-05
-0.0016566335
1.488585e-05
-0.0016592203
1.5582124e-05
-0.0016619271
1.6295628e-05
-0.0016647568
1.7025039e-05
-0.0016677119
1.7768108e-05
-0.0016707946
1.8522705e-05
-0.0016740064
1.9285648e-05
-0.0016773487
2.0053856e-05
-0.001680822
2.0823094e-05
-0.001684426
2.1589231e-05
-0.0016881598
2.2346931e-05
-0.0016920216
2.3090828e-05
-0.0016960084
2.381466e-05
-0.0017001163
2.4511702e-05
-0.0017043401
2.5174628e-05
-0.0017086733
2.5795526e-05
-0.0017131078
2.6365954e-05
-0.0017176341
2.6876851e-05
-0.0017222412
2.7318665e-05
-0.0017269161
2.7681348e-05
-0.0017316441
2.7954419e-05
-0.0017364087
2.8127043e-05
-0.0017411912
2.8188196e-05
-0.0017459712
2.8126685e-05
-0.0017507262
2.7931433e-05
-0.0017554316
2.7591618e-05
-0.0017600613
2.7096906e-05
-0.0017645872
2.6437692e-05
-0.0017689796
2.5605432e-05
-0.0017732075
2.4592823e-05
-0.0017772389
2.3394229e-05
-0.001781041
2.2005939e-05
-0.0017845806
2.0426508e-05
-0.0017878245
1.8657063e-05
-0.0017907403
1.6701602e-05
-0.0017932965
1.4567282e-05
-0.0017954636
1.2264567e-05
-0.0017972142
9.8074345e-06
-0.001798524
7.2134032e-06
-0.0017993721
4.5034428e-06
-0.0017997419
1.701843e-06
-0.0017996214
-1.1642754e-06
-0.0017990036
-4.0651931e-06
-0.001797887
-6.9695244e-06
-0.0017962757
-9.8451183e-06
-0.0017941792
-1.2659722e-05
-0.0017916127
-1.538217e-05
-0.0017885961
-1.7983385e-05
-0.0017851543
-2.0437293e-05
-0.0017813159
-2.2721746e-05
-0.0017771129
-2.4819108e-05
-0.0017725795
-2.6716625e-05
-0.0017677517
-2.8406547e-05
-0.001762666
-2.9885814e-05
-0.0017573592
-3.1155637e-05
-0.0017518671
-3.2220632e-05
-0.0017462249
-3.3088062e-05
-0.001740466
-3.3766758e-05
-0.0017346222
-3.426639e-05
-0.0017287239
-3.4596646e-05
-0.0017227996
-3.4766744e-05
-0.0017168763
-3.4785143e-05
-0.0017109794
-3.4659594e-05
-0.0017051331
-3.4397168e-05
-0.0016993599
-3.4004678e-05
-0.0016936811
-3.3488883e-05
-0.0016881166
-3.2856987e-05
-0.0016826848
-3.2116636e-05
-0.0016774022
-3.1276267e-05
-0.001672284
-3.0344954e-05
-0.0016673434
-2.9332366e-05
-0.0016625918
-2.8248487e-05
-0.0016580389
-2.7103464e-05
-0.0016536926
-2.5907177e-05
-0.0016495592
-2.4669135e-05
-0.0016456436
-2.3398182e-05
-0.0016419492
-2.2102374e-05
-0.0016384782
-2.078885e-05
-0.0016352319
-1.9463842e-05
-0.0016322107
-1.8132571e-05
-0.0016294142
-1.6799375e-05
-0.0016268416
-1.5467693e-05
-0.0016244917
-1.4140167e-05
-0.001622363
-1.2818662e-05
-0.0016204538
-1.1504434e-05
-0.0016187625
-1.0198035e-05
-0.0016172872
-8.899609e-06
-0.0016160265
-7.6086427e-06
-0.0016149791
-6.3244741e-06
-0.0016141436
-5.0456379e-06
-0.0016135194
-3.7710487e-06
-0.0016131059
-2.4982526e-06
-1.226296e-06
-0.0016176593
3.3125134e-06
-0.0016181453
3.4969404e-06
-0.0016186536
3.6566639e-06
-0.0016191906
3.8613988e-06
-0.0016197559
4.0623735e-06
-0.0016203536
4.2929798e-06
-0.0016209848
4.5315759e-06
-0.0016216529
4.7934931e-06
-0.0016223598
5.0692248e-06
-0.0016231086
5.3659784e-06
-0.0016239017
5.6796948e-06
-0.0016247421
6.0139264e-06
-0.0016256324
6.3670478e-06
-0.0016265756
6.7409629e-06
-0.0016275747
7.1351206e-06
-0.0016286328
7.5506771e-06
-0.001629753
7.9875415e-06
-0.0016309384
8.4465267e-06
-0.0016321923
8.9277234e-06
-0.0016335181
9.4317811e-06
-0.001634919
9.9588418e-06
-0.0016363986
1.0509466e-05
-0.0016379603
1.1083777e-05
-0.0016396076
1.1682263e-05
-0.0016413441
1.2304971e-05
-0.0016431734
1.2952292e-05
-0.0016450991
1.3624127e-05
-0.0016471249
1.4320702e-05
-0.0016492544
1.5041667e-05
-0.0016514912
1.5786972e-05
-0.0016538389
1.6555871e-05
-0.0016563008
1.7347807e-05
-0.0016588804
1.8161744e-05
-0.0016615809
1.8996059e-05
-0.0016644051
1.9849245e-05
-0.0016673557
2.0718727e-05
-0.0016704351
2.1602068e-05
-0.001673645
2.249561e-05
-0.001676987
2.3395816e-05
-0.0016804617
2.4297803e-05
-0.0016840693
2.5196806e-05
-0.001687809
2.608665e-05
-0.0016916793
2.6961121e-05
-0.0016956776
2.7812945e-05
-0.0016998002
2.8634294e-05
-0.0017040422
2.9416629e-05
-0.0017083973
3.0150704e-05
-0.001712858
3.0826636e-05
-0.001717415
3.1433799e-05
-0.0017220573
3.1960974e-05
-0.0017267723
3.2396336e-05
-0.0017315454
3.2727536e-05
-0.0017363601
3.2941787e-05
-0.001741198
3.3026058e-05
-0.0017460384
3.2967103e-05
-0.0017508588
3.275179e-05
-0.0017556344
3.2367265e-05
-0.0017603387
3.1801235e-05
-0.0017649433
3.1042244e-05
-0.0017694179
3.0080073e-05
-0.0017737311
2.890595e-05
-0.0017778499
2.7513059e-05
-0.0017817408
2.5896844e-05
-0.0017853697
2.4055418e-05
-0.0017887026
2.1989926e-05
-0.0017917059
1.9704899e-05
-0.0017943472
1.7208593e-05
-0.0017965958
1.4513176e-05
-0.0017984233
1.1634958e-05
-0.0017998043
8.5944346e-06
-0.0018007171
5.4161815e-06
-0.0018011439
2.128689e-06
-0.001801072
-1.2362046e-06
-0.0018004936
-4.6435945e-06
-0.0017994065
-8.056571e-06
-0.0017978144
-1.1437293e-05
-0.0017957263
-1.4747791e-05
-0.0017931572
-1.7951306e-05
-0.001790127
-2.1013509e-05
-0.0017866608
-2.3903536e-05
-0.0017827875
-2.659509e-05
-0.0017785394
-2.9067133e-05
-0.0017739517
-3.1304322e-05
-0.0017690611
-3.3297175e-05
-0.0017639052
-3.5041712e-05
-0.0017585218
-3.6539e-05
-0.0017529483
-3.7794141e-05
-0.001747221
-3.8815426e-05
-0.0017413747
-3.961306e-05
-0.0017354427
-4.0198348e-05
-0.0017294567
-4.0582703e-05
-0.0017234463
-4.0777101e-05
-0.0017174397
-4.0791697e-05
-0.0017114634
-4.0635902e-05
-0.0017055422
-4.0318356e-05
-0.0016996995
-3.9847443e-05
-0.0016939569
-3.923147e-05
-0.0016883346
-3.8479261e-05
-0.0016828511
-3.7600119e-05
-0.0016775232
-3.6604241e-05
-0.0016723656
-3.5502517e-05
-0.0016673915
-3.4306486e-05
-0.001662612
-3.302801e-05
-0.0016580363
-3.1679093e-05
-0.0016536721
-3.0271382e-05
-0.0016495252
-2.8816056e-05
-0.0016455999
-2.7323484e-05
-0.0016418992
-2.5803082e-05
-0.0016384249
-2.4263173e-05
-0.0016351777
-2.2711004e-05
-0.0016321577
-2.1152622e-05
-0.001629364
-1.9593033e-05
-0.0016267955
-1.8036183e-05
-0.0016244506
-1.6485083e-05
-0.0016223274
-1.4941833e-05
-0.001620424
-1.3407819e-05
-0.0016187385
-1.1883605e-05
-0.0016172688
-1.0369281e-05
-0.0016160133
-8.8641689e-06
-0.0016149703
-7.3674237e-06
-0.0016141387
-5.8772555e-06
-0.0016135174
-4.3923371e-06
-0.0016131059
-2.909717e-06
-1.4282445e-06
-0.0016175826
3.7657565e-06
-0.0016180613
3.9756885e-06
-0.0016185623
4.1576033e-06
-0.0016190916
4.3907742e-06
-0.001619649
4.6197236e-06
-0.0016202385
4.8824568e-06
-0.0016208612
5.1543461e-06
-0.0016215206
5.4528548e-06
-0.0016222185
5.7671652e-06
-0.001622958
6.1054951e-06
-0.0016237416
6.4632301e-06
-0.0016245721
6.8444267e-06
-0.0016254523
7.2472431e-06
-0.0016263852
7.6738589e-06
-0.0016273737
8.1236564e-06
-0.001628421
8.5979637e-06
-0.0016295301
9.0966877e-06
-0.0016307044
9.6207654e-06
-0.001631947
1.0170311e-05
-0.0016332613
1.0746074e-05
-0.0016346506
1.1348227e-05
-0.0016361186
1.197742e-05
-0.0016376686
1.2633803e-05
-0.0016393043
1.3317944e-05
-0.0016410292
1.4029908e-05
-0.0016428471
1.4770155e-05
-0.0016447616
1.5538583e-05
-0.0016467763
1.633547e-05
-0.0016488951
1.7160433e-05
-0.0016511216
1.8013439e-05
-0.0016534594
1.8893664e-05
-0.0016559121
1.9800504e-05
-0.0016584831
2.0732816e-05
-0.0016611759
2.168879e-05
-0.0016639934
2.2666759e-05
-0.0016669385
2.3663837e-05
-0.0016700137
2.4677304e-05
-0.0016732212
2.5703053e-05
-0.0016765625
2.6737111e-05
-0.0016800386
2.7773971e-05
-0.0016836501
2.8808261e-05
-0.0016873964
2.9832984e-05
-0.0016912764
3.0841097e-05
-0.0016952878
3.1824328e-05
-0.0016994272
3.2773758e-05
-0.0017036902
3.3679633e-05
-0.0017080709
3.453137e-05
-0.0017125619
3.5317635e-05
-0.0017171543
3.6026213e-05
-0.0017218375
3.6644185e-05
-0.0017265991
3.7157909e-05
-0.0017314247
3.7553114e-05
-0.0017362979
3.7814996e-05
-0.0017412003
3.7928444e-05
-0.0017461112
3.7878068e-05
-0.001751008
3.7648586e-05
-0.0017558658
3.7225007e-05
-0.0017606575
3.6592964e-05
-0.0017653543
3.5739032e-05
-0.0017699254
3.4651192e-05
-0.0017743385
3.3319084e-05
-0.0017785601
3.1734592e-05
-0.0017825554
2.9892206e-05
-0.0017862895
2.7789496e-05
-0.0017897271
2.5427536e-05
-0.0017928336
2.2811322e-05
-0.0017955751
1.9950167e-05
-0.0017979199
1.6857911e-05
-0.0017998381
1.3553201e-05
-0.0018013032
1.0059531e-05
-0.0018022922
6.4051372e-06
-0.0018027863
2.6227807e-06
-0.0018027716
-1.2508771e-06
-0.0018022395
-5.175641e-06
-0.0018011872
-9.1089374e-06
-0.0017996174
-1.3007066e-05
-0.001797539
-1.6826178e-05
-0.0017949666
-2.0523729e-05
-0.0017919202
-2.4059937e-05
-0.0017884248
-2.7398935e-05
-0.0017845098
-3.0510058e-05
-0.0017802083
-3.3368642e-05
-0.0017755561
-3.5956529e-05
-0.0017705909
-3.8262301e-05
-0.0017653518
-4.0280859e-05
-0.0017598778
-4.2012967e-05
-0.0017542079
-4.3464079e-05
-0.0017483799
-4.4643435e-05
-0.0017424304
-4.556257e-05
-0.0017363943
-4.6234444e-05
-0.0017303047
-4.6672249e-05
-0.001724193
-4.6888832e-05
-0.0017180885
-4.6896184e-05
-0.0017120189
-4.6705554e-05
-0.0017060099
-4.6327348e-05
-0.0017000856
-4.5771722e-05
-0.0016942683
-4.5048735e-05
-0.0016885786
-4.4169032e-05
-0.0016830349
-4.3143757e-05
-0.0016776541
-4.198503e-05
-0.0016724509
-4.0705703e-05
-0.0016674381
-3.9319308e-05
-0.0016626265
-3.7839677e-05
-0.0016580248
-3.6280749e-05
-0.0016536402
-3.4655995e-05
-0.0016494779
-3.29783e-05
-0.0016455419
-3.1259575e-05
-0.0016418343
-2.9510605e-05
-0.0016383566
-2.7740891e-05
-0.0016351089
-2.595868e-05
-0.0016320907
-2.4170821e-05
-0.0016293008
-2.2382959e-05
-0.0016267375
-2.0599517e-05
-0.0016243987
-1.8823839e-05
-0.0016222823
-1.7058222e-05
-0.001620386
-1.5304146e-05
-0.0016187075
-1.3562149e-05
-0.0016172445
-1.183223e-05
-0.0016159952
-1.0113508e-05
-0.0016149577
-8.4049226e-06
-0.0016141306
-6.7043218e-06
-0.0016135128
-5.0101084e-06
-0.0016131038
-3.3187936e-06
-1.6290112e-06
-0.0016174967
4.2111661e-06
-0.0016179673
4.4463092e-06
-0.0016184599
4.6501687e-06
-0.0016189806
4.9114713e-06
-0.001619529
5.1681121e-06
-0.0016201092
5.4626601e-06
-0.0016207224
5.7675381e-06
-0.0016213718
6.1023201e-06
-0.0016220596
6.4548952e-06
-0.0016227885
6.8344835e-06
-0.0016235612
7.2359248e-06
-0.0016243806
7.6637777e-06
-0.0016252493
8.1159899e-06
-0.0016261705
8.5950173e-06
-0.001627147
9.1001802e-06
-0.001628182
9.6329805e-06
-0.0016292787
1.0193327e-05
-0.0016304402
1.0782282e-05
-0.0016316699
1.1399988e-05
-0.0016329711
1.2047298e-05
-0.0016343473
1.2724418e-05
-0.001635802
1.3432091e-05
-0.0016373387
1.4170499e-05
-0.001638961
1.4940293e-05
-0.0016406727
1.5741562e-05
-0.0016424773
1.657484e-05
-0.0016443788
1.7440032e-05
-0.0016463808
1.8337472e-05
-0.0016484871
1.9266759e-05
-0.0016507016
2.0227885e-05
-0.0016530279
2.1219962e-05
-0.0016554697
2.2242357e-05
-0.0016580307
2.3293834e-05
-0.0016607144
2.4372419e-05
-0.0016635239
2.5476304e-05
-0.0016664624
2.6602319e-05
-0.0016695326
2.7747485e-05
-0.0016727368
2.8907272e-05
-0.001676077
3.0077299e-05
-0.0016795545
3.1251462e-05
-0.00168317
3.2423804e-05
-0.0016869236
3.3586537e-05
-0.0016908143
3.4731803e-05
-0.0016948403
3.5850352e-05
-0.0016989987
3.6932182e-05
-0.0017032854