/*--------------------------------*- C++ -*----------------------------------*\
| =========                 |                                                 |
| \\      /  F ield         | foam-extend: Open Source CFD                    |
|  \\    /   O peration     | Version:     4.1                                |
|   \\  /    A nd           | Web:         http://www.foam-extend.org         |
|    \\/     M anipulation  |                                                 |
\*---------------------------------------------------------------------------*/
FoamFile
{
    version     2.0;
    format      ascii;
    class       volScalarField;
    location    "0.9";
    object      rAU;
}
// * * * * * * * * * * * * * * * * * * * * * * * * * * * * * * * * * * * * * //

dimensions      [0 0 1 0 0 0 0];

internalField   nonuniform List<scalar> 
16796
(
0.00048790573
0.00048749632
0.00048749304
0.00048748968
0.00048748604
0.0004874823
0.00048747825
0.00048747406
0.00048746955
0.00048746486
0.00048745981
0.00048745455
0.0004874489
0.00048744301
0.00048743669
0.00048743009
0.00048742302
0.00048741564
0.00048740776
0.00048739952
0.00048739074
0.00048738157
0.00048737181
0.00048736162
0.0004873508
0.00048733951
0.00048732755
0.00048731508
0.00048730189
0.00048728815
0.00048727366
0.00048725852
0.00048724274
0.00048722614
0.0004872089
0.00048719083
0.00048717209
0.00048715249
0.00048713222
0.00048711109
0.00048708928
0.00048706665
0.00048704332
0.00048701927
0.00048699453
0.00048696915
0.00048694315
0.00048691662
0.00048688959
0.00048686214
0.00048683436
0.00048680634
0.00048677816
0.00048674997
0.00048672187
0.00048669399
0.00048666649
0.00048663952
0.00048661323
0.00048658782
0.00048656344
0.00048654029
0.00048651855
0.00048649842
0.00048648006
0.00048646367
0.00048644944
0.0004864375
0.00048642802
0.00048642113
0.00048641694
0.00048641554
0.00048641554
0.00048641699
0.00048642131
0.00048642852
0.00048643857
0.00048645141
0.00048646694
0.00048648504
0.00048650556
0.00048652834
0.00048655318
0.00048657989
0.00048660826
0.00048663808
0.00048666917
0.0004867013
0.00048673429
0.00048676795
0.00048680213
0.00048683664
0.00048687133
0.00048690606
0.0004869407
0.00048697509
0.00048700912
0.00048704267
0.00048707561
0.00048710785
0.00048713927
0.00048716979
0.00048719931
0.00048722778
0.00048725512
0.00048728128
0.00048730621
0.00048732987
0.00048735224
0.00048737331
0.00048739304
0.00048741144
0.0004874285
0.00048744421
0.00048745858
0.00048747162
0.00048748333
0.00048749371
0.00048750277
0.00048751052
0.00048751696
0.00048752211
0.00048752595
0.00048712277
0.00048759803
0.00048718899
0.00048718558
0.00048718204
0.00048717825
0.00048717431
0.00048717007
0.00048716567
0.00048716092
0.00048715599
0.00048715068
0.00048714515
0.0004871392
0.000487133
0.00048712636
0.00048711941
0.00048711199
0.00048710423
0.00048709594
0.00048708729
0.00048707807
0.00048706844
0.00048705821
0.00048704752
0.00048703619
0.00048702436
0.00048701185
0.0004869988
0.00048698501
0.00048697065
0.00048695552
0.00048693973
0.00048692327
0.00048690599
0.00048688804
0.00048686925
0.00048684978
0.00048682944
0.00048680843
0.00048678656
0.00048676402
0.00048674065
0.00048671661
0.00048669186
0.00048666646
0.00048664044
0.00048661385
0.00048658677
0.00048655926
0.0004865314
0.00048650327
0.00048647499
0.00048644666
0.00048641842
0.00048639038
0.00048636271
0.00048633554
0.00048630906
0.00048628341
0.00048625881
0.00048623542
0.00048621344
0.00048619305
0.00048617445
0.00048615781
0.00048614332
0.00048613116
0.00048612146
0.00048611437
0.00048611
0.00048610845
0.00048610977
0.00048610973
0.00048610826
0.00048610966
0.00048611398
0.00048612122
0.00048613134
0.00048614429
0.00048615996
0.00048617823
0.00048619894
0.00048622193
0.00048624699
0.00048627393
0.00048630254
0.0004863326
0.00048636391
0.00048639627
0.00048642947
0.00048646335
0.00048649772
0.00048653242
0.00048656729
0.0004866022
0.00048663699
0.00048667153
0.0004867057
0.00048673937
0.00048677243
0.00048680476
0.00048683627
0.00048686686
0.00048689645
0.00048692496
0.00048695232
0.0004869785
0.00048700344
0.0004870271
0.00048704947
0.00048707052
0.00048709023
0.00048710861
0.00048712564
0.00048714132
0.00048715567
0.00048716868
0.00048718036
0.00048719071
0.00048719976
0.00048720748
0.00048721392
0.00048721905
0.00048681766
0.00048759525
0.00048718606
0.00048718253
0.00048717883
0.00048717487
0.00048717074
0.00048716631
0.00048716169
0.00048715673
0.00048715155
0.00048714598
0.00048714018
0.00048713395
0.00048712744
0.00048712047
0.00048711318
0.00048710539
0.00048709726
0.00048708858
0.00048707951
0.00048706985
0.00048705977
0.00048704905
0.00048703787
0.00048702602
0.00048701365
0.00048700057
0.00048698694
0.00048697255
0.00048695756
0.00048694178
0.00048692533
0.00048690818
0.00048689019
0.00048687152
0.00048685199
0.00048683176
0.00048681067
0.00048678889
0.00048676624
0.00048674293
0.0004867188
0.000486694
0.00048666851
0.00048664239
0.00048661568
0.00048658845
0.00048656076
0.00048653269
0.00048650433
0.00048647579
0.00048644717
0.00048641859
0.0004863902
0.00048636213
0.00048633455
0.00048630761
0.0004862815
0.00048625638
0.00048623248
0.00048620995
0.00048618902
0.00048616986
0.00048615267
0.00048613765
0.00048612495
0.00048611476
0.00048610721
0.00048610242
0.00048610051
0.00048610153
0.00048610553
0.00048610555
0.00048610109
0.00048609953
0.00048610094
0.00048610534
0.00048611275
0.00048612312
0.00048613639
0.00048615244
0.00048617114
0.00048619234
0.00048621584
0.00048624144
0.00048626892
0.00048629808
0.00048632869
0.00048636053
0.00048639341
0.00048642712
0.00048646148
0.00048649631
0.00048653146
0.00048656676
0.00048660207
0.00048663724
0.00048667215
0.00048670665
0.00048674063
0.00048677397
0.00048680655
0.00048683827
0.00048686905
0.00048689879
0.00048692743
0.0004869549
0.00048698115
0.00048700614
0.00048702985
0.00048705224
0.0004870733
0.00048709301
0.00048711137
0.00048712838
0.00048714405
0.00048715837
0.00048717136
0.00048718302
0.00048719335
0.00048720237
0.00048721009
0.00048721652
0.00048681642
0.00048759255
0.00048718322
0.00048717956
0.0004871757
0.00048717159
0.00048716729
0.00048716267
0.00048715785
0.00048715267
0.00048714726
0.00048714144
0.00048713538
0.00048712886
0.00048712206
0.00048711477
0.00048710716
0.00048709902
0.00048709051
0.00048708144
0.00048707197
0.00048706188
0.00048705135
0.00048704017
0.0004870285
0.00048701614
0.00048700324
0.00048698961
0.0004869754
0.00048696041
0.00048694481
0.00048692839
0.00048691127
0.00048689344
0.00048687475
0.00048685536
0.00048683509
0.00048681412
0.00048679226
0.0004867697
0.00048674628
0.00048672219
0.00048669728
0.00048667171
0.00048664547
0.00048661861
0.00048659119
0.00048656327
0.00048653494
0.00048650628
0.00048647739
0.00048644837
0.00048641935
0.00048639046
0.00048636186
0.00048633369
0.00048630612
0.00048627933
0.00048625351
0.00048622884
0.00048620554
0.00048618379
0.00048616381
0.00048614579
0.00048612994
0.00048611643
0.00048610544
0.00048609714
0.00048609166
0.00048608912
0.00048608959
0.00048609313
0.00048609977
0.00048610006
0.00048609256
0.00048608797
0.00048608642
0.00048608795
0.00048609261
0.00048610039
0.00048611124
0.00048612509
0.0004861418
0.00048616123
0.0004861832
0.0004862075
0.00048623393
0.00048626224
0.00048629222
0.00048632363
0.00048635625
0.00048638989
0.00048642433
0.00048645939
0.00048649489
0.00048653068
0.00048656659
0.00048660247
0.00048663819
0.0004866736
0.00048670856
0.00048674296
0.00048677667
0.00048680957
0.00048684158
0.00048687258
0.00048690252
0.00048693131
0.00048695889
0.00048698522
0.00048701028
0.00048703401
0.00048705641
0.00048707746
0.00048709716
0.00048711549
0.00048713248
0.00048714811
0.00048716239
0.00048717534
0.00048718697
0.00048719727
0.00048720628
0.00048721398
0.00048681518
0.00048758992
0.00048718046
0.0004871767
0.00048717269
0.00048716843
0.00048716396
0.00048715916
0.00048715415
0.00048714875
0.00048714312
0.00048713707
0.00048713075
0.00048712396
0.00048711687
0.00048710928
0.00048710134
0.00048709286
0.000487084
0.00048707455
0.00048706468
0.00048705418
0.00048704321
0.00048703158
0.00048701943
0.00048700656
0.00048699314
0.00048697897
0.00048696419
0.00048694861
0.0004869324
0.00048691535
0.00048689757
0.00048687907
0.00048685967
0.00048683957
0.00048681857
0.00048679684
0.00048677422
0.00048675089
0.00048672668
0.0004867018
0.00048667611
0.00048664975
0.00048662273
0.00048659511
0.00048656694
0.00048653831
0.0004865093
0.00048648
0.00048645052
0.00048642097
0.0004863915
0.00048636223
0.00048633335
0.000486305
0.00048627736
0.00048625064
0.00048622501
0.00048620069
0.0004861779
0.00048615684
0.00048613772
0.00048612075
0.00048610613
0.00048609406
0.0004860847
0.00048607821
0.00048607473
0.00048607436
0.00048607717
0.00048608319
0.00048609243
0.00048609331
0.00048608268
0.000486075
0.00048607042
0.00048606904
0.00048607091
0.00048607607
0.00048608449
0.00048609612
0.00048611084
0.00048612853
0.000486149
0.00048617205
0.00048619746
0.000486225
0.00048625442
0.00048628548
0.00048631794
0.00048635158
0.0004863862
0.00048642158
0.00048645754
0.0004864939
0.0004865305
0.00048656718
0.00048660379
0.00048664018
0.0004866762
0.00048671172
0.00048674661
0.00048678074
0.00048681402
0.00048684633
0.00048687759
0.00048690772
0.00048693666
0.00048696435
0.00048699076
0.00048701585
0.00048703959
0.00048706198
0.00048708301
0.00048710266
0.00048712096
0.00048713789
0.00048715347
0.00048716771
0.00048718061
0.00048719219
0.00048720248
0.00048721146
0.00048681394
0.00048758739
0.00048717781
0.00048717394
0.00048716979
0.00048716539
0.00048716075
0.00048715579
0.00048715058
0.00048714499
0.00048713914
0.00048713286
0.00048712629
0.00048711925
0.00048711188
0.00048710399
0.00048709574
0.00048708694
0.00048707772
0.00048706791
0.00048705765
0.00048704674
0.00048703535
0.00048702326
0.00048701064
0.00048699729
0.00048698336
0.00048696865
0.00048695331
0.00048693716
0.00048692034
0.00048690266
0.00048688424
0.00048686506
0.00048684497
0.00048682415
0.00048680242
0.00048677994
0.00048675655
0.00048673244
0.00048670744
0.00048668176
0.00048665526
0.0004866281
0.00048660028
0.00048657187
0.00048654293
0.00048651354
0.00048648381
0.00048645382
0.00048642369
0.00048639356
0.00048636357
0.00048633386
0.00048630461
0.000486276
0.00048624822
0.00048622146
0.00048619595
0.00048617188
0.00048614951
0.00048612903
0.00048611067
0.00048609465
0.00048608118
0.00048607045
0.00048606262
0.00048605788
0.00048605633
0.00048605807
0.00048606316
0.00048607162
0.00048608343
0.00048608532
0.00048607148
0.00048606064
0.00048605296
0.0004860486
0.00048604763
0.00048605014
0.0004860561
0.00048606549
0.00048607823
0.00048609418
0.00048611318
0.00048613501
0.00048615946
0.00048618628
0.0004862152
0.00048624599
0.00048627837
0.00048631212
0.000486347
0.0004863828
0.00048641931
0.00048645635
0.00048649375
0.00048653131
0.00048656891
0.00048660635
0.0004866435
0.00048668022
0.00048671635
0.00048675177
0.00048678637
0.00048682002
0.00048685264
0.00048688414
0.00048691446
0.00048694352
0.0004869713
0.00048699775
0.00048702284
0.00048704657
0.00048706893
0.0004870899
0.0004871095
0.00048712773
0.00048714459
0.00048716011
0.00048717429
0.00048718714
0.0004871987
0.00048720895
0.00048681271
0.00048758496
0.00048717526
0.00048717129
0.000487167
0.00048716247
0.00048715768
0.00048715255
0.00048714717
0.00048714139
0.00048713533
0.00048712883
0.00048712203
0.00048711473
0.00048710709
0.00048709892
0.00048709037
0.00048708124
0.00048707169
0.00048706152
0.00048705088
0.00048703958
0.00048702777
0.00048701525
0.00048700217
0.00048698833
0.0004869739
0.00048695866
0.00048694278
0.00048692605
0.00048690863
0.00048689033
0.00048687127
0.00048685142
0.00048683065
0.00048680912
0.00048678665
0.00048676342
0.00048673926
0.00048671436
0.00048668856
0.00048666206
0.00048663474
0.00048660676
0.00048657811
0.00048654888
0.00048651913
0.00048648894
0.00048645844
0.00048642771
0.00048639689
0.00048636611
0.00048633552
0.00048630529
0.0004862756
0.00048624664
0.00048621862
0.00048619174
0.00048616623
0.00048614232
0.00048612026
0.00048610026
0.00048608257
0.0004860674
0.00048605497
0.00048604549
0.00048603913
0.00048603605
0.00048603636
0.00048604015
0.00048604748
0.00048605834
0.0004860727
0.00048607613
0.00048605898
0.00048604488
0.00048603403
0.00048602661
0.00048602275
0.00048602254
0.00048602601
0.00048603315
0.00048604389
0.00048605811
0.00048607564
0.00048609629
0.00048611982
0.00048614598
0.00048617448
0.00048620507
0.00048623746
0.00048627141
0.00048630666
0.00048634298
0.00048638015
0.00048641798
0.00048645626
0.00048649482
0.00048653349
0.00048657208
0.00048661045
0.00048664843
0.00048668587
0.00048672264
0.00048675861
0.00048679365
0.00048682767
0.00048686057
0.00048689229
0.00048692274
0.0004869519
0.00048697972
0.00048700618
0.00048703125
0.00048705493
0.00048707721
0.00048709812
0.00048711763
0.00048713578
0.00048715256
0.00048716801
0.00048718212
0.00048719494
0.00048720646
0.00048681148
0.00048758262
0.00048717281
0.00048716875
0.00048716433
0.00048715968
0.00048715474
0.00048714946
0.00048714391
0.00048713795
0.00048713169
0.00048712498
0.00048711795
0.00048711041
0.00048710251
0.00048709407
0.00048708522
0.00048707578
0.0004870659
0.00048705538
0.00048704438
0.00048703269
0.00048702047
0.00048700752
0.000486994
0.00048697969
0.00048696476
0.00048694901
0.00048693258
0.00048691529
0.00048689729
0.00048687838
0.00048685867
0.00048683817
0.00048681671
0.00048679447
0.00048677126
0.00048674728
0.00048672235
0.00048669665
0.00048667004
0.00048664271
0.00048661455
0.00048658572
0.00048655622
0.00048652613
0.00048649553
0.00048646451
0.00048643319
0.00048640166
0.00048637008
0.00048633857
0.00048630732
0.00048627648
0.00048624627
0.00048621687
0.00048618851
0.0004861614
0.0004861358
0.00048611194
0.00048609008
0.00048607046
0.00048605332
0.0004860389
0.00048602743
0.0004860191
0.00048601411
0.00048601261
0.00048601471
0.0004860205
0.00048603002
0.00048604326
0.00048606015
0.00048606576
0.0004860452
0.00048602774
0.00048601362
0.00048600307
0.00048599623
0.00048599325
0.00048599418
0.00048599902
0.00048600774
0.00048602023
0.00048603632
0.00048605581
0.00048607846
0.000486104
0.00048613216
0.00048616263
0.00048619512
0.00048622937
0.00048626509
0.00048630204
0.00048633999
0.00048637871
0.00048641799
0.00048645765
0.00048649749
0.00048653733
0.000486577
0.00048661633
0.00048665516
0.00048669334
0.00048673073
0.00048676722
0.00048680267
0.00048683701
0.00048687015
0.00048690202
0.00048693258
0.00048696178
0.0004869896
0.00048701602
0.00048704102
0.00048706461
0.00048708681
0.00048710761
0.00048712702
0.00048714507
0.00048716177
0.00048717713
0.0004871912
0.00048720398
0.00048681026
0.00048758038
0.00048717047
0.00048716633
0.00048716179
0.00048715702
0.00048715194
0.00048714652
0.0004871408
0.00048713467
0.00048712823
0.00048712132
0.00048711406
0.00048710629
0.00048709815
0.00048708944
0.00048708031
0.00048707057
0.00048706037
0.00048704952
0.00048703816
0.0004870261
0.00048701348
0.00048700011
0.00048698615
0.00048697138
0.00048695596
0.0004869397
0.00048692275
0.0004869049
0.00048688632
0.0004868668
0.00048684647
0.0004868253
0.00048680316
0.00048678021
0.00048675628
0.00048673154
0.00048670582
0.00048667932
0.00048665188
0.00048662372
0.0004865947
0.00048656499
0.0004865346
0.00048650363
0.00048647214
0.00048644023
0.00048640803
0.00048637565
0.00048634324
0.00048631094
0.00048627894
0.00048624742
0.00048621658
0.00048618664
0.00048615784
0.0004861304
0.0004861046
0.00048608067
0.0004860589
0.00048603954
0.00048602284
0.00048600906
0.00048599844
0.00048599117
0.00048598746
0.00048598747
0.0004859913
0.00048599903
0.00048601071
0.00048602629
0.0004860457
0.00048605424
0.00048603015
0.00048600921
0.00048599172
0.00048597793
0.00048596804
0.00048596221
0.00048596053
0.00048596305
0.00048596972
0.00048598045
0.0004859951
0.00048601345
0.00048603527
0.00048606026
0.00048608813
0.00048611857
0.00048615126
0.00048618591
0.00048622222
0.00048625992
0.00048629875
0.00048633849
0.00048637889
0.00048641976
0.00048646089
0.00048650208
0.00048654315
0.00048658391
0.00048662421
0.00048666386
0.00048670275
0.00048674072
0.00048677767
0.00048681348
0.00048684807
0.00048688138
0.00048691335
0.00048694394
0.00048697313
0.00048700089
0.00048702722
0.00048705212
0.0004870756
0.00048709767
0.00048711834
0.00048713764
0.00048715558
0.00048717219
0.00048718749
0.00048720151
0.00048680905
0.00048757825
0.00048716825
0.00048716403
0.00048715938
0.0004871545
0.00048714929
0.00048714374
0.00048713787
0.00048713157
0.00048712495
0.00048711784
0.00048711039
0.00048710239
0.00048709401
0.00048708504
0.00048707564
0.00048706562
0.00048705511
0.00048704393
0.00048703223
0.0004870198
0.0004870068
0.00048699302
0.00048697863
0.00048696341
0.00048694752
0.00048693076
0.00048691329
0.00048689489
0.00048687574
0.00048685562
0.00048683466
0.00048681285
0.00048679002
0.00048676637
0.0004867417
0.0004867162
0.0004866897
0.00048666238
0.00048663411
0.00048660508
0.00048657518
0.00048654457
0.00048651327
0.00048648137
0.00048644895
0.0004864161
0.00048638297
0.00048634967
0.00048631636
0.00048628319
0.00048625036
0.00048621805
0.0004861865
0.00048615592
0.00048612656
0.00048609868
0.00048607255
0.00048604844
0.00048602664
0.00048600742
0.00048599105
0.00048597779
0.00048596791
0.00048596161
0.00048595908
0.00048596052
0.00048596601
0.00048597563
0.00048598942
0.00048600733
0.00048602926
0.0004860416
0.00048601384
0.0004859893
0.00048596832
0.00048595118
0.00048593813
0.00048592938
0.00048592502
0.00048592515
0.00048592973
0.0004859387
0.0004859519
0.00048596914
0.00048599015
0.00048601464
0.0004860423
0.00048607279
0.00048610577
0.00048614094
0.00048617795
0.00048621652
0.00048625638
0.00048629725
0.00048633891
0.0004863811
0.00048642364
0.00048646629
0.00048650886
0.00048655116
0.000486593
0.00048663422
0.00048667466
0.00048671418
0.00048675265
0.00048678997
0.00048682605
0.00048686082
0.00048689422
0.00048692622
0.00048695678
0.00048698589
0.00048701354
0.00048703974
0.0004870645
0.00048708783
0.00048710975
0.00048713028
0.00048714945
0.00048716729
0.00048718382
0.00048719907
0.00048680785
0.00048757624
0.00048716615
0.00048716186
0.0004871571
0.00048715213
0.0004871468
0.00048714112
0.0004871351
0.00048712865
0.00048712186
0.00048711457
0.00048710692
0.00048709871
0.0004870901
0.00048708089
0.00048707123
0.00048706093
0.00048705012
0.00048703863
0.00048702659
0.00048701381
0.00048700043
0.00048698626
0.00048697145
0.00048695579
0.00048693944
0.00048692219
0.0004869042
0.00048688527
0.00048686555
0.00048684485
0.00048682327
0.00048680081
0.00048677731
0.00048675295
0.00048672755
0.00048670128
0.00048667398
0.00048664585
0.00048661672
0.00048658682
0.00048655601
0.00048652447
0.00048649223
0.00048645936
0.00048642595
0.00048639212
0.000486358
0.00048632372
0.00048628943
0.00048625531
0.00048622155
0.00048618836
0.00048615598
0.00048612465
0.00048609462
0.00048606618
0.0004860396
0.00048601518
0.00048599322
0.00048597401
0.00048595784
0.000485945
0.00048593573
0.00048593029
0.00048592886
0.00048593164
0.00048593872
0.00048595019
0.00048596605
0.00048598626
0.00048601071
0.00048602786
0.00048599628
0.000485968
0.00048594339
0.00048592278
0.00048590646
0.00048589468
0.00048588757
0.00048588524
0.00048588769
0.00048589486
0.00048590662
0.00048592274
0.00048594299
0.00048596704
0.00048599455
0.00048602519
0.00048605857
0.00048609436
0.00048613221
0.00048617179
0.0004862128
0.00048625495
0.00048629799
0.00048634166
0.00048638572
0.00048642996
0.00048647414
0.00048651807
0.00048656155
0.0004866044
0.00048664647
0.00048668759
0.00048672765
0.00048676652
0.00048680412
0.00048684037
0.00048687522
0.00048690863
0.00048694057
0.00048697102
0.000487
0.00048702748
0.00048705351
0.00048707809
0.00048710125
0.000487123
0.00048714339
0.00048716244
0.00048718019
0.00048719665
0.00048680666
0.00048757434
0.00048716417
0.00048715982
0.00048715497
0.00048714991
0.00048714446
0.00048713866
0.00048713251
0.00048712592
0.00048711897
0.00048711151
0.00048710367
0.00048709526
0.00048708643
0.00048707699
0.00048706708
0.00048705651
0.00048704542
0.00048703362
0.00048702126
0.00048700814
0.0004869944
0.00048697984
0.00048696462
0.00048694854
0.00048693173
0.00048691401
0.00048689552
0.00048687606
0.00048685578
0.00048683449
0.00048681231
0.0004867892
0.00048676503
0.00048673997
0.00048671383
0.0004866868
0.0004866587
0.00048662973
0.00048659974
0.00048656894
0.0004865372
0.00048650471
0.00048647148
0.0004864376
0.00048640317
0.0004863683
0.00048633312
0.00048629777
0.00048626243
0.00048622727
0.00048619249
0.00048615832
0.00048612501
0.00048609281
0.00048606199
0.00048603285
0.00048600569
0.00048598082
0.00048595857
0.00048593923
0.00048592314
0.00048591057
0.00048590181
0.00048589712
0.00048589669
0.00048590072
0.00048590932
0.00048592257
0.00048594048
0.00048596298
0.00048598996
0.00048601303
0.00048597748
0.0004859453
0.00048591691
0.00048589269
0.00048587298
0.00048585805
0.00048584809
0.00048584322
0.00048584349
0.00048584883
0.00048585912
0.00048587416
0.00048589366
0.00048591732
0.00048594478
0.00048597565
0.00048600954
0.00048604609
0.0004860849
0.00048612563
0.00048616795
0.00048621153
0.0004862561
0.00048630138
0.00048634711
0.00048639305
0.00048643896
0.00048648463
0.00048652985
0.00048657443
0.00048661819
0.00048666099
0.00048670267
0.00048674314
0.00048678229
0.00048682004
0.00048685637
0.0004868912
0.00048692452
0.00048695632
0.00048698661
0.00048701538
0.00048704267
0.00048706848
0.00048709286
0.00048711582
0.00048713741
0.00048715765
0.0004871766
0.00048719427
0.00048680549
0.00048757257
0.00048716232
0.00048715792
0.00048715299
0.00048714784
0.00048714229
0.00048713638
0.00048713011
0.00048712338
0.00048711628
0.00048710866
0.00048710064
0.00048709204
0.00048708301
0.00048707334
0.0004870632
0.00048705237
0.00048704101
0.00048702892
0.00048701625
0.00048700279
0.0004869887
0.00048697377
0.00048695816
0.00048694166
0.00048692441
0.00048690622
0.00048688724
0.00048686726
0.00048684644
0.00048682457
0.00048680178
0.00048677804
0.0004867532
0.00048672744
0.00048670056
0.00048667276
0.00048664385
0.00048661404
0.00048658317
0.00048655145
0.00048651876
0.00048648529
0.00048645103
0.0004864161
0.0004863806
0.00048634462
0.00048630832
0.00048627184
0.00048623536
0.00048619907
0.00048616317
0.00048612791
0.00048609355
0.00048606034
0.0004860286
0.00048599863
0.00048597075
0.00048594529
0.0004859226
0.000485903
0.00048588683
0.00048587441
0.00048586603
0.00048586196
0.00048586243
0.00048586763
0.00048587768
0.00048589266
0.00048591258
0.00048593736
0.00048596687
0.00048599714
0.00048595744
0.00048592118
0.00048588884
0.00048586086
0.00048583761
0.00048581941
0.00048580649
0.000485799
0.00048579701
0.00048580049
0.0004858093
0.00048582324
0.00048584205
0.00048586538
0.00048589285
0.00048592406
0.00048595858
0.00048599602
0.00048603595
0.00048607798
0.00048612176
0.00048616693
0.00048621319
0.00048626023
0.00048630778
0.00048635556
0.00048640333
0.00048645086
0.00048649792
0.0004865443
0.00048658985
0.00048663437
0.00048667775
0.00048671985
0.00048676059
0.00048679988
0.00048683768
0.00048687394
0.00048690865
0.0004869418
0.0004869734
0.00048700344
0.00048703198
0.00048705901
0.00048708459
0.00048710874
0.00048713151
0.00048715293
0.00048717305
0.00048719191
0.00048680432
0.00048757092
0.00048716061
0.00048715616
0.00048715115
0.00048714593
0.00048714029
0.00048713428
0.00048712789
0.00048712104
0.0004871138
0.00048710603
0.00048709785
0.00048708907
0.00048707984
0.00048706997
0.00048705959
0.00048704852
0.0004870369
0.00048702453
0.00048701156
0.00048699779
0.00048698336
0.00048696807
0.00048695208
0.00048693517
0.00048691749
0.00048689885
0.00048687938
0.0004868589
0.00048683754
0.00048681511
0.00048679171
0.00048676734
0.00048674184
0.00048671538
0.00048668777
0.00048665919
0.00048662947
0.0004865988
0.00048656704
0.00048653438
0.00048650072
0.00048646622
0.00048643091
0.00048639489
0.00048635825
0.00048632111
0.00048628362
0.00048624593
0.00048620822
0.0004861707
0.00048613358
0.00048609711
0.00048606157
0.00048602724
0.00048599443
0.00048596348
0.00048593473
0.00048590852
0.00048588524
0.00048586522
0.00048584883
0.00048583641
0.00048582828
0.00048582471
0.00048582596
0.00048583224
0.00048584366
0.00048586032
0.00048588221
0.00048590927
0.00048594132
0.00048597756
0.00048593615
0.00048589563
0.00048585916
0.00048582724
0.00048580029
0.00048577868
0.00048576268
0.00048575247
0.00048574815
0.0004857497
0.00048575701
0.00048576987
0.00048578801
0.00048581106
0.00048583864
0.0004858703
0.00048590558
0.00048594405
0.00048598525
0.00048602876
0.00048607417
0.00048612111
0.00048616923
0.0004862182
0.00048626772
0.00048631749
0.00048636726
0.00048641676
0.00048646576
0.00048651405
0.00048656146
0.00048660779
0.0004866529
0.00048669669
0.00048673904
0.00048677989
0.00048681919
0.0004868569
0.000486893
0.00048692749
0.00048696038
0.00048699169
0.00048702146
0.0004870497
0.00048707646
0.00048710178
0.00048712571
0.00048714829
0.00048716956
0.00048718958
0.00048680318
0.0004875694
0.00048715904
0.00048715456
0.00048714947
0.00048714419
0.00048713846
0.00048713236
0.00048712587
0.0004871189
0.00048711154
0.00048710363
0.00048709529
0.00048708635
0.00048707693
0.00048706686
0.00048705627
0.00048704497
0.0004870331
0.00048702047
0.00048700721
0.00048699313
0.00048697838
0.00048696274
0.00048694638
0.00048692908
0.00048691098
0.0004868919
0.00048687196
0.00048685098
0.00048682909
0.0004868061
0.00048678212
0.00048675713
0.00048673097
0.00048670381
0.00048667546
0.0004866461
0.00048661556
0.00048658403
0.00048655136
0.00048651775
0.00048648308
0.00048644754
0.00048641113
0.00048637396
0.00048633614
0.00048629777
0.00048625903
0.00048622004
0.00048618102
0.00048614216
0.0004861037
0.0004860659
0.00048602906
0.00048599346
0.00048595944
0.00048592735
0.00048589757
0.00048587045
0.00048584641
0.00048582581
0.00048580904
0.00048579647
0.00048578843
0.00048578524
0.00048578715
0.0004857944
0.00048580712
0.0004858254
0.00048584924
0.00048587855
0.00048591318
0.00048595288
0.00048591363
0.00048586862
0.00048582783
0.00048579178
0.00048576095
0.00048573577
0.00048571655
0.0004857035
0.00048569676
0.00048569633
0.00048570211
0.00048571389
0.00048573139
0.00048575424
0.00048578201
0.00048581423
0.00048585041
0.00048589008
0.00048593272
0.00048597789
0.00048602512
0.00048607402
0.00048612418
0.00048617525
0.00048622692
0.00048627884
0.00048633074
0.00048638234
0.00048643341
0.00048648371
0.00048653306
0.00048658126
0.00048662818
0.00048667369
0.0004867177
0.00048676013
0.00048680095
0.0004868401
0.00048687759
0.00048691342
0.0004869476
0.00048698016
0.00048701113
0.00048704056
0.00048706848
0.00048709495
0.00048712001
0.00048714372
0.00048716614
0.0004871873
0.00048680205
0.00048756802
0.00048715761
0.0004871531
0.00048714796
0.00048714262
0.00048713682
0.00048713064
0.00048712405
0.00048711698
0.0004871095
0.00048710146
0.00048709298
0.00048708388
0.0004870743
0.00048706404
0.00048705325
0.00048704173
0.00048702963
0.00048701674
0.00048700321
0.00048698884
0.00048697377
0.00048695781
0.00048694108
0.0004869234
0.0004869049
0.00048688539
0.000486865
0.00048684352
0.00048682112
0.00048679759
0.00048677302
0.00048674741
0.0004867206
0.00048669274
0.00048666366
0.00048663353
0.00048660216
0.00048656976
0.00048653616
0.00048650158
0.00048646588
0.00048642925
0.00048639171
0.00048635336
0.00048631429
0.00048627464
0.00048623455
0.00048619419
0.00048615375
0.00048611346
0.00048607354
0.00048603429
0.00048599599
0.00048595898
0.00048592359
0.00048589021
0.00048585921
0.00048583101
0.00048580603
0.00048578468
0.00048576735
0.00048575446
0.00048574636
0.0004857434
0.00048574585
0.00048575397
0.0004857679
0.00048578774
0.00048581349
0.00048584507
0.00048588229
0.00048592491
0.00048588985
0.00048584014
0.00048579479
0.0004857544
0.0004857195
0.00048569058
0.00048566797
0.00048565197
0.00048564271
0.00048564023
0.00048564443
0.00048565514
0.00048567203
0.00048569474
0.00048572281
0.00048575572
0.00048579296
0.00048583399
0.00048587827
0.00048592529
0.00048597455
0.0004860256
0.00048607801
0.00048613139
0.00048618537
0.00048623961
0.0004862938
0.00048634765
0.0004864009
0.00048645331
0.00048650469
0.00048655484
0.00048660362
0.0004866509
0.0004866966
0.00048674063
0.00048678297
0.00048682358
0.00048686246
0.00048689962
0.00048693508
0.00048696886
0.00048700103
0.00048703162
0.00048706068
0.00048708827
0.00048711444
0.00048713926
0.00048716278
0.00048718506
0.00048680094
0.00048756678
0.00048715633
0.0004871518
0.0004871466
0.00048714122
0.00048713535
0.00048712911
0.00048712244
0.00048711527
0.00048710769
0.00048709953
0.00048709092
0.00048708168
0.00048707194
0.00048706151
0.00048705053
0.00048703881
0.00048702648
0.00048701335
0.00048699957
0.00048698492
0.00048696955
0.00048695326
0.0004869362
0.00048691815
0.00048689926
0.00048687933
0.00048685849
0.00048683655
0.00048681364
0.00048678957
0.00048676443
0.00048673821
0.00048671075
0.00048668221
0.00048665239
0.00048662147
0.00048658928
0.000486556
0.00048652146
0.00048648588
0.00048644913
0.00048641139
0.00048637268
0.00048633309
0.00048629272
0.00048625171
0.00048621021
0.00048616839
0.00048612644
0.00048608459
0.0004860431
0.00048600225
0.00048596236
0.00048592377
0.00048588685
0.00048585199
0.00048581961
0.00048579013
0.00048576403
0.00048574172
0.00048572365
0.00048571026
0.00048570194
0.00048569905
0.00048570191
0.00048571078
0.00048572583
0.00048574717
0.0004857748
0.00048580864
0.00048584849
0.00048589408
0.00048586483
0.00048581015
0.00048576
0.00048571503
0.00048567585
0.00048564298
0.00048561683
0.00048559772
0.00048558583
0.00048558122
0.00048558382
0.00048559344
0.00048560977
0.00048563241
0.00048566087
0.00048569463
0.00048573308
0.00048577568
0.0004858218
0.00048587088
0.0004859224
0.00048597583
0.0004860307
0.00048608658
0.00048614308
0.00048619982
0.00048625646
0.0004863127
0.00048636826
0.00048642289
0.00048647639
0.00048652856
0.00048657926
0.00048662836
0.00048667578
0.00048672144
0.00048676532
0.00048680738
0.00048684764
0.00048688612
0.00048692283