/*--------------------------------*- C++ -*----------------------------------*\
| =========                 |                                                 |
| \\      /  F ield         | foam-extend: Open Source CFD                    |
|  \\    /   O peration     | Version:     4.1                                |
|   \\  /    A nd           | Web:         http://www.foam-extend.org         |
|    \\/     M anipulation  |                                                 |
\*---------------------------------------------------------------------------*/
FoamFile
{
    version     2.0;
    format      ascii;
    class       volVectorField;
    location    "0.9";
    object      U;
}
// * * * * * * * * * * * * * * * * * * * * * * * * * * * * * * * * * * * * * //

dimensions      [0 1 -1 0 0 0 0];

internalField   nonuniform List<vector> 
16796
(
(1.0028183 -9.9556889e-05 0)
(1.0033289 -0.00010506678 0)
(1.0035139 -0.0001098483 0)
(1.0039436 -0.00011595757 0)
(1.0042387 -0.00012196491 0)
(1.0046553 -0.00012884281 0)
(1.0050245 -0.00013596306 0)
(1.0054618 -0.00014376848 0)
(1.0058925 -0.00015198524 0)
(1.0063692 -0.00016081935 0)
(1.0068595 -0.00017015537 0)
(1.0073878 -0.00018009291 0)
(1.0079406 -0.00019058724 0)
(1.0085299 -0.00020168983 0)
(1.0091506 -0.00021338732 0)
(1.0098092 -0.00022570915 0)
(1.0105044 -0.0002386556 0)
(1.0112402 -0.00025224582 0)
(1.0120172 -0.00026648576 0)
(1.0128383 -0.00028138945 0)
(1.0137048 -0.00029696486 0)
(1.0146192 -0.00031322303 0)
(1.0155832 -0.00033017194 0)
(1.0165992 -0.0003478201 0)
(1.0176692 -0.00036617383 0)
(1.0187952 -0.00038523823 0)
(1.0199795 -0.00040501578 0)
(1.0212242 -0.00042550592 0)
(1.0225314 -0.00044670409 0)
(1.0239032 -0.00046860034 0)
(1.0253417 -0.00049117847 0)
(1.0268489 -0.00051441403 0)
(1.0284268 -0.00053827327 0)
(1.0300771 -0.00056271136 0)
(1.0318015 -0.00058767043 0)
(1.0336015 -0.00061307873 0)
(1.0354783 -0.00063884851 0)
(1.0374328 -0.00066487561 0)
(1.0394657 -0.00069103778 0)
(1.0415771 -0.00071719482 0)
(1.0437669 -0.00074318736 0)
(1.0460342 -0.0007688375 0)
(1.0483779 -0.00079394804 0)
(1.0507958 -0.00081830316 0)
(1.0532856 -0.00084166825 0)
(1.0558437 -0.0008637902 0)
(1.0584663 -0.00088439764 0)
(1.0611481 -0.00090320132 0)
(1.0638836 -0.00091989473 0)
(1.0666657 -0.00093415494 0)
(1.0694868 -0.00094564412 0)
(1.0723381 -0.00095401152 0)
(1.0752097 -0.00095889638 0)
(1.0780905 -0.00095993157 0)
(1.0809686 -0.0009567483 0)
(1.0838307 -0.0009489817 0)
(1.0866625 -0.00093627739 0)
(1.0894487 -0.00091829905 0)
(1.092173 -0.00089473663 0)
(1.0948183 -0.00086531555 0)
(1.0973665 -0.00082980629 0)
(1.0997991 -0.00078803466 0)
(1.1020971 -0.00073989215 0)
(1.1042412 -0.00068534655 0)
(1.1062123 -0.00062445204 0)
(1.1079913 -0.00055735894 0)
(1.10956 -0.000484322 0)
(1.1109009 -0.00040570735 0)
(1.111998 -0.00032199657 0)
(1.1128366 -0.00023378849 0)
(1.1134041 -0.00014179504 0)
(1.1136905 -4.6835494e-05 0)
(1.113688 5.0180458e-05 0)
(1.1133919 0.00014826073 0)
(1.1128006 0.00024634819 0)
(1.1119158 0.00034335713 0)
(1.1107423 0.00043819936 0)
(1.1092882 0.00052982925 0)
(1.1075649 0.00061727326 0)
(1.1055861 0.000699666 0)
(1.1033684 0.00077627726 0)
(1.1009299 0.00084653457 0)
(1.0982905 0.00091003427 0)
(1.095471 0.00096654406 0)
(1.0924925 0.0010159919 0)
(1.0893762 0.0010584486 0)
(1.0861429 0.0010940976 0)
(1.0828126 0.0011232059 0)
(1.0794046 0.0011460878 0)
(1.075937 0.0011630769 0)
(1.072427 0.001174498 0)
(1.0688909 0.0011806535 0)
(1.065344 0.0011818116 0)
(1.061801 0.0011782101 0)
(1.0582758 0.0011700604 0)
(1.0547817 0.0011575623 0)
(1.0513316 0.0011409146 0)
(1.0479375 0.0011203301 0)
(1.044611 0.0010960426 0)
(1.0413627 0.0010683137 0)
(1.0382026 0.0010374319 0)
(1.0351397 0.0010037093 0)
(1.0321819 0.00096747372 0)
(1.0293364 0.00092906026 0)
(1.0266091 0.00088880087 0)
(1.0240051 0.00084701607 0)
(1.0215285 0.00080400665 0)
(1.0191825 0.00076004847 0)
(1.0169695 0.00071538817 0)
(1.0148914 0.00067024161 0)
(1.0129492 0.00062479288 0)
(1.0111438 0.00057919548 0)
(1.009475 0.00053357311 0)
(1.0079432 0.00048802249 0)
(1.0065477 0.00044261427 0)
(1.0052883 0.00039739739 0)
(1.0041637 0.00035239808 0)
(1.0031747 0.00030762721 0)
(1.002318 0.00026307411 0)
(1.0015971 0.0002187213 0)
(1.0010049 0.00017452603 0)
(1.0005517 0.00013045428 0)
(1.0002198 8.6431415e-05 0)
(1.0000364 4.2424658e-05 0)
(1.0028118 -0.00029839742 0)
(1.0033212 -0.00031495151 0)
(1.0035059 -0.00032926813 0)
(1.0039347 -0.00034760334 0)
(1.0042291 -0.00036560156 0)
(1.0046449 -0.00038623096 0)
(1.0050133 -0.00040757217 0)
(1.0054498 -0.00043097781 0)
(1.0058796 -0.00045561016 0)
(1.0063555 -0.0004820983 0)
(1.0068449 -0.00051008857 0)
(1.0073723 -0.00053988476 0)
(1.0079241 -0.0005713494 0)
(1.0085124 -0.00060463918 0)
(1.0091321 -0.00063971247 0)
(1.0097897 -0.0006766587 0)
(1.0104839 -0.00071547797 0)
(1.0112186 -0.00075622819 0)
(1.0119946 -0.00079892686 0)
(1.0128145 -0.00084361626 0)
(1.01368 -0.00089032004 0)
(1.0145933 -0.00093907137 0)
(1.0155563 -0.00098989399 0)
(1.0165713 -0.0010428133 0)
(1.0176402 -0.0010978481 0)
(1.0187653 -0.0011550135 0)
(1.0199486 -0.0012143166 0)
(1.0211923 -0.0012757557 0)
(1.0224986 -0.0013393167 0)
(1.0238696 -0.0014049698 0)
(1.0253073 -0.0014726661 0)
(1.0268138 -0.0015423323 0)
(1.028391 -0.0016138673 0)
(1.0300407 -0.0016871369 0)
(1.0317646 -0.0017619678 0)
(1.0335641 -0.0018381457 0)
(1.0354406 -0.001915408 0)
(1.037395 -0.0019934436 0)
(1.0394278 -0.002071887 0)
(1.0415393 -0.0021503192 0)
(1.0437294 -0.0022282641 0)
(1.0459972 -0.0023051897 0)
(1.0483416 -0.0023805064 0)
(1.0507606 -0.0024535688 0)
(1.0532517 -0.002523675 0)
(1.0558115 -0.0025900675 0)
(1.0584361 -0.0026519339 0)
(1.0611204 -0.0027084079 0)
(1.0638587 -0.0027585712 0)
(1.0666443 -0.0028014562 0)
(1.0694693 -0.00283605 0)
(1.0723249 -0.0028613007 0)
(1.0752014 -0.002876126 0)
(1.0780876 -0.0028794241 0)
(1.0809716 -0.0028700874 0)
(1.0838401 -0.0028470196 0)
(1.0866789 -0.002809155 0)
(1.0894725 -0.0027554812 0)
(1.0922047 -0.0026850638 0)
(1.0948582 -0.0025970736 0)
(1.097415 -0.0024908157 0)
(1.0998564 -0.0023657602 0)
(1.1021634 -0.0022215734 0)
(1.1043166 -0.0020581498 0)
(1.1062968 -0.0018756424 0)
(1.1080848 -0.001674493 0)
(1.1096623 -0.001455457 0)
(1.1110117 -0.0012196253 0)
(1.1121168 -0.00096843773 0)
(1.1129629 -0.00070368994 0)
(1.1135374 -0.00042752371 0)
(1.11383 -0.00014241434 0)
(1.1138329 0.00014887313 0)
(1.1135413 0.00044331243 0)
(1.1129536 0.00073772648 0)
(1.1120713 0.0010288676 0)
(1.1108994 0.0013134807 0)
(1.1094459 0.0015884361 0)
(1.107722 0.0018508207 0)
(1.1057416 0.002098045 0)
(1.1035212 0.0023279241 0)
(1.101079 0.0025387448 0)
(1.0984349 0.0027292983 0)
(1.0956098 0.0028988878 0)
(1.0926249 0.0030472955 0)
(1.0895014 0.0031747297 0)
(1.0862603 0.0032817368 0)
(1.0829218 0.003369113 0)
(1.0795052 0.0034377964 0)
(1.0760288 0.003488785 0)
(1.0725099 0.0035230515 0)
(1.068965 0.0035415029 0)
(1.0654095 0.0035449455 0)
(1.0618582 0.0035340956 0)
(1.0583251 0.0035095913 0)
(1.0548236 0.0034720365 0)
(1.0513666 0.0034220319 0)
(1.0479662 0.0033602197 0)
(1.044634 0.0032873046 0)
(1.0413806 0.0032040743 0)
(1.038216 0.0031113953 0)
(1.0351492 0.0030102054 0)
(1.0321881 0.0029014879 0)
(1.0293398 0.002786248 0)
(1.0266102 0.0026654809 0)
(1.0240044 0.0025401473 0)
(1.0215264 0.0024111485 0)
(1.0191794 0.0022793112 0)
(1.0169658 0.0021453743 0)
(1.0148873 0.0020099842 0)
(1.012945 0.0018736922 0)
(1.0111395 0.0017369578 0)
(1.009471 0.001600151 0)
(1.0079395 0.0014635611 0)
(1.0065444 0.001327399 0)
(1.0052855 0.0011918106 0)
(1.0041614 0.0010568734 0)
(1.0031728 0.00092261954 0)
(1.0023166 0.00078901523 0)
(1.0015961 0.00065600822 0)
(1.0010043 0.00052346752 0)
(1.0005514 0.00039129301 0)
(1.0002196 0.00025925547 0)
(1.0000364 0.00012726197 0)
(1.0027988 -0.00049661141 0)
(1.0033061 -0.00052418824 0)
(1.00349 -0.0005480119 0)
(1.0039169 -0.00057855293 0)
(1.0042102 -0.00060851462 0)
(1.0046242 -0.00064287371 0)
(1.0049912 -0.00067841038 0)
(1.0054259 -0.000717394 0)
(1.0058542 -0.00075841856 0)
(1.0063282 -0.00080253981 0)
(1.0068158 -0.00084916398 0)
(1.0073413 -0.00089880104 0)
(1.0078913 -0.00095122016 0)
(1.0084777 -0.0010066844 0)
(1.0090954 -0.001065124 0)
(1.0097509 -0.0011266891 0)
(1.010443 -0.00119138 0)
(1.0111757 -0.001259294 0)
(1.0119495 -0.0013304605 0)
(1.0127674 -0.0014049506 0)
(1.0136307 -0.0014828042 0)
(1.0145418 -0.0015640769 0)
(1.0155027 -0.0016488086 0)
(1.0165156 -0.0017370421 0)
(1.0175825 -0.0018288088 0)
(1.0187055 -0.0019241341 0)
(1.0198869 -0.0020230304 0)
(1.0211287 -0.0021254946 0)
(1.0224332 -0.002231504 0)
(1.0238024 -0.0023410088 0)
(1.0252385 -0.0024539285 0)
(1.0267435 -0.0025701413 0)
(1.0283193 -0.00268948 0)
(1.0299677 -0.0028117219 0)
(1.0316905 -0.0029365802 0)
(1.0334892 -0.0030636995 0)
(1.035365 -0.0031926447 0)
(1.037319 -0.0033228999 0)
(1.0393517 -0.0034538588 0)
(1.0414634 -0.0035848262 0)
(1.0436541 -0.003715011 0)
(1.045923 -0.0038435294 0)
(1.0482689 -0.0039694007 0)
(1.05069 -0.0040915504 0)
(1.0531838 -0.0042088089 0)
(1.055747 -0.0043199132 0)
(1.0583758 -0.0044235075 0)
(1.0610651 -0.0045181451 0)
(1.0638093 -0.0046022913 0)
(1.0666017 -0.0046743281 0)
(1.0694345 -0.004732561 0)
(1.072299 -0.0047752297 0)
(1.0751854 -0.004800522 0)
(1.0780826 -0.0048065926 0)
(1.0809786 -0.004791586 0)
(1.0838601 -0.004753665 0)
(1.0867129 -0.004691043 0)
(1.0895214 -0.0046020225 0)
(1.0922694 -0.0044850356 0)
(1.0949394 -0.0043386907 0)
(1.0975134 -0.0041618205 0)
(1.0999725 -0.0039535336 0)
(1.1022975 -0.003713267 0)
(1.1044689 -0.0034408394 0)
(1.1064671 -0.0031365023 0)
(1.1082731 -0.0028009899 0)
(1.1098681 -0.0024355612 0)
(1.1112345 -0.0020420359 0)
(1.1123557 -0.0016228161 0)
(1.1132169 -0.0011808979 0)
(1.1138052 -0.0007198534 0)
(1.1141102 -0.00024380938 0)
(1.1141239 0.00024262996 0)
(1.1138415 0.00073442836 0)
(1.113261 0.0012262804 0)
(1.1123839 0.0017127567 0)
(1.1112151 0.0021884148 0)
(1.1097625 0.002648018 0)
(1.1080373 0.0030866891 0)
(1.1060535 0.0035000884 0)
(1.1038274 0.0038845499 0)
(1.1013775 0.0042371932 0)
(1.0987238 0.0045559786 0)
(1.0958871 0.0048397214 0)
(1.092889 0.0050880365 0)
(1.0897509 0.005301253 0)
(1.086494 0.0054802663 0)
(1.0831387 0.0056263938 0)
(1.0797047 0.0057411937 0)
(1.0762105 0.0058263301 0)
(1.0726738 0.0058834292 0)
(1.0691111 0.0059140136 0)
(1.0655384 0.0059194407 0)
(1.0619704 0.0059009223 0)
(1.0584214 0.0058595408 0)
(1.0549051 0.0057963234 0)
(1.0514343 0.0057122917 0)
(1.0480213 0.0056085362 0)
(1.0446776 0.0054862497 0)
(1.0414141 0.0053467625 0)
(1.0382406 0.0051915335 0)
(1.0351661 0.0050221384 0)
(1.0321984 0.0048402269 0)
(1.0293447 0.004647483 0)
(1.0266107 0.004445572 0)
(1.0240014 0.0042361 0)
(1.0215207 0.0040205726 0)
(1.0191718 0.0038003692 0)
(1.0169569 0.0035767217 0)
(1.0148778 0.0033507073 0)
(1.0129353 0.0031232432 0)
(1.01113 0.0028950933 0)
(1.009462 0.0026668718 0)
(1.0079313 0.0024390576 0)
(1.006537 0.0022119987 0)
(1.0052792 0.0019859354 0)
(1.0041561 0.0017609928 0)
(1.0031686 0.001537221 0)
(1.0023134 0.0013145599 0)
(1.0015939 0.0010929196 0)
(1.0010028 0.00087207674 0)
(1.0005505 0.00065186342 0)
(1.0002193 0.00043189013 0)
(1.0000363 0.00021200368 0)
(1.0027796 -0.00069374831 0)
(1.0032835 -0.00073227985 0)
(1.0034663 -0.00076558325 0)
(1.0038906 -0.00080827527 0)
(1.004182 -0.00085016052 0)
(1.0045935 -0.00089819764 0)
(1.0049584 -0.00094788344 0)
(1.0053906 -0.0010023937 0)
(1.0058164 -0.0010597613 0)
(1.0062878 -0.0011214647 0)
(1.0067728 -0.0011866733 0)
(1.0072956 -0.0012561018 0)
(1.0078427 -0.0013294278 0)
(1.0084262 -0.0014070206 0)
(1.009041 -0.0014887829 0)
(1.0096935 -0.0015749261 0)
(1.0103826 -0.0016654513 0)
(1.0111122 -0.0017604955 0)
(1.0118829 -0.0018601008 0)
(1.0126976 -0.0019643673 0)
(1.0135577 -0.0020733515 0)
(1.0144658 -0.0021871319 0)
(1.0154235 -0.0023057648 0)
(1.0164333 -0.0024293104 0)
(1.017497 -0.0025578132 0)
(1.0186171 -0.0026913089 0)
(1.0197955 -0.0028298152 0)
(1.0210345 -0.0029733282 0)
(1.0223362 -0.0031218163 0)
(1.0237028 -0.0032752108 0)
(1.0251364 -0.0034333999 0)
(1.026639 -0.0035962148 0)
(1.0282127 -0.0037634232 0)
(1.0298593 -0.0039347166 0)
(1.0315804 -0.0041096969 0)
(1.0333778 -0.0042878708 0)
(1.0352526 -0.0044686349 0)
(1.0372058 -0.0046512725 0)
(1.0392383 -0.0048349417 0)
(1.0413504 -0.0050186757 0)
(1.0435419 -0.0052013738 0)
(1.0458124 -0.0053818052 0)
(1.0481606 -0.0055586025 0)
(1.0505848 -0.0057302657 0)
(1.0530827 -0.0058951606 0)
(1.0556511 -0.0060515198 0)
(1.058286 -0.0061974444 0)
(1.0609829 -0.0063309058 0)
(1.0637359 -0.0064497503 0)
(1.0665385 -0.0065517049 0)
(1.069383 -0.0066343875 0)
(1.0722607 -0.0066953216 0)
(1.0751618 -0.0067319561 0)
(1.0780754 -0.0067416913 0)
(1.0809893 -0.0067219115 0)
(1.0838903 -0.0066700248 0)
(1.086764 -0.0065835087 0)
(1.0895949 -0.006459964 0)
(1.0923665 -0.0062971723 0)
(1.0950613 -0.0060931614 0)
(1.097661 -0.0058462729 0)
(1.1001466 -0.0055552359 0)
(1.1024986 -0.00521924 0)
(1.1046973 -0.0048380113 0)
(1.1067229 -0.0044118851 0)
(1.1085559 -0.0039418753 0)
(1.1101773 -0.0034297351 0)
(1.1115691 -0.0028780073 0)
(1.1127145 -0.002290056 0)
(1.1135983 -0.0016700826 0)
(1.1142074 -0.0010231013 0)
(1.114531 -0.0003549102 0)
(1.114561 0.0003280213 0)
(1.114292 0.001018614 0)
(1.1137222 0.0017094121 0)
(1.1128528 0.0023927871 0)
(1.1116884 0.0030610928 0)
(1.110237 0.0037069669 0)
(1.1085097 0.004323549 0)
(1.1065205 0.0049047281 0)
(1.1042857 0.0054453344 0)
(1.1018241 0.0059412954 0)
(1.0991556 0.0063897156 0)
(1.0963015 0.0067888962 0)
(1.0932834 0.0071382599 0)
(1.0901233 0.0074382338 0)
(1.0868426 0.0076900431 0)
(1.0834622 0.0078955124 0)
(1.0800021 0.0080568115 0)
(1.0764813 0.0081762691 0)
(1.0729178 0.0082561702 0)
(1.0693286 0.0082986651 0)
(1.06573 0.0083056798 0)
(1.0621371 0.0082789437 0)
(1.0585644 0.0082200091 0)
(1.0550259 0.0081303535 0)
(1.0515345 0.0080114464 0)
(1.0481026 0.0078648533 0)
(1.044742 0.0076922794 0)
(1.0414633 0.0074956195 0)
(1.0382765 0.0072769437 0)
(1.0351905 0.0070384817 0)
(1.0322131 0.0067825621 0)
(1.0293512 0.0065115574 0)
(1.0266107 0.0062278099 0)
(1.0239962 0.0059335759 0)
(1.0215116 0.0056309675 0)
(1.0191599 0.0053219177 0)
(1.0169433 0.0050081509 0)
(1.0148632 0.0046911728 0)
(1.0129204 0.0043722636 0)
(1.0111155 0.0040524878 0)
(1.0094484 0.0037326991 0)
(1.0079188 0.0034135618 0)
(1.0065259 0.003095556 0)
(1.0052697 0.0027790107 0)
(1.0041482 0.0024640936 0)
(1.0031623 0.002150868 0)
(1.0023087 0.0018392416 0)
(1.0015905 0.0015290824 0)
(1.0010007 0.0012200697 0)
(1.0005493 0.00091196337 0)
(1.0002188 0.00060420905 0)
(1.0000362 0.00029659018 0)
(1.0027541 -0.0008894246 0)
(1.0032538 -0.00093884456 0)
(1.0034351 -0.00098158086 0)
(1.0038558 -0.0010363644 0)
(1.0041449 -0.0010901181 0)
(1.0045532 -0.0011517743 0)
(1.0049151 -0.0012155512 0)
(1.005344 -0.0012855294 0)
(1.0057667 -0.0013591823 0)
(1.0062346 -0.001438411 0)
(1.0067162 -0.0015221492 0)
(1.0072353 -0.0016113169 0)
(1.0077789 -0.001705501 0)
(1.0083585 -0.0018051775 0)
(1.0089695 -0.0019102232 0)
(1.0096181 -0.0020209109 0)
(1.0103031 -0.0021372437 0)
(1.0110286 -0.0022593991 0)
(1.0117952 -0.0023874327 0)
(1.0126058 -0.0025214745 0)
(1.0134618 -0.0026615984 0)
(1.0143656 -0.0028079066 0)
(1.0153192 -0.0029604724 0)
(1.0163248 -0.0031193743 0)
(1.0173845 -0.0032846704 0)
(1.0185005 -0.0034564077 0)
(1.0196749 -0.0036346096 0)
(1.0209101 -0.0038192723 0)
(1.0222081 -0.0040103568 0)
(1.0235711 -0.0042077763 0)
(1.0250013 -0.0044113894 0)
(1.0265008 -0.0046209824 0)
(1.0280715 -0.0048362606 0)
(1.0297155 -0.0050568323 0)
(1.0314344 -0.005282192 0)
(1.0332298 -0.005511713 0)
(1.0351031 -0.0057446278 0)
(1.0370555 -0.0059800247 0)
(1.0390876 -0.0062168312 0)
(1.0412 -0.0064538148 0)
(1.0433927 -0.0066895706 0)
(1.0456652 -0.0069225252 0)
(1.0480164 -0.0071509284 0)
(1.0504449 -0.0073728576 0)
(1.0529482 -0.0075862147 0)
(1.0555234 -0.0077887277 0)
(1.0581668 -0.0079779517 0)
(1.0608736 -0.0081512717 0)
(1.0636384 -0.008305908 0)
(1.0664547 -0.0084389235 0)
(1.0693148 -0.0085472374 0)
(1.0722101 -0.0086276436 0)
(1.075131 -0.0086768366 0)
(1.0780663 -0.0086914453 0)
(1.0810042 -0.0086680749 0)
(1.0839312 -0.0086033585 0)
(1.0868329 -0.0084940167 0)
(1.0896937 -0.0083369263 0)
(1.0924968 -0.008129196 0)
(1.0952247 -0.007868251 0)
(1.0978588 -0.0075519206 0)
(1.1003798 -0.0071785342 0)
(1.102768 -0.0067470163 0)
(1.1050032 -0.0062569853 0)
(1.1070653 -0.0057088475 0)
(1.1089344 -0.0051038879 0)
(1.1105911 -0.0044443486 0)
(1.1120169 -0.0037334938 0)
(1.1131947 -0.0029756509 0)
(1.1141088 -0.0021762309 0)
(1.1147458 -0.0013416964 0)
(1.1150943 -0.00047952419 0)
(1.1151459 0.00040194378 0)
(1.114895 0.0012935737 0)
(1.1143394 0.0021857341 0)
(1.1134801 0.0030685655 0)
(1.1123215 0.003932182 0)
(1.1108716 0.0047670539 0)
(1.1091413 0.0055642945 0)
(1.1071446 0.0063159743 0)
(1.104898 0.0070153718 0)
(1.1024204 0.0076571748 0)
(1.0997319 0.0082375839 0)
(1.0968542 0.008754342 0)
(1.0938093 0.0092066387 0)
(1.0906194 0.009594965 0)
(1.0873067 0.0099208481 0)
(1.0838924 0.010186603 0)
(1.0803972 0.010395001 0)
(1.0768406 0.010549039 0)
(1.0732411 0.010651672 0)
(1.0696165 0.010705699 0)
(1.0659832 0.010713642 0)
(1.0623569 0.010677785 0)
(1.0587526 0.010600187 0)
(1.0551844 0.010482818 0)
(1.0516655 0.010327635 0)
(1.0482085 0.01013672 0)
(1.0448252 0.0099123271 0)
(1.0415264 0.0096569507 0)
(1.0383219 0.009373302 0)
(1.0352207 0.0090642907 0)
(1.0322304 0.0087329455 0)
(1.0293579 0.0083823446 0)
(1.0266087 0.0080155205 0)
(1.0239874 0.0076353886 0)
(1.0214978 0.0072446738 0)
(1.0191425 0.0068458656 0)
(1.0169236 0.0064411811 0)
(1.0148424 0.0060325529 0)
(1.0128995 0.0056216209 0)
(1.0110952 0.0052097453 0)
(1.0094293 0.0047980137 0)
(1.0079014 0.004387269 0)
(1.0065106 0.0039781164 0)
(1.0052565 0.0035709663 0)
(1.0041373 0.0031660215 0)
(1.0031536 0.0027633507 0)
(1.0023021 0.0023628222 0)
(1.0015858 0.0019642546 0)
(1.0009977 0.0015672218 0)
(1.0005476 0.0011714055 0)
(1.0002181 0.00077607702 0)
(1.0000361 0.0003809525 0)
(1.0027228 -0.0010832154 0)
(1.0032171 -0.0011434339 0)
(1.0033965 -0.0011955446 0)
(1.0038129 -0.0012623372 0)
(1.0040991 -0.0013278886 0)
(1.0045033 -0.0014030825 0)
(1.0048618 -0.0014808733 0)
(1.0052866 -0.0015662373 0)
(1.0057053 -0.0016560953 0)
(1.006169 -0.0017527678 0)
(1.0066464 -0.001854956 0)
(1.0071611 -0.0019637844 0)
(1.0077001 -0.0020787508 0)
(1.0082751 -0.0022004383 0)
(1.0088813 -0.0023286988 0)
(1.0095251 -0.0024638673 0)
(1.0102052 -0.0026059498 0)
(1.0109257 -0.0027551652 0)
(1.0116872 -0.0029115833 0)
(1.0124926 -0.0030753651 0)
(1.0133434 -0.0032466023 0)
(1.0142421 -0.0034254216 0)
(1.0151905 -0.0036119143 0)
(1.016191 -0.0038061779 0)
(1.0172455 -0.0040082848 0)
(1.0183565 -0.004218294 0)
(1.019526 -0.0044362361 0)
(1.0207563 -0.0046621083 0)
(1.0220496 -0.0048958654 0)
(1.0234081 -0.0051374048 0)
(1.024834 -0.0053865575 0)
(1.0263294 -0.0056430677 0)
(1.0278964 -0.0059065816 0)
(1.029537 -0.0061766288 0)
(1.0312529 -0.0064526012 0)
(1.0330458 -0.0067337442 0)
(1.0349172 -0.0070191327 0)
(1.0368683 -0.0073076669 0)
(1.0389 -0.0075980511 0)
(1.0410127 -0.0078887945 0)
(1.0432068 -0.0081781952 0)
(1.0454817 -0.0084643443 0)
(1.0478367 -0.0087451147 0)
(1.0502703 -0.009018166 0)
(1.0527804 -0.0092809395 0)
(1.0553642 -0.0095306596 0)
(1.0580179 -0.0097643347 0)
(1.0607372 -0.0099787601 0)
(1.0635167 -0.010170524 0)
(1.0663499 -0.010336016 0)
(1.0692295 -0.010471446 0)
(1.0721469 -0.010572864 0)
(1.0750923 -0.010636192 0)
(1.0780549 -0.010657267 0)
(1.0810226 -0.010631894 0)
(1.0839821 -0.010555904 0)
(1.0869188 -0.010425234 0)
(1.0898169 -0.010236007 0)
(1.0926596 -0.0099846272 0)
(1.095429 -0.0096678865 0)
(1.0981062 -0.0092830696 0)
(1.1006716 -0.0088280753 0)
(1.1031051 -0.0083015334 0)
(1.1053862 -0.0077029282 0)
(1.1074942 -0.0070327139 0)
(1.1094087 -0.0062924288 0)
(1.1111097 -0.0054847907 0)
(1.1125784 -0.0046137793 0)
(1.1137969 -0.0036846864 0)
(1.1147491 -0.0027041407 0)
(1.115421 -0.0016800702 0)
(1.1158008 -0.00062165415 0)
(1.1158795 0.00046086284 0)
(1.1156513 0.0015562569 0)
(1.1151135 0.0026526836 0)
(1.1142667 0.0037380143 0)
(1.1131154 0.0048000844 0)
(1.1116671 0.0058271525 0)
(1.1099328 0.00680826 0)
(1.1079265 0.0077336101 0)
(1.1056649 0.0085948785 0)
(1.1031669 0.0093854605 0)
(1.1004531 0.0101006 0)
(1.0975455 0.01073743 0)
(1.0944666 0.011294859 0)
(1.0912393 0.011773402 0)
(1.0878861 0.012174854 0)
(1.0844292 0.012501995 0)
(1.0808897 0.01275819 0)
(1.0772881 0.012947102 0)
(1.0736435 0.013072369 0)
(1.0699742 0.013137464 0)
(1.0662974 0.01314554 0)
(1.0626293 0.013099476 0)
(1.0589853 0.013001885 0)
(1.0553798 0.012855281 0)
(1.0518266 0.01266216 0)
(1.0483382 0.012425169 0)
(1.0449266 0.012147158 0)
(1.0416027 0.011831262 0)
(1.0383763 0.011480868 0)
(1.0352561 0.011099599 0)
(1.0322499 0.010691207 0)
(1.0293642 0.010259496 0)
(1.0266043 0.0098082022 0)
(1.0239748 0.0093409111 0)
(1.021479 0.0088609652 0)
(1.0191194 0.0083714126 0)
(1.0168979 0.0078749621 0)
(1.0148154 0.0073739699 0)
(1.0128725 0.0068704301 0)
(1.0110691 0.0063659919 0)
(1.0094048 0.0058619689 0)
(1.0078791 0.0053593736 0)
(1.0064909 0.0048589269 0)
(1.0052396 0.0043611114 0)
(1.0041234 0.0038661552 0)
(1.0031425 0.003374123 0)
(1.0022937 0.002884834 0)
(1.0015799 0.0023980487 0)
(1.0009938 0.0019132261 0)
(1.0005455 0.0014299624 0)
(1.0002173 0.0009473448 0)
(1.000036 0.00046501759 0)
(1.0026855 -0.0012747446 0)
(1.0031736 -0.0013456694 0)
(1.0033507 -0.0014070847 0)
(1.0037619 -0.0014857965 0)
(1.0040447 -0.0015630639 0)
(1.0044441 -0.0016517051 0)
(1.0047984 -0.0017434222 0)
(1.0052184 -0.0018440814 0)
(1.0056325 -0.0019500556 0)
(1.0060912 -0.0020640829 0)
(1.0065635 -0.0021846346 0)
(1.007073 -0.0023130393 0)
(1.0076067 -0.0024487079 0)
(1.0081762 -0.002592331 0)
(1.0087768 -0.0027437365 0)
(1.0094148 -0.0029033232 0)
(1.0100891 -0.0030711008 0)
(1.0108036 -0.0032473307 0)
(1.0115591 -0.0034320981 0)
(1.0123584 -0.0036255957 0)
(1.0132031 -0.0038279347 0)
(1.0140955 -0.0040392672 0)
(1.0150378 -0.0042597037 0)
(1.016032 -0.0044893618 0)
(1.0170804 -0.0047283296 0)
(1.0181853 -0.0049766798 0)
(1.0193488 -0.0052344514 0)
(1.0205732 -0.0055016451 0)
(1.0218607 -0.0057782115 0)
(1.0232137 -0.0060640349 0)
(1.0246344 -0.0063589222 0)
(1.0261248 -0.006662579 0)
(1.0276872 -0.0069745975 0)
(1.0293235 -0.0072944333 0)
(1.0310357 -0.0076213817 0)
(1.0328256 -0.0079545671 0)
(1.0346945 -0.0082929141 0)
(1.036644 -0.008635142 0)
(1.0386749 -0.0089797404 0)
(1.040788 -0.0093249678 0)
(1.0429835 -0.0096688328 0)
(1.0452614 -0.010009098 0)
(1.0476208 -0.010343265 0)
(1.0500605 -0.01066858 0)
(1.0525787 -0.010982025 0)
(1.0551725 -0.011280322 0)
(1.0578387 -0.01155993 0)
(1.060573 -0.011817048 0)
(1.06337 -0.012047624 0)
(1.0662236 -0.012247363 0)
(1.0691265 -0.01241175 0)
(1.0720702 -0.012536071 0)
(1.0750451 -0.012615456 0)
(1.0780405 -0.012644925 0)
(1.0810441 -0.012619451 0)
(1.0840426 -0.012534035 0)
(1.0870214 -0.012383794 0)
(1.0899644 -0.012164063 0)
(1.0928547 -0.011870506 0)
(1.0956741 -0.011499241 0)
(1.0984033 -0.011046974 0)
(1.1010224 -0.010511137 0)
(1.1035106 -0.0098900322 0)
(1.1058471 -0.009182981 0)
(1.1080105 -0.0083904613 0)
(1.1099798 -0.007514245 0)
(1.1117346 -0.0065575131 0)
(1.113255 -0.005524954 0)
(1.1145228 -0.004422824 0)
(1.1155211 -0.0032589765 0)
(1.1162353 -0.0020428187 0)
(1.1166529 -0.00078525117 0)
(1.1167645 0.0005015524 0)
(1.1165637 0.0018042463 0)
(1.1160473 0.0031087296 0)
(1.1152157 0.0044005531 0)
(1.114073 0.0056652188 0)
(1.1126265 0.0068887101 0)
(1.1108872 0.0080579312 0)
(1.1088691 0.0091611469 0)
(1.106589 0.010188358 0)
(1.1040662 0.011131594 0)
(1.1013215 0.01198507 0)
(1.0983774 0.012745243 0)
(1.0952571 0.013410677 0)
(1.0919841 0.013981857 0)
(1.0885817 0.014460804 0)
(1.0850729 0.01485074 0)
(1.0814798 0.015155605 0)
(1.0778235 0.015379738 0)
(1.0741242 0.015527474 0)
(1.0704008 0.015602998 0)
(1.0666714 0.015610135 0)
(1.0629527 0.015552417 0)
(1.0592608 0.015433072 0)
(1.0556105 0.015255221 0)
(1.0520158 0.015021966 0)
(1.0484897 0.014736581 0)
(1.0450442 0.014402571 0)
(1.0416902 0.014023764 0)
(1.0384375 0.013604274 0)
(1.0352948 0.013148472 0)
(1.0322696 0.012660869 0)
(1.0293682 0.012146019 0)
(1.0265958 0.011608383 0)
(1.0239566 0.011052227 0)
(1.0214537 0.01048152 0)
(1.0190892 0.0098998722 0)
(1.0168648 0.0093104833 0)
(1.0147811 0.0087161294 0)
(1.0128383 0.0081191524 0)
(1.0110362 0.0075214824 0)
(1.0093742 0.0069246487 0)
(1.0078514 0.0063298231 0)
(1.0064664 0.0057378305 0)
(1.0052187 0.0051492138 0)
(1.0041061 0.0045642142 0)
(1.0031288 0.0039828808 0)
(1.0022833 0.0034049713 0)
(1.0015725 0.0028301774 0)
(1.0009891 0.0022578307 0)
(1.0005429 0.0016874325 0)
(1.0002162 0.001117872 0)
(1.0000358 0.00054871532 0)
(1.0026425 -0.0014636056 0)
(1.0031232 -0.0015451287 0)
(1.0032978 -0.0016157641 0)
(1.0037031 -0.001706287 0)
(1.0039819 -0.0017951725 0)
(1.0043757 -0.0018971516 0)
(1.0047253 -0.0020026893 0)
(1.0051396 -0.0021185325 0)
(1.0055484 -0.0022405135 0)
(1.0060013 -0.0023717848 0)
(1.0064679 -0.0025105911 0)
(1.0069713 -0.0026584646 0)
(1.0074988 -0.0028147311 0)
(1.008062 -0.002980189 0)
(1.0086561 -0.0031546444 0)
(1.0092874 -0.0033385596 0)
(1.009955 -0.00353195 0)
(1.0106626 -0.0037351201 0)
(1.0114111 -0.0039481718 0)
(1.0122034 -0.0041713308 0)
(1.0130409 -0.0044047287 0)
(1.0139262 -0.0046485443 0)
(1.0148612 -0.0049029085 0)
(1.0158482 -0.0051679604 0)
(1.0168894 -0.0054438056 0)
(1.0179871 -0.0057305319 0)
(1.0191436 -0.0060281892 0)
(1.020361 -0.0063367838 0)
(1.0216419 -0.0066562654 0)
(1.0229883 -0.0069865084 0)
(1.0244027 -0.0073272999 0)
(1.0258872 -0.0076783119 0)
(1.027444 -0.0080390878 0)
(1.0290753 -0.0084090161 0)
(1.030783 -0.0087873028 0)
(1.032569 -0.009172959 0)
(1.034435 -0.0095647678 0)
(1.0363823 -0.0099612774 0)
(1.0384122 -0.010360771 0)
(1.0405255 -0.010761268 0)
(1.0427227 -0.011160495 0)
(1.0450037 -0.011555895 0)
(1.0473681 -0.011944606 0)
(1.0498149 -0.012323465 0)
(1.0523423 -0.012689003 0)
(1.0549478 -0.013037436 0)
(1.0576284 -0.013364674 0)
(1.0603799 -0.013666316 0)
(1.0631972 -0.013937662 0)
(1.0660745 -0.01417372 0)
(1.0690044 -0.014369232 0)
(1.0719788 -0.014518702 0)
(1.0749882 -0.014616443 0)
(1.0780216 -0.014656627 0)
(1.0810671 -0.014633365 0)
(1.0841112 -0.014540789 0)
(1.0871392 -0.014373156 0)
(1.0901348 -0.01412497 0)
(1.0930809 -0.013791106 0)
(1.0959589 -0.013366966 0)
(1.0987491 -0.012848627 0)
(1.1014312 -0.012233008 0)
(1.1039838 -0.011518044 0)
(1.1063854 -0.010702852 0)
(1.1086141 -0.0097879003 0)
(1.1106481 -0.0087751695 0)
(1.112466 -0.007668285 0)
(1.1140476 -0.006472635 0)
(1.1153735 -0.0051954412 0)
(1.1164262 -0.0038457924 0)
(1.1171902 -0.0024345971 0)
(1.1176525 -0.00097450731 0)
(1.1178028 0.00052033318 0)
(1.1176343 0.0020344138 0)
(1.1171431 0.003551324 0)
(1.1163293 0.0050542316 0)
(1.1151965 0.0065262457 0)
(1.1137521 0.0079510031 0)
(1.1120067 0.0093131987 0)
(1.1099745 0.01059908 0)
(1.1076724 0.011796893 0)
(1.1051199 0.012897219 0)
(1.1023385 0.013893161 0)
(1.0993511 0.014780421 0)
(1.0961817 0.015557146 0)
(1.0928546 0.016223733 0)
(1.089394 0.016782376 0)
(1.0858238 0.017236709 0)
(1.0821673 0.017591229 0)
(1.0784465 0.017850955 0)
(1.0746825 0.018020944 0)
(1.0708954 0.018106128 0)
(1.067104 0.01811106 0)
(1.0633259 0.018039991 0)
(1.0595776 0.017896834 0)
(1.0558747 0.017685397 0)
(1.0522316 0.017409461 0)
(1.0486613 0.017073006 0)
(1.0451763 0.016680257 0)
(1.0417873 0.016235801 0)
(1.0385041 0.01574453 0)
(1.0353353 0.01521161 0)
(1.0322882 0.014642347 0)
(1.0293689 0.014042076 0)
(1.0265822 0.013416001 0)
(1.023932 0.012769083 0)
(1.021421 0.012105926 0)
(1.0190512 0.011430704 0)
(1.0168237 0.010747106 0)
(1.0147388 0.010058322 0)
(1.0127965 0.009367033 0)
(1.0109963 0.0086754392 0)
(1.009337 0.0079852738 0)
(1.0078178 0.0072978542 0)
(1.0064369 0.0066140956 0)
(1.0051935 0.0059345869 0)
(1.0040853 0.0052595678 0)
(1.0031124 0.0045890583 0)
(1.0022709 0.0039227402 0)
(1.0015638 0.0032602237 0)
(1.0009835 0.0026006991 0)
(1.0005397 0.0019435622 0)
(1.000215 0.0012874896 0)
(1.0000356 0.00063196228 0)
(1.0025937 -0.0016494261 0)
(1.0030661 -0.0017414333 0)
(1.0032379 -0.0018211948 0)
(1.0036363 -0.0019234117 0)
(1.0039108 -0.0020238065 0)
(1.0042982 -0.0021390038 0)
(1.0046424 -0.0022582452 0)
(1.0050504 -0.002389151 0)
(1.0054532 -0.0025270191 0)
(1.0058995 -0.0026754135 0)
(1.0063595 -0.0028323562 0)
(1.006856 -0.0029995823 0)
(1.0073766 -0.0031763347 0)
(1.0079325 -0.0033635202 0)
(1.0085193 -0.0035609242 0)
(1.0091431 -0.0037690743 0)
(1.009803 -0.0039879924 0)
(1.0105028 -0.0042180276 0)
(1.0112433 -0.0044592999 0)
(1.0120275 -0.004712069 0)
(1.0128569 -0.0049764885 0)
(1.013734 -0.0052527654 0)
(1.0146607 -0.0055410526 0)
(1.0156395 -0.0058415126 0)
(1.0166724 -0.0061542705 0)
(1.0177619 -0.0064794315 0)
(1.0189102 -0.0068170593 0)
(1.0201197 -0.0071671689 0)
(1.0213927 -0.0075297128 0)
(1.0227316 -0.0079045602 0)
(1.0241386 -0.0082914831 0)
(1.0256162 -0.0086901262 0)
(1.0271665 -0.0090999906 0)
(1.0287918 -0.0095204053 0)
(1.0304942 -0.0099504953 0)
(1.0322757 -0.010389168 0)
(1.034138 -0.010835074 0)
(1.0360827 -0.011286601 0)
(1.0381112 -0.011741837 0)
(1.0402245 -0.012198569 0)
(1.0424233 -0.012654256 0)
(1.0447078 -0.013106028 0)
(1.0470777 -0.013550667 0)
(1.0495323 -0.01398461 0)
(1.05207 -0.014403933 0)
(1.0546887 -0.014804354 0)
(1.0573855 -0.015181229 0)
(1.0601565 -0.015529552 0)
(1.062997 -0.015843963 0)
(1.0659011 -0.016118761 0)
(1.0688619 -0.016347927 0)
(1.0718713 -0.01652516 0)
(1.0749199 -0.016643922 0)
(1.0779969 -0.016697509 0)
(1.0810904 -0.016679129 0)
(1.0841867 -0.016582002 0)
(1.0872711 -0.01639948 0)
(1.0903272 -0.016125181 0)
(1.0933373 -0.015753145 0)
(1.0962827 -0.015277997 0)
(1.0991433 -0.014695134 0)
(1.1018979 -0.014000912 0)
(1.1045248 -0.013192845 0)
(1.1070017 -0.012269804 0)
(1.1093057 -0.01123221 0)
(1.1114144 -0.01008222 0)
(1.1133055 -0.0088238837 0)
(1.1149578 -0.0074632762 0)
(1.116351 -0.0060085841 0)
(1.1174667 -0.0044701403 0)
(1.1182884 -0.0028603764 0)