/*--------------------------------*- C++ -*----------------------------------*\
| =========                 |                                                 |
| \\      /  F ield         | foam-extend: Open Source CFD                    |
|  \\    /   O peration     | Version:     4.1                                |
|   \\  /    A nd           | Web:         http://www.foam-extend.org         |
|    \\/     M anipulation  |                                                 |
\*---------------------------------------------------------------------------*/
FoamFile
{
    version     2.0;
    format      ascii;
    class       volScalarField;
    location    "2.85";
    object      p;
}
// * * * * * * * * * * * * * * * * * * * * * * * * * * * * * * * * * * * * * //

dimensions      [0 2 -2 0 0 0 0];

internalField   nonuniform List<scalar> 
4393
(
-46.418269
-92.981797
-146.74658
-201.53764
-258.52841
-318.02958
-380.42408
-446.02148
-515.04602
-587.60787
-663.67498
-743.04493
-825.31962
-909.88645
-995.91018
-1082.3382
-1167.9202
-1251.2384
-1330.7461
-1404.8058
-1471.7263
-1529.7971
-1577.3236
-1612.6681
-1634.303
-1640.8851
-1631.3603
-1605.1084
-1562.0228
-1502.6037
-1428.0621
-1340.3038
-1241.823
-1135.5203
-1024.4763
-911.72557
-800.0676
-691.93503
-589.32497
-493.78562
-406.44439
-328.06237
-259.10009
-199.78343
-150.17373
-110.24
-79.762917
-57.831974
-43.627678
-45.166105
-92.395977
-146.034
-200.67383
-257.49548
-316.84186
-379.10952
-444.62011
-513.60972
-586.20055
-662.37218
-741.93225
-824.4897
-909.43444
-995.928
-1082.9088
-1169.1127
-1253.1058
-1333.3243
-1408.1148
-1475.7715
-1534.5693
-1582.7971
-1618.7952
-1641.0073
-1648.0566
-1638.8536
-1612.7035
-1569.4358
-1509.5438
-1434.2445
-1345.4782
-1245.8051
-1138.2114
-1025.8676
-911.88845
-799.13337
-690.07169
-586.71496
-490.60798
-402.86251
-324.21705
-255.10951
-195.75293
-146.20018
-106.35989
-75.961258
-54.862324
-44.264153
-44.361866
-91.499224
-144.77571
-199.05477
-255.5256
-314.56073
-376.57886
-441.92389
-510.85505
-583.51825
-659.91589
-739.87525
-823.01861
-908.73972
-996.19219
-1084.2945
-1171.753
-1257.0994
-1338.7351
-1414.9748
-1484.0841
-1544.3099
-1593.9088
-1631.1782
-1654.501
-1662.4205
-1653.7588
-1627.7377
-1584.0953
-1523.253
-1446.4218
-1355.6116
-1253.519
-1143.3088
-1028.3377
-911.88352
-796.92593
-686.00464
-581.1553
-483.91017
-395.34338
-316.14182
-246.68956
-187.15596
-137.55043
-97.687603
-67.257495
-46.702571
-37.920043
-43.571147
-90.203478
-142.872
-196.57254
-252.49934
-311.05356
-372.68269
-437.76263
-506.5874
-579.3394
-656.05688
-736.59853
-820.60875
-907.48878
-996.38109
-1086.1738
-1175.5277
-1262.9211
-1346.7023
-1425.1385
-1496.4543
-1558.8581
-1610.562
-1649.8026
-1674.8747
-1684.1992
-1676.452
-1650.7039
-1606.5446
-1544.2891
-1465.1352
-1371.1989
-1265.3937
-1151.1692
-1032.1784
-911.95571
-793.66678
-679.95713
-572.89513
-473.98926
-384.25239
-304.29068
-234.40439
-174.68768
-125.0749
-85.291072
-55.021884
-34.933934
-26.78981
-42.746013
-88.586057
-140.4016
-193.29783
-248.47661
-306.36993
-367.46077
-432.16652
-500.82782
-573.67697
-650.802
-732.10617
-817.26615
-905.69519
-996.521
-1088.5889
-1180.4945
-1270.6402
-1357.3004
-1438.6789
-1512.948
-1578.2699
-1632.8041
-1674.7128
-1702.1779
-1713.4586
-1707.0288
-1681.7387
-1636.9527
-1572.8174
-1490.4973
-1392.2534
-1281.3114
-1161.5345
-1037.0024
-911.61298
-788.78865
-671.31341
-561.28991
-460.18268
-368.91127
-287.96511
-217.52549
-157.57733
-107.95334
-68.296278
-38.299426
-18.683067
-10.926658
-41.737435
-86.536869
-137.25305
-189.11397
-243.33036
-300.36939
-360.75683
-424.96184
-493.38468
-566.32277
-643.93054
-726.17212
-812.77002
-903.15663
-996.442
-1091.414
-1186.5791
-1280.2366
-1370.5623
-1455.6795
-1533.7001
-1602.7366
-1660.8933
-1706.2489
-1736.8498
-1750.7503
-1746.1562
-1721.6148
-1676.1687
-1609.7095
-1523.3299
-1419.477
-1301.8085
-1174.7656
-1043.0175
-910.95433
-782.33287
-660.10514
-546.39973
-442.60487
-349.50276
-267.4193
-196.37193
-136.19476
-86.586391
-47.090117
-17.368369
1.8956811
9.4345032
-40.595505
-84.127153
-133.49116
-184.07005
-237.08789
-293.05297
-352.54156
-416.08541
-484.15851
-557.14062
-635.27201
-718.59796
-806.90483
-899.65509
-995.9393
-1094.4702
-1193.6348
-1291.5938
-1386.3951
-1476.0637
-1558.646
-1632.2096
-1694.8099
-1744.4432
-1779.0047
-1796.301
-1794.1934
-1770.8247
-1724.7861
-1655.5859
-1564.176
-1453.2318
-1326.9985
-1190.7116
-1049.841
-909.42562
-773.64315
-645.63628
-527.53679
-420.60837
-325.43819
-242.13223
-170.49384
-110.16462
-60.67949
-21.46036
7.9044472
26.824013
34.191277
-39.186003
-81.205533
-128.95642
-178.00157
-229.57699
-284.23728
-342.61683
-405.32125
-472.91363
-545.87562
-624.5565
-709.10795
-799.40433
-894.95471
-994.83021
-1097.6466
-1201.6304
-1304.757
-1404.9086
-1499.9921
-1587.9887
-1666.9346
-1734.8565
-1789.681
-1829.1465
-1850.7722
-1851.9885
-1830.4101
-1784.0051
-1711.7089
-1614.2139
-1494.463
-1357.4971
-1209.6428
-1057.4491
-906.79849
-762.38281
-627.5439
-504.37017
-393.9277
-296.52999
-211.99115
-139.84048
-79.481021
-30.252838
8.5660027
37.490503
56.044138
63.248894
-37.653444
-77.93092
-123.79685
-171.03282
-220.89019
-273.97547
-330.98869
-392.62103
-459.54157
-532.35643
-611.55183
-697.41811
-789.95091
-888.73163
-992.81673
-1100.6981
-1210.3872
-1319.61
-1426.0326
-1527.4227
-1621.7031
-1706.9069
-1781.0683
-1842.0767
-1887.5228
-1914.6047
-1920.2261
-1901.323
-1855.0118
-1779.3758
-1674.6452
-1544.0577
-1393.739
-1231.5239
-1065.4177
-902.3909
-747.74671
-605.01047
-476.14617
-361.91625
-262.25622
-176.59907
-104.13009
-43.962862
4.7916927
43.024018
71.375127
89.494452
96.517264
-35.74881
-74.004812
-117.69205
-162.8315
-210.68181
-261.90419
-317.27069
-377.56955
-443.59402
-516.10027
-595.74466
-682.99654
-778.01774
-880.50089
-989.49979
-1103.3487
-1219.7669
-1336.1395
-1449.8469
-1558.4919
-1659.9567
-1752.3183
-1833.6801
-1901.9524
-1954.6109
-1988.5126
-1999.935
-1984.955
-1939.54
-1860.5123
-1747.2971
-1603.4215
-1436.5072
-1256.5006
-1073.3826
-895.51848
-728.91323
-577.21749
-442.13756
-323.98063
-222.16694
-135.63918
-63.159206
-3.4977205
44.496893
81.904724
109.50783
127.08924
133.89295
-33.79863
-69.806226
-111.02786
-153.76789
-199.29478
-248.32728
-301.71449
-360.35244
-425.17731
-497.12399
-577.05813
-665.67847
-763.37402
-870.00843
-984.66003
-1105.466
-1229.7461
-1354.4135
-1476.4671
-1593.317
-1702.8399
-1803.231
-1892.7559
-1969.4398
-2030.7073
-2073.0752
-2092.1035
-2082.7926
-2039.5854
-1957.4484
-1834.4239
-1674.2471
-1486.634
-1284.544
-1080.6572
-885.11576
-704.69033
-543.02715
-401.36474
-279.3419
-175.68555
-88.716241
-16.683508
42.039809
88.898802
125.17912
151.81161
168.71752
175.25028
-31.322725
-64.74834
-103.16395
-143.16707
-186.01789
-232.49041
-283.5134
-340.10039
-403.35019
-474.40902
-554.39851
-644.30956
-744.84084
-856.11839
-977.29897
-1106.2775
-1239.8195
-1374.1692
-1505.8012
-1631.8962
-1750.3823
-1859.6799
-1958.3488
-2044.671
-2116.1354
-2168.957
-2197.9196
-2196.6905
-2157.7323
-2073.3252
-1939.148
-1758.8893
-1545.2547
-1315.6014
-1086.3274
-869.81823
-673.60653
-501.08663
-352.70756
-227.14565
-122.20826
-35.439433
35.518631
92.743294
137.99772
172.78116
198.17337
214.23536
220.43289
-28.935349
-59.575003
-94.898049
-131.84685
-171.67521
-215.21018
-263.45967
-317.56066
-378.792
-448.54474
-528.24815
-619.2584
-722.68933
-839.06416
-967.71662
-1106.2531
-1250.6593
-1396.2152
-1538.6633
-1674.9217
-1803.0776
-1921.945
-2030.5691
-2127.6996
-2211.0798
-2276.7102
-2318.5363
-2328.6702
-2297.0934
-2212.1919
-2065.6517
-1860.4849
-1613.7491
-1349.4066
-1089.0108
-847.73811
-633.73441
-449.70483
-294.82699
-166.41666
-61.081143
24.586283
93.646107
148.66963
191.75136
224.60092
248.43769
263.45935
269.24653
-25.834182
-53.293403
-85.133306
-118.63355
-155.00882
-195.1276
-240.07109
-291.10186
-349.69461
-417.52233
-496.38339
-588.08829
-694.30517
-816.16057
-953.35329
-1103.1786
-1260.5218
-1419.247
-1574.0531
-1721.5571
-1860.1743
-1989.3359
-2108.7966
-2218.0396
-2315.3458
-2396.6697
-2455.0967
-2481.0197
-2461.4973
-2379.4187
-2219.7578
-1983.4122
-1693.8844
-1385.4097
-1086.7042
-816.33226
-582.61582
-386.83303
-226.18332
-96.095517
8.3589545
91.723017
157.84502
209.81644
250.05869
280.47337
302.39884
316.15991
321.45271
-22.98827
-47.1056
-75.194228
-104.93104
-137.49256
-173.77999
-214.93907
-262.35448
-317.70627
-382.98367
-460.41849
-552.36996
-661.22073
-788.9878
-936.0552
-1099.424
-1272.386
-1446.6587
-1615.3974
-1774.8819
-1924.1579
-2063.6282
-2194.0744
-2316.113
-2429.0545
-2529.1504
-2608.6682
-2656.1729
-2655.5151
-2582.0931
-2409.6772
-2133.8907
-1787.878
-1422.5325
-1076.4499
-772.13807
-517.10614
-310.00202
-145.03247
-15.064257
86.749248
166.26596
228.1803
276.10032
312.74422
340.16755
359.79314
372.05552
376.76335
-19.234001
-39.56612
-63.483965
-89.028653
-117.2855
-149.16095
-185.84178
-228.81603
-279.96332
-341.61487
-416.50483
-507.64524
-618.31817
-751.84274
-909.86971
-1089.2873
-1281.105
-1473.7724
-1658.1736
-1830.2915
-1990.3737
-2140.3273
-2282.2795
-2418.3709
-2549.5395
-2672.7612
-2779.4819
-2856.4144
-2884.4359
-2829.5599
-2647.2457
-2321.0868
-1898.5222
-1458.8314
-1053.8853
-710.45766
-433.22499
-216.29664
-49.466608
77.789982
174.63852
248.39207
304.59772
347.33052
379.54065
403.37543
420.29201
430.80787
434.83693
-15.909558
-32.367237
-51.889435
-72.946137
-96.52808
-123.52996
-155.16111
-192.99617
-239.10674
-296.19277
-367.57387
-457.02996
-568.92163
-708.39578
-879.34005
-1079.0096
-1295.0589
-1510.7434
-1713.4125
-1898.7623
-2069.1468
-2228.6983
-2381.1214
-2530.477
-2680.3853
-2829.6035
-2969.1763
-3084.3377
-3154.0985
-3134.0107
-2949.9597
-2559.1604
-2029.2974
-1490.9051
-1012.5342
-624.92425
-325.99124
-102.36303
62.502921
183.47694
272.40214
338.09635
386.88003
423.18071
450.07171
469.70219
483.49664
492.0191
495.27638
-11.483931
-23.591256
-38.294686
-54.438655
-72.84812
-94.363219
-120.16996
-151.87512
-191.68065
-242.61939
-308.63678
-394.36249
-505.33298
-649.10793
-833.41825
-1057.1179
-1303.0123
-1546.0297
-1768.1206
-1964.9806
-2142.9739
-2309.8844
-2471.3077
-2633.6114
-2804.7351
-2986.7697
-3170.3476
-3338.4979
-3469.9063
-3511.2586
-3344.1363
-2870.798
-2184.1428
-1512.8697
-942.74474
-506.96138
-189.29432
35.498963
192.78388
302.75091
380.12603
435.11329
474.59799
503.16042
523.83671
538.65861
548.9351
555.23122
557.62953
-7.5459529
-15.399259
-25.214359
-36.272628
-49.208302
-64.768105
-84.068968
-108.69889
-140.93292
-184.11079
-242.90324
-322.98238
-431.14901
-577.9655
-777.5871
-1033.2896
-1320.88
-1601.2873
-1847.8976
-2056.6834
-2241.3068
-2415.2339
-2585.4238
-2759.5246
-2951.4771
-3168.7934
-3401.841
-3630.6648
-3839.9337
-3979.4501
-3868.0215
-3294.1299
-2367.8694
-1515.4531
-830.29297
-345.15934
-15.871671
201.09547
342.92675
435.89067
497.45854
538.82697
567.06021
586.58946
600.19915
609.65764
616.06291
619.92876
621.39235
-2.4940602
-5.6554153
-10.10531
-15.573848
-22.445019
-31.342424
-43.273901
-59.749425
-83.013042
-116.56754
-165.75612
-237.36418
-339.18029
-484.64154
-697.71888
-992.03932
-1333.7671
-1659.6112
-1930.1027
-2142.1463
-2323.1196
-2495.6055
-2666.7926
-2843.1718
-3048.9944
-3303.1735
-3599.0872
-3914.1972
-4241.4066
-4553.2171
-4583.023
-3903.4779
-2589.3108
-1483.2199
-653.43054
-124.34797
202.50771
397.84749
513.68382
582.39919
623.43358
648.17766
663.26885
672.5803
678.38269
682.01669
684.26827
685.54511
686.01566
2.9587856
3.9729826
4.5462463
4.372746
3.3872966
1.1546321
-3.1202069
-10.724084
-23.652356
-45.261183
-81.374364
-140.13083
-230.27331
-367.3883
-589.87757
-934.91035
-1357.8536
-1750.6931
-2054.8898
-2266.9248
-2439.8804
-2611.5586
-2788.5984
-2969.4134
-3193.9258
-3500.0123
-3883.2968
-4313.0918
-4763.9029
-5291.5197
-5573.8098
-4825.3573
-2837.3015
-1376.2415
-376.92536
174.90884
474.1495
627.83478
704.34044
740.62164
756.28069
761.57954
761.89154
760.03463
757.47771
754.96763
752.88262
751.47291
750.91538
8.2851113
13.265322
19.323522
25.157961
31.020636
36.677856
41.595105
44.763085
44.510432
37.799865
18.452166
-23.539108
-98.146682
-220.10634
-443.94189
-853.4641
-1397.2819
-1876.4147
-2210.7428
-2392.8792
-2530.4282
-2685.6832
-2862.7824
-3027.8147
-3238.6397
-3573.5313
-4023.7135
-4561.7456
-5089.7113
-5960.3605
-6823.7176
-6299.5141
-3074.0124
-1170.951
36.50714
572.65533
805.01244
890.17402
911.79947
907.31759
893.25961
876.87572
861.26413
847.66156
836.46212
827.67583
821.19715
817.07856
815.48624
17.841142
25.859709
36.761748
47.719754
59.416638
71.80138
84.631547
97.258502
108.52234
116.23585
114.96657
93.715452
41.620087
-49.538266
-244.67531
-715.15116
-1441.8799
-2033.6098
-2413.3728
-2545.712
-2643.018
-2787.1988
-2982.1457
-3113.6795
-3276.6771
-3677.6984
-4224.371
-4961.7029
-5679.3051
-7242.8535
-8882.0921
-9068.3522
-3578.1293
-1038.2189
635.19367
1099.0925
1197.3514
1178.9799
1129.5278
1077.2889
1030.5879
991.36699
959.44158
934.02474
914.23894
899.26899
888.48516
881.72064
879.11867
22.150584
30.895255
46.136761
62.238248
80.171568
100.10831
122.29216
146.74788
173.26296
201.23855
227.41515
240.71467
225.96329
180.34562
45.408775
-483.28423
-1555.1587
-2311.4992
-2773.6622
-2771.0086
-2749.6654
-2813.1448
-3022.6406
-3099.9054
-3207.1633
-3763.2631
-4232.9943
-5185.2216
-6470.8428
-7863.4472
-9589.1437
-12103.54
-4823.2653
-72.514458
1722.8312
1811.9831
1641.1426
1478.7605
1346.23
1243.2038
1163.5576
1101.9569
1054.3117
1017.6221
989.69075
968.8748
954.0292
944.77099
941.2177
36.937093
46.533257
66.460127
87.314041
110.7481
137.07745
166.90663
200.7209
238.86217
281.66275
327.57471
365.35506
371.82662
347.26628
293.74167
-191.10942
-1818.0782
-2617.135
-3115.4961
-2772.7574
-2626.8081
-2732.5426
-3131.7556
-3271.1272
-3302.4336
0
0
0
0
0
0
0
0
6202.3756
3402.4566
2582.4958
2068.2389
1755.8598
1545.1256
1396.0888
1287.0018
1205.4554
1143.7781
1096.9954
1061.7473
1035.6644
1017.1508
1005.6372
1001.2228
35.366753
42.182759
64.028441
87.075116
113.20495
142.73976
176.57934
215.67665
261.07485
314.42467
377.59027
445.9894
502.79963
560.82577
710.68079
552.80443
-1996.7852
-2776.9625
-3646.9055
-2968.6372
-3044.3359
-3012.3243
0
0
0
0
0
0
0
0
0
0
10129.575
6286.2541
4123.9552
3000.3247
2361.3133
1969.1784
1709.0496
1527.5635
1396.2862
1299.0431
1225.9927
1170.8557
1129.4573
1098.897
1077.24
1063.7843
1058.6268
44.263805
54.950281
80.950085
106.97764
136.15445
169.03608
206.87578
251.10426
303.50624
367.0805
447.11668
546.08858
653.28873
754.39106
842.19563
568.47315
-3108.2257
-3581.5987
-3205.2807
0
0
0
0
0
0
0
0
0
0
0
1780.6721
3364.5946
5756.1168
5236.09
3961.3827
3100.1688
2507.1434
2107.7405
1830.6547
1632.9924
1488.4301
1380.7312
1299.5701
1238.1939
1192.0517
1157.9579
1133.781
1118.7539
1112.9928
22.191623
42.166362
66.371057
91.284977
118.75246
149.54734
184.74333
225.50542
273.13253
329.82989
399.49998
478.02727
537.53008
536.24739
558.10674
702.38716
0
0
0
0
0
0
-1132.0676
-1103.5232
-1011.3054
-917.55603
-790.08486
-495.29868
-94.947063
697.08412
2026.4401
3361.911
4750.9877
4489.858
3714.8025
3058.687
2552.6658
2182.2206
1911.446
1711.6618
1562.355
1449.5324
1363.6928
1298.3453
1248.9837
1212.3857
1186.3708
1170.1782
1163.9665
19.95401
50.02222
74.970548
100.54389
127.96167
158.05685
191.47974
228.665
269.57206
313.41805
357.89978
396.56229
406.149
338.09176
142.01774
-338.13543
-1284.4165
-1227.4742
-1147.1012
-1100.4781
-1051.0812
-1021.6127
-1010.3641
-803.28907
-838.68198
-583.18151
-362.34481
-204.61709
259.08309
904.85489
1960.2929
3049.3237
3956.5658
3851.897
3404.2984
2933.5975
2528.462
2206.0159
1956.7044
1765.4227
1618.5291
1505.3812
1418.1058
1351.0016
1299.9427
1261.8837
1234.7287
1217.7888
1211.2843
20.663337
46.485446
72.120312
97.971836
125.28644
154.81519
187.13917
222.625
261.25916
302.1342
342.03511
373.73571
384.81883
353.15851
205.21585
-227.92209
-792.30475
-920.95871
-962.54783
-966.15061
-887.80266
-842.3201
-818.54936
-691.79995
-620.94352
-417.54015
-179.14311
77.74314
510.88719
1096.4665
1896.1871
2721.5885
3334.8858
3356.8271
3105.6571
2777.1435
2463.3577
2193.8104
1973.5978
1797.6789
1658.5141
1548.9435
1463.0391
1396.1807
1344.8438
1306.3181
1278.6983
1261.4188
1254.776
14.996605
36.230634
58.797041
81.291076
104.29088
128.03553
152.53051
177.41598
201.79003
223.68923
238.89697
240.18122
218.24904
159.21452
15.075135
-283.912
-606.90301
-732.46443
-784.5183
-794.28626
-753.12506
-703.474
-642.23482
-537.76196
-423.8862
-238.24296
-11.498371
269.88405
668.60869
1187.7225
1823.2426
2450.8967
2889.5208
2967.059
2834.9724
2613.0015
2376.1818
2157.6765
1969.1888
1812.3859
1684.4726
1581.3765
1499.0913
1434.17
1383.8003
1345.7042
1318.2397
1300.9998
1294.363
23.838379
46.444922
70.189915
93.656195
117.54426
141.96101
166.72597
191.21047
214.09577
232.81518
242.6844
236.67002
205.98881
135.39764
-7.2593254
-236.55095
-460.15458
-579.80563
-635.38304
-644.54074
-615.83446
-568.29256
-497.2809
-394.45982
-264.34891
-82.932693
139.16123
416.11369
777.02684
1223.7723
1735.5105
2221.7457
2557.2303
2658.5605
2599.623
2454.8466
2280.1782
2107.1231
1949.75
1813.4693
1698.7946
1604.1112
1527.1065
1465.4579
1417.0854
1380.1849
1353.4182
1336.5537
1330.0515
12.024219
29.927736
50.032234
70.035792
90.041063
109.92728
129.38619
147.74694
163.7608
175.18277
178.31574
168.06163
137.6386
74.654378
-40.055092
-203.50761
-358.80708
-456.74738
-506.0789
-514.23348
-488.92994
-440.00546
-365.6891
-262.6007
-128.53836
46.96438
261.85469
525.19118
849.67455
1232.3376
1648.6365
2032.806
2301.9491
2411.5835
2398.128
2308.5358
2183.1598
2048.9513
1920.3872
1804.4657
1703.8314
1618.6754
1548.0644
1490.6665
1445.0907
1410.0054
1384.3872
1368.1818
1361.9236
21.407274
40.632453
60.85413
80.367764
99.453621
117.84348
135.02366
150.10173
161.62899
167.32369
163.94546
147.5486
113.08113
52.273689
-43.556881
-165.61524
-279.00327
-356.12467
-395.68991
-400.4566
-375.18732
-324.72547
-248.67393
-145.28255
-11.774036
156.79261
361.05931
606.02217
895.952
1224.4162
1567.8666
1878.5079
2101.9973
2212.1878
2227.1469
2176.761
2089.844
1988.068
1885.1002
1788.3901
1701.7415
1626.57
1562.9912
1510.4913
1468.2869
1435.4862
1411.3702
1396.0511
1390.1252
11.864151
27.968677
45.959782
63.611655
80.820548
97.231954
112.31668
125.22207
134.61715
138.50969
134.2249
118.55914
87.502354
35.679737
-40.002183
-130.43166
-213.5247
-271.83062
-300.84894
-300.6264
-273.46193
-221.63377
-145.03181
-42.510989
87.994361
248.90877
441.01391
666.30064
924.57436
1207.7346
1495.1772
1752.1626
1942.6284
2049.7642
2082.4756
2059.9384
2002.6785
1927.6338
1846.8497
1767.6919
1694.4096
1629.1886
1572.8942
1525.6527
1487.1888
1456.9991
1434.6434
1420.3809
1414.8541
17.140366
33.237337
50.220028
66.364797
81.714341
95.886739
108.32926
118.22215
124.38329
125.18565
118.61231
102.36251
73.691123
29.625519
-29.988782
-97.382061
-158.13639
-200.46203
-219.38482
-213.53433
-183.55765
-130.34309
-53.764195
46.960449
173.10567
325.77677
505.17512
711.24654
941.4185
1187.1584
1431.2315
1648.3116
1813.9324
1916.4942
1960.2189
1957.4982
1922.9614
1869.6955
1807.8369
1744.3108
1683.4269
1627.7754
1578.7193
1536.8596
1502.326
1474.9441
1454.5178
1441.4281
1436.3467
11.965882
26.36573
42.104211
57.216619
71.535766
84.633752
95.9555
104.72781
109.89846
110.11352
103.80207
89.276736
64.758373
28.907426
-17.019543
-66.703565
-110.24997
-139.22876
-148.99443
-137.55123
-104.54773
-50.079498
26.068054
124.39895
245.54601
389.78562
556.64747
744.78781
950.46888
1165.4736
1375.7037
1562.5378
1708.9275
1806.4501
1856.8893
1868.2994
1851.1314
1815.4437
1769.5688
1719.7251
1670.0962
1623.4072
1581.3252
1544.7833
1514.2212
1489.7318
1471.3242
1459.4745
1454.8662
13.672525
27.359591
41.871679
55.550768
68.315728
79.771181
89.415436
96.581139
100.40719
99.848998
93.763643
81.007263
60.559648
32.098562
-2.589284
-38.476482
-68.501594
-86.407574
-88.109936
-71.431157
-35.4895
20.054154
95.479482
191.07391
307.00142
442.97367
597.96315
769.86589
954.48592
1144.3021
1327.8972
1491.4048
1622.6064
1715.1569
1769.558
1791.064
1787.1667
1765.5775
1733.0735
1695.0583
1655.4637
1616.9947
1581.4713
1550.0424
1523.3737
1501.7677
1485.4003
1474.8154
1470.6916
11.353751
24.027845
37.64513
50.500569
62.432371
73.046774
81.880028
88.352014
91.760703
91.312681
86.206148
75.732818
59.44612
37.651168
12.276146
-12.652283
-31.896774
-40.645041
-35.404981
-14.037758
24.575542
80.988454
155.49858
248.21867
358.97861
487.10034
631.16274
788.6622
955.34917
1124.5376
1287.0001
1432.2484
1551.2806
1639.1812
1695.78
1724.5056
1730.7503
1720.4245
1699.0136
1671.1272
1640.3518
1609.294
1579.8159
1553.1936
1530.2482
1511.4417
1497.0801
1487.7496
1484.108
11.407417
23.296005
35.923478
47.754342
58.666177
68.305004
76.268436
82.076707
85.182566
85.010402
81.033311
72.876425
60.489197
44.522173
26.847364
10.721249
0.16255878
-1.0282119
10.105478
35.554005
76.498853
133.57359
207.05515
296.91494
402.74685
523.60927
657.83555
802.75925
954.29732
1106.6008
1252.1846
1382.9757
1492.1647
1575.8549
1633.5317
1667.4216
1681.4226
1680.0723
1667.8006
1648.5066
1625.3925
1600.9188
1576.9181
1554.7273
1535.2681
1519.119
1506.6849
1498.5707
1495.3989
10.343701
21.515218
33.418477
44.560528
54.805644
63.829394
71.285698
76.786993
79.92284
80.301663
77.62067
71.762767
62.951182
52.019629
40.71185
31.704927
28.182164
33.206525
49.281364
78.204473
121.12223
178.668
251.0727
338.19338
439.45912
553.75828
679.29331
813.38268
952.21558
1090.7116
1222.7516
1342.0034
1443.1853
1523.1437
1581.1974
1618.7741
1638.704
1644.4832
1639.6907
1627.617
1611.0831
1592.3716
1573.2518
1555.0725
1538.8133
1525.1353
1514.5168
1507.5613
1504.8397
9.9406098
20.476365
31.670301
42.129995
51.740033
60.21326
67.259665
72.575133
75.865243
76.886732
75.510453
71.807554
66.1784
59.538331
53.481628
50.250131
52.431917
62.544138
82.715319
114.54305
159.08964
216.94408
288.27822
372.85696
469.9962
578.48233
696.46788
821.34193
949.6023
1076.8387
1197.9928
1307.9985
1402.6587
1479.3702
1537.3818
1577.5855
1602.0461
1613.4719
1614.7644
1608.702
1597.76
1584.0287
1569.1946
1554.5869
1541.2127
1529.79
1520.8529
1514.9875
1512.6938
9.3564913
19.364687
30.008311
39.956309
49.101832
57.191806
63.988223
69.261454
72.815932
74.529293
74.408033
72.661262
69.801786
66.76985
65.018179
66.459725
73.249644
87.495665
111.02129
145.23586
191.09844
249.13297
319.44862
401.73672
495.23722
598.68224
710.22662
827.37327
946.92394
1065.0321
1177.4573
1280.0606
1369.4254
1443.3603
1501.0944
1543.1585
1571.0669
1586.9348
1593.1296
1592.0072
1585.742
1576.2387
1565.0923
1553.5963
1542.7639
1533.3526
1525.9439
1521.0963
1519.2108
8.9349284
18.485939
28.650069
38.160444
46.922793
54.715621
61.346493
66.648497
70.506292
72.892273
73.915226
73.881826
73.373028
73.323798
75.062247
80.252198
90.73006
108.29461
134.52479
170.66352
217.56531
275.68333
345.0668
425.34919
515.72106
614.89188
721.04883
831.82347
944.29394
1055.0747
1160.5507
1257.2642
1342.3653
1413.9709
1471.3167
1514.6887
1545.206
1564.5399
1574.643
1577.5293
1575.1203
1569.153
1561.13
1552.3029
1543.6755
1536.03
1529.9959
1526.1078
1524.6265
8.5490928
17.743438
27.539666
36.720582
45.201095
52.788058
59.32872
64.708643
68.877072
71.879962
73.902261
75.318404
76.748847
79.109792
83.625737
91.773103
105.15337
125.33323
153.69938
191.35478
239.05866
297.19709
365.76624
444.3551
532.12339
627.77728
729.54986
835.19766
942.03543
1047.0437
1147.0794
1239.1828
1320.915
1390.6227
1447.5585
1491.8429
1524.3121
1546.3088
1559.4683
1565.5348
1566.2224
1563.1248
1557.6594
1551.0355
1544.2392
1538.0668
1533.2132
1530.2282
1529.1735
8.179799
17.102079
26.616364
35.549349
43.821643
51.264812
57.758881
63.231092
67.680358
71.207587
74.052676
76.635909
79.599556
83.837553
90.492514
100.90248
116.49804
138.67461
168.67222
207.48196
255.78285
313.90312
381.79494
459.01413
544.70196
637.57123
735.90274
837.5624
940.05617
1040.6448
1136.5328
1225.1191
1304.2586
1372.4662
1429.0141
1473.9123
1507.7985
1531.7776
1547.2493
1555.7522
1558.839
1557.9878
1554.5461
1549.6891
1544.3863
1539.437
1535.6172
1533.5686
1533.0779
7.8074693
16.603256
25.940262
34.712444
42.846939
50.199281
56.676515
62.237949
66.919235
70.860787
74.340584
77.808719
81.918386
87.542489
95.761795
107.81615
125.0175
148.64082
179.82028
219.46351
268.18773
326.2759
393.64665
469.83242
553.96422
644.76509
740.5576
839.29456
938.62582
1036.0149
1128.9112
1214.9615
1292.2232
1359.3289
1415.5686
1460.8803
1495.7671
1521.1692
1538.3195
1548.608
1553.4684
1554.2922
1552.3725
1548.8592
1544.7056
1540.6825
1537.6143
1536.3939
1536.6791
7.3041637
16.167688
25.424159
34.111363
42.165152
49.465517
55.940283
61.570932
66.417216
70.644595
74.554375
78.61373
83.480085
90.010611
99.246169
112.36664
130.6104
155.17379
187.1207
227.30331
276.29702
334.35396
401.37025
476.86341
559.95916
649.38943
743.50693
840.32404
937.58606
1032.888
1123.8348
1208.2294
1284.2565
1350.6236
1406.6337
1452.1816
1487.6872
1513.9863
1532.2051
1543.6369
1549.6374
1551.5385
1550.5929
1547.9363
1544.5158
1541.0474
1538.3509
1537.9202
1540.1134
6.0814628
15.83547
25.143156
33.822774
41.845876
49.124487
55.600651
61.268047
66.198734
70.570698
74.696996
79.053548
84.300652
91.290308
101.04816
114.71794
133.49035
158.52486
190.85545
231.30739
280.43522
338.47539
405.31253
480.45663
563.03082
651.7719
745.04831
840.90294
937.12948
1031.3887
1121.3627
1204.9315
1280.3425
1346.3408
1402.2366
1447.9046
1483.7241
1510.48
1529.2467
1541.2706
1547.8637
1550.3274
1549.9024
1547.7277
1544.7606
1541.6763
1539.2606
1539.7835
1545.6258
-2227.7581
-2483.6249
-2699.539
-2881.4837
-3023.9676
-3106.2148
-3108.2257
-3029.2215
-2857.2789
-2664.0036
-3205.3888
-3205.2807
-3198.4353
-3187.4484
-3173.3341
-3160.5813
-3148.7455
-3158.2122
-3158.8143
-3131.41
-3183.031
-3181.9065
-3167.1522
-3150.189
-3133.2739
-3124.283
-3105.9904
-3113.2075
-3100.0759
-3046.5498
-3137.8416
-3135.1796
-3126.5764
-3117.8806
-3109.0871
-3112.0993
-3101.0037
-3098.9711
-3085.5699
-3048.708
-3078.1496
-3076.715
-3072.1695
-3066.2521
-3057.7466
-3058.1466
-3057.8123
-3057.1421
-3055.6636
-3059.4005
-3030.1688
-3029.3765
-3023.6157
-3013.4545
-2998.1995
-2968.6372
-2990.8012
-3003.102
-3009.7477
-3023.0965
-3013.4125
-3015.1066
-3018.3584
-3021.7455
-3032.6622
-3008.5362
-3008.2143
-3004.5871
-2989.6689
-2966.6809
-3027.9229
-3029.5537
-3035.6395
-3044.3359
-3068.386
-3076.1024
-3056.7212
-3030.7038
-3000.8669
-2965.463
-3848.4524
-3860.7648
-3831.726
-3787.3164
-3749.7565
-3717.6914
-3696.1881
-3682.4619
-3673.522
-3675.2641
-2986.9812
-2985.7891
-2977.9082
-2960.9531
-2921.5849
-2946.9458
-2958.9506
-2961.1433
-2950.6575
-2923.5505
-3009.2479
-3012.3243
-3018.6876
-3037.9309
-3013.9708
-3005.2504
-3001.2987
-2993.8832
-2979.8931
-2964.7514
-3048.5065
-3050.9591
-3056.137
-3080.7262
-3093.4959
-3069.4237
-3042.6917
-3022.4071
-3003.5383
-2987.0525
-2999.6594
-2995.8307
-2976.9418
-2951.6609
-2974.5979
-2992.0789
-3003.3179
-3010.7378
-3013.0008
-3020.0183
-3033.265
-3035.7254
-3034.8618
-2997.9707
-3007.104
-3020.7168
-3031.517
-3038.75
-3041.7994
-3051.3641
-3156.8899
-3164.6839
-3188.9172
-3187.4464
-3159.5467
-3131.7556
-3111.0621
-3095.6693
-3080.2518
-3063.019
-3141.9777
-3137.143
-3129.6593
-3149.8304
-3150.4243
-3144.6316
-3138.4091
-3132.974
-3126.976
-3128.8783
-3162.7552
-3162.0345
-3137.7501
-3147.9042
-3159.3499
-3167.486
-3171.9061
-3173.7099
-3173.0004
-3177.7018
-3277.1159
-3289.5192
-3285.4685
-3271.1272
-3255.8054
-3243.7646
-3235.0331
-3229.2394
-3222.4241
-3213.8637
-3282.4885
-3286.5601
-3294.0147
-3285.9368
-3276.2937
-3270.7936
-3270.5585
-3274.9996
-3280.0403
-3292.3428
-3186.3245
-3172.2145
-3189.551
-3215.4278
-3244.9012
-3273.5982
-3300.572
-3325.1449
-3345.2977
-3370.2629
-3326.0527
-3302.4336
-3312.041
-3332.3487
-3359.1121
-3384.36
-3406.8255
-3425.2568
-3437.7752
-3453.49
-3701.6745
-3692.6551
-3661.9563
-3627.8853
-3602.8064
-3583.3212
-3571.2311
-3564.0732
-3557.9582
-3555.0921
-3016.6784
-3015.1528
-3009.7378
-2998.1195
-2992.6335
-2999.8924
-2999.5295
-2994.1789
-2984.9467
-2983.9229
-3540.5381
-3549.1349
-3563.5692
-3610.853
-3667.0286
-3718.8601
-3739.9424
-3721.8034
-3638.1027
-3466.2532
-3268.7585
-3268.9933
-3271.9427
-3276.8108
-3277.9216
-3277.0255
-3275.0642
-3269.9195
-3265.7619
-3219.2847
-3179.526
-3227.5522
-3289.6666
-3394.3697
-3505.695
-3592.5207
-3635.0764
-3595.2071
-3447.0639
-3214.6351
-3480.2768
-3490.3204
-3511.2511
-3547.9503
-3581.5987
-3610.2582
-3618.8293
-3618.3245
-3582.5465
-3470.1574
-3367.3452
-3371.7352
-3385.9147
-3409.8729
-3430.8338
-3448.4898
-3456.6154
-3446.1965
-3433.5788
-3381.8273
11318.722
10715.547
10129.575
9489.9396
8832.8464
8179.5394
7545.1807
6936.7841
6347.3444
5770.3045
8301.8487
8224.5318
8101.2599
7839.6078
7501.7195
7111.2852
6689.6069
6254.5665
5816.3993
5360.0014
-3709.5004
-3727.936
-3745.3438
-3751.3101
-3759.9988
-3763.2631
-3768.0586
-3771.4944
-3772.8196
-3776.3112
-3705.8516
-3709.7028
-3745.0491
-3776.2798
-3815.3388
-3842.5105
-3866.4368
-3882.4668
-3891.1143
-3895.3022
-3946.5151
-3939.2797
-3955.5085
-3963.0856
-3991.4655
-4009.8452
-4029.6722
-4042.6484
-4048.0678
-4043.6178
-4222.4228
-4212.0678
-4226.3367
-4216.9231
-4232.9943
-4234.8762
-4241.3988
-4242.4474
-4238.8754
-4234.5143
-4544.8763
-4526.7366
-4538.4817
-4511.4466
-4515.2324
-4497.3855
-4484.9274
-4464.9003
-4437.2329
-4404.8722
-4901.1051
-4873.8829
-4883.4899
-4837.0687
-4828.6367
-4790.1478
-4757.3169
-4713.8948
-4659.2252
-4599.0142
-5281.8491
-5243.3988
-5252.0389
-5185.2216
-5165.6714
-5107.5827
-5056.1873
-4992.7183
-4916.463
-4831.151
-5682.8597
-5630.7846
-5639.6094
-5550.5882
-5519.7714
-5441.5433
-5370.877
-5288.4422
-5198.4682
-5115.9178
-6105.0436
-6035.921
-6045.7701
-5931.7758
-5888.3052
-5787.8963
-5693.5288
-5583.5004
-5458.1872
-5322.5867
-6548.4998
-6458.412
-6470.8428
-6329.1978
-6271.9436
-6149.0589
-6030.8959
-5896.7838
-5747.1777
-5585.4184
-7019.3409
-6902.2099
-6917.9739
-6744.4912
-6670.3449
-6522.7541
-6376.8527
-6214.6278
-6036.1364
-5850.2658
-7516.4397
-7366.2084
-7388.3258
-7179.8864
-7085.7234
-6911.6629
-6733.868
-6537.7856
-6319.1644
-6081.8843
-8058.1142