/*--------------------------------*- C++ -*----------------------------------*\
| =========                 |                                                 |
| \\      /  F ield         | foam-extend: Open Source CFD                    |
|  \\    /   O peration     | Version:     4.1                                |
|   \\  /    A nd           | Web:         http://www.foam-extend.org         |
|    \\/     M anipulation  |                                                 |
\*---------------------------------------------------------------------------*/
FoamFile
{
    version     2.0;
    format      ascii;
    class       volScalarField;
    location    "2.85";
    object      p;
}
// * * * * * * * * * * * * * * * * * * * * * * * * * * * * * * * * * * * * * //

dimensions      [0 2 -2 0 0 0 0];

internalField   nonuniform List<scalar> 
4393
(
-46.418267
-92.981793
-146.74657
-201.53764
-258.52841
-318.02958
-380.42408
-446.02149
-515.04604
-587.60789
-663.67501
-743.04496
-825.31965
-909.88649
-995.91023
-1082.3383
-1167.9202
-1251.2385
-1330.7462
-1404.8059
-1471.7264
-1529.7972
-1577.3237
-1612.6682
-1634.3031
-1640.8853
-1631.3604
-1605.1086
-1562.023
-1502.6038
-1428.0623
-1340.304
-1241.8232
-1135.5205
-1024.4765
-911.72577
-800.06781
-691.93524
-589.32518
-493.78583
-406.4446
-328.06258
-259.10031
-199.78365
-150.17394
-110.24022
-79.763135
-57.832191
-43.627895
-45.166103
-92.395972
-146.03399
-200.67382
-257.49547
-316.84186
-379.10952
-444.62011
-513.60973
-586.20057
-662.3722
-741.93228
-824.48974
-909.43448
-995.92805
-1082.9089
-1169.1128
-1253.1059
-1333.3244
-1408.1149
-1475.7716
-1534.5694
-1582.7972
-1618.7953
-1641.0074
-1648.0567
-1638.8538
-1612.7036
-1569.436
-1509.544
-1434.2447
-1345.4784
-1245.8053
-1138.2116
-1025.8678
-911.88866
-799.13358
-690.0719
-586.71517
-490.60819
-402.86272
-324.21726
-255.10973
-195.75315
-146.20039
-106.36011
-75.961476
-54.862541
-44.26437
-44.361864
-91.499219
-144.77571
-199.05476
-255.52559
-314.56073
-376.57886
-441.9239
-510.85507
-583.51827
-659.91592
-739.87528
-823.01865
-908.73976
-996.19223
-1084.2946
-1171.7531
-1257.0995
-1338.7352
-1414.9749
-1484.0842
-1544.31
-1593.909
-1631.1784
-1654.5011
-1662.4207
-1653.7589
-1627.7379
-1584.0955
-1523.2531
-1446.422
-1355.6118
-1253.5192
-1143.309
-1028.3379
-911.88372
-796.92614
-686.00485
-581.15551
-483.91038
-395.3436
-316.14204
-246.68978
-187.15618
-137.55065
-97.687821
-67.257713
-46.702788
-37.92026
-43.571145
-90.203474
-142.87199
-196.57253
-252.49933
-311.05355
-372.68269
-437.76263
-506.58741
-579.33942
-656.05691
-736.59856
-820.60878
-907.48882
-996.38113
-1086.1739
-1175.5278
-1262.9212
-1346.7024
-1425.1386
-1496.4544
-1558.8582
-1610.5621
-1649.8027
-1674.8748
-1684.1994
-1676.4522
-1650.7041
-1606.5448
-1544.2893
-1465.1354
-1371.1991
-1265.3938
-1151.1694
-1032.1786
-911.95592
-793.66699
-679.95734
-572.89535
-473.98947
-384.25261
-304.29089
-234.4046
-174.6879
-125.07512
-85.291289
-55.022102
-34.934152
-26.790028
-42.74601
-88.586053
-140.4016
-193.29783
-248.4766
-306.36992
-367.46077
-432.16652
-500.82783
-573.67698
-650.80202
-732.10619
-817.26618
-905.69522
-996.52105
-1088.5889
-1180.4945
-1270.6403
-1357.3005
-1438.679
-1512.9481
-1578.27
-1632.8043
-1674.713
-1702.1781
-1713.4588
-1707.029
-1681.7389
-1636.9528
-1572.8176
-1490.4975
-1392.2536
-1281.3116
-1161.5347
-1037.0026
-911.61319
-788.78886
-671.31362
-561.29013
-460.18289
-368.91149
-287.96533
-217.52571
-157.57755
-107.95355
-68.296496
-38.299644
-18.683285
-10.926876
-41.737433
-86.536865
-137.25304
-189.11396
-243.33035
-300.36939
-360.75683
-424.96185
-493.38469
-566.32279
-643.93056
-726.17214
-812.77005
-903.15667
-996.44204
-1091.414
-1186.5792
-1280.2366
-1370.5624
-1455.6796
-1533.7002
-1602.7367
-1660.8934
-1706.2491
-1736.85
-1750.7504
-1746.1564
-1721.615
-1676.1689
-1609.7097
-1523.3301
-1419.4772
-1301.8087
-1174.7658
-1043.0177
-910.95454
-782.33308
-660.10535
-546.39994
-442.60509
-349.50297
-267.41952
-196.37215
-136.19498
-86.58661
-47.090336
-17.368587
1.8954635
9.4342858
-40.595503
-84.127149
-133.49115
-184.07004
-237.08788
-293.05296
-352.54155
-416.08541
-484.15852
-557.14063
-635.27202
-718.59798
-806.90486
-899.65512
-995.93934
-1094.4703
-1193.6349
-1291.5938
-1386.3952
-1476.0638
-1558.6461
-1632.2097
-1694.8101
-1744.4434
-1779.0048
-1796.3011
-1794.1936
-1770.8249
-1724.7863
-1655.586
-1564.1761
-1453.232
-1326.9987
-1190.7118
-1049.8412
-909.42583
-773.64336
-645.6365
-527.537
-420.60859
-325.43841
-242.13245
-170.49405
-110.16484
-60.679709
-21.460579
7.9042289
26.823795
34.191059
-39.186001
-81.205529
-128.95641
-178.00156
-229.57698
-284.23727
-342.61683
-405.32125
-472.91363
-545.87563
-624.55652
-709.10797
-799.40436
-894.95473
-994.83025
-1097.6466
-1201.6304
-1304.7571
-1404.9086
-1499.9922
-1587.9888
-1666.9347
-1734.8566
-1789.6811
-1829.1466
-1850.7724
-1851.9887
-1830.4102
-1784.0053
-1711.7091
-1614.2141
-1494.4632
-1357.4973
-1209.643
-1057.4493
-906.79871
-762.38302
-627.54411
-504.37039
-393.92792
-296.5302
-211.99137
-139.8407
-79.48124
-30.253057
8.5657836
37.490284
56.04392
63.248676
-37.653442
-77.930917
-123.79684
-171.03281
-220.89018
-273.97546
-330.98869
-392.62102
-459.54157
-532.35643
-611.55184
-697.41812
-789.95092
-888.73165
-992.81676
-1100.6981
-1210.3872
-1319.6101
-1426.0327
-1527.4228
-1621.7032
-1706.907
-1781.0685
-1842.0769
-1887.5229
-1914.6049
-1920.2263
-1901.3232
-1855.0119
-1779.376
-1674.6454
-1544.0579
-1393.7393
-1231.5241
-1065.4179
-902.39112
-747.74693
-605.01069
-476.14639
-361.91647
-262.25644
-176.59929
-104.13031
-43.963082
4.7914727
43.023799
71.374908
89.494234
96.517046
-35.748808
-74.004808
-117.69204
-162.83149
-210.6818
-261.90418
-317.27068
-377.56955
-443.59402
-516.10027
-595.74466
-682.99654
-778.01775
-880.50091
-989.49981
-1103.3488
-1219.7669
-1336.1395
-1449.8469
-1558.492
-1659.9568
-1752.3184
-1833.6802
-1901.9526
-1954.6111
-1988.5128
-1999.9352
-1984.9552
-1939.5402
-1860.5125
-1747.2973
-1603.4218
-1436.5074
-1256.5008
-1073.3828
-895.5187
-728.91345
-577.21771
-442.13778
-323.98085
-222.16717
-135.6394
-63.159427
-3.4979415
44.496672
81.904503
109.50761
127.08902
133.89273
-33.798628
-69.806222
-111.02786
-153.76788
-199.29477
-248.32727
-301.71447
-360.35243
-425.1773
-497.12399
-577.05813
-665.67847
-763.37403
-870.00843
-984.66004
-1105.466
-1229.7461
-1354.4135
-1476.4672
-1593.3171
-1702.84
-1803.2311
-1892.7561
-1969.4399
-2030.7075
-2073.0754
-2092.1037
-2082.7928
-2039.5856
-1957.4486
-1834.4241
-1674.2473
-1486.6342
-1284.5442
-1080.6574
-885.11598
-704.69056
-543.02737
-401.36496
-279.34212
-175.68578
-88.716464
-16.68373
42.039587
88.89858
125.1789
151.81139
168.7173
175.25006
-31.322723
-64.748337
-103.16394
-143.16706
-186.01788
-232.4904
-283.51339
-340.10037
-403.35017
-474.40901
-554.3985
-644.30955
-744.84083
-856.11839
-977.29898
-1106.2776
-1239.8195
-1374.1693
-1505.8013
-1631.8963
-1750.3824
-1859.68
-1958.3489
-2044.6712
-2116.1355
-2168.9572
-2197.9198
-2196.6907
-2157.7325
-2073.3254
-1939.1482
-1758.8895
-1545.255
-1315.6016
-1086.3276
-869.81846
-673.60676
-501.08686
-352.70778
-227.14587
-122.20848
-35.439657
35.518407
92.743071
137.9975
172.78094
198.17315
214.23514
220.43267
-28.935347
-59.575
-94.898044
-131.84684
-171.6752
-215.21016
-263.45965
-317.56065
-378.79198
-448.54472
-528.24814
-619.25838
-722.68931
-839.06415
-967.71661
-1106.2531
-1250.6594
-1396.2152
-1538.6634
-1674.9218
-1803.0777
-1921.9451
-2030.5692
-2127.6997
-2211.0799
-2276.7104
-2318.5365
-2328.6704
-2297.0936
-2212.1921
-2065.6519
-1860.4852
-1613.7493
-1349.4069
-1089.0111
-847.73834
-633.73464
-449.70506
-294.82722
-166.41689
-61.081369
24.586058
93.645882
148.66941
191.75114
224.6007
248.43747
263.45913
269.24631
-25.83418
-53.293401
-85.133302
-118.63354
-155.00881
-195.12759
-240.07108
-291.10184
-349.69459
-417.52231
-496.38337
-588.08826
-694.30515
-816.16055
-953.35328
-1103.1785
-1260.5218
-1419.247
-1574.0531
-1721.5572
-1860.1744
-1989.3361
-2108.7968
-2218.0398
-2315.346
-2396.6699
-2455.0969
-2481.0199
-2461.4975
-2379.4189
-2219.7581
-1983.4124
-1693.8847
-1385.4099
-1086.7045
-816.33249
-582.61605
-386.83327
-226.18355
-96.095746
8.3587267
91.72279
157.84479
209.81621
250.05846
280.47315
302.39862
316.15969
321.45249
-22.988269
-47.105598
-75.194224
-104.93104
-137.49254
-173.77997
-214.93905
-262.35445
-317.70624
-382.98364
-460.41845
-552.36992
-661.22069
-788.98777
-936.05517
-1099.424
-1272.386
-1446.6587
-1615.3975
-1774.8819
-1924.1579
-2063.6284
-2194.0745
-2316.1132
-2429.0546
-2529.1506
-2608.6684
-2656.1732
-2655.5153
-2582.0934
-2409.6775
-2133.891
-1787.8782
-1422.5328
-1076.4502
-772.13831
-517.10638
-310.00225
-145.0327
-15.064487
86.749019
166.26573
228.18008
276.1001
312.744
340.16733
359.79292
372.0553
376.76314
-19.234
-39.566119
-63.483962
-89.028647
-117.28549
-149.16094
-185.84176
-228.81601
-279.96329
-341.61484
-416.50478
-507.64519
-618.31812
-751.84269
-909.86966
-1089.2873
-1281.105
-1473.7724
-1658.1737
-1830.2915
-1990.3737
-2140.3274
-2282.2796
-2418.3711
-2549.5396
-2672.7614
-2779.4821
-2856.4146
-2884.4361
-2829.5602
-2647.246
-2321.087
-1898.5225
-1458.8317
-1053.8856
-710.4579
-433.22523
-216.29687
-49.466843
77.78975
174.63829
248.39184
304.59749
347.33029
379.54042
403.37521
420.29179
430.80765
434.83671
-15.909557
-32.367237
-51.889433
-72.946133
-96.52807
-123.52995
-155.16109
-192.99615
-239.10671
-296.19273
-367.57382
-457.0299
-568.92156
-708.39571
-879.33998
-1079.0095
-1295.0588
-1510.7434
-1713.4125
-1898.7623
-2069.1469
-2228.6984
-2381.1215
-2530.4772
-2680.3855
-2829.6037
-2969.1765
-3084.3379
-3154.0988
-3134.011
-2949.9599
-2559.1606
-2029.2976
-1490.9054
-1012.5344
-624.9245
-325.99148
-102.36327
62.502684
183.47671
272.4019
338.09612
386.8798
423.18048
450.07149
469.70197
483.49642
492.01888
495.27616
-11.483931
-23.591257
-38.294687
-54.438652
-72.848113
-94.363206
-120.16994
-151.8751
-191.68062
-242.61935
-308.63673
-394.36242
-505.33289
-649.10784
-833.41816
-1057.1179
-1303.0123
-1546.0296
-1768.1206
-1964.9806
-2142.974
-2309.8845
-2471.3078
-2633.6116
-2804.7352
-2986.7699
-3170.3478
-3338.4981
-3469.9065
-3511.2589
-3344.1366
-2870.7982
-2184.1431
-1512.8699
-942.745
-506.96163
-189.29457
35.498722
192.78364
302.75068
380.1258
435.11305
474.59776
503.16019
523.83648
538.65839
548.93488
555.231
557.62931
-7.5459527
-15.399261
-25.214362
-36.272629
-49.208298
-64.768095
-84.068953
-108.69887
-140.93289
-184.11075
-242.90318
-322.9823
-431.14892
-577.96538
-777.58698
-1033.2895
-1320.8799
-1601.2872
-1847.8976
-2056.6835
-2241.3069
-2415.234
-2585.4239
-2759.5247
-2951.4773
-3168.7936
-3401.8412
-3630.6651
-3839.9339
-3979.4504
-3868.0218
-3294.1301
-2367.8697
-1515.4534
-830.29324
-345.1596
-15.87192
201.09523
342.92651
435.89044
497.45831
538.82674
567.05998
586.58923
600.19892
609.65741
616.06269
619.92854
621.39213
-2.4940604
-5.6554198
-10.105315
-15.573851
-22.445019
-31.342419
-43.273891
-59.749409
-83.013018
-116.5675
-165.75607
-237.3641
-339.18018
-484.64141
-697.71873
-992.03918
-1333.767
-1659.6111
-1930.1027
-2142.1463
-2323.1196
-2495.6056
-2666.7927
-2843.172
-3048.9946
-3303.1737
-3599.0874
-3914.1974
-4241.4069
-4553.2174
-4583.0233
-3903.4783
-2589.3111
-1483.2202
-653.43081
-124.34823
202.50746
397.84725
513.68358
582.39895
623.43334
648.17742
663.26862
672.58008
678.38246
682.01647
684.26805
685.54489
686.01544
2.9587851
3.9729764
4.5462382
4.3727388
3.3872921
1.1546312
-3.1202038
-10.724076
-23.65234
-45.261154
-81.374314
-140.13075
-230.27319
-367.38814
-589.87739
-934.91018
-1357.8534
-1750.693
-2054.8897
-2266.9248
-2439.8804
-2611.5587
-2788.5985
-2969.4136
-3193.926
-3500.0125
-3883.2971
-4313.092
-4763.9032
-5291.52
-5573.8101
-4825.3576
-2837.3018
-1376.2418
-376.92565
174.90857
474.14925
627.83454
704.3402
740.62141
756.28046
761.57931
761.89131
760.0344
757.47749
754.96741
752.8824
751.47269
750.91516
8.2851101
13.265313
19.32351
25.157949
31.020625
36.677847
41.595099
44.763081
44.510435
37.799881
18.452205
-23.539032
-98.146554
-220.10616
-443.94167
-853.46389
-1397.2817
-1876.4145
-2210.7427
-2392.8792
-2530.4283
-2685.6833
-2862.7825
-3027.8149
-3238.64
-3573.5315
-4023.7138
-4561.7459
-5089.7117
-5960.3608
-6823.718
-6299.5144
-3074.0128
-1170.9514
36.506845
572.65506
805.01219
890.17378
911.79924
907.31736
893.25938
876.87549
861.2639
847.66133
836.4619
827.67561
821.19693
817.07834
815.48603
17.84114
25.8597
36.761734
47.719738
59.416621
71.801363
84.63153
97.258486
108.52233
116.23585
114.9666
93.715518
41.620215
-49.538062
-244.67506
-715.15092
-1441.8797
-2033.6096
-2413.3727
-2545.712
-2643.018
-2787.1989
-2982.1459
-3113.6797
-3276.6774
-3677.6987
-4224.3713
-4961.7032
-5679.3055
-7242.8539
-8882.0925
-9068.3526
-3578.1297
-1038.2193
635.19337
1099.0923
1197.3511
1178.9796
1129.5276
1077.2887
1030.5877
991.36676
959.44135
934.02452
914.23872
899.26877
888.48495
881.72043
879.11846
22.150581
30.895242
46.136742
62.238225
80.171542
100.10828
122.29213
146.74785
173.26293
201.23853
227.41515
240.71472
225.96342
180.34584
45.409083
-483.28392
-1555.1584
-2311.4989
-2773.6621
-2771.0087
-2749.6655
-2813.1449
-3022.6408
-3099.9056
-3207.1637
-3763.2633
-4232.9946
-5185.2219
-6470.8431
-7863.4476
-9589.144
-12103.54
-4823.2656
-72.514844
1722.8309
1811.9829
1641.1423
1478.7603
1346.2297
1243.2036
1163.5573
1101.9567
1054.3115
1017.6219
989.69053
968.87458
954.02898
944.77078
941.21749
36.93709
46.533243
66.460105
87.314012
110.74807
137.07741
166.90659
200.72085
238.86212
281.66271
327.57469
365.35509
371.82673
347.26655
293.74206
-191.10906
-1818.0779
-2617.1347
-3115.4959
-2772.7576
-2626.8081
-2732.5427
-3131.7557
-3271.1275
-3302.4339
0
0
0
0
0
0
0
0
6202.3753
3402.4563
2582.4956
2068.2387
1755.8596
1545.1254
1396.0885
1287.0016
1205.4551
1143.7779
1096.9952
1061.747
1035.6642
1017.1506
1005.637
1001.2226
35.366748
42.182741
64.028411
87.075076
113.2049
142.73971
176.57928
215.67658
261.07479
314.42462
377.59024
445.98942
502.79975
560.82608
710.68129
552.80485
-1996.7849
-2776.9622
-3646.9051
-2968.6373
-3044.336
-3012.3244
0
0
0
0
0
0
0
0
0
0
10129.575
6286.2538
4123.9549
3000.3244
2361.313
1969.1782
1709.0494
1527.5633
1396.286
1299.0429
1225.9925
1170.8555
1129.4571
1098.8968
1077.2398
1063.7841
1058.6266
44.2638
54.950258
80.950046
106.97759
136.15439
169.03601
206.8757
251.10418
303.50615
367.08043
447.11664
546.0886
653.2889
754.3915
842.19634
568.47376
-3108.2253
-3581.5984
-3205.2806
0
0
0
0
0
0
0
0
0
0
0
1780.6718
3364.5944
5756.1165
5236.0897
3961.3825
3100.1685
2507.1431
2107.7402
1830.6544
1632.9922
1488.4299
1380.731
1299.5698
1238.1937
1192.0515
1157.9577
1133.7808
1118.7537
1112.9926
22.191615
42.166326
66.370999
91.284901
118.75237
149.54724
184.74322
225.50531
273.13243
329.82981
399.49994
478.02731
537.53033
536.24798
558.10766
702.3877
0
0
0
0
0
0
-1132.0674
-1103.5231
-1011.3054
-917.55609
-790.08498
-495.29885
-94.947271
697.08388
2026.4398
3361.9106
4750.9874
4489.8577
3714.8022
3058.6867
2552.6656
2182.2204
1911.4457
1711.6616
1562.3548
1449.5322
1363.6925
1298.3451
1248.9835
1212.3855
1186.3706
1170.178
1163.9663
19.953994
50.02217
74.970473
100.5438
127.96157
158.05673
191.47962
228.66488
269.57194
313.41795
357.89973
396.56229
406.14918
338.09226
142.01865
-338.13445
-1284.416
-1227.4742
-1147.1014
-1100.4781
-1051.081
-1021.6124
-1010.3639
-803.28907
-838.68205
-583.18163
-362.34499
-204.61732
259.08283
904.85459
1960.2927
3049.3234
3956.5655
3851.8967
3404.2982
2933.5972
2528.4618
2206.0157
1956.7042
1765.4225
1618.5289
1505.381
1418.1055
1351.0014
1299.9424
1261.8835
1234.7285
1217.7886
1211.284
20.663321
46.485405
72.120249
97.971759
125.28635
154.81509
187.13907
222.62489
261.25904
302.13408
342.03501
373.73567
384.81895
353.15889
205.21655
-227.9213
-792.30425
-920.95852
-962.54781
-966.1506
-887.80264
-842.32004
-818.54928
-691.79995
-620.94359
-417.54027
-179.14327
77.742939
510.88696
1096.4663
1896.1868
2721.5882
3334.8855
3356.8268
3105.6569
2777.1432
2463.3575
2193.8102
1973.5976
1797.6787
1658.5139
1548.9432
1463.0389
1396.1805
1344.8436
1306.3179
1278.6981
1261.4186
1254.7758
14.996582
36.230584
58.796971
81.290991
104.29078
128.03543
152.5304
177.41586
201.78989
223.68908
238.89684
240.18116
218.24914
159.21486
15.0757
-283.91139
-606.90255
-732.46417
-784.51819
-794.28621
-753.12503
-703.47398
-642.23482
-537.762
-423.88629
-238.24308
-11.498534
269.88386
668.60848
1187.7222
1823.2423
2450.8965
2889.5205
2967.0587
2834.9722
2613.0012
2376.1816
2157.6763
1969.1886
1812.3857
1684.4724
1581.3763
1499.0911
1434.1698
1383.8001
1345.704
1318.2395
1300.9996
1294.3628
23.838359
46.444878
70.189852
93.656121
117.54418
141.96093
166.72588
191.21037
214.09565
232.81504
242.68427
236.66995
205.98885
135.39784
-7.2589679
-236.55055
-460.15422
-579.80537
-635.38289
-644.54066
-615.83444
-568.29257
-497.28093
-394.45989
-264.34902
-82.932827
139.16107
416.11351
777.02664
1223.7721
1735.5103
2221.7455
2557.2301
2658.5602
2599.6228
2454.8464
2280.178
2107.1229
1949.7498
1813.4691
1698.7944
1604.111
1527.1063
1465.4577
1417.0852
1380.1847
1353.418
1336.5535
1330.0513
12.024195
29.927688
50.032167
70.035713
90.040977
109.92718
129.38609
147.74683
163.76067
175.18263
178.31561
168.06154
137.63861
74.654504
-40.054848
-203.5073
-358.80677
-456.74713
-506.07874
-514.23339
-488.92993
-440.00549
-365.68916
-262.60079
-128.53848
46.964239
261.85453
525.19101
849.67436
1232.3374
1648.6363
2032.8058
2301.9489
2411.5833
2398.1278
2308.5356
2183.1596
2048.9511
1920.387
1804.4655
1703.8312
1618.6752
1548.0642
1490.6663
1445.0905
1410.0052
1384.387
1368.1816
1361.9234
21.407253
40.632408
60.854068
80.367691
99.453542
117.8434
135.02357
150.10163
161.62887
167.32355
163.94533
147.5485
113.08111
52.27377
-43.556697
-165.61499
-279.00301
-356.12443
-395.68974
-400.45652
-375.18731
-324.72551
-248.67401
-145.28266
-11.774168
156.79247
361.05915
606.02199
895.95181
1224.416
1567.8664
1878.5077
2101.9971
2212.1876
2227.1467
2176.7608
2089.8438
1988.0678
1885.1
1788.3899
1701.7413
1626.5698
1562.991
1510.4911
1468.2868
1435.486
1411.3701
1396.051
1390.125
11.864131
27.968632
45.95972
63.611583
80.82047
97.231871
112.31659
125.22197
134.61703
138.50956
134.22477
118.55903
87.502315
35.679795
-40.002027
-130.43144
-213.52445
-271.8304
-300.84878
-300.62632
-273.46192
-221.63382
-145.0319
-42.511111
87.99422
248.90862
441.01374
666.30047
924.57419
1207.7344
1495.177
1752.1624
1942.6282
2049.764
2082.4754
2059.9383
2002.6783
1927.6337
1846.8495
1767.6917
1694.4094
1629.1884
1572.894
1525.6526
1487.1886
1456.9989
1434.6432
1420.3807
1414.8539
17.140348
33.237296
50.219971
66.364731
81.714269
95.886662
108.32918
118.22205
124.38317
125.18552
118.61218
102.3624
73.691078
29.625565
-29.988641
-97.381852
-158.13615
-200.46182
-219.38466
-213.53424
-183.55764
-130.34314
-53.764296
46.960319
173.10553
325.77661
505.17496
711.24638
941.41833
1187.1582
1431.2314
1648.3114
1813.9322
1916.494
1960.2188
1957.498
1922.9612
1869.6953
1807.8368
1744.3106
1683.4267
1627.7752
1578.7192
1536.8594
1502.3259
1474.944
1454.5176
1441.4279
1436.3465
11.965865
26.365691
42.104157
57.216557
71.535699
84.63368
95.955419
104.72771
109.89834
110.11339
103.80195
89.276633
64.758331
28.907469
-17.01941
-66.703363
-110.24974
-139.22855
-148.99428
-137.55115
-104.54773
-50.079555
26.06795
124.39881
245.54586
389.78546
556.64731
744.78765
950.46871
1165.4734
1375.7035
1562.5376
1708.9274
1806.45
1856.8892
1868.2992
1851.1312
1815.4436
1769.5687
1719.725
1670.0961
1623.407
1581.3251
1544.7832
1514.2211
1489.7316
1471.324
1459.4743
1454.866
13.67251
27.359555
41.87163
55.550711
68.315667
79.771115
89.415361
96.58105
100.40708
99.848879
93.763525
81.007172
60.559614
32.098609
-2.5891533
-38.476288
-68.501374
-86.407371
-88.109784
-71.431076
-35.489491
20.054098
95.479378
191.07377
307.00126
442.97351
597.96299
769.86572
954.48575
1144.3019
1327.897
1491.4046
1622.6062
1715.1567
1769.5578
1791.0638
1787.1666
1765.5773
1733.0734
1695.0581
1655.4636
1616.9946
1581.4711
1550.0423
1523.3735
1501.7675
1485.4002
1474.8152
1470.6914
11.353737
24.027812
37.645084
50.500517
62.432315
73.046714
81.879961
88.351934
91.760607
91.312573
86.206042
75.732739
59.446096
37.651221
12.276276
-12.652096
-31.896563
-40.644845
-35.404832
-14.037676
24.575553
80.988401
155.49848
248.21854
358.97846
487.10018
631.16257
788.66204
955.349
1124.5374
1286.9999
1432.2482
1551.2804
1639.1811
1695.7798
1724.5054
1730.7502
1720.4244
1699.0135
1671.127
1640.3516
1609.2938
1579.8157
1553.1934
1530.248
1511.4415
1497.08
1487.7494
1484.1078
11.407404
23.295975
35.923436
47.754295
58.666127
68.304952
76.268377
82.076636
85.182481
85.010307
81.033218
72.876358
60.489182
44.522227
26.847491
10.72143
0.16276195
-1.0280222
10.105624
35.554087
76.498866
133.57354
207.05505
296.91481
402.74669
523.6091
657.83538
802.75908
954.29715
1106.6006
1252.1845
1382.9755
1492.1646
1575.8548
1633.5315
1667.4214
1681.4225
1680.0722
1667.8004
1648.5065
1625.3923
1600.9186
1576.9179
1554.7271
1535.268
1519.1188
1506.6847
1498.5705
1495.3987
10.343689
21.515189
33.418438
44.560485
54.805599
63.829348
71.285645
76.78693
79.922765
80.301578
77.62059
71.762711
62.951174
52.019684
40.711973
31.705101
28.18236
33.206708
49.281506
78.204555
121.12224
178.66796
251.0726
338.19324
439.45897
553.75812
679.29314
813.38251
952.21541
1090.7115
1222.7515
1342.0032
1443.1852
1523.1436
1581.1973
1618.774
1638.7039
1644.483
1639.6905
1627.6168
1611.0829
1592.3714
1573.2516
1555.0723
1538.8131
1525.1351
1514.5166
1507.5612
1504.8395
9.9405981
20.476337
31.670265
42.129956
51.739993
60.213218
67.259619
72.575078
75.865176
76.886658
75.510382
71.807507
66.178398
59.538388
53.481745
50.250296
52.432103
62.544314
82.715458
114.54314
159.08965
216.94404
288.27813
372.85683
469.99605
578.48217
696.46771
821.34176
949.60214
1076.8386
1197.9927
1307.9984
1402.6585
1479.3701
1537.3816
1577.5853
1602.0459
1613.4718
1614.7643
1608.7018
1597.7598
1584.0285
1569.1944
1554.5867
1541.2125
1529.7898
1520.8527
1514.9874
1512.6936
9.3564801
19.364661
30.008277
39.956272
49.101796
57.191769
63.988182
69.261405
72.815872
74.529226
74.40797
72.661221
69.801788
66.769907
65.018293
66.459882
73.249822
87.495835
111.02143
145.23595
191.09846
249.13294
319.44853
401.73659
495.23706
598.68208
710.22645
827.3731
946.92378
1065.032
1177.4572
1280.0605
1369.4253
1443.3601
1501.0942
1543.1583
1571.0668
1586.9347
1593.1295
1592.007
1585.7418
1576.2385
1565.0921
1553.5961
1542.7637
1533.3525
1525.9437
1521.0961
1519.2106
8.9349176
18.485914
28.650036
38.160409
46.922759
54.715587
61.346455
66.648452
70.506238
72.892212
73.915169
73.88179
73.373031
73.323853
75.062355
80.252348
90.73023
108.29478
134.52492
170.6636
217.56533
275.68329
345.06671
425.34907
515.72091
614.89172
721.04866
831.82331
944.29378
1055.0746
1160.5506
1257.2641
1342.3651
1413.9708
1471.3165
1514.6886
1545.2059
1564.5398
1574.6428
1577.5292
1575.1202
1569.1528
1561.1299
1552.3027
1543.6753
1536.0298
1529.9957
1526.1076
1524.6263
8.5490825
17.743415
27.539635
36.720549
45.201064
52.788027
59.328685
64.708602
68.877022
71.879905
73.902209
75.318371
76.748851
79.109844
83.62584
91.773247
105.15354
125.33339
153.69951
191.35486
239.05869
297.19706
365.76616
444.35498
532.12324
627.77712
729.54969
835.19749
942.03527
1047.0435
1147.0792
1239.1827
1320.9148
1390.6226
1447.5583
1491.8427
1524.312
1546.3087
1559.4682
1565.5346
1566.2223
1563.1246
1557.6593
1551.0354
1544.239
1538.0666
1533.2131
1530.2281
1529.1733
8.1797892
17.102056
26.616335
35.549318
43.821613
51.264782
57.758849
63.231053
67.68031
71.207533
74.052627
76.635879
79.59956
83.837603
90.492612
100.90261
116.4982
138.67476
168.67235
207.48204
255.78287
313.90309
381.79486
459.01401
544.70182
637.57107
735.90257
837.56223
940.05601
1040.6446
1136.5326
1225.1189
1304.2584
1372.4661
1429.014
1473.9122
1507.7984
1531.7774
1547.2491
1555.7521
1558.8388
1557.9876
1554.5459
1549.689
1544.3862
1539.4368
1535.617
1533.5684
1533.0778
7.80746
16.603234
25.940234
34.712415
42.84691
50.199253
56.676484
62.237912
66.919189
70.860736
74.340537
77.808691
81.918391
87.542539
95.76189
107.81629
125.01765
148.64097
179.8204
219.4636
268.18776
326.27588
393.64658
469.8323
553.96408
644.76493
740.55743
839.29439
938.62566
1036.0148
1128.9111
1214.9614
1292.223
1359.3288
1415.5685
1460.8801
1495.767
1521.169
1538.3194
1548.6079
1553.4682
1554.292
1552.3723
1548.859
1544.7055
1540.6823
1537.6141
1536.3937
1536.6789
7.3041551
16.167667
25.424132
34.111335
42.165125
49.46549
55.940253
61.570895
66.417171
70.644545
74.55433
78.613703
83.480091
90.010659
99.246262
112.36677
130.61055
155.17393
187.12082
227.30339
276.29705
334.35394
401.37017
476.8633
559.95902
649.38927
743.50677
840.32387
937.58591
1032.8878
1123.8346
1208.2293
1284.2564
1350.6235
1406.6335
1452.1815
1487.6871
1513.9862
1532.2049
1543.6368
1549.6372
1551.5383
1550.5927
1547.9361
1544.5156
1541.0472
1538.3507
1537.92
1540.1132
6.0814548
15.83545
25.143131
33.822747
41.845851
49.124462
55.600622
61.26801
66.19869
70.570649
74.696951
79.053522
84.300658
91.290356
101.04825
114.71807
133.4905
158.525
190.85557
231.30748
280.43525
338.47537
405.31246
480.45651
563.03068
651.77175
745.04814
840.90278
937.12932
1031.3885
1121.3625
1204.9313
1280.3424
1346.3407
1402.2365
1447.9045
1483.7239
1510.4799
1529.2466
1541.2704
1547.8635
1550.3272
1549.9022
1547.7275
1544.7605
1541.6761
1539.2604
1539.7834
1545.6256
-2227.7579
-2483.6245
-2699.5386
-2881.4834
-3023.9672
-3106.2144
-3108.2253
-3029.2211
-2857.2784
-2664.0031
-3205.3887
-3205.2806
-3198.4352
-3187.4482
-3173.3339
-3160.5811
-3148.7453
-3158.212
-3158.8142
-3131.4098
-3183.031
-3181.9065
-3167.1522
-3150.1889
-3133.2738
-3124.283
-3105.9904
-3113.2074
-3100.0758
-3046.5497
-3137.8416
-3135.1795
-3126.5764
-3117.8806
-3109.0871
-3112.0993
-3101.0037
-3098.971
-3085.5698
-3048.7079
-3078.1495
-3076.7149
-3072.1694
-3066.252
-3057.7465
-3058.1465
-3057.8122
-3057.1421
-3055.6636
-3059.4004
-3030.1689
-3029.3765
-3023.6157
-3013.4545
-2998.1997
-2968.6373
-2990.8013
-3003.1021
-3009.7478
-3023.0966
-3013.4127
-3015.1068
-3018.3585
-3021.7457
-3032.6624
-3008.5365
-3008.2145
-3004.5872
-2989.669
-2966.6809
-3027.923
-3029.5538
-3035.6396
-3044.336
-3068.386
-3076.1025
-3056.7213
-3030.7038
-3000.8669
-2965.463
-3848.4526
-3860.765
-3831.7262
-3787.3166
-3749.7568
-3717.6916
-3696.1883
-3682.4621
-3673.5222
-3675.2643
-2986.9813
-2985.7891
-2977.9082
-2960.9532
-2921.5849
-2946.9459
-2958.9507
-2961.1434
-2950.6575
-2923.5506
-3009.248
-3012.3244
-3018.6877
-3037.9311
-3013.971
-3005.2505
-3001.2988
-2993.8833
-2979.8931
-2964.7514
-3048.5065
-3050.9591
-3056.137
-3080.7262
-3093.4959
-3069.4237
-3042.6917
-3022.4071
-3003.5383
-2987.0526
-2999.6593
-2995.8306
-2976.9417
-2951.6608
-2974.5978
-2992.0788
-3003.3179
-3010.7378
-3013.0009
-3020.0183
-3033.265
-3035.7254
-3034.8618
-2997.9706
-3007.104
-3020.7168
-3031.517
-3038.7501
-3041.7995
-3051.3642
-3156.89
-3164.6841
-3188.9174
-3187.4465
-3159.5468
-3131.7557
-3111.0622
-3095.6694
-3080.2519
-3063.0191
-3141.9779
-3137.1432
-3129.6596
-3149.8307
-3150.4245
-3144.6318
-3138.4093
-3132.9742
-3126.9762
-3128.8785
-3162.7555
-3162.0349
-3137.7504
-3147.9045
-3159.3502
-3167.4862
-3171.9063
-3173.7101
-3173.0006
-3177.702
-3277.1162
-3289.5195
-3285.4687
-3271.1275
-3255.8057
-3243.7649
-3235.0333
-3229.2397
-3222.4243
-3213.8639
-3282.4887
-3286.5602
-3294.0148
-3285.9369
-3276.2939
-3270.7938
-3270.5587
-3274.9999
-3280.0405
-3292.343
-3186.3248
-3172.2147
-3189.5512
-3215.4281
-3244.9014
-3273.5984
-3300.5723
-3325.1451
-3345.2979
-3370.2631
-3326.0531
-3302.4339
-3312.0414
-3332.349
-3359.1124
-3384.3603
-3406.8258
-3425.257
-3437.7755
-3453.4903
-3701.6748
-3692.6554
-3661.9567
-3627.8856
-3602.8067
-3583.3215
-3571.2314
-3564.0734
-3557.9584
-3555.0924
-3016.6784
-3015.1528
-3009.7378
-2998.1195
-2992.6335
-2999.8923
-2999.5295
-2994.1789
-2984.9467
-2983.923
-3540.5378
-3549.1347
-3563.5689
-3610.8527
-3667.0283
-3718.8599
-3739.9421
-3721.8031
-3638.1024
-3466.2529
-3268.7582
-3268.993
-3271.9425
-3276.8106
-3277.9213
-3277.0252
-3275.0639
-3269.9193
-3265.7616
-3219.2845
-3179.5257
-3227.5518
-3289.6662
-3394.3693
-3505.6947
-3592.5204
-3635.0761
-3595.2068
-3447.0635
-3214.6347
-3480.2766
-3490.3201
-3511.2508
-3547.9501
-3581.5984
-3610.258
-3618.8291
-3618.3243
-3582.5462
-3470.1571
-3367.3449
-3371.7349
-3385.9144
-3409.8726
-3430.8335
-3448.4895
-3456.6151
-3446.1962
-3433.5785
-3381.827
11318.722
10715.547
10129.575
9489.9393
8832.8461
8179.5391
7545.1804
6936.7838
6347.3441
5770.3042
8301.8484
8224.5315
8101.2596
7839.6075
7501.7192
7111.2849
6689.6066
6254.5662
5816.399
5360.0011
-3709.5005
-3727.9361
-3745.3439
-3751.3103
-3759.999
-3763.2633
-3768.0588
-3771.4946
-3772.8198
-3776.3115
-3705.8518
-3709.703
-3745.0493
-3776.28
-3815.339
-3842.5107
-3866.4371
-3882.4671
-3891.1146
-3895.3024
-3946.5154
-3939.2799
-3955.5088
-3963.0858
-3991.4658
-4009.8455
-4029.6724
-4042.6487
-4048.068
-4043.6181
-4222.4231
-4212.0681
-4226.337
-4216.9234
-4232.9946
-4234.8764
-4241.3991
-4242.4477
-4238.8757
-4234.5146
-4544.8766
-4526.7369
-4538.482
-4511.4469
-4515.2327
-4497.3858
-4484.9277
-4464.9006
-4437.2332
-4404.8725
-4901.1054
-4873.8832
-4883.4903
-4837.069
-4828.637
-4790.1481
-4757.3172
-4713.8951
-4659.2256
-4599.0145
-5281.8495
-5243.3991
-5252.0392
-5185.2219
-5165.6718
-5107.5831
-5056.1876
-4992.7186
-4916.4633
-4831.1513
-5682.8601
-5630.785
-5639.6097
-5550.5886
-5519.7717
-5441.5437
-5370.8774
-5288.4425
-5198.4685
-5115.9181
-6105.0439
-6035.9214
-6045.7705
-5931.7761
-5888.3055
-5787.8967
-5693.5292
-5583.5007
-5458.1875
-5322.587
-6548.5002
-6458.4124
-6470.8431
-6329.1982
-6271.944
-6149.0593
-6030.8963
-5896.7841
-5747.178
-5585.4187
-7019.3413
-6902.2103
-6917.9743
-6744.4915
-6670.3453
-6522.7544
-6376.8531
-6214.6282
-6036.1367
-5850.2661
-7516.4401
-7366.2087
-7388.3262
-7179.8868
-7085.7237
-6911.6633
-6733.8683
-6537.7859
-6319.1648
-6081.8846
-8058.1146