/*--------------------------------*- C++ -*----------------------------------*\
| =========                 |                                                 |
| \\      /  F ield         | foam-extend: Open Source CFD                    |
|  \\    /   O peration     | Version:     4.1                                |
|   \\  /    A nd           | Web:         http://www.foam-extend.org         |
|    \\/     M anipulation  |                                                 |
\*---------------------------------------------------------------------------*/
FoamFile
{
    version     2.0;
    format      ascii;
    class       surfaceScalarField;
    location    "1.9";
    object      phi;
}
// * * * * * * * * * * * * * * * * * * * * * * * * * * * * * * * * * * * * * //

dimensions      [0 3 -1 0 0 0 0];

internalField   nonuniform List<scalar> 
8438
(
-0.59744044
0.0016735535
-0.5991793
0.0017388564
-0.60095307
0.0017737753
-0.60277077
0.0018176984
-0.60464215
0.0018713801
-0.60657765
0.0019354974
-0.60858667
0.0020090188
-0.61067682
0.0020901531
-0.61285322
0.0021764022
-0.6151178
0.0022645742
-0.61746857
0.0023507795
-0.61989904
0.0024304656
-0.62239756
0.0024985208
-0.62494703
0.002549465
-0.62752475
0.0025777277
-0.63010277
0.0025780112
-0.63264836
0.0025455904
-0.63512497
0.0024766127
-0.6374932
0.0023682275
-0.63971177
0.0022185775
-0.6417385
0.0020267233
-0.64353105
0.001792551
-0.6450478
0.0015167542
-0.64624876
0.0012009541
-0.64709677
0.00084801213
-0.64755931
0.00046254513
-0.64761062
5.1308137e-05
-0.64723331
-0.00037730922
-0.64642239
-0.00081091752
-0.64518935
-0.001233048
-0.64356305
-0.0016262928
-0.64158957
-0.001973483
-0.63932997
-0.0022595992
-0.6368563
-0.002473674
-0.63424629
-0.0026100038
-0.6315779
-0.0026683907
-0.62892442
-0.002653484
-0.62635089
-0.0025735323
-0.62391197
-0.0024389138
-0.62165122
-0.0022607571
-0.61960137
-0.002049842
-0.61778553
-0.001815845
-0.61621862
-0.0015669063
-0.61490908
-0.0013095388
-0.61385998
-0.0010491
-0.61306953
-0.0007904578
-0.61253402
-0.00053550961
-0.6122586
-0.00027541858
-1.3648029e-05
-0.61123264
0.0031392962
-0.61269177
0.0031979894
-0.61417807
0.0032600701
-0.61570479
0.0033444181
-0.61728438
0.0034509744
-0.61892806
0.0035791721
-0.62064566
0.0037266223
-0.62244516
0.0038896485
-0.624332
0.0040632439
-0.62630845
0.0042410239
-0.62837286
0.0044151938
-0.630519
0.0045766043
-0.63273543
0.0047149494
-0.63500511
0.0048191493
-0.6373053
0.0048779161
-0.63960779
0.0048805019
-0.64187954
0.0048173325
-0.64408355
0.0046806259
-0.64617998
0.0044646566
-0.64812712
0.0041657239
-0.64988237
0.0037819706
-0.65140299
0.0033131652
-0.65264687
0.0027606415
-0.65357345
0.0021275323
-0.65414483
0.0014193869
-0.65432746
0.00064517745
-0.65409464
-0.00018150591
-0.65343054
-0.0010414114
-0.65233202
-0.0019094401
-0.65081
-0.002755064
-0.64889255
-0.0035437453
-0.6466254
-0.0042406322
-0.64406996
-0.0048150369
-0.6412991
-0.0052445347
-0.63839158
-0.0055175245
-0.63542626
-0.0056337098
-0.63247706
-0.0056026873
-0.62960927
-0.0054413274
-0.62687745
-0.0051707284
-0.62432482
-0.0048133912
-0.62198367
-0.0043909936
-0.61987663
-0.0039228843
-0.61801828
-0.0034252543
-0.61641682
-0.0029109975
-0.61507556
-0.0023903563
-0.61399476
-0.0018712623
-0.6131739
-0.0013563652
-0.61260473
-0.00084459526
-0.00037357401
-0.61227817
0.0045549031
-0.61369205
0.0046118707
-0.61513077
0.0046987898
-0.61660928
0.0048229332
-0.61814089
0.004982584
-0.6197374
0.00517568
-0.62140914
0.0053983631
-0.62316458
0.0056450852
-0.62500972
0.0059083903
-0.62694746
0.0061787617
-0.6289768
0.0064445295
-0.63109212
0.0066919222
-0.63328251
0.006905343
-0.6355313
0.0070679383
-0.63781585
0.007162472
-0.64010785
0.0071725024
-0.64237393
0.0070834067
-0.64457667
0.006883363
-0.64667576
0.0065637553
-0.64862912
0.0061190826
-0.65039376
0.0055466076
-0.65192654
0.0048459432
-0.65318479
0.0040188956
-0.65412704
0.0030697852
-0.65471404
0.0020063863
-0.65491038
0.0008415169
-0.65468692
-0.00040497081
-0.65402359
-0.0017047451
-0.65291293
-0.0030200925
-0.6513639
-0.0043040918
-0.6494044
-0.0055032461
-0.64708189
-0.0065631504
-0.64446119
-0.0074357366
-0.64161972
-0.0080860036
-0.63864107
-0.0084961736
-0.63560841
-0.008666369
-0.6325989
-0.0086121941
-0.62967981
-0.0083604202
-0.62690645
-0.0079440877
-0.62432178
-0.0073980593
-0.62195718
-0.0067555924
-0.61983398
-0.0060460884
-0.6179653
-0.0052939342
-0.61635794
-0.0045183524
-0.61501429
-0.0037340078
-0.6139345
-0.0029510585
-0.61311683
-0.0021740354
-0.61255277
-0.0014086506
-0.00068139498
-0.61263502
0.0059411259
-0.61402854
0.0060053842
-0.61544753
0.0061177869
-0.61690697
0.0062823671
-0.61842061
0.0064962235
-0.62000096
0.0067560326
-0.62165913
0.0070565352
-0.62340443
0.0073903848
-0.62524379
0.0077477448
-0.62718103
0.0081160034
-0.62921608
0.0084795874
-0.63134414
0.0088199793
-0.63355485
0.0091160463
-0.6358317
0.0093447901
-0.63815179
0.0094825616
-0.64048603
0.0095067467
-0.64279991
0.0093972874
-0.64505466
0.0091381091
-0.64720859
0.008717683
-0.64921832
0.008128817
-0.65103974
0.0073680235
-0.65262858
0.0064347916
-0.65394093
0.0053312393
-0.65493361
0.0040624721
-0.65556509
0.0026378614
-0.65579688
0.0010733078
-0.65559602
-0.00060583204
-0.65493838
-0.0023623801
-0.65381281
-0.0041456632
-0.65222569
-0.005891216
-0.6502046
-0.0075243334
-0.64779962
-0.0089681321
-0.64508098
-0.010154375
-0.64213332
-0.011033664
-0.63904787
-0.011581621
-0.63591457
-0.01179967
-0.6328156
-0.011711165
-0.62982119
-0.011354835
-0.62698769
-0.010777588
-0.62435757
-0.010028173
-0.62196071
-0.0091524564
-0.61981635
-0.0081904479
-0.61793537
-0.0071749108
-0.61632247
-0.0061312547
-0.61497832
-0.0050781598
-0.61390148
-0.004027897
-0.61308836
-0.0029871592
-0.61253356
-0.0019634517
-0.00097000042
-0.61305953
0.007300298
-0.61442982
0.0073756729
-0.61582655
0.0075145206
-0.61726487
0.0077206916
-0.61875905
0.0079903993
-0.62032237
0.0083193493
-0.62196688
0.0087010474
-0.62370299
0.0091264929
-0.62553883
0.0095835874
-0.62747952
0.01005669
-0.62952623
0.010526299
-0.63167524
0.010968991
-0.63391696
0.011357767
-0.63623514
0.011662967
-0.63860644
0.011853864
-0.64100068
0.011900984
-0.64338167
0.01177828
-0.6457087
0.011465143
-0.64793817
0.010947151
-0.650025
0.010215648
-0.65192364
0.0092666561
-0.6535885
0.0080996579
-0.65497417
0.0067169099
-0.65603547
0.0051237669
-0.65672792
0.0033303101
-0.657009
0.0013543962
-0.65684061
-0.00077422336
-0.65619285
-0.0030101434
-0.65504895
-0.0052895596
-0.65341126
-0.0075289049
-0.65130655
-0.009629045
-0.64878841
-0.011486276
-0.64593479
-0.01300799
-0.64284078
-0.014127682
-0.63960858
-0.01481382
-0.6363377
-0.015070546
-0.63311726
-0.014931608
-0.63002137
-0.01445072
-0.62710755
-0.013691411
-0.6244173
-0.012718424
-0.62197816
-0.011591594
-0.61980638
-0.010362232
-0.61790967
-0.0090716239
-0.61628982
-0.0077511015
-0.61494508
-0.0064229
-0.61387185
-0.0051011301
-0.61306518
-0.0037938242
-0.61252118
-0.0025074565
-0.0012463759
-0.61359673
0.0086272333
-0.61493736
0.0087163007
-0.61630579
0.0088829538
-0.61771734
0.0091322383
-0.61918684
0.0094598948
-0.62072847
0.0098609807
-0.62235543
0.01032801
-0.62407948
0.010850548
-0.62591032
0.011414421
-0.62785471
0.012001078
-0.6299155
0.01258709
-0.63209046
0.013143952
-0.63437108
0.013638389
-0.63674151
0.014033398
-0.63917792
0.014290274
-0.64164865
0.014371709
-0.64411526
0.014244892
-0.64653442
0.013884304
-0.64885998
0.013272712
-0.65104472
0.01240039
-0.65304139
0.011263328
-0.65480298
0.0098612416
-0.65628243
0.0081963567
-0.65743224
0.0062735818
-0.65820442
0.0041024884
-0.65855131
0.0017012911
-0.65842804
-0.00089749282
-0.65779687
-0.0036413204
-0.65663306
-0.0064533647
-0.65493287
-0.0092290998
-0.6527213
-0.011840612
-0.65005641
-0.014151161
-0.64702677
-0.01603763
-0.64374197
-0.01741249
-0.64031937
-0.018236411
-0.63687145
-0.018518475
-0.63349633
-0.018306722
-0.63027291
-0.017674143
-0.62725968
-0.016704636
-0.6244964
-0.015481708
-0.62200713
-0.014080864
-0.61980387
-0.012565493
-0.61788999
-0.010985498
-0.61626333
-0.0093777634
-0.6149187
-0.0077675326
-0.61384965
-0.0061701809
-0.61304957
-0.0045939017
-0.61251419
-0.003042833
-0.0015156192
-0.61424975
0.0099181899
-0.61555478
0.010021329
-0.61688851
0.010216688
-0.61826697
0.010510691
-0.61970576
0.010898687
-0.62122014
0.011375359
-0.62282465
0.011932522
-0.6245327
0.0125586
-0.62635589
0.013237614
-0.62830311
0.013948294
-0.63037935
0.014663336
-0.63258439
0.015348985
-0.6349112
0.015965207
-0.6373446
0.016466798
-0.63986019
0.016805861
-0.6424244
0.016935921
-0.64499582
0.016816308
-0.64752761
0.016416099
-0.64997035
0.015715445
-0.65227418
0.014704222
-0.65438999
0.01337914
-0.65626936
0.011740613
-0.65786373
0.0097907189
-0.65912321
0.007533062
-0.6599958
0.0049750873
-0.66042767
0.0021331543
-0.66036531
-0.00095985065
-0.65976054
-0.0042460904
-0.65857752
-0.0076363816
-0.65680338
-0.01100324
-0.65445972
-0.014184277
-0.65160995
-0.017000931
-0.64835693
-0.019290647
-0.64483014
-0.020939286
-0.6411675
-0.02189905
-0.63749854
-0.022187431
-0.63393282
-0.02187244
-0.63055468
-0.021052286
-0.6274231
-0.019836214
-0.62457485
-0.018329958
-0.62202905
-0.01662667
-0.61979195
-0.014802586
-0.61786131
-0.012916148
-0.61622985
-0.01100922
-0.61488808
-0.0091093038
-0.61382607
-0.0072321927
-0.61303484
-0.0053851246
-0.61250836
-0.0035693112
-0.0017790333
-0.61501302
0.011164728
-0.6162752
0.011283506
-0.61756745
0.011508936
-0.6189062
0.011849442
-0.62030792
0.012300403
-0.62178904
0.012856479
-0.62336566
0.013509148
-0.62505314
0.014246082
-0.6268654
0.015049868
-0.62881392
0.015896817
-0.63090646
0.016755877
-0.63314538
0.017587909
-0.63552577
0.018345591
-0.63803343
0.01897446
-0.6406434
0.019415832
-0.64331969
0.019612212
-0.64601692
0.019513536
-0.64868364
0.019082815
-0.65126615
0.018297962
-0.65371148
0.017149548
-0.65596857
0.01563623
-0.65798787
0.013759916
-0.65971969
0.011522537
-0.66111201
0.0089253775
-0.66210858
0.0059716636
-0.66264834
0.0026729074
-0.66266711
-0.00094107248
-0.66210312
-0.004810081
-0.66090526
-0.0088342472
-0.65904715
-0.012861348
-0.65654414
-0.016687284
-0.65346576
-0.020079311
-0.64993404
-0.022822372
-0.64610561
-0.024767716
-0.64214609
-0.025858569
-0.63820724
-0.026126284
-0.63441259
-0.025667084
-0.63085229
-0.024612583
-0.62758468
-0.023103826
-0.62464166
-0.021272985
-0.62203532
-0.019233007
-0.61976432
-0.017073583
-0.61781917
-0.014861299
-0.61618631
-0.012642085
-0.61485101
-0.010444599
-0.6137993
-0.0082838995
-0.6130193
-0.0061651301
-0.61250256
-0.0040860446
-0.0020367979
-0.61588763
0.012363446
-0.61710097
0.012496847
-0.61834485
0.012752811
-0.61963681
0.013141405
-0.62099437
0.01365796
-0.6224353
0.014297411
-0.62397747
0.015051323
-0.6256385
0.015907105
-0.62743504
0.016846412
-0.6293818
0.01784357
-0.63148996
0.018864043
-0.63376531
0.019863255
-0.63620577
0.020786053
-0.63879877
0.021567457
-0.64151884
0.022135908
-0.64432696
0.022420325
-0.64717248
0.02235906
-0.64999781
0.021908146
-0.65274377
0.02104392
-0.65535362
0.019759399
-0.65777449
0.018057101
-0.6599563
0.015941729
-0.66184904
0.013415276
-0.66339921
0.01047555
-0.66454644
0.0071188959
-0.66522154
0.0033480048
-0.66534742
-0.00081519514
-0.66484477
-0.0053127318
-0.6636417
-0.010037321
-0.66169199
-0.014811054
-0.65899997
-0.019379302
-0.65564159
-0.023437691
-0.65176465
-0.026699314
-0.64756318
-0.028969184
-0.64324015
-0.0301816
-0.63897605
-0.030390379
-0.63491116
-0.029731978
-0.63114116
-0.028382585
-0.6277217
-0.026523289
-0.62467707
-0.024317613
-0.62200963
-0.021900445
-0.61970807
-0.019375147
-0.61775382
-0.016815551
-0.61612566
-0.014270245
-0.61480272
-0.01176753
-0.61376636
-0.0093202627
-0.61300126
-0.0069302316
-0.61249631
-0.0045909967
-0.002288155
-0.61686696
0.013502425
-0.61802273
0.013652622
-0.61921048
0.013940561
-0.62044801
0.014378928
-0.62175374
0.014963689
-0.62314685
0.015690529
-0.62464717
0.016551639
-0.62627485
0.017534784
-0.6280498
0.018621359
-0.62999056
0.019784332
-0.63211264
0.020986128
-0.63442622
0.022176829
-0.63693313
0.023292967
-0.63962327
0.024257596
-0.64247095
0.02498359
-0.64543332
0.025382688
-0.64845272
0.025378464
-0.65146324
0.024918665
-0.65439848
0.023979164
-0.65719725
0.022558169
-0.65980518
0.020665025
-0.66217271
0.018309256
-0.66425089
0.015493459
-0.66598605
0.012210708
-0.66731431
0.0084471603
-0.66815778
0.0041914697
-0.6684241
-0.0005488766
-0.6680117
-0.0057251281
-0.66682075
-0.011228271
-0.66477604
-0.016855759
-0.66186299
-0.022292353
-0.65816324
-0.027137449
-0.65385952
-0.031003031
-0.64919799
-0.033630715
-0.6444323
-0.034947288
-0.63977993
-0.035042749
-0.63540052
-0.03411139
-0.63139395
-0.032389149
-0.62780978
-0.030107463
-0.62466073
-0.027466667
-0.6219358
-0.024625375
-0.61961083
-0.021700111
-0.61765612
-0.018770266
-0.61604136
-0.015885006
-0.61473866
-0.013070228
-0.61372415
-0.010334774
-0.61297875
-0.0076756326
-0.61248854
-0.0050812051
-0.002531743
-0.61794999
0.014580947
-0.6190427
0.014745331
-0.62016709
0.015064945
-0.62134238
0.015554221
-0.62258814
0.016209448
-0.62392503
0.017027425
-0.62537496
0.018001567
-0.62696094
0.01912076
-0.62870659
0.020367013
-0.63063507
0.021712814
-0.6327672
0.023118259
-0.6351188
0.024528427
-0.63769705
0.025871212
-0.64049561
0.027056163
-0.64348917
0.027977149
-0.64663017
0.028523685
-0.64985154
0.028599833
-0.65307597
0.028143099
-0.6562275
0.027130688
-0.65923962
0.025570298
-0.66205721
0.023482607
-0.66463293
0.020884978
-0.66692106
0.017781594
-0.66886987
0.014159512
-0.67041338
0.009990669
-0.67146477
0.0052428681
-0.6719144
-9.9255036e-05
-0.67163255
-0.0060069785
-0.67048227
-0.012378541
-0.6683464
-0.018991635
-0.6651784
-0.025460352
-0.66106264
-0.031253211
-0.65622978
-0.03583589
-0.65099994
-0.038860557
-0.6456962
-0.040251022
-0.64058341
-0.040155546
-0.63584262
-0.038852172
-0.63157474
-0.036657031
-0.62781775
-0.033864455
-0.62456722
-0.030717191
-0.62179414
-0.027398463
-0.61945803
-0.024036218
-0.6175157
-0.020712593
-0.61592635
-0.017474357
-0.61465426
-0.014342321
-0.61366992
-0.011319109
-0.61295032
-0.0083952367
-0.61247874
-0.0055527807
-0.0027656861
-0.61913342
0.015582072
-0.6201522
0.01576411
-0.62120415
0.016116889
-0.62230813
0.016658206
-0.62348446
0.017385776
-0.6247552
0.018298167
-0.62614442
0.019390782
-0.62767824
0.020654578
-0.62938453
0.022073305
-0.6312919
0.023620183
-0.6334277
0.025254061
-0.635815
0.026915722
-0.63846823
0.02852444
-0.64138685
0.029974787
-0.64454707
0.031137368
-0.6478957
0.031872318
-0.65135285
0.032056984
-0.65482531
0.03161556
-0.65822401
0.030529384
-0.66147604
0.028822325
-0.66452662
0.026533189
-0.66733318
0.023691542
-0.66985628
0.020304693
-0.67204932
0.01635255
-0.67384686
0.011788207
-0.67515373
0.006549745
-0.67583972
0.00058673234
-0.6757421
-0.0061045974
-0.67467693
-0.013443714
-0.67246559
-0.02120297
-0.66900822
-0.028917723
-0.66438415
-0.035877284
-0.65889057
-0.04132947
-0.65295508
-0.044796044
-0.64699686
-0.046209239
-0.64134098
-0.045811431
-0.63619038
-0.044002774
-0.63164062
-0.041206787
-0.62770974
-0.037795341
-0.62436842
-0.034058509
-0.62156367
-0.03020321
-0.6192347
-0.026365184
-0.61732238
-0.022624922
-0.61577404
-0.019022692
-0.61454554
-0.015570822
-0.61360156
-0.012263094
-0.61291513
-0.0090816629
-0.61246693
-0.0060009794
-0.0029876664
-0.6204071
0.01650954
-0.62134756
0.016704568
-0.62231977
0.017089099
-0.62334419
0.017682631
-0.62444207
0.018483656
-0.62563684
0.019492938
-0.62695474
0.020708682
-0.62842519
0.022125029
-0.63008077
0.023728886
-0.63195642
0.025495828
-0.63408739
0.027385035
-0.63650589
0.029334221
-0.63923608
0.031254629
-0.64228608
0.033024788
-0.6456357
0.034486987
-0.64922522
0.035461839
-0.65295706
0.035788825
-0.65671536
0.035373858
-0.66039282
0.034206843
-0.66390883
0.032338335
-0.66721125
0.029835611
-0.67026626
0.026746552
-0.67304524
0.023083674
-0.67551155
0.018818854
-0.67760458
0.013881245
-0.67922291
0.0081680686
-0.68021417
0.0015779983
-0.68037588
-0.0059428882
-0.67946349
-0.014356107
-0.67721206
-0.023454397
-0.67343381
-0.032695974
-0.66818553
-0.041125566
-0.6618578
-0.0476572
-0.65503903
-0.051614819
-0.64828274
-0.052965527
-0.64198969
-0.052104482
-0.6363815
-0.049610961
-0.63153702
-0.046051267
-0.62744163
-0.04189073
-0.62403069
-0.03746945
-0.62121991
-0.033013992
-0.61892367
-0.028661427
-0.61706446
-0.024484132
-0.61557672
-0.020510424
-0.61440759
-0.016739959
-0.61351602
-0.013154665
-0.6128714
-0.0097262768
-0.61245211
-0.0064202706
-0.0031949777
-0.62177478
0.017340361
-0.62262372
0.017553508
-0.62350578
0.017971156
-0.62444003
0.018616884
-0.62544789
0.01949151
-0.62655379
0.020598842
-0.627786
0.021940894
-0.62917731
0.023516334
-0.6307654
0.025316975
-0.63259248
0.02732291
-0.63470337
0.029495928
-0.63714179
0.031772638
-0.63994491
0.03405775
-0.64313388
0.036213753
-0.64669607
0.03804918
-0.65056506
0.039330828
-0.65461895
0.039842721
-0.65870921
0.039464117
-0.6627027
0.038200327
-0.66650942
0.036145062
-0.67008342
0.033409612
-0.67340507
0.030068203
-0.67646207
0.026140668
-0.67923362
0.021590408
-0.68167023
0.016317858
-0.68366821
0.010166047
-0.68505237
0.0029621597
-0.68557398
-0.0054212811
-0.6849143
-0.015015784
-0.68268963
-0.02567907
-0.67856899
-0.036816618
-0.67254907
-0.047145487
-0.66515201
-0.055054257
-0.65721551
-0.059551317
-0.64948255
-0.060698488
-0.64244689
-0.059140145
-0.63633821
-0.055719645
-0.63119908
-0.051190395
-0.62696361
-0.0461262
-0.62351802
-0.040915034
-0.62073807
-0.035793939
-0.61850862
-0.030890886
-0.6167317
-0.026261047
-0.61532832
-0.021913805
-0.61423708
-0.017831195
-0.61341178
-0.013979966
-0.61281874
-0.010319315
-0.61243456
-0.0068044509
-0.0033845922
-0.6232031
0.018083511
-0.62395742
0.018307826
-0.62474202
0.018755765
-0.62557741
0.019452269
-0.62648532
0.02039942
-0.62749102
0.02160454
-0.6286246
0.023074475
-0.62992218
0.024813912
-0.63142685
0.026821655
-0.63318903
0.029085081
-0.63526485
0.03157175
-0.63771231
0.034220102
-0.64058558
0.03693102
-0.64392474
0.039552914
-0.64773128
0.041855714
-0.65193288
0.043532435
-0.65637336
0.044283196
-0.66085525
0.043946005
-0.66520719
0.042552266
-0.6693273
0.040265174
-0.67318183
0.037264146
-0.67677399
0.03366036
-0.68011574
0.029482419
-0.68321107
0.024685733
-0.68603236
0.019139147
-0.68848223
0.012615918
-0.69036396
0.0048438941
-0.69137639
-0.0044088546
-0.69111304
-0.015279129
-0.68903173
-0.027760386
-0.68457154
-0.041276801
-0.67759112
-0.054125912
-0.6687955
-0.063849877
-0.65942572
-0.068921094
-0.65049282
-0.069631393
-0.64260016
-0.067032806
-0.63596042
-0.062359379
-0.63054757
-0.056603251
-0.62621769
-0.050456079
-0.62279037
-0.044342356
-0.62009171
-0.038492594
-0.6179727
-0.033009899
-0.6163137
-0.027920043
-0.61502257
-0.023204936
-0.61403036
-0.018823409
-0.61328674
-0.014723581
-0.61275596
-0.010850097
-0.6124136
-0.0071468059
-0.0035532467
-0.62472695
0.018710137
-0.62537214
0.018953016
-0.62604883
0.019432454
-0.62677457
0.020178014
-0.62757015
0.021195
-0.62846085
0.022495237
-0.62947797
0.024091593
-0.63066049
0.025996434
-0.63205679
0.028217957
-0.633726
0.030754292
-0.63573741
0.033583156
-0.63816644
0.036649131
-0.64108902
0.039853602
-0.64457239
0.04303629
-0.64864361
0.045926935
-0.6532293
0.048118124
-0.65812584
0.049179735
-0.66306269
0.048882849
-0.6678126
0.047302181
-0.67226028
0.044712856
-0.67639613
0.041399992
-0.68025985
0.037524077
-0.68389688
0.03311945
-0.68734455
0.028133405
-0.69060958
0.022404181
-0.69361168
0.015618009
-0.69613399
0.0073662085
-0.69781653
-0.0027263176
-0.69815467
-0.014940982
-0.6964108
-0.029504263
-0.69166663
-0.046020973
-0.68348563
-0.062306907
-0.67281358
-0.074521931
-0.66157729
-0.080157383
-0.65116512
-0.080043558
-0.64229922
-0.075898704
-0.63512298
-0.06953562
-0.62948972
-0.062236513
-0.62514044
-0.054805359
-0.62180693
-0.047675869
-0.61925589
-0.041043628
-0.61730138
-0.034964414
-0.61580237
-0.029419052
-0.6146552
-0.024352108
-0.61378527
-0.019693334
-0.61313991
-0.015368944
-0.61268265
-0.01130736
-0.61238911
-0.0074403399
-0.0036975592
-0.62625576
0.019233968
-0.62678958
0.019486835
-0.62735051
0.019993384
-0.62795663
0.020784143
-0.62862781
0.021866173
-0.62938888
0.023256307
-0.63027187
0.024974587
-0.63131828
0.027042845
-0.63258168
0.029481356
-0.6341306
0.032303209
-0.63604966
0.035502212
-0.63843582
0.039035292
-0.64139262
0.042810401
-0.64502508
0.046668754
-0.64940448
0.050306335
-0.65446833
0.053181971
-0.65994633
0.054657735
-0.6654536
0.054390125
-0.67067614
0.052524718
-0.67548
0.049516722
-0.67989678
0.045816767
-0.68402063
0.041647924
-0.6879387
0.037037525
-0.69172959
0.03192429
-0.6954552
0.026129792
-0.6990778
0.019240608
-0.70237471
0.01066312
-0.70493052
-0.00017050879
-0.70613766
-0.013733836
-0.70504011
-0.030601818
-0.70017661
-0.050884471
-0.6905028
-0.07198071
-0.67723143
-0.087793307
-0.66352221
-0.093866608
-0.65128391
-0.092281852
-0.64134301
-0.085839604
-0.63367109
-0.077207546
-0.62791968
-0.067987918
-0.62366546
-0.059059574
-0.62052899
-0.050812345
-0.61820962
-0.043362997
-0.61648421
-0.036689824
-0.61519312
-0.030710136
-0.61422464
-0.025320591
-0.61350167
-0.020416307
-0.61297165
-0.015898957
-0.6125993
-0.011679712
-0.61236157
-0.0076780749
-0.0038141772
-0.62788232
0.019620833
-0.62829037
0.019894888
-0.62872674
0.020429751
-0.62920449
0.021261887
-0.62974076
0.022402446
-0.63035879
0.023874341
-0.63109014
0.025705936
-0.63197749
0.027930196
-0.63307822
0.030582086
-0.63446922
0.033694209
-0.63625108
0.037284067
-0.63854563
0.041329842
-0.64148919
0.045753968
-0.64523558
0.050415141
-0.64992843
0.054999183
-0.65554383
0.058797371
-0.66172014
0.060834048
-0.66789165
0.060561634
-0.67361238
0.058245444
-0.67872779
0.054632131
-0.68334887
0.050437855
-0.68766181
0.045960858
-0.69181165
0.04118737
-0.69592754
0.036040176
-0.70015811
0.030360358
-0.70454446
0.023626967
-0.70886989
0.014988548
-0.71262564
0.003585244
-0.71509992
-0.011259563
-0.71514607
-0.030555666
-0.7105427
-0.05548784
-0.69906496
-0.083458447
-0.68205631
-0.10480196
-0.66501592
-0.110907
-0.65053154
-0.10676624
-0.63946198
-0.096909159
-0.63141566
-0.085253869
-0.62572015
-0.073683423
-0.62172684
-0.063052891
-0.61892295
-0.053616232
-0.61693777
-0.045348175
-0.6155157
-0.038111894
-0.61448494
-0.031740898
-0.61373154
-0.026073997
-0.61318045
-0.020967392
-0.61278258
-0.016296827
-0.61250607
-0.011956218
-0.61233073
-0.0078534191
-0.0038999564
-0.62933598
0.019882712
-0.62961491
0.020173823
-0.62991711
0.020731948
-0.63025352
0.021598299
-0.63063796
0.022786881
-0.6310908
0.024327187
-0.63164168
0.026256816
-0.63233297
0.028621481
-0.63322443
0.031473546
-0.63440039
0.034870169
-0.63597877
0.038862449
-0.63811247
0.043463537
-0.64097954
0.04862104
-0.64479588
0.054231486
-0.64982097
0.060024272
-0.65613233
0.065108725
-0.66324987
0.067951588
-0.67030963
0.067621398
-0.67665923
0.064595045
-0.68211421
0.06008711
-0.68692667
0.055250319
-0.69142572
0.050459905
-0.6958168
0.045578455
-0.70025359
0.040476957
-0.70499406
0.035100828
-0.71020146
0.028834376
-0.71569657
0.020483655
-0.72088197
0.0087706453
-0.72496915
-0.0071723834
-0.72679971
-0.028725106
-0.72323185
-0.059055705
-0.70979739
-0.096892905
-0.68723409
-0.12736526
-0.66565424
-0.13248684
-0.64844079
-0.1239797
-0.63630036
-0.10904959
-0.62813509
-0.09341914
-0.62277144
-0.079047075
-0.61926875
-0.06655558
-0.61696816
-0.055916824
-0.61543681
-0.046879518
-0.61439936
-0.03914935
-0.61368323
-0.032457022
-0.61318089
-0.026576338
-0.61282538
-0.021322901
-0.61257507
-0.016547137
-0.61240418
-0.012127108
-0.61229701
-0.0079605946
-0.0039521655
-0.63049027
0.019981376
-0.63061982
0.020303372
-0.63077082
0.020882948
-0.63094763
0.021775104
-0.63115925
0.022998501
-0.63142223
0.024590171
-0.63176303
0.026597617
-0.63222203
0.029080474
-0.63285905
0.032110571
-0.63376248
0.035773602
-0.63506442
0.040164386
-0.63695059
0.045349709
-0.63964598
0.05131643
-0.64343018
0.05801568
-0.64872252
0.065316613
-0.65582175
0.072207956
-0.66410929
0.076239127
-0.6722049
0.075717008
-0.6791452
0.071535349
-0.68470216
0.065644072
-0.68939228
0.059940431
-0.6937779
0.054845527
-0.69813756
0.049938116
-0.70260017
0.044939568
-0.70761201
0.040112668
-0.7135937
0.034816068
-0.72050259
0.027392541
-0.72773212
0.016000173
-0.73427938
-0.00062511958
-0.73920326
-0.023801232
-0.73833185
-0.059927106
-0.72349559
-0.11172917
-0.69248319
-0.15837766
-0.66469656
-0.16027347
-0.64430095
-0.14437531
-0.6313913
-0.12195924
-0.62358302
-0.10122742
-0.61896662
-0.083663466
-0.6162585
-0.069263703
-0.61466562
-0.057509703
-0.61371995
-0.047825187
-0.61315047
-0.039718834
-0.61280129
-0.032806202
-0.61258279
-0.026794838
-0.61244339
-0.0214623
-0.61235344
-0.016637087
-0.61229599
-0.012184558
-0.61226149
-0.0079950986
-0.0039687024
-0.63007847
0.019880169
-0.63002794
0.020252833
-0.62999531
0.020850324
-0.62997624
0.021756034
-0.62997276
0.022995017
-0.62999479
0.024612203
-0.63006162
0.026664451
-0.6302062
0.029225057
-0.63048152
0.032385888
-0.63097112
0.036263198
-0.63181142
0.041004684
-0.63321967
0.046757961
-0.63548196
0.053578719
-0.63894665
0.061480374
-0.6442399
0.07060986
-0.65213528
0.080103334
-0.66194776
0.086051607
-0.67134991
0.085119161
-0.67893517
0.079120606
-0.68436564
0.071074549
-0.68865617
0.064230962
-0.69275103
0.058940388
-0.6970513
0.054238383
-0.70151398
0.049402247
-0.70683808
0.045436764
-0.71385883
0.04183682
-0.7225961
0.036129809
-0.73261913
0.026023209
-0.74190455
0.0086602951
-0.75052997
-0.015175811
-0.75421883
-0.056238244
-0.74047677
-0.12547123
-0.69642063
-0.20243379
-0.66055576
-0.19613834
-0.63703499
-0.16789608
-0.62415364
-0.13484059
-0.61751701
-0.10786406
-0.61423903
-0.086941438
-0.61270459
-0.070798144
-0.61204776
-0.058166538
-0.61182143
-0.048051518
-0.61179737
-0.039742887
-0.61186
-0.032743575
-0.61195141
-0.026703427
-0.61204331
-0.021370399
-0.61212256
-0.01655784
-0.61218362
-0.012123503
-0.61222455
-0.0079541603
-0.0039483064
-0.62618378
0.019548772
-0.62589612
0.019965167
-0.6256043
0.020558504
-0.62530174
0.021453478
-0.62498315
0.022676426
-0.6246498
0.024278857
-0.62431057
0.026325213
-0.62398677
0.028901265
-0.62371999
0.032119103
-0.62358363
0.036126835
-0.62371019
0.041131252
-0.62434506
0.04739283
-0.62585805
0.05509171
-0.62866641
0.064288735
-0.63355933
0.075502775
-0.6421624
0.088706406
-0.65403765
0.097926863
-0.66487396
0.09595547
-0.67275721
0.087003849
-0.67707091
0.075388251
-0.67991048
0.067070531
-0.68282201
0.061851922
-0.68642891
0.057845277
-0.69004514
0.05301848
-0.69450598
0.04989761
-0.70161403
0.048944867
-0.71115689
0.045672663
-0.72409858
0.038964906
-0.73556632
0.020128034
-0.74986074
-0.00088138728
-0.76244947
-0.043649517
-0.75916577
-0.12875494
-0.69459066
-0.2670089
-0.65073437
-0.23999463
-0.62530399
-0.19332645
-0.61396272
-0.14618187
-0.60976316
-0.11206362
-0.60860983
-0.088094764
-0.60868416
-0.070723814
-0.60919204
-0.057658655
-0.60980281
-0.047440749
-0.61038442
-0.039161283
-0.6108895
-0.032238487
-0.61130626
-0.026286671
-0.61163706
-0.021039602
-0.61188908
-0.016305817
-0.61207022
-0.011942366
-0.61218723
-0.0078371429
-0.0038907404
-0.61276645
0.018729606
-0.61203619
0.0192349
-0.61128974
0.019812054
-0.61050024
0.020663982
-0.60964999
0.021826172
-0.60872692
0.023355787
-0.60772273
0.025321026
-0.60663679
0.027815327
-0.6054836
0.03096591
-0.60430257
0.034945807
-0.60318057
0.040009248
-0.60232602
0.046538279
-0.60215345
0.054919142
-0.60313626
0.065271543
-0.6060127
0.07837922
-0.61372654
0.096420246
-0.6275272
0.11172752
-0.63868991
0.10711818
-0.64545641
0.093770356
-0.64634408
0.076275921
-0.64573636
0.066462811
-0.64567328
0.061788837
-0.64728023
0.059452229
-0.64831179
0.054050039
-0.64944502
0.051030845
-0.65616989
0.05566973
-0.66607513
0.055577909
-0.68384062
0.056730389
-0.69888825
0.035175673
-0.72786023
0.028090584
-0.75027201
-0.021237728
-0.77323458
-0.10579237
-0.67715865
-0.36308483
-0.63076772
-0.28638556
-0.60622335
-0.21787083
-0.59992087
-0.15248435
-0.6002662
-0.11171829
-0.60224903
-0.086111933
-0.60437342
-0.068599422
-0.60623188
-0.055800198
-0.60775545
-0.045917174
-0.60897156
-0.037945175
-0.60992819
-0.031281855
-0.61067129
-0.025543568
-0.611239
-0.020471897
-0.61166107
-0.015883745
-0.61195982
-0.011643622
-0.61215113
-0.0076458306
-0.0037969183
-0.5847796
0.017486155
-0.58351021
0.01796551
-0.58214158
0.018443418
-0.58066947
0.019191874
-0.57906767
0.020224369
-0.57730529
0.021593413
-0.57534572
0.023361454
-0.5731491
0.025618711
-0.57067786
0.028494662
-0.56790479
0.032172743
-0.56482862
0.036933073
-0.56155662
0.043266277
-0.55853279
0.051895319
-0.55652775
0.063266501
-0.55614874
0.078000213
-0.56153157
0.10180308
-0.58049244
0.13068839
-0.59265625
0.11928199
-0.5989097
0.1000238
-0.59405219
0.071418413
-0.58776381
0.060174427
-0.58244275
0.05646778
-0.58157553
0.058585005
-0.5795282
0.052002714
-0.57387621
0.04537885
-0.58519466
0.032529481
-0.59561963
0.037438936
-0.60467978
0.040313197
-0.60342486
0.02048029
-0.63525092
0.039878381
-0.71434572
0.019774528
-0.66918687
-0.054713836
-0.60685833
-0.22710715
-0.57379935
-0.31944453
-0.57150802
-0.22016216
-0.58113688
-0.14285549
-0.58945237
-0.1034028
-0.59561862
-0.079945679
-0.60008654
-0.06413151
-0.60336088
-0.052525856
-0.60579623
-0.043481818
-0.60762935
-0.036112063
-0.60901858
-0.029892622
-0.61007177
-0.02449038
-0.61086356
-0.019680108
-0.61144608
-0.015301222
-0.61185565
-0.011234048
-0.61211694
-0.0073845453
-0.0036689526
-0.52686993
0.015076168
-0.52437319
0.015468776
-0.52172086
0.01579109
-0.51887073
0.016341738
-0.51576852
0.017122158
-0.51234642
0.018171318
-0.50851876
0.019533793
-0.50418039
0.021280342
-0.4992071
0.023521366
-0.49346095
0.026426601
-0.48679887
0.030270989
-0.47911632
0.035583732
-0.4706093
0.043388292
-0.46224581
0.054903012
-0.45437876
0.070133162
-0.44762976
0.095054079
-0.47080986
0.15386849
-0.47005109
0.11852322
-0.46091541
0.09088812
-0.42709562
0.037598624
-0.39543665
0.02851546
-0.36804262
0.02907375
-0.30348987
0.020770632
-0.16300004
0.013454903
-0.041147272
0.0077710285
0
0
0
0
0
0
0
0
0
0
0
0
0
0
-0.21954732
0.015304039