/*--------------------------------*- C++ -*----------------------------------*\
| =========                 |                                                 |
| \\      /  F ield         | foam-extend: Open Source CFD                    |
|  \\    /   O peration     | Version:     4.1                                |
|   \\  /    A nd           | Web:         http://www.foam-extend.org         |
|    \\/     M anipulation  |                                                 |
\*---------------------------------------------------------------------------*/
FoamFile
{
    version     2.0;
    format      ascii;
    class       volScalarField;
    location    "1.9";
    object      rAU;
}
// * * * * * * * * * * * * * * * * * * * * * * * * * * * * * * * * * * * * * //

dimensions      [0 0 1 0 0 0 0];

internalField   nonuniform List<scalar> 
4393
(
0.00022764397
0.00022727016
0.00022690413
0.00022653025
0.00022614641
0.0002257512
0.00022534222
0.0002249183
0.00022447857
0.00022402286
0.00022355175
0.00022306675
0.00022257035
0.00022206611
0.00022155839
0.00022105334
0.00022055676
0.00022007563
0.00021961759
0.00021919022
0.00021880126
0.00021845839
0.00021816911
0.0002179406
0.00021777952
0.00021769179
0.00021768206
0.00021768206
0.00021775363
0.0002179076
0.00021814215
0.00021845228
0.00021882979
0.00021926365
0.00021974058
0.00022024606
0.00022076526
0.00022128398
0.00022178941
0.00022227054
0.00022271839
0.00022312602
0.00022348837
0.00022380199
0.00022406477
0.00022427573
0.00022443495
0.00022454295
0.00022458507
0.00022451156
0.00022419108
0.00022388554
0.00022357093
0.00022324452
0.00022290465
0.00022254909
0.00022217698
0.00022178791
0.00022138225
0.00022096127
0.00022052725
0.00022008356
0.00021963468
0.00021918592
0.0002187443
0.00021831642
0.00021790989
0.00021753278
0.00021719294
0.00021689822
0.00021665631
0.00021647462
0.00021636014
0.00021631921
0.00021635722
0.0002164439
0.00021641682
0.00021646002
0.00021658692
0.00021679902
0.00021709477
0.00021746903
0.00021791304
0.00021841481
0.00021896007
0.00021953334
0.0002201191
0.00022070278
0.00022127145
0.00022181423
0.00022232241
0.00022278938
0.0002232104
0.00022358224
0.00022390274
0.00022417103
0.00022438861
0.00022454271
0.00022400619
0.00022369754
0.00022339741
0.00022308573
0.00022275976
0.00022241801
0.00022205847
0.00022168055
0.00022128428
0.00022087052
0.0002204412
0.00021999936
0.00021954925
0.00021909632
0.00021864691
0.00021820902
0.00021779015
0.00021739862
0.00021704305
0.00021673163
0.00021647238
0.00021627305
0.00021614103
0.00021608326
0.00021610587
0.00021621394
0.00021630072
0.00021618163
0.00021614335
0.00021619291
0.00021633522
0.00021657195
0.00021690055
0.00021731385
0.00021780032
0.00021834506
0.00021893111
0.00021954099
0.00022015792
0.00022076683
0.00022135487
0.00022191168
0.00022242935
0.00022290213
0.00022332603
0.00022369842
0.00022401821
0.00022428551
0.00022448062
0.00022365085
0.00022334758
0.00022304738
0.00022273256
0.00022240067
0.0002220504
0.00022167991
0.00022128887
0.00022087761
0.00022044746
0.00022000092
0.0002195418
0.00021907524
0.00021860774
0.00021814674
0.00021770143
0.00021728037
0.0002168928
0.00021654805
0.00021625476
0.00021602128
0.00021585555
0.00021576511
0.00021575699
0.00021583746
0.00021601157
0.00021609311
0.00021588796
0.00021576536
0.00021573585
0.00021580813
0.00021598742
0.00021627386
0.0002166617
0.00021713941
0.00021769085
0.000218297
0.00021893784
0.00021959403
0.00022024811
0.00022088521
0.00022149338
0.00022206348
0.00022258894
0.00022306525
0.0002234896
0.00022386075
0.00022417775
0.00022442244
0.00022328896
0.00022298985
0.00022268996
0.00022237233
0.00022203465
0.00022167577
0.00022129396
0.00022088906
0.00022046167
0.0002200135
0.00021954761
0.00021906849
0.0002185822
0.00021809633
0.00021761959
0.00021716243
0.00021673466
0.00021634658
0.00021600827
0.00021572894
0.00021551725
0.00021538134
0.00021532899
0.00021536749
0.00021550345
0.00021574226
0.00021582936
0.00021553373
0.00021532284
0.00021521128
0.00021521212
0.00021533469
0.00021558211
0.00021594992
0.0002164261
0.00021699255
0.00021762739
0.00021830739
0.00021901016
0.00021971555
0.00022040659
0.00022106975
0.00022169486
0.00022227467
0.00022280439
0.00022328117
0.00022370371
0.00022407086
0.00022436675
0.00022291128
0.00022261685
0.00022231834
0.00022199884
0.00022165617
0.0002212892
0.00022089629
0.00022047737
0.00022003322
0.00021956585
0.00021907878
0.00021857718
0.00021806802
0.00021756005
0.00021706335
0.00021658986
0.00021615081
0.0002157577
0.00021542151
0.00021515197
0.00021495808
0.00021484819
0.00021483034
0.00021491224
0.00021510115
0.00021540321
0.00021551098
0.00021511904
0.00021481425
0.00021461583
0.00021454214
0.00021460743
0.00021481832
0.0002151716
0.00021565413
0.00021624494
0.00021691822
0.00021764671
0.00021840431
0.00021916786
0.00021991817
0.00022064022
0.00022132297
0.00022195879
0.00022254285
0.00022307255
0.00022354676
0.00022396477
0.00022431252
0.00022251828
0.00022222922
0.0002219331
0.00022161273
0.00022126591
0.00022089148
0.00022048774
0.00022005466
0.00021959307
0.00021910521
0.00021859496
0.00021806812
0.00021753257
0.0002169983
0.00021647693
0.00021598214
0.00021552682
0.0002151239
0.00021478533
0.00021452139
0.0002143413
0.00021425359
0.00021426654
0.00021438847
0.00021462755
0.0002149912
0.00021513997
0.00021464446
0.00021423829
0.00021394615
0.00021379288
0.00021379895
0.00021397529
0.00021431996
0.00021481792
0.00021544401
0.00021616724
0.00021695515
0.00021777716
0.00021860673
0.00021942234
0.00022020759
0.00022095078
0.0002216442
0.00022228331
0.00022286596
0.00022339158
0.00022386032
0.0002242595
0.00022211196
0.00022182962
0.00022153708
0.00022121687
0.00022086675
0.00022048543
0.00022007111
0.00021962364
0.00021914383
0.00021863399
0.00021809826
0.00021754299
0.00021697698
0.00021641153
0.00021586005
0.00021533824
0.00021486106
0.00021444309
0.00021409735
0.00021383462
0.00021366422
0.00021359468
0.0002136345
0.00021379266
0.00021407861
0.00021450167
0.00021471791
0.00021410989
0.00021359267
0.00021319742
0.00021295707
0.00021290017
0.00021304331
0.00021338587
0.00021390985
0.00021458418
0.00021537088
0.00021623088
0.00021712825
0.00021803263
0.00021892011
0.0002197731
0.0002205796
0.00022133217
0.00022202689
0.0002226624
0.000223239
0.00022375787
0.00022420764
0.00022169403
0.00022141926
0.00022113138
0.0002208124
0.0002204599
0.00022007238
0.00021964782
0.00021918585
0.00021868707
0.00021815373
0.0002175901
0.00021700296
0.00021640198
0.00021579989
0.00021521214
0.00021465692
0.00021415169
0.00021371305
0.00021335522
0.00021308934
0.00021292456
0.00021286916
0.00021293167
0.0002131218
0.00021345063
0.00021393007
0.0002142477
0.00021351641
0.0002128759
0.00021236502
0.00021202695
0.00021190111
0.00021201172
0.00021235973
0.00021292256
0.00021366083
0.00021452718
0.00021547415
0.0002164594
0.00021744831
0.00021841466
0.00021934001
0.00022021247
0.00022102534
0.00022177576
0.00022246353
0.00022309014
0.00022365803
0.00022415708
0.00022126649
0.00022100117
0.00022071936
0.00022040281
0.00022004894
0.000219656
0.00021922163
0.00021874506
0.00021822658
0.00021766813
0.00021707394
0.00021645106
0.00021580996
0.00021516489
0.00021453367
0.00021393756
0.00021339719
0.0002129317
0.00021255661
0.00021228319
0.00021212
0.00021207461
0.00021215532
0.0002123725
0.00021273921
0.00021327073
0.00021373272
0.00021286541
0.00021208638
0.00021144344
0.00021099293
0.00021078909
0.00021086702
0.00021122953
0.00021184715
0.00021266871
0.00021363426
0.00021468568
0.00021577304
0.00021685717
0.00021790974
0.00021891196
0.0002198527
0.00022072656
0.00022153224
0.00022227114
0.00022294626
0.0002235615
0.00022410812
0.00022083198
0.00022057672
0.00022030208
0.00021998914
0.000219635
0.00021923755
0.00021879394
0.0002183029
0.00021776411
0.00021717904
0.0002165516
0.0002158889
0.00021520205
0.00021450689
0.00021382399
0.00021317846
0.00021259506
0.00021209614
0.00021169869
0.00021141372
0.00021124851
0.00021120924
0.00021130348
0.00021154209
0.00021194037
0.00021251793
0.00021317829
0.00021216008
0.00021122376
0.00021042743
0.00020984419
0.00020954909
0.00020959305
0.00020998142
0.00021067416
0.00021160328
0.00021269183
0.00021386828
0.00021507384
0.00021626465
0.00021741083
0.00021849404
0.00021950469
0.00022043946
0.00022129921
0.00022208738
0.00022280884
0.00022346915
0.00022406111
0.00022039148
0.00022014881
0.00021988313
0.00021957531
0.0002192223
0.00021882155
0.00021836964
0.00021786456
0.0002173052
0.0002166922
0.00021602884
0.00021532198
0.00021458313
0.00021382966
0.00021308533
0.00021238013
0.00021174436
0.00021120458
0.00021077948
0.00021047916
0.0002103086
0.00021027163
0.00021037435
0.00021062774
0.00021104955
0.00021166467
0.0002124848
0.000211405
0.00021028888
0.00020931169
0.00020856794
0.00020816219
0.00020816936
0.00020859838
0.00020939279
0.00021046036
0.00021170115
0.00021302681
0.00021436856
0.00021567813
0.00021692503
0.00021809255
0.00021917378
0.00022016836
0.00022108
0.00022191472
0.00022267957
0.00022338201
0.00022401652
0.00021995018
0.0002197202
0.00021946453
0.00021916316
0.00021881265
0.00021840988
0.0002179507
0.00021743218
0.00021685212
0.00021620999
0.000215508
0.00021475236
0.00021395458
0.00021313336
0.00021231608
0.00021153906
0.00021084011
0.00021025164
0.00020979425
0.00020947613
0.00020929836
0.00020926097
0.00020936754
0.0002096285
0.00021006396
0.00021070518
0.00021159218
0.00021060819
0.00020928518
0.00020809194
0.00020714954
0.00020660471
0.00020656988
0.00020705959
0.00020799118
0.00020923707
0.00021066613
0.00021216932
0.00021366702
0.00021510754
0.00021646144
0.00021771532
0.00021886637
0.0002199183
0.00022087847
0.00022175596
0.00022256038
0.00022330124
0.0002239749
0.00021950678
0.00021929284
0.00021904937
0.00021875641
0.00021841037
0.00021800754
0.00021754296
0.00021701255
0.00021641267
0.00021574118
0.00021499871
0.00021419017
0.00021332649
0.0002124272
0.00021152357
0.00021066006
0.000209885
0.00020923904
0.00020874502
0.0002084076
0.00020822157
0.00020818123
0.00020828636
0.00020854593
0.00020898209
0.00020963342
0.00021055294
0.00020978141
0.00020821965
0.00020676583
0.00020557231
0.0002048462
0.00020476031
0.000205339
0.00020645623
0.00020793258
0.00020959446
0.00021130798
0.0002129828
0.00021456588
0.00021603143
0.00021737174
0.00021858992
0.00021969503
0.00022069889
0.00022161419
0.00022245335
0.00022322814
0.00022393684
0.00021907205
0.00021887362
0.00021864339
0.00021836042
0.00021802063
0.00021761965
0.0002171515
0.00021661072
0.00021599189
0.00021529071
0.00021450552
0.00021363919
0.00021270119
0.00021171096
0.00021070363
0.00020973417
0.00020886609
0.00020815214
0.00020761808
0.00020726252
0.00020707033
0.00020702732
0.00020712784
0.00020737792
0.00020780061
0.00020844229
0.00020937175
0.00020894125
0.00020710452
0.00020533473
0.00020381805
0.00020284712
0.00020269437
0.00020340356
0.00020477407
0.00020654977
0.00020849941
0.00021046064
0.00021233422
0.00021406967
0.00021564883
0.00021707282
0.00021835289
0.00021950487
0.0002205459
0.00022149269
0.00022236071
0.00022316407
0.000223903
0.0002186375
0.00021845857
0.000218244
0.00021797326
0.00021764222
0.00021724588
0.00021677718
0.0002162291
0.00021559408
0.00021486509
0.00021403729
0.00021311052
0.00021209158
0.00021099826
0.00020986857
0.00020877078
0.0002077905
0.00020699873
0.00020642486
0.0002060571
0.00020586447
0.0002058204
0.00020591214
0.00020614128
0.00020652996
0.00020713276
0.00020803801
0.00020811336
0.00020596026
0.00020380693
0.00020186873
0.00020055565
0.0002003076
0.00020121092
0.00020293081
0.00020509779
0.00020740248
0.00020965274
0.00021174549
0.00021363955
0.00021533008
0.0002168311
0.00021816458
0.00021935459
0.00022042431
0.00022139483
0.00022228474
0.00022311044
0.00022387405
0.00021822599
0.00021806539
0.0002178676
0.00021761116
0.00021729153
0.00021690296
0.00021643719
0.00021588536
0.00021523736
0.00021448267
0.00021361218
0.00021262126
0.00021151246
0.00021029938
0.00020902038
0.00020775982
0.00020663641
0.00020574988
0.00020513479
0.00020476256
0.00020457751
0.000204536
0.00020461749
0.00020481793
0.00020515481
0.00020568904
0.00020653135
0.00020732637
0.00020481649
0.0002022029
0.00019971123
0.00019790465
0.00019750716
0.00019870638
0.00020091472
0.00020359649
0.00020633732
0.00020891988
0.00021124804
0.00021330067
0.00021509416
0.00021666038
0.00021803483
0.0002192511
0.00022033895
0.00022132392
0.00022222764
0.0002230686
0.00022385067
0.00021781696
0.00021767891
0.00021750027
0.0002172604
0.00021695495
0.00021657756
0.00021611874
0.00021556772
0.00021491159
0.00021413576
0.00021322569
0.00021217068
0.00021096724
0.00020962146
0.00020816662
0.00020670476
0.00020540471
0.00020441267
0.00020377006
0.0002034205
0.00020326809
0.00020324427
0.00020332044
0.00020348556
0.000203745
0.00020416163
0.00020487334
0.00020604011
0.00020373312
0.00020057029
0.00019735028
0.00019481287
0.00019415674
0.00019582047
0.00019872076
0.00020208367
0.00020535542
0.00020831104
0.00021088176
0.0002130828
0.00021496217
0.00021657522
0.00021797348
0.00021920104
0.0002202943
0.000221283
0.00022219142
0.00022303983
0.00022383347
0.00021746806
0.00021735085
0.00021719273
0.00021697236
0.00021668526
0.00021632442
0.00021587919
0.00021533683
0.00021468134
0.0002138934
0.00021295137
0.00021183587
0.00021053461
0.00020904159
0.00020737448
0.00020564942
0.00020411183
0.00020298643
0.00020232357
0.00020202234
0.00020192144
0.00020191784
0.00020198026
0.0002020963
0.00020224992
0.00020250003
0.00020301715
0.00020404788
0.00020277721
0.0001990013
0.00019484866
0.00019121045
0.00019006026
0.00019246948
0.00019635935
0.00020062691
0.00020453437
0.00020789251
0.000210696
0.00021301996
0.00021495652
0.00021658999
0.00021798972
0.00021921029
0.00022029419
0.00022127459
0.00022217776
0.00022302518
0.000223823
0.00021720041
0.00021710845
0.00021697477
0.00021677843
0.00021651524
0.00021617769
0.00021575393
0.00021522923
0.00021458439
0.00021379496
0.00021283097
0.00021166153
0.00021026299
0.00020861397
0.00020670098
0.00020463888
0.00020279058
0.00020152059
0.00020088654
0.00020071729
0.00020074094
0.00020080624
0.00020089048
0.00020099371
0.0002010526
0.00020109869
0.00020133229
0.00020206217
0.00020232363
0.00019782303
0.00019245204
0.0001871249
0.0001849593
0.00018857292
0.00019388288
0.00019934649
0.00020399074
0.00020775228
0.00021074971
0.00021314893
0.00021509924
0.00021671764
0.00021809111
0.00021928334
0.00022034134
0.00022130042
0.00022218782
0.00022302542
0.00022381969
0.00021725954
0.00021719569
0.00021709249
0.00021692795
0.00021669828
0.00021639567
0.00021600768
0.00021551821
0.00021490558
0.00021414084
0.00021318522
0.00021199277
0.00021052314
0.00020873583
0.00020656263
0.00020406857
0.00020178744
0.00020035075
0.00019980553
0.00019987918
0.00020010536
0.00020026574
0.00020036324
0.00020044936
0.00020036943
0.00020009282
0.00019988256
0.00020010172
0.00020118343
0.00019740091
0.00019066095
0.00018291673
0.00017861452
0.00018416418
0.0001914682
0.00019845304
0.00020389576
0.00020800295
0.00021110925
0.00021350606
0.00021540929
0.00021696771
0.00021828235
0.00021942251
0.00022043696
0.00022136122
0.00022222208
0.00022304092
0.00022382377
0.00021801691
0.00021798806
0.00021792995
0.00021781538
0.00021764059
0.00021739771
0.00021707422
0.00021665325
0.00021611102
0.00021541412
0.00021451395
0.00021334404
0.00021183687
0.00020993093
0.00020748657
0.00020441534
0.00020147791
0.00019988178
0.00019958093
0.00020017765
0.00020082176
0.00020120645
0.00020138403
0.0002015822
0.00020150166
0.00020093328
0.00020031545
0.00019986124
0.00020080801
0.00019976212
0.00019129699
0.00018002135
0.00017094791
0.00017965789
0.00018947933
0.00019827188
0.00020448876
0.00020878074
0.00021184203
0.00021412137
0.0002158986
0.00021734407
0.00021856403
0.00021962726
0.00022058035
0.00022145643
0.00022228027
0.00022307161
0.00022383532
0.00022066376
0.00022071194
0.00022074179
0.00022072123
0.00022064839
0.00022051632
0.00022031371
0.00022002466
0.00021962542
0.00021908116
0.00021833801
0.00021731139
0.00021589835
0.0002140161
0.00021146408
0.00020778634
0.00020388368
0.00020236606
0.0002027248
0.00020450462
0.00020600935
0.00020691028
0.00020732223
0.00020797707
0.00020832165
0.00020732404
0.00020618937
0.00020432515
0.00020496016
0.00020348415
0.00019650001
0.0001811822
0.00016222072
0.00017630854
0.00018869763
0.00019949693
0.00020614909
0.00021024637
0.00021300404
0.00021500913
0.00021656677
0.0002178422
0.00021893131
0.00021989362
0.00022076857
0.00022158411
0.00022236123
0.00022311694
0.00022385413
0.00022642314
0.00022656631
0.00022672901
0.00022685666
0.00022694703
0.00022699522
0.00022699406
0.00022693269
0.00022679279
0.00022654466
0.00022613727
0.00022547272
0.00022438815
0.0002227188
0.00022022034
0.00021576663
0.00020956603
0.00020824664
0.00020948512
0.00021348537
0.00021646287
0.00021835336
0.00021896639
0.00022040505
0.00022210364
9.3007829e-05
9.543362e-05
9.7691774e-05
9.9882217e-05
0.00010288238
9.4463722e-05
8.620456e-05
0.00010657295
0.00017933367
0.00019343355
0.00020412705
0.00020945439
0.00021253457
0.00021460549
0.000216152
0.0002173947
0.00021844686
0.00021937312
0.00022021387
0.00022099645
0.00022174091
0.00022246291
0.00022317581
0.00022387979
0.00023924599
0.00023969364
0.00024019461
0.00024068081
0.00024116134
0.00024164031
0.00024212252
0.00024261172
0.00024310675
0.00024359684
0.00024404927
0.00024437131
0.00024434216
0.00024362571
0.00024200545
0.00023807378
0.00022682285
0.00022935533
0.00023549225
0.00025021178
0.00026144237
0.00027023529
0.00012828183
0.00016688336
0.00032275359
0.00046159732
0.00049956686
0.00049956686
0.00049956686
0.00049956686
0.00049956686
0.0004503124
0.00033649835
6.8075282e-05
0.00021297387
0.00021346093
0.00021437882
0.00021549441
0.00021653646
0.00021748113
0.00021833987
0.00021913132
0.00021987232
0.00022057687
0.00022125674
0.00022192219
0.0002225825
0.00022324666
0.00022391166
0.0002642694
0.00026527791
0.0002664316
0.00026762809
0.00026888793
0.00027023572
0.00027170558
0.00027334051
0.00027519368
0.00027733257
0.0002798436
0.00028282416
0.00028637552
0.00029054964
0.00029518238
0.00030234034
0.00027345931
0.00030501277
0.00035660022
0.00037255361
0.0002782292
0.00031972302
0.00049956686
0.00049956686
0.00049956686
0.00049956686
0.00049956686
0.00049956686
0.00049956686
0.00049956686
0.00041263392
0.00041826933
0.00010203819
0.00026659032
0.00023114003
0.00022209704
0.00021927531
0.00021853487
0.00021855429
0.00021888181
0.00021934148
0.00021986051
0.00022040744
0.00022096904
0.0002215407
0.00022212237
0.00022271655
0.00022332755
0.00022394887
0.00030195462
0.00030409709
0.00030622723
0.00030842971
0.00031077904
0.00031334804
0.00031622268
0.00031951623
0.00032338812
0.00032808197
0.00033399398
0.00034169988
0.00035173253
0.00036474728
0.00038492201
0.00040157948
0.00025703187
0.00025319384
0.00026338239
0.00048920769
0.00047849411
0.00048855199
0.00047869855
0.00047372164
0.00047746533
0.00045865802
0.00045171925
0.00045351615
0.00044093604
0.00043652043
0.00010691823
0.00010767071
0.00021977618
0.00025235683
0.00023694831
0.00022741066
0.00022311582
0.00022121905
0.00022044941
0.00022024473
0.00022033822
0.00022059795
0.00022095584
0.00022137585
0.00022183888
0.00022233531
0.00022286119
0.00022341625
0.00022399043
0.00028856446
0.00028908269
0.00028927255
0.00028945903
0.00028964421
0.00028986004
0.00029013253
0.00029049853
0.00029101101
0.00029174757
0.00029283036
0.00029387562
0.00029481465
0.00029557281
0.00029293078
0.000102929
0.00037622812
0.00047082267
0.00047253709
0.0004938369
0.00048613824
0.00048245081
0.00012420998
0.00012127925
0.00010077008
0.0001000541
0.00010062897
0.00010197278
0.00010292722
0.00010452157
0.00020120884
0.00020767805
0.00021808278
0.0002390156
0.0002396301
0.00023076143
0.00022595778
0.000223417
0.00022210833
0.00022149282
0.00022128033
0.00022131151
0.00022149646
0.00022178333
0.00022214193
0.00022255482
0.00022301243
0.00022351038
0.00022403524
0.00022327497
0.00022310719
0.00022281883
0.00022254014
0.00022227889
0.00022205223
0.00022187615
0.00022177398
0.00022177805
0.00022193322
0.00022230446
0.0002220943
0.00022116295
0.00021941659
0.00021672838
0.00021314638
9.5859238e-05
9.9101747e-05
9.9869031e-05
9.9773851e-05
0.00010014959
0.00010017635
0.00021253985
0.00021081367
0.00020892982
0.00020554379
0.00020443533
0.00020387895
0.00020210796
0.00020212614
0.00020330656
0.0002090127
0.00021823612
0.00023217533
0.00023802121
0.00023248198
0.00022785743
0.00022508944
0.00022347612
0.00022257923
0.00022213281
0.00022197625
0.00022201177
0.00022217923
0.00022244133
0.00022277503
0.00022316637
0.00022360756
0.00022408215
0.00021926625
0.00021934614
0.00021947251
0.00021960787
0.00021976345
0.00021995138
0.00022018426
0.00022047815
0.00022085235
0.00022132969
0.0002218642
0.00022156876
0.00022081331
0.00021957733
0.00021780347
0.00021498943
0.00021250666
0.00021402891
0.00021587916
0.00021421457
0.0002123815
0.00021121567
0.00021005902
0.00020833718
0.00020730335
0.0002056859
0.00020477972
0.0002042053
0.00020347947
0.00020394823
0.0002059322
0.00021088843
0.00021854819
0.00022810784
0.0002338314
0.0002331821
0.00022902065
0.00022628601
0.00022454838
0.00022348497
0.00022287576
0.00022257534
0.00022248866
0.00022255366
0.00022272981
0.00022299071
0.00022331943
0.00022370554
0.00022413006
0.0002178894
0.00021796897
0.00021809431
0.00021823306
0.00021838809
0.00021856695
0.00021877817
0.00021903284
0.00021934348
0.0002197238
0.00021997926
0.0002194872
0.00021872906
0.00021765469
0.0002162274
0.00021439179
0.00021326096
0.00021411257
0.00021527034
0.00021349512
0.00021190181
0.00021068264
0.00020952602
0.000208311
0.00020735619
0.0002062972
0.00020564683
0.00020528622
0.00020521186
0.00020608757
0.0002083311
0.00021262014
0.00021875896
0.00022561444
0.00023029984
0.00023231265
0.0002296274
0.0002270814
0.00022534763
0.00022421042
0.00022350167
0.00022309953
0.00022291849
0.00022289938
0.0002230016
0.0002231975
0.00022346846
0.00022380225
0.00022417792
0.00021721112
0.00021733208
0.0002174718
0.00021762284
0.00021779114
0.00021798313
0.00021820498
0.00021846421
0.00021876783
0.00021912124
0.00021921487
0.00021877174
0.00021812017
0.00021723013
0.00021608129
0.00021482204
0.00021419519
0.00021469884
0.00021503895
0.00021341152
0.00021201398
0.00021086201
0.00020980448
0.00020882293
0.00020800284
0.00020726726
0.00020684867
0.00020673385
0.00020702994
0.00020812295
0.00021033518
0.00021399231
0.00021887057
0.00022400934
0.00022786292
0.00023021852
0.00022984665
0.00022755956
0.0002259109
0.0002247686
0.00022401226
0.00022354581
0.00022329668
0.00022321171
0.00022325257
0.000223392
0.00022361085
0.00022389592
0.0002242248
0.00021692185
0.00021699493
0.00021711093
0.00021724609
0.00021739851
0.00021757172
0.00021776952
0.00021799678
0.00021825741
0.00021855289
0.00021852319
0.0002181337
0.00021760118
0.00021691401
0.00021608471
0.00021529056
0.00021497707
0.00021536534
0.00021499575
0.00021359463
0.00021236921
0.00021132266
0.00021038918
0.00020956876
0.00020889438
0.00020837621
0.0002081354
0.00020820834
0.00020871204
0.00020988759
0.00021195289
0.00021505055
0.00021895088
0.00022294334
0.00022613908
0.00022830367
0.00022930036
0.00022779415
0.00022627866
0.000225179
0.00022441528
0.00022391581
0.00022362199
0.00022348824
0.00022348003
0.00022357173
0.00022374459
0.0002239851
0.00022426992
0.00021677921
0.00021689221
0.00021701775
0.00021715345
0.0002173033
0.00021747037
0.00021765636
0.00021786312
0.00021809072
0.00021833599
0.00021824904
0.00021790035
0.00021744813
0.00021689705
0.00021628717
0.00021577736
0.0002156349
0.00021596282
0.00021504856
0.00021385922
0.00021279601
0.00021186999
0.0002110608
0.00021037601
0.00020983849
0.0002094808
0.00020937822
0.00020958332
0.00021019749
0.00021137675
0.00021325699
0.00021588273
0.00021904245
0.00022223338
0.00022490807
0.00022685657
0.00022809
0.00022785098
0.00022649051
0.00022546374
0.00022472195
0.00022421435
0.00022389569
0.00022372842
0.00022368264
0.00022373512
0.00022386822
0.00022406865
0.00022431264
0.00021670591
0.00021677603
0.00021688244
0.00021700571
0.00021714337
0.00021729652
0.00021746535
0.00021765007
0.00021784877
0.00021805598
0.00021796818
0.000217683
0.00021732707
0.0002169135
0.00021649066
0.00021618344
0.0002161567
0.00021618165
0.00021514071
0.00021413967
0.00021322845
0.00021242682
0.00021173729
0.0002111732
0.00021075728
0.00021052506
0.00021053098
0.00021082763
0.00021149507
0.00021263497
0.00021432533
0.00021655985
0.00021915728
0.00022176448
0.00022402355
0.00022576024
0.00022694897
0.00022750551
0.00022658064
0.00022564459
0.00022494493
0.00022444814
0.0002241208
0.00022393315
0.00022386012
0.00022388136
0.00022398079
0.00022414578
0.00022435249
0.00021665263
0.00021674417
0.00021685098
0.0002169671
0.0002170941
0.00021723294
0.00021738275
0.00021754234
0.00021770835
0.00021787403
0.00021779682
0.00021755891
0.0002172765
0.00021696852
0.00021668268
0.0002165126
0.0002165636
0.0002161093
0.00021525406
0.00021441757
0.00021364666
0.00021296633
0.0002123904
0.00021193619
0.00021162717
0.00021149652
0.00021158715
0.00021194534
0.00021263123
0.00021370992
0.00021522093
0.00021713371
0.00021929934
0.00022146736
0.00022339226
0.00022493372
0.00022605188
0.00022677675
0.00022657921
0.00022574182
0.00022509711
0.00022462482
0.00022430148
0.00022410433
0.00022401305
0.00022401032
0.00022408185
0.00022421598
0.00022438911
0.0002166205
0.00021668717
0.00021678213
0.00021688948
0.00021700704
0.00021713451
0.00021727001
0.00021741135
0.00021755418
0.00021769103
0.00021764806
0.00021746003
0.00021724614
0.00021702749
0.00021684686
0.00021677386
0.00021670986
0.00021608851
0.00021538619
0.00021469264
0.00021404933
0.00021348312
0.00021301305
0.00021265865
0.00021244316
0.00021239613
0.00021255247
0.00021295026
0.00021363307
0.00021464109
0.00021598943
0.00021763801
0.000219467
0.0002212957
0.00022294916
0.00022431568
0.00022535201
0.00022606776
0.00022637969
0.00022577298
0.00022519061
0.00022475224
0.00022444245
0.00022424459
0.00022414267
0.00022412236
0.00022417131
0.000224279
0.00022442233
0.00021659669
0.00021666911
0.00021675953
0.00021685807
0.0002169644
0.00021707814
0.00021719698
0.00021731826
0.00021743731
0.00021754675
0.00021753783
0.00021739146
0.0002172337
0.00021708551
0.00021698322
0.0002169515
0.00021664407
0.00021610975
0.00021553545
0.00021496625
0.00021443802
0.00021397714
0.00021360446
0.00021334012
0.00021320627
0.00021322864
0.00021343569
0.00021385748
0.00021452449
0.00021545991
0.00021666415
0.00021809538
0.00021965792
0.00022121879
0.00022264957
0.0002238615
0.00022481306
0.00022550247
0.00022595404
0.00022575333
0.00022523654
0.00022483801
0.00022454868
0.00022435692
0.00022425062
0.00022421826
0.00022424942
0.00022433483
0.00022445205
0.0002165858
0.00021664593
0.00021672855
0.00021681966
0.00021691733
0.00021702058
0.00021712667
0.00021723261
0.00021733363
0.00021742275
0.00021744898
0.00021733987
0.00021722936
0.0002171371
0.00021709324
0.00021696836
0.00021660055
0.00021616571
0.00021570012
0.00021523948
0.00021481442
0.00021444956
0.00021416564
0.00021398222
0.00021391964
0.00021399996
0.00021424619
0.00021468124
0.00021532559
0.00021619097
0.0002172694
0.00021852109
0.00021986967
0.00022121532
0.00022246154
0.00022353762
0.00022440595
0.0002250588
0.00022550991
0.00022566434
0.00022524461
0.00022488926
0.00022462506
0.00022444452
0.00022433886
0.0002242991
0.00022431668
0.00022438362
0.00022447828
0.00021658213
0.00021664081
0.00021671783
0.00021680116
0.00021688946
0.00021698173
0.00021707509
0.00021716655
0.00021725156
0.00021732378
0.00021736694
0.00021730088
0.00021722869
0.00021717975
0.00021711423
0.00021689995
0.00021659952
0.00021624939
0.00021587735
0.00021551196
0.00021517921
0.00021490135
0.00021469787
0.00021458698
0.00021458683
0.000214716
0.00021499277
0.00021543403
0.00021605279
0.00021685313
0.00021782267
0.00021892529
0.00022009977
0.0002212698
0.00022236147
0.00022331824
0.00022410714
0.00022471775
0.00022515706
0.0002254432
0.0002252232
0.00022491239
0.00022467627
0.00022451063
0.00022440948
0.00022436611
0.00022437374
0.00022442567
0.00022450113
0.00021658697
0.00021663919
0.00021671039
0.00021678721
0.00021686781
0.00021695102
0.00021703394
0.00021711367
0.00021718604
0.0002172455
0.00021728497
0.00021726901
0.00021722798
0.00021717786
0.00021706204
0.00021687264
0.00021663159
0.00021635485
0.00021606426
0.00021578293
0.00021553282
0.0002153336
0.0002152029
0.00021515712
0.000215212
0.00021538291
0.00021568399
0.00021612722
0.00021672006
0.00021746159
0.00021833747
0.00021931567
0.00022034681
0.00022137158
0.00022233252
0.00022318427
0.00022389848
0.00022446399
0.00022488365
0.00022517002
0.00022517963
0.00022491324
0.00022470671
0.0002245584
0.00022446464
0.00022442069
0.0002244214
0.00022446136
0.00022452074
0.00021659774
0.00021664669
0.00021671291
0.00021678347
0.00021685669
0.00021693146
0.00021700496
0.00021707455
0.00021713653
0.00021718617
0.00021721772
0.0002172245
0.00021719933
0.00021713539
0.00021702774
0.00021687687
0.00021668875
0.00021647644
0.00021625751
0.00021605085
0.00021587495
0.00021574687
0.00021568213
0.00021569505
0.00021579892
0.00021600611
0.00021632723
0.00021677024
0.00021733848
0.00021802786
0.00021882345
0.00021969722
0.00022060903
0.00022151214
0.00022236135
0.00022312015
0.0002237646
0.00022428389
0.0002246785
0.00022495722
0.00022509778
0.00022489673
0.00022472031
0.0002245908
0.00022450645
0.00022446423
0.00022446049
0.00022449112
0.00022453727
0.00021661389
0.00021665887
0.00021672061
0.0002167858
0.0002168527
0.00021692025
0.00021698581
0.00021704704
0.00021710079
0.00021714319
0.00021716971
0.00021717531
0.00021715489
0.00021710403
0.00021702012
0.00021690506
0.00021676452
0.00021660942
0.00021645417
0.00021631431
0.00021620537
0.00021614191
0.00021613726
0.00021620353
0.00021635163
0.00021659115
0.00021692962
0.00021737175
0.00021791784
0.00021856176
0.00021928878
0.00022007449
0.00022088597
0.000221686
0.00022243871
0.00022311469
0.00022369401
0.00022416691
0.0002245327
0.00022479767