/*--------------------------------*- C++ -*----------------------------------*\
| =========                 |                                                 |
| \\      /  F ield         | foam-extend: Open Source CFD                    |
|  \\    /   O peration     | Version:     4.1                                |
|   \\  /    A nd           | Web:         http://www.foam-extend.org         |
|    \\/     M anipulation  |                                                 |
\*---------------------------------------------------------------------------*/
FoamFile
{
    version     2.0;
    format      ascii;
    class       volVectorField;
    location    "1.9";
    object      U;
}
// * * * * * * * * * * * * * * * * * * * * * * * * * * * * * * * * * * * * * //

dimensions      [0 1 -1 0 0 0 0];

internalField   nonuniform List<vector> 
4393
(
(146.04891 -0.15650311 0)
(146.59751 -0.16293707 0)
(147.0118 -0.16595118 0)
(147.45303 -0.16960189 0)
(147.90408 -0.17400973 0)
(148.36987 -0.17926017 0)
(148.85261 -0.18527504 0)
(149.35445 -0.19190808 0)
(149.87699 -0.19895364 0)
(150.42115 -0.20614868 0)
(150.98695 -0.21317301 0)
(151.57338 -0.21965244 0)
(152.17826 -0.22516761 0)
(152.79806 -0.22926984 0)
(153.42788 -0.23150421 0)
(154.06149 -0.23143741 0)
(154.6914 -0.22868541 0)
(155.30905 -0.22293483 0)
(155.90509 -0.21395407 0)
(156.46957 -0.20159342 0)
(156.99221 -0.18577816 0)
(157.46262 -0.16650074 0)
(157.87046 -0.14381844 0)
(158.20564 -0.11786174 0)
(158.4586 -0.08885687 0)
(158.62065 -0.057159368 0)
(158.68448 -0.023275897 0)
(158.64488 0.012126711 0)
(158.49853 0.047973347 0)
(158.24628 0.082848846 0)
(157.8931 0.11530707 0)
(157.44834 0.14393708 0)
(156.92536 0.16751052 0)
(156.3408 0.18513462 0)
(155.71333 0.1963509 0)
(155.0623 0.20115484 0)
(154.40645 0.199942 0)
(153.76286 0.19340532 0)
(153.14622 0.1824141 0)
(152.56854 0.16790037 0)
(152.03911 0.15076873 0)
(151.56467 0.13183504 0)
(151.14977 0.11179331 0)
(150.79719 0.091217153 0)
(150.50827 0.070610725 0)
(150.28348 0.050432422 0)
(150.12222 0.03083743 0)
(150.02092 0.011723048 0)
(149.97389 -0.0031700357 0)
(149.47195 -0.39491511 0)
(149.94135 -0.40586665 0)
(150.28759 -0.41396632 0)
(150.65758 -0.42450834 0)
(151.03721 -0.43760802 0)
(151.43149 -0.45330119 0)
(151.84275 -0.47131766 0)
(152.27327 -0.49121201 0)
(152.72471 -0.51237186 0)
(153.19808 -0.5340162 0)
(153.69349 -0.55519327 0)
(154.21 -0.57478848 0)
(154.74548 -0.59154921 0)
(155.29645 -0.60413115 0)
(155.85802 -0.61116708 0)
(156.4239 -0.61135098 0)
(156.98653 -0.6035224 0)
(157.53728 -0.58673243 0)
(158.06665 -0.56027815 0)
(158.56461 -0.52370362 0)
(159.02078 -0.47677942 0)
(159.42465 -0.41947968 0)
(159.76578 -0.35197707 0)
(160.03397 -0.27467173 0)
(160.21949 -0.18826526 0)
(160.31345 -0.093876569 0)
(160.30829 0.0068455429 0)
(160.19843 0.11165877 0)
(159.98172 0.21748551 0)
(159.65888 0.32051356 0)
(159.23466 0.41654788 0)
(158.71823 0.50139297 0)
(158.12299 0.57135829 0)
(157.46572 0.62373663 0)
(156.76535 0.65710913 0)
(156.04147 0.67140866 0)
(155.31301 0.66775987 0)
(154.59716 0.64817265 0)
(153.90862 0.61518076 0)
(153.25934 0.57150276 0)
(152.65849 0.51977182 0)
(152.11272 0.46235018 0)
(151.62645 0.40122575 0)
(151.20242 0.33800151 0)
(150.84201 0.27399597 0)
(150.54554 0.21026751 0)
(150.31218 0.14710518 0)
(150.14086 0.084344784 0)
(150.03531 0.02858052 0)
(149.7374 -0.62939424 0)
(150.1916 -0.63857109 0)
(150.52688 -0.65072072 0)
(150.88502 -0.66771143 0)
(151.25285 -0.68939197 0)
(151.63543 -0.71554014 0)
(152.03527 -0.74564634 0)
(152.45474 -0.77895183 0)
(152.89564 -0.81443444 0)
(153.35912 -0.85079269 0)
(153.84545 -0.88643674 0)
(154.35386 -0.91949833 0)
(154.88236 -0.94787009 0)
(155.42758 -0.96928288 0)
(155.98468 -0.98142325 0)
(156.54738 -0.9820798 0)
(157.10806 -0.96929138 0)
(157.65798 -0.94146279 0)
(158.18755 -0.89742275 0)
(158.68661 -0.83642071 0)
(159.14472 -0.75808387 0)
(159.55127 -0.66236965 0)
(159.89571 -0.54955049 0)
(160.16766 -0.42026025 0)
(160.35713 -0.27562123 0)
(160.45481 -0.1174556 0)
(160.45263 0.051464089 0)
(160.34437 0.22725366 0)
(160.1264 0.40485549 0)
(159.79877 0.57802943 0)
(159.36598 0.73967618 0)
(158.8374 0.88259887 0)
(158.22711 1.0004398 0)
(157.55291 1.0885458 0)
(156.83491 1.1445111 0)
(156.09387 1.1682795 0)
(155.34967 1.1618472 0)
(154.62009 1.1287109 0)
(153.9202 1.0732315 0)
(153.26196 1.0000458 0)
(152.6544 0.91360578 0)
(152.10385 0.81786926 0)
(151.61442 0.7161333 0)
(151.18849 0.61100837 0)
(150.82718 0.50451213 0)
(150.53034 0.39807263 0)
(150.29671 0.29220435 0)
(150.12702 0.18720518 0)
(150.02928 0.087413712 0)
(149.82994 -0.85841044 0)
(150.27621 -0.86818745 0)
(150.6069 -0.88443588 0)
(150.96022 -0.90797714 0)
(151.32347 -0.93842285 0)
(151.70182 -0.97532238 0)
(152.09797 -1.0179329 0)
(152.51448 -1.0651977 0)
(152.95337 -1.1157034 0)
(153.41602 -1.1676444 0)
(153.90294 -1.2188008 0)
(154.41358 -1.2665457 0)
(154.94612 -1.3078949 0)
(155.49728 -1.3396143 0)
(156.06222 -1.3583895 0)
(156.63452 -1.3610439 0)
(157.20632 -1.3447634 0)
(157.76854 -1.3072721 0)
(158.31128 -1.2469164 0)
(158.82404 -1.1626501 0)
(159.29607 -1.053956 0)
(159.71652 -0.92075861 0)
(160.07456 -0.76338601 0)
(160.35947 -0.58262589 0)
(160.56076 -0.37990409 0)
(160.66846 -0.15759358 0)
(160.67363 0.080595329 0)
(160.56908 0.32929825 0)
(160.35012 0.58129903 0)
(160.01601 0.82757918 0)
(159.57083 1.0577954 0)
(159.02427 1.2613673 0)
(158.39144 1.4289109 0)
(157.69177 1.5535888 0)
(156.94728 1.6319467 0)
(156.18053 1.6640461 0)
(155.41286 1.6529772 0)
(154.66304 1.6039953 0)
(153.94657 1.5235512 0)
(153.2755 1.4184196 0)
(152.65854 1.2950347 0)
(152.10158 1.1590611 0)
(151.60818 1.015182 0)
(151.1802 0.86707264 0)
(150.81825 0.71749214 0)
(150.52164 0.56832252 0)
(150.28881 0.42059215 0)
(150.12121 0.27534732 0)
(150.02715 0.13502549 0)
(149.93893 -1.0819512 0)
(150.37712 -1.0932732 0)
(150.70247 -1.1137404 0)
(151.05042 -1.1439489 0)
(151.40866 -1.1833394 0)
(151.78248 -1.2312721 0)
(152.1748 -1.2867841 0)
(152.58843 -1.3485308 0)
(153.02569 -1.4147154 0)
(153.48826 -1.4830286 0)
(153.97696 -1.55061 0)
(154.49155 -1.6140457 0)
(155.03045 -1.6694252 0)
(155.5905 -1.7124768 0)
(156.16685 -1.7387961 0)
(156.75287 -1.7441514 0)
(157.34035 -1.7248066 0)
(157.91977 -1.6777734 0)
(158.48071 -1.6009248 0)
(159.01226 -1.4929582 0)
(159.50327 -1.3532578 0)
(159.94259 -1.1817449 0)
(160.31906 -0.97879821 0)
(160.62154 -0.74531092 0)
(160.83897 -0.48292423 0)
(160.96048 -0.19445001 0)
(160.97602 0.11557479 0)
(160.877 0.44040992 0)
(160.65725 0.77075549 0)
(160.31472 1.0946361 0)
(159.85287 1.3980365 0)
(159.28173 1.6664149 0)
(158.61786 1.8868021 0)
(157.88306 2.0498077 0)
(157.10209 2.150839 0)
(156.3001 2.1902448 0)
(155.50046 2.172545 0)
(154.72326 2.1051444 0)
(153.98459 1.9969406 0)
(153.29645 1.8571153 0)
(152.66713 1.6942479 0)
(152.10183 1.5157721 0)
(151.60332 1.3277336 0)
(151.17272 1.1347778 0)
(150.80994 0.94026397 0)
(150.51371 0.74638635 0)
(150.28219 0.55444141 0)
(150.11706 0.36561692 0)
(150.02586 0.18119222 0)
(150.0765 -1.3029522 0)
(150.50473 -1.316311 0)
(150.82325 -1.3411838 0)
(151.16439 -1.3782821 0)
(151.51626 -1.4269417 0)
(151.88434 -1.4863909 0)
(152.27177 -1.5554854 0)
(152.68168 -1.6326267 0)
(153.11674 -1.7156626 0)
(153.57905 -1.8017978 0)
(154.06984 -1.8875303 0)
(154.58926 -1.9686326 0)
(155.13608 -2.0402069 0)
(155.70734 -2.0968456 0)
(156.29815 -2.1329251 0)
(156.90166 -2.143021 0)
(157.50916 -2.1223606 0)
(158.11051 -2.0671802 0)
(158.69463 -1.9748752 0)
(159.25004 -1.843921 0)
(159.76515 -1.673645 0)
(160.22843 -1.4639765 0)
(160.62838 -1.2152995 0)
(160.95342 -0.9284959 0)
(161.19179 -0.60523722 0)
(161.33154 -0.24854665 0)
(161.36114 0.13642655 0)
(161.27019 0.54165366 0)
(161.05038 0.95566292 0)
(160.69783 1.3632373 0)
(160.21494 1.746086 0)
(159.61206 2.084871 0)
(158.90778 2.3622189 0)
(158.12713 2.565659 0)
(157.29869 2.6893639 0)
(156.45114 2.7342636 0)
(155.61059 2.7068419 0)
(154.79876 2.6172573 0)
(154.0324 2.4774006 0)
(153.32335 2.2992808 0)
(152.6792 2.0938992 0)
(152.10416 1.8706078 0)
(151.59994 1.6368621 0)
(151.16662 1.3982513 0)
(150.80317 1.1586716 0)
(150.50754 0.92055095 0)
(150.27748 0.68523028 0)
(150.11443 0.45353893 0)
(150.02513 0.22567262 0)
(150.24334 -1.5149142 0)
(150.66001 -1.5306052 0)
(150.9702 -1.5601516 0)
(151.30295 -1.6044741 0)
(151.64695 -1.6628345 0)
(152.00784 -1.7343729 0)
(152.38908 -1.8178031 0)
(152.79416 -1.911311 0)
(153.2262 -2.0124223 0)
(153.68777 -2.1178783 0)
(154.18068 -2.2235372 0)
(154.7056 -2.3243286 0)
(155.26172 -2.4142956 0)
(155.84639 -2.4867728 0)
(156.45475 -2.5347517 0)
(157.07959 -2.5514358 0)
(157.71159 -2.5308722 0)
(158.33977 -2.4684582 0)
(158.9522 -2.3611392 0)
(159.53666 -2.207262 0)
(160.08104 -2.0062023 0)
(160.57343 -1.7579641 0)
(161.00204 -1.4629236 0)
(161.35486 -1.1218366 0)
(161.61936 -0.73618516 0)
(161.78236 -0.30890384 0)
(161.83045 0.15456441 0)
(161.7509 0.64516276 0)
(161.53251 1.1493553 0)
(161.16872 1.6483687 0)
(160.6602 2.1188356 0)
(160.01761 2.535431 0)
(159.2621 2.8751735 0)
(158.42321 3.1217385 0)
(157.5347 3.267933 0)
(156.62999 3.3156968 0)
(155.73869 3.2742228 0)
(154.88454 3.1572306 0)
(154.08491 2.980297 0)
(153.35126 2.7587554 0)
(152.69012 2.5063234 0)
(152.10436 2.2343968 0)
(151.59425 1.9518478 0)
(151.15854 1.6651477 0)
(150.79505 1.3786514 0)
(150.50078 1.0949553 0)
(150.27284 0.81535703 0)
(150.11214 0.5402885 0)
(150.02456 0.26916614 0)
(150.43876 -1.7254248 0)
(150.84136 -1.7434652 0)
(151.14159 -1.7777067 0)
(151.46429 -1.8293609 0)
(151.79882 -1.8976659 0)
(152.151 -1.9817286 0)
(152.52462 -2.0801783 0)
(152.92363 -2.1910435 0)
(153.35164 -2.3115827 0)
(153.81187 -2.4381149 0)
(154.30677 -2.5658747 0)
(154.83771 -2.6889245 0)
(155.40449 -2.8001672 0)
(156.00487 -2.8915256 0)
(156.63404 -2.9543819 0)
(157.28443 -2.9803111 0)
(157.94585 -2.9619668 0)
(158.60621 -2.8938061 0)
(159.25248 -2.7723583 0)
(159.87151 -2.5959686 0)
(160.45059 -2.3642064 0)
(160.9775 -2.077239 0)
(161.44023 -1.7354147 0)
(161.82644 -1.3392042 0)
(162.12287 -0.88959821 0)
(162.31495 -0.38902449 0)
(162.387 0.15724176 0)
(162.32337 0.7394685 0)
(162.10896 1.3421791 0)
(161.73337 1.942731 0)
(161.19461 2.5116551 0)
(160.50329 3.0159744 0)
(159.68399 3.4253629 0)
(158.77235 3.718553 0)
(157.80918 3.8868748 0)
(156.83421 3.933976 0)
(155.88146 3.8728703 0)
(154.977 3.7219798 0)
(154.13869 3.5015003 0)
(153.37719 3.2307221 0)
(152.6975 2.9264224 0)
(152.10061 2.6021548 0)
(151.58495 2.2681643 0)
(151.14761 1.9316686 0)
(150.78497 1.5973053 0)
(150.49295 1.2676441 0)
(150.26784 0.94373434 0)
(150.10983 0.62551149 0)
(150.02402 0.31173418 0)
(150.6622 -1.9210469 0)
(151.04921 -1.9416744 0)
(151.3379 -1.9810162 0)
(151.64882 -2.0405637 0)
(151.97213 -2.1195453 0)
(152.31386 -2.2170821 0)
(152.67821 -2.3317781 0)
(153.06957 -2.4615706 0)
(153.49223 -2.6035162 0)
(153.9501 -2.7535653 0)
(154.44649 -2.9063539 0)
(154.98363 -3.055055 0)
(155.56214 -3.1913375 0)
(156.18037 -3.3055212 0)
(156.83369 -3.3870816 0)
(157.51404 -3.4256118 0)
(158.21014 -3.4120734 0)
(158.90843 -3.3398552 0)
(159.59436 -3.2051508 0)
(160.25367 -3.0065312 0)
(160.87299 -2.7440156 0)
(161.4399 -2.4181107 0)
(161.94234 -2.0291628 0)
(162.36787 -1.5771914 0)
(162.70264 -1.062322 0)
(162.93057 -0.48592427 0)
(163.03337 0.14754142 0)
(162.99171 0.82827243 0)
(162.78537 1.5392607 0)
(162.3985 2.2537528 0)
(161.82485 2.9348982 0)
(161.07447 3.5397204 0)
(160.17633 4.0279836 0)
(159.17447 4.3718902 0)
(158.11936 4.5612094 0)
(157.05901 4.6023781 0)
(156.03299 4.5138314 0)
(155.0699 4.3202466 0)
(154.18777 4.047633 0)
(153.39582 3.719992 0)
(152.69681 3.3575272 0)
(152.08924 2.9760361 0)
(151.56919 2.5870502 0)
(151.13168 2.1983629 0)
(150.77141 1.8146969 0)
(150.483 1.4383928 0)
(150.2618 1.0700611 0)
(150.10717 0.70902219 0)
(150.02341 0.35333272 0)
(150.91342 -2.1185692 0)
(151.28151 -2.141661 0)
(151.55681 -2.185952 0)
(151.85407 -2.2533026 0)
(152.16427 -2.3429949 0)
(152.49368 -2.4542319 0)
(152.84688 -2.5856733 0)
(153.22883 -2.7352586 0)
(153.64452 -2.8999411 0)
(154.09874 -3.0753919 0)
(154.59583 -3.2557092 0)
(155.13911 -3.4331845 0)
(155.73031 -3.5981747 0)
(156.36862 -3.7391868 0)
(157.04973 -3.8434196 0)
(157.76504 -3.8980082 0)
(158.50184 -3.891805 0)
(159.24453 -3.8169572 0)
(159.97659 -3.6694607 0)
(160.68231 -3.4484636 0)
(161.34765 -3.1548157 0)
(161.96015 -2.789617 0)
(162.50808 -2.3532549 0)
(162.97923 -1.8450846 0)
(163.35941 -1.2638712 0)
(163.63113 -0.60918041 0)
(163.77307 0.1162476 0)
(163.76152 0.90345028 0)
(163.56949 1.7345472 0)
(163.17346 2.5786442 0)
(162.56056 3.390002 0)
(161.7391 4.1123539 0)
(160.74374 4.6917316 0)
(159.63021 5.0914918 0)
(158.46231 5.2998926 0)
(157.29902 5.327888 0)
(156.18666 5.2016843 0)
(155.15645 4.9543352 0)
(154.22587 4.6191779 0)
(153.40177 4.2257839 0)
(152.6837 3.7981176 0)
(152.0669 3.354206 0)
(151.54448 2.9066614 0)
(151.10897 2.4635687 0)
(150.75314 2.0294445 0)
(150.47013 1.606135 0)
(150.25423 1.1935954 0)
(150.1039 0.79039361 0)
(150.02268 0.39378333 0)
(151.19052 -2.2909278 0)
(151.53869 -2.3166144 0)
(151.79897 -2.3662415 0)
(152.0807 -2.442001 0)
(152.37586 -2.5432447 0)
(152.6909 -2.6693227 0)
(153.03086 -2.819042 0)
(153.4013 -2.9904558 0)
(153.808 -3.1805363 0)
(154.2568 -3.3847925 0)
(154.75326 -3.5968715 0)
(155.3021 -3.8082076 0)
(155.90647 -4.0077663 0)
(156.56682 -4.1819868 0)
(157.2794 -4.3152885 0)
(158.03506 -4.3916474 0)
(158.81917 -4.3971562 0)
(159.61335 -4.3224281 0)
(160.39841 -4.1634519 0)
(161.15678 -3.9204804 0)
(161.8738 -3.5957725 0)
(162.53728 -3.1914246 0)
(163.13633 -2.7079979 0)
(163.65952 -2.1439992 0)
(164.09284 -1.4962747 0)
(164.41755 -0.76165499 0)
(164.60906 0.060042387 0)
(164.63843 0.96206695 0)
(164.46998 1.926836 0)
(164.06948 2.9196729 0)
(163.4137 3.8843451 0)
(162.50704 4.7466734 0)
(161.39152 5.433123 0)
(160.13942 5.8947213 0)
(158.83316 6.1185673 0)
(157.54626 6.1228965 0)
(156.33318 5.9451369 0)
(155.2274 5.6295953 0)
(154.2447 5.2188151 0)
(153.3881 4.7488709 0)
(152.6527 4.2477365 0)
(152.02945 3.7355086 0)
(151.50782 3.2255276 0)
(151.07742 2.7257651 0)
(150.72878 2.240148 0)
(150.45347 1.7696993 0)
(150.24464 1.3134606 0)
(150.09983 0.86906702 0)
(150.02177 0.43282067 0)
(151.495 -2.473847 0)
(151.81881 -2.5022076 0)
(152.06189 -2.5571314 0)
(152.32589 -2.6412536 0)
(152.60372 -2.7540736 0)
(152.90202 -2.8951698 0)
(153.22624 -3.0636017 0)
(153.58259 -3.2576677 0)
(153.97774 -3.4745124 0)
(154.41873 -3.7096427 0)
(154.9126 -3.9563897 0)
(155.4658 -4.2054056 0)
(156.08339 -4.4442307 0)
(156.76758 -4.6569904 0)
(157.5157 -4.8247244 0)
(158.31802 -4.9273128 0)
(159.15739 -4.947181 0)
(160.01159 -4.873047 0)
(160.85765 -4.7012969 0)
(161.67565 -4.4342101 0)
(162.45029 -4.0764148 0)
(163.1702 -3.6316435 0)
(163.826 -3.100851 0)
(164.4079 -2.4814782 0)
(164.90281 -1.7677071 0)
(165.29123 -0.95231753 0)
(165.54522 -0.030495094 0)
(165.62896 0.99513333 0)
(165.49755 2.1090147 0)
(165.10113 3.27414 0)
(164.40039 4.4222934 0)
(163.39185 5.4549436 0)
(162.12684 6.2698951 0)
(160.70162 6.8004547 0)
(159.22515 7.0336168 0)
(157.79022 6.9993754 0)
(156.46075 6.7514827 0)
(155.27147 6.3493626 0)
(154.23446 5.8470166 0)
(153.3469 5.2879288 0)
(152.59774 4.7041193 0)
(151.97246 4.1173426 0)
(151.4561 3.5410931 0)
(151.0349 2.9826579 0)
(150.69697 2.4448802 0)
(150.4322 1.9275659 0)
(150.23259 1.4285512 0)
(150.09477 0.94433407 0)
(150.02066 0.47010104 0)
(151.82146 -2.6141389 0)
(152.12077 -2.6447339 0)
(152.34509 -2.7047751 0)
(152.58943 -2.7972817 0)
(152.84783 -2.9219238 0)
(153.12707 -3.0786026 0)
(153.43305 -3.2667714 0)
(153.7726 -3.485159 0)
(154.15339 -3.7313091 0)
(154.58379 -4.0009773 0)
(155.0726 -4.2874162 0)
(155.62841 -4.5806717 0)
(156.25872 -4.8669205 0)
(156.96828 -5.1277799 0)
(157.7562 -5.3401846 0)
(158.61236 -5.4785696 0)
(159.51623 -5.5202349 0)
(160.44012 -5.4513023 0)
(161.35575 -5.2690062 0)
(162.24006 -4.9788647 0)
(163.07735 -4.5890853 0)
(163.85785 -4.1057329 0)
(164.57482 -3.5303251 0)
(165.22129 -2.8589952 0)
(165.78632 -2.082477 0)
(166.25048 -1.1879778 0)
(166.58259 -0.16396154 0)
(166.73937 0.99331681 0)
(166.66425 2.2730487 0)
(166.28651 3.6388211 0)
(165.54187 5.0097655 0)
(164.4117 6.2542097 0)
(162.95882 7.2267828 0)
(161.31517 7.834362 0)
(159.62819 8.0664496 0)
(158.01628 7.972103 0)
(156.55373 7.6289828 0)
(155.2743 7.1167405 0)
(154.18321 6.5034063 0)
(153.26888 5.840577 0)
(152.51197 5.1639724 0)
(151.89107 4.496214 0)
(151.38601 3.8500797 0)
(150.97926 3.2313952 0)
(150.65637 2.6413001 0)
(150.40553 2.0779191 0)
(150.21767 1.5375567 0)
(150.08855 1.0153529 0)
(150.01929 0.50521309 0)
(152.17467 -2.7815922 0)
(152.44373 -2.8153307 0)
(152.64677 -2.8812287 0)
(152.8689 -2.9828179 0)
(153.10518 -3.1200361 0)
(153.36238 -3.2932099 0)
(153.64676 -3.502321 0)
(153.9658 -3.7467029 0)
(154.32816 -4.0245174 0)
(154.74376 -4.3320236 0)
(155.22344 -4.662643 0)
(155.77838 -5.0059963 0)
(156.41924 -5.3469681 0)
(157.1544 -5.6644694 0)
(157.98598 -5.930401 0)
(158.90398 -6.111766 0)
(159.88346 -6.1784313 0)
(160.88889 -6.1128295 0)
(161.88437 -5.9139421 0)
(162.84262 -5.5927862 0)
(163.74793 -5.1634751 0)
(164.59334 -4.6359134 0)
(165.37601 -4.0129028 0)
(166.09332 -3.2894587 0)
(166.73807 -2.4522329 0)
(167.29223 -1.4808918 0)
(167.72184 -0.35405643 0)
(167.97574 0.94198632 0)
(167.98398 2.4052862 0)
(167.64862 4.0054602 0)
(166.867 5.6507766 0)
(165.59199 7.1649912 0)
(163.89972 8.3359292 0)
(161.97665 9.0292319 0)
(160.02752 9.2430035 0)
(158.20442 9.0573586 0)
(156.59183 8.5851838 0)
(155.21816 7.9329369 0)
(154.07683 7.1853522 0)
(153.14355 6.4023119 0)
(152.38796 5.622235 0)
(151.78027 4.8672695 0)
(151.29427 4.1482189 0)
(150.90845 3.4684337 0)
(150.60573 2.8265985 0)
(150.37276 2.2186345 0)
(150.19952 1.6389682 0)
(150.08103 1.081161 0)
(150.01763 0.53768713 0)
(152.5418 -2.8798072 0)
(152.78152 -2.9149436 0)
(152.96178 -2.9850764 0)
(153.15973 -3.0941265 0)
(153.37161 -3.2422896 0)
(153.60418 -3.4304023 0)
(153.86399 -3.6591345 0)
(154.15912 -3.9286679 0)
(154.49928 -4.2381285 0)
(154.89602 -4.5847347 0)
(155.36255 -4.9625985 0)
(155.91317 -5.3614204 0)
(156.56249 -5.7652546 0)
(157.32393 -6.1505917 0)
(158.20451 -6.4836698 0)
(159.19544 -6.7216473 0)
(160.26587 -6.8236397 0)
(161.36871 -6.7667781 0)
(162.45663 -6.5532265 0)
(163.49646 -6.2027942 0)
(164.4732 -5.7384038 0)
(165.38455 -5.1748458 0)
(166.23364 -4.5157976 0)
(167.02423 -3.7542598 0)
(167.75555 -2.8713253 0)
(168.41349 -1.836266 0)
(168.96246 -0.61391598 0)
(169.34328 0.8233628 0)
(169.47199 2.4868618 0)
(169.21628 4.3601551 0)
(168.41527 6.3472031 0)
(166.96901 8.213762 0)
(164.96626 9.6418732 0)
(162.67949 10.429061 0)
(160.40122 10.595943 0)
(158.32695 10.273418 0)
(156.5486 9.6265322 0)
(155.08116 8.7966218 0)
(153.89884 7.8873955 0)
(152.95927 6.9661123 0)
(152.21794 6.0718532 0)
(151.63504 5.224191 0)
(151.17781 4.4302218 0)
(150.82062 3.6895465 0)
(150.54402 2.9975244 0)
(150.33333 2.3473099 0)
(150.17788 1.7311068 0)
(150.07212 1.1406975 0)
(150.01568 0.5670075 0)
(152.937 -3.0310679 0)
(153.1405 -3.0701534 0)
(153.29542 -3.1468638 0)
(153.46666 -3.2656876 0)
(153.65136 -3.4272523 0)
(153.856 -3.6331088 0)
(154.08728 -3.8848693 0)
(154.35371 -4.1838771 0)
(154.66595 -4.5306109 0)
(155.03723 -4.9237305 0)
(155.48342 -5.3585644 0)
(156.0224 -5.8253299 0)
(156.67364 -6.3075779 0)
(157.45741 -6.7795885 0)
(158.3887 -7.2009762 0)
(159.46227 -7.5149687 0)
(160.63986 -7.6635514 0)
(161.85729 -7.6146533 0)
(163.05023 -7.3750309 0)
(164.17756 -6.978147 0)
(165.22682 -6.4605288 0)
(166.20377 -5.8441688 0)
(167.12002 -5.1345014 0)
(167.98793 -4.32396 0)
(168.81606 -3.3897383 0)
(169.59719 -2.290069 0)
(170.29527 -0.97230242 0)
(170.84294 0.61051581 0)
(171.1435 2.4900845 0)
(171.025 4.6786407 0)
(170.24135 7.0944228 0)
(168.59609 9.4336071 0)
(166.18202 11.207695 0)
(163.41156 12.093516 0)
(160.71649 12.166126 0)
(158.34554 11.639642 0)
(156.38986 10.756598 0)
(154.83681 9.7022111 0)
(153.63054 8.5999695 0)
(152.7037 7.5216298 0)
(151.99418 6.50334 0)
(151.45079 5.5590007 0)
(151.034 4.6897254 0)
(150.71437 3.8898417 0)
(150.4705 3.1504298 0)
(150.2869 2.4613148 0)
(150.1526 1.8121671 0)
(150.06175 1.1928348 0)
(150.01342 0.59262906 0)
(153.3317 -3.0768215 0)
(153.50079 -3.1160461 0)
(153.62883 -3.1954274 0)
(153.77116 -3.3198166 0)
(153.92601 -3.4901486 0)
(154.09949 -3.7086338 0)
(154.2983 -3.9778259 0)
(154.5313 -4.3003121 0)
(154.80997 -4.6781522 0)
(155.14932 -5.1119174 0)
(155.56819 -5.598897 0)
(156.08872 -6.1306965 0)
(156.73615 -6.6913542 0)
(157.53983 -7.2543997 0)
(158.52747 -7.773589 0)
(159.70197 -8.1744043 0)
(161.01592 -8.3732874 0)
(162.37904 -8.3244815 0)
(163.70037 -8.0441423 0)
(164.92694 -7.5894053 0)
(166.05132 -7.0193751 0)
(167.09189 -6.3662337 0)
(168.07141 -5.6359615 0)
(169.01247 -4.8188774 0)
(169.93707 -3.8863991 0)
(170.85098 -2.7790365 0)
(171.72206 -1.4148964 0)
(172.47719 0.28402896 0)
(173.01213 2.3776572 0)
(173.11574 4.9213721 0)
(172.4203 7.8764316 0)
(170.55374 10.86663 0)
(167.58159 13.127288 0)
(164.15061 14.105413 0)
(160.92371 14.004718 0)
(158.20685 13.174876 0)
(156.07174 11.973502 0)
(154.45369 10.637661 0)
(153.25145 9.3079422 0)
(152.36449 8.0543967 0)
(151.70971 6.9044355 0)
(151.22386 5.8619805 0)
(150.86106 4.9193366 0)
(150.58892 4.063852 0)
(150.38491 3.2813663 0)
(150.23339 2.5578744 0)
(150.12367 1.8802815 0)
(150.04994 1.2364218 0)
(150.01084 0.61399877 0)
(153.75571 -3.2105266 0)
(153.8827 -3.2554294 0)
(153.98165 -3.3424581 0)
(154.093 -3.4770464 0)
(154.21572 -3.6607006 0)
(154.35517 -3.896685 0)
(154.51782 -4.1890283 0)
(154.7125 -4.5422733 0)
(154.9512 -4.960996 0)
(155.25031 -5.4489285 0)
(155.63167 -6.0069152 0)
(156.12195 -6.6295684 0)
(156.75264 -7.3027548 0)
(157.5642 -8.0010806 0)
(158.60367 -8.6739672 0)
(159.89076 -9.2230096 0)
(161.36801 -9.5216787 0)
(162.90497 -9.4971932 0)
(164.369 -9.1778158 0)
(165.69042 -8.6551806 0)
(166.87324 -8.0208158 0)
(167.9584 -7.3168804 0)
(168.98529 -6.5442243 0)
(169.98919 -5.6889822 0)
(171.01176 -4.72152 0)
(172.08124 -3.5675578 0)
(173.17388 -2.115435 0)
(174.20833 -0.25761095 0)
(175.0662 2.0891967 0)
(175.52435 5.0320943 0)
(175.04922 8.6560109 0)
(172.96251 12.558851 0)
(169.2155 15.541395 0)
(164.85468 16.579552 0)
(160.94682 16.174538 0)
(157.83668 14.893693 0)
(155.53883 13.265534 0)
(153.89572 11.581249 0)
(152.74048 9.9887654 0)
(151.93042 8.5449853 0)
(151.35921 7.2598598 0)
(150.95215 6.1217135 0)
(150.65849 5.1107848 0)
(150.44443 4.2057068 0)
(150.28758 3.3862368 0)
(150.17313 2.6341885 0)
(150.0913 1.9336055 0)
(150.03677 1.2703385 0)
(150.00798 0.63058248 0)
(154.13605 -3.1946843 0)
(154.22232 -3.2378844 0)
(154.29035 -3.3244974 0)
(154.368 -3.4608664 0)
(154.45499 -3.6490481 0)
(154.55573 -3.8932524 0)
(154.67607 -4.1987676 0)
(154.82447 -4.5717858 0)
(155.01296 -5.0190304 0)
(155.25901 -5.547113 0)
(155.58752 -6.1605162 0)
(156.03059 -6.8571996 0)
(156.62674 -7.6250428 0)
(157.42962 -8.44149 0)
(158.51562 -9.2566525 0)
(159.93817 -9.9451276 0)
(161.63229 -10.313346 0)
(163.40429 -10.243866 0)
(165.05399 -9.7924401 0)
(166.48648 -9.1123317 0)
(167.72733 -8.3536262 0)
(168.85533 -7.5750135 0)
(169.93072 -6.7696469 0)
(170.99655 -5.9226862 0)
(172.11531 -5.0183211 0)
(173.34769 -3.9702062 0)
(174.68408 -2.6195341 0)
(176.03285 -0.79604398 0)
(177.28227 1.6461409 0)
(178.24496 4.9155043 0)
(178.21499 9.327415 0)
(175.98298 14.535075 0)
(171.15291 18.674781 0)
(165.44355 19.685651 0)
(160.66921 18.7535 0)
(157.13224 16.799786 0)
(154.72271 14.604304 0)
(153.12358 12.497228 0)
(152.07795 10.610398 0)
(151.39325 8.9683329 0)
(150.94035 7.5513239 0)
(150.63596 6.3253538 0)
(150.42751 5.2552381 0)
(150.28221 4.3094102 0)
(150.1796 3.4610115 0)
(150.10684 2.6875876 0)
(150.05591 1.9704242 0)
(150.02242 1.2935616 0)
(150.00486 0.64189641 0)
(154.44919 -3.3022436 0)
(154.48553 -3.3566765 0)
(154.51867 -3.4545578 0)
(154.55836 -3.6033113 0)
(154.60489 -3.8054409 0)
(154.66138 -4.0662392 0)
(154.73287 -4.3925664 0)
(154.8271 -4.7929239 0)
(154.9556 -5.2773972 0)
(155.13608 -5.8576187 0)
(155.39588 -6.5454532 0)
(155.77245 -7.3477092 0)
(156.31062 -8.2600561 0)
(157.07567 -9.269763 0)
(158.18318 -10.341524 0)
(159.74878 -11.32779 0)
(161.70942 -11.924416 0)
(163.76893 -11.91901 0)
(165.61627 -11.407345 0)
(167.11993 -10.628195 0)
(168.34711 -9.8215683 0)
(169.4433 -9.0578137 0)
(170.49719 -8.2998025 0)
(171.55036 -7.5092543 0)
(172.6926 -6.6866494 0)
(174.04808 -5.7210466 0)
(175.64975 -4.3714246 0)
(177.40805 -2.3761549 0)
(179.22603 0.47500455 0)
(181.00095 4.3266756 0)
(181.86787 9.7701123 0)
(179.76962 16.835899 0)
(173.45904 22.958844 0)
(165.74646 23.683942 0)
(159.90418 21.828244 0)
(155.95015 18.8696 0)
(153.54168 15.933056 0)
(152.09817 13.330043 0)
(151.24923 11.129249 0)
(150.75032 9.2935196 0)
(150.45537 7.7579929 0)
(150.27891 6.4592246 0)
(150.17159 5.3438272 0)
(150.10503 4.3692396 0)
(150.06289 3.5020104 0)
(150.03575 2.7157247 0)
(150.01815 1.9892751 0)
(150.00716 1.305238 0)
(150.00155 0.64754184 0)
(154.38533 -3.2264179 0)
(154.36105 -3.2763527 0)
(154.3521 -3.3656609 0)
(154.3455 -3.5056678 0)
(154.34211 -3.7001677 0)
(154.34316 -3.95607 0)
(154.35204 -4.2822219 0)
(154.37467 -4.6898348 0)
(154.42052 -5.1926658 0)
(154.50531 -5.8074376 0)
(154.6565 -6.5534308 0)
(154.91619 -7.4463614 0)
(155.33503 -8.4870436 0)
(155.98636 -9.6663773 0)
(157.03632 -10.96969 0)
(158.71812 -12.239141 0)
(161.00763 -12.990437 0)
(163.44222 -12.819339 0)
(165.5246 -11.932082 0)
(167.06705 -10.721698 0)
(168.21042 -9.6087242 0)
(169.22024 -8.6681899 0)
(170.23033 -7.7968582 0)
(171.25941 -6.8994961 0)
(172.42043 -6.0540226 0)
(173.9375 -5.1960364 0)
(175.90349 -4.0102183 0)
(178.21011 -2.1967255 0)
(180.68135 0.51389625 0)
(183.37349 4.0150884 0)
(185.59556 9.8510423 0)
(184.21841 19.141187 0)
(175.99468 28.862674 0)
(165.32563 28.721168 0)
(158.34141 25.418841 0)
(154.09603 21.018269 0)
(151.90623 17.149375 0)
(150.78834 13.99786 0)
(150.25051 11.48896 0)
(150.0081 9.4845484 0)
(149.913 7.8576872 0)
(149.88886 6.5098658 0)
(149.8968 5.3684142 0)
(149.91719 4.3802675 0)
(149.94031 3.5062437 0)
(149.96157 2.7167902 0)
(149.97892 1.9890814 0)
(149.99135 1.3047612 0)
(149.99812 0.64724046 0)
(153.47562 -3.2561464 0)
(153.37707 -3.3298685 0)
(153.3098 -3.4386814 0)
(153.23684 -3.598796 0)
(153.16068 -3.8143004 0)
(153.0802 -4.0930034 0)
(152.9965 -4.444699 0)
(152.91281 -4.8820138 0)
(152.83545 -5.4208797 0)
(152.77659 -6.0815723 0)
(152.76203 -6.8904598 0)
(152.83889 -7.8764322 0)
(153.06518 -9.0553772 0)
(153.5126 -10.434093 0)
(154.39403 -12.057057 0)
(156.14056 -13.846321 0)
(158.84972 -15.094561 0)
(161.75877 -14.978283 0)
(164.04126 -13.95227 0)
(165.4347 -12.558963 0)
(166.2282 -11.491811 0)
(166.92115 -10.755728 0)
(167.71743 -10.14928 0)
(168.53753 -9.4729115 0)
(169.45582 -9.0181182 0)
(170.8671 -8.8483425 0)
(172.96926 -8.2920727 0)
(175.65777 -7.0428879 0)
(178.57214 -4.4765408 0)
(182.42925 -0.72728656 0)
(187.15837 7.2307621 0)
(188.24554 20.22846 0)
(177.92811 36.681017 0)
(163.24698 34.969182 0)
(155.5947 29.536025 0)
(151.35119 23.102771 0)
(149.73667 18.092279 0)
(149.1848 14.388251 0)
(149.09723 11.621617 0)
(149.18648 9.5029383 0)
(149.33031 7.8291532 0)
(149.47858 6.4656242 0)
(149.61204 5.3226078 0)
(149.72459 4.3389819 0)
(149.81557 3.4717836 0)
(149.88647 2.6897333 0)
(149.93934 1.9692807 0)
(149.97543 1.2918428 0)
(149.99467 0.64086708 0)
(150.27863 -3.1552733 0)
(150.03199 -3.221349 0)
(149.86065 -3.3060108 0)
(149.67255 -3.4358336 0)
(149.47247 -3.6160342 0)
(149.25558 -3.8554406 0)
(149.01944 -4.164914 0)
(148.76262 -4.5592254 0)
(148.48549 -5.0584058 0)
(148.19177 -5.6900239 0)
(147.89693 -6.4944162 0)
(147.64243 -7.5277619 0)
(147.48317 -8.8431642 0)
(147.45914 -10.47125 0)
(147.78384 -12.507498 0)
(149.20302 -15.035361 0)
(152.18258 -17.053637 0)
(155.43127 -16.589296 0)
(157.58612 -14.746111 0)
(158.33641 -12.183413 0)
(158.23481 -10.348611 0)
(158.16907 -9.1900957 0)
(158.40395 -8.4349971 0)
(158.60248 -7.5247235 0)
(158.7187 -7.0237409 0)
(159.66762 -7.0176085 0)
(161.78111 -5.9947753 0)
(164.9496 -4.8735741 0)
(168.68333 -1.9567582 0)
(175.06205 4.1667689 0)
(184.04685 12.175427 0)
(189.65394 24.095423 0)
(176.92312 49.629289 0)
(157.54552 45.387756 0)
(150.91436 34.317493 0)
(147.40324 24.793043 0)
(146.95732 18.491088 0)
(147.31608 14.349932 0)
(147.83444 11.452155 0)
(148.32309 9.3129354 0)
(148.73401 7.6556607 0)
(149.06588 6.3187846 0)
(149.32881 5.2029537 0)
(149.53445 4.2439404 0)
(149.69303 3.3981229 0)
(149.81295 2.6344598 0)
(149.90068 1.9299338 0)
(149.95989 1.266571 0)
(149.99131 0.62847534 0)
(143.5099 -2.9198306 0)
(143.10988 -3.0121956 0)
(142.7997 -3.1137209 0)
(142.45147 -3.2633186 0)
(142.07688 -3.4659041 0)
(141.66672 -3.7316158 0)
(141.21291 -4.072774 0)
(140.70609 -4.5065437 0)
(140.13585 -5.0566928 0)
(139.49025 -5.7559258 0)
(138.76263 -6.6519195 0)
(137.9755 -7.8156651 0)
(137.1823 -9.3207364 0)
(136.39284 -11.178056 0)
(135.76002 -13.444286 0)
(136.50383 -16.540631 0)
(140.14375 -19.656621 0)
(144.25782 -18.174216 0)
(146.43868 -15.446606 0)
(146.26446 -11.967125 0)
(144.63854 -10.768955 0)
(143.25525 -10.900713 0)
(142.63847 -11.370307 0)
(142.04298 -10.884862 0)
(141.16557 -10.369092 0)
(141.99169 -10.532127 9.2157638e-18)
(143.27221 -11.921784 -2.0396844e-19)
(145.57723 -13.589582 0)
(146.66475 -7.4755416 1.0016059e-17)
(144.02819 -14.510049 -7.4990572e-18)
(161.53016 -10.135072 4.427327e-18)
(180.41242 5.43838 -9.8916338e-18)
(167.93164 72.289478 6.3471681e-18)
(142.12824 58.029202 0)
(140.66652 37.126136 0)
(141.63428 24.706911 0)
(143.57067 17.830763 0)
(145.29833 13.692632 0)
(146.55469 10.912842 0)
(147.47727 8.8913 0)
(148.16032 7.3301353 0)
(148.67269 6.068065 0)
(149.06042 5.0101262 0)
(149.35481 4.096341 0)
(149.57745 3.2864542 0)
(149.74366 2.5519708 0)
(149.86425 1.8717952 0)
(149.94526 1.2294441 0)
(149.98814 0.61031246 0)
(129.54798 -2.8693179 0)
(128.76407 -2.9446614 0)
(128.16035 -3.0084962 0)
(127.48607 -3.1100054 0)
(126.76115 -3.2511124 0)
(125.96655 -3.4389906 0)
(125.08409 -3.6816061 0)
(124.09071 -3.9906538 0)