/*--------------------------------*- C++ -*----------------------------------*\
| =========                 |                                                 |
| \\      /  F ield         | foam-extend: Open Source CFD                    |
|  \\    /   O peration     | Version:     4.1                                |
|   \\  /    A nd           | Web:         http://www.foam-extend.org         |
|    \\/     M anipulation  |                                                 |
\*---------------------------------------------------------------------------*/
FoamFile
{
    version     2.0;
    format      ascii;
    class       volScalarField;
    location    "0.1";
    object      p;
}
// * * * * * * * * * * * * * * * * * * * * * * * * * * * * * * * * * * * * * //

dimensions      [0 2 -2 0 0 0 0];

internalField   nonuniform List<scalar> 
4242
(
-7740.7132
-7536.7582
-7217.1127
-6844.3218
-6409.5187
-5909.8735
-5341.851
-4705.8687
-4007.4728
-3258.8355
-2479.0429
-1692.9813
-930.56983
-228.41314
385.87484
977.63393
-9995.5129
-9758.0794
-9358.2999
-8901.1773
-8385.0586
-7811.0558
-7179.2672
-6492.5914
-5756.4588
-4979.6321
-4174.5478
-3357.2339
-2547.4255
-1771.5709
-1059.6312
-409.34042
-12593.616
-12339.758
-11888.878
-11376.901
-10800.269
-10157.773
-9449.4929
-8679.3149
-7854.1988
-6984.6343
-6084.4829
-5170.9133
-4262.7961
-3380.9829
-2547.5557
-1789.1806
-14824.699
-14582.744
-14108.85
-13562.895
-12947.812
-12259.309
-11496.856
-10664.046
-9767.9507
-8819.9524
-7835.4578
-6833.2837
-5833.8619
-4858.9357
-3928.463
-3062.7311
-15471.383
-15266.853
-14818.123
-14285.215
-13690.947
-13028.878
-12296.833
-11496.697
-10633.261
-9715.2528
-8755.5385
-7770.2097
-6777.9505
-5799.1817
-4851.6066
-3930.9034
-13817.238
-13693.333
-13356.797
-12924.187
-12444.448
-11916.389
-11335.932
-10702.437
-10016.611
-9281.7482
-8504.6015
-7694.6389
-6863.8471
-6026.5661
-5200.2194
-4387.328
-10666.775
-10603.792
-10431.704
-10174.708
-9872.6977
-9539.4494
-9177.4649
-8785.965
-8361.6208
-7900.0898
-7398.8528
-6858.4225
-6283.0606
-5680.4714
-5063.5134
-4434.1888
-7930.9946
-7901.2536
-7837.6624
-7709.4485
-7532.7711
-7333.2868
-7114.14
-6878.6218
-6629.9447
-6366.0373
-6081.493
-5770.9402
-5431.8718
-5064.9826
-4676.0883
-4266.6361
-6495.0822
-6474.6532
-6439.0006
-6396.8153
-6320.3512
-6171.6424
-5974.1346
-5768.3113
-5551.6201
-5323.3878
-5091.2902
-4863.0227
-4643.8209
-4434.4467
-4231.6095
-4024.4235
-5555.2154
-5548.8468
-5537.3652
-5523.4468
-5518.8354
-5518.8349
-5472.0744
-5318.3227
-5084.6818
-4820.9362
-4530.9481
-4258.982
-4049.5787
-3915.8875
-3844.3568
-3817.5563
-4425.7943
-4431.3169
-4440.6165
-4454.0042
-4468.1061
-4472.2468
-4473.1053
-4439.0901
-4297.5112
-3932.2531
-3517.5265
-3234.9476
-3191.9731
-3264.4094
-3347.2431
-3423.4028
-4017.0573
-4024.2812
-4041.1992
-4054.3508
-4052.5793
-4019.6822
-3937.2787
-3783.5391
-3581.2151
-3393.474
-3162.6588
-2881.5522
-2952.9718
-3207.1252
-3321.4665
-3270.0545
-2645.6496
-2480.4862
-2228.3917
-1947.5466
-1634.8027
-1290.8299
-919.04763
-525.25101
-118.08651
291.02945
688.3866
1058.6563
1384.2891
1645.1716
1843.364
2038.7363
2418.0446
2521.457
2680.4548
2855.5777
3045.8609
3249.4932
3462.253
3677.9068
3887.8551
4081.1351
4244.915
4365.3212
4427.3367
4414.7085
4319.9375
4177.8499
7103.4022
7157.562
7241.0266
7329.2531
7418.3707
7504.5183
7581.7006
7642.0693
7675.9376
7672.1586
7618.9818
7504.9474
7318.4763
7048.3958
6697.8534
6321.3834
10820.238
10837.481
10862.859
10883.011
10892.602
10886.097
10856.097
10793.483
10687.635
10527.049
10300.364
9997.0686
9606.7601
9120.5777
8549.208
7960.7509
13228.825
13227.146
13220.863
13202.218
13165.274
13103.365
13008.154
12869.752
12677.089
12418.704
12083.818
11662.835
11146.547
10531.049
9847.0008
9201.1368
-17164.572
-16885.078
-16402.512
-15855.45
-15236.498
-14544.49
-13778.648
-12942.118
-12041.299
-11086.219
-10090.304
-9069.6072
-8041.7054
-7026.6205
-6049.9742
-5145.507
13910.897
13902.499
13885.332
13854.883
13805.854
13731.756
13624.633
13475.111
13272.687
13006.375
12665.732
12242.051
11729.714
11127.215
10442.852
9709.5867
14090.675
14081.783
14063.621
14031.707
13980.829
13904.642
13795.405
13644.031
13440.354
13173.708
12833.858
12412.056
11902.162
11303.185
10626.835
9909.5034
13736.598
13733.781
13725.725
13705.323
13666.776
13603.496
13507.267
13368.333
13175.758
12918.187
12584.864
12165.964
11652.071
11039.542
10360.652
9719.9562
11694.68
11709.635
11731.669
11748.483
11754.812
11745.134
11712.09
11646.587
11537.985
11374.722
11145.346
10838.884
10443.052
9945.6384
9362.1767
8792.0202
8443.314
8493.19
8570.4872
8652.1824
8734.2704
8812.7557
8881.5166
8932.5646
8956.0613
8940.7632
8874.9929
8747.0549
8543.0066
8246.3428
7870.3508
7537.1697
4366.62
4462.4806
4610.9554
4774.3483
4951.073
5138.7924
5332.7666
5526.3175
5710.6043
5874.8038
6006.7957
6093.8069
6121.6678
6075.2076
5951.395
5775.7825
1.7768123
153.39359
386.94248
645.53955
930.87153
1241.3086
1572.6078
1918.5315
2270.6982
2618.7135
2950.5926
3253.043
3509.7335
3701.5936
3830.6995
3959.7647
-15974.799
-15950.515
-15901.138
-15846.323
-15798.175
-15761.816
-15740.713
-15774.141
-15891.209
-16087.35
-16465.52
-16473.663
-15957.834
-15024.849
-13783.206
-12278.565
-15582.996
-15573.931
-15542.84
-15483.165
-15400.207
-15320.998
-15256.81
-15165.636
-15016.276
-14856.472
-14711.155
-14494.641
-14106.424
-13496.04
-12662.708
-11645.369
-15690.464
-15686.839
-15667.229
-15637.006
-15592.208
-15479.37
-15268.09
-15014.645
-14762.137
-14489.706
-14174.566
-13798.699
-13330.904
-12739.058
-12005.613
-11137.461
-16485.585
-16478.459
-16455.145
-16379.17
-16218.13
-15998.763
-15738.166
-15427.762
-15068.283
-14664.314
-14211.879
-13698.935
-13108.6
-12424.275
-11633.656
-10740.439
-18318.561
-18281.974
-18163.951
-17944.754
-17651.368
-17298.213
-16891.515
-16434.7
-15926.037
-15359.686
-14728.333
-14025.008
-13244.429
-12384.237
-11443.912
-10438.718
-20956.84
-20864.364
-20581.29
-20169.187
-19683.102
-19133.322
-18519.228
-17839.294
-17090.798
-16271.515
-15381.508
-14423.959
-13405.03
-12333.655
-11219.539
-10081.666
-22826.13
-22639.38
-22194.565
-21637.904
-21007.195
-20297.553
-19505.272
-18629.753
-17671.924
-16635.967
-15530.132
-14366.456
-13159.931
-11927.602
-10686.599
-9460.8645
-22811.274
-22557.36
-22033.851
-21415.77
-20716.102
-19928.1
-19048.869
-18079.199
-17023.089
-15889.194
-14691.028
-13446.33
-12175.799
-10901.256
-9641.2859
-8406.2618
-20740.211
-20458.474
-19930.26
-19322.285
-18632.532
-17857.378
-16995.515
-16049.54
-15025.369
-13933.1
-12787.312
-11606.608
-10412.19
-9226.1867
-8070.5412
-6981.9073
-13630.233
-13363.516
-12931.11
-12440.688
-11889.193
-11277.727
-10606.573
-9878.6154
-9098.7945
-8274.6733
-7416.8319
-6538.9361
-5658.4293
-4800.7344
-3998.2984
-3240.2332
-10651.21
-10431.303
-10095.353
-9707.7018
-9258.4329
-8744.6994
-8162.7317
-7511.9841
-6796.1008
-6024.6728
-5214.1091
-4387.2157
-3573.0854
-2809.7774
-2129.6337
-1468.3674
-4848.6637
-4850.0135
-4845.3815
-4835.0606
-4805.7104
-4746.5593
-4652.429
-4520.919
-4350.0889
-4138.328
-3885.6191
-3604.4778
-3275.6607
-2994.021
-2805.2851
-2749.9584
-5370.9749
-5368.2582
-5363.5649
-5351.4658
-5325.4989
-5281.4595
-5218.011
-5133.3975
-5024.8747
-4889.3573
-4724.253
-4529.1181
-4308.9727
-4078.8135
-3966.0528
-4069.3134
-5973.0598
-5968.7332
-5962.1645
-5951.7593
-5937.2245
-5917.8479
-5892.1196
-5858.3805
-5815.1413
-5761.4244
-5697.5997
-5626.89
-5558.2326
-5511.4214
-5527.0853
-5668.7509
-6562.0493
-6559.8559
-6554.6143
-6547.278
-6539.2609
-6530.947
-6522.6708
-6515.187
-6509.6797
-6507.9458
-6512.8029
-6529.007
-6565.3219
-6638.5835
-6780.7702
-7054.0595
-6991.9207
-6993.9422
-6997.3451
-7002.6433
-7010.9946
-7023.7081
-7042.2957
-7068.6317
-7104.7621
-7152.7451
-7214.4145
-7291.3729
-7385.5913
-7501.8247
-7652.6717
-7880.7634
-7502.7721
-7508.4789
-7518.9504
-7535.3661
-7560.1155
-7595.5184
-7643.8362
-7707.5132
-7788.62
-7888.0176
-8003.9548
-8130.1656
-8253.9213
-8352.8728
-8404.6139
-8419.1474
-8663.997
-8669.9801
-8681.0116
-8698.9946
-8727.0365
-8769.6137
-8830.2471
-8912.8918
-9021.2311
-9156.3261
-9310.1321
-9462.01
-9574.1769
-9593.7024
-9462.1818
-9184.8843
-10584.11
-10590.856
-10606.459
-10634.86
-10678.816
-10741.939
-10828.035
-10939.759
-11077.293
-11235.204
-11399.129
-11532.166
-11560.803
-11390.001
-10942.591
-10205.831
-13358.832
-13348.057
-13340.644
-13349.407
-13380.113
-13437.085
-13523.319
-13638.869
-13781.581
-13950.329
-14129.601
-14236.188
-14110.608
-13602.564
-12633.017
-11226.345
-16561.887
-16520.258
-16468.666
-16431.045
-16414.003
-16423.88
-16467.083
-16548.937
-16677.615
-16862.598
-17056.81
-17046.351
-16637.152
-15660.424
-14162.383
-12215.077
-18343.901
-18283.787
-18195.146
-18112.703
-18044.738
-17997.819
-17980.976
-18002.65
-18068.113
-18174.717
-18285.828
-18359.88
-17989.244
-16870.304
-15159.141
-13032.539
-18591.702
-18542.474
-18453.795
-18358.277
-18270.206
-18197.89
-18151.527
-18142.771
-18182.997
-18281.408
-18308.67
-18232.718
-17607.804
-16399.886
-14811.1
-12956.072
-3650.8471
-3332.1229
-3137.3191
-2780.0972
-2363.5953
-1904.5821
-1408.022
-879.39797
-330.07605
224.27574
765.37663
1270.7794
1709.1065
2072.5998
2455.3708
-6374.819
-6069.7178
-5865.1265
-5486.3392
-5042.636
-4551.217
-4018.1546
-3449.1828
-2854.921
-2250.7871
-1655.1551
-1090.6584
-587.47048
-154.37244
289.00871
-17140.584
-16953.284
-16919.131
-16905.105
-16898.247
-16914.565
-16977.146
-17103.254
-17446.167
-17762.823
-17411.284
-16611.218
-15504.69
-14131.904
-12430.075
-4480.9071
-4509.6156
-4544.9069
-4534.7242
-4452.409
-4320.76
-4138.5635
-3904.8375
-3636.5041
-3294.6337
-3165.9585
-3131.5686
-2974.575
-2772.2201
-2769.8538
-4114.5504
-6832.3792
-17303.79
-4454.4223
-1323.6778
-1269.8235
3397.4509
-1257.9433
-8495.0621
770.6729
850.33924
2076.8216
1092.2844
2638.2523
408.86373
-8.1846765
3063.8048
-1250.386
2409.9467
-4483.9139
-329.16568
-4825.0335
-5738.6427
-1908.3248
-9428.6808
3084.477
1169.3891
2223.3125
1798.8886
345.06789
-499.8503
22.279993
-1543.4186
-464.60528
459.35319
662.41256
-1182.6737
-786.62797
2237.1708
-1259.6781
288.76895
2106.4506
-494.61813
1066.7359
-4729.1525
-116.14794
2061.1203
-3063.0654
1069.0242
4713.8774
-367.42725
1673.2076
1976.5034
948.61851
-4045.5918
6775.7236
4009.3983
86.104049
-2409.9949
-1533.609
2097.4906
2124.063
1301.0625
-689.88843
-635.93219
1977.4463
917.23812
-217.22553
-7958.9988
1353.6052
-939.82305
-913.34053
835.75174
-372.51056
-7.4782415
-3832.5911
-1914.4185
-87.697601
-53.937579
1187.5961
-2023.5918
289.20554
-313.88002
1581.0031
-7018.238
-4370.236
-409.50244
-403.16469
-528.898
-252.87159
1250.9943
-62.52704
-6669.645
-55.503832
-1467.3347
-1157.3769
4722.7828
-818.02343
2710.9509
2115.1466
-94.090125
3724.1718
-9475.6297
3141.8074
-81.325008
-1199.1841
-1360.877
244.81922
-1212.8847
-1176.6243
274.71465
-74.450083
1266.4062
-3119.7447
-2543.1506
3632.8728
871.58455
-4331.6872
-2197.4396
-264.70407
3890.9769
-439.86383
-124.73928
2900.8862
4210.5301
-66.357022
-6353.0912
-1133.3313
-3969.3711
-8289.3154
12.273212
-3901.1909
-3487.7679
3247.3369
1916.597
-2262.0895
128.40939
-105.51641
-816.36845
1006.3142
4524.1281
-79.944737
-8875.1504
-1168.2578
1865.2656
-1220.5235
-7707.8053
-1390.8664
-5.2667298
0.41487206
-1258.4564
-2506.7212
-203.55347
1911.6947
840.52525
-1084.1837
257.59151
3119.5795
37.355936
1664.8676
-4280.8072
39.178717
-78.123575
-398.92078
-3823.7059
-9230.8281
2824.3461
2535.8418
1627.5838
130.11188
-209.45205
857.59603
-2629.7253
-23.470057
-3241.4769
4460.3773
-245.44264
-463.41437
-1036.7314
1993.5656
1495.9902
-43.141593
-502.54472
-6564.3653
2138.4661
-2374.1984
-1902.5918
-172.39037
75.784027
2244.4387
3023.602
-126.52151
525.43981
-1702.8822
-70.082227
394.49539
-233.29553
-6153.3173
-165.78535
2256.9674
-374.21575
-1348.3568
1912.6623
5221.4936
2168.9941
360.82774
-3986.3303
1944.0544
2764.4701
2392.3925
2958.8504
-64.196755
2986.6698
-84.655092
-436.8819
-997.50575
205.33964
666.05895
-68.717326
366.92541
-117.05983
1714.9213
3171.753
-1833.4025
459.32216
693.36088
307.04802
-57.518627
-204.77348
-8395.6387
2603.0366
-53.962697
-1271.8005
-1898.7889
-7056.358
4543.3417
-9.4631523
-688.29123
-131.18902
-227.38227
-837.87413
2923.7634
-653.67057
-66.293367
618.87557
-360.89543
-1973.4859
484.26746
3376.4479
1646.9246
-809.09661
1335.3302
144.63239
1391.8031
2664.1268
5014.3303
-60.378199
246.81256
-6158.2957
-220.95443
2297.1581
428.56109
-102.59654
-555.47782
-1272.0278
-41.463653
44.968332
49.995465
1221.82
-857.92663
675.86846
-1468.8676
-283.82502
-348.17629
2091.4682
-183.28683
169.91564
3114.6336
-3508.3128
36.150902
3127.4613
3003.4176
-375.77589
-84.432922
-2429.5186
-154.24917
483.16549
-531.56757
-11193.135
-10401.958
342.49551
1471.8272
351.32654
-309.19225
2232.7031
-6334.171
-3010.9765
-116.84003
4335.2633
-264.31174
-36.421339
1891.9528
-1917.9042
-1249.0994
-142.1459
-2302.9959
263.99395
3518.6702
5556.9592
1729.2364
-1906.4626
1726.6121
-1136.262
2737.5847
-4624.5285
-611.82612
-1109.6544
46.854733
1716.8715
228.75026
-227.20464
428.7848
6157.0161
-1735.4425
-1797.971
2994.5509
-144.28205
-51.507971
-1110.8992
21.414939
634.57646
137.10713
-965.69133
83.939446
7016.5769
-9142.6421
2476.3916
1603.3669
-1634.075
-2729.5087
-28.485616
-355.71786
-232.95801
496.12385
176.38672
-1101.3474
348.81797
2791.9334
-152.93429
-48.158719
-2411.2356
-323.82391
-1592.8803
-299.43973
-361.78075
-10589.295
-2163.3107
2328.0325
-1111.9043
-784.06989
-1283.2938
-286.97264
-3644.5157
1218.7278
-1039.8831
1458.3594
44.985068
-3714.4879
4217.3664
2954.5953
-265.26
-5015.6125
-88.00201
3026.7566
-3256.9892
-3.6548286
5884.9698
2620.9854
764.4983
-897.44221
-152.33813
943.56412
-2655.6735
-1287.5586
-1379.8308
2764.1959
2899.6349
-9162.2078
-969.53378
1433.8199
-2339.848
119.97757
722.42432
-1381.607
-300.34357
86.58023
-4475.6774
-720.2085
-1492.0062
-594.14292
-1139.397
-5936.6135
6305.7562
-106.44332
-74.621805
-4061.7331
315.03816
-699.04254
2658.2173
-3923.3005
-1031.9753
-830.85068
1385.8144
217.00828
158.30745
1385.997
-102.64233
-462.00316
215.12373
816.75293
1923.9499
-114.51333
-683.30432
-379.46133
-2418.3856
-873.69621
-553.7887
1210.5213
2985.9761
3626.2733
-3507.9245
-237.94686
2452.4604
500.23491
1975.1968
858.69845
-955.79969
302.53449
-8581.8003
686.34484
-840.90075
120.79711
-2180.0912
1015.4527
-2600.5246
-5190.7785
1386.2618
469.61494
-189.59121
-200.09572
-557.35512
16.370599
-538.43454
1608.132
-875.15111
-4435.5307
-2516.4122
72.626691
-1238.6759
-205.12621
119.43678
1309.8958
189.46986
913.2408
1984.6971
3348.5974
-1748.8006
-568.87332
1907.2757
1397.9406
2178.9908
1995.1574
3439.5821
-1625.3735
-8370.4871
156.74865
3890.6459
-766.14272
-166.85234
221.43052
-40.680016
-309.35219
6984.6728
-175.97553
-543.67862
-4307.7552
-1347.8421
32.803594
-2276.5212
-757.43954
196.12659
1725.8206
2134.4944
-1805.883
-10580.476
220.544
-154.67065
-608.73578
-3437.8177
-3605.3221
1546.9424
-119.75384
131.71255
-529.13933
-209.05357
104.30701
3363.0165
1925.7553
796.82532
-52.947043
-3579.2885
-786.12457
219.52736
-7272.588
-341.13391
-481.02263
-1537.3234
-666.08029
-4613.6619
-8556.2452
-6.1496101
1282.3211
585.80913
2315.6382
-19.424885
-272.99601
289.46088
-635.03685
-4637.1198
-983.81289
-3650.2655
338.81654
-6359.454
3186.4805
1978.852
-6191.9922
2716.344
-1599.2046
-8901.1257
3237.2452
999.00256
2011.0748
1364.4907
1261.8358
-3654.4483
-1738.9431
11.627355
-713.80534
-2407.0911
-6775.345
1483.6484
2461.112
-246.11068
-1071.9841
1122.5628
-1341.2721
54.084867
2604.51
-1812.362
-684.01292
-139.24736
-8939.5352
4069.8879
-4527.6205
660.01427
345.64703
-4321.3178
-2419.8981
-378.31928
-7921.4082
-2152.041
-743.58884
1285.9227
2270.9959
1558.8695
459.94894
-3304.4255
3157.141
3472.9986
4067.701
1113.1203
-2126.1484
1425.1815
3167.9364
4309.1867
2649.3319
5202.2497
159.81736
1225.9676
1870.3301
-125.20058
-1143.2543
-2181.5105
2708.7895
3573.9251
3369.0636
-6096.6292
2407.3349
-295.84785
7112.8543
3194.0527
-66.274022
6813.3617
3047.5379
-1436.4367
258.91631
-10904.238
6403.3595
189.39515
-1687.3169
2880.4791
-125.74429
4965.1741
3296.6598
2527.9859
-1191.7556
75.20391
-10384.139
2527.9345
6503.4402
1000.8397
215.83042
2861.4394
-2010.8599
-8385.5576
-1006.3209
-1136.8423
6802.032
-1551.316
-51.043824
916.68197
3617.4739
3013.767
-5598.4968
-538.23007
-255.1253
2314.561
-9126.0307
-4083.0719
-1593.1914
-2413.1777
1918.8759
860.38274
-1235.8284
-5884.4283
1288.0079
-10173.896
-683.21681
-3388.9696
2767.2896
-937.83805
-316.75935
-2265.4224
6555.6567
1253.5849
919.49277
-65.89525
-1900.2288
2240.1117
-1259.7962
6434.8948
-1151.0191
-402.58004
2627.3132
-224.12623
-378.41574
-50.572328
-1730.2014
-114.52439
-431.42089
158.21936
141.37221
4713.6273
-10086.887
467.16971
1131.9483
-915.08849
2726.0105
-278.31728
3989.8545
-6993.4318
8329.3158
-2200.9796
-238.54275
-3193.542
4918.4553
-9062.6493
-279.74161
317.3437
3041.5777
1623.5481
-8043.9191
2425.4068
2996.0848
-9419.1864
-6055.1883
324.50457
-265.19443
-62.437447
-2387.8919
-10465.631
-306.5237
-1889.9835
-768.04278
-299.05214
2946.8122
-1239.1218
-7345.496
1077.6743
1034.3158
-84.343339
1727.9031
-671.34078
-1619.9693
-184.60242
65.022368
-5540.454
-1107.7641
3230.1435
-1742.0306
-982.18847
-1165.9803
-4947.4171
2268.0139
2728.0394
-111.60359
-1779.0938
-54.510271
2230.6315
2663.2168
-1667.9586
884.04584
-244.0225
1272.9091
-10170.7
-9630.349
2205.8481
-2015.4466
-4792.9091
422.69108
-2929.9656
2582.9801
1614.065
-2226.6522
-642.55439
-446.27743
-2144.1207
-313.60184
-8329.4981
380.33835
-1948.2656
-97.432503
1174.3205
287.86011
-1505.2744
-273.06539
27.465647
-10010.388
391.25409
-1757.1665
-1567.1806
-2481.7235
4812.723
-1313.3936
2082.3464
-1246.4015
2137.9711
-4272.7106
-1791.299
-3619.6172
-3516.4846
-1116.889
131.34714
-1019.4593
-376.12389
-483.39202
1699.5959
-1434.084
2740.8901
-528.53087
383.53534
1380.3913
2828.3163
-1328.175
3695.8335
-2047.1053
8958.7989
-2808.3757
-1507.9073
-1089.1269
224.69051
-822.29969
3220.9456
-737.81739
-177.79766
-768.63503
-1505.6228
-105.524
-788.91117
-37.915273
-373.73869
36.272277
3545.9584
-51.864968
2705.7784
3138.5213
2417.8389
2810.9499
2882.7293
1207.6874
4.2839287
-2388.4745
-1732.5109
-507.79367
91.834623
487.45296
3804.3555
-1858.8209
-3309.6976
-2440.8526
2647.8647
-402.11378
2805.2771
2347.5462
-469.51853
4076.3128
1635.3073
1391.1071
-2016.0983
-123.86469
48.355954
-804.79276
-366.02261
6645.9407
413.23445
1112.0411
1764.6286
566.53367
622.71743
-167.82699
-645.85754
2434.8703
1051.5604
-176.48326
-667.91056
1588.3464
416.13143
986.06981
1291.068
-84.91132
222.56203
247.44925
2723.8696
-1231.7551
-1943.5205
-175.80846
-979.49978
-3649.4683
1144.7335
-1681.8729
-173.74261
7003.1857
-147.32106
5993.7779
-5027.4051
-1244.6054
1808.6315
-1164.9301
2461.5338
2.0283584
2983.1089
-695.90329
2795.0325
-287.01831
-1766.9026
-3651.9953
-997.54743
2270.8201
-62.991683
-523.68778
2660.1794
-894.39496
-7530.5291
-3653.4562
4.6790685
2758.2247
1350.7426
-613.81778
1992.2372
150.42691
-4022.0578
1787.3941
8903.1945
-1383.0138
505.56364
-1724.3397
6543.3165
1316.4245
-3323.4041
-756.28386
-48.574359
-239.61685
435.9071
-641.34929
-789.07721
2219.5599
-3502.9373
152.74408
-1725.915
-1557.2544
-668.06262
-655.85756
-188.64225
-7570.6245
-109.00282
1313.9757
-551.00734
433.61958
1430.1973
3471.7041
1881.571
4207.0028
2312.1027
-4159.1785
-3972.512
-9220.2757
-2072.5466
-1191.6816
-5462.0515
-3316.6022
-629.81873
902.7826
-1339.8906
2760.5126
-1776.3703
-421.31127
-1359.6206
1382.7782
-7570.2188
1728.2585
-444.1301
-1138.5905
-2336.8583
-737.34637
417.27449
1.7883286
471.02675
1506.8946
2089.6035
8166.471
-1066.8377
56.379041
389.96781
-790.55439
-5525.8653
-3691.9004
-2357.0079
-2408.6385
-982.5328
3860.0347
5970.1878
-3038.1082
-99.045912
3512.278
-3108.9441
-457.05733
599.35058
194.95824
-3797.7914
2542.9815
1940.3921
2303.023
7.5036786
-722.74473
-480.79873
3320.641
5549.6608
-2443.5586
889.1484
5470.1331
349.99244
-703.15301
-793.75303
3728.0796
-2319.3982
-316.22785
-1246.8742
-108.21596
177.04813
-9502.1617
7758.8258
-2309.2297
-7675.4321
-431.47849
-1863.2389
5127.6275
-3462.7343
-8491.8243
-1443.9456
1097.8483
-259.56405
-1881.951
931.42026
-349.87891
-1772.3229
-5152.3912
-1054.6581
2657.764
5092.8735
-2063.6996
-5072.6042
3764.9899
337.27464
1790.9969
-96.315053
-6753.4913
242.53251
-1131.1392
2232.0494
-1269.8418
-166.45781
2328.0481
2631.1995
1406.869
-1319.2323
-348.27116
-1141.5856
-6598.34
-1006.9169
3885.4569
-8608.8574
-0.47179285
2623.0434
-1188.0052
3388.2147
-1756.8647
-127.5727
2526.6517
4773.6981
-3798.0812
-8797.0532
-552.57446
550.68988
-340.36319
-8836.021
-169.16843
3155.1938
-4309.1021
-86.237103
1535.0906
-837.6794
-1507.2458
-2879.3207
-6664.7899
-110.58135
-159.60837
2294.7188
-222.60263
4139.8531
-4481.6397
-2718.333
-8596.0224
-46.023965
-9337.1759
-151.13842
-2098.1189
2896.9055
773.38568
734.45695
1835.3751
-1398.7375
-997.02571
-3819.4869
56.944168
99.142736
-2084.3198
52.673506
-1062.1345
-1252.056
-238.54505
-2208.0409
-143.15617
5968.2251
-5802.5389
4919.8615
-1703.7454
-399.54772
2634.8194
-180.85417
-1269.1426
-3384.3156
-1269.1263
7647.092
586.50169
-4960.2486
-596.65195
2294.9688
-7933.3383
-323.31479
535.0479
3621.4444
501.14316
-1763.4025
-350.74912
3406.5383
-763.90893
-119.23089
-938.87949
-3732.9673
164.66063
1028.6432
-1311.2287
854.45486
2095.1781
105.25507
-6544.4038
9168.5984
1707.2338
-8021.9048
-5432.4202
-9685.5958
2125.3836
440.09745
5868.2577
-874.08007
-9735.5255
-8330.8611
-1984.4183
-6954.9939
-1323.1796
-86.731713
-29.598769
677.60927
-718.06366
167.3434
-1162.869
2896.1334
-288.71295
-4229.5161
8486.4712
-2715.9235
2888.8414
-4152.252
1947.4797
2975.7249
-367.73637
4705.2466
-8842.7636
-27.416026
1669.6617
-753.87386
-0.15146262
1055.181
-1085.4875
-880.85734
-2494.7483
-6210.7586
-1051.8086
-1106.2498
-165.08011
-442.33603
-2759.2981
-348.32514
-101.37502
-3349.7461
189.08419
-1035.5226
-448.49388
15.923117
105.55318
-1589.7474
1724.3776
-110.54569
1102.5248
-3602.7219
3415.5912
87.121192
-7369.7781
3591.5871
497.44928
-8178.5287
148.23992
-717.00886
-3103.8372
2509.0529
-864.85862
-2952.9038
-20.790134
3761.3349
-1723.7897
2536.172
-52.056757
-227.02647
-7036.3264
-7977.0875
182.15833
-5383.1199
94.564505
346.76476
-1142.9402
2691.2622
-6963.6948
-22.627125
1706.0664
-954.21799
-2533.3221
-3752.1722
-666.41979
-934.9186
667.74289
-1751.0023
-560.92357
8440.2221
145.51826
5555.5604
267.05826
5794.3922
-2736.4957
-4803.0119
-590.03269
2115.5681
2117.6441
2865.6735
-1756.6787
-187.51326
4008.7657
2606.3717
-357.64277
-7673.2902
-34.9826
2621.7035
2416.8906
-304.67377
-396.89452
-167.01177
-485.74515
36.874502
3094.0918
-6061.592
-6963.0946
786.70276
-3856.2942
1521.2246
-4400.3163
-1622.0713
-572.20123
694.25403
-68.208163
6420.778
206.73584
-1114.1057
-60.638211
2845.7978
4973.774
-4432.4925
1021.2572
-5636.5818
-9177.2116
7420.8933
-1156.3981
2008.8856
3119.4567
-879.28343
137.02778
-393.74845
-5785.7047
2979.4467
153.3827
-1199.89
-2929.7512
2886.1184
-96.131163
-3429.2986
-934.97485
-60.2371
95.670381
430.19527
-4952.5218
-1476.9127
-1625.8409
133.34402
548.02351
-250.37612
2910.9381
-7857.6074
-5183.5626
-4889.8824
50.859562
3428.0146
-1345.8647
-4626.4099
-3541.7167
-53.687359
-8229.1793
360.38332
-7221.441
-2031.7515
268.02475
3419.6583
2783.1404
-468.1293
-5063.5855
-125.7276
-1178.6577
-5571.2331
3465.9908
-4999.5029
3034.3678
3303.4062
-142.31567
5551.1486
8027.6582
2388.9948
-1323.9688
635.69411
-9458.6278
864.85266
3532.0456
2592.8824
1053.2295
-992.56165
5516.4558
3436.0197
128.38817
15.212145
-1709.3752
-1090.5938
3302.7607
2020.4568
2375.2328
-5404.8841
83.509539
-4818.1301
4898.5382
-3905.325
-1760.8876
-1823.7527
-1232.681
4986.4124
-423.99164
-952.06253
-1156.6026
2113.017
-1109.2876
-113.83
-2105.0604
-260.26456
-1078.9629
-5665.087
-2866.7839
-2473.7608
-921.54729
-7412.8733
1229.8843
156.48172
1277.2195
-10020.24
-967.36036
83.874621
-930.80547
-796.6383
-1054.453
1037.411
-4066.5305
2081.767
2372.0144
-4743.7481
-6199.3038
-1091.6988
-99.685945
-70.109349
202.36999
587.91641
223.24533
2711.9722
-494.53169
-167.87692
-4546.6706
4049.7175
-275.39678
4364.2147
-666.85703
-530.77584
-3969.3938
1916.3593
-3851.3912
3238.4988
-130.34935
-3364.4353
-803.65239
1582.8967
-46.336535
-10075.207
-231.90341
2307.2109
-480.46572
2875.7736
-78.331984
-1630.7994
-92.257884
237.59718
3094.9561
1356.0282
707.48716
807.91004
1551.919
-1338.156
-952.09601
-147.71809
16.546615
-1018.11
6746.1588
-1444.422
-38.523883
-1421.7816
2616.9003
-2239.6715
-2418.5049
-4804.0716
1896.4891
-9810.4301
-529.11505
-66.61648
2031.1644
-577.51081
3026.5139
-514.18456
-1594.1869
490.77594
2909.496
-1079.034
7346.7903
-3958.3956
-105.07345
-582.46802
-1260.1083
-4451.947
6945.7433
2451.5528
-9725.4142
-2948.3166
-119.18597
-42.644692
3101.3009
3.1019984
2679.1093
4013.0795
-68.018831
-3368.9624
3882.4013
-6727.875
2379.7669
13.829898
2126.7923
-8035.4639
-2493.7467
-432.16385
612.67937
1728.783
-3645.8573
-4820.4168
-432.80813
-297.29138
-5387.0651
-9347.2156
-66.032321
-703.67872
-8991.5483
-631.81908
-131.24542
-3429.5411
-651.4952
10.151296
1985.7831
-2394.6906
-2438.57
-4280.2582
8245.3588
3134.4032
1840.084
716.63058
-10278.883
-395.68333
-3751.0616
395.11017
-836.20278
2088.0333
1109.92
-4570.8457
-3359.3167
-1632.2135
1616.5813
-4433.4246
-9506.8443
6012.6736
5000.5628
74.861799
8827.6234
-7305.9736
-4086.7552
-93.576778
-9871.4999
7365.5077
922.15968
-6029.3019
-1041.5098
302.33071
-63.01957
-1114.0295
3430.8619
7725.4661
-2589.8455
-2745.6414
-1686.9184
-1084.5325
1733.8274
1199.3719
-9041.5778
-1494.9431
-1500.9883
936.21135
-1035.9609
-1882.1731
-534.03363
2376.6822
-854.11813
-28.634144
-1768.8767
3057.2622
101.58015
-3862.9081
1166.9587
-8729.8696
-5142.6632
-578.6334
-441.96942
-183.07152
3034.687
2891.5248
-3037.7219
1527.8366
7785.8201
-5697.9935
-430.35424
1271.6889
-38.097849
1910.3197
5736.5653
-885.54054
-401.05088
396.97056
-3022.8512
-1775.3425
2706.8471
-195.05033
-57.539156
2978.9719
-2031.7698
-866.97548
5337.3177
-4577.9395
-1013.6371
1548.6203
-299.08072
159.8405
-223.83148
297.91205
-2431.9173
2787.2793
-4209.2238
3411.8962
-6174.5719
-685.53549
3204.5794
-7237.5952
-4524.0616
1353.1353
-4441.5073
-6074.4252
-7069.0929
-3148.3293
-7345.4678
4509.096
213.64624
-1933.5133
-360.65821
-179.50951
-3048.8615
-340.95836
-494.73714
-4989.3241
-71.311129
-992.38934
-918.91825
-1118.8706
-2514.464
-1238.1948
2893.129
-826.25089
4250.5827
-302.48054
1539.239
3712.46
-3163.8082
-3912.2367
-2110.715
1082.8062
-4608.6768
-160.75391
-949.68529
381.16861
34.75243
1741.5288
554.87764
3445.31
-263.08616
-1569.0199
1224.739
-1718.1807
-138.33133
-1715.8751
-645.16583
4093.7781
1492.0477
-856.77807
1285.1259
243.7333
-55.10289
-81.285095
7711.3417
-489.87103
-10837.331
-2502.2828
5981.4059
-1740.7753
-1039.3579
294.67168
1546.4343
4988.3756
-111.67415
-1381.0211
-1920.759
2815.189
1063.5284
2743.2807
-3262.2392
0.8596031
2949.6538
-493.50575
-984.38881
701.85611
967.45205
212.29843
-1304.9922
6512.6785
-3064.4783
-101.51717
-5983.7234
-118.15635
-6713.5783
49.706003
-7989.3773
-9730.7516
-1036.9478
-6010.5074
-3169.9773
-2543.2729
1928.1967
-10831.672
7415.6967
-1297.5332
-1538.1752
-707.8139
-1605.3481
1032.5946
-1.7988554
-2351.6894
2044.5899
-61.418935
-1317.8427
2005.9942
-12.259727
3254.4935
-8440.563
2641.819
-1887.7217
-169.59253
1932.1723
-4741.9752
1191.7545
-5662.2583
-584.97214
2822.6946
-93.100826
-169.3267
2907.6261
-364.15738
894.67003
-7488.2863
-8418.542
-3750.9108
-2948.658
-2967.8961
-239.58118
-987.12886
2236.5697
-783.0543
-851.36209
2607.6156
-760.47239
-1194.9608
3591.8258
-79.948126
-17.365588
7474.6158
3827.8012
1895.1695
-98.922615
-1721.52
-407.41971
-1162.0768
2038.5132
-1205.7665
995.31526
117.96748
221.74738
-955.86753
4180.9756
-98.63821
-30.11719
2867.5145
-414.0279
209.84549
-32.187378
-3599.4839
-10437.194
424.91119
-716.26231
-1197.3146
2776.9795
7442.7877
118.79162
40.276413
-5363.8316
-3994.1401
-35.902116
-34.918615
236.36138
-715.33758
-220.95208
-1618.0997
-9667.193
491.15455
-3996.4411
-705.36533
-1950.375
-10271.114
4216.653
-2.8939115
3737.7846
352.37805
3384.5548
4393.9232
-513.77175
-4891.4177
2728.6644
94.279888
1545.1261
-8891.287
2565.4221
1520.0482
-3310.4249
2196.6066
-4447.4161
3009.69
-2479.6892
65.29809
-1414.735
1430.2052
-546.6671
-6.6752357
3547.4655
676.24814
2245.5964
-4437.36
-236.34808
2764.9708
1453.567
-1313.7366
-32.844036
532.50213
-267.76773
-1592.145
-43.925469
-3568.1319
2326.6551
-508.48903
2715.6183
-687.41448
5367.4983
1621.6688
-254.70955
-8883.3147
838.12001
4682.8375
-10005.02
-160.33125
-1266.3269
-1626.3902
29.368075
-410.5281
594.0204
-7591.4445
-3564.1976
1117.4724
-999.21731
-619.53531
-422.42559
5135.0671
-3269.0901
-65.805057
-3882.8452
-1867.1661
-143.46715
1343.3099
-844.64442
4791.6254
2294.0846
581.68996
-1599.0421
-7388.8337
-58.255708
-1393.155
-76.446097
-278.22206
-11.319776
-597.9828
-768.95956
2262.8584
-1238.8008
1616.7643
2273.3943
1758.1167
596.94803
-59.027124
-808.64631
-6928.7036
-3783.6028
4428.5793
-2157.7131
-614.18463
411.78407
4734.9115
-930.37107
-22.988115
-1828.2135
-119.57417
-282.99036
181.57726
-538.74262
-4766.9839
-69.117413
-3177.2684
-838.74237
-220.71587
-1456.4549
-754.74307
-1961.1247
865.69769
75.90325
-1883.8908
3082.4763
-5399.1151
-1337.8911
5167.7938
-152.88893
1408.3977
2408.5716
-489.63005
684.72516
2343.8862
-2027.5818
2941.5753
-3851.712
-5830.365
114.99519
-208.89774
-67.465234
-70.014233
-921.23553
-71.304343
-4556.6058
-2063.0528
2069.0947
-1571.4037
-1827.3324
-9113.2145
1082.7498
6694.8901
-127.11197
2603.4677
-459.53447
-2074.2694
-3054.6626
-4043.9649
-714.20073
-343.64197
584.7276
4081.4917
18.680446
-4635.8427
-1333.2166
50.047411
-4281.5884
223.70865
1972.0811
-1387.0881
-5380.9571
2769.8903
-36.765535
2805.1989
-3953.2212
-3310.9958
92.144441
-399.58147
2165.7124
3827.7414
-161.9895
-1096.5341
-8115.2207
-4624.8909
-1037.4209
-709.98582
-8206.2463
-3396.7639
111.43597
4.7217318
5692.5345
-131.00478