/*--------------------------------*- C++ -*----------------------------------*\
| =========                 |                                                 |
| \\      /  F ield         | foam-extend: Open Source CFD                    |
|  \\    /   O peration     | Version:     4.1                                |
|   \\  /    A nd           | Web:         http://www.foam-extend.org         |
|    \\/     M anipulation  |                                                 |
\*---------------------------------------------------------------------------*/
FoamFile
{
    version     2.0;
    format      ascii;
    class       volVectorField;
    location    "0.1";
    object      U;
}
// * * * * * * * * * * * * * * * * * * * * * * * * * * * * * * * * * * * * * //

dimensions      [0 1 -1 0 0 0 0];

internalField   nonuniform List<vector> 
4242
(
(99.266803 94.296892 2.3655238e-15)
(150.70244 134.79137 7.2075502e-18)
(159.86936 136.92603 -1.1772221e-15)
(159.64425 134.31763 9.4327779e-16)
(159.04996 130.7408 1.2540058e-17)
(158.33024 126.79382 3.5647665e-18)
(157.52877 122.39225 0)
(156.63449 117.54028 2.6769775e-16)
(155.65315 112.23812 -4.221033e-16)
(154.60243 106.49742 1.5689188e-16)
(153.52028 100.3494 -7.6524108e-17)
(152.46395 93.8509 6.4673351e-17)
(151.52004 87.074495 1.6060402e-17)
(150.86841 80.07928 -5.1514825e-18)
(150.76797 72.942586 1.236206e-17)
(151.10906 66.422757 0)
(102.35471 74.502444 0)
(169.91372 117.6652 -1.5592606e-17)
(182.34385 120.0148 1.4580145e-15)
(181.93194 118.21309 -1.193009e-15)
(180.62247 115.41612 -2.0438613e-17)
(179.0823 112.29545 6.6764085e-16)
(177.421 108.78585 -4.8284908e-17)
(175.6489 104.90039 -7.967337e-16)
(173.7825 100.63424 7.5622043e-17)
(171.84564 95.999425 2.3033335e-16)
(169.87436 91.022156 0)
(167.91809 85.746593 -1.5940808e-17)
(166.0477 80.232675 -1.0581452e-17)
(164.41163 74.517779 -5.602862e-17)
(163.25103 68.707547 6.9215656e-17)
(162.41289 63.064319 8.04142e-18)
(108.60458 58.563874 -3.5537898e-17)
(187.76599 98.589334 -4.914536e-15)
(205.17246 101.38012 1.9682764e-15)
(204.77534 100.52517 -1.3290686e-17)
(202.61056 98.53812 -1.1837069e-15)
(200.14367 96.292767 9.753777e-16)
(197.4968 93.743654 -1.2861868e-17)
(194.67777 90.902464 1.9802591e-17)
(191.71677 87.751185 -8.2008643e-18)
(188.65577 84.28718 -2.2558904e-17)
(185.55233 80.521827 2.1656993e-16)
(182.48136 76.479529 -1.6404059e-16)
(179.53838 72.197448 -2.2301952e-16)
(176.85751 67.710818 1.9492716e-16)
(174.59873 63.130491 -1.6693881e-17)
(172.82865 58.705188 -3.6605007e-17)
(105.38481 39.46721 -9.3877925e-18)
(192.21661 72.734395 -5.6628311e-18)
(216.6588 76.09395 -1.0447545e-15)
(218.84192 76.771486 9.0152316e-16)
(216.93507 76.08842 -1.1370658e-17)
(214.27763 75.04821 5.7566453e-16)
(211.33648 73.797267 -4.5140733e-16)
(208.15724 72.370967 -7.1586443e-16)
(204.77179 70.740635 5.6726026e-17)
(201.20972 68.873604 9.1428264e-16)
(197.52254 66.743362 -3.5364797e-16)
(193.85065 64.366044 0)
(190.2681 61.720637 1.8456367e-17)
(186.92373 58.808661 -1.3275891e-16)
(183.94083 55.725897 6.7124069e-17)
(181.24371 52.850305 -1.1152819e-16)
(89.031834 20.508795 1.0151427e-17)
(180.49672 44.620261 -1.4606184e-15)
(214.09158 48.434857 1.0608786e-15)
(222.20102 50.735299 -6.2021541e-18)
(222.37138 51.79619 1.4879002e-17)
(220.2961 52.186469 -3.9813615e-18)
(217.52604 52.304031 -4.3619907e-16)
(214.4372 52.298491 1.4399715e-17)
(211.1307 52.17704 2.6714679e-16)
(207.63919 51.907528 -2.0236017e-16)
(204.0065 51.449128 1.7278359e-16)
(200.34929 50.775285 0)
(196.74645 49.836435 9.734027e-17)
(193.33139 48.580082 -7.3002874e-17)
(190.24026 46.955742 2.1457691e-17)
(187.36403 45.322341 0)
(53.326687 5.5643928 -1.4000433e-15)
(139.79131 18.867996 3.5052961e-16)
(185.17038 22.471401 4.4341905e-16)
(204.9133 25.957324 -3.2811916e-16)
(212.20537 29.021356 9.6320383e-19)
(213.85783 31.304133 1.094406e-16)
(213.06401 33.029893 8.7390313e-17)
(211.21633 34.449248 -4.1661873e-18)
(208.89836 35.673959 -3.8870654e-18)
(206.33254 36.736341 -1.2972736e-16)
(203.61519 37.626784 1.3817593e-16)
(200.83727 38.311547 -5.6643216e-18)
(198.05761 38.733946 -1.5105267e-17)
(195.36937 38.835777 -3.2987294e-17)
(192.89924 38.486344 -2.171334e-20)
(190.55442 38.04188 1.4891562e-17)
(-24.493974 1.4365088 -6.143027e-16)
(69.573164 3.5009413 -3.3668132e-16)
(125.79719 5.1483936 5.5047009e-16)
(160.47775 7.9696371 -2.4684265e-16)
(181.09946 11.58793 9.6168977e-17)
(192.50719 15.218793 9.929687e-21)
(198.23274 18.497391 1.1776625e-16)
(200.56091 21.341861 -5.3819946e-17)
(200.94549 23.773518 -6.4554274e-18)
(200.26478 25.835531 2.9259226e-17)
(199.02677 27.580535 -4.8195164e-17)
(197.52341 29.046289 4.0303399e-17)
(195.91367 30.234897 -1.0829362e-17)
(194.31429 31.123851 -5.1858056e-17)
(192.83645 31.571429 2.1059319e-17)
(191.43962 31.778055 2.8272908e-17)
(-48.658053 9.492162 -1.1314395e-17)
(-51.682653 11.275139 1.5876106e-15)
(21.462078 4.3845004 -8.3493729e-16)
(80.70338 0.99014443 4.7061613e-16)
(120.00122 1.4668067 -3.1598622e-16)
(147.06723 3.8864149 0)
(165.51224 7.1324029 1.7204986e-16)
(177.56929 10.662996 -1.3803597e-16)
(185.00134 14.128772 -2.482686e-18)
(189.18042 17.297116 0)
(191.19316 20.050364 -1.4102265e-17)
(191.87664 22.356137 7.2700236e-18)
(191.84101 24.227655 -5.5024064e-17)
(191.50937 25.689072 1.1396426e-16)
(191.15601 26.6632 -8.5121622e-17)
(190.88759 27.339152 -2.583811e-17)
(-40.439876 13.676079 6.8797738e-18)
(-65.996846 22.425366 -6.2284381e-18)
(-69.418629 23.380644 0)
(-32.404532 15.962247 1.751667e-17)
(23.338369 7.0433498 6.3678677e-18)
(71.550706 1.5900197 2.6970022e-16)
(106.69598 0.46018211 -1.9041805e-16)
(132.79028 1.9001196 0)
(151.96084 4.617989 8.4745151e-19)
(165.54033 7.9911818 -9.1478649e-18)
(174.70667 11.608746 8.4687304e-18)
(180.57461 15.142161 4.9158878e-18)
(184.18044 18.332091 1.1178371e-17)
(186.40803 20.984996 7.5480314e-17)
(187.92262 22.925688 -9.6987994e-17)
(189.19798 24.282687 5.8491064e-17)
(-30.793062 15.442424 0)
(-50.881566 24.782997 2.3822738e-15)
(-56.414103 26.511122 -3.768767e-15)
(-58.454658 27.401504 1.8086956e-15)
(-57.875108 27.837393 -1.3822099e-17)
(-25.266178 19.987982 -3.1488763e-17)
(19.093943 10.589063 5.8305403e-16)
(62.058674 3.7022711 -3.634506e-16)
(94.950458 0.94312922 -2.0589762e-16)
(120.13996 1.3499469 1.7014153e-16)
(139.41097 3.7832626 0)
(153.9766 7.4945752 -1.0240469e-16)
(164.97777 11.72584 5.8325691e-17)
(173.21893 15.813784 0)
(179.34258 19.258837 0)
(184.08686 22.071908 0)
(-23.026309 14.163315 4.7980057e-15)
(-35.067699 20.757241 -1.8650112e-15)
(-39.778896 22.0534 0)
(-43.897248 22.736429 -7.8935416e-18)
(-47.345971 23.151466 -8.3404906e-16)
(-49.079861 23.054394 8.0948896e-16)
(-47.984662 22.238016 8.5499909e-16)
(-20.570602 13.596861 8.5424902e-18)
(20.548126 3.1000906 -4.8087093e-16)
(59.138701 -3.2982667 1.6639822e-17)
(87.415364 -2.9613066 0)
(111.12758 1.0616328 -1.7292929e-16)
(131.15686 6.44494 1.8004973e-17)
(147.82374 11.368873 1.0351019e-16)
(161.12639 15.549949 0)
(172.0322 20.112789 1.8053088e-17)
(2.6289354 -3.0083204 -1.4347797e-18)
(-5.3537588 2.2244238 4.2344877e-15)
(-16.006558 7.7379388 -1.5369749e-15)
(-24.460785 11.141361 -1.1169607e-15)
(-30.796931 13.814875 8.2435611e-16)
(-36.303726 15.919736 -6.7526867e-16)
(-40.101042 16.929321 5.5783851e-16)
(-41.59641 17.717909 4.7519091e-16)
(-39.762324 18.459878 -5.8031961e-16)
(-32.919337 17.812403 0)
(2.1464631 11.93666 0)
(36.175703 10.805366 0)
(73.938307 11.813503 2.3875602e-17)
(103.48273 14.449451 0)
(126.74285 16.769116 1.0934422e-16)
(146.90793 20.439349 -2.028742e-16)
(88.178203 -107.18123 7.7418713e-16)
(123.9978 -143.26757 -1.1547892e-20)
(129.72957 -144.15436 -3.5600539e-16)
(130.12116 -141.9247 2.8995225e-16)
(129.94963 -138.47307 -1.2003052e-18)
(129.78897 -134.42975 7.0022248e-18)
(129.69448 -129.82794 0)
(129.69535 -124.62676 2.1598793e-17)
(129.81491 -118.79697 1.7614534e-18)
(130.08197 -112.33908 -2.9685974e-18)
(130.52382 -105.28928 3.1648448e-17)
(131.16055 -97.7199 -2.6647613e-17)
(132.01785 -89.73054 -2.2185253e-17)
(133.14673 -81.378785 1.6307984e-17)
(134.47906 -72.884899 3.1856749e-17)
(135.44171 -65.013698 0)
(60.626163 -94.980213 0)
(87.28284 -130.01872 4.3669964e-18)
(92.208589 -130.98011 -4.9505562e-16)
(93.271267 -128.2858 3.9509725e-16)
(94.342306 -124.95259 5.9352297e-18)
(95.669978 -121.18535 -3.1256164e-16)
(97.257416 -116.95976 -1.6311031e-17)
(99.119759 -112.24077 4.5857167e-16)
(101.26814 -107.00829 -1.4084069e-17)
(103.70753 -101.25939 -1.6981088e-16)
(106.43264 -95.012831 0)
(109.4246 -88.313589 2.1966974e-17)
(112.66475 -81.223783 1.7379408e-17)
(116.12141 -73.793505 1.659154e-16)
(119.74493 -66.150238 -2.2523627e-16)
(123.22241 -58.557795 -3.8138536e-17)
(40.369317 -83.882243 -8.6671269e-18)
(57.629996 -113.85763 3.6578324e-15)
(61.546588 -114.62481 -1.4165414e-15)
(63.238249 -112.07407 1.1058539e-17)
(65.092494 -109.02193 9.201873e-16)
(67.309383 -105.6071 -7.3070514e-16)
(69.902945 -101.79371 1.167776e-17)
(72.893718 -97.545803 -1.9075569e-17)
(76.296995 -92.842409 4.0497018e-18)
(80.117452 -87.680628 2.5543053e-17)
(84.343749 -82.079752 -2.817384e-16)
(88.947086 -76.083784 2.1134836e-16)
(93.901697 -69.7544 3.989161e-16)
(99.180179 -63.160234 -3.5395403e-16)
(104.71172 -56.447894 4.9640009e-17)
(110.10115 -49.867959 1.7154023e-16)
(22.514449 -65.336792 9.3469138e-18)
(32.488991 -89.066637 6.9082546e-18)
(35.642928 -89.634593 1.2133692e-15)
(37.851437 -87.413944 -9.6624573e-16)
(40.381472 -84.850358 1.2909997e-17)
(43.379454 -82.045139 -6.118652e-16)
(46.869092 -78.958437 4.5104512e-16)
(50.873753 -75.558339 7.7821989e-16)
(55.407352 -71.826788 -1.2238868e-17)
(60.466326 -67.760602 -1.0418585e-15)
(66.022735 -63.373403 4.1525659e-16)
(72.025734 -58.696024 0)
(78.422262 -53.771987 -2.9081033e-17)
(85.157707 -48.653517 2.4953768e-16)
(92.077919 -43.428217 -1.2565278e-16)
(98.651602 -38.338654 3.0431124e-16)
(9.5734101 -41.993773 -1.093042e-17)
(14.653861 -58.706348 2.3027659e-15)
(17.321091 -58.829872 -1.7219565e-15)
(19.896062 -56.87869 9.3984079e-18)
(22.928552 -54.818314 -2.2845427e-17)
(26.513105 -52.705393 6.450709e-18)
(30.681781 -50.489529 6.6495902e-16)
(35.462899 -48.137539 8.1976132e-18)
(40.873382 -45.630211 -3.8812476e-16)
(46.909231 -42.958961 3.2303848e-16)
(53.539199 -40.124812 -2.6556642e-16)
(60.708782 -37.136703 0)
(68.370656 -34.004272 -1.821385e-16)
(76.444466 -30.71351 1.3371153e-16)
(84.67524 -27.337903 -4.7063456e-17)
(92.227985 -24.007024 0)
(119.93086 -64.64865 0)
(200.55275 -104.60515 3.2915799e-15)
(217.33525 -106.66802 -5.1793791e-15)
(216.71909 -105.54755 2.1268296e-15)
(214.71481 -103.32212 1.4313681e-17)
(212.3805 -100.79145 4.6145127e-18)
(209.81133 -97.891244 9.8179914e-16)
(207.00316 -94.626485 -8.3249043e-16)
(203.97249 -90.976878 -5.8939509e-16)
(200.74328 -86.932974 4.4273609e-16)
(197.3557 -82.498137 0)
(193.86994 -77.697046 -2.2192024e-16)
(190.3709 -72.583844 1.7517176e-16)
(186.98422 -67.21961 0)
(183.81265 -61.67405 0)
(180.8259 -56.09654 0)
(2.2385996 -20.095933 2.0029744e-15)
(4.9881354 -30.80566 -7.8905707e-16)
(7.798298 -30.029946 -1.1136131e-15)
(10.918596 -27.820742 8.2093474e-16)
(14.50065 -25.855613 8.149158e-18)
(18.596059 -24.108004 -2.4935651e-16)
(23.237117 -22.485272 -2.001016e-16)
(28.450605 -20.932292 1.8955488e-18)
(34.251214 -19.413368 2.1145394e-18)
(40.634636 -17.901977 2.8571784e-16)
(47.572361 -16.376658 -3.0557565e-16)
(55.009258 -14.818821 4.5494859e-18)
(62.85242 -13.212856 2.8076267e-17)
(71.017957 -11.529723 7.8204163e-17)
(79.311952 -9.7156887 5.8353628e-20)
(87.5029 -7.8512051 -4.4405702e-17)
(1.9927275 15.357433 9.9813017e-16)
(4.6587216 24.63648 7.8339907e-16)
(7.4883097 24.160198 -1.6598416e-15)
(10.643249 22.425779 8.1592631e-16)
(14.248752 20.87151 -3.2047321e-16)
(18.353208 19.472241 -2.92133e-20)
(22.989012 18.151005 -3.8892378e-16)
(28.183169 16.86433 1.6278135e-16)
(33.951754 15.586135 1.6937827e-17)
(40.294054 14.299167 -9.3031635e-17)
(47.185889 12.992008 1.3740985e-16)
(54.579323 11.657508 -1.208039e-16)
(62.401067 10.289171 2.8703353e-17)
(70.548176 8.8783434 1.5426698e-16)
(78.848407 7.4346123 -6.2366421e-17)
(86.974076 5.9745281 -9.1579925e-17)
(8.5553821 37.003702 1.7873104e-17)
(13.345316 52.394696 -2.4086286e-15)
(16.015602 52.787484 1.7878685e-15)
(18.62402 51.209189 -1.3575074e-15)
(21.671558 49.472928 1.0751336e-15)
(25.25275 47.650464 0)
(29.403495 45.706631 -6.7101071e-16)
(34.155962 43.618599 5.257059e-16)
(39.531031 41.374614 1.1507913e-17)
(45.528912 38.97188 0)
(52.122729 36.41582 4.9431395e-17)
(59.266467 33.717641 -2.5757948e-17)
(66.910268 30.889047 1.8789377e-16)
(74.997918 27.95905 -3.7208685e-16)
(83.213198 24.889919 2.7011692e-16)
(90.722501 21.872169 8.104523e-17)
(20.671662 59.998642 -9.9290853e-18)
(30.16639 82.474797 7.3449329e-18)
(33.335891 83.324906 0)
(35.603238 81.461027 -2.2642708e-17)
(38.169573 79.217531 -1.106195e-17)
(41.183859 76.713658 -6.6493972e-16)
(44.674639 73.92262 5.5330928e-16)
(48.668481 70.820863 0)
(53.181948 67.395738 -3.89117e-18)
(58.21328 63.647513 3.0798155e-17)
(63.73468 59.592294 -2.9710414e-17)
(69.698281 55.26118 -1.6780912e-17)
(76.063847 50.691729 -3.8140378e-17)
(82.814931 45.917506 -2.5300991e-16)
(89.767792 41.043874 3.1331553e-16)
(96.195908 36.264906 -1.829353e-16)
(37.4292 77.941482 0)
(54.047856 106.83003 -2.2101816e-15)
(58.010227 107.92645 3.4089167e-15)
(59.789489 105.72662 -1.3399965e-15)
(61.700093 102.99664 1.0041549e-17)
(63.950764 99.895338 2.7245038e-17)
(66.560124 96.398697 -7.434959e-16)
(69.55151 92.478053 5.9657753e-16)
(72.942338 88.117208 4.4968756e-16)
(76.738914 83.317033 -4.1436596e-16)
(80.930391 78.101526 0)
(85.495814 72.518208 3.0921546e-16)
(90.435405 66.628098 -1.779223e-16)
(95.824598 60.505081 0)
(101.57509 54.280762 0)
(106.86665 48.575613 0)
(56.389908 88.514476 -2.8772269e-15)
(82.256439 122.71273 1.0376815e-15)
(87.288576 124.0566 0)
(88.465573 121.70447 3.0630545e-18)
(89.610389 118.69345 5.8493547e-16)
(90.988747 115.24944 -4.9376874e-16)
(92.610486 111.35721 -4.1214519e-16)
(94.496331 106.98692 -1.9364325e-17)
(96.663813 102.1223 3.1835527e-16)
(99.126662 96.764765 -2.010721e-17)
(101.89167 90.940202 0)
(104.96296 84.701279 3.6686869e-16)
(108.36079 78.12017 -4.6217734e-17)
(112.14114 71.311625 -2.5522657e-16)
(116.23538 64.415188 0)
(120.37484 57.724965 -3.4783552e-17)
(83.3204 101.26252 2.8387411e-17)
(117.88021 136.4895 -7.191376e-17)
(123.69785 137.66573 4.5139544e-17)
(124.15392 135.69083 1.0690413e-16)
(124.02083 132.50021 -8.4626108e-17)
(123.89467 128.73556 1.3728081e-16)
(123.83543 124.43566 -1.2172354e-16)
(123.87469 119.55899 -1.2757277e-16)
(124.04169 114.07961 1.1039615e-16)
(124.37583 108.00782 0)
(124.91817 101.39314 0)
(125.70717 94.324746 0)
(126.80107 86.911833 -1.165947e-17)
(128.29109 79.298893 0)
(130.0734 71.687463 -1.4854044e-16)
(131.46293 64.614796 2.9201281e-16)
(-1.7268063 -2.4529184 8.8071435e-15)
(-25.691779 -27.068829 2.3396653e-17)
(-38.319683 -39.984465 -4.2832809e-15)
(-41.279635 -44.946212 3.390768e-15)
(-38.82148 -45.410923 4.3617516e-17)
(-33.140997 -43.138777 4.0654204e-17)
(-24.600065 -39.460097 0)
(-12.924016 -35.477759 1.876151e-15)
(13.463501 -25.723115 -2.6997991e-15)
(57.026468 -11.468285 9.0953461e-16)
(97.697986 2.0003056 -6.1088917e-16)
(128.84268 14.197451 4.4612637e-16)
(152.23585 23.717318 -7.4256997e-18)
(168.49626 29.704489 -6.3323326e-17)
(178.40996 32.600132 -2.0372888e-16)
(184.23757 31.14835 0)
(-5.3261643 -2.1264313 0)
(-23.752888 -15.596273 -7.0288791e-17)
(-37.956861 -25.943947 6.6541534e-15)
(-43.58592 -29.924656 -5.3453841e-15)
(-42.630335 -30.7304 -1.0564539e-16)
(-36.664086 -29.802297 3.5867366e-15)
(-4.6843403 -18.565693 -1.0989965e-17)
(43.894415 -2.4386504 -2.685133e-15)
(87.473668 8.5166962 1.1286316e-16)
(121.34836 14.029239 5.564687e-16)
(148.22912 17.045109 0)
(168.6439 18.909744 -3.8641087e-17)
(182.84193 20.151898 -6.7593368e-17)
(191.56204 20.898749 -3.4161706e-16)
(195.74436 21.119668 5.029349e-16)
(196.72897 20.120885 6.317556e-17)
(-19.09008 -7.9190762 -9.8085457e-19)
(-37.324925 -16.611193 -1.541205e-14)
(-46.928424 -22.076946 6.5520517e-15)
(-48.860853 -23.784892 -4.9362552e-17)
(-8.0583644 -11.580462 -3.6218146e-15)
(51.8238 4.4208925 1.9940121e-15)
(96.884413 13.076511 -1.8571757e-17)
(128.90914 16.146856 2.4274389e-17)
(153.11043 16.373285 -1.7524858e-17)
(171.40535 15.278933 -2.7099162e-17)
(184.82241 13.714702 3.4084208e-16)
(194.13933 12.162935 -2.4967772e-16)
(199.95284 10.949327 -4.8317852e-16)
(202.82348 10.189296 4.3863275e-16)
(203.32911 9.7778602 -8.0044922e-17)
(202.01758 9.5774975 -2.431682e-16)
(-33.780153 -10.385623 -1.8874905e-17)
(-50.623239 -15.997699 -1.8451895e-17)
(-16.486247 -9.0626764 -2.8348572e-15)
(53.716193 4.2661388 1.5410924e-15)
(104.69478 11.564487 -1.3898407e-17)
(138.54927 13.96772 5.6631003e-16)
(162.93292 13.884111 -3.8318272e-16)
(180.41131 12.474051 -6.3360555e-16)
(192.51606 10.35577 1.3385697e-17)
(200.47202 7.957228 8.5745176e-16)
(205.28871 5.6541438 -3.5022641e-16)
(207.7771 3.7152368 0)
(208.53968 2.2803701 2.9961797e-17)
(207.99657 1.3819589 -2.3980611e-16)
(206.44637 0.90924525 1.25754e-16)
(204.08702 0.76813407 -3.0944091e-16)
(-31.455905 -4.5768405 1.8874905e-17)
(34.75673 1.9864561 -3.1545717e-15)
(105.80002 8.2753827 1.6057191e-15)
(147.97855 10.422352 -7.1265522e-18)
(175.74841 9.9545461 1.5669775e-17)
(193.85677 8.0743328 -4.2492386e-18)
(205.12734 5.5748345 -4.2616798e-16)
(211.62261 2.9010045 -3.6259902e-19)
(214.89208 0.33345887 2.6622145e-16)
(216.04434 -1.9570983 -2.2717967e-16)
(215.82669 -3.8913035 1.9703117e-16)
(214.70429 -5.437294 0)
(212.94198 -6.5869056 1.4337088e-16)
(210.68217 -7.3296704 -1.1009291e-16)
(207.99742 -7.7430705 4.2719185e-17)
(204.87158 -7.666247 0)
(29.416319 1.2418884 -2.3743774e-15)
(123.26156 -1.3301027 5.8719797e-16)
(176.20113 -0.37504314 6.9043957e-16)
(204.84782 -1.5559179 -4.9280412e-16)
(219.17997 -4.0259166 -6.5948826e-19)
(225.63179 -6.6019647 1.5848168e-16)
(227.80491 -8.9219306 1.2910161e-16)
(227.68573 -10.959435 -4.0369527e-18)
(226.33566 -12.728577 -3.8629154e-18)
(224.28107 -14.248288 -2.0623281e-16)
(221.76591 -15.521668 2.2687868e-16)
(218.89722 -16.528849 -6.2209889e-18)
(215.73045 -17.233216 -2.4011809e-17)
(212.31821 -17.58113 -6.1093077e-17)
(208.69172 -17.595574 -4.3417586e-20)
(204.79608 -16.961814 3.3161327e-17)
(85.053048 -8.192679 -1.0252733e-15)
(179.19563 -20.976453 -5.3608858e-16)
(221.04179 -22.453391 1.1119481e-15)
(235.96829 -24.697546 -5.6165786e-16)
(239.9046 -26.624982 2.3516309e-16)
(239.61201 -27.939711 2.1722549e-20)
(237.63213 -28.876164 3.0383692e-16)
(234.90097 -29.618917 -1.399691e-16)
(231.74151 -30.214834 -1.7925886e-17)
(228.25471 -30.652986 7.3497926e-17)
(224.4766 -30.8975 -1.1932733e-16)
(220.4416 -30.894417 9.9277871e-17)
(216.206 -30.591361 -2.7005971e-17)
(211.85783 -29.935025 -1.2638227e-16)
(207.45625 -28.943531 5.1229735e-17)
(202.92345 -27.407322 6.8442945e-17)
(111.8298 -25.721781 -2.0833935e-17)
(207.44241 -49.58606 2.1193995e-15)
(238.35936 -51.653634 -1.5647721e-15)
(244.04077 -53.051371 1.2038674e-15)
(243.14323 -53.341082 -1.0349628e-15)
(240.59909 -53.127813 0)
(237.46114 -52.66542 6.7206125e-16)
(233.97334 -52.052464 -5.5867401e-16)
(230.17141 -51.267645 -1.1986764e-17)
(226.06604 -50.271797 0)
(221.68857 -49.02514 -5.0814845e-17)
(217.09681 -47.490464 2.5558595e-17)
(212.38064 -45.64377 -1.7910705e-16)
(207.65999 -43.467757 3.5408602e-16)
(203.01133 -40.987332 -2.5424518e-16)
(198.25639 -38.060125 -7.0766799e-17)
(122.6643 -46.173857 1.2914745e-17)
(212.89617 -79.433736 -7.9947692e-18)
(235.88139 -81.606303 0)
(236.88995 -81.638104 -7.3882529e-18)
(234.59647 -80.431152 -1.4569455e-17)
(231.68946 -78.91558 8.0465263e-16)
(228.40913 -77.1151 -7.0597706e-16)
(224.84425 -75.075519 0)
(221.00424 -72.756527 5.1852147e-17)
(216.90548 -70.127942 3.6648107e-17)
(212.59296 -67.172556 3.3615038e-17)
(208.13884 -63.887612 -6.7839955e-17)
(203.64506 -60.294367 3.8522217e-17)
(199.23808 -56.432133 2.2670219e-16)
(194.97636 -52.414677 -2.6656503e-16)
(190.74557 -48.311905 1.4972271e-16)
(114.49216 -83.6444 8.1057507e-15)
(182.93716 -126.05945 -2.6778933e-15)
(194.42082 -127.63787 0)
(193.54324 -125.41136 -1.0981741e-17)
(191.96761 -122.26274 -1.1963135e-15)
(190.21078 -118.76796 1.0323792e-15)
(188.32947 -114.83059 7.1292932e-16)
(186.31738 -110.44661 -2.8484187e-17)
(184.18577 -105.60869 -5.0308833e-16)
(181.94709 -100.32231 2.4953815e-17)
(179.62357 -94.611614 0)
(177.25072 -88.525573 -3.5552403e-16)
(174.89278 -82.137133 8.3839962e-17)
(172.6824 -75.500945 2.1487881e-16)
(170.78809 -68.607236 0)
(169.13624 -61.894951 1.6196734e-17)
(104.5534 -99.391893 2.3593946e-17)
(157.78279 -140.73794 4.3625619e-15)
(166.80962 -142.63138 -1.6879341e-15)
(166.64471 -139.994 -1.2386911e-15)
(166.14895 -136.34973 9.9617038e-16)
(165.51433 -132.26266 -7.5357319e-16)
(164.7895 -127.66034 6.200552e-16)
(163.96323 -122.54326 4.1264356e-16)
(163.02716 -116.9005 -3.6974474e-16)
(161.98143 -110.73466 0)
(160.84103 -104.07217 0)
(159.63966 -96.966735 0)
(158.44731 -89.500086 1.0196849e-17)
(157.43282 -81.725024 0)
(156.89349 -73.767719 6.6532446e-17)
(156.62705 -66.126789 -1.0734895e-16)
(14.483807 -17.766165 2.8934824e-15)
(17.714969 -24.415984 1.2676859e-17)
(7.1756802 -12.709349 -2.9581413e-15)
(-4.4058947 2.4338444 2.5150215e-15)
(-14.548632 14.844744 3.0015625e-17)
(-20.474948 21.708866 1.8866985e-17)
(-23.914729 25.712494 0)
(-25.54748 27.852131 7.3111327e-16)
(-25.747142 28.722725 -1.1658748e-15)
(-24.777226 28.866778 4.6438272e-16)
(-22.271183 28.316688 -3.3784039e-16)
(-19.889835 28.505588 2.801905e-16)
(-15.281455 29.300421 9.6021548e-18)
(10.829106 26.529606 -3.6346989e-17)
(48.437882 22.480118 -8.6187588e-17)
(87.60021 24.306002 0)
(10.267505 -14.935778 0)
(9.6985973 -13.409087 -2.4353325e-17)
(0.94760626 1.9264518 2.216417e-15)
(-6.4434317 14.970156 -1.5335202e-15)
(-11.831684 24.256078 -2.6716222e-17)
(-15.718494 30.791879 9.1374836e-16)
(-18.277499 35.099208 -1.0499936e-17)
(-19.826236 37.863611 -1.2362676e-15)
(-20.57568 39.641607 7.6020117e-17)
(-20.561055 40.815384 4.1976314e-16)
(-19.646336 41.590315 0)
(-17.530867 42.047165 -3.6780698e-17)
(-13.567332 42.013557 -4.463284e-17)
(-6.4917208 42.053135 -2.7685488e-16)
(5.6749604 41.536663 3.6955994e-16)
(35.798331 37.987308 5.2515013e-17)
(2.9970815 -4.8920249 -1.195149e-18)
(-2.3170728 7.8535972 -5.9533944e-15)
(-6.7567658 19.121674 2.036235e-15)
(-10.077497 27.393667 -1.2689126e-17)
(-12.383177 33.119644 -1.2345262e-15)
(-14.037596 37.028149 1.0171153e-15)
(-15.345356 39.862548 -1.4237625e-17)
(-16.453489 42.179382 2.3908093e-17)
(-17.357927 44.299663 -1.5145363e-17)
(-17.954154 46.378795 -3.3003177e-17)
(-18.044896 48.473922 4.0131578e-16)
(-17.327013 50.574453 -2.9056051e-16)
(-15.363296 52.610333 -5.5267618e-16)
(-11.532935 54.445607 4.7272622e-16)
(-5.1013988 56.010476 -7.1427604e-17)
(5.9957142 56.340948 -2.6667853e-16)
(-1.0220765 4.2888252 -8.0206063e-18)
(-4.5865754 16.343008 -6.4400849e-18)
(-7.4430223 24.702816 -1.2287442e-15)
(-9.4083422 29.840629 1.0350646e-15)
(-10.8658 33.212593 -1.3826659e-17)
(-12.229903 35.888154 7.4620032e-16)
(-13.655649 38.432826 -5.7430346e-16)
(-15.144595 41.072267 -1.035962e-15)
(-16.650067 43.89775 3.1084211e-18)
(-18.08587 46.963995 1.4217105e-15)
(-19.309437 50.312411 -5.581656e-16)
(-20.097819 53.955889 0)
(-20.127716 57.870364 4.1178431e-17)
(-18.950442 61.978488 -3.5115511e-16)
(-15.912141 66.156729 1.6327499e-16)
(-11.003987 69.459045 -4.5787131e-16)
(-0.76635756 4.1109893 7.9633774e-18)
(-2.7831496 13.019774 -1.8575562e-15)
(-4.7349464 18.810451 1.4705759e-15)
(-6.439873 22.446214 -8.8075519e-18)
(-8.1533225 25.314308 2.1512494e-17)
(-10.035129 28.16751 -6.0111511e-18)
(-12.109521 31.205903 -6.2104833e-16)
(-14.361884 34.522585 -1.6408204e-17)
(-16.760533 38.198659 3.6231163e-16)
(-19.240427 42.31804 -3.1610183e-16)
(-21.689082 46.948454 2.5692622e-16)
(-23.935913 52.117683 0)
(-25.740763 57.797871 2.0223485e-16)
(-26.810383 63.896172 -1.4811869e-16)
(-26.658057 70.427834 6.0179928e-17)
(-25.318355 76.484339 0)
(-0.31680839 -4.5157083 -1.1288655e-15)
(-1.5084674 -1.639089 4.8115707e-16)
(-3.2075305 2.7097757 7.20512e-16)
(-5.1247158 6.4591173 -5.5051032e-16)
(-7.2733873 9.8818752 -7.2776135e-18)
(-9.6766417 13.51306 1.7301983e-16)
(-12.350308 17.498319 1.4258344e-16)
(-15.271441 21.925983 1.0275949e-18)
(-18.395399 26.9077 9.7711601e-19)
(-21.65294 32.543628 -2.138194e-16)
(-24.925444 38.919517 2.3350048e-16)
(-28.032312 46.052257 1.5339344e-18)
(-30.764725 53.840711 -1.7840026e-17)
(-32.800485 62.117161 -6.5916743e-17)
(-34.038818 70.380958 -5.7139443e-20)
(-34.426199 78.27467 4.5948846e-17)
(-2.4958045 -21.824974 -6.3904195e-16)
(-4.2830014 -24.980611 -5.4299938e-16)
(-6.0883943 -19.944378 1.2026664e-15)
(-8.199777 -15.138457 -6.1188384e-16)
(-10.664213 -11.119732 2.4022159e-16)
(-13.270427 -6.5523067 2.0577263e-20)
(-16.080305 -1.357504 2.9632525e-16)
(-19.061941 4.5353132 -1.2003714e-16)
(-22.169768 11.229448 -1.1547383e-17)
(-25.329377 18.830992 7.6575041e-17)
(-28.374353 27.473385 -1.0459717e-16)
(-31.055269 37.129332 1.0165887e-16)
(-33.040912 47.533452 -2.240231e-17)
(-34.153374 58.192779 -1.3637046e-16)
(-33.99922 68.565537 5.6009591e-17)
(-34.072033 76.984271 9.0932789e-17)
(-10.377185 -47.238347 -1.6837671e-17)
(-14.919685 -60.801243 2.1898846e-15)
(-16.367525 -55.556527 -1.6314396e-15)
(-17.65238 -47.93336 1.2557848e-15)
(-19.090877 -39.75949 -9.874362e-16)
(-20.887569 -31.837155 0)
(-22.912037 -23.727889 6.561155e-16)
(-25.064624 -15.107428 -5.2088113e-16)
(-27.227691 -5.8819446 -1.8716225e-17)
(-29.17185 3.9936961 0)
(-30.508099 15.266897 -5.9395346e-17)
(-30.861575 27.953066 3.4610111e-17)
(-29.770917 41.558524 -2.346231e-16)
(-27.065179 55.156576 4.436179e-16)
(-23.157036 66.699853 -3.3891642e-16)
(-19.111931 75.233774 -1.0246302e-16)
(-21.978081 -65.314487 1.014835e-17)
(-30.811752 -86.636445 -7.817072e-18)
(-31.531568 -82.010601 0)
(-31.172623 -74.19271 3.2979145e-17)
(-31.007517 -65.868612 1.8950002e-17)
(-31.076599 -57.063214 9.3407977e-16)
(-31.191913 -47.437217 -8.0631195e-16)
(-31.156958 -36.802368 0)
(-30.666163 -24.752413 -7.3809337e-18)
(-29.545529 -10.812447 -6.9755713e-17)
(-27.501367 4.6094319 4.9270245e-17)
(-23.43901 21.61479 5.7021532e-17)
(-16.592164 39.452067 6.4467017e-17)
(-7.4069104 56.072689 4.8799425e-16)
(2.8244898 68.765081 -6.2048508e-16)
(13.010906 75.555674 3.5211058e-16)
(-29.44778 -65.090727 0)
(-45.596419 -96.560617 5.8903273e-15)
(-46.530741 -95.107248 -9.6631398e-15)
(-44.053254 -88.365582 3.975633e-15)
(-41.241262 -80.546272 -2.3547536e-17)
(-38.211594 -71.726266 -8.495303e-17)
(-34.688711 -61.51024 2.3896307e-15)
(-30.407962 -49.452995 -2.011148e-15)
(-25.453798 -35.325436 -1.6081071e-15)
(-20.293252 -18.573583 1.5737562e-15)
(-15.010951 0.63591397 0)
(-5.6946539 20.162832 -1.3011287e-15)
(10.995364 40.482618 6.6626419e-16)
(28.220798 58.574294 0)
(43.573524 70.616449 0)
(59.728603 74.589318 0)
(-31.351372 -52.180657 1.5947545e-14)
(-53.391237 -86.313371 -6.0461772e-15)
(-57.601409 -91.189797 0)
(-55.141944 -88.115346 -3.4702187e-17)
(-50.865384 -82.570604 -3.9076103e-15)
(-45.847659 -75.818885 3.734523e-15)
(-40.084122 -67.963306 3.2328457e-15)
(-33.446549 -58.954736 1.0532044e-16)
(-25.848003 -48.347369 -3.1895889e-15)
(-17.740616 -35.034838 1.8382495e-16)
(-6.51533 -17.45665 0)
(25.943179 8.7511164 -3.9609264e-15)
(56.343309 35.31512 3.1873276e-16)
(78.203814 54.091007 1.2022936e-15)
(94.595824 64.334147 0)
(108.40219 66.02313 1.178305e-16)
(-18.399547 -23.748119 8.6007793e-18)
(-44.268274 -55.893158 1.2865874e-14)
(-52.824014 -65.586744 -5.0184968e-15)
(-52.456724 -66.515836 -4.1383448e-15)
(-48.366552 -63.862236 3.5437224e-15)
(-42.472572 -59.412118 -3.17363e-15)
(-35.265176 -53.796617 2.7683166e-15)
(-26.850452 -47.316103 2.3890046e-15)
(-17.120739 -39.91281 -2.3726488e-15)
(-8.3698392 -30.880538 0)
(14.419918 -15.571553 0)
(62.61627 8.2899675 0)
(97.171898 29.185783 1.3671577e-16)
(121.92863 43.311205 0)
(138.91202 50.850685 5.2701139e-16)
(152.51682 50.322664 -9.1554542e-16)
(117.50267 135.33013 0)
(123.88364 137.0505 0)
(124.90752 135.32318 0)
(125.44433 132.26399 8.7220202e-19)
(125.95284 128.71203 -6.5430173e-18)
(126.5522 124.62855 6.2924165e-18)
(127.26737 120.0008 0)
(128.10265 114.7839 -3.6518489e-18)
(129.06656 108.96842 0)
(130.16928 102.58871 0)
(131.41836 95.721823 0)
(132.83413 88.478893 9.3108694e-18)
(134.4933 80.96101 0)
(136.44574 73.458594 -2.1370746e-17)
(138.31572 66.671828 0)
(125.0088 -144.02878 0)
(131.0527 -145.38169 0)
(131.81565 -143.3456 0)
(132.12985 -139.97472 1.7479216e-18)
(132.4411 -136.0882 -1.2261686e-17)
(132.86353 -131.6186 1.8092104e-17)
(133.42541 -126.53074 0)
(134.13745 -120.79184 3.8469456e-18)
(135.00228 -114.38851 0)
(136.01088 -107.35255 0)
(137.14151 -99.758527 0)
(138.38011 -91.7165 -1.0317384e-17)
(139.77444 -83.342931 0)
(141.341 -74.796637 -5.1919456e-18)
(142.96001 -67.252081 0)
(-43.679871 -54.261954 0)
(-52.162388 -63.859199 0)
(-51.7619 -64.873754 0)
(-47.588521 -62.021324 1.3988621e-17)
(-41.438303 -57.273422 -1.1367952e-16)
(-33.65066 -51.339448 1.9047805e-16)
(-24.148267 -44.569545 0)
(-11.778671 -37.567175 5.5931455e-18)
(2.9411392 -29.236333 0)
(74.057828 -3.020015 0)
(114.28429 13.803472 0)
(140.81529 25.506687 -3.9258867e-18)
(158.90377 33.101697 0)
(169.99834 37.411227 1.7194481e-16)
(176.84402 36.974025 0)
(-2.7363999 0.19478437 0)
(5.6223197 -8.6430864 0)
(-5.9591733 5.1052018 0)
(-16.464346 16.955735 8.9385473e-18)
(-22.012365 23.052631 -4.8536601e-17)
(-25.437371 26.749524 5.942842e-17)
(-27.132389 28.478483 0)
(-27.416283 28.868211 -1.490562e-18)
(-26.632642 28.175272 0)
(-23.170235 27.395869 0)
(-18.581095 28.403038 0)
(26.960216 20.915542 2.4456918e-18)
(72.617964 17.96961 0)
(105.0599 18.365092 5.1176562e-17)
(132.53199 22.946328 0)
(82.418096 99.893016 7.241768e-20)
(89.749203 -108.7685 -7.1470785e-20)
(-17.655386 -22.514786 -9.9936041e-20)
(0.93378686 -1.5207411 8.5773672e-20)
(137.32929 17.061626 0)
(164.74181 -0.25201453 0)