/*--------------------------------*- C++ -*----------------------------------*\
| =========                 |                                                 |
| \\      /  F ield         | foam-extend: Open Source CFD                    |
|  \\    /   O peration     | Version:     4.1                                |
|   \\  /    A nd           | Web:         http://www.foam-extend.org         |
|    \\/     M anipulation  |                                                 |
\*---------------------------------------------------------------------------*/
FoamFile
{
    version     2.0;
    format      ascii;
    class       volScalarField;
    location    "0.5";
    object      p;
}
// * * * * * * * * * * * * * * * * * * * * * * * * * * * * * * * * * * * * * //

dimensions      [0 2 -2 0 0 0 0];

internalField   nonuniform List<scalar> 
4242
(
-13465.966
-13071.799
-12678.34
-12189.06
-11641.866
-11018.161
-10316.561
-9538.5299
-8690.5626
-7785.9661
-6845.0592
-5893.8889
-4963.4091
-4092.3476
-3313.8688
-2561.9097
-15923.661
-15421.822
-14996.353
-14478.015
-13904.706
-13258.922
-12543.383
-11759.36
-10910.93
-10005.706
-9055.2703
-8075.1769
-7085.2586
-6113.4239
-5194.8245
-4326.1932
-19776.695
-19157.727
-18686.89
-18095.28
-17439.662
-16699.853
-15879.26
-14978.21
-14001.204
-12956.489
-11856.214
-10716.124
-9554.8123
-8394.1521
-7261.915
-6201.0627
-24377.053
-23643.101
-23115.959
-22416.875
-21643.716
-20766.505
-19788.923
-18709.79
-17534.018
-16271.244
-14936.481
-13549.984
-12136.255
-10721.987
-9334.3954
-8027.0996
-27850.561
-27025.776
-26465.858
-25685.439
-24833.458
-23860.53
-22772.637
-21566.719
-20247.627
-18825.289
-17316.009
-15742.398
-14132.572
-12518.044
-10928.441
-9391.1524
-29649.355
-28761.584
-28193.933
-27371.588
-26486.587
-25470.605
-24333.715
-23071.416
-21688.339
-20194.074
-18604.975
-16944.043
-15240.181
-13526.772
-11837.811
-10221.836
-29784.116
-28874.204
-28322.433
-27501.664
-26623.848
-25614.694
-24485.654
-23232.286
-21858.889
-20374.726
-18795.745
-17144.441
-15449.065
-13742.443
-12056.308
-10443.147
-28315.796
-27430.749
-26911.299
-26133.812
-25297.258
-24339.347
-23268.155
-22080.959
-20782.013
-19380.595
-17892.115
-16337.915
-14744.318
-13141.631
-11556.616
-10040.126
-25375.216
-24564.626
-24092.388
-23398.48
-22638.933
-21776.847
-20814.305
-19750.468
-18589.776
-17341.371
-16019.648
-14644.036
-13238.101
-11829.261
-10441.813
-9120.9425
-21181.305
-20493.689
-20080.293
-19506.509
-18861.825
-18138.249
-17333.857
-16448.4
-15486.255
-14455.693
-13368.914
-12241.763
-11092.788
-9943.2308
-8812.1873
-7736.2999
-15930.227
-15420.46
-15089.716
-14668.899
-14183.304
-13644.458
-13050.843
-12401.041
-11698.149
-10948.377
-10160.108
-9343.1644
-8507.3592
-7661.336
-6807.093
-5942.3442
-11246.236
-10933.686
-10692.194
-10430.179
-10102.285
-9719.6536
-9294.3217
-8831.0875
-8334.863
-7812.7244
-7272.4956
-6720.8932
-6161.7133
-5595.2063
-5016.8962
-4373.1154
-3658.2944
-3389.9707
-3165.4369
-2897.5456
-2598.6086
-2269.0746
-1912.3387
-1534.1798
-1142.8207
-748.84414
-364.75284
-4.4457782
315.73268
577.00782
782.00087
993.44943
1364.3008
1538.8941
1696.6272
1874.0024
2066.1765
2270.5197
2482.4782
2695.354
2900.1267
3085.5786
3238.9447
3346.8544
3395.3378
3369.3709
3262.7901
3114.2022
6070.4023
6162.1553
6247.2726
6336.9435
6427.5736
6514.4726
6591.1724
6649.2258
6678.2671
6666.4839
6601.6268
6472.0643
6266.5745
5974.6677
5601.1712
5204.9945
9804.9525
9837.1938
9863.0809
9881.8959
9889.4358
9879.6787
9844.8165
9775.2122
9659.6252
9485.8967
9242.1062
8917.4118
8501.4335
7985.881
7383.6088
6766.7374
12187.58
12187.832
12178.684
12155.285
12112.181
12042.312
11936.922
11785.644
11576.896
11298.745
10940.091
10491.188
9942.9886
9292.2133
8572.4556
7897.0631
-19815.576
-19196.14
-18724.791
-18132.574
-17476.065
-16735.072
-15912.9
-15009.838
-14030.404
-12982.973
-11879.949
-10737.424
-9574.329
-8413.4706
-7285.858
-6233.5414
12724.429
12712.985
12689.907
12651.285
12591.843
12504.95
12382.581
12215.39
11992.99
11704.564
11339.836
10890.238
10350.022
9718.3512
9005.8013
8248.5811
12748.699
12736.936
12713.164
12673.43
12612.392
12523.363
12398.311
12227.958
12002.108
11710.268
11342.588
10890.932
10350.041
9720.3984
9016.3422
8279.0643
12200.563
12200.433
12190.667
12166.379
12122.051
12050.573
11943.159
11789.463
11578.008
11297.082
10935.927
10485.167
9936.2348
9287.3839
8575.6414
7913.4872
9779.6257
9812.1323
9838.3335
9857.4117
9865.1015
9855.3216
9820.2092
9750.0877
9633.7154
9459.0344
9214.3532
8888.7251
8469.8629
7946.1048
7338.5676
6764.9204
6030.6652
6123.3048
6209.424
6300.2579
6392.2143
6480.5944
6558.9202
6618.733
6649.6605
6639.96
6577.6165
6450.7674
6244.8809
5942.8602
5563.5999
5253.3798
1345.9608
1521.5312
1680.2079
1858.8058
2052.5025
2258.7118
2472.9351
2688.5367
2896.5607
3085.8871
3243.9475
3357.4219
3411.3191
3389.3327
3289.5692
3144.6815
-3650.9297
-3382.0502
-3157.2903
-2888.9777
-2589.5319
-2259.3984
-1901.9727
-1523.0403
-1130.8584
-736.08126
-351.31324
9.3115299
328.52439
585.33697
780.43858
985.06941
-11256.709
-10944.254
-10702.455
-10440.174
-10111.858
-9728.5217
-9302.1426
-8837.4441
-8339.2614
-7814.6183
-7271.3054
-6715.9509
-6151.9146
-5578.1746
-4983.7149
-4330.6218
-15946.916
-15436.872
-15105.65
-14684.475
-14198.328
-13658.716
-13064.091
-12413.006
-11708.579
-10957.139
-10167.327
-9349.396
-8513.7852
-7670.4816
-6823.0923
-5988.4916
-21207.742
-20519.565
-20105.61
-19531.283
-18885.803
-18161.195
-17355.486
-16468.424
-15504.447
-14472.012
-13383.644
-12255.624
-11106.917
-9959.2326
-8829.9635
-7760.7761
-25408.923
-24597.656
-24124.828
-23430.211
-22669.684
-21806.337
-20842.184
-19776.391
-18613.483
-17362.824
-16039.186
-14662.488
-13256.778
-11849.979
-10464.906
-9154.0304
-28353.737
-27467.995
-26947.949
-26169.664
-25332.026
-24372.697
-23299.668
-22110.216
-20808.679
-19404.565
-17913.668
-16357.795
-14763.678
-13161.636
-11576.165
-10064.172
-29824.357
-28913.78
-28361.436
-27539.858
-26660.931
-25650.301
-24519.318
-23263.538
-21887.338
-20400.214
-18818.503
-17165.18
-15468.888
-13762.154
-12075.023
-10466.534
-29690.915
-28802.531
-28234.354
-27411.244
-26525.169
-25507.738
-24368.917
-23104.197
-21718.285
-20220.997
-18629.077
-16966.015
-15261.055
-13547.116
-11857.592
-10245.966
-27892.598
-27067.262
-26506.849
-25725.725
-24872.725
-23898.409
-22808.652
-21600.381
-20278.518
-18853.213
-17341.163
-15765.492
-14154.625
-12539.766
-10951.288
-9418.7903
-24418.506
-23684.055
-23156.437
-22456.711
-21682.595
-20804.081
-19824.739
-18743.367
-17564.933
-16299.274
-14961.785
-13573.221
-12158.418
-10744.262
-9359.9019
-8059.065
-15956.03
-15453.873
-15027.996
-14509.261
-13935.332
-13288.726
-12572.076
-11786.587
-10936.294
-10028.813
-9075.8046
-8093.0239
-7100.8016
-6128.4382
-5212.7769
-4340.8566
-13488.22
-13094.112
-12700.637
-12211.511
-11664.308
-11040.417
-10338.315
-9559.3256
-8709.8246
-7803.092
-6859.6236
-5906.0439
-4974.4802
-4105.3493
-3333.0609
-2590.5403
-1378.7655
-1311.3311
-1225.5587
-1156.3083
-1140.8156
-1190.1516
-1299.0127
-1458.5892
-1656.8274
-1875.7884
-2092.2732
-2280.1963
-2413.5788
-2471.065
-2448.0036
-2333.2881
-1817.6109
-1782.2428
-1768.336
-1758.2484
-1730.8973
-1702.5901
-1704.1352
-1746.8052
-1814.0305
-1885.7058
-1948.8513
-1988.0819
-1984.7903
-1924.7427
-1810.2623
-1650.165
-1953.7776
-1921.7203
-1898.5807
-1877.2468
-1865.9416
-1866.6727
-1850.943
-1792.7619
-1711.1351
-1651.8077
-1623.4054
-1573.2766
-1458.4205
-1268.5943
-1021.1472
-732.50629
-2059.3184
-2034.4839
-2015.0675
-1999.2223
-1987.3403
-1981.4396
-1989.9484
-2030.9067
-2112.7583
-2188.2675
-2163.0151
-1977.0408
-1544.187
-1019.6911
-498.719
-7.6350689
-1482.4758
-1480.9312
-1487.5232
-1504.1589
-1532.1997
-1573.2147
-1628.511
-1698.9631
-1786.5241
-1898.3689
-1970.6257
-1837.5145
-1336.0501
-667.72108
26.484499
703.96812
-345.50807
-359.09608
-382.74527
-417.54847
-464.90882
-525.76055
-600.11073
-688.52642
-796.43639
-927.54547
-1032.1521
-930.44202
-579.02837
-23.827007
611.14919
1236.0772
-334.61553
-348.39207
-372.45106
-407.93307
-456.30219
-518.53634
-594.66895
-685.17137
-794.54366
-923.15758
-1016.5219
-901.65093
-539.69942
4.4380487
594.71124
1202.4257
-1489.156
-1487.8375
-1494.7527
-1511.7864
-1540.2784
-1581.7614
-1637.6107
-1709.0296
-1796.9938
-1901.1761
-1947.8053
-1786.5389
-1280.4312
-609.49539
87.435609
763.53502
-2076.2195
-2051.3234
-2031.8648
-2016.0247
-2004.2535
-1998.6381
-2007.6634
-2049.4731
-2131.5904
-2201.6459
-2161.9064
-1955.9465
-1513.643
-977.49705
-438.22084
87.28494
-1972.357
-1940.092
-1916.8446
-1895.5184
-1884.3091
-1885.3224
-1870.2422
-1812.8471
-1731.6252
-1670.8541
-1635.8839
-1575.0508
-1447.777
-1245.211
-986.51221
-686.65372
-1827.5214
-1792.0302
-1778.0482
-1768.0187
-1740.6728
-1712.0877
-1713.0834
-1755.0078
-1821.0659
-1890.8481
-1951.0314
-1986.1714
-1978.1262
-1913.5415
-1797.5281
-1618.6321
-1381.4137
-1314.2126
-1228.5406
-1159.2535
-1143.6474
-1192.8184
-1301.4223
-1460.6064
-1658.288
-1876.4778
-2091.8876
-2278.3569
-2409.9648
-2466.1591
-2446.4842
-2324.2477
-6381.673
-7924.587
-7479.4894
-7075.1452
-6600.2668
-6070.0523
-5492.8133
-4875.0465
-4229.2318
-3572.421
-2924.0729
-2307.6485
-1755.5375
-1279.0265
-774.51898
-6403.9284
-7939.9683
-7496.1901
-7091.6705
-6616.4878
-6085.808
-5507.8421
-4888.9859
-4241.7231
-3583.2135
-2933.2651
-2315.664
-1762.0424
-1279.6333
-783.20363
-3684.8077
-5163.3957
-5157.7716
-4985.4318
-4894.0608
-4827.6447
-4751.2957
-4658.7312
-4548.4525
-4417.1634
-4259.2506
-4066.5472
-3831.5475
-3554.4691
-3085.0676
-3676.6137
-5158.106
-5151.6246
-4979.3926
-4888.4268
-4822.5441
-4746.9738
-4655.5231
-4546.7635
-4417.5004
-4262.2622
-4073.1491
-3841.7118
-3572.4702
-3193.5894
-4470.5878
-4503.2282
-3941.5961
-3926.7155
-342.36212
-841.63805
2371.7336
-803.45937
-1448.2674
71.032285
207.25565
446.08123
442.98938
-468.62314
-606.53462
-22.024631
1437.2315
-1416.6229
290.25767
-1879.6677
-527.88749
-2457.6313
-1639.4213
-1828.3939
-1749.4955
1497.4118
493.67589
592.51016
940.75887
22.867958
-513.68736
-1864.9757
-971.9838
-3261.6587
43.564286
-299.09129
-909.6036
-1372.8448
1227.7213
-755.42996
25.090911
1140.5066
-830.57359
-588.36147
746.75588
-14.424139
431.17224
-3170.6266
427.89566
2982.6952
-350.57665
839.49651
354.61086
348.84934
-4072.7798
5206.3904
1515.4483
-671.79496
-3819.7745
-1196.2305
-726.79176
209.22841
583.31939
-508.29479
-446.50201
348.02475
328.5658
-504.9152
-4410.535
-431.52791
34.213574
-333.84707
-836.97521
-369.02052
165.41317
-1555.2897
240.79084
-45.118478
-47.73568
505.93541
-770.93926
144.74884
-98.657314
-56.541348
-303.34153
-3218.9336
-3463.8345
-444.76873
-654.97704
-1030.6925
556.06985
-6.0771148
-3649.7039
-44.484197
-620.03063
8.4122702
3332.0749
-1090.9452
988.10379
1237.0778
-6.2614481
2669.1257
-3934.7295
1347.2759
-38.490215
-678.58446
5.0044339
19.193325
-655.23531
-1535.3184
-837.95574
-35.542134
-824.78162
-3357.6437
-4520.2997
1743.4784
-891.57927
641.28663
-2025.6066
-87.059599
2015.0891
75.303853
-47.088454
1826.9475
1710.9244
-859.78585
1161.4233
-876.58795
-2568.1997
1080.0192
-325.04993
-3307.5044
-888.70559
1523.0703
-1016.3546
564.73882
-39.549865
-47.551344
-13.043294
-1097.3317
2761.3163
-4.2600494
-4054.389
-595.54893
961.55782
-704.52371
-1541.8136
-497.25467
-8.2938443
-4.223604
-562.05543
-828.29023
-249.48537
291.51172
277.96845
-483.12846
136.60714
1990.8948
-82.667921
845.78243
-3542.5877
-340.41016
-108.47386
-0.15903736
-8377.2085
-8355.5323
1075.828
1572.2542
-261.60451
-53.379855
-256.04001
276.93001
-1865.7024
-27.773314
-1741.6568
3136.3879
125.20289
-36.752025
-433.74107
1059.5955
-151.84259
-38.203116
-536.55396
-347.36307
353.8354
-1708.3366
-1349.6641
232.29149
206.04252
474.90389
1012.8554
-31.69534
230.85669
-781.31839
-57.678152
-27.039033
-2091.3266
1426.9631
-416.76441
627.87086
-23.634288
112.78137
206.8548
3504.5148
343.6051
168.45948
-2454.3117
-157.78474
1593.5785
607.79206
1325.1004
-103.4979
1975.7744
-9.2539842
-489.46771
-348.41434
-189.82547
156.40981
-52.407671
55.245125
-48.431049
862.78221
1170.6275
491.94556
-740.22796
-922.6692
-87.182058
-27.017076
-615.47336
1658.2677
1646.2086
-19.905557
-1101.8417
556.4624
1685.0335
2360.1046
-64.873366
-1260.8764
-2303.1645
262.76
-175.03679
939.98401
-715.65752
-52.792954
57.365142
32.16897
247.85581
-1305.4544
2252.2592
-371.59276
-1286.9752
606.83099
46.324107
-1354.3747
382.06432
3258.1226
-1.2580649
11.645651
-1387.9241
5.4404622
1379.7269
182.56222
-42.825237
-640.60082
-786.48468
-19.160199
-65.700264
-89.731296
-435.62402
-251.5782
43.156475
-933.01444
-39.77162
-565.59858
37.380592
-472.31099
-181.48907
1420.4161
-1984.428
-134.24157
2054.8075
1640.062
-276.41536
32.518583
-203.64596
-116.13212
119.51879
-3006.7733
891.69916
-1756.1616
-15.807175
-290.64721
188.86344
-234.29309
343.74935
918.59862
-2920.1386
19.598948
2081.9411
-878.84009
150.2332
974.77734
239.01363
-888.08754
67.503311
-2238.448
-1564.4833
2412.5051
3243.8571
-955.68423
201.10517
-127.52164
-577.47373
1101.6544
-2329.7215
-820.61831
-22.285145
-894.25413
-240.94823
-62.80454
103.77471
57.758316
3932.0149
-895.61121
-2509.1653
1285.341
40.029841
-37.310925
79.15017
-391.93223
-2619.1917
42.961487
-14.958069
-9.7985085
5165.2888
-239.08614
-297.15007
788.25388
-1004.8998
-2346.5423
-528.00151
-13.428498
-73.310611
18.781418
-3172.3365
-995.43491
-21.252929
1828.7542
-2.6289981
11.81027
-3057.7067
53.428538
-1557.4828
27.136773
-13.713252
-4394.0093
526.3157
263.26227
-546.2523
-3118.2616
-901.83221
-86.966542
-2258.5189
531.25179
201.35385
707.08412
-16.247235
-4009.9297
2602.3737
1208.7359
148.07374
-3073.0905
4.1784469
1468.5967
-3031.1711
-3630.3483
3441.1318
-77.262532
223.96895
268.41822
561.11083
-1257.0873
-3538.1813
138.72215
-1129.8608
1528.7937
1207.7862
-398.81598
-1232.0002
-277.80322
-624.52668
-4.293956
189.79048
-4780.612
-34.392179
267.22048
-4678.4156
-46.193822
128.1442
-648.47358
-187.87499
531.13296
4747.8158
-926.53005
36.847636
-1386.5888
42.225435
-2420.2191
774.87604
-1132.7028
-501.06277
-194.26294
643.4346
-62.357219
-276.809
639.38161
-42.924241
-326.74462
-211.27583
261.35035
288.95245
-10.613789
-708.82221
-26.254803
-976.67116
-135.79032
-503.67601
524.26505
1598.8862
2445.9397
-2528.9407
-22.890371
1313.0635
23.365608
323.87787
288.36572
-822.02053
-874.66391
1396.9553
168.74657
5.1284923
-2352.7448
-2283.6123
-432.22626
-3488.7832
-1904.6382
-621.23858
-15.443857
-2577.5877
-972.95439
-50.113115
-47.081747
-534.78043
788.95204
-53.786229
-1763.4342
-2503.7665
-9.4236261
-1300.2174
63.289484
-853.17681
-201.0205
3.2247359
325.0298
351.15369
1799.8994
157.87222
-667.30153
221.10046
660.17483
546.62437
1050.0957
1362.5006
-871.96853
668.68212
-83.411374
2214.9523
-288.77522
-226.75586
-827.8109
-66.112655
-52.389895
5347.2112
-134.06588
-838.46355
-2187.6724
-1147.0467
-18.566181
-1688.1236
-3515.5996
-25.792074
903.28444
502.34623
-4130.9076
870.65164
18.375376
-1331.6864
-757.5773
-3419.5185
-746.02982
-148.15905
166.85614
4.4079388
-409.03163
286.35333
-204.44916
2332.1729
267.13445
243.52956
-1191.7693
-8039.6708
-656.59148
-5.0822447
1061.7735
-1.8862315
-109.40037
-935.93331
-538.26158
-2185.7664
-8017.8701
-164.8792
570.7206
-38.099635
684.33826
-72.724084
-620.29352
308.90407
-171.65257
-4034.3654
-450.57183
-2379.676
207.65721
-3244.598
1608.4099
301.12727
-3539.1499
1536.9994
111.45969
-4553.8471
1472.2771
383.7565
386.29513
625.17492
559.43566
-7409.9639
-1225.5142
-2671.2622
-54.463948
-2586.4926
1482.7941
709.40893
701.67994
199.96879
-1046.3597
-613.52577
-1.4440264
-23.603942
1403.1494
-2158.1924
-764.98615
10.948558
-7415.3784
2373.6166
-2660.2588
-1130.6458
-173.46321
-3253.6434
-2074.2041
-83.081747
-4790.5162
-984.70064
-392.09374
578.98606
612.06697
-607.12282
-2244.8298
-3079.9533
1499.5035
2291.5276
2153.7256
416.9817
-124.86938
681.44998
1325.7832
2419.2488
1012.0895
3256.9843
-19.7839
533.59502
1028.3127
49.543854
-578.04991
-8.7997555
861.17282
1623.7857
466.4014
-4754.1406
557.03841
-261.16334
5338.293
793.27072
-17.39778
5108.5688
1528.5852
-762.00804
-789.61415
1250.7869
5079.7108
-1955.7314
-303.33386
1219.8343
-176.54061
2978.3385
1233.9271
1336.6664
-881.58919
5.3168277
1520.0099
1363.0248
5325.1343
384.6028
-41.322434
570.04608
-1268.7039
-1129.4136
-883.22967
-4126.5884
5298.435
-616.20685
-27.656164
-583.12382
2472.6718
2016.0538
-2209.0025
-2152.3301
30.406138
1231.4163
-2474.9217
-4023.0812
-1182.8338
-1878.4582
299.2039
289.99672
-268.10951
-518.64131
-218.61049
290.01756
-601.73308
-1627.3298
849.21238
-799.19259
-312.11262
-2563.8147
4358.939
-1846.4966
317.6044
-21.542482
73.226584
566.0634
-679.50645
5002.2373
-627.48668
-10.102432
892.89105
-53.781014
-3960.8352
-60.07494
-1117.4319
2.5832074
-572.1305
101.13759
-2659.6481
2263.6882
-2536.4577
31.130865
473.47409
-1690.5917
1766.3713
-80.34273
2400.618
-514.06185
6329.153
-238.40656
-420.33807
-3878.0052
3823.7413
-2722.7012
-12.077553
-28.137417
123.8312
41.484996
-3649.215
694.96533
577.4248
356.8238
-6927.5138
-10.992351
650.98551
-38.754609
-6938.089
391.24146
21.355285
-1909.3204
-62.221391
111.34823
1386.1441
-1015.0976
-5131.7914
435.20905
-442.3363
7.6856136
11.807471
-847.37077
-1165.5522
507.38785
-222.04764
765.91178
-499.25127
2213.2168
-5132.5434
-288.51526
-619.3545
-5020.8489
636.8908
1405.1226
11.586484
-1017.7347
-53.336827
1294.9747
1074.2014
-1342.6477
286.37218
-4.6260026
-688.51002
581.22087
1689.7181
574.34617
-278.12744
1362.0756
26.362584
-5006.9725
927.71866
-171.11569
-1542.6086
-188.64882
-428.93987
-893.19674
-76.174403
-488.41153
-993.01755
92.061555
-15.690998
-1826.9384
-854.6257
-779.85012
-705.50548
-291.22327
-3178.8226
-1970.2858
-1914.8757
495.71734
-1864.5388
2503.8521
119.25571
424.19115
-860.15536
465.65255
-2939.4198
69.726317
-1539.8374
-3242.9505
-934.78102
-194.20264
-1688.4744
-679.22316
-441.76496
42.582349
-852.07464
1219.8513
-261.76034
1.6030343
604.05176
1279.1095
-1070.1775
2389.4485
-1418.3691
7476.8902
950.19249
-1451.7379
-529.42521
10.495923
370.99931
1678.1194
-815.64342
-15.933699
-74.561437
122.69201
533.63536
-270.32304
-12.453177
-120.24381
-12.166254
2314.7252
-32.488802
1107.9532
1628.294
1398.5802
1280.5658
1044.9748
529.76366
-31.942738
510.04922
-848.0594
-417.3733
3.7837414
45.582995
2450.9242
-1155.3053
-2322.3537
245.10768
1449.6501
-428.66095
1580.4292
693.97418
-692.1955
3017.5602
53.244866
-183.80457
-386.87865
8.696893
-1.4435954
-275.52075
89.109061
5260.4895
-138.52581
-402.08038
954.80408
87.338412
129.23287
17.422543
-73.092512
1499.6459
-646.56402
-494.2369
-139.02317
754.34782
109.05957
367.17234
-273.58199
-22.902204
-51.879163
376.8465
1184.4345
485.02653
-1114.457
10.816784
-27.48591
-1780.829
464.77466
-188.29315
-396.28629
4889.8632
-1030.5983
4867.6715
-2383.6348
-1162.1922
164.53217
-628.81442
641.92875
-31.256603
1931.448
-5.830263
1225.4104
-276.013
-1115.6291
-1364.7875
-4748.2823
420.79641
-31.197285
-587.65256
1423.4268
-899.01069
1437.5073
-872.34834
-278.67542
1169.9742
556.25425
-76.316823
268.14591
-175.92658
-4657.8457
129.69784
7339.7448
-3585.4008
-1077.3818
39.084522
4247.6181
600.52289
-5138.9609
-780.48956
-8.5621418
-428.67578
-911.65512
-4430.9321
-448.2519
567.42466
-4348.8939
-810.35676
868.74834
36.063126
-225.11237
-415.11729
-26.890965
78.012571
1.865663
596.55091
117.14823
-5.0796958
-437.55846
1620.2885
1021.0234
2455.6245
1328.5642
-2365.1614
-3487.5816
25.708328
-1357.8701
108.00498
-4524.6552
-1966.9854
-795.07921
-666.94427
-1384.3877
1404.0369
-826.33052
16.163014
-930.35733
-168.1775
1383.688
-359.24596
110.15624
40.715845
-4652.8502
-742.03637
43.120956
-22.992653
16.194101
746.46552
403.77838
6595.7365
-6.6682218
-3.4676454
-52.247015
-341.72779
-4328.6233
-2424.6377
-1135.8164
-1342.0694
-1096.6956
2329.7452
3819.4513
-4046.3494
-15.29066
1703.4474
-4797.5071
-458.88973
434.27636
-3459.6772
-3743.1711
816.32616
68.478255
613.28846
-24.724099
-316.95828
-1358.3924
1363.086
2964.6185
-3414.1184
167.77235
3321.9873
-69.617124
378.8303
-287.09441
2031.1255
-348.18932
-344.03051
82.537101
-9.0605781
-185.93742
-2421.9109
6025.0109
-2867.6286
-2556.7909
-141.14646
-2413.0549
3817.4738
-2327.8079
1459.6617
-1110.9064
-2011.4945
-32.389718
166.65375
335.89424
-1238.9406
72.973969
-3337.3226
432.3865
1091.4082
2745.1363
-1558.3773
-1656.9647
1399.0764
-394.98187
88.973814
-190.89011
-4902.1852
-2977.8378
-594.40525
-445.42222
-1006.3184
-61.377104
602.82744
1653.598
662.58359
-3275.3496
-65.199009
-1861.1016
-129.54373
47.549194
2827.7875
1545.4249
-77.065357
1381.6566
-604.05923
1677.1046
156.6659
-378.23613
826.82514
3683.8955
-8810.2099
1063.7751
-115.3416
-2520.8722
3.6816445
-8784.3903
-59.361134
971.39998
-1600.2084
-31.620147
757.81319
-408.14396
271.51526
-3594.9267
-5205.6788
-188.10952
-74.751057
125.35219
-257.75409
2344.9228
-2751.2292
-2414.3669
1469.36
-35.322208
-2994.8374
103.40912
551.15309
972.25471
-2696.9387
208.40074
220.90269
-713.35322
-407.14474
-1683.9288
-16.294011
55.568715
-4265.6022
105.57441
79.150697
-771.05185
-283.35115
-5999.2911
-220.29748
4566.0343
-5915.4378
2255.2887
-2678.0918
-115.01044
1686.8092
-154.95043
-708.78135
-8038.2745
-941.81145
6004.7219
90.361389
-4162.5153
-2494.0418
668.94648
-8001.7144
481.9133
-62.283934
2587.4788
62.289248
232.19752
-102.53923
1883.6176
-765.26404
-29.462382
-225.12133
-3189.318
21.740776
402.20037
-936.87416
-656.37997
96.048347
-34.621007
719.50514
7526.1404
-62.185728
1795.0687
-1391.3288
1088.4948
475.23291
386.86512
4688.2724
-146.62177
1461.7679
2011.3948
-1333.261
1620.8946
-3976.4428
-891.26777
4.9908788
349.86676
-235.84489
3.158933
-537.73262
264.09331
217.71378
-2082.8628
6588.4835
-2234.2035
1277.6279
-3878.6984
1097.4736
825.71597
-1088.8701
3026.7702
1510.6965
520.3294
851.48609
-264.30619
-89.496397
393.43669
-491.46759
-250.23402
-6901.213
-6859.517
-134.82813
-533.58636
-225.19712
-28.557906
-891.31925
-112.62114
-173.69322
-2597.6084
-86.795635
-837.36102
-1172.6817
-2.9190955
-831.90884
500.81907
-546.44246
-14.800576
451.60609
-8593.2451
1740.0803
7.7584958
-830.76661
1536.0391
-1380.2642
-8567.1288
-106.21901
19.64374
-1772.5043
854.05928
-243.62691
-6988.9858
-3.3167412
2380.8519
-916.1878
105.22749
-16.30775
-403.74567
-6909.8137
1487.5903
43.010901
-1938.9731
-8.9253867
-926.76598
-3514.0562
1136.3662
1099.8085
-97.859822
882.87805
-168.76838
-1904.9421
-3416.2816
122.43694
-395.08156
-779.33774
-1500.7751
-105.13467
7031.4888
-74.016037
3827.4341
111.77086
4302.5102
-2004.4835
-1842.4277
-201.13022
478.92264
486.24248
1878.8795
-1020.0004
17.28021
2189.0437
929.19386
-114.56068
-702.27579
-118.32182
1667.3362
732.28745
-22.95453
104.57844
-218.33091
-529.77256
-265.61125
526.43375
595.91366
-742.39876
220.07785
-4346.3402
757.70568
971.14051
243.40344
-596.6812
18.96417
-32.805236
4702.7235
-335.21324
-536.10834
-55.695644
1797.4321
2920.1138
-3246.0323
-398.45855
-111.82138
1860.3042
6203.5759
-61.27273
99.422504
874.81617
-187.49798
-2.4915303
0.46945338
-898.51801
1487.4937
0.79393093
-673.87038
-1481.8143
495.6456
-4.9938333
-892.90094
-243.70855
-62.032981
-92.230193
-1784.6504
-518.70384
-4691.3246
-1743.4047
0.14320316
-47.633896
-454.51982
1701.2542
1338.2
763.20896
-2271.8752
-1.0682603
1101.6433
-1770.4836
-4585.3063
909.3157
3.4591676
896.019
98.444846
-3866.9711
-5133.5937
71.638392
1160.3427
1171.7106
-154.83198
-2667.2
22.610356
-466.85177
279.59959
2004.5257
-1860.4339
1249.642
2029.0291
-54.865903
3588.8268
6160.3193
744.94404
93.145514
-2756.7371
1316.3161
-1857.3194
2261.6375
360.83521
-2200.7413
433.40223
3093.0035
2392.7812
-5.5839165
-4.265865
-4454.5033
-89.902517
2277.0961
185.28106
158.30818
-5034.7317
115.33767
396.02727
2397.2717
-5745.8831
-1459.9673
-2646.9986
-2063.5447
3652.0141
1.4683363
86.472553
-916.17976
1113.1948
-618.61827
-1.3212575
-6188.9507
-78.835306
-96.990717
-6122.5575
81.151954
-6232.4053
-119.25866
171.0856
-377.80173
3.1763192
578.2647
1599.7118
99.71132
1.7256319
-834.70637
-95.880556
-873.8149
408.91479
-207.69865
440.98982
734.19482
-4349.8678
-6139.6609
-3004.1137
40.898753
-32.281709
2.5282758
79.304458
8.2214337
647.60569
138.76325
-14.916819
971.50377
1967.6738
-781.54701
3121.2619
-637.81358
-156.53706
-3982.8397
1053.9838
-7863.8786
1790.3179
-55.868859
-278.59672
302.24903
-865.45961
-871.59794
-5232.2837
-220.15928
670.3577
-118.79275
1295.3534
-43.981845
65.019141
-36.12822
-22.538979
2087.2977
-254.17845
-660.55913
-552.16759
771.61598
-1018.4476
-408.99737
-52.063027
-71.443013
-321.67547
4840.1173
-810.15659
-24.890575
-788.07478
1543.4733
-1260.6326
-2010.1303
884.00551
1002.8097
-7901.8278
-58.656953
-29.746491
1180.602
-82.513016
499.71472
-143.62103
-974.38426
4.484592
1406.6441
549.90567
5123.853
-3372.9522
42.863499
383.38431
-5391.4934
-5388.5052
4931.2231
1303.8542
115.64313
-1338.6154
-203.45357
-72.783116
1948.9054
-8.6663426
1391.1509
2807.7945
-52.673347
-2917.7411
2388.722
-927.66781
50.665517
-125.10883
495.0452
1207.269
-623.04095
-29.099176
128.89045
132.11956
-1991.2911
-3294.4822
-13.257382
-146.78454
-3088.0261
576.44412
-31.42977
-256.88571
1327.6022
-2087.6395
-31.174767
-554.78723
-29.69897
-95.575546
231.1147
-1270.4666
-5584.2321
257.65194
6470.36
1743.3305
216.05489
196.11183
1299.8779
19.404405
-4035.467
113.75344
-4136.9901
457.74767
455.67712
-2821.193
-1364.17
-983.5382
791.51916
-3594.7631
-871.21179
4727.8078
3474.9464
-376.51309
7098.9688
874.0178
-4590.5122
-38.786138
-5783.2062
6051.689
277.16599
-5487.8219
-4685.0065
-130.18577
-45.34257
-50.27235
1651.4066
5644.1031
-468.22444
-1430.1322
273.41633
502.57339
-1362.5513
522.67813
-209.26541
6.8350236
-665.68458
-82.285114
-495.66593
-3662.0512
321.13262
-769.94346
-352.78565
-165.74483
-6004.5359
63.198667
-887.73055
-4484.9086
493.23834
1295.9297
-5972.7661
-193.61318
-1040.2676
-8.6692413
1598.2875
1357.2533
-1838.1999
733.58559
6398.7661
1197.0474
-537.48402
499.00107
-90.228368
1059.7427
4304.291
-241.09991
-255.42886
-729.76862
-6040.6273
-968.95805
1028.1837
53.067857
-33.418721
166.30852
-1063.0867
391.80978
3809.0848
-2542.414
-1529.7035
-63.631784
411.00551
-58.314768
-72.086456
-86.954448
-6575.553
1500.475
604.61315
2085.2722
-6490.8193
-217.24402
2173.5201
-2556.643
-2844.421
632.18485
-2357.5971
-695.50716
-6012.1412
-7816.0669
-7792.2502
2854.9212
-4.6737898
-3104.2068
-1448.129
-65.178347
207.06097
-638.86681
-212.13647
-1932.0716
15.590815
-1988.0345
-890.47425
43.138526
-2342.9946
238.00291
1914.4465
-743.29437
1619.2777
-1165.9759
-716.88754
1715.6199
-423.58218
-6800.7946
949.85772
-458.37989
-2098.0663
-185.49621
-871.28105
191.87854
-138.63054
114.34438
86.197443
2031.1288
-10.765325
-897.49758
538.33712
25.591109
-215.70361
-296.51
-2788.6856
3027.0691
-73.576611
162.54793
-628.3011
-27.690744
-8.3404777
-186.89381
6428.0489
46.750046
-1496.5484
-5291.1489
4379.2757
-1184.0809
-527.11114
-83.353633
754.26041
2772.0014
-175.34273
-1634.3296
-1994.9507
1490.8924
418.84568
1046.4672
-20.510707
-16.374918
1684.5134
-288.43849
-464.79531
-1691.1541
-2005.3346
23.894526
-1894.9962
4526.215
-158.6882
-37.531417
-792.56549
-338.66855
-1072.3002
-8.4143358
-473.76947
1126.0844
183.20839
-5189.973
-6917.8618
-1157.8505
-298.13479
-5348.012
5992.5914
-855.21742
-865.19926
146.72445
132.84328
-930.05468
84.476321
-1864.4327
1158.5668
-1.3141224
-129.37318
1044.2497
-59.851271
1335.3329
1178.9175
1020.8579
-1130.6793
-11.498141
1065.129
-2162.7467
454.3409
-975.49983
-147.87981
1325.148
-8.0388072
3.8904231
856.77015
-61.91355
284.40154
-6854.129
749.41947
383.18558
-2705.9624
-437.15295
40.742855
-427.76978
593.77496
-184.49191
-864.12586
1008.1599
-290.68644
-586.35938
2222.5485
-18.192725
-14.47
5570.7582
2705.8028
-1123.6687
-156.18362
-1289.6169
-535.9309
470.28931
1178.2771
-411.57755
-1303.0658
17.4125
-44.898162
-1261.3405
1597.6598
-934.95068
-121.45549
1384.8819
-892.27067
43.231042
-6.1271126
-4052.5611
-743.54258
69.282291
-4158.1535
-1180.5639
1118.7121
5940.2687
3.9665678
-13.012328
59.83151
-3295.5803
-20.951911
68.349354
21.843274
-31.921164
-49.763735
-5416.6796
-1143.1541
74.30282
85.053962
-927.49204
-1528.4776
-6831.7534
3046.0671
8.6662953
1425.0707
-342.6289
1904.8332
1910.4718
-1310.094
-5312.3134
1609.8956
-1111.7094
-1486.0615
543.63228
1632.1391
729.4296
946.0043
-395.19563
-1922.6604
1700.6309
-224.94771
51.399068
-3.8589105
668.46749
161.8352
-15.286931
1114.9412
-91.799843
1186.7371
-45.140607
-77.173874
208.99707
690.88832
-892.00281
-8.8606978
29.869764
-282.26229
-2135.4325
-1.6792602
-2210.0165
-72.356838
-136.98139
544.43168
-176.85647
3883.7131
831.62875
-294.88996
1574.454
166.54035
3205.4822
741.47906
-1172.8399
-669.99602
-2860.8181
-50.761495
-181.17817
76.195876
-2295.4051
-3645.6812
-336.36144
-165.82812
-41.1022
-75.6316
3707.8666
956.36456
-45.809225
-4411.8616
190.2832
-200.43333
-1947.6111
212.40199
3676.3938
1249.1854
-803.09811
129.61283
-6001.5238
-61.879944
-804.9807
2.5924545
-13.17059
-77.831245
-354.1992
101.0656
555.39786
-617.59579
839.13024
1213.6014
137.713
114.98679
41.316649
-2799.2912
-340.4647
-4328.7967
2297.1061
329.52025
-1139.715
-87.810035
2079.0492
-1853.3049
-7.4969498
-1120.3074
-177.29477
-96.988389
5.3504428
-180.71885
-1569.8541
38.960658
-5962.165
-199.75032
220.53805
273.32382
-203.06484
-1007.7633
-568.7892
69.698443
-738.18999
2091.2672
-786.099
-2040.7355
4036.4351
-13.710611
-1225.7341
792.24008
-158.03947
-638.37655
1293.9663
-966.32008
1770.8875
-5529.0538
-2865.5933
-922.09924
-259.54128
-175.97487
-103.42425
479.83707
22.874401
-3535.3801
-1242.0112
-101.83154
93.202794
138.84817
787.73683
439.00161
5404.6041
49.495794
838.54621
-42.92743
-1242.5042
-2722.0663
-699.66727
-218.77505
-865.14437
37.845489
1721.5429
-702.76259
-154.77782
-706.51638
-13.079691
-349.9074
42.029065
-792.31623
444.80621
-1266.7743
1390.8135
-46.40073
1420.4868
-517.30195
-717.41222
-20.761676
14.026048
1148.7554
2033.1486
-21.736446
262.97545
-6501.8612
1110.6797
-39.655025
-197.82239
553.75943
-2547.6658
62.264311
42.209555