/*--------------------------------*- C++ -*----------------------------------*\
| =========                 |                                                 |
| \\      /  F ield         | foam-extend: Open Source CFD                    |
|  \\    /   O peration     | Version:     4.1                                |
|   \\  /    A nd           | Web:         http://www.foam-extend.org         |
|    \\/     M anipulation  |                                                 |
\*---------------------------------------------------------------------------*/
FoamFile
{
    version     2.0;
    format      ascii;
    class       surfaceScalarField;
    location    "0.5";
    object      phi;
}
// * * * * * * * * * * * * * * * * * * * * * * * * * * * * * * * * * * * * * //

dimensions      [0 3 -1 0 0 0 0];

internalField   nonuniform List<scalar> 
6703
(
-0.0042205626
0.021918175
-0.017697613
-0.0079974771
0.026981239
-0.023204325
-0.011579107
0.032389127
-0.028807497
-0.015774285
0.038476503
-0.034281326
-0.020592745
0.045608736
-0.040790276
-0.026098184
0.053961913
-0.048456474
-0.032357414
0.06371866
-0.05745943
-0.039441278
0.075088691
-0.068004826
-0.047434412
0.088302614
-0.08030948
-0.056440571
0.10361784
-0.094611682
-0.066585863
0.12132565
-0.11118036
-0.078020927
0.14176165
-0.13032658
-0.090921629
0.16533012
-0.15242942
-0.1055044
0.19255815
-0.17797537
-0.12202781
0.22418773
-0.20766433
0.26122115
-0.24278404
-0.14046492
-0.0030620927
0.024980268
-0.0061274669
0.030046613
-0.0091442367
0.035405897
-0.012702597
0.042034864
-0.016855117
0.049761255
-0.02171756
0.058824356
-0.027408877
0.069409977
-0.034058838
0.081738652
-0.041813568
0.096057344
-0.050840816
0.11264509
-0.061338977
0.13182381
-0.07355109
0.15397376
-0.087779615
0.17955865
-0.10438588
0.20916441
-0.1237389
0.24354076
0.28355559
-0.14607334
-0.001149067
0.026129335
-0.0029826038
0.03188015
-0.0050882899
0.037511583
-0.0076144007
0.044560974
-0.010610745
0.0527576
-0.014168115
0.062381725
-0.018381748
0.07362361
-0.023362651
0.086719554
-0.029237691
0.10193238
-0.036151466
0.11955887
-0.044269458
0.1399418
-0.053783997
0.1634883
-0.064924269
0.19069892
-0.077965551
0.22220569
-0.093212179
0.25878738
0.30131391
-0.11097051
-0.00043490074
0.026564236
-0.0016067724
0.033052022
-0.0028434841
0.038748294
-0.0043747193
0.04609221
-0.0062080966
0.054590977
-0.0084130067
0.064586635
-0.011055051
0.076265654
-0.014214106
0.08987861
-0.017982196
0.10570047
-0.022465365
0.12404203
-0.027785429
0.14526187
-0.03408147
0.16978434
-0.041509964
0.19812741
-0.05023851
0.23093424
-0.060410287
0.26895916
0.31285074
-0.071947111
0.00020321532
0.02636102
-0.00038182384
0.033637061
-0.00083021096
0.039196681
-0.0014486602
0.046710659
-0.0021827504
0.055325068
-0.003079551
0.065483436
-0.0041691586
0.077355261
-0.0054951478
0.091204599
-0.0071086335
0.10731396
-0.0090710097
0.12600441
-0.011455261
0.14764612
-0.014347274
0.17267635
-0.017846279
0.20162642
-0.022062882
0.23515084
-0.027116488
0.27401277
0.31916676
-0.03343251
0.00086927629
0.025491744
0.00094537392
0.033560963
0.0012709771
0.038871078
0.0015745757
0.04640706
0.0019447018
0.054954941
0.0023613282
0.065066809
0.0028292661
0.076887323
0.0033433023
0.090690563
0.0038954611
0.1067618
0.0044713675
0.1254285
0.0050490067
0.14706848
0.0055970374
0.17212832
0.0060731668
0.20115029
0.0064213093
0.2348027
0.0065956339
0.27383844
0.31922177
0.006540623
0.001570082
0.023921662
0.0024132361
0.032717809
0.0035212962
0.037763018
0.0047887901
0.045139566
0.0062848389
0.053458893
0.0080332226
0.063318426
0.010068836
0.07485171
0.012426471
0.088332928
0.015141159
0.10404711
0.018245941
0.12232372
0.021770506
0.14354391
0.025740148
0.16815868
0.030176141
0.1967143
0.035094423
0.22988442
0.04051864
0.26841423
0.31339288
0.046347536
0.0022813526
0.021640309
0.0039738111
0.031025351
0.0058554462
0.035881383
0.0080916341
0.042903378
0.010713566
0.05083696
0.013796224
0.060235767
0.017401742
0.071246192
0.021602381
0.08413229
0.026472849
0.099176643
0.032089963
0.11670661
0.038531106
0.13710277
0.045873125
0.16081666
0.054191828
0.18839559
0.06355563
0.22052062
0.074015366
0.25795449
0.30188302
0.085525219
0.0030504106
0.018589899
0.0057461678
0.028329593
0.0084548827
0.033172668
0.011664242
0.039694019
0.01540161
0.047099592
0.019793716
0.055843661
0.024933988
0.06610592
0.030929088
0.078137189
0.037890783
0.092214948
0.045936735
0.10866066
0.055190234
0.12784927
0.065781777
0.15022512
0.077854578
0.17632279
0.091573127
0.20680207
0.10713133
0.24239629
0.28425653
0.12475781
0.0041120044
0.014477894
0.0080270654
0.024414532
0.011761294
0.029438439
0.016020109
0.035435205
0.0208912
0.042228501
0.026553985
0.050180876
0.033147201
0.059512704
0.04081417
0.070470221
0.049702808
0.083326309
0.059968203
0.098395262
0.071774472
0.116043
0.08530004
0.13669955
0.10075155
0.16087128
0.11839561
0.18915801
0.13861742
0.22217448
0.26068965
0.16218431
0.0044928065
0.0099850878
0.010603488
0.018303851
0.016391315
0.023650612
0.022244049
0.029582471
0.028467189
0.036005362
0.035407382
0.043240682
0.043320951
0.051599135
0.052424285
0.061366887
0.062918428
0.072832166
0.074998072
0.086315618
0.088854667
0.10218641
0.10468136
0.12087286
0.12268244
0.1428702
0.14308607
0.16875439
0.1661167
0.19914384
0.2344949
0.19231145
0.007927308
0.0020577798
0.015401506
0.010829652
0.021562757
0.017489362
0.027745723
0.023399505
0.034429925
0.029321159
0.041864379
0.035806228
0.050235249
0.043228265
0.059693368
0.051908768
0.070343688
0.062181846
0.082241204
0.074418101
0.095394068
0.089033542
0.10977442
0.1064925
0.12533983
0.12730479
0.14206251
0.1520317
0.15985698
0.18134938
0.21562046
0.17873142
-0.00029225754
-0.017754474
0.018046732
-0.0022597348
-0.021269391
0.023236868
-0.0059019515
-0.025310007
0.028952224
-0.010155497
-0.030079953
0.034333498
-0.015192515
-0.035678211
0.040715229
-0.021138351
-0.042229994
0.04817583
-0.028128414
-0.049873594
0.056863657
-0.03631361
-0.058760248
0.066945445
-0.045841914
-0.069055589
0.078583893
-0.056851081
-0.080941166
0.091950333
-0.069465917
-0.094617505
0.10723234
-0.083795502
-0.11031099
0.12464058
-0.099940861
-0.12828707
0.14443243
-0.11805209
-0.14885909
0.16697032
-0.13851146
-0.17236262
0.192822
-0.19924932
0.22312483
-0.16238698
-0.0027258064
-0.015028668
-0.0061842308
-0.017810967
-0.010396883
-0.021097355
-0.015490466
-0.02498637
-0.021604927
-0.02956375
-0.02890498
-0.034929941
-0.03758123
-0.041197344
-0.047851972
-0.048489506
-0.059966395
-0.056941166
-0.074208246
-0.066699314
-0.09089968
-0.077926071
-0.11040605
-0.090804626
-0.13314396
-0.10554916
-0.15958361
-0.12241944
-0.19019048
-0.14175575
-0.16405207
-0.22538773
-0.0032033891
-0.011825279
-0.0071161427
-0.013898213
-0.011808609
-0.016404888
-0.017417288
-0.019377691
-0.024102579
-0.022878459
-0.032051012
-0.026981508
-0.041477302
-0.031771054
-0.052626492
-0.037340317
-0.065776305
-0.043791353
-0.081240073
-0.051235547
-0.099371034
-0.05979511
-0.12056927
-0.06960639
-0.14529203
-0.080826402
-0.17406884
-0.093642629
-0.20755508
-0.10826951
-0.1248872
-0.24671995
-0.0032945132
-0.0085307657
-0.0073902816
-0.0098024448
-0.012358848
-0.011436322
-0.018330282
-0.013406257
-0.02546876
-0.015739981
-0.033968125
-0.018482143
-0.044051747
-0.021687432
-0.055973386
-0.025418677
-0.070018322
-0.029746417
-0.086504716
-0.034749153
-0.1057857
-0.040514122
-0.1282542
-0.04713789
-0.15435411
-0.054726493
-0.18459373
-0.063403013
-0.21949297
-0.073370265
-0.085066247
-0.25931392
-0.0036229477
-0.004907818
-0.0080247633
-0.0054006291
-0.01329251
-0.0061685752
-0.01958394
-0.0071148278
-0.027085846
-0.0082380738
-0.036012541
-0.0095554487
-0.046607669
-0.011092304
-0.059146203
-0.012880143
-0.07393644
-0.01495618
-0.091322634
-0.017362958
-0.11168812
-0.02014864
-0.13546034
-0.023365667
-0.16311373
-0.027073099
-0.1951923
-0.031324443
-0.23250432
-0.036058249
-0.040872868
-0.2766977
-0.0011486946
0.026139585
-0.02499089
-0.0029823691
0.031895168
-0.030061494
-0.0050880613
0.037531861
-0.035426169
-0.0076140511
0.044589227
-0.042063237
-0.010609965
0.052797812
-0.049801898
-0.014166136
0.062437873
-0.058881702
-0.01837708
0.073699421
-0.069488476
-0.023352686
0.086816912
-0.081841305
-0.029218386
0.10204888
-0.096183178
-0.036117433
0.11968463
-0.11278558
-0.044215332
0.1400571
-0.1319592
-0.053708123
0.16356559
-0.1540728
-0.064834339
0.19071474
-0.17958853
-0.07788087
0.22216431
-0.20911778
-0.093148503
0.25874125
-0.24347361
0.30132787
-0.28360565
-0.11087071
-0.0048700532
-3.7764719e-05
-0.010233547
-3.7135236e-05
-0.016365223
-3.6899298e-05
-0.023444061
-3.5990213e-05
-0.031648359
-3.3774742e-05
-0.041174076
-2.9732257e-05
-0.052242942
-2.3437589e-05
-0.065108428
-1.4656683e-05
-0.080061087
-3.5208433e-06
-0.097433307
9.2620787e-06
-0.11760421
2.2266812e-05
-0.14100336
3.3475927e-05
-0.16811693
4.0475719e-05
-0.19948097
3.959238e-05
-0.23556053
2.131143e-05
-3.6270881e-05
-0.27639712
-0.0049669021
0.0049291374
-0.010413906
0.0054098688
-0.016631009
0.0061802037
-0.023800001
0.0071330017
-0.03209912
0.0082653449
-0.041722528
0.0095936758
-0.052888521
0.011142555
-0.065845428
0.012942251
-0.080877029
0.01502808
-0.098307638
0.017439872
-0.11850753
0.020222157
-0.1418965
0.023422448
-0.16894742
0.027091394
-0.20017436
0.031266535
-0.23603434
0.03588129
0.040658694
-0.2767293
-0.0036415767
0.0085707142
-0.0080824915
0.0098507836
-0.013397564
0.011495276
-0.01974146
0.013476898
-0.02729875
0.015822635
-0.036281255
0.018576181
-0.046929523
0.021790823
-0.059514624
0.025527352
-0.074339924
0.02985338
-0.091743308
0.034843255
-0.11209955
0.040578397
-0.13582478
0.047147686
-0.16338135
0.054647954
-0.19530236
0.06318755
-0.23234007
0.072918998
0.084137916
-0.27581929
-0.0032858011
0.011856515
-0.0073732906
0.013938273
-0.012332141
0.016454127
-0.018290315
0.019435072
-0.025409674
0.022941994
-0.03388117
0.027047677
-0.043924389
0.031834043
-0.055788127
0.03739109
-0.069751333
0.043816585
-0.086124564
0.051216487
-0.1052528
0.059706636
-0.12752226
0.069417147
-0.15337705
0.080502739
-0.1833481
0.093158598
-0.21802599
0.10759689
0.12386192
-0.25774999
-0.0031824115
0.015038927
-0.0070696962
0.017825558
-0.011730542
0.021114973
-0.017299798
0.025004328
-0.0239359
0.029578095
-0.031822954
0.034934731
-0.041172806
0.041183894
-0.052227344
0.048445629
-0.065261435
0.056850676
-0.080587287
0.066542339
-0.09856192
0.077681269
-0.11959968
0.090454908
-0.14418838
0.10509143
-0.17290983
0.12188005
-0.20657816
0.14126522
0.16423442
-0.24695067
-0.0027140164
0.017752943
-0.0061570236
0.021268565
-0.010349965
0.025307915
-0.015418993
0.030073355
-0.021503593
0.035662696
-0.028768306
0.042199444
-0.037404299
0.049819887
-0.04763205
0.05867338
-0.059706086
0.068924712
-0.073921293
0.080757546
-0.090620962
0.094380938
-0.11020805
0.110042
-0.13316518
0.12804856
-0.16007799
0.14879286
-0.19152582
0.17271305
0.20014119
-0.22743259
-0.00027572947
0.018028673
-0.0022331972
0.023226033
-0.0058698345
0.028944552
-0.010116123
0.034319643
-0.015145531
0.040692104
-0.021084196
0.048138109
-0.028068894
0.056804585
-0.036252943
0.066857429
-0.045788845
0.078460614
-0.056821524
0.091790225
-0.069486294
0.10704571
-0.08390433
0.12446003
-0.10018003
0.14432427
-0.11842137
0.1670342
-0.13884492
0.19313661
0.22344998
-0.16215372
0.0079292682
-0.0099718346
0.0020425664
0.01540882
-0.01829478
0.010815228
0.021575841
-0.02364587
0.017478849
0.027763193
-0.029581614
0.023394262
0.034450631
-0.03601039
0.029322951
0.041887005
-0.043253911
0.035817537
0.050257784
-0.051623257
0.043252478
0.059712423
-0.061404214
0.051949574
0.0703535
-0.072883019
0.062241942
0.082232218
-0.08637567
0.074496953
0.095351203
-0.10224307
0.089124089
0.10967502
-0.12090137
0.10657756
0.12515015
-0.14283008
0.12735494
0.14171894
-0.16858595
0.15201716
0.15921083
-0.19872311
0.18123123
-0.2337852
0.21472861
0.17826742
0.0045004482
-0.014472283
0.010620035
-0.024414367
0.016417016
-0.029442851
0.022279335
-0.035443932
0.028512946
-0.042244002
0.035464911
-0.050205875
0.043391942
-0.059550288
0.052510461
-0.070522733
0.063021133
-0.08339369
0.075118015
-0.098472552
0.088992634
-0.11611769
0.10484184
-0.13675058
0.1228849
-0.16087313
0.14339509
-0.18909614
0.16673092
-0.22205893
-0.26076893
0.19371465
0.0041184962
-0.018590779
0.0080406755
-0.028336547
0.011781438
-0.033183613
0.016047531
-0.039710025
0.020927229
-0.0471237
0.026600235
-0.055878881
0.033205401
-0.066155454
0.040885756
-0.078203088
0.049788422
-0.092296356
0.060067159
-0.10875129
0.071884575
-0.12793511
0.085418534
-0.15028454
0.100878
-0.1763326
0.11853378
-0.20675193
0.13876194
-0.24228709
-0.28421066
0.16220367
0.0030540292
-0.021644808
0.0057540208
-0.031036538
0.0084666846
-0.035896277
0.011680849
-0.04292419
0.015424086
-0.050866936
0.019823239
-0.060278034
0.024971681
-0.071303895
0.030975645
-0.084207052
0.037946002
-0.099266713
0.045998977
-0.11680426
0.055256232
-0.13719236
0.065847663
-0.16087597
0.077919484
-0.18840442
0.091645317
-0.22047776
0.10724144
-0.25788322
-0.3019436
0.12497439
0.0022832642
-0.023928072
0.0039777048
-0.032730979
0.0058613211
-0.037779893
0.0081001199
-0.045162989
0.010725359
-0.053492175
0.013812052
-0.063364728
0.017422193
-0.074914037
0.021627607
-0.088412466
0.026502104
-0.10414121
0.032121052
-0.12242321
0.038560031
-0.14363134
0.045894524
-0.16821047
0.054200728
-0.19671062
0.063548696
-0.22982573
0.073991272
-0.26832579
-0.31339283
0.085440497
0.0015712502
-0.025499322
0.0024152763
-0.033575005
0.0035243999
-0.038889017
0.0047933759
-0.046431965
0.0062914078
-0.054990207
0.0080423302
-0.06511565
0.010080957
-0.076952664
0.012441794
-0.090773304
0.015159243
-0.10685866
0.018265303
-0.12552927
0.02178839
-0.14715443
0.025752955
-0.17217503
0.030181021
-0.20113869
0.035091541
-0.23473625
0.040517721
-0.27375197
-0.3192149
0.046339797
0.0008703094
-0.026369632
0.00094693879
-0.033651634
0.0012734326
-0.039215511
0.0015782751
-0.046736807
0.0019501406
-0.055362072
0.0023691391
-0.065534648
0.0028401297
-0.077423654
0.0033578693
-0.091291043
0.0039141537
-0.10741494
0.004494141
-0.12610926
0.0050751636
-0.14773545
0.0056253757
-0.17272524
0.0061027873
-0.2016161
0.0064535305
-0.23508699
0.0066386348
-0.27393708
-0.31915262
0.0065763551
0.00020408576
-0.026573718
-0.00038064933
-0.033066899
-0.00082818882
-0.038767971
-0.0014454468
-0.046119549
-0.0021777725
-0.054629747
-0.003071981
-0.06464044
-0.0041579147
-0.07633772
-0.0054788277
-0.08997013
-0.0070855545
-0.10580822
-0.0090393494
-0.12415546
-0.011413418
-0.14536138
-0.014294395
-0.16984427
-0.017782514
-0.19812798
-0.021987507
-0.230882
-0.027021815
-0.26890277
-0.31285303
-0.033321408
-0.00043413307
-0.0016058639
-0.0028419739
-0.0043722967
-0.0062042316
-0.0084067985
-0.011045098
-0.014198317
-0.017957655
-0.022428491
-0.027732771
-0.034011446
-0.041424687
-0.050142374
-0.060303895
-0.071829059
-0.0030583273
-0.021932563
-0.0061239005
-0.02699592
-0.0091432161
-0.032406854
-0.012704087
-0.038502366
-0.016859365
-0.045646619
-0.021724279
-0.054016788
-0.027416698
-0.063796057
-0.03406445
-0.075193554
-0.041810735
-0.088436892
-0.050819727
-0.10377659
-0.061287513
-0.12149142
-0.073460732
-0.14189958
-0.087658549
-0.16539071
-0.10427583
-0.1925005
-0.12372951
-0.22401994
-0.2609974
-0.14633776
-0.0042161783
-0.017716384
-0.0079973693
-0.023214729
-0.011588409
-0.028815814
-0.015794959
-0.034295816
-0.020627268
-0.04081431
-0.026148602
-0.048495454
-0.032424501
-0.057520159
-0.039523265
-0.06809479
-0.047525519
-0.080434638
-0.05652956
-0.094772547
-0.066656501
-0.11136448
-0.078058125
-0.13049796
-0.09092882
-0.15252001
-0.1055289
-0.17790042
-0.12212746
-0.20742138
-0.24261485
-0.14051001
0.0047734526
-0.0030520969
-0.0017213557
0.015428134
6.2485244e-05
-0.010717167
0.02799858
0.0044717808
-0.017042226
0.041309413
0.0093655049
-0.022676338
0.054385264
0.015246735
-0.028322586
0.067095477
0.021725368
-0.034435582
0.079448749
0.028989538
-0.04134281
0.091496629
0.037282344
-0.049330224
0.10334851
0.046834935
-0.058686813
0.1151872
0.057893186
-0.06973188
0.12725616
0.070759794
-0.082828756
0.13985183
0.085793351
-0.098389021
0.15334009
0.10338016
-0.11686842
0.1681725
0.12393619
-0.13876861
0.18486652
0.1479549
-0.16464892
0.17597956
-0.19511313
0.20400009
0.0022883613
-0.0053404581
0.0081181604
-0.0057673138
0.017120649
-0.0045307072
0.02923374
-0.0027475864
0.044749741
-0.00026926543
0.062005701
0.0044694079
0.079996215
0.010999025
0.097965167
0.019313391
0.11584013
0.028959976
0.13380813
0.039925183
0.15203281
0.052535113
0.1708532
0.066972957
0.19090082
0.08333255
0.21318236
0.10165465
0.23902668
0.12211058
0.14492906
0.27007717
0.0001191631
-0.0054596211
0.00015288366
-0.0058010342
0.0020210159
-0.0063988393
0.0064686142
-0.0071951846
0.01438396
-0.0081846109
0.026207837
-0.007354469
0.042359117
-0.005152256
0.063135525
-0.0014630163
0.086750446
0.0053450557
0.11112214
0.015553489
0.13481349
0.028843759
0.15807337
0.043713085
0.18162435
0.059781567
0.20668352
0.076595477
0.23460037
0.094193736
0.11258424
0.26694519
0.00034865798
-0.005808279
0.00070377035
-0.0061561465
0.0011414637
-0.0068365326
0.0016356128
-0.0076893336
0.0021193298
-0.0086683279
0.0045169883
-0.0097521274
0.010260758
-0.010896025
0.020943515
-0.012145774
0.03745978
-0.011171209
0.059678989
-0.0066657196
0.084480515
0.004042233
0.1046958
0.023497803
0.12972624
0.034751126
0.1581398
0.048181917
0.19047908
0.061854454
0.074679056
0.22838426
-0.00023310097
-0.0055751781
-0.00093735948
-0.0054518881
-0.0020433116
-0.0057305806
-0.0035799625
-0.0061526828
-0.0055929741
-0.0066553164
-0.0081370714
-0.0072080302
-0.01125258
-0.007780517
-0.015100666
-0.0082976884
-0.017599768
-0.008672106
-0.015388733
-0.0088767554
-0.0017488119
-0.0095976881
0.020510805
0.0012381861
0.043367709
0.011894222
0.069781163
0.021768463
0.10171678
0.029918835
0.035771522
0.14062432
-0.0055518173
-2.3360758e-05
-0.010971112
-3.2593872e-05
-0.016657723
-4.3969072e-05
-0.022752741
-5.7664913e-05
-0.029334173
-7.388434e-05
-0.036449426
-9.2777496e-05
-0.044115482
-0.00011446076
-0.052273871
-0.0001392997
-0.060777382
-0.00016859488
-0.069451081
-0.00020305686
-0.078806206
-0.00024256239
-0.077338357
-0.00022966303
-0.0652805
-0.00016363605
-0.043849822
0.00033778494
-0.01627109
0.0023401037
0.0089569982
0.010543433
-0.0056076792
0.0055843184
-0.011081746
0.0054414728
-0.0168315
0.0057057849
-0.023001806
0.0061126412
-0.029672183
0.0065964923
-0.036887785
0.0071228246
-0.044656008
0.0076537622
-0.052897165
0.0081018573
-0.061428776
0.0083630159
-0.070006607
0.0083747732
-0.078714786
0.0084656169
-0.077006739
-0.0019377102
-0.064926266
-0.01224411
-0.042903854
-0.021684627
-0.010820869
-0.029742883
-0.035205456
0.033341585
-0.0002359768
0.0058202952
-0.00095749299
0.0061629889
-0.0020941717
0.0068424635
-0.003677499
0.0076959683
-0.0057563836
0.0086753768
-0.0083885835
0.0097550243
-0.011614644
0.010879823
-0.015589232
0.012076445
-0.018167621
0.010941404
-0.01591401
0.0061211625
-0.0026645388
-0.0047838549
0.019001578
-0.023603828
0.041945
-0.035187532
0.068885387
-0.048625015
0.1014819
-0.062339399
-0.075478523
0.14175497
0.0003436434
0.0054766517
0.00069153482
0.0058150973
0.0011215991
0.006412399
0.0016097
0.0072078673
0.00208999
0.0081950866
0.0044757867
0.0073692274
0.010195232
0.0051603775
0.020827774
0.0014439024
0.037220052
-0.0054508744
0.059150262
-0.015809047
0.08348419
-0.029117783
0.10384733
-0.043966973
0.12864155
-0.059981748
0.15672454
-0.076708003
0.18850936
-0.094124223
-0.1120747
0.22510554
0.00013538421
0.0053412675
0.00017992024
0.0057705611
0.002057333
0.0045349861
0.0065137595
0.0027514405
0.014437803
0.00027104275
0.026269348
-0.0044623174
0.042425674
-0.010995949
0.063197828
-0.019328252
0.086745757
-0.028998804
0.11093275
-0.039996044
0.13444975
-0.052634779
0.15756577
-0.067082997
0.18100354
-0.083419513
0.20596877
-0.10167324
0.23384333
-0.12199878
-0.14465137
0.26642
0.0022874576
0.0030538098
0.0081072446
-4.9226054e-05
0.017096592
-0.0044543614
0.029196867
-0.0093488343
0.04470177
-0.015233861
0.061958807
-0.021719355
0.079955578
-0.02899272
0.097925513
-0.037298187
0.11579418
-0.046867474
0.1337434
-0.057945263
0.15193837
-0.07082975
0.17072535
-0.08586998
0.19074504
-0.1034392
0.21301244
-0.12394063
0.23887005
-0.14785639
-0.17557036
0.26978903
0.0047601413
-0.0017063316
0.015413213
-0.010702298
0.027990405
-0.017031554
0.041312157
-0.022670586
0.054401829
-0.028323534
0.067128199
-0.034445725
0.079500968
-0.041365489
0.091571939
-0.049369158
0.10344948
-0.058745011
0.11531388
-0.069809671
0.12740512
-0.082920982
0.14001717
-0.098482038
0.15351653
-0.11693855
0.16836323
-0.13878733
0.18510699
-0.16460016
-0.195152
0.20468863
0.00035276821
-0.00033106023
0.00048982296
0.0005281407
0.00042996932
0.00011160444
-0.00054324055
-0.0016906383
-0.003539504
-0.0063609609
-0.010495611
-0.016362161
-0.024467316
-0.035408495
-0.049936213
-0.06927027
0.00035248681
-0.00033034771
0.00048889647
0.00052657891
0.00042749761
0.00010787378
-0.00054862811
-0.0016979735
-0.0035487188
-0.0063709332
-0.01050307
-0.016360451
-0.024448034
-0.03537813
-0.049977514
-0.069467533
0.00044916497
-0.00033623475
0.00089646055
0.0016201369
0.002619554
0.0039913662
0.0058783558
0.0084587723
0.011955703
0.016642985
0.022846092
0.030941611
0.041358003
0.054587827
0.071218896
0.090795506
0.00044890962
-0.00033642406
0.00089604529
0.0016192122
0.0026177857
0.0039884322
0.0058738877
0.008452432
0.011947464
0.016633686
0.022838472
0.030941955
0.04137833
0.054641427
0.071341886
0.091849217
0.24300925
-0.53635728
0.29334803
1.2755033
-1.3206399
0.045136663
0.18666429
-0.48445466
0.29779037
1.2755033
-0.33201697
0.050475273
0.2815417
-1.2669913
0.78715412
0.47983715
-0.16840908
0.66048565
-0.49207657
1.164788
0.44040579
-1.6051938
1.2118214
0.30147274
-1.5132941
0.19143469
-0.26070496
-0.29297782
0.22351028
0.54420831
1.004618
-1.5488263
-0.54170966
-0.57902279
1.1207324
-1.1497137
0.51056888
0.63914481
-0.25004512
0.60352894
-0.35348382
0.55177251
-0.038892669
-0.51287984
1.099622
-1.1396284
0.040006442
0.070858008
0.25997486
-0.33083287
0.17581244
-0.25545288
0.079640442
0.94117448
-0.34246105
-0.59871344
-0.16566147
-0.1663555
-1.1548291
0.61311943
-1.4218492
1.4085551
0.013294142
0.10903723
1.2784872
-1.3875244
0.0055263152
-0.84973584
0.84420953
0.69822471
0.21233742
-0.91056213
-0.60607541
-0.91244039
1.5185158
0.95731619
-0.3169857
-0.64033049
0.21701534
0.96489137
-1.1819067
-0.34563373
0.83838063
-0.4927469
1.041487
-0.34326231
0.30417851
-0.21755021
-0.086628296
-0.027161958
1.2550304
-1.2278684
0.96356822
0.0030175625
-0.96658578
0.15716206
-0.91966622
0.76250416
1.3268318
-1.1175476
-0.20928418
1.1286506
-1.1968149
0.068164338
-0.72027367
0.87743573
0.84017299
-0.48910115
-0.35107184
-1.2970306
0.25553488
1.0414957
0.3834656
-0.54977518
0.16630958
1.2852247
-0.56465975
-0.72056496
1.164788
-0.34948218
0.84480152
-0.49531934
1.2118214
-0.13091698
0.56093558
-0.4300186
-0.28498576
1.0017865
-0.71680069
-1.4703557
0.62502245
0.84533321
-1.164788
1.7485525
-0.58376445
-1.2118214
1.7638144
-0.55199298
0.47859825
-0.083112411
-0.39548584
-0.58683419
0.2624241
0.32441009
0.21620379
-0.40556991
0.18936612
0.14653828
0.17387738
-0.32041565
-0.47366696
0.85722296
-0.38355601
0.10134833
0.83025775
-0.93160609
0.14617983
-0.28679081
0.14061099
-0.82385004
0.52344935
0.3004007
-1.5781508
0.17200832
1.4061425
1.29032
-0.45893501
-0.83138498
1.1967664
0.093553634
0.83026995
0.61424475
-1.4445147
0.77733664
0.65381308
-1.4311497
-0.36875632
0.75626865
-0.38751233
0.10657584
-0.60287368
0.49629785
-0.99678908
1.0343706
-0.037581493
0.665925
-1.2081111
0.54218606
0.7134491
0.26118169
-0.97463079
-0.15503362
0.93003789
-0.77500428
-1.3821591
1.0971734
-0.35327534
0.92788064
-0.5746053
0.27972795
0.27204455
-0.62828188
0.57091911
0.057362779
0.74323963
0.95744171
-1.7006813
1.3396274
-1.2382824
-0.10134506
0.078150775
-0.44731476
0.74716392
-0.29984916
0.98199518
-0.46717225
-0.51482293
1.4964902
-1.3485086
-0.14798158
1.1580077
-1.0279467
-0.13006108
0.44026194
-0.6006574
0.16039546
-0.34200203
0.13260392
0.20939811
0.20408759
-0.54972132
-1.8130253
1.2861014
0.52692395
0.34797666
0.7516453
0.37056423
-1.3668339
0.99626969
-0.67481651
1.1403614
-0.46554493
-0.15683034
-0.92993621
1.0867665
0.43635333
-0.32276539
-0.11358794
0.075633385
1.263994
0.83742397
-0.0026086397
-0.83481533
-1.1950823
0.48845094
0.70663135
0.079529673
0.55003787
-0.62956754
0.47839815
0.36177485
0.66037438
0.36472334
-1.0250977
0.68868001
-0.26126603
-0.42741398
-0.72560883
-0.80805598
0.46254118
-0.27587689
-0.11590351
-0.23246771
0.34837122
-0.43442903
0.84923117
-0.41480214
-0.46810057
1.2113402
-0.86156881
1.1454237
-0.28385486
-0.92287421
-0.27220808
-0.010709252
1.1393598
1.2401207
-1.1594626
-0.080658066
-0.763169
-0.38654469
-1.6839964
1.1131882
0.57080829
-1.8140589
1.3174478
0.49661111
0.86303311
-0.3879303
-0.47510281
0.20687427
-0.55635645
0.3079754
-0.78164236
0.0067461531
0.635751
-0.64249715
0.46899718
-0.62403079
-0.22124118
0.60470678
0.28387856
0.65729592
1.0032008
0.49328944
0.5811941
-0.57444795
0.43547139
1.0425033
-1.4779747
1.5314107
-0.87862535
-0.65278533
-0.32957056
0.72139919
-0.39182863
-0.0095540831
0.22575788
0.30919366
-0.16265538
0.13000407
0.13672826
-0.26673233
1.6360402
-1.6632022
0.12902971
0.067944916
-0.19697463
0.17514004
-0.034515726
-1.124845
1.2113642
-0.086519152
-0.31232723
0.20720182
0.10512541
0.59106057
-0.54938683
-0.041673747
-0.84421995
0.76990625
0.074313704
0.29060139
-0.14442156
-0.052344467
0.47842619
-0.42608172
-0.72530811
1.3292244
-0.60391633
0.44991907
0.83530565
1.1902413
-0.52431634
0.51394272
0.34909039
-0.53375007
0.40283309
0.99095017
-1.1477805
-0.46455053
0.34864702
0.84564335
0.39447735
0.78917743
-1.6227401
0.83356263
0.46526295
0.25329943
-0.20282416
-0.46094552
0.70395477
1.197011
-1.197011
-0.33858734
-0.19315899
1.030583
0.11892524
-0.56624
-0.058674009
0.96265894
-0.90398493
-0.61146422
1.4417342
-0.63845157
1.4157882
1.2718647
-0.72912033
-0.54274441
0.62871984
0.45822837
-0.78779893
0.89850744
-1.1797625
0.28125504
0.88554919
-0.88002288
0.13659622
-0.067495155
-1.0289131
1.0964083
1.4775235
0.24891253
-1.726436
-0.82911942
1.2645908
-0.62340948
0.7089347
-0.64260899
0.72804948
-0.057608028
0.71798241
0.012276159
0.55246199
-0.56473815
-0.8655267
-0.039207446
0.90473414
0.54120661
-1.2665147
-1.3538843
1.2952103
0.90033134
0.40757699
-1.3079083
-0.11051071
-0.52177363
0.63228434
-0.56563935
1.1098477
-0.91462146
0.34296179
0.57165967
0.57100912
-0.49147944
0.13635941
-0.79559965
0.65924025
0.99737249
-1.1091115
0.11173898
0.87605328
0.39581146
-1.516081
0.79580733
0.074589287
1.0834185
0.96577133
0.737174
-1.3432494
-0.1483123
0.58857424
-1.0537249
0.83477064
0.21895422
-1.0785227
0.96801202
0.57472442
0.725322
-1.3000464
0.91068753
0.017193117
-0.64643602
0.78279543
-0.31079175
-0.74293312
-0.17453196
-0.33625199
0.51078396
0.45545395
-0.73804639
0.28259244
0.14883591
0.43809056
-0.58692647
-1.0166513
0.25932991
0.75732138
0.16078006
1.1976666
-1.3584467
-0.94421925
-0.45677954
1.4009988
0.24723692
0.71007927
-0.25194981
-0.0010009906
0.2529508
-0.95231583
-0.18731256
1.1991665
-1.0901293
1.0951617
-0.097789222
-0.78590366
-0.44935089
1.2352546
-0.68253987
-0.29624575
0.97878562
-0.12043315
0.47634173
-0.35590858
-0.051825953
0.8865966
-0.43000731
-0.51984492
0.94985223
0.55850826
0.0046783404
-0.5631866
-0.79419263
0.72514818
0.069044454
-0.99910873
0.55640935
0.44269938
-0.88787562
0.57708388
0.57448358
-1.1535064
1.4775235
0.17574825
0.39312561
-0.56887386
1.4531677
-1.1618297
-0.29133796
-1.0758513
1.1902819
-0.47683277
-0.88133844
-0.2435066
0.051162531
-0.84046823
0.7893057
-1.0748482
1.2356282
0.5749843
-1.1186488
0.5436645
0.54806638
0.73981579
-1.2878822
-0.68117822
0.53478384
-0.7093158
0.34218603
-0.3945305
-1.1676827
-0.51631374
1.0444642
-0.11442626
1.0818228
-0.89356131
-0.18826149
0.87397136
0.71946709
-1.5934384
0.20585651
-0.69495767
-0.0089389867
0.18975588
-0.18081689
-0.41501997
0.59076822
-0.51234846
1.3863198
-1.3783862
1.3656804
0.012705816
-0.13959993
0.61802612
0.030699963
-0.28264978
0.37708789
-0.3886863
0.011598411
0.29198697
-1.3892488
1.0972618
-0.46544866
-0.035257418
0.50070607
-0.13855594
-0.70167003
0.84022597
0.6186871
0.29200043
0.25369405
1.0992077
-1.3529018
-0.62190585
0.28565386
1.0298549
0.23140823
-1.2612631
0.029277447
1.1683892
0.58071699
0.46077003
1.3255476
-0.26227852
-1.0632691
-0.50264686
-0.12563503
-1.1672373
0.38152876
0.78570857
0.1148881
-0.58860566
0.47371756
-0.82032239
0.81667793
0.0036444638
-0.1920009
1.1555691
1.1640847
-1.7319751
0.56789035
0.63025675
0.31735326
-0.94761001
-0.45230101
-0.042093735
0.49439475
-0.13131419
-0.35875657
0.49007075
0.44050244
0.081032515
1.3721352
-0.4744191
1.0494034
0.36349091
-0.18767847
0.9048868
0.23256946
-1.1374563
0.46654295
-0.45426679
-0.82948204
0.39947473
1.5055081
-0.12508849
1.2689406
-1.1438521
0.11783173
-1.2353793
-1.4388592
0.81237235
0.62648688
1.439714
-0.42024944
-0.75951304
-1.0827761
-0.21425451
-0.84343875
1.1046204
-0.57647566
-0.69051561
1.1854319
-0.96841655
-1.1220993
1.2316072
-0.10950781
-0.84260788
0.88261432
-0.39398542
-0.40020721
0.11367395
0.96814886
-0.031500567
-0.81271939
-0.57510906
-0.3395124
-0.18322131
1.2487047
-1.0654834
-0.4829406
0.5978287
-0.8932792
0.92842783
-0.035148631
0.0027143979
-1.1955352
1.1928208
0.9238934
-0.075754327
-0.84813908
0.50850913
-0.5234704
0.014961274
1.0146129
-1.1505326
0.13591966
0.077468423
0.89917194
-0.97664036
0.72676831
-0.61209696
-0.11467135
-0.45186022
0.29736442
0.15449579
0.17328916
-0.33895063
-0.0042413254
-0.93997792
-0.092595827
-0.90419325
-1.1662809
1.2466344
-1.24392
-0.57717873
-0.24667131
-0.35839732
0.15740296
0.20099436
0.72603316
-0.61716733
-0.10886584
0.21448796
-1.0599965
0.8455085
0.0020706484
0.37501724
-0.43282268
-0.032625981
0.65567168
-0.036984581
-0.67555064
-0.94718941
0.77281466
-0.20189555
0.3154003
-1.6360402
1.3206399
1.0634195
-0.59382667
-0.46959287
-0.12961368
-0.6985906
0.82820428
-0.64599199
0.32900629