/*--------------------------------*- C++ -*----------------------------------*\
| =========                 |                                                 |
| \\      /  F ield         | foam-extend: Open Source CFD                    |
|  \\    /   O peration     | Version:     4.1                                |
|   \\  /    A nd           | Web:         http://www.foam-extend.org         |
|    \\/     M anipulation  |                                                 |
\*---------------------------------------------------------------------------*/
FoamFile
{
    version     2.0;
    format      ascii;
    class       volVectorField;
    location    "0.5";
    object      U;
}
// * * * * * * * * * * * * * * * * * * * * * * * * * * * * * * * * * * * * * //

dimensions      [0 1 -1 0 0 0 0];

internalField   nonuniform List<vector> 
4242
(
(163.52071 167.54399 3.5569127e-15)
(178.63085 147.00367 1.057239e-17)
(173.68214 146.45615 -1.8444165e-15)
(174.00886 142.01096 1.492778e-15)
(172.97087 138.34044 1.9519573e-17)
(172.07257 133.9652 8.6308044e-18)
(171.06633 129.07652 0)
(169.95047 123.65783 5.1106301e-16)
(168.72853 117.69754 -8.2966589e-16)
(167.41183 111.20319 3.2681387e-16)
(166.02864 104.20811 -2.1412645e-16)
(164.62271 96.777042 1.8165531e-16)
(163.26208 89.002258 1.8571054e-17)
(162.09991 80.958091 -2.5770346e-17)
(161.39256 72.747257 -5.2464851e-17)
(161.01623 64.963488 0)
(188.80738 155.4164 0)
(206.47454 127.89595 -2.2205679e-17)
(199.92235 129.90054 2.1300614e-15)
(199.52014 125.81985 -1.7317047e-15)
(197.71 122.76215 -3.0948569e-17)
(196.04463 118.95664 1.0259798e-15)
(194.20262 114.76309 -4.9082569e-17)
(192.218 110.11516 -1.290288e-15)
(190.09492 105.00556 1.0354504e-16)
(187.84172 99.443128 4.0282715e-16)
(185.47784 93.45598 0)
(183.03393 87.097583 -3.1872118e-17)
(180.55914 80.446873 -3.4062972e-17)
(178.1615 73.569499 -1.9555996e-16)
(176.00942 66.521658 2.6956805e-16)
(173.95081 59.653266 3.5937729e-17)
(214.23679 142.28901 -6.3813718e-17)
(235.53868 104.92057 -6.9321529e-15)
(227.01348 111.37389 2.7955148e-15)
(226.15415 107.25912 -1.9070202e-17)
(223.5666 104.96581 -1.6830091e-15)
(221.07734 101.84188 1.3767959e-15)
(218.29639 98.439854 -1.8938386e-17)
(215.28286 94.62932 2.9797083e-17)
(212.03851 90.411983 -1.3516719e-17)
(208.58021 85.792065 -3.6195556e-17)
(204.94031 80.791083 3.7738804e-16)
(201.16725 75.453287 -2.8452373e-16)
(197.32726 69.848794 -4.5748563e-16)
(193.51145 64.060337 4.0565839e-16)
(189.81273 58.206347 -5.195835e-17)
(186.29302 52.422453 -1.4948345e-16)
(236.82687 124.07251 -1.1418083e-17)
(261.02997 74.891084 -8.8313081e-18)
(250.79234 87.086031 -1.6872863e-15)
(249.78195 82.280577 1.422138e-15)
(246.54188 81.025696 -1.8370733e-17)
(243.37863 78.737049 8.7953917e-16)
(239.80692 76.330996 -6.7000731e-16)
(235.90276 73.594122 -1.0785425e-15)
(231.65971 70.548001 6.4493945e-17)
(227.09874 67.189146 1.3841519e-15)
(222.2617 63.530252 -5.4368819e-16)
(217.21438 59.601091 0)
(212.0473 55.450485 3.3360123e-17)
(206.86381 51.152109 -2.5878555e-16)
(201.71133 46.877336 1.3192119e-16)
(196.58825 42.625108 -2.7316242e-16)
(251.61928 100.45842 1.1418083e-17)
(277.564 38.431468 -2.3708651e-15)
(266.24174 57.440146 2.0154969e-15)
(265.28232 51.285745 -1.1762582e-17)
(261.6281 51.460165 2.9478075e-17)
(258.0943 50.081508 -8.4335066e-18)
(254.06989 48.83861 -8.5336241e-16)
(249.64958 47.370233 1.9329933e-17)
(244.81724 45.733981 5.1269588e-16)
(239.59347 43.914414 -3.9580388e-16)
(234.02169 41.913527 3.3359742e-16)
(228.1734 39.741669 0)
(222.1494 37.417528 1.9927371e-16)
(216.06767 34.965252 -1.4768949e-16)
(209.99723 32.456456 4.6962722e-17)
(203.99342 29.572427 0)
(257.11982 72.487682 -1.647898e-15)
(282.8661 -0.42817504 6.5152719e-16)
(272.039 24.40675 1.0469885e-15)
(270.91822 17.215429 -8.5055812e-16)
(267.22014 18.893411 1.8574653e-18)
(263.60725 18.47352 2.94061e-16)
(259.49274 18.468053 2.3326571e-16)
(254.96413 18.359337 -1.022103e-17)
(250.00285 18.239536 -9.4709428e-18)
(244.62643 18.082272 -3.3394668e-16)
(238.87531 17.879393 3.5198665e-16)
(232.81846 17.620841 -1.3346982e-17)
(226.55472 17.297024 -3.6391803e-17)
(220.20399 16.888869 -8.2873208e-17)
(213.83769 16.48374 -5.6498897e-20)
(207.58689 15.498488 3.8881074e-17)
(252.55419 42.743535 -8.4551452e-16)
(276.66003 -37.832233 -5.9608436e-16)
(268.0767 -9.6729129 1.5449607e-15)
(266.48008 -16.6545 -8.2519302e-16)
(263.13296 -13.918902 3.490239e-16)
(259.69898 -13.27728 3.2564535e-20)
(255.83344 -12.084713 4.3148898e-16)
(251.57573 -10.842115 -1.9565169e-16)
(246.91541 -9.4655386 -2.5213909e-17)
(241.86687 -7.981707 9.437372e-17)
(236.46651 -6.4086342 -1.5255579e-16)
(230.7766 -4.775397 1.2149226e-16)
(224.88651 -3.1178395 -3.4336619e-17)
(218.90477 -1.5016941 -1.466769e-16)
(212.89527 0.17729159 5.8192844e-17)
(206.96304 1.0509484 7.5390993e-17)
(237.47007 14.0472 -1.9819208e-17)
(259.41786 -70.500049 2.3426068e-15)
(254.52106 -42.143274 -1.9536734e-15)
(252.4619 -47.593257 1.5041305e-15)
(249.72658 -44.358506 -1.264468e-15)
(246.75158 -42.622001 0)
(243.45407 -40.341981 7.7647839e-16)
(239.83056 -37.850371 -6.3001384e-16)
(235.87883 -35.098938 -1.3308074e-17)
(231.61133 -32.110885 0)
(227.05891 -28.91504 -5.44597e-17)
(222.27294 -25.559021 2.7214144e-17)
(217.32701 -22.103406 -1.8536202e-16)
(212.30783 -18.660467 3.5779829e-16)
(207.28054 -15.126895 -2.5626372e-16)
(202.29444 -12.372639 -7.0493285e-17)
(211.7714 -10.4848 1.4018396e-17)
(232.07729 -95.185902 -8.9240968e-18)
(231.94666 -70.161956 0)
(229.94769 -73.073168 3.0915065e-17)
(227.97351 -69.785779 1.558112e-17)
(225.75669 -67.073482 8.7153631e-16)
(223.33172 -63.887076 -7.4459373e-16)
(220.68785 -60.362211 0)
(217.82755 -56.479159 3.7867357e-18)
(214.76086 -52.259392 -3.8085337e-17)
(211.50953 -47.740885 3.4099278e-17)
(208.10835 -42.985044 1.9273258e-17)
(204.60829 -38.067947 3.9856348e-17)
(201.06532 -33.125813 2.4511835e-16)
(197.54362 -28.084259 -2.9607976e-16)
(194.03334 -23.69073 1.6661188e-16)
(175.28072 -27.166348 0)
(195.45191 -108.07921 3.7396659e-15)
(200.94693 -90.49654 -5.8316843e-15)
(200.30624 -90.650168 2.2945434e-15)
(199.34647 -87.556148 -1.5445636e-17)
(198.20564 -84.189313 -4.3887896e-17)
(196.95094 -80.377583 1.116551e-15)
(195.5997 -76.166722 -9.1146224e-16)
(194.16556 -71.545034 -6.1205081e-16)
(192.65619 -66.5324 5.7119515e-16)
(191.07967 -61.171963 0)
(189.4462 -55.531651 -3.5427123e-16)
(187.77179 -49.692608 2.0618066e-16)
(186.06438 -43.785787 0)
(184.35141 -37.759369 0)
(182.57903 -32.030723 0)
(130.18511 -33.010208 1.1807194e-14)
(153.39135 -108.49547 -3.200447e-15)
(164.54057 -100.51286 0)
(167.14982 -99.189655 -1.135991e-17)
(167.9681 -96.4795 -1.2855817e-15)
(168.29198 -92.946682 1.1015083e-15)
(168.40971 -88.870881 7.8705551e-16)
(168.44971 -84.363553 -1.8113268e-17)
(168.48855 -79.435578 -5.7010079e-16)
(168.55992 -74.111276 2.9314519e-17)
(168.67185 -68.442086 0)
(168.81462 -62.505678 -4.6748168e-16)
(168.96539 -56.394851 9.0651172e-17)
(169.07303 -50.243889 3.0060047e-16)
(169.07838 -44.087858 0)
(169.39509 -37.187982 3.3375938e-17)
(39.32883 9.5121506 5.1669525e-17)
(73.02912 -59.907383 4.841529e-15)
(99.107665 -75.434889 -1.6508684e-15)
(112.75778 -81.521288 -1.1973173e-15)
(119.83988 -83.330665 9.5525815e-16)
(124.41847 -82.709968 -7.5489272e-16)
(128.06897 -80.646886 6.2721471e-16)
(131.37729 -77.696733 4.4670796e-16)
(134.61548 -74.118443 -4.0450264e-16)
(137.89898 -70.041203 0)
(141.23754 -65.554059 0)
(144.57146 -60.740542 0)
(147.80214 -55.683596 2.6316624e-17)
(150.80664 -50.487503 0)
(153.40012 -45.342782 1.6024557e-16)
(156.12143 -39.23396 -2.9467751e-16)
(104.31784 -148.566 1.1343161e-15)
(130.05255 -143.24911 8.8140116e-19)
(132.6438 -149.68693 -5.6370967e-16)
(132.59715 -145.76583 4.4143856e-16)
(132.51121 -141.98588 5.2554029e-19)
(132.45357 -137.61151 9.2596907e-18)
(132.458 -132.64708 0)
(132.55327 -127.05741 8.4341066e-17)
(132.76098 -120.81555 -1.0229189e-16)
(133.10731 -113.93003 4.1241327e-17)
(133.61382 -106.44671 -7.2168069e-18)
(134.29277 -98.449197 6.0710628e-18)
(135.16559 -90.04597 -2.2357477e-17)
(136.28707 -81.345232 1.008822e-17)
(137.59261 -72.550062 1.1015639e-17)
(138.53821 -64.377401 0)
(82.580444 -142.28209 0)
(93.918035 -133.2474 2.7129657e-18)
(93.165984 -131.56258 -3.2616174e-16)
(94.211074 -128.60854 2.5588829e-16)
(95.412514 -125.34165 3.2782227e-18)
(96.879715 -121.63335 -2.1792673e-16)
(98.6232 -117.43928 -1.5863629e-17)
(100.65437 -112.72435 3.277927e-16)
(102.98007 -107.46582 -7.7619397e-18)
(105.59893 -101.65785 -1.2396948e-16)
(108.49702 -95.317622 0)
(111.64599 -88.490166 1.7650713e-17)
(115.01328 -81.243871 1.0567404e-17)
(118.57654 -73.656022 1.2434223e-16)
(122.26793 -65.833795 -1.6574387e-16)
(125.78098 -58.069812 -2.9459682e-17)
(54.339007 -122.55828 -1.506452e-17)
(61.679398 -116.87744 3.2686217e-15)
(62.329867 -114.62835 -1.2490621e-15)
(63.933157 -111.89412 9.896978e-18)
(65.873016 -108.87095 7.9291139e-16)
(68.179792 -105.48737 -6.244795e-16)
(70.878118 -101.69531 1.021707e-17)
(73.990012 -97.459159 -1.6629843e-17)
(77.530544 -92.756594 2.3402701e-18)
(81.502186 -87.582522 2.2113586e-17)
(85.888731 -81.954195 -2.3745515e-16)
(90.654728 -75.913957 1.78923e-16)
(95.761021 -69.524892 3.3199205e-16)
(101.1807 -62.866403 -2.9471158e-16)
(106.81967 -56.067979 3.8980923e-17)
(112.26497 -49.403699 1.3516223e-16)
(30.463668 -95.18292 9.3710196e-18)
(34.578671 -91.370838 6.7248654e-18)
(36.111095 -89.079092 1.1445824e-15)
(38.225906 -86.703428 -8.9164235e-16)
(40.811341 -84.150803 1.1834269e-17)
(43.879332 -81.356938 -5.5124232e-16)
(47.457953 -78.278665 4.0431862e-16)
(51.572685 -74.886746 6.9254931e-16)
(56.238493 -71.164167 -1.2568918e-17)
(61.451496 -67.107689 -9.1930587e-16)
(67.181228 -62.730414 3.6543296e-16)
(73.372113 -58.062112 0)
(79.962735 -53.145295 -2.4794992e-17)
(86.891182 -48.037039 2.1188789e-16)
(93.979352 -42.841752 -1.0700607e-16)
(100.68595 -37.749664 2.5085902e-16)
(13.846376 -63.974502 -1.1894219e-17)
(15.779387 -60.221551 2.2972405e-15)
(17.789129 -57.739052 -1.6586692e-15)
(20.302917 -55.563058 8.763351e-18)
(23.361685 -53.450936 -2.0987954e-17)
(26.987976 -51.302425 5.8728317e-18)
(31.215843 -49.064251 6.0344433e-16)
(36.077237 -46.705661 6.2439508e-18)
(41.591919 -44.209541 -3.4963937e-16)
(47.757525 -41.56908 2.8828987e-16)
(54.542065 -38.786407 -2.3672773e-16)
(61.889545 -35.869749 0)
(69.742805 -32.827588 -1.5852465e-16)
(78.028565 -29.665933 1.1632945e-16)
(86.454706 -26.420033 -3.9991331e-17)
(94.160111 -23.243374 0)
(214.37067 -142.34378 0)
(235.66874 -104.97975 3.4400902e-15)
(227.16521 -111.42986 -5.5221945e-15)
(226.32144 -107.32917 2.2420445e-15)
(223.76177 -105.04532 1.5150619e-17)
(221.30029 -101.93447 4.8051214e-18)
(218.54462 -98.543632 1.0339445e-15)
(215.54696 -94.740555 -8.7696306e-16)
(212.30137 -90.523462 -6.2720952e-16)
(208.8169 -85.893393 4.7217952e-16)
(205.1214 -80.869557 0)
(201.26716 -75.497557 -2.432614e-16)
(197.33804 -69.856062 1.915289e-16)
(193.46049 -64.038336 0)
(189.7777 -58.147561 0)
(186.35569 -52.314364 0)
(5.3709886 -37.886121 2.5017839e-15)
(6.6320432 -32.630126 -7.3130073e-16)
(9.2824734 -29.473316 -9.8466223e-16)
(12.458963 -27.046243 7.1274693e-16)
(16.126727 -24.979139 6.7048092e-18)
(20.305778 -23.119714 -2.1501338e-16)
(25.024512 -21.390089 -1.7245133e-16)
(30.307694 -19.744273 2.0094193e-18)
(36.169548 -18.151575 2.204196e-18)
(42.607317 -16.589004 2.4740294e-16)
(49.595198 -15.040609 -2.6464597e-16)
(57.081066 -13.489606 4.6837101e-18)
(64.987734 -11.917278 2.4997879e-17)
(73.209678 -10.297998 6.712738e-17)
(81.581602 -8.5999024 4.8884791e-20)
(89.808055 -6.8498557 -3.6754495e-17)
(5.4331002 37.676619 1.2352296e-15)
(6.7130606 32.320739 7.2274454e-16)
(9.3992509 29.19245 -1.464957e-15)
(12.620588 26.820604 7.0648276e-16)
(16.336383 24.817259 -2.7527445e-16)
(20.564283 23.023212 -2.5138213e-20)
(25.330203 21.356364 -3.3204392e-16)
(30.655842 19.767335 1.3971817e-16)
(36.551748 18.22249 1.479448e-17)
(43.01122 16.696525 -7.88469e-17)
(50.005213 15.172262 1.1772501e-16)
(57.48016 13.633344 -1.0224718e-16)
(65.358781 12.063467 2.4884311e-17)
(73.530692 10.44252 1.294743e-16)
(81.808383 8.7532333 -5.220384e-17)
(89.859083 7.0582382 -7.4411612e-17)
(13.91199 64.169728 1.8573928e-17)
(15.845544 60.452159 -2.3072642e-15)
(17.882742 58.001821 1.6526283e-15)
(20.426652 55.845104 -1.2213222e-15)
(23.514424 53.740009 9.5213147e-16)
(27.167291 51.587009 0)
(31.417688 49.333388 -5.8207426e-16)
(36.295636 46.948774 4.547796e-16)
(41.818559 44.416281 9.2938388e-18)
(47.981259 41.729105 0)
(54.748843 38.889023 4.1443399e-17)
(62.063461 35.903305 -2.1187314e-17)
(69.866491 32.777738 1.5483226e-16)
(78.074621 29.509714 -3.0643573e-16)
(86.366073 26.113933 2.199106e-16)
(93.871721 22.726635 6.4496549e-17)
(30.546363 95.539362 -9.3471046e-18)
(34.676074 91.753966 6.7114439e-18)
(36.215584 89.478482 0)
(38.326932 87.10418 -1.8752975e-17)
(40.900898 84.539587 -8.740397e-18)
(43.949233 81.721848 -5.4980336e-16)
(47.499004 78.608747 4.5545394e-16)
(51.57433 75.171775 0)
(56.18841 71.39463 -4.4382279e-18)
(61.334589 67.275056 2.3812229e-17)
(66.978265 62.827729 -2.4609777e-17)
(73.062909 58.083551 -1.145116e-17)
(79.543886 53.079822 -3.1033253e-17)
(86.397161 47.851952 -1.9693506e-16)
(93.415994 42.481867 2.400421e-16)
(99.768706 37.255376 -1.4022759e-16)
(54.372612 122.81171 0)
(61.759333 117.12772 -1.6422992e-15)
(62.397441 114.88663 2.5026076e-15)
(63.978462 112.14576 -9.6793229e-16)
(65.885254 109.10402 7.8412612e-18)
(68.147705 105.69096 1.9344889e-17)
(70.789856 101.85906 -5.3574228e-16)
(73.833348 97.573344 4.2820498e-16)
(77.293518 92.812532 3.2496022e-16)
(81.173388 87.574025 -3.0116434e-16)
(85.456953 81.880395 0)
(90.115252 75.780616 2.2192891e-16)
(95.1485 69.33529 -1.3030835e-16)
(100.61924 62.608951 0)
(106.425 55.790289 0)
(111.62719 49.499372 0)
(82.538569 142.37509 -8.7384285e-16)
(93.943165 133.31291 3.4296713e-16)
(93.168701 131.63341 0)
(94.191837 128.66508 -6.0033258e-19)
(95.360751 125.37402 2.4664655e-16)
(96.785963 121.63226 -2.0422264e-16)
(98.479057 117.39631 -1.9189644e-16)
(100.45366 112.63249 -1.4004913e-17)
(102.72101 107.3206 1.5519603e-16)
(105.28716 101.45932 -1.2661408e-17)
(108.1495 95.07366 0)
(111.29995 88.218237 1.9498396e-16)
(114.74632 80.968374 -2.8114766e-17)
(118.51552 73.420109 -1.3699334e-16)
(122.52396 65.765134 0)
(126.44932 58.332128 -1.3808246e-17)
(104.131 148.48754 4.2118632e-17)
(129.99998 143.17643 1.6500389e-15)
(132.58891 149.66311 -6.0801842e-16)
(132.52448 145.72185 -3.9905516e-16)
(132.41413 141.92192 3.1756926e-16)
(132.32564 137.52104 -1.9535478e-16)
(132.29468 132.52544 1.4476418e-16)
(132.35346 126.90287 8.4770751e-17)
(132.52924 120.63066 -8.3589085e-17)
(132.85667 113.72355 0)
(133.36879 106.23653 0)
(134.09249 98.264359 0)
(135.06674 89.926161 1.1116485e-17)
(136.35529 81.34147 0)
(137.86 72.715638 -3.1961483e-17)
(138.88748 64.682087 7.4603206e-17)
(39.225992 -9.6196759 5.5704689e-15)
(72.958851 59.81326 1.1373591e-17)
(99.058736 75.381776 -1.6140424e-15)
(112.74454 81.493764 1.2440631e-15)
(119.85875 83.326268 1.7938939e-17)
(124.4669 82.728058 6.2752958e-18)
(128.14583 80.686438 0)
(131.47995 77.755425 4.6462773e-16)
(134.73754 74.191558 -7.7127004e-16)
(138.02852 70.120675 3.0950563e-16)
(141.35616 65.628406 -2.2683624e-16)
(144.65454 60.79653 1.9244054e-16)
(147.82208 55.708262 1.6022755e-17)
(150.72997 50.487105 -3.2544511e-17)
(153.25255 45.235189 -8.2992475e-17)
(156.27212 38.343314 0)
(130.17708 32.967376 0)
(153.39919 108.45973 -2.4700214e-17)
(164.56963 100.51767 2.2217358e-15)
(167.20327 99.199112 -1.7292622e-15)
(168.04378 96.500576 -2.9787446e-17)
(168.39124 92.980104 1.0255368e-15)
(168.533 88.916203 -3.9291996e-17)
(168.5941 84.418311 -1.3109377e-15)
(168.64618 79.494517 9.6848007e-17)
(168.71713 74.165783 4.1938389e-16)
(168.80963 68.480469 0)
(168.91176 62.51439 -3.5174724e-17)
(169.00649 56.357868 -3.9807431e-17)
(169.05392 50.150745 -2.3927279e-16)
(169.04882 43.846008 3.3354031e-16)
(169.00344 37.524099 4.5100257e-17)
(175.33218 27.156823 -9.4936459e-17)
(195.50838 108.0781 -7.5506832e-15)
(201.02205 90.523571 2.9532978e-15)
(200.40059 90.675532 -1.9581457e-17)
(199.46212 87.591885 -1.7544924e-15)
(198.34549 84.234429 1.4283446e-15)
(197.11491 80.431754 -1.9319393e-17)
(195.78323 76.227329 3.0453671e-17)
(194.35833 71.607255 -1.4225632e-17)
(192.84174 66.589136 -3.7298534e-17)
(191.2369 61.214861 4.0472207e-16)
(189.55428 55.553221 -3.0438077e-16)
(187.81955 49.688025 -5.0453032e-16)
(186.05603 43.768212 4.4729082e-16)
(184.33036 37.694856 -6.1637404e-17)
(182.48572 32.335219 -1.823454e-16)
(211.86483 10.488901 -1.4034435e-17)
(232.17131 95.201718 -8.9326236e-18)
(232.0578 70.195017 -1.713601e-15)
(230.07483 73.104087 1.4224359e-15)
(228.12279 69.825988 -1.8009798e-17)
(225.93043 67.120531 8.7203994e-16)
(223.52856 63.941103 -6.6035076e-16)
(220.90115 60.420778 -1.0668982e-15)
(218.04433 56.538441 5.8753689e-17)
(214.96177 52.314118 1.3712553e-15)
(211.67138 47.785428 -5.390489e-16)
(208.2106 43.015028 0)
(204.64364 38.082075 3.4693119e-17)
(201.04673 33.136781 -2.6789603e-16)
(197.51661 28.043895 1.370376e-16)
(194.01623 23.869858 -2.9083315e-16)
(237.58722 -14.043589 1.2874811e-17)
(259.53373 70.515233 -2.3274209e-15)
(254.65428 42.169724 1.9554487e-15)
(252.61037 47.617953 -1.1395252e-17)
(249.89871 44.390861 2.8144618e-17)
(246.94842 42.658838 -7.8964695e-18)
(243.67308 40.384067 -8.0206313e-16)
(240.06321 37.89586 1.6466178e-17)
(236.10973 35.14558 4.7825546e-16)
(231.8186 32.155746 -3.7086103e-16)
(227.21759 28.955444 3.1215282e-16)
(222.36281 25.593659 0)
(217.34408 22.134833 1.8888791e-16)
(212.27217 18.69976 -1.4052477e-16)
(207.23635 15.129824 4.6526316e-17)
(202.29038 12.596155 0)
(252.68336 -42.747108 -1.7060527e-15)
(276.78723 37.837762 6.4463611e-16)
(268.22248 9.6867426 1.0268658e-15)
(266.64135 16.665297 -8.2591986e-16)
(263.3195 13.935063 1.5752493e-18)
(259.91063 13.295014 2.8159933e-16)
(256.06687 12.105453 2.2240114e-16)
(251.82089 10.864916 -9.568117e-18)
(247.1551 9.4900147 -8.8314154e-18)
(242.07731 8.0074096 -3.1505587e-16)
(236.62152 6.4355777 3.3146447e-16)
(230.85642 4.8045196 -1.2341422e-17)
(224.89011 3.152517 -3.4370445e-17)
(218.85724 1.5428619 -7.7955012e-17)
(212.83903 -0.16901951 -5.2339128e-20)
(206.96139 -0.84735374 3.678224e-17)
(257.25508 -72.501636 -8.1853188e-16)
(282.99929 0.42043487 -6.0376248e-16)
(272.19203 -24.408442 1.5783684e-15)
(271.08728 -17.222517 -8.5133396e-16)
(267.41585 -18.89825 3.6275217e-16)
(263.82866 -18.480235 3.4243292e-20)
(259.73607 -18.474691 4.5319389e-16)
(255.21841 -18.36567 -2.0657137e-16)
(250.24976 -18.243928 -2.6681083e-17)
(244.84107 -18.082541 9.995088e-17)
(239.03079 -17.872767 -1.6257666e-16)
(232.89548 -17.60421 1.2924971e-16)
(226.55434 -17.268143 -3.6430911e-17)
(220.15373 -16.856852 -1.5625135e-16)
(213.78273 -16.468168 6.1987711e-17)
(207.59838 -15.320485 7.9106149e-17)
(251.75789 -100.4849 -1.7725069e-17)
(277.70106 -38.453561 2.3911997e-15)
(266.39898 -57.459128 -2.0177892e-15)
(265.4563 -51.3123 1.5737211e-15)
(261.82948 -51.488537 -1.3351605e-15)
(258.32196 -50.115328 0)
(254.31989 -48.875833 8.2710682e-16)
(249.91063 -47.409251 -6.7459429e-16)
(245.07061 -45.771185 -1.3629118e-17)
(239.81383 -43.944978 0)
(234.18187 -41.931812 -5.7770495e-17)
(228.25429 -39.742637 2.8429889e-17)
(222.15239 -37.401401 -1.945697e-16)
(216.02088 -34.946064 3.765794e-16)
(209.95367 -32.431392 -2.6644136e-16)
(204.01469 -29.44674 -7.2302813e-17)
(236.96383 -124.11257 1.1432615e-17)
(261.16591 -74.92983 -8.8422795e-18)
(250.94916 -87.122788 0)
(249.95553 -82.328312 -7.8621475e-18)
(246.74338 -81.079182 -1.5469393e-17)
(243.60714 -78.799807 8.3126338e-16)
(240.05885 -76.400901 -7.1745551e-16)
(236.16728 -73.668289 0)
(231.91846 -70.620894 5.3285854e-17)
(227.32641 -67.253162 3.77376e-17)
(222.43047 -63.57651 3.501686e-17)
(217.30343 -59.622233 -7.1168538e-17)
(212.05539 -55.447369 4.0478291e-17)
(206.81941 -51.137752 2.4001451e-16)
(201.67813 -46.843287 -2.8537059e-16)
(196.62658 -42.525449 1.6072048e-16)
(188.92194 -155.47779 7.4954769e-15)
(206.58097 -127.97082 -2.8466842e-15)
(200.05228 -129.97007 0)
(199.66434 -125.90557 -1.2231181e-17)
(197.88236 -122.86024 -1.2918943e-15)
(196.24644 -119.07119 1.1149453e-15)
(194.43326 -114.89321 7.7923338e-16)
(192.47058 -110.25745 -2.6362202e-17)
(190.35477 -105.15248 -5.5694961e-16)
(188.085 -99.582931 2.7562547e-17)
(185.67271 -93.573004 0)
(183.14685 -87.175189 -4.1489123e-16)
(180.57045 -80.472968 9.2645227e-17)
(178.09268 -73.537711 2.5703166e-16)
(175.94522 -66.416059 0)
(173.96477 -59.476086 2.3072877e-17)
(163.61609 -167.59004 3.6812185e-17)
(178.70069 -147.07897 4.9815751e-15)
(173.77828 -146.5202 -1.9116455e-15)
(174.11724 -142.09172 -1.4202667e-15)
(173.10768 -138.4351 1.1505635e-15)
(172.24118 -134.07877 -8.7893442e-16)
(171.26867 -129.21016 7.2682777e-16)
(170.18302 -123.8103 4.9288217e-16)
(168.98028 -117.86325 -4.4453178e-16)
(167.66152 -111.37176 0)
(166.24346 -104.36324 0)
(164.7615 -96.897367 0)
(163.2894 -89.065836 1.7330259e-17)
(162.01633 -80.953322 0)
(161.26408 -72.68919 1.0469718e-16)
(160.96189 -64.83239 -1.7812966e-16)
(-39.65103 61.786368 1.0899518e-15)
(19.932027 -13.530642 2.0513042e-18)
(47.153432 -35.745212 -2.1379027e-16)
(66.222115 -47.49386 1.4155144e-16)
(80.593158 -53.579178 1.9580668e-18)
(91.69223 -56.190711 5.0403108e-18)
(100.46131 -56.722478 0)
(107.61406 -56.036026 7.3528455e-17)
(113.64575 -54.649894 -1.2742698e-16)
(118.88287 -52.875616 6.1428146e-17)
(123.54448 -50.88637 -6.6093038e-17)
(127.77054 -48.748002 5.7506558e-17)
(131.64044 -46.443503 -8.663843e-18)
(135.21934 -43.892424 -1.1080059e-17)
(138.44568 -41.124445 -4.694693e-17)
(141.93528 -37.690788 0)
(-18.655113 46.129074 0)
(-24.116804 37.215742 -7.1391349e-18)
(-3.8251896 16.21256 5.3007061e-16)
(17.649493 -4.3568498 -3.3368774e-16)
(38.904039 -22.903505 -4.6803037e-18)
(56.543645 -35.061034 1.5141474e-16)
(71.440396 -42.460012 1.327842e-18)
(84.02981 -46.673794 -1.798701e-16)
(94.510797 -48.75692 6.2142544e-18)
(103.16572 -49.374925 6.3860771e-17)
(110.30165 -48.976669 0)
(116.14477 -47.846095 -5.5410419e-18)
(120.88971 -46.133419 -1.1810474e-17)
(124.79145 -43.878018 -5.8559084e-17)
(128.09006 -41.12158 8.7083544e-17)
(131.50818 -37.587451 8.0095864e-18)
(-17.138191 53.598143 -1.0757222e-17)
(-23.579054 43.984404 -2.5039683e-15)
(-19.883914 41.343209 1.0813561e-15)
(-17.239637 39.828734 -6.4954864e-18)
(-14.590351 38.818014 -5.5405674e-16)
(-1.3868645 24.962106 3.4603905e-16)
(15.596194 7.3611411 -3.7465826e-18)
(34.376789 -10.233705 5.2078005e-18)
(52.073924 -23.725396 -3.1037369e-18)
(67.670846 -32.747118 -5.4621833e-18)
(80.970634 -38.599055 5.6730701e-17)
(91.724922 -42.100011 -3.9544554e-17)
(100.02247 -43.460101 -6.9856765e-17)
(106.36457 -42.963767 6.0819526e-17)
(111.30847 -40.970681 -1.2046561e-17)
(116.34834 -37.286689 -2.6608168e-17)
(-13.677558 57.756101 -2.4633413e-18)
(-16.786245 50.104985 -2.1178597e-18)
(-15.129995 46.674217 -5.2476798e-16)
(-13.789838 43.962461 4.5114705e-16)
(-12.712167 41.531023 -5.0906041e-18)
(-11.30224 39.374776 3.2061354e-16)
(-8.741673 37.699876 -2.3175536e-16)
(-5.423047 36.038069 -3.8429436e-16)
(4.9915198 25.819076 -9.5093696e-18)
(20.634022 9.5131023 3.6779638e-16)
(38.482403 -8.0653555 -1.270796e-16)
(51.857787 -22.1045 0)
(62.688067 -31.784767 6.1244909e-18)
(72.30856 -36.531682 -2.7833486e-17)
(80.875692 -37.412982 1.5299701e-17)
(89.748574 -34.977931 -6.2271221e-19)
(-9.3146978 54.953571 2.4633413e-18)
(-9.5514633 47.66309 -4.6048576e-16)
(-9.3413908 43.673716 3.8097264e-16)
(-9.3782776 40.581444 -2.8424037e-18)
(-9.7239645 37.820363 5.9062374e-18)
(-10.338741 35.192662 -1.1069448e-18)
(-11.182213 32.612867 -1.8986529e-16)
(-12.189377 29.935175 -1.2163782e-17)
(-13.370465 26.742248 1.2380379e-16)
(-15.274085 21.907909 -1.40796e-16)
(-15.574163 13.462354 1.5231035e-16)
(20.135299 -11.586278 0)
(20.815483 -21.558903 3.975591e-17)
(28.332714 -27.413951 -2.4008811e-17)
(38.182806 -29.555455 1.9899208e-18)
(50.620393 -28.190621 0)
(-6.4006539 40.194313 -6.4181075e-17)
(-7.1222945 30.08436 1.8237143e-17)
(-9.406056 23.901515 2.9399909e-17)
(-12.025144 19.030495 -2.4126112e-17)
(-14.871514 14.777574 -1.9163118e-18)
(-17.890602 10.854672 9.6062961e-18)
(-21.016466 7.11028 1.0704246e-17)
(-24.204318 3.4458747 1.2302993e-18)
(-27.534534 -0.22136014 1.2679416e-18)
(-31.137869 -3.9608773 -2.5861934e-17)
(-34.33528 -7.8105653 3.1156882e-17)
(-34.118399 -11.588839 -3.1987923e-18)
(-27.941827 -15.688636 -9.59079e-18)
(-19.667889 -19.011101 -4.6383849e-18)
(-8.1544065 -20.719486 8.6305537e-21)
(13.998901 -19.854926 -1.8138869e-17)
(-6.4228344 -40.004438 -3.0353451e-17)
(-7.1527169 -29.7124 -2.0559846e-17)
(-9.4566685 -23.425533 4.2137218e-17)
(-12.105078 -18.477781 -2.3435356e-17)
(-14.987973 -14.164934 1.0368278e-17)
(-18.049708 -10.195385 1.1579034e-21)
(-21.22385 -6.4160477 2.008568e-17)
(-24.46292 -2.7268825 -7.6772249e-18)
(-27.828954 0.95732163 -4.6681208e-19)
(-31.390286 4.6977518 9.9054679e-18)
(-34.372707 8.4840232 -1.2437289e-17)
(-33.827494 12.049228 1.103376e-17)
(-27.733757 15.676884 -9.4521761e-18)
(-19.538906 18.051166 -3.5140618e-19)
(-9.1776136 18.140874 -4.0817468e-18)
(13.449623 12.996199 -2.9533423e-17)
(-9.3333475 -55.004182 -3.1088298e-18)
(-9.5430176 -47.644514 4.6629616e-16)
(-9.3388591 -43.630215 -3.8184544e-16)
(-9.3945753 -40.524175 3.1262177e-16)
(-9.7658583 -37.744139 -2.5507897e-16)
(-10.405344 -35.07209 0)
(-11.278999 -32.389809 1.8575559e-16)
(-12.367682 -29.501046 -1.4610454e-16)
(-13.673517 -25.947609 -6.2651128e-18)
(-15.355903 -20.593939 0)
(-13.897569 -11.405089 -2.7247288e-17)
(18.41597 12.586437 1.3663408e-17)
(20.221317 22.577095 -4.2227847e-17)
(28.128291 28.338067 3.2028654e-17)
(38.064776 30.6174 -1.1479657e-17)
(52.474662 29.028451 8.9717603e-18)
(-13.721982 -57.915705 2.4756497e-18)
(-16.817803 -50.209715 -2.1306012e-18)
(-15.158301 -46.760459 0)
(-13.820052 -44.040611 9.7512393e-18)
(-12.742488 -41.600449 5.6266429e-18)
(-11.326801 -39.420378 3.2363236e-16)
(-8.7543789 -37.691594 -2.6336917e-16)
(-5.4683876 -35.916916 0)
(5.006368 -25.364548 1.2540913e-19)
(20.871852 -8.663455 -1.0078914e-17)
(38.421415 8.9141273 7.5127686e-18)
(51.657939 22.827766 4.3428582e-18)
(62.421106 32.323022 5.7162523e-18)
(71.932266 36.937788 2.1748119e-17)
(80.28443 37.736629 -1.8901777e-17)
(89.879424 34.875678 1.6674497e-18)
(-17.169953 -53.718895 0)
(-23.589648 -44.071663 1.2576423e-15)
(-19.898703 -41.399275 -2.1623007e-15)
(-17.234101 -39.876025 8.0865705e-16)
(-14.566939 -38.858419 -4.5309954e-18)
(-1.4002608 -25.052547 -1.0994211e-17)
(15.586763 -7.4427965 2.3373784e-16)
(34.404801 10.216422 -1.6061494e-16)
(52.116053 23.776446 -9.4275534e-17)
(67.690144 32.880012 7.797017e-17)
(80.933798 38.801778 0)
(91.619308 42.329622 -4.9927651e-17)
(99.856297 43.68508 2.5978757e-17)
(106.14777 43.141654 0)
(111.00584 41.070272 0)
(116.3994 37.035786 0)
(-18.626125 -46.130932 2.7296706e-15)
(-24.162012 -37.276351 -9.7883182e-16)
(-3.9017694 -16.291663 0)
(17.582839 4.294373 -2.1619131e-18)
(38.857027 22.877578 -2.1922338e-16)
(56.522224 35.076874 1.58202e-16)
(71.44295 42.511242 1.1099768e-16)
(84.055502 46.758331 5.2911724e-18)
(94.557154 48.87568 -7.8928743e-17)
(103.22621 49.526762 3.8490753e-18)
(110.36364 49.151839 0)
(116.19235 48.02617 -9.8705867e-17)
(120.90772 46.293975 1.0574905e-17)
(124.77339 43.987684 7.1538038e-17)
(127.95053 41.215225 0)
(131.50546 37.467092 1.3502154e-17)
(-40.003125 -62.136464 3.1710598e-17)
(19.776535 13.364169 8.9318209e-16)
(47.050352 35.639508 -2.2846833e-16)
(66.153193 47.424589 -1.3524885e-16)
(80.554999 53.540385 9.8800369e-17)
(91.684125 56.181044 -8.7152686e-17)
(100.48314 56.74178 6.4731289e-17)
(107.66501 56.083882 7.1177396e-17)
(113.723 54.724207 -7.3758886e-17)
(118.97951 52.971463 0)
(123.64771 50.995058 0)
(127.86136 48.857357 0)
(131.69841 46.538306 2.1326421e-17)
(135.23004 43.957959 0)
(138.3497 41.223564 8.2781353e-17)
(142.58272 37.182787 -1.5814997e-16)
(129.01113 144.69227 0)
(132.79314 150.70364 0)
(134.02541 146.29622 0)
(134.42789 142.72908 2.1878169e-18)
(134.95172 138.53863 -1.6612504e-17)
(135.57215 133.72508 2.0935566e-17)
(136.30923 128.28448 0)
(137.17089 122.17995 -4.201215e-18)
(138.16126 115.40647 0)
(139.27841 108.00837 0)
(140.51132 100.07531 0)
(141.85592 91.733641 1.0640686e-17)
(143.35893 83.106775 0)
(145.04356 74.399358 2.3475755e-17)
(146.6093 66.452406 0)
(129.07112 -144.75781 0)
(132.85027 -150.72489 0)
(134.09733 -146.3402 0)
(134.52524 -142.79251 2.1918671e-18)
(135.08004 -138.62851 -1.5573022e-17)
(135.73618 -133.84564 2.3177438e-17)
(136.50951 -128.43762 0)
(137.40179 -122.36182 4.198581e-18)
(138.40772 -115.60688 0)
(139.51259 -108.20761 0)
(140.69047 -100.24248 0)
(141.92643 -91.827921 -1.0631783e-17)
(143.28019 -83.086138 0)
(144.82832 -74.281863 9.1453565e-18)
(146.45306 -66.406322 0)
(71.946768 55.919905 0)
(98.272836 72.814547 0)
(110.6141 79.910906 0)
(117.30251 81.600734 2.0921205e-18)
(121.59563 80.62956 -1.5706216e-17)
(124.83657 78.27923 2.0116753e-17)
(127.67964 75.115277 0)
(130.46548 71.403505 -4.2892202e-18)
(133.34491 67.298775 0)
(136.34609 62.910583 0)
(139.41526 58.328881 0)
(142.45273 53.626403 7.9928616e-18)
(145.33868 48.88526 0)
(147.78677 44.376503 5.185825e-17)
(150.79024 38.550611 0)
(72.025012 -56.013116 0)
(98.322124 -72.867931 0)
(110.62763 -79.940727 0)
(117.28523 -81.606697 2.0898341e-18)
(121.5494 -80.612612 -1.4384841e-17)
(124.76236 -78.240137 2.265089e-17)
(127.5799 -75.055683 0)
(130.3461 -71.327263 4.2910902e-18)
(133.21689 -67.212845 0)
(136.22661 -62.825065 0)
(139.32757 -58.255349 0)
(142.42138 -53.576988 -8.0077121e-18)
(145.39491 -48.84964 0)
(148.00429 -44.296479 4.287195e-17)
(150.79403 -39.077161 0)
(103.99712 148.98246 6.7326175e-20)
(104.1842 -149.05675 -6.7359393e-20)
(37.202471 -10.774962 5.9454515e-19)
(37.321078 10.675565 -5.8967352e-19)
(151.71314 15.032086 0)
(158.59335 0.1579387 0)
(141.36891 -25.728012 0)
(158.36176 0.15393092 0)