/*--------------------------------*- C++ -*----------------------------------*\
| =========                 |                                                 |
| \\      /  F ield         | foam-extend: Open Source CFD                    |
|  \\    /   O peration     | Version:     4.1                                |
|   \\  /    A nd           | Web:         http://www.foam-extend.org         |
|    \\/     M anipulation  |                                                 |
\*---------------------------------------------------------------------------*/
FoamFile
{
    version     2.0;
    format      ascii;
    class       volScalarField;
    location    "1";
    object      p;
}
// * * * * * * * * * * * * * * * * * * * * * * * * * * * * * * * * * * * * * //

dimensions      [0 2 -2 0 0 0 0];

internalField   nonuniform List<scalar> 
4242
(
-0.17664286
-0.17777017
-0.17838325
-0.17809071
-0.17628098
-0.17192817
-0.16382676
-0.15086379
-0.13240189
-0.10856832
-0.080228846
-0.04879642
-0.016056626
0.015796205
0.045011871
0.074760273
-0.35161973
-0.35118374
-0.35007617
-0.3473496
-0.34160083
-0.33111673
-0.31427743
-0.29028887
-0.2596672
-0.22416413
-0.18602826
-0.1471501
-0.10883112
-0.072120935
-0.038096784
-0.0062224998
-0.51002208
-0.50929961
-0.50799541
-0.50530015
-0.49986668
-0.48988648
-0.47329946
-0.44837893
-0.4145751
-0.37303139
-0.32634494
-0.27746714
-0.22870963
-0.18155919
-0.13699181
-0.096389017
-0.63642175
-0.63520949
-0.63345208
-0.63048212
-0.62506385
-0.61551752
-0.59982613
-0.57602954
-0.54292867
-0.50078972
-0.45153084
-0.39802212
-0.34292257
-0.2882555
-0.23556351
-0.18649172
-0.70977658
-0.70820057
-0.70614406
-0.70311046
-0.69802854
-0.68940108
-0.6753259
-0.65376779
-0.62316087
-0.58315665
-0.53505471
-0.48142491
-0.42502754
-0.36803707
-0.31190274
-0.256703
-0.72790474
-0.7261524
-0.72400209
-0.72114407
-0.71674836
-0.70961319
-0.69809679
-0.68024719
-0.6542599
-0.61919406
-0.5756043
-0.52554801
-0.4717583
-0.41665996
-0.36201675
-0.3085663
-0.69847994
-0.69674508
-0.6946921
-0.6921763
-0.68863945
-0.68325145
-0.67477833
-0.66157262
-0.64183827
-0.61420113
-0.57840929
-0.5356966
-0.4883756
-0.4388982
-0.38917782
-0.34004171
-0.63646628
-0.634938
-0.63315371
-0.63107441
-0.62837812
-0.62459444
-0.61895676
-0.61029553
-0.59710898
-0.57790361
-0.55179276
-0.51906883
-0.48125795
-0.44048995
-0.39869194
-0.35717501
-0.56059568
-0.55942787
-0.55804598
-0.55644538
-0.55446551
-0.55191228
-0.54843972
-0.54339308
-0.53574101
-0.52421821
-0.50767004
-0.48560983
-0.45863213
-0.4282439
-0.39615955
-0.36373556
-0.48888343
-0.48818821
-0.48732029
-0.48625518
-0.48490257
-0.48318548
-0.48097704
-0.47803859
-0.47397909
-0.46809447
-0.45926046
-0.44655001
-0.42978713
-0.40966339
-0.38734341
-0.36450644
-0.43569904
-0.43554791
-0.43528226
-0.43481997
-0.43405355
-0.43288615
-0.43128262
-0.42922258
-0.42643008
-0.42228677
-0.41655724
-0.40945238
-0.40076034
-0.3891523
-0.37274692
-0.34997299
-0.39786974
-0.39817327
-0.39841532
-0.3985306
-0.39845561
-0.39806679
-0.39717038
-0.39552753
-0.39305487
-0.39014612
-0.38734317
-0.38552899
-0.38668768
-0.38562283
-0.37725915
-0.35711041
0.067536999
0.068492382
0.069746855
0.072168233
0.076831276
0.084718626
0.096466881
0.11205823
0.13067433
0.15083082
0.17081956
0.18917922
0.20479024
0.21671137
0.22504681
0.23331697
0.28002408
0.2787184
0.27766404
0.27746089
0.27865291
0.28183729
0.28742019
0.29534592
0.30497712
0.31520755
0.32474762
0.33239245
0.33710144
0.33791941
0.33426553
0.32745242
0.47287463
0.4713114
0.4698142
0.46876055
0.46837331
0.4688883
0.47037982
0.47258574
0.47485772
0.47626805
0.47581831
0.4726166
0.46590047
0.45497649
0.43970708
0.42223603
0.61940019
0.61754376
0.61563225
0.61391416
0.61238942
0.61104895
0.60974932
0.60809367
0.60540975
0.6008301
0.59344177
0.58241561
0.5670146
0.54660176
0.52134439
0.49394796
0.72121386
0.71919418
0.71703827
0.7149054
0.71266027
0.71012957
0.70699137
0.70268499
0.69642781
0.68733193
0.67456679
0.65745709
0.63543779
0.60816758
0.57689039
0.54678851
-0.51215904
-0.51143439
-0.51012861
-0.50743125
-0.50199311
-0.49200362
-0.47539968
-0.45044832
-0.41659785
-0.37499146
-0.32822557
-0.27926286
-0.23043396
-0.18326567
-0.13886094
-0.098588975
0.74671133
0.7448352
0.74277202
0.74062164
0.73819718
0.73526536
0.73145515
0.72620361
0.71880214
0.70850457
0.69464189
0.67669937
0.65434314
0.62745001
0.596318
0.56231468
0.74711672
0.74523097
0.7431579
0.74099795
0.73856317
0.73561875
0.73179144
0.72651569
0.7190815
0.70874438
0.69484128
0.67686582
0.65449578
0.62765298
0.59679945
0.56358365
0.72136139
0.7193368
0.71717662
0.71504035
0.71279174
0.71025619
0.70710997
0.7027904
0.69651391
0.68739451
0.67460772
0.65748636
0.63547821
0.60829941
0.57735247
0.54784137
0.61878561
0.61694558
0.61505262
0.61335356
0.61184825
0.61052642
0.60924209
0.60759478
0.60490867
0.60031593
0.59290996
0.5818637
0.56638582
0.5457168
0.52027738
0.4944084
0.47211738
0.47057899
0.46910957
0.46808463
0.46772851
0.46827862
0.46981067
0.47206297
0.47438587
0.4758506
0.4754642
0.47233292
0.46558761
0.45425639
0.43860897
0.42430165
0.28043471
0.27914112
0.27810107
0.27791305
0.27912247
0.28233049
0.28794981
0.29593262
0.30564813
0.31599417
0.32568588
0.33352215
0.33843847
0.33944274
0.33610462
0.32945943
0.069031111
0.069983205
0.071234035
0.073648612
0.078299078
0.086167963
0.097895077
0.11346871
0.13207645
0.15223503
0.17223219
0.19059587
0.20617344
0.21794582
0.22596831
0.23404964
-0.39954757
-0.39985175
-0.40009487
-0.4002119
-0.40013977
-0.39975552
-0.39886593
-0.39723036
-0.39475515
-0.39181999
-0.38897171
-0.38706245
-0.38794246
-0.38640068
-0.37674907
-0.35471023
-0.4371811
-0.43703165
-0.43676807
-0.43630861
-0.43554615
-0.43438305
-0.43278308
-0.43073006
-0.42795769
-0.42385277
-0.41817063
-0.41116308
-0.4027294
-0.39168964
-0.37669475
-0.35727732
-0.48979953
-0.48910829
-0.48824428
-0.48718293
-0.48583432
-0.48412182
-0.48191916
-0.47898762
-0.47494089
-0.46908826
-0.46032728
-0.44773424
-0.43114601
-0.41127588
-0.3893549
-0.36707072
-0.56124181
-0.56007691
-0.55869748
-0.55709888
-0.5551214
-0.5525723
-0.54910848
-0.54407982
-0.5364586
-0.524983
-0.5085001
-0.48652133
-0.45963771
-0.42935007
-0.39736884
-0.36510832
-0.63692149
-0.63539513
-0.63361247
-0.63153522
-0.62884313
-0.62506838
-0.61944782
-0.61081561
-0.5976722
-0.57852272
-0.5524746
-0.51981211
-0.48205625
-0.44133335
-0.39956867
-0.35816567
-0.69901593
-0.69728179
-0.69522955
-0.69271566
-0.68918404
-0.68380744
-0.67535492
-0.66218103
-0.64248891
-0.61489951
-0.57915281
-0.53647637
-0.48918481
-0.43973563
-0.39005315
-0.34110172
-0.72874813
-0.72699515
-0.72484466
-0.72198828
-0.71759788
-0.71047386
-0.69897604
-0.68115213
-0.65519425
-0.62015516
-0.57658251
-0.52653277
-0.47274898
-0.41766471
-0.36305959
-0.30981247
-0.71108783
-0.70951015
-0.70745274
-0.70441989
-0.6993412
-0.69072012
-0.67665411
-0.65510573
-0.62450477
-0.58449752
-0.53638013
-0.48272852
-0.42631895
-0.36933619
-0.31326648
-0.25834433
-0.63821558
-0.63700123
-0.6352425
-0.63227191
-0.62685296
-0.6173049
-0.60160892
-0.57780147
-0.54467989
-0.50250771
-0.45320242
-0.39964475
-0.34451166
-0.28984134
-0.23724369
-0.18844019
-0.3538508
-0.35341357
-0.35230468
-0.34957413
-0.34381513
-0.33331099
-0.31643757
-0.29239713
-0.26170643
-0.22611979
-0.18788858
-0.14890418
-0.11048085
-0.073723286
-0.039746245
-0.0075793517
-0.17839761
-0.17952585
-0.18013861
-0.17984318
-0.17802619
-0.17365946
-0.16553524
-0.1525428
-0.13404204
-0.11015725
-0.081750601
-0.05023741
-0.017427818
0.014448102
0.043741508
0.073866969
-0.39344002
-0.39329146
-0.39310973
-0.39284476
-0.39242838
-0.39177006
-0.39073079
-0.38911262
-0.38667571
-0.38320483
-0.3786216
-0.37299326
-0.3661565
-0.36057675
-0.35557806
-0.35041857
-0.39066232
-0.39036064
-0.39001698
-0.3896296
-0.38914719
-0.38851109
-0.38764928
-0.38648466
-0.3849726
-0.38315507
-0.38120069
-0.37940393
-0.37833118
-0.3793801
-0.38305761
-0.38520659
-0.38232458
-0.38195334
-0.38155003
-0.38113214
-0.38066798
-0.38014214
-0.37956461
-0.37899031
-0.37855517
-0.3785085
-0.37921587
-0.38111584
-0.3846303
-0.38997509
-0.39693105
-0.40621699
-0.35833423
-0.35827394
-0.35821586
-0.35816276
-0.35811579
-0.35809735
-0.35817528
-0.35849626
-0.35931866
-0.36102157
-0.36406709
-0.36891229
-0.37588949
-0.38514391
-0.39694931
-0.41206366
-0.31702431
-0.31759892
-0.31822856
-0.31887862
-0.3195956
-0.32044317
-0.32154671
-0.32313928
-0.32557167
-0.32927004
-0.33464542
-0.34198359
-0.3513172
-0.36230098
-0.37454734
-0.38927945
-0.29525323
-0.29637966
-0.29761967
-0.29890726
-0.30033028
-0.30197913
-0.30399974
-0.30663854
-0.31023611
-0.31517194
-0.32177952
-0.33027087
-0.3406803
-0.35275977
-0.36574037
-0.37813474
-0.29309178
-0.29426332
-0.29555221
-0.29689124
-0.29837186
-0.30008914
-0.30219678
-0.30495312
-0.30871341
-0.31387063
-0.32076511
-0.32960247
-0.34038879
-0.3528275
-0.36620938
-0.37964991
-0.3191045
-0.31967356
-0.32029664
-0.32093906
-0.32164882
-0.32249302
-0.32360386
-0.32522462
-0.32772175
-0.33154113
-0.33711502
-0.34475837
-0.35456623
-0.3662352
-0.37895446
-0.39257164
-0.36040309
-0.36032591
-0.3602511
-0.36018466
-0.36012931
-0.36011085
-0.36020227
-0.36055597
-0.36143484
-0.36321949
-0.36637036
-0.37134578
-0.37848301
-0.38783893
-0.39928109
-0.4136225
-0.38467353
-0.38429801
-0.38389
-0.38346737
-0.38299829
-0.38246709
-0.38188341
-0.38130321
-0.38086428
-0.38081874
-0.38153619
-0.38346243
-0.38702942
-0.39243795
-0.39942504
-0.40917819
-0.39299345
-0.39268678
-0.39233811
-0.39194659
-0.39146146
-0.3908252
-0.38996751
-0.38881386
-0.38732281
-0.38554039
-0.38364139
-0.38193285
-0.38100283
-0.38227515
-0.38640408
-0.38881574
-0.39554543
-0.39539543
-0.39521221
-0.39494607
-0.39452907
-0.39387107
-0.39283378
-0.39122041
-0.38879274
-0.38533621
-0.38076858
-0.37515824
-0.36842026
-0.36304105
-0.35816873
-0.35353875
-0.065984883
-0.066703422
-0.064660597
-0.059749502
-0.051746709
-0.040248763
-0.02461945
-0.0048328135
0.018285355
0.043366444
0.06890601
0.093461865
0.11537029
0.13394789
0.15348972
-0.06763742
-0.06834707
-0.066282429
-0.06133839
-0.053295593
-0.041756775
-0.026094419
-0.00627724
0.016875435
0.042003434
0.06760314
0.092226696
0.11425283
0.13321712
0.15254365
-0.39841272
-0.39870883
-0.39883011
-0.39865783
-0.39803325
-0.39675957
-0.39462561
-0.39149597
-0.38749321
-0.38328242
-0.38077333
-0.37749502
-0.37115667
-0.36136248
-0.3421743
-0.39651833
-0.39681201
-0.3969295
-0.39675173
-0.39611966
-0.39483627
-0.39269197
-0.38955642
-0.38556079
-0.38138482
-0.37899454
-0.37584287
-0.36960342
-0.36048155
-0.34544925
-0.062221175
-0.063868499
-0.39803857
-0.39614558
-0.21630421
0.0088360931
0.28250069
0.00040290603
-0.3898085
0.044443911
0.15806363
0.20044614
0.19843203
0.16007561
0.152106
0.016562689
0.22734099
-0.048553625
0.1635997
-0.25091477
0.08894676
-0.31589698
-0.37090968
0.01224141
-0.38385585
0.23067811
0.20642072
0.19548002
0.19912257
0.039646907
-0.0015075702
0.011073056
-0.015357843
-0.031046361
0.043433094
0.16420132
0.019260775
-0.024024437
0.21620464
0.0052684704
0.017316367
0.21144178
0.089977661
0.08838454
0.0065077616
0.011966098
0.19643041
-0.027481506
0.19493272
0.30871642
0.0044975946
0.19574369
0.1696009
0.16912302
-0.31416794
0.41953006
0.24447127
0.13332266
-0.16336066
-0.056483956
0.13218706
0.15331444
0.19477629
-0.0057128946
-0.0028585376
0.17272666
0.17019903
0.099441512
-0.29577064
0.10514839
0.039231291
-0.0074706521
0.071647391
0.0059473302
0.060849405
-0.23735641
0.075182886
0.0095701766
0.0085246336
0.20464433
-0.19825686
0.060651967
0.013600538
0.12908323
-0.26201045
-0.32410495
-0.027756627
0.00060547878
0.076384204
0.01515079
0.17393518
0.0051229614
-0.26378429
0.0074389464
-0.035170243
0.037624971
0.32675122
0.073830966
0.20162759
0.2172001
0.0013317901
0.29768141
-0.34275206
0.22164492
0.0078530702
0.0062079104
0.039785577
0.015017087
-0.0028487505
-0.047360549
0.037595552
0.0048262599
0.091708393
-0.023784741
-0.18357963
0.24397286
0.072210635
0.016102802
-0.0031794949
0.016607677
0.25864234
0.014098732
0.016164022
0.24758928
0.25472373
0.12696679
-0.41182
0.023205573
-0.3565941
-0.41175054
0.10962843
-0.35034777
-0.30363917
0.23143594
0.12048351
0.084849604
0.025779755
0.0095429315
0.035273703
0.074679084
0.29746003
0.0055026973
-0.32744777
-0.00054759329
0.2034514
0.010268862
-0.38666021
-0.1929187
-0.0048238353
-0.0036283493
-0.02550025
-0.23549647
0.0080320221
0.16444956
0.16273413
0.0026054951
0.058639205
0.25632835
0.021600416
0.19378262
-0.31288713
0.113208
0.021225061
0.013721966
-0.31429944
-0.31349348
0.20639559
0.23402577
0.12073998
0.024473614
0.0089951778
0.15473986
-0.059045702
0.015129889
-0.15808961
0.31687108
0.071074572
0.027392717
0.0053474516
0.20726293
0.12126018
0.015270766
0.00057520967
-0.23379891
0.16092524
-0.044145686
-0.022523501
0.062097188
0.075036151
0.1692104
0.20399852
-0.029648558
-0.038192976
-0.049507507
0.012930086
0.035395614
-0.006209605
-0.32674212
0.097862038
0.1953297
0.027597632
0.048088482
0.15045886
0.33561576
0.1604863
0.060389612
-0.23669302
0.13510286
0.23557063
0.17773654
0.22138341
0.030372429
0.25799088
0.021220322
-0.017458199
-0.0034772208
0.1200421
0.14561591
0.013297591
0.011254365
0.0072716528
0.19824021
0.21279138
0.078850936
0.049839396
0.062545253
0.12479432
0.010475278
0.10654424
-0.28770014
0.24032166
0.0083255624
0.028531516
0.096168538
-0.35208363
0.280854
0.01793081
0.092946785
-0.003297833
0.055824799
0.018873735
0.19929672
-0.0086648188
0.012861387
0.044234671
0.01076242
0.075351781
0.045369248
0.27065207
0.1181409
-0.022551726
0.18914487
0.029391145
0.089788533
0.17382121
0.32316233
0.019902807
0.010800748
-0.3853317
0.0061427428
0.22344329
0.057810356
0.0062483865
-0.0057101379
0.0031291355
0.0019984434
0.022217212
0.02251186
0.099884225
-0.0036457888
0.044122312
-0.010261554
0.022136214
0.089346794
0.14598908
0.099827014
0.11671144
0.2259703
-0.15401961
0.022857294
0.26044678
0.23847153
0.0088959666
0.031915615
-0.33350161
0.022847142
0.045319004
-0.034450013
-0.38422451
-0.38113419
0.036224846
0.11462994
0.066459094
0.012486971
0.16147121
-0.059320744
-0.030635672
0.0032398039
0.26723538
0.11312818
0.051967189
0.20451954
0.068592318
0.010644842
0.0029101399
-0.00054965337
0.028209234
0.28020448
0.32756671
0.11079998
0.065067243
0.12912189
-0.0039128631
0.20970557
-0.28303811
-0.005445931
0.034763696
0.036147633
0.12462681
0.029268724
0.040973584
0.041580509
0.36173032
-0.054971087
0.046372779
0.21853552
0.0029799759
0.011842473
0.046280791
0.11546257
0.042470817
0.028982241
0.03442892
0.0080473045
0.41835403
-0.35548375
0.15391879
0.19519388
-0.028839397
-0.033396576
0.11656687
0.019268634
0.014308288
0.041606783
0.013227534
0.038358917
0.036786322
0.25196613
0.011502303
0.028979222
0.017324346
0.012994289
0.028123598
0.0087904777
0.015348409
-0.34407949
0.055622221
0.1603138
-0.10670605
-0.050696188
0.0086626574
-0.023520398
-0.36273406
0.17879562
0.077744882
0.18705283
0.016593634
-0.35492292
0.28871263
0.21396478
0.045809151
-0.19166456
0.023775831
0.22935502
-0.046337406
0.007123443
0.34013405
0.16335123
0.15243026
0.082006594
-0.16730379
0.068437305
0.0098402535
0.047790621
0.018348365
0.23257184
0.21455009
-0.38733876
0.068735715
0.11347764
-0.26196606
0.0078889344
0.14834265
-0.092741506
0.023382886
0.072337191
-0.089150104
0.029349737
0.050751632
-0.0049494637
-0.0039870918
-0.073010143
0.39742465
0.031102262
0.0049829009
-0.2766306
0.044104833
-0.037883252
0.1883743
-0.30154515
0.0039785916
0.016978263
0.18867123
0.030650535
0.12106566
0.19185691
-0.006385228
0.0051583925
0.12175776
0.15785732
0.16099523
0.0106869
-0.0089077162
0.01780118
-0.088769767
0.0067200092
-0.0012275084
0.1884758
0.23634979
0.28061798
-0.095974967
0.023604324
0.22160679
0.039836733
0.16270966
0.15889011
0.037616321
0.044261356
-0.4029131
0.14652364
0.036445268
0.010129056
0.012621908
0.090030578
-0.1713271
-0.28320535
0.10150628
0.036798611
-0.0100073
0.019986687
0.025785533
0.0037725394
0.00070253391
0.19638073
0.029759278
-0.23650189
-0.0069565441
0.01701141
0.046205243
0.037601791
0.14142741
0.1178978
0.014205167
0.16522311
0.16843542
0.24673642
0.063897436
0.072314552
0.15177264
0.18219323
0.19343523
0.20749521
0.22488544
-0.063323373
-0.42943379
0.026448647
0.26882187
-0.00017966406
0.013688315
0.038797585
0.016586627
0.021149556
0.42673756
0.020286653
0.001530959
-0.24896285
-0.046447238
0.0011708001
-0.033941116
-0.052008872
0.034530739
0.19548618
0.19290776
-0.12401591
-0.41635179
0.0053996766
0.010292234
-0.004936422
-0.047769022
-0.32748283
0.12296714
0.074503852
0.01912106
0.0008251839
0.083109532
0.11629421
0.29000316
0.15693819
0.15317356
0.018007642
-0.28248174
-0.011442524
0.0072874467
-0.10608705
0.016801571
0.017766618
-0.019295233
-0.0050642245
-0.27017891
-0.2812328
0.020077664
0.19635945
0.14768971
0.19307179
0.017110382
0.10033083
0.016421391
0.014010343
-0.11867621
0.010503635
-0.21149801
0.0074366274
-0.26423808
0.23663762
0.1587396
-0.24214551
0.23275429
0.053926723
-0.32055693
0.22855048
0.16909284
0.16921635
0.19455248
0.1830627
-0.30313311
-0.014874072
0.001881408
0.029411813
0.0050473714
-0.39809039
0.19109002
0.18383301
0.077845776
0.046469517
0.090548009
0.03819178
0.010286718
0.22612504
0.034792163
0.068340292
0.04545028
-0.30151368
0.27730668
-0.36783201
0.05736235
0.13280295
-0.36326716
-0.02005207
0.018505501
-0.28930334
-0.16250059
-0.087927453
0.17881693
0.18347518
0.1087627
0.031618654
-0.21077372
0.2304135
0.27242644
0.26622954
0.17093365
-0.028950481
0.18193908
0.22046574
0.280189
0.20506276
0.32417417
0.028671772
0.19388545
0.20658077
0.016690581
-0.00044498174
-0.020834575
0.19343328
0.23790001
0.20262944
-0.19578498
0.17465957
0.010431861
0.42660286
0.20133023
0.0092383692
0.41563466
0.23261687
-0.055502452
0.042268989
-0.362228
0.41381032
0.018516228
-0.25018854
0.21550505
0.019163463
0.31036712
0.21733344
0.22288782
0.016476652
0.0010035641
-0.35838632
0.22404849
0.42740568
0.1661741
0.03320572
0.18471982
-0.046112907
-0.40648841
0.039378704
-0.080104124
0.42426075
-0.18094246
0.008908173
0.082307075
0.28266282
0.27135476
-0.28639129
-0.025164213
0.048902911
0.21743062
-0.35358007
-0.075547701
-0.00066863105
-0.033158464
0.17223001
0.17188092
-0.011264708
-0.21682127
0.11736645
-0.40347214
-0.0068449351
-0.16349534
0.19306881
0.038081538
0.0064771702
0.01402285
0.38255801
0.082012284
0.15767619
0.010644562
0.054017301
0.17889308
-0.075028356
0.41043454
0.0098328001
0.0067387404
0.196097
0.019280397
-0.021114732
0.015677035
-0.062341642
0.023370366
0.080210113
-0.042376441
0.010437653
0.28137422
-0.37257519
0.13418703
0.16819548
0.088085201
0.254523
0.014798502
0.27816787
-0.28200245
0.47269092
-0.31538623
0.088288416
-0.018496987
0.35746086
-0.35482416
0.0061224701
0.031293362
0.1862846
0.13603246
-0.32155518
0.18427736
0.18955337
-0.43677191
-0.14946999
0.033289735
-0.12404708
-0.00096585544
-0.14896903
-0.37677478
0.01512228
0.020157338
0.02819899
0.037255566
0.22518418
0.023183657
-0.25859668
0.1718025
0.090945792
0.0023219741
0.13541106
-0.0084430201
-0.005808312
-0.10890281
0.11507617
-0.4092486
-0.014704718
0.28373921
-0.11787941
0.0035089595
-0.0001330225
-0.11351679
0.19303769
0.22645274
0.0024862323
-0.066186189
0.014863102
0.23113452
0.20975994
-0.06644373
0.1561724
0.013586347
0.094945176
-0.42602494
-0.30283551
0.19744575
-0.2864333
-0.3244924
0.03200018
-0.21855602
0.20031027
0.12407956
-0.041565657
0.013596144
0.0014253759
-0.073240826
0.017594163
-0.4030033
0.045169451
0.05803229
0.011748483
0.0766378
0.041111948
-0.090915407
0.10460403
0.10950974
-0.35438582
0.029714628
0.031371704
0.070354308
-0.041147499
0.29151096
0.046635443
0.17033035
0.012827294
0.17208774
-0.14014293
-0.00012415671
-0.22382843
-0.23185674
0.033290681
0.11257925
0.0819212
0.094529997
0.0021317589
0.13720123
-0.01543127
0.21725843
0.0065990963
0.032175282
0.18679917
0.21979204
0.017844303
0.27744302
-0.032944686
0.52671174
-0.26301851
-0.062073115
0.0021572287
0.012391473
0.080884238
0.24041037
-0.011594248
0.024466287
0.026573278
0.054323383
-0.023938568
-0.013654497
0.025337528
0.01245793
0.0068116216
0.27348505
0.007564312
0.21101482
0.2378137
0.22433757
0.21999717
0.20419506
0.1725184
0.0087340499
0.042401417
-0.12650369
0.00064056165
0.0019491391
0.1369593
0.28067825
-0.041438487
-0.092437896
-0.00158984
0.22846995
0.02176308
0.2351466
0.18841296
0.085653874
0.32151563
0.13785321
0.11560325
-0.043874943
0.0087935847
0.0036991229
0.0099461695
0.038604152
0.42279259
0.13732431
0.096208442
0.1992148
0.13992993
0.14430818
0.020681679
0.02478855
0.2314605
0.086351578
0.10171962
0.010922774
0.1984624
0.051416392
0.1614875
0.10773891
0.013315723
0.02829247
-0.10721838
0.2155152
0.072429224
-0.071793694
0.011596798
0.022745996
-0.19120031
0.16970822
-0.020808548
0.09371307
0.40851603
0.018639433
0.40626687
-0.33497693
0.036833767
0.14822456
0.0092954931
0.17988691
0.02683886
0.25394932
0.013595258
0.21699512
0.0096605744
-0.033974318
-0.25436064
-0.060625586
0.16599483
0.019961056
-0.0091374234
0.22723064
0.055260498
-0.23534671
-0.13932074
0.10468005
0.21412855
0.18731575
0.0065615129
0.15500528
0.11625482
-0.057770916
0.14450021
0.52011791
-0.091752115
0.050102179
0.045936427
0.37563844
0.17789368
-0.25635123
0.060012521
0.024012605
0.089336516
0.049984052
-0.033743313
-0.0070301124
0.18203244
-0.031436472
0.14170906
-0.21668714
0.042746047
0.0047778469
-0.0022780244
-0.0073984513
-0.22272786
0.0074191932
0.18175329
0.039695645
0.13208528
0.10812235
0.23695208
0.20238175
0.28156715
0.22020855
-0.17492926
-0.086041464
-0.33714855
-0.044698781
0.051442164
-0.16047761
-0.12865301
0.075614967
0.078511642
0.04288776
0.22641839
-0.14870763
0.010018912
-0.041322233
0.11871539
-0.39761527
0.12179459
0.040261832
0.040868821
-0.16765028
-0.010646026
0.033222906
0.024147537
0.13448449
0.18832822
0.16636701
0.48612462
0.029349309
0.020339642
0.13007675
-0.0031103072
-0.17161762
-0.12503153
-0.1578497
-0.1119588
0.059046908
0.27449774
0.35551062
-0.21525624
0.019210255
0.24133492
-0.23206458
0.0043806627
-0.024245159
0.023983229
-0.27561136
0.1917552
0.14274815
0.18079336
0.0085671359
-0.16097723
-0.0075163016
0.2232143
0.31978327
0.024956381
0.16488016
0.32998653
0.12768988
0.076468733
0.0099934198
0.25886823
-0.052306142
0.004495896
0.044194189
0.02208233
0.1177606
-0.37233204
0.46025432
0.020686903
-0.34109263
0.016525591
0.039924635
0.35214342
-0.110435
-0.38894045
0.0083770473
0.072408745
0.020203818
0.0072393198
0.16049884
0.001350627
0.050948576
-0.18650191
0.082246977
0.21113365
0.30410074
-0.022273422
-0.26577646
0.23369364
0.14220607
0.14135243
0.014788539
-0.231146
0.016754818
0.0070639492
0.14149788
-0.039114334
0.022294179
0.17874455
0.23898011
0.1835884
-0.08478271
0.017846078
0.078154015
-0.20863293
0.040117465
0.30826074
-0.38939111
0.0068080627
0.22520081
-0.024421904
0.23982652
0.057541624
0.099448556
0.19321163
0.35028559
-0.29101269
-0.15350972
0.018217711
0.03598445
0.008363324
-0.29035606
0.011620735
0.20513437
-0.21796003
0.022249227
0.18796072
-0.0069932412
0.082205855
-0.19250998
-0.21746715
0.012442137
-0.048254921
0.15502705
0.011371943
0.27549327
-0.17353385
-0.028741638
-0.38914168
0.021682773
-0.3573712
0.034468568
0.086557767
0.20026624
0.056947041
0.15592223
0.15773479
-0.10864982
-0.015337386
-0.18937886
0.0098877926
0.026719696
-0.14452936
0.051373308
0.045306565
-0.00059922517
0.012887412
-0.15341439
0.012202373
0.38933139
-0.15046976
0.28501524
0.058141514
0.015171984
0.24646552
0.018454232
-0.0067413825
-0.24900072
0.016071911
0.45830199
0.14076921
-0.137973
-0.032747626
0.19609368
-0.2477924
0.050804039
0.1446045
0.29484599
0.051207384
0.079437117
0.015290958
0.25111717
0.058221982
0.020893196
0.015323384
-0.079169829
0.0019639552
0.16507355
0.013957671
0.076712024
0.1480193
0.02518586
-0.07358584
0.52888334
0.13158209
-0.32085403
-0.2714682
-0.21586277
0.17621219
0.010386919
0.39813364
0.021097984
-0.25794456
-0.34622473
-0.035994067
-0.38135361
-0.091418304
0.024399778
0.0022014733
-0.014531517
0.0047768956
0.0040811094
-0.013415536
0.17969214
0.053477382
-0.20829071
0.48469145
-0.14685043
0.21921999
-0.086230292
0.20724286
0.19598728
0.0046996916
0.31096414
-0.3928673
0.021240078
0.19976919
0.0066604829
0.018914506
0.16597609
-0.018470552
0.01398589
-0.16277491
-0.16179485
0.021334334
-0.00021751605
0.010912369
0.019515801
-0.098046577
0.010211835
0.015743139
-0.19872498
0.028758856
0.031553229
-0.0017584896
0.0013601203
0.031047892
0.081987966
0.11754214
0.026694573
0.17700427
-0.25682263
0.24332405
0.021863583
-0.41156525
0.23459794
0.04379175
-0.2563276
0.025647457
0.021366321
-0.15410485
0.19669601
0.014908672
-0.21396214
0.00018352192
0.27702741
-0.093934422
0.16300003
0.0067140574
0.091930742
-0.21109108
-0.3843014
0.022425915
-0.36841519
0.011200542
0.045249891
-0.07595395
0.21318894
-0.14202766
0.017712693
0.19468439
0.020756785
-0.12906349
-0.070931128
0.05122756
0.0066266436
0.06467619
0.0084580815
-0.0041844391
0.50691576
0.024928918
0.35187788
0.051691023
0.37529638
-0.14155234
-0.27150764
0.0088581424
0.18147378
0.19396046
0.2633725
-0.056639668
0.007690513
0.2673487
0.19951815
0.010661581
-0.38502293
0.017055515
0.24868487
0.18821254
0.0055422477
0.021040995
0.013444595
-0.033869078
0.10828513
0.19266467
-0.42538153
-0.41680955
0.15131651
-0.32307822
0.18627726
0.034009863
0.075526316
-0.0020498266
0.15476597
0.0108487
0.39582394
0.12699231
-0.026514465
0.0089704657
0.2461788
0.30829435
-0.33863903
0.096105877
-0.16788936
-0.36955621
0.46742539
0.03103266
0.14601732
0.20083114
0.019014341
0.0064842533
0.026370726
-0.40959298
0.23056332
0.006712367
0.0003557435
-0.16331929
0.18372662
0.0086709961
-0.12881766
0.014294413
0.011556814
0.023773384
0.034011422
-0.39020695
-0.10271303
0.035152094
0.0075060072
0.14331736
0.091003516
0.24132117
-0.19369566
-0.010230407
-0.30456496
0.00090443021
0.21630993
0.059746212
-0.098325146
0.00077558875
0.0043826297
-0.43041313
-0.089488686
-0.28044946
-0.14693198
0.039454828
0.21751469
0.21374994
0.018064998
-0.22164548
0.0056143166
-0.019269974
-0.42262806
0.25751369
-0.38110369
0.21612903
0.25866938
0.003349946
0.3415923
0.46668108
0.19218812
0.045735244
0.044886586
-0.40696903
0.056990677
0.27085935
0.17125509
0.069699759
0.098264903
0.32342896
0.28230714
0.014629222
0.0030618855
-0.12072572
0.027357951
0.2821372
0.14990235
0.15850118
-0.14215274
-0.014541453
-0.036135945
0.28974165
-0.34247414
0.0044104405
0.048782207
0.075016728
0.34340552
0.011275466
0.051909851
0.021818956
0.21155633
0.021417184
0.0076332587
-0.13941437
0.012403651
0.024875103
-0.13754116
-0.034490286
-0.17663221
0.024041583
-0.42790627
0.10231548
0.015758437
0.17655033
-0.38523442
0.045398262
0.0049037915
-0.020198563
0.024676201
0.030858354
0.17164167
-0.10820024
0.17565801
0.19292211
-0.11533199
-0.17289127
-0.067694733
0.0091502899
0.0098566074
0.0052742969
0.049534832
0.016220943
0.18358178
0.038808014
0.017052131
-0.0033197261
0.25795847
0.10802307
0.31657911
-0.0061368893
0.016671137
-0.34169562
0.21163494
-0.33618482
0.24630179
0.0065858793
-0.086691982
0.072081955
0.10537369
0.022923729
-0.33155071
0.013439638
0.19047215
0.016449294
0.22032759
0.011937851
0.048031593
0.015428184
0.028187863
0.26517046
0.11173454
0.070578331
0.079045396
0.18806608
0.013510107
0.0062498414
0.01121623
0.019132293
-0.0085344418
0.40314184
-0.044826751
0.0027559333
-0.02272561
0.23227753
-0.096042988
-0.024587736
0.027737862
0.20311114
-0.33641261
0.023986102
0.015380848
0.21541915
0.023163003
0.18956534
0.014233979
-0.051989896
0.046465546
0.2264534
0.1037671
0.41740205
-0.28222747
0.035897138
0.098355561
-0.069450276
-0.070383964
0.40877557
0.22119213
-0.43231027
-0.18818728
0.016218367
0.015151796
0.25403695
0.00273825
0.22573031
0.3000465
0.0019406953
-0.062313007
0.27757284
-0.41517
0.15617434
0.023590624
0.19859463
-0.40755458
-0.074570096
0.018684277
0.14847639
0.14874637
-0.19220409
-0.16189226
0.0094062652
0.018289671
-0.21892221
-0.25264197
0.0020019696
0.0089702547
-0.39717838
-0.029342648
0.017969598
-0.10892126
0.033203992
0.019756664
0.15230142
-0.098476035
-0.17857088
-0.068200514
0.4819569
0.24382436
0.15427873
0.15160045
-0.26265242
0.012214997
-0.052052648
0.056592757
-0.055799507
0.1916579
0.18899798
-0.31150914
-0.15075777
-0.033480045
0.19827401
-0.11833498
-0.41610476
0.39701217
0.33375392
0.11915613
0.50990023
-0.43298728
-0.063023343
0.010576503
-0.33498363
0.46121271
0.16100838
-0.17373607
-0.066133345
0.1259404
0.0029728437
0.032303268
0.23858326
0.44187225
-0.070376696
-0.14232311
0.077071134
0.094731323
0.1105645
0.17157508
-0.3990773
0.0031192737
-0.1529719
0.17308928
0.0043468793
-0.12556897
0.062216691
0.1453578
0.006423758
0.018436386
-0.10842441
0.18222816
0.13700453
-0.30630978
0.19638673
-0.40471639
-0.10788568
-0.013665233
0.0018574964
0.0026594348
0.23634453
0.22383661
-0.11386051
0.19628303
0.47862017
-0.12897409
0.076800564
0.18291299
0.017873241
0.20447552
0.37590584
0.0043679185
-0.092881552
0.052523087
-0.22984717
-0.085251248
0.20493425
0.040249244
0.0068674649
0.18250134
-0.11087386
0.097698032
0.35048505
-0.35253914
-0.038480787
0.12795652
0.056116481
0.025813065
0.011295915
0.1243864
-0.16645262
0.23123691
0.008596881
0.26165443
-0.16351944
0.010995808
0.26916668
-0.32936513
-0.35207776
0.17841741
-0.20119727
-0.41842218
-0.22814589
-0.21842553
-0.21818756
0.30229649
-0.074582738
-0.12137594
-0.0025088306
0.0056766244
-0.027543769
0.095015377
0.0098786853
-0.28176338
0.028902954
-0.046880322
0.05131351
0.041427197
-0.13870647
0.075951666
0.25939586
0.042515798
0.25425811
0.118551
0.10588008
0.24356671
-0.088780476
-0.35208454
-0.17015222
0.093563056
-0.2386928
0.016848016
0.046162496
0.067171989
0.020574517
0.14443254
0.14104826
0.2588875
0.022756925
-0.046685886
0.17294082
0.044220699
0.014062675
-0.028240085
-0.038862749
0.31780096
0.12657499
0.042405215
0.096930144
0.02913445
0.0064456737
0.016160286
0.47718507
0.01625798
-0.39741759
-0.18468821
0.37916464
-0.01948531
0.015563708
0.12425902
0.19090482
0.30282763
0.016908077
0.051156575
-0.098849395
0.23076764
0.16483521
0.20535417