/*--------------------------------*- C++ -*----------------------------------*\
| =========                 |                                                 |
| \\      /  F ield         | foam-extend: Open Source CFD                    |
|  \\    /   O peration     | Version:     4.1                                |
|   \\  /    A nd           | Web:         http://www.foam-extend.org         |
|    \\/     M anipulation  |                                                 |
\*---------------------------------------------------------------------------*/
FoamFile
{
    version     2.0;
    format      ascii;
    class       volVectorField;
    location    "1";
    object      U;
}
// * * * * * * * * * * * * * * * * * * * * * * * * * * * * * * * * * * * * * //

dimensions      [0 1 -1 0 0 0 0];

internalField   nonuniform List<vector> 
4242
(
(0.055852156 0.050813438 1.3103538e-19)
(0.16894362 0.15355913 9.1806252e-22)
(0.29194414 0.26412871 -1.4974033e-19)
(0.42194642 0.37962508 1.3720691e-19)
(0.55416547 0.49496229 2.7710246e-21)
(0.68190782 0.60262268 5.4955969e-22)
(0.79730051 0.69337474 0)
(0.89075525 0.75645511 6.2269622e-20)
(0.95650678 0.78544238 -1.0072973e-19)
(0.99535782 0.78150865 3.7034756e-20)
(1.0137775 0.75254218 -1.6611546e-20)
(1.0201441 0.70860535 1.365273e-20)
(1.0211843 0.65743141 5.4835001e-21)
(1.0212697 0.60290369 -8.5623565e-22)
(1.0232577 0.54669889 6.4862505e-21)
(1.0256809 0.49373878 0)
(0.060767896 0.040636016 0)
(0.18516522 0.12397798 -2.4051705e-21)
(0.32144806 0.21562015 2.909568e-19)
(0.46689161 0.31365433 -2.652288e-19)
(0.61660298 0.41456585 -4.9359065e-21)
(0.76318687 0.51286387 1.8918044e-19)
(0.8970969 0.60104599 -9.9955405e-21)
(1.0076992 0.66991838 -2.4224551e-19)
(1.0859693 0.7107208 2.2863634e-20)
(1.1302416 0.72031746 6.9260804e-20)
(1.1468519 0.70295114 0)
(1.1464913 0.66765974 -4.9618261e-21)
(1.1387542 0.62311895 -2.2300769e-21)
(1.1296082 0.5745118 -1.2809574e-20)
(1.1220987 0.52417818 1.4487883e-20)
(1.1157056 0.47546117 1.8911995e-21)
(0.062843697 0.031097777 -2.4357647e-22)
(0.19237823 0.095490387 -9.0146444e-19)
(0.33552367 0.16742555 4.2430236e-19)
(0.49010515 0.2459454 -3.3726626e-21)
(0.65180623 0.32891356 -3.3166155e-19)
(0.81355794 0.41264127 2.8432109e-19)
(0.96541598 0.49161252 -4.1679824e-21)
(1.0955134 0.55863321 6.6762097e-21)
(1.1927985 0.60598383 -2.1141149e-21)
(1.2516675 0.6283837 -7.76987e-21)
(1.2750071 0.62560224 7.055916e-20)
(1.2726432 0.60305611 -5.2033772e-20)
(1.2575295 0.56889461 -6.7681241e-20)
(1.2387907 0.52897922 5.6587292e-20)
(1.2208311 0.4868883 -4.1273385e-21)
(1.2049483 0.44563833 -8.9094935e-21)
(0.059683498 0.020468687 -9.7652627e-22)
(0.18421803 0.063681086 -1.1633945e-21)
(0.32392446 0.11355762 -2.6365423e-19)
(0.4776588 0.17006031 2.4560969e-19)
(0.64226006 0.23234068 -3.4824203e-21)
(0.81171348 0.29839597 1.8259017e-19)
(0.97666653 0.36463731 -1.4188375e-19)
(1.1249252 0.42574661 -2.3609515e-19)
(1.2436987 0.47524609 1.3945489e-20)
(1.3237597 0.50727531 2.9175433e-19)
(1.3635702 0.51899375 -1.105308e-19)
(1.3701743 0.51208509 0)
(1.3561513 0.4918675 5.3641056e-21)
(1.3330767 0.46383238 -3.8683577e-20)
(1.3074572 0.43170484 1.8534937e-20)
(1.2827407 0.40092413 -3.0329736e-20)
(0.051065282 0.010427366 9.7662338e-22)
(0.1597194 0.033281966 -3.1254805e-19)
(0.28459051 0.061418302 2.9517167e-19)
(0.42604432 0.095500018 -1.9813054e-21)
(0.58275009 0.13576791 5.347186e-21)
(0.75058705 0.18177835 -1.5951186e-21)
(0.92169463 0.23189459 -1.7271138e-19)
(1.084361 0.28288043 1.3360783e-21)
(1.2246486 0.32994765 1.038333e-19)
(1.3301272 0.36766584 -7.9278597e-20)
(1.3944799 0.39171081 6.4574379e-20)
(1.4201883 0.40059207 0)
(1.4172892 0.3961606 3.4024925e-20)
(1.3981025 0.38198734 -2.3782479e-20)
(1.3720399 0.36123202 6.4449382e-21)
(1.3441643 0.3385491 0)
(0.038669501 0.0028273665 -1.3505649e-19)
(0.12330956 0.0097680646 8.088378e-20)
(0.22398928 0.020135331 1.5120913e-19)
(0.34269321 0.03486101 -1.3727902e-19)
(0.48033034 0.054808316 -1.3900272e-21)
(0.63549738 0.080669187 5.3736828e-20)
(0.80303132 0.1125222 4.5508827e-20)
(0.97306322 0.14930368 -1.1102038e-21)
(1.1317002 0.18842597 -1.3002152e-21)
(1.2641016 0.22592385 -6.476203e-20)
(1.3592295 0.25738783 6.6103242e-20)
(1.4138526 0.27937592 -2.3850372e-21)
(1.4333214 0.29055644 -6.1927684e-21)
(1.4282611 0.29168586 -1.3252466e-20)
(1.4095451 0.28448227 -8.6011396e-24)
(1.3850236 0.27272946 5.2648765e-21)
(0.024616649 -0.0013322729 -6.4321634e-20)
(0.081041266 -0.0036332291 -7.7038383e-20)
(0.15181553 -0.0044125405 2.1803273e-19)
(0.24021516 -0.0029334252 -1.3202791e-19)
(0.34926533 0.0016760747 6.0168133e-20)
(0.48061231 0.010515067 6.2304618e-24)
(0.6327943 0.02469625 8.5806874e-20)
(0.79943766 0.044945964 -3.7763542e-20)
(0.96861757 0.071037189 -4.3314099e-21)
(1.1247341 0.1013106 1.9985367e-20)
(1.2529211 0.13272064 -3.0226676e-20)
(1.3439468 0.16155439 2.3783602e-20)
(1.3968726 0.18451778 -6.287532e-21)
(1.4179988 0.19957964 -2.6084172e-20)
(1.4170882 0.20600967 9.7422378e-21)
(1.4036302 0.20514759 1.2230415e-20)
(0.011240903 -0.0019982524 -1.3532453e-21)
(0.039864367 -0.0064360304 2.8283168e-19)
(0.079745308 -0.010810737 -2.6558871e-19)
(0.13476692 -0.014883366 2.3907679e-19)
(0.20937972 -0.018282815 -2.1556551e-19)
(0.30786026 -0.020283322 0)
(0.43273117 -0.019734537 1.5589479e-19)
(0.58245518 -0.015093784 -1.2665749e-19)
(0.74937093 -0.0047723377 -2.7746141e-21)
(0.91969452 0.012125841 0)
(1.0767515 0.03505172 -1.165836e-20)
(1.2061907 0.061786973 5.8114755e-21)
(1.3002448 0.088929087 -3.853079e-20)
(1.3589058 0.11283689 7.0652609e-20)
(1.3880512 0.13056145 -4.8581363e-20)
(1.3966181 0.1413522 -1.2965932e-20)
(0.00060588434 -3.657313e-05 8.688898e-22)
(0.0062075677 -0.00095320934 -1.037181e-21)
(0.019120625 -0.0024455629 0)
(0.043010176 -0.0047932095 4.9000301e-21)
(0.082641143 -0.0082966904 2.7659432e-21)
(0.1437221 -0.013095478 1.6747746e-19)
(0.23192914 -0.018950182 -1.4707361e-19)
(0.35084251 -0.0248756 0)
(0.49899595 -0.02885245 6.6962563e-22)
(0.66760823 -0.028170884 -8.824425e-21)
(0.84141774 -0.02053769 7.6373367e-21)
(1.0031908 -0.0052889729 4.9875252e-21)
(1.1391431 0.016062522 8.7217295e-21)
(1.2421784 0.040195493 5.5231958e-20)
(1.3121142 0.063093204 -6.4834807e-20)
(1.3545713 0.082288612 3.4437672e-20)
(-0.0060421121 0.0030624502 0)
(-0.015780465 0.0084673278 4.3542786e-19)
(-0.022289862 0.013554132 -8.1784564e-19)
(-0.02284954 0.017741731 3.7049361e-19)
(-0.013386249 0.020184258 -2.7722108e-21)
(0.011852393 0.019831667 -9.0470801e-21)
(0.060212305 0.015633708 2.4677431e-19)
(0.13886492 0.0072986249 -2.0353024e-19)
(0.25196577 -0.0041149452 -1.4996699e-19)
(0.3984577 -0.016268697 1.3612664e-19)
(0.56887159 -0.025404459 0)
(0.74723588 -0.027772092 -9.2881657e-20)
(0.91626205 -0.021530666 4.9983884e-20)
(1.0622379 -0.0074871193 0)
(1.1776254 0.011750636 0)
(1.262761 0.034910356 0)
(-0.0084020652 0.0056078281 6.4884375e-19)
(-0.024470204 0.016455158 -3.8903252e-19)
(-0.040351095 0.027550362 0)
(-0.054655175 0.038356098 -2.4984044e-21)
(-0.065171825 0.048144918 -2.9190087e-19)
(-0.068457691 0.055954307 2.6599803e-19)
(-0.05915734 0.060399457 2.1203261e-19)
(-0.028614371 0.059240997 4.4746223e-21)
(0.035096354 0.049990897 -1.6133813e-19)
(0.14187207 0.032597062 8.0650891e-21)
(0.28784512 0.012590567 0)
(0.46202244 -0.005200579 -1.5291197e-19)
(0.64754316 -0.018017044 1.8606005e-20)
(0.82568441 -0.024086912 9.4130927e-20)
(0.9816941 -0.022196895 0)
(1.1111685 -0.0027988341 1.2946001e-20)
(-0.0062082068 0.0056497358 -1.6244018e-22)
(-0.018903911 0.017126698 7.1123644e-19)
(-0.032907029 0.029471904 -3.3713253e-19)
(-0.047863777 0.042457064 -3.0768645e-19)
(-0.063052157 0.055737468 2.7343205e-19)
(-0.077166562 0.068828833 -2.4717875e-19)
(-0.087920294 0.081132816 2.0984744e-19)
(-0.091360539 0.09196088 1.7079005e-19)
(-0.080784023 0.10030794 -1.574771e-19)
(-0.044874066 0.10369656 0)
(0.038695753 0.095745521 0)
(0.18259966 0.074721068 0)
(0.36725567 0.046252117 1.6211203e-20)
(0.56219048 0.016294637 0)
(0.74901472 -0.0091980804 8.1983774e-20)
(0.9188643 -0.013667073 -1.4479104e-19)
(0.051840608 -0.056904384 -5.0352298e-20)
(0.15565376 -0.17048807 -6.0213636e-22)
(0.26552499 -0.29047802 5.9496111e-20)
(0.37774216 -0.41178267 -5.4490093e-20)
(0.48712442 -0.52758531 -1.8938966e-21)
(0.58744087 -0.62977285 4.2589485e-22)
(0.67250649 -0.7099486 0)
(0.73784063 -0.76131033 -5.2526678e-20)
(0.78243674 -0.78112888 9.9930017e-20)
(0.80948108 -0.77225302 -4.257335e-20)
(0.82504713 -0.74181925 4.5114973e-20)
(0.83536926 -0.69779261 -3.7096599e-20)
(0.84479878 -0.64612178 -6.376228e-21)
(0.85571478 -0.59010627 9.3943046e-21)
(0.86855944 -0.53189592 2.4136373e-20)
(0.87944948 -0.47703351 0)
(0.036551655 -0.054237537 0)
(0.11019224 -0.16231773 1.8991748e-21)
(0.1898977 -0.27591607 -2.3150148e-19)
(0.27335591 -0.39033073 2.1096671e-19)
(0.35691256 -0.49885856 3.8262507e-21)
(0.43591615 -0.59314298 -1.6606191e-19)
(0.50558097 -0.66462379 -3.300857e-21)
(0.56248701 -0.70704188 2.4624116e-19)
(0.60605571 -0.71905265 -9.6519363e-21)
(0.63886716 -0.7050327 -8.7902096e-20)
(0.66531131 -0.67287731 0)
(0.68950313 -0.63027362 9.4015728e-21)
(0.71402262 -0.58232621 9.9934935e-21)
(0.74001023 -0.53150391 7.2066666e-20)
(0.767532 -0.47885537 -9.4488442e-20)
(0.7948276 -0.42595622 -1.382233e-20)
(0.024086129 -0.048154129 5.271051e-22)
(0.072843748 -0.14396615 8.350566e-19)
(0.1263975 -0.24440624 -3.9288785e-19)
(0.1835235 -0.34516222 3.2188533e-21)
(0.24215181 -0.44014132 3.1436642e-19)
(0.29961159 -0.52183633 -2.6929958e-19)
(0.35311663 -0.58271377 4.2033612e-21)
(0.40067139 -0.61752356 -7.0559886e-21)
(0.44198459 -0.62554655 2.595559e-21)
(0.47864517 -0.61103375 9.5783719e-21)
(0.51325071 -0.58102932 -1.0992571e-19)
(0.54812172 -0.54215513 7.9391895e-20)
(0.58461144 -0.49876659 1.4808178e-19)
(0.62328117 -0.45308855 -1.25064e-19)
(0.66392994 -0.40637588 1.8244048e-20)
(0.70417552 -0.36032632 5.8196363e-20)
(0.013078049 -0.037465367 9.7268804e-22)
(0.040047591 -0.11202324 1.1587023e-21)
(0.071016874 -0.19016068 2.5691191e-19)
(0.10578218 -0.26849563 -2.3954577e-19)
(0.14364848 -0.34223327 3.5011129e-21)
(0.18357587 -0.40545587 -1.8400672e-19)
(0.22432886 -0.45224587 1.4309955e-19)
(0.26489287 -0.47853817 2.5711354e-19)
(0.30498023 -0.48387998 -2.4334188e-21)
(0.34519966 -0.47171503 -3.5231351e-19)
(0.38665803 -0.44762004 1.3884026e-19)
(0.43029783 -0.41677993 0)
(0.47656508 -0.38257346 -9.7139715e-21)
(0.52551324 -0.34674059 7.9054675e-20)
(0.57640162 -0.31036895 -3.7600464e-20)
(0.62609639 -0.27476105 8.8352492e-20)
(0.0048698919 -0.022508349 -9.7285046e-22)
(0.015589787 -0.067762578 3.1781401e-19)
(0.029692578 -0.11580124 -3.0049746e-19)
(0.047757721 -0.16474142 1.9823437e-21)
(0.070158055 -0.2117117 -5.4324208e-21)
(0.097109315 -0.25290123 1.6614973e-21)
(0.12855737 -0.28417395 1.8469731e-19)
(0.16423301 -0.30231104 3.2170785e-21)
(0.20387537 -0.30642439 -1.149925e-19)
(0.24741225 -0.29849355 9.7629592e-20)
(0.29489824 -0.28233248 -7.9473601e-20)
(0.34628953 -0.26170993 0)
(0.40139139 -0.2390991 -5.3107479e-20)
(0.45989454 -0.21562412 3.7396756e-20)
(0.52020155 -0.19180121 -1.3001703e-20)
(0.57645002 -0.16867265 0)
(0.062849878 -0.031099862 0)
(0.19240696 -0.095508098 4.5442847e-19)
(0.33559121 -0.16747717 -8.5054229e-19)
(0.49023347 -0.24605409 3.9023808e-19)
(0.65202098 -0.32910611 2.9721004e-21)
(0.81388461 -0.41294505 1.2960595e-21)
(0.96587715 -0.4920519 2.265325e-19)
(1.0961336 -0.55923571 -1.9356324e-19)
(1.1935745 -0.60676096 -1.3551021e-19)
(1.252561 -0.62932559 1.0002985e-19)
(1.2759274 -0.62668547 0)
(1.2734278 -0.60417533 -4.0245719e-20)
(1.2579411 -0.56994558 3.2233983e-20)
(1.2386714 -0.52987432 0)
(1.2202679 -0.48748836 0)
(1.2042636 -0.44575519 0)
(0.00081534914 -0.0076847499 1.3858518e-19)
(0.0034142642 -0.02362615 -8.3092328e-20)
(0.0088506709 -0.041269007 -1.5563496e-19)
(0.018131067 -0.060219767 1.4175767e-19)
(0.032324796 -0.079612729 1.7021912e-21)
(0.052581043 -0.097912227 -5.6075393e-20)
(0.079829292 -0.1129253 -4.8705695e-20)
(0.11444229 -0.12231985 3.1929183e-22)
(0.15603505 -0.12470213 3.8906493e-22)
(0.20357595 -0.12053646 7.6168287e-20)
(0.25579042 -0.1118749 -8.126676e-20)
(0.311534 -0.10102081 9.2567698e-22)
(0.36988797 -0.089427782 7.026017e-21)
(0.43004041 -0.077539377 1.9330354e-20)
(0.49100203 -0.065180214 1.3834591e-23)
(0.55106725 -0.052328151 -1.0178149e-20)
(0.00081547128 0.0076507401 6.8796887e-20)
(0.003418822 0.023533003 8.2480793e-20)
(0.0088719908 0.041123439 -2.3368235e-19)
(0.018184824 0.060032587 1.4182732e-19)
(0.032429286 0.079398029 -6.4849506e-20)
(0.052756422 0.097684876 -6.6292695e-24)
(0.08009563 0.11269724 -9.462034e-20)
(0.11481664 0.12209696 4.122002e-20)
(0.15652771 0.1244836 4.2497158e-21)
(0.20418571 0.12031574 -2.4823906e-20)
(0.25649948 0.11164084 3.6095239e-20)
(0.31230768 0.10076101 -3.1484839e-20)
(0.37067972 0.089136384 7.02611e-21)
(0.4307698 0.077232199 3.7808765e-20)
(0.49143528 0.064946282 -1.4589346e-20)
(0.55064178 0.052479474 -2.0540299e-20)
(0.0048912745 0.022612452 1.5053262e-21)
(0.01565572 0.06806342 -3.2019343e-19)
(0.029811116 0.1162937 3.0055282e-19)
(0.047935773 0.16540524 -2.7069917e-19)
(0.070400159 0.21250764 2.4405107e-19)
(0.097417064 0.25377014 0)
(0.12892905 0.28504151 -1.7908141e-19)
(0.16466322 0.30309802 1.4598066e-19)
(0.20435302 0.30705715 3.2360212e-21)
(0.24791507 0.29890645 0)
(0.29538527 0.2824604 1.4226999e-20)
(0.34670022 0.26147828 -7.2938088e-21)
(0.40165082 0.23841561 5.2283179e-20)
(0.45987119 0.21435843 -1.0008622e-19)
(0.51955758 0.18972934 6.9291274e-20)
(0.57468755 0.16546293 1.9954348e-20)
(0.013101355 0.037547661 -9.72347e-22)
(0.040111301 0.11226086 1.1583061e-21)
(0.071104768 0.19055467 0)
(0.10587081 0.26903905 -5.1979172e-21)
(0.14370853 0.34290871 -2.8525573e-21)
(0.18357333 0.40623275 -1.838554e-19)
(0.22422628 0.45307634 1.6167667e-19)
(0.26464893 0.47935298 0)
(0.30454595 0.48458884 -1.2062403e-21)
(0.34450997 0.47221521 9.5984305e-21)
(0.38561777 0.44781075 -9.2049847e-21)
(0.42877817 0.41657247 -5.0982082e-21)
(0.47447221 0.38187006 -1.130418e-20)
(0.52292766 0.34534157 -7.2596345e-20)
(0.57331929 0.30790016 8.5588644e-20)
(0.62099649 0.27119505 -4.7281514e-20)
(0.024045251 0.04808658 0)
(0.072724042 0.14377953 -4.1816195e-19)
(0.12618344 0.24412325 7.8353089e-19)
(0.18319915 0.34482006 -3.5348306e-19)
(0.24170166 0.43978806 2.8469257e-21)
(0.29901686 0.52151988 8.3646853e-21)
(0.35234772 0.58246055 -2.3874848e-19)
(0.39967814 0.61731244 1.9676626e-19)
(0.44068997 0.62529459 1.5033457e-19)
(0.47694657 0.61061079 -1.3773072e-19)
(0.51102228 0.58030194 0)
(0.54522776 0.5410301 1.0021231e-19)
(0.58104373 0.49716319 -5.5367034e-20)
(0.61950464 0.45081614 0)
(0.66060306 0.40338893 0)
(0.69906045 0.35844343 0)
(0.036440726 0.054078495 -4.1666791e-19)
(0.10987671 0.16186499 2.4942608e-19)
(0.18938078 0.27518958 0)
(0.27265124 0.38937362 1.0391998e-21)
(0.35604342 0.49773515 1.8720084e-19)
(0.43490825 0.59192777 -1.6894991e-19)
(0.50444884 0.66337829 -1.4193294e-19)
(0.56121899 0.70578359 -6.2922128e-21)
(0.60460936 0.71773369 1.1225038e-19)
(0.63718773 0.7035518 -7.0262014e-21)
(0.66337337 0.67113178 0)
(0.68737586 0.62822193 1.254838e-19)
(0.71199634 0.58001422 -1.4116438e-20)
(0.7387412 0.52912766 -8.0826274e-20)
(0.76782758 0.47718169 0)
(0.79761984 0.42643014 -1.0215452e-20)
(0.051735407 0.05678764 1.0068041e-21)
(0.15534477 0.17014111 -1.2451367e-19)
(0.26501133 0.28989358 5.9243631e-20)
(0.37703378 0.41096842 5.7210601e-20)
(0.48624412 0.52656683 -5.0069023e-20)
(0.58642228 0.62859202 5.6509915e-20)
(0.67138463 0.70865343 -5.0600564e-20)
(0.73663667 0.75993548 -5.035961e-20)
(0.78114917 0.77967809 4.479963e-20)
(0.80809876 0.77070152 0)
(0.82359073 0.74015226 0)
(0.83394817 0.6960653 0)
(0.84367177 0.64450012 -4.96423e-21)
(0.85530851 0.58888555 0)
(0.86922781 0.53148436 -5.1064843e-20)
(0.88058578 0.47739845 9.5421613e-20)
(-0.0061654955 -0.0056102963 2.9601208e-19)
(-0.018783196 -0.017012653 1.459858e-21)
(-0.032715295 -0.02928463 -3.3874516e-19)
(-0.047618519 -0.042203862 3.1155408e-19)
(-0.062786878 -0.055433734 4.5530207e-21)
(-0.076938654 -0.068499854 3.805818e-21)
(-0.087822975 -0.080814235 0)
(-0.091541246 -0.091698924 1.7740534e-19)
(-0.081468254 -0.10017002 -2.9753363e-19)
(-0.046417243 -0.10381152 1.2324322e-19)
(0.035595928 -0.096372655 -1.0024747e-19)
(0.17795557 -0.075807863 8.2060639e-20)
(0.36188583 -0.047563383 6.5058978e-22)
(0.55626115 -0.017806737 -1.3485062e-20)
(0.74267715 0.0068694733 -4.1409984e-20)
(0.91444632 0.0057877833 0)
(-0.008380024 -0.0055937862 0)
(-0.024420356 -0.016420132 -3.0622307e-21)
(-0.040297247 -0.027503049 3.6636494e-19)
(-0.054637254 -0.038312032 -3.3516997e-19)
(-0.065253586 -0.048129641 -6.9212101e-21)
(-0.068737539 -0.056009076 2.5796518e-19)
(-0.059784106 -0.060591855 -9.1673654e-22)
(-0.029817303 -0.059676182 -3.6766109e-19)
(0.033121808 -0.050758162 2.0259075e-20)
(0.13905495 -0.033731234 1.2351587e-19)
(0.28460651 -0.013987878 0)
(0.45855911 0.0034446734 -1.0121679e-20)
(0.6441274 0.015732949 -1.4835153e-20)
(0.82268958 0.02095491 -8.0047196e-20)
(0.97947944 0.017893801 1.0765702e-19)
(1.1084598 0.0028084431 1.3252589e-20)
(-0.0060477881 -0.0030650134 -2.3321159e-22)
(-0.015821774 -0.0084827682 -8.6836272e-19)
(-0.022406464 -0.013592691 4.10099e-19)
(-0.023099881 -0.017819286 -3.1306162e-21)
(-0.013849207 -0.020322448 -3.287502e-19)
(0.011077778 -0.020056993 2.83086e-19)
(0.059024665 -0.015971413 -4.0760108e-21)
(0.13722031 -0.0077588043 6.7836926e-21)
(0.2498452 0.0035118383 -4.355672e-21)
(0.39594136 0.01551218 -8.9127788e-21)
(0.56613406 0.024505758 1.0566312e-19)
(0.74450573 0.026754408 -7.4901502e-20)
(0.91377859 0.020411848 -1.342337e-19)
(1.0602271 0.0062846428 1.1233533e-19)
(1.1762928 -0.012838912 -1.7860415e-20)
(1.2614662 -0.033730576 -5.2258474e-20)
(0.00054811564 1.6770581e-05 -8.6969119e-22)
(0.0060101106 0.00088986043 -1.0381461e-21)
(0.018739338 0.0023317863 -2.3399207e-19)
(0.042391748 0.0046211004 2.1876436e-19)
(0.081723798 0.0080569935 -3.150849e-21)
(0.14244554 0.01277966 1.6768898e-19)
(0.23025288 0.018553415 -1.2996845e-19)
(0.34877247 0.024400898 -2.3067309e-19)
(0.49660844 0.028310673 3.9260212e-21)
(0.66505188 0.027574008 3.0732146e-19)
(0.83888047 0.019891555 -1.1939229e-19)
(1.0008445 0.004589558 0)
(1.1370961 -0.016822751 8.2663494e-21)
(1.2404541 -0.041017019 -6.1361133e-20)
(1.3106583 -0.063936655 2.9374055e-20)
(1.3529519 -0.082297299 -6.4736177e-20)
(0.011146549 0.0019793436 8.6960746e-22)
(0.039561026 0.0063783037 -2.8096256e-19)
(0.079191651 0.010711267 2.6578385e-19)
(0.13391988 0.014739502 -1.7755278e-21)
(0.20820181 0.018092801 4.888016e-21)
(0.30633279 0.02004723 -1.504707e-21)
(0.43087241 0.019454566 -1.6109277e-19)
(0.58033686 0.014772866 -1.5436711e-21)
(0.74711992 0.0044103776 9.8486838e-20)
(0.91747001 -0.012536353 -8.01904e-20)
(1.074702 -0.035527488 6.5077512e-20)
(1.2044069 -0.062350197 0)
(1.2987246 -0.089595713 3.8874828e-20)
(1.3575507 -0.11361031 -2.7355071e-20)
(1.386704 -0.1314346 9.2880834e-21)
(1.3950073 -0.14166744 0)
(0.024494768 0.0013241443 -1.2971181e-19)
(0.080665319 0.0036097409 7.772414e-20)
(0.15115684 0.0043739466 1.4539051e-19)
(0.23925306 0.0028796941 -1.321335e-19)
(0.34799638 -0.0017458947 -1.3729461e-21)
(0.47906213 -0.010603917 5.182437e-20)
(0.63102843 -0.024810973 4.4202536e-20)
(0.7975637 -0.045099693 -8.3125818e-22)
(0.96677114 -0.071250851 -1.0083841e-21)
(1.1230477 -0.10161172 -6.4447899e-20)
(1.2514838 -0.13313898 6.6405511e-20)
(1.3427666 -0.16211275 -2.0575751e-21)
(1.3958549 -0.18521786 -6.2937945e-21)
(1.4169675 -0.20040665 -1.3798394e-20)
(1.4158596 -0.20695216 -8.5930227e-24)
(1.4021135 -0.20556409 5.8528434e-21)
(0.038546064 -0.002819319 -6.7084281e-20)
(0.12293998 -0.009744457 -8.0334337e-20)
(0.22336157 -0.020097152 2.272089e-19)
(0.34180994 -0.03481211 -1.374417e-19)
(0.47921658 -0.054757113 6.263817e-20)
(0.63420779 -0.080630642 6.2194383e-24)
(0.80165213 -0.11251936 8.8468608e-20)
(0.97170409 -0.14936764 -3.9202073e-20)
(1.1304738 -0.18859303 -4.7241116e-21)
(1.2630936 -0.22622944 1.9793626e-20)
(1.3584653 -0.25785872 -3.0449749e-20)
(1.4132672 -0.28001633 2.3268434e-20)
(1.4327514 -0.29133588 -6.2027633e-21)
(1.4274927 -0.29256128 -2.4937187e-20)
(1.40842 -0.28541772 9.2265542e-21)
(1.3836449 -0.27307166 1.0507947e-20)
(0.050966955 -0.010407636 -1.5011525e-21)
(0.15943374 -0.033227287 3.1546004e-19)
(0.28412104 -0.061334777 -2.957193e-19)
(0.42541075 -0.095399488 2.6505573e-19)
(0.5819929 -0.13566978 -2.3853727e-19)
(0.74976906 -0.18171083 0)
(0.92089655 -0.23189392 1.6772403e-19)
(1.0836695 -0.28298768 -1.3639079e-19)
(1.2241368 -0.33020237 -2.8460291e-21)
(1.32983 -0.36809736 0)
(1.3943674 -0.39233015 -1.1113468e-20)
(1.420142 -0.40137217 5.1301481e-21)
(1.4171035 -0.39703624 -3.2932821e-20)
(1.3975608 -0.38289912 5.9935211e-20)
(1.3710514 -0.36212924 -3.8888066e-20)
(1.3429973 -0.33884572 -9.3663472e-21)
(0.059632353 -0.020450767 9.7877744e-22)
(0.18407703 -0.063636252 -1.1660788e-21)
(0.32370688 -0.11349865 0)
(0.47739067 -0.17000693 -1.3996629e-21)
(0.6419811 -0.23232037 -2.9711121e-21)
(0.81147467 -0.29844323 1.7300861e-19)
(0.97652403 -0.36479038 -1.5220789e-19)
(1.1249316 -0.42604389 0)
(1.2438854 -0.47571747 1.1480033e-20)
(1.3241189 -0.50793286 7.7689914e-21)
(1.3640334 -0.51982741 7.1422886e-21)
(1.3705919 -0.51303026 -1.3084574e-20)
(1.3562976 -0.49283316 7.2328496e-21)
(1.3327562 -0.46474903 3.6779051e-20)
(1.3066818 -0.4324883 -3.9002841e-20)
(1.2818187 -0.40110034 2.0062951e-20)
(0.060835161 -0.040679673 5.2626515e-19)
(0.18536715 -0.12411566 -3.1503713e-19)
(0.32179408 -0.2158675 0)
(0.46738789 -0.31402603 -1.5685171e-21)
(0.61724922 -0.41507336 -2.2590906e-19)
(0.76397253 -0.51351193 2.0435101e-19)
(0.8979971 -0.60182905 1.4842933e-19)
(1.0087586 -0.6708766 -8.4149379e-21)
(1.0871519 -0.71183682 -1.0379112e-19)
(1.1314908 -0.72155846 5.3406098e-21)
(1.1480693 -0.70426033 0)
(1.1475131 -0.6689446 -4.9203164e-20)
(1.1393697 -0.62425414 1.7675382e-20)
(1.1296875 -0.57534055 2.2403587e-20)
(1.1217389 -0.52451562 0)
(1.1148691 -0.47529355 -1.3693406e-21)
(0.055944222 -0.050895207 -9.6582464e-22)
(0.16921483 -0.15380466 3.1902207e-19)
(0.29240174 -0.26455026 -1.5102914e-19)
(0.42259027 -0.38023015 -1.36187e-19)
(0.55498466 -0.49574944 1.2021047e-19)
(0.68287835 -0.60357799 -1.0446096e-19)
(0.79838549 -0.69447268 9.073126e-20)
(0.89195787 -0.75769377 5.9951883e-20)
(0.95779885 -0.78679025 -5.3228508e-20)
(0.99670604 -0.78294114 0)
(1.0151105 -0.75402675 0)
(1.021311 -0.71006577 0)
(1.021965 -0.65872108 -2.9110338e-21)
(1.0214907 -0.60383193 0)
(1.0228493 -0.54724189 -1.273297e-20)
(1.0243893 -0.49406682 2.7904102e-20)
(-0.0048138315 0.0051494243 2.9147464e-19)
(-0.015106227 0.016245271 1.3671389e-21)
(-0.026923095 0.029239524 -3.3265937e-19)
(-0.040272734 0.044279842 3.0594147e-19)
(-0.054985867 0.061428736 4.2598266e-21)
(-0.070610102 0.080579244 3.7837493e-21)
(-0.08623138 0.10128558 0)
(-0.10024486 0.122559 1.7371213e-19)
(-0.11013559 0.14272651 -2.907518e-19)
(-0.11214076 0.15925548 1.2066219e-19)
(-0.10061909 0.16864763 -9.7437306e-20)
(-0.065719823 0.16617119 8.0073151e-20)
(0.017686675 0.14419131 -8.363884e-23)
(0.18228831 0.09648502 -1.2993756e-20)
(0.38699402 0.045043598 -4.1115474e-20)
(0.59918879 0.011650355 0)
(-0.0047517481 0.0072016725 0)
(-0.014820652 0.022715125 -2.7025124e-21)
(-0.026183516 0.040946447 3.2707648e-19)
(-0.038802367 0.062149347 -2.9915256e-19)
(-0.052496064 0.086418056 -6.2247214e-21)
(-0.066826214 0.11354722 2.3061739e-19)
(-0.08098487 0.14281136 -5.0661594e-22)
(-0.093677311 0.17271975 -3.2966272e-19)
(-0.10305139 0.20084587 1.7575341e-20)
(-0.10671483 0.22388869 1.117986e-19)
(-0.10171821 0.23811738 0)
(-0.083991336 0.24017827 -9.0984413e-21)
(-0.04657989 0.22772448 -1.4259031e-20)
(0.022067444 0.19825529 -8.1657557e-20)
(0.15428968 0.13988707 1.0947104e-19)
(0.35502549 0.072508669 1.4795039e-20)
(-0.0051865665 0.01068024 -1.2524327e-22)
(-0.015945798 0.033195513 -6.7790077e-19)
(-0.027739411 0.058927167 3.2021439e-19)
(-0.04040592 0.087878073 -2.2150939e-21)
(-0.053652839 0.11973643 -2.576409e-19)
(-0.066984134 0.15372214 2.2247241e-19)
(-0.079677073 0.18840371 -2.9218187e-21)
(-0.090790394 0.22157936 4.9121881e-21)
(-0.099223531 0.2503421 -4.3658815e-21)
(-0.10382533 0.27145269 -6.726216e-21)
(-0.10346934 0.28204491 9.0119571e-20)
(-0.096933954 0.28044087 -6.3709229e-20)
(-0.082441764 0.26661667 -1.2617328e-19)
(-0.056441195 0.24184398 1.0635992e-19)
(-0.0091485311 0.20664419 -1.8781778e-20)
(0.078420001 0.15808657 -6.1572543e-20)
(-0.0046612982 0.013811244 -4.9018537e-22)
(-0.014221956 0.042137103 -5.8687467e-22)
(-0.024722845 0.073316846 -1.5023859e-19)
(-0.036042619 0.10686338 1.4065227e-19)
(-0.047978139 0.14188016 -1.8083957e-21)
(-0.06023681 0.17696311 1.0986817e-19)
(-0.072440011 0.21010483 -8.5275642e-20)
(-0.084176792 0.23877569 -1.5585568e-19)
(-0.095075026 0.26018881 -7.2624292e-22)
(-0.10487825 0.27189799 2.1729479e-19)
(-0.11344057 0.27263533 -8.6015064e-20)
(-0.12053099 0.26295286 0)
(-0.1253342 0.24510047 7.3016875e-21)
(-0.1255931 0.22200579 -5.9528584e-20)
(-0.11722462 0.19539948 2.8339319e-20)
(-0.095000675 0.16267375 -7.8743567e-20)
(-0.0025454181 0.012259074 4.9018537e-22)
(-0.007978421 0.037144829 -1.4073101e-19)
(-0.014642773 0.06407709 1.3330021e-19)
(-0.022737069 0.092403865 -1.0140431e-21)
(-0.032438607 0.12105792 2.6325398e-21)
(-0.043936017 0.1484806 -7.2136386e-22)
(-0.057410504 0.17263981 -8.5529967e-20)
(-0.073043284 0.19121933 -2.6865997e-21)
(-0.091038583 0.20208164 5.3507841e-20)
(-0.11159834 0.20399698 -4.8148578e-20)
(-0.13480751 0.19730952 3.9199497e-20)
(-0.16047191 0.18395025 0)
(-0.18791631 0.16660239 3.0540308e-20)
(-0.2156922 0.1476665 -2.1648534e-20)
(-0.24200634 0.12860425 9.2433128e-21)
(-0.26823041 0.10891739 0)
(-0.00056512123 0.005717126 -5.4958415e-20)
(-0.0022666347 0.017458299 3.2744335e-20)
(-0.0056761055 0.030346114 6.2401724e-20)
(-0.011419666 0.04412682 -5.7301652e-20)
(-0.020203211 0.058281405 -9.5605976e-22)
(-0.03285575 0.071904507 2.3037254e-20)
(-0.050188432 0.083642942 2.0535815e-20)
(-0.072797574 0.09183588 1.6716299e-22)
(-0.10084121 0.095020448 1.8187713e-22)
(-0.13386437 0.092699211 -3.4347982e-20)
(-0.17082221 0.085780811 3.7939653e-20)
(-0.2103588 0.07614469 4.5264629e-22)
(-0.25114164 0.065696188 -2.8720749e-21)
(-0.29191694 0.055676937 -1.0489235e-20)
(-0.33112952 0.046756447 -8.5436165e-24)
(-0.36641983 0.039258184 7.1629701e-21)
(-0.00057350141 -0.0056319666 -2.705803e-20)
(-0.0023000082 -0.017192677 -3.2909031e-20)
(-0.0057784262 -0.029879726 9.2879603e-20)
(-0.011650764 -0.043454592 -5.6911145e-20)
(-0.020641238 -0.057429109 2.6198133e-20)
(-0.03360142 -0.070950095 2.7236887e-24)
(-0.051366245 -0.082739289 3.9606812e-20)
(-0.074552328 -0.091221513 -1.6996529e-20)
(-0.10332735 -0.094995559 -1.5561347e-21)
(-0.13722706 -0.093546866 1.1686708e-20)
(-0.17517386 -0.087642942 -1.6251974e-20)
(-0.21575491 -0.078905062 1.5900639e-20)
(-0.25755101 -0.068918979 -2.8710155e-21)
(-0.29917662 -0.058577722 -2.1352364e-20)
(-0.33904454 -0.048148397 8.5839026e-21)
(-0.3755945 -0.037582174 1.4429015e-20)
(-0.0026063629 -0.012588716 -7.1536735e-22)
(-0.0081556192 -0.038076211 1.4282822e-19)
(-0.014933807 -0.065577722 -1.3416705e-19)
(-0.023133026 -0.094406179 1.2215693e-19)
(-0.032922182 -0.12346253 -1.1042774e-19)
(-0.044480036 -0.15117255 0)
(-0.057976217 -0.175521 8.359159e-20)
(-0.073575241 -0.19425051 -6.7981635e-20)
(-0.091451884 -0.20531045 -2.048093e-21)
(-0.11175438 -0.20753182 0)
(-0.13447535 -0.20121416 -7.6257603e-21)
(-0.15929989 -0.18808928 4.2709959e-21)
(-0.18549848 -0.17050482 -3.1193824e-20)
(-0.21167634 -0.15046403 6.1352424e-20)
(-0.23542582 -0.12923544 -4.4987632e-20)
(-0.255145 -0.10698637 -1.4795007e-20)
(-0.0046695806 -0.013845146 4.9319679e-22)
(-0.014238839 -0.042240648 -5.9045343e-22)
(-0.024727679 -0.073501162 0)
(-0.036008784 -0.10713853 3.2495894e-21)
(-0.047874527 -0.14225176 1.9828606e-21)
(-0.060029768 -0.1774331 1.1048895e-19)
(-0.072104466 -0.21069586 -9.7069545e-20)
(-0.083684356 -0.23949506 0)
(-0.094397858 -0.26105263 -2.9445856e-22)
(-0.10397817 -0.27292718 -6.776853e-21)
(-0.11225218 -0.27381702 5.2183701e-21)
(-0.11897646 -0.26415192 4.7541108e-21)
(-0.12346114 -0.24595425 7.038672e-21)
(-0.12370678 -0.22202748 5.3764773e-20)
(-0.11517421 -0.19497868 -6.761156e-20)
(-0.092690445 -0.1650713 3.8227217e-20)
(-0.0051932782 -0.01069628 0)
(-0.015963082 -0.033240398 3.4288113e-19)
(-0.027761249 -0.0589993 -6.4400824e-19)
(-0.04042316 -0.087973038 2.9207945e-19)
(-0.053652937 -0.11984627 -1.9815543e-21)
(-0.066951141 -0.1538357 -7.0320538e-21)
(-0.079592383 -0.18850941 1.9639573e-19)
(-0.090634958 -0.22166899 -1.6267582e-19)
(-0.09898339 -0.25041771 -1.2223166e-19)
(-0.10349811 -0.27153288 1.106376e-19)
(-0.1030722 -0.28216095 0)
(-0.096530201 -0.28061265 -8.2808609e-20)
(-0.082231255 -0.26683128 4.4390759e-20)
(-0.056858924 -0.24223011 0)
(-0.010724043 -0.20830977 0)
(0.073137696 -0.16320629 0)
(-0.0047424825 -0.00718973 5.8523672e-19)
(-0.014793267 -0.022683589 -3.5070426e-19)
(-0.026134028 -0.040900874 0)
(-0.038725859 -0.062096817 -2.3587988e-21)
(-0.052386765 -0.08636611 -2.6298547e-19)
(-0.066677583 -0.11350259 2.3966078e-19)
(-0.080790637 -0.14277904 1.9134936e-19)
(-0.093434414 -0.17270418 4.6416595e-21)
(-0.10276573 -0.2008566 -1.4596225e-19)
(-0.10640985 -0.22395251 6.9696048e-21)
(-0.10144836 -0.23829559 0)
(-0.08387841 -0.24058784 -1.4605153e-19)
(-0.046914593 -0.22858135 1.4705711e-20)
(0.02074632 -0.19995968 9.304268e-20)
(0.15041168 -0.1430038 0)
(0.35085395 -0.076280874 1.3818104e-20)
(-0.0047726897 -0.0051053644 6.1585765e-23)
(-0.014986356 -0.016119326 7.0631085e-19)
(-0.026723487 -0.029035762 -3.3459737e-19)
(-0.03999645 -0.044008571 -3.0488446e-19)
(-0.054641441 -0.06110757 2.7105061e-19)
(-0.070212645 -0.08023335 -2.4433087e-19)
(-0.085800242 -0.10094161 2.0716034e-19)
(-0.099810935 -0.12224769 1.6912027e-19)
(-0.10974594 -0.14247643 -1.5586116e-19)
(-0.11187623 -0.1590963 0)