/*--------------------------------*- C++ -*----------------------------------*\
| =========                 |                                                 |
| \\      /  F ield         | foam-extend: Open Source CFD                    |
|  \\    /   O peration     | Version:     4.1                                |
|   \\  /    A nd           | Web:         http://www.foam-extend.org         |
|    \\/     M anipulation  |                                                 |
\*---------------------------------------------------------------------------*/
FoamFile
{
    version     2.0;
    format      ascii;
    class       volScalarField;
    location    "1.5";
    object      p;
}
// * * * * * * * * * * * * * * * * * * * * * * * * * * * * * * * * * * * * * //

dimensions      [0 2 -2 0 0 0 0];

internalField   nonuniform List<scalar> 
16796
(
-0.0018675265
-6.0786123e-05
-0.0019869165
-0.0014136758
-0.0025328492
-0.0025308953
-0.0033015282
-0.0035759044
-0.0042097041
-0.0046317017
-0.0052289763
-0.0057452106
-0.0063560904
-0.0069473904
-0.0075995164
-0.0082623395
-0.0089733695
-0.0097113879
-0.010494619
-0.011314882
-0.012181737
-0.013092873
-0.014053944
-0.015065249
-0.016130643
-0.017251529
-0.018430859
-0.019670415
-0.020972576
-0.022339119
-0.023771908
-0.025272464
-0.026842084
-0.028481772
-0.03019216
-0.031973499
-0.033825566
-0.035747642
-0.037738426
-0.039795986
-0.041917713
-0.04410021
-0.046339325
-0.048629982
-0.050966238
-0.05334115
-0.055746802
-0.058174232
-0.060613439
-0.063053364
-0.065481905
-0.067885934
-0.070251348
-0.072563122
-0.074805387
-0.076961539
-0.079014355
-0.080946137
-0.082738877
-0.084374445
-0.085834775
-0.087102105
-0.088159177
-0.088989501
-0.089577561
-0.089909098
-0.089971274
-0.089752986
-0.089244936
-0.088439992
-0.08733311
-0.085921769
-0.084205828
-0.082187499
-0.079871645
-0.077265489
-0.074378808
-0.071223644
-0.067814339
-0.064167258
-0.060300688
-0.056234545
-0.051990197
-0.047590122
-0.043057704
-0.038416851
-0.03369179
-0.028906665
-0.024085367
-0.019251135
-0.014426429
-0.0096325981
-0.0048897859
-0.00021668239
0.0043695098
0.0088532413
0.013220591
0.017459352
0.021558944
0.025510439
0.029306434
0.03294101
0.036409602
0.039708898
0.042836721
0.045791875
0.048574091
0.051183754
0.05362205
0.055890395
0.05799107
0.059925893
0.061698138
0.063309141
0.064763635
0.066060841
0.067208809
0.068200899
0.069053953
0.069746015
0.070317622
0.070706869
0.071017668
0.071085579
-0.0018652723
-5.995381e-05
-0.0019837015
-0.001410617
-0.0025282513
-0.0025258862
-0.0032953367
-0.0035690327
-0.0042017956
-0.0046229758
-0.0052192632
-0.0057346016
-0.0063445004
-0.0069348531
-0.0075859862
-0.0082478253
-0.0089578455
-0.0096948547
-0.010477063
-0.011296305
-0.012162137
-0.013072256
-0.014032321
-0.015042639
-0.016107072
-0.017227033
-0.018405483
-0.019644218
-0.020945629
-0.022311508
-0.023743735
-0.025243849
-0.026813166
-0.028452711
-0.030163136
-0.031944719
-0.033797259
-0.035720063
-0.037711854
-0.039770725
-0.041894094
-0.044078588
-0.046320078
-0.048613508
-0.050952955
-0.053331488
-0.055741203
-0.058173145
-0.06061731
-0.063062634
-0.065497001
-0.067907262
-0.070279284
-0.072598002
-0.074847503
-0.077011126
-0.079071584
-0.081011107
-0.082811609
-0.084454874
-0.085922748
-0.087197375
-0.088261401
-0.089098244
-0.089692294
-0.090029202
-0.090096046
-0.089881649
-0.08937664
-0.088573838
-0.087468144
-0.086057104
-0.084340606
-0.082320832
-0.080002657
-0.077393304
-0.074502571
-0.071342523
-0.067927542
-0.064274037
-0.060400355
-0.056326476
-0.052073848
-0.047665031
-0.043123506
-0.038473277
-0.033738676
-0.028943952
-0.024113099
-0.019269456
-0.014435581
-0.0096329075
-0.0048816602
-0.00020059373
0.0043930324
0.0088836282
0.013257242
0.01750165
0.021606267
0.02556217
0.029361972
0.032999779
0.036471055
0.039772527
0.042902057
0.045858492
0.048641611
0.051251844
0.053690423
0.055958807
0.058059323
0.059993828
0.061765635
0.063376117
0.064830036
0.066126647
0.067274021
0.068265548
0.069118079
0.069809695
0.070380913
0.070769892
0.071080467
0.071148337
-0.0018609368
-5.8693076e-05
-0.0019775906
-0.0014049767
-0.0025194811
-0.0025163881
-0.0032834672
-0.0035558688
-0.0041865788
-0.0046061813
-0.0052005331
-0.0057141377
-0.0063221269
-0.0069106491
-0.0075598608
-0.0082198053
-0.0089278829
-0.0096629584
-0.010443212
-0.011260509
-0.012124397
-0.013032597
-0.01399077
-0.014999243
-0.016061889
-0.017180145
-0.01835699
-0.019594243
-0.020894324
-0.022259052
-0.023690339
-0.025189759
-0.026758668
-0.028398128
-0.030108837
-0.031891116
-0.033744812
-0.03566928
-0.037663293
-0.039724993
-0.041851847
-0.044040528
-0.04628695
-0.048586098
-0.050932082
-0.053317999
-0.055735963
-0.058177025
-0.06063118
-0.063087345
-0.065533373
-0.067956068
-0.070341234
-0.072673726
-0.074937534
-0.077115884
-0.07919136
-0.08114605
-0.082961714
-0.084619972
-0.086102496
-0.087391256
-0.088468721
-0.089318133
-0.08992371
-0.090270944
-0.090346758
-0.090139839
-0.089640683
-0.088842013
-0.087738614
-0.086328031
-0.084610147
-0.082587091
-0.08026375
-0.077647361
-0.074747773
-0.071577113
-0.06814986
-0.064482534
-0.06059362
-0.056503256
-0.052233069
-0.047805811
-0.043245175
-0.038575378
-0.033820981
-0.02900645
-0.024156004
-0.019293184
-0.014440748
-0.0096202981
-0.0048522166
-0.00015538087
0.0044528449
0.008956801
0.013342486
0.017597659
0.021711734
0.025675819
0.029482567
0.033126145
0.036602093
0.039907218
0.043039475
0.045997806
0.048782086
0.051392843
0.053831405
0.056099324
0.058199014
0.060132415
0.061902917
0.063511968
0.064964387
0.066259497
0.067405407
0.068395573
0.069246853
0.069937407
0.070507708
0.070896051
0.071206102
0.071273857
-0.0018543818
-5.670544e-05
-0.0019683155
-0.0013963733
-0.002506181
-0.0025019734
-0.0032654892
-0.0035359311
-0.0041635508
-0.0045807688
-0.0051722013
-0.0056831851
-0.0062882896
-0.0068740423
-0.0075203467
-0.0081774207
-0.0088825538
-0.0096146945
-0.010391979
-0.011206317
-0.012067248
-0.01297252
-0.013927803
-0.014933452
-0.01599336
-0.017108994
-0.018283361
-0.019518321
-0.020816327
-0.022179248
-0.02360904
-0.025107333
-0.026675536
-0.028314776
-0.030025814
-0.03180904
-0.033664372
-0.035591239
-0.037588489
-0.039654339
-0.041786332
-0.043981209
-0.046234955
-0.048542614
-0.050898348
-0.053295297
-0.055725605
-0.058180334
-0.060649479
-0.06312193
-0.065585496
-0.068026913
-0.070431889
-0.072785162
-0.075070575
-0.077271185
-0.079369382
-0.08134704
-0.083185682
-0.084866677
-0.086371439
-0.087681665
-0.088779554
-0.089648079
-0.090271196
-0.090634149
-0.090723624
-0.090528104
-0.090037887
-0.089245555
-0.088145731
-0.086735969
-0.085016148
-0.082988329
-0.080657421
-0.078030678
-0.075118021
-0.071931671
-0.068486241
-0.064798412
-0.060886873
-0.056771989
-0.052475651
-0.048020894
-0.043431724
-0.038732676
-0.033948649
-0.029104438
-0.024224597
-0.019332973
-0.014452625
-0.0096054113
-0.0048119544
-9.131862e-05
0.0045389702
0.0090631446
0.013467124
0.017738639
0.021867102
0.025843658
0.029661022
0.033313453
0.036796595
0.040107383
0.043243904
0.046205243
0.04899142
0.051603109
0.054041781
0.056309126
0.058407691
0.060339542
0.062108183
0.063715171
0.065165418
0.066458343
0.067602118
0.068590291
0.069439738
0.070128737
0.070697691
0.0710851
0.071394381
0.071461973
-0.0018457282
-5.4194341e-05
-0.0019561134
-0.0013851197
-0.0024886705
-0.002483015
-0.0032417901
-0.0035096494
-0.0041331656
-0.0045472321
-0.0051347947
-0.0056423126
-0.0062435977
-0.0068256888
-0.0074681477
-0.0081214285
-0.0088226706
-0.009550936
-0.010324301
-0.011134737
-0.011991766
-0.01289318
-0.013844658
-0.014846591
-0.015902898
-0.017015089
-0.018186208
-0.019418165
-0.020713465
-0.022074033
-0.023501893
-0.024998741
-0.026566064
-0.028205071
-0.029916607
-0.031701154
-0.033558726
-0.035488849
-0.037490472
-0.039561912
-0.041700809
-0.043904002
-0.046167565
-0.048486622
-0.050855407
-0.053267116
-0.055713931
-0.058186934
-0.060676112
-0.063170326
-0.065657322
-0.068123742
-0.070555171
-0.072936185
-0.075250432
-0.077480743
-0.079609247
-0.08161753
-0.083486802
-0.085198099
-0.086732486
-0.088071303
-0.089196389
-0.090090362
-0.09073683
-0.091120712
-0.09122838
-0.091048045
-0.09056974
-0.089785856
-0.088690791
-0.087282065
-0.085559532
-0.083525161
-0.081183888
-0.078542991
-0.075612492
-0.072404742
-0.068934542
-0.0652188
-0.061276487
-0.057128281
-0.052796438
-0.048304385
-0.043676557
-0.038937926
-0.034113858
-0.02922959
-0.024310136
-0.019379758
-0.01446192
-0.0095788272
-0.0047514216
9.8407723e-07
0.0046606516
0.0092116752
0.013639876
0.017932951
0.022080321
0.026073188
0.02990436
0.033568224
0.037060573
0.040378519
0.043520331
0.046485292
0.049273619
0.051886186
0.054324654
0.056590907
0.058687663
0.060617163
0.062383059
0.063987059
0.065434195
0.066724016
0.067864775
0.068850147
0.069697027
0.070383851
0.070950925
0.071337032
0.071645238
0.071712597
-0.0018348826
-5.1006402e-05
-0.0019407956
-0.0013709726
-0.0024666957
-0.0024592205
-0.0032120638
-0.0034766857
-0.0040950644
-0.004505181
-0.0050878947
-0.0055910664
-0.0061875614
-0.0067650568
-0.0074026879
-0.008051203
-0.0087475538
-0.0094709441
-0.010239375
-0.011044893
-0.011897002
-0.012793545
-0.013740212
-0.014737442
-0.015789185
-0.016897
-0.018063984
-0.019292105
-0.020583932
-0.021941467
-0.02336681
-0.024861748
-0.026427861
-0.028066461
-0.029778502
-0.031564581
-0.033424832
-0.035358905
-0.037365875
-0.039444188
-0.041591609
-0.043805099
-0.046080846
-0.04841408
-0.050799126
-0.053229251
-0.055696691
-0.058192554
-0.060706823
-0.063228321
-0.065744721
-0.06824255
-0.070707236
-0.073123155
-0.075473712
-0.077741451
-0.079908175
-0.081955104
-0.083863053
-0.085612635
-0.087184472
-0.088559452
-0.089718953
-0.090645144
-0.09132119
-0.091731596
-0.091862338
-0.091701285
-0.091238135
-0.090465046
-0.08937614
-0.087968888
-0.086243117
-0.084200685
-0.081846561
-0.079188055
-0.076235312
-0.073000843
-0.069499679
-0.06574901
-0.061768153
-0.057578179
-0.053201804
-0.048662936
-0.043986558
-0.039198188
-0.03432378
-0.029389135
-0.024419848
-0.019440703
-0.014475685
-0.0095474339
-0.0046773016
0.00011508666
0.0048117212
0.0093965222
0.013855184
0.018175368
0.022346497
0.026359855
0.030208361
0.033886568
0.037390461
0.040717369
0.043865799
0.04683528
0.049626277
0.052239917
0.054678106
0.056942962
0.059037429
0.060963957
0.062726394
0.06432663
0.06576985
0.067055768
0.068192736
0.069174588
0.070018241
0.070702333
0.071267047
0.071651519
0.071958377
0.072025448
-0.0018219287
-4.7259247e-05
-0.0019225351
-0.0013541458
-0.0024404959
-0.0024308628
-0.003176604
-0.0034373639
-0.004049594
-0.0044549916
-0.005031904
-0.00552988
-0.006120645
-0.0066926447
-0.0073245003
-0.0079673146
-0.0086578131
-0.0093753697
-0.010137894
-0.010937526
-0.011783743
-0.012674452
-0.013615355
-0.014606947
-0.015653216
-0.016755783
-0.017917801
-0.019141312
-0.020428963
-0.021782843
-0.023205148
-0.02469777
-0.026262404
-0.027900484
-0.029613096
-0.031400975
-0.033264399
-0.03520317
-0.037216515
-0.039303033
-0.041460644
-0.043686456
-0.045976798
-0.048327028
-0.050731582
-0.053183819
-0.055676039
-0.058199385
-0.060743836
-0.063298175
-0.065849986
-0.06838566
-0.070890437
-0.073348454
-0.075742822
-0.078055737
-0.080268609
-0.082362216
-0.084316895
-0.086112745
-0.087729854
-0.089148559
-0.090349685
-0.091314854
-0.092026696
-0.092469215
-0.092627908
-0.092490227
-0.092045463
-0.091285492
-0.090204091
-0.088798647
-0.087068949
-0.085016718
-0.082646961
-0.079967025
-0.076987205
-0.073720207
-0.070181345
-0.066388151
-0.06236037
-0.058119553
-0.053688975
-0.049093144
-0.04435771
-0.039508861
-0.034573279
-0.029577451
-0.024547689
-0.019509416
-0.014487255
-0.0095043734
-0.0045826236
0.00025799311
0.0049991398
0.0096245327
0.014119719
0.018472321
0.022671779
0.026709481
0.030578492
0.034273575
0.037790952
0.041128229
0.0442842
0.047258701
0.050052504
0.052667042
0.055104519
0.057367341
0.059458723
0.061381374
0.063139369
0.064734826
0.06617311
0.067454133
0.068586365
0.069563833
0.070403478
0.071084181
0.071645973
0.07202842
0.07233361
0.07240032
-0.0018068078
-4.2864729e-05
-0.0019012052
-0.0013344827
-0.0024098974
-0.0023977451
-0.0031351997
-0.0033914521
-0.0039965058
-0.0043963933
-0.0049665307
-0.0054584361
-0.0060425035
-0.0066080764
-0.0072331745
-0.0078693148
-0.0085529574
-0.0092636751
-0.01001927
-0.010811989
-0.011651282
-0.012535126
-0.013469239
-0.014454179
-0.015493979
-0.01659033
-0.017746454
-0.018964476
-0.020247134
-0.021596619
-0.023015239
-0.024505011
-0.026067762
-0.02770507
-0.029418176
-0.031207979
-0.033074927
-0.035019
-0.037039605
-0.039135528
-0.041304867
-0.04354491
-0.045852153
-0.048222109
-0.05064935
-0.053127347
-0.055648481
-0.058203939
-0.060783705
-0.063376515
-0.065969855
-0.068549961
-0.071101856
-0.073609395
-0.076055346
-0.078421498
-0.080688795
-0.082837493
-0.084847361
-0.086697892
-0.088368535
-0.089838976
-0.091089381
-0.09210072
-0.092854989
-0.093335596
-0.093527469
-0.093417568
-0.092994709
-0.092250431
-0.091178109
-0.089775024
-0.088040922
-0.085977368
-0.083589405
-0.08088443
-0.077872906
-0.074567763
-0.070984647
-0.067141485
-0.063058523
-0.058757871
-0.054263471
-0.049600528
-0.044795489
-0.039875334
-0.034867614
-0.029799631
-0.024698554
-0.019590566
-0.014501052
-0.0094538083
-0.0044712841
0.00042607584
0.0052195446
0.0098926015
0.014430621
0.018821186
0.023053763
0.027119866
0.031012743
0.034727408
0.03826037
0.041609566
0.044774134
0.047754277
0.050551129
0.053166489
0.055602911
0.057863145
0.05995072
0.061868651
0.063621284
0.065210999
0.066643374
0.067918552
0.069045139
0.07001739
0.070852271
0.071528949
0.072087273
0.07246732
0.072770534
0.07283682
-0.0017895785
-3.7900042e-05
-0.0018769333
-0.0013121375
-0.0023750818
-0.0023600737
-0.0030880783
-0.0033392007
-0.0039360705
-0.0043296797
-0.0048920895
-0.0053770727
-0.0059534985
-0.0065117377
-0.0071291214
-0.00775764
-0.0084334496
-0.0091363502
-0.0098840208
-0.010668829
-0.011500192
-0.012376168
-0.013302491
-0.014279794
-0.015312156
-0.016401352
-0.017550677
-0.018762355
-0.020039225
-0.021383595
-0.022797902
-0.024284304
-0.02584478
-0.027481075
-0.029194606
-0.03098646
-0.032857284
-0.03480726
-0.03683601
-0.038942528
-0.041125129
-0.043381305
-0.045707752
-0.048100163
-0.050553273
-0.053060687
-0.055614883
-0.058207109
-0.060827356
-0.063464315
-0.066105363
-0.068736562
-0.071342687
-0.073907275
-0.076412696
-0.078840273
-0.081170409
-0.083382759
-0.085456432
-0.087370216
-0.08910282
-0.090633173
-0.09194067
-0.093005528
-0.093809005
-0.094333812
-0.09456422
-0.094486616
-0.094089258
-0.0933633
-0.092301644
-0.090901428
-0.089162348
-0.087085785
-0.084676825
-0.081942916
-0.078894713
-0.075545408
-0.071911024
-0.068009946
-0.063863001
-0.059492948
-0.054924506
-0.050183693
-0.045297895
-0.040295014
-0.035203627
-0.030051985
-0.024868275
-0.019679563
-0.014512137
-0.0093905184
-0.0043378609
0.00062488246
0.0054785316
0.010206302
0.014793372
0.019227296
0.023497576
0.027595892
0.031515709
0.035252352
0.03880267
0.042164993
0.04533887
0.048324931
0.051124738
0.053740517
0.05617523
0.058432023
0.060514794
0.062426908
0.064173021
0.065755819
0.06718112
0.068449332
0.069569218
0.070535291
0.071364544
0.072036474
0.072590712
0.072967932
0.073268822
0.073334604
-0.0017702052
-3.2311639e-05
-0.0018496377
-0.0012870106
-0.0023359354
-0.0023177207
-0.0030351009
-0.0032804579
-0.0038681238
-0.0042546718
-0.004808386
-0.0052855771
-0.0058533966
-0.0064033721
-0.0070120578
-0.0076319775
-0.0082989432
-0.0089930107
-0.0097317189
-0.010507572
-0.011329948
-0.012196996
-0.013114468
-0.014083077
-0.015106959
-0.016187977
-0.017329511
-0.018533895
-0.01980408
-0.021142509
-0.02255176
-0.024034151
-0.025591835
-0.027226745
-0.028940497
-0.030734394
-0.032609306
-0.034565652
-0.036603293
-0.038721471
-0.040918744
-0.043192844
-0.045540697
-0.047958211
-0.050440311
-0.052980759
-0.055572158
-0.058205827
-0.060871778
-0.063558656
-0.066253726
-0.068942854
-0.071610544
-0.074239971
-0.076813059
-0.079310599
-0.081712378
-0.083997364
-0.086143907
-0.088129988
-0.089933464
-0.09153239
-0.09290528
-0.094031475
-0.094891388
-0.09546693
-0.095741616
-0.095701172
-0.095333226
-0.09462849
-0.093579322
-0.092182688
-0.090438237
-0.08834714
-0.085914522
-0.083147893
-0.080058116
-0.076658676
-0.072966017
-0.068999041
-0.064779232
-0.060330082
-0.055677203
-0.050847539
-0.045869558
-0.04077222
-0.035585295
-0.030338129
-0.025060094
-0.019779271
-0.014523
-0.0093166385
-0.0041841564
0.00085291564
0.0057748747
0.010564644
0.015207183
0.019690027
0.024002726
0.028137167
0.032087076
0.035848142
0.039417616
0.042794291
0.045978186
0.048970434
0.051773085
0.054388858
0.056821182
0.059073658
0.061150599
0.063055773
0.064794187
0.066368869
0.06778591
0.069046018
0.07015813
0.071117051
0.071939799
0.072606249
0.073155777
0.07352974
0.073827953
0.07389316
-0.0017487308
-2.6155296e-05
-0.0018194153
-0.0012592197
-0.0022926006
-0.002270849
-0.0029764495
-0.0032154246
-0.0037928845
-0.0041716068
-0.0047156749
-0.0051842223
-0.0057424883
-0.006283288
-0.0068823096
-0.0074926702
-0.0081497981
-0.0088340328
-0.0095627561
-0.010328624
-0.011140968
-0.01199804
-0.012905608
-0.013864476
-0.014878839
-0.015950658
-0.017083409
-0.018279543
-0.019542139
-0.020873785
-0.02227722
-0.023754938
-0.025309285
-0.026942405
-0.028656138
-0.030452027
-0.032331197
-0.03429433
-0.036341561
-0.038472411
-0.040685715
-0.042979482
-0.045350902
-0.047796129
-0.05031031
-0.052887397
-0.055520137
-0.058199943
-0.060916859
-0.063659491
-0.066414982
-0.069168994
-0.071905727
-0.074607958
-0.077257113
-0.079833384
-0.082315866
-0.084682747
-0.086911522
-0.088979253
-0.09086283
-0.092539313
-0.09398621
-0.095181871
-0.096105742
-0.096738824
-0.097063774
-0.097065567
-0.096731119
-0.096050634
-0.095015861
-0.093623549
-0.091873297
-0.089766042
-0.087306942
-0.08450358
-0.081367042
-0.077911139
-0.074152782
-0.070111449
-0.065809364
-0.061270844
-0.056522515
-0.051592367
-0.046510117
-0.041305925
-0.036010941
-0.030655757
-0.025271121
-0.01988627
-0.014529766
-0.0092279086
-0.0040056107
0.0011149523
0.0061134814
0.010972586
0.015676986
0.020214212
0.024573891
0.02874816
0.032731058
0.03651871
0.040108834
0.04350076
0.046695057
0.049693428
0.052498488
0.055113514
0.057542468
0.059789462
0.061859284
0.063756148
0.065485455
0.067050618
0.068458031
0.069708735
0.070811857
0.07176253
0.072577794
0.073237948
0.073782074
0.074152302
0.07444745
0.074511994
-0.0017251346
-1.9398847e-05
-0.0017862163
-0.001228705
-0.0022450084
-0.0022193821
-0.0029120404
-0.0031440104
-0.003710254
-0.0040803773
-0.004613838
-0.0050728776
-0.0056206282
-0.0061513227
-0.0067396937
-0.0073395119
-0.0079857807
-0.0086591518
-0.0093768324
-0.010131644
-0.010932867
-0.011778864
-0.012675419
-0.013623436
-0.014627172
-0.015688698
-0.016811589
-0.017998429
-0.019252433
-0.020576351
-0.021973097
-0.023445362
-0.024995703
-0.026626497
-0.028339836
-0.030137529
-0.032020983
-0.033991179
-0.036048557
-0.038192954
-0.04042352
-0.042738577
-0.045135617
-0.047611079
-0.050160367
-0.052777656
-0.055455866
-0.058186528
-0.060959735
-0.06376406
-0.066586528
-0.069412579
-0.072226088
-0.075009394
-0.07774337
-0.080407544
-0.082980236
-0.085438762
-0.087759651
-0.089918928
-0.091892392
-0.093655978
-0.095186055
-0.096459851
-0.097455718
-0.098153627
-0.098535272
-0.098584776
-0.098288259
-0.097635355
-0.096617132
-0.095230085
-0.093473758
-0.091348837
-0.088860504
-0.086016423
-0.082827916
-0.079309149
-0.075477544
-0.071353209
-0.06695919
-0.062320715
-0.057465554
-0.052422865
-0.047223784
-0.041899824
-0.036483721
-0.031007471
-0.025503412
-0.020002083
-0.014533456
-0.0091248875
-0.0038023752
0.0014111929
0.006494841
0.011430846
0.016203664
0.02080085
0.025212126
0.029429941
0.033448704
0.037265047
0.040877234
0.044285214
0.047490181
0.050494493
0.053301402
0.055914819
0.058339302
0.060579538
0.062640841
0.064527924
0.066246628
0.067800786
0.069197128
0.070437061
0.071529923
0.072471203
0.073277962
0.073930972
0.074468976
0.074834976
0.075126656
0.075190453
-0.0016994491
-1.2086175e-05
-0.0017501178
-0.0011955619
-0.0021932758
-0.0021634553
-0.0028420264
-0.003066385
-0.0036204178
-0.0039811849
-0.0045030917
-0.0049517745
-0.0054880614
-0.0060077348
-0.006584481
-0.0071727846
-0.0078071828
-0.0084686682
-0.0091742545
-0.0099169432
-0.010705958
-0.011539779
-0.012424209
-0.013360256
-0.014352246
-0.015402364
-0.016514297
-0.017690769
-0.018935145
-0.020250351
-0.021639489
-0.023105465
-0.02465107
-0.026278937
-0.02799143
-0.029790658
-0.031678338
-0.033655783
-0.035723774
-0.0378825
-0.040131466
-0.042469349
-0.044893982
-0.04740213
-0.049989496
-0.052650511
-0.055378305
-0.058164553
-0.060999418
-0.063871455
-0.06676757
-0.069672973
-0.072571191
-0.075444087
-0.078271928
-0.081033509
-0.083706292
-0.086266617
-0.088689936
-0.090951114
-0.093024723
-0.094885433
-0.096508335
-0.097869391
-0.098945726
-0.099716154
-0.10016129
-0.10026429
-0.10001041
-0.099388629
-0.098389269
-0.097008518
-0.095245863
-0.093101728
-0.090581295
-0.087692327
-0.084446387
-0.080858026
-0.076945218
-0.072728753
-0.068232589
-0.063482949
-0.058508889
-0.05334086
-0.048011618
-0.042554181
-0.037003109
-0.031391971
-0.025754936
-0.020124004
-0.01453077
-0.0090037666
-0.0035702322
0.001746166
0.0069236882
0.011944268
0.016792078
0.021454732
0.025922083
0.03018696
0.034244208
0.038091059
0.041726402
0.045150901
0.048366462
0.051376187
0.054184047
0.056794662
0.059213258
0.061445162
0.063496271
0.06537185
0.067078219
0.068619678
0.07000332
0.071230953
0.072312138
0.073242759
0.074039891
0.074684824
0.075215919
0.075577149
0.075864923
0.075927875
-0.0016716631
-4.2000729e-06
-0.0017110928
-0.00115976
-0.0021373676
-0.0021030317
-0.0027663671
-0.0029825061
-0.0035233296
-0.0038739791
-0.004383379
-0.0048208485
-0.0053447133
-0.0058524375
-0.0064165692
-0.0069923677
-0.0076138619
-0.0082624131
-0.0089548234
-0.0096842881
-0.010459966
-0.011280466
-0.012151605
-0.013074505
-0.014053561
-0.015091087
-0.016190883
-0.017355825
-0.01858944
-0.019894841
-0.021275338
-0.02273407
-0.024274079
-0.025898278
-0.027609332
-0.029409675
-0.03130137
-0.033286093
-0.035365007
-0.037538691
-0.039807049
-0.042169155
-0.04462323
-0.04716641
-0.04979474
-0.052502952
-0.055284423
-0.058131008
-0.061032963
-0.063978846
-0.066955448
-0.069947747
-0.072938896
-0.075910249
-0.078841413
-0.081710379
-0.084493658
-0.087166512
-0.089703193
-0.092077271
-0.094261945
-0.096230471
-0.097956503
-0.099414588
-0.10058047
-0.10143168
-0.10194761
-0.10211037
-0.10190423
-0.10131742
-0.10033953
-0.098966322
-0.097197212
-0.095032398
-0.09247702
-0.089538961
-0.086230022
-0.08256517
-0.078562965
-0.074244929
-0.069636015
-0.064763526
-0.059657954
-0.054351168
-0.048877758
-0.04327241
-0.037571773
-0.031811168
-0.026026871
-0.020252506
-0.014521536
-0.0088637941
-0.0033079364
0.0021215264
0.0074019924
0.012515049
0.017444563
0.022178257
0.02670615
0.031021537
0.035119775
0.038998793
0.042658201
0.04609948
0.049325344
0.052339735
0.055147427
0.057753834
0.060164924
0.062386732
0.064425794
0.066287982
0.067980139
0.069507071
0.070876266
0.072089966
0.07315797
0.07407659
0.074862906
0.075498781
0.076022139
0.076378031
0.076661438
0.076723447
-0.0016418016
4.221735e-06
-0.0016692057
-0.0011213823
-0.0020773853
-0.0020382311
-0.002685198
-0.0028925261
-0.0034191559
-0.003758942
-0.0042548951
-0.004680308
-0.0051908038
-0.0056856613
-0.0062361978
-0.0067985082
-0.0074060701
-0.0080406419
-0.0087187944
-0.009433931
-0.010195138
-0.011001158
-0.011857826
-0.01276638
-0.013731293
-0.014755007
-0.015841447
-0.016993651
-0.018215316
-0.019509759
-0.020880511
-0.022330959
-0.023864422
-0.025484114
-0.027193028
-0.028993952
-0.030889326
-0.03288123
-0.034971243
-0.037160381
-0.03944899
-0.041836588
-0.044321835
-0.046902288
-0.049574381
-0.052333197
-0.055172404
-0.058084074
-0.061058595
-0.064084545
-0.067148616
-0.070235548
-0.073328107
-0.076407101
-0.079451424
-0.082438188
-0.085342863
-0.088139518
-0.090801076
-0.093299667
-0.09560696
-0.097694632
-0.099534734
-0.10110023
-0.10236533
-0.10330611
-0.10390065
-0.10412983
-0.10397691
-0.10342925
-0.10247563
-0.10111135
-0.099335754
-0.097148807
-0.094555572
-0.091564075
-0.088186346
-0.084437791
-0.080337588
-0.075908034
-0.071175163
-0.066167438
-0.060916951
-0.055457113
-0.049824597
-0.044055926
-0.038190146
-0.032264516
-0.026317746
-0.020385254
-0.014502657
-0.0087012104
-0.0030111955
0.0025419767
0.0079347334
0.013148325
0.018166295
0.022976538
0.02756929
0.031938409
0.036079853
0.039992369
0.043676389
0.04713433
0.050369818
0.05338774
0.056193767
0.058794199
0.061195819
0.063405442
0.065430307
0.067276943
0.068952763
0.07046312
0.071815924
0.073013886
0.074067055
0.074972204
0.07574641
0.076372158
0.076886882
0.07723682
0.077515362
0.077576318
-0.0016098582
1.3184853e-05
-0.0016244459
-0.0010804208
-0.0020133194
-0.0019690477
-0.0025985131
-0.0027964416
-0.0033078928
-0.0036360698
-0.0041176337
-0.0045301436
-0.0050263171
-0.0055073828
-0.0060433319
-0.0065911571
-0.0071837402
-0.0078032654
-0.0084660519
-0.0091657245
-0.0099112886
-0.01070163
-0.011542595
-0.01243555
-0.013385042
-0.014393653
-0.015465438
-0.016603605
-0.017812033
-0.019094253
-0.020454034
-0.021895032
-0.023420858
-0.025035054
-0.026740967
-0.028541771
-0.030440317
-0.032439126
-0.034540236
-0.036745144
-0.039054688
-0.041468883
-0.04398688
-0.046606711
-0.049325259
-0.052138008
-0.055038971
-0.058020484
-0.061073103
-0.06418546
-0.067344164
-0.070533722
-0.073736501
-0.076932725
-0.080100525
-0.083216057
-0.086253651
-0.089186066
-0.091984753
-0.094620245
-0.097062511
-0.099281469
-0.10124738
-0.10293144
-0.10430616
-0.105346
-0.10602755
-0.10633037
-0.10623659
-0.10573253
-0.10480639
-0.10345272
-0.10167065
-0.09946018
-0.096826151
-0.093776778
-0.090324302
-0.086484584
-0.082277451
-0.077726001
-0.072857445
-0.067701466
-0.062291939
-0.056663934
-0.050856489
-0.044908127
-0.038860652
-0.032753453
-0.026628051
-0.020521834
-0.014472907
-0.0085140716
-0.0026774712
0.003010532
0.0085252709
0.013847684
0.018960969
0.023853279
0.028515121
0.032941038
0.037127689
0.041074771
0.04478366
0.048257834
0.051501948
0.054521948
0.057324505
0.059916894
0.0623068
0.064501889
0.066510164
0.06833887
0.06999603
0.071487588
0.072821904
0.074002189
0.075038754
0.075928866
0.076689586
0.077304074
0.077809213
0.078152547
0.078425699
0.078485489
-0.0015758519
2.2653612e-05
-0.0015768698
-0.0010369529
-0.0019452633
-0.0018955947
-0.0025064401
-0.0026943985
-0.0031896998
-0.0035055379
-0.0039717826
-0.0043705562
-0.0048514647
-0.005317823
-0.0058381998
-0.0063705485
-0.0069471089
-0.0075505203
-0.0081968286
-0.0088798939
-0.009608631
-0.010382076
-0.011206086
-0.012082158
-0.013014916
-0.014007089
-0.015062865
-0.016185634
-0.017379465
-0.018648117
-0.019995609
-0.021425883
-0.022942867
-0.02455045
-0.026252363
-0.028052196
-0.029953248
-0.031958518
-0.03407055
-0.03629137
-0.038622358
-0.041064082
-0.043616244
-0.046277414
-0.049044981
-0.051914896
-0.054881572
-0.057937667
-0.061073952
-0.064279149
-0.06753981
-0.070840219
-0.074162332
-0.077485767
-0.080787831
-0.08404365
-0.087226312
-0.090307134
-0.093255948
-0.09604152
-0.098631928
-0.10099513
-0.10309941
-0.10491399
-0.10640947
-0.10755853
-0.10833613
-0.10872036
-0.10869211
-0.1082366
-0.10734132
-0.10600008
-0.10421176
-0.10197643
-0.099298666
-0.09618688
-0.092653509
-0.088714876
-0.084391473
-0.079707219
-0.074690583
-0.069372528
-0.063788906
-0.057976559
-0.051977215
-0.045831569
-0.039584608
-0.033278045
-0.026956669
-0.020660018
-0.014429081
-0.0082983241
-0.0023020339
0.003532441
0.0091791986
0.01461891
0.019834414
0.024814225
0.029549194
0.034034693
0.038268202
0.042250519
0.045984098
0.049473626
0.052724912
0.055745089
0.058541933
0.061123799
0.063499357
0.065677202
0.067666166
0.069474263
0.071110174
0.07258047
0.07389399
0.075054476
0.076072508
0.076945884
0.07769163
0.078293636
0.07878817
0.079124199
0.079391397
0.079449898
-0.0015397776
3.2623636e-05
-0.001526478
-0.00099098929
-0.0018732275
-0.001817892
-0.002409001
-0.0025864261
-0.0030646086
-0.0033673826
-0.0038173787
-0.0042015838
-0.0046662818
-0.0051170134
-0.0056208254
-0.0061366954
-0.006696175
-0.0072823869
-0.0079110815
-0.0085763678
-0.0092870597
-0.01004235
-0.010848104
-0.011705953
-0.012620601
-0.013594927
-0.014633259
-0.015739175
-0.016916944
-0.018170565
-0.019504322
-0.020922459
-0.02242924
-0.024028928
-0.025725665
-0.027523488
-0.029426181
-0.031437265
-0.033559834
-0.035796494
-0.038149225
-0.040619207
-0.043206759
-0.045911053
-0.048730059
-0.05166026
-0.054696539
-0.057831937
-0.061057498
-0.064362081
-0.067732217
-0.07115198
-0.074602915
-0.078064003
-0.081511681
-0.084919964
-0.088260584
-0.091503288
-0.094616118
-0.097565888
-0.10031858
-0.10283998
-0.10509615
-0.10705413
-0.10868241
-0.10995169
-0.1108351
-0.11130914
-0.11135334
-0.11095172
-0.11009102
-0.10876424
-0.10697004
-0.10470854
-0.10198404
-0.098805166
-0.095184529
-0.091138914
-0.086689487
-0.081860988
-0.076683234
-0.071188497
-0.065414825
-0.059400925
-0.053191592
-0.04682985
-0.04036437
-0.033839387
-0.027303494
-0.020798557
-0.01436892
-0.0080508261
-0.0018810324
0.0041121075
0.0099012938
0.015467002
0.020791691
0.025864378
0.030676337
0.035223941
0.039505624
0.043523466
0.047281147
0.050784725
0.054041302
0.057059333
0.059847819
0.062416299
0.064774519
0.066932083
0.068898715
0.070683257
0.072295089
0.07374145
0.075031681
0.076170086
0.077167524
0.07802235
0.078751539
0.079339767
0.079822612
0.080150598
0.080411247
0.08046833
-0.0015016476
4.3057923e-05
-0.001473322
-0.00094260701
-0.0017973024
-0.0017360533
-0.0023063232
-0.0024726721
-0.0029327807
-0.0032217828
-0.0036546141
-0.0040234325
-0.0044709854
-0.0049051812
-0.0053914428
-0.0058898377
-0.0064311798
-0.0069991052
-0.0076090452
-0.0082553707
-0.0089467836
-0.0096826406
-0.010468809
-0.011307061
-0.012202178
-0.013157195
-0.014176585
-0.01526412
-0.016424276
-0.017661305
-0.018979768
-0.020384229
-0.021879307
-0.023469664
-0.025159878
-0.02695447
-0.028857745
-0.030873788
-0.033006293