/*--------------------------------*- C++ -*----------------------------------*\
| =========                 |                                                 |
| \\      /  F ield         | foam-extend: Open Source CFD                    |
|  \\    /   O peration     | Version:     4.1                                |
|   \\  /    A nd           | Web:         http://www.foam-extend.org         |
|    \\/     M anipulation  |                                                 |
\*---------------------------------------------------------------------------*/
FoamFile
{
    version     2.0;
    format      ascii;
    class       surfaceScalarField;
    location    "1.5";
    object      phi;
}
// * * * * * * * * * * * * * * * * * * * * * * * * * * * * * * * * * * * * * //

dimensions      [0 3 -1 0 0 0 0];

internalField   nonuniform List<scalar> 
32976
(
-0.0016270412
1.1256927e-06
-0.0016281989
1.1576561e-06
-0.0016293842
1.1852768e-06
-0.0016306048
1.220635e-06
-0.00163186
1.2551884e-06
-0.0016331547
1.2947012e-06
-0.0016344901
1.3353599e-06
-0.0016358699
1.3798081e-06
-0.0016372962
1.4263359e-06
-0.0016387724
1.4761775e-06
-0.0016403009
1.528568e-06
-0.001641885
1.5841003e-06
-0.0016435275
1.64243e-06
-0.0016452313
1.7038542e-06
-0.0016469995
1.7682102e-06
-0.0016488352
1.8356539e-06
-0.0016507413
1.9060942e-06
-0.0016527209
1.9796129e-06
-0.001654777
2.0561367e-06
-0.0016569127
2.1356994e-06
-0.001659131
2.2182154e-06
-0.0016614346
2.3036752e-06
-0.0016638266
2.3919591e-06
-0.0016663096
2.4830086e-06
-0.0016688862
2.576651e-06
-0.001671559
2.6727674e-06
-0.0016743301
2.7711161e-06
-0.0016772016
2.8715064e-06
-0.0016801753
2.973616e-06
-0.0016832524
3.0771762e-06
-0.0016864342
3.18178e-06
-0.0016897213
3.2870686e-06
-0.0016931139
3.3926111e-06
-0.0016966118
3.4979007e-06
-0.0017002143
3.6025011e-06
-0.0017039201
3.705839e-06
-0.0017077276
3.8074412e-06
-0.0017116343
3.9066998e-06
-0.0017156374
4.0031201e-06
-0.0017197335
4.096069e-06
-0.0017239185
4.1850302e-06
-0.0017281878
4.2693385e-06
-0.0017325362
4.3484048e-06
-0.0017369578
4.4215317e-06
-0.0017414457
4.4879817e-06
-0.0017459927
4.5469315e-06
-0.0017505901
4.5974527e-06
-0.0017552286
4.6385015e-06
-0.0017598975
4.6688833e-06
-0.0017645848
4.6872604e-06
-0.0017692769
4.6921401e-06
-0.0017739588
4.6818839e-06
-0.0017786135
4.6547244e-06
-0.0017832223
4.6088066e-06
-0.0017877645
4.5422132e-06
-0.0017922176
4.453039e-06
-0.001796557
4.3394463e-06
-0.0018007568
4.1997387e-06
-0.0018047892
4.0324328e-06
-0.0018086255
3.8363402e-06
-0.0018122362
3.6106173e-06
-0.001815591
3.3548411e-06
-0.00181866
3.0690458e-06
-0.0018214138
2.7537555e-06
-0.0018238238
2.4099979e-06
-0.0018258631
2.0393024e-06
-0.0018275068
1.6436828e-06
-0.0018287324
1.2256018e-06
-0.0018295203
7.8792452e-07
-0.0018298542
3.3387902e-07
-0.0018297212
-1.3303734e-07
-0.0018291121
-6.0905253e-07
-0.0018280218
-1.0902906e-06
-0.001826449
-1.5728243e-06
-0.0018243963
-2.0526417e-06
-0.0018218706
-2.525787e-06
-0.0018188822
-2.9883721e-06
-0.0018154455
-3.4366512e-06
-0.0018115785
-3.867061e-06
-0.0018073022
-4.2762568e-06
-0.0018026411
-4.6611646e-06
-0.001797622
-5.0190108e-06
-0.0017922747
-5.3473514e-06
-0.0017866306
-5.6441091e-06
-0.001780723
-5.9075854e-06
-0.0017745865
-6.1364911e-06
-0.0017682566
-6.3299443e-06
-0.0017617691
-6.4874877e-06
-0.00175516
-6.6090709e-06
-0.001748465
-6.6950507e-06
-0.0017417188
-6.7461686e-06
-0.0017349553
-6.7635111e-06
-0.0017282068
-6.748486e-06
-0.001721504
-6.7027831e-06
-0.0017148757
-6.6283173e-06
-0.0017083485
-6.5271936e-06
-0.0017019468
-6.401643e-06
-0.0016956928
-6.2539983e-06
-0.0016896062
-6.0866104e-06
-0.0016837044
-5.9018406e-06
-0.0016780024
-5.7019999e-06
-0.0016725131
-5.4893238e-06
-0.0016672471
-5.2659357e-06
-0.0016622133
-5.0338384e-06
-0.0016574184
-4.7948701e-06
-0.0016528677
-4.5507167e-06
-0.0016485648
-4.3028894e-06
-0.0016445121
-4.0527252e-06
-0.0016407107
-3.8013823e-06
-0.0016371609
-3.5498528e-06
-0.0016338619
-3.2989499e-06
-0.0016308126
-3.0493333e-06
-0.0016280111
-2.8015071e-06
-0.0016254552
-2.5558361e-06
-0.0016231427
-2.3125485e-06
-0.0016210709
-2.071764e-06
-0.0016192374
-1.8334767e-06
-0.0016176398
-1.5976072e-06
-0.0016162759
-1.3639613e-06
-0.0016151436
-1.1323185e-06
-0.0016142412
-9.0232186e-07
-0.0016135676
-6.73683e-07
-0.0016131217
-4.4588357e-07
-2.1867471e-07
-0.0016270238
2.2500279e-06
-0.0016281803
2.3141313e-06
-0.0016293643
2.3693334e-06
-0.0016305838
2.440143e-06
-0.0016318378
2.5092018e-06
-0.0016331314
2.5882634e-06
-0.0016344656
2.6695463e-06
-0.0016358442
2.7584471e-06
-0.0016372694
2.8514727e-06
-0.0016387443
2.9511426e-06
-0.0016402716
3.0558937e-06
-0.0016418545
3.166936e-06
-0.0016434956
3.2835666e-06
-0.0016451982
3.4063914e-06
-0.001646965
3.5350802e-06
-0.0016487993
3.6699508e-06
-0.0016507041
3.81082e-06
-0.0016526823
3.9578554e-06
-0.0016547371
4.110911e-06
-0.0016568714
4.2700572e-06
-0.0016590883
4.435124e-06
-0.0016613908
4.6060949e-06
-0.0016637815
4.782732e-06
-0.0016662634
4.9649202e-06
-0.0016688391
5.152316e-06
-0.001671511
5.3446832e-06
-0.0016742814
5.5415403e-06
-0.0016771524
5.742508e-06
-0.0016801258
5.9469436e-06
-0.0016832029
6.1543114e-06
-0.0016863849
6.3637999e-06
-0.0016896726
6.5746935e-06
-0.0016930661
6.7861322e-06
-0.0016965653
6.9971049e-06
-0.0017001695
7.2067402e-06
-0.0017038776
7.4138935e-06
-0.0017076878
7.6176191e-06
-0.0017115978
7.816702e-06
-0.0017156048
8.0101526e-06
-0.0017197054
8.1967038e-06
-0.0017238957
8.375321e-06
-0.001728171
8.5446707e-06
-0.0017325262
8.7035703e-06
-0.0017369553
8.8506192e-06
-0.0017414516
8.9843355e-06
-0.0017460078
9.1030638e-06
-0.0017506153
9.2049373e-06
-0.0017552646
9.2878568e-06
-0.0017599452
9.3494203e-06
-0.0017646448
9.3869391e-06
-0.0017693501
9.3974134e-06
-0.0017740458
9.3775512e-06
-0.0017787149
9.3238031e-06
-0.0017833385
9.2324452e-06
-0.0017878959
9.0996292e-06
-0.0017923644
8.9215326e-06
-0.0017967194
8.6944699e-06
-0.0018009347
8.4150395e-06
-0.0018049826
8.0802685e-06
-0.001808834
7.687776e-06
-0.0018124593
7.2358733e-06
-0.0018158281
6.7237152e-06
-0.0018189105
6.1513731e-06
-0.0018216766
5.5199008e-06
-0.001824098
4.8313607e-06
-0.0018261475
4.0888206e-06
-0.0018278001
3.2963191e-06
-0.0018290333
2.4587931e-06
-0.0018298274
1.5819867e-06
-0.0018301659
6.723716e-07
-0.0018300359
-2.6303524e-07
-0.0018294282
-1.2166747e-06
-0.0018283378
-2.1807765e-06
-0.0018267631
-3.147463e-06
-0.0018247071
-4.1087005e-06
-0.0018221763
-5.0565602e-06
-0.0018191814
-5.9832504e-06
-0.0018157368
-6.8812629e-06
-0.0018118604
-7.7434548e-06
-0.0018075735
-8.5631205e-06
-0.0018029006
-9.3340965e-06
-0.0017978688
-1.005082e-05
-0.0017925078
-1.070839e-05
-0.0017868492
-1.1302639e-05
-0.0017809267
-1.1830161e-05
-0.0017747748
-1.2288371e-05
-0.0017684292
-1.2675501e-05
-0.0017619261
-1.2990637e-05
-0.0017553015
-1.323368e-05
-0.0017485912
-1.3405354e-05
-0.0017418302
-1.350715e-05
-0.0017350524
-1.3541257e-05
-0.0017282904
-1.3510506e-05
-0.0017215749
-1.3418296e-05
-0.0017149347
-1.3268478e-05
-0.0017083967
-1.306528e-05
-0.0017019851
-1.2813188e-05
-0.0016957222
-1.2516885e-05
-0.0016896277
-1.2181093e-05
-0.001683719
-1.1810551e-05
-0.0016780111
-1.1409897e-05
-0.0016725168
-1.0983615e-05
-0.0016672468
-1.0535962e-05
-0.0016622097
-1.0070952e-05
-0.0016574123
-9.5922684e-06
-0.0016528597
-9.1032871e-06
-0.0016485556
-8.6070329e-06
-0.0016445021
-8.1061801e-06
-0.0016407005
-7.6030445e-06
-0.0016371507
-7.0996084e-06
-0.0016338522
-6.597495e-06
-0.0016308035
-6.0980203e-06
-0.0016280028
-5.6021881e-06
-0.0016254479
-5.1107235e-06
-0.0016231364
-4.6240775e-06
-0.0016210657
-4.1424848e-06
-0.0016192332
-3.665928e-06
-0.0016176366
-3.194244e-06
-0.0016162735
-2.7270378e-06
-0.001615142
-2.2638657e-06
-0.0016142403
-1.8040052e-06
-0.0016135671
-1.3468806e-06
-0.0016131215
-8.9144055e-07
-4.3719584e-07
-0.0016269899
3.3720018e-06
-0.0016281441
3.4682597e-06
-0.0016293258
3.5510684e-06
-0.001630543
3.657335e-06
-0.0016317947
3.7608997e-06
-0.0016330859
3.8794989e-06
-0.0016344178
4.0013861e-06
-0.001635794
4.1347105e-06
-0.0016372168
4.2741964e-06
-0.0016386893
4.4236505e-06
-0.0016402141
4.5807126e-06
-0.0016417944
4.7472125e-06
-0.0016434329
4.922091e-06
-0.0016451328
5.1062661e-06
-0.0016468969
5.299243e-06
-0.0016487285
5.5015054e-06
-0.0016506304
5.7127815e-06
-0.0016526059
5.9333284e-06
-0.0016546579
6.1629315e-06
-0.0016567896
6.4017016e-06
-0.0016590038
6.6493882e-06
-0.0016613037
6.9059716e-06
-0.0016636921
7.1710994e-06
-0.0016661718
7.4446036e-06
-0.0016687454
7.7259735e-06
-0.0016714156
8.0148597e-06
-0.0016741846
8.3105446e-06
-0.0016770546
8.612464e-06
-0.0016800273
8.9196589e-06
-0.0016831043
9.231331e-06
-0.0016862868
9.5462682e-06
-0.0016895755
9.8634022e-06
-0.0016929708
1.0181448e-05
-0.0016964726
1.0498894e-05
-0.0017000803
1.0814437e-05
-0.0017037927
1.1126364e-05
-0.0017076084
1.143326e-05
-0.001711525
1.1733302e-05
-0.0017155398
1.2025006e-05
-0.0017196496
1.2306468e-05
-0.0017238504
1.2576133e-05
-0.0017281377
1.2831992e-05
-0.0017325064
1.3072261e-05
-0.0017369506
1.3294825e-05
-0.0017414637
1.3497443e-05
-0.0017460383
1.3677612e-05
-0.0017506659
1.3832505e-05
-0.0017553369
1.3958946e-05
-0.0017600408
1.4053301e-05
-0.0017647654
1.4111502e-05
-0.001769497
1.4129013e-05
-0.0017742203
1.4100859e-05
-0.0017789182
1.4021678e-05
-0.0017835716
1.3885848e-05
-0.0017881595
1.3687561e-05
-0.001792659
1.3421054e-05
-0.0017970453
1.308077e-05
-0.0018012919
1.2661585e-05
-0.0018053706
1.2159024e-05
-0.0018092524
1.1569505e-05
-0.001812907
1.0890492e-05
-0.001816304
1.0120721e-05
-0.0018194129
9.2603084e-06
-0.0018222039
8.3108518e-06
-0.001824648
7.275466e-06
-0.0018267179
6.1587789e-06
-0.0018283885
4.9668784e-06
-0.0018296369
3.7072032e-06
-0.0018304433
2.3884036e-06
-0.0018307912
1.0202222e-06
-0.0018306674
-3.8678267e-07
-0.0018300628
-1.8212507e-06
-0.0018289721
-3.2714817e-06
-0.001827394
-4.7256007e-06
-0.0018253312
-6.1715169e-06
-0.0018227905
-7.5972916e-06
-0.0018197825
-8.9911943e-06
-0.0018163219
-1.0341918e-05
-0.0018124266
-1.1638707e-05
-0.0018081183
-1.2871457e-05
-0.0018034215
-1.4030882e-05
-0.0017983637
-1.51086e-05
-0.0017929749
-1.6097221e-05
-0.001787287
-1.6990464e-05
-0.001781334
-1.7783194e-05
-0.0017751509
-1.8471516e-05
-0.0017687736
-1.9052768e-05
-0.0017622387
-1.9525581e-05
-0.0017555825
-1.9889816e-05
-0.0017488413
-2.0146576e-05
-0.0017420503
-2.0298131e-05
-0.0017352438
-2.0347797e-05
-0.0017284544
-2.0299866e-05
-0.0017217132
-2.0159486e-05
-0.0017150492
-1.9932483e-05
-0.0017084893
-1.9625255e-05
-0.0017020579
-1.9244582e-05
-0.0016957772
-1.8797542e-05
-0.001689667
-1.8291265e-05
-0.0016837447
-1.7732904e-05
-0.0016780251
-1.7129453e-05
-0.0016725211
-1.6487672e-05
-0.0016672431
-1.5813973e-05
-0.0016621996
-1.51144e-05
-0.0016573974
-1.4394491e-05
-0.0016528413
-1.3659321e-05
-0.0016485349
-1.2913433e-05
-0.0016444803
-1.2160839e-05
-0.0016406783
-1.1405011e-05
-0.001637129
-1.0648916e-05
-0.0016338315
-9.8949821e-06
-0.0016307844
-9.1451729e-06
-0.0016279856
-8.4009831e-06
-0.0016254328
-7.6634886e-06
-0.0016231235
-6.9333532e-06
-0.0016210551
-6.2109161e-06
-0.0016192249
-5.4961381e-06
-0.0016176304
-4.7887621e-06
-0.0016162692
-4.0881823e-06
-0.0016151394
-3.3937225e-06
-0.0016142391
-2.7042842e-06
-0.001613567
-2.0189968e-06
-0.0016131222
-1.3362648e-06
-6.5535366e-07
-0.0016269375
4.4904125e-06
-0.0016280881
4.618839e-06
-0.0016292663
4.7293083e-06
-0.00163048
4.8710384e-06
-0.0016317282
5.0091149e-06
-0.001633016
5.1672342e-06
-0.0016343443
5.3296974e-06
-0.001635717
5.5074019e-06
-0.0016371361
5.6932936e-06
-0.0016386049
5.8924672e-06
-0.0016401259
6.1017684e-06
-0.0016417024
6.3236499e-06
-0.001643337
6.5566997e-06
-0.0016450329
6.8021528e-06
-0.001646793
7.0593539e-06
-0.0016486204
7.3289579e-06
-0.0016505183
7.6106097e-06
-0.0016524896
7.9046618e-06
-0.0016545375
8.2108364e-06
-0.0016566651
8.5292903e-06
-0.0016588754
8.8596984e-06
-0.0016611715
9.2020432e-06
-0.0016635562
9.5558637e-06
-0.0016660326
9.9209446e-06
-0.0016686032
1.0296614e-05
-0.0016712708
1.0682414e-05
-0.0016740376
1.1077397e-05
-0.001676906
1.1480821e-05
-0.0016798777
1.1891416e-05
-0.0016829545
1.2308127e-05
-0.0016861376
1.2729348e-05
-0.0016894279
1.3153664e-05
-0.0016928258
1.3579372e-05
-0.0016963314
1.4004464e-05
-0.0016999442
1.4427213e-05
-0.0017036631
1.484534e-05
-0.0017074868
1.5256961e-05
-0.0017114132
1.5659652e-05
-0.0017154396
1.6051432e-05
-0.0017195629
1.6429759e-05
-0.0017237793
1.6792548e-05
-0.0017280844
1.7137109e-05
-0.0017324732
1.7461043e-05
-0.0017369399
1.7761505e-05
-0.0017414779
1.8035475e-05
-0.0017460799
1.8279575e-05
-0.0017507374
1.8489992e-05
-0.0017554409
1.8662438e-05
-0.0017601796
1.8792008e-05
-0.0017649413
1.8873215e-05
-0.0017697122
1.8899944e-05
-0.0017744768
1.8865492e-05
-0.0017792178
1.8762638e-05
-0.0017839158
1.8583818e-05
-0.0017885494
1.8321222e-05
-0.0017930955
1.7967107e-05
-0.0017975287
1.7514011e-05
-0.0018018222
1.695506e-05
-0.0018059474
1.6284255e-05
-0.0018098747
1.5496802e-05
-0.0018135736
1.4589312e-05
-0.0018170129
1.3560103e-05
-0.001820162
1.240935e-05
-0.0018229903
1.1139211e-05
-0.0018254687
9.7538764e-06
-0.0018275695
8.2595662e-06
-0.0018292671
6.6644532e-06
-0.0018305384
4.9785163e-06
-0.0018313634
3.2133557e-06
-0.0018317252
1.3820295e-06
-0.0018316107
-5.0131466e-07
-0.0018310104
-2.4214658e-06
-0.0018299192
-4.3627406e-06
-0.0018283356
-6.3092147e-06
-0.0018262624
-8.2446909e-06
-0.0018237065
-1.0153168e-05
-0.0018206788
-1.2018926e-05
-0.0018171939
-1.3826808e-05
-0.0018132702
-1.556239e-05
-0.0018089295
-1.7212122e-05
-0.0018041969
-1.8763544e-05
-0.0017991001
-2.0205405e-05
-0.0017936695
-2.1527785e-05
-0.0017879377
-2.2722253e-05
-0.001781939
-2.3781912e-05
-0.001775709
-2.4701537e-05
-0.0017692842
-2.5477561e-05
-0.0017627016
-2.610816e-05
-0.0017559983
-2.6593167e-05
-0.0017492107
-2.6934091e-05
-0.0017423749
-2.7134008e-05
-0.0017355252
-2.7197415e-05
-0.001728695
-2.7130112e-05
-0.0017219154
-2.6939056e-05
-0.0017152158
-2.6632111e-05
-0.0017086231
-2.6217912e-05
-0.0017021621
-2.5705595e-05
-0.001695855
-2.5104696e-05
-0.0016897214
-2.4424811e-05
-0.0016837788
-2.3675559e-05
-0.0016780419
-2.2866338e-05
-0.0016725233
-2.2006222e-05
-0.0016672335
-2.1103812e-05
-0.0016621807
-2.0167203e-05
-0.0016573714
-1.920381e-05
-0.0016528103
-1.8220417e-05
-0.0016485006
-1.7223092e-05
-0.0016444443
-1.6217187e-05
-0.001640642
-1.5207324e-05
-0.0016370934
-1.4197451e-05
-0.0016337976
-1.319079e-05
-0.0016307529
-1.2189941e-05
-0.001627957
-1.1196875e-05
-0.0016254075
-1.0213006e-05
-0.0016231016
-9.2391931e-06
-0.0016210367
-8.2758663e-06
-0.0016192099
-7.3229481e-06
-0.0016176185
-6.3800727e-06
-0.0016162603
-5.4464075e-06
-0.001615133
-4.52103e-06
-0.0016142348
-3.6024501e-06
-0.0016135643
-2.6894902e-06
-0.0016131206
-1.7799937e-06
-8.7297345e-07
-0.0016268699
5.6041259e-06
-0.0016280158
5.764741e-06
-0.0016291894
5.9028979e-06
-0.0016303985
6.0800932e-06
-0.001631642
6.252674e-06
-0.0016329251
6.4502852e-06
-0.0016342487
6.6532815e-06
-0.0016356166
6.8753065e-06
-0.0016370308
7.1075303e-06
-0.0016384947
7.3563377e-06
-0.0016400107
7.6177835e-06
-0.001641582
7.8949474e-06
-0.0016432114
8.1860692e-06
-0.0016449019
8.492706e-06
-0.0016466566
8.8140484e-06
-0.0016484786
9.150929e-06
-0.0016503709
9.5029162e-06
-0.0016523367
9.8704648e-06
-0.0016543791
1.0253241e-05
-0.0016565013
1.0651456e-05
-0.0016587063
1.1064717e-05
-0.0016609972
1.1493016e-05
-0.0016633772
1.1935792e-05
-0.001665849
1.2392788e-05
-0.0016684156
1.286318e-05
-0.0016710796
1.3346411e-05
-0.0016738435
1.384131e-05
-0.0016767096
1.4346963e-05
-0.00167968
1.4861801e-05
-0.0016827564
1.538452e-05
-0.0016859402
1.5913128e-05
-0.0016892324
1.6445873e-05
-0.0016926337
1.698064e-05
-0.0016961441
1.7514937e-05
-0.0016997635
1.8046614e-05
-0.001703491
1.8572835e-05
-0.0017073253
1.9091254e-05
-0.0017112645
1.9598844e-05
-0.0017153062
2.0093128e-05
-0.0017194474
2.057092e-05
-0.0017236844
2.1029605e-05
-0.0017280131
2.1465795e-05
-0.0017324285
2.1876461e-05
-0.001736925
2.2258007e-05
-0.0017414962
2.2606607e-05
-0.0017461346
2.2917976e-05
-0.0017508319
2.3187274e-05
-0.0017555785
2.3409058e-05
-0.0017603636
2.3577101e-05
-0.0017651748
2.3684444e-05
-0.0017699982
2.3723332e-05
-0.001774818
2.3685273e-05
-0.0017796165
2.3561128e-05
-0.001784374
2.3341328e-05
-0.0017890688
2.3016007e-05
-0.001793677
2.2575385e-05
-0.0017981731
2.2010051e-05
-0.0018025294
2.1311343e-05
-0.0018067168
2.0471709e-05
-0.0018107051
1.9485124e-05
-0.0018144632
1.8347339e-05
-0.0018179593
1.705626e-05
-0.0018211621
1.5612132e-05
-0.0018240406
1.4017699e-05
-0.001826565
1.2278265e-05
-0.0018287071
1.0401682e-05
-0.0018304409
8.3982554e-06
-0.0018317429
6.2805603e-06
-0.0018325928
4.0632028e-06
-0.0018329734
1.7626158e-06
-0.0018328713
-6.0340585e-07
-0.001832277
-3.0157384e-06
-0.0018311851
-5.4546459e-06
-0.0018295942
-7.9000845e-06
-0.0018275072
-1.0331681e-05
-0.0018249311
-1.2729301e-05
-0.0018218769
-1.5073165e-05
-0.0018183595
-1.7344193e-05
-0.0018143977
-1.9524224e-05
-0.0018100136
-2.1596192e-05
-0.0018052327
-2.3544392e-05
-0.0018000835
-2.5354643e-05
-0.0017945969
-2.7014433e-05
-0.001788806
-2.8513129e-05
-0.0017827459
-2.9842032e-05
-0.0017764528
-3.0994558e-05
-0.0017699642
-3.1966219e-05
-0.0017633176
-3.2754737e-05
-0.0017565508
-3.335993e-05
-0.0017497012
-3.3783749e-05
-0.0017428051
-3.4030124e-05
-0.0017358977
-3.4104792e-05
-0.0017290127
-3.4015135e-05
-0.0017221817
-3.3770001e-05
-0.0017154345
-3.3379376e-05
-0.0017087981
-3.2854221e-05
-0.0017022976
-3.2206116e-05
-0.0016959552
-3.144714e-05
-0.0016897906
-3.058943e-05
-0.001683821
-2.9645147e-05
-0.0016780612
-2.8626151e-05
-0.0016725235
-2.7543886e-05
-0.0016672181
-2.6409182e-05
-0.0016621531
-2.5232222e-05
-0.0016573346
-2.4022319e-05
-0.001652767
-2.2787985e-05
-0.0016484533
-2.1536816e-05
-0.001644395
-2.0275507e-05
-0.0016405925
-1.9009826e-05
-0.0016370452
-1.7744692e-05
-0.0016337519
-1.6484106e-05
-0.0016307106
-1.5231289e-05
-0.0016279188
-1.3988671e-05
-0.0016253738
-1.2757981e-05
-0.0016230727
-1.1540257e-05
-0.0016210126
-1.0335997e-05
-0.0016191905
-9.1450636e-06
-0.0016176036
-7.9669625e-06
-0.0016162494
-6.8006136e-06
-0.0016151256
-5.6448293e-06
-0.0016142303
-4.4977075e-06
-0.0016135621
-3.3577478e-06
-0.0016131199
-2.22221e-06
-1.0898442e-06
-0.001626787
6.7119584e-06
-0.0016279271
6.9047815e-06
-0.0016290948
7.0706622e-06
-0.0016302981
7.2833213e-06
-0.0016315358
7.4903965e-06
-0.001632813
7.7274623e-06
-0.0016341306
7.9709376e-06
-0.0016354925
8.2372084e-06
-0.0016369007
8.5156733e-06
-0.0016383583
8.8140095e-06
-0.001639868
9.1274846e-06
-0.0016414329
9.4598104e-06
-0.0016430557
9.8088836e-06
-0.0016447396
1.017659e-05
-0.0016464875
1.0561974e-05
-0.0016483027
1.0966052e-05
-0.0016501881
1.1388325e-05
-0.001652147
1.1829359e-05
-0.0016541825
1.2288773e-05
-0.0016562979
1.2766841e-05
-0.0016584963
1.3263111e-05
-0.0016607808
1.3777597e-05
-0.0016631547
1.4309643e-05
-0.0016656209
1.4858966e-05
-0.0016681823
1.5424596e-05
-0.0016708418
1.6005885e-05
-0.0016736019
1.6601453e-05
-0.0016764652
1.7210225e-05
-0.0016794337
1.783034e-05
-0.0016825095
1.8460259e-05
-0.0016856939
1.9097614e-05
-0.0016889884
1.9740327e-05
-0.0016923936
2.0385883e-05
-0.00169591
2.1031313e-05
-0.0016995375
2.1674056e-05
-0.0017032753
2.2310726e-05
-0.0017071226
2.2938521e-05
-0.0017110776
2.3553811e-05
-0.0017151381
2.4153626e-05
-0.0017193013
2.4734134e-05
-0.0017235639
2.5292176e-05
-0.0017279217
2.5823655e-05
-0.0017323702
2.6324895e-05
-0.0017369037
2.679152e-05
-0.0017415159
2.7218863e-05
-0.0017461996
2.7601694e-05
-0.0017509465
2.7934097e-05
-0.0017557468
2.8209417e-05
-0.0017605898
2.8420044e-05
-0.0017654628
2.8557476e-05
-0.0017703517
2.8612246e-05
-0.0017752404
2.8573998e-05
-0.0017801109
2.8431594e-05
-0.001784943
2.8173387e-05
-0.0017897143
2.7787377e-05
-0.0017944006
2.7261683e-05
-0.0017989755
2.6584885e-05
-0.0018034106
2.5746481e-05
-0.0018076762
2.4737332e-05
-0.0018117413
2.3550155e-05
-0.0018155738
2.2179831e-05
-0.0018191414
2.0623858e-05
-0.0018224118
1.8882569e-05
-0.0018253534
1.6959323e-05
-0.0018279357
1.4860579e-05
-0.0018301299
1.2595873e-05
-0.0018319094
1.0177708e-05
-0.0018332501
7.6213219e-06
-0.0018341313
4.9444015e-06
-0.0018345355
2.1668317e-06
-0.0018344491
-6.898657e-07
-0.0018338623
-3.6025696e-06
-0.0018327695
-6.5474042e-06
-0.0018311695
-9.5001207e-06
-0.0018290651
-1.2436086e-05
-0.0018264634
-1.5330943e-05
-0.0018233758
-1.8160766e-05
-0.0018198175
-2.0902465e-05
-0.0018158077
-2.3534052e-05
-0.0018113691
-2.6034856e-05
-0.0018065276
-2.8385845e-05
-0.0018013124
-3.0569822e-05
-0.0017957552
-3.2571609e-05
-0.0017898901
-3.4378306e-05
-0.0017837527
-3.5979356e-05
-0.0017773805
-3.7366782e-05
-0.0017708116
-3.8535151e-05
-0.0017640846
-3.9481732e-05
-0.0017572382
-4.0206351e-05
-0.0017503105
-4.0711442e-05
-0.0017433388
-4.1001848e-05
-0.0017363589
-4.1084625e-05
-0.0017294052
-4.0968828e-05
-0.0017225099
-4.0665301e-05
-0.001715703
-4.0186261e-05
-0.0017090122
-3.9545109e-05
-0.0017024623
-3.8755977e-05
-0.0016960758
-3.7833595e-05
-0.0016898725
-3.6792744e-05
-0.0016838695
-3.5648211e-05
-0.0016780812
-3.4414402e-05
-0.0016725199
-3.3105193e-05
-0.0016671954
-3.1733699e-05
-0.0016621154
-3.0312231e-05
-0.0016572857
-2.8852031e-05
-0.0016527103
-2.7363354e-05
-0.0016483918
-2.5855338e-05
-0.0016443313
-2.4336017e-05
-0.0016405288
-2.2812302e-05
-0.0016369834
-2.1290066e-05
-0.0016336934
-1.9774074e-05
-0.0016306566
-1.8268147e-05
-0.0016278701
-1.677515e-05
-0.001625331
-1.5297103e-05
-0.001623036
-1.3835195e-05
-0.0016209821
-1.2389966e-05
-0.001619166
-1.0961193e-05
-0.0016175847
-9.5482264e-06
-0.0016162356
-8.1497137e-06
-0.0016151162
-6.7641784e-06
-0.0016142247
-5.3892805e-06
-0.0016135592
-4.0231773e-06
-0.0016131189
-2.6625168e-06
-1.3057739e-06
-0.0016266902
7.8127647e-06
-0.0016278232
8.0378151e-06
-0.001628984
8.231441e-06
-0.0016301802
8.4795546e-06
-0.001631411
8.7211e-06
-0.0016326811
8.99757e-06
-0.0016339916
9.2814541e-06
-0.0016353462
9.5918787e-06
-0.001636747
9.9164744e-06
-0.0016381973
1.0264214e-05
-0.0016396993
1.0629581e-05
-0.0016412565
1.1016926e-05
-0.0016428714
1.1423809e-05
-0.0016445472
1.1852451e-05
-0.001646287
1.2301757e-05
-0.0016480939
1.2772939e-05
-0.001649971
1.3265437e-05
-0.0016519216
1.377994e-05
-0.0016539489
1.4316029e-05
-0.0016560561
1.4874052e-05
-0.0016582465
1.5453511e-05
-0.0016605233
1.6054449e-05
-0.0016628898
1.6676131e-05
-0.0016653491
1.7318256e-05
-0.0016679042
1.7979722e-05
-0.0016705582
1.8659804e-05
-0.0016733136
1.9356924e-05
-0.0016761733
2.0069859e-05
-0.0016791394
2.0796472e-05
-0.0016822141
2.1534999e-05
-0.0016853992
2.2282713e-05
-0.0016886961
2.3037222e-05
-0.0016921059
2.3795626e-05
-0.001695629
2.4554487e-05
-0.0016992658
2.5310851e-05
-0.0017030159
2.6060785e-05
-0.0017068784
2.680104e-05
-0.001710852
2.752739e-05
-0.0017149347
2.823637e-05
-0.0017191241
2.8923497e-05
-0.001723417
2.958506e-05
-0.0017278096
3.0216236e-05
-0.0017322974
3.0812678e-05
-0.001736875
3.13692e-05
-0.0017415364
3.1880256e-05
-0.0017462743
3.2339619e-05
-0.0017510805
3.2740241e-05
-0.0017559453
3.3074186e-05
-0.0017608576
3.3332388e-05
-0.0017658048
3.3504717e-05
-0.0017707725
3.3579906e-05
-0.0017757441
3.354564e-05
-0.0017807012
3.3388691e-05
-0.0017856231
3.3095235e-05
-0.0017904868
3.2651052e-05
-0.0017952672
3.2042074e-05
-0.0017999371
3.12548e-05
-0.0018044674
3.027683e-05
-0.0018088275
2.9097385e-05
-0.0018129852
2.7707898e-05
-0.0018169078
2.6102363e-05
-0.0018205618
2.4277875e-05
-0.0018239141
2.2234875e-05
-0.0018269321
1.9977375e-05
-0.0018295846
1.751304e-05
-0.0018318419
1.4853154e-05
-0.0018336767
1.2012495e-05
-0.0018350644
9.0090428e-06
-0.0018359836
5.8636594e-06
-0.0018364166
2.5997736e-06
-0.0018363492
-7.5727101e-07
-0.0018357715
-4.1802566e-06
-0.0018346778
-7.6410619e-06
-0.0018330668
-1.1111129e-05
-0.0018309414
-1.4561461e-05
-0.001828309
-1.7963371e-05
-0.0018251811
-2.1288685e-05
-0.0018215734
-2.4510189e-05
-0.0018175055
-2.7601966e-05
-0.0018130007
-3.0539628e-05
-0.0018080858
-3.3300711e-05
-0.0018027907
-3.5864902e-05
-0.0017971481
-3.8214263e-05
-0.0017911928
-4.0333545e-05
-0.0017849619
-4.2210267e-05
-0.0017784937
-4.383501e-05
-0.0017718275
-4.520137e-05
-0.0017650031
-4.6306168e-05
-0.0017580601
-4.7149256e-05
-0.001751038
-4.7733605e-05
-0.0017439748
-4.8065045e-05
-0.0017369074
-4.8152052e-05
-0.0017298707
-4.8005463e-05
-0.0017228978
-4.763825e-05
-0.001716019
-4.7064995e-05
-0.0017092625
-4.6301677e-05
-0.0017026533
-4.5365118e-05
-0.0016962141
-4.4272834e-05
-0.0016899645
-4.3042364e-05
-0.0016839214
-4.1691237e-05
-0.0016780994
-4.0236494e-05
-0.00167251
-3.8694529e-05
-0.0016671629
-3.7080803e-05
-0.0016620653
-3.5409805e-05
-0.0016572226
-3.3694741e-05
-0.0016526384
-3.1947629e-05
-0.0016483145
-3.0179159e-05
-0.0016442519
-2.8398703e-05
-0.0016404499
-2.6614304e-05
-0.0016369071
-2.4832775e-05
-0.0016336216
-2.3059622e-05
-0.0016305905
-2.129924e-05
-0.0016278108
-1.9554898e-05
-0.001625279
-1.7828879e-05
-0.0016229917
-1.6122489e-05
-0.0016209454
-1.4436277e-05
-0.0016191367
-1.2769904e-05
-0.0016175624
-1.1122535e-05
-0.0016162196
-9.4925109e-06
-0.0016151057
-7.8780401e-06
-0.0016142187
-6.2763131e-06
-0.0016135567
-4.6851217e-06
-0.0016131188
-3.100469e-06
-1.5205391e-06
-0.0016265769
8.9053718e-06
-0.0016277017
9.1626669e-06
-0.0016288544
9.3840601e-06
-0.0016300424
9.6676131e-06
-0.0016312649
9.9435972e-06
-0.0016325268
1.025941e-05
-0.0016338289
1.0583619e-05
-0.0016351751
1.0938089e-05
-0.0016365673
1.1308686e-05
-0.0016380088
1.1705683e-05
-0.001639502
1.2122784e-05
-0.0016410501
1.2564984e-05
-0.0016426558
1.3029512e-05
-0.0016443223
1.3518935e-05
-0.0016460525
1.4032024e-05
-0.0016478498
1.4570199e-05
-0.0016497172
1.513285e-05
-0.0016516581
1.5720797e-05
-0.0016536756
1.6333597e-05
-0.0016557733
1.6971685e-05
-0.0016579543
1.7634527e-05
-0.001660222
1.832221e-05
-0.0016625798
1.9033935e-05
-0.001665031
1.9769395e-05
-0.0016675786
2.0527371e-05
-0.0016702259
2.1307077e-05
-0.0016729757
2.2106751e-05
-0.0016758309
2.292504e-05
-0.001678794
2.3759545e-05
-0.0016818673
2.4608295e-05
-0.0016850528
2.5468221e-05
-0.0016883522
2.6336632e-05
-0.0016917668
2.7210258e-05
-0.0016952976
2.8085213e-05
-0.0016989449
2.8958154e-05
-0.0017027087
2.9824622e-05
-0.0017065886
3.0680924e-05
-0.0017105834
3.1522246e-05
-0.0017146917
3.2344627e-05
-0.0017189111
3.314293e-05
-0.0017232389
3.3912881e-05
-0.0017276716
3.4648915e-05
-0.0017322049
3.5345984e-05
-0.0017368338
3.5998058e-05
-0.0017415522
3.6598667e-05
-0.0017463531
3.7140529e-05
-0.0017512283
3.7615396e-05
-0.0017561681
3.8013975e-05
-0.0017611613
3.8325653e-05
-0.0017661952
3.8538574e-05
-0.0017712548
3.8639568e-05
-0.0017763234
3.861425e-05
-0.0017813819
3.8447186e-05
-0.001786409
3.8122269e-05
-0.0017913809
3.7622947e-05
-0.0017962717
3.6932871e-05
-0.0018010532
3.6036365e-05
-0.0018056955
3.4919057e-05
-0.0018101665
3.3568473e-05
-0.0018144334
3.1974723e-05
-0.0018184619
3.0130896e-05
-0.0018222177
2.8033685e-05
-0.0018256665
2.5683663e-05
-0.0018287747
2.3085537e-05
-0.0018315099
2.0248237e-05
-0.0018338416
1.7184875e-05
-0.0018357417
1.3912587e-05
-0.0018371848
1.0452202e-05
-0.001838149
6.8278622e-06
-0.0018386159
3.0666536e-06
-0.001838571
-8.0214185e-07
-0.0018380042
-4.7470929e-06
-0.0018369096
-8.7357083e-06
-0.0018352857
-1.2734997e-05
-0.0018331357
-1.671148e-05
-0.001830467
-2.0632015e-05
-0.0018272917
-2.4464053e-05
-0.0018236257
-2.8176136e-05
-0.0018194894
-3.1738285e-05
-0.0018149068
-3.5122273e-05
-0.0018099054
-3.8302072e-05
-0.0018045162
-4.1254139e-05
-0.0017987728
-4.3957659e-05
-0.0017927114
-4.6394939e-05
-0.0017863701
-4.8551486e-05
-0.0017797888
-5.0416389e-05
-0.0017730079
-5.1982233e-05
-0.0017660687
-5.3245394e-05
-0.0017590122
-5.4205776e-05
-0.0017518788
-5.4866954e-05
-0.001744708
-5.5235829e-05
-0.0017375377
-5.5322419e-05
-0.0017304036
-5.5139478e-05
-0.0017233396
-5.4702263e-05
-0.0017163768
-5.4027879e-05
-0.0017095434
-5.3135056e-05
-0.001702865
-5.2043468e-05
-0.0016963643
-5.0773571e-05
-0.0016900608
-4.9345811e-05
-0.0016839715
-4.7780587e-05
-0.0016781103
-4.6097689e-05
-0.0016724887
-4.431612e-05
-0.0016671157
-4.2453762e-05
-0.0016619982
-4.052734e-05
-0.0016571409
-3.855206e-05
-0.0016525468
-3.6541732e-05
-0.0016482173
-3.4508601e-05
-0.0016441527
-3.246338e-05
-0.0016403517
-3.0415227e-05
-0.0016368126
-2.8371875e-05
-0.0016335327
-2.6339544e-05
-0.0016305088
-2.432317e-05
-0.0016277373
-2.2326394e-05
-0.0016252145
-2.0351721e-05
-0.0016229364
-1.8400538e-05
-0.0016208993
-1.6473366e-05
-0.0016190995
-1.456971e-05
-0.0016175335
-1.2688513e-05
-0.0016161983
-1.0827774e-05
-0.001615091
-8.985353e-06
-0.0016142093
-7.1579346e-06
-0.0016135515
-5.3429178e-06
-0.0016131164
-3.5356222e-06
-1.733924e-06
-0.0016264502
9.9886329e-06
-0.0016275657
1.0278189e-05
-0.001628709
1.0527361e-05
-0.0016298877
1.084633e-05
-0.0016311009
1.1156707e-05
-0.0016323532
1.1511787e-05
-0.0016336458
1.1876219e-05
-0.0016349823
1.2274608e-05
-0.0016363647
1.2691058e-05
-0.0016377962
1.3137144e-05
-0.0016392792
1.3605797e-05
-0.0016408169
1.4102665e-05
-0.001642412
1.4624649e-05
-0.0016440677
1.5174673e-05
-0.0016457871
1.5751387e-05
-0.0016475733
1.6356424e-05
-0.0016494296
1.6989137e-05
-0.0016513593
1.7650492e-05
-0.0016533658
1.8340035e-05
-0.0016554524
1.9058297e-05
-0.0016576226
1.9804727e-05
-0.0016598798
2.0579472e-05
-0.0016622276
2.1381681e-05
-0.0016646692
2.2211058e-05
-0.0016672082
2.3066287e-05
-0.0016698476
2.3946536e-05
-0.0016725907
2.4849879e-05
-0.0016754406
2.577485e-05
-0.0016783998
2.6718808e-05
-0.0016814711
2.7679596e-05
-0.0016846567
2.865382e-05
-0.0016879586
2.9638511e-05
-0.0016913784
3.0630049e-05
-0.0016949173
3.1624114e-05
-0.0016985761
3.2616996e-05
-0.0017023552
3.3603717e-05
-0.0017062545
3.4580157e-05
-0.0017102731
3.5540916e-05
-0.00171441
3.6481545e-05
-0.0017186634
3.7396243e-05
-0.0017230306
3.8280164e-05
-0.0017275087
3.9126981e-05
-0.0017320936
3.9930918e-05
-0.0017367806
4.0685057e-05
-0.0017415639
4.1381952e-05
-0.0017464366