/*--------------------------------*- C++ -*----------------------------------*\
| =========                 |                                                 |
| \\      /  F ield         | foam-extend: Open Source CFD                    |
|  \\    /   O peration     | Version:     4.1                                |
|   \\  /    A nd           | Web:         http://www.foam-extend.org         |
|    \\/     M anipulation  |                                                 |
\*---------------------------------------------------------------------------*/
FoamFile
{
    version     2.0;
    format      ascii;
    class       volVectorField;
    location    "1.5";
    object      U;
}
// * * * * * * * * * * * * * * * * * * * * * * * * * * * * * * * * * * * * * //

dimensions      [0 1 -1 0 0 0 0];

internalField   nonuniform List<vector> 
16796
(
(1.0081237 -0.00023277169 0)
(1.0093143 -0.00023935309 0)
(1.0097154 -0.00024506736 0)
(1.010679 -0.00025236291 0)
(1.0112996 -0.00025951309 0)
(1.012188 -0.00026767531 0)
(1.0129368 -0.00027608595 0)
(1.0138225 -0.00028527241 0)
(1.0146622 -0.00029489564 0)
(1.0155815 -0.00030519925 0)
(1.0164991 -0.00031603454 0)
(1.0174726 -0.00032751586 0)
(1.0184663 -0.00033957934 0)
(1.0195072 -0.00035227944 0)
(1.0205804 -0.00036558916 0)
(1.0216989 -0.00037953406 0)
(1.0228572 -0.00039410187 0)
(1.0240621 -0.00040930273 0)
(1.0253122 -0.00042512829 0)
(1.0266115 -0.00044157842 0)
(1.0279606 -0.00045864261 0)
(1.0293621 -0.00047631138 0)
(1.0308172 -0.00049456767 0)
(1.0323281 -0.00051339127 0)
(1.0338961 -0.00053275479 0)
(1.0355231 -0.0005526249 0)
(1.0372103 -0.00057296053 0)
(1.0389593 -0.00059371285 0)
(1.040771 -0.00061482478 0)
(1.0426466 -0.00063623062 0)
(1.0445867 -0.00065785644 0)
(1.046592 -0.00067961999 0)
(1.0486627 -0.00070143171 0)
(1.0507988 -0.00072319535 0)
(1.0530001 -0.00074480867 0)
(1.0552659 -0.00076616509 0)
(1.0575954 -0.00078715405 0)
(1.0599871 -0.00080766252 0)
(1.0624397 -0.00082757487 0)
(1.064951 -0.00084677358 0)
(1.0675188 -0.00086513799 0)
(1.0701404 -0.00088254357 0)
(1.0728128 -0.00089885928 0)
(1.0755325 -0.00091394502 0)
(1.0782955 -0.00092764778 0)
(1.0810976 -0.00093979759 0)
(1.0839337 -0.00095020324 0)
(1.0867984 -0.00095864815 0)
(1.0896855 -0.00096488695 0)
(1.0925879 -0.0009686432 0)
(1.0954977 -0.00096960884 0)
(1.0984061 -0.00096744565 0)
(1.1013032 -0.00096178922 0)
(1.104178 -0.00095225552 0)
(1.1070182 -0.00093844996 0)
(1.1098103 -0.00091997899 0)
(1.1125399 -0.0008964635 0)
(1.1151913 -0.00086755361 0)
(1.1177476 -0.000832944 0)
(1.1201915 -0.00079238903 0)
(1.1225047 -0.00074571655 0)
(1.1246686 -0.00069284008 0)
(1.1266647 -0.00063376804 0)
(1.1284743 -0.00056861015 0)
(1.1300793 -0.00049758009 0)
(1.1314626 -0.00042099516 0)
(1.132608 -0.00033927169 0)
(1.1335008 -0.000252919 0)
(1.1341278 -0.00016252768 0)
(1.1344778 -6.8761479e-05 0)
(1.1345417 2.7664058e-05 0)
(1.1343128 0.0001259808 0)
(1.1337865 0.0002253913 0)
(1.1329608 0.00032508372 0)
(1.1318362 0.00042422744 0)
(1.1304155 0.0005220041 0)
(1.1287042 0.00061760901 0)
(1.1267099 0.00071026714 0)
(1.1244427 0.0007992397 0)
(1.1219147 0.00088383527 0)
(1.1191401 0.00096341638 0)
(1.1161349 0.0010374084 0)
(1.1129165 0.001105305 0)
(1.1095041 0.0011666754 0)
(1.1059178 0.0012211676 0)
(1.1021787 0.0012685139 0)
(1.0983086 0.0013085312 0)
(1.0943296 0.0013411243 0)
(1.0902641 0.0013662823 0)
(1.0861344 0.0013840791 0)
(1.0819623 0.0013946658 0)
(1.0777691 0.0013982685 0)
(1.0735755 0.0013951776 0)
(1.069401 0.0013857423 0)
(1.0652641 0.0013703584 0)
(1.0611819 0.0013494612 0)
(1.0571704 0.0013235126 0)
(1.0532439 0.0012929932 0)
(1.0494154 0.0012583908 0)
(1.0456965 0.0012201932 0)
(1.0420972 0.0011788783 0)
(1.038626 0.0011349084 0)
(1.0352904 0.0010887232 0)
(1.0320963 0.0010407354 0)
(1.0290485 0.00099132671 0)
(1.0261507 0.00094084528 0)
(1.0234056 0.00088960374 0)
(1.0208151 0.0008378786 0)
(1.0183802 0.00078590981 0)
(1.0161014 0.00073390167 0)
(1.0139784 0.00068202338 0)
(1.0120107 0.00063041118 0)
(1.0101972 0.00057916944 0)
(1.0085369 0.00052837373 0)
(1.0070279 0.00047807159 0)
(1.0056694 0.00042828729 0)
(1.0044588 0.00037902047 0)
(1.0033961 0.00033025458 0)
(1.0024773 0.00028194986 0)
(1.0017054 0.00023406061 0)
(1.0010722 0.00018651384 0)
(1.0005882 0.00013924915 0)
(1.0002342 9.2160968e-05 0)
(1.0000388 4.5196377e-05 0)
(1.0081136 -0.00069780548 0)
(1.0093029 -0.00071764673 0)
(1.0097036 -0.0007347683 0)
(1.0106663 -0.00075670045 0)
(1.0112862 -0.00077811789 0)
(1.0121739 -0.00080261667 0)
(1.0129221 -0.00082782161 0)
(1.0138069 -0.00085537534 0)
(1.0146459 -0.00088422018 0)
(1.0155645 -0.00091511493 0)
(1.0164813 -0.00094759484 0)
(1.017454 -0.00098201578 0)
(1.018447 -0.0010181778 0)
(1.0194871 -0.0010562503 0)
(1.0205594 -0.0010961485 0)
(1.0216771 -0.0011379519 0)
(1.0228345 -0.0011816224 0)
(1.0240386 -0.0012271916 0)
(1.0252878 -0.001274634 0)
(1.0265863 -0.00132395 0)
(1.0279345 -0.001375108 0)
(1.0293352 -0.00142808 0)
(1.0307896 -0.001482815 0)
(1.0322998 -0.0015392525 0)
(1.0338672 -0.0015973108 0)
(1.0354936 -0.0016568901 0)
(1.0371804 -0.0017178677 0)
(1.0389289 -0.0017800975 0)
(1.0407404 -0.0018434087 0)
(1.0426158 -0.001907605 0)
(1.044556 -0.0019724651 0)
(1.0465616 -0.0020377432 0)
(1.0486327 -0.0021031715 0)
(1.0507695 -0.0021684621 0)
(1.0529717 -0.0022333094 0)
(1.0552388 -0.0022973946 0)
(1.0575697 -0.0023603871 0)
(1.0599634 -0.0024219487 0)
(1.0624181 -0.0024817334 0)
(1.0649321 -0.0025393894 0)
(1.067503 -0.0025945551 0)
(1.0701281 -0.0026468573 0)
(1.0728044 -0.0026959029 0)
(1.0755285 -0.0027412713 0)
(1.0782965 -0.0027825028 0)
(1.081104 -0.0028190869 0)
(1.0839461 -0.0028504489 0)
(1.0868173 -0.0028759375 0)
(1.0897113 -0.0028948153 0)
(1.0926211 -0.0029062514 0)
(1.0955389 -0.0029093197 0)
(1.0984557 -0.0029030039 0)
(1.1013615 -0.0028862089 0)
(1.1042454 -0.0028577805 0)
(1.1070949 -0.002816533 0)
(1.1098966 -0.0027612833 0)
(1.1126358 -0.0026908914 0)
(1.1152968 -0.0026043049 0)
(1.1178628 -0.0025006042 0)
(1.1203161 -0.0023790484 0)
(1.1226385 -0.0022391166 0)
(1.1248114 -0.0020805445 0)
(1.1268159 -0.0019033519 0)
(1.1286335 -0.0017078627 0)
(1.130246 -0.001494713 0)
(1.131636 -0.0012648506 0)
(1.1327873 -0.0010195224 0)
(1.1336852 -0.00076025686 0)
(1.1343165 -0.00048883152 0)
(1.1346698 -0.00020725117 0)
(1.1347362 8.2308686e-05 0)
(1.1345086 0.00037750024 0)
(1.1339827 0.00067591708 0)
(1.1331564 0.00097512504 0)
(1.1320301 0.0012726382 0)
(1.1306069 0.0015660046 0)
(1.1288919 0.0018528147 0)
(1.1268932 0.0021307478 0)
(1.1246206 0.0023975929 0)
(1.1220864 0.0026512811 0)
(1.1193049 0.0028899056 0)
(1.116292 0.0031117481 0)
(1.1130654 0.0033152948 0)
(1.1096443 0.0034992583 0)
(1.1060488 0.0036625868 0)
(1.1023003 0.0038044814 0)
(1.0984205 0.003924396 0)
(1.0944318 0.0040220476 0)
(1.0903566 0.0040974055 0)
(1.0862173 0.004150693 0)
(1.0820358 0.0041823648 0)
(1.0778337 0.0041930998 0)
(1.0736314 0.0041837693 0)
(1.0694488 0.0041554212 0)
(1.0653042 0.0041092425 0)
(1.061215 0.0040465385 0)
(1.057197 0.0039686939 0)
(1.0532647 0.0038771501 0)
(1.0494311 0.0037733696 0)
(1.0457076 0.0036588146 0)
(1.0421043 0.0035349177 0)
(1.0386298 0.0034030649 0)
(1.0352914 0.0032645739 0)
(1.032095 0.0031206822 0)
(1.0290453 0.0029725334 0)
(1.0261462 0.0028211713 0)
(1.0234002 0.0026675326 0)
(1.0208091 0.0025124461 0)
(1.0183739 0.0023566306 0)
(1.016095 0.0022006982 0)
(1.0139722 0.0020451557 0)
(1.0120048 0.0018904112 0)
(1.0101918 0.0017367768 0)
(1.008532 0.0015844787 0)
(1.0070237 0.0014336586 0)
(1.0056658 0.0012843889 0)
(1.0044558 0.0011366674 0)
(1.0033938 0.00099044427 0)
(1.0024756 0.00084559866 0)
(1.0017042 0.00070199396 0)
(1.0010715 0.00055940845 0)
(1.0005878 0.00041766321 0)
(1.000234 0.00027643604 0)
(1.0000387 0.00013557419 0)
(1.0080933 -0.0011622193 0)
(1.0092801 -0.0011953601 0)
(1.0096801 -0.0012238807 0)
(1.0106409 -0.0012604745 0)
(1.0112597 -0.0012961545 0)
(1.0121457 -0.0013370035 0)
(1.0128926 -0.0013790014 0)
(1.0137759 -0.001424929 0)
(1.0146135 -0.0014729945 0)
(1.0155305 -0.001524483 0)
(1.0164458 -0.0015786071 0)
(1.0174169 -0.0016359697 0)
(1.0184083 -0.0016962326 0)
(1.0194467 -0.0017596831 0)
(1.0205174 -0.0018261786 0)
(1.0216334 -0.0018958548 0)
(1.0227891 -0.0019686481 0)
(1.0239915 -0.0020446136 0)
(1.025239 -0.0021237098 0)
(1.0265358 -0.0022059389 0)
(1.0278823 -0.0022912495 0)
(1.0292814 -0.0023795965 0)
(1.0307342 -0.0024708959 0)
(1.0322429 -0.0025650488 0)
(1.033809 -0.0026619197 0)
(1.0354343 -0.002761344 0)
(1.0371201 -0.0028631181 0)
(1.0388678 -0.002967 0)
(1.0406788 -0.0030727063 0)
(1.042554 -0.0031799109 0)
(1.0444943 -0.0032882467 0)
(1.0465003 -0.0033973049 0)
(1.0485723 -0.0035066403 0)
(1.0507105 -0.0036157743 0)
(1.0529145 -0.0037241983 0)
(1.055184 -0.0038313817 0)
(1.057518 -0.0039367736 0)
(1.0599154 -0.0040398105 0)
(1.0623746 -0.004139915 0)
(1.0648938 -0.0042364994 0)
(1.0674707 -0.0043289594 0)
(1.0701028 -0.0044166703 0)
(1.072787 -0.0044989734 0)
(1.07552 -0.0045751632 0)
(1.0782978 -0.0046444684 0)
(1.0811162 -0.0047060313 0)
(1.0839703 -0.0047588866 0)
(1.0868544 -0.0048019407 0)
(1.0897624 -0.0048339549 0)
(1.0926873 -0.0048535345 0)
(1.0956209 -0.0048591255 0)
(1.0985544 -0.0048490231 0)
(1.1014778 -0.0048213916 0)
(1.1043798 -0.0047742969 0)
(1.107248 -0.0047057533 0)
(1.1100689 -0.0046137807 0)
(1.1128275 -0.0044964723 0)
(1.1155079 -0.0043520686 0)
(1.1180932 -0.0041790343 0)
(1.1205655 -0.0039761337 0)
(1.1229065 -0.0037424997 0)
(1.1250972 -0.0034776953 0)
(1.1271188 -0.0031817594 0)
(1.1289523 -0.0028552389 0)
(1.1305795 -0.0024992026 0)
(1.131983 -0.0021152398 0)
(1.1331463 -0.001705438 0)
(1.1340545 -0.0012723537 0)
(1.1346943 -0.00081895653 0)
(1.1350544 -0.00034859162 0)
(1.1351256 0.00013511556 0)
(1.1349009 0.00062826325 0)
(1.1343759 0.0011268327 0)
(1.1335484 0.0016267469 0)
(1.132419 0.0021238501 0)
(1.1309905 0.0026140398 0)
(1.1292684 0.0030932848 0)
(1.1272606 0.0035577013 0)
(1.1249772 0.004003588 0)
(1.1224305 0.0044274806 0)
(1.1196349 0.0048261854 0)
(1.1166065 0.0051968234 0)
(1.1133632 0.0055368576 0)
(1.1099243 0.0058441304 0)
(1.1063103 0.0061168784 0)
(1.1025426 0.006353763 0)
(1.0986432 0.006553869 0)
(1.0946348 0.0067167241 0)
(1.0905399 0.0068422786 0)
(1.0863812 0.0069309101 0)
(1.0821808 0.0069833848 0)
(1.0779604 0.0070008455 0)
(1.0737407 0.0069847574 0)
(1.0695416 0.0069368824 0)
(1.0653816 0.0068592152 0)
(1.0612782 0.0067539484 0)
(1.0572473 0.0066234068 0)
(1.0533033 0.0064700094 0)
(1.0494593 0.0062962092 0)
(1.0457267 0.0061044575 0)
(1.0421156 0.0058971551 0)
(1.0386345 0.0056766227 0)
(1.0352906 0.0054450655 0)
(1.0320898 0.0052045537 0)
(1.0290367 0.0049569986 0)
(1.026135 0.0047041437 0)
(1.0233873 0.0044475528 0)
(1.0207951 0.0041886078 0)
(1.0183595 0.0039285069 0)
(1.0160807 0.0036682689 0)
(1.0139583 0.0034087365 0)
(1.0119918 0.0031505871 0)
(1.0101799 0.0028943382 0)
(1.0085213 0.0026403631 0)
(1.0070144 0.0023888946 0)
(1.0056579 0.0021400494 0)
(1.0044494 0.0018938203 0)
(1.0033887 0.0016501205 0)
(1.0024718 0.0014087445 0)
(1.0017015 0.0011694621 0)
(1.0010697 0.00093189837 0)
(1.0005868 0.00069575435 0)
(1.0002336 0.00046048526 0)
(1.0000387 0.00022583852 0)
(1.0080635 -0.0016253094 0)
(1.0092465 -0.0016717314 0)
(1.0096453 -0.0017116785 0)
(1.0106033 -0.0017629206 0)
(1.0112204 -0.0018128668 0)
(1.012104 -0.0018700476 0)
(1.0128488 -0.0019288234 0)
(1.0137298 -0.0019930974 0)
(1.0145652 -0.0020603549 0)
(1.0154799 -0.0021324009 0)
(1.016393 -0.0022081307 0)
(1.0173617 -0.0022883926 0)
(1.0183507 -0.0023727131 0)
(1.0193867 -0.0024614976 0)
(1.0204549 -0.0025545482 0)
(1.0215683 -0.0026520578 0)
(1.0227215 -0.0027539395 0)
(1.0239213 -0.0028602736 0)
(1.0251662 -0.0029710044 0)
(1.0264605 -0.0030861381 0)
(1.0278045 -0.0032056051 0)
(1.0292012 -0.003329345 0)
(1.0306517 -0.0034572431 0)
(1.0321583 -0.0035891633 0)
(1.0337224 -0.0037249188 0)
(1.0353459 -0.0038642817 0)
(1.0370302 -0.0040069699 0)
(1.0387768 -0.0041526473 0)
(1.0405869 -0.0043009203 0)
(1.0424618 -0.0044513353 0)
(1.0444021 -0.0046033814 0)
(1.0464088 -0.0047564896 0)
(1.0484821 -0.0049100397 0)
(1.0506222 -0.0050633648 0)
(1.052829 -0.0052157553 0)
(1.055102 -0.0053664711 0)
(1.0574405 -0.0055147425 0)
(1.0598434 -0.0056597817 0)
(1.0623092 -0.0058007805 0)
(1.0648362 -0.0059369152 0)
(1.0674221 -0.0060673373 0)
(1.0700645 -0.0061911684 0)
(1.0727605 -0.0063074804 0)
(1.0755066 -0.0064152781 0)
(1.0782992 -0.0065134719 0)
(1.0811338 -0.0066008493 0)
(1.0840056 -0.0066760449 0)
(1.0869091 -0.0067375118 0)
(1.089838 -0.0067834981 0)
(1.0927851 -0.0068120316 0)
(1.0957425 -0.0068209165 0)
(1.0987011 -0.0068077447 0)
(1.1016507 -0.0067699245 0)
(1.1045799 -0.0067047276 0)
(1.1074762 -0.0066093535 0)
(1.1103256 -0.006481012 0)
(1.1131133 -0.0063170173 0)
(1.1158229 -0.0061148926 0)
(1.1184372 -0.0058724778 0)
(1.1209381 -0.0055880359 0)
(1.123307 -0.0052603495 0)
(1.1255247 -0.0048888067 0)
(1.1275719 -0.0044734654 0)
(1.1294295 -0.0040150987 0)
(1.131079 -0.0035152131 0)
(1.1325027 -0.0029760474 0)
(1.133684 -0.0024005405 0)
(1.1346077 -0.0017922912 0)
(1.1352604 -0.0011554792 0)
(1.1356306 -0.00049481286 0)
(1.135709 0.00018460525 0)
(1.1354885 0.00087728723 0)
(1.1349647 0.001577578 0)
(1.1341354 0.00227974 0)
(1.133001 0.0029779334 0)
(1.1315646 0.0036663912 0)
(1.1298317 0.0043394474 0)
(1.1278102 0.0049916425 0)
(1.1255104 0.0056177728 0)
(1.1229448 0.0062129667 0)
(1.1201279 0.0067727317 0)
(1.1170763 0.0072930179 0)
(1.1138079 0.0077702553 0)
(1.1103424 0.0082014077 0)
(1.1067005 0.008583994 0)
(1.102904 0.0089161319 0)
(1.0989752 0.009196536 0)
(1.0949372 0.0094245463 0)
(1.0908129 0.009600099 0)
(1.0866251 0.0097237346 0)
(1.0823963 0.0097965414 0)
(1.0781486 0.0098201402 0)
(1.0739028 0.0097966061 0)
(1.0696791 0.0097284327 0)
(1.0654962 0.0096184411 0)
(1.0613716 0.0094697302 0)
(1.0573213 0.0092855837 0)
(1.0533599 0.0090694162 0)
(1.0495005 0.0088246877 0)
(1.0457543 0.0085548541 0)
(1.0421316 0.0082632968 0)
(1.0386406 0.0079532827 0)
(1.0352886 0.0076279135 0)
(1.0320812 0.0072900983 0)
(1.0290231 0.0069425213 0)
(1.0261177 0.0065876283 0)
(1.0233674 0.0062276111 0)
(1.0207737 0.0058644049 0)
(1.0183375 0.005499685 0)
(1.0160589 0.0051348748 0)
(1.0139373 0.0047711492 0)
(1.0119721 0.004409451 0)
(1.0101618 0.0040504983 0)
(1.0085052 0.0036948068 0)
(1.0070003 0.0033426952 0)
(1.005646 0.0029943198 0)
(1.0044396 0.0026496627 0)
(1.003381 0.0023085957 0)
(1.002466 0.0019708235 0)
(1.0016975 0.0016360173 0)
(1.0010671 0.0013036449 0)
(1.0005854 0.00097328265 0)
(1.000233 0.00064415918 0)
(1.0000386 0.00031591912 0)
(1.0080242 -0.002086771 0)
(1.0092023 -0.0021464984 0)
(1.0095996 -0.002197888 0)
(1.0105538 -0.0022637922 0)
(1.0111686 -0.002328006 0)
(1.0120489 -0.0024015192 0)
(1.0127911 -0.002477064 0)
(1.013669 -0.0025596734 0)
(1.0145015 -0.0026461051 0)
(1.0154131 -0.002738689 0)
(1.0163231 -0.0028360016 0)
(1.0172887 -0.0029391399 0)
(1.0182744 -0.0030474955 0)
(1.0193071 -0.0031615953 0)
(1.020372 -0.0032811874 0)
(1.0214821 -0.003406525 0)
(1.0226318 -0.0035375003 0)
(1.0238282 -0.0036742217 0)
(1.0250697 -0.0038166218 0)
(1.0263606 -0.0039647137 0)
(1.0277013 -0.0041184126 0)
(1.0290947 -0.0042776456 0)
(1.0305421 -0.0044422698 0)
(1.0320458 -0.004612115 0)
(1.0336072 -0.0047869455 0)
(1.0352283 -0.0049664732 0)
(1.0369106 -0.0051503401 0)
(1.0386556 -0.0053381192 0)
(1.0404646 -0.0055293091 0)
(1.0423389 -0.0057233318 0)
(1.0442793 -0.0059195356 0)
(1.0462868 -0.0061171939 0)
(1.0483617 -0.0063155143 0)
(1.0505043 -0.0065136438 0)
(1.0527147 -0.0067106744 0)
(1.0549924 -0.0069056575 0)
(1.0573368 -0.0070976062 0)
(1.0597469 -0.0072855084 0)
(1.0622214 -0.0074683244 0)
(1.0647586 -0.0076449927 0)
(1.0673565 -0.0078144175 0)
(1.0700126 -0.0079754617 0)
(1.0727241 -0.0081269217 0)
(1.0754877 -0.0082675041 0)
(1.0782997 -0.0083957906 0)
(1.0811559 -0.0085102014 0)
(1.0840514 -0.0086089563 0)
(1.0869806 -0.0086900382 0)
(1.0899372 -0.0087511633 0)
(1.0929141 -0.0087897618 0)
(1.0959031 -0.0088029742 0)
(1.0988951 -0.0087876669 0)
(1.1018797 -0.0087404702 0)
(1.1048452 -0.008657839 0)
(1.107779 -0.0085361381 0)
(1.1106668 -0.0083717482 0)
(1.1134932 -0.0081611886 0)
(1.1162419 -0.0079012528 0)
(1.118895 -0.0075891472 0)
(1.1214343 -0.0072226288 0)
(1.1238406 -0.0068001297 0)
(1.1260943 -0.0063208671 0)
(1.1281758 -0.0057849261 0)
(1.1300657 -0.0051933172 0)
(1.1317451 -0.0045479994 0)
(1.1331959 -0.0038518775 0)
(1.1344013 -0.0031087602 0)
(1.1353458 -0.0023233064 0)
(1.1360158 -0.0015009231 0)
(1.1363996 -0.00064769685 0)
(1.1364877 0.00022977953 0)
(1.136273 0.0011244199 0)
(1.1357508 0.0020289116 0)
(1.134919 0.0029358305 0)
(1.1337781 0.003837626 0)
(1.1323311 0.0047268374 0)
(1.1305837 0.0055961356 0)
(1.1285438 0.006438455 0)
(1.1262221 0.0072470599 0)
(1.1236311 0.0080156414 0)
(1.1207858 0.0087383796 0)
(1.1177029 0.0094100257 0)
(1.1144007 0.010025952 0)
(1.1108994 0.010582221 0)
(1.1072201 0.011075616 0)
(1.1033849 0.011503699 0)
(1.0994167 0.011864806 0)
(1.0953389 0.012158089 0)
(1.091175 0.012383476 0)
(1.0869481 0.01254168 0)
(1.0826814 0.012634131 0)
(1.078397 0.012662951 0)
(1.0741163 0.012630851 0)
(1.0698596 0.012541088 0)
(1.0656459 0.012397342 0)
(1.061493 0.012203654 0)
(1.0574169 0.011964298 0)
(1.0534323 0.011683719 0)
(1.0495523 0.011366414 0)
(1.0457882 0.011016871 0)
(1.04215 0.010639478 0)
(1.0386461 0.010238468 0)
(1.0352833 0.0098178562 0)
(1.0320674 0.0093814054 0)
(1.0290027 0.0089325822 0)
(1.0260925 0.0084745419 0)
(1.0233389 0.0080101078 0)
(1.0207435 0.0075417692 0)
(1.0183066 0.007071678 0)
(1.0160284 0.0066016586 0)
(1.013908 0.0061332138 0)
(1.0119447 0.005667546 0)
(1.0101367 0.0052055673 0)
(1.0084829 0.0047479288 0)
(1.0069809 0.0042950273 0)
(1.0056296 0.0038470513 0)
(1.0044262 0.0034039642 0)
(1.0033705 0.002965589 0)
(1.0024581 0.0025315325 0)
(1.0016919 0.0021013609 0)
(1.0010635 0.0016743761 0)
(1.0005834 0.0012500242 0)
(1.0002322 0.00082729769 0)
(1.0000384 0.00040573464 0)
(1.0079762 -0.0025459837 0)
(1.0091481 -0.0026190124 0)
(1.0095435 -0.0026818534 0)
(1.0104929 -0.0027624106 0)
(1.0111049 -0.0028408852 0)
(1.011981 -0.0029307093 0)
(1.0127199 -0.0030229975 0)
(1.0135939 -0.0031239061 0)
(1.0144228 -0.0032294702 0)
(1.0153305 -0.0033425428 0)
(1.0162367 -0.0034613847 0)
(1.0171982 -0.0035873425 0)
(1.01818 -0.0037196756 0)
(1.0192086 -0.0038590342 0)
(1.0202693 -0.0040051153 0)
(1.0213752 -0.0041582355 0)
(1.0225206 -0.0043182687 0)
(1.0237127 -0.004485355 0)
(1.0249499 -0.0046594185 0)
(1.0262366 -0.0048404825 0)
(1.0275731 -0.0050284503 0)
(1.0289625 -0.0052232401 0)
(1.030406 -0.0054246844 0)
(1.031906 -0.0056325823 0)
(1.0334641 -0.0058466531 0)
(1.0350822 -0.0060665519 0)
(1.0367619 -0.0062918488 0)
(1.0385048 -0.0065220296 0)
(1.0403123 -0.0067564896 0)
(1.0421858 -0.0069945303 0)
(1.0441262 -0.0072353636 0)
(1.0461345 -0.0074781095 0)
(1.0482114 -0.0077218075 0)
(1.050357 -0.0079654227 0)
(1.0525717 -0.0082078519 0)
(1.0548551 -0.0084479415 0)
(1.0572067 -0.0086844896 0)
(1.0596257 -0.0089162615 0)
(1.0621108 -0.0091419864 0)
(1.0646607 -0.0093603637 0)
(1.0672733 -0.0095700477 0)
(1.0699463 -0.0097696381 0)
(1.072677 -0.0099576485 0)
(1.0754623 -0.010132478 0)
(1.0782986 -0.010292368 0)
(1.0811815 -0.010435356 0)
(1.0841064 -0.01055923 0)
(1.0870676 -0.010661481 0)
(1.0900589 -0.010739273 0)
(1.0930729 -0.010789411 0)
(1.0961014 -0.010808347 0)
(1.0991351 -0.010792192 0)
(1.1021635 -0.010736771 0)
(1.1051745 -0.010637694 0)
(1.1081552 -0.010490463 0)
(1.111091 -0.010290605 0)
(1.1139662 -0.010033822 0)
(1.1167638 -0.0097161597 0)
(1.1194658 -0.0093341753 0)
(1.1220532 -0.0088851098 0)
(1.1245065 -0.0083670395 0)
(1.1268055 -0.0077790103 0)
(1.1289303 -0.0071211391 0)
(1.1308608 -0.0063946833 0)
(1.1325779 -0.0056020689 0)
(1.1340629 -0.0047468852 0)
(1.1352986 -0.0038338334 0)
(1.1362694 -0.0028686592 0)
(1.1369612 -0.001858027 0)
(1.1373621 -0.00080943437 0)
(1.1374624 0.00026900117 0)
(1.1372548 0.0013685582 0)
(1.1367347 0.0024802313 0)
(1.1358998 0.0035948782 0)
(1.1347506 0.0047032072 0)
(1.1332903 0.0057960335 0)
(1.1315245 0.0068643358 0)
(1.1294616 0.0078994128 0)
(1.1271123 0.0088929672 0)
(1.1244894 0.0098372242 0)
(1.1216083 0.010725008 0)
(1.118486 0.011549844 0)
(1.1151415 0.012306022 0)
(1.1115951 0.012988684 0)
(1.1078686 0.013593858 0)
(1.1039848 0.014118539 0)
(1.0999671 0.014560679 0)
(1.0958393 0.014919243 0)
(1.0916256 0.015194156 0)
(1.0873498 0.015386325 0)
(1.0830353 0.015497537 0)
(1.0787049 0.015530446 0)
(1.0743803 0.015488431 0)
(1.0700823 0.015375549 0)
(1.0658302 0.015196378 0)
(1.0616418 0.014955937 0)
(1.0575335 0.014659534 0)
(1.05352 0.014312678 0)
(1.0496143 0.013920939 0)
(1.0458279 0.013489869 0)
(1.0421705 0.013024888 0)
(1.0386504 0.01253122 0)
(1.0352745 0.012013812 0)
(1.0320481 0.011477295 0)
(1.0289753 0.010925926 0)
(1.0260592 0.010363577 0)
(1.0233018 0.0097937062 0)
(1.0207043 0.0092193564 0)
(1.0182668 0.0086431531 0)
(1.0159892 0.008067317 0)
(1.0138705 0.0074936724 0)
(1.0119097 0.0069236736 0)
(1.0101048 0.0063584177 0)
(1.0084545 0.0057986824 0)
(1.0069563 0.0052449331 0)
(1.0056088 0.0046973804 0)
(1.0044092 0.00415596 0)
(1.003357 0.0036204362 0)
(1.002448 0.0030903091 0)
(1.0016848 0.0025650309 0)
(1.001059 0.0020437288 0)
(1.0005809 0.0015257117 0)
(1.0002312 0.0010097263 0)
(1.0000383 0.00049520002 0)
(1.0079195 -0.003002579 0)
(1.009084 -0.0030889269 0)
(1.0094772 -0.0031632373 0)
(1.0104208 -0.0032584533 0)
(1.0110294 -0.0033511858 0)
(1.0119005 -0.0034573097 0)
(1.0126355 -0.0035663211 0)
(1.0135047 -0.0036855017 0)
(1.0143293 -0.0038101636 0)
(1.0152322 -0.0039436856 0)
(1.0161339 -0.0040840134 0)
(1.0170906 -0.0042327461 0)
(1.0180676 -0.0043890128 0)
(1.0190912 -0.0045535905 0)
(1.0201469 -0.0047261279 0)
(1.0212477 -0.0049070084 0)
(1.022388 -0.0050960917 0)
(1.0235749 -0.005293553 0)
(1.024807 -0.0054993123 0)
(1.0260885 -0.0057134071 0)
(1.02742 -0.0059357332 0)
(1.0288045 -0.0061662042 0)
(1.0302434 -0.006404632 0)
(1.031739 -0.0066507899 0)
(1.0332929 -0.0069043566 0)
(1.0349073 -0.0071649352 0)
(1.0365838 -0.0074320285 0)
(1.0383241 -0.0077050401 0)
(1.0401297 -0.0079832668 0)
(1.0420021 -0.0082658948 0)
(1.0439424 -0.0085520041 0)
(1.0459516 -0.0088405666 0)
(1.0480306 -0.0091304582 0)
(1.0501797 -0.0094204663 0)
(1.0523993 -0.0097092967 0)
(1.0546893 -0.009995594 0)
(1.0570494 -0.010277943 0)
(1.0594788 -0.010554888 0)
(1.0619766 -0.010824927 0)
(1.0645414 -0.011086518 0)
(1.0671715 -0.011338061 0)
(1.0698646 -0.011577886 0)
(1.0726183 -0.011804215 0)
(1.0754295 -0.012015127 0)
(1.0782946 -0.012208506 0)
(1.0812096 -0.012381991 0)
(1.0841696 -0.012532913 0)
(1.0871692 -0.01265825 0)
(1.090202 -0.012754578 0)
(1.0932605 -0.01281805 0)
(1.0963366 -0.012844394 0)
(1.0994204 -0.012828932 0)
(1.1025014 -0.012766645 0)
(1.1055673 -0.012652265 0)
(1.1086045 -0.012480398 0)
(1.1115982 -0.012245687 0)
(1.1145322 -0.011942988 0)
(1.1173889 -0.011567576 0)
(1.1201498 -0.011115346 0)
(1.1227954 -0.01058301 0)
(1.1253054 -0.0099682855 0)
(1.1276593 -0.0092700504 0)
(1.1298364 -0.0084884626 0)
(1.1318162 -0.0076250416 0)
(1.1335788 -0.0066827004 0)
(1.1351052 -0.0056657373 0)
(1.1363778 -0.0045797744 0)
(1.1373803 -0.003431674 0)
(1.1380985 -0.0022293897 0)
(1.1385202 -0.00098186184 0)
(1.1386353 0.00030123561 0)
(1.1384366 0.0016095117 0)
(1.137919 0.0029322307 0)
(1.1370804 0.0042584928 0)
(1.1359213 0.0055772253 0)
(1.1344449 0.006877477 0)
(1.1326571 0.0081484922 0)
(1.1305663 0.0093798902 0)
(1.1281835 0.01056177 0)
(1.125522 0.011684846 0)
(1.1225975 0.012740544 0)
(1.1194276 0.013721126 0)
(1.1160316 0.01461976 0)
(1.1124307 0.015430633 0)
(1.1086471 0.016148996 0)
(1.1047043 0.016771255 0)
(1.1006265 0.017294967 0)
(1.0964382 0.017718911 0)
(1.0921642 0.01804302 0)
(1.0878291 0.018268409 0)
(1.0834568 0.018397256 0)
(1.0790707 0.01843278 0)
(1.0746932 0.018379074 0)
(1.0703453 0.018241043 0)
(1.0660468 0.018024212 0)
(1.0618157 0.017734638 0)
(1.0576686 0.017378709 0)
(1.0536204 0.016963053 0)
(1.049684 0.016494358 0)
(1.0458709 0.015979284 0)
(1.0421907 0.015424319 0)
(1.0386515 0.014835711 0)
(1.0352599 0.014219363 0)
(1.0320211 0.013580792 0)
(1.0289389 0.012925064 0)
(1.0260162 0.012256775 0)
(1.0232544 0.011580022 0)
(1.0206546 0.010898401 0)
(1.0182167 0.010215009 0)
(1.0159402 0.0095324565 0)
(1.0138238 0.0088528822 0)
(1.0118661 0.0081779822 0)
(1.0100652 0.0075090283 0)
(1.0084192 0.0068469125 0)
(1.0069257 0.006192157 0)
(1.0055831 0.0055449824 0)
(1.0043882 0.0049052842 0)
(1.0033405 0.0042727565 0)
(1.0024356 0.0036467802 0)
(1.0016761 0.003026683 0)
(1.0010534 0.0024114049 0)
(1.0005778 0.0018001085 0)
(1.00023 0.0011912814 0)
(1.0000381 0.00058423374 0)
(1.0078546 -0.0034559868 0)
(1.0090104 -0.0035556537 0)
(1.0094009 -0.0036414359 0)
(1.0103378 -0.0037512991 0)
(1.0109425 -0.0038582738 0)
(1.0118078 -0.0039806686 0)
(1.0125381 -0.0041063663 0)
(1.0134017 -0.0042437714 0)
(1.0142213 -0.0043874756 0)
(1.0151187 -0.0045413839 0)
(1.016015 -0.0047031291 0)
(1.0169661 -0.0048745651 0)
(1.0179374 -0.0050546932 0)
(1.0189552 -0.0052444205 0)
(1.0200051 -0.0054433508 0)
(1.0210999 -0.0056519381 0)
(1.0222343 -0.0058700317 0)
(1.0234151 -0.0060978467 0)
(1.0246412 -0.006335303 0)
(1.0259168 -0.0065824576 0)
(1.0272424 -0.0068392032 0)
(1.0286211 -0.0071054539 0)
(1.0300545 -0.0073810068 0)
(1.0315448 -0.0076656142 0)
(1.0330939 -0.0079589198 0)
(1.0347039 -0.0082604806 0)
(1.0363765 -0.008569738 0)
(1.0381137 -0.0088860194 0)
(1.0399169 -0.0092085293 0)
(1.0417879 -0.0095363449 0)
(1.0437278 -0.009868421 0)
(1.0457379 -0.010203587 0)
(1.0478191 -0.010540563 0)
(1.0499721 -0.010877963 0)
(1.0521972 -0.011214308 0)
(1.0544947 -0.011548044 0)
(1.0568644 -0.011877549 0)
(1.0593058 -0.012201146 0)
(1.061818 -0.012517102 0)
(1.0644 -0.012823633 0)
(1.0670501 -0.013118882 0)
(1.0697665 -0.0134009 0)
(1.0725467 -0.01366761 0)
(1.0753878 -0.013916755 0)
(1.0782865 -0.014145849 0)
(1.0812386 -0.014352104 0)
(1.0842396 -0.014532374 0)
(1.0872838 -0.014683089 0)
(1.090365 -0.014800208 0)
(1.0934755 -0.014879194 0)
(1.096607 -0.014915009 0)
(1.0997495 -0.014902145 0)
(1.102892 -0.014834699 0)
(1.106022 -0.01470648 0)
(1.1091256 -0.014511156 0)
(1.1121872 -0.014242448 0)
(1.1151902 -0.013894336 0)
(1.1181164 -0.013461295 0)
(1.1209465 -0.01293853 0)
(1.1236605 -0.012322216 0)
(1.1262374 -0.011609701 0)
(1.1286559 -0.010799695 0)
(1.1308946 -0.0098924053 0)
(1.1329324 -0.008889629 0)
(1.1347487 -0.0077947886 0)
(1.136324 -0.0066129205 0)
(1.13764 -0.0053506017 0)
(1.1386801 -0.0040158504 0)
(1.1394295 -0.0026179526 0)
(1.1398757 -0.0011673358 0)
(1.1400084 0.00032472315 0)
(1.13982 0.0018461169 0)
(1.1393055 0.0033843301 0)
(1.1384626 0.0049266588 0)
(1.1372919 0.0064602043 0)
(1.1357966 0.0079722024 0)
(1.1339827 0.0094501179 0)
(1.1318591 0.010881844 0)
(1.1294369 0.01225583 0)
(1.12673 0.013561233 0)
(1.1237544 0.014788037 0)
(1.1205283 0.015927194 0)
(1.1170718 0.016970709 0)
(1.1134065 0.017911784 0)
(1.1095556 0.018744855 0)
(1.1055434 0.019465726 0)
(1.1013947 0.020071545 0)
(1.0971351 0.020560907 0)
(1.0927901 0.020933758 0)
(1.088385 0.021191452 0)
(1.0839448 0.021336585 0)
(1.0794933 0.021372991 0)
(1.0750535 0.021305521 0)
(1.0706471 0.021139991 0)
(1.0662942 0.020882931 0)
(1.0620132 0.020541496 0)
(1.0578208 0.020123217 0)
(1.053732 0.0196359 0)
(1.0497599 0.019087403 0)
(1.0459158 0.018485542 0)
(1.0422091 0.017837915 0)
(1.0386479 0.017151828 0)
(1.0352384 0.01643417 0)
(1.0319854 0.015691365 0)
(1.0288926 0.014929301 0)
(1.0259624 0.014153306 0)
(1.023196 0.01336812 0)
(1.0205939 0.012577892 0)
(1.0181558 0.011786186 0)
(1.0158807 0.010995994 0)
(1.0137673 0.010209758 0)
(1.0118136 0.0094294044 0)
(1.0100176 0.0086563662 0)
(1.008377 0.0078916362 0)
(1.0068892 0.0071357786 0)
(1.0055523 0.00638901 0)
(1.0043631 0.005651171 0)
(1.0033208 0.0049218718 0)
(1.0024209 0.0042003602 0)
(1.0016657 0.0034858271 0)
(1.0010468 0.0027770121 0)
(1.0005741 0.0020729208 0)
(1.0002285 0.0013717678 0)
(1.0000378 0.00067273996 0)
(1.0077814 -0.0039058014 0)
(1.0089273 -0.0040188006 0)
(1.0093148 -0.004116068 0)
(1.0102441 -0.0042405759 0)
(1.0108442 -0.0043617813 0)
(1.0117028 -0.0045004236 0)
(1.0124278 -0.0046427739 0)
(1.0132851 -0.0047983602 0)
(1.0140989 -0.0049610545 0)
(1.0149899 -0.0051352905 0)
(1.0158801 -0.0053183895 0)
(1.0168247 -0.0055124632 0)
(1.0177896 -0.0057163879 0)
(1.0188008 -0.0059312044 0)
(1.019844 -0.0061564751 0)
(1.020932 -0.0063927294 0)
(1.0220595 -0.0066398106 0)
(1.0232334 -0.0068979784 0)
(1.0244525 -0.0071671581 0)
(1.0257212 -0.0074474314 0)
(1.02704 -0.0077386937 0)
(1.0284122 -0.0080408656 0)
(1.0298391 -0.0083537349 0)
(1.0313234 -0.0086770399 0)
(1.0328668 -0.0090103955 0)
(1.0344716 -0.0093533193 0)
(1.0361397 -0.0097051982 0)
(1.0378731 -0.010065291 0)
(1.0396735 -0.010432716 0)
(1.0415426 -0.01080645 0)
(1.0434819 -0.011185329 0)
(1.0454927 -0.011568049 0)
(1.0475762 -0.011953178 0)
(1.0497333 -0.012339166 0)
(1.0519645 -0.012724353 0)
(1.0542702 -0.013106995 0)
(1.0566506 -0.013485262 0)
(1.0591053 -0.013857262 0)
(1.0616337 -0.01422103 0)
(1.064235 -0.014574539 0)
(1.0669079 -0.014915666 0)
(1.0696505 -0.015242182 0)
(1.0724607 -0.015551692 0)
(1.0753358 -0.015841592 0)
(1.0782726 -0.016109001 0)
(1.0812671 -0.016350685 0)
(1.0843147 -0.016562984 0)
(1.0874099 -0.01674175 0)
(1.0905463 -0.016882284 0)
(1.0937163 -0.016979314 0)
(1.0969113 -0.01702699 0)
(1.1001211 -0.017018926 0)
(1.1033343 -0.016948283 0)
(1.106538 -0.016807895 0)
(1.1097177 -0.016590451 0)
(1.1128575 -0.016288701 0)
(1.1159399 -0.015895707 0)
(1.1189462 -0.015405114 0)
(1.1218562 -0.014811414 0)
(1.1246491 -0.014110224 0)
(1.1273032 -0.013298516 0)
(1.1297963 -0.012374835 0)
(1.1321063 -0.011339447 0)
(1.1342111 -0.010194447 0)
(1.1360896 -0.0089437928 0)
(1.1377215 -0.0075932939 0)
(1.1390878 -0.0061505216 0)
(1.1401714 -0.0046246933 0)
(1.140957 -0.003026475 0)
(1.1414316 -0.0013678303 0)
(1.1415847 0.00033831115 0)
(1.1414085 0.0020780752 0)
(1.1408976 0.0038371129 0)
(1.1400499 0.0056008601 0)