/*--------------------------------*- C++ -*----------------------------------*\
| =========                 |                                                 |
| \\      /  F ield         | foam-extend: Open Source CFD                    |
|  \\    /   O peration     | Version:     4.1                                |
|   \\  /    A nd           | Web:         http://www.foam-extend.org         |
|    \\/     M anipulation  |                                                 |
\*---------------------------------------------------------------------------*/
FoamFile
{
    version     2.0;
    format      ascii;
    class       volScalarField;
    location    "0.1";
    object      p;
}
// * * * * * * * * * * * * * * * * * * * * * * * * * * * * * * * * * * * * * //

dimensions      [0 2 -2 0 0 0 0];

internalField   nonuniform List<scalar> 
16126
(
0.00077744955
0.0024317875
0.0040171354
0.0056516023
0.0072528672
0.0088769461
0.010485638
0.012104594
0.013716449
0.015332755
0.016945697
0.018560419
0.02017342
0.021786967
0.02339949
0.025011975
0.026623716
0.028235132
0.029845901
0.031456198
0.033065875
0.034675005
0.036283523
0.037891467
0.039498816
0.041105604
0.042711845
0.044317585
0.045922872
0.047527779
0.049132395
0.050736825
0.05234122
0.05394574
0.055550592
0.057156016
0.058762303
0.060369792
0.061978884
0.063590043
0.065203809
0.066820811
0.068441764
0.070067498
0.071698954
0.073337207
0.074983475
0.076639133
0.078305731
0.079985007
0.081678898
0.083389564
0.085119393
0.086871022
0.088647344
0.090451519
0.092286979
0.094157434
0.096066868
0.098019534
0.10001994
0.10207282
0.10418312
0.10635595
0.10859655
0.1109102
0.11330219
0.11577773
0.11834184
0.1209993
0.1237545
0.12661139
0.12957328
0.13264287
0.135822
0.13911168
0.14251194
0.14602188
0.14963949
0.15336195
0.15718522
0.16110492
0.16511513
0.16921176
0.17338623
0.17762504
0.18191916
0.18626072
0.19064029
0.19504861
0.19947625
0.20391434
0.20835418
0.21278798
0.21720839
0.22160923
0.22598488
0.23033118
0.23464441
0.23892281
0.24316442
0.24737042
0.25153974
0.25567779
0.25978183
0.26386543
0.26791763
0.27197582
0.27600624
0.28007696
0.28406886
0.28818621
0.29209228
0.29635083
0.30006438
0.30493975
0.30869537
0.31662503
0.32241303
0.34153811
0.35173167
0.40113068
0.39779288
0.5669169
0.00077615435
0.0024330194
0.004018584
0.0056532029
0.0072549482
0.0088790931
0.0104882
0.012107324
0.013719545
0.015336103
0.016949404
0.018564443
0.020177823
0.021791743
0.023404683
0.025017599
0.026629806
0.028241715
0.029853011
0.031463869
0.033074144
0.034683912
0.036293109
0.037901775
0.039509894
0.0411175
0.042724611
0.044331275
0.045937542
0.047543487
0.049149201
0.050754793
0.052360414
0.053966225
0.055572436
0.057179287
0.058787068
0.060396119
0.062006838
0.063619688
0.065235207
0.06685402
0.068476834
0.070104475
0.071737875
0.0733781
0.075026356
0.076684005
0.078352581
0.080033805
0.081729595
0.083442088
0.08517365
0.086926892
0.088704678
0.090510139
0.092346677
0.094217971
0.096127972
0.0980809
0.10008123
0.10213367
0.10424314
0.10641473
0.10865364
0.11096515
0.11335454
0.11582701
0.1183876
0.12104109
0.1237919
0.12664399
0.12960074
0.13266487
0.13583827
0.13912204
0.14251627
0.14602014
0.14963175
0.15334834
0.1571661
0.16108021
0.1650863
0.16917488
0.17333665
0.17756714
0.18185697
0.18619565
0.19057344
0.19498081
0.19940825
0.2038468
0.20828774
0.21272324
0.21714592
0.22154955
0.2259285
0.23027858
0.23459608
0.23887921
0.24312606
0.24733777
0.25151342
0.25565826
0.25977003
0.26386126
0.26792214
0.27198107
0.27600647
0.28007595
0.28407768
0.28819638
0.2921183
0.29636494
0.30010175
0.30490218
0.30867153
0.31628286
0.32214551
0.34011727
0.35152319
0.39161421
0.40116445
0.46164752
0.00077477908
0.0024332134
0.0040190088
0.005653846
0.0072559345
0.0088801342
0.010489496
0.012108693
0.013721112
0.015337779
0.016951254
0.01856643
0.020179981
0.021794061
0.023407182
0.025020278
0.026632682
0.028244791
0.029856303
0.031467384
0.033077894
0.034687907
0.03629736
0.037906293
0.03951469
0.041122583
0.04272999
0.044336958
0.045943537
0.047549798
0.049155833
0.050761745
0.052367684
0.053973807
0.05558032
0.057187456
0.058795503
0.060404791
0.062015711
0.063628718
0.065244339
0.066863187
0.068485958
0.070113462
0.071746618
0.073386472
0.075034213
0.076691184
0.078358898
0.080039051
0.08173354
0.083444479
0.085174209
0.086925317
0.088700646
0.090503305
0.092336679
0.094204431
0.096110502
0.098059109
0.10005473
0.10210208
0.10420611
0.10637192
0.10860477
0.11091
0.11329294
0.11575889
0.11831296
0.12096006
0.12370471
0.12655101
0.12950246
0.13256194
0.13573148
0.1390123
0.14240462
0.14590774
0.14951976
0.153238
0.15705826
0.1609762
0.16498416
0.16907737
0.17324936
0.17748918
0.18178756
0.18613491
0.19052155
0.19493791
0.19937434
0.20382177
0.20827133
0.21271507
0.2171455
0.22155631
0.22594181
0.23029778
0.23462052
0.23890828
0.24315929
0.24737481
0.25155439
0.25570354
0.2598212
0.26392054
0.26799484
0.27207349
0.27613078
0.28024154
0.28431539
0.28853978
0.29265983
0.29718971
0.30144849
0.30690279
0.31177371
0.32021694
0.32728743
0.34392485
0.35504517
0.38702579
0.40000073
0.44375731
0.00077430485
0.0024342956
0.0040204041
0.0056556806
0.0072582516
0.0088826975
0.010492504
0.01211197
0.013724801
0.015341791
0.016955676
0.018571229
0.020185213
0.021799723
0.023413316
0.025026899
0.026639825
0.028252482
0.029864576
0.031476271
0.033087433
0.034698131
0.036308311
0.037918008
0.039527209
0.04113595
0.042744246
0.044352145
0.045959698
0.047566975
0.049174066
0.050781074
0.052388145
0.053995434
0.05560314
0.057211494
0.058820774
0.060431303
0.062043463
0.063657696
0.065274516
0.066894521
0.068518387
0.070146906
0.071780971
0.073421606
0.075069969
0.076727372
0.078395296
0.080075401
0.081769546
0.083479803
0.085208474
0.086958103
0.088731492
0.090531709
0.092362102
0.0942263
0.096128214
0.09807204
0.10006224
0.10210353
0.10420087
0.10635938
0.10858437
0.11088121
0.11325533
0.11571211
0.11825678
0.12089436
0.12362952
0.12646651
0.129409
0.13246004
0.13562181
0.13889575
0.14228219
0.14578061
0.14938926
0.15310547
0.1569253
0.16084384
0.16485507
0.16895174
0.17312612
0.17737034
0.18167471
0.18602948
0.19042449
0.19484995
0.1992959
0.20375311
0.20821248
0.21266592
0.21710576
0.22152558
0.22591957
0.23028343
0.2346134
0.23890765
0.24316442
0.24738487
0.25156861
0.2557209
0.25984098
0.26394116
0.26801569
0.27209191
0.27614725
0.28025202
0.28432744
0.28854508
0.29268511
0.29721278
0.30154716
0.30697604
0.31198961
0.32004298
0.32702501
0.34128789
0.35135087
0.37409736
0.38508054
0.4033173
0.00077398428
0.0024347043
0.0040210501
0.0056565984
0.0072595207
0.0088841272
0.010494239
0.012113868
0.013726963
0.015344139
0.016958271
0.018574036
0.020188267
0.021803014
0.023416866
0.02503071
0.026643913
0.028256854
0.029869247
0.03148125
0.033092733
0.034703763
0.036314285
0.037924335
0.039533897
0.041143006
0.042751675
0.044359951
0.04596788
0.047575528
0.049182983
0.05079034
0.052397741
0.054005332
0.055613305
0.057221879
0.058831323
0.060441946
0.062054116
0.063668258
0.065284867
0.06690452
0.068527872
0.070155688
0.071788834
0.073428305
0.075075225
0.076730875
0.078396696
0.080074312
0.081765544
0.083472425
0.085197217
0.08694243
0.088710829
0.090505454
0.092329625
0.094186955
0.096081348
0.098017
0.099998391
0.10203027
0.10411764
0.1062657
0.10847983
0.11076554
0.11312836
0.11557385
0.1181074
0.12073423
0.12345922
0.12628686
0.12922102
0.13226499
0.13542119
0.13869124
0.14207566
0.14557407
0.14918477
0.1529052
0.15673123
0.16065818
0.16467931
0.16878837
0.17297735
0.17723676
0.18155703
0.18592815
0.19033985
0.19478206
0.19924459
0.20371794
0.20819273
0.21266068
0.21711389
0.22154581
0.2259505
0.2303236
0.23466133
0.23896191
0.24322376
0.24744821
0.25163541
0.25579098
0.25991549
0.26402192
0.26810749
0.27220071
0.27628522
0.28042908
0.28457234
0.28888109
0.29318109
0.29790131
0.30256797
0.30829524
0.31381911
0.32191524
0.32919322
0.34191463
0.35149039
0.36954461
0.38021292
0.39243148
0.00077422626
0.0024355053
0.00402237
0.0056582707
0.0072616944
0.0088865886
0.010497149
0.012117084
0.013730596
0.015348118
0.016962663
0.018578816
0.02019348
0.021808658
0.023422974
0.025037296
0.026651008
0.028264478
0.029877428
0.031490014
0.033102109
0.034713778
0.036324969
0.037935717
0.039546006
0.041155868
0.042765319
0.0443744
0.045983156
0.047591652
0.049199969
0.050808197
0.052416473
0.054024935
0.055633765
0.057243172
0.058853412
0.060464779
0.062077624
0.063692353
0.065309438
0.066929432
0.068552961
0.07018076
0.07181366
0.073452617
0.075098716
0.076753192
0.078417441
0.080093037
0.081781749
0.083485559
0.085206676
0.086947555
0.088710915
0.090499749
0.092317337
0.09416726
0.096053399
0.097979943
0.099951378
0.10197248
0.10404828
0.10618407
0.10838532
0.11065764
0.11300673
0.1154383
0.11795795
0.12057114
0.12328297
0.12609819
0.12902094
0.1320548
0.1352024
0.13846566
0.14184529
0.14534111
0.14895155
0.15267412
0.15650478
0.16043862
0.16446923
0.16858935
0.17279068
0.17706444
0.18140049
0.18578874
0.19021835
0.19467898
0.19915997
0.20365153
0.20814391
0.21262858
0.21709733
0.22154345
0.22596076
0.23034477
0.23469157
0.23899928
0.24326622
0.24749356
0.25168143
0.25583507
0.25995514
0.26405366
0.26812844
0.27220571
0.27627147
0.28038721
0.28450167
0.28876182
0.29301923
0.29764454
0.30223792
0.30772628
0.31305947
0.32042049
0.32710413
0.33764082
0.3457567
0.35868008
0.36673657
0.37290684
0.00077451686
0.002435876
0.0040232311
0.0056592929
0.0072631408
0.0088882196
0.010499136
0.012119283
0.013733109
0.015350869
0.016965712
0.018582128
0.020197089
0.021812555
0.023427182
0.025041815
0.026655853
0.028269658
0.029882956
0.031495899
0.033108361
0.034720408
0.036331985
0.037943123
0.039553809
0.041164069
0.042773917
0.044383389
0.045992527
0.047601389
0.049210048
0.05081859
0.052427138
0.054035821
0.055644811
0.057254299
0.058864527
0.06047577
0.062088356
0.06370267
0.065319156
0.066938339
0.068560811
0.070187272
0.071818515
0.073455452
0.075099125
0.07675072
0.078411583
0.080083235
0.081767393
0.083465983
0.085181163
0.086915338
0.088671179
0.090451639
0.092259965
0.094099718
0.095974769
0.097889317
0.099847875
0.10185527
0.10391661
0.10603729
0.1082229
0.11047924
0.11281219
0.1152277
0.11773162
0.1203297
0.12302734
0.12582964
0.12874103
0.13176544
0.13490581
0.13816434
0.14154198
0.14503876
0.1486532
0.1523829
0.15622373
0.16017082
0.16421736
0.1683562
0.17257853
0.17687487
0.18123477
0.1856477
0.19010243
0.19458821
0.19909391
0.20360936
0.2081244
0.21263018
0.21711817
0.22158144
0.22601361
0.23041011
0.23476695
0.2390823
0.24335463
0.24758528
0.25177487
0.25592898
0.26004941
0.26414864
0.26822692
0.27231059
0.2763909
0.28052652
0.28467964
0.28898567
0.29332721
0.29802778
0.30276061
0.30828734
0.31374616
0.32081989
0.32737428
0.33666935
0.34417505
0.35451869
0.36162338
0.36562913
0.00077516057
0.0024364703
0.00402459
0.0056608423
0.0072652588
0.008890605
0.010501995
0.012122458
0.013736714
0.015354831
0.016970096
0.018586906
0.020202304
0.021818203
0.023433292
0.025048397
0.026662934
0.028277253
0.02989109
0.03150459
0.033117634
0.034730282
0.036342481
0.037954262
0.039565608
0.041176544
0.042787081
0.044397252
0.046007093
0.047616656
0.04922601
0.050835229
0.05244443
0.054053728
0.05566328
0.057273266
0.058883906
0.060495454
0.062108218
0.063722551
0.065338872
0.066957668
0.068579495
0.070205012
0.071834964
0.073470216
0.075111755
0.076760709
0.078418364
0.080086178
0.0817658
0.083459092
0.085168144
0.086895297
0.088643161
0.090414633
0.092212917
0.094041537
0.095904347
0.097805543
0.099749659
0.10174157
0.10378646
0.10588983
0.10805741
0.1102952
0.11260927
0.11500585
0.11749107
0.12007101
0.12275141
0.12553775
0.12843484
0.13144699
0.13457749
0.13782891
0.14120245
0.14469842
0.14831547
0.15205134
0.15590184
0.15986201
0.16392491
0.16808291
0.17232686
0.17664717
0.18103279
0.18547283
0.1899554
0.19446929
0.19900277
0.20354523
0.20808596
0.21261575
0.21712566
0.22160849
0.22605755
0.23046809
0.23483593
0.23915908
0.24343585
0.24766741
0.25185423
0.25600144
0.26011075
0.26419352
0.26825018
0.27230439
0.27634879
0.28043474
0.28453003
0.28875049
0.2929966
0.29753704
0.30209884
0.30728964
0.31240848
0.31872623
0.32459136
0.33227853
0.33857267
0.34626162
0.35173756
0.35424768
0.00077582665
0.0024367812
0.0040256592
0.005661941
0.0072668826
0.0088924022
0.010504205
0.012124907
0.013739522
0.015357917
0.016973522
0.018590637
0.020206376
0.021822604
0.023438045
0.025053503
0.026668409
0.028283103
0.029897327
0.031511224
0.033124673
0.034737733
0.03635035
0.037962552
0.039574319
0.041185674
0.04279662
0.044407189
0.046017408
0.047627322
0.049236991
0.050846479
0.052455889
0.054065324
0.055674926
0.057284852
0.058895305
0.060506513
0.062118757
0.063732361
0.065347707
0.066965246
0.068585493
0.070209059
0.07183664
0.073469046
0.075107205
0.076752185
0.078405204
0.080067653
0.081741111
0.08342737
0.085128449
0.086846623
0.08858444
0.090344743
0.092130692
0.093945782
0.095793852
0.097679109
0.099606122
0.10157983
0.10360552
0.10568882
0.10783565
0.11005221
0.11234486
0.11472012
0.11718447
0.11974439
0.12240603
0.1251753
0.12805746
0.13105728
0.13417845
0.13742395
0.14079528
0.14429306
0.14791607
0.15166215
0.15552705
0.15950574
0.16359089
0.16777468
0.17204734
0.17639873
0.1808172
0.18529128
0.18980841
0.1943568
0.19892403
0.20349898
0.20807034
0.21262849
0.21716403
0.22166948
0.22613785
0.23056428
0.23494446
0.23927642
0.24355858
0.24779225
0.25197828
0.25612206
0.26022615
0.26430208
0.26835208
0.27239916
0.27643971
0.28052122
0.28462046
0.28883965
0.29309964
0.29762477
0.30219239
0.30728146
0.31232734
0.31827297
0.32385063
0.33062516
0.33632865
0.34257754
0.34724093
0.34887814
0.00077673257
0.0024372339
0.0040270925
0.0056634125
0.0072690026
0.0088947488
0.010507058
0.012128073
0.013743137
0.015361895
0.016977934
0.018595451
0.020211632
0.021828296
0.023444202
0.025060131
0.026675531
0.028290732
0.029905483
0.031519921
0.03313393
0.034747565
0.036360771
0.037973574
0.039585952
0.041197923
0.042809488
0.044420671
0.046031495
0.047641996
0.049252224
0.050862234
0.052472115
0.054081955
0.055691878
0.057302023
0.058912566
0.060523713
0.062135713
0.063748856
0.065363487
0.066980014
0.068598904
0.070220718
0.071846093
0.07347578
0.075110637
0.076751661
0.078399995
0.08005695
0.081724024
0.083402924
0.085095587
0.086804207
0.088531255
0.090279508
0.092052065
0.093852379
0.095684268
0.097551937
0.099459983
0.10141341
0.1034176
0.10547833
0.1076017
0.10979417
0.11206237
0.11441317
0.11685344
0.1193901
0.12202976
0.12477884
0.1276431
0.13062784
0.13373721
0.13697469
0.14034213
0.14384051
0.14746876
0.15122493
0.15510464
0.15910281
0.16321177
0.16742331
0.1717271
0.17611258
0.18056729
0.1850792
0.18963487
0.19422186
0.19882694
0.20343839
0.20804416
0.21263419
0.21719848
0.22172925
0.22621908
0.23066293
0.2350562
0.23939679
0.2436829
0.24791564
0.25209567
0.25622789
0.26031463
0.26436623
0.26838479
0.27239045
0.27638034
0.28039473
0.28441364
0.28852188
0.29265244
0.29698521
0.30133611
0.30607375
0.31074752
0.31604449
0.32100728
0.32668676
0.33151614
0.33638276
0.3401266
0.34137367
0.0007776619
0.0024374942
0.0040283421
0.0056645746
0.0072707911
0.0088966873
0.010509465
0.012130733
0.013746199
0.015365262
0.016981679
0.018599534
0.020216092
0.021833121
0.023449414
0.025065731
0.026681535
0.028297145
0.029912318
0.031527185
0.03314163
0.034755706
0.036369358
0.037982606
0.039595426
0.041207831
0.042819817
0.044431401
0.046042598
0.047653435
0.049263953
0.050874191
0.052484226
0.054094128
0.055704001
0.057313962
0.058924162
0.060534777
0.062146023
0.063758153
0.065371471
0.06698634
0.068603174
0.070222477
0.071844828
0.073470906
0.0751015
0.076737529
0.078380054
0.0800303
0.081689677
0.083359802
0.085042523
0.086739946
0.088454462
0.090188772
0.091945917
0.093729305
0.095542727
0.097390397
0.099276942
0.10120744
0.10318739
0.10522274
0.1073198
0.1094853
0.11172621
0.1140498
0.11646337
0.11897435
0.12158988
0.124317
0.12716199
0.1301308
0.1332281
0.13645795
0.13982256
0.14332338
0.14695948
0.15072911
0.15462777
0.15865029
0.16278852
0.16703391
0.17137536
0.17580169
0.18029954
0.18485614
0.18945706
0.19408914
0.19873817
0.20339177
0.20803709
0.21266354
0.2172605
0.22181987
0.22633383
0.23079719
0.23520517
0.2395557
0.24384701
0.24808034
0.25225662
0.25638091
0.26045613
0.26449254
0.26849343
0.27247785
0.27644534
0.28043196
0.28442322
0.28849127
0.29258223
0.29684043
0.30111596
0.30568795
0.31019821
0.31513518
0.31977729
0.32480423
0.32913695
0.33317098
0.33633826
0.33717906
0.00077876603
0.0024378474
0.0040298579
0.0056660005
0.0072729431
0.0088990225
0.010512343
0.012133915
0.01374985
0.01536928
0.016986145
0.018604408
0.020221417
0.021838888
0.023455651
0.025072441
0.02668874
0.028304855
0.02992055
0.031535951
0.033150944
0.034765578
0.036379797
0.037993619
0.039607016
0.041219996
0.04283255
0.044444688
0.046056418
0.047667757
0.049278733
0.050889375
0.052499742
0.054109888
0.055719894
0.057329854
0.058939892
0.060550153
0.062160816
0.063772095
0.065384249
0.066997589
0.068612475
0.070229348
0.071848717
0.073471189
0.075097472
0.076728396
0.078364933
0.080008209
0.081659534
0.083320421
0.084992615
0.08667812
0.08837923
0.090098559
0.091839069
0.09360411
0.095397438
0.097223258
0.099086224
0.10099149
0.10294465
0.10495185
0.10701961
0.10915497
0.11136525
0.11365816
0.11604149
0.11852325
0.12111114
0.12381291
0.12663545
0.12958547
0.13266819
0.13588836
0.13924866
0.14275104
0.14639476
0.15017835
0.15409715
0.15814594
0.16231606
0.16659853
0.17098145
0.17545297
0.17999869
0.18460501
0.18925636
0.19393872
0.19863678
0.2033374
0.20802678
0.21269375
0.21732697
0.22191795
0.22645837
0.23094284
0.23536625
0.23972642
0.24402136
0.24825213
0.25241946
0.25652794
0.26058022
0.26458543
0.26854652
0.27247989
0.27638519
0.28029244
0.2841887
0.28813219
0.29207728
0.29613582
0.30018502
0.30443193
0.30859526
0.31301638
0.31716178
0.32145921
0.32518863
0.32847412
0.33111659
0.33184768
0.00077990168
0.0024380675
0.0040312614
0.0056672173
0.0072748787
0.0089010819
0.010514922
0.012136755
0.013753129
0.015372885
0.01699016
0.018608789
0.020226206
0.02184407
0.023461251
0.02507846
0.026695192
0.028311747
0.029927893
0.03154375
0.033159208
0.03477431
0.036388999
0.038003289
0.039617148
0.041230578
0.042843566
0.044456112
0.046068216
0.047679885
0.049291135
0.050901978
0.052512458
0.05412261
0.055732491
0.057342171
0.058951743
0.060561318
0.062171038
0.063781074
0.065391636
0.067002982
0.06861541
0.070229296
0.071845076
0.073463276
0.075084517
0.076709539
0.07833921
0.079974553
0.081616769
0.083267259
0.084927654
0.086599847
0.088286023
0.089988699
0.091710751
0.093455464
0.095226546
0.097028195
0.098865087
0.10074245
0.102666
0.10464207
0.10667743
0.10877946
0.11095586
0.11321485
0.11556473
0.11801419
0.12057159
0.12324544
0.12604336
0.12897288
0.13203991
0.13524998
0.13860627
0.14211135
0.14576468
0.14956512
0.15350781
0.15758748
0.16179483
0.16612044
0.17055139
0.17507507
0.17967584
0.18433915
0.1890481
0.1937877
0.19854138
0.20329516
0.20803417
0.21274661
0.21742035
0.22204654
0.22661634
0.23112423
0.23556488
0.23993614
0.24423601
0.24846571
0.25262615
0.25672205
0.26075643
0.26473823
0.26867111
0.27257032
0.27643678
0.2802969
0.28414069
0.28801602
0.29188585
0.29583618
0.29976702
0.30382787
0.30779709
0.31190301
0.31574956
0.31958129
0.32292124
0.32570341
0.32795587
0.32847289
0.00078117187
0.0024383475
0.00403286
0.0056686194
0.0072770781
0.0089034248
0.010517843
0.01213997
0.013756833
0.015376959
0.016994696
0.018613739
0.020231619
0.021849932
0.023467591
0.025085279
0.026702511
0.028319574
0.029936243
0.031552633
0.033168635
0.034784289
0.036399536
0.038014385
0.039628802
0.041242784
0.04285631
0.044469373
0.046081964
0.04769408
0.049305722
0.05091689
0.052527608
0.054137891
0.055747774
0.057357298
0.058966526
0.060575533
0.06218442
0.063793314
0.065402371
0.06701179
0.068621809
0.070232727
0.071844904
0.073458777
0.075074873
0.076693827
0.078316401
0.0799435
0.0815762
0.083215779
0.084863738
0.086521841
0.088192151
0.089877068
0.091579362
0.093302236
0.095049337
0.096824837
0.098633422
0.10048039
0.10237157
0.1043135
0.10631319
0.10837838
0.11051719
0.1127384
0.11505087
0.11746405
0.11998698
0.12262911
0.12539882
0.12830463
0.13135318
0.13455097
0.13790171
0.14140874
0.14507175
0.14889
0.15285843
0.15697175
0.16121993
0.16559305
0.17007709
0.17465857
0.17932043
0.18404704
0.18881998
0.19362316
0.19843857
0.20325127
0.2080452
0.21280784
0.21752618
0.22219093
0.22679269
0.23132574
0.23578441
0.24016651
0.24446983
0.24869553
0.25284432
0.25692061
0.26092714
0.26487192
0.26875823
0.2725991
0.27639526
0.28016836
0.28390961
0.28765593
0.2913763
0.29513477
0.29885005
0.30262784
0.30629637
0.31000467
0.31346605
0.31680879
0.31973418
0.32208778
0.32402634
0.32450803
0.00078248143
0.0024385343
0.0040343954
0.0056698831
0.0072791421
0.0089055873
0.010520572
0.012142963
0.013760297
0.015380765
0.01699894
0.01861837
0.020236685
0.021855416
0.02347352
0.025091652
0.026709346
0.028326874
0.029944021
0.031560895
0.033177388
0.034793535
0.036409278
0.038024619
0.039639521
0.041253974
0.042867951
0.044481438
0.046094414
0.047706866
0.049318781
0.050930143
0.052540958
0.054151219
0.055760936
0.057370122
0.058978806
0.060587027
0.062194844
0.063802332
0.065409596
0.067016773
0.068624031
0.070231594
0.071839737
0.073448804
0.075059222
0.076671515
0.078286324
0.079904432
0.08152678
0.083154507
0.084788973
0.086431802
0.088084914
0.08975058
0.09143145
0.093130626
0.094851679
0.096598745
0.098376509
0.10019033
0.10204616
0.10395072
0.10591131
0.10793605
0.1100335
0.11221306
0.11448421
0.11685723
0.11934198
0.1219489
0.12468727
0.12756672
0.13059475
0.13377894
0.13712363
0.14063307
0.1443072
0.14814579
0.15214352
0.1562951
0.16058966
0.16501672
0.16956094
0.17420785
0.17893876
0.18373678
0.18858177
0.19345635
0.19834093
0.20321944
0.20807454
0.2128929
0.21766058
0.22236787
0.22700478
0.23156548
0.23604407
0.24043844
0.24474641
0.24896934
0.2531081
0.25716725
0.26114982
0.26506365
0.26891243
0.27270815
0.27645235
0.28016344
0.28383488
0.28749526
0.29111941
0.29475409
0.29833293
0.301927
0.30540172
0.30884542
0.3120489
0.31505563
0.31768486
0.3197197
0.32139527
0.32175392
0.00078389857
0.0024387574
0.0040360743
0.0056712752
0.0072813959
0.0089079496
0.010523544
0.012146221
0.013764064
0.015384905
0.017003555
0.018623407
0.020242197
0.021861385
0.023479978
0.025098597
0.026716799
0.028334843
0.02995252
0.031569932
0.033186974
0.034803675
0.036419977
0.038035877
0.039651333
0.041266331
0.042880836
0.044494826
0.046108271
0.047721144
0.049333421
0.050945068
0.052556073
0.054166406
0.055776051
0.057384993
0.058993226
0.060600749
0.062207576
0.063813734
0.065419269
0.067024253
0.06862878
0.070232996
0.071837082
0.073441285
0.07504592
0.076651394
0.078258219
0.079867038
0.081478646
0.08309403
0.084714389
0.086341189
0.087976189
0.089621509
0.091279655
0.09295361
0.094646845
0.096363439
0.098108056
0.099886103
0.10170363
0.10356758
0.1054855
0.10746593
0.1095179
0.11165145
0.11387678
0.11620506
0.11864703
0.12121428
0.12391708
0.12676637
0.12977057
0.13293856
0.13627541
0.13978643
0.14347185
0.1473321
0.15136153
0.15555494
0.15990045
0.16438701
0.16899775
0.17371712
0.17852453
0.18340168
0.18832646
0.19328005
0.19824104
0.20319214
0.20811453
0.21299404
0.21781566
0.22256922
0.22724411
0.23183437
0.23633376
0.24074028
0.24505158
0.24926913
0.25339372
0.25742977
0.26138015
0.26525205
0.26904888
0.27278095
0.27644964
0.28006972
0.28363578
0.2871691
0.29064794
0.29410579
0.29748891
0.30084346
0.30406628
0.30720559
0.3101141
0.31278579
0.31512581
0.31689934
0.31837603
0.31871968
0.00078536024
0.0024389147
0.0040377234
0.0056725781
0.0072835703
0.0089101987
0.0105264
0.012149341
0.013767684
0.015388879
0.017007992
0.018628249
0.020247497
0.021867124
0.023486186
0.025105272
0.02672396
0.028342494
0.029960676
0.031578597
0.033196156
0.034813378
0.036430202
0.038046621
0.03966259
0.041278087
0.042893071
0.04450751
0.046121366
0.047734599
0.049347169
0.050959028
0.052570143
0.054180461
0.055789941
0.057398535
0.059006203
0.060612904
0.062218605
0.063823281
0.065426916
0.067029516
0.0686311
0.070231725
0.07183148
0.073430506
0.075029
0.076627242
0.078225606
0.079824585
0.081424816
0.083027116
0.084632511
0.086242287
0.087858025
0.089481669
0.09111556
0.092762538
0.094425947
0.096109791
0.097818687
0.099558082
0.10133411
0.10315392
0.10502532
0.1069573
0.10895937
0.11104231
0.11321703
0.11549576
0.11789017
0.12041319
0.12307614
0.12589148
0.12886868
0.13201815
0.13534574
0.13885807
0.14255567
0.1464398
0.15050443
0.15474451
0.159147
0.16370023
0.16838555
0.17318615
0.17807928
0.18304501
0.18805898
0.19310071
0.19814674
0.20317841
0.20817526
0.21312219
0.2180031
0.22280733
0.22752368
0.23214613
0.23666823
0.24108821
0.24540379
0.24961678
0.25372817
0.2577427
0.26166349
0.26549771
0.26924908
0.27292718
0.27653386
0.28008164
0.28356622
0.28700417
0.29037646
0.29370636
0.29694979
0.30013338
0.30317673
0.30609751
0.30879117
0.31121601
0.3133327
0.31489509
0.31619176
0.31646059
0.00078691
0.0024390917
0.0040394785
0.0056739683
0.00728588
0.0089125865
0.010529428
0.012152646
0.013771516
0.015393087
0.017012689
0.018633376
0.02025311
0.021873206
0.023492767
0.025112352
0.026731561
0.028350621
0.029969344
0.031587815
0.033205935
0.034823723
0.036441117
0.038058106
0.03967464
0.041290692
0.042906213
0.044521165
0.046135496
0.047749157
0.049362094
0.050974239
0.052585541
0.054195924
0.05580532
0.057413649
0.059020836
0.060626798
0.062231454
0.063834723
0.065436529
0.067036807
0.068635495
0.070232562
0.071827995
0.073421823
0.07501412
0.07660503
0.078194776
0.07978369
0.081372237
0.082961048
0.084550956
0.086143049
0.087738705
0.089339668
0.090948088
0.09256663
0.094198488
0.095847555
0.097518379
0.099216416
0.10094786
0.10272006
0.10454109
0.10642038
0.10836794
0.11039533
0.11251425
0.11473806
0.11707947
0.1195529
0.12217086
0.12494756
0.12789363
0.13102129
0.13433727
0.13784979
0.14155968
0.14546925
0.14957201
0.15386317
0.1583283
0.16295507
0.16772281
0.17261328
0.17760123
0.18266491
0.1877774
0.19291631
0.19805596
0.20317607
0.20825447
0.21327496
0.21822028
0.22307929
0.22784015
0.23249679
0.23704255
0.2414759
0.24579457
0.25000069
0.25409532
0.25808333
0.26196788
0.26575584
0.26945083
0.27306137
0.27658926
0.28004469
0.28342393
0.2867394
0.289975
0.29314501
0.2962148
0.29919755
0.30203239
0.30471838
0.30718522
0.30937332
0.31128313
0.31267569
0.31383885
0.31409822
0.00078850624
0.0024392217
0.0040412253
0.0056753027
0.0072881474
0.0089149068
0.01053239
0.012155871
0.013775265
0.015397199
0.017017286
0.018638392
0.020258605
0.021879158
0.02349921
0.025119283
0.026739001
0.028358575
0.029977828
0.031596834
0.033215499
0.034833837
0.036451785
0.038069325
0.039686406
0.041302993
0.042919031
0.044534472
0.046149255
0.047763319
0.049376595
0.050988998
0.052600458
0.054210874
0.055820151
0.057428178
0.059034843
0.06064002
0.06224358
0.063845385
0.065445295
0.067043173
0.068638873
0.07023227
0.071823248
0.073411717
0.07499762
0.076580955
0.078161787
0.079740274
0.081316691
0.082891469
0.084465228
0.086038833
0.087613433
0.089190546
0.090772097
0.092360545
0.093958895
0.095570901
0.097201001
0.098854638
0.10053804
0.10225874
0.10402504
0.10584688
0.10773476
0.10970111
0.11175842
0.11392136
0.11620373
0.11862166
0.12118896
0.12392185
0.12683226
0.12993451
0.13323634
0.13674785
0.14047025
0.14440717
0.14855155
0.15289902
0.15743359
0.16214219
0.16700181
0.17199257
0.1770864
0.18225935
0.18748164
0.19272865
0.1979722
0.20319017
0.2083585
0.21345979
0.21847561
0.22339429
0.22820341
0.23289699
0.23746824
0.24191606
0.24623838
0.25043789
0.25451601
0.25847812
0.26232773
0.26607194
0.26971472
0.27326423
0.2767227
0.28009888
0.28339001
0.28660505
0.28973124
0.29277566
0.29571036
0.29853844
0.30121287
0.30371872
0.3060089
0.30801157
0.30975201
0.31099869
0.31203564
0.31224771
0.00079017541
0.0024393601
0.0040430503
0.0056766949
0.0072905104
0.0089173215
0.010535471
0.012159224
0.013779161
0.015401473
0.017022063
0.018643607
0.020264319
0.02188535
0.023505915
0.0251265
0.026746751
0.028366867
0.029986677
0.03160625
0.033225493
0.034844416
0.036462955
0.038081088
0.039698758
0.041315926
0.04293253
0.044548514
0.046163807
0.047778334
0.049392014
0.051004746
0.052616436
0.054226964
0.055836206
0.057444019
0.059050253
0.06065474
0.062257301
0.063857741
0.065455856
0.06705143
0.068644235
0.070234049
0.071820644
0.073403809
0.074983348
0.076559107
0.07813098
0.079698939
0.081263057
0.082823548
0.084380797
0.085935424
0.087488324
0.08904076
0.090594397
0.092151457
0.093714713
0.095287743
0.096874831
0.098481371
0.10011358
0.10177915
0.1034866
0.10524634
0.10706939
0.10896906
0.11095872
0.11305443
0.11527119
0.11762706
0.12013726
0.12282037
0.12568975
0.12876227
0.13204673
0.13555558
0.13929037
0.14325639
0.14744589
0.15185506
0.15646604
0.16126498
0.16622617
0.17132785
0.17653873
0.18183231
0.18717566
0.19254155
0.19789909
0.20322404
0.20849038
0.21367934
0.2187713
0.22375401
0.22861456
0.23334703
0.23794462
0.24240669
0.24673142
0.2509221
0.25498048
0.25891239
0.2627216
0.26641535
0.26999774
0.27347645
0.2768539
0.28013751
0.28332515
0.28642327
0.28942143
0.29232303
0.29510441
0.29776359
0.30026506
0.30258666
0.30469991
0.30652926
0.30811715
0.30924654
0.31018895
0.31039304
0.00079189004
0.0024394643
0.0040448799
0.0056780531
0.0072928545
0.0089196981
0.010538519
0.012162532
0.013783014
0.015405698
0.017026788
0.018648765
0.020269973
0.021891479
0.023512553
0.025133646
0.026754429
0.028375082
0.029995446
0.031615582
0.0332354
0.034854905
0.036474032
0.038092755
0.039711014
0.041328762
0.042945932
0.04456246
0.046178265
0.047793261
0.049407351
0.051020418
0.052632351
0.054243003
0.055852224
0.057459841
0.059065664
0.060669484
0.06227107
0.063870171
0.065466514
0.067059808
0.068649737
0.070235978
0.07181819
0.073396033
0.074969167
0.076537274
0.078100069
0.079657324
0.081208893
0.082754751
0.084295025
0.085830067
0.08736048
0.088887239
0.090411706
0.091935823
0.093462083
0.094993843
0.096535176
0.098091392
0.099668642
0.10127477
0.10291846