/*--------------------------------*- C++ -*----------------------------------*\
| =========                 |                                                 |
| \\      /  F ield         | foam-extend: Open Source CFD                    |
|  \\    /   O peration     | Version:     4.1                                |
|   \\  /    A nd           | Web:         http://www.foam-extend.org         |
|    \\/     M anipulation  |                                                 |
\*---------------------------------------------------------------------------*/
FoamFile
{
    version     2.0;
    format      ascii;
    class       volScalarField;
    location    "0.4";
    object      p;
}
// * * * * * * * * * * * * * * * * * * * * * * * * * * * * * * * * * * * * * //

dimensions      [0 2 -2 0 0 0 0];

internalField   nonuniform List<scalar> 
16126
(
-5.8516056
-6.765493
-9.0576888
-11.586426
-14.273862
-17.070886
-19.959571
-22.933949
-25.99379
-29.141782
-32.382181
-35.720107
-39.161185
-42.711334
-46.376677
-50.16349
-54.078204
-58.127418
-62.317935
-66.656808
-71.151385
-75.809357
-80.638806
-85.648245
-90.846646
-96.243461
-101.84862
-107.67252
-113.72598
-120.02019
-126.5666
-133.3769
-140.46268
-147.83546
-155.50638
-163.48595
-171.78382
-180.40847
-189.36684
-198.66402
-208.30282
-218.28338
-228.60274
-239.25439
-250.22785
-261.50815
-273.07546
-284.90459
-296.9646
-309.2184
-321.62238
-334.12613
-346.67219
-359.19586
-371.62509
-383.88054
-395.87561
-407.51677
-418.70384
-429.33053
-439.28509
-448.45116
-456.70869
-463.93513
-470.00668
-474.7998
-478.19278
-480.06742
-480.31088
-478.81755
-475.49099
-470.24581
-463.0096
-453.72465
-442.34958
-428.86064
-413.25288
-395.54109
-375.76057
-353.96718
-330.23616
-304.66088
-277.35262
-248.44708
-218.10018
-186.47028
-153.72115
-120.02837
-85.573632
-50.541498
-15.116529
20.519308
56.189006
91.722653
126.95925
161.74821
195.95057
229.43982
262.10248
293.83831
324.5603
354.19444
382.67942
409.96641
436.01773
460.80236
484.29869
506.49784
527.39873
547.00618
565.33097
582.38949
598.20356
612.79993
626.20946
638.46921
649.63369
659.79113
669.02865
677.29218
684.43269
691.403
702.17783
718.96189
-4.1607757
-6.3978888
-8.8968048
-11.500989
-14.215177
-17.022719
-19.915289
-22.890515
-25.949682
-29.096181
-32.33462
-35.670305
-39.108956
-42.656541
-46.319201
-50.103214
-54.015001
-58.061145
-62.248429
-66.583884
-71.074835
-75.728956
-80.554313
-85.559407
-90.753206
-96.145166
-101.74523
-107.56382
-113.61178
-119.90035
-126.44106
-133.24562
-140.32576
-147.69308
-155.35882
-163.33364
-171.62733
-180.24851
-189.20429
-198.49995
-208.13846
-218.12018
-228.44232
-239.09861
-250.07872
-261.36793
-272.94656
-284.78963
-296.86635
-309.13979
-321.56646
-334.09606
-346.67119
-359.22717
-371.69196
-383.98613
-396.023
-407.70884
-418.94324
-429.61963
-439.62589
-448.84524
-457.15711
-464.4384
-470.5647
-475.41179
-478.8572
-480.782
-481.07253
-479.62239
-476.33432
-471.12215
-463.91271
-454.64762
-443.28484
-429.80012
-414.18839
-396.46483
-376.66525
-354.84543
-331.08155
-305.46987
-278.1253
-249.17653
-218.76619
-187.05649
-154.22161
-120.4402
-85.895744
-50.774222
-15.261445
20.45948
56.210531
91.820908
127.12886
161.98322
196.24455
229.78603
262.49398
294.26807
325.02129
354.67968
383.18179
410.47805
436.53004
461.31147
484.80508
506.99969
527.89213
547.4868
565.7942
582.83033
598.61617
613.17705
626.5417
638.7445
649.83496
659.88452
668.94701
676.96605
683.90724
690.60166
699.06641
708.05391
-3.1352808
-5.9184307
-8.6356747
-11.33984
-14.096413
-16.9208
-19.818581
-22.793622
-25.850143
-28.993
-32.227557
-35.559517
-38.994796
-42.539441
-46.199594
-49.981484
-53.891444
-57.935948
-62.12165
-66.455441
-70.944503
-75.596365
-80.418958
-85.420658
-90.610325
-95.99733
-101.59156
-107.4034
-113.44371
-119.72379
-126.25524
-133.0499
-140.1197
-147.47645
-155.13167
-163.09634
-171.38059
-179.99347
-188.94252
-198.23347
-207.86982
-217.85241
-228.17901
-238.84386
-249.83717
-261.14471
-272.74732
-284.62044
-296.7337
-309.0505
-321.52764
-334.11501
-346.7553
-359.38384
-371.92847
-384.30952
-396.43993
-408.22549
-419.56513
-430.35148
-440.47151
-449.80734
-458.23721
-465.63666
-471.87984
-476.84095
-480.39591
-482.42406
-482.81004
-481.4457
-478.23206
-473.08133
-465.9188
-456.68467
-445.33581
-431.84736
-416.21407
-398.45032
-378.59113
-356.69231
-332.83097
-307.1047
-279.63075
-250.54214
-219.98549
-188.12238
-155.12628
-121.17804
-86.463613
-51.171392
-15.489492
20.396851
56.307702
92.070588
127.52237
162.51074
196.89548
230.54922
263.35804
295.22161
326.05317
355.77922
384.33894
411.68328
437.77427
462.58532
486.0997
508.30842
529.20995
548.80973
567.11923
584.15538
599.93992
614.49871
627.8611
640.06244
651.15084
661.18408
670.19119
678.14461
685.14958
691.82954
698.57212
703.11138
-2.6726246
-5.576058
-8.3921132
-11.160299
-13.949921
-16.788665
-19.690359
-22.663629
-25.715334
-28.851796
-32.079201
-35.403713
-38.831496
-42.368716
-46.021549
-49.796204
-53.698952
-57.73618
-61.914436
-66.240494
-70.721418
-75.364619
-80.177917
-85.169596
-90.348439
-95.723767
-101.30544
-107.10388
-113.12998
-119.39514
-125.91111
-132.68993
-139.74377
-147.08475
-154.72473
-162.67508
-170.94642
-179.54828
-188.48876
-197.77417
-207.40863
-217.39365
-227.72765
-238.40555
-249.41825
-260.7522
-272.38886
-284.30429
-296.4687
-308.84597
-321.39333
-334.06097
-346.7918
-359.52124
-372.17704
-384.67934
-396.94068
-408.86626
-420.35424
-431.29628
-441.57818
-451.08065
-459.68036
-467.25106
-473.66493
-478.79405
-482.51207
-484.69594
-485.22784
-483.99714
-480.9024
-475.85337
-468.77307
-459.59967
-448.28856
-434.8139
-419.16872
-401.36632
-381.44134
-359.4501
-335.47015
-309.59978
-281.95695
-252.67706
-221.91102
-189.82409
-156.59279
-122.40156
-87.440035
-51.900195
-15.973601
20.151307
56.291689
92.272528
127.92853
163.10567
197.66241
231.47051
264.41553
296.39704
327.32848
357.13686
385.76213
413.15641
439.28312
464.11647
487.6402
509.8463
530.73425
550.31029
568.58651
585.58014
601.3129
615.8101
629.10048
641.21859
652.20784
662.11169
670.94493
678.71325
685.58364
691.94816
697.51469
700.44977
-2.4333395
-5.3266277
-8.173932
-10.97293
-13.780577
-16.626307
-19.527604
-22.49605
-25.540487
-28.668477
-31.886955
-35.202515
-38.62155
-42.150316
-45.79499
-49.56171
-53.456635
-57.486003
-61.656194
-65.9738
-70.445698
-75.079122
-79.881724
-84.861642
-90.027544
-95.388668
-100.95484
-106.73649
-112.74459
-118.99066
-125.48665
-132.24487
-139.27782
-146.59802
-154.21784
-162.14921
-170.40334
-178.99048
-187.91946
-197.19742
-206.8293
-216.81751
-227.16137
-237.85672
-248.89538
-260.26467
-271.94694
-283.91905
-296.15193
-308.61013
-321.25139
-334.02631
-346.87806
-359.74212
-372.54612
-385.20987
-397.64535
-409.75693
-421.44171
-432.59003
-443.08605
-452.80861
-461.63222
-469.42823
-476.06616
-481.41523
-485.34602
-487.73231
-488.45298
-487.39407
-484.4508
-479.52969
-472.55067
-463.44931
-452.1792
-438.7123
-423.03967
-405.17405
-385.14995
-363.02413
-338.87537
-312.80377
-284.92943
-255.39068
-224.34218
-191.95311
-158.40417
-123.88445
-88.588363
-52.712657
-16.453463
19.996519
56.450591
92.730365
128.66771
164.10633
198.90298
232.92828
266.06721
298.21919
329.29797
359.2312
387.95981
415.43717
441.62831
466.50895
490.06438
512.2882
533.18142
552.75158
571.01177
587.97983
603.67748
618.12937
631.36288
643.4098
654.30603
664.08021
672.73764
680.29817
686.90155
692.7158
697.27083
699.39619
-2.2930498
-5.1397848
-7.9816503
-10.787021
-13.598701
-16.443216
-19.338684
-22.29807
-25.331452
-28.447296
-31.653144
-34.955965
-38.362356
-41.878661
-45.51105
-49.265594
-53.148335
-57.165359
-61.322872
-65.627281
-70.085272
-74.703895
-79.490634
-84.45348
-89.60099
-94.94233
-100.48731
-106.24638
-112.23062
-118.45172
-124.92188
-131.65373
-138.66018
-145.95425
-153.54887
-161.45665
-169.68957
-178.25868
-187.17372
-196.44279
-206.07188
-216.06445
-226.42092
-237.13825
-248.20939
-259.62277
-271.36179
-283.40435
-295.72229
-308.281
-321.03891
-333.94718
-346.94933
-359.98097
-372.96969
-385.83491
-398.48799
-410.83239
-422.76394
-434.17137
-444.93691
-454.93712
-464.04388
-472.12558
-479.04846
-484.67818
-488.88154
-491.5283
-492.49322
-491.65814
-488.91405
-484.1633
-477.32197
-468.32246
-457.11543
-443.66936
-427.97358
-410.03954
-389.90128
-367.61591
-343.26344
-316.94612
-288.78716
-258.9289
-227.53088
-194.76748
-160.82498
-125.89839
-90.188187
-53.897142
-17.227163
19.623658
56.463751
93.11047
129.39211
165.14953
200.23736
234.52485
267.89624
300.25087
331.50295
361.58106
390.42744
417.9971
444.2569
469.18449
492.76715
515.00057
535.88784
555.43837
573.66698
590.59294
606.23895
620.63028
633.79449
645.7621
656.56407
666.22142
674.73974
682.14579
688.52988
693.909
697.81398
699.51984
-2.1942685
-4.9865667
-7.8030878
-10.597078
-13.400245
-16.235087
-19.11887
-22.064891
-25.083844
-28.184764
-31.375609
-34.663615
-38.055515
-41.55768
-45.176227
-48.917107
-52.786193
-56.789365
-60.932602
-65.222066
-69.664201
-74.265821
-79.034193
-83.977126
-89.103028
-94.420973
-99.940733
-105.6728
-111.62837
-117.81933
-124.25817
-130.9579
-137.93195
-145.19391
-152.75743
-160.6359
-168.84222
-177.38843
-186.28536
-195.54229
-205.16641
-215.16248
-225.53227
-236.27406
-247.38217
-258.84634
-270.65128
-282.7761
-295.19377
-307.87067
-320.76609
-333.83184
-347.01187
-360.24201
-373.44974
-386.55409
-399.46568
-412.08684
-424.31193
-436.02778
-447.1143
-457.44532
-466.88957
-475.31189
-482.5746
-488.53908
-493.06755
-496.02496
-497.28108
-496.71267
-494.20563
-489.65725
-482.97891
-474.09926
-462.96499
-449.54112
-433.81462
-415.79528
-395.51652
-373.03581
-348.43462
-321.81773
-293.31194
-263.06437
-231.24021
-198.02018
-163.59746
-128.17431
-91.95863
-55.160537
-17.988996
19.351321
56.662905
93.757923
130.46033
166.60754
202.05162
236.66013
270.31646
302.91985
334.38506
364.64182
393.63394
421.31841
447.66429
472.65155
496.2698
518.51709
539.39873
558.92617
577.11595
593.98863
609.56776
623.87899
636.94959
648.80835
659.48194
668.9872
677.33229
684.54483
690.6758
695.67408
699.13772
700.60026
-2.1181007
-4.8566963
-7.6374957
-10.408114
-13.192664
-16.00997
-18.875912
-21.803533
-24.803715
-27.885787
-31.057963
-34.327652
-37.701663
-41.186357
-44.787767
-48.511699
-52.36383
-56.34981
-60.475358
-64.74637
-69.169016
-73.749849
-78.495897
-83.414763
-88.514695
-93.804665
-99.294409
-104.99447
-110.91617
-117.07163
-123.47368
-130.13578
-137.07192
-144.29639
-151.82363
-159.66798
-167.84336
-176.36297
-185.23892
-194.48181
-204.1003
-214.10062
-224.4861
-235.25661
-246.40803
-257.93169
-269.81382
-282.03495
-294.56942
-307.3848
-320.4414
-333.69185
-347.08066
-360.54392
-374.00906
-387.3947
-400.61063
-413.55795
-426.12931
-438.20934
-449.67531
-460.39786
-470.24205
-479.06858
-486.73517
-493.09816
-498.01438
-501.34309
-502.94816
-502.70028
-500.47927
-496.17641
-489.69744
-480.96624
-469.92452
-456.53345
-440.77699
-422.66291
-402.22379
-379.5175
-354.62724
-327.66081
-298.74942
-268.04579
-235.72187
-201.96596
-166.9795
-130.97343
-94.164524
-56.77165
-19.012175
18.901415
56.764574
94.383361
131.57664
168.17781
204.03602
239.01695
273.0031
305.89371
337.60437
368.06627
397.22528
425.04083
451.48475
476.53993
500.19902
522.46306
543.34026
562.84476
580.99545
597.81487
613.32803
627.56146
640.54256
652.2987
662.85335
672.22084
680.41004
687.44317
693.34289
698.03622
701.19601
702.50605
-2.0470784
-4.7321794
-7.4704009
-10.20868
-12.966185
-15.758869
-18.601198
-21.505697
-24.483169
-27.543026
-30.69359
-33.942335
-37.296068
-40.761076
-44.343248
-48.048189
-51.881326
-55.848021
-59.953682
-64.203875
-68.604447
-73.161636
-77.882181
-82.773437
-87.843459
-93.101087
-98.55601
-104.21881
-110.10096
-116.21483
-122.57363
-129.19135
-136.0826
-143.26246
-150.7463
-158.54951
-166.68721
-175.17394
-184.02323
-193.24726
-202.85632
-212.8584
-223.25858
-234.05857
-245.25609
-256.84428
-268.81113
-281.13887
-293.8034
-306.77369
-320.01127
-333.46974
-347.09431
-360.82141
-374.57846
-388.28366
-401.84591
-415.16492
-428.13144
-440.62766
-452.5278
-463.6989
-474.00185
-483.29259
-491.42355
-498.24532
-503.6085
-507.36575
-509.37412
-509.4973
-507.60801
-503.59053
-497.34397
-488.78648
-477.85412
-464.50332
-448.71436
-430.49253
-409.86926
-386.90279
-361.67819
-334.30678
-304.92483
-273.69164
-240.78702
-206.40822
-170.7664
-134.08277
-96.584534
-58.500881
-20.059056
18.519285
57.021356
95.246079
133.0064
170.13108
206.46589
241.8744
276.23815
309.45647
341.44593
372.13951
401.48548
429.44618
455.99662
481.12312
504.82182
527.09724
547.96096
567.43025
585.52688
602.27584
617.70419
631.84006
644.71172
656.34631
666.76625
675.98571
684.01445
690.86945
696.55725
701.005
703.94663
705.15382
-1.9835865
-4.6164544
-7.307671
-10.006936
-12.730454
-15.492148
-18.305284
-21.181814
-24.132327
-27.166192
-30.291735
-33.516416
-36.846979
-40.289584
-43.849934
-47.533389
-51.345083
-55.290046
-59.373326
-63.60012
-67.975899
-72.506544
-77.198466
-82.058733
-87.095171
-92.316471
-97.732257
-103.35314
-109.19077
-115.25778
-121.5678
-128.13539
-134.97587
-142.1052
-149.53979
-157.29621
-165.39094
-173.84
-182.65856
-191.86055
-201.45814
-211.46127
-221.87707
-232.70931
-243.95779
-255.61776
-267.67921
-280.12632
-292.93679
-306.08123
-319.52261
-333.21567
-347.10643
-361.13182
-375.2193
-389.28663
-403.24178
-416.98297
-430.39883
-443.36882
-455.76377
-467.44668
-478.27371
-488.09542
-496.75825
-504.10621
-509.98278
-514.23313
-516.70641
-517.25825
-515.75322
-512.06747
-506.09236
-497.73925
-486.93766
-473.63855
-457.81786
-439.47786
-418.64854
-395.38843
-369.78471
-341.95267
-312.0344
-280.19678
-246.62872
-211.53787
-175.1467
-137.68835
-99.402162
-60.52931
-21.308475
18.028094
57.258131
96.17239
134.57709
172.29577
209.17049
245.06253
279.85251
313.44004
345.74304
376.69669
406.25221
434.37536
461.04502
486.25151
509.99507
532.2843
553.13467
572.5671
590.60664
607.28116
622.62015
636.65361
649.41103
660.91992
671.20272
680.27439
688.14558
694.82995
700.32762
704.57546
707.35351
708.48676
-1.9146199
-4.4934758
-7.1333078
-9.7877277
-12.471056
-15.195856
-17.974469
-20.818317
-23.737727
-26.741944
-29.839215
-33.036913
-36.34165
-39.759401
-43.295621
-46.955366
-50.743418
-54.664412
-58.722975
-62.923868
-67.272129
-71.773218
-76.433161
-81.258687
-86.257353
-91.437662
-96.809147
-102.38245
-108.16937
-114.18285
-120.43697
-126.94691
-133.72878
-140.79953
-148.17668
-155.87817
-163.92195
-172.32573
-181.10652
-190.28021
-199.86108
-209.86127
-220.2902
-231.154
-242.45484
-254.1903
-266.3527
-278.92843
-291.89727
-305.23172
-318.89639
-332.84737
-347.03171
-361.38693
-375.84062
-390.31015
-404.70251
-418.91432
-432.83193
-446.33182
-459.28109
-471.53822
-482.95415
-493.37343
-502.63578
-510.57781
-517.03503
-521.84408
-524.84523
-525.88493
-524.81844
-521.51265
-515.85
-507.73383
-497.08613
-483.85144
-468.00051
-449.53198
-428.47402
-404.88531
-378.85531
-350.50377
-319.97943
-287.45781
-253.13831
-217.24054
-180.00009
-141.66388
-102.4853
-62.719325
-22.617824
17.574784
57.625388
97.315441
136.44356
174.82741
212.30498
248.73512
283.99755
317.9924
350.6393
381.87612
411.65756
439.95348
466.74723
492.03386
515.81838
538.11415
558.94119
578.32473
596.29377
612.8797
628.11507
642.0324
654.66311
666.03593
676.17439
685.09492
692.80927
699.32988
704.65616
708.73719
711.38684
712.46372
-1.8491744
-4.3735908
-6.9585006
-9.5631623
-12.200918
-14.883527
-17.622683
-20.429385
-23.313707
-26.284738
-29.3506
-32.518524
-35.794943
-39.185593
-42.695631
-46.329756
-50.092338
-53.987561
-58.01957
-62.192626
-66.511268
-70.980477
-75.605832
-80.393669
-85.351226
-90.486777
-95.809737
-101.33076
-107.06179
-113.01608
-119.20822
-125.65403
-132.3705
-139.37562
-146.6882
-154.32762
-162.31351
-170.66542
-179.40239
-188.5425
-198.10238
-208.09663
-218.53724
-229.43294
-240.78858
-252.60439
-264.87529
-277.59017
-290.73118
-304.27298
-318.18208
-332.41616
-346.92348
-361.64229
-376.50043
-391.41494
-406.29182
-421.02599
-435.50137
-449.59117
-463.15842
-476.05668
-488.13106
-499.21948
-509.15417
-517.76351
-524.87404
-530.31286
-533.9102
-535.50215
-534.93343
-532.06039
-526.75523
-518.91203
-508.44418
-495.28884
-479.41065
-460.80391
-439.4945
-415.54107
-389.0355
-360.10252
-328.8983
-295.60823
-260.44368
-223.63798
-185.44174
-146.11773
-105.93544
-65.165682
-24.075383
17.07718
58.046595
98.603841
138.53903
177.6634
215.81047
252.83659
288.62074
323.06388
356.08778
387.63361
417.66018
446.14214
473.06801
498.43825
522.26338
544.56211
565.35967
584.68618
602.5751
619.06189
634.18267
647.97305
660.46693
671.6951
681.683
690.44919
698.00718
704.37009
709.53988
713.47749
716.02165
717.05319
-1.7739646
-4.240316
-6.765935
-9.3158478
-11.902728
-14.537901
-17.232647
-19.997657
-22.84279
-25.776966
-28.808151
-31.943392
-35.18889
-38.550088
-42.031787
-45.638264
-49.373414
-53.240897
-57.244302
-61.387319
-65.673913
-70.108509
-74.69617
-79.442774
-84.35518
-89.441383
-94.710644
-100.1736
-105.84234
-111.73044
-117.85299
-124.22654
-130.86902
-137.79956
-145.03836
-152.60639
-160.52512
-168.81614
-177.50072
-186.59938
-196.13134
-206.11394
-216.562
-227.4872
-238.89735
-250.79563
-263.17991
-276.04189
-289.3664
-303.13057
-317.30308
-331.84346
-346.7014
-361.81609
-377.11576
-392.51716
-407.92533
-423.23346
-438.32286
-453.06328
-467.31331
-480.92116
-493.72558
-505.55719
-516.23997
-525.59318
-533.43343
-539.57717
-543.84343
-546.05669
-546.04981
-543.66723
-538.76951
-531.23997
-520.98216
-507.9247
-492.02504
-473.27232
-451.68954
-427.33506
-400.3033
-370.72444
-338.76305
-304.61565
-268.50721
-230.68676
-191.42212
-150.99418
-109.69084
-67.80101
-25.608773
16.611871
58.601631
100.11974
140.94687
180.88719
219.7695
257.44759
293.79993
328.72871
362.15844
394.03425
424.31987
452.99551
480.05572
505.50722
529.3668
551.65934
572.41598
591.67239
609.46718
625.84046
640.83249
654.4825
666.82747
677.90088
687.73072
696.33817
703.73905
709.94857
714.97272
718.78291
721.2365
722.22971
-1.7003209
-4.1068485
-6.5693156
-9.0598949
-11.591042
-14.173959
-16.819724
-19.538839
-22.341001
-25.234976
-28.22856
-31.328585
-34.540981
-37.87085
-41.322579
-44.899964
-48.606355
-52.444817
-56.418307
-60.52986
-64.782788
-69.180879
-73.728599
-78.431294
-83.295377
-88.328504
-93.539732
-98.939647
-104.54046
-110.35608
-116.40213
-122.6959
-129.25632
-136.10377
-143.25995
-150.74757
-158.59008
-166.8113
-175.43498
-184.4843
-193.98133
-203.94642
-214.39754
-225.34963
-236.81377
-248.79647
-261.29884
-274.31577
-287.83509
-301.83671
-316.29184
-331.16213
-346.39895
-361.94266
-377.72201
-393.65363
-409.64163
-425.57739
-441.33952
-456.79408
-471.79491
-486.18439
-499.7944
-512.44754
-523.95877
-534.13728
-542.78871
-549.71772
-554.73085
-557.63963
-558.26362
-556.43388
-551.99772
-544.82618
-534.81163
-521.87286
-505.95896
-487.05289
-465.17406
-440.3802
-412.76832
-382.47456
-349.67282
-314.57218
-277.41307
-238.46236
-198.00749
-156.35004
-113.79893
-70.66365
-27.247759
16.156978
59.275674
101.85446
143.66362
184.49964
224.18631
262.57497
299.54384
334.99687
368.86201
401.08911
431.64767
460.52439
487.72075
513.25058
537.13779
559.41424
580.11772
599.29016
616.97594
633.22045
648.06866
661.56398
673.74707
684.65467
694.31789
702.76096
710.00259
716.06093
720.94656
724.63982
727.01239
727.97169
-1.6150932
-3.9570303
-6.351496
-8.7777721
-11.248117
-13.773802
-16.365861
-19.034714
-21.789956
-24.64022
-27.593123
-30.655259
-33.832247
-37.128798
-40.548826
-44.095578
-47.771783
-51.579831
-55.521959
-59.60046
-63.817897
-68.177331
-72.682542
-77.338259
-82.150367
-87.12612
-92.274311
-97.605434
-103.1318
-108.86764
-114.82911
-121.03431
-127.50323
-134.25759
-141.32068
-148.71711
-156.47251
-164.61312
-173.16537
-182.15537
-191.60831
-201.54787
-211.99549
-222.96967
-234.48514
-246.55209
-259.17526
-272.35307
-286.07674
-300.32933
-315.08489
-330.30753
-345.9506
-361.95587
-378.25286
-394.75819
-411.3751
-427.99321
-444.48832
-460.72256
-476.54475
-491.79101
-506.28577
-519.84296
-532.26767
-543.3581
-552.90782
-560.70847
-566.55281
-570.23794
-571.56863
-570.36091
-566.44717
-559.68429
-549.95196
-537.15766
-521.24068
-502.17665
-479.98053
-454.70895
-426.46149
-395.38074
-361.65098
-325.49542
-287.17196
-246.96775
-205.19262
-162.17171
-118.2379
-73.72406
-28.955801
15.755079
60.116226
103.85924
146.74298
188.5557
229.116
268.27288
305.90479
341.91809
376.24499
408.84103
439.68249
468.76359
496.09373
521.69487
545.59899
567.84576
588.48044
607.55194
625.11111
641.20918
655.89643
669.22097
681.22763
691.95695
701.44359
709.71519
716.7938
722.70098
727.45196
731.03455
733.33191
734.26
-1.529452
-3.8039158
-6.1258609
-8.4829912
-10.887636
-13.35132
-15.88518
-18.499654
-21.204296
-24.007634
-26.91711
-29.939063
-33.078764
-36.340487
-39.727614
-43.242772
-46.887993
-50.664901
-54.574921
-58.619503
-62.800362
-67.119728
-71.580593
-76.186969
-80.944128
-85.858833
-90.939546
-96.196617
-101.64242
-107.29148
-113.16051
-119.26844
-125.63638
-132.28746
-139.24671
-146.54077
-154.1976
-162.24609
-170.71558
-179.63536
-189.03406
-198.93897
-209.37534
-220.3656
-231.92852
-244.07833
-256.82378
-270.16726
-284.10376
-298.61989
-313.69292
-329.28979
-345.36617
-361.86554
-378.71842
-395.84161
-413.13764
-430.49434
-447.78466
-464.86664
-481.58375
-497.76547
-513.22818
-527.77644
-541.20463
-553.29896
-563.83979
-572.60446
-579.37051
-583.91908
-586.03847
-585.52795
-582.20305
-575.90456
-566.49781
-553.87728
-537.97088
-518.7455
-496.21059
-470.42106
-441.47896
-409.5338
-374.78134
-337.46061
-297.8493
-256.25761
-213.0208
-168.49091
-123.02802
-76.991586
-30.73216
15.415926
61.140807
106.158
150.21393
193.08803
234.59364
274.57766
312.91935
349.52831
384.34198
417.32271
448.45469
477.74082
505.19959
530.86214
554.76953
576.9702
597.51773
616.46876
633.8813
649.81308
664.32021
677.45604
689.27007
699.80706
709.1056
717.19706
724.10713
729.86102
734.47839
737.95339
740.17863
741.07698
-1.4316218
-3.6331277
-5.8771247
-8.1598341
-10.493596
-12.890304
-15.361306
-17.91715
-20.567404
-23.320524
-26.18378
-29.163239
-32.263795
-35.489232
-38.842339
-42.325045
-45.938599
-49.683764
-53.56105
-57.570955
-61.714232
-65.992163
-70.406841
-74.961452
-79.660547
-84.510309
-89.518789
-94.696126
-100.05471
-105.60934
-111.37729
-117.37834
-123.63477
-130.17122
-137.01457
-144.19363
-151.73889
-159.68209
-168.05574
-176.89258
-186.22498
-196.08418
-206.4996
-217.49798
-229.10249
-241.33184
-254.19925
-267.71146
-281.86768
-296.65852
-312.06488
-328.05695
-344.59307
-361.6188
-379.06595
-396.85174
-414.87812
-433.03125
-451.18116
-469.18168
-486.87066
-504.07049
-520.58898
-536.22062
-550.7482
-563.94489
-575.57667
-585.40523
-593.19136
-598.69863
-601.69706
-601.96726
-599.30584
-593.53521
-584.50443
-572.09308
-556.21577
-536.82902
-513.93552
-487.5876
-457.88955
-424.99828
-389.12217
-350.51801
-309.48583
-266.36198
-221.5107
-175.31466
-128.16494
-80.451116
-32.55196
15.172882
62.389798
108.79658
154.12616
198.14867
240.67214
281.54184
320.63859
357.87625
393.19866
426.57626
458.0025
487.49026
515.06838
540.77838
564.6715
586.80595
607.2445
626.05236
643.29538
659.0384
673.34394
686.27105
697.87435
708.2032
717.30044
725.20142
731.93563
737.53206
742.01445
745.38238
747.53662
748.40583
-1.3310238
-3.4556045
-5.616342
-7.8192598
-10.076896
-12.401644
-14.805171
-17.29822
-19.890434
-22.590224
-25.404702
-28.33965
-31.399549
-34.587647
-37.906073
-41.35598
-44.93774
-48.651154
-52.495699
-56.470803
-60.57613
-64.811887
-69.179138
-73.680117
-78.318537
-83.099893
-88.031727
-93.123886
-98.388721
-103.84126
-109.49933
-115.38359
-121.51752
-127.92737
-134.64196
-141.69244
-149.11202
-156.93549
-165.19879
-173.93842
-183.19077
-192.99143
-203.37432
-214.37091
-226.00923
-238.31287
-251.29997
-264.98212
-279.36322
-294.43833
-310.19249
-326.59955
-343.62099
-361.20483
-379.28452
-397.77798
-416.58681
-435.5956
-454.67147
-473.66394
-492.40499
-510.70952
-528.37623
-545.18878
-560.91749
-575.32144
-588.15096
-599.15067
-608.06301
-614.63218
-618.60806
-619.7505
-617.8349
-612.6628
-604.06486
-591.90359
-576.07812
-556.53264
-533.26148
-506.31337
-475.79446
-441.86941
-404.76051
-364.74436
-322.14625
-277.33224
-230.69962
-182.66593
-133.65754
-84.098286
-34.39878
15.052899
63.898944
111.81767
158.52743
203.78865
247.4042
289.21831
329.11432
367.01159
402.86179
436.64494
468.36525
498.04707
525.73101
551.47028
575.3275
597.3717
617.6758
636.31442
653.36194
668.89095
682.97089
695.66701
707.03943
717.14244
726.02338
733.72177
740.27106
745.70391
750.04786
753.30723
755.39003
756.23
-1.2180852
-3.2596831
-5.3310775
-7.4484276
-9.6244142
-11.872017
-14.203316
-16.629325
-19.159816
-21.803194
-24.566418
-27.454972
-30.472893
-33.62284
-36.90621
-40.323296
-43.873493
-47.555522
-51.36771
-55.308276
-59.375657
-63.568844
-67.887725
-72.333446
-76.908748
-81.618309
-86.469055
-91.470451
-96.634734
-101.97712
-107.51596
-113.2728
-119.27239
-125.54263
-132.11442
-139.02141
-146.29969
-153.98737
-162.12407
-170.75034
-179.90695
-189.63417
-199.97088
-210.95367
-222.61587
-234.98645
-248.08897
-261.94034
-276.54968
-291.91703
-308.03206
-324.87282
-342.4044
-360.57771
-379.32826
-398.57504
-418.21954
-438.14496
-458.21559
-478.27654
-498.1537
-517.65415
-536.56689
-554.66404
-571.70255
-587.42627
-601.5686
-613.85559
-624.00962
-631.75367
-636.81539
-638.93167
-637.85417
-633.36069
-625.26116
-613.39848
-597.65375
-577.95653
-554.29087
-526.70055
-495.29294
-460.2408
-421.78162
-380.21416
-335.89222
-289.21569
-240.61951
-190.56107
-139.50697
-87.919912
-36.246546
15.093155
65.714503
115.27448
163.4758
210.06886
254.8517
297.66833
338.40585
376.99062
413.38381
447.57675
479.58617
509.44956
537.22083
562.96635
586.76137
608.68691
628.82704
647.2666
664.08925
679.37595
693.20358
705.644
716.76318
726.62065
735.26842
742.75035
749.10386
754.36524
758.56551
761.71313
763.7228
764.53293
-1.0997945
-3.0533357
-5.0291814
-7.054899
-9.1434571
-11.308537
-13.562728
-15.91739
-18.382485
-20.966441
-23.676079
-26.516573
-29.491483
-32.602822
-35.851184
-39.235911
-42.755308
-46.406898
-50.187715
-54.094628
-58.124689
-62.275513
-66.545655
-70.935011
-75.445196
-80.079935
-84.845405
-89.750577
-94.807487
-100.03149
-105.4414
-111.05966
-116.91234
-123.02906
-129.44291
-136.19019
-143.31007
-150.8442
-158.83619
-167.33093
-176.37395
-186.01058
-196.28507
-207.23961
-218.91329
-231.34099
-244.55218
-258.56968
-273.40837
-289.07383
-305.56094
-322.8525
-340.91776
-359.71106
-379.17043
-399.21632
-419.75048
-440.65492
-461.79123
-483.00009
-504.10114
-524.89324
-545.15518
-564.64683
-583.11079
-600.27456
-615.85325
-629.55274
-641.07361
-650.11554
-656.38182
-659.58394
-659.4471
-655.72222
-648.19573
-636.68813
-621.05954
-601.22213
-577.14729
-548.87213
-516.5044
-480.22509
-440.28826
-397.01743
-350.79865
-302.07033
-251.31042
-199.02188
-145.71723
-91.903409
-38.067796
15.333852
67.887021
119.22539
169.03503
217.05613
263.08241
306.95882
348.57776
387.87438
424.82134
459.42331
491.71149
521.73839
549.573
575.29637
598.99781
620.7715
640.7137
658.92035
675.48514
690.49796
704.04364
716.20104
727.04231
736.63242
745.02825
752.27805
758.42323
763.50356
767.55329
770.58457
772.51844
773.2977
-0.96890132
-2.8276968
-4.7011218
-6.6287517
-8.6238184
-10.700797
-12.872872
-15.151828
-17.547875
-20.069501
-22.723396
-25.514414
-28.445603
-31.518271
-34.732132
-38.085473
-41.575395
-45.198085
-48.949136
-52.823903
-56.817886
-60.927146
-65.148726
-69.481093
-73.924568
-78.481758
-83.157947
-87.961486
-92.904103
-98.0012
-103.27205
-108.73997
-114.43234
-120.3806
-126.62015
-133.19007
-140.13284
-147.49391
-155.3211
-163.66406
-172.57339
-182.09995
-192.29376
-203.20311
-214.87337
-227.34586
-240.65653
-254.83469
-269.90159
-285.86896
-302.73753
-320.49546
-339.11678
-358.55984
-378.76573
-399.65688
-421.13565
-443.08322
-465.35863
-487.79817
-510.21509
-532.39973
-554.12014
-575.12318
-595.13617
-613.86909
-631.01732
-646.26498
-659.28887
-669.76334
-677.3649
-681.7771
-682.69569
-679.84119
-672.97347
-661.88732
-646.41852
-626.45853
-601.96324
-572.96087
-539.55829
-501.94475
-460.39225
-415.25195
-366.94643
-315.95802
-262.81397
-208.06943
-152.28943
-96.031305
-39.828545
15.822949
70.475625
123.7378
175.27795
224.82607
272.17243
317.16435
359.70145
399.72987
437.23608
472.24041
504.79079
534.95687
562.82461
588.49147
612.06229
633.64571
653.35121
671.28675
687.55676
702.26065
715.49165
727.33599
737.87225
747.17102
755.29418
762.29439
768.21703
773.10521
776.99609
779.90523
781.75978
782.50678
-0.83005539
-2.5878692
-4.3516472
-6.1742734
-8.0693707
-10.052324
-12.137015
-14.335732
-16.658992
-19.115379
-21.71147
-24.451785
-27.338821
-30.373125
-33.55344
-36.876893
-40.339255
-43.935226
-47.658798
-51.503631
-55.463485
-59.532669
-63.706516
-67.981865
-72.357549
-76.834872
-81.418058
-86.114689
-90.936062
-95.897536
-101.01877
-106.32393
-111.84175
-117.60554
-123.6531
-130.02648
-136.77166
-143.93813
-151.57828
-159.74679
-168.4998
-177.89408
-187.98593
-198.83025
-210.47925
-222.98122
-236.37924
-250.70972
-266.00094
-282.27145
-299.52851
-317.76634
-336.96443
-357.0858
-378.07525
-399.85772
-422.33671
-445.39293
-468.88314
-492.63933
-516.46828
-540.15152
-563.44586
-586.08444
-607.77831
-628.21871
-647.07984
-664.0223
-678.69722
-690.75125
-699.83168
-705.59134
-707.69343
-705.82418
-699.71326
-689.12605
-673.87009
-653.81225
-628.88937
-599.11798
-564.60235
-525.53971
-482.22142
-435.02947
-384.42785
-330.94914
-275.17717
-217.72704
-159.22399
-100.28287
-41.489396
16.61549
73.547676
128.888
182.2865
233.46328
282.20634
328.36728
371.85529
412.63014
450.69483
486.08803
518.87697
549.15079
577.01452
602.5839
625.98087
647.32987
666.75473
684.37629
700.31043
714.66665
727.54701
739.04539
749.24703
758.22829
766.05607
772.78748
778.47176
783.15521
786.87767
789.6578
791.42879
792.14183
-0.6778263
-2.3271455
-3.9734301
-5.6837271
-7.4720625
-9.3548398
-11.346734
-13.460625
-15.707398
-18.095776
-20.632233
-23.320945
-26.163819
-29.160574
-32.308893