/*--------------------------------*- C++ -*----------------------------------*\
| =========                 |                                                 |
| \\      /  F ield         | foam-extend: Open Source CFD                    |
|  \\    /   O peration     | Version:     4.1                                |
|   \\  /    A nd           | Web:         http://www.foam-extend.org         |
|    \\/     M anipulation  |                                                 |
\*---------------------------------------------------------------------------*/
FoamFile
{
    version     2.0;
    format      ascii;
    class       surfaceScalarField;
    location    "0.4";
    object      phi;
}
// * * * * * * * * * * * * * * * * * * * * * * * * * * * * * * * * * * * * * //

dimensions      [0 3 -1 0 0 0 0];

internalField   nonuniform List<scalar> 
31929
(
-0.04264451
4.9404933e-05
-0.042701763
5.7253444e-05
-0.042761023
5.9260081e-05
-0.042821389
6.03652e-05
-0.042882535
6.1146524e-05
-0.042944363
6.1827986e-05
-0.043006845
6.2481938e-05
-0.043069981
6.3136325e-05
-0.04313378
6.3798827e-05
-0.043198251
6.4471196e-05
-0.043263401
6.5149189e-05
-0.043329229
6.5828702e-05
-0.043395732
6.6502495e-05
-0.043462897
6.716509e-05
-0.043530706
6.780882e-05
-0.043599134
6.8428515e-05
-0.043668152
6.90173e-05
-0.043737723
6.9571273e-05
-0.043807808
7.008515e-05
-0.043878365
7.0556966e-05
-0.043949349
7.0983592e-05
-0.044020714
7.1365458e-05
-0.044092416
7.1701944e-05
-0.044164412
7.1996109e-05
-0.044236662
7.2249965e-05
-0.044309131
7.2469189e-05
-0.04438179
7.265829e-05
-0.044454615
7.2825289e-05
-0.044527592
7.297679e-05
-0.044600714
7.3122627e-05
-0.044673985
7.3270838e-05
-0.044747417
7.3431932e-05
-0.044821033
7.3615806e-05
-0.044894864
7.3831192e-05
-0.044968953
7.4088635e-05
-0.045043348
7.4395564e-05
-0.045118109
7.4760902e-05
-0.045193299
7.5189877e-05
-0.045268988
7.5688671e-05
-0.045345247
7.6259219e-05
-0.045422151
7.6903949e-05
-0.045499771
7.7620683e-05
-0.045578178
7.8406801e-05
-0.045657434
7.9256079e-05
-0.045737594
8.016007e-05
-0.045818702
8.1107654e-05
-0.045900787
8.2085064e-05
-0.045983863
8.3076142e-05
-0.046067925
8.406212e-05
-0.046152948
8.5022136e-05
-0.046238881
8.5933311e-05
-0.046325652
8.6771082e-05
-0.046413161
8.7509491e-05
-0.046501283
8.8121783e-05
-0.046589864
8.8580456e-05
-0.046678722
8.8858093e-05
-0.046767649
8.8927684e-05
-0.046856413
8.8763176e-05
-0.046944753
8.8339958e-05
-0.047032388
8.7635589e-05
-0.047119018
8.6629947e-05
-0.047204324
8.5306087e-05
-0.047287975
8.3650553e-05
-0.047369629
8.1653841e-05
-0.047448939
7.9310787e-05
-0.04752556
7.6620863e-05
-0.047599149
7.3588603e-05
-0.047669372
7.0223462e-05
-0.047735912
6.6540227e-05
-0.047798471
6.255888e-05
-0.047856776
5.8304534e-05
-0.047910583
5.3807244e-05
-0.047959685
4.910182e-05
-0.048003912
4.4227178e-05
-0.048043138
3.9225955e-05
-0.048077282
3.4143787e-05
-0.04810631
2.9028654e-05
-0.048130241
2.3930338e-05
-0.04814914
1.8899497e-05
-0.048163127
1.398711e-05
-0.048172369
9.2418503e-06
-0.048177081
4.7115658e-06
-0.048177517
4.3607688e-07
-0.048173937
-3.5799697e-06
-0.048166603
-7.3337292e-06
-0.048155846
-1.0756998e-05
-0.048142071
-1.3775128e-05
-0.048125715
-1.635631e-05
-0.048107231
-1.8483326e-05
-0.048087083
-2.014788e-05
-0.048065734
-2.1348996e-05
-0.048043642
-2.2092165e-05
-0.048021253
-2.2388833e-05
-0.047998998
-2.2255723e-05
-0.047977284
-2.1714165e-05
-0.047956494
-2.0789353e-05
-0.047936985
-1.9509575e-05
-0.047919079
-1.7905461e-05
-0.04790307
-1.6009157e-05
-0.047889216
-1.3853706e-05
-0.047877744
-1.1472395e-05
-0.047868846
-8.8981342e-06
-0.047862683
-6.1628709e-06
-0.047859386
-3.2970313e-06
-0.047859054
-3.321689e-07
-0.047861742
2.6880837e-06
-0.047867474
5.7323204e-06
-0.047876269
8.7947856e-06
-0.047888135
1.1866413e-05
-0.047903066
1.4931208e-05
-0.04792104
1.7973193e-05
-0.047942017
2.0977256e-05
-0.047965946
2.3929021e-05
-0.04799276
2.6814084e-05
-0.048022377
2.9616631e-05
-0.048054694
3.2317872e-05
-0.048089592
3.4897991e-05
-0.048126924
3.7331637e-05
-0.04816648
3.9556164e-05
-0.048207871
4.1390767e-05
-0.048250442
4.257122e-05
-0.048293781
4.333889e-05
-0.048339381
4.5599509e-05
4.7709389e-05
-0.049026219
6.6629964e-05
-0.04904067
7.1704669e-05
-0.049055667
7.4256275e-05
-0.049071223
7.5921987e-05
-0.049087284
7.720724e-05
-0.049103812
7.8356008e-05
-0.049120801
7.9470363e-05
-0.049138259
8.0594219e-05
-0.049156201
8.1740997e-05
-0.049174643
8.2913175e-05
-0.049193597
8.4103518e-05
-0.049213072
8.5303743e-05
-0.04923307
8.650082e-05
-0.049253589
8.7683628e-05
-0.049274618
8.883806e-05
-0.049296143
8.9953309e-05
-0.049318142
9.1016528e-05
-0.04934059
9.2019085e-05
-0.049363456
9.2950957e-05
-0.049386706
9.3807025e-05
-0.049410303
9.4581231e-05
-0.049434211
9.5272915e-05
-0.04945839
9.5880742e-05
-0.049482803
9.6409041e-05
-0.049507414
9.6861524e-05
-0.049532193
9.7247577e-05
-0.04955711
9.7575781e-05
-0.049582145
9.7860142e-05
-0.049607282
9.8113417e-05
-0.049632512
9.8353272e-05
-0.049657837
9.8595427e-05
-0.049683264
9.8859327e-05
-0.049708812
9.9163692e-05
-0.049734507
9.9525852e-05
-0.049760383
9.9965425e-05
-0.049786485
0.00010049757
-0.049812864
0.00010113899
-0.049839574
0.0001019008
-0.04986668
0.00010279459
-0.049894246
0.00010382521
-0.04992234
0.00010499708
-0.049951026
0.00010630706
-0.049980369
0.00010775008
-0.050010428
0.00010931459
-0.050041252
0.00011098452
-0.050072883
0.00011273851
-0.050105348
0.00011454997
-0.050138659
0.00011638745
-0.050172811
0.00011821439
-0.050207779
0.00011998989
-0.050243515
0.00012166898
-0.050279947
0.00012320322
-0.050316979
0.00012454129
-0.050354487
0.00012563005
-0.050392321
0.00012641486
-0.050430304
0.000126841
-0.050468231
0.00012685444
-0.050505871
0.00012640292
-0.050542968
0.00012543693
-0.050579243
0.0001239111
-0.050614398
0.00012178467
-0.050648115
0.00011902309
-0.050680063
0.00011559871
-0.050709901
0.00011149176
-0.050737281
0.00010669109
-0.050761855
0.00010119486
-0.050783278
9.5011302e-05
-0.050801213
8.8158647e-05
-0.050815339
8.0665804e-05
-0.050825352
7.2572167e-05
-0.050830975
6.3927517e-05
-0.050831959
5.4791674e-05
-0.050828092
4.5234011e-05
-0.050819197
3.5332408e-05
-0.050805143
2.5172297e-05
-0.050785845
1.4845267e-05
-0.050761264
4.4480675e-06
-0.050731414
-5.9194593e-06
-0.050696357
-1.6157364e-05
-0.050656207
-2.6163011e-05
-0.050611131
-3.5834383e-05
-0.050561344
-4.507563e-05
-0.050507109
-5.3798787e-05
-0.050448772
-6.1916999e-05
-0.050386758
-6.934809e-05
-0.050321482
-7.6032576e-05
-0.050253334
-8.1923049e-05
-0.050182714
-8.6976692e-05
-0.050110033
-9.1163899e-05
-0.050035712
-9.4468522e-05
-0.049960174
-9.6887524e-05
-0.049883836
-9.8429857e-05
-0.049807109
-9.9115914e-05
-0.049730389
-9.8976216e-05
-0.049654052
-9.8050182e-05
-0.049578457
-9.6384731e-05
-0.049503934
-9.4032784e-05
-0.049430787
-9.105198e-05
-0.049359294
-8.7502839e-05
-0.0492897
-8.3447798e-05
-0.049222222
-7.8949769e-05
-0.049157049
-7.4071031e-05
-0.04909434
-6.8872271e-05
-0.049034225
-6.3412183e-05
-0.04897681
-5.7747035e-05
-0.048922196
-5.1925677e-05
-0.04887047
-4.5993955e-05
-0.048821677
-3.9998491e-05
-0.04877583
-3.3980239e-05
-0.048732924
-2.7974932e-05
-0.048692935
-2.2015079e-05
-0.048655828
-1.6130626e-05
-0.048621549
-1.0349656e-05
-0.048590035
-4.6998361e-06
-0.048561208
7.8942734e-07
-0.048534976
6.0857009e-06
-0.048511231
1.1153486e-05
-0.048489845
1.594528e-05
-0.048470637
2.0348566e-05
-0.048453354
2.4107428e-05
-0.048437786
2.7003989e-05
-0.048423856
2.940877e-05
-0.048409842
3.1584778e-05
2.4957774e-05
-0.049696997
7.577741e-05
-0.049704
7.8707497e-05
-0.049710751
8.1008011e-05
-0.049717727
8.2897787e-05
-0.049725075
8.4555182e-05
-0.049732839
8.6120114e-05
-0.049741035
8.7666068e-05
-0.04974967
8.9228848e-05
-0.049758747
9.0818116e-05
-0.049768267
9.2433371e-05
-0.049778227
9.4063747e-05
-0.049788621
9.5697276e-05
-0.049799437
9.7316752e-05
-0.04981066
9.8907243e-05
-0.049822273
0.0001004507
-0.049834253
0.00010193311
-0.049846575
0.00010333855
-0.049859212
0.00010465634
-0.049872136
0.00010587474
-0.049885317
0.00010698812
-0.049898726
0.00010799039
-0.049912335
0.00010888222
-0.049926119
0.00010966408
-0.049940053
0.00011034355
-0.04995412
0.00011092805
-0.049968304
0.00011143203
-0.049982598
0.00011186949
-0.049996999
0.00011226106
-0.050011512
0.00011262625
-0.050026149
0.00011299044
-0.05004093
0.00011337687
-0.050055884
0.00011381309
-0.050071046
0.00011432559
-0.050086459
0.00011493908
-0.050102174
0.00011568042
-0.050118247
0.0001165708
-0.050134741
0.00011763247
-0.05015172
0.00011888038
-0.050169255
0.00012032906
-0.050187414
0.00012198417
-0.050206266
0.00012384966
-0.050225879
0.0001259194
-0.050246312
0.00012818374
-0.050267622
0.00013062406
-0.050289852
0.00013321505
-0.050313038
0.00013592384
-0.050337198
0.00013871007
-0.050362337
0.00014152636
-0.05038844
0.00014431809
-0.050415475
0.00014702445
-0.050443385
0.00014957885
-0.050472091
0.00015190974
-0.050501492
0.00015394158
-0.050531458
0.00015559622
-0.050561836
0.00015679352
-0.050592449
0.00015745329
-0.050623091
0.00015749643
-0.050653534
0.00015684648
-0.050683528
0.00015543112
-0.050712801
0.00015318399
-0.050741062
0.00015004564
-0.050768005
0.00014596562
-0.05079331
0.00014090361
-0.050816649
0.0001348308
-0.050837689
0.00012773102
-0.050856095
0.00011960174
-0.050871539
0.00011045511
-0.050883699
0.00010031805
-0.050892266
8.9233082e-05
-0.050896952
7.7258165e-05
-0.050897491
6.4466535e-05
-0.050893645
5.0946271e-05
-0.050885211
3.6799586e-05
-0.05087202
2.2141274e-05
-0.050853945
7.0973092e-06
-0.050830903
-8.1969532e-06
-0.050802856
-2.3598138e-05
-0.050769818
-3.8958264e-05
-0.050731849
-5.4125589e-05
-0.050689063
-6.8949829e-05
-0.050641614
-8.328279e-05
-0.050589708
-9.6981748e-05
-0.050533594
-0.0001099124
-0.050473563
-0.00012194874
-0.050409933
-0.0001329775
-0.050343061
-0.00014290507
-0.050273329
-0.00015165444
-0.050201142
-0.0001591636
-0.050126917
-0.0001653892
-0.050051078
-0.00017030714
-0.049974054
-0.0001739125
-0.049896265
-0.00017621796
-0.049818128
-0.00017725325
-0.049740041
-0.0001770631
-0.049662386
-0.00017570553
-0.049585521
-0.0001732497
-0.04950978
-0.00016977372
-0.049435469
-0.00016536278
-0.049362866
-0.0001601063
-0.049292217
-0.00015409661
-0.04922374
-0.00014742673
-0.049157622
-0.00014018871
-0.049094022
-0.00013247219
-0.049033071
-0.00012436371
-0.048974873
-0.00011594482
-0.048919508
-0.00010729085
-0.048867029
-9.8472154e-05
-0.048817473
-8.9554793e-05
-0.048770855
-8.0598331e-05
-0.048727174
-7.1656292e-05
-0.048686412
-6.2776993e-05
-0.048648538
-5.4004729e-05
-0.048613507
-4.5380824e-05
-0.048581261
-3.6945599e-05
-0.04855173
-2.8740837e-05
-0.048524834
-2.0811168e-05
-0.048500474
-1.3206458e-05
-0.048478532
-5.9964793e-06
-0.048458858
6.7504229e-07
-0.048441324
6.5726057e-06
-0.048425924
1.1604721e-05
-0.048412351
1.5835819e-05
-0.048399043
1.8276644e-05
1.3034615e-05
-0.049748001
8.2727093e-05
-0.049754067
8.4773823e-05
-0.049759963
8.6903698e-05
-0.049766019
8.8954526e-05
-0.049772394
9.0929697e-05
-0.049779155
9.288151e-05
-0.049786335
9.4845762e-05
-0.049793948
9.6841683e-05
-0.049802
9.8870145e-05
-0.049810492
0.000100925
-0.049819418
0.00010299051
-0.049828772
0.00010505048
-0.049838538
0.00010708344
-0.049848702
0.00010907079
-0.049859242
0.00011099085
-0.049870136
0.00011282674
-0.049881357
0.00011455992
-0.049892879
0.00011617811
-0.049904672
0.0001176683
-0.049916709
0.00011902484
-0.049928961
0.00012024204
-0.049941401
0.00012132227
-0.049954005
0.00012226827
-0.049966752
0.00012309113
-0.049979627
0.0001238023
-0.049992616
0.00012442151
-0.050005715
0.0001249684
-0.050018924
0.00012547032
-0.050032252
0.00012595364
-0.050045713
0.00012645145
-0.05005933
0.00012699456
-0.050073136
0.0001276185
-0.050087168
0.00012835752
-0.050101472
0.00012924357
-0.050116102
0.00013031064
-0.050131117
0.00013158581
-0.050146582
0.00013309674
-0.050162563
0.00013486206
-0.050179133
0.00013689913
-0.050196363
0.00013921423
-0.050214325
0.00014181075
-0.050233085
0.00014467947
-0.050252707
0.00014780601
-0.050273247
0.00015116459
-0.050294753
0.00015472056
-0.050317259
0.00015842946
-0.050340785
0.00016223705
-0.050365339
0.00016607992
-0.050390906
0.00016988528
-0.050417454
0.00017357228
-0.050444928
0.00017705251
-0.050473249
0.00018023118
-0.050502316
0.00018300828
-0.050532
0.00018528039
-0.050562148
0.00018694156
-0.050592581
0.00018788578
-0.050623093
0.00018800849
-0.050653455
0.0001872086
-0.050683414
0.00018539045
-0.050712696
0.00018246621
-0.050741008
0.00017835715
-0.050768038
0.00017299636
-0.050793465
0.00016633027
-0.050816955
0.00015832043
-0.050838169
0.00014894512
-0.050856768
0.00013820058
-0.050872415
0.00012610245
-0.050884783
0.00011268594
-0.050893557
9.8006937e-05
-0.05089844
8.2141783e-05
-0.050899161
6.5187165e-05
-0.050895474
4.7259627e-05
-0.050887169
2.8494525e-05
-0.050874072
9.0439087e-06
-0.05085605
-1.0924985e-05
-0.050833014
-3.123256e-05
-0.050804923
-5.1688956e-05
-0.050771785
-7.2096748e-05
-0.050733656
-9.2254401e-05
-0.050690645
-0.0001119606
-0.05064291
-0.0001310175
-0.050590658
-0.00014923427
-0.05053414
-0.00016643028
-0.050473651
-0.00018243811
-0.05040952
-0.00019710824
-0.050342111
-0.00021031347
-0.050271817
-0.00022194893
-0.050199048
-0.00023193251
-0.05012423
-0.00024020692
-0.050047797
-0.00024674023
-0.049970184
-0.00025152602
-0.04989182
-0.00025458127
-0.049813128
-0.00025594571
-0.049734512
-0.00025567913
-0.049656358
-0.00025385901
-0.04957903
-0.00025057773
-0.049502864
-0.00024593953
-0.049428169
-0.00024005809
-0.049355223
-0.00023305264
-0.049284273
-0.00022504623
-0.049215537
-0.00021616273
-0.049149201
-0.00020652466
-0.049085422
-0.0001962513
-0.049024328
-0.00018545743
-0.048966022
-0.00017425097
-0.04891058
-0.00016273273
-0.048858056
-0.00015099643
-0.048808482
-0.00013912855
-0.048761873
-0.00012720752
-0.048718225
-0.00011530419
-0.04867752
-0.00010348226
-0.048639725
-9.1799838e-05
-0.048604795
-8.031079e-05
-0.048572673
-6.9066995e-05
-0.048543293
-5.8120831e-05
-0.048516578
-4.7527053e-05
-0.048492437
-3.7347341e-05
-0.048470762
-2.7670791e-05
-0.048451437
-1.865074e-05
-0.04843439
-1.0473678e-05
-0.048419592
-3.1934878e-06
-0.048406618
2.8612826e-06
-0.048394963
6.6217149e-06
5.1620222e-06
-0.049749158
8.8811036e-05
-0.049754999
9.061526e-05
-0.049760822
9.2726705e-05
-0.04976682
9.4952681e-05
-0.049773119
9.7228393e-05
-0.049779789
9.9551803e-05
-0.04978687
0.00010192683
-0.049794384
0.00010435495
-0.04980234
0.00010682611
-0.049810741
0.00010932679
-0.049819586
0.00011183519
-0.049828866
0.00011433009
-0.049838567
0.00011678521
-0.049848674
0.00011917785
-0.049859166
0.00012148237
-0.049870018
0.0001236788
-0.049881204
0.00012574576
-0.049892695
0.00012766915
-0.049904461
0.00012943461
-0.049916473
0.00013103628
-0.0499287
0.00013246883
-0.049941114
0.00013373629
-0.049953689
0.00013484357
-0.049966403
0.00013580536
-0.049979238
0.00013663717
-0.049992181
0.00013736411
-0.050005224
0.00013801158
-0.050018367
0.00013861385
-0.050031618
0.00013920438
-0.050044991
0.00013982422
-0.050058508
0.00014051204
-0.050072201
0.00014131171
-0.050086109
0.0001422656
-0.050100279
0.00014341328
-0.050114765
0.00014479629
-0.050129627
0.00014644799
-0.050144932
0.00014840189
-0.050160751
0.00015068071
-0.050177157
0.00015330499
-0.050194224
0.00015628205
-0.050212029
0.00015961499
-0.050230641
0.00016329178
-0.050250129
0.00016729356
-0.050270551
0.00017158751
-0.050291961
0.00017612973
-0.050314395
0.00018086415
-0.050337881
0.00018572257
-0.050362426
0.00019062536
-0.050388022
0.00019548131
-0.050414639
0.00020018913
-0.050442225
0.00020463818
-0.050470703
0.00020870986
-0.050499974
0.00021227907
-0.05052991
0.00021521643
-0.050560358
0.0002173894
-0.050591138
0.00021866535
-0.050622043
0.00021891337
-0.050652841
0.00021800685
-0.050683276
0.00021582591
-0.05071307
0.00021226031
-0.050741924
0.00020721116
-0.050769522
0.00020059427
-0.050795534
0.00019234202
-0.050819619
0.00018240564
-0.050841431
0.00017075722
-0.050860622
0.0001573913
-0.050876846
0.00014232664
-0.050889767
0.00012560652
-0.05089906
0.00010730015
-0.050904421
8.7502332e-05
-0.050905567
6.6333562e-05
-0.050902247
4.3939314e-05
-0.050894241
2.0488643e-05
-0.050881369
-3.8281042e-06
-0.050863491
-2.8802285e-05
-0.050840516
-5.4207961e-05
-0.050812398
-7.9807182e-05
-0.050779143
-0.00010535171
-0.050740809
-0.00013058851
-0.050697505
-0.00015526389
-0.050649394
-0.00017912856
-0.050596687
-0.00020194187
-0.050539641
-0.00022347624
-0.050478557
-0.00024352153
-0.050413776
-0.00026188994
-0.050345669
-0.00027842013
-0.050274639
-0.00029297913
-0.050201107
-0.00030546383
-0.050125512
-0.00031580264
-0.050048296
-0.00032395595
-0.049969906
-0.00032991629
-0.049890781
-0.00033370563
-0.049811352
-0.00033537465
-0.049732032
-0.0003349993
-0.049653213
-0.00033267774
-0.049575264
-0.0003285268
-0.049498526
-0.00032267816
-0.049423309
-0.00031527527
-0.049349893
-0.00030646831
-0.049278527
-0.00029641216
-0.049209427
-0.00028526252
-0.049142779
-0.00027317323
-0.049078736
-0.0002602938
-0.049017425
-0.00024676795
-0.048958946
-0.00023273069
-0.04890337
-0.00021830838
-0.048850749
-0.00020361795
-0.048801111
-0.00018876657
-0.048754467
-0.00017385135
-0.048710811
-0.00015895999
-0.048670122
-0.00014417091
-0.048632367
-0.00012955524
-0.0485975
-0.00011517813
-0.048565465
-0.00010110124
-0.048536201
-8.7385013e-05
-0.048509637
-7.4091198e-05
-0.048485695
-6.1289335e-05
-0.048464289
-4.9076455e-05
-0.048445346
-3.7593765e-05
-0.048428838
-2.6981709e-05
-0.048414715
-1.7317009e-05
-0.048402678
-9.1754586e-06
-0.048392865
-3.1914585e-06
-6.127252e-07
-0.049749256
9.4431824e-05
-0.04975491
9.6269008e-05
-0.049760666
9.8482351e-05
-0.049766635
0.00010092173
-0.04977291
0.00010350401
-0.049779556
0.00010619779
-0.049786613
0.00010898378
-0.049794106
0.0001118476
-0.049802048
0.00011476796
-0.049810444
0.00011772318
-0.049819293
0.00012068454
-0.049828588
0.00012362515
-0.049838317
0.00012651333
-0.049848461
0.00012932184
-0.049858999
0.00013202067
-0.049869906
0.00013458642
-0.049881155
0.00013699456
-0.049892715
0.00013922895
-0.049904554
0.00014127359
-0.04991664
0.00014312229
-0.049928941
0.00014476989
-0.049941427
0.00014622199
-0.049954069
0.00014748569
-0.049966843
0.00014857922
-0.049979728
0.00014952225
-0.049992709
0.00015034541
-0.050005778
0.00015108003
-0.050018931
0.00015176755
-0.050032176
0.00015244883
-0.050045525
0.00015317325
-0.050059
0.00015398774
-0.050072634
0.00015494497
-0.050086464
0.00015609591
-0.050100539
0.0001574883
-0.050114915
0.00015917174
-0.050129653
0.00016118646
-0.050144823
0.00016357229
-0.050160499
0.00016635664
-0.050176758
0.00016956371
-0.050193678
0.00017320231
-0.050211339
0.00017727565
-0.050229816
0.00018176928
-0.050249183
0.00018666005
-0.050269504
0.00019190833
-0.050290835
0.00019746107
-0.050313221
0.00020325054
-0.050336693
0.00020919446
-0.050361265
0.00021519679
-0.050386931
0.00022114751
-0.050413666
0.00022692447
-0.050441422
0.00023239419
-0.050470126
0.00023741361
-0.050499679
0.00024183174
-0.050529955
0.00024549239
-0.050560801
0.00024823549
-0.050592036
0.00024990073
-0.050623453
0.00025032982
-0.050654815
0.00024936953
-0.050685864
0.00024687458
-0.050716315
0.00024271126
-0.050745863
0.00023675945
-0.050774185
0.00022891658
-0.050800943
0.00021910003
-0.050825788
0.00020724986
-0.050848362
0.0001933312
-0.050868307
0.00017733628
-0.050885267
0.00015928651
-0.050898893
0.00013923298
-0.050908851
0.00011725808
-0.050914824
9.3475231e-05
-0.050916519
6.8029136e-05
-0.050913675
4.109465e-05
-0.050906061
1.2875151e-05
-0.05089349
-1.6399733e-05
-0.050875814
-4.6478273e-05
-0.050852934
-7.7087793e-05
-0.050824802
-0.00010793927
-0.050791421
-0.00013873234
-0.050752849
-0.00016916033
-0.050709198
-0.00019891532
-0.050660632
-0.00022769445
-0.050607369
-0.00025520519
-0.050549674
-0.00028117103
-0.050487858
-0.00030533705
-0.050422273
-0.00032747534
-0.050353303
-0.00034738957
-0.050281364
-0.00036491805
-0.050206892
-0.00037993605
-0.050130337
-0.00039235741
-0.050052158
-0.00040213501
-0.049972814
-0.00040926092
-0.049892756
-0.00041376304
-0.049812427
-0.00041570415
-0.049732248
-0.00041517777
-0.049652622
-0.00041230428
-0.049573922
-0.00040722661
-0.049496495
-0.00040010551
-0.049420654
-0.00039111579
-0.049346682
-0.00038044016
-0.049274828
-0.00036826669
-0.049205306
-0.00035478417
-0.0491383
-0.00034017881
-0.049073963
-0.00032463127
-0.049012416
-0.00030831488
-0.048953754
-0.0002913923
-0.048898047
-0.00027401568
-0.04884534
-0.00025632527
-0.048795657
-0.00023844917
-0.048749005
-0.00022050312
-0.048705374
-0.00020259138
-0.048664738
-0.00018480669
-0.048627061
-0.00016723255
-0.048592294
-0.00014994459
-0.048560383
-0.00013301297
-0.048531263
-0.00011650459
-0.048504868
-0.00010048629
-0.048481126
-8.5031855e-05
-0.048459965
-7.0236916e-05
-0.048441338
-5.6220904e-05
-0.048425228
-4.3091474e-05
-0.048411595
-3.0950676e-05
-0.048400312
-2.0458009e-05
-0.048391761
-1.1741983e-05
-5.284186e-06
-0.049751433
9.9727834e-05
-0.04975689
0.00010172537
-0.049762532
0.00010412407
-0.049768428
0.00010681828
-0.049774649
0.0001097253
-0.049781251
0.000112799
-0.049788271
0.00011600406
-0.049795736
0.00011931292
-0.049803662
0.00012269363
-0.049812055
0.00012611606
-0.049820914
0.00012954409
-0.049830234
0.00013294455
-0.04984
0.00013627989
-0.049850196
0.0001395178
-0.049860799
0.0001426235
-0.049871782
0.00014556973
-0.049883116
0.00014832847
-0.049894768
0.00015088121
-0.049906705
0.00015321006
-0.049918891
0.00015530825
-0.049931292
0.00015717064
-0.049943874
0.00015880429
-0.049956607
0.00016021838
-0.049969462
0.00016143477
-0.049982417
0.00016247736
-0.049995454
0.00016338241
-0.050008562
0.00016418748
-0.050021736
0.00016494146
-0.05003498
0.00016569296
-0.050048307
0.00016650017
-0.050061738
0.00016741877
-0.050075304
0.00016851082
-0.050089044
0.00016983646
-0.050103008
0.00017145225
-0.050117253
0.00017341651
-0.050131843
0.00017577702
-0.050146852
0.00017858063
-0.050162355
0.00018186002
-0.050178435
0.00018564369
-0.050195175
0.00018994251
-0.05021266
0.00019476032
-0.050230971
0.0002000806
-0.050250188
0.00020587632
-0.05027038
0.0002121012
-0.050291612
0.00021869316
-0.050313935
0.00022557282
-0.050337384
0.00023264367
-0.05036198
0.00023979295
-0.050387724
0.00024689142
-0.050414595
0.0002537955
-0.050442549
0.00026034823
-0.050471517
0.00026638122
-0.050501402
0.00027171669
-0.05053208
0.00027617055
-0.050563398
0.00027955407
-0.050595176
0.00028167804
-0.050627201
0.00028235547
-0.050659237
0.00028140516
-0.050691017
0.00027865513
-0.050722253
0.00027394682
-0.050752631
0.00026713753
-0.05078182
0.00025810509
-0.05080947
0.00024675071
-0.050835223
0.00023300219
-0.050858708
0.0002168168
-0.050879556
0.0001981837
-0.050897395
0.00017712638
-0.050911866
0.00015370341
-0.050922618
0.00012801025
-0.050929322
0.00010017905
-0.050931672
7.037915e-05
-0.050929393
3.8815391e-05
-0.050922244
5.7263542e-06
-0.050910025
-2.8618134e-05
-0.050892583
-6.3920811e-05
-0.05086981
-9.9860573e-05
-0.050841653
-0.0001360962
-0.050808113
-0.00017227262
-0.050769246
-0.00020802712
-0.050725166
-0.00024299504
-0.050676043
-0.00027681748
-0.050622101
-0.00030914761
-0.050563614
-0.00033965761
-0.050500906
-0.00036804545
-0.05043434
-0.00039404101
-0.050364318
-0.00041741155
-0.050291271
-0.00043796567
-0.05021565
-0.00045555626
-0.050137925
-0.00047008238
-0.050058571
-0.00048148964
-0.049978061
-0.00048977035
-0.049896865
-0.00049495944
-0.049815436
-0.00049713332
-0.049734209
-0.00049640473
-0.049653595
-0.00049291818
-0.049573977
-0.00048684468
-0.049495706
-0.00047837608
-0.049419101
-0.00046772047
-0.049344447
-0.00045509493
-0.049271991
-0.00044072243
-0.049201949
-0.00042482632
-0.049134501
-0.00040762648
-0.049069797
-0.00038933577
-0.049007954
-0.00037015797
-0.048949062
-0.00035028398
-0.048893186
-0.00032989198
-0.048840365
-0.0003091457
-0.04879062
-0.00028819416
-0.048743952
-0.00026717152
-0.048700345
-0.00024619816
-0.048659771
-0.00022538051
-0.04862219
-0.00020481362
-0.048587552
-0.00018458253
-0.0485558
-0.00016476456
-0.048526873
-0.00014543159
-0.048500706
-0.00012665375
-0.048477232
-0.00010850578
-0.048456392
-9.1076476e-05
-0.04843815
-7.4463855e-05
-0.048422486
-5.875534e-05
-0.048409376
-4.4060412e-05
-0.048398797
-3.1036455e-05
-0.048391143
-1.9396156e-05
-9.3074887e-06
-0.049755296
0.00010476763
-0.049760558
0.0001069871
-0.049766062
0.00010962828
-0.049771859
0.00011261532
-0.049778004
0.00011587043
-0.049784545
0.00011934015
-0.049791519
0.000122978
-0.049798952
0.00012674565
-0.049806859
0.0001306013
-0.04981525
0.00013450643
-0.049824123
0.00013841721
-0.049833472
0.00014229378
-0.049843284
0.0001460922
-0.049853541
0.00014977464
-0.049864219
0.00015330108
-0.049875289
0.00015664002
-0.04988672
0.00015975953
-0.049898477
0.00016263839
-0.049910524
0.00016525654
-0.049922822
0.00016760636
-0.049935334
0.00016968256
-0.049948023
0.0001714935
-0.049960855
0.00017305045
-0.049973799
0.00017437887
-0.049986829
0.00017550698
-0.049999923
0.00017647693
-0.050013069
0.00017733271
-0.050026258
0.00017813104
-0.050039494
0.00017892874
-0.050052787
0.0001797933
-0.050066158
0.00018078975
-0.050079637
0.00018199016
-0.050093266
0.00018346458
-0.050107092
0.00018527911
-0.050121177
0.00018750157
-0.050135589
0.00019018805
-0.050150401
0.00019339319
-0.050165697
0.00019715573
-0.050181562
0.00020150915
-0.050198087
0.00020646704
-0.050215361
0.00021203444
-0.050233474
0.00021819328
-0.05025251
0.00022491299
-0.05027255
0.00023214094
-0.050293663
0.00023980612
-0.050315908
0.0002478175
-0.050339328
0.00025606416
-0.050363951
0.00026441629
-0.050389785
0.000272725
-0.050416814
0.00028082461
-0.050445
0.00028853386
-0.050474277
0.00029565809
-0.050504552
0.00030199163
-0.050535702
0.00030732129
-0.050567577
0.00031142832
-0.050599992
0.00031409315
-0.050632735
0.00031509861
-0.050665564
0.00031423395
-0.050698207
0.00031129888
-0.050730369
0.0003061084
-0.050761727
0.00029849567
-0.050791939
0.00028831746
-0.050820646
0.00027545736
-0.050847473
0.00025982968
-0.050872039
0.00024138272
-0.050893957
0.00022010166
-0.050912842
0.00019601141
-0.050928317
0.00016917752
-0.050940015
0.00013970838
-0.050947591
0.00010775503
-0.050950723
7.3511843e-05
-0.050949122
3.7214349e-05
-0.050942533
-8.6258307e-07
-0.050930744
-4.0407213e-05
-0.050913589
-8.1075609e-05
-0.050890955
-0.0001224955
-0.050862779
-0.00016427127
-0.050829061
-0.0002059906
-0.050789857
-0.00024723182
-0.050745281
-0.00028757058
-0.05069551
-0.00032658894
-0.050640775
-0.00036388276
-0.050581362
-0.00039907003
-0.050517609
-0.00043179889
-0.050449895
-0.00046175469
-0.05037864
-0.00048866648
-0.050304294
-0.00051231185
-0.05022733
-0.0005325205
-0.050148236
-0.00054917647
-0.050067507
-0.00056221844
-0.049985637
-0.00057163984
-0.049903113
-0.00057748405
-0.049820403
-0.00057984281
-0.049737958
-0.00057885024
-0.049656199
-0.00057467726
-0.049575518
-0.00056752537
-0.049496274
-0.0005576199
-0.04941879
-0.00054520462
-0.049343352
-0.00053053316
-0.049270209
-0.00051386541
-0.049199574
-0.00049546107
-0.049131625
-0.00047557521
-0.049066507
-0.00045445411
-0.049004332
-0.00043233303
-0.048945184
-0.00040943178
-0.048889121
-0.000385955
-0.048836177
-0.00036209011
-0.048786364
-0.00033800705
-0.048739677
-0.00031385821
-0.048696096
-0.00028977963
-0.048655585
-0.00026589079
-0.048618101
-0.00024229741
-0.048583591
-0.00021909278
-0.048551996
-0.00019635999
-0.048523253
-0.00017417429
-0.0484973
-0.00015260695
-0.048474075
-0.00013173023
-0.048453529
-0.0001116227
-0.04843563
-9.2363222e-05
-0.048420361
-7.4023728e-05
-0.048407719
-5.6702373e-05
-0.048397725
-4.1031051e-05
-0.048390704
-2.6417493e-05
-1.2921052e-05
-0.049760872
0.00010955932
-0.04976593
0.00011204445
-0.049771273
0.00011497129
-0.049776943
0.00011828559
-0.049782987
0.00012191479
-0.049789449
0.00012580145
-0.049796362
0.00012989091
-0.049803752
0.00013413579
-0.049811636
0.0001384852
-0.049820022
0.00014289235
-0.04982891
0.00014730549
-0.049838294
0.00015167764
-0.04984816
0.00015595804
-0.049858488
0.00016010287
-0.049869253
0.00016406638
-0.049880425
0.00016781233
-0.04989197
0.0001713045
-0.049903851
0.00017451856
-0.049916026
0.0001774319
-0.049928455
0.00018003582
-0.049941098
0.00018232462
-0.049953912
0.00018430786
-0.04996686
0.00018599879
-0.049979908
0.00018742653
-0.049993025
0.00018862375
-0.050006186
0.00018963866
-0.050019376
0.00019052202
-0.050032583
0.0001913388
-0.050045809
0.00019215452
-0.050059062
0.00019304658
-0.050072363
0.00019409003
-0.05008574
0.0001953677
-0.050099236
0.00019696036
-0.050112901
0.00019894453
-0.050126798
0.0002013984
-0.050140998
0.00020438729
-0.050155579
0.00020797453
-0.050170629
0.00021220578
-0.05018624
0.00021712035
-0.050202508
0.00022273529
-0.050219531
0.00022905754
-0.050237406
0.00023606803
-0.050256226
0.00024373312
-0.05027608
0.00025199414
-0.050297045
0.00026077129
-0.050319189
0.00026996189
-0.050342565
0.00027944044
-0.050367209
0.00028905971
-0.050393134
0.00029865058
-0.050420334
0.00030802455
-0.050448776
0.00031697515
-0.050478398
0.00032528037
-0.050509112
0.00033270536
-0.050540797
0.00033900643
-0.050573302
0.00034393324
-0.050606443
0.00034723424
-0.050640004
0.00034866028
-0.05067374
0.00034796926
-0.050707372
0.00034493073
-0.050740595
0.00033933141
-0.050773077
0.00033097851
-0.050804466
0.00031970596
-0.050834387
0.00030537816
-0.050862451
0.00028789443
-0.050888261
0.00026719281
-0.050911413
0.00024325344
-0.050931504
0.00021610182
-0.050948136
0.00018580999
-0.050960927
0.00015249903
-0.050969511
0.000116339
-0.050973549
7.7549812e-05
-0.050972733
3.6398481e-05
-0.050966793
-6.8025409e-06
-0.050955502
-5.1698082e-05
-0.050938682
-9.7895538e-05
-0.050916208
-0.00014496915
-0.050888014
-0.00019246605
-0.050854091
-0.0002399136
-0.050814494
-0.00028682788
-0.050769344
-0.00033272138
-0.050718819
-0.0003771135
-0.050663163
-0.00041953926
-0.050602674
-0.00045955904
-0.050537705
-0.00049676793
-0.050468655
-0.00053080402
-0.050395966
-0.00056135594