/*--------------------------------*- C++ -*----------------------------------*\
| =========                 |                                                 |
| \\      /  F ield         | foam-extend: Open Source CFD                    |
|  \\    /   O peration     | Version:     4.1                                |
|   \\  /    A nd           | Web:         http://www.foam-extend.org         |
|    \\/     M anipulation  |                                                 |
\*---------------------------------------------------------------------------*/
FoamFile
{
    version     2.0;
    format      ascii;
    class       volScalarField;
    location    "0.4";
    object      rAU;
}
// * * * * * * * * * * * * * * * * * * * * * * * * * * * * * * * * * * * * * //

dimensions      [0 0 1 0 0 0 0];

internalField   nonuniform List<scalar> 
16126
(
0.00013372317
0.00013356375
0.00013342996
0.00013329493
0.00013315778
0.00013302031
0.00013288097
0.00013274131
0.00013259969
0.00013245765
0.00013231354
0.00013216892
0.00013202216
0.00013187485
0.00013172542
0.00013157547
0.00013142347
0.00013127105
0.00013111671
0.00013096211
0.00013080576
0.00013064936
0.00013049142
0.00013033365
0.00013017457
0.00013001587
0.00012985607
0.00012969685
0.00012953671
0.00012937729
0.00012921707
0.00012905727
0.0001288979
0.00012873777
0.00012857844
0.00012841829
0.00012825883
0.00012809841
0.0001279385
0.00012777742
0.00012761664
0.00012745457
0.00012729212
0.00012712874
0.0001269644
0.000126799
0.00012663243
0.00012646475
0.00012629584
0.00012612574
0.0001259545
0.00012578224
0.00012560904
0.00012543523
0.00012526093
0.00012508647
0.00012491221
0.00012473855
0.00012456589
0.00012439485
0.00012422584
0.00012405947
0.00012389635
0.00012373708
0.00012358231
0.00012343264
0.0001232888
0.00012315132
0.00012302082
0.00012289786
0.00012278296
0.00012267655
0.00012257915
0.00012249098
0.00012241232
0.00012234335
0.00012228415
0.00012223467
0.00012219493
0.00012216459
0.00012214343
0.00012213106
0.00012212701
0.00012212701
0.00012213075
0.00012214181
0.00012215963
0.00012218347
0.00012221251
0.00012224587
0.00012228279
0.00012232227
0.00012236348
0.00012240555
0.00012244765
0.00012248899
0.00012252878
0.00012256642
0.00012260117
0.00012263247
0.00012265979
0.00012268269
0.00012270072
0.00012271367
0.00012272115
0.00012271904
0.00012270926
0.00012269359
0.00012267197
0.00012264451
0.00012261115
0.00012257199
0.00012252713
0.0001224767
0.00012242081
0.00012235979
0.00012229376
0.00012222304
0.00012214804
0.00012206951
0.00012198868
0.00012190644
0.00012181987
0.000121704
0.00012050887
0.00012044425
0.00012041369
0.00012038467
0.00012035468
0.00012032489
0.00012029361
0.00012026228
0.0001202293
0.00012019613
0.00012016121
0.000120126
0.00012008898
0.00012005164
0.00012001248
0.00011997302
0.00011993178
0.0001198903
0.00011984713
0.00011980383
0.00011975897
0.00011971413
0.00011966787
0.00011962178
0.00011957443
0.00011952741
0.00011947928
0.0001194316
0.00011938294
0.00011933482
0.00011928579
0.00011923698
0.00011918839
0.00011913888
0.00011908993
0.00011903998
0.00011899047
0.00011893984
0.00011888949
0.00011883783
0.00011878627
0.00011873331
0.00011867983
0.00011862532
0.00011856978
0.00011851314
0.00011845531
0.00011839639
0.00011833626
0.00011827501
0.0001182127
0.00011814947
0.00011808542
0.0001180209
0.00011795602
0.00011789115
0.00011782663
0.00011776286
0.00011770024
0.00011763937
0.00011758067
0.00011752471
0.00011747208
0.00011742337
0.00011737919
0.0001173401
0.00011730682
0.00011727982
0.0001172597
0.00011724698
0.00011724213
0.00011724554
0.0001172577
0.00011727877
0.00011730902
0.00011734857
0.00011739748
0.000117452
0.00011750136
0.00011755991
0.00011762759
0.00011770418
0.00011778934
0.00011787922
0.00011797345
0.0001180752
0.0001181839
0.00011829896
0.00011841974
0.00011854551
0.00011867567
0.00011880937
0.00011894588
0.00011908444
0.0001192243
0.00011936471
0.00011950494
0.00011964441
0.00011978236
0.00011991825
0.00012005152
0.00012018167
0.00012030822
0.00012043089
0.00012054922
0.00012065913
0.00012076228
0.00012086025
0.00012095287
0.00012104018
0.00012112204
0.0001211985
0.00012126959
0.00012133538
0.00012139593
0.00012144187
0.00012148266
0.00012151918
0.00012155188
0.00012158157
0.00012160909
0.00012163427
0.00012165664
0.00012167049
0.00011924784
0.0001192036
0.00011918811
0.00011917462
0.00011916042
0.00011914644
0.00011913093
0.00011911528
0.00011909792
0.00011908032
0.00011906096
0.00011904136
0.00011902003
0.0001189985
0.00011897532
0.00011895202
0.00011892718
0.00011890235
0.00011887611
0.00011885003
0.00011882268
0.00011879563
0.00011876747
0.00011873974
0.00011871102
0.00011868284
0.00011865376
0.00011862529
0.00011859595
0.00011856723
0.00011853762
0.00011850821
0.00011847895
0.00011844865
0.00011841872
0.00011838758
0.00011835662
0.00011832423
0.00011829177
0.00011825765
0.00011822321
0.00011818698
0.00011814981
0.00011811119
0.00011807112
0.00011802955
0.00011798641
0.00011794182
0.0001178957
0.00011784818
0.00011779936
0.00011774942
0.00011769854
0.00011764707
0.00011759523
0.0001175434
0.00011749198
0.00011744143
0.00011739218
0.00011734488
0.00011729996
0.00011725804
0.00011721971
0.00011718558
0.00011715625
0.00011713229
0.0001171144
0.00011710301
0.00011709869
0.00011710193
0.00011711314
0.00011713266
0.00011716089
0.00011719796
0.00011724403
0.00011729456
0.00011733183
0.00011737418
0.00011741104
0.00011745692
0.00011751194
0.00011757607
0.00011764915
0.00011773098
0.00011782124
0.00011791957
0.00011802546
0.00011813837
0.00011825768
0.00011838269
0.00011851279
0.00011864713
0.00011878495
0.00011892549
0.00011906795
0.00011921156
0.00011935553
0.00011949924
0.00011964189
0.00011978287
0.00011992157
0.00012005745
0.00012018998
0.00012031882
0.00012044347
0.00012056364
0.00012067904
0.00012078946
0.00012089465
0.0001209946
0.0001210891
0.00012117811
0.0001212616
0.00012133957
0.00012141201
0.00012146946
0.00012152129
0.00012156826
0.00012161059
0.00012163773
0.00012166158
0.00012168287
0.00012170396
0.00012171376
0.00011914038
0.00011910205
0.00011908876
0.00011907669
0.00011906369
0.00011905085
0.00011903644
0.00011902184
0.00011900549
0.00011898886
0.00011897044
0.00011895177
0.00011893137
0.00011891077
0.00011888855
0.00011886626
0.00011884247
0.00011881876
0.00011879371
0.00011876888
0.00011874288
0.00011871725
0.00011869059
0.00011866445
0.00011863738
0.00011861092
0.00011858362
0.00011855696
0.00011852947
0.0001185026
0.00011847485
0.00011844727
0.00011841979
0.00011839121
0.00011836293
0.00011833333
0.0001183038
0.0001182727
0.00011824139
0.00011820825
0.00011817464
0.00011813906
0.00011810236
0.00011806404
0.0001180241
0.00011798251
0.0001179392
0.00011789432
0.00011784781
0.00011779982
0.0001177505
0.00011770005
0.00011764868
0.00011759681
0.00011754468
0.00011749272
0.00011744139
0.00011739117
0.00011734256
0.00011729625
0.00011725271
0.00011721259
0.00011717653
0.00011714517
0.00011711914
0.00011709901
0.0001170855
0.00011707906
0.00011708024
0.00011708952
0.00011710731
0.0001171339
0.00011716967
0.00011721468
0.00011726253
0.00011728638
0.00011729669
0.00011731574
0.00011734397
0.00011738146
0.00011742842
0.0001174849
0.00011755083
0.00011762607
0.00011771036
0.00011780338
0.00011790466
0.00011801371
0.0001181299
0.00011825255
0.00011838105
0.00011851452
0.00011865222
0.00011879331
0.00011893699
0.00011908243
0.0001192288
0.00011937543
0.00011952146
0.00011966624
0.00011980911
0.00011994947
0.00012008673
0.00012022052
0.00012035029
0.00012047571
0.00012059645
0.00012071224
0.00012082284
0.00012092818
0.00012102802
0.0001211223
0.00012121098
0.00012129401
0.00012137135
0.00012144313
0.00012150925
0.00012156976
0.00012162455
0.00012166256
0.00012169541
0.00012171976
0.00012173711
0.00012173649
0.00011912684
0.00011909069
0.00011907796
0.00011906579
0.00011905243
0.0001190391
0.00011902414
0.00011900893
0.00011899194
0.00011897462
0.0001189555
0.00011893608
0.00011891493
0.00011889357
0.00011887059
0.00011884754
0.00011882302
0.0001187986
0.00011877287
0.00011874742
0.00011872083
0.00011869467
0.00011866753
0.00011864096
0.00011861352
0.00011858675
0.00011855918
0.0001185323
0.00011850463
0.00011847761
0.00011844972
0.00011842201
0.0001183944
0.00011836567
0.0001183372
0.00011830737
0.00011827754
0.00011824607
0.0001182143
0.0001181806
0.00011814633
0.00011810996
0.00011807236
0.00011803302
0.00011799194
0.0001179491
0.00011790444
0.00011785812
0.0001178101
0.00011776056
0.00011770967
0.00011765766
0.00011760479
0.0001175515
0.00011749809
0.00011744502
0.0001173928
0.00011734197
0.00011729306
0.00011724681
0.00011720375
0.00011716457
0.00011712994
0.00011710053
0.00011707702
0.00011706
0.0001170502
0.00011704809
0.00011705422
0.00011706906
0.000117093
0.00011712632
0.00011716935
0.00011722211
0.00011724349
0.00011723636
0.00011723765
0.00011724778
0.0001172673
0.00011729635
0.00011733527
0.00011738415
0.00011744302
0.00011751179
0.00011759027
0.00011767817
0.00011777509
0.00011788052
0.00011799389
0.0001181145
0.00011824173
0.00011837469
0.0001185126
0.00011865461
0.00011879986
0.00011894748
0.00011909658
0.00011924644
0.00011939617
0.00011954504
0.00011969234
0.00011983741
0.00011997964
0.00012011858
0.00012025365
0.00012038448
0.0001205107
0.00012063202
0.00012074814
0.00012085897
0.00012096427
0.00012106393
0.00012115789
0.00012124609
0.00012132846
0.00012140509
0.00012147584
0.00012154071
0.00012159952
0.00012165205
0.00012169817
0.00012173322
0.00012175639
0.0001217499
0.00011911671
0.0001190815
0.00011906905
0.00011905673
0.00011904294
0.00011902905
0.00011901343
0.00011899749
0.00011897971
0.00011896157
0.00011894158
0.00011892126
0.00011889918
0.0001188769
0.00011885298
0.000118829
0.00011880357
0.00011877826
0.00011875167
0.0001187254
0.00011869804
0.00011867117
0.00011864338
0.00011861621
0.00011858824
0.000118561
0.00011853301
0.00011850578
0.00011847779
0.0001184505
0.00011842237
0.00011839444
0.00011836661
0.00011833765
0.00011830893
0.00011827882
0.00011824864
0.00011821677
0.00011818451
0.00011815023
0.00011811525
0.00011807808
0.00011803954
0.00011799914
0.00011795688
0.00011791272
0.00011786664
0.00011781879
0.00011776916
0.00011771794
0.00011766534
0.00011761161
0.00011755705
0.00011750214
0.00011744721
0.00011739279
0.00011733942
0.00011728769
0.00011723819
0.0001171917
0.0001171488
0.00011711023
0.00011707671
0.00011704895
0.00011702765
0.00011701344
0.00011700708
0.00011700904
0.0001170199
0.0001170401
0.00011707003
0.00011710995
0.00011716016
0.00011721026
0.00011719447
0.00011717805
0.00011717008
0.00011717112
0.00011718177
0.0001172023
0.00011723311
0.0001172744
0.00011732624
0.00011738864
0.00011746144
0.00011754441
0.00011763718
0.00011773926
0.00011785008
0.00011796895
0.00011809524
0.00011822802
0.00011836648
0.00011850974
0.00011865688
0.00011880698
0.00011895912
0.0001191125
0.00011926618
0.00011941936
0.0001195713
0.00011972127
0.00011986861
0.00012001283
0.0001201533
0.0001202896
0.00012042135
0.0001205482
0.00012066985
0.00012078617
0.00012089689
0.00012100189
0.0001211011
0.00012119443
0.0001212818
0.00012136328
0.00012143872
0.00012150807
0.00012157116
0.0001216278
0.00012167779
0.00012172018
0.00012175384
0.00012175036
0.00011910365
0.00011906891
0.00011905662
0.00011904416
0.00011903002
0.00011901562
0.00011899938
0.00011898274
0.00011896419
0.00011894521
0.00011892434
0.00011890311
0.00011888008
0.00011885682
0.00011883193
0.00011880698
0.00011878058
0.00011875433
0.00011872683
0.00011869969
0.00011867152
0.00011864388
0.00011861538
0.00011858758
0.00011855904
0.00011853129
0.00011850287
0.00011847526
0.00011844695
0.00011841939
0.00011839103
0.0001183629
0.00011833489
0.00011830575
0.00011827682
0.00011824648
0.00011821602
0.0001181838
0.00011815111
0.00011811631
0.0001180807
0.00011804277
0.00011800334
0.00011796192
0.00011791849
0.00011787303
0.00011782551
0.0001177761
0.0001177248
0.00011767183
0.00011761742
0.00011756185
0.00011750544
0.00011744874
0.0001173921
0.0001173361
0.00011728133
0.00011722844
0.00011717807
0.00011713106
0.00011708802
0.00011704976
0.00011701705
0.00011699064
0.00011697127
0.00011695961
0.00011695643
0.00011696225
0.00011697763
0.00011700305
0.00011703886
0.00011708532
0.00011714269
0.00011717208
0.00011713831
0.00011711235
0.00011709492
0.00011708668
0.00011708833
0.00011710025
0.00011712291
0.0001171566
0.00011720147
0.0001172576
0.00011732488
0.00011740313
0.00011749199
0.00011759101
0.00011769961
0.00011781709
0.00011794281
0.00011807581
0.00011821523
0.00011836015
0.00011850959
0.0001186626
0.00011881816
0.00011897544
0.00011913342
0.00011929126
0.00011944813
0.00011960329
0.00011975598
0.0001199057
0.00012005176
0.00012019371
0.00012033113
0.00012046363
0.00012059089
0.00012071276
0.00012082895
0.00012093932
0.00012104377
0.00012114221
0.00012123455
0.00012132083
0.00012140089
0.00012147468
0.00012154204
0.00012160281
0.00012165675
0.00012170271
0.00012174034
0.00012174262
0.00011908801
0.00011905351
0.00011904129
0.0001190287
0.00011901423
0.00011899934
0.00011898251
0.00011896517
0.00011894584
0.00011892602
0.00011890425
0.00011888208
0.00011885807
0.00011883381
0.0001188079
0.00011878193
0.00011875453
0.00011872729
0.00011869885
0.0001186708
0.00011864176
0.00011861333
0.0001185841
0.00011855564
0.00011852652
0.00011849827
0.00011846941
0.00011844144
0.00011841284
0.00011838505
0.00011835651
0.00011832822
0.00011830008
0.00011827083
0.00011824178
0.00011821128
0.00011818063
0.00011814814
0.0001181151
0.00011807985
0.00011804368
0.00011800505
0.00011796478
0.00011792236
0.00011787779
0.00011783102
0.00011778204
0.00011773102
0.00011767799
0.00011762317
0.00011756681
0.00011750924
0.00011745082
0.0001173921
0.00011733352
0.00011727568
0.00011721924
0.00011716489
0.00011711333
0.00011706545
0.00011702194
0.00011698365
0.0001169514
0.000116926
0.00011690823
0.00011689881
0.00011689854
0.00011690796
0.00011692765
0.00011695809
0.00011699965
0.00011705256
0.00011711705
0.00011711899
0.00011707536
0.00011703954
0.00011701237
0.00011699459
0.00011698705
0.00011699018
0.00011700459
0.00011703063
0.00011706854
0.00011711845
0.00011718033
0.000117254
0.00011733917
0.00011743539
0.00011754207
0.00011765849
0.00011778399
0.00011791758
0.00011805835
0.00011820532
0.00011835747
0.00011851375
0.00011867311
0.00011883464
0.00011899725
0.00011916005
0.00011932215
0.00011948273
0.00011964102
0.00011979643
0.00011994825
0.00012009599
0.00012023919
0.00012037745
0.0001205104
0.00012063789
0.0001207596
0.00012087539
0.00012098514
0.00012108874
0.0001211861
0.00012127726
0.00012136205
0.00012144041
0.0001215122
0.00012157729
0.00012163543
0.00012168541
0.00012172758
0.00012173566
0.00011906976
0.00011903543
0.00011902324
0.0001190105
0.00011899572
0.00011898039
0.00011896297
0.00011894496
0.00011892485
0.00011890418
0.0001188815
0.00011885835
0.00011883333
0.00011880803
0.00011878106
0.00011875403
0.00011872557
0.00011869729
0.00011866785
0.00011863884
0.0001186089
0.00011857963
0.00011854964
0.00011852049
0.00011849076
0.00011846199
0.0001184327
0.00011840437
0.0001183755
0.0001183475
0.00011831881
0.00011829043
0.00011826222
0.00011823292
0.00011820382
0.00011817325
0.00011814248
0.00011810981
0.00011807652
0.0001180409
0.00011800424
0.00011796498
0.00011792394
0.00011788057
0.00011783487
0.0001177868
0.00011773634
0.00011768368
0.00011762884
0.00011757207
0.00011751365
0.00011745392
0.00011739329
0.00011733236
0.00011727158
0.00011721164
0.00011715323
0.00011709711
0.00011704403
0.00011699495
0.00011695062
0.00011691195
0.00011687982
0.00011685509
0.0001168386
0.00011683112
0.00011683349
0.00011684626
0.00011687006
0.00011690538
0.00011695257
0.00011701187
0.0001170835
0.00011706004
0.00011700617
0.00011696015
0.00011692292
0.00011689535
0.00011687837
0.00011687255
0.00011687857
0.00011689689
0.00011692783
0.00011697158
0.00011702817
0.00011709745
0.00011717916
0.00011727285
0.00011737794
0.00011749368
0.00011761936
0.00011775397
0.00011789653
0.000118046
0.00011820129
0.0001183613
0.00011852489
0.00011869108
0.00011885871
0.00011902683
0.00011919448
0.00011936079
0.00011952492
0.00011968626
0.00011984404
0.00011999773
0.00012014685
0.00012029096
0.00012042968
0.00012056283
0.00012069009
0.0001208113
0.00012092632
0.00012103507
0.00012113743
0.00012123345
0.00012132295
0.00012140589
0.00012148217
0.00012155167
0.00012161416
0.00012166846
0.00012171546
0.00012172923
0.00011904938
0.00011901516
0.00011900297
0.00011899008
0.00011897501
0.00011895923
0.00011894124
0.00011892254
0.00011890165
0.00011888011
0.00011885648
0.00011883233
0.00011880626
0.00011877987
0.00011875179
0.00011872364
0.00011869407
0.00011866471
0.00011863421
0.00011860419
0.0001185733
0.00011854315
0.00011851235
0.00011848249
0.00011845214
0.00011842283
0.00011839311
0.00011836444
0.00011833532
0.00011830715
0.00011827836
0.00011824994
0.00011822174
0.00011819246
0.00011816339
0.00011813284
0.00011810205
0.0001180693
0.00011803584
0.00011799995
0.00011796288
0.00011792306
0.00011788129
0.00011783701
0.00011779021
0.00011774083
0.00011768887
0.0001176345
0.00011757777
0.00011751893
0.00011745829
0.00011739623
0.00011733317
0.00011726977
0.00011720654
0.00011714419
0.00011708348
0.00011702523
0.00011697027
0.00011691961
0.00011687407
0.00011683463
0.00011680223
0.0001167778
0.00011676224
0.00011675636
0.00011676105
0.00011677691
0.0001168046
0.00011684461
0.00011689733
0.00011696296
0.00011704172
0.00011699525
0.00011693072
0.0001168741
0.00011682644
0.00011678874
0.00011676205
0.00011674704
0.0001167445
0.00011675499
0.00011677891
0.00011681653
0.0001168679
0.00011693295
0.00011701141
0.00011710285
0.00011720666
0.00011732208
0.00011744835
0.0001175844
0.0001177292
0.00011788163
0.00011804053
0.00011820472
0.00011837298
0.00011854425
0.00011871731
0.00011889112
0.00011906467
0.00011923703
0.00011940729
0.00011957481
0.00011973876
0.00011989859
0.00012005378
0.00012020387
0.00012034847
0.00012048738
0.00012062025
0.00012074693
0.00012086728
0.00012098121
0.0001210886
0.0001211895
0.00012128375
0.00012137132
0.00012145215
0.00012152615
0.00012159312
0.0001216519
0.00012170385
0.00012172319
0.00011902685
0.00011899275
0.00011898056
0.00011896753
0.00011895216
0.00011893594
0.00011891739
0.000118898
0.00011887632
0.00011885388
0.00011882928
0.00011880409
0.00011877692
0.00011874939
0.00011872015
0.00011869082
0.00011866008
0.00011862957
0.00011859795
0.00011856687
0.00011853498
0.00011850389
0.00011847225
0.00011844164
0.00011841064
0.0001183808
0.00011835064
0.00011832165
0.00011829229
0.00011826399
0.00011823516
0.00011820676
0.00011817864
0.00011814948
0.00011812054
0.00011809011
0.0001180594
0.00011802668
0.00011799316
0.00011795709
0.00011791971
0.00011787942
0.00011783699
0.00011779185
0.00011774397
0.0001176933
0.0001176398
0.00011758368
0.00011752497
0.00011746394
0.00011740094
0.00011733635
0.00011727066
0.00011720453
0.00011713854
0.00011707347
0.00011701012
0.00011694939
0.00011689216
0.00011683952
0.00011679236
0.00011675174
0.00011671867
0.00011669415
0.00011667915
0.00011667452
0.00011668123
0.00011669992
0.00011673127
0.00011677581
0.00011683394
0.00011690587
0.00011699179
0.00011692505
0.0001168494
0.00011678172
0.00011672323
0.00011667503
0.00011663829
0.00011661382
0.00011660252
0.00011660504
0.00011662187
0.00011665335
0.0001166996
0.00011676056
0.000116836
0.00011692546
0.00011702834
0.00011714383
0.00011727113
0.00011740908
0.00011755661
0.0001177125
0.00011787552
0.00011804438
0.00011821779
0.00011839462
0.00011857354
0.00011875345
0.00011893326
0.00011911199
0.00011928868
0.00011946262
0.00011963297
0.00011979912
0.00011996053
0.00012011672
0.00012026728
0.000120412
0.00012055053
0.0001206827
0.00012080839
0.00012092749
0.0001210399
0.00012114569
0.00012124469
0.00012133692
0.00012142233
0.00012150087
0.0001215724
0.00012163577
0.00012169269
0.00012171743
0.00011900249
0.00011896852
0.00011895632
0.00011894314
0.00011892748
0.00011891083
0.0001188917
0.00011887161
0.00011884912
0.00011882577
0.00011880015
0.00011877387
0.00011874555
0.00011871683
0.00011868636
0.00011865579
0.00011862381
0.00011859208
0.00011855928
0.00011852706
0.00011849411
0.00011846204
0.00011842952
0.00011839812
0.00011836645
0.00011833605
0.00011830545
0.00011827615
0.0001182466
0.00011821821
0.00011818938
0.00011816108
0.00011813311
0.00011810416
0.00011807546
0.00011804525
0.00011801475
0.00011798217
0.0001179487
0.00011791256
0.00011787497
0.00011783429
0.00011779127
0.00011774533
0.0001176964
0.00011764443
0.00011758937
0.00011753142
0.00011747064
0.0001174073
0.00011734175
0.00011727444
0.00011720584
0.00011713672
0.00011706766
0.00011699951
0.00011693314
0.00011686952
0.00011680959
0.00011675454
0.00011670532
0.00011666308
0.0001166289
0.00011660387
0.00011658901
0.00011658527
0.00011659366
0.00011661488
0.00011664966
0.00011669855
0.00011676198
0.00011684015
0.00011693326
0.0001168494
0.0001167621
0.00011668288
0.00011661308
0.00011655395
0.00011650679
0.00011647255
0.00011645223
0.0001164466
0.00011645624
0.00011648156
0.00011652274
0.00011657976
0.00011665239
0.00011674017
0.00011684248
0.00011695845
0.00011708722
0.00011722758
0.00011737835
0.00011753824
0.0001177059
0.00011787997
0.00011805905
0.00011824192
0.00011842717
0.00011861362
0.0001188001
0.00011898557
0.00011916901
0.00011934966
0.00011952664
0.00011969932
0.00011986712
0.00012002955
0.00012018618
0.0001203368
0.00012048103
0.00012061874
0.00012074979
0.00012087408
0.00012099151
0.00012110218
0.00012120594
0.00012130283
0.00012139283
0.00012147593
0.00012155206
0.00012162005
0.0001216819
0.00012171191
0.00011897633
0.00011894251
0.00011893033
0.00011891702
0.00011890107
0.00011888399
0.00011886428
0.00011884348
0.00011882014
0.00011879584
0.00011876917
0.00011874175
0.00011871223
0.00011868224
0.00011865047
0.00011861859
0.0001185853
0.00011855227
0.00011851821
0.00011848479
0.00011845071
0.0001184176
0.00011838414
0.00011835192
0.00011831955
0.00011828858
0.00011825755
0.00011822795
0.00011819823
0.0001181698
0.00011814105
0.00011811292
0.00011808521
0.00011805657
0.00011802821
0.00011799836
0.00011796818
0.00011793588
0.00011790259
0.00011786652
0.00011782883
0.00011778787
0.00011774435
0.00011769766
0.00011764772
0.00011759446
0.00011753782
0.00011747799
0.00011741504
0.00011734924
0.00011728098
0.00011721071
0.00011713897
0.00011706654
0.00011699407
0.00011692248
0.00011685269
0.00011678574
0.00011672268
0.00011666474
0.000116613
0.00011656865
0.0001165329
0.0001165069
0.00011649176
0.00011648851
0.00011649823
0.00011652168
0.00011655963
0.00011661269
0.0001166813
0.00011676569
0.00011686604
0.00011676861
0.0001166691
0.00011657777
0.00011649613
0.00011642558
0.00011636757
0.00011632318
0.00011629355
0.00011627955
0.00011628187
0.00011630099
0.00011633715
0.00011639036
0.0001164604
0.00011654681
0.00011664892
0.00011676581
0.00011689655
0.00011703984
0.00011719441
0.00011735886
0.00011753175
0.00011771159
0.0001178969
0.00011808633
0.00011827841
0.00011847185
0.00011866542
0.000118858
0.00011904852
0.00011923618
0.00011942005
0.00011959946
0.00011977381
0.00011994262
0.00012010541
0.00012026199
0.00012041199
0.00012055526
0.00012069167
0.00012082114
0.00012094359
0.00012105913
0.00012116763
0.00012126917
0.00012136375
0.00012145142
0.00012153215
0.00012160473
0.00012167145
0.00012170658
0.0001189486
0.00011891495
0.0001189028
0.00011888936
0.00011887313
0.00011885561
0.00011883531
0.00011881377
0.00011878957
0.00011876427
0.0001187365
0.00011870789
0.00011867709
0.00011864577
0.00011861263
0.00011857935
0.00011854466
0.00011851025
0.00011847485
0.00011844015
0.00011840487
0.00011837065
0.00011833619
0.0001183031
0.00011827
0.00011823845
0.00011820699
0.0001181771
0.00011814725
0.00011811883
0.00011809022
0.00011806234
0.00011803499
0.00011800677
0.00011797889
0.00011794952
0.00011791982
0.00011788793
0.00011785496
0.00011781909
0.00011778143
0.00011774029
0.00011769637
0.000117649
0.0001175981
0.00011754356
0.00011748531
0.00011742355
0.00011735831
0.00011728992
0.00011721875
0.00011714529
0.00011707012
0.00011699405
0.00011691782
0.00011684237
0.00011676873
0.00011669799
0.0001166313
0.00011656998
0.00011651518
0.00011646823
0.0001164304
0.00011640294
0.00011638706
0.00011638387
0.00011639454
0.00011641988
0.00011646074
0.00011651777
0.00011659145
0.00011668202
0.00011678966
0.00011668269
0.00011657031
0.00011646625
0.00011637219
0.00011628967
0.00011622033
0.00011616537
0.00011612608
0.00011610346
0.0001160983
0.00011611116
0.00011614233
0.00011619187
0.00011625955
0.0001163449
0.0001164472
0.00011656548
0.00011669871
0.00011684551
0.00011700447
0.00011717411
0.00011735284
0.00011753907
0.0001177312
0.00011792778
0.00011812721
0.00011832814
0.00011852926
0.00011872935
0.00011892731
0.00011912228
0.00011931329
0.00011949966
0.00011968075
0.00011985606
0.00012002513
0.00012018775
0.00012034356
0.00012049241
0.00012063419
0.00012076884
0.00012089629
0.00012101667
0.00012112989
0.00012123604
0.00012133519
0.00012142739
0.00012151269
0.00012158982
0.00012166132
0.00012170143
0.00011891937
0.00011888594
0.00011887383
0.00011886029
0.00011884378
0.00011882582
0.00011880491
0.00011878262
0.00011875751
0.00011873118
0.00011870225
0.00011867238
0.00011864024
0.0001186075
0.0001185729
0.00011853813
0.00011850195
0.00011846607
0.00011842924
0.00011839317
0.0001183566
0.00011832121
0.0001182857
0.00011825169
0.00011821782
0.00011818566
0.00011815377
0.00011812361
0.00011809367
0.00011806531
0.00011803692
0.0001180094
0.0001179825
0.00011795484
0.00011792757
0.00011789885
0.00011786977
0.00011783845
0.00011780597
0.00011777045
0.00011773296
0.00011769179
0.00011764757
0.00011759961
0.0001175478
0.000117492
0.00011743213
0.00011736836
0.00011730075
0.0001172296
0.00011715532
0.00011707843
0.00011699953
0.00011691949
0.00011683909
0.00011675936
0.00011668139
0.00011660637
0.00011653553
0.00011647028
0.00011641189
0.00011636178
0.00011632132
0.00011629188
0.00011627476
0.00011627117
0.00011628237
0.00011630925
0.00011635274
0.00011641353
0.00011649215
0.00011658886
0.00011670386
0.00011659185
0.00011646589
0.00011634842
0.00011624127
0.00011614618
0.00011606494
0.00011599893
0.00011594959
0.00011591805
0.0001159052
0.00011591171
0.00011593791
0.0001159839
0.00011604947
0.00011613409
0.00011623701
0.00011635718
0.00011649347
0.00011664438
0.0001168084
0.00011698388
0.00011716912
0.00011736241
0.00011756199
0.00011776631
0.00011797368
0.00011818262
0.00011839175
0.00011859979
0.00011880556
0.00011900816
0.00011920659
0.00011940013
0.00011958814
0.0001197701
0.00011994554
0.00012011427
0.00012027592
0.00012043037
0.00012057752
0.00012071733
0.00012084975
0.00012097493
0.00012109283
0.00012120355
0.0001213072
0.00012140389
0.0001214937
0.00012157531
0.00012165148
0.00012169645
0.00011888883
0.00011885564
0.00011884361
0.00011882996
0.00011881318
0.00011879477
0.00011877325
0.00011875017
0.00011872411
0.00011869669
0.00011866655
0.00011863534
0.00011860177
0.00011856754
0.00011853138
0.00011849502
0.00011845725
0.00011841979
0.00011838143
0.0001183439
0.00011830596
0.0001182693
0.00011823266
0.00011819768
0.00011816301
0.00011813022
0.00011809789
0.00011806748
0.00011803748
0.00011800925
0.00011798115
0.00011795408
0.00011792777
0.0001179008
0.00011787429
0.00011784637
0.00011781809
0.00011778753
0.00011775572
0.00011772071
0.00011768356
0.0001176425
0.0001175981
0.00011754965
0.00011749699
0.00011743996
0.00011737846
0.00011731263
0.00011724253
0.00011716847
0.00011709087
0.00011701027
0.00011692732
0.00011684294
0.00011675796
0.00011667349
0.00011659069
0.00011651085
0.00011643528
0.00011636553
0.00011630295
0.00011624907
0.0001162054
0.00011617341
0.00011615451
0.00011615003
0.00011616131
0.00011618935
0.00011623515
0.00011629948
0.0001163829
0.00011648572
0.00011660816
0.00011649614
0.00011635583
0.00011622417
0.0001161032
0.00011599486
0.00011590111
0.00011582351
0.00011576367
0.00011572286
0.00011570209
0.00011570213
0.00011572337
0.00011576595
0.00011582964
0.0001159139
0.0001160179
0.0001161405
0.00011628046
0.00011643615
0.00011660592
0.00011678797
0.00011698045
0.0001171815
0.00011738922
0.00011760195
0.00011781786
0.00011803537
0.00011825302
0.00011846945
0.00011868343
0.000118894
0.00011910012
0.00011930107
0.00011949617
0.00011968492
0.00011986684
0.00012004173
0.00012020926
0.00012036932
0.00012052182
0.00012066676
0.0001208041
0.00012093404
0.00012105655
0.00012117178
0.00012127987
0.00012138097
0.00012147521
0.00012156121
0.00012164195
0.00012169161
0.00011885708
0.00011882418
0.00011881225
0.00011879853
0.00011878149
0.00011876262
0.00011874046
0.00011871656
0.00011868952
0.00011866095
0.00011862952
0.0001185969
0.00011856181
0.00011852597
0.00011848815
0.0001184501
0.00011841062
0.00011837147
0.00011833147
0.00011829237
0.00011825295
0.00011821495
0.0001181771
0.00011814108
0.00011810556
0.00011807212
0.00011803934
0.00011800871
0.00011797868
0.00011795064
0.00011792293
0.00011789642
0.00011787083
0.0001178447
0.00011781913
0.00011779219
0.00011776491
0.0001177353
0.00011770434
0.00011767006
0.00011763343
0.00011759263
0.0001175482
0.00011749938
0.00011744596
0.00011738773
0.00011732458
0.00011725664
0.00011718394
0.00011710681
0.00011702567
0.00011694109
0.00011685376
0.00011676464
0.00011667464
0.00011658492
0.00011649676
0.00011641152
0.00011633062
0.00011625573
0.00011618831
0.00011613003
0.00011608251
0.00011604735
0.0001160261
0.00011602018
0.00011603106
0.00011605984
0.00011610762
0.00011617523
0.00011626331
0.0001163722
0.00011650214
0.00011639573
0.0001162402
0.00011609351
0.00011595792
0.00011583555
0.00011572859
0.0001156388
0.00011556794
0.00011551746
0.00011548851
0.00011548193
0.00011549821
0.00011553751
0.00011559958
0.00011568386
0.00011578943
0.00011591505
0.00011605935
0.00011622055
0.00011639682
0.00011658622
0.00011678673
0.00011699631
0.00011721292
0.00011743475
0.00011765984
0.00011788653
0.00011811323
0.00011833852
0.00011856111
0.00011877999
0.00011899411
0.00011920269
0.00011940507
0.00011960073
0.00011978921
0.00011997033
0.00012014377
0.00012030943
0.00012046726
0.00012061728
0.00012075949