/*--------------------------------*- C++ -*----------------------------------*\
| =========                 |                                                 |
| \\      /  F ield         | foam-extend: Open Source CFD                    |
|  \\    /   O peration     | Version:     4.1                                |
|   \\  /    A nd           | Web:         http://www.foam-extend.org         |
|    \\/     M anipulation  |                                                 |
\*---------------------------------------------------------------------------*/
FoamFile
{
    version     2.0;
    format      ascii;
    class       volVectorField;
    location    "0.4";
    object      U;
}
// * * * * * * * * * * * * * * * * * * * * * * * * * * * * * * * * * * * * * //

dimensions      [0 1 -1 0 0 0 0];

internalField   nonuniform List<vector> 
16126
(
(132.07466 -0.085874659 0)
(132.28772 -0.095867562 0)
(132.46641 -0.09840954 0)
(132.65219 -0.099814314 0)
(132.84059 -0.10082332 0)
(133.03121 -0.10170727 0)
(133.22389 -0.10255195 0)
(133.41859 -0.10338795 0)
(133.61533 -0.10422497 0)
(133.81414 -0.10506377 0)
(134.01505 -0.10590092 0)
(134.21806 -0.10673093 0)
(134.42318 -0.10754738 0)
(134.63038 -0.10834355 0)
(134.8396 -0.10911284 0)
(135.05079 -0.1098491 0)
(135.26386 -0.11054686 0)
(135.4787 -0.11120151 0)
(135.6952 -0.11180953 0)
(135.91323 -0.11236855 0)
(136.13265 -0.11287747 0)
(136.35333 -0.11333659 0)
(136.57512 -0.11374757 0)
(136.79788 -0.1141135 0)
(137.02149 -0.11443888 0)
(137.24583 -0.11472949 0)
(137.4708 -0.1149924 0)
(137.69631 -0.11523577 0)
(137.92231 -0.11546872 0)
(138.14877 -0.11570114 0)
(138.37567 -0.11594345 0)
(138.60305 -0.11620633 0)
(138.83095 -0.11650066 0)
(139.05946 -0.11683687 0)
(139.2887 -0.11722497 0)
(139.51882 -0.1176741 0)
(139.74996 -0.11819228 0)
(139.98234 -0.11878609 0)
(140.21614 -0.11946042 0)
(140.45161 -0.12021822 0)
(140.68896 -0.12106023 0)
(140.92842 -0.12198483 0)
(141.17022 -0.12298781 0)
(141.41456 -0.12406236 0)
(141.66162 -0.12519892 0)
(141.91156 -0.12638515 0)
(142.1645 -0.12760603 0)
(142.4205 -0.1288439 0)
(142.67959 -0.13007864 0)
(142.9417 -0.13128784 0)
(143.20674 -0.13244708 0)
(143.47451 -0.13353024 0)
(143.74474 -0.13450987 0)
(144.01709 -0.13535758 0)
(144.29111 -0.13604452 0)
(144.5663 -0.13654184 0)
(144.84205 -0.1368212 0)
(145.11767 -0.13685533 0)
(145.3924 -0.13661853 0)
(145.66539 -0.13608725 0)
(145.93575 -0.13524061 0)
(146.20251 -0.13406087 0)
(146.46465 -0.13253399 0)
(146.72114 -0.13065 0)
(146.97091 -0.12840342 0)
(147.21286 -0.12579356 0)
(147.44595 -0.12282483 0)
(147.6691 -0.11950686 0)
(147.88131 -0.11585462 0)
(148.08163 -0.11188839 0)
(148.26915 -0.10763372 0)
(148.44308 -0.10312117 0)
(148.60272 -0.098386044 0)
(148.74747 -0.093467909 0)
(148.87688 -0.088410217 0)
(148.99063 -0.083259865 0)
(149.08852 -0.078066129 0)
(149.17055 -0.072878507 0)
(149.23684 -0.067743715 0)
(149.28768 -0.062705179 0)
(149.32351 -0.057803301 0)
(149.34493 -0.053074004 0)
(149.35267 -0.048540426 0)
(149.34759 -0.044202105 0)
(149.33046 -0.040094175 0)
(149.3021 -0.036330353 0)
(149.26374 -0.03300793 0)
(149.21668 -0.030164701 0)
(149.16232 -0.027818601 0)
(149.10209 -0.02597687 0)
(149.03741 -0.024638434 0)
(148.96974 -0.023794942 0)
(148.90046 -0.023431496 0)
(148.83095 -0.023527393 0)
(148.7625 -0.024056887 0)
(148.69635 -0.02499002 0)
(148.63364 -0.026293457 0)
(148.57542 -0.027931338 0)
(148.52266 -0.029866048 0)
(148.4762 -0.032058907 0)
(148.4368 -0.034470709 0)
(148.4051 -0.037062294 0)
(148.38166 -0.039794372 0)
(148.36692 -0.04262726 0)
(148.36124 -0.045517891 0)
(148.36488 -0.048418968 0)
(148.37793 -0.05131046 0)
(148.40044 -0.05419371 0)
(148.43248 -0.057057378 0)
(148.47403 -0.059878919 0)
(148.52506 -0.062633772 0)
(148.58548 -0.065296087 0)
(148.65514 -0.067838003 0)
(148.73385 -0.070227672 0)
(148.8214 -0.072426185 0)
(148.91752 -0.074384066 0)
(149.02185 -0.076038464 0)
(149.13388 -0.077301576 0)
(149.25295 -0.078001631 0)
(149.37889 -0.077800174 0)
(149.51236 -0.076347836 0)
(149.65044 -0.07381276 0)
(149.77659 -0.069912933 0)
(149.87027 -0.05444538 0)
(151.94306 -0.12782755 0)
(152.00374 -0.14188392 0)
(152.04885 -0.14682389 0)
(152.09632 -0.14976512 0)
(152.14535 -0.15193424 0)
(152.19587 -0.15384598 0)
(152.24781 -0.15569416 0)
(152.30119 -0.15755438 0)
(152.35605 -0.15945209 0)
(152.41243 -0.1613893 0)
(152.47038 -0.16335637 0)
(152.52995 -0.16533741 0)
(152.59113 -0.16731335 0)
(152.65393 -0.16926369 0)
(152.71834 -0.17116773 0)
(152.78432 -0.17300546 0)
(152.8518 -0.17475834 0)
(152.92071 -0.17640984 0)
(152.99097 -0.17794607 0)
(153.06248 -0.17935617 0)
(153.13512 -0.1806327 0)
(153.20878 -0.18177196 0)
(153.28335 -0.18277417 0)
(153.35869 -0.18364363 0)
(153.4347 -0.18438871 0)
(153.51128 -0.1850218 0)
(153.58833 -0.1855591 0)
(153.66577 -0.18602037 0)
(153.74354 -0.18642854 0)
(153.82162 -0.18680919 0)
(153.89997 -0.18718997 0)
(153.97863 -0.18759994 0)
(154.05762 -0.18806899 0)
(154.13703 -0.18862668 0)
(154.21693 -0.18930168 0)
(154.29746 -0.19012081 0)
(154.37877 -0.19110811 0)
(154.46101 -0.192284 0)
(154.54438 -0.19366438 0)
(154.62907 -0.19525986 0)
(154.7153 -0.19707496 0)
(154.80326 -0.19910753 0)
(154.89316 -0.20134805 0)
(154.9852 -0.20377944 0)
(155.07953 -0.20637654 0)
(155.17632 -0.20910609 0)
(155.27566 -0.2119267 0)
(155.37762 -0.21478913 0)
(155.4822 -0.21763655 0)
(155.58938 -0.22040517 0)
(155.69902 -0.2230249 0)
(155.81095 -0.22542031 0)
(155.92492 -0.22751162 0)
(156.04057 -0.22921595 0)
(156.15749 -0.23044865 0)
(156.27516 -0.23112471 0)
(156.393 -0.23116037 0)
(156.51032 -0.23047469 0)
(156.62638 -0.2289912 0)
(156.74034 -0.22663963 0)
(156.8513 -0.22335745 0)
(156.95831 -0.21909155 0)
(157.06035 -0.21379968 0)
(157.15639 -0.20745186 0)
(157.24534 -0.2000316 0)
(157.32614 -0.19153694 0)
(157.39769 -0.18198132 0)
(157.45895 -0.17139409 0)
(157.50888 -0.15982091 0)
(157.5465 -0.14732375 0)
(157.57093 -0.13398066 0)
(157.58134 -0.11988523 0)
(157.577 -0.10514562 0)
(157.55732 -0.089883413 0)
(157.52181 -0.074232012 0)
(157.47014 -0.058334517 0)
(157.40211 -0.042340048 0)
(157.31769 -0.026399181 0)
(157.21699 -0.010666921 0)
(157.10029 0.0046877734 0)
(156.96801 0.019508183 0)
(156.82077 0.033648984 0)
(156.6593 0.046987552 0)
(156.48448 0.059436307 0)
(156.29756 0.070905026 0)
(156.09996 0.081256381 0)
(155.89284 0.090359367 0)
(155.67743 0.098135052 0)
(155.45499 0.10453452 0)
(155.22681 0.10953242 0)
(154.9942 0.11312446 0)
(154.75848 0.11532577 0)
(154.52093 0.11616928 0)
(154.28279 0.11570387 0)
(154.04528 0.11399239 0)
(153.80954 0.11110938 0)
(153.57662 0.10713883 0)
(153.34753 0.10217178 0)
(153.12315 0.096304071 0)
(152.9043 0.08963424 0)
(152.6917 0.082261608 0)
(152.48597 0.074284438 0)
(152.28765 0.065798717 0)
(152.0972 0.056898057 0)
(151.91497 0.047676986 0)
(151.74125 0.038231926 0)
(151.57638 0.028641399 0)
(151.42057 0.018956177 0)
(151.27388 0.0092244154 0)
(151.13633 -0.0005034399 0)
(151.00788 -0.0101803 0)
(150.88842 -0.019762847 0)
(150.77782 -0.029210545 0)
(150.6759 -0.038482908 0)
(150.58245 -0.047535245 0)
(150.49721 -0.056315482 0)
(150.41986 -0.064772014 0)
(150.34995 -0.072812577 0)
(150.28699 -0.080192248 0)
(150.23092 -0.086376307 0)
(150.18201 -0.090961813 0)
(150.13738 -0.09464143 0)
(150.08743 -0.096944857 0)
(150.02971 -0.079099191 0)
(154.04085 -0.14717195 0)
(154.07195 -0.15541896 0)
(154.09257 -0.16054178 0)
(154.11378 -0.1642597 0)
(154.13595 -0.16731139 0)
(154.15936 -0.17011373 0)
(154.18409 -0.17286312 0)
(154.21017 -0.17564477 0)
(154.23762 -0.17848776 0)
(154.26645 -0.18139195 0)
(154.29665 -0.18434145 0)
(154.3282 -0.18731164 0)
(154.36108 -0.19027333 0)
(154.39526 -0.19319526 0)
(154.43067 -0.19604593 0)
(154.46726 -0.19879498 0)
(154.50495 -0.20141431 0)
(154.54365 -0.20387903 0)
(154.5833 -0.20616836 0)
(154.62378 -0.20826619 0)
(154.66502 -0.21016186 0)
(154.70692 -0.21185045 0)
(154.74939 -0.21333326 0)
(154.79237 -0.2146179 0)
(154.83579 -0.21571839 0)
(154.87958 -0.216655 0)
(154.92373 -0.21745403 0)
(154.9682 -0.21814729 0)
(155.01301 -0.21877153 0)
(155.05818 -0.21936766 0)
(155.10376 -0.2199798 0)
(155.14983 -0.22065423 0)
(155.19648 -0.22143833 0)
(155.24383 -0.22237904 0)
(155.29204 -0.22352169 0)
(155.34127 -0.22490856 0)
(155.3917 -0.22657737 0)
(155.44353 -0.22855994 0)
(155.49697 -0.23088073 0)
(155.55225 -0.23355558 0)
(155.60957 -0.23659046 0)
(155.66914 -0.23998044 0)
(155.73117 -0.24370872 0)
(155.79584 -0.24774602 0)
(155.8633 -0.25205002 0)
(155.93368 -0.25656515 0)
(156.00706 -0.26122263 0)
(156.08349 -0.26594073 0)
(156.16294 -0.27062541 0)
(156.24535 -0.27517114 0)
(156.33057 -0.27946212 0)
(156.4184 -0.28337366 0)
(156.50857 -0.28677395 0)
(156.6007 -0.28952599 0)
(156.69438 -0.29148979 0)
(156.78907 -0.29252471 0)
(156.88419 -0.29249204 0)
(156.97907 -0.29125764 0)
(157.07295 -0.28869464 0)
(157.16504 -0.28468622 0)
(157.25446 -0.27912832 0)
(157.34027 -0.27193225 0)
(157.42151 -0.26302722 0)
(157.49716 -0.25236262 0)
(157.56621 -0.23991009 0)
(157.62761 -0.22566527 0)
(157.68032 -0.20964917 0)
(157.72335 -0.19190925 0)
(157.7557 -0.17251992 0)
(157.77644 -0.15158266 0)
(157.78472 -0.12922567 0)
(157.77975 -0.10560294 0)
(157.76084 -0.080892933 0)
(157.72742 -0.055296468 0)
(157.67902 -0.029033629 0)
(157.61531 -0.002338741 0)
(157.53611 0.024543211 0)
(157.44137 0.051346439 0)
(157.33121 0.077806086 0)
(157.20592 0.10366596 0)
(157.06589 0.12866255 0)
(156.91169 0.15254162 0)
(156.74403 0.17506316 0)
(156.56375 0.19600432 0)
(156.3718 0.21517777 0)
(156.16922 0.23244327 0)
(155.95717 0.2476813 0)
(155.73687 0.26078555 0)
(155.5096 0.27168072 0)
(155.27667 0.28032494 0)
(155.03941 0.28670909 0)
(154.79913 0.29085521 0)
(154.55714 0.29281415 0)
(154.3147 0.29266284 0)
(154.07303 0.29050099 0)
(153.83327 0.28644757 0)
(153.5965 0.28063701 0)
(153.36371 0.27321545 0)
(153.1358 0.26433699 0)
(152.9136 0.25416014 0)
(152.69781 0.24284451 0)
(152.48907 0.23054775 0)
(152.28791 0.21742273 0)
(152.09478 0.20361547 0)
(151.91004 0.18926366 0)
(151.73398 0.17449542 0)
(151.5668 0.15943601 0)
(151.40863 0.14420597 0)
(151.25957 0.12890998 0)
(151.11962 0.11363891 0)
(150.98876 0.098474088 0)
(150.86691 0.083488614 0)
(150.75395 0.068748917 0)
(150.64972 0.054317482 0)
(150.55404 0.040256239 0)
(150.46667 0.026626841 0)
(150.3873 0.013498142 0)
(150.31556 0.00095990275 0)
(150.25112 -0.010759878 0)
(150.19392 -0.021238807 0)
(150.14371 -0.030367469 0)
(150.09785 -0.03875062 0)
(150.05288 -0.045600262 0)
(150.01517 -0.037953751 0)
(154.20329 -0.16478631 0)
(154.22856 -0.16974125 0)
(154.2466 -0.17432078 0)
(154.26504 -0.1784228 0)
(154.28426 -0.18220213 0)
(154.30459 -0.18584871 0)
(154.32619 -0.18947963 0)
(154.34911 -0.19315056 0)
(154.37339 -0.19687705 0)
(154.39904 -0.20065018 0)
(154.42604 -0.20444668 0)
(154.45438 -0.20823498 0)
(154.48403 -0.21197937 0)
(154.51494 -0.21564255 0)
(154.54704 -0.21918785 0)
(154.58028 -0.22258064 0)
(154.61458 -0.22578981 0)
(154.64986 -0.22878879 0)
(154.68602 -0.23155661 0)
(154.72298 -0.23407861 0)
(154.76064 -0.23634723 0)
(154.79894 -0.23836241 0)
(154.83777 -0.24013202 0)
(154.87708 -0.24167193 0)
(154.9168 -0.24300604 0)
(154.9569 -0.24416602 0)
(154.99734 -0.24519086 0)
(155.03811 -0.24612619 0)
(155.07923 -0.24702348 0)
(155.12074 -0.24793891 0)
(155.16269 -0.24893218 0)
(155.20517 -0.25006504 0)
(155.24829 -0.2513998 0)
(155.29217 -0.25299753 0)
(155.33697 -0.25491637 0)
(155.38288 -0.25720966 0)
(155.43007 -0.25992408 0)
(155.47876 -0.26309784 0)
(155.52916 -0.26675886 0)
(155.5815 -0.27092314 0)
(155.63599 -0.27559317 0)
(155.69287 -0.28075669 0)
(155.75232 -0.2863854 0)
(155.81453 -0.29243431 0)
(155.87968 -0.29884096 0)
(155.94788 -0.30552531 0)
(156.01923 -0.31238975 0)
(156.09376 -0.3193196 0)
(156.17147 -0.32618388 0)
(156.25229 -0.33283652 0)
(156.33609 -0.33911796 0)
(156.42265 -0.34485705 0)
(156.5117 -0.34987332 0)
(156.60288 -0.35397965 0)
(156.69576 -0.35698513 0)
(156.78982 -0.35869824 0)
(156.88446 -0.35893023 0)
(156.97901 -0.35749864 0)
(157.07272 -0.35423099 0)
(157.16477 -0.34896843 0)
(157.25428 -0.34156936 0)
(157.34031 -0.33191305 0)
(157.42188 -0.31990297 0)
(157.49796 -0.30546994 0)
(157.56751 -0.28857491 0)
(157.62948 -0.2692114 0)
(157.68282 -0.24740746 0)
(157.72648 -0.22322702 0)
(157.75948 -0.19677088 0)
(157.78086 -0.16817672 0)
(157.78973 -0.1376188 0)
(157.7853 -0.10530704 0)
(157.76684 -0.071485156 0)
(157.73376 -0.036427329 0)
(157.68559 -0.00043373203 0)
(157.62198 0.036173979 0)
(157.54272 0.073042834 0)
(157.44776 0.10982377 0)
(157.33721 0.14615469 0)
(157.21131 0.18167324 0)
(157.07049 0.21602558 0)
(156.91531 0.24886977 0)
(156.74648 0.27987969 0)
(156.56486 0.30874792 0)
(156.37142 0.33519699 0)
(156.16722 0.35899469 0)
(155.95346 0.37995204 0)
(155.73138 0.39792038 0)
(155.50229 0.41279611 0)
(155.26751 0.4245218 0)
(155.02841 0.43308546 0)
(154.78632 0.43851849 0)
(154.54258 0.44089266 0)
(154.29845 0.44031626 0)
(154.05518 0.43692953 0)
(153.81393 0.43089974 0)
(153.57578 0.42241593 0)
(153.34174 0.41168364 0)
(153.1127 0.39891976 0)
(152.8895 0.38434761 0)
(152.67285 0.36819251 0)
(152.46337 0.35067771 0)
(152.2616 0.33202106 0)
(152.06797 0.31243185 0)
(151.88284 0.29210707 0)
(151.70649 0.27122853 0)
(151.53912 0.24996592 0)
(151.38086 0.22847862 0)
(151.23178 0.20691261 0)
(151.0919 0.18540063 0)
(150.96118 0.16406438 0)
(150.83954 0.14301693 0)
(150.72686 0.12236609 0)
(150.62298 0.10221935 0)
(150.52772 0.08268953 0)
(150.44085 0.063898602 0)
(150.36208 0.045985706 0)
(150.2911 0.029150129 0)
(150.22768 0.013735907 0)
(150.17169 0.00020488175 0)
(150.12256 -0.011215966 0)
(150.07822 -0.020070855 0)
(150.03824 -0.02474836 0)
(150.00981 -0.018460453 0)
(154.20841 -0.17669362 0)
(154.23167 -0.18054437 0)
(154.24938 -0.18488379 0)
(154.26762 -0.18928941 0)
(154.28663 -0.19367946 0)
(154.30671 -0.19809574 0)
(154.328 -0.2025812 0)
(154.35061 -0.20715406 0)
(154.37459 -0.21180863 0)
(154.39994 -0.21652131 0)
(154.42668 -0.22125687 0)
(154.45478 -0.2259729 0)
(154.48421 -0.23062351 0)
(154.51493 -0.23516189 0)
(154.54688 -0.23954259 0)
(154.57998 -0.2437232 0)
(154.61416 -0.247666 0)
(154.64933 -0.25133918 0)
(154.6854 -0.25471815 0)
(154.72228 -0.25778634 0)
(154.75987 -0.26053618 0)
(154.79809 -0.26296956 0)
(154.83684 -0.26509833 0)
(154.87605 -0.26694438 0)
(154.91567 -0.26853966 0)
(154.95563 -0.2699258 0)
(154.99591 -0.27115352 0)
(155.03649 -0.27228184 0)
(155.0774 -0.27337692 0)
(155.11865 -0.27451076 0)
(155.16031 -0.27575959 0)
(155.20246 -0.27720206 0)
(155.24521 -0.27891731 0)
(155.28869 -0.28098276 0)
(155.33306 -0.28347189 0)
(155.3785 -0.28645194 0)
(155.42521 -0.28998149 0)
(155.47339 -0.29410822 0)
(155.52329 -0.29886655 0)
(155.57512 -0.30427562 0)
(155.62911 -0.31033724 0)
(155.68551 -0.31703432 0)
(155.74452 -0.32432927 0)
(155.80634 -0.33216307 0)
(155.87115 -0.34045441 0)
(155.93909 -0.34909945 0)
(156.01026 -0.3579719 0)
(156.08472 -0.36692358 0)
(156.16246 -0.37578549 0)
(156.24343 -0.38436933 0)
(156.3275 -0.39246947 0)
(156.41448 -0.39986548 0)
(156.50409 -0.40632498 0)
(156.59597 -0.41160706 0)
(156.68971 -0.41546592 0)
(156.78477 -0.41765499 0)
(156.88056 -0.41793122 0)
(156.9764 -0.41605963 0)
(157.07153 -0.41181802 0)
(157.16511 -0.40500166 0)
(157.25626 -0.39542801 0)
(157.34402 -0.38294134 0)
(157.42738 -0.36741704 0)
(157.50529 -0.34876571 0)
(157.5767 -0.32693676 0)
(157.64053 -0.30192163 0)
(157.69568 -0.27375627 0)
(157.7411 -0.24252305 0)
(157.77577 -0.20835196 0)
(157.7987 -0.17142071 0)
(157.80898 -0.13195454 0)
(157.80578 -0.090225132 0)
(157.78836 -0.046547826 0)
(157.7561 -0.0012772403 0)
(157.7085 0.045199436 0)
(157.64521 0.09246128 0)
(157.566 0.14007353 0)
(157.47082 0.1875747 0)
(157.35977 0.23449547 0)
(157.2331 0.28036673 0)
(157.09124 0.32472708 0)
(156.93476 0.36713246 0)
(156.76441 0.40716433 0)
(156.58104 0.44443586 0)
(156.38565 0.47860066 0)
(156.17936 0.50936137 0)
(155.96337 0.53647239 0)
(155.73896 0.5597422 0)
(155.50747 0.57903712 0)
(155.27027 0.59428266 0)
(155.02874 0.60546272 0)
(154.78426 0.61261704 0)
(154.53819 0.61583738 0)
(154.29183 0.61526245 0)
(154.04643 0.61107206 0)
(153.80318 0.60348062 0)
(153.56318 0.59273029 0)
(153.32744 0.57908412 0)
(153.09687 0.56281931 0)
(152.87229 0.54422083 0)
(152.65443 0.5235756 0)
(152.44391 0.50116731 0)
(152.24124 0.47727212 0)
(152.04687 0.45215504 0)
(151.86114 0.42606647 0)
(151.68432 0.39923956 0)
(151.5166 0.37188978 0)
(151.35809 0.34421461 0)
(151.20886 0.31639246 0)
(151.06891 0.28858329 0)
(150.9382 0.26093036 0)
(150.81665 0.2335627 0)
(150.70413 0.2065986 0)
(150.60048 0.18015053 0)
(150.50553 0.15433062 0)
(150.41905 0.12925604 0)
(150.34081 0.10506333 0)
(150.27055 0.08195032 0)
(150.20813 0.060225882 0)
(150.15341 0.040244001 0)
(150.10585 0.022252471 0)
(150.06424 0.0074012612 0)
(150.02946 -0.0027210992 0)
(150.00711 -0.0045011133 0)
(154.20957 -0.19018042 0)
(154.23159 -0.19389096 0)
(154.24897 -0.19834239 0)
(154.26709 -0.20316056 0)
(154.28602 -0.20818377 0)
(154.30602 -0.21336829 0)
(154.32724 -0.21869978 0)
(154.34978 -0.22416113 0)
(154.3737 -0.22972403 0)
(154.39902 -0.23534896 0)
(154.42576 -0.24098823 0)
(154.45389 -0.24658883 0)
(154.48339 -0.25209558 0)
(154.5142 -0.25745336 0)
(154.54628 -0.26260951 0)
(154.57954 -0.26751553 0)
(154.61391 -0.27212893 0)
(154.64928 -0.27641456 0)
(154.68558 -0.2803461 0)
(154.72269 -0.28390696 0)
(154.76051 -0.28709135 0)
(154.79895 -0.28990487 0)
(154.83792 -0.29236496 0)
(154.87733 -0.29450104 0)
(154.91712 -0.29635442 0)
(154.95722 -0.29797785 0)
(154.9976 -0.29943483 0)
(155.03824 -0.3007985 0)
(155.07915 -0.3021504 0)
(155.12035 -0.30357875 0)
(155.16191 -0.30517658 0)
(155.2039 -0.30703952 0)
(155.24644 -0.30926348 0)
(155.28965 -0.311942 0)
(155.3337 -0.31516358 0)
(155.37878 -0.31900887 0)
(155.42508 -0.32354785 0)
(155.47284 -0.32883707 0)
(155.52228 -0.33491682 0)
(155.57365 -0.34180878 0)
(155.62719 -0.34951344 0)
(155.68315 -0.35800832 0)
(155.74176 -0.36724598 0)
(155.80323 -0.37715293 0)
(155.86776 -0.38762862 0)
(155.9355 -0.39854508 0)
(156.00657 -0.40974709 0)
(156.08104 -0.42105281 0)
(156.15893 -0.43225509 0)
(156.24019 -0.44312325 0)
(156.32471 -0.45340554 0)
(156.41229 -0.46283206 0)
(156.50269 -0.47111836 0)
(156.59554 -0.47796941 0)
(156.69042 -0.48308412 0)
(156.78681 -0.48616026 0)
(156.8841 -0.48689968 0)
(156.98161 -0.48501389 0)
(157.07856 -0.48022968 0)
(157.17412 -0.47229494 0)
(157.26737 -0.46098439 0)
(157.35733 -0.4461052 0)
(157.44298 -0.42750232 0)
(157.52324 -0.40506351 0)
(157.59701 -0.37872379 0)
(157.66319 -0.3484694 0)
(157.72067 -0.31434095 0)
(157.76833 -0.2764358 0)
(157.80513 -0.23490963 0)
(157.83005 -0.18997659 0)
(157.84214 -0.14190954 0)
(157.84053 -0.091038218 0)
(157.82446 -0.037745817 0)
(157.79328 0.017535921 0)
(157.74647 0.074332139 0)
(157.68364 0.13212309 0)
(157.60456 0.19036435 0)
(157.50917 0.24849009 0)
(157.39755 0.30592253 0)
(157.26997 0.36208258 0)
(157.12686 0.41639999 0)
(156.96881 0.46832407 0)
(156.79658 0.51733422 0)
(156.61106 0.56295033 0)
(156.41328 0.60474351 0)
(156.2044 0.64234484 0)
(155.98565 0.67545056 0)
(155.75836 0.70382595 0)
(155.52392 0.72730854 0)
(155.28373 0.74580934 0)
(155.03922 0.75931168 0)
(154.7918 0.76786815 0)
(154.54288 0.77159568 0)
(154.29379 0.77066935 0)
(154.0458 0.76531496 0)
(153.80014 0.75580093 0)
(153.5579 0.74242982 0)
(153.32012 0.72552967 0)
(153.08773 0.70544564 0)
(152.86153 0.68253215 0)
(152.64226 0.65714556 0)
(152.43053 0.62963778 0)
(152.22686 0.60035082 0)
(152.03167 0.56961222 0)
(151.84529 0.53773132 0)
(151.66799 0.50499692 0)
(151.49993 0.47167622 0)
(151.34122 0.43801405 0)
(151.19191 0.40423231 0)
(151.052 0.37053074 0)
(150.92141 0.33708851 0)
(150.80006 0.30406681 0)
(150.68782 0.27161226 0)
(150.58452 0.23986132 0)
(150.48997 0.2089446 0)
(150.40398 0.17899214 0)
(150.3263 0.15014793 0)
(150.25673 0.12260088 0)
(150.19516 0.096597547 0)
(150.14141 0.072368883 0)
(150.09509 0.050105767 0)
(150.05565 0.031075826 0)
(150.0245 0.015888136 0)
(150.00571 0.0062015462 0)
(154.21688 -0.20006879 0)
(154.23787 -0.20398214 0)
(154.25481 -0.20871604 0)
(154.27266 -0.21400021 0)
(154.2914 -0.21966119 0)
(154.31124 -0.22561137 0)
(154.33233 -0.23179603 0)
(154.35477 -0.23816721 0)
(154.37862 -0.2446735 0)
(154.40391 -0.25125724 0)
(154.43066 -0.25785556 0)
(154.45884 -0.26440211 0)
(154.48844 -0.27082963 0)
(154.5194 -0.27707207 0)
(154.55166 -0.28306693 0)
(154.58514 -0.28875712 0)
(154.61975 -0.29409296 0)
(154.65541 -0.29903367 0)
(154.692 -0.30354907 0)
(154.72941 -0.3076206 0)
(154.76755 -0.31124257 0)
(154.8063 -0.31442279 0)
(154.84556 -0.31718313 0)
(154.88524 -0.31955965 0)
(154.92526 -0.3216025 0)
(154.96556 -0.32337534 0)
(155.00609 -0.32495455 0)
(155.04682 -0.32642793 0)
(155.08776 -0.32789318 0)
(155.12893 -0.32945589 0)
(155.17039 -0.33122732 0)
(155.2122 -0.33332179 0)
(155.2545 -0.3358539 0)
(155.2974 -0.33893543 0)
(155.34107 -0.34267211 0)
(155.38571 -0.34716039 0)
(155.43154 -0.35248395 0)
(155.47877 -0.35871052 0)
(155.52766 -0.36588851 0)
(155.57847 -0.37404414 0)
(155.63146 -0.38317847 0)
(155.68688 -0.39326519 0)
(155.745 -0.40424827 0)
(155.80603 -0.41604068 0)
(155.8702 -0.42852314 0)
(155.93768 -0.44154373 0)
(156.00861 -0.45491798 0)
(156.08308 -0.46842971 0)
(156.16113 -0.48183253 0)
(156.24271 -0.49485191 0)
(156.32774 -0.50718812 0)
(156.41605 -0.51851971 0)
(156.50736 -0.52850772 0)
(156.60135 -0.53680041 0)
(156.69759 -0.54303868 0)
(156.79555 -0.54686182 0)
(156.89463 -0.54791385 0)
(156.99413 -0.54585 0)
(157.09327 -0.54034359 0)
(157.19118 -0.53109286 0)
(157.28694 -0.51782785 0)
(157.37954 -0.50031713 0)
(157.46792 -0.47837422 0)
(157.55098 -0.45186357 0)
(157.62758 -0.42070597 0)
(157.69659 -0.38488327 0)
(157.75683 -0.34444225 0)
(157.80718 -0.29949748 0)
(157.84653 -0.25023329 0)
(157.87382 -0.19690399 0)
(157.88807 -0.13983452 0)
(157.88836 -0.079417589 0)
(157.8739 -0.016109881 0)
(157.84399 0.049573202 0)
(157.7981 0.11706557 0)
(157.7358 0.18576091 0)
(157.65685 0.25500922 0)
(157.56117 0.32413502 0)
(157.44884 0.39244788 0)
(157.32014 0.45925517 0)
(157.17549 0.52387452 0)
(157.01552 0.58564696 0)
(156.841 0.64394956 0)
(156.65286 0.69820785 0)
(156.45217 0.74790797 0)
(156.24012 0.79260685 0)
(156.01801 0.83193967 0)
(155.78721 0.86562529 0)
(155.54916 0.89346985 0)
(155.30532 0.91536794 0)
(155.05717 0.93130108 0)
(154.80618 0.94133394 0)
(154.55378 0.94560838 0)
(154.30135 0.94433574 0)
(154.0502 0.93778795 0)
(153.80157 0.92628753 0)
(153.55661 0.91019734 0)
(153.31634 0.88991011 0)
(153.0817 0.86583838 0)
(152.85351 0.83840495 0)
(152.63251 0.80803426 0)
(152.41929 0.7751447 0)
(152.21436 0.74014208 0)
(152.01815 0.70341421 0)
(151.83096 0.66532655 0)
(151.65304 0.62621951 0)
(151.48455 0.58640676 0)
(151.32558 0.5461745 0)
(151.17615 0.50578141 0)
(151.03624 0.46545967 0)
(150.9058 0.425417 0)
(150.7847 0.38583975 0)
(150.6728 0.34689694 0)
(150.56994 0.30874513 0)
(150.47594 0.27153342 0)
(150.39059 0.23541059 0)
(150.31368 0.20053998 0)
(150.24503 0.16712102 0)
(150.18452 0.13538509 0)
(150.13198 0.1055456 0)
(150.08715 0.077836908 0)
(150.04982 0.053578715 0)
(150.0214 0.032471345 0)
(150.0049 0.015143721 0)
(154.2295 -0.21207592 0)
(154.24959 -0.21641539 0)
(154.26604 -0.22161088 0)
(154.28352 -0.22747215 0)
(154.302 -0.23383491 0)
(154.32163 -0.24059033 0)
(154.34256 -0.24765663 0)
(154.36488 -0.25496123 0)
(154.38865 -0.26243211 0)
(154.41391 -0.26999431 0)
(154.44067 -0.27757004 0)
(154.46892 -0.28507974 0)
(154.49863 -0.29244432 0)
(154.52976 -0.299587 0)
(154.56223 -0.30643583 0)
(154.59596 -0.31292551 0)
(154.63086 -0.31899963 0)
(154.66683 -0.32461226 0)
(154.70376 -0.32972985 0)
(154.74152 -0.3343324 0)
(154.78 -0.33841485 0)
(154.81909 -0.34198773 0)
(154.85868 -0.34507791 0)
(154.89865 -0.34772863 0)
(154.93893 -0.34999944 0)
(154.97943 -0.35196551 0)
(155.02011 -0.35371667 0)
(155.06093 -0.35535602 0)
(155.10188 -0.35699801 0)
(155.14299 -0.35876627 0)
(155.1843 -0.36079096 0)
(155.22589 -0.36320575 0)
(155.26787 -0.36614463 0)
(155.31038 -0.36973829 0)
(155.3536 -0.37411041 0)
(155.39771 -0.37937387 0)
(155.44295 -0.38562674 0)
(155.48955 -0.39294856 0)
(155.53779 -0.40139642 0)
(155.58792 -0.41100164 0)
(155.64024 -0.42176628 0)
(155.69503 -0.43366055 0)
(155.75255 -0.44662013 0)
(155.81307 -0.46054456 0)
(155.87681 -0.47529585 0)
(155.94398 -0.4906979 0)
(156.01474 -0.50653669 0)
(156.0892 -0.52256114 0)
(156.16742 -0.5384848 0)
(156.24939 -0.55398829 0)
(156.33502 -0.56872262 0)
(156.42416 -0.58231322 0)
(156.51656 -0.59436477 0)
(156.61188 -0.60446673 0)
(156.70971 -0.61219954 0)
(156.80952 -0.61714137 0)
(156.91071 -0.61887536 0)
(157.01255 -0.61699731 0)
(157.11426 -0.61112359 0)
(157.21496 -0.60089914 0)
(157.31368 -0.58600551 0)
(157.4094 -0.56616877 0)
(157.50101 -0.54116701 0)
(157.58738 -0.51083738 0)
(157.66734 -0.47508249 0)
(157.73969 -0.433876 0)
(157.80323 -0.38726725 0)
(157.85677 -0.33538466 0)
(157.89915 -0.27843819 0)
(157.92927 -0.21671974 0)
(157.9461 -0.15060423 0)
(157.94866 -0.080545685 0)
(157.93613 -0.0070732651 0)
(157.90777 0.069213964 0)
(157.86298 0.14765035 0)
(157.80135 0.22751754 0)
(157.72259 0.3080553 0)
(157.62661 0.3884722 0)
(157.51348 0.46795866 0)
(157.38348 0.54570167 0)
(157.23705 0.62089972 0)
(157.07484 0.69277856 0)
(156.89764 0.76060651 0)
(156.70643 0.82370934 0)
(156.50233 0.88148432 0)
(156.28658 0.93341206 0)
(156.06053 0.97906583 0)
(155.82562 1.0181183 0)
(155.58334 1.0503458 0)
(155.33524 1.075629 0)
(155.08283 1.0939518 0)
(154.82766 1.105396 0)
(154.57121 1.1101341 0)
(154.31489 1.1084205 0)
(154.06008 1.1005804 0)
(153.80802 1.0869978 0)
(153.5599 1.0681032 0)
(153.31675 1.0443615 0)
(153.07954 1.0162597 0)
(152.84908 0.98429547 0)
(152.62609 0.94896744 0)
(152.41118 0.91076584 0)
(152.20484 0.87016502 0)
(152.00747 0.82761719 0)
(151.81938 0.7835475 0)
(151.64078 0.73835078 0)
(151.47181 0.69238941 0)
(151.31254 0.6459924 0)
(151.16299 0.59945531 0)
(151.0231 0.55304139 0)
(150.89279 0.50698351 0)
(150.77194 0.46148731 0)
(150.66039 0.41673509 0)
(150.55798 0.37289037 0)
(150.4645 0.33010294 0)
(150.37976 0.28851634 0)
(150.30357 0.2482808 0)
(150.23576 0.20956636 0)
(150.17622 0.17255461 0)
(150.12478 0.13741733 0)
(150.08131 0.10437757 0)
(150.04577 0.074741067 0)
(150.01937 0.047539778 0)
(150.00439 0.023012323 0)
(154.24734 -0.22097329 0)
(154.26652 -0.22580968 0)
(154.28242 -0.23154189 0)
(154.29946 -0.23803362 0)
(154.31759 -0.24513275 0)
(154.33694 -0.25271946 0)
(154.35765 -0.2606924 0)
(154.37981 -0.26895813 0)
(154.40347 -0.27742502 0)
(154.42869 -0.28600023 0)
(154.45547 -0.29458969 0)
(154.4838 -0.30309891 0)
(154.51365 -0.31143505 0)
(154.54497 -0.31950875 0)
(154.57769 -0.32723671 0)
(154.61171 -0.33454364 0)
(154.64695 -0.3413647 0)
(154.68329 -0.34764729 0)
(154.72061 -0.3533531 0)
(154.75878 -0.3584595 0)
(154.79767 -0.36296106 0)
(154.83716 -0.36687034 0)
(154.87712 -0.37021871 0)
(154.91744 -0.37305641 0)
(154.95801 -0.37545246 0)
(154.99876 -0.37749391 0)
(155.03961 -0.37928477 0)
(155.08053 -0.38094435 0)
(155.1215 -0.38260517 0)
(155.16253 -0.38441037 0)
(155.20367 -0.38651078 0)
(155.24499 -0.3890614 0)
(155.28661 -0.39221773 0)
(155.32866 -0.39613167 0)
(155.37133 -0.40094722 0)
(155.41482 -0.40679608 0)
(155.45937 -0.41379311 0)
(155.50523 -0.42203197 0)
(155.55268 -0.43158065 0)
(155.60202 -0.44247758 0)
(155.65355 -0.45472761 0)
(155.70757 -0.46829903 0)
(155.76438 -0.48312042 0)
(155.82427 -0.49907877 0)
(155.88749 -0.51601783 0)
(155.95426 -0.53373747 0)
(156.02479 -0.55199377 0)
(156.09921 -0.5705 0)
(156.1776 -0.58892853 0)
(156.25997 -0.60691359 0)
(156.34626 -0.62405502 0)
(156.43633 -0.63992288 0)
(156.52994 -0.65406298 0)
(156.62677 -0.66600317 0)
(156.72641 -0.67526046 0)
(156.82833 -0.68134876 0)
(156.93191 -0.68378722 0)
(157.03643 -0.68210903 0)
(157.14108 -0.67587054 0)
(157.24497 -0.66466051 0)
(157.34708 -0.64810942 0)
(157.44637 -0.62589852 0)
(157.54171 -0.59776859 0)
(157.63189 -0.56352812 0)
(157.71571 -0.52306072 0)
(157.79191 -0.47633165 0)
(157.85925 -0.42339322 0)
(157.91647 -0.36438883 0)
(157.96235 -0.29955586 0)
(157.99575 -0.2292264 0)
(158.01555 -0.15382854 0)
(158.02075 -0.073881443 0)
(158.01044 0.010008591 0)
(157.98387 0.097153689 0)
(157.94039 0.18679729 0)
(157.87953 0.27811858 0)
(157.80099 0.37024257 0)
(157.70466 0.46225689 0)
(157.59061 0.55322714 0)
(157.4591 0.64221386 0)
(157.31061 0.72829002 0)
(157.14579 0.81055946 0)
(156.96548 0.88817495 0)
(156.77071 0.9603558 0)
(156.56263 1.0264041 0)
(156.34257 1.0857188 0)
(156.11193 1.1378069 0)
(155.87224 1.1822916 0)
(155.62506 1.2189169 0)
(155.37199 1.247549 0)
(155.11465 1.2681741 0)
(154.85463 1.2808921 0)
(154.59347 1.2859086 0)
(154.33266 1.2835235 0)
(154.0736 1.2741184 0)
(153.81759 1.2581423 0)
(153.56582 1.2360971 0)
(153.31937 1.2085231 0)
(153.07919 1.1759851 0)
(152.84612 1.1390588 0)
(152.62086 1.0983198 0)
(152.40403 1.0543325 0)
(152.19609 1.007642 0)
(151.99743 0.9587666 0)
(151.80833 0.90819274 0)
(151.62898 0.85637113 0)
(151.4595 0.80371455 0)
(151.29995 0.75059682 0)
(151.15029 0.69735306 0)
(151.01047 0.64428089 0)
(150.88038 0.5916427 0)
(150.75988 0.53966894 0)
(150.64879 0.48856193 0)
(150.54694 0.43850034 0)
(150.45411 0.389644 0)
(150.37011 0.34214079 0)
(150.29475 0.29613615 0)
(150.22786 0.25177902 0)
(150.16933 0.209213 0)
(150.11902 0.16857065 0)
(150.07684 0.13002499 0)
(150.04281 0.094834904 0)
(150.01796 0.061516192 0)
(150.00404 0.030180134 0)
(154.26958 -0.23182479 0)
(154.28787 -0.23724719 0)
(154.30319 -0.24361472 0)
(154.31973 -0.25082322 0)
(154.33745 -0.25872958 0)
(154.35647 -0.26720733 0)
(154.37692 -0.27614061 0)
(154.39889 -0.28541861 0)
(154.42243 -0.29493204 0)
(154.4476 -0.30457108 0)
(154.4744 -0.31422566 0)
(154.50282 -0.32378621 0)
(154.53283 -0.3331459 0)
(154.56437 -0.34220244 0)
(154.59737 -0.35086079 0)
(154.63174 -0.35903531 0)
(154.66736 -0.36665239 0)
(154.70412 -0.3736524 0)
(154.74189 -0.37999201 0)
(154.78052 -0.38564573 0)
(154.81987 -0.39060762 0)
(154.85981 -0.39489219 0)