/*--------------------------------*- C++ -*----------------------------------*\
| =========                 |                                                 |
| \\      /  F ield         | foam-extend: Open Source CFD                    |
|  \\    /   O peration     | Version:     4.1                                |
|   \\  /    A nd           | Web:         http://www.foam-extend.org         |
|    \\/     M anipulation  |                                                 |
\*---------------------------------------------------------------------------*/
FoamFile
{
    version     2.0;
    format      ascii;
    class       volScalarField;
    location    "0.15";
    object      p;
}
// * * * * * * * * * * * * * * * * * * * * * * * * * * * * * * * * * * * * * //

dimensions      [0 2 -2 0 0 0 0];

internalField   nonuniform List<scalar> 
16796
(
-1.7359691
-3.8551104
-6.067192
-8.3024436
-10.575231
-12.895401
-15.27324
-17.719233
-20.244121
-22.858935
-25.575035
-28.404145
-31.358393
-34.450346
-37.69305
-41.100061
-44.685489
-48.464023
-52.450972
-56.662294
-61.114627
-65.825312
-70.812425
-76.094787
-81.69199
-87.624395
-93.913147
-100.58016
-107.6481
-115.14037
-123.08108
-131.49497
-140.40735
-149.84403
-159.83118
-170.39523
-181.56268
-193.35993
-205.81305
-218.94752
-232.78793
-247.35764
-262.67838
-278.76982
-295.64908
-313.33016
-331.82336
-351.13458
-371.26464
-392.20847
-413.9543
-436.48275
-459.76594
-483.76654
-508.43678
-533.71754
-559.53738
-585.81166
-612.44178
-639.31447
-666.30129
-693.25828
-720.02591
-746.42932
-772.27881
-797.37087
-821.4895
-844.40807
-865.8916
-885.6996
-903.5893
-919.31945
-932.65435
-943.36833
-951.2503
-956.10847
-957.77517
-956.11153
-951.01098
-942.40244
-930.2531
-914.57033
-895.40254
-872.839
-847.00869
-818.07808
-786.24805
-751.74996
-714.84109
-675.79963
-634.91931
-592.50403
-548.8625
-504.30321
-459.12971
-413.63641
-368.10504
-322.80161
-277.97411
-233.85084
-190.6393
-148.52567
-107.6748
-68.230611
-30.316891
5.9616272
40.517982
73.281512
104.19629
133.21952
160.31986
185.47582
208.67423
229.90874
249.17862
266.48729
281.84043
295.24426
306.70761
316.25048
323.90201
329.6438
333.32039
334.80606
-1.7325156
-3.8474169
-6.0551063
-8.2859284
-10.554224
-12.869824
-15.242998
-17.684214
-20.204197
-22.813961
-25.52485
-28.348571
-31.297237
-34.383398
-37.620083
-41.020836
-44.599747
-48.371494
-52.351373
-56.555326
-60.999982
-65.702673
-70.681464
-75.955174
-81.543388
-87.46647
-93.745566
-100.4026
-107.46025
-114.94194
-122.87181
-131.27461
-140.17572
-149.60098
-159.57664
-170.12919
-181.28522
-193.07124
-205.51342
-218.6374
-232.46791
-247.02849
-262.34106
-278.42553
-295.29924
-312.97648
-331.46783
-350.77952
-370.91271
-391.8627
-413.61808
-436.15988
-459.46063
-483.4834
-508.18085
-533.49424
-559.35247
-585.67127
-612.35229
-639.28246
-666.33346
-693.36133
-720.20642
-746.69359
-772.63272
-797.81968
-822.03766
-845.05901
-866.64756
-886.56139
-904.55617
-920.38887
-933.82195
-944.6278
-952.59335
-957.52486
-959.25281
-957.63687
-952.56941
-943.97827
-931.82985
-916.1311
-896.93039
-874.31735
-848.42173
-819.41112
-787.48787
-752.88505
-715.86191
-676.69869
-635.69129
-593.14575
-549.37289
-504.68313
-459.38182
-413.76498
-368.11565
-322.70095
-277.76975
-233.55094
-190.25239
-148.06047
-107.13998
-67.634653
-29.667961
6.6558103
41.250224
74.045208
104.98546
134.02884
161.14464
186.31203
209.51845
230.75815
250.03095
267.34077
282.69377
296.09656
307.55835
317.09945
324.74924
330.48957
334.16516
335.65042
-1.7257341
-3.8322089
-6.0311397
-8.2531281
-10.512467
-12.818956
-15.18283
-17.614527
-20.124737
-22.724442
-25.424954
-28.237947
-31.175502
-34.250136
-37.474849
-40.863151
-44.429107
-48.187362
-52.153188
-56.342503
-60.771912
-65.458729
-70.421004
-75.677544
-81.247931
-87.152528
-93.412491
-100.04976
-107.08704
-114.54779
-122.4562
-130.8371
-139.71595
-149.11868
-159.07167
-169.60156
-180.73512
-192.49905
-204.91978
-218.02319
-231.83434
-246.37712
-261.67384
-277.74485
-294.60798
-312.27803
-330.76619
-350.07931
-370.21922
-391.18195
-412.95684
-435.5257
-458.86187
-482.92923
-507.68124
-533.05992
-558.99491
-585.40257
-612.18508
-639.2298
-666.40859
-693.57752
-720.5767
-747.23046
-773.34782
-798.72343
-823.13891
-846.36462
-868.16199
-888.28634
-906.49017
-922.52702
-936.15562
-947.14449
-955.27663
-960.35435
-962.20433
-960.68311
-955.68057
-947.12235
-934.97329
-919.23952
-899.9694
-877.2534
-851.22289
-822.04785
-789.93366
-755.11702
-717.86117
-678.45066
-637.18578
-594.37697
-550.33927
-505.38709
-459.82937
-413.96526
-368.0805
-322.44438
-277.30741
-232.89962
-189.42958
-147.08388
-106.02722
-66.402881
-28.333585
8.0773173
42.744496
75.599104
106.58714
135.66778
162.81166
187.99926
211.21926
232.46713
251.74375
269.05411
284.40527
297.80469
309.26226
318.79892
326.44455
332.18144
335.8547
337.33897
-1.715542
-3.8093861
-5.9951802
-8.2039193
-10.449823
-12.742643
-15.092565
-17.509977
-20.005521
-22.59013
-25.275066
-28.071954
-30.992826
-34.050153
-37.256886
-40.626489
-44.172983
-47.91097
-51.855682
-56.022999
-60.429493
-65.092448
-70.029893
-75.260618
-80.804195
-86.680988
-92.912166
-99.51969
-106.52631
-113.95555
-121.83166
-130.17957
-139.02487
-148.39366
-158.31248
-168.8082
-179.90786
-191.63846
-204.02678
-217.09912
-230.881
-245.39683
-260.66952
-276.72007
-293.56705
-311.22607
-329.70918
-349.02419
-369.17396
-390.15557
-411.95954
-434.56884
-457.95804
-482.09223
-506.92609
-532.4028
-558.45312
-584.99435
-611.92952
-639.14658
-666.51774
-693.8991
-721.13042
-748.03522
-774.42128
-800.08142
-824.79488
-848.32902
-870.4417
-890.88404
-909.40383
-925.74938
-939.67384
-950.93989
-959.32458
-964.62429
-966.66003
-965.28347
-960.38053
-951.8735
-939.72475
-923.93915
-904.56501
-881.69404
-855.46006
-826.03668
-793.6339
-758.4939
-720.88604
-681.10138
-639.44696
-596.23988
-551.80164
-506.45266
-460.50733
-414.26962
-368.02931
-322.05896
-276.61154
-231.91884
-188.19041
-145.61322
-104.35174
-64.548524
-26.325194
10.216352
44.992479
77.936203
108.9955
138.13155
165.31703
190.53438
213.77418
235.0337
254.31552
271.62614
286.97404
300.3679
311.81872
321.34834
328.98741
334.71887
338.38846
339.87117
-1.7019548
-3.7790035
-5.9473261
-8.1384454
-10.366483
-12.641125
-14.972494
-17.37091
-19.846952
-22.411486
-25.075708
-27.85118
-30.749867
-33.784176
-36.966996
-40.311729
-43.832335
-47.543362
-51.459983
-55.598032
-59.974035
-64.605236
-69.509633
-74.705992
-80.213874
-86.053643
-92.246482
-98.814383
-105.78015
-113.16738
-121.00042
-129.30433
-138.10487
-147.42833
-157.30151
-167.75157
-178.80588
-190.49185
-202.83675
-215.8674
-229.60995
-244.08949
-259.32973
-275.35253
-292.17745
-309.82116
-328.29688
-347.61369
-367.7758
-388.78177
-410.6236
-433.28589
-456.74481
-480.96712
-505.90911
-531.51558
-557.71873
-584.43722
-611.57521
-639.02147
-666.64873
-694.31317
-721.85411
-749.09408
-775.83916
-801.87982
-826.9921
-850.93943
-873.47484
-894.34387
-913.28794
-930.04836
-944.37073
-956.00984
-964.73471
-970.33368
-972.62011
-971.43894
-966.67066
-958.23296
-946.08489
-930.22957
-910.71529
-887.6354
-861.12709
-831.3689
-798.57714
-763.00144
-724.91946
-684.63117
-642.45269
-598.71019
-553.73388
-507.8523
-461.38721
-414.64901
-367.9329
-321.51577
-275.6539
-230.58132
-186.50888
-143.62395
-102.09064
-62.050499
-23.623577
13.090222
48.009578
81.070047
112.22228
141.43019
168.66917
193.92433
217.18881
238.46228
257.74957
275.05924
290.40164
303.7871
315.22808
324.74763
332.37739
338.10119
341.76561
343.24617
-1.6851189
-3.7412414
-5.8877707
-8.0569073
-10.262652
-12.514613
-14.822829
-17.197541
-19.649244
-22.188722
-24.827089
-27.575825
-30.446816
-33.452387
-36.605347
-39.919023
-43.407297
-47.084647
-50.966178
-55.067659
-59.40556
-63.997076
-68.860163
-74.013558
-79.476805
-85.270267
-91.415143
-97.933465
-104.8481
-112.18272
-119.96182
-128.21061
-136.95504
-146.22167
-156.03758
-166.43031
-177.42766
-189.05754
-201.34779
-214.32592
-228.01882
-242.45248
-257.65158
-273.63907
-290.43572
-308.05954
-326.52523
-345.84343
-366.02009
-387.05556
-408.94378
-431.67134
-455.21647
-479.54802
-504.62436
-530.39228
-556.78589
-583.72558
-611.11692
-638.84984
-666.79773
-694.81693
-722.74627
-750.40709
-777.60343
-804.12282
-829.73738
-854.20556
-877.27438
-898.68236
-918.16289
-935.4484
-950.27496
-962.3873
-971.5442
-977.52379
-980.1296
-979.19786
-974.60202
-966.25384
-954.10808
-938.16558
-918.47453
-895.13044
-868.27476
-838.09235
-804.80761
-768.67972
-729.99701
-689.0708
-646.22888
-601.80896
-556.15237
-509.59799
-462.47692
-415.10769
-367.79232
-320.81316
-274.43057
-228.88136
-184.37793
-141.10807
-99.235357
-58.899965
-20.21989
16.707547
51.804009
85.008307
116.2745
145.56999
172.87363
198.17389
221.46713
242.75608
262.04838
279.35521
294.68923
308.06288
319.49042
328.99642
336.61379
342.32745
345.98504
347.46274
-1.6647671
-3.6958188
-5.8162648
-7.9590976
-10.138167
-12.362987
-14.643497
-16.98984
-19.412412
-21.921899
-24.529316
-27.246045
-30.083873
-33.05503
-36.172229
-39.448701
-42.898241
-46.535236
-50.37471
-54.432354
-58.724569
-63.268487
-68.082015
-73.183851
-78.593517
-84.331371
-90.418629
-96.877365
-103.73052
-111.00186
-118.71603
-126.89844
-135.57525
-144.77333
-154.52012
-164.84357
-175.772
-187.33393
-199.55787
-212.47214
-226.10455
-240.48212
-255.63068
-271.57453
-288.33586
-305.93431
-324.38631
-343.70444
-363.89669
-384.96562
-406.90749
-429.71131
-453.35783
-477.81842
-503.054
-529.01382
-555.63434
-582.83807
-610.53242
-638.60873
-666.94132
-695.38678
-723.78349
-751.95141
-779.69223
-806.79
-833.01217
-858.11125
-881.82704
-903.88951
-924.02236
-941.9472
-957.38841
-970.07847
-979.76354
-986.20922
-989.2069
-988.58195
-984.19903
-975.96251
-963.8218
-947.7749
-927.86983
-904.20469
-876.92623
-846.22708
-812.34166
-775.54094
-736.12643
-694.42347
-650.77419
-605.53054
-559.04746
-511.67652
-463.76018
-415.62686
-367.58684
-319.92903
-272.91866
-226.79578
-181.77454
-138.04314
-95.76435
-55.076562
-16.095171
21.085742
56.391544
89.765064
121.16456
150.56169
177.93952
203.29062
226.61529
247.91992
267.21559
284.51659
299.83843
313.19603
324.60583
334.09424
341.69567
347.39636
351.04523
352.51931
-1.6414028
-3.6433643
-5.7334942
-7.8457448
-9.9937983
-12.187058
-14.435349
-16.7487
-19.137392
-21.611995
-24.183411
-26.862904
-29.662148
-32.593259
-35.668839
-38.902009
-42.306455
-45.896463
-49.686959
-53.693542
-57.932529
-62.42098
-67.176739
-72.218458
-77.565629
-83.238603
-89.258612
-95.647773
-102.4291
-109.6265
-117.26474
-125.36946
-133.96711
-143.08486
-152.75058
-162.99271
-173.84015
-185.32211
-197.46789
-210.30674
-223.86753
-238.17848
-253.26677
-269.15823
-285.87674
-303.44382
-321.87794
-341.19394
-361.40219
-382.50786
-404.50993
-427.40029
-451.16263
-475.77136
-501.19041
-527.37199
-554.25538
-581.76566
-609.81251
-638.28902
-667.07072
-696.01465
-724.95876
-753.72154
-782.10206
-809.88038
-836.81857
-862.66223
-887.14267
-909.97986
-930.886
-949.56986
-965.74191
-979.11994
-989.43502
-996.43764
-999.90459
-999.64796
-995.52171
-987.42127
-975.28946
-959.12079
-938.96302
-914.91734
-887.13687
-855.82363
-821.22412
-783.6236
-743.33945
-700.71392
-656.10643
-609.88601
-562.42394
-514.08688
-465.23085
-416.196
-367.30232
-318.84637
-271.09903
-224.30403
-178.67741
-134.40764
-91.656391
-50.55977
-11.229935
26.242998
61.788892
95.355422
126.90588
156.417
183.87688
209.28296
232.64015
253.95922
273.25527
290.54625
305.85099
319.18735
330.5743
340.04039
347.62178
353.30624
356.94425
358.41383
-1.6144096
-3.5831783
-5.638772
-7.7161939
-9.8289242
-11.986239
-14.197832
-16.473601
-18.823694
-21.258551
-23.78894
-26.425995
-29.181257
-32.066712
-35.094832
-38.278612
-41.631616
-45.168008
-48.9026
-52.850887
-57.029086
-61.45417
-66.143911
-71.116903
-76.3926
-81.991339
-87.934364
-94.243837
-100.94286
-108.05545
-115.60657
-123.62208
-132.12873
-141.15407
-150.72642
-160.87478
-171.62868
-183.01813
-195.07332
-207.82455
-221.30187
-235.53487
-250.55229
-266.38166
-283.04882
-300.57741
-318.98827
-338.29878
-358.5221
-379.66637
-401.73374
-424.71941
-448.61051
-473.38498
-499.01028
-525.44211
-552.62308
-580.48137
-608.92934
-637.86232
-667.15734
-696.67215
-726.2444
-755.69106
-784.80833
-813.37187
-841.13768
-867.84348
-893.21088
-916.94827
-938.75452
-958.32347
-975.34926
-989.53242
-1000.5862
-1008.2434
-1012.2632
-1012.4418
-1008.6205
-1000.6839
-988.5668
-972.25955
-951.80949
-927.32142
-898.95598
-866.92638
-831.49347
-792.95947
-751.66067
-707.95936
-662.23544
-614.87811
-566.27789
-516.81919
-466.87386
-416.79566
-366.9158
-317.53962
-268.94434
-221.37777
-175.0579
-130.17329
-86.884071
-45.323474
-5.599699
32.201917
68.016608
101.79779
133.51468
163.14999
190.69768
216.16083
239.54976
260.88026
280.17207
297.44738
312.72882
326.0376
337.39562
346.83387
354.39048
360.055
363.67969
365.14377
-1.5846324
-3.5163181
-5.5332544
-7.5716762
-9.6448489
-11.761907
-13.932397
-16.166069
-18.472923
-20.863249
-23.347668
-25.937163
-28.643128
-31.477401
-34.452306
-37.580697
-40.875994
-44.352228
-48.024079
-51.906919
-56.016853
-60.370752
-64.986301
-69.882026
-75.077334
-80.592538
-86.448891
-92.668598
-99.274842
-106.29178
-113.74456
-121.65929
-130.06304
-138.98377
-148.45031
-158.49225
-169.13986
-180.42397
-192.3758
-205.02679
-218.40833
-232.55153
-247.48684
-263.24373
-279.85021
-297.33232
-315.71355
-335.01417
-355.2505
-376.43403
-398.57051
-421.65894
-445.69041
-470.64687
-496.49989
-523.20922
-550.72138
-578.96817
-607.86522
-637.31052
-667.18306
-697.34161
-727.62368
-757.8448
-787.79814
-817.25457
-845.96336
-873.65343
-900.03545
-924.80465
-947.64465
-968.23208
-986.24228
-1001.3557
-1013.2649
-1021.6816
-1026.3448
-1027.0318
-1023.5684
-1015.8266
-1003.7319
-987.26932
-966.48563
-941.48982
-912.45135
-879.59654
-843.20316
-803.59339
-761.12573
-716.18599
-669.17807
-620.51474
-570.60888
-519.86549
-468.67467
-417.40577
-366.40278
-315.98091
-266.42441
-217.98546
-170.88397
-125.30828
-81.416463
-39.338151
0.82324747
38.988099
75.097971
109.113
141.00932
170.77654
198.41536
223.9354
247.3531
268.68999
287.97111
305.22343
320.47387
333.74746
345.06938
354.47334
361.99972
367.64002
371.2486
372.70603
-1.5511971
-3.4417809
-5.4159431
-7.4112255
-9.4406417
-11.513166
-13.638183
-15.825276
-18.084282
-20.425325
-22.858857
-25.395698
-28.047075
-30.824659
-33.740613
-36.807627
-40.038964
-43.4485
-47.050769
-50.861003
-54.895177
-59.170046
-63.703193
-68.513062
-73.619
-79.041288
-84.80118
-90.92092
-97.423774
-104.33403
-111.67705
-119.47918
-127.76786
-136.57147
-145.91938
-155.84183
-166.36989
-177.5353
-189.37039
-201.90784
-215.1805
-229.22116
-244.06217
-259.73514
-276.27046
-293.69684
-312.04073
-331.32561
-351.57132
-372.79314
-395.00086
-418.19776
-442.37939
-467.53233
-493.63282
-520.64526
-548.52069
-577.1952
-606.58824
-636.60105
-667.11508
-697.99052
-729.06505
-760.15286
-791.04402
-821.50432
-851.27572
-880.07745
-907.60794
-933.5477
-957.56307
-979.31114
-998.44566
-1014.624
-1027.5148
-1036.8055
-1042.2114
-1043.4872
-1040.441
-1032.9298
-1020.8678
-1004.2337
-983.07351
-957.50104
-927.69594
-893.89985
-856.41028
-815.57273
-771.77161
-725.42016
-676.95014
-626.80161
-575.41326
-523.21373
-470.61394
-418.00096
-365.7331
-314.13653
-263.50315
-214.08972
-166.11794
-119.77548
-75.217674
-32.569718
8.0707421
46.630818
83.059487
117.32469
149.41052
179.31448
207.045
232.61906
256.06007
277.39602
296.65788
313.878
329.0881
342.31743
353.59483
362.95704
370.4469
376.0581
379.64738
381.09687
-1.5151391
-3.3608642
-5.2882597
-7.2363582
-9.2179098
-11.241716
-13.316982
-15.453109
-17.659752
-19.946852
-22.32468
-24.80387
-27.395465
-30.110955
-32.962319
-35.962068
-39.123289
-42.459686
-45.985626
-49.716185
-53.667189
-57.855262
-62.297868
-67.013353
-72.020992
-77.341022
-82.994686
-89.004261
-95.39309
-102.1856
-109.40734
-117.08496
-125.24623
-133.92001
-143.13623
-152.92583
-163.32071
-174.35362
-186.05805
-198.46805
-211.61806
-225.54266
-240.27628
-255.85285
-272.3054
-289.66557
-307.96302
-327.22482
-347.47469
-368.73211
-391.01139
-414.32059
-438.66027
-464.02222
-490.38799
-517.72731
-545.99641
-575.13633
-605.07106
-635.70573
-666.92485
-698.59054
-730.54104
-762.58945
-794.52276
-826.10147
-857.05972
-887.10618
-915.92586
-943.18283
-968.52413
-991.58474
-1011.9939
-1029.3827
-1043.3921
-1053.6817
-1059.9392
-1061.893
-1059.3304
-1052.0905
-1040.0741
-1023.2528
-1001.6713
-975.44875
-944.77667
-909.91446
-871.18257
-828.95363
-783.64212
-735.69306
-685.5704
-633.74561
-580.687
-526.8501
-472.66948
-418.55206
-364.87213
-311.96784
-260.13932
-209.64796
-160.71698
-113.53277
-68.24711
-24.979735
16.178587
55.162893
91.930775
126.45916
158.74123
188.78351
216.60312
242.22535
265.68141
287.00651
306.2382
323.4148
338.57333
351.74772
362.97081
372.28267
379.72881
385.30537
388.87172
390.3118
-1.4755117
-3.272491
-5.1491426
-7.0460582
-8.9756879
-10.946642
-12.967928
-15.048751
-17.198567
-19.427116
-21.744469
-24.161058
-26.687725
-29.335758
-32.116936
-35.043571
-38.128556
-41.385402
-44.828294
-48.472129
-52.33257
-56.426087
-60.770009
-65.382569
-70.282951
-75.491333
-81.028938
-86.918062
-93.182122
-99.845677
-106.93447
-114.47543
-122.49671
-131.02764
-140.09875
-149.74171
-159.9893
-170.87534
-182.43455
-194.70245
-207.71518
-221.50925
-236.12133
-251.58787
-267.94473
-285.22675
-303.46711
-322.69679
-342.94377
-364.23216
-386.58126
-410.00443
-434.50785
-460.08913
-486.73581
-514.42363
-543.1148
-572.75608
-603.27674
-634.58659
-666.57387
-699.10329
-732.01417
-765.11887
-798.20148
-831.01709
-863.29159
-894.72234
-924.97967
-953.70959
-980.53763
-1005.074
-1026.9203
-1045.6776
-1060.9555
-1072.3814
-1079.611
-1082.3426
-1080.3382
-1073.4164
-1061.4625
-1044.4391
-1022.3892
-995.43824
-963.79118
-927.728
-887.59575
-843.79848
-796.78549
-747.03846
-695.0584
-641.35281
-586.42373
-530.75725
-474.81451
-419.02462
-363.77944
-309.43014
-256.28547
-204.61146
-154.63234
-106.53247
-60.459004
-16.525053
25.186799
64.620856
101.74466
136.54544
169.02672
199.20516
227.10769
252.76888
276.22859
297.53004
316.71805
333.83748
348.93117
362.03814
373.19562
382.44729
389.84155
395.37716
398.9165
400.34551
-1.4333482
-3.177963
-5.0000254
-6.8418616
-8.7156098
-10.629676
-12.592854
-14.614134
-16.702757
-18.868247
-21.120454
-23.469593
-25.926285
-28.501598
-31.207093
-34.054863
-37.057586
-40.228563
-43.581774
-47.131921
-50.894479
-54.885748
-59.122901
-63.624037
-68.408234
-73.495594
-78.907301
-84.665659
-90.794144
-97.317439
-104.26148
-111.65348
-119.52197
-127.89676
-136.809
-146.29112
-156.37684
-167.10107
-178.49985
-190.61025
-203.47019
-217.11827
-231.59353
-246.93512
-263.18198
-280.37235
-298.54325
-317.7299
-337.9649
-359.27746
-381.69234
-405.22876
-429.89911
-455.7075
-482.64816
-510.70365
-539.84296
-570.01941
-601.16844
-633.20539
-666.02308
-699.48958
-733.44595
-767.70433
-802.04621
-836.22129
-869.94694
-902.90846
-934.7604
-965.12896
-993.61594
-1019.804
-1043.2636
-1063.5618
-1080.2724
-1092.986
-1101.3217
-1104.9428
-1103.5814
-1097.0316
-1085.1612
-1067.9216
-1045.354
-1017.5903
-984.85127
-947.44056
-905.736
-860.17796
-811.25593
-759.49387
-705.4353
-649.62887
-592.61501
-534.91427
-477.01756
-419.37858
-362.40842
-306.4722
-251.88761
-198.92503
-147.80907
-98.721033
-51.802203
-7.1576467
35.13973
75.045018
112.53721
147.61527
180.29441
210.60271
238.57802
264.2652
287.71371
308.97553
328.10347
345.14953
360.16286
373.18801
384.26695
393.44722
400.78034
406.26792
409.77565
411.19171
-1.3878063
-3.076344
-4.8400121
-6.6229406
-8.4369211
-10.290137
-12.191152
-14.148727
-16.171868
-18.269865
-20.452333
-22.729249
-25.110995
-27.608402
-30.232789
-32.996015
-35.910521
-38.989378
-42.246341
-45.695892
-49.353301
-53.234673
-57.357007
-61.738245
-66.397339
-71.354294
-76.630238
-82.247462
-88.22949
-94.601113
-101.38846
-108.619
-116.32165
-124.52672
-133.26597
-142.57264
-152.48139
-163.02827
-174.25071
-186.18739
-198.87812
-212.36369
-226.68565
-241.88605
-258.00706
-275.09062
-293.17785
-312.30853
-332.5203
-353.84788
-376.322
-399.96831
-424.80605
-450.84651
-478.09141
-506.53095
-536.1418
-566.88479
-598.70252
-631.51683
-665.22612
-699.70273
-734.79031
-770.30145
-806.0155
-841.67701
-876.99465
-911.64109
-945.25395
-977.43801
-1007.769
-1035.7988
-1061.0634
-1083.0915
-1101.4159
-1115.5852
-1125.1765
-1129.813
-1129.1909
-1123.0756
-1111.3146
-1093.8462
-1070.7086
-1042.0415
-1008.0832
-969.16498
-925.70009
-878.17096
-827.11343
-773.10009
-716.72318
-658.5783
-599.24936
-539.2957
-479.24142
-419.56734
-360.7054
-303.0355
-246.88438
-192.52635
-140.18545
-90.03863
-42.219816
3.175642
46.086238
86.479576
124.34777
159.7031
192.57395
223.00113
251.03465
276.73073
300.14934
321.3521
340.40045
357.35415
372.26916
385.196
396.18168
405.27792
412.5395
417.9711
421.44207
422.8431
-1.339772
-2.9687654
-4.6703645
-6.3906621
-8.1410899
-9.929595
-11.764495
-13.654302
-15.607773
-17.633947
-19.742184
-21.942205
-24.244136
-26.658549
-29.196505
-31.869605
-34.690034
-37.67061
-40.824842
-44.166971
-47.712037
-51.475929
-55.475445
-59.728352
-64.253447
-69.07062
-74.200916
-79.666597
-85.49121
-91.69964
-98.31818
-105.37457
-112.89809
-120.91954
-129.47133
-138.58746
-148.30358
-158.65694
-169.68638
-181.43225
-193.93633
-207.24173
-221.39262
-236.4341
-252.41179
-269.37154
-287.35886
-306.41842
-326.59329
-347.92413
-370.44816
-394.19805
-419.20053
-445.47485
-473.03102
-501.8678
-531.97049
-563.3085
-595.83269
-629.47252
-664.13312
-699.69218
-735.99698
-772.86143
-810.06347
-847.34284
-884.39954
-920.8932
-956.44349
-990.6321
-1023.0062
-1053.0842
-1080.363
-1104.3283
-1124.4669
-1140.2791
-1151.2936
-1157.087
-1157.3137
-1151.706
-1140.0866
-1122.3785
-1098.6158
-1068.9467
-1033.6301
-993.02861
-947.59682
-897.8656
-844.42431
-787.90142
-728.945
-668.20404
-606.31171
-543.87082
-481.44237
-419.53688
-358.60876
-299.05335
-241.20638
-185.34533
-131.69243
-80.418705
-31.648885
14.533338
58.079839
98.972685
137.21898
172.84605
205.89704
236.42697
264.49923
290.18257
313.54844
334.66888
353.61475
370.45409
385.25022
398.05999
408.93583
417.93382
425.11224
430.47899
433.90747
435.29115
-1.2886104
-2.854555
-4.4904799
-6.1445158
-7.8277026
-9.547734
-11.312665
-13.130742
-15.010458
-16.960579
-18.990196
-21.108755
-23.326106
-25.652541
-28.098846
-30.67634
-33.396933
-36.273168
-39.318281
-42.546252
-45.971866
-49.610771
-53.47954
-57.595735
-61.977978
-66.646012
-71.620778
-76.924482
-82.58067
-88.614295
-95.051801
-101.92117
-109.25204
-117.07568
-125.42513
-134.3352
-143.84252
-153.98554
-164.80455
-176.34164
-188.64063
-201.747
-215.70771
-230.57102
-246.3862
-263.20322
-281.07226
-300.04319
-320.1649
-341.48443
-364.04603
-387.88998
-413.05119
-439.55766
-467.42855
-496.67216
-527.2835
-559.2417
-592.50709
-627.01807
-662.68778
-699.40059
-737.00863
-775.32826
-814.1369
-853.17014
-892.11956
-930.63147
-968.30676
-1004.7024
-1039.3347
-1071.6849
-1101.2069
-1127.3383
-1149.5132
-1167.1773
-1179.8037
-1186.9148
-1188.1157
-1183.1004
-1171.6622
-1153.7054
-1129.2592
-1098.481
-1061.6531
-1019.1748
-971.54803
-919.3599
-863.2615
-803.94559
-742.12408
-678.50681
-613.78247
-548.60262
-483.56905
-419.22467
-356.0479
-294.45001
-234.77532
-177.3034
-122.25308
-69.787514
-20.020043
26.979566
71.178845
112.57652
151.19675
187.08383
220.29739
250.90818
278.99438
304.63836
327.92409
348.9349
367.75171
384.4515
399.10537
411.77693
422.5243
431.40821
438.49053
443.78261
447.16228
448.52604
-1.2350018
-2.7346046
-4.3013784
-5.885631
-7.4979953
-9.1458969
-10.837111
-12.579606
-14.381587
-16.251536
-18.198253
-20.23089
-22.359003
-24.592587
-26.942127
-29.418643
-32.033744
-34.799675
-37.729379
-40.836547
-44.135685
-47.64217
-51.372326
-55.343482
-59.574053
-64.083609
-68.892957
-74.024215
-79.500902
-85.348011
-91.592106
-98.261393
-105.38583
-112.99715
-121.12902
-129.81702
-139.09877
-149.01394
-159.6043
-170.91369
-182.98805
-195.8753
-209.62525
-224.2895
-239.92113
-256.57443
-274.3045
-293.16675
-313.21622
-334.50683
-357.09035
-381.0153
-406.3255
-433.05848
-461.24353
-490.89948
-522.03224
-554.63193
-588.66971
-624.09437
-660.82855
-698.76484
-737.76169
-777.6393
-818.17576
-859.10343
-900.106
-940.81642
-980.81613
-1019.6359
-1056.7588
-1091.6253
-1123.6418
-1152.1917
-1176.6502
-1196.4005
-1210.8517
-1219.4633
-1221.7825
-1217.4587
-1206.2502
-1188.0386
-1162.8468
-1130.8423
-1092.3345
-1047.7647
-997.69013
-942.76274
-883.70501
-821.28367
-756.28377
-689.48426
-621.63656
-553.44662
-485.56123
-418.55846
-352.94208
-289.13955
-227.50303
-168.31269
-111.78193
-58.063618
-7.2571429
40.584303
85.446504
127.34732
166.33026
202.45868
235.81057
266.47405
294.54346
320.11608
343.28937
364.15879
382.81608
399.34767
413.83294
426.34261
436.94081
445.69306
452.665
457.87158
461.19545
462.53647
-1.1785388
-2.6085274
-4.1027701
-5.613831
-7.1519077
-8.7241414
-10.338013
-12.001191
-13.721581
-15.50736
-17.367021
-19.309404
-21.343749
-23.479734
-25.727523
-28.097813
-30.601892
-33.251683
-36.059808
-39.039644
-42.205389
-45.572127
-49.155896
-52.973766
-57.043912
-61.385699
-66.019766
-70.96811
-76.254188
-81.902997
-87.941191
-94.397163
-101.30116
-108.68538
-116.58403
-125.0335
-134.07236
-143.74151
-154.08418
-165.14603
-176.97509
-189.62182
-203.13899
-217.58161
-233.00672
-249.47314
-267.04113
-285.77193
-305.72711
-326.9679
-349.55414
-373.5432
-398.98856
-425.93813
-454.43229
-484.50157
-516.16398
-549.42203
-584.25923
-620.63638
-658.48735
-697.7147
-738.18495
-779.72385
-822.11168
-865.0788
-908.30186
-951.40074
-993.937
-1035.4139
-1075.2787
-1112.9278
-1147.7149
-1178.9632
-1205.9812
-1228.0809
-1244.598
-1254.9187
-1258.5225
-1255.0061
-1244.0862
-1225.6173
-1199.6137
-1166.2545
-1125.8798
-1078.9798
-1026.1757
-968.19489
-905.84234
-839.97004
-771.44675
-701.1301
-629.84215
-558.3495
-487.34841
-417.45482
-349.19908
-283.02469
-219.29046
-158.27519
-100.18425
-45.157352
6.723121
55.423617
100.95113
143.34542
182.67191
219.01528
252.47388
283.15493
311.17045
336.63383
359.65709
380.34869
398.81181
415.14293
429.43013
441.75157
452.17765
460.77887
467.62472
472.73393
475.99436
477.30954
-1.1197061
-2.4769915
-3.8954531
-5.3300313
-6.7904718
-8.2836162
-9.816634
-11.39688
-13.031943
-14.729677
-16.498246
-18.346164
-20.282334
-22.316095
-24.45727
-26.716211
-29.103859
-31.631791
-34.312282
-37.158369
-40.183914
-43.403673
-46.833372
-50.489784
-54.390814
-58.555583
-63.004526
-67.759481
-72.843802
-78.282454
-84.102139
-90.331392
-97.000727
-104.14272
-111.79216
-119.98616
-128.76424
-138.16848
-148.24361
-159.03706
-170.59902
-182.98251
-196.2433
-210.43994
-225.63353
-241.88762
-259.26783
-277.84152
-297.67717
-318.84372
-341.40961
-365.44173
-391.00395
-418.15545
-446.94874
-477.42721
-509.62235
-543.55055
-579.20935
-616.57336
-655.58965
-696.17276
-738.19937
-781.50279
-825.86739
-871.02319
-916.64099
-962.32832
-1007.6267
-1052.0107
-1094.8898
-1135.6122
-1173.4741
-1207.7313
-1237.6172
-1262.3627
-1281.2195
-1293.4886
-1298.5691
-1295.996
-1285.4365
-1266.7121
-1239.8265
-1204.9709
-1162.5212
-1113.0241
-1057.1754
-995.79012
-929.76892
-860.06206
-787.63435
-713.43285
-638.35921
-563.24748
-488.84809
-415.81754
-344.71367
-275.99543
-210.02652
-147.08175
-87.355323
-30.970286
22.011576
71.579876
117.76618
160.63525
200.2772
236.80053
270.32609
300.98205
328.89962
354.2096
377.0396
397.51189
415.7418
431.83636
445.89272
457.99683
468.22554
476.65449
483.35709
488.35596
491.54462
492.83061
-1.0582901
-2.3398524
-3.6794021
-5.0343367
-6.4139245
-7.8246923
-9.2734824
-10.767319
-12.313456
-13.919408
-15.592995
-17.34238
-19.176112
-21.103171
-23.133015
-25.27563
-27.541585
-29.942084
-32.489031
-35.195092
-38.073761
-41.139438
-44.407501
-47.894392
-51.617707
-55.596284
-59.850313
-64.401431
-69.272845
-74.489439
-80.077915
-86.066909
-92.487145
-99.371552
-106.75542
-114.67655
-123.17539
-132.29517
-142.08207
-152.58529
-163.85718
-175.95333
-188.93258
-202.85705
-217.79204
-233.80595
-250.97
-269.35789
-289.04536
-310.10949
-332.62787
-356.67749
-382.33341
-409.667
-438.74397
-469.62183
-502.34698
-536.95133
-573.44828
-611.82828
-652.05379
-694.05365
-737.71712
-782.88748
-829.35552
-876.85301
-925.04663
-973.53263
-1021.8328
-1069.3924
-1115.5807
-1159.6944
-1200.9663
-1238.5776
-1271.6769
-1299.4034
-1320.9115
-1335.4036
-1342.1837
-1340.7138
-1330.6019
-1311.6298
-1283.7869
-1247.2784
-1202.5209
-1150.1272
-1090.88
-1025.6965
-955.58852
-881.61986
-804.86557
-726.37446
-647.13775
-568.06441
-489.96388
-413.53579
-339.36593
-267.92756
-199.58682
-134.61115
-73.179699
-15.394683
38.706913
89.141926
135.97028
179.28521
219.20458
255.86337
289.40724
319.98721
347.75528
372.86095
395.44843
415.65464
433.60766
449.42555
463.2149
475.06968
485.0734
493.30693
499.8476
504.72207
507.82996
509.0831
-0.99462876
-2.1976145
-3.4552581
-4.7275174
-6.0231654
-7.3483994
-8.7097188
-10.113802
-11.567549
-13.078119
-14.652969
-16.299894
-18.027068
-19.843089
-21.757031
-23.778487
-25.917631
-28.185267
-30.592901
-33.152797
-35.878051
-38.782671
-41.881653
-45.19107
-48.728166
-52.511458
-56.560842
-60.897707
-65.545063
-70.527662
-75.872154
-81.607215
-87.763724
-94.374901
-101.47649
-109.10692
-117.3075
-126.12258
-135.59973
-145.7899
-156.74757
-168.5309
-181.2018
-194.82603
-209.47317
-225.21658
-242.13323
-260.30344
-279.81051
-300.74006
-323.17932
-347.21606
-372.93726
-400.42745
-429.76664
-461.02777
-494.27371
-529.55362
-566.89879
-606.31775
-647.79077
-691.26366
-736.64105
-783.77904
-832.47766
-882.47305
-933.43005
-984.9353
-1036.4917
-1087.5148
-1137.3319
-1185.1846
-1230.2365
-1271.5862
-1308.2871
-1339.3735
-1363.8889
-1380.9203
-1389.6595
-1389.4814
-1379.923
-1360.718
-1331.8379
-1293.5025
-1246.1758
-1190.548
-1127.5031
-1058.078
-983.4137
-904.7058
-823.15585
-739.92853
-656.11576
-572.70947
-490.58318
-410.4819
-333.01931
-258.68102
-187.83227
-120.72896
-57.530372
1.6870526
56.916018
108.20523
155.64725
199.3676
239.51525
276.25453
309.75832
340.20248
367.76144
392.60466
414.894