/*--------------------------------*- C++ -*----------------------------------*\
| =========                 |                                                 |
| \\      /  F ield         | foam-extend: Open Source CFD                    |
|  \\    /   O peration     | Version:     4.1                                |
|   \\  /    A nd           | Web:         http://www.foam-extend.org         |
|    \\/     M anipulation  |                                                 |
\*---------------------------------------------------------------------------*/
FoamFile
{
    version     2.0;
    format      ascii;
    class       surfaceScalarField;
    location    "0.15";
    object      phi;
}
// * * * * * * * * * * * * * * * * * * * * * * * * * * * * * * * * * * * * * //

dimensions      [0 3 -1 0 0 0 0];

internalField   nonuniform List<scalar> 
32976
(
-0.24552729
2.3154729e-05
-0.24555053
2.3237117e-05
-0.24557395
2.3420177e-05
-0.24559766
2.3707955e-05
-0.24562176
2.4100939e-05
-0.24564636
2.4600979e-05
-0.24567157
2.5209526e-05
-0.2456975
2.5929227e-05
-0.24572426
2.6762296e-05
-0.24575197
2.7712185e-05
-0.24578076
2.8781862e-05
-0.24581073
2.9975586e-05
-0.24584203
3.1297069e-05
-0.24587478
3.2751377e-05
-0.24590912
3.4342944e-05
-0.2459452
3.6077634e-05
-0.24598316
3.7960568e-05
-0.24602316
3.999838e-05
-0.24606536
4.2196818e-05
-0.24610992
4.4563234e-05
-0.24615702
4.7103913e-05
-0.24620685
4.9826838e-05
-0.24625959
5.2738695e-05
-0.24631544
5.5847958e-05
-0.2463746
5.9161527e-05
-0.24643729
6.268816e-05
-0.24650372
6.64347e-05
-0.24657413
7.0409904e-05
-0.24664875
7.462019e-05
-0.24672783
7.9073917e-05
-0.2468116
8.3776584e-05
-0.24690034
8.8735255e-05
-0.24699429
9.3955339e-05
-0.24709373
9.9440027e-05
-0.24719893
0.00010519399
-0.24731014
0.00011121721
-0.24742766
0.00011751133
-0.24755173
0.00012407229
-0.24768263
0.00013089744
-0.2478206
0.00013797732
-0.24796591
0.00014530348
-0.24811877
0.00015285955
-0.24827939
0.00016062866
-0.24844798
0.00016858714
-0.24862469
0.00017670692
-0.24880964
0.00018495413
-0.24900293
0.00019328855
-0.2492046
0.00020166346
-0.24941462
0.00021002433
-0.24963293
0.00021830902
-0.24985938
0.000226447
-0.25009373
0.00023435894
-0.25033569
0.00024195635
-0.25058483
0.00024914185
-0.25084064
0.00025580816
-0.25110248
0.00026183918
-0.25136959
0.00026710994
-0.25164108
0.00027148727
-0.25191591
0.00027483062
-0.2521929
0.00027699396
-0.25247073
0.00027782621
-0.2527479
0.00027717449
-0.25302279
0.00027488601
-0.2532936
0.00027081108
-0.25355841
0.00026480643
-0.25381515
0.00025673888
-0.25406164
0.0002464899
-0.25429559
0.00023395887
-0.25451466
0.00021906872
-0.25471643
0.00020176986
-0.25489848
0.00018204474
-0.25505839
0.00015991182
-0.25519382
0.00013542954
-0.25530252
0.00010869831
-0.25538238
7.9862985e-05
-0.25543149
4.9113256e-05
-0.25544818
1.6683679e-05
-0.25543103
-1.7147054e-05
-0.25537897
-5.2064872e-05
-0.25529124
-8.7723826e-05
-0.25516749
-0.00012375116
-0.25500774
-0.00015975541
-0.2548124
-0.00019533532
-0.25458231
-0.00023008934
-0.25431869
-0.00026362517
-0.25402312
-0.0002955693
-0.25369754
-0.00032557574
-0.25334421
-0.0003533339
-0.25296563
-0.00037857509
-0.25256456
-0.00040107738
-0.25214389
-0.00042066972
-0.25170665
-0.00043723184
-0.25125596
-0.00045069572
-0.25079492
-0.00046104313
-0.25032661
-0.00046830261
-0.24985407
-0.0004725453
-0.24938019
-0.0004738796
-0.24890774
-0.0004724465
-0.24843933
-0.00046841154
-0.24797737
-0.00046196075
-0.24752408
-0.00045329375
-0.24708146
-0.00044261829
-0.24665131
-0.00043014506
-0.24623523
-0.00041608392
-0.24583459
-0.0004006383
-0.24545059
-0.00038400364
-0.24508422
-0.00036636395
-0.24473633
-0.00034788995
-0.2444076
-0.00032873756
-0.24409855
-0.00030904769
-0.2438096
-0.00028894441
-0.24354107
-0.00026853635
-0.24329315
-0.00024791629
-0.24306599
-0.00022716187
-0.24285965
-0.0002063363
-0.24267416
-0.00018548976
-0.2425095
-0.00016465954
-0.24236563
-0.00014387217
-0.24224249
-0.00012314408
-0.24214
-0.00010248303
-0.24205811
-8.1889465e-05
-0.24199676
-6.1357757e-05
-0.24195588
-4.0876758e-05
-2.0430573e-05
-0.24553735
4.6262561e-05
-0.24556054
4.6427933e-05
-0.24558391
4.6793836e-05
-0.24560757
4.7368936e-05
-0.24563162
4.815425e-05
-0.24565618
4.9153498e-05
-0.24568134
5.0369584e-05
-0.24570722
5.1807804e-05
-0.24573393
5.3472588e-05
-0.24576158
5.5370835e-05
-0.24579031
5.7508486e-05
-0.24582023
5.9894058e-05
-0.24585147
6.2534976e-05
-0.24588416
6.5441375e-05
-0.24591844
6.8622125e-05
-0.24595445
7.2088959e-05
-0.24599234
7.5852123e-05
-0.24603227
7.9924893e-05
-0.24607439
8.4318773e-05
-0.24611887
8.9048479e-05
-0.2461659
9.4126594e-05
-0.24621564
9.9569098e-05
-0.24626829
0.00010538939
-0.24632405
0.00011160443
-0.24638311
0.00011822806
-0.2464457
0.00012527782
-0.24651204
0.00013276744
-0.24658234
0.00014071448
-0.24665685
0.00014913182
-0.24673581
0.00015803625
-0.24681948
0.00016743883
-0.24690809
0.00017735377
-0.24700193
0.00018779198
-0.24710125
0.00019875995
-0.24720632
0.00021026711
-0.24731742
0.0002223136
-0.24743481
0.00023490278
-0.24755877
0.00024802674
-0.24768955
0.00026168033
-0.24782742
0.00027584481
-0.24797262
0.00029050347
-0.24812538
0.0003056238
-0.24828593
0.00032117229
-0.24845444
0.0003371018
-0.24863109
0.00035335647
-0.248816
0.00036986879
-0.24900927
0.00038655859
-0.24921094
0.00040333266
-0.249421
0.00042008215
-0.24963938
0.00043668303
-0.24986592
0.00045299438
-0.25010042
0.00046885772
-0.25034256
0.00048409613
-0.25059194
0.00049851487
-0.25084803
0.0005118993
-0.2511102
0.00052401709
-0.25137771
0.00053461798
-0.25164966
0.0005434352
-0.25192502
0.00055018711
-0.2522026
0.00055458087
-0.25248109
0.00055631342
-0.252759
0.00055507789
-0.25303468
0.00055056737
-0.25330635
0.00054248101
-0.25357207
0.00053053063
-0.25382978
0.00051444803
-0.25407728
0.00049399422
-0.25431229
0.000468966
-0.25453243
0.00043920719
-0.25473528
0.00040461671
-0.25491839
0.00036515765
-0.25507934
0.00032086544
-0.25521577
0.00027185573
-0.2553254
0.00021832862
-0.25540611
0.00016057365
-0.25545597
9.8970741e-05
-0.25547328
3.3990156e-05
-0.25545661
-3.381032e-05
-0.25540488
-0.00010379999
-0.25531732
-0.00017528377
-0.25519356
-0.00024751266
-0.25503361
-0.00031969984
-0.25483791
-0.00039103871
-0.25460728
-0.00046072193
-0.25434294
-0.00052796077
-0.25404651
-0.00059200431
-0.25371992
-0.00065215712
-0.25336546
-0.0007077951
-0.25298566
-0.0007583786
-0.25258327
-0.00080346228
-0.25216124
-0.00084270326
-0.25172261
-0.00087586097
-0.25127051
-0.00090280008
-0.25080807
-0.00092348536
-0.25033839
-0.00093797573
-0.24986452
-0.00094641564
-0.24938938
-0.00094902437
-0.24891574
-0.00094608648
-0.24844621
-0.00093793574
-0.24798323
-0.00092494682
-0.247529
-0.0009075214
-0.24708554
-0.0008860773
-0.24665465
-0.00086103788
-0.24623791
-0.00083282469
-0.2458367
-0.00080184601
-0.24545221
-0.00076849395
-0.24508544
-0.00073313744
-0.24473721
-0.0006961186
-0.2444082
-0.00065774968
-0.24409893
-0.00061831274
-0.24380982
-0.00057805595
-0.24354116
-0.00053719649
-0.24329316
-0.00049591967
-0.24306594
-0.00045438045
-0.24285957
-0.00041270486
-0.24267407
-0.00037099277
-0.24250941
-0.00032931831
-0.24236555
-0.00028773396
-0.24224242
-0.00024627207
-0.24213995
-0.00020494762
-0.24205808
-0.00016376088
-0.24199674
-0.00012270006
-0.24195588
-8.1742415e-05
-4.0855786e-05
-0.24555675
6.9279639e-05
-0.24557985
6.9527563e-05
-0.24560313
7.0075671e-05
-0.2456267
7.0937153e-05
-0.24565066
7.2113516e-05
-0.24567512
7.3610348e-05
-0.24570018
7.5432007e-05
-0.24572596
7.7586436e-05
-0.24575257
8.0080282e-05
-0.24578012
8.2923896e-05
-0.24580874
8.6126189e-05
-0.24583854
8.9699937e-05
-0.24586967
9.3656283e-05
-0.24590223
9.8010434e-05
-0.24593639
0.00010277571
-0.24597227
0.0001079697
-0.24601002
0.00011360781
-0.24604981
0.00011970997
-0.24609178
0.00012629344
-0.24613612
0.00013338033
-0.24618298
0.00014098956
-0.24623256
0.00014914513
-0.24628503
0.00015786719
-0.24634061
0.00016718125
-0.24639949
0.00017710812
-0.24646189
0.00018767422
-0.24652802
0.00019890024
-0.24659812
0.00021081261
-0.24667242
0.00022343082
-0.24675116
0.00023678017
-0.2468346
0.00025087746
-0.24692299
0.00026574418
-0.24701659
0.00028139691
-0.24711568
0.00029784565
-0.24722052
0.00031510484
-0.24733138
0.00033317498
-0.24744854
0.00035206147
-0.24757226
0.00037175284
-0.24770283
0.00039224177
-0.24784048
0.0004135006
-0.24798548
0.00043550478
-0.24813807
0.00045820607
-0.24829845
0.00048155472
-0.24846683
0.00050548065
-0.24864337
0.00052990065
-0.24882822
0.00055471408
-0.24902146
0.00057980127
-0.24922315
0.00060502305
-0.24943328
0.00063021669
-0.2496518
0.00065519668
-0.24987856
0.00067975209
-0.25011334
0.00070364551
-0.25035586
0.0007266118
-0.2506057
0.00074835889
-0.25086237
0.00076856464
-0.25112523
0.00078688014
-0.25139354
0.0008029293
-0.25166642
0.00081631091
-0.25194283
0.00082660109
-0.25222161
0.00083335874
-0.25250143
0.000836127
-0.25278079
0.0008344428
-0.25305807
0.00082784257
-0.25333146
0.0008158713
-0.25359902
0.00079809262
-0.25385867
0.00077409971
-0.2541082
0.00074352929
-0.25434531
0.00070607157
-0.25456759
0.00066148728
-0.25477259
0.00060961992
-0.25495785
0.00055040963
-0.25512089
0.00048390565
-0.25525931
0.00041027836
-0.25537081
0.00032982586
-0.25545321
0.00024298184
-0.25550456
0.00015031702
-0.25552311
5.2539079e-05
-0.25550741
-4.9512417e-05
-0.25545632
-0.000154885
-0.25536908
-0.00026252825
-0.25524528
-0.00037130978
-0.25508494
-0.00048003962
-0.25488848
-0.00058749736
-0.25465674
-0.00069246136
-0.25439097
-0.00079373804
-0.25409278
-0.00089019123
-0.25376417
-0.0009807691
-0.25340744
-0.0010645282
-0.25302516
-0.0011406535
-0.25262015
-0.0012084732
-0.25219538
-0.0012674714
-0.25175396
-0.0013172871
-0.25129904
-0.0013577192
-0.2508338
-0.0013887184
-0.2503614
-0.0014103775
-0.2498849
-0.001422919
-0.24940725
-0.0014266779
-0.24893124
-0.0014220878
-0.24845952
-0.0014096561
-0.24799452
-0.0013899514
-0.24753846
-0.0013635824
-0.24709335
-0.0013311815
-0.246661
-0.0012933888
-0.24624299
-0.0012508411
-0.24584068
-0.0012041544
-0.24545525
-0.0011539199
-0.2450877
-0.0011006932
-0.24473883
-0.001044989
-0.2444093
-0.00098727684
-0.24409963
-0.0009279802
-0.24381022
-0.00086747146
-0.24354134
-0.00080607605
-0.24329319
-0.00074407134
-0.24306588
-0.00068168892
-0.24285947
-0.00061911677
-0.24267395
-0.00055650353
-0.24250931
-0.00049395911
-0.24236549
-0.00043156092
-0.2422424
-0.00036935607
-0.24213999
-0.00030736567
-0.24205816
-0.00024558868
-0.24199685
-0.00018400603
-0.24195601
-0.00012258233
-6.1267893e-05
-0.24558501
9.2160711e-05
-0.24560798
9.2490784e-05
-0.24563112
9.3220196e-05
-0.24565455
9.436664e-05
-0.24567837
9.5932119e-05
-0.24570268
9.7924086e-05
-0.2457276
0.00010034836
-0.24575323
0.00010321552
-0.24577968
0.00010653445
-0.24580708
0.00011031893
-0.24583553
0.00011458086
-0.24586517
0.00011933727
-0.24589612
0.00012460302
-0.24592851
0.00013039841
-0.24596247
0.0001367412
-0.24599816
0.00014365488
-0.24603571
0.00015115999
-0.24607528
0.00015928315
-0.24611704
0.00016804742
-0.24616114
0.00017748233
-0.24620776
0.00018761317
-0.24625709
0.000198472
-0.24630931
0.00021008581
-0.24636461
0.0002224887
-0.24642321
0.00023570857
-0.24648532
0.00024978079
-0.24655115
0.00026473312
-0.24662094
0.00028060104
-0.24669492
0.00029741077
-0.24677334
0.00031519632
-0.24685644
0.00033398042
-0.24694449
0.00035379209
-0.24703775
0.00037465387
-0.24713648
0.00039657954
-0.24724096
0.0004195889
-0.24735147
0.00044368319
-0.24746828
0.00046887028
-0.24759166
0.00049513559
-0.24772189
0.00052247012
-0.24785923
0.00055083787
-0.24800393
0.00058020701
-0.24815624
0.00061051422
-0.24831638
0.00064169419
-0.24848455
0.00067365458
-0.24866094
0.00070628559
-0.24884568
0.00073945415
-0.24903888
0.00077300189
-0.2492406
0.00080674435
-0.24945085
0.00084046566
-0.24966957
0.00087391943
-0.24989665
0.00090682527
-0.25013187
0.0009388673
-0.25037495
0.00096969239
-0.2506255
0.0009989112
-0.25088303
0.0010260939
-0.25114693
0.0010507746
-0.25141645
0.0010724503
-0.25169072
0.0010905844
-0.25196873
0.0011046089
-0.2522493
0.0011139323
-0.25253112
0.0011179412
-0.25281269
0.001116013
-0.25309237
0.0011075235
-0.25336836
0.0010918592
-0.25363869
0.0010684306
-0.25390128
0.0010366867
-0.25415389
0.00099613405
-0.25439416
0.00094635037
-0.25461968
0.00088700715
-0.25482795
0.00081788658
-0.25501644
0.00073890035
-0.25518264
0.0006501067
-0.25532409
0.00055172697
-0.25543842
0.00044415477
-0.25552341
0.000327967
-0.25557701
0.00020392603
-0.25559746
7.2979517e-05
-0.25558322
-6.3746517e-05
-0.25553314
-0.00020497048
-0.25544639
-0.00034927772
-0.25532255
-0.00049514185
-0.25516164
-0.00064095776
-0.25496406
-0.00078507853
-0.25473066
-0.00092585514
-0.25446272
-0.0010616764
-0.25416191
-0.001191009
-0.25383024
-0.0013124339
-0.25347009
-0.0014246795
-0.25308409
-0.0015266487
-0.25267513
-0.0016174388
-0.25224624
-0.0016963582
-0.2518006
-0.0017629263
-0.25134144
-0.0018168782
-0.25087201
-0.0018581546
-0.2503955
-0.0018868882
-0.24991503
-0.0019033861
-0.2494336
-0.0019081071
-0.24895405
-0.0019016417
-0.24847902
-0.0018846791
-0.24801099
-0.0018579899
-0.24755217
-0.0018223974
-0.2471046
-0.0017787555
-0.24667006
-0.0017279272
-0.24625013
-0.0016707697
-0.24584617
-0.0016081113
-0.24545935
-0.0015407455
-0.24509062
-0.0014694175
-0.2447408
-0.0013948165
-0.2444105
-0.0013175704
-0.24410024
-0.0012382448
-0.24381037
-0.0011573362
-0.24354117
-0.0010752779
-0.24329281
-0.00099243863
-0.24306537
-0.00090912551
-0.2428589
-0.00082558722
-0.24267338
-0.00074201973
-0.24250877
-0.0006585672
-0.242365
-0.00057533029
-0.24224199
-0.00049236929
-0.24213965
-0.00040970969
-0.24205789
-0.00032734748
-0.24199664
-0.00024525467
-0.24195584
-0.00016338159
-8.1659155e-05
-0.24562262
0.00011486074
-0.2456454
0.00011527285
-0.24566836
0.00011618245
-0.24569161
0.00011761198
-0.24571524
0.00011956401
-0.24573936
0.00012204787
-0.24576409
0.00012507083
-0.24578952
0.00012864612
-0.24581577
0.00013278483
-0.24584295
0.00013750421
-0.24587119
0.00014281913
-0.2459006
0.00014875087
-0.24593132
0.00015531804
-0.24596347
0.000162546
-0.24599718
0.000170457
-0.24603261
0.00017908041
-0.24606989
0.00018844198
-0.24610918
0.00019857499
-0.24615064
0.00020950837
-0.24619444
0.00022127909
-0.24624075
0.00023391887
-0.24628974
0.00024746792
-0.24634162
0.00026196012
-0.24639657
0.00027743826
-0.24645479
0.00029393746
-0.24651652
0.00031150214
-0.24658195
0.00033016733
-0.24665133
0.0003499777
-0.24672488
0.00037096641
-0.24680286
0.00039317645
-0.24688552
0.00041663674
-0.24697311
0.00044138415
-0.2470659
0.00046744751
-0.24716417
0.00049484482
-0.24726818
0.00052360165
-0.24737822
0.00055372053
-0.24749456
0.00058521229
-0.24761749
0.00061805991
-0.24774727
0.00065225336
-0.24788418
0.00068774905
-0.24802848
0.00072450863
-0.24818042
0.00076245455
-0.24834024
0.00080150686
-0.24850813
0.00084155189
-0.2486843
0.0008824542
-0.2488689
0.00092404934
-0.24906204
0.00096614119
-0.24926379
0.001008501
-0.24947419
0.0010508608
-0.24969318
0.001092914
-0.24992067
0.0011343116
-0.25015646
0.0011746599
-0.25040029
0.0012135181
-0.25065178
0.0012503997
-0.25091045
0.0012847671
-0.25117571
0.0013160364
-0.25144684
0.0013435773
-0.25172297
0.0013667155
-0.2520031
0.0013847371
-0.25228606
0.001396897
-0.25257054
0.0014024218
-0.25285506
0.001400525
-0.25313795
0.0013904166
-0.25341741
0.0013713185
-0.25369146
0.0013424812
-0.25395798
0.0013032026
-0.25421469
0.0012528511
-0.25445923
0.0011908836
-0.25468909
0.0011168741
-0.25490174
0.0010305354
-0.25509458
0.00093174335
-0.25526504
0.00082055846
-0.25541056
0.00069724777
-0.2555287
0.00056229694
-0.25561716
0.00041642468
-0.25567382
0.000260586
-0.25569681
9.5972108e-05
-0.25568456
-7.5998012e-05
-0.25563583
-0.00025370382
-0.25554975
-0.00043535448
-0.25542588
-0.00061901516
-0.25526418
-0.00080264946
-0.2550651
-0.00098416663
-0.25482948
-0.0011614725
-0.25455863
-0.001332521
-0.25425428
-0.0014953652
-0.25391851
-0.0016482046
-0.25355376
-0.0017894275
-0.25316276
-0.0019176451
-0.25274848
-0.002031718
-0.25231407
-0.0021307766
-0.25186277
-0.0022142202
-0.25139793
-0.002281724
-0.25092286
-0.0023332242
-0.25044084
-0.0023689012
-0.24995507
-0.0023891564
-0.2494686
-0.0023945827
-0.2489843
-0.0023859387
-0.24850487
-0.0023641065
-0.24803279
-0.0023300695
-0.24757032
-0.0022848757
-0.24711946
-0.0022296099
-0.24668202
-0.0021653662
-0.24625956
-0.0020932293
-0.24585343
-0.0020142454
-0.24546476
-0.0019294155
-0.2450945
-0.0018396773
-0.24474342
-0.0017458974
-0.24441213
-0.0016488633
-0.24410109
-0.0015492835
-0.24381064
-0.0014477787
-0.24354103
-0.0013448895
-0.2432924
-0.0012410749
-0.24306481
-0.0011367159
-0.24285827
-0.0010321203
-0.24267276
-0.00092752934
-0.24250821
-0.00082311943
-0.24236453
-0.0007190123
-0.24224162
-0.00061527915
-0.24213938
-0.00051194761
-0.24205772
-0.00040900844
-0.24199655
-0.00030642253
-0.24195581
-0.00020412374
-0.00010202113
-0.24566937
0.0001373371
-0.24569192
0.00013782955
-0.24571466
0.00013891761
-0.24573768
0.00014062783
-0.24576108
0.00014296319
-0.24578496
0.00014593487
-0.24580944
0.00014955161
-0.24583463
0.00015382927
-0.24586062
0.00015878116
-0.24588755
0.00016442797
-0.24591551
0.00017078756
-0.24594465
0.00017788547
-0.24597508
0.00018574406
-0.24600692
0.00019439377
-0.24604033
0.00020386134
-0.24607543
0.00021418205
-0.24611237
0.00022538686
-0.24615131
0.00023751577
-0.24619241
0.00025060362
-0.24623583
0.00026469487
-0.24628173
0.00027982774
-0.24633032
0.00029605065
-0.24638176
0.00031340449
-0.24643626
0.00033194086
-0.24649403
0.00035170221
-0.24655527
0.0003727422
-0.24662021
0.00039510331
-0.24668907
0.00041883962
-0.24676209
0.00044399153
-0.24683953
0.00047061125
-0.24692163
0.00049873426
-0.24700865
0.00052840566
-0.24710086
0.00055966103
-0.24719854
0.00059252308
-0.24730196
0.00062702371
-0.24741141
0.00066316736
-0.24752716
0.00070096854
-0.24764951
0.00074040851
-0.24777874
0.00078147709
-0.24791511
0.00082412399
-0.24805891
0.00086830534
-0.24821038
0.00091393043
-0.24836978
0.00096090578
-0.24853733
0.0010090976
-0.24871322
0.001058346
-0.24889763
0.0011084564
-0.24909068
0.0011591963
-0.24929248
0.0012102939
-0.24950305
0.00126143
-0.24972237
0.0013122395
-0.24995036
0.0013623055
-0.25018686
0.0014111571
-0.25043161
0.0014582665
-0.25068426
0.0015030502
-0.25094436
0.0015448625
-0.25121132
0.0015830012
-0.25148445
0.0016167068
-0.2517629
0.0016451658
-0.25204568
0.0016675154
-0.25233164
0.0016828536
-0.25261946
0.0016902422
-0.25290766
0.0016887253
-0.25319458
0.0016773407
-0.2534784
0.0016551382
-0.25375712
0.0016212001
-0.25402858
0.0015746634
-0.25429048
0.0015147487
-0.25454038
0.0014407815
-0.25477573
0.001352228
-0.25499392
0.001248721
-0.25519226
0.0011300907
-0.2553681
0.00099639152
-0.25551878
0.00084792925
-0.25564176
0.00068527682
-0.25573463
0.00050929278
-0.25579517
0.00032112584
-0.25582141
0.00012221515
-0.25581169
-8.5719057e-05
-0.25576469
-0.00030070477
-0.25567948
-0.0005205599
-0.25555557
-0.00074292283
-0.25539292
-0.00096530513
-0.25519194
-0.00118515
-0.25495351
-0.0013998954
-0.254679
-0.0016070378
-0.25437017
-0.0018041959
-0.2540292
-0.0019891694
-0.25365864
-0.0021599905
-0.25326132
-0.0023149677
-0.25284032
-0.0024527168
-0.25239891
-0.0025721867
-0.25194047
-0.0026726577
-0.25146844
-0.0027537489
-0.25098627
-0.0028153998
-0.25049732
-0.002857849
-0.25000487
-0.0028816041
-0.24951205
-0.0028874057
-0.2490218
-0.0028761948
-0.24853684
-0.0028490607
-0.2480597
-0.0028072132
-0.24759264
-0.0027519382
-0.24713768
-0.0026845629
-0.24669663
-0.002606423
-0.24627102
-0.0025188395
-0.24586218
-0.0024230841
-0.24547122
-0.0023203704
-0.24509907
-0.0022118339
-0.24474644
-0.0020985207
-0.24441393
-0.0019813804
-0.24410194
-0.0018612648
-0.2438108
-0.0017389189
-0.2435407
-0.0016149895
-0.24329175
-0.0014900244
-0.24306399
-0.0013644771
-0.2428574
-0.0012387117
-0.24267192
-0.0011130127
-0.24250745
-0.00098758567
-0.24236389
-0.00086257089
-0.24224113
-0.00073804758
-0.24213903
-0.00061404267
-0.2420575
-0.0004905389
-0.24199644
-0.00036748326
-0.24195577
-0.00024479036
-0.0001223444
-0.24572543
0.00015954268
-0.24574772
0.0001601162
-0.24577018
0.0001613812
-0.24579293
0.00016336932
-0.24581605
0.00016608417
-0.24583965
0.0001695388
-0.24586384
0.00017374343
-0.24588873
0.00017871654
-0.24591442
0.00018447369
-0.24594103
0.00019103898
-0.24596868
0.00019843327
-0.24599748
0.00020668637
-0.24602756
0.00021582438
-0.24605905
0.00022588283
-0.24609208
0.00023689298
-0.24612679
0.00024889605
-0.24616334
0.00026192821
-0.24620186
0.00027603626
-0.24624251
0.00029126096
-0.24628547
0.00030765434
-0.24633091
0.0003252612
-0.24637899
0.00034413826
-0.24642992
0.00036433352
-0.24648389
0.00038590754
-0.2465411
0.00040891028
-0.24660176
0.00043340481
-0.2466661
0.0004594413
-0.24673434
0.00048708349
-0.24680673
0.00051637933
-0.24688351
0.00054739061
-0.24696494
0.00058015979
-0.24705127
0.00061474065
-0.24714279
0.00065117602
-0.24723976
0.00068949397
-0.24734247
0.00072973336
-0.2474512
0.00077190128
-0.24756625
0.00081601678
-0.2476879
0.00086206032
-0.24781645
0.00091002254
-0.24795217
0.00095984757
-0.24809535
0.0010114872
-0.24824626
0.0010648389
-0.24840515
0.0011197969
-0.24857226
0.0011762088
-0.24874781
0.0012338918
-0.24893198
0.0012926227
-0.24912491
0.0013521341
-0.24932673
0.0014121126
-0.24953749
0.0014721898
-0.2497572
0.0015319427
-0.24998578
0.0015908881
-0.2502231
0.0016484789
-0.25046893
0.001704101
-0.25072296
0.0017570743
-0.25098474
0.0018066447
-0.25125373
0.0018519909
-0.25152925
0.0018922228
-0.25181047
0.0019263854
-0.25209641
0.0019534638
-0.25238596
0.0019723948
-0.25267778
0.00198207
-0.25297042
0.0019813576
-0.25326219
0.0019691154
-0.25355127
0.0019442122
-0.25383562
0.0019055515
-0.25411305
0.0018520982
-0.25438122
0.001782913
-0.25463761
0.0016971773
-0.25487962
0.001594236
-0.25510453
0.0014736296
-0.25530957
0.0013351302
-0.25549195
0.0011787754
-0.25564892
0.001004901
-0.25577781
0.00081416106
-0.25587607
0.00060755125
-0.25594136
0.00038641494
-0.25597159
0.00015244444
-0.25596498
-9.2328905e-05
-0.25592011
-0.00034556645
-0.255836
-0.00060467634
-0.25571207
-0.00086684752
-0.25554826
-0.0011291139
-0.25534499
-0.0013884251
-0.25510316
-0.0016417229
-0.25482418
-0.0018860186
-0.25450991
-0.0021184708
-0.25416262
-0.0023364558
-0.25378498
-0.0025376314
-0.25337996
-0.0027199885
-0.25295079
-0.0028818893
-0.25250088
-0.0030220967
-0.25203376
-0.0031397731
-0.25155302
-0.0032344874
-0.25106223
-0.003306192
-0.25056488
-0.0033551963
-0.25006436
-0.0033821297
-0.24956387
-0.0033878973
-0.24906642
-0.0033736401
-0.24857481
-0.0033406721
-0.24809158
-0.0032904467
-0.24761901
-0.0032245032
-0.24715915
-0.0031444259
-0.24671377
-0.0030518045
-0.2462844
-0.0029482069
-0.24587235
-0.0028351389
-0.24547868
-0.0027140343
-0.24510428
-0.0025862305
-0.24474985
-0.0024529574
-0.2444159
-0.0023153282
-0.24410283
-0.0021743392
-0.24381089
-0.002030859
-0.24354024
-0.0018856399
-0.24329094
-0.0017393165
-0.24306301
-0.0015924119
-0.24285638
-0.0014453446
-0.24267095
-0.0012984385
-0.24250661
-0.0011519256
-0.24236322
-0.0010059612
-0.24224064
-0.000860629
-0.24213873
-0.00071595195
-0.24205737
-0.00057190131
-0.24199644
-0.00042840686
-0.24195587
-0.00028536063
-0.00014261838
-0.24579031
0.00018143857
-0.24581229
0.00018208999
-0.24583443
0.00018352938
-0.24585686
0.000185792
-0.24587965
0.00018888184
-0.24590293
0.00019281375
-0.24592679
0.00019759941
-0.24595133
0.00020325992
-0.24597667
0.00020981307
-0.24600292
0.00021728641
-0.24603019
0.00022570378
-0.2460586
0.00023509924
-0.24608828
0.00024550267
-0.24611935
0.0002569547
-0.24615195
0.00026949111
-0.24618621
0.00028315907
-0.24622228
0.00029800005
-0.24626031
0.00031406763
-0.24630046
0.00033140858
-0.24634289
0.00035008255
-0.24638777
0.00037014103
-0.24643528
0.00039164914
-0.24648561
0.00041466213
-0.24653895
0.00043924965
-0.24659551
0.00046546936
-0.2466555
0.00049339398
-0.24671914
0.00052308162
-0.24678666
0.00055460599
-0.24685831
0.00058802294
-0.24693432
0.00062340424
-0.24701496
0.00066079981
-0.24710049
0.00070027263
-0.24719119
0.00074187342
-0.24728733
0.00078563626
-0.24738921
0.00083160775
-0.2474971
0.00087979855
-0.24761132
0.00093023312
-0.24773215
0.00098289226
-0.2478599
0.0010377686
-0.24799485
0.0010948019
-0.24813731
0.0011539412
-0.24828754
0.0012150733
-0.24844583
0.0012780821
-0.24861242
0.0013427981
-0.24878754
0.0014090173
-0.24897141
0.0014764898
-0.24916419
0.0015449151
-0.24936602
0.0016139403
-0.24957698
0.0016831489
-0.2497971
0.0017520625
-0.25002634
0.0018201326
-0.2502646
0.0018867374
-0.25051168
0.0019511773
-0.25076728
0.0020126759
-0.251031
0.0020703707
-0.25130233
0.0021233207
-0.25158061
0.0021705035
-0.25186505
0.0022108201
-0.25215468
0.0022430997
-0.2524484
0.0022661131
-0.25274491
0.0022785757
-0.25304272
0.002279172
-0.25334018
0.0022665707
-0.25363542
0.0022394487
-0.25392638
0.0021965189
-0.25421085
0.0021365609
-0.25448639
0.0020584605
-0.25475046
0.0019612398
-0.25500033
0.0018441068
-0.25523319
0.0017064937
-0.25544616
0.0015481003
-0.25563632
0.0013689338
-0.25580077
0.0011693491
-0.25593668
0.00095007378
-0.25604137
0.00071223655
-0.25611233
0.00045737632
-0.25614733
0.00018744444
-0.25614445
-9.5205107e-05
-0.25610217
-0.00038784891
-0.25601938
-0.00068746331
-0.25589547
-0.00099076052
-0.25573032
-0.0012942658
-0.25552434
-0.0015944019
-0.25527848
-0.0018875801
-0.25499421
-0.002170293
-0.25467347
-0.0024392071
-0.25431868
-0.0026912481
-0.25393264
-0.0029236761
-0.25351848
-0.0031341472
-0.25307961
-0.0033207587
-0.25261962
-0.0034820836
-0.25214223
-0.0036171675
-0.25165118
-0.0037255363
-0.2511502
-0.0038071676
-0.25064294
-0.0038624575
-0.2501329
-0.0038921759
-0.24962338
-0.003897413
-0.24911749
-0.003879531
-0.24861807
-0.00384009
-0.24812771
-0.0037808072
-0.24764872
-0.0037034944
-0.24718314
-0.0036100097
-0.24673273
-0.0035022117
-0.24629901
-0.0033819279
-0.24588324
-0.0032509086
-0.24548646
-0.0031108149
-0.2451095
-0.0029631928
-0.24475299
-0.0028094595
-0.24441743
-0.002650894
-0.24410313
-0.0024886377
-0.24381031
-0.0023236825
-0.24353906
-0.0021568844
-0.24328942
-0.0019889625
-0.24306132
-0.001820507
-0.24285468
-0.0016519868
-0.24266936
-0.0014837619
-0.24250519
-0.0013160868
-0.24236203
-0.0011491276
-0.24223969
-0.00098296874
-0.24213802
-0.00081762494
-0.24205686
-0.00065305206
-0.24199611
-0.00048915882
-0.24195566
-0.00032581072
-0.00016283098
-0.24586446
0.00020297573
-0.24588607
0.00020370655
-0.24590786
0.00020531841
-0.24592992
0.00020785184
-0.24595235
0.00021131155
-0.24597525
0.00021571425
-0.24599873
0.00022107309
-0.24602288
0.0002274118
-0.24604782
0.0002347504
-0.24607365
0.00024311984
-0.24610049
0.00025254699
-0.24612846
0.00026307015
-0.24615768
0.00027472298
-0.24618828
0.00028755121
-0.24622039
0.00030159519
-0.24625413
0.00031690804
-0.24628967
0.00033353658
-0.24632714
0.00035154119
-0.24636671
0.00037097476
-0.24640853
0.00039190459
-0.24645278
0.00041438898
-0.24649963
0.00043850154
-0.24654928
0.00046430496
-0.2466019
0.00049187812
-0.24665772
0.00052128662
-0.24671694
0.00055261303
-0.24677978
0.00058592374
-0.24684648
0.00062130272
-0.24691727
0.00065881416
-0.24699241
0.00069854024
-0.24707215
0.0007405389
-0.24715676
0.0007848829
-0.24724651
0.00083163152
-0.2473417
0.00088082566
-0.24744262
0.00093252054
-0.24754955
0.00098673135
-0.24766281
0.0010434891
-0.24778269
0.0011027761
-0.24790951
0.0011645883
-0.24804357
0.0012288627
-0.24818518
0.0012955468
-0.24833462
0.001364519
-0.24849219
0.0014356543
-0.24865816
0.0015087681
-0.24883278
0.0015836375
-0.24901628
0.0016599878
-0.24920886
0.0017374876
-0.24941066
0.0018157466
-0.24962182
0.0018943026
-0.24984238
0.0019726233
-0.25007234
0.0020500971
-0.25031163
0.0021260289
-0.25056009
0.0021996347
-0.25081746
0.0022700427
-0.25108337
0.0023362821
-0.25135734
0.0023972911
-0.25163875
0.0024519136
-0.25192683
0.0024989037
-0.25222066
0.0025369308
-0.25251915
0.0025645943
-0.252821
0.0025804264
-0.25312474
0.0025829192
-0.25342871
0.0025705417
-0.25373103
0.002541767
-0.25402962
0.0024951033
-0.25432219
0.0024291289
-0.25460626
0.0023425381
-0.2548792
0.0022341754
-0.25513819
0.0021030934
-0.25538029
0.0019485975
-0.25560249
0.0017702971
-0.25580171
0.0015681531
-0.25597488
0.0013425261
-0.25611902
0.0010942072
-0.25623123
0.00082445323
-0.25630886
0.0005349989
-0.25634947
0.00022806093
-0.25635101
-9.3671021e-05
-0.25631179
-0.00042706772
-0.2562306
-0.00076864775
-0.25610675
-0.0011146141
-0.25594007
-0.0014609467
-0.25573097
-0.0018035013
-0.25548043
-0.0021381178
-0.25519
-0.0024607297
-0.25486173
-0.0027674741
-0.25449818
-0.0030547926
-0.25410234
-0.0033195201
-0.25367753
-0.0035589578
-0.25322736
-0.0037709255
-0.25275565
-0.0039538007
-0.2522663
-0.0041065153
-0.25176327
-0.004228561
-0.25125049
-0.0043199553
-0.25073174
-0.0043812007
-0.25021069
-0.0044132303
-0.24969076
-0.0044173439
-0.24917514
-0.0043951504
-0.24866675
-0.0043484812
-0.24816821
-0.0042793412
-0.24768187
-0.0041898369
-0.24720976
-0.0040821202
-0.24675364
-0.0039583355
-0.24631498
-0.0038205846
-0.24589502
-0.0036708733
-0.24549473
-0.0035110998
-0.2451149
-0.0033430243
-0.2447561
-0.0031682558
-0.24441876
-0.0029882414
-0.24410313
-0.002804268
-0.24380936
-0.0026174499
-0.2435375
-0.0024287449
-0.24328751
-0.0022389538
-0.24305928
-0.0020487301
-0.24285268
-0.001858589
-0.24266752
-0.0016689227
-0.24250361
-0.0014800031
-0.24236073
-0.0012920027
-0.2422387
-0.0011050019
-0.24213732
-0.00091900271
-0.24205643
-0.00073394089
-0.24199589
-0.00054969962
-0.24195559
-0.00036611351
-0.00018296844
-0.24594767
0.00022411883
-0.24596889
0.00022492474
-0.24599028
0.00022670572
-0.24601193
0.0002295056
-0.24603395
0.00023332939
-0.24605643
0.00023819559
-0.24607948
0.00024411881
-0.24610319
0.00025112538
-0.24612768
0.00025923754
-0.24615305
0.00026848967
-0.24617941
0.00027891164
-0.24620689
0.000290546
-0.24623559
0.00030343021
-0.24626566
0.00031761509
-0.24629721
0.00033314558
-0.24633038
0.00035008079
-0.24636532
0.0003684729