/*--------------------------------*- C++ -*----------------------------------*\
| =========                 |                                                 |
| \\      /  F ield         | foam-extend: Open Source CFD                    |
|  \\    /   O peration     | Version:     4.1                                |
|   \\  /    A nd           | Web:         http://www.foam-extend.org         |
|    \\/     M anipulation  |                                                 |
\*---------------------------------------------------------------------------*/
FoamFile
{
    version     2.0;
    format      ascii;
    class       volScalarField;
    location    "0.15";
    object      rAU;
}
// * * * * * * * * * * * * * * * * * * * * * * * * * * * * * * * * * * * * * //

dimensions      [0 0 1 0 0 0 0];

internalField   nonuniform List<scalar> 
16796
(
0.0001205973
0.00012058902
0.00012057991
0.00012057146
0.0001205621
0.00012055332
0.00012054355
0.00012053427
0.00012052393
0.000120514
0.00012050291
0.00012049213
0.00012048011
0.00012046831
0.00012045516
0.00012044212
0.00012042763
0.00012041315
0.00012039709
0.00012038092
0.00012036305
0.00012034493
0.00012032498
0.00012030464
0.00012028233
0.00012025947
0.00012023447
0.00012020877
0.00012018077
0.00012015188
0.00012012052
0.00012008772
0.00012005338
0.00012001629
0.00011997785
0.00011993646
0.00011989353
0.00011984747
0.00011979968
0.00011974858
0.00011969559
0.00011963923
0.00011958041
0.00011951867
0.00011945401
0.00011938642
0.00011931582
0.00011924233
0.00011916585
0.00011908646
0.00011900422
0.00011891923
0.00011883157
0.00011874152
0.00011864916
0.00011855477
0.00011845864
0.00011836109
0.00011826247
0.00011816331
0.00011806398
0.00011796506
0.00011786711
0.00011777077
0.00011767673
0.00011758565
0.00011749841
0.0001174157
0.00011733835
0.0001172672
0.00011720308
0.00011714678
0.00011709921
0.00011706102
0.00011703298
0.00011701575
0.00011700989
0.00011700986
0.00011701592
0.00011703418
0.00011706498
0.00011710846
0.00011716463
0.00011723339
0.00011731448
0.00011740753
0.00011751204
0.00011762737
0.00011775279
0.00011788742
0.00011803047
0.00011818085
0.00011833755
0.00011849951
0.00011866565
0.00011883489
0.00011900611
0.00011917838
0.0001193506
0.00011952183
0.00011969119
0.00011985784
0.00012002097
0.00012018001
0.00012033421
0.00012048307
0.00012062609
0.00012076285
0.00012089297
0.00012101626
0.00012113236
0.0001212411
0.00012134234
0.00012143596
0.00012152183
0.00012160001
0.00012167033
0.00012173283
0.00012178749
0.00012183432
0.00012187328
0.00012190449
0.00012192786
0.00012194344
0.00012058493
0.00012057663
0.00012056748
0.00012055894
0.00012054945
0.0001205405
0.00012053053
0.000120521
0.00012051037
0.00012050011
0.00012048864
0.00012047745
0.00012046496
0.00012045264
0.00012043893
0.00012042527
0.00012041012
0.0001203949
0.00012037806
0.00012036105
0.00012034227
0.00012032318
0.00012030219
0.00012028074
0.00012025724
0.00012023312
0.00012020679
0.00012017966
0.00012015016
0.00012011968
0.00012008664
0.00012005207
0.00012001587
0.00011997682
0.00011993633
0.0001198928
0.00011984763
0.00011979923
0.00011974902
0.0001196954
0.0001196398
0.00011958076
0.00011951919
0.00011945462
0.00011938709
0.00011931658
0.00011924304
0.00011916659
0.00011908715
0.00011900484
0.00011891972
0.00011883194
0.00011874159
0.000118649
0.00011855428
0.00011845776
0.00011835975
0.00011826063
0.00011816079
0.00011806082
0.00011796113
0.00011786235
0.0001177651
0.00011767007
0.00011757799
0.00011748957
0.00011740574
0.00011732721
0.00011725485
0.00011718951
0.00011713203
0.00011708321
0.00011704393
0.00011701483
0.00011699663
0.00011698993
0.00011699524
0.00011699504
0.00011698868
0.0001169943
0.00011701238
0.00011704318
0.00011708686
0.00011714343
0.00011721278
0.00011729466
0.00011738867
0.0001174943
0.00011761088
0.00011773764
0.00011787382
0.00011801837
0.00011817032
0.00011832862
0.00011849217
0.00011865987
0.00011883058
0.00011900333
0.00011917694
0.00011935044
0.00011952286
0.0001196933
0.00011986089
0.00012002497
0.00012018473
0.0001203396
0.00012048902
0.00012063252
0.00012076965
0.00012090016
0.00012102366
0.00012113995
0.00012124884
0.00012135017
0.00012144381
0.00012152979
0.00012160794
0.00012167826
0.00012174074
0.00012179537
0.00012184213
0.00012188114
0.0001219123
0.00012193566
0.00012056914
0.00012056085
0.00012055167
0.00012054306
0.00012053346
0.00012052436
0.0001205142
0.00012050445
0.00012049355
0.00012048298
0.00012047116
0.00012045956
0.00012044663
0.00012043382
0.00012041957
0.00012040533
0.00012038953
0.00012037362
0.00012035602
0.00012033819
0.00012031854
0.00012029851
0.00012027652
0.00012025399
0.00012022934
0.000120204
0.00012017637
0.00012014787
0.0001201169
0.00012008488
0.0001200502
0.00012001391
0.00011997589
0.00011993493
0.00011989244
0.0001198468
0.00011979944
0.00011974875
0.00011969616
0.00011964007
0.00011958191
0.00011952022
0.00011945592
0.00011938856
0.00011931818
0.00011924476
0.00011916828
0.00011908886
0.00011900646
0.00011892119
0.00011883316
0.00011874252
0.00011864943
0.0001185542
0.00011845701
0.00011835821
0.00011825817
0.0001181573
0.00011805604
0.00011795503
0.00011785472
0.00011775581
0.00011765896
0.00011756491
0.00011747445
0.00011738833
0.00011730753
0.00011723279
0.00011716502
0.0001171051
0.00011705389
0.00011701217
0.00011698084
0.00011696051
0.00011695187
0.00011695547
0.00011697175
0.00011697177
0.00011695279
0.00011694562
0.00011695088
0.00011696898
0.00011700019
0.00011704468
0.00011710246
0.00011717339
0.00011725721
0.00011735347
0.00011746162
0.00011758093
0.0001177107
0.00011784991
0.00011799762
0.00011815277
0.00011831424
0.00011848091
0.0001186516
0.00011882528
0.00011900072
0.00011917688
0.00011935273
0.0001195273
0.00011969964
0.00011986903
0.00012003459
0.00012019566
0.00012035165
0.00012050201
0.00012064625
0.00012078407
0.00012091503
0.00012103891
0.00012115546
0.00012126453
0.00012136595
0.00012145972
0.00012154567
0.00012162379
0.00012169407
0.0001217565
0.00012181104
0.00012185782
0.00012189675
0.00012192788
0.00012054999
0.00012054172
0.00012053252
0.00012052386
0.00012051417
0.00012050495
0.00012049462
0.00012048466
0.00012047351
0.00012046264
0.0001204505
0.00012043853
0.00012042518
0.0001204119
0.00012039713
0.00012038233
0.00012036591
0.00012034933
0.00012033102
0.0001203124
0.00012029191
0.00012027098
0.00012024801
0.00012022445
0.00012019869
0.00012017217
0.00012014328
0.00012011345
0.00012008106
0.00012004754
0.00012001127
0.0001199733
0.00011993352
0.0001198907
0.00011984625
0.00011979856
0.00011974906
0.00011969612
0.00011964119
0.00011958267
0.00011952198
0.00011945768
0.0001193907
0.00011932057
0.00011924735
0.00011917103
0.0001190916
0.00011900921
0.00011892382
0.00011883556
0.00011874456
0.00011865101
0.00011855507
0.0001184571
0.00011835732
0.00011825609
0.00011815384
0.00011805102
0.00011794811
0.0001178458
0.0001177446
0.00011764525
0.00011754847
0.00011745506
0.00011736584
0.00011728163
0.00011720346
0.0001171321
0.00011706852
0.00011701362
0.00011696827
0.00011693329
0.00011690957
0.0001168977
0.00011689835
0.00011691203
0.00011693913
0.00011694015
0.00011690827
0.00011688809
0.00011688038
0.00011688567
0.00011690439
0.00011693684
0.00011698315
0.00011704332
0.00011711718
0.00011720439
0.00011730446
0.00011741673
0.00011754054
0.00011767491
0.00011781887
0.00011797138
0.0001181313
0.00011829746
0.00011846863
0.00011864373
0.00011882147
0.00011900073
0.00011918043
0.0001193595
0.00011953693
0.00011971192
0.00011988354
0.00012005105
0.0001202138
0.00012037119
0.00012052267
0.0001206679
0.00012080641
0.00012093793
0.0001210622
0.00012117902
0.00012128822
0.00012138978
0.00012148353
0.00012156944
0.0001216475
0.0001217177
0.00012178001
0.00012183454
0.00012188123
0.00012192011
0.00012052746
0.00012051924
0.00012051004
0.00012050134
0.00012049159
0.00012048225
0.00012047178
0.00012046163
0.00012045026
0.00012043912
0.00012042666
0.00012041434
0.0001204006
0.00012038688
0.00012037163
0.00012035628
0.00012033928
0.00012032207
0.00012030306
0.0001202837
0.0001202624
0.00012024059
0.0001202167
0.00012019214
0.00012016531
0.00012013765
0.00012010755
0.00012007642
0.00012004266
0.00012000769
0.00011996988
0.00011993028
0.00011988878
0.00011984415
0.00011979779
0.00011974811
0.0001196965
0.00011964137
0.00011958414
0.00011952322
0.00011946005
0.00011939318
0.00011932352
0.00011925064
0.0001191746
0.0001190954
0.00011901302
0.00011892764
0.00011883922
0.00011874792
0.0001186539
0.00011855735
0.00011845846
0.00011835764
0.00011825511
0.0001181513
0.00011804664
0.00011794165
0.00011783685
0.00011773297
0.00011763058
0.00011753046
0.00011743341
0.00011734025
0.00011725189
0.0001171692
0.00011709323
0.00011702484
0.00011696503
0.00011691473
0.00011687486
0.00011684625
0.00011682979
0.00011682609
0.00011683579
0.00011685937
0.00011689716
0.00011690036
0.00011685526
0.0001168218
0.0001168009
0.00011679323
0.00011679937
0.00011681976
0.00011685467
0.00011690421
0.00011696832
0.00011704674
0.00011713907
0.0001172447
0.00011736299
0.00011749298
0.00011763371
0.00011778411
0.000117943
0.00011810919
0.00011828137
0.0001184584
0.00011863893
0.00011882177
0.00011900574
0.00011918971
0.00011937259
0.00011955352
0.00011973147
0.00011990568
0.0001200754
0.00012024
0.00012039887
0.00012055164
0.00012069778
0.00012083701
0.00012096904
0.00012109365
0.00012121064
0.00012132
0.00012142154
0.00012151523
0.00012160105
0.000121679
0.00012174904
0.00012181131
0.00012186573
0.00012191236
0.00012050162
0.00012049345
0.00012048427
0.00012047556
0.00012046575
0.00012045632
0.00012044572
0.0001204354
0.00012042382
0.00012041244
0.0001203997
0.00012038705
0.00012037294
0.00012035881
0.00012034309
0.00012032724
0.00012030969
0.00012029187
0.0001202722
0.00012025212
0.00012023005
0.00012020742
0.00012018263
0.00012015711
0.00012012926
0.0001201005
0.00012006923
0.00012003686
0.00012000177
0.00011996539
0.0001199261
0.00011988492
0.00011984174
0.00011979535
0.00011974714
0.0001196955
0.00011964183
0.00011958456
0.00011952507
0.00011946181
0.00011939619
0.00011932677
0.00011925447
0.00011917886
0.0001191
0.00011901791
0.00011893257
0.00011884417
0.00011875269
0.00011865831
0.00011856119
0.00011846154
0.0001183596
0.00011825579
0.00011815035
0.00011804376
0.00011793649
0.00011782909
0.00011772213
0.00011761638
0.00011751248
0.00011741125
0.00011731354
0.00011722025
0.00011713233
0.00011705071
0.00011697652
0.00011691066
0.00011685417
0.00011680805
0.00011677325
0.00011675063
0.0001167411
0.00011674528
0.0001167638
0.00011679711
0.0001168455
0.00011685245
0.00011679375
0.00011674668
0.0001167123
0.00011669146
0.00011668487
0.00011669314
0.00011671665
0.00011675565
0.00011681017
0.00011688006
0.00011696496
0.00011706432
0.00011717752
0.00011730362
0.00011744163
0.00011759046
0.00011774889
0.00011791566
0.00011808941
0.00011826893
0.00011845277
0.00011863968
0.00011882839
0.0001190177
0.00011920643
0.00011939365
0.00011957826
0.00011975943
0.00011993637
0.00012010838
0.0001202748
0.00012043524
0.00012058913
0.00012073615
0.00012087599
0.00012100843
0.00012113323
0.0001212504
0.00012135972
0.00012146117
0.00012155473
0.00012164041
0.00012171816
0.00012178814
0.00012185027
0.00012190462
0.00012047245
0.00012046436
0.00012045522
0.00012044651
0.00012043667
0.00012042717
0.00012041645
0.000120406
0.00012039423
0.00012038263
0.00012036962
0.00012035667
0.00012034221
0.0001203277
0.00012031155
0.00012029523
0.00012027715
0.00012025875
0.00012023846
0.0001202177
0.0001201949
0.00012017147
0.00012014583
0.00012011939
0.00012009056
0.00012006075
0.00012002835
0.00011999478
0.00011995842
0.00011992068
0.00011987995
0.00011983724
0.00011979245
0.00011974435
0.00011969433
0.00011964078
0.00011958512
0.00011952574
0.00011946405
0.00011939847
0.00011933044
0.0001192585
0.00011918359
0.00011910526
0.0001190236
0.00011893861
0.00011885029
0.00011875885
0.00011866427
0.00011856673
0.00011846643
0.0001183636
0.00011825848
0.00011815152
0.00011804301
0.00011793344
0.00011782333
0.00011771326
0.00011760385
0.00011749593
0.00011739017
0.00011728745
0.00011718869
0.00011709484
0.00011700692
0.00011692593
0.00011685305
0.00011678925
0.00011673563
0.00011669325
0.00011666311
0.00011664609
0.00011664316
0.00011665494
0.00011668205
0.00011672494
0.00011678386
0.00011679658
0.00011672383
0.00011666275
0.00011661455
0.00011658025
0.00011656073
0.00011655674
0.00011656882
0.00011659731
0.00011664238
0.00011670395
0.00011678171
0.00011687516
0.00011698371
0.00011710639
0.00011724221
0.00011739003
0.00011754857
0.00011771651
0.00011789242
0.00011807499
0.00011826271
0.00011845422
0.00011864818
0.00011884328
0.00011903829
0.00011923218
0.0001194238
0.00011961224
0.00011979665
0.00011997629
0.00012015046
0.00012031871
0.00012048046
0.00012063536
0.00012078308
0.00012092338
0.00012105603
0.000121181
0.00012129809
0.00012140729
0.00012150858
0.00012160195
0.00012168739
0.00012176505
0.00012183485
0.0001218969
0.00012044001
0.00012043201
0.00012042293
0.00012041424
0.00012040438
0.00012039483
0.00012038403
0.00012037344
0.00012036152
0.00012034972
0.00012033647
0.00012032325
0.00012030847
0.00012029359
0.00012027705
0.00012026027
0.0001202417
0.00012022276
0.00012020188
0.00012018048
0.00012015698
0.0001201328
0.00012010634
0.00012007903
0.00012004926
0.00012001845
0.00011998498
0.00011995025
0.00011991267
0.00011987362
0.0001198315
0.00011978732
0.00011974096
0.0001196912
0.00011963943
0.00011958403
0.00011952641
0.00011946497
0.00011940112
0.00011933327
0.00011926286
0.00011918843
0.00011911093
0.00011902991
0.00011894544
0.00011885754
0.00011876624
0.00011867172
0.00011857398
0.00011847323
0.00011836966
0.00011826352
0.00011815509
0.00011804483
0.00011793306
0.0001178203
0.0001177071
0.00011759409
0.00011748192
0.00011737148
0.00011726349
0.00011715888
0.00011705864
0.00011696379
0.0001168754
0.00011679456
0.0001167225
0.00011666027
0.00011660905
0.00011656994
0.00011654402
0.00011653221
0.00011653553
0.00011655462
0.00011659011
0.00011664245
0.00011671186
0.00011673282
0.0001166455
0.00011656993
0.00011650749
0.00011645939
0.00011642667
0.00011641024
0.00011641078
0.00011642878
0.00011646448
0.00011651791
0.00011658882
0.00011667672
0.00011678104
0.0001169008
0.00011703497
0.00011718235
0.00011734162
0.00011751135
0.00011769004
0.00011787628
0.00011806847
0.00011826515
0.00011846489
0.00011866629
0.00011886804
0.00011906901
0.00011926801
0.00011946404
0.00011965621
0.00011984371
0.00012002582
0.00012020205
0.00012037179
0.00012053466
0.00012069033
0.00012083854
0.00012097905
0.00012111184
0.00012123671
0.00012135363
0.00012146261
0.00012156364
0.00012165673
0.00012174204
0.00012181949
0.0001218892
0.00012040432
0.00012039643
0.00012038742
0.00012037877
0.00012036891
0.00012035933
0.00012034846
0.00012033777
0.00012032571
0.00012031373
0.00012030027
0.00012028679
0.00012027173
0.00012025652
0.0001202396
0.00012022241
0.00012020338
0.00012018393
0.0001201625
0.00012014049
0.00012011633
0.00012009144
0.00012006422
0.00012003608
0.00012000541
0.00011997364
0.00011993914
0.00011990332
0.00011986456
0.00011982426
0.0001197808
0.0001197352
0.00011968733
0.00011963597
0.00011958249
0.0001195253
0.00011946578
0.00011940233
0.00011933636
0.00011926628
0.00011919352
0.00011911664
0.00011903657
0.00011895286
0.00011886559
0.00011877479
0.00011868047
0.00011858283
0.00011848189
0.00011837784
0.00011827091
0.00011816136
0.00011804947
0.00011793574
0.00011782051
0.00011770432
0.00011758777
0.00011747153
0.00011735628
0.00011724295
0.00011713234
0.00011702543
0.00011692326
0.00011682692
0.00011673757
0.00011665636
0.0001165846
0.00011652343
0.00011647409
0.00011643778
0.00011641562
0.00011640861
0.00011641782
0.00011644393
0.00011648759
0.00011654926
0.00011662914
0.00011666127
0.0001165588
0.00011646819
0.00011639103
0.0001163287
0.00011628244
0.00011625331
0.00011624217
0.00011624962
0.00011627603
0.00011632148
0.00011638579
0.0001164685
0.00011656903
0.00011668637
0.00011681946
0.00011696701
0.00011712763
0.00011729981
0.00011748194
0.00011767251
0.0001178698
0.00011807226
0.00011827835
0.00011848659
0.00011869556
0.00011890407
0.00011911083
0.0001193148
0.00011951502
0.00011971065
0.00011990092
0.0001200853
0.00012026316
0.00012043411
0.0001205978
0.00012075396
0.00012090236
0.00012104297
0.00012117559
0.00012130023
0.00012141686
0.00012152553
0.00012162623
0.00012171913
0.00012180419
0.00012188153
0.00012036542
0.00012035765
0.00012034873
0.00012034013
0.0001203303
0.0001203207
0.00012030979
0.00012029902
0.00012028684
0.00012027471
0.00012026106
0.00012024736
0.00012023203
0.00012021652
0.00012019926
0.00012018168
0.00012016222
0.00012014231
0.00012012035
0.00012009778
0.00012007301
0.00012004744
0.00012001949
0.00011999057
0.00011995906
0.00011992638
0.0001198909
0.00011985403
0.00011981415
0.00011977265
0.00011972791
0.00011968094
0.00011963162
0.00011957871
0.00011952359
0.00011946465
0.00011940328
0.00011933787
0.00011926983
0.00011919757
0.0001191225
0.0001190432
0.00011896057
0.00011887419
0.00011878413
0.00011869041
0.00011859305
0.00011849225
0.00011838804
0.00011828062
0.00011817023
0.00011805713
0.00011794164
0.00011782426
0.00011770535
0.0001175855
0.00011746533
0.00011734553
0.00011722685
0.00011711026
0.0001169966
0.00011688694
0.00011678236
0.00011668404
0.00011659319
0.00011651107
0.00011643907
0.0001163784
0.00011633041
0.00011629637
0.00011627748
0.00011627485
0.00011628958
0.0001163224
0.00011637403
0.00011644491
0.00011653525
0.00011658201
0.00011646373
0.00011635746
0.000116265
0.00011618794
0.00011612772
0.00011608559
0.00011606255
0.00011605937
0.0001160765
0.00011611412
0.00011617208
0.00011624995
0.00011634714
0.00011646259
0.00011659518
0.00011674355
0.00011690621
0.00011708153
0.00011726779
0.00011746338
0.00011766646
0.00011787535
0.0001180884
0.00011830405
0.00011852076
0.00011873728
0.00011895223
0.00011916452
0.00011937312
0.00011957714
0.00011977578
0.0001199685
0.00012015462
0.00012033376
0.00012050554
0.0001206697
0.00012082601
0.00012097444
0.00012111481
0.00012124712
0.00012137138
0.00012148763
0.00012159589
0.00012169635
0.00012178898
0.0001218739
0.00012032333
0.0001203157
0.00012030689
0.00012029837
0.00012028858
0.00012027899
0.00012026804
0.00012025722
0.00012024494
0.00012023268
0.00012021887
0.00012020497
0.0001201894
0.00012017362
0.00012015605
0.00012013813
0.00012011827
0.00012009792
0.00012007549
0.00012005239
0.00012002704
0.00012000085
0.00011997222
0.00011994255
0.00011991025
0.00011987671
0.00011984031
0.00011980244
0.0001197615
0.00011971885
0.00011967289
0.00011962461
0.0001195739
0.0001195195
0.00011946279
0.00011940216
0.00011933899
0.00011927167
0.00011920161
0.0001191272
0.00011904987
0.00011896817
0.00011888302
0.00011879399
0.00011870113
0.00011860448
0.00011850406
0.00011840006
0.00011829252
0.00011818166
0.00011806769
0.00011795092
0.00011783166
0.00011771044
0.00011758764
0.00011746386
0.00011733977
0.00011721609
0.00011709361
0.00011697336
0.00011685622
0.00011674332
0.00011663582
0.00011653497
0.00011644207
0.00011635846
0.00011628562
0.00011622488
0.00011617766
0.00011614533
0.00011612922
0.00011613049
0.00011615034
0.00011618958
0.00011624895
0.00011632894
0.00011642975
0.00011649514
0.00011636029
0.00011623764
0.00011612922
0.00011603686
0.00011596219
0.00011590667
0.00011587148
0.00011585752
0.00011586537
0.00011589527
0.00011594713
0.00011602052
0.00011611482
0.00011622893
0.00011636165
0.00011651152
0.00011667693
0.00011685614
0.0001170473
0.00011724865
0.00011745823
0.00011767424
0.00011789492
0.00011811858
0.0001183436
0.00011856863
0.00011879222
0.00011901321
0.00011923052
0.00011944323
0.00011965048
0.00011985172
0.00012004625
0.00012023368
0.00012041362
0.00012058583
0.00012075006
0.00012090631
0.00012105441
0.00012119436
0.0001213262
0.00012144999
0.00012156576
0.00012167371
0.00012177385
0.00012186631
0.00012027811
0.00012027063
0.00012026195
0.00012025352
0.00012024378
0.00012023422
0.00012022327
0.0001202124
0.00012020006
0.00012018769
0.00012017375
0.00012015967
0.0001201439
0.00012012788
0.00012011002
0.00012009178
0.00012007157
0.00012005082
0.00012002794
0.00012000436
0.00011997848
0.0001199517
0.00011992244
0.00011989208
0.00011985903
0.00011982468
0.00011978741
0.00011974861
0.00011970665
0.00011966293
0.0001196158
0.00011956627
0.00011951422
0.00011945839
0.00011940015
0.00011933789
0.00011927298
0.00011920381
0.00011913177
0.00011905527
0.00011897572
0.00011889166
0.00011880401
0.00011871233
0.00011861668
0.0001185171
0.00011841358
0.00011830635
0.00011819542
0.00011808101
0.00011796337
0.00011784279
0.0001177196
0.00011759433
0.00011746741
0.00011733944
0.00011721112
0.00011708321
0.00011695655
0.0001168322
0.00011671111
0.00011659447
0.00011648351
0.00011637956
0.00011628402
0.0001161983
0.000116124
0.00011606254
0.00011601548
0.00011598429
0.00011597039
0.00011597508
0.00011599963
0.00011604494
0.00011611183
0.00011620082
0.00011631213
0.00011640076
0.00011624848
0.00011610864
0.00011598352
0.00011587517
0.00011578548
0.00011571612
0.00011566845
0.00011564353
0.00011564205
0.00011566434
0.00011571034
0.00011577961
0.00011587151
0.00011598486
0.00011611837
0.00011627047
0.00011643941
0.0001166233
0.00011682015
0.00011702807
0.00011724493
0.0001174688
0.0001176978
0.00011793012
0.00011816404
0.00011839812
0.00011863082
0.00011886092
0.00011908731
0.00011930899
0.0001195251
0.00011973505
0.00011993815
0.00012013397
0.00012032215
0.00012050244
0.00012067462
0.00012083868
0.00012099446
0.00012114202
0.00012128139
0.00012141265
0.00012153586
0.00012165125
0.00012175883
0.00012185877
0.00012022978
0.00012022248
0.00012021394
0.00012020562
0.00012019596
0.00012018644
0.00012017551
0.00012016462
0.00012015223
0.00012013979
0.00012012573
0.00012011151
0.00012009556
0.00012007932
0.00012006122
0.0001200427
0.00012002217
0.00012000106
0.00011997778
0.00011995375
0.00011992737
0.00011990006
0.00011987021
0.00011983921
0.00011980547
0.00011977036
0.00011973228
0.00011969259
0.00011964969
0.00011960493
0.0001195567
0.00011950599
0.00011945266
0.00011939546
0.00011933576
0.00011927193
0.00011920534
0.00011913438
0.00011906042
0.00011898187
0.00011890013
0.00011881375
0.00011872362
0.00011862932
0.00011853089
0.00011842835
0.00011832173
0.00011821121
0.00011809683
0.0001179788
0.00011785737
0.00011773284
0.00011760554
0.00011747603
0.00011734473
0.0001172123
0.00011707943
0.00011694693
0.00011681568
0.00011668678
0.00011656125
0.00011644034
0.00011632535
0.00011621769
0.00011611886
0.00011603037
0.00011595394
0.0001158911
0.00011584353
0.00011581284
0.00011580057
0.00011580813
0.00011583692
0.00011588795
0.00011596211
0.00011605999
0.00011618183
0.00011629895
0.0001161283
0.00011597035
0.00011582766
0.00011570256
0.00011559719
0.00011551345
0.00011545292
0.0001154168
0.00011540592
0.00011542068
0.00011546105
0.00011552659
0.0001156166
0.00011572981
0.00011586483
0.00011601993
0.00011619322
0.00011638266
0.00011658607
0.0001168014
0.00011702637
0.00011725891
0.00011749697
0.00011773864
0.00011798209
0.00011822577
0.00011846809
0.00011870774
0.00011894356
0.00011917453
0.00011939975
0.00011961861
0.00011983042
0.00012003474
0.00012023124
0.00012041964
0.00012059976
0.00012077161
0.00012093506
0.00012109016
0.00012123699
0.00012137565
0.00012150623
0.00012162898
0.00012174394
0.00012185129
0.00012017841
0.00012017129
0.00012016291
0.00012015471
0.00012014515
0.0001201357
0.0001201248
0.00012011392
0.00012010151
0.00012008901
0.00012007486
0.00012006053
0.00012004443
0.00012002801
0.0001200097
0.00011999092
0.0001199701
0.00011994867
0.00011992503
0.00011990059
0.00011987377
0.00011984597
0.00011981558
0.000119784
0.00011974961
0.0001197138
0.00011967496
0.00011963445
0.00011959065
0.00011954494
0.00011949567
0.00011944383
0.00011938929
0.00011933079
0.00011926969
0.00011920435
0.00011913614
0.00011906344
0.00011898762
0.00011890708
0.0001188232
0.00011873453
0.00011864197
0.00011854505
0.00011844385
0.00011833836
0.0001182286
0.00011811476
0.00011799686
0.00011787513
0.00011774979
0.00011762116
0.00011748959
0.00011735562
0.00011721971
0.00011708251
0.00011694476
0.0001168073
0.00011667103
0.00011653712
0.00011640662
0.00011628087
0.00011616124
0.00011604923
0.00011594643
0.00011585447
0.00011577519
0.00011571024
0.00011566145
0.00011563056
0.00011561927
0.00011562913
0.00011566168
0.00011571803
0.00011579919
0.00011590583
0.00011603824
0.00011618678
0.00011599974
0.00011582265
0.00011566142
0.00011551869
0.00011539687
0.00011529814
0.00011522428
0.00011517668
0.00011515629
0.00011516359
0.00011519858
0.00011526078
0.00011534944
0.00011546319
0.00011560048
0.00011575943
0.00011593797
0.00011613388
0.00011634478
0.00011656845
0.00011680242
0.00011704446
0.00011729239
0.00011754415
0.00011779779
0.00011805167
0.00011830412
0.00011855378
0.00011879942
0.00011903999
0.00011927458
0.00011950255
0.00011972322
0.00011993615
0.00012014101
0.00012033756
0.00012052561
0.00012070523
0.00012087628
0.00012103887
0.00012119309
0.00012133907
0.00012147693
0.00012160695
0.00012172919
0.00012184388
0.00012012402
0.00012011711
0.0001201089
0.00012010085
0.0001200914
0.00012008203
0.00012007119
0.00012006034
0.00012004792
0.00012003539
0.00012002119
0.00012000676
0.00011999055
0.00011997398
0.00011995548
0.00011993649
0.00011991543
0.00011989371
0.00011986975
0.00011984495
0.00011981773
0.00011978949
0.00011975861
0.00011972649
0.00011969151
0.00011965506
0.00011961552
0.00011957425
0.00011952962
0.000119483
0.00011943276
0.00011937987
0.00011932419
0.00011926445
0.00011920201
0.00011913524
0.00011906547
0.0001189911
0.00011891347
0.00011883099
0.00011874502
0.00011865411
0.00011855914
0.00011845965
0.00011835568
0.00011824724
0.00011813432
0.00011801712
0.00011789565
0.00011777011
0.00011764076
0.0001175079
0.00011737186
0.00011723323
0.00011709244
0.00011695018
0.00011680721
0.00011666438
0.00011652266
0.00011638323
0.00011624723
0.00011611604
0.00011599113
0.00011587408
0.00011576659
0.00011567041
0.0001155875
0.00011551967
0.00011546888
0.00011543705
0.00011542604
0.00011543756
0.0001154733
0.00011553454
0.00011562241
0.00011573767
0.00011588069
0.00011605136
0.00011586279
0.00011566539
0.00011548453
0.00011532317
0.00011518405
0.00011506961
0.00011498189
0.00011492246
0.00011489242
0.00011489232
0.00011492218
0.00011498148
0.00011506938
0.00011518439
0.00011532478
0.0001154885
0.00011567326
0.00011587663
0.00011609604
0.00011632903
0.00011657297
0.00011682542
0.00011708406
0.00011734668
0.00011761121
0.00011787593
0.00011813906
0.00011839919
0.00011865505
0.00011890555
0.00011914976
0.00011938704
0.0001196167
0.00011983834
0.00012005161
0.00012025632
0.00012045231
0.00012063964
0.00012081824
0.00012098823
0.00012114974
0.00012130295
0.00012144799
0.00012158518
0.00012171461
0.00012183655
0.0001200667
0.00012006
0.00012005198
0.00012004409
0.00012003477
0.00012002551
0.00012001474
0.00012000394
0.00011999155
0.00011997901
0.00011996478
0.00011995029
0.00011993398
0.0001199173
0.00011989865
0.00011987948
0.00011985821
0.00011983625
0.000119812
0.0001197869
0.00011975932
0.00011973068
0.00011969936
0.00011966676
0.00011963125
0.00011959422
0.00011955403
0.00011951206
0.00011946667
0.00011941922
0.00011936807
0.00011931419
0.00011925744
0.00011919654
0.00011913284
0.00011906469
0.00011899345
0.00011891746
0.0001188381
0.00011875373
0.00011866574
0.00011857263
0.00011847529
0.00011837324
0.00011826653
0.00011815513
0.00011803905
0.00011791845
0.00011779334
0.00011766393
0.00011753045
0.00011739321
0.00011725253
0.00011710901
0.00011696309
0.00011681546
0.00011666691
0.00011651832
0.00011637067
0.00011622522
0.00011608314
0.00011594589
0.00011581502
0.0001156922
0.00011557925
0.00011547804
0.00011539067
0.00011531911
0.0001152655
0.00011523191
0.00011522041
0.00011523288
0.00011527122
0.00011533686
0.00011543109
0.00011555481
0.00011570847
0.00011589199
0.00011571745
0.00011549845
0.00011529672
0.0001151156
0.00011495818
0.00011482723
0.00011472503
0.00011465338
0.00011461351
0.00011460606
0.00011463105
0.00011468792
0.0001147757
0.00011489275
0.00011503716
0.00011520664
0.00011539869
0.00011561061
0.00011583961
0.000116083
0.00011633792
0.00011660177
0.00011687202
0.00011714632
0.0001174225
0.0001176987
0.00011797309
0.00011824417
0.00011851065
0.00011877141
0.0001190255
0.00011927229
0.00011951108
0.0001197415
0.00011996324
0.00012017611
0.00012037998
0.00012057498
0.00012076104
0.00012093834
0.00012110705
0.00012126736
0.00012141947
0.00012156371
0.00012170023
0.00012182931
0.00012000649
0.00012000003
0.00011999222
0.0001199845
0.00011997533
0.00011996619
0.00011995553
0.00011994479
0.00011993244
0.00011991993
0.00011990569
0.00011989117
0.0001198748
0.00011985803
0.00011983927
0.00011981996
0.00011979851
0.00011977635
0.00011975187
0.00011972649
0.00011969861
0.00011966962
0.00011963792
0.00011960489
0.0001195689
0.00011953135
0.00011949058
0.00011944797
0.00011940189
0.00011935367
0.00011930168
0.00011924689
0.00011918914
0.00011912715
0.00011906226
0.00011899282
0.00011892016
0.00011884264
0.00011876161
0.00011867542
0.00011858545
0.0001184902
0.00011839054
0.00011828598
0.00011817653
0.00011806219
0.00011794293
0.0001178189
0.00011769011
0.00011755674
0.00011741903
0.00011727726
0.00011713177
0.00011698314
0.00011683182
0.00011667852
0.00011652402
0.00011636924
0.00011621519
0.00011606318
0.00011591443
0.00011577046
0.0001156329
0.00011550355
0.00011538431
0.00011527721
0.00011518449
0.00011510829
0.00011505093
0.0001150147
0.00011500186
0.00011501451
0.00011505476
0.00011512426
0.00011522447
0.00011535644
0.00011552075
0.00011571739
0.00011556373
0.00011532167
0.00011509768
0.00011489553
0.00011471869
0.00011457029
0.0001144529
0.00011436857
0.00011431868
0.00011430392
0.00011432432
0.00011437926
0.00011446763
0.0001145876
0.00011473702
0.00011491337
0.00011511385
0.00011533552
0.00011557529
0.00011583023
0.00011609725
0.00011637352
0.00011665634
0.00011694321
0.00011723181
0.00011752018
0.00011780641
0.00011808896
0.00011836647
0.00011863781
0.00011890204
0.00011915852
0.00011940658
0.00011964585
0.00011987607
0.00012009708