/*--------------------------------*- C++ -*----------------------------------*\
| =========                 |                                                 |
| \\      /  F ield         | foam-extend: Open Source CFD                    |
|  \\    /   O peration     | Version:     4.1                                |
|   \\  /    A nd           | Web:         http://www.foam-extend.org         |
|    \\/     M anipulation  |                                                 |
\*---------------------------------------------------------------------------*/
FoamFile
{
    version     2.0;
    format      ascii;
    class       volVectorField;
    location    "0";
    object      U;
}
// * * * * * * * * * * * * * * * * * * * * * * * * * * * * * * * * * * * * * //

dimensions      [0 1 -1 0 0 0 0];

internalField   nonuniform List<vector> 
16796
(
(150.10886 -0.00010617295 0)
(150.1095 -0.00031910891 0)
(150.11078 -0.00053381644 0)
(150.11271 -0.00075148588 0)
(150.11529 -0.00097332122 0)
(150.11855 -0.0012005466 0)
(150.12251 -0.0014344106 0)
(150.12717 -0.001676193 0)
(150.13258 -0.0019272097 0)
(150.13875 -0.002188819 0)
(150.14573 -0.0024624262 0)
(150.15355 -0.0027494902 0)
(150.16225 -0.0030515285 0)
(150.17188 -0.0033701233 0)
(150.18249 -0.0037069258 0)
(150.19415 -0.0040636625 0)
(150.20691 -0.0044421397 0)
(150.22084 -0.0048442487 0)
(150.23601 -0.0052719692 0)
(150.25251 -0.0057273744 0)
(150.27042 -0.0062126336 0)
(150.28984 -0.0067300153 0)
(150.31085 -0.0072818883 0)
(150.33358 -0.0078707229 0)
(150.35814 -0.0084990899 0)
(150.38464 -0.0091696586 0)
(150.41322 -0.0098851923 0)
(150.44402 -0.010648542 0)
(150.47719 -0.011462638 0)
(150.51288 -0.012330478 0)
(150.55126 -0.013255109 0)
(150.5925 -0.01423961 0)
(150.63679 -0.015287072 0)
(150.68432 -0.01640056 0)
(150.7353 -0.017583081 0)
(150.78993 -0.018837544 0)
(150.84844 -0.020166708 0)
(150.91104 -0.021573125 0)
(150.97799 -0.023059071 0)
(151.04952 -0.024626471 0)
(151.12588 -0.02627681 0)
(151.20731 -0.028011034 0)
(151.29407 -0.029829435 0)
(151.38641 -0.031731537 0)
(151.48458 -0.033715947 0)
(151.58883 -0.035780218 0)
(151.69938 -0.037920679 0)
(151.81646 -0.040132273 0)
(151.94027 -0.042408374 0)
(152.07099 -0.044740599 0)
(152.20878 -0.047118623 0)
(152.35375 -0.049529995 0)
(152.50599 -0.051959954 0)
(152.66551 -0.054391271 0)
(152.83231 -0.056804105 0)
(153.00628 -0.059175892 0)
(153.18726 -0.061481283 0)
(153.37502 -0.06369213 0)
(153.56923 -0.065777544 0)
(153.76945 -0.067704026 0)
(153.97516 -0.069435706 0)
(154.18572 -0.070934665 0)
(154.40036 -0.072161395 0)
(154.61822 -0.073075366 0)
(154.83828 -0.073635727 0)
(155.05944 -0.073802128 0)
(155.28045 -0.073535667 0)
(155.49995 -0.072799931 0)
(155.71649 -0.071562128 0)
(155.92853 -0.069794258 0)
(156.13443 -0.067474312 0)
(156.33252 -0.064587419 0)
(156.52109 -0.061126926 0)
(156.69843 -0.057095319 0)
(156.86283 -0.052504968 0)
(157.01265 -0.047378604 0)
(157.14634 -0.04174951 0)
(157.26246 -0.035661379 0)
(157.35971 -0.02916781 0)
(157.43695 -0.022331458 0)
(157.49329 -0.015222829 0)
(157.528 -0.0079187614 0)
(157.54063 -0.0005006537 0)
(157.53096 0.0069475039 0)
(157.49902 0.01434121 0)
(157.44512 0.021597557 0)
(157.36976 0.028637272 0)
(157.27373 0.035386603 0)
(157.15798 0.04177899 0)
(157.02368 0.047756436 0)
(156.87214 0.053270566 0)
(156.7048 0.058283304 0)
(156.52323 0.062767215 0)
(156.32902 0.066705481 0)
(156.12382 0.070091571 0)
(155.90929 0.072928629 0)
(155.68706 0.07522863 0)
(155.4587 0.077011381 0)
(155.22573 0.078303389 0)
(154.98957 0.079136685 0)
(154.75154 0.079547629 0)
(154.51285 0.07957575 0)
(154.2746 0.079262651 0)
(154.03773 0.078651016 0)
(153.80307 0.077783713 0)
(153.57134 0.076703041 0)
(153.34311 0.075450082 0)
(153.11884 0.074064194 0)
(152.89887 0.072582614 0)
(152.68344 0.071040171 0)
(152.47267 0.069469103 0)
(152.26662 0.067898947 0)
(152.06524 0.066356509 0)
(151.8684 0.064865887 0)
(151.67593 0.06344854 0)
(151.48757 0.062123386 0)
(151.30303 0.060906927 0)
(151.12195 0.059813378 0)
(150.94395 0.058854813 0)
(150.7686 0.058041289 0)
(150.59547 0.05738098 0)
(150.42408 0.056880279 0)
(150.25394 0.056543899 0)
(150.08456 0.05637494 0)
(150.10858 -0.00031825688 0)
(150.10921 -0.00095653952 0)
(150.11049 -0.001600133 0)
(150.11241 -0.002252606 0)
(150.11499 -0.0029175683 0)
(150.11825 -0.0035986892 0)
(150.12219 -0.0042997125 0)
(150.12684 -0.0050244749 0)
(150.13223 -0.0057769218 0)
(150.13839 -0.0065611247 0)
(150.14535 -0.0073812979 0)
(150.15315 -0.0082418153 0)
(150.16183 -0.0091472275 0)
(150.17144 -0.010102278 0)
(150.18203 -0.011111918 0)
(150.19366 -0.012181325 0)
(150.20639 -0.013315917 0)
(150.22029 -0.014521363 0)
(150.23542 -0.015803604 0)
(150.25189 -0.017168855 0)
(150.26975 -0.018623625 0)
(150.28912 -0.020174717 0)
(150.31009 -0.021829238 0)
(150.33277 -0.023594599 0)
(150.35727 -0.025478514 0)
(150.38372 -0.027488992 0)
(150.41224 -0.029634326 0)
(150.44297 -0.031923073 0)
(150.47607 -0.03436403 0)
(150.51169 -0.036966194 0)
(150.54999 -0.039738719 0)
(150.59115 -0.042690849 0)
(150.63535 -0.045831873 0)
(150.68279 -0.049170999 0)
(150.73367 -0.052717269 0)
(150.78821 -0.056479432 0)
(150.84661 -0.06046579 0)
(150.90912 -0.064684029 0)
(150.97596 -0.069141011 0)
(151.04738 -0.073842552 0)
(151.12362 -0.078793148 0)
(151.20494 -0.08399569 0)
(151.29159 -0.089451107 0)
(151.38382 -0.09515803 0)
(151.48188 -0.10111235 0)
(151.58602 -0.10730679 0)
(151.69648 -0.11373042 0)
(151.81346 -0.12036815 0)
(151.9372 -0.12720018 0)
(152.06785 -0.13420144 0)
(152.20559 -0.14134105 0)
(152.35053 -0.14858172 0)
(152.50275 -0.15587926 0)
(152.66229 -0.16318203 0)
(152.82912 -0.17043056 0)
(153.00316 -0.17755719 0)
(153.18425 -0.18448587 0)
(153.37216 -0.19113214 0)
(153.56655 -0.19740327 0)
(153.76701 -0.20319866 0)
(153.97301 -0.20841055 0)
(154.1839 -0.21292499 0)
(154.39893 -0.21662319 0)
(154.61723 -0.21938326 0)
(154.8378 -0.22108227 0)
(155.05951 -0.22159877 0)
(155.28111 -0.22081557 0)
(155.50126 -0.21862294 0)
(155.7185 -0.21492197 0)
(155.93125 -0.20962815 0)
(156.1379 -0.20267491 0)
(156.33675 -0.19401719 0)
(156.52609 -0.18363461 0)
(156.70417 -0.17153429 0)
(156.86931 -0.15775313 0)
(157.01982 -0.14235925 0)
(157.15416 -0.12545255 0)
(157.27085 -0.10716433 0)
(157.36859 -0.087655781 0)
(157.44625 -0.06711539 0)
(157.50289 -0.045755352 0)
(157.53781 -0.023806972 0)
(157.55054 -0.0015153198 0)
(157.54085 0.020866709 0)
(157.50879 0.043084676 0)
(157.45465 0.064888951 0)
(157.37896 0.086040871 0)
(157.28249 0.10631845 0)
(157.16623 0.12552138 0)
(157.03134 0.14347523 0)
(156.87915 0.16003453 0)
(156.71114 0.17508494 0)
(156.52884 0.18854415 0)
(156.3339 0.20036185 0)
(156.12797 0.21051873 0)
(155.91272 0.21902458 0)
(155.68978 0.22591578 0)
(155.46075 0.23125225 0)
(155.22714 0.23511404 0)
(154.99039 0.23759777 0)
(154.75183 0.23881303 0)
(154.51266 0.2388789 0)
(154.27398 0.23792064 0)
(154.03674 0.23606667 0)
(153.80177 0.23344597 0)
(153.56979 0.23018569 0)
(153.34135 0.22640933 0)
(153.11693 0.22223511 0)
(152.89686 0.21777489 0)
(152.68136 0.21313324 0)
(152.47058 0.2084069 0)
(152.26455 0.20368452 0)
(152.06322 0.1990465 0)
(151.86647 0.19456509 0)
(151.6741 0.19030464 0)
(151.48588 0.18632185 0)
(151.30149 0.18266615 0)
(151.12058 0.17938014 0)
(150.94277 0.17649997 0)
(150.76762 0.17405577 0)
(150.59469 0.172072 0)
(150.42352 0.17056781 0)
(150.2536 0.16955729 0)
(150.08445 0.16904973 0)
(150.10801 -0.00052955536 0)
(150.10864 -0.00159161 0)
(150.10991 -0.0026625037 0)
(150.11183 -0.0037481757 0)
(150.11439 -0.0048546346 0)
(150.11763 -0.005987987 0)
(150.12156 -0.0071544648 0)
(150.12619 -0.0083604538 0)
(150.13155 -0.0096125213 0)
(150.13768 -0.010917445 0)
(150.14461 -0.01228224 0)
(150.15237 -0.013714189 0)
(150.16101 -0.015220867 0)
(150.17057 -0.016810172 0)
(150.18111 -0.018490349 0)
(150.19268 -0.02027002 0)
(150.20535 -0.022158205 0)
(150.21918 -0.024164351 0)
(150.23425 -0.026298347 0)
(150.25063 -0.028570553 0)
(150.26842 -0.03099181 0)
(150.2877 -0.033573454 0)
(150.30857 -0.03632733 0)
(150.33115 -0.03926579 0)
(150.35554 -0.042401693 0)
(150.38187 -0.045748395 0)
(150.41027 -0.049319726 0)
(150.44087 -0.053129962 0)
(150.47383 -0.057193782 0)
(150.5093 -0.061526202 0)
(150.54744 -0.06614251 0)
(150.58844 -0.071058147 0)
(150.63247 -0.076288639 0)
(150.67973 -0.081849385 0)
(150.73043 -0.087755516 0)
(150.78476 -0.09402169 0)
(150.84297 -0.10066183 0)
(150.90526 -0.10768884 0)
(150.97189 -0.11511427 0)
(151.04309 -0.12294796 0)
(151.11911 -0.13119753 0)
(151.2002 -0.13986797 0)
(151.28663 -0.14896102 0)
(151.37864 -0.15847459 0)
(151.47648 -0.16840205 0)
(151.58041 -0.17873152 0)
(151.69067 -0.18944504 0)
(151.80748 -0.2005177 0)
(151.93105 -0.2119168 0)
(152.06156 -0.22360083 0)
(152.19919 -0.23551859 0)
(152.34406 -0.24760821 0)
(152.49625 -0.25979627 0)
(152.65581 -0.27199693 0)
(152.82272 -0.28411123 0)
(152.99691 -0.29602649 0)
(153.17821 -0.30761601 0)
(153.36641 -0.31873892 0)
(153.56118 -0.32924047 0)
(153.76211 -0.33895267 0)
(153.96868 -0.34769542 0)
(154.18024 -0.35527813 0)
(154.39605 -0.36150198 0)
(154.61524 -0.36616278 0)
(154.8368 -0.36905443 0)
(155.05962 -0.3699731 0)
(155.28243 -0.36872193 0)
(155.50388 -0.36511636 0)
(155.72249 -0.3589898 0)
(155.93669 -0.35019959 0)
(156.14484 -0.33863311 0)
(156.34522 -0.32421362 0)
(156.53608 -0.30690576 0)
(156.71568 -0.28672034 0)
(156.88228 -0.26371811 0)
(157.03419 -0.23801229 0)
(157.16981 -0.20976963 0)
(157.28766 -0.17920968 0)
(157.3864 -0.14660237 0)
(157.46489 -0.11226363 0)
(157.52216 -0.076549373 0)
(157.55749 -0.039847755 0)
(157.57041 -0.0025701562 0)
(157.56069 0.034858833 0)
(157.52837 0.072012012 0)
(157.47375 0.10847029 0)
(157.39738 0.14383308 0)
(157.30005 0.17772793 0)
(157.18275 0.20981895 0)
(157.04668 0.23981384 0)
(156.89321 0.26746916 0)
(156.72381 0.29259382 0)
(156.54008 0.31505068 0)
(156.34367 0.3347564 0)
(156.13627 0.35167971 0)
(155.91956 0.36583819 0)
(155.69521 0.37729396 0)
(155.46483 0.38614857 0)
(155.22996 0.3925372 0)
(154.99203 0.39662266 0)
(154.75239 0.39858932 0)
(154.51226 0.39863727 0)
(154.27272 0.39697675 0)
(154.03474 0.39382316 0)
(153.79915 0.38939253 0)
(153.56665 0.38389777 0)
(153.33781 0.37754543 0)
(153.11309 0.37053319 0)
(152.8928 0.36304785 0)
(152.67719 0.35526398 0)
(152.46637 0.34734299 0)
(152.26038 0.33943264 0)
(152.05916 0.33166691 0)
(151.86258 0.32416614 0)
(151.67044 0.31703739 0)
(151.48248 0.31037497 0)
(151.2984 0.30426111 0)
(151.11784 0.29876657 0)
(150.9404 0.29395141 0)
(150.76565 0.28986565 0)
(150.59314 0.28654991 0)
(150.4224 0.28403595 0)
(150.25293 0.28234717 0)
(150.08422 0.28149897 0)
(150.10716 -0.00073954637 0)
(150.10779 -0.0022227519 0)
(150.10905 -0.0037183063 0)
(150.11095 -0.0052345067 0)
(150.1135 -0.0067797481 0)
(150.11671 -0.0083625623 0)
(150.12061 -0.0099916566 0)
(150.1252 -0.011675953 0)
(150.13053 -0.013424629 0)
(150.13661 -0.015247156 0)
(150.14349 -0.017153337 0)
(150.15119 -0.01915335 0)
(150.15977 -0.021257784 0)
(150.16926 -0.023477678 0)
(150.17973 -0.025824561 0)
(150.19122 -0.028310486 0)
(150.20379 -0.030948067 0)
(150.21753 -0.033750515 0)
(150.23249 -0.036731665 0)
(150.24876 -0.039906007 0)
(150.26642 -0.043288711 0)
(150.28557 -0.046895644 0)
(150.3063 -0.050743384 0)
(150.32872 -0.054849228 0)
(150.35295 -0.059231184 0)
(150.37911 -0.063907962 0)
(150.40732 -0.068898946 0)
(150.43772 -0.074224148 0)
(150.47047 -0.079904154 0)
(150.50572 -0.085960038 0)
(150.54363 -0.09241326 0)
(150.58438 -0.099285514 0)
(150.62816 -0.10659863 0)
(150.67515 -0.11437426 0)
(150.72556 -0.12263375 0)
(150.7796 -0.13139774 0)
(150.8375 -0.14068592 0)
(150.89948 -0.15051657 0)
(150.96578 -0.16090609 0)
(151.03665 -0.17186852 0)
(151.11234 -0.18341486 0)
(151.1931 -0.19555243 0)
(151.27918 -0.20828403 0)
(151.37086 -0.22160719 0)
(151.46838 -0.23551309 0)
(151.57199 -0.24998557 0)
(151.68195 -0.26500003 0)
(151.79848 -0.28052217 0)
(151.92181 -0.29650677 0)
(152.05212 -0.31289633 0)
(152.18958 -0.32961974 0)
(152.33434 -0.34659095 0)
(152.48649 -0.36370768 0)
(152.64608 -0.38085021 0)
(152.8131 -0.39788035 0)
(152.98749 -0.41464058 0)
(153.16911 -0.43095353 0)
(153.35774 -0.44662186 0)
(153.55308 -0.4614285 0)
(153.75471 -0.47513755 0)
(153.96212 -0.48749586 0)
(154.17469 -0.4982352 0)
(154.39168 -0.50707547 0)
(154.6122 -0.51372859 0)
(154.83526 -0.51790348 0)
(155.05973 -0.5193118 0)
(155.28435 -0.51767469 0)
(155.50775 -0.51273023 0)
(155.72844 -0.50424146 0)
(155.94482 -0.49200494 0)
(156.15522 -0.47585931 0)
(156.35791 -0.45569376 0)
(156.55108 -0.43145584 0)
(156.73297 -0.4031583 0)
(156.90178 -0.37088467 0)
(157.05579 -0.33479282 0)
(157.19336 -0.29511661 0)
(157.31296 -0.25216497 0)
(157.41322 -0.20631847 0)
(157.49295 -0.1580232 0)
(157.55117 -0.10778222 0)
(157.58713 -0.056144528 0)
(157.60034 -0.0036922762 0)
(157.59057 0.04897354 0)
(157.55786 0.10124819 0)
(157.50253 0.15253851 0)
(157.42513 0.20227772 0)
(157.32648 0.24993911 0)
(157.20762 0.29504813 0)
(157.06977 0.33719225 0)
(156.91434 0.37602852 0)
(156.74286 0.41128839 0)
(156.55695 0.44277994 0)
(156.35832 0.47038759 0)
(156.14869 0.49406951 0)
(155.92979 0.51385299 0)
(155.70332 0.52982822 0)
(155.47091 0.5421409 0)
(155.23412 0.550984 0)
(154.99443 0.55658923 0)
(154.75317 0.55921837 0)
(154.51159 0.55915496 0)
(154.27077 0.55669647 0)
(154.03168 0.55214721 0)
(153.79516 0.54581203 0)
(153.56189 0.53799099 0)
(153.33244 0.52897484 0)
(153.10727 0.51904153 0)
(152.88668 0.50845348 0)
(152.67089 0.49745566 0)
(152.46003 0.48627434 0)
(152.2541 0.47511649 0)
(152.05304 0.46416957 0)
(151.85671 0.45360184 0)
(151.66491 0.44356287 0)
(151.47736 0.4341843 0)
(151.29375 0.42558081 0)
(151.11371 0.41785104 0)
(150.93683 0.41107867 0)
(150.76269 0.40533331 0)
(150.59081 0.40067147 0)
(150.42072 0.39713735 0)
(150.25191 0.39476347 0)
(150.08388 0.39357123 0)
(150.10604 -0.00094771078 0)
(150.10666 -0.0028484054 0)
(150.10791 -0.0047649324 0)
(150.10979 -0.0067079301 0)
(150.11231 -0.0086881621 0)
(150.11549 -0.010716568 0)
(150.11935 -0.012804313 0)
(150.1239 -0.014962839 0)
(150.12917 -0.017203914 0)
(150.1352 -0.019539685 0)
(150.142 -0.021982729 0)
(150.14963 -0.0245461 0)
(150.15812 -0.027243383 0)
(150.16753 -0.030088743 0)
(150.17789 -0.033096974 0)
(150.18927 -0.036283546 0)
(150.20172 -0.039664653 0)
(150.21532 -0.043257253 0)
(150.23014 -0.047079116 0)
(150.24626 -0.051148852 0)
(150.26376 -0.055485952 0)
(150.28273 -0.060110804 0)
(150.30327 -0.065044722 0)
(150.32549 -0.070309944 0)
(150.3495 -0.075929637 0)
(150.37543 -0.081927877 0)
(150.40339 -0.088329619 0)
(150.43353 -0.095160637 0)
(150.466 -0.10244746 0)
(150.50096 -0.11021727 0)
(150.53856 -0.11849776 0)
(150.57898 -0.12731694 0)
(150.62241 -0.13670304 0)
(150.66904 -0.14668409 0)
(150.71908 -0.15728774 0)
(150.77273 -0.16854081 0)
(150.83022 -0.18046891 0)
(150.89178 -0.19309589 0)
(150.95765 -0.20644328 0)
(151.02808 -0.22052956 0)
(151.10332 -0.23536941 0)
(151.18362 -0.25097284 0)
(151.26926 -0.26734412 0)
(151.36048 -0.28448078 0)
(151.45756 -0.30237228 0)
(151.56076 -0.32099872 0)
(151.67031 -0.34032936 0)
(151.78647 -0.36032108 0)
(151.90946 -0.38091674 0)
(152.03949 -0.40204343 0)
(152.17673 -0.42361073 0)
(152.32134 -0.44550899 0)
(152.47341 -0.4676076 0)
(152.63303 -0.48975342 0)
(152.8002 -0.5117694 0)
(152.97486 -0.53345341 0)
(153.15689 -0.55457752 0)
(153.3461 -0.57488774 0)
(153.54217 -0.59410429 0)
(153.74473 -0.61192273 0)
(153.95328 -0.62801579 0)
(154.16719 -0.64203627 0)
(154.38573 -0.65362097 0)
(154.60802 -0.6623958 0)
(154.83308 -0.66798206 0)
(155.05977 -0.67000397 0)
(155.28682 -0.66809735 0)
(155.51283 -0.6619193 0)
(155.73631 -0.65115875 0)
(155.95561 -0.63554762 0)
(156.16904 -0.6148721 0)
(156.37482 -0.58898381 0)
(156.57111 -0.55781013 0)
(156.75606 -0.52136339 0)
(156.92785 -0.47974817 0)
(157.0847 -0.43316637 0)
(157.22489 -0.38191931 0)
(157.34686 -0.32640685 0)
(157.44917 -0.26712289 0)
(157.53058 -0.20464753 0)
(157.59008 -0.13963582 0)
(157.62688 -0.072803322 0)
(157.64049 -0.0049093135 0)
(157.63065 0.063262094 0)
(157.59741 0.13092184 0)
(157.54111 0.19729611 0)
(157.46232 0.26164581 0)
(157.36189 0.32328467 0)
(157.24092 0.38159501 0)
(157.10067 0.4360408 0)
(156.94261 0.48617737 0)
(156.76831 0.53165773 0)
(156.57948 0.57223532 0)
(156.37786 0.6077635 0)
(156.16524 0.63819192 0)
(155.9434 0.66356031 0)
(155.71407 0.68399024 0)
(155.47893 0.6996752 0)
(155.23959 0.71086981 0)
(154.99752 0.71787847 0)
(154.7541 0.72104406 0)
(154.51058 0.72073707 0)
(154.26805 0.71734536 0)
(154.02749 0.71126495 0)
(153.78972 0.70289188 0)
(153.55543 0.69261531 0)
(153.32518 0.68081182 0)
(153.0994 0.66784082 0)
(152.87841 0.6540412 0)
(152.66241 0.63972885 0)
(152.45148 0.62519523 0)
(152.24564 0.61070654 0)
(152.04482 0.59650367 0)
(151.84884 0.5828025 0)
(151.65749 0.56979479 0)
(151.47049 0.55764911 0)
(151.28751 0.54651214 0)
(151.10817 0.53650998 0)
(150.93205 0.52774944 0)
(150.75871 0.52031936 0)
(150.58768 0.5142918 0)
(150.41846 0.50972305 0)
(150.25055 0.50665457 0)
(150.08343 0.50511357 0)
(150.10463 -0.0011535334 0)
(150.10525 -0.0034670222 0)
(150.10648 -0.0057997935 0)
(150.10834 -0.0081648047 0)
(150.11083 -0.010575166 0)
(150.11397 -0.013044201 0)
(150.11778 -0.015585511 0)
(150.12227 -0.018213035 0)
(150.12748 -0.020941111 0)
(150.13343 -0.023784538 0)
(150.14015 -0.026758642 0)
(150.14769 -0.029879333 0)
(150.15607 -0.03316317 0)
(150.16536 -0.036627421 0)
(150.1756 -0.040290125 0)
(150.18684 -0.044170147 0)
(150.19914 -0.048287241 0)
(150.21258 -0.052662097 0)
(150.22723 -0.057316401 0)
(150.24315 -0.06227287 0)
(150.26044 -0.067555302 0)
(150.27919 -0.073188603 0)
(150.2995 -0.079198813 0)
(150.32147 -0.085613118 0)
(150.34521 -0.092459848 0)
(150.37084 -0.099768459 0)
(150.39849 -0.1075695 0)
(150.42831 -0.11589455 0)
(150.46043 -0.12477611 0)
(150.49502 -0.13424754 0)
(150.53223 -0.14434283 0)
(150.57225 -0.15509641 0)
(150.61524 -0.16654302 0)
(150.66142 -0.17871721 0)
(150.71099 -0.19165309 0)
(150.76415 -0.20538386 0)
(150.82113 -0.21994128 0)
(150.88217 -0.23535504 0)
(150.9475 -0.25165206 0)
(151.01737 -0.26885567 0)
(151.09204 -0.28698459 0)
(151.17178 -0.30605198 0)
(151.25685 -0.32606405 0)
(151.34751 -0.34701889 0)
(151.44403 -0.36890484 0)
(151.54669 -0.39169888 0)
(151.65574 -0.41536487 0)
(151.77143 -0.43985158 0)
(151.89399 -0.4650907 0)
(152.02365 -0.4909947 0)
(152.16061 -0.51745462 0)
(152.30501 -0.54433798 0)
(152.45699 -0.57148652 0)
(152.61663 -0.59871433 0)
(152.78397 -0.62580599 0)
(152.95895 -0.65251508 0)
(153.14149 -0.67856324 0)
(153.33139 -0.70363968 0)
(153.52839 -0.72740147 0)
(153.7321 -0.74947474 0)
(153.94205 -0.76945687 0)
(154.15762 -0.7869199 0)
(154.3781 -0.8014153 0)
(154.60262 -0.81248014 0)
(154.83019 -0.81964479 0)
(155.05965 -0.82244216 0)
(155.28974 -0.82041842 0)
(155.51905 -0.81314502 0)
(155.74602 -0.80023185 0)
(155.96901 -0.78134113 0)
(156.18627 -0.75620169 0)
(156.39595 -0.72462292 0)
(156.59616 -0.68650802 0)
(156.78501 -0.64186557 0)
(156.96058 -0.59081906 0)
(157.12101 -0.53361336 0)
(157.26453 -0.47061775 0)
(157.38949 -0.40232494 0)
(157.4944 -0.3293457 0)
(157.57794 -0.25239914 0)
(157.63907 -0.17229864 0)
(157.67695 -0.089933901 0)
(157.69105 -0.0062496389 0)
(157.68113 0.077778051 0)
(157.64722 0.16116682 0)
(157.58968 0.24295351 0)
(157.50912 0.32221872 0)
(157.40645 0.39810955 0)
(157.28279 0.46985947 0)
(157.13949 0.53680455 0)
(156.97808 0.59839564 0)
(156.80023 0.65420608 0)
(156.60769 0.7039349 0)
(156.40229 0.74740598 0)
(156.18589 0.78456321 0)
(155.96033 0.8154625 0)
(155.7274 0.84026113 0)
(155.48883 0.85920522 0)
(155.24626 0.87261604 0)
(155.00121 0.88087572 0)
(154.75508 0.88441313 0)
(154.50912 0.88369018 0)
(154.26446 0.87918924 0)
(154.02205 0.87140164 0)
(153.78272 0.86081771 0)
(153.54717 0.84791828 0)
(153.31593 0.8331677 0)
(153.08942 0.8170084 0)
(152.86793 0.79985678 0)
(152.65166 0.78210039 0)
(152.44068 0.76409614 0)
(152.23497 0.74616958 0)
(152.03444 0.72861477 0)
(151.83891 0.71169497 0)
(151.64814 0.69564359 0)
(151.46184 0.6806656 0)
(151.27966 0.66693913 0)
(151.1012 0.65461708 0)
(150.92604 0.64382889 0)
(150.75371 0.63468207 0)
(150.58374 0.62726375 0)
(150.41563 0.62164198 0)
(150.24884 0.61786677 0)
(150.08286 0.61597103 0)
(150.10295 -0.0013565038 0)
(150.10356 -0.004077069 0)
(150.10477 -0.0068203263 0)
(150.1066 -0.0096015243 0)
(150.10906 -0.012436092 0)
(150.11215 -0.015339712 0)
(150.1159 -0.018328393 0)
(150.12033 -0.021418543 0)
(150.12546 -0.024627041 0)
(150.13132 -0.027971314 0)
(150.13794 -0.031469407 0)
(150.14536 -0.035140059 0)
(150.15363 -0.039002775 0)
(150.16277 -0.043077901 0)
(150.17286 -0.047386692 0)
(150.18393 -0.051951385 0)
(150.19606 -0.05679527 0)
(150.20931 -0.061942746 0)
(150.22374 -0.067419393 0)
(150.23944 -0.073252018 0)
(150.25648 -0.079468714 0)
(150.27497 -0.08609889 0)
(150.29499 -0.093173311 0)
(150.31665 -0.10072411 0)
(150.34007 -0.10878478 0)
(150.36535 -0.11739019 0)
(150.39264 -0.1265765 0)
(150.42206 -0.13638112 0)
(150.45377 -0.14684261 0)
(150.48791 -0.15800054 0)
(150.52466 -0.16989531 0)
(150.56418 -0.1825679 0)
(150.60666 -0.19605965 0)
(150.6523 -0.21041181 0)
(150.7013 -0.22566517 0)
(150.75387 -0.24185953 0)
(150.81024 -0.25903306 0)
(150.87064 -0.27722164 0)
(150.93532 -0.29645794 0)
(151.00453 -0.31677054 0)
(151.07852 -0.33818271 0)
(151.15757 -0.36071126 0)
(151.24195 -0.38436498 0)
(151.33192 -0.40914319 0)
(151.42778 -0.43503381 0)
(151.52978 -0.46201154 0)
(151.63821 -0.49003564 0)
(151.75332 -0.5190477 0)
(151.87537 -0.54896919 0)
(152.00458 -0.57969891 0)
(152.14117 -0.61111036 0)
(152.28531 -0.64304913 0)
(152.43716 -0.67533025 0)
(152.59682 -0.7077358 0)
(152.76433 -0.74001264 0)
(152.93969 -0.77187054 0)
(153.12281 -0.80298088 0)
(153.31354 -0.83297595 0)
(153.51162 -0.86144915 0)
(153.7167 -0.88795619 0)
(153.92831 -0.91201759 0)
(154.14588 -0.93312252 0)
(154.36869 -0.95073437 0)
(154.59587 -0.96429795 0)
(154.82644 -0.97324858 0)
(155.05925 -0.97702311 0)
(155.29302 -0.97507273 0)
(155.52629 -0.96687737 0)
(155.75751 -0.95196168 0)
(155.98497 -0.92991191 0)
(156.20686 -0.90039324 0)
(156.42128 -0.86316703 0)
(156.62628 -0.81810707 0)
(156.81985 -0.76521403 0)
(157.00002 -0.70462739 0)
(157.16483 -0.63663367 0)
(157.31242 -0.56167054 0)
(157.44104 -0.48032592 0)
(157.54912 -0.39333179 0)
(157.63528 -0.3015525 0)
(157.69839 -0.20596782 0)
(157.73758 -0.10765094 0)
(157.7523 -0.0077425993 0)
(157.74226 0.092577974 0)
(157.70753 0.19212385 0)
(157.64847 0.28973158 0)
(157.56575 0.38429137 0)
(157.46032 0.47477487 0)
(157.33338 0.56025944 0)
(157.18636 0.63994789 0)
(157.02087 0.71318314 0)
(156.83867 0.7794574 0)
(156.64161 0.83841574 0)
(156.43161 0.88985465 0)
(156.21061 0.93371586 0)
(155.98053 0.97007615 0)
(155.74323 0.99913408 0)
(155.5005 1.0211945 0)
(155.25403 1.0366517 0)
(155.00539 1.0459718 0)
(154.75598 1.0496757 0)
(154.50709 1.0483224 0)
(154.25986 1.0424939 0)
(154.01524 1.0327812 0)
(153.77406 1.0197727 0)
(153.53699 1.004044 0)
(153.30457 0.98614972 0)
(153.0772 0.96661705 0)
(152.85514 0.94594121 0)
(152.63857 0.92458213 0)
(152.42753 0.90296258 0)
(152.22199 0.88146742 0)
(152.02183 0.8604437 0)
(151.82686 0.84020151 0)
(151.63681 0.82101536 0)
(151.45136 0.80312591 0)
(151.27015 0.78674196 0)
(151.09276 0.77204251 0)
(150.91876 0.75917888 0)
(150.74767 0.74827659 0)
(150.57899 0.73943729 0)
(150.4122 0.73274023 0)
(150.24677 0.7282437 0)
(150.08217 0.72598596 0)
(150.10101 -0.0015561178 0)
(150.1016 -0.0046770305 0)
(150.1028 -0.0078239965 0)
(150.10459 -0.011014524 0)
(150.107 -0.014266329 0)
(150.11004 -0.017597419 0)
(150.11372 -0.021026179 0)
(150.11807 -0.024571452 0)
(150.12311 -0.028252628 0)
(150.12887 -0.032089725 0)
(150.13537 -0.036103479 0)
(150.14266 -0.040315422 0)
(150.15078 -0.044747976 0)
(150.15977 -0.049424529 0)
(150.16968 -0.054369524 0)
(150.18056 -0.059608539 0)
(150.19248 -0.065168369 0)
(150.2055 -0.071077097 0)
(150.21969 -0.077364171 0)
(150.23512 -0.084060469 0)
(150.25188 -0.091198356 0)
(150.27006 -0.098811735 0)
(150.28975 -0.10693609 0)
(150.31106 -0.11560848 0)
(150.33409 -0.12486761 0)
(150.35898 -0.13475374 0)
(150.38583 -0.14530869 0)
(150.4148 -0.15657575 0)
(150.44602 -0.16859958 0)
(150.47965 -0.18142606 0)
(150.51585 -0.1951021 0)
(150.5548 -0.20967531 0)
(150.59668 -0.22519387 0)
(150.64169 -0.24170588 0)
(150.69002 -0.25925904 0)
(150.7419 -0.2779 0)
(150.79756 -0.29767372 0)
(150.85722 -0.31862258 0)
(150.92113 -0.34078547 0)
(150.98955 -0.3641967 0)
(151.06275 -0.38888467 0)
(151.14099 -0.41487046 0)
(151.22456 -0.44216616 0)
(151.31373 -0.47077307 0)
(151.40879 -0.50067963 0)
(151.51002 -0.53185914 0)
(151.61771 -0.56426731 0)
(151.73214 -0.59783963 0)
(151.85356 -0.63248847 0)
(151.98223 -0.66810013 0)
(152.11837 -0.70453174 0)
(152.2622 -0.74160812 0)
(152.41387 -0.77911868 0)
(152.57351 -0.81681448 0)
(152.74121 -0.85440548 0)
(152.91697 -0.89155824 0)
(153.10075 -0.92789419 0)
(153.29241 -0.96298861 0)
(153.49173 -0.99637067 0)
(153.69839 -1.0275246 0)
(153.91194 -1.0558923 0)
(154.13181 -1.0808776 0)
(154.35732 -1.1018527 0)
(154.58761 -1.1181659 0)
(154.8217 -1.1291529 0)
(155.05843 -1.1341485 0)
(155.2965 -1.1325026 0)
(155.53445 -1.1235965 0)
(155.77066 -1.1068622 0)
(156.00339 -1.0818022 0)
(156.23076 -1.0480104 0)
(156.4508 -1.0051928 0)
(156.66147 -0.95318748 0)
(156.86066 -0.89198188 0)
(157.0463 -0.82172776 0)
(157.21631 -0.74275151 0)
(157.36874 -0.65555954 0)
(157.50172 -0.56083779 0)
(157.61358 -0.45944461 0)
(157.70285 -0.35239716 0)
(157.76833 -0.24085129 0)
(157.8091 -0.12607529 0)
(157.82454 -0.0094187751 0)
(157.81437 0.10772221 0)
(157.77866 0.22394228 0)
(157.71779 0.3378643 0)
(157.63248 0.44817571 0)
(157.52376 0.55366194 0)
(157.3929 0.65323546 0)
(157.24144 0.7459593 0)
(157.07109 0.83106443 0)
(156.88372 0.90796025 0)
(156.68129 0.97623854 0)
(156.46583 1.0356712 0)
(156.23937 1.0862023 0)
(156.00394 1.1279353 0)
(155.76148 1.161117 0)
(155.51384 1.1861186 0)
(155.26278 1.203415 0)
(155.00989 1.213564 0)
(154.75665 1.217186 0)
(154.50433 1.2149437 0)
(154.25409 1.2075249 0)
(154.0069 1.1956256 0)
(153.76357 1.1799367 0)
(153.52475 1.1611323 0)
(153.29098 1.1398599 0)
(153.06261 1.1167338 0)
(152.83991 1.0923293 0)
(152.62301 1.0671796 0)
(152.41193 1.0417737 0)
(152.20662 1.0165557 0)
(152.00693 0.99192528 0)
(151.81262 0.9682387 0)
(151.62342 0.94581082 0)
(151.43899 0.9249171 0)
(151.25894 0.90579611 0)
(151.08282 0.88865203 0)
(150.91019 0.87365715 0)
(150.74055 0.86095424 0)
(150.57339 0.8506587 0)
(150.40816 0.84286048 0)
(150.24434 0.83762562 0)
(150.08135 0.83499745 0)
(150.0988 -0.0017518781 0)
(150.09938 -0.0052654124 0)
(150.10055 -0.0088083059 0)
(150.10231 -0.012400289 0)
(150.10467 -0.016061327 0)
(150.10764 -0.019811716 0)
(150.11125 -0.023672179 0)
(150.11551 -0.027663958 0)
(150.12044 -0.031808915 0)
(150.12608 -0.036129622 0)
(150.13246 -0.040649465 0)
(150.1396 -0.045392736 0)
(150.14755 -0.050384731 0)
(150.15636 -0.055651847 0)
(150.16607 -0.061221678 0)
(150.17674 -0.067123107 0)
(150.18842 -0.0733864 0)
(150.20117 -0.080043291 0)
(150.21508 -0.08712707 0)
(150.23021 -0.094672655 0)
(150.24665 -0.10271667 0)
(150.26448 -0.11129748 0)
(150.28379 -0.12045528 0)
(150.3047 -0.13023209 0)
(150.3273 -0.14067177 0)
(150.35172 -0.15182004 0)
(150.37809 -0.16372438 0)
(150.40654 -0.17643402 0)
(150.4372 -0.1899998 0)
(150.47025 -0.20447399 0)
(150.50583 -0.21991011 0)
(150.54412 -0.23636258 0)
(150.58531 -0.25388655 0)
(150.62959 -0.27253721 0)
(150.67717 -0.29236942 0)
(150.72826 -0.31343703 0)
(150.78309 -0.33579207 0)
(150.8419 -0.35948393 0)
(150.90494 -0.38455818 0)
(150.97246 -0.41105541 0)
(151.04474 -0.4390098 0)
(151.12205 -0.46844746 0)
(151.20468 -0.49938455 0)
(151.29291 -0.53182532 0)
(151.38705 -0.56575968 0)
(151.48739 -0.60116064 0)
(151.59422 -0.63798157 0)
(151.70784 -0.67615308 0)
(151.82853 -0.7155798 0)
(151.95655 -0.7561369 0)
(152.09216 -0.79766652 0)
(152.23559 -0.8399741 0)
(152.38703 -0.88282475 0)
(152.54663 -0.9259397 0)
(152.7145 -0.96899306 0)
(152.89069 -1.0116089 0)
(153.07519 -1.0533592 0)
(153.26789 -1.0937623 0)
(153.46859 -1.1322824 0)
(153.67702 -1.1683313 0)
(153.89275 -1.2012702 0)
(154.11524 -1.230415 0)
(154.34383 -1.2550428 0)
(154.57767 -1.2744012 0)
(154.81579 -1.2877199 0)
(155.05702 -1.2942256 0)
(155.30005 -1.2931591 0)
(155.54338 -1.2837948 0)
(155.78537 -1.265463 0)
(156.0242 -1.2375732 0)
(156.25793 -1.1996389 0)
(156.4845 -1.151302 0)
(156.70175 -1.0923568 0)
(156.90749 -1.0227713 0)
(157.09951 -0.9427046 0)
(157.27561 -0.85252073 0)
(157.43369 -0.7527951 0)
(157.57178 -0.64431472 0)
(157.68808 -0.5280704 0)
(157.78101 -0.4052411 0)
(157.84927 -0.27717038 0)
(157.89187 -0.14533542 0)
(157.90816 -0.011310269 0)
(157.89784 0.12327573 0)
(157.86096 0.25678205 0)
(157.79796 0.38760171 0)
(157.70962 0.51420456 0)
(157.59703 0.63517686 0)
(157.46158 0.74925574 0)
(157.30491 0.85535679 0)
(157.12887 0.95259427 0)
(156.93545 1.0402931 0)
(156.72675 1.1179927 0)
(156.50492 1.1854439 0)
(156.27212 1.2425988 0)
(156.03047 1.2895949 0)
(155.78202 1.3267356 0)
(155.5287 1.3544672 0)
(155.27233 1.3733548 0)
(155.01457 1.3840571 0)
(154.7569 1.3873025 0)
(154.50065 1.3838657 0)
(154.24698 1.3745471 0)
(153.99685 1.3601541 0)
(153.75106 1.3414853 0)
(153.51028 1.3193173 0)
(153.27497 1.2943939 0)
(153.04551 1.2674186 0)
(152.8221 1.2390485 0)
(152.60486 1.209891 0)
(152.39378 1.1805013 0)
(152.18876 1.1513829 0)
(151.98962 1.1229873 0)
(151.79611 1.0957164 0)
(151.60792 1.0699244 0)
(151.42468 1.0459204 0)
(151.24597 1.0239716 0)
(151.07134 1.0043063 0)
(150.9003 0.98711674 0)
(150.73234 0.9725619 0)
(150.56692 0.96077017 0)
(150.40351 0.95184143 0)
(150.24153 0.94584896 0)
(150.08041 0.94284084 0)
(150.09633 -0.0019432959 0)
(150.0969 -0.0058407457 0)
(150.09804 -0.0097707979 0)
(150.09976 -0.013755363 0)
(150.10206 -0.017816613 0)
(150.10497 -0.021977092 0)
(150.10849 -0.026259817 0)
(150.11265 -0.030688386 0)
(150.11747 -0.03528709 0)
(150.12297 -0.040081014 0)
(150.1292 -0.04509615 0)
(150.13617 -0.050359505 0)