/*--------------------------------*- C++ -*----------------------------------*\
| =========                 |                                                 |
| \\      /  F ield         | foam-extend: Open Source CFD                    |
|  \\    /   O peration     | Version:     4.1                                |
|   \\  /    A nd           | Web:         http://www.foam-extend.org         |
|    \\/     M anipulation  |                                                 |
\*---------------------------------------------------------------------------*/
FoamFile
{
    version     2.0;
    format      ascii;
    class       surfaceScalarField;
    location    "0.9";
    object      phi;
}
// * * * * * * * * * * * * * * * * * * * * * * * * * * * * * * * * * * * * * //

dimensions      [0 3 -1 0 0 0 0];

internalField   nonuniform List<scalar> 
6703
(
0.00042075034
0.011887087
-0.012307837
-0.0018916607
0.022696151
-0.02038374
-0.0053030138
0.02870095
-0.025289597
-0.0092532865
0.034270038
-0.030319766
-0.013767084
0.040636187
-0.036122389
-0.018893109
0.048084843
-0.042958818
-0.024684038
0.056797623
-0.051006693
-0.031196835
0.06697685
-0.060464053
-0.038506029
0.078848736
-0.071539542
-0.046708655
0.09267647
-0.084473845
-0.055931375
0.10876766
-0.099544941
-0.066334527
0.12748726
-0.11708411
-0.078113058
0.14928129
-0.13750276
-0.091515698
0.17472459
-0.16132195
-0.10690382
0.20461272
-0.1892246
0.24006982
-0.2224435
-0.12453013
-0.00015124859
0.012038336
-0.0015635445
0.024108447
-0.0038234135
0.030960819
-0.0065688474
0.037015472
-0.0098240898
0.043891429
-0.013680462
0.051941215
-0.018243372
0.061360533
-0.023629309
0.072362786
-0.02997265
0.085192076
-0.03743108
0.1001349
-0.046197166
0.11753375
-0.056516765
0.13780686
-0.068710694
0.16147522
-0.08319153
0.18920543
-0.10042096
0.22184216
0.26037801
-0.12072916
0.00058527975
0.011453056
0.00059826939
0.024095458
-0.00026262381
0.031821712
-0.0016326872
0.038385535
-0.0033665349
0.045625277
-0.0054882152
0.054062895
-0.0080766585
0.063948976
-0.011235173
0.075521301
-0.01509145
0.089048353
-0.01980139
0.10484484
-0.025521844
0.1232542
-0.032477859
0.14476288
-0.040947953
0.16994532
-0.051281525
0.199539
-0.063913608
0.23447424
0.27576491
-0.079300507
0.0015941431
0.0098589128
0.0032275738
0.022462027
0.0040285352
0.03102075
0.0041922735
0.038221797
0.0040400267
0.045777524
0.0036913536
0.054411569
0.0031424363
0.064497893
0.0023318761
0.076331861
0.0011622912
0.090217938
-0.00049340519
0.10650054
-0.0028059321
0.12556673
-0.0059977588
0.1479547
-0.01029557
0.17424313
-0.015950669
0.2051941
-0.023227656
0.24175123
0.2847655
-0.032228248
0.0030771359
0.0067817769
0.0071792068
0.018359956
0.010592312
0.027607645
0.013113674
0.035700435
0.015060192
0.043831005
0.016713394
0.052758367
0.018230352
0.062980935
0.01966495
0.074897264
0.020995616
0.088887271
0.02214424
0.10535191
0.022992038
0.12471893
0.023403601
0.14754314
0.023188488
0.17445824
0.022129984
0.2062526
0.01996151
0.2439197
0.28848444
0.016242567
0.0058707205
0.00091105644
0.012911448
0.011319229
0.019786225
0.020732868
0.025883994
0.029602666
0.031116651
0.038598349
0.035656791
0.048218227
0.039725391
0.058912334
0.043519981
0.071102674
0.047182415
0.085224837
0.050786941
0.10174739
0.054332721
0.12117315
0.057780697
0.14409516
0.061044542
0.1711944
0.064010753
0.20328639
0.066552952
0.2413775
0.28647174
0.068565652
0.0040443646
-0.0031333082
0.015383691
-2.0097684e-05
0.027638121
0.0084784377
0.038679833
0.018560955
0.048699535
0.028578647
0.057709432
0.039208331
0.06573025
0.050891516
0.072902271
0.063930652
0.07942681
0.078700299
0.08553399
0.095640207
0.091441799
0.11526534
0.097345501
0.13819146
0.10339406
0.16514583
0.1096884
0.19699206
0.11628046
0.23478543
0.27967061
0.1230816
-0.00019703479
-0.0029362734
0.0061873266
-0.006404459
0.018773381
-0.0041076165
0.035831508
0.0015028276
0.052893338
0.011516817
0.068311951
0.023789717
0.082528535
0.036674932
0.09560003
0.050859158
0.1074828
0.066817533
0.11827852
0.084844486
0.12821223
0.10533163
0.13763596
0.12876772
0.14698263
0.15579916
0.15670729
0.18726741
0.16724521
0.22424751
0.26797735
0.17893846
-0.00082325463
-0.0021130188
-0.0013831679
-0.0058445458
0.0028045533
-0.0082953377
0.013246119
-0.0089387384
0.029950917
-0.0051879806
0.052172009
0.0015686249
0.075283237
0.013563704
0.096664012
0.029478384
0.1166403
0.046841247
0.13515317
0.066331611
0.15220157
0.088283237
0.16808283
0.11288647
0.18328639
0.14059559
0.19844895
0.17210486
0.21440235
0.2082941
0.25034807
0.23203163
0.00023746087
-0.0023504796
0.00047742753
-0.0060845124
0.00064236446
-0.0084602746
0.0018180286
-0.010114402
0.0082559301
-0.011625882
0.022068584
-0.012244029
0.04339649
-0.0077642016
0.071477664
0.0013972096
0.098934882
0.01938403
0.12487198
0.040394515
0.1501448
0.063010417
0.17484586
0.0881854
0.19900996
0.1164315
0.22280613
0.14830869
0.24743475
0.18366547
0.22292715
0.27485567
0.00070221476
-0.0030526944
0.0012053231
-0.0065876208
0.0012968606
-0.0085518121
0.0011862854
-0.010003827
0.00104894
-0.011488537
0.0019459845
-0.013141074
0.0091156998
-0.014933917
0.026069283
-0.015556373
0.052429405
-0.006976092
0.085880851
0.0069430693
0.11695993
0.031931336
0.15130497
0.053840363
0.18395561
0.083780857
0.21601677
0.11624753
0.24993075
0.14975149
0.18531357
0.28754433
-0.00063095088
-0.0024217435
-0.0025886605
-0.0046299111
-0.0052357271
-0.0059047454
-0.0082916568
-0.0069478974
-0.011696248
-0.0080839456
-0.015339788
-0.0094975331
-0.019156522
-0.011117184
-0.021918295
-0.0127946
-0.014671868
-0.014222519
0.0071088705
-0.014837669
0.050274474
-0.011234267
0.10539034
-0.0012755073
0.12715867
0.062012535
0.15455004
0.088856156
0.18461281
0.11968872
0.15362126
0.21630513
-0.0017475872
-0.012768665
0.014516253
-0.0040781558
-0.021446041
0.02377661
-0.007029989
-0.026397005
0.029348838
-0.010714932
-0.031407472
0.035092416
-0.015147988
-0.037220663
0.041653718
-0.02044458
-0.044024658
0.04932125
-0.02674253
-0.051968312
0.058266262
-0.034193303
-0.061211275
0.068662048
-0.042952729
-0.071929149
0.080688576
-0.053166308
-0.084315588
0.094529166
-0.064967648
-0.098585383
0.11038672
-0.078474955
-0.114981
0.1284883
-0.093797621
-0.13378475
0.14910741
-0.11108139
-0.15533858
0.17262235
-0.13073865
-0.17998817
0.19964543
-0.20822468
0.23127109
-0.15378506
-0.0017583221
-0.011010343
-0.0050280595
-0.018176304
-0.0091498651
-0.0222752
-0.014098166
-0.026459171
-0.019999289
-0.03131954
-0.027014851
-0.037009095
-0.035333357
-0.043649807
-0.045171093
-0.051373539
-0.056775476
-0.060324766
-0.070429063
-0.070662001
-0.086453616
-0.08256083
-0.10521497
-0.096219644
-0.12713093
-0.11186879
-0.15267833
-0.12979118
-0.18233536
-0.15033115
-0.17399924
-0.21656079
-0.0021639936
-0.0088463497
-0.0058649957
-0.014475302
-0.010451403
-0.017688792
-0.015930174
-0.0209804
-0.022444869
-0.024804845
-0.03017546
-0.029278505
-0.039330238
-0.034495028
-0.050148043
-0.040555734
-0.062901273
-0.047571536
-0.077899429
-0.055663844
-0.095493807
-0.064966453
-0.1160843
-0.075629149
-0.14012859
-0.0878245
-0.16816045
-0.10175931
-0.20081195
-0.11767965
-0.13577645
-0.23903474
-0.0024339
-0.0064124497
-0.0064125963
-0.010496605
-0.011317364
-0.012784025
-0.017182958
-0.015114807
-0.024164505
-0.017823297
-0.032452361
-0.020990649
-0.042266029
-0.02468136
-0.053855922
-0.028965841
-0.067505674
-0.033921783
-0.083534666
-0.039634853
-0.10230121
-0.046199908
-0.12420783
-0.053722529
-0.14971277
-0.062319563
-0.17934029
-0.072131793
-0.21363516
-0.083384784
-0.096593245
-0.25281836
-0.0027468781
-0.0036655716
-0.006984975
-0.0062585085
-0.012172452
-0.0075965477
-0.018367778
-0.0089194805
-0.025731855
-0.010459221
-0.034462047
-0.012260457
-0.044787471
-0.014355936
-0.05697088
-0.016782432
-0.071311925
-0.019580739
-0.088151674
-0.022795103
-0.10787898
-0.026472606
-0.13093772
-0.030663787
-0.15783169
-0.035425588
-0.18914757
-0.040815922
-0.22575969
-0.046772656
-0.052879663
-0.26947328
0.00042532056
0.014036704
-0.014462025
2.5016963e-05
0.028354568
-0.027954265
-0.0012909725
0.036758489
-0.0354425
-0.0030878378
0.044052171
-0.042255306
-0.005286705
0.052283318
-0.050084451
-0.0079364466
0.061899329
-0.059249587
-0.011116489
0.073141552
-0.06996151
-0.01493432
0.086265135
-0.082447303
-0.019519693
0.10154717
-0.096961796
-0.025027681
0.11930024
-0.11379226
-0.031643927
0.13988657
-0.13327032
-0.03959425
0.16374138
-0.15579106
-0.049159862
0.19141485
-0.18184924
-0.060689238
0.2236363
-0.21210693
-0.074560085
0.26136514
-0.24749429
0.30567435
-0.28911064
-0.091123791
-0.0028629214
-0.00080265024
-0.0077291304
-0.0013922995
-0.013564868
-0.0017608099
-0.020340852
-0.002143497
-0.028222302
-0.0025777702
-0.037406582
-0.0030761767
-0.048114476
-0.0036480427
-0.060595797
-0.0043011101
-0.075135004
-0.005041533
-0.092056735
-0.0058733718
-0.1117315
-0.006797836
-0.13458307
-0.0078122191
-0.16109984
-0.0089088207
-0.19184348
-0.010072284
-0.22730475
-0.011311385
-0.012587424
-0.26759699
-0.0026070961
0.0018044459
-0.00725085
0.0032514544
-0.012921432
0.0039097724
-0.019588893
0.0045239642
-0.027417293
0.0052506293
-0.036606411
0.0061129415
-0.047381473
0.0071270196
-0.0599966
0.008314016
-0.074738225
0.0097000921
-0.09192813
0.011316533
-0.11192635
0.013200384
-0.1351351
0.015396532
-0.16200406
0.017960137
-0.1930169
0.020940562
-0.22863871
0.024310422
0.027868114
-0.26909425
-0.0026668926
0.0044713384
-0.0068603887
0.0074449505
-0.012029096
0.0090784801
-0.018234054
0.010728922
-0.025634758
0.012651333
-0.034427679
0.014905863
-0.044840646
0.017539987
-0.057133295
0.020606665
-0.071598895
0.024165693
-0.08856709
0.028284728
-0.1084076
0.033040897
-0.13153377
0.038522701
-0.15840614
0.044832504
-0.18955151
0.052085934
-0.22571438
0.060473294
0.070329008
-0.26817528
-0.0024037525
0.0068750909
-0.0063382509
0.011379449
-0.011198748
0.013938978
-0.017014753
0.016544927
-0.02393619
0.019572769
-0.032147717
0.02311739
-0.041861738
0.027254007
-0.053319455
0.032064382
-0.066792799
0.037639037
-0.082587147
0.044079076
-0.10104587
0.051499616
-0.12255935
0.060036183
-0.14758347
0.069856623
-0.17667349
0.08117596
-0.2104221
0.094221898
0.10910979
-0.24920287
-0.0021142913
0.0089893822
-0.0057375703
0.015002728
-0.010233797
0.018435204
-0.01560497
0.021916099
-0.021988165
0.025955964
-0.029556296
0.030685521
-0.038509546
0.036207257
-0.049077629
0.042632465
-0.061523574
0.050084982
-0.076149168
0.058704669
-0.093303476
0.068653923
-0.11339608
0.080128789
-0.13691306
0.093373604
-0.16443531
0.1086982
-0.1967896
0.12657619
0.14797202
-0.23565183
-0.0017161846
0.010705567
-0.0049122821
0.018198825
-0.0089405132
0.022463436
-0.013774019
0.026749605
-0.019533921
0.031715866
-0.02637652
0.03752812
-0.034484683
0.04431542
-0.044069995
0.052217778
-0.055378639
0.061393626
-0.068699167
0.072025198
-0.084372651
0.084327407
-0.10280667
0.098562808
-0.12449918
0.11506612
-0.15005806
0.13425708
-0.18009922
0.15661735
0.18251758
-0.21464479
-0.0017540395
0.012459606
-0.004093765
0.020538551
-0.0069999864
0.025369657
-0.010590295
0.030339914
-0.014899456
0.036025026
-0.020039549
0.042668214
-0.02614352
0.05041939
-0.033365657
0.059439915
-0.041860611
0.06988858
-0.051783673
0.08194826
-0.063286514
0.095830248
-0.076512686
0.11178898
-0.0915946
0.13014803
-0.10868056
0.15134304
-0.12799249
0.17592928
0.20479365
-0.15026856
-0.0018611593
0.00025922564
0.0016019337
-0.00017213481
0.0033076508
-0.0049966753
0.0026956071
0.0076622467
-0.010529989
0.0061286222
0.01169779
-0.015130805
0.010081568
0.014956358
-0.018909303
0.014375376
0.017786772
-0.02208058
0.024268785
0.014730014
-0.024623423
0.043383871
0.0071953207
-0.026310406
0.075390398
-0.0059967066
-0.026009821
0.12310141
-0.025379761
-0.022331247
0.16137406
-0.052415573
0.014142918
0.19469029
-0.084836368
0.051520137
0.22440499
-0.12188113
0.092166433
0.24952904
-0.16361557
0.13849152
0.26964695
-0.2104646
0.19034668
-0.26248925
0.24729221
0.284844
-0.0023753993
0.0026346249
-0.004636244
0.0055684956
-0.0058469404
0.0088729432
-0.0064095833
0.012260433
-0.00063728331
0.0091840578
0.013916615
0.0032328733
0.03774189
-0.0090952613
0.070735364
-0.025798153
0.10956907
-0.044830414
0.1502333
-0.066043988
0.18830664
-0.090488913
0.22240652
-0.11893625
0.25236146
-0.15183607
0.27843073
-0.18968484
0.30114493
-0.2331788
-0.28317527
0.32183094
-0.0017937704
0.0044283953
-0.004203186
0.0079779112
-0.0015157336
0.0061854908
0.008893066
0.0018516335
0.02724621
-0.0091690858
0.053298353
-0.02281927
0.081383915
-0.037180823
0.10858816
-0.053002401
0.13452417
-0.070766426
0.15932003
-0.090839846
0.18254596
-0.11371484
0.2036965
-0.14008679
0.22262765
-0.17076722
0.23959696
-0.20665415
0.25516017
-0.24874201
-0.29810044
0.27008535
-0.0007540979
0.0051824932
0.0046624021
0.0025614112
0.01735764
-0.0065097475
0.037068393
-0.017859119
0.057238596
-0.029339289
0.075971164
-0.041551837
0.093688872
-0.054898532
0.11036932
-0.069682851
0.12589434
-0.08629144
0.14028362
-0.10522913
0.15366985
-0.12710107
0.16620525
-0.15262218
0.17805648
-0.18261845
0.18942643
-0.2180241
0.20053753
-0.25985312
-0.30914648
0.21158357
0.0042609334
0.00092155985
0.016652928
-0.0098305838
0.031013834
-0.020870653
0.044477533
-0.031322818
0.057033385
-0.04189514
0.068549677
-0.05306813
0.078968903
-0.065317757
0.088418183
-0.079132132
0.097140358
-0.095013614
0.10540746
-0.11349624
0.11346707
-0.13516067
0.12149423
-0.16064934
0.12956503
-0.19068926
0.13767007
-0.22612913
0.14574398
-0.26792703
-0.31707965
0.15367715
0.0070134261
-0.0060918663
0.016323285
-0.019140443
0.025367083
-0.029914451
0.033479099
-0.039434834
0.040516211
-0.048932252
0.046663982
-0.059215901
0.052221072
-0.070874848
0.057478046
-0.084389106
0.062663803
-0.10019937
0.067921421
-0.11875386
0.073299764
-0.14053902
0.078759241
-0.16610882
0.084190402
-0.19612042
0.089443455
-0.23138219
0.094353105
-0.27283668
-0.32139943
0.098672884
0.0042775406
-0.010369407
0.0098410409
-0.024703943
0.014777609
-0.034851019
0.01872632
-0.043383545
0.021984354
-0.052190287
0.024905644
-0.062137191
0.027733876
-0.07370308
0.030597807
-0.087253037
0.033530003
-0.10313157
0.036490843
-0.1217147
0.039384094
-0.14343227
0.04206701
-0.16879173
0.044359576
-0.19841299
0.046056365
-0.23307898
0.046954532
-0.27373485
-0.32139408
0.046949184
0.0024314758
-0.012800883
0.0051783156
-0.027450783
0.0070826382
-0.036755342
0.0082694201
-0.044570327
0.0091319817
-0.053052848
0.0098784016
-0.062883611
0.010574658
-0.074399336
0.011205521
-0.0878839
0.011701545
-0.10362759
0.011957375
-0.12197053
0.011832804
-0.1433077
0.011152369
-0.1681113
0.0097084201
-0.19696904
0.0072683868
-0.23063894
0.0035891216
-0.27005558
-0.3160074
-0.0017975558
0.0012358218
0.0021396068
0.0021427544
0.0016245987
0.00085506855
-0.00012921326
-0.0013869971
-0.0030057621
-0.0050861836
-0.0077564647
-0.011177595
-0.015547511
-0.0211017
-0.028104341
-0.036794788
-0.047127843
-0.00035200244
-0.014110023
-0.0020749342
-0.026231333
-0.004635903
-0.032881531
-0.0076772367
-0.039213972
-0.011275984
-0.046485703
-0.015530975
-0.054994597
-0.020552344
-0.064940141
-0.026460551
-0.076539097
-0.033389992
-0.090032355
-0.041496786
-0.10568546
-0.050970722
-0.12379638
-0.062056956
-0.14470483
-0.075083872
-0.16882232
-0.090475689
-0.19671511
-0.10872561
-0.22924437
-0.26761211
-0.13022415
0.00022269196
-0.014332715
-0.0024117868
-0.023596854
-0.0060467115
-0.029246606
-0.010215512
-0.035045171
-0.01497516
-0.041726056
-0.020378377
-0.04959138
-0.026477293
-0.058841225
-0.033328626
-0.069687763
-0.041000677
-0.082360304
-0.049583723
-0.097102415
-0.059195915
-0.11418419
-0.069992051
-0.13390869
-0.082176369
-0.156638
-0.096035951
-0.18285553
-0.11189243
-0.21338789
-0.2497757
-0.12972883
-0.0013480204
-0.0010895371
0.0024375575
-0.0039091433
-0.0020678874
0.0046290104
-0.0069549092
-0.0028005701
0.005846336
-0.010136264
-0.0036275817
0.0068089369
-0.013330876
-0.004640984
0.0078355957
-0.016642216
-0.0057903055
0.0091016454
-0.020107256
-0.0070540001
0.010519041
-0.023628823
-0.0084096468
0.011931213
-0.026882995
-0.0098173096
0.013071482
-0.028961786
-0.011332369
0.01341116
-0.028941509
-0.012514871
0.012494594
-0.030716987
-0.010849228
0.012624706
0.0068835392
0.0013572351
-0.038957761
0.051525314
0.027410234
-0.072052008
0.095420646
0.054325805
-0.098221138
0.084803698
-0.12554209
0.13615904
-0.0019724743
0.00088293719
-0.0058169156
0.001776554
-0.010605637
0.001988151
-0.01609979
0.0018665716
-0.022381164
0.0016403906
-0.029596471
0.0014250011
-0.037824854
0.0011743835
-0.047081312
0.00084681065
-0.057324675
0.00042605403
-0.068595788
-6.1255562e-05
-0.080712909
-0.00039774949
-0.091719149
0.00015701233
-0.092962356
0.0026004421
-0.073926756
0.0083746344
-0.037849356
0.018248405
0.035690376
0.011263966
-0.0016319094
0.0025148466
-0.0045139391
0.0046585838
-0.0082667471
0.0057409591
-0.013026979
0.0066268038
-0.019012621
0.0076260326
-0.026323497
0.0087358771
-0.03505225
0.0099031366
-0.045297258
0.011091819
-0.057143029
0.012271825
-0.070565572
0.013361288
-0.085236988
0.014273667
-0.10020237
0.015122396
-0.11338078
0.015778855
-0.12090636
0.015900212
-0.11750563
0.01484767
0.010765253
-0.092580502
-0.0017379543
0.0042528009
-0.0047139757
0.0076346054
-0.0084333185
0.009460302
-0.012905374
0.01109886
-0.018197812
0.012918471
-0.024413317
0.014951382
-0.031684303
0.017174123
-0.04012519
0.019532706
-0.049773507
0.021920142
-0.060578587
0.024166368
-0.072319635
0.026014715
-0.084305884
0.027108645
-0.095263889
0.026736859
-0.10302534
0.023661659
-0.10403284
0.015855179
0.00031124805
-0.093578839
-0.0017135462
0.0059663471
-0.0046176013
0.010538661
-0.0081912936
0.013033994
-0.012419366
0.015326932
-0.017374989
0.017874094
-0.02314935
0.020725743
-0.02982361
0.023848383
-0.037454336
0.027163432
-0.046055905
0.030521711
-0.055555303
0.033665766
-0.065711063
0.036170475
-0.075992458
0.037390041
-0.085396772
0.036141174
-0.092414066
0.030678953
-0.094788862
0.018229975
-0.0034132133
-0.091064401
-0.0014745415
0.0074408886
-0.0041064786
0.013170598
-0.0073712829
0.016298799
-0.011228837
0.019184486
-0.01574139
0.022386646
-0.020984955
0.025969309
-0.027029352
0.02989278
-0.033919148
0.034053229
-0.041649002
0.038251565
-0.050127771
0.042144536
-0.059117613
0.045160317
-0.068139696
0.046412124
-0.076309378
0.044310856
-0.082038138
0.036407713
-0.082778205
0.018970043
-0.01087122
-0.075320198
-0.00091993071
0.0083608193
-0.0029946831
0.01524535
-0.005683621
0.018987737
-0.0088830952
0.022383961
-0.012633574
0.026137125
-0.016998008
0.030333743
-0.022034551
0.034929322
-0.027780588
0.039799266
-0.034227677
0.044698655
-0.041273879
0.049190737
-0.048631628
0.052518066
-0.055766339
0.053546835
-0.061766319
0.050310836
-0.064820445
0.039461839
-0.059081445
0.013231043
-0.026699086
-0.043253579
1.6849985e-05
0.0083439694
-0.00092368396
0.016185884
-0.0025523813
0.020616434
-0.0045986706
0.02443025
-0.0070157758
0.02855423
-0.0098377343
0.033155702
-0.013100765
0.038192353
-0.016822471
0.043520972
-0.020975977
0.048852161
-0.025435312
0.053650072
-0.029927348
0.057010103
-0.033663524
0.057283011
-0.037582751
0.054230063
-0.033112585
0.034991674
-0.011445838
-0.0084357042
-0.059834646
0.021689722
0.0010659174
0.007278052
0.0017536522
0.015498149
0.0017996544
0.020570432
0.0015239914
0.024705913
0.0011005437
0.028977678
0.00058014864
0.033676097
-1.5377664e-05
0.038787879
-0.00065747818
0.044163072
-0.0012877324
0.049482416
-0.0017878341
0.054150174
-0.0019124748
0.057134744
-0.0021312231
0.057501759
0.005427783
0.046671057
0.029937799
0.010481658
0.062887158
-0.041385063
-0.097801704
0.10085422
0.0022919788
0.0049860732
0.0048857045
0.012904424
0.0070159129
0.018440223
0.0088195839
0.022902242
0.010638217
0.027159045
0.01273446
0.031579853
0.015308853
0.036213486
0.018572739
0.040899187
0.022816013
0.045239142
0.028483427
0.04848276
0.036276981
0.049341189
0.050115333
0.043663408
0.078221743
0.018564647
0.11419223
-0.025488832
0.15283792
-0.080030748
-0.13954455
0.19458076
0.0030371155
0.0019489577
0.0073336134
0.0086079259
0.011343018
0.014430819
0.015059901
0.019185359
0.018810015
0.023408932
0.022999508
0.02739036
0.028022309
0.031190685
0.034296543
0.034624952
0.042311986
0.037223699
0.052724989
0.038069757
0.070047889
0.032018289
0.10176428
0.011947015
0.14567523
-0.025346297
0.19424097
-0.074054572
0.2445753
-0.13036508
-0.19160139
0.29663214
0.0035166508
-0.0015676931
0.006951073
0.0051735038
0.010576349
0.010805543
0.014254214
0.015507493
0.018239648
0.019423498
0.022836313
0.022793696
0.028364482
0.025662516
0.035120853
0.027868581
0.043396047
0.028948506
0.051913359
0.029552445
0.083858598
7.3050801e-05
0.12989477
-0.034089159
0.17656635
-0.072017873
0.21823203
-0.11572025
0.2528042
-0.16493725
-0.21929571
0.28049851
0.00030657946
-0.00015176895
0.00038663972
0.00040678838
0.00030942539
1.8820993e-05
-0.00056848186
-0.0015926205
-0.0032435825
-0.0057691668
-0.0094838598
-0.01477899
-0.022133719
-0.03211263
-0.045407948
-0.0630578
0.00036329376
-0.00018353809
0.00046552576
0.00051277022
0.00044043241
0.00017030279
-0.00040466066
-0.0014303761
-0.0031021047
-0.0056753539
-0.0094728241
-0.01489321
-0.022423799
-0.032656972
-0.046399434
-0.064904045
0.00021106911
-3.4240544e-05
0.0004866238
0.0008633117
0.0013775065
0.0020906221
0.0031297154
0.0046878908
0.0076265758
0.014847773
0.029063742
0.04649472
0.066643279
0.08941455
0.11482398
0.14282048
1.4913273e-05
-1.5814043e-05
-4.3496114e-05
-0.00018245666
-0.00043080652
-0.00082669411
-0.0014248369
-0.0022882232
-0.0034392602
-0.004865769
-0.0036054419
0.0077437568
0.030798531
0.047602679
0.069070264
0.097149429
0.13470562
-0.5307484
0.39604279
1.3184977
-1.3635294
0.045031701
0.16960918
-0.4865878
0.31697862
1.3184977
-0.43465193
0.031247147
0.40340479
-1.2354952
0.69248284
0.5430124
-0.19073571
0.67532104
-0.48458533
1.1644208
0.44061315
-1.605034
1.2138298
0.30008766
-1.5139175
0.17734257
-0.24040037
-0.29838835
0.23348431
0.52262475
1.1199415
-1.6425663
-0.52876616
-0.58540544
1.1141716
-1.2327608
0.47495722
0.7578036
-0.23802639
0.58755008
-0.34952369
0.61299115
-0.017557505
-0.59543365
1.1318956
-1.1557648
0.023869238
-0.0083498924
0.32230454
-0.31395465
0.06156232
-0.19975673
0.13819441
0.96728788
-0.3368842
-0.63040368
-0.20961345
-0.22503849
-1.1471926
0.6184264
-1.4225164
1.4085989
0.013917456
0.10937903
1.2782758
-1.3876549
0.021450425
-0.86150168
0.84005125
0.81893249
0.085844508
-0.904777
-0.65400542
-0.97816552
1.6321709
0.94082003
-0.27929007
-0.66152996
0.22798483
0.99901156
-1.2269964
-0.37031155
0.82145321
-0.45114166
1.0309468
-0.21201429
0.30896266
-0.2291813
-0.079781353
-0.023750588
1.2931998
-1.2694492
1.065278
-0.053450614
-1.0118274
0.17581447
-0.93109582
0.75528134
1.3766778
-1.1562365
-0.22044127
1.0313162
-1.2619017
0.2305855
-0.70994827
0.88576274
0.85903361
-0.51561269
-0.34342092
-1.2897918
0.23046985
1.0593219
0.33554531
-0.31381322
-0.021732082
1.1399714
-0.67757734
-0.4623941
1.1644208
-0.38398598
0.87764641
-0.49366043
1.2138298
-0.1441131
0.55456527
-0.41045217
-0.33088045
1.0876041
-0.75672367
-1.4744484
0.63664854
0.83779986
-1.1644208
1.7483094
-0.5838886
-1.2138298
1.7706815
-0.55685175
0.52171175
-0.19762934
-0.32408241
-0.57693313
0.23725198
0.33968115
0.20533603
-0.38456676
0.17923074
0.13660448
0.19178993
-0.32839441
-0.57346769
0.87111426
-0.29764656
0.18135191
0.88115208
-1.062504
0.1321201
-0.27315722
0.14103711
-0.8129328
0.52236218
0.29057062
-1.5774836
0.16845041
1.4090332
1.4170793
-0.51081959
-0.90625973
1.2904582
0.1266211
0.83124496
0.61322938
-1.4444743
0.78660555
0.65036973
-1.4369753
-0.35561219
0.76976735
-0.41415516
0.081671585
-0.66738424
0.58571266
-0.98071778
1.0382653
-0.057547564
0.72483205
-1.2149757
0.49014368
0.74475085
0.23332097
-0.97807182
-0.18291394
0.95186031
-0.76894637
-1.4857619
1.1548815
-0.57869764
0.92608236
-0.34738472
0.2853523
0.32763885
-0.31302819
0.57856677
-0.26553858
0.80008719
0.9965755
-1.7966627
1.4162379
-1.301227
-0.11501085
0.077483623
-0.42220517
0.79208957
-0.36988439
0.92841244
-0.22921432
-0.69919811
1.5879871
-1.4394119
-0.14857521
1.1534679
-1.0333045
-0.12016338
0.59761766
-0.5963574
-0.0012602646
-0.30365455
0.042752134
0.26090242
0.14912272
-0.51943427
-1.9372966
1.36906
0.56823664
0.371845
0.76005061
0.41606281
-1.4285464
1.0124835
-0.69869939
1.150452
-0.45175258
-0.18671554
-0.98328276
1.1699983
0.49198264
-0.34215324
-0.14982941
0.085215322
1.3310225
0.95731282
-0.019280821
-0.938032
-1.2559275
0.59981218
0.6561153
0.10057979
0.53651952
-0.6370993
0.47388554
0.38514807
0.65696346
0.3591843
-1.0161478
0.69905543
-0.28542453
-0.4136309
-0.74579634
-0.82295835
0.46411429
-0.29450511
-0.10572415
-0.32794247
0.43366662
-0.42189698
0.83644627
-0.41454929
-0.47329291
1.2733801
-0.89071761
1.1895204
-0.29880277
-0.88197407
-0.3739534
-0.14447876
1.175795
1.2838762
-1.2061443
-0.077731898
-0.75850724
-0.47425358
-1.7174211
1.1530476
0.56437351
-1.9009052
1.3756229
0.52528231
0.84822311
-0.36546044
-0.48276267
0.18226557
-0.56625155
0.18912533
-0.76259302
0.014154503
0.61945925
-0.63361375
0.44439862
-0.62731256
-0.15201041
0.48755571
0.27241603
0.69487185
1.0706414
0.51734567
0.57233589
-0.55818138
0.17283772
0.98063066
-1.1534684
1.6442454
-0.90665349
-0.73759187
-0.35600896
0.7318721
-0.37586314
-0.0077050892
0.21304112
0.30891464
-0.17231016
0.34226553
-0.11908148
-0.22318405
1.6868983
-1.7106489
0.051936201
0.10034162
-0.15227782
-0.11486286
0.023798457
-1.1562444
1.2268047
-0.070560276
-0.26255609
0.2074277
0.055128387
0.60573725
-0.66630917
0.060571917
-0.83961608
0.75871282
0.080903262
0.27033815
-0.13821805
-0.14027507
0.29924468
-0.15896961
-0.73081428
1.31936
-0.58854577
0.22918448
0.91078696
1.2717666
-0.54693455
0.4851376
0.36308551
-0.53034778
0.38623468
1.0446763
-1.2313918
-0.5375484
0.43182425
0.86870404
0.41517214
0.80373166
-1.6248286
0.82109693
0.48596016
0.3102838
-0.27903665
-0.55867836
0.69338397
1.2446923
-1.2446923
-0.35062185
-0.21034536
1.1676582
0.2263798
-0.64858497
-0.069720008
1.0175723
-0.94785224
-0.61113961
1.4423846
-0.6391022
1.4257077
1.3225828
-0.7472935
-0.57528935
0.3497148
0.43851803
-0.79452698
0.92265289
-1.2017544
0.27910148
0.89753989
-0.87608947
0.2180572
-0.090471203
-1.0392344
1.1297056
1.5415643
0.25885342
-1.8004177
-0.83084968
1.0036874
-0.51269554
0.691634
-0.62943479
0.78311195
-0.053498289
0.71046175
0.033649353
0.5432985
-0.57694786
-0.85027178
-0.057041782
0.90731356
0.539627
-1.2704413
-1.4292934
1.3595734
0.92509198
0.39581902
-1.320911
-0.10807451
-0.55356855
0.66164306
-0.64103029
1.163655
-0.99065666
0.38675967
0.60389698
0.57700158
-0.47642179
-0.14997913
-0.57871837
0.7286975
1.1151729
-1.2055068
0.090333914
0.92984838
0.39273446
-1.5188
0.80885172
0.060824067
1.0926438
1.0032151
0.78733005
-1.4413355
-0.021916448
0.61953411
-1.0469065
0.82371973
0.22318672
-1.1229556
1.0148811
0.60291181
0.74940575
-1.3523176
0.71882138
0.20726098
-0.89694731
0.74696819
-0.31099636
-0.73591009
-0.17067375
-0.32861079
0.49928454
0.39771249
-0.67415222
0.27643973
0.046102162
0.40982483
-0.45592699
-1.1398874
0.25921402
0.88067335
0.15118017
1.2653884
-1.4165686
-0.88384649
-0.53552757
1.4193741
0.19604184
0.74477819
0.096929802
-0.33123866
0.23430886
-0.98013161
-0.17563324
1.199068
-1.0896889
1.1732738
-0.058100899
-0.80620039
-0.28999979
1.0962002
-0.67658423
-0.30204797
0.9786322
-0.13334417
0.47195101
-0.33860684
-0.058181814
0.88190155
-0.6434573
-0.30440028
0.94785758
0.49139553
0.1501061
-0.64150163
-0.77635859
0.72179925
0.054559348
-1.0024765
0.54285659
0.45961994
-0.88054006
0.5695437
0.56397391
-1.1493794
1.5415643
0.19768935
0.38165381
-0.57934316
1.3925454
-1.1600239
-0.23252154
-1.1499666
1.2075373
-0.46278648
-0.88755339
-0.26869102
0.033368982
-0.84020341
0.80683443
-1.1338469
1.2850271
0.64435392
-1.1258413
0.48148738
0.58553185
0.77268509
-1.3582169
-0.67071674
0.52221244
-0.69288619
0.030332358
-0.17060742
-1.2012097
-0.51621142
1.0419507
-0.090090412
1.0936235
-0.91557937
-0.17804415
0.91374193
0.77361935
-1.6873613
0.18630386
-0.70191654
0.35386253
-0.14722851
-0.20663402
-0.40309844
0.6007878
-0.56145848
1.4752004
-1.4096848
1.4131005
-0.0034156869
-0.14738756
0.44663225
0.2559463
-0.1590165
0.35870143
-0.37558152
0.016880092
0.31335117
-1.4335955
1.1202443
-0.48415131
-0.018291839
0.50244315
-0.18227818
-0.66099033
0.84326851
0.34878107
0.37004031
0.31074652
1.1573214
-1.4680679
-0.60992293
0.28131214
1.110417
0.23895429
-1.3493713
0.037953432
1.227435
0.50262738
0.5283194
1.0436958
-0.0065945501
-1.0371013
-0.41979501
0.10676682
-1.1538004
0.34855926
0.80524118
0.14016677
-0.60528064
0.46511387
-0.79569797
0.80900995
-0.013311984
-0.14793105
1.2132091
1.1613758
-1.7362433
0.57486753
0.47649525
0.27605419
-0.75254943
-0.43896826
-0.025326594
0.46429485
-0.13263621
-0.34282282
0.47545903
0.4212211
0.0025632749
1.3899822
-0.35854174
1.0028957
0.21630455
-0.15474223
0.6761267
0.32323369
-0.99936039
0.48157301
-0.44792366
-0.92805584
0.28459854
1.5821074
-0.13762506
1.3615623
-1.2239373
0.12405273
-1.2802892
-1.2626762
0.67869049
0.58398568
1.4622799
-0.41090918
-0.79084519
-1.0956739
-0.19411781
-0.84222109
1.0755421
-0.62927546
-0.60621978
1.2292029
-1.0012181
-0.7953787
0.96935115
-0.17397245
-0.87119249
0.89506173
-0.3928355
-0.3835231
0.10138599
0.99223754
-0.040391655
-0.79922442
-0.61785857
-0.37279809
-0.24891477
1.312714
-1.0637992
-0.4681313
0.60829807
-0.90261714
0.92309976
-0.020482622
0.058743784
-1.3193373
1.2605935
0.84818335
-0.012547044
-0.83563631
0.51205367
-0.66516788
0.15311421
1.0445178
-1.2833685
0.23885072
-0.062117046
0.82072301
-0.75860596
0.72904399
-0.56616231
-0.16288167
0.052859267
-0.2054408
0.15258153
0.21950594
-0.42911938
0.12664808
-1.0104946
-0.070230651
-0.91048713
-1.2013476
1.3771568
-1.318413
-0.56608357
-0.24684923
-0.046806959
-0.29715714
0.3439641
0.76026626
-0.61986675
-0.14039951
0.09366627
-0.93883237
0.8451661
-0.00017466341
0.35887609
-0.4349525
-0.049198808
0.59696999
-0.24818892
-0.68204699
-0.9427816
0.51549343
0.063073345
0.32336897
-1.6868984
1.3635294
0.93321297
-0.51526804
-0.41794493