/*--------------------------------*- C++ -*----------------------------------*\
| =========                 |                                                 |
| \\      /  F ield         | foam-extend: Open Source CFD                    |
|  \\    /   O peration     | Version:     4.1                                |
|   \\  /    A nd           | Web:         http://www.foam-extend.org         |
|    \\/     M anipulation  |                                                 |
\*---------------------------------------------------------------------------*/
FoamFile
{
    version     2.0;
    format      ascii;
    class       volVectorField;
    location    "0.9";
    object      U;
}
// * * * * * * * * * * * * * * * * * * * * * * * * * * * * * * * * * * * * * //

dimensions      [0 1 -1 0 0 0 0];

internalField   nonuniform List<vector> 
4242
(
(93.740394 88.725833 1.8163634e-15)
(142.89682 127.7255 5.8615536e-18)
(151.99445 130.09791 -9.0177555e-16)
(152.00401 127.66878 7.2112985e-16)
(151.60119 124.27529 9.9395948e-18)
(151.08089 120.48221 1.5738913e-18)
(150.48886 116.22712 0)
(149.82275 111.52702 1.8137554e-16)
(149.09276 106.3723 -2.8150352e-16)
(148.31538 100.77952 9.9542857e-17)
(147.5273 94.780243 -3.4659394e-17)
(146.77946 88.431191 2.9251613e-17)
(146.14845 81.80136 1.6154294e-17)
(145.78498 74.925302 -2.7063021e-19)
(145.90416 67.895154 2.7513493e-17)
(146.22148 61.350003 0)
(98.905697 71.762778 0)
(163.50201 113.12072 -1.3199077e-17)
(175.58468 115.57636 1.2207456e-15)
(175.20227 113.7374 -9.980971e-16)
(173.90551 110.9655 -1.6734755e-17)
(172.41333 107.86758 5.4369522e-16)
(170.8185 104.38218 -4.4392663e-17)
(169.13483 100.52268 -6.3437158e-16)
(167.38689 96.282541 6.4064401e-17)
(165.60126 91.676541 1.7753405e-16)
(163.81581 86.730373 0)
(162.0765 81.488928 -1.2350875e-17)
(160.44496 76.008728 -4.4082536e-18)
(159.03942 70.317044 -2.6274071e-17)
(158.00098 64.458384 2.704735e-17)
(157.19961 58.811658 3.3693176e-18)
(103.55109 55.406922 -3.2659161e-17)
(179.17785 94.008225 -4.3845076e-15)
(196.40762 97.091345 1.7545475e-15)
(196.38925 96.320394 -1.2096572e-17)
(194.48638 94.452204 -1.0466996e-15)
(192.2801 92.297246 8.6102448e-16)
(189.89314 89.833641 -1.1589649e-17)
(187.34114 87.073334 1.7762719e-17)
(184.65905 83.996326 -5.8405865e-18)
(181.88954 80.600133 -1.999176e-17)
(179.08886 76.894749 1.8167253e-16)
(176.32353 72.905303 -1.3841936e-16)
(173.67445 68.664416 -1.7953951e-16)
(171.25165 64.198332 1.5679553e-16)
(169.14637 59.5891 -1.0083417e-17)
(167.32331 55.051887 -1.8663868e-17)
(101.47955 37.778405 -8.7548414e-18)
(184.70073 69.794147 -5.3134112e-18)
(208.73102 73.486041 -9.6330359e-16)
(211.3105 74.198337 8.2799376e-16)
(209.61342 73.589523 -1.0553737e-17)
(207.11626 72.572161 5.2626604e-16)
(204.33273 71.33047 -4.132666e-16)
(201.327 69.905057 -6.5260975e-16)
(198.13551 68.266354 5.3748151e-17)
(194.79898 66.391079 8.3333145e-16)
(191.3242 64.219657 -3.226597e-16)
(187.88019 61.795319 0)
(184.52495 59.092082 1.5900325e-17)
(181.37427 56.104502 -1.1604448e-16)
(178.49967 52.924033 5.8393308e-17)
(175.75266 49.867881 -9.287134e-17)
(85.103403 19.410607 9.5072923e-18)
(171.81315 42.396386 -1.3889725e-15)
(204.65028 46.624523 9.9757457e-16)
(213.43 49.065911 -5.7191696e-18)
(214.20289 50.286739 1.3772779e-17)
(212.54707 50.766481 -3.7488088e-18)
(210.10586 50.911761 -4.0550246e-16)
(207.32324 50.892503 1.3342513e-17)
(204.32795 50.724185 2.4958315e-16)
(201.16865 50.388735 -1.8940285e-16)
(197.84746 49.819492 1.6196568e-16)
(194.4883 49.013893 0)
(191.15185 47.922824 9.1631351e-17)
(187.93734 46.495768 -6.855733e-17)
(184.94541 44.691048 1.944466e-17)
(181.99482 42.849179 0)
(49.96143 5.1476722 -1.3708491e-15)
(130.56562 17.59606 3.445621e-16)
(174.73732 21.589286 4.313204e-16)
(195.23171 25.195419 -3.1591258e-16)
(203.56697 28.393736 7.5969814e-19)
(206.14687 30.810554 1.0406062e-16)
(206.05321 32.613046 8.3220753e-17)
(204.72678 34.027306 -3.7931233e-18)
(202.82273 35.166804 -3.5623753e-18)
(200.62149 36.082322 -1.2515635e-16)
(198.21257 36.759981 1.3400797e-16)
(195.69035 37.191186 -5.3661256e-18)
(193.1065 37.334693 -1.448849e-17)
(190.52663 37.147309 -3.2402836e-17)
(188.04197 36.528457 -2.198769e-20)
(185.54725 35.820574 1.4549779e-17)
(-22.425444 0.29842442 -6.5350827e-16)
(63.382705 3.0083232 -3.6837483e-16)
(116.90701 5.0561734 5.8154402e-16)
(150.40045 8.0702991 -2.526667e-16)
(171.3703 11.763456 9.715299e-17)
(183.85971 15.423336 9.7337188e-21)
(190.82628 18.700374 1.1858376e-16)
(194.25527 21.507088 -5.3833859e-17)
(195.50375 23.831746 -6.5189362e-18)
(195.4612 25.702149 2.9942574e-17)
(194.65657 27.157901 -4.8821066e-17)
(193.41528 28.250642 4.1587915e-17)
(191.91967 29.011493 -1.1495185e-17)
(190.28104 29.459134 -5.3957423e-17)
(188.5926 29.518692 2.1957897e-17)
(186.83211 29.390581 2.9686506e-17)
(-36.068767 6.2038309 -1.3497382e-17)
(-56.479615 11.161475 1.961264e-15)
(6.0838602 5.6303519 -1.0475129e-15)
(69.255633 1.6838811 5.9698226e-16)
(109.69872 2.1001054 -3.7660554e-16)
(137.61021 4.5300758 0)
(157.28741 7.6368689 1.9827283e-16)
(170.73108 10.932855 -1.5699022e-16)
(179.52305 14.106394 -3.5459477e-18)
(184.87575 16.936462 0)
(187.76762 19.274926 -1.6450908e-17)
(188.97977 21.076254 8.877716e-18)
(189.10775 22.375066 -6.3954347e-17)
(188.58421 23.254461 1.2868135e-16)
(187.71342 23.746918 -9.7321063e-17)
(186.67149 24.081397 -2.865066e-17)
(-24.534455 7.5053892 8.6626081e-18)
(-50.222159 16.849675 -7.0255085e-18)
(-58.201521 19.814149 0)
(-45.041617 17.458861 2.7859051e-17)
(8.1886224 8.8936111 1.0130713e-17)
(61.93268 2.0955424 4.0020547e-16)
(99.283653 0.63968509 -2.6306095e-16)
(126.74462 1.9876538 0)
(147.3186 4.4103829 -5.8160837e-20)
(162.21371 7.2310348 -1.3214852e-17)
(172.47901 10.047227 1.0495485e-17)
(179.03965 12.618697 8.6270113e-18)
(182.80539 14.800155 1.3769394e-17)
(184.61318 16.53855 9.5896727e-17)
(185.1619 17.840504 -1.227194e-16)
(185.0568 18.969344 7.1214597e-17)
(-19.148362 9.5755657 0)
(-43.703626 22.667457 3.7819131e-15)
(-52.526462 26.676658 -6.2880352e-15)
(-53.032497 26.957946 2.7202226e-15)
(-50.250638 27.191429 -1.7582292e-17)
(-38.768422 25.326084 -4.8997671e-17)
(3.9305814 15.887497 9.254787e-16)
(53.228236 6.4647215 -5.8451102e-16)
(90.087635 1.92326 -3.2741003e-16)
(118.38313 0.43073603 2.6405526e-16)
(139.86321 0.68559209 0)
(155.39299 2.2768264 -1.6332365e-16)
(166.19589 4.6143685 9.0407155e-17)
(173.18477 7.2222028 0)
(177.19972 9.8496491 0)
(179.33018 12.753698 0)
(-22.402126 15.730861 8.8270451e-15)
(-44.181742 31.125934 -3.7861664e-15)
(-49.664034 34.411139 0)
(-49.019574 33.706497 -1.9424265e-17)
(-47.121863 32.348464 -2.1591882e-15)
(-44.888548 31.277709 2.0041433e-15)
(-41.877633 30.516888 1.8023816e-15)
(-31.645174 26.2026 5.7562521e-17)
(17.131692 13.015558 -8.451951e-16)
(59.778406 1.9927519 2.8509736e-17)
(90.442601 -4.2329478 0)
(114.77947 -6.1506819 -3.8554707e-16)
(134.37629 -5.8610781 5.7383544e-17)
(148.64325 -4.2354557 2.1747768e-16)
(158.03738 -1.4005231 0)
(164.86126 4.2247099 2.502382e-17)
(-24.829182 21.403042 -2.1194414e-18)
(-41.899644 35.438814 6.3769217e-15)
(-44.718013 36.068986 -2.2996069e-15)
(-43.972434 33.424739 -1.7574206e-15)
(-42.903565 30.25257 1.3873891e-15)
(-41.769145 26.701424 -1.1708132e-15)
(-40.084984 22.465273 9.5192665e-16)
(-37.63218 17.822542 7.9330802e-16)
(-32.451452 13.292465 -8.9545685e-16)
(-18.508718 7.3962033 0)
(32.841104 -3.8175534 0)
(64.960254 -6.4005412 0)
(93.917784 -8.6748625 5.4887661e-17)
(112.84666 -10.807023 0)
(126.28186 -10.179338 1.7557501e-16)
(138.58682 -4.1813776 -2.9068488e-16)
(92.299426 -112.70374 1.0410751e-15)
(129.78419 -150.27797 7.3897993e-19)
(135.91542 -151.39717 -4.9897936e-16)
(136.28169 -149.25911 4.0675729e-16)
(136.03065 -145.77836 2.7440543e-19)
(135.76782 -141.68545 8.4260617e-18)
(135.55342 -137.01308 0)
(135.41884 -131.71991 6.6558121e-17)
(135.38755 -125.77571 -7.0844747e-17)
(135.48639 -119.1798 2.6765883e-17)
(135.74082 -111.97015 9.6944225e-18)
(136.16774 -104.22239 -8.1655463e-18)
(136.79065 -96.038709 -2.2390292e-17)
(137.6725 -87.533548 1.3782025e-17)
(138.74563 -78.890874 2.4472641e-17)
(139.52735 -70.789559 0)
(63.646286 -100.3886 0)
(91.900004 -137.29205 2.689051e-18)
(97.154952 -138.4637 -3.3023111e-16)
(98.223059 -135.85568 2.641427e-16)
(99.277015 -132.54124 3.641961e-18)
(100.56176 -128.76216 -2.3556998e-16)
(102.08629 -124.50195 -1.897501e-17)
(103.8701 -119.72784 3.6304457e-16)
(105.92611 -114.41978 -7.3436835e-18)
(108.25961 -108.57322 -1.4001653e-16)
(110.86388 -102.2047 0)
(113.71781 -95.356294 1.9889931e-17)
(116.79204 -88.093216 1.420741e-17)
(120.07561 -80.49126 1.5091137e-16)
(123.50062 -72.636468 -2.0437249e-16)
(126.8084 -64.785498 -3.5928443e-17)
(42.807085 -89.79653 -1.0496182e-17)
(61.301582 -121.71629 3.1377904e-15)
(65.507973 -122.7211 -1.2210296e-15)
(67.223882 -120.26356 9.9449362e-18)
(69.072188 -117.23174 8.1002621e-16)
(71.259609 -113.79496 -6.4395129e-16)
(73.804745 -109.9302 1.0675975e-17)
(76.732924 -105.60741 -1.7532075e-17)
(80.062582 -100.80864 2.7587269e-18)
(83.800551 -95.531964 2.3725547e-17)
(87.936398 -89.796288 -2.5939845e-16)
(92.441067 -83.644025 1.9517522e-16)
(97.280268 -77.137168 3.7283346e-16)
(102.43305 -70.355804 -3.3154721e-16)
(107.81549 -63.411624 4.6245575e-17)
(113.03455 -56.581286 1.6292137e-16)
(24.329085 -71.757403 8.6442392e-18)
(35.165142 -97.465478 6.3433952e-18)
(38.56762 -98.321497 1.1030201e-15)
(40.822754 -96.228028 -8.8190646e-16)
(43.356019 -93.702257 1.2035843e-17)
(46.328945 -90.8733 -5.6529544e-16)
(49.7711 -87.718048 4.1788295e-16)
(53.711748 -84.213801 7.2574265e-16)
(58.170549 -80.348356 -1.0217949e-17)
(63.150071 -76.12249 -9.7895608e-16)
(68.628396 -71.552884 3.9132677e-16)
(74.560195 -66.67252 0)
(80.892468 -61.527313 -2.7407207e-17)
(87.582708 -56.172552 2.3853913e-16)
(94.461407 -50.74187 -1.2007528e-16)
(101.02976 -45.387322 2.9354411e-16)
(10.70846 -48.898319 -1.000031e-17)
(16.204808 -67.36232 2.1178151e-15)
(19.045664 -67.896058 -1.5937313e-15)
(21.703746 -66.215081 8.6454847e-18)
(24.766761 -64.286765 -2.1351693e-17)
(28.341684 -62.200575 6.1607104e-18)
(32.465824 -59.930819 6.2919628e-16)
(37.171609 -57.458919 8.2244304e-18)
(42.480852 -54.775942 -3.7010714e-16)
(48.396513 -51.882294 3.095418e-16)
(54.896025 -48.788008 -2.5498269e-16)
(61.935333 -45.51179 0)
(69.477508 -42.073624 -1.766635e-16)
(77.482575 -38.502515 1.2971956e-16)
(85.710224 -34.827618 -4.5592482e-17)
(93.304821 -31.284657 0)
(125.14974 -68.016224 0)
(209.1591 -109.11715 3.4514448e-15)
(225.86111 -110.83376 -5.4307515e-15)
(224.8898 -109.6455 2.2283781e-15)
(222.64794 -107.31985 1.4795786e-17)
(220.0631 -104.71438 4.2260167e-18)
(217.24239 -101.74587 1.0299415e-15)
(214.17874 -98.419316 -8.7416348e-16)
(210.88614 -94.715331 -6.1698574e-16)
(207.387 -90.622194 4.6490352e-16)
(203.7196 -86.144379 0)
(199.94616 -81.3056 -2.3223244e-16)
(196.15973 -76.159633 1.8242942e-16)
(192.50623 -70.774259 0)
(189.16857 -65.252248 0)
(186.24321 -59.774386 0)
(2.8117213 -25.171188 1.8858968e-15)
(5.5918376 -36.438619 -7.2009959e-16)
(8.3647226 -36.43408 -1.0248789e-15)
(11.485423 -35.065248 7.6310256e-16)
(15.056128 -33.702545 7.4420765e-18)
(19.122192 -32.365816 -2.3560304e-16)
(23.71809 -31.007795 -1.9025072e-16)
(28.871319 -29.597955 1.8513337e-18)
(34.59745 -28.116029 2.0590594e-18)
(40.894395 -26.547715 2.7651433e-16)
(47.7368 -24.882883 -2.9713785e-16)
(55.071662 -23.114695 4.4272589e-18)
(62.827958 -21.235999 2.7329429e-17)
(70.909917 -19.232152 7.6935826e-17)
(79.205675 -17.088873 5.7729486e-20)
(87.434766 -14.792911 -4.3899255e-17)
(1.4519989 7.9146721 1.0299801e-15)
(3.7040565 12.3714 8.1393599e-16)
(6.361893 11.294862 -1.7281123e-15)
(9.4132335 9.6992188 8.493848e-16)
(12.956879 8.3857394 -3.33051e-16)
(17.038049 7.2757166 -3.0225436e-20)
(21.689768 6.2868241 -4.0241148e-16)
(26.939107 5.3738222 1.6801688e-16)
(32.800164 4.5096417 1.744303e-17)
(39.266794 3.6764488 -9.5632839e-17)
(46.306789 2.8619009 1.4105336e-16)
(53.859029 2.0575021 -1.2383358e-16)
(61.838277 1.2544108 2.9423622e-17)
(70.123301 0.44412306 1.5800388e-16)
(78.525185 -0.40358658 -6.3894594e-17)
(86.726071 -1.1715382 -9.4083324e-17)
(7.2884053 30.604609 1.968125e-17)
(11.496697 43.038781 -2.6727545e-15)
(14.083023 43.251007 1.9720216e-15)
(16.776478 41.890147 -1.4863327e-15)
(19.932421 40.371033 1.1701761e-15)
(23.624819 38.744313 0)
(27.889202 36.982036 -7.2305553e-16)
(32.756235 35.067059 5.640162e-16)
(38.244084 32.992441 1.2624069e-17)
(44.349621 30.760139 0)
(51.042844 28.380465 5.2961006e-17)
(58.274582 25.869339 -2.763217e-17)
(65.990097 23.242036 1.998226e-16)
(74.108697 20.494475 -3.9432429e-16)
(82.30718 17.685174 2.8668255e-16)
(89.783371 14.894111 8.6196703e-17)
(18.564785 53.041944 -1.0901397e-17)
(27.189499 73.085216 8.1488241e-18)
(30.22348 73.824509 0)
(32.56935 72.112777 -2.5454702e-17)
(35.224216 70.026964 -1.2541685e-17)
(38.32108 67.674317 -7.3544394e-16)
(41.89203 65.034422 6.1000615e-16)
(45.964515 62.088991 0)
(50.555447 58.829629 -3.5872787e-18)
(55.663221 55.260666 3.4101234e-17)
(61.261274 51.402033 -3.1940068e-17)
(67.304227 47.28842 -1.9060989e-17)
(73.759693 42.959898 -4.0879406e-17)
(80.599835 38.454744 -2.7322574e-16)
(87.645209 33.831493 3.3874162e-16)
(94.160746 29.382605 -1.9692307e-16)
(34.648111 71.43346 0)
(49.96854 98.049795 -2.6049473e-15)
(53.719117 99.053839 3.9986699e-15)
(55.576702 96.967991 -1.5648389e-15)
(57.570315 94.361913 1.132405e-17)
(59.899982 91.382185 3.1349576e-17)
(62.589466 88.010087 -8.4898302e-16)
(65.663939 84.222206 6.8039195e-16)
(69.142655 80.006784 5.0749045e-16)
(73.033941 75.369046 -4.6625712e-16)
(77.329734 70.336825 0)
(82.01145 64.961019 3.4345632e-16)
(87.088984 59.300003 -1.9682446e-16)
(92.61574 53.419505 0)
(98.48532 47.49187 0)
(103.86506 42.050062 0)
(53.075919 82.723481 -3.8205027e-15)
(77.206063 114.72842 1.3845531e-15)
(81.969057 115.98104 0)
(83.242109 113.70049 4.6207888e-18)
(84.479275 110.77776 7.3998342e-16)
(85.949591 107.42007 -6.2427404e-16)
(87.668815 103.61864 -5.0646731e-16)
(89.660368 99.350352 -1.9300068e-17)
(91.944743 94.604427 3.8514495e-16)
(94.538467 89.387122 -2.3115687e-17)
(97.451492 83.72753 0)
(100.69124 77.678673 4.2610389e-16)
(104.2813 71.307946 -5.4910725e-17)
(108.25642 64.692732 -2.9329111e-16)
(112.53317 58.024771 0)
(116.81286 51.598394 -4.0245281e-17)
(79.103931 95.686111 2.5893224e-17)
(111.82158 129.13342 -6.7362164e-16)
(117.28374 130.17133 2.8343815e-16)
(117.83983 128.19614 2.9240693e-16)
(117.83994 125.09461 -2.3502824e-16)
(117.84858 121.41956 2.5894104e-16)
(117.93157 117.21806 -2.2002515e-16)
(118.12436 112.45548 -2.0223016e-16)
(118.45984 107.1102 1.7867752e-16)
(118.98154 101.19609 0)
(119.73223 94.761396 0)
(120.75152 87.890339 0)
(122.096 80.684699 -1.8261687e-17)
(123.83179 73.238871 0)
(125.84454 65.748479 -1.7920145e-16)
(127.32912 58.90905 3.4796219e-16)
(19.816793 19.90126 8.9331295e-15)
(-8.1186242 -7.3782369 2.3684115e-17)
(-34.30492 -32.554027 -3.9569793e-15)
(-47.179336 -45.313893 2.8531257e-15)
(-51.160529 -50.878626 3.4008369e-17)
(-49.584275 -52.092239 3.1048111e-17)
(-43.43852 -51.237986 0)
(-32.909167 -50.168428 1.1791125e-15)
(-5.5997646 -43.260864 -1.6138047e-15)
(36.130411 -33.41925 5.3706452e-16)
(82.457315 -21.888679 -4.1501179e-16)
(121.20822 -10.584381 3.1039275e-16)
(151.61583 -0.69012902 -6.1743499e-18)
(174.52992 6.9191403 -4.9064549e-17)
(190.49099 12.694289 -1.7004065e-16)
(200.54862 16.150491 0)
(-12.993261 -6.1691238 0)
(-27.776259 -14.868332 -4.4524632e-17)
(-45.162007 -26.938975 4.1092571e-15)
(-56.317218 -34.151716 -3.3469162e-15)
(-59.308614 -37.246317 -7.9761537e-17)
(-56.179516 -38.704174 2.6250103e-15)
(-13.885651 -23.742011 -1.9097905e-17)
(37.809841 -7.2351521 -1.719598e-15)
(82.067949 2.2422929 7.7398771e-17)
(117.4765 5.3173776 3.7334656e-16)
(146.7091 5.8729177 0)
(169.91841 5.8755564 -2.8481944e-17)
(187.02444 6.0839906 -5.1754264e-17)
(198.61926 6.7269919 -2.7547618e-16)
(205.52511 7.8608995 4.1300292e-16)
(208.86867 8.9441922 5.5090166e-17)
(-33.31852 -14.842061 -3.5169215e-19)
(-54.731386 -24.485899 -1.0342141e-14)
(-64.484053 -29.860571 5.0368973e-15)
(-68.524481 -32.937028 -3.4950313e-17)
(-8.8158678 -14.754196 -2.2015831e-15)
(51.768127 1.2357991 1.2766436e-15)
(95.011329 8.4374193 -1.283722e-17)
(127.92126 10.592575 1.7686434e-17)
(153.24898 10.100766 -1.1507103e-17)
(172.39475 8.2175717 -2.0979399e-17)
(186.56551 5.7931411 2.6325298e-16)
(196.74033 3.4987529 -1.9508784e-16)
(203.60718 1.8379558 -3.951719e-16)
(207.74943 1.0686648 3.614146e-16)
(209.70682 1.2015585 -6.8915579e-17)
(209.93431 2.034784 -2.2052486e-16)
(-50.621498 -16.466523 -1.5095088e-17)
(-71.55353 -23.100839 -1.3817309e-17)
(-10.841376 -9.5025545 -1.8689981e-15)
(59.229784 3.8478316 1.0667734e-15)
(106.99702 9.8504904 -1.0341649e-17)
(141.47897 11.660621 4.3233656e-16)
(166.57012 11.146695 -3.0367153e-16)
(184.22415 9.2261759 -5.1002435e-16)
(196.12035 6.5196955 1.1046601e-17)
(203.752 3.5600809 7.0966745e-16)
(208.34035 0.76915135 -2.9291309e-16)
(210.84399 -1.5561108 0)
(211.9374 -3.2367987 2.5313291e-17)
(212.0387 -4.1904272 -2.105005e-16)
(211.37619 -4.4563079 1.1020934e-16)
(210.02671 -4.1298295 -2.8277076e-16)
(-47.59921 -8.8105905 1.5095088e-17)
(37.878278 0.46623581 -2.3701886e-15)
(107.90986 7.2049615 1.2515084e-15)
(152.82297 9.5103949 -5.7698092e-18)
(181.99595 8.9260357 1.3408313e-17)
(200.11405 6.7861773 -3.8346318e-18)
(210.66259 3.953077 -3.7751464e-16)
(216.27882 0.96228098 2.2959285e-19)
(218.80142 -1.8838683 2.4012546e-16)
(219.4557 -4.4378585 -2.054511e-16)
(219.01379 -6.6366264 1.7855698e-16)
(217.9232 -8.4494539 0)
(216.41562 -9.8445568 1.3119443e-16)
(214.59875 -10.767162 -1.0044982e-16)
(212.49943 -11.222428 3.8832529e-17)
(210.02932 -11.060094 0)
(37.897552 0.90267588 -2.1934754e-15)
(132.30424 -1.8028414 5.2256764e-16)
(186.63731 -0.47735604 6.3738038e-16)
(214.20233 -1.908114 -4.6211192e-16)
(227.06711 -4.6115103 -1.4250248e-19)
(232.11947 -7.3100717 1.5170608e-16)
(233.24051 -9.711411 1.2389309e-16)
(232.43541 -11.854321 -4.0935756e-18)
(230.6768 -13.782397 -3.8948105e-18)
(228.4061 -15.520643 -1.977866e-16)
(225.80637 -17.062751 2.1681817e-16)
(222.95195 -18.365281 -6.0651208e-18)
(219.88813 -19.359324 -2.2532467e-17)
(216.67136 -19.955684 -5.7842632e-17)
(213.33411 -20.130861 -4.1557125e-20)
(209.78444 -19.58482 3.1478297e-17)
(88.054201 -8.5551819 -1.0028039e-15)
(189.6259 -22.302927 -5.2728457e-16)
(231.35588 -23.010776 1.1091084e-15)
(244.57955 -25.166064 -5.6578078e-16)
(247.17106 -27.017402 2.3837876e-16)
(246.01788 -28.325856 2.1592159e-20)
(243.53237 -29.347448 3.0638587e-16)
(240.49102 -30.248315 -1.4119702e-16)
(237.10692 -31.047417 -1.8365818e-17)
(233.43616 -31.722809 7.2474969e-17)
(229.50525 -32.224318 -1.1765751e-16)
(225.35334 -32.483712 9.7134304e-17)
(221.0492 -32.433597 -2.6819601e-17)
(216.6992 -32.00304 -1.2275631e-16)
(212.37826 -31.190188 4.9658383e-17)
(208.03375 -29.793555 6.6388801e-17)
(115.87239 -26.970748 -2.1056345e-17)
(216.16321 -51.790798 2.1315918e-15)
(247.45307 -53.267559 -1.5961009e-15)
(252.23629 -54.546746 1.2361508e-15)
(250.76619 -54.699866 -1.0664047e-15)
(247.83703 -54.450479 0)
(244.41262 -54.022316 6.8790593e-16)
(240.65958 -53.483836 -5.7047076e-16)
(236.58885 -52.794794 -1.2604556e-17)
(232.21789 -51.918602 0)
(227.58429 -50.812594 -5.1168821e-17)
(222.75518 -49.432975 2.5825667e-17)
(217.83387 -47.748654 -1.786177e-16)
(212.96334 -45.730994 3.502816e-16)
(208.2476 -43.398349 -2.5163948e-16)
(203.61236 -40.62799 -6.9296624e-17)
(126.54983 -47.967248 1.3188471e-17)
(220.15823 -82.245671 -8.1256326e-18)
(243.25574 -83.995762 0)
(243.87766 -84.039625 -7.9361765e-18)
(241.44643 -82.786482 -1.5233176e-17)
(238.39848 -81.263813 8.238687e-16)
(235.02277 -79.487501 -7.1719404e-16)
(231.35115 -77.483933 0)
(227.37335 -75.204919 5.2561461e-17)
(223.11444 -72.626401 3.7609844e-17)
(218.62092 -69.732505 3.3647574e-17)
(213.97001 -66.517649 -6.8861347e-17)
(209.276 -62.99883 3.8434136e-17)
(204.69029 -59.21233 2.276169e-16)
(200.33306 -55.286607 -2.683323e-16)
(196.17773 -51.340091 1.4981558e-16)
(117.66398 -86.206806 8.7957086e-15)
(188.90729 -130.23363 -2.8847945e-15)
(200.73321 -131.75946 0)
(199.91921 -129.62028 -1.2087162e-17)
(198.38566 -126.47991 -1.2960328e-15)
(196.61892 -122.98867 1.1197166e-15)
(194.70616 -119.05191 7.7468077e-16)
(192.64142 -114.67002 -3.0536912e-17)
(190.42929 -109.83751 -5.476641e-16)
(188.07784 -104.55605 2.6634779e-17)
(185.60339 -98.848221 0)
(183.03881 -92.758429 -3.8758854e-16)
(180.4493 -86.35816 9.1147959e-17)
(177.99439 -79.709264 2.3439969e-16)
(175.96317 -72.869468 0)
(174.21094 -66.165597 1.8308117e-17)
(110.27534 -105.18947 2.6157524e-17)
(165.60521 -147.73497 4.8983116e-15)
(174.64079 -149.37411 -1.8897371e-15)
(174.29261 -146.57147 -1.3925667e-15)
(173.63161 -142.75143 1.1220973e-15)
(172.80939 -138.514 -8.5173437e-16)
(171.88121 -133.76759 7.0101268e-16)
(170.82958 -128.50353 4.697897e-16)
(169.64548 -122.72243 -4.2206886e-16)
(168.33121 -116.42363 0)
(166.90192 -109.6319 0)
(165.39261 -102.39798 0)
(163.87529 -94.8011 1.3738278e-17)
(162.54558 -86.914083 0)
(161.72162 -78.857677 7.9827436e-17)
(161.43098 -71.233163 -1.2977384e-16)
(-15.733356 17.721533 3.8645723e-15)
(-26.303038 28.124348 1.3078449e-17)
(-28.802072 28.556391 -2.5962026e-15)
(-29.177855 26.491766 1.950075e-15)
(-29.163965 23.998569 2.2546234e-17)
(-29.431384 21.780436 2.0618707e-17)
(-29.690687 19.453073 0)
(-29.607617 16.813869 8.4031514e-16)
(-28.73509 13.766829 -1.4143185e-15)
(-27.322001 10.239623 6.0949053e-16)
(-25.071817 4.7742977 -5.5776721e-16)
(-21.858215 -2.8258948 4.8046895e-16)
(-2.3753028 -10.251502 -1.943125e-17)
(46.109754 -22.528254 -8.4494187e-17)
(65.21141 -24.054334 -1.6071573e-16)
(84.673387 -17.393571 0)
(0.15602001 -1.6243011 0)
(0.014363185 -4.3209032 -2.5155516e-17)
(-3.0628269 -3.8768509 2.31281e-15)
(-7.5663968 -1.8233681 -1.7509963e-15)
(-12.4048 0.084482614 -3.3282129e-17)
(-16.793928 0.71149252 1.0844593e-15)
(-20.887666 0.29466292 5.1359669e-18)
(-24.827148 -0.88656649 -1.4222732e-15)
(-28.647398 -2.5985351 7.152005e-17)
(-32.337561 -4.9928047 4.8678892e-16)
(-35.657344 -8.5381493 0)
(-37.315954 -13.688983 -4.1298241e-17)
(-34.175423 -20.721276 -7.6534998e-17)
(-24.009654 -27.28235 -3.9134775e-16)
(-4.8837788 -32.009029 6.4812437e-16)
(27.597763 -30.502881 7.4532675e-17)
(6.68897 -15.105522 6.1574423e-19)
(9.956978 -24.357901 -5.5833758e-15)
(8.4709419 -25.486219 2.2171915e-15)
(5.7204927 -24.917704 -1.5203329e-17)
(2.6080476 -24.748291 -1.4576517e-15)
(-0.96958542 -24.908514 1.1617896e-15)
(-5.1491494 -25.064392 -1.6096578e-17)
(-9.9338136 -25.208358 2.6281485e-17)
(-15.200169 -25.466012 -1.8534616e-17)
(-20.889734 -25.796243 -3.6183808e-17)
(-26.794561 -26.153743 4.4390732e-16)
(-32.29351 -26.842857 -3.2637324e-16)
(-36.644336 -27.731307 -6.4732592e-16)
(-38.343907 -28.226856 6.0962852e-16)
(-36.19287 -27.230367 -9.9154408e-17)
(-28.751902 -23.812483 -2.6352847e-16)
(10.156105 -31.811285 -7.4183708e-18)
(14.694876 -48.675996 -6.0547483e-18)
(13.417638 -50.93717 -1.0730967e-15)
(10.908808 -50.348273 8.8513719e-16)
(8.0289237 -49.534496 -1.2360632e-17)
(4.7601558 -48.650148 5.8941333e-16)
(1.0460826 -47.647191 -4.4021921e-16)
(-3.1359498 -46.484473 -7.9448881e-16)
(-7.7722047 -45.067696 4.0123222e-19)
(-12.793096 -43.307138 1.1506798e-15)
(-18.052284 -41.16745 -4.8023733e-16)
(-23.193262 -38.642613 0)
(-27.893487 -35.375294 4.2650976e-17)
(-31.282794 -30.489986 -3.9635967e-16)
(-32.999118 -23.421233 1.9697213e-16)
(-31.736053 -12.898065 -4.7027842e-16)
(9.618765 -50.107218 6.6006581e-18)
(13.383134 -74.496315 -1.4523688e-15)
(11.808715 -77.303693 1.1386103e-15)
(9.4256254 -76.151715 -6.4056915e-18)
(6.7382345 -74.461762 1.7044373e-17)
(3.6716694 -72.4922 -5.4209592e-18)
(0.19994119 -70.139978 -5.2669769e-16)
(-3.6767024 -67.308255 -1.2224835e-17)
(-7.9341849 -63.892879 3.3657033e-16)
(-12.518885 -59.767512 -3.0709565e-16)
(-17.30368 -54.751031 2.6706073e-16)
(-22.037975 -48.627488 0)
(-26.444231 -41.027823 2.4462486e-16)
(-29.97492 -31.47589 -2.0163812e-16)
(-32.141187 -19.276686 7.3639238e-17)
(-31.673367 -4.1999957 0)
(4.6200552 -67.180096 -1.0966193e-15)
(5.6917654 -98.90467 4.134822e-16)
(3.6080892 -102.09408 6.4276216e-16)
(1.5238433 -100.23819 -5.1786111e-16)
(-0.74838989 -97.597142 -4.8060768e-18)
(-3.3427775 -94.498263 1.7824883e-16)
(-6.2631882 -90.823147 1.5128841e-16)
(-9.5011786 -86.427462 -2.7597572e-19)
(-13.016633 -81.145649 -1.3590156e-19)
(-16.735514 -74.79635 -2.6490875e-16)
(-20.529985 -67.171874 3.102633e-16)
(-24.206832 -58.05654 3.3792498e-19)
(-27.451093 -46.96937 -2.8971504e-17)
(-29.723535 -33.342207 -1.245618e-16)
(-29.99187 -16.538037 -1.1931078e-19)
(-27.360672 2.6854791 7.9059972e-17)
(-4.1350172 -79.776783 -6.4057678e-16)
(-7.5803828 -118.86512 -4.7356288e-16)
(-10.296539 -122.67275 1.1284009e-15)
(-11.79549 -120.29316 -6.0857012e-16)
(-13.313055 -116.88633 2.5809064e-16)
(-15.045657 -112.85603 2.2370149e-20)
(-16.970691 -108.07375 3.5081737e-16)
(-19.063609 -102.36491 -1.5405035e-16)
(-21.271845 -95.529963 -1.7215753e-17)
(-23.508116 -87.336013 1.0534174e-16)
(-25.588766 -77.488522 -1.6102458e-16)
(-27.352563 -65.688387 1.7062063e-16)
(-28.521582 -51.237521 -4.4356826e-17)
(-28.32691 -33.161602 -3.2695947e-16)
(-24.549431 -10.979821 1.4553654e-16)
(-15.597796 13.121635 2.2005243e-16)
(-14.385002 -83.444137 -1.8358449e-17)
(-24.167142 -130.55162 2.265324e-15)
(-27.754961 -135.77092 -1.8088015e-15)
(-28.366882 -133.27159 1.455161e-15)
(-28.743826 -129.45647 -1.2282286e-15)
(-29.165482 -124.90015 0)
(-29.57678 -119.47125 8.5275062e-16)
(-29.927818 -112.95574 -7.0210058e-16)
(-30.129849 -105.08969 -2.3120835e-17)
(-30.050984 -95.536189 0)
(-29.457591 -83.829196 -9.076176e-17)
(-28.343029 -69.491479 5.9528274e-17)
(-26.634789 -51.425732 -5.0796073e-16)
(-22.210783 -28.623596 1.3465632e-15)
(-7.7185311 -0.54637683 -1.0258788e-15)
(11.000684 26.833917 -2.7468482e-16)
(-22.916746 -76.334267 1.288575e-17)
(-39.973664 -128.95064 -9.3642727e-18)
(-45.530331 -138.32914 0)
(-45.3145 -136.8571 4.2978479e-17)
(-44.249402 -133.21749 2.4829097e-17)
(-43.018832 -128.75703 1.3391576e-15)
(-41.51682 -123.39717 -1.1753064e-15)
(-39.651693 -116.90256 0)
(-37.285874 -108.96198 -4.2369532e-18)
(-34.208617 -99.12698 -9.2744603e-17)
(-30.386609 -86.771255 7.7965968e-17)
(-25.991211 -70.649031 8.7529922e-17)
(-21.457381 -52.611795 1.6850534e-16)
(0.85904567 -24.133356 1.6834469e-15)
(27.224283 12.598322 -1.3145925e-15)
(49.714734 37.56936 5.4067301e-16)
(-25.747435 -58.679267 0)
(-49.591295 -112.08181 5.1258451e-15)
(-58.297568 -126.88912 -7.9591597e-15)
(-58.53674 -128.70476 3.3226349e-15)
(-56.407152 -126.50708 -2.1705328e-17)
(-53.573374 -122.85652 -7.4539034e-17)
(-50.114395 -118.23356 2.1286558e-15)
(-45.888814 -112.54954 -1.832747e-15)
(-40.657975 -105.52505 -1.4501551e-15)
(-34.105599 -96.720027 1.4214426e-15)
(-25.753042 -85.461851 0)
(-16.956339 -71.027936 -1.3472585e-15)
(4.3319578 -49.448852 8.4915905e-16)
(37.894159 -16.140827 0)
(66.063339 16.332736 0)
(92.506206 38.690795 0)
(-19.725186 -32.969037 1.6429778e-14)
(-48.348433 -82.342425 -5.0995545e-15)
(-61.478073 -102.417 0)
(-64.426303 -109.25863 -2.1342847e-17)
(-62.822391 -110.12816 -2.3366013e-15)
(-59.244176 -108.16436 2.0799308e-15)
(-54.364454 -104.62878 1.6465585e-15)
(-48.203076 -99.875569 3.2387565e-17)
(-40.526419 -93.823289 -1.3405376e-15)
(-30.926867 -86.140826 7.0371626e-17)
(-18.381801 -76.157546 0)
(0.95392052 -60.513576 -1.7780521e-15)
(41.13694 -31.280092 1.4760276e-16)
(81.128557 -2.2720406 8.4873896e-16)
(113.94497 21.207202 0)
(139.78588 36.293298 9.9533573e-17)
(2.754912 3.4402309 1.7254735e-18)
(-27.100934 -37.028377 1.073303e-14)
(-47.625819 -62.424725 -3.6908787e-15)
(-56.016677 -74.015108 -2.7919867e-15)
(-57.363759 -78.300195 2.2672528e-15)
(-54.670685 -78.447039 -1.9204637e-15)
(-49.433874 -76.256758 1.6158878e-15)
(-42.244883 -72.580254 1.3059132e-15)
(-33.204136 -67.671609 -1.2390143e-15)
(-24.023422 -61.726738 0)
(-2.5911504 -48.898457 0)
(43.502669 -27.873825 0)
(88.618181 -9.0183015 9.5571862e-17)
(126.90801 7.1692966 0)
(155.91518 20.047984 4.476686e-16)
(177.35632 27.874533 -8.1902166e-16)
(112.25344 129.10506 0)
(118.11704 130.61177 0)
(119.08884 128.85585 0)
(119.61763 125.86798 3.9630894e-19)
(120.13926 122.38084 -2.9559562e-18)
(120.77042 118.34905 1.0898347e-18)
(121.53986 113.77663 0)
(122.46591 108.61338 -3.6135593e-18)
(123.56357 102.86426 0)
(124.84439 96.568618 0)
(126.3118 89.807496 0)
(127.9784 82.690879 9.367326e-18)
(129.90151 75.317347 0)
(132.03457 67.868232 -3.2863921e-17)
(134.01469 61.222554 0)
(129.77439 -149.62846 0)
(136.41847 -151.29553 0)
(137.34131 -149.3787 0)
(137.74596 -146.00636 2.0314447e-18)
(138.1036 -142.10787 -1.4361049e-17)
(138.54161 -137.62817 2.1173805e-17)
(139.08831 -132.52705 0)
(139.7446 -126.77879 3.9236178e-18)
(140.50717 -120.35655 0)
(141.36537 -113.28602 0)
(142.29927 -105.63399 0)
(143.29722 -97.505685 -1.0296253e-17)
(144.41581 -89.01337 0)
(145.75925 -80.440122 8.4948549e-21)
(147.16288 -72.726825 0)
(-25.720426 -34.746673 0)
(-46.172139 -59.39919 0)
(-55.099204 -71.308587 0)
(-56.530889 -75.419602 8.7981114e-18)
(-53.7355 -75.22823 -6.6754136e-17)
(-48.136797 -72.650012 1.049827e-16)
(-40.194837 -68.656928 0)
(-29.080648 -64.303073 4.7210483e-18)
(-17.073602 -59.482648 0)
(51.469965 -33.465346 0)
(101.38339 -15.462369 0)
(137.79851 -3.0718164 -3.4151213e-18)
(164.96844 6.8293061 0)
(183.90441 14.460956 1.4879125e-16)
(196.50322 19.27651 0)
(-26.480805 28.064394 0)
(-28.980648 28.581595 0)
(-29.346524 26.684222 0)
(-29.526202 24.382354 1.2184623e-17)
(-30.093597 22.311391 -8.4889855e-17)
(-30.725857 20.069437 1.1844242e-16)
(-31.122999 17.3274 0)
(-30.89435 13.935347 2.5485007e-18)
(-29.150621 10.372824 0)
(-25.146919 8.1754272 0)
(-20.270556 3.2289901 0)
(77.101378 -9.3632367 -2.3927749e-18)
(94.6444 -13.976239 0)
(109.18613 -13.628502 8.5692139e-17)
(123.41442 -7.4090987 0)
(79.560707 95.951822 7.0216781e-20)
(92.168334 -112.2492 -7.4736905e-20)