/*--------------------------------*- C++ -*----------------------------------*\
| =========                 |                                                 |
| \\      /  F ield         | foam-extend: Open Source CFD                    |
|  \\    /   O peration     | Version:     4.1                                |
|   \\  /    A nd           | Web:         http://www.foam-extend.org         |
|    \\/     M anipulation  |                                                 |
\*---------------------------------------------------------------------------*/
FoamFile
{
    version     2.0;
    format      ascii;
    class       volScalarField;
    location    "0";
    object      divFlux;
}
// * * * * * * * * * * * * * * * * * * * * * * * * * * * * * * * * * * * * * //

dimensions      [0 0 -1 0 0 0 0];

internalField   nonuniform List<scalar> 
16126
(
-8.8910551e-13
-8.4524362e-09
-1.652622e-08
-8.2878771e-09
-2.9284928e-08
3.4907895e-08
-3.5723009e-08
2.6518671e-08
-2.0894181e-08
3.4463212e-08
-3.6371924e-08
2.8153965e-08
-1.7542996e-08
3.8324623e-08
-3.2042932e-08
3.2172455e-08
-1.3662259e-08
4.147949e-08
-2.9130736e-08
3.4724761e-08
-1.0596915e-08
4.4805926e-08
-2.4730942e-08
3.8637865e-08
-7.1915578e-09
4.6450931e-08
-2.4229514e-08
3.777877e-08
-7.9567164e-09
4.545722e-08
-2.3972341e-08
3.742184e-08
-8.4407438e-09
4.3262263e-08
-2.6688948e-08
3.3244211e-08
-1.2303502e-08
3.8814346e-08
-2.9830367e-08
2.8847473e-08
-1.7058863e-08
3.1580322e-08
-3.7771457e-08
1.872608e-08
-2.6949399e-08
2.0569636e-08
-4.71603e-08
7.7298682e-09
-3.7938275e-08
6.8923325e-09
-6.0897155e-08
-8.6096341e-09
-5.3886149e-08
-1.0854176e-08
-7.6943474e-08
-2.720746e-08
-7.2670442e-08
-3.3289373e-08
-9.9424501e-08
-5.31804e-08
-9.8157932e-08
-6.1163217e-08
-1.2495863e-07
-8.1611267e-08
-1.2603266e-07
-9.2669977e-08
-1.5527306e-07
-1.1547056e-07
-1.5849873e-07
-1.2750369e-07
-1.8662108e-07
-1.4960775e-07
-1.9076341e-07
-1.627442e-07
-2.1865282e-07
-1.8402134e-07
-2.2121699e-07
-1.9360773e-07
-2.4258923e-07
-2.0828588e-07
-2.3980817e-07
-2.1217926e-07
-2.5380355e-07
-2.1917828e-07
-2.4331657e-07
-2.1381255e-07
-2.4579805e-07
-2.1003473e-07
-2.2670187e-07
-1.9637729e-07
-2.2023275e-07
-1.8429518e-07
-1.938326e-07
-1.625806e-07
-1.7813192e-07
-1.4276871e-07
-1.4694933e-07
-1.1717319e-07
-1.2767262e-07
-9.5248785e-08
-9.6320154e-08
-6.9480782e-08
-7.6475392e-08
-4.8315669e-08
-4.8140517e-08
-2.5775114e-08
-3.1139965e-08
-8.2028687e-09
-7.7360925e-09
9.967743e-09
5.9312115e-09
2.3635044e-08
2.3898218e-08
3.6633739e-08
3.3253381e-08
4.5683926e-08
4.5664365e-08
5.4159751e-08
5.2273073e-08
6.0459939e-08
5.9289014e-08
5.907027e-08
4.8977166e-08
4.513357e-08
-1.3154316e-08
-2.6067478e-08
-3.20322e-08
2.0990621e-08
-5.5606011e-08
5.6263409e-08
-3.8560944e-08
4.2260573e-08
-5.1170002e-08
5.787393e-08
-3.5129656e-08
4.7915379e-08
-4.3836153e-08
6.5294749e-08
-2.7461357e-08
5.480232e-08
-3.7268177e-08
7.0806667e-08
-2.1945569e-08
6.0380489e-08
-3.0235895e-08
7.7689912e-08
-1.460028e-08
6.586183e-08
-2.6328998e-08
7.8669119e-08
-1.4857009e-08
6.44845e-08
-2.6393153e-08
7.7922663e-08
-1.4724921e-08
6.2798745e-08
-2.8764945e-08
7.257885e-08
-2.0609825e-08
5.5473349e-08
-3.4607066e-08
6.5130869e-08
-2.7405785e-08
4.5731587e-08
-4.5427435e-08
4.9984673e-08
-4.3448161e-08
2.7304264e-08
-6.2138565e-08
3.0869459e-08
-6.1439088e-08
6.0239014e-09
-8.3635757e-08
4.4677486e-09
-8.811106e-08
-2.3877766e-08
-1.1173148e-07
-2.7530425e-08
-1.1919435e-07
-5.9777103e-08
-1.4808777e-07
-7.0471241e-08
-1.6244642e-07
-1.0736771e-07
-1.9326891e-07
-1.2039085e-07
-2.1034458e-07
-1.6018713e-07
-2.449036e-07
-1.7862366e-07
-2.6700494e-07
-2.2104361e-07
-3.0171821e-07
-2.4004464e-07
-3.2418586e-07
-2.8223184e-07
-3.5884934e-07
-3.0206763e-07
-3.8049102e-07
-3.3966693e-07
-4.0695519e-07
-3.5070352e-07
-4.1834011e-07
-3.7640384e-07
-4.3272322e-07
-3.7614509e-07
-4.311664e-07
-3.8580609e-07
-4.275931e-07
-3.6819207e-07
-4.0833154e-07
-3.5982202e-07
-3.8859697e-07
-3.2835767e-07
-3.5539429e-07
-3.0450021e-07
-3.2040895e-07
-2.5985565e-07
-2.7512245e-07
-2.2484898e-07
-2.3253271e-07
-1.7614921e-07
-1.8463393e-07
-1.3843166e-07
-1.4116032e-07
-9.1398074e-08
-9.619305e-08
-5.6658126e-08
-5.767615e-08
-1.6811167e-08
-2.0456494e-08
1.1368972e-08
1.1125362e-08
4.2959715e-08
3.9818511e-08
6.3629597e-08
6.3196603e-08
8.5743382e-08
8.2454622e-08
9.8786533e-08
9.8720739e-08
1.1313578e-07
1.0922016e-07
1.1551057e-07
1.0921932e-07
1.0834084e-07
1.0178459e-07
5.0587332e-08
-1.0264717e-08
-1.3802735e-08
-4.0773108e-08
2.2690214e-08
-4.1898943e-08
6.5217673e-08
-4.9959759e-08
3.6184824e-08
-4.0669856e-08
6.5476322e-08
-4.7181063e-08
4.1173599e-08
-3.4064556e-08
7.2194079e-08
-4.0114624e-08
4.7432442e-08
-2.8211676e-08
7.7063992e-08
-3.5067494e-08
5.2395072e-08
-2.1976952e-08
8.3145029e-08
-2.8351196e-08
5.7355618e-08
-1.8530892e-08
8.3931105e-08
-2.8392817e-08
5.6074506e-08
-1.8730941e-08
8.3056397e-08
-2.8160788e-08
5.4484408e-08
-2.1104263e-08
7.7949499e-08
-3.3341242e-08
4.7720987e-08
-2.667326e-08
7.0856998e-08
-3.9366292e-08
3.8794874e-08
-3.6787342e-08
5.6758502e-08
-5.3699271e-08
2.18945e-08
-5.2375951e-08
3.8857143e-08
-6.9946657e-08
2.2832203e-09
-7.2494353e-08
1.4162972e-08
-9.4122674e-08
-2.5334321e-08
-9.8796952e-08
-1.5857371e-08
-1.2246706e-07
-5.8538987e-08
-1.3281377e-07
-5.6053055e-08
-1.6198264e-07
-1.0267184e-07
-1.7520265e-07
-1.0303815e-07
-2.0610743e-07
-1.5192815e-07
-2.2387304e-07
-1.5801857e-07
-2.5850138e-07
-2.0891077e-07
-2.7766067e-07
-2.1636678e-07
-3.1175066e-07
-2.6653187e-07
-3.3208e-07
-2.7560328e-07
-3.6440067e-07
-3.2104623e-07
-3.7854542e-07
-3.2296949e-07
-4.0046531e-07
-3.5682199e-07
-4.0470019e-07
-3.4921658e-07
-4.1358056e-07
-3.6749744e-07
-4.0238853e-07
-3.4470084e-07
-3.9379711e-07
-3.4536942e-07
-3.68535e-07
-3.103949e-07
-3.4580153e-07
-2.9574591e-07
-3.0726246e-07
-2.4910801e-07
-2.7209844e-07
-2.2300394e-07
-2.271277e-07
-1.7301145e-07
-1.8822223e-07
-1.4328251e-07
-1.4309313e-07
-9.5278058e-08
-1.0559792e-07
-6.7221522e-08
-6.5764282e-08
-2.6324558e-08
-3.4193121e-08
-3.3616919e-09
-1.5790426e-09
2.9349299e-08
2.3253608e-08
4.6236035e-08
4.7418542e-08
6.9567877e-08
6.4539136e-08
8.0164208e-08
8.1343159e-08
9.6064039e-08
9.1922597e-08
9.7531059e-08
9.0656551e-08
8.8369741e-08
8.8613355e-08
3.2502943e-08
-1.1243628e-08
-1.0577137e-08
-3.4498753e-08
2.8111838e-08
-4.4765511e-08
6.6890361e-08
-4.1878294e-08
4.0742244e-08
-4.3271341e-08
6.8286883e-08
-3.751562e-08
4.7443376e-08
-3.4875872e-08
7.6813786e-08
-2.8630545e-08
5.5545233e-08
-2.7157006e-08
8.3562055e-08
-2.1650331e-08
6.2536894e-08
-1.8760099e-08
9.1843302e-08
-1.2720183e-08
6.9793716e-08
-1.2922676e-08
9.508983e-08
-1.0184287e-08
7.124762e-08
-1.0193761e-08
9.7201503e-08
-6.9310771e-09
7.281513e-08
-9.2410457e-09
9.5502435e-08
-8.5737748e-09
6.9816455e-08
-1.0759131e-08
9.2562776e-08
-1.0372149e-08
6.5332364e-08
-1.6176316e-08
8.3277967e-08
-1.9726318e-08
5.3695864e-08
-2.6155315e-08
7.1079174e-08
-3.0211529e-08
4.0103915e-08
-3.9940977e-08
5.2802539e-08
-4.7855555e-08
1.9329565e-08
-5.9001382e-08
3.007016e-08
-6.8909971e-08
-6.334855e-09
-8.5159228e-08
-2.2769841e-09
-1.0057544e-07
-4.2382228e-08
-1.1912921e-07
-4.0981886e-08
-1.3662455e-07
-8.3437031e-08
-1.5938293e-07
-8.7802118e-08
-1.8112818e-07
-1.3246843e-07
-2.0500773e-07
-1.3838452e-07
-2.2709217e-07
-1.8287001e-07
-2.5213377e-07
-1.9086031e-07
-2.7353894e-07
-2.3131719e-07
-2.9247863e-07
-2.3279675e-07
-3.049456e-07
-2.6270613e-07
-3.1428837e-07
-2.5549726e-07
-3.153713e-07
-2.710059e-07
-3.0963747e-07
-2.4950649e-07
-2.9506593e-07
-2.4873117e-07
-2.7575637e-07
-2.1602025e-07
-2.488352e-07
-2.0117836e-07
-2.1659452e-07
-1.5769941e-07
-1.7903079e-07
-1.3262402e-07
-1.4064735e-07
-8.651955e-08
-1.0086257e-07
-5.8805303e-08
-6.2401727e-08
-1.5153869e-08
-2.524165e-08
1.0233594e-08
8.1246398e-09
4.6638833e-08
3.8599557e-08
6.6705902e-08
6.5328704e-08
9.5172331e-08
8.8684542e-08
1.0929574e-07
1.0783228e-07
1.2892893e-07
1.2346099e-07
1.3715669e-07
1.3626848e-07
1.5013227e-07
1.4582012e-07
1.5022829e-07
1.4129997e-07
1.3501573e-07
1.2880178e-07
6.349356e-08
-1.3919836e-08
-1.2659534e-08
-1.9395848e-08
5.4025504e-08
-5.9340992e-08
5.000821e-08
-3.1293013e-08
6.3759041e-08
-5.8915584e-08
5.1391503e-08
-2.649051e-08
7.1001185e-08
-4.9817555e-08
6.0584079e-08
-1.7136189e-08
7.9378317e-08
-4.1867187e-08
6.7477327e-08
-1.0100684e-08
8.6459818e-08
-3.3020712e-08
7.6203306e-08
-1.0611196e-09
9.3515231e-08
-2.7404788e-08
7.9104474e-08
9.6901387e-10
9.4439841e-08
-2.4766534e-08
8.1073418e-08
3.6121587e-09
9.504199e-08
-2.4625286e-08
7.8428776e-08
6.8216512e-10
9.0648976e-08
-2.693256e-08
7.4642076e-08
-2.577837e-09
8.4235081e-08
-3.4021145e-08
6.3508175e-08
-1.4278557e-08
7.0030032e-08
-4.5828621e-08
4.9354372e-08
-2.7559775e-08
5.3071048e-08
-6.2473085e-08
2.7994325e-08
-4.9065846e-08
2.8065455e-08
-8.4793842e-08
1.8415664e-09
-7.4626462e-08
-2.8364526e-09
-1.1547277e-07
-3.5300069e-08
-1.1209645e-07
-4.5180678e-08
-1.5449953e-07
-7.9245793e-08
-1.5470135e-07
-9.3567027e-08
-2.0091474e-07
-1.3241424e-07
-2.067317e-07
-1.5059724e-07
-2.5276415e-07
-1.8917545e-07
-2.6013926e-07
-2.0901411e-07
-3.060419e-07
-2.4759667e-07
-3.1344458e-07
-2.6439629e-07
-3.5066157e-07
-2.9321048e-07
-3.4945501e-07
-3.0044768e-07
-3.7429753e-07
-3.1694855e-07
-3.6154333e-07
-3.1013712e-07
-3.6769416e-07
-3.0804596e-07
-3.39065e-07
-2.8564853e-07
-3.2854689e-07
-2.6850761e-07
-2.8754321e-07
-2.327522e-07
-2.6099369e-07
-2.0115701e-07
-2.0988001e-07
-1.567774e-07
-1.7521127e-07
-1.1994896e-07
-1.2314795e-07
-7.5071451e-08
-8.7033452e-08
-3.8712446e-08
-3.9382849e-08
1.1656288e-09
-7.6720617e-09
3.1653883e-08
3.1299127e-08
6.3460674e-08
5.6849323e-08
8.720152e-08
8.6620936e-08
1.1028265e-07
1.0488312e-07
1.2612559e-07
1.2479643e-07
1.4049528e-07
1.3682951e-07
1.5054482e-07
1.4887153e-07
1.5432173e-07
1.42783e-07
1.3202656e-07
1.1275346e-07
6.8102674e-08
-1.1773535e-08
-1.0631963e-08
-1.7928414e-08
6.7633976e-08
-5.9298137e-08
4.6912198e-08
-2.7570683e-08
7.8792544e-08
-5.7399798e-08
5.0311251e-08
-2.028961e-08
8.8673487e-08
-4.5540735e-08
6.2312229e-08
-8.1308983e-09
9.9835619e-08
-3.4741396e-08
7.2117689e-08
1.894864e-09
1.0996323e-07
-2.2626207e-08
8.4231007e-08
1.4337993e-08
1.2041892e-07
-1.3468393e-08
9.0805082e-08
2.0191253e-08
1.2526661e-07
-6.5693775e-09
9.7230677e-08
2.7345385e-08
1.3039527e-07
-1.6293894e-09
9.9596934e-08
2.9606871e-08
1.3131033e-07
1.8354969e-09
1.0187182e-07
3.2515569e-08
1.3110928e-07
1.3671087e-09
9.7651229e-08
2.794731e-08
1.2415967e-07
-2.5940659e-09
9.168671e-08
2.2956229e-08
1.1548924e-07
-1.0434736e-08
7.9459869e-08
1.0742161e-08
9.9803009e-08
-2.2771055e-08
6.3622046e-08
-4.4906265e-09
7.9091342e-08
-4.2725863e-08
3.7449064e-08
-3.0993705e-08
4.7507049e-08
-7.0383204e-08
5.0336813e-09
-6.232748e-08
9.9130857e-09
-1.0558859e-07
-3.6925356e-08
-1.0350942e-07
-3.6873769e-08
-1.4676787e-07
-8.3140942e-08
-1.4696792e-07
-8.6215498e-08
-1.9071893e-07
-1.3250842e-07
-1.9190499e-07
-1.3422172e-07
-2.2764607e-07
-1.7081196e-07
-2.2150322e-07
-1.650843e-07
-2.4592161e-07
-1.8966801e-07
-2.2965724e-07
-1.7210999e-07
-2.3641531e-07
-1.7836573e-07
-2.0585237e-07
-1.4765252e-07
-1.9713648e-07
-1.3923455e-07
-1.5575492e-07
-9.7477739e-08
-1.3203364e-07
-7.4812708e-08
-8.2033122e-08
-2.6716648e-08
-5.127016e-08
9.3713958e-10
-1.7123894e-09
4.7452373e-08
2.9660519e-08
7.4662502e-08
7.3771647e-08
1.14473e-07
1.0023845e-07
1.3619291e-07
1.3510732e-07
1.6685277e-07
1.5549453e-07
1.8269125e-07
1.8114066e-07
2.040333e-07
1.9472883e-07
2.1327109e-07
2.1098173e-07
2.2580833e-07
2.1922008e-07
2.3085044e-07
2.2830849e-07
2.326162e-07
2.1822793e-07
2.0475792e-07
1.7954382e-07
9.8387323e-08
-4.8225053e-09
2.3544391e-09
-2.4004943e-08
6.9802586e-08
-6.0379548e-08
4.9678159e-08
-3.1074573e-08
8.1610231e-08
-5.960691e-08
5.1796727e-08
-2.4569819e-08
9.0953546e-08
-4.8213356e-08
6.3248261e-08
-1.305484e-08
1.0135652e-07
-3.8227582e-08
7.2193315e-08
-3.832015e-09
1.1059547e-07
-2.707558e-08
8.3167145e-08
7.3181391e-09
1.1958707e-07
-1.9446698e-08
8.8142778e-08
1.1653332e-08
1.2280339e-07
-1.424735e-08
9.2652912e-08
1.6730567e-08
1.2559163e-07
-1.1784091e-08
9.2376895e-08
1.6378525e-08
1.2368156e-07
-1.1283027e-08
9.1372986e-08
1.5809447e-08
1.1966264e-07
-1.5724753e-08
8.2943837e-08
7.0382566e-09
1.0819485e-07
-2.4380423e-08
7.188555e-08
-3.285675e-09
9.3711031e-08
-3.8286326e-08
5.3217722e-08
-2.1988177e-08
7.1078692e-08
-5.782372e-08
2.9665384e-08
-4.5182873e-08
4.182943e-08
-8.6554171e-08
-5.7102474e-09
-8.0906618e-08
5.0014134e-10
-1.2415567e-07
-4.8593018e-08
-1.2285224e-07
-4.8304056e-08
-1.7071933e-07
-1.0227266e-07
-1.7556405e-07
-1.070302e-07
-2.2376055e-07
-1.6059688e-07
-2.308467e-07
-1.6843528e-07
-2.7937217e-07
-2.21504e-07
-2.8648054e-07
-2.270191e-07
-3.2607852e-07
-2.6922138e-07
-3.2445854e-07
-2.6591294e-07
-3.5125084e-07
-2.9427176e-07
-3.373177e-07
-2.7699916e-07
-3.4434162e-07
-2.847397e-07
-3.1378224e-07
-2.5209981e-07
-3.0305609e-07
-2.4265586e-07
-2.5915752e-07
-1.9669358e-07
-2.3126724e-07
-1.7081357e-07
-1.7684524e-07
-1.1698904e-07
-1.4050055e-07
-8.4703048e-08
-8.5362763e-08
-3.1674271e-08
-4.7859504e-08
7.006341e-10
2.1169762e-09
4.7016683e-08
3.4596801e-08
7.3832922e-08
7.5138119e-08
1.1051642e-07
1.0093015e-07
1.3091511e-07
1.3157127e-07
1.5739616e-07
1.4958094e-07
1.702437e-07
1.6982233e-07
1.8675523e-07
1.8129347e-07
1.9428593e-07
1.9293716e-07
1.97356e-07
1.8004524e-07
1.6330424e-07
1.7248957e-07
4.9681304e-08
-1.3621096e-09
1.109603e-08
-3.1964915e-08
7.1068556e-08
-5.0167213e-08
5.7546334e-08
-3.66472e-08
8.5732026e-08
-4.685825e-08
6.216941e-08
-2.7380505e-08
9.7976055e-08
-3.2496154e-08
7.6653664e-08
-1.275226e-08
1.1148452e-07
-1.9396463e-08
8.881823e-08
-9.8191458e-11
1.2422242e-07
-4.6831414e-09
1.0347937e-07
1.4915828e-08
1.3713868e-07
6.9706983e-09
1.1271283e-07
2.3894127e-08
1.4513048e-07
1.7062213e-08
1.2233897e-07
3.4397937e-08
1.5343816e-07
2.5164973e-08
1.2800702e-07
4.0497145e-08
1.5815737e-07
3.247028e-08
1.341528e-07
4.7558838e-08
1.6193512e-07
3.6020188e-08
1.3415475e-07
4.791658e-08
1.5980328e-07
3.689003e-08
1.3304048e-07
4.8159661e-08
1.5601792e-07
3.3835517e-08
1.2568882e-07
4.1554941e-08
1.4563942e-07
2.6683804e-08
1.1495557e-07
3.1883942e-08
1.2994252e-07
1.1541476e-08
9.3579516e-08
1.0952449e-08
1.0331743e-07
-1.1487192e-08
6.5501629e-08
-1.5621079e-08
6.9536826e-08
-4.3392225e-08
2.6546903e-08
-5.3079454e-08
2.5508419e-08
-8.2316733e-08
-1.7835378e-08
-9.4138255e-08
-2.2547637e-08
-1.2543381e-07
-6.6610709e-08
-1.3744115e-07
-6.9945737e-08
-1.6209244e-07
-1.0494445e-07
-1.6610761e-07
-1.0100302e-07
-1.8080809e-07
-1.2436955e-07
-1.7347476e-07
-1.0819053e-07
-1.7147961e-07
-1.13334e-07
-1.4866698e-07
-8.3697504e-08
-1.3209231e-07
-7.400364e-08
-9.6898918e-08
-3.270208e-08
-6.605147e-08
-8.6696082e-09
-2.1138398e-08
3.9056581e-08
1.5544241e-08
6.7659935e-08
6.0643129e-08
1.1351367e-07
9.6360195e-08
1.4088206e-07
1.3622232e-07
1.7950383e-07
1.6545066e-07
2.006476e-07
1.9648571e-07
2.298182e-07
2.1830884e-07
2.4455687e-07
2.4057991e-07
2.6428786e-07
2.5454862e-07
2.7206929e-07
2.6805777e-07
2.8307995e-07
2.7592533e-07
2.8669593e-07
2.8319909e-07
2.8615802e-07
2.6572386e-07
2.3940362e-07
2.4182465e-07
9.8686951e-08
1.8333356e-09
2.1993473e-08
-5.3164291e-08
5.7413644e-08
-3.4748329e-08
7.1084851e-08
-6.0217408e-08
6.9288115e-08
-3.3863105e-08
7.3611407e-08
-5.2720964e-08
7.9772904e-08
-2.1407272e-08
8.6111929e-08
-4.0071694e-08
9.1108681e-08
-1.0798521e-08
9.566323e-08
-2.9911733e-08
1.0119437e-07
9.5209264e-10
1.0724427e-07
-1.7918922e-08
1.108625e-07
8.9848279e-09
1.1277432e-07
-1.2365568e-08
1.1521015e-07
1.492008e-08
1.1802516e-07
-6.1561101e-09
1.1882895e-07
1.7683181e-08
1.1813334e-07
-5.3548363e-09
1.1787394e-07
1.8582176e-08
1.1760455e-07
-4.7593586e-09
1.1470028e-07
1.4323769e-08
1.0954545e-07
-1.2024231e-08
1.0444568e-07
6.0257959e-09
9.8875563e-08
-2.1042748e-08
9.0725705e-08
-8.1588494e-09
8.0021567e-08
-3.8603089e-08
6.87524e-08
-2.8181247e-08
5.6052669e-08
-6.0907359e-08
3.974051e-08
-5.7995323e-08
1.973501e-08
-9.5812935e-08
-1.4585468e-09
-9.703408e-08
-2.4618808e-08
-1.3762032e-07
-5.1059855e-08
-1.4614505e-07
-8.0799955e-08
-1.9076026e-07
-1.1107212e-07
-2.0224081e-07
-1.4207961e-07
-2.4676356e-07
-1.7411675e-07
-2.6127996e-07
-2.0609951e-07
-3.0265795e-07
-2.337782e-07
-3.1090883e-07
-2.5643266e-07
-3.4031322e-07
-2.7326331e-07
-3.3849241e-07
-2.8341153e-07
-3.5164847e-07
-2.8351378e-07
-3.3245895e-07
-2.7413019e-07
-3.2481709e-07
-2.5600401e-07
-2.902514e-07
-2.3047616e-07
-2.6489861e-07
-1.9590239e-07
-2.1543599e-07
-1.550952e-07
-1.7580776e-07
-1.1030572e-07
-1.2081319e-07
-6.502634e-08
-7.7674729e-08
-1.9452664e-08
-2.4875308e-08
2.3518598e-08
1.5176145e-08
6.3424238e-08
5.9487287e-08
9.8407793e-08
9.2021362e-08
1.2962333e-07
1.2631148e-07
1.5578788e-07
1.5058128e-07
1.775958e-07
1.7398071e-07
1.939971e-07
1.8939962e-07
2.0652457e-07
2.03242e-07
2.157179e-07
2.1242466e-07
2.1697954e-07
1.9844448e-07
1.6789924e-07
1.4727559e-07
8.717128e-08
-3.9831927e-10
2.8535553e-08
-5.2917387e-08
5.4511794e-08
-3.1304577e-08
8.2902309e-08
-5.6741266e-08
6.9147408e-08
-2.7604421e-08
8.8385932e-08
-4.6063661e-08
8.2958757e-08
-1.1760964e-08
1.0430324e-07
-2.9914164e-08
9.7868314e-08
2.4499433e-09
1.1748919e-07
-1.5957611e-08
1.1191621e-07
1.8273674e-08
1.3326122e-07
4.5191566e-10
1.262284e-07
3.1119721e-08
1.4376602e-07
1.133165e-08
1.3621301e-07
4.2876781e-08
1.5501174e-07
2.3867817e-08
1.4647285e-07
5.2492907e-08
1.6217657e-07
3.2184601e-08
1.5346956e-07
6.1630209e-08
1.701688e-07
4.1831691e-08
1.5984806e-07
6.7256337e-08
1.7230622e-07
4.5418979e-08
1.6102191e-07
7.0720317e-08
1.7369653e-07
4.909289e-08
1.6056258e-07
7.0114952e-08
1.6870966e-07
4.6118933e-08
1.5380851e-07
6.5636793e-08
1.6055236e-07
4.0343322e-08
1.4191475e-07
5.3179319e-08
1.417356e-07
2.3632413e-08
1.1940487e-07
3.2867086e-08
1.1603651e-07
9.3759455e-10
8.9169582e-08
2.9123008e-09
7.8646628e-08
-3.312262e-08
4.8269487e-08
-3.4563857e-08
3.5301917e-08
-7.1169137e-08
2.8585251e-09
-7.68105e-08
-1.3016415e-08
-1.1162868e-07
-4.2025201e-08
-1.1292499e-07
-5.1351027e-08
-1.3791768e-07
-7.1189582e-08
-1.3177222e-07
-7.1444752e-08
-1.4318831e-07
-7.6600664e-08
-1.2262157e-07
-6.1041353e-08
-1.1608843e-07
-5.0085815e-08
-8.31258e-08
-2.2019495e-08
-6.1565039e-08
3.5342427e-09
-1.6305217e-08
4.369327e-08
1.7316232e-08
7.8087357e-08
6.6008015e-08
1.2006371e-07
1.013952e-07
1.5434754e-07
1.4641407e-07
1.9211578e-07
1.7776749e-07
2.2059465e-07
2.1364986e-07
2.4936249e-07
2.3737292e-07
2.6987499e-07
2.6345577e-07
2.8967089e-07
2.7960001e-07
3.0217612e-07
2.9569633e-07
3.1276624e-07
3.043421e-07
3.1798705e-07
3.1236347e-07
3.225037e-07
3.1675742e-07
3.1956699e-07
3.010373e-07
2.7126998e-07
2.3020673e-07
1.2998251e-07
-9.968651e-09
2.4812806e-08
-4.4255143e-08
5.9555798e-08
-4.3463745e-08
7.6048421e-08
-5.0774017e-08
7.1633135e-08
-4.2261367e-08
7.9044493e-08
-4.2498508e-08
8.3126485e-08
-2.8691991e-08
9.2563307e-08
-2.8952569e-08
9.5312632e-08
-1.727057e-08
1.027539e-07
-1.8243265e-08
1.0599919e-07
-4.8402079e-09
1.1496576e-07
-5.6293724e-09
1.1642691e-07
4.1434817e-09
1.213826e-07
8.4673407e-10
1.2185199e-07
1.1274664e-08
1.2767452e-07
7.9643866e-09
1.2645826e-07
1.5140795e-08
1.2867085e-07
9.5721294e-09
1.2648899e-07
1.722574e-08
1.2917831e-07
1.114523e-08
1.2452479e-07
1.4453691e-08
1.2239601e-07
5.0987942e-09
1.1571374e-07
7.7971162e-09
1.1302665e-07
-2.8610152e-09
1.0319605e-07
-4.9980824e-09
9.5125882e-08
-1.9690965e-08
8.2172316e-08
-2.3816854e-08
7.1931175e-08
-4.1461773e-08
5.3918609e-08
-5.2582452e-08
3.6095859e-08
-7.6184178e-08
1.3064524e-08
-9.1117977e-08
-8.5149042e-09
-1.1875131e-07
-3.7271184e-08
-1.4081575e-07
-6.6176409e-08
-1.7384372e-07
-9.9135893e-08
-1.9850923e-07
-1.2992822e-07
-2.3270326e-07
-1.6486917e-07
-2.5979781e-07
-1.9710443e-07
-2.9202692e-07
-2.2771005e-07
-3.1205843e-07
-2.5099311e-07
-3.3345911e-07
-2.7065911e-07
-3.4231909e-07
-2.8148127e-07
-3.4826008e-07
-2.8383117e-07
-3.3807896e-07
-2.7457739e-07
-3.2352343e-07
-2.5766306e-07
-2.9586785e-07
-2.3137771e-07
-2.6361473e-07
-1.9670612e-07
-2.1884037e-07
-1.5411895e-07
-1.7227356e-07
-1.0813985e-07
-1.2017392e-07
-6.0630598e-08
-7.0831291e-08
-1.3674373e-08
-2.001546e-08
3.1335605e-08
2.507099e-08
7.2418418e-08
6.7893762e-08
1.089259e-07
1.0414874e-07
1.4095763e-07
1.3723056e-07
1.6800683e-07
1.6387072e-07
1.9014373e-07
1.8621833e-07
2.0673707e-07
2.0261171e-07
2.1908761e-07
2.1556942e-07
2.2793152e-07
2.2474231e-07
2.2931585e-07
2.1346945e-07
1.9568551e-07
2.1772372e-07
6.2838291e-08
-1.2150508e-08
2.4584627e-08
-4.0134401e-08
6.4912456e-08
-4.1507537e-08
7.9439219e-08
-4.3477778e-08
8.0319166e-08
-3.680839e-08
8.6028085e-08
-3.150126e-08
9.5623363e-08
-1.9326941e-08
1.0352592e-07
-1.3947516e-08
1.1187397e-07
-3.7435083e-09
1.1798281e-07
1.1401929e-09
1.2710925e-07
1.3448114e-08
1.3515359e-07
1.8892924e-08
1.4291756e-07
2.8118611e-08
1.4753394e-07
3.1590733e-08
1.5486255e-07
4.2103317e-08
1.6097501e-07
4.6110318e-08
1.6719024e-07
5.4083866e-08
1.7046304e-07
5.6557625e-08
1.7650918e-07
6.5977153e-08
1.8125072e-07
6.8827893e-08
1.8575615e-07
7.5036265e-08
1.8684829e-07
7.5645234e-08
1.9038044e-07
8.2452766e-08
1.9211119e-07
8.2775215e-08
1.9352431e-07
8.599629e-08
1.9114496e-07
8.3381e-08
1.9057105e-07
8.5978329e-08
1.873465e-07
8.1464546e-08
1.8275117e-07
7.8339348e-08
1.7313909e-07
6.871751e-08
1.6429162e-07
6.2697815e-08
1.5168948e-07
4.9367048e-08
1.3731802e-07
3.6610203e-08
1.1761022e-07
1.7628748e-08
9.8650937e-08
2.0672273e-09
7.6606076e-08
-1.9105874e-08
5.4441654e-08
-3.8140676e-08
2.9648102e-08
-5.9271983e-08
9.6512908e-09
-7.3264688e-08
-8.5015277e-09
-8.6540762e-08
-2.0734696e-08
-9.2285273e-08
-2.9555486e-08
-9.3791415e-08
-2.8265399e-08
-8.3926816e-08
-2.0523093e-08
-6.8926757e-08
-4.0071114e-09
-4.5189479e-08
1.7287798e-08
-1.6283854e-08
4.7905835e-08
2.1531473e-08
8.2644865e-08
6.1634462e-08
1.2160447e-07
1.043239e-07
1.5905348e-07
1.4483939e-07
1.9686525e-07
1.8468721e-07
2.3054715e-07
2.1959882e-07
2.6140169e-07
2.5101963e-07
2.8644683e-07
2.7687118e-07
3.0827342e-07
2.9912289e-07
3.246907e-07
3.1610908e-07
3.3760403e-07
3.2910776e-07
3.452192e-07
3.3734988e-07
3.5001235e-07
3.4306312e-07
3.5213464e-07
3.4619721e-07
3.4785183e-07
3.2796006e-07
3.0101921e-07
3.1302744e-07
1.3042254e-07
-1.17193e-08
2.6984806e-08
-4.2260231e-08
5.9047606e-08
-4.3680743e-08
7.9493067e-08
-4.8924899e-08
7.1224864e-08
-4.193885e-08
8.3288989e-08
-3.9667881e-08
8.3781558e-08
-2.7327118e-08
9.7763928e-08
-2.5325144e-08
9.6606956e-08
-1.543886e-08
1.0832266e-07
-1.4262712e-08
1.0771942e-07
-2.5301868e-09
1.2103724e-07
-1.1421402e-09
1.1870813e-07
7.0792248e-09
1.2814102e-07
6.1135173e-09
1.2500274e-07
1.5049279e-08
1.3521275e-07
1.3911558e-08
1.302299e-07
1.9425599e-08
1.366743e-07
1.6007615e-08
1.3088172e-07
2.218543e-08
1.3787538e-07
1.8262603e-08
1.2968583e-07
2.0206513e-08
1.3190231e-07
1.3075058e-08
1.2182733e-07
1.4403601e-08
1.2326401e-07
5.6877236e-09
1.0982254e-07
1.9382599e-09
1.0555841e-07
-1.1011528e-08
8.9032417e-08
-1.6698464e-08
8.2425717e-08
-3.2846351e-08
6.0738478e-08
-4.5614095e-08
4.6264322e-08
-6.8001754e-08
1.9429624e-08
-8.4850233e-08
5.9619263e-10
-1.1194033e-07
-3.2440677e-08
-1.3637822e-07
-5.926762e-08
-1.6939642e-07
-9.6657954e-08
-1.9647584e-07
-1.2569252e-07
-2.3097306e-07
-1.6503897e-07
-2.6030547e-07
-1.9556183e-07
-2.9274441e-07
-2.3012662e-07
-3.1457191e-07
-2.5158524e-07
-3.3595658e-07
-2.7464228e-07
-3.4603464e-07
-2.832968e-07
-3.5133459e-07
-2.879646e-07
-3.4126194e-07
-2.7574655e-07
-3.2513358e-07
-2.5997828e-07
-2.9664847e-07
-2.300547e-07
-2.6188808e-07
-1.951493e-07
-2.1506255e-07
-1.4807126e-07
-1.6510115e-07
-1.0096033e-07
-1.106934e-07
-4.9271403e-08
-5.8272688e-08
-1.2589152e-09
-5.6537686e-09
4.6991838e-08
4.1644786e-08
8.8541431e-08
8.5493583e-08
1.2720588e-07
1.2296662e-07
1.5903489e-07
1.5620938e-07
1.8709234e-07
1.830478e-07
2.0834813e-07
2.0477482e-07
2.2489435e-07
2.2038135e-07
2.3559382e-07
2.31768e-07
2.4324011e-07
2.3922936e-07
2.4244436e-07
2.2408535e-07
1.9301642e-07
1.7008021e-07
1.0761088e-07
-1.1842885e-08
2.8669436e-08
-3.8460199e-08
6.2155668e-08
-4.0098243e-08
8.5486048e-08
-4.1522936e-08
7.8050513e-08
-3.4422943e-08
9.3372793e-08
-2.8049092e-08
9.4929228e-08
-1.5414854e-08
1.1231113e-07
-9.1851419e-09
1.1236062e-07
1.1621568e-09
1.2767198e-07
6.8251342e-09
1.2863309e-07
1.9457934e-08
1.4601811e-07
2.5824902e-08
1.4579075e-07
3.5534408e-08
1.5989871e-07
4.0184624e-08
1.5956388e-07
5.1321367e-08
1.7513125e-07
5.6482652e-08
1.7369465e-07
6.4994514e-08
1.8631434e-07
6.875097e-08
1.8506932e-07
7.9019429e-08
1.993423e-07
8.3389368e-08
1.9689698e-07
9.0681837e-08
2.0764234e-07
9.3113504e-08
2.0467479e-07
1.0117223e-07
2.1595718e-07
1.0331735e-07
2.110031e-07
1.0772427e-07
2.1796734e-07
1.0702854e-07
2.1144288e-07
1.1107068e-07
2.1755414e-07
1.0859737e-07
2.0732434e-07
1.0700166e-07
2.0685667e-07
9.9467667e-08
1.9265725e-07
9.4860297e-08
1.8864163e-07
8.3236608e-08
1.687835e-07
7.1463097e-08
1.5690958e-07
5.3823294e-08
1.3253475e-07
3.9094847e-08
1.1776807e-07
1.8987781e-08
9.0282375e-08
6.1978861e-10
7.2219307e-08
-1.9556634e-08
4.7207939e-08
-3.3004327e-08
3.5141934e-08
-4.5525565e-08
1.810136e-08
-5.0945549e-08
1.4704983e-08
-5.1743074e-08
1.1728263e-08
-4.1409913e-08
2.451624e-08
-2.5553639e-08
3.7344223e-08
-1.401144e-09
6.3113134e-08
2.8460292e-08
9.086825e-08
6.7059832e-08
1.2995057e-07
1.0847072e-07
1.6672479e-07
1.5167322e-07
2.0750618e-07
1.9283064e-07
2.4293696e-07
2.3238686e-07
2.7858645e-07
2.669802e-07
3.0665812e-07
2.9724518e-07
3.3240301e-07
3.219578e-07
3.5117908e-07
3.4234242e-07
3.6715361e-07
3.5752195e-07
3.7687417e-07
3.6814673e-07
3.8319392e-07
3.7409855e-07
3.8463605e-07
3.7689017e-07
3.8464049e-07
3.7757211e-07
3.7839987e-07
3.5987643e-07
3.3059632e-07
2.7587199e-07
1.6253971e-07
-1.3943842e-08
2.4703518e-08
-3.8001567e-08
6.333083e-08
-4.3768514e-08
7.9023095e-08
-4.4609003e-08
7.5790121e-08
-4.1289262e-08
8.3840739e-08
-3.4185386e-08
8.9578474e-08
-2.5465477e-08
9.9456298e-08
-1.8859805e-08
1.0328924e-07
-1.2777504e-08
1.1075183e-07
-7.1494381e-09
1.150735e-07
8.7674052e-10
1.2430905e-07
6.8518352e-09
1.2704846e-07
1.1596075e-08
1.3262943e-07
1.5344877e-08
1.3466809e-07
2.0933991e-08
1.4108174e-07
2.4385971e-08
1.41135e-07
2.6564866e-08
1.4382855e-07
2.7674354e-08
1.4307575e-07
3.0739036e-08
1.4659217e-07
3.1474823e-08
1.4356093e-07
3.0586444e-08
1.4257457e-07
2.8169593e-08
1.3768294e-07
2.6808823e-08
1.3597908e-07
2.2573476e-08
1.2745836e-07
1.6114691e-08
1.2005769e-07
7.411589e-09
1.0824395e-07
-8.8040749e-10
9.8636522e-08
-1.2938202e-08
8.1440597e-08
-2.8291466e-08
6.3949045e-08
-4.6977548e-08
4.1116641e-08
-6.6712949e-08
1.8865946e-08
-9.0922353e-08
-1.1096403e-08
-1.1884508e-07
-4.1913629e-08
-1.4988636e-07
-7.7155013e-08
-1.8094585e-07
-1.1060441e-07
-2.1419299e-07
-1.4856387e-07
-2.4781888e-07
-1.8374563e-07
-2.7954832e-07
-2.1746221e-07
-3.0573776e-07
-2.4360018e-07
-3.2676768e-07
-2.6613354e-07
-3.4088938e-07
-2.7902198e-07
-3.4571099e-07
-2.829127e-07
-3.3871464e-07
-2.7386964e-07
-3.2148825e-07
-2.5664146e-07
-2.9477156e-07
-2.2857789e-07
-2.5812982e-07
-1.9122833e-07
-2.1133719e-07
-1.4422498e-07
-1.5838841e-07
-9.3666113e-08
-1.0273946e-07
-4.1060516e-08
-4.7318042e-08
1.0166067e-08
6.6309907e-09
5.936284e-08
5.6309668e-08
1.0339657e-07
1.0111158e-07
1.4265228e-07
1.4010767e-07
1.7604344e-07
1.7371673e-07
2.0416046e-07
2.011215e-07
2.2601107e-07
2.2257734e-07
2.4199181e-07
2.3772777e-07
2.5221028e-07
2.4810351e-07
2.5869006e-07
2.5458151e-07
2.580668e-07
2.4417199e-07
2.3258153e-07
2.6564463e-07
8.2693754e-08
-1.3119633e-08
2.5467243e-08
-3.4997714e-08
6.8083879e-08
-3.8782823e-08
8.4141369e-08
-3.7410598e-08
8.4780787e-08
-3.1912145e-08
9.3487658e-08
-2.2353816e-08
1.0330401e-07
-1.1260384e-08
1.1402394e-07
-2.0397752e-09
1.2208443e-07
6.596004e-09
1.3064896e-07
1.5173616e-08
1.3960021e-07
2.623964e-08
1.5048143e-07
3.5727751e-08
1.5844774e-07
4.4179125e-08
1.6639756e-07
5.2171929e-08
1.7440991e-07
6.2247601e-08
1.8400751e-07
7.075314e-08
1.9084188e-07
7.828815e-08
1.9769255e-07
8.5491482e-08
2.0482361e-07
9.512512e-08
2.1379391e-07
1.032594e-07
2.1997608e-07
1.1036237e-07
2.2594653e-07
1.1683883e-07
2.317593e-07
1.2501436e-07
2.3861095e-07
1.3123591e-07
2.4232919e-07
1.3591966e-07
2.4518577e-07
1.3938205e-07
2.4732295e-07
1.440239e-07
2.4980644e-07
1.4587852e-07
2.4822718e-07
1.4514879e-07
2.4449406e-07
1.4187762e-07
2.3861444e-07
1.3803154e-07
2.3127623e-07
1.3013808e-07
2.1891726e-07
1.1863132e-07
2.0339538e-07
1.0401402e-07
1.8558791e-07
8.9049095e-08
1.6686251e-07
7.1265269e-08
1.4498887e-07
5.216111e-08
1.2266432e-07
3.357086e-08
1.0225319e-07
1.8868658e-08
8.5608329e-08
7.1449429e-09
7.2100156e-08
2.9451543e-11
6.4003982e-08
-5.182351e-10
6.378615e-08
8.0945066e-09
7.2182839e-08
2.391609e-08
8.7173998e-08
4.6419289e-08
1.0898196e-07
7.6119772e-08
1.3874731e-07
1.1378394e-07
1.7501914e-07
1.5551933e-07
2.1388094e-07
1.9825503e-07
2.5243067e-07
2.3938842e-07
2.8918085e-07
2.7813996e-07
3.2256578e-07
3.1210472e-07
3.5107574e-07
3.4111334e-07
3.7443426e-07
3.6460434e-07
3.9280402e-07
3.8333077e-07
4.063166e-07
3.9675429e-07
4.1491422e-07
4.0544083e-07
4.187258e-07
4.0920546e-07
4.1842351e-07
4.0974408e-07
4.1587978e-07
4.0794631e-07
4.0748309e-07
3.8821283e-07
3.6465321e-07
3.8505279e-07
1.6588619e-07
-1.2013594e-08
2.616253e-08
-3.6032348e-08
6.469213e-08
-4.2599366e-08
8.0304628e-08
-4.2334261e-08
7.7828115e-08
-3.911012e-08
8.6332037e-08
-3.0624296e-08
9.2938841e-08
-2.2000911e-08
1.0317617e-07
-1.4208617e-08
1.075716e-07
-8.6064319e-09
1.1509254e-07
-1.9078416e-09
1.2003193e-07
5.8255426e-09
1.2953165e-07
1.3014559e-08
1.330238e-07
1.7650384e-08
1.3907248e-07
2.2778466e-08
1.4200262e-07
2.8327903e-08
1.4889152e-07
3.3096232e-08
1.4967489e-07
3.4999108e-08
1.5267387e-07
3.7407796e-08
1.5278328e-07
4.0437414e-08
1.568505e-07
4.2631328e-08
1.5481689e-07
4.1881041e-08
1.5455814e-07
4.1033145e-08
1.5073343e-07
3.9806408e-08
1.4967784e-07
3.6969078e-08
1.4195387e-07
3.0300674e-08