/*--------------------------------*- C++ -*----------------------------------*\
| =========                 |                                                 |
| \\      /  F ield         | foam-extend: Open Source CFD                    |
|  \\    /   O peration     | Version:     4.1                                |
|   \\  /    A nd           | Web:         http://www.foam-extend.org         |
|    \\/     M anipulation  |                                                 |
\*---------------------------------------------------------------------------*/
FoamFile
{
    version     2.0;
    format      ascii;
    class       volVectorField;
    location    "0";
    object      U;
}
// * * * * * * * * * * * * * * * * * * * * * * * * * * * * * * * * * * * * * //

dimensions      [0 1 -1 0 0 0 0];

internalField   nonuniform List<vector> 
16126
(
(150.05534 -5.2595433e-05 0)
(150.05566 -0.0001580765 0)
(150.05629 -0.00026442906 0)
(150.05725 -0.00037223859 0)
(150.05853 -0.00048209785 0)
(150.06014 -0.00059460832 0)
(150.0621 -0.00071038469 0)
(150.06441 -0.00083005601 0)
(150.06709 -0.00095426969 0)
(150.07015 -0.0010836931 0)
(150.0736 -0.0012190177 0)
(150.07747 -0.0013609604 0)
(150.08178 -0.0015102674 0)
(150.08654 -0.0016677156 0)
(150.0918 -0.001834117 0)
(150.09756 -0.0020103194 0)
(150.10387 -0.0021972103 0)
(150.11076 -0.0023957181 0)
(150.11827 -0.0026068154 0)
(150.12642 -0.0028315195 0)
(150.13528 -0.0030708955 0)
(150.14487 -0.0033260559 0)
(150.15526 -0.0035981632 0)
(150.16649 -0.0038884288 0)
(150.17862 -0.0041981133 0)
(150.19171 -0.0045285244 0)
(150.20582 -0.0048810168 0)
(150.22103 -0.0052569864 0)
(150.2374 -0.005657868 0)
(150.25502 -0.0060851278 0)
(150.27396 -0.006540257 0)
(150.2943 -0.0070247597 0)
(150.31615 -0.0075401461 0)
(150.33959 -0.0080879109 0)
(150.36473 -0.0086695207 0)
(150.39166 -0.0092863909 0)
(150.4205 -0.0099398623 0)
(150.45136 -0.010631171 0)
(150.48435 -0.011361418 0)
(150.51959 -0.012131526 0)
(150.5572 -0.012942201 0)
(150.5973 -0.013793883 0)
(150.64002 -0.014686685 0)
(150.68548 -0.015620341 0)
(150.7338 -0.016594131 0)
(150.78511 -0.017606815 0)
(150.8395 -0.018656547 0)
(150.8971 -0.019740798 0)
(150.95799 -0.020856262 0)
(151.02228 -0.02199877 0)
(151.09002 -0.023163195 0)
(151.16128 -0.02434336 0)
(151.23609 -0.025531955 0)
(151.31447 -0.026720454 0)
(151.3964 -0.027899048 0)
(151.48183 -0.029056592 0)
(151.57069 -0.030180574 0)
(151.66284 -0.03125711 0)
(151.75814 -0.032270979 0)
(151.85635 -0.033205685 0)
(151.95723 -0.034043578 0)
(152.06044 -0.034766018 0)
(152.16562 -0.035353604 0)
(152.27233 -0.035786453 0)
(152.38008 -0.036044552 0)
(152.48831 -0.036108164 0)
(152.59641 -0.035958297 0)
(152.70371 -0.03557722 0)
(152.8095 -0.034949018 0)
(152.91301 -0.034060173 0)
(153.01345 -0.03290015 0)
(153.11 -0.031461962 0)
(153.2018 -0.029742692 0)
(153.28803 -0.027743947 0)
(153.36786 -0.025472209 0)
(153.44047 -0.022939062 0)
(153.50512 -0.020161276 0)
(153.56111 -0.017160718 0)
(153.60779 -0.013964093 0)
(153.64464 -0.010602507 0)
(153.67121 -0.0071108642 0)
(153.68717 -0.0035271034 0)
(153.6923 0.00010868218 0)
(153.6865 0.0037552212 0)
(153.66981 0.0073710899 0)
(153.64238 0.010915745 0)
(153.60448 0.014350524 0)
(153.5565 0.017639559 0)
(153.49891 0.020750587 0)
(153.4323 0.023655607 0)
(153.35732 0.02633138 0)
(153.27469 0.028759747 0)
(153.18516 0.030927773 0)
(153.08952 0.032827722 0)
(152.9886 0.034456879 0)
(152.88318 0.03581723 0)
(152.77409 0.036915051 0)
(152.66207 0.037760396 0)
(152.54788 0.038366549 0)
(152.43221 0.038749442 0)
(152.31569 0.038927065 0)
(152.19892 0.038918909 0)
(152.08243 0.03874543 0)
(151.96667 0.038427563 0)
(151.85205 0.037986298 0)
(151.7389 0.037442307 0)
(151.62752 0.036815643 0)
(151.51811 0.036125489 0)
(151.41083 0.035389977 0)
(151.30581 0.034626046 0)
(151.2031 0.033849359 0)
(151.10271 0.033074258 0)
(151.00463 0.032313744 0)
(150.90879 0.031579498 0)
(150.8151 0.030881912 0)
(150.72343 0.030230144 0)
(150.63363 0.029632175 0)
(150.54554 0.029094878 0)
(150.45897 0.028624085 0)
(150.37369 0.028224654 0)
(150.2895 0.027900531 0)
(150.20617 0.0276548 0)
(150.12346 0.027489736 0)
(150.04111 0.027406833 0)
(150.0552 -0.00015765731 0)
(150.05552 -0.00047384203 0)
(150.05615 -0.00079263953 0)
(150.0571 -0.001115805 0)
(150.05838 -0.001445115 0)
(150.05999 -0.0017823736 0)
(150.06194 -0.0021294229 0)
(150.06425 -0.0024881493 0)
(150.06692 -0.0028604934 0)
(150.06997 -0.0032484567 0)
(150.07341 -0.0036541118 0)
(150.07728 -0.0040796085 0)
(150.08157 -0.0045271836 0)
(150.08633 -0.0049991677 0)
(150.09157 -0.0054979949 0)
(150.09732 -0.0060262078 0)
(150.10362 -0.0065864678 0)
(150.11049 -0.0071815593 0)
(150.11798 -0.0078143988 0)
(150.12612 -0.008488038 0)
(150.13495 -0.009205671 0)
(150.14452 -0.0099706358 0)
(150.15489 -0.01078642 0)
(150.16609 -0.011656656 0)
(150.17819 -0.012585128 0)
(150.19125 -0.01357576 0)
(150.20534 -0.014632616 0)
(150.22051 -0.015759887 0)
(150.23685 -0.01696188 0)
(150.25443 -0.018242997 0)
(150.27333 -0.019607716 0)
(150.29364 -0.021060554 0)
(150.31544 -0.022606048 0)
(150.33884 -0.024248691 0)
(150.36393 -0.025992891 0)
(150.39082 -0.027842906 0)
(150.41961 -0.02980277 0)
(150.45041 -0.031876209 0)
(150.48335 -0.034066537 0)
(150.51853 -0.036376548 0)
(150.55609 -0.03880838 0)
(150.59614 -0.041363373 0)
(150.6388 -0.044041898 0)
(150.68421 -0.046843184 0)
(150.73248 -0.049765108 0)
(150.78373 -0.052803979 0)
(150.83808 -0.055954301 0)
(150.89563 -0.059208521 0)
(150.95649 -0.062556768 0)
(151.02074 -0.06598657 0)
(151.08846 -0.069482588 0)
(151.1597 -0.073026333 0)
(151.23451 -0.076595907 0)
(151.31289 -0.080165764 0)
(151.39484 -0.083706501 0)
(151.48031 -0.087184693 0)
(151.56922 -0.090562807 0)
(151.66145 -0.093799183 0)
(151.75684 -0.096848119 0)
(151.85517 -0.099660081 0)
(151.95619 -0.10218204 0)
(152.05957 -0.10435799 0)
(152.16494 -0.10612958 0)
(152.27187 -0.10743702 0)
(152.37986 -0.10822009 0)
(152.48836 -0.10841937 0)
(152.59676 -0.10797765 0)
(152.70438 -0.10684149 0)
(152.81051 -0.10496289 0)
(152.91438 -0.10230104 0)
(153.01518 -0.098824077 0)
(153.1121 -0.094510809 0)
(153.20428 -0.089352286 0)
(153.29088 -0.08335317 0)
(153.37106 -0.076532806 0)
(153.44401 -0.068925914 0)
(153.50898 -0.060582837 0)
(153.56524 -0.051569294 0)
(153.61217 -0.041965592 0)
(153.64921 -0.031865323 0)
(153.67593 -0.021373532 0)
(153.69198 -0.010604431 0)
(153.69715 0.00032126862 0)
(153.69134 0.011279296 0)
(153.67459 0.022144921 0)
(153.64704 0.032796072 0)
(153.60897 0.043116348 0)
(153.56077 0.052997792 0)
(153.50292 0.06234332 0)
(153.43602 0.071068709 0)
(153.36073 0.079104099 0)
(153.27775 0.086394949 0)
(153.18787 0.092902465 0)
(153.09188 0.098603521 0)
(152.99059 0.10349011 0)
(152.88482 0.10756837 0)
(152.77538 0.11085736 0)
(152.66304 0.1133875 0)
(152.54854 0.11519888 0)
(152.43258 0.11633956 0)
(152.31581 0.11686376 0)
(152.1988 0.11683021 0)
(152.0821 0.11630046 0)
(151.96616 0.11533753 0)
(151.85139 0.11400455 0)
(151.73812 0.11236367 0)
(151.62664 0.11047515 0)
(151.51716 0.10839663 0)
(151.40983 0.10618256 0)
(151.30478 0.10388381 0)
(151.20206 0.10154737 0)
(151.10169 0.09921629 0)
(151.00363 0.096929557 0)
(150.90783 0.094722199 0)
(150.8142 0.092625373 0)
(150.7226 0.090666521 0)
(150.63288 0.088869558 0)
(150.54487 0.087255075 0)
(150.45839 0.085840537 0)
(150.37321 0.084640492 0)
(150.28913 0.08366675 0)
(150.2059 0.082928549 0)
(150.12329 0.082432691 0)
(150.04105 0.082183653 0)
(150.05492 -0.00026233271 0)
(150.05524 -0.00078844639 0)
(150.05586 -0.0013189086 0)
(150.05681 -0.001856641 0)
(150.05808 -0.0024045997 0)
(150.05969 -0.0029657881 0)
(150.06163 -0.0035432717 0)
(150.06392 -0.0041401909 0)
(150.06658 -0.0047597757 0)
(150.06962 -0.0054053582 0)
(150.07305 -0.0060803881 0)
(150.07689 -0.0067884448 0)
(150.08116 -0.0075332522 0)
(150.0859 -0.008318691 0)
(150.09111 -0.0091488135 0)
(150.09684 -0.010027855 0)
(150.1031 -0.010960246 0)
(150.10994 -0.011950625 0)
(150.1174 -0.01300385 0)
(150.1255 -0.014125006 0)
(150.13429 -0.015319412 0)
(150.14382 -0.016592632 0)
(150.15414 -0.017950477 0)
(150.16529 -0.019399003 0)
(150.17734 -0.020944518 0)
(150.19034 -0.022593565 0)
(150.20437 -0.024352923 0)
(150.21948 -0.026229582 0)
(150.23575 -0.02823073 0)
(150.25325 -0.030363714 0)
(150.27208 -0.032636013 0)
(150.2923 -0.035055173 0)
(150.31403 -0.037628777 0)
(150.33733 -0.040364339 0)
(150.36233 -0.043269237 0)
(150.38912 -0.046350604 0)
(150.41781 -0.049615207 0)
(150.44852 -0.053069302 0)
(150.48135 -0.056718471 0)
(150.51643 -0.060567434 0)
(150.55387 -0.064619828 0)
(150.59381 -0.068877968 0)
(150.63637 -0.07334256 0)
(150.68167 -0.078012421 0)
(150.72983 -0.082884119 0)
(150.78098 -0.08795162 0)
(150.83523 -0.093205888 0)
(150.8927 -0.098634468 0)
(150.95347 -0.10422104 0)
(151.01766 -0.10994495 0)
(151.08533 -0.11578078 0)
(151.15654 -0.12169784 0)
(151.23133 -0.12765975 0)
(151.30973 -0.13362403 0)
(151.39172 -0.13954177 0)
(151.47726 -0.14535729 0)
(151.56628 -0.15100805 0)
(151.65865 -0.15642458 0)
(151.75423 -0.1615306 0)
(151.8528 -0.16624339 0)
(151.95409 -0.17047432 0)
(152.05781 -0.17412969 0)
(152.16357 -0.17711187 0)
(152.27094 -0.17932067 0)
(152.37942 -0.18065512 0)
(152.48847 -0.18101549 0)
(152.59746 -0.18030567 0)
(152.70572 -0.17843576 0)
(152.81252 -0.1753249 0)
(152.9171 -0.1709042 0)
(153.01865 -0.16511972 0)
(153.11631 -0.15793534 0)
(153.20924 -0.14933549 0)
(153.29658 -0.13932741 0)
(153.37747 -0.12794299 0)
(153.45111 -0.11523997 0)
(153.5167 -0.1013024 0)
(153.57352 -0.086240171 0)
(153.62093 -0.070187796 0)
(153.65837 -0.053302154 0)
(153.68539 -0.035759453 0)
(153.70163 -0.017751359 0)
(153.70689 0.00051948833 0)
(153.70105 0.018844443 0)
(153.68416 0.03701408 0)
(153.65636 0.054823462 0)
(153.61795 0.072077218 0)
(153.56932 0.088594222 0)
(153.51096 0.10421168 0)
(153.44348 0.11878849 0)
(153.36754 0.13220774 0)
(153.28389 0.14437832 0)
(153.19329 0.1552356 0)
(153.09658 0.16474133 0)
(152.99457 0.17288261 0)
(152.8881 0.17967033 0)
(152.77797 0.18513697 0)
(152.66497 0.18933406 0)
(152.54985 0.19232932 0)
(152.43332 0.19420368 0)
(152.31602 0.19504838 0)
(152.19855 0.19496205 0)
(152.08143 0.19404805 0)
(151.96514 0.192412 0)
(151.85007 0.19015967 0)
(151.73655 0.18739511 0)
(151.62487 0.18421911 0)
(151.51524 0.18072803 0)
(151.40782 0.17701281 0)
(151.30272 0.17315833 0)
(151.19998 0.16924303 0)
(151.09963 0.16533863 0)
(151.00163 0.16151011 0)
(150.90592 0.15781579 0)
(150.81239 0.15430753 0)
(150.72092 0.15103096 0)
(150.63136 0.14802586 0)
(150.54352 0.14532642 0)
(150.45722 0.14296168 0)
(150.37224 0.14095577 0)
(150.28836 0.1393283 0)
(150.20535 0.13809461 0)
(150.12296 0.13726597 0)
(150.04094 0.13684981 0)
(150.0545 -0.00036636495 0)
(150.05481 -0.0011011182 0)
(150.05544 -0.0018419465 0)
(150.05638 -0.002592932 0)
(150.05764 -0.0033582046 0)
(150.05923 -0.0041419604 0)
(150.06116 -0.0049484824 0)
(150.06344 -0.0057821589 0)
(150.06608 -0.0066475034 0)
(150.06909 -0.0075491721 0)
(150.07249 -0.0084919858 0)
(150.07631 -0.0094809475 0)
(150.08055 -0.010521262 0)
(150.08525 -0.011618355 0)
(150.09043 -0.01277789 0)
(150.09611 -0.01400579 0)
(150.10234 -0.015308251 0)
(150.10913 -0.01669176 0)
(150.11653 -0.018163111 0)
(150.12457 -0.019729417 0)
(150.1333 -0.021398124 0)
(150.14277 -0.023177018 0)
(150.15301 -0.025074231 0)
(150.16409 -0.027098245 0)
(150.17606 -0.029257893 0)
(150.18898 -0.031562344 0)
(150.20291 -0.034021095 0)
(150.21793 -0.036643949 0)
(150.2341 -0.039440985 0)
(150.25149 -0.042422515 0)
(150.2702 -0.045599036 0)
(150.29031 -0.048981152 0)
(150.3119 -0.052579525 0)
(150.33508 -0.056404728 0)
(150.35994 -0.060467153 0)
(150.38659 -0.064776865 0)
(150.41513 -0.069343424 0)
(150.44568 -0.074175695 0)
(150.47835 -0.079281609 0)
(150.51327 -0.084667907 0)
(150.55055 -0.090339835 0)
(150.59032 -0.096300804 0)
(150.63272 -0.10255199 0)
(150.67785 -0.10909195 0)
(150.72585 -0.11591611 0)
(150.77685 -0.12301625 0)
(150.83096 -0.13038 0)
(150.88829 -0.1379902 0)
(150.94895 -0.14582427 0)
(151.01303 -0.1538536 0)
(151.08062 -0.16204288 0)
(151.15178 -0.17034941 0)
(151.22656 -0.17872254 0)
(151.30497 -0.18710299 0)
(151.38702 -0.19542246 0)
(151.47267 -0.20360311 0)
(151.56184 -0.21155741 0)
(151.65444 -0.21918798 0)
(151.75029 -0.22638785 0)
(151.84921 -0.23304085 0)
(151.95093 -0.23902239 0)
(152.05514 -0.2442006 0)
(152.16148 -0.24843789 0)
(152.26951 -0.25159293 0)
(152.37873 -0.25352307 0)
(152.4886 -0.25408724 0)
(152.59848 -0.25314927 0)
(152.7077 -0.25058156 0)
(152.81553 -0.24626906 0)
(152.92118 -0.24011349 0)
(153.02383 -0.23203753 0)
(153.12262 -0.22198898 0)
(153.21669 -0.20994458 0)
(153.30514 -0.19591335 0)
(153.38712 -0.17993921 0)
(153.46177 -0.16210273 0)
(153.52831 -0.1425218 0)
(153.58598 -0.12135112 0)
(153.63413 -0.09878034 0)
(153.67217 -0.075031013 0)
(153.69963 -0.050352215 0)
(153.71617 -0.025015067 0)
(153.72155 0.0006936593 0)
(153.71567 0.026478619 0)
(153.69857 0.052043352 0)
(153.67041 0.077097796 0)
(153.63148 0.10136553 0)
(153.58219 0.12459045 0)
(153.52305 0.14654256 0)
(153.45469 0.16702275 0)
(153.37779 0.18586635 0)
(153.2931 0.20294537 0)
(153.20144 0.21816944 0)
(153.10364 0.23148555 0)
(153.00054 0.24287669 0)
(152.89299 0.25235942 0)
(152.78182 0.25998083 0)
(152.66784 0.26581478 0)
(152.55179 0.26995793 0)
(152.43439 0.27252543 0)
(152.31631 0.27364679 0)
(152.19814 0.27346176 0)
(152.0804 0.27211654 0)
(151.96357 0.26976036 0)
(151.84805 0.26654245 0)
(151.73416 0.26260941 0)
(151.6222 0.25810312 0)
(151.51235 0.25315906 0)
(151.40479 0.24790494 0)
(151.2996 0.24245989 0)
(151.19685 0.23693384 0)
(151.09653 0.23142725 0)
(150.99862 0.22603102 0)
(150.90303 0.2208267 0)
(150.80967 0.21588671 0)
(150.71841 0.21127476 0)
(150.62908 0.2070463 0)
(150.5415 0.20324902 0)
(150.45547 0.19992333 0)
(150.37079 0.19710285 0)
(150.28722 0.19481484 0)
(150.20452 0.19308064 0)
(150.12246 0.19191592 0)
(150.04078 0.191331 0)
(150.05394 -0.00046949854 0)
(150.05425 -0.0014110898 0)
(150.05487 -0.0023604702 0)
(150.0558 -0.0033228732 0)
(150.05705 -0.0043035943 0)
(150.05863 -0.005308014 0)
(150.06054 -0.006341624 0)
(150.06279 -0.0074100521 0)
(150.0654 -0.0085190862 0)
(150.06839 -0.0096746987 0)
(150.07176 -0.010883073 0)
(150.07553 -0.012150626 0)
(150.07974 -0.013484037 0)
(150.08439 -0.014890266 0)
(150.08952 -0.016376582 0)
(150.09515 -0.017950587 0)
(150.10131 -0.019620234 0)
(150.10804 -0.021393853 0)
(150.11537 -0.023280168 0)
(150.12334 -0.025288316 0)
(150.13199 -0.027427863 0)
(150.14137 -0.029708815 0)
(150.15152 -0.032141626 0)
(150.1625 -0.034737204 0)
(150.17436 -0.03750691 0)
(150.18717 -0.040462542 0)
(150.20098 -0.04361633 0)
(150.21586 -0.046980899 0)
(150.2319 -0.050569239 0)
(150.24915 -0.054394649 0)
(150.2677 -0.058470676 0)
(150.28765 -0.062811017 0)
(150.30908 -0.067429456 0)
(150.33208 -0.072339679 0)
(150.35675 -0.077555159 0)
(150.38321 -0.083088966 0)
(150.41155 -0.088953543 0)
(150.44189 -0.095160462 0)
(150.47435 -0.10172012 0)
(150.50905 -0.10864143 0)
(150.54612 -0.11593137 0)
(150.58567 -0.12359464 0)
(150.62784 -0.13163307 0)
(150.67276 -0.14004516 0)
(150.72055 -0.14882542 0)
(150.77134 -0.15796372 0)
(150.82525 -0.16744458 0)
(150.8824 -0.17724641 0)
(150.9429 -0.1873407 0)
(151.00685 -0.19769115 0)
(151.07433 -0.20825284 0)
(151.14542 -0.21897138 0)
(151.22016 -0.22978204 0)
(151.2986 -0.24060905 0)
(151.38072 -0.25136483 0)
(151.46651 -0.26194953 0)
(151.55589 -0.27225061 0)
(151.64877 -0.28214279 0)
(151.74499 -0.29148814 0)
(151.84437 -0.30013673 0)
(151.94665 -0.30792748 0)
(152.05153 -0.31468967 0)
(152.15864 -0.32024488 0)
(152.26755 -0.32440955 0)
(152.37776 -0.32699809 0)
(152.48872 -0.32782659 0)
(152.59979 -0.32671719 0)
(152.71031 -0.3235028 0)
(152.8195 -0.31803235 0)
(152.92659 -0.31017626 0)
(153.03073 -0.29983203 0)
(153.13104 -0.28692964 0)
(153.22662 -0.27143669 0)
(153.31658 -0.25336279 0)
(153.40002 -0.23276312 0)
(153.47605 -0.20974078 0)
(153.54386 -0.18444775 0)
(153.60268 -0.15708431 0)
(153.65181 -0.12789667 0)
(153.69066 -0.097172965 0)
(153.71873 -0.065237574 0)
(153.73567 -0.032443919 0)
(153.74122 0.00083394835 0)
(153.73529 0.03421067 0)
(153.7179 0.067299413 0)
(153.68925 0.099721771 0)
(153.64961 0.13111731 0)
(153.59943 0.16115236 0)
(153.53925 0.1895276 0)
(153.46969 0.21598436 0)
(153.39149 0.24030921 0)
(153.30542 0.26233683 0)
(153.21232 0.28195123 0)
(153.11305 0.29908531 0)
(153.00849 0.31371893 0)
(152.8995 0.32587575 0)
(152.78694 0.33561908 0)
(152.67162 0.34304695 0)
(152.55432 0.3482868 0)
(152.43578 0.35148989 0)
(152.31665 0.3528258 0)
(152.19753 0.35247707 0)
(152.07897 0.35063432 0)
(151.96142 0.3474917 0)
(151.8453 0.34324303 0)
(151.73093 0.33807845 0)
(151.61857 0.33218168 0)
(151.50845 0.32572786 0)
(151.40069 0.3188819 0)
(151.2954 0.31179743 0)
(151.19263 0.30461599 0)
(151.09236 0.29746679 0)
(150.99457 0.29046662 0)
(150.89916 0.28372011 0)
(150.80602 0.27732007 0)
(150.71503 0.27134809 0)
(150.62601 0.2658751 0)
(150.53878 0.26096201 0)
(150.45313 0.25666043 0)
(150.36884 0.25301325 0)
(150.28568 0.25005524 0)
(150.20342 0.24781354 0)
(150.12179 0.24630816 0)
(150.04055 0.24555221 0)
(150.05325 -0.00057148001 0)
(150.05355 -0.0017175997 0)
(150.05416 -0.0028732061 0)
(150.05508 -0.0040446733 0)
(150.05632 -0.0052384512 0)
(150.05787 -0.0064610938 0)
(150.05976 -0.0077192912 0)
(150.06199 -0.0090198984 0)
(150.06457 -0.010369967 0)
(150.06751 -0.011776776 0)
(150.07084 -0.013247858 0)
(150.07457 -0.014791035 0)
(150.07873 -0.016414448 0)
(150.08332 -0.018126582 0)
(150.08839 -0.019936301 0)
(150.09395 -0.021852875 0)
(150.10004 -0.023886007 0)
(150.10669 -0.026045858 0)
(150.11393 -0.028343076 0)
(150.12181 -0.030788815 0)
(150.13036 -0.033394756 0)
(150.13963 -0.036173119 0)
(150.14966 -0.03913668 0)
(150.16052 -0.042298774 0)
(150.17225 -0.045673291 0)
(150.18491 -0.049274671 0)
(150.19857 -0.053117884 0)
(150.21329 -0.057218395 0)
(150.22915 -0.061592128 0)
(150.24622 -0.066255399 0)
(150.26459 -0.071224839 0)
(150.28434 -0.076517287 0)
(150.30555 -0.082149704 0)
(150.32833 -0.08813896 0)
(150.35277 -0.094501688 0)
(150.37899 -0.10125406 0)
(150.40708 -0.10841151 0)
(150.43716 -0.11598845 0)
(150.46936 -0.12399791 0)
(150.50379 -0.13245111 0)
(150.54058 -0.14135699 0)
(150.57986 -0.15072174 0)
(150.62175 -0.16054809 0)
(150.66639 -0.17083475 0)
(150.71391 -0.18157561 0)
(150.76444 -0.19275893 0)
(150.8181 -0.2043665 0)
(150.87502 -0.21637265 0)
(150.93532 -0.22874328 0)
(150.99909 -0.24143481 0)
(151.06643 -0.2543931 0)
(151.13743 -0.26755239 0)
(151.21213 -0.28083429 0)
(151.29058 -0.29414676 0)
(151.37279 -0.30738324 0)
(151.45874 -0.32042199 0)
(151.54838 -0.33312556 0)
(151.64161 -0.34534062 0)
(151.7383 -0.35689811 0)
(151.83825 -0.36761386 0)
(151.94123 -0.3772897 0)
(152.04693 -0.38571517 0)
(152.155 -0.3926699 0)
(152.26501 -0.39792669 0)
(152.37645 -0.40125534 0)
(152.48878 -0.40242724 0)
(152.60136 -0.40122066 0)
(152.71349 -0.39742673 0)
(152.82441 -0.39085592 0)
(152.93331 -0.38134488 0)
(153.03933 -0.36876348 0)
(153.14155 -0.35302166 0)
(153.23906 -0.33407589 0)
(153.33092 -0.3119348 0)
(153.4162 -0.28666378 0)
(153.49398 -0.25838802 0)
(153.56341 -0.22729389 0)
(153.62368 -0.19362827 0)
(153.67407 -0.1576957 0)
(153.71394 -0.11985344 0)
(153.74278 -0.080504383 0)
(153.76022 -0.040087976 0)
(153.76599 0.00093030127 0)
(153.75998 0.042070711 0)
(153.74225 0.082851644 0)
(153.71296 0.12280211 0)
(153.67243 0.16147376 0)
(153.62113 0.19845195 0)
(153.55961 0.2333653 0)
(153.48854 0.2658935 0)
(153.40869 0.29577305 0)
(153.32086 0.32280082 0)
(153.22594 0.34683538 0)
(153.12482 0.36779637 0)
(153.0184 0.38566196 0)
(152.90759 0.40046474 0)
(152.79327 0.41228642 0)
(152.67628 0.42125157 0)
(152.55742 0.4275209 0)
(152.43742 0.43128421 0)
(152.31697 0.43275353 0)
(152.19668 0.4321564 0)
(152.07708 0.42972981 0)
(151.95864 0.42571461 0)
(151.84177 0.42035069 0)
(151.72679 0.41387292 0)
(151.61396 0.40650782 0)
(151.50349 0.39847093 0)
(151.3955 0.38996488 0)
(151.29009 0.38117806 0)
(151.18729 0.37228381 0)
(151.0871 0.36344009 0)
(150.98945 0.35478949 0)
(150.89427 0.34645952 0)
(150.80143 0.33856319 0)
(150.71078 0.33119966 0)
(150.62215 0.32445504 0)
(150.53535 0.31840322 0)
(150.45017 0.31310669 0)
(150.36638 0.30861736 0)
(150.28375 0.30497726 0)
(150.20203 0.30221921 0)
(150.12095 0.30036732 0)
(150.04027 0.29943745 0)
(150.05242 -0.00067205834 0)
(150.05272 -0.0020198934 0)
(150.05332 -0.0033788929 0)
(150.05422 -0.004756558 0)
(150.05544 -0.0061604796 0)
(150.05697 -0.007598372 0)
(150.05883 -0.0090781098 0)
(150.06102 -0.010607762 0)
(150.06357 -0.012195632 0)
(150.06647 -0.013850287 0)
(150.06975 -0.015580601 0)
(150.07342 -0.017395785 0)
(150.07751 -0.019305428 0)
(150.08204 -0.021319528 0)
(150.08704 -0.023448531 0)
(150.09252 -0.025703362 0)
(150.09852 -0.028095461 0)
(150.10507 -0.030636813 0)
(150.11221 -0.033339978 0)
(150.11997 -0.036218116 0)
(150.1284 -0.039285018 0)
(150.13754 -0.042555114 0)
(150.14744 -0.046043501 0)
(150.15814 -0.049765935 0)
(150.16971 -0.053738848 0)
(150.18221 -0.057979323 0)
(150.19568 -0.062505086 0)
(150.21022 -0.067334463 0)
(150.22587 -0.072486338 0)
(150.24273 -0.077980076 0)
(150.26086 -0.083835443 0)
(150.28037 -0.090072469 0)
(150.30133 -0.096711362 0)
(150.32384 -0.10377226 0)
(150.34801 -0.11127505 0)
(150.37393 -0.11923912 0)
(150.40172 -0.12768304 0)
(150.4315 -0.13662422 0)
(150.46338 -0.14607849 0)
(150.49748 -0.15605959 0)
(150.53394 -0.16657869 0)
(150.57288 -0.17764368 0)
(150.61443 -0.18925853 0)
(150.65874 -0.20142248 0)
(150.70593 -0.21412915 0)
(150.75614 -0.2273656 0)
(150.80951 -0.24111129 0)
(150.86615 -0.25533691 0)
(150.92619 -0.27000326 0)
(150.98975 -0.28505992 0)
(151.05692 -0.30044403 0)
(151.12779 -0.31607894 0)
(151.20243 -0.33187298 0)
(151.2809 -0.34771825 0)
(151.3632 -0.36348955 0)
(151.44934 -0.37904344 0)
(151.53928 -0.39421764 0)
(151.63292 -0.40883073 0)
(151.73015 -0.42268221 0)
(151.83078 -0.4355532 0)
(151.93459 -0.44720767 0)
(152.04128 -0.45739436 0)
(152.1505 -0.46584958 0)
(152.26182 -0.4723008 0)
(152.37476 -0.47647117 0)
(152.48874 -0.47808501 0)
(152.60313 -0.47687409 0)
(152.71722 -0.47258486 0)
(152.83022 -0.46498628 0)
(152.94132 -0.45387812 0)
(153.04961 -0.43909959 0)
(153.15416 -0.42053769 0)
(153.25402 -0.39813525 0)
(153.34819 -0.37189791 0)
(153.43571 -0.34189988 0)
(153.51563 -0.30828788 0)
(153.58704 -0.27128294 0)
(153.64908 -0.23117977 0)
(153.70099 -0.18834348 0)
(153.74212 -0.14320363 0)
(153.77191 -0.096245573 0)
(153.78995 -0.047999534 0)
(153.79599 0.00097237291 0)
(153.7899 0.050090522 0)
(153.77173 0.098772976 0)
(153.74166 0.14645081 0)
(153.70005 0.19258287 0)
(153.64736 0.23666926 0)
(153.58421 0.27826307 0)
(153.5113 0.31697982 0)
(153.42943 0.35250438 0)
(153.33946 0.38459515 0)
(153.24232 0.41308559 0)
(153.13894 0.4378832 0)
(153.03027 0.45896627 0)
(152.91725 0.47637869 0)
(152.80079 0.49022335 0)
(152.68178 0.50065436 0)
(152.56101 0.5078688 0)
(152.43927 0.51209811 0)
(152.31723 0.5135997 0)
(152.19551 0.51264885 0)
(152.07467 0.50953139 0)
(151.95517 0.50453697 0)
(151.8374 0.49795341 0)
(151.7217 0.49006178 0)
(151.60831 0.48113256 0)
(151.49742 0.47142255 0)
(151.38916 0.46117267 0)
(151.28362 0.45060645 0)
(151.1808 0.43992919 0)
(151.0807 0.42932759 0)
(150.98325 0.41896986 0)
(150.88834 0.40900622 0)
(150.79585 0.39956952 0)
(150.70563 0.39077617 0)
(150.61748 0.38272709 0)
(150.53121 0.37550875 0)
(150.4466 0.36919421 0)
(150.36342 0.36384405 0)
(150.28142 0.35950728 0)
(150.20034 0.35622214 0)
(150.11994 0.35401671 0)
(150.03993 0.35290942 0)
(150.05145 -0.00077098538 0)
(150.05175 -0.0023172253 0)
(150.05234 -0.0038762837 0)
(150.05323 -0.0054567732 0)
(150.05442 -0.0070674098 0)
(150.05593 -0.0087170523 0)
(150.05775 -0.010414744 0)
(150.05991 -0.012169752 0)
(150.0624 -0.013991614 0)
(150.06526 -0.015890173 0)
(150.06848 -0.017875624 0)
(150.07209 -0.019958553 0)
(150.07611 -0.022149982 0)
(150.08056 -0.024461406 0)
(150.08547 -0.026904837 0)
(150.09085 -0.029492841 0)
(150.09675 -0.032238582 0)
(150.10319 -0.035155851 0)
(150.11021 -0.038259112 0)
(150.11784 -0.041563523 0)
(150.12613 -0.04508497 0)
(150.13512 -0.048840093 0)
(150.14485 -0.052846299 0)
(150.15539 -0.057121774 0)
(150.16677 -0.061685487 0)
(150.17906 -0.06655718 0)
(150.19233 -0.071757348 0)
(150.20664 -0.0773072 0)
(150.22206 -0.083228608 0)
(150.23866 -0.08954403 0)
(150.25653 -0.096276414 0)
(150.27575 -0.10344905 0)
(150.29642 -0.11108546 0)
(150.31862 -0.11920916 0)
(150.34246 -0.1278434 0)
(150.36805 -0.13701091 0)
(150.39549 -0.14673357 0)
(150.4249 -0.15703196 0)
(150.4564 -0.16792491 0)
(150.49012 -0.17942898 0)
(150.52619 -0.19155776 0)
(150.56474 -0.20432124 0)
(150.6059 -0.21772493 0)
(150.64981 -0.23176899 0)
(150.69661 -0.24644723 0)
(150.74645 -0.26174595 0)
(150.79945 -0.27764277 0)
(150.85576 -0.2941053 0)
(150.9155 -0.31108976 0)
(150.9788 -0.32853951 0)
(151.04575 -0.34638349 0)
(151.11647 -0.36453475 0)
(151.19104 -0.38288889 0)
(151.2695 -0.40132263 0)
(151.35191 -0.41969248 0)
(151.43826 -0.43783364 0)
(151.52852 -0.45555911 0)
(151.62263 -0.47265932 0)
(151.72048 -0.48890207 0)
(151.8219 -0.50403322 0)
(151.92667 -0.51777798 0)
(152.0345 -0.52984309 0)
(152.14506 -0.53991992 0)
(152.25792 -0.54768861 0)
(152.3726 -0.55282325 0)
(152.48851 -0.55499823 0)
(152.60503 -0.55389566 0)
(152.72142 -0.54921382 0)
(152.83689 -0.54067644 0)
(152.95057 -0.52804265 0)
(153.06156 -0.51111719 0)
(153.16886 -0.48976063 0)
(153.27149 -0.46389901 0)
(153.36841 -0.43353244 0)
(153.45861 -0.3987422 0)
(153.54106 -0.35969572 0)
(153.61482 -0.31664897 0)
(153.67898 -0.26994598 0)
(153.73272 -0.22001508 0)
(153.77534 -0.1673619 0)
(153.80625 -0.1125592 0)
(153.82503 -0.056233701 0)
(153.83138 0.00094944768 0)
(153.82519 0.058303974 0)
(153.80649 0.1151408 0)
(153.7755 0.17078653 0)
(153.73258 0.22460117 0)
(153.67825 0.27599439 0)
(153.61315 0.32443954 0)
(153.53804 0.3694849 0)
(153.45377 0.41076183 0)
(153.36125 0.44798963 0)
(153.26147 0.48097705 0)
(153.15541 0.50962093 0)
(153.04407 0.53390197 0)
(152.92843 0.55387832 0)
(152.80946 0.56967745 0)
(152.68804 0.58148674 0)
(152.56505 0.58954342 0)
(152.44124 0.59412434 0)
(152.31734 0.59553584 0)
(152.19396 0.59410425 0)
(152.07167 0.59016716 0)
(151.95092 0.58406563 0)
(151.83212 0.57613749 0)
(151.71558 0.5667118 0)
(151.60154 0.55610431 0)
(151.49018 0.5446141 0)
(151.38162 0.53252105 0)
(151.27593 0.5200842 0)
(151.17311 0.50754095 0)
(151.07313 0.49510669 0)
(150.9759 0.4829751 0)
(150.88133 0.47131873 0)
(150.78927 0.46028993 0)
(150.69955 0.45002189 0)
(150.61197 0.44062991 0)
(150.52633 0.4322126 0)
(150.4424 0.42485312 0)
(150.35993 0.41862034 0)
(150.27867 0.41356992 0)
(150.19836 0.40974521 0)
(150.11874 0.40717803 0)
(150.03954 0.40588927 0)
(150.05036 -0.00086801647 0)
(150.05065 -0.0026088602 0)
(150.05123 -0.0043641491 0)
(150.0521 -0.0061435895 0)
(150.05327 -0.007957004 0)
(150.05474 -0.0098143774 0)
(150.05653 -0.011725903 0)
(150.05864 -0.013702029 0)
(150.06109 -0.015753508 0)
(150.06388 -0.017891439 0)
(150.06704 -0.020127322 0)
(150.07057 -0.022473099 0)
(150.07451 -0.024941205 0)
(150.07887 -0.027544614 0)
(150.08368 -0.030296887 0)
(150.08896 -0.033212214 0)
(150.09474 -0.036305465 0)
(150.10106 -0.039592226 0)
(150.10794 -0.043088845 0)
(150.11542 -0.046812466 0)
(150.12355 -0.050781066 0)
(150.13237 -0.055013478 0)
(150.14192 -0.05952942 0)
(150.15225 -0.064349504 0)
(150.16342 -0.069495244 0)
(150.17549 -0.074989046 0)
(150.18852 -0.080854192 0)
(150.20257 -0.087114797 0)
(150.21771 -0.093795758 0)
(150.23403 -0.10092267 0)
(150.25159 -0.10852171 0)
(150.27049 -0.1166195 0)
(150.29082 -0.125243 0)
(150.31267 -0.13441915 0)
(150.33614 -0.14417472 0)
(150.36134 -0.15453597 0)
(150.38838 -0.16552821 0)
(150.41737 -0.17717544 0)
(150.44845 -0.18949973 0)
(150.48173 -0.2025207 0)
(150.51734 -0.21625474 0)
(150.55543 -0.23071426 0)
(150.59613 -0.24590671 0)
(150.63959 -0.26183365 0)
(150.68595 -0.27848953 0)
(150.73535 -0.29586046 0)
(150.78793 -0.3139228 0)
(150.84385 -0.3326417 0)
(150.90323 -0.35196947 0)
(150.96622 -0.37184386 0)
(151.03292 -0.39218637 0)
(151.10345 -0.41290038 0)
(151.17791 -0.43386941 0)
(151.25636 -0.45495538 0)
(151.33886 -0.47599704 0)
(151.42543 -0.49680856 0)
(151.51606 -0.51717846 0)
(151.61069 -0.53686899 0)
(151.70923 -0.55561597 0)
(151.81153 -0.57312939 0)
(151.91738 -0.58909478 0)
(152.02652 -0.60317547 0)
(152.1386 -0.61501609 0)
(152.25322 -0.6242471 0)
(152.36989 -0.63049071 0)
(152.48802 -0.63336811 0)
(152.60698 -0.63250799 0)
(152.72603 -0.62755632 0)
(152.84434 -0.61818721 0)
(152.96103 -0.60411455 0)
(153.07513 -0.58510414 0)
(153.18564 -0.5609858 0)
(153.2915 -0.53166494 0)
(153.39163 -0.49713302 0)
(153.48494 -0.45747617 0)
(153.57036 -0.41288144 0)
(153.64687 -0.36364 0)
(153.7135 -0.31014681 0)
(153.76938 -0.25289655 0)
(153.81376 -0.1924755 0)
(153.84599 -0.12954962 0)
(153.86563 -0.064849042 0)
(153.87235 0.00085035469 0)
(153.86603 0.066747509 0)
(153.84671 0.13203801 0)
(153.81463 0.19593606 0)
(153.77019 0.25769564 0)
(153.71392 0.31662976 0)
(153.64654 0.372127 0)
(153.56885 0.42366481 0)
(153.48176 0.47081889 0)
(153.38627 0.51326869 0)
(153.28341 0.55079895 0)
(153.17422 0.58329768 0)
(153.05977 0.61075083 0)
(152.9411 0.63323447 0)
(152.8192 0.6509048 0)
(152.69502 0.66398692 0)
(152.56944 0.67276281 0)
(152.44326 0.67755917 0)
(152.31721 0.67873554 0)
(152.19193 0.67667317 0)
(152.06798 0.67176488 0)
(151.94582 0.66440608 0)
(151.82583 0.65498713 0)
(151.70834 0.64388702 0)
(151.59357 0.63146837 0)
(151.4817 0.61807357 0)
(151.37281 0.60402219 0)
(151.26696 0.58960923 0)
(151.16415 0.57510424 0)
(151.06432 0.56075125 0)
(150.96739 0.5467691 0)
(150.87322 0.5333523 0)
(150.78165 0.52067219 0)
(150.69252 0.50887824 0)
(150.60561 0.49809954 0)
(150.52069 0.48844629 0)
(150.43754 0.48001125 0)
(150.3559 0.47287112 0)
(150.2755 0.46708777 0)
(150.19608 0.46270935 0)
(150.11737 0.45977115 0)
(150.03908 0.45829633 0)
(150.04914 -0.00096291102 0)
(150.04942 -0.0028940752 0)