# Time	Cd	Cl	Cm
0.0005	27.529675	0.081911273	0
0.001	0.16146142	-0.0011404373	0
0.0015	0.087445254	-0.001687458	0
0.002	0.044969702	-0.0018147688	0
0.0025	-0.010340638	-0.0019254895	0
0.003	0.028895133	-0.0017968453	0
0.0035	-0.053420898	-0.0021448495	0
0.004	0.035990887	-0.0015908055	0
0.0045	-0.063696706	-0.0020975885	0
0.005	0.038500189	-0.0014714704	0
0.0055	-0.067888727	-0.0020367212	0
0.006	0.042111731	-0.0013608299	0
0.0065	-0.068868137	-0.0019812794	0
0.007	0.045294892	-0.0012731646	0
0.0075	-0.068882615	-0.0019014434	0
0.008	0.047482881	-0.0011821899	0
0.0085	-0.067114501	-0.0018180126	0
0.009	0.048695261	-0.0011063194	0
0.0095	-0.064443559	-0.0017363114	0
0.01	0.049059266	-0.001041067	0
0.0105	-0.061086695	-0.0016787361	0
0.011	0.048321187	-0.0010031697	0
0.0115	-0.058112854	-0.0015884206	0
0.012	0.047079945	-0.00094309754	0
0.0125	-0.054916732	-0.0014990306	0
0.013	0.045697923	-0.00089309136	0
0.0135	-0.051844783	-0.0014167424	0
0.014	0.044105952	-0.00084286845	0
0.0145	-0.048838458	-0.0013394382	0
0.015	0.042623942	-0.00079572864	0
0.0155	-0.04589649	-0.0012667848	0
0.016	0.041262494	-0.00075141651	0
0.0165	-0.043039508	-0.0011984359	0
0.017	0.040019689	-0.00070962787	0
0.0175	-0.040284727	-0.0011340408	0
0.018	0.038888432	-0.00067012635	0
0.0185	-0.037553801	-0.0010776385	0
0.019	0.037785401	-0.00062888766	0
0.0195	-0.034896873	-0.0010182706	0
0.02	0.036720758	-0.00059443273	0
0.0205	-0.032370382	-0.0009634663	0
0.021	0.035729301	-0.00056137657	0
0.0215	-0.029970531	-0.0009118104	0
0.022	0.034827632	-0.00053027182	0
0.0225	-0.027741621	-0.00086278293	0
0.023	0.033983305	-0.00050097692	0
0.0235	-0.025596126	-0.00081634289	0
0.024	0.033175078	-0.00047325203	0
0.0245	-0.02354853	-0.00077210848	0
0.025	0.032410183	-0.00044714194	0
0.0255	-0.021601859	-0.00073037975	0
0.026	0.031690409	-0.00042261511	0
0.0265	-0.019761454	-0.00069097888	0
0.027	0.031016031	-0.00039942169	0
0.0275	-0.018027839	-0.00065374009	0
0.028	0.030386549	-0.00037747016	0
0.0285	-0.016399546	-0.00061859435	0
0.029	0.029800493	-0.00035679452	0
0.0295	-0.014871875	-0.00058578355	0
0.03	0.029257402	-0.00033728082	0
0.0305	-0.013440343	-0.00055454398	0
0.031	0.028751556	-0.00031858445	0
0.0315	-0.012101527	-0.00052507446	0
0.032	0.028279088	-0.00030081602	0
0.0325	-0.010849404	-0.00049731679	0
0.033	0.027836216	-0.00028401987	0
0.0335	-0.0096775965	-0.00047113822	0
0.034	0.027419366	-0.00026812062	0
0.0345	-0.008579967	-0.00044644406	0
0.035	0.027025426	-0.00025302147	0
0.0355	-0.0075501967	-0.00042308095	0
0.036	0.026651053	-0.00023860077	0
0.0365	-0.0065834254	-0.00040092732	0
0.037	0.026291747	-0.00022517274	0
0.0375	-0.0056732457	-0.00038018202	0
0.038	0.025947405	-0.00021250067	0
0.0385	-0.0048130014	-0.00036056384	0
0.039	0.025615433	-0.00020053674	0
0.0395	-0.0039977126	-0.00034200046	0
0.04	0.025293433	-0.00018925264	0
0.0405	-0.0032224446	-0.00032442266	0
0.041	0.024980059	-0.00017861823	0
0.0415	-0.0024828321	-0.0003078953	0
0.042	0.024673547	-0.00016901734	0
0.0425	-0.0017733275	-0.0002924663	0
0.043	0.02437241	-0.00015968023	0
0.0435	-0.0010858037	-0.00027820781	0
0.044	0.024060729	-0.00014976374	0
0.0445	-0.00036734548	-0.00026481482	0
0.045	0.023680669	-0.0001407758	0
0.0455	0.00041537834	-0.00025166106	0
0.046	0.023223775	-0.0001326359	0
0.0465	0.0019422502	-0.00023880061	0
0.047	0.022184587	-0.00012543573	0
0.0475	0.0031046496	-0.00022293638	0
0.048	0.02123942	-0.00012075109	0
0.0485	0.0046493913	-0.00020960823	0
0.049	0.019995775	-0.00011648737	0
0.0495	0.0060826088	-0.00019476216	0
0.05	0.018760448	-0.00011409584	0
0.0505	0.0077201472	-0.00018069778	0
0.051	0.017370948	-0.00011230128	0
0.0515	0.0092566758	-0.00016572114	0
0.052	0.01602908	-0.00011195052	0
0.0525	0.010768545	-0.00015270349	0
0.053	0.014732927	-0.00011397876	0
0.0535	0.011909131	-0.00013704015	0
0.054	0.013735652	-0.00011494111	0
0.0545	0.012709729	-0.00012506044	0
0.055	0.013068921	-0.00011380533	0
0.0555	0.012875398	-0.00011313034	0
0.056	0.012767541	-0.00011136229	0
0.0565	0.012704102	-0.00010927491	0
0.057	0.012675339	-0.00010701514	0
0.0575	0.012672926	-0.00010466313	0
0.058	0.012689917	-0.00010222762	0
0.0585	0.012720382	-9.9742836e-05	0
0.059	0.012759408	-9.7234667e-05	0
0.0595	0.012803479	-9.4733591e-05	0
0.06	0.012850338	-9.2262396e-05	0
0.0605	0.012898683	-8.9830267e-05	0
0.061	0.012947776	-8.7446912e-05	0
0.0615	0.012997181	-8.5118469e-05	0
0.062	0.013046619	-8.2839394e-05	0
0.0625	0.013095901	-8.0613001e-05	0
0.063	0.013144891	-7.8438635e-05	0
0.0635	0.013193563	-7.6296302e-05	0
0.064	0.013241955	-7.4226574e-05	0
0.0645	0.0132895	-7.2259233e-05	0
0.065	0.013336455	-7.0289748e-05	0
0.0655	0.01338281	-6.8368268e-05	0
0.066	0.013428534	-6.6486036e-05	0
0.0665	0.013473607	-6.4649841e-05	0
0.067	0.013518248	-6.2906766e-05	0
0.0675	0.013562523	-6.1155407e-05	0
0.068	0.013606113	-5.9445758e-05	0
0.0685	0.013648992	-5.7777738e-05	0
0.069	0.01369116	-5.6149542e-05	0
0.0695	0.013732617	-5.4560511e-05	0
0.07	0.013773362	-5.3009053e-05	0
0.0705	0.013813397	-5.1494613e-05	0
0.071	0.013852721	-5.0015728e-05	0
0.0715	0.01389134	-4.8572635e-05	0
0.072	0.013929248	-4.7163149e-05	0
0.0725	0.013966457	-4.5787176e-05	0
0.073	0.014002965	-4.4443418e-05	0
0.0735	0.014038892	-4.3090511e-05	0
0.074	0.014075732	-4.1777625e-05	0
0.0745	0.014111923	-4.0528151e-05	0
0.075	0.014147378	-3.9305653e-05	0
0.0755	0.014182108	-3.8111644e-05	0
0.076	0.014216108	-3.6948131e-05	0
0.0765	0.01424939	-3.5811702e-05	0
0.077	0.014281952	-3.4701264e-05	0
0.0775	0.014313814	-3.3616666e-05	0
0.078	0.014344968	-3.2556597e-05	0
0.0785	0.014375434	-3.1520853e-05	0
0.079	0.01440507	-3.0609831e-05	0
0.0795	0.014433902	-2.962553e-05	0
0.08	0.014462075	-2.8661697e-05	0
0.0805	0.014489602	-2.7717351e-05	0
0.081	0.014516505	-2.6792922e-05	0
0.0815	0.014542793	-2.5887994e-05	0
0.082	0.014568478	-2.5002359e-05	0
0.0825	0.014593576	-2.413616e-05	0
0.083	0.01461809	-2.3288696e-05	0
0.0835	0.014642032	-2.246011e-05	0
0.084	0.014665409	-2.1649893e-05	0
0.0845	0.014688232	-2.0857289e-05	0
0.085	0.014710509	-2.0081919e-05	0
0.0855	0.01473225	-1.9323514e-05	0
0.086	0.014753459	-1.8581198e-05	0
0.0865	0.014774139	-1.7846461e-05	0
0.087	0.014793946	-1.7085922e-05	0
0.0875	0.014813201	-1.6390653e-05	0
0.088	0.014831985	-1.5710514e-05	0
0.0885	0.014850302	-1.5044496e-05	0
0.089	0.014868166	-1.4392911e-05	0
0.0895	0.01488558	-1.3754894e-05	0
0.09	0.014902556	-1.3130243e-05	0
0.0905	0.0149191	-1.2518418e-05	0
0.091	0.014935225	-1.1920074e-05	0
0.0915	0.014951062	-1.1391749e-05	0
0.092	0.01496737	-1.1055099e-05	0
0.0925	0.014983806	-1.0518185e-05	0
0.093	0.014999851	-9.9477884e-06	0
0.0935	0.015015449	-9.3890425e-06	0
0.094	0.015030603	-8.8420307e-06	0
0.0945	0.015045512	-8.4336554e-06	0
0.095	0.015060286	-7.9046156e-06	0
0.0955	0.015074628	-7.3847017e-06	0
0.096	0.015088564	-6.8768916e-06	0
0.0965	0.015102113	-6.3806155e-06	0
0.097	0.01511527	-5.8925552e-06	0
0.0975	0.015128062	-5.4155636e-06	0
0.098	0.015140492	-4.9490011e-06	0
0.0985	0.015152803	-4.5145402e-06	0
0.099	0.015164836	-4.0634875e-06	0
0.0995	0.01517622	-3.5785974e-06	0
0.1	0.015186881	-3.1471371e-06	0
0.1005	0.01519725	-2.72328e-06	0
0.101	0.015207337	-2.3080038e-06	0
0.1015	0.015217147	-1.9005486e-06	0
0.102	0.0152267	-1.5016666e-06	0
0.1025	0.015235993	-1.1102082e-06	0
0.103	0.015245034	-7.2572747e-07	0
0.1035	0.01525384	-3.4998965e-07	0
0.104	0.015262409	2.0210592e-08	0
0.1045	0.015270757	3.8198183e-07	0
0.105	0.015278881	7.3808102e-07	0
0.1055	0.015286798	1.0869358e-06	0
0.106	0.015294512	1.428591e-06	0
0.1065	0.015302025	1.7651514e-06	0
0.107	0.015309335	2.0676972e-06	0
0.1075	0.015316457	2.3537194e-06	0
0.108	0.015323379	2.6637464e-06	0
0.1085	0.015330128	2.9748657e-06	0
0.109	0.015336764	3.0518655e-06	0
0.1095	0.015343301	3.366671e-06	0
0.11	0.015349675	3.6808596e-06	0
0.1105	0.0153559	3.9888125e-06	0
0.111	0.015361977	4.2907631e-06	0
0.1115	0.01536791	4.5866929e-06	0
0.112	0.015373706	4.8778766e-06	0
0.1125	0.01537937	5.1631761e-06	0
0.113	0.015384906	5.4430562e-06	0
0.1135	0.01539032	5.7176651e-06	0
0.114	0.015395616	5.9871156e-06	0
0.1145	0.0154008	6.2512319e-06	0
0.115	0.015405907	6.497317e-06	0
0.1155	0.015410918	6.7509373e-06	0
0.116	0.015415815	6.9998508e-06	0
0.1165	0.01542051	7.2451711e-06	0
0.117	0.015425112	7.4859914e-06	0
0.1175	0.015429624	7.7222907e-06	0
0.118	0.015434052	7.9542087e-06	0
0.1185	0.015438399	8.1818593e-06	0
0.119	0.015442669	8.4061167e-06	0
0.1195	0.015446866	8.6247415e-06	0
0.12	0.015450993	8.8401255e-06	0
0.1205	0.015455053	9.0516112e-06	0
0.121	0.01545905	9.2600007e-06	0
0.1215	0.015462912	9.4023299e-06	0
0.122	0.015466447	9.4545183e-06	0
0.1225	0.015469759	9.6612207e-06	0
0.123	0.015473045	9.8664238e-06	0
0.1235	0.015476301	1.0066603e-05	0
0.124	0.015479535	1.0263578e-05	0
0.1245	0.015482743	1.0457271e-05	0
0.125	0.01548593	1.0647057e-05	0
0.1255	0.015489097	1.0832699e-05	0
0.126	0.015492248	1.1016071e-05	0
0.1265	0.015495382	1.1195452e-05	0
0.127	0.015498508	1.1338818e-05	0
0.1275	0.015501749	1.1372318e-05	0
0.128	0.015505001	1.1544611e-05	0
0.1285	0.015508231	1.1715512e-05	0
0.129	0.015511443	1.1882695e-05	0
0.1295	0.015514637	1.2046013e-05	0
0.13	0.015517821	1.2208116e-05	0
0.1305	0.01552099	1.2366105e-05	0
0.131	0.015524151	1.252272e-05	0
0.1315	0.0155273	1.2675532e-05	0
0.132	0.015530442	1.2826183e-05	0
0.1325	0.015533579	1.2974755e-05	0
0.133	0.015536707	1.3119878e-05	0
0.1335	0.015539834	1.3263458e-05	0
0.134	0.015542955	1.3403562e-05	0
0.1345	0.015546079	1.3542562e-05	0
0.135	0.015549199	1.3678213e-05	0
0.1355	0.015552321	1.381228e-05	0
0.136	0.015555446	1.3944312e-05	0
0.1365	0.015558575	1.4074598e-05	0
0.137	0.015561706	1.4201889e-05	0
0.1375	0.015564843	1.4327506e-05	0
0.138	0.015567987	1.4451086e-05	0
0.1385	0.015571138	1.4572653e-05	0
0.139	0.015574297	1.4692246e-05	0
0.1395	0.015577466	1.4810316e-05	0
0.14	0.015580646	1.4916589e-05	0
0.1405	0.015583922	1.5009311e-05	0
0.141	0.015587214	1.5122822e-05	0
0.1415	0.01559055	1.5025147e-05	0
0.142	0.015594	1.5141454e-05	0
0.1425	0.015597446	1.5249871e-05	0
0.143	0.01560082	1.5363031e-05	0
0.1435	0.015604138	1.5470351e-05	0
0.144	0.015607456	1.5576459e-05	0
0.1445	0.015610775	1.5681088e-05	0
0.145	0.015614097	1.5783813e-05	0
0.1455	0.015617422	1.5884823e-05	0
0.146	0.015620755	1.598471e-05	0
0.1465	0.015624091	1.6082288e-05	0
0.147	0.015627436	1.6178905e-05	0
0.1475	0.015630787	1.6273601e-05	0
0.148	0.015634145	1.6366378e-05	0
0.1485	0.015637514	1.6458297e-05	0
0.149	0.015640891	1.6548028e-05	0
0.1495	0.015644282	1.6636142e-05	0
0.15	0.015647681	1.6722499e-05	0
0.1505	0.015651095	1.6808552e-05	0
0.151	0.01565452	1.68925e-05	0
0.1515	0.015657961	1.6975729e-05	0
0.152	0.015661415	1.7057124e-05	0
0.1525	0.015664886	1.7137238e-05	0
0.153	0.015668372	1.721544e-05	0
0.1535	0.015671876	1.7293071e-05	0
0.154	0.015675397	1.7369145e-05	0
0.1545	0.015678935	1.744336e-05	0
0.155	0.015682494	1.751702e-05	0
0.1555	0.015686069	1.7588324e-05	0
0.156	0.015689666	1.7658656e-05	0
0.1565	0.015693283	1.7728136e-05	0
0.157	0.015696921	1.7796288e-05	0
0.1575	0.015700561	1.7862202e-05	0
0.158	0.015704223	1.7928303e-05	0
0.1585	0.015707907	1.7993433e-05	0
0.159	0.015711612	1.8057511e-05	0
0.1595	0.015715322	1.8157466e-05	0
0.16	0.01571905	1.8220612e-05	0
0.1605	0.015722803	1.8282388e-05	0
0.161	0.015726577	1.8342431e-05	0
0.1615	0.015730377	1.8401981e-05	0
0.162	0.0157342	1.8460155e-05	0
0.1625	0.01573805	1.8516078e-05	0
0.163	0.015741941	1.857016e-05	0
0.1635	0.015745858	1.8627416e-05	0
0.164	0.015749798	1.8682817e-05	0
0.1645	0.015753766	1.8738355e-05	0
0.165	0.015757756	1.8791739e-05	0
0.1655	0.015761774	1.8845004e-05	0
0.166	0.015765816	1.8896282e-05	0
0.1665	0.015769883	1.8946081e-05	0
0.167	0.015773979	1.8996232e-05	0
0.1675	0.015778097	1.9044448e-05	0
0.168	0.015782244	1.90928e-05	0
0.1685	0.015786416	1.9139713e-05	0
0.169	0.015790614	1.9185667e-05	0
0.1695	0.015794838	1.9230366e-05	0
0.17	0.015799089	1.9274754e-05	0
0.1705	0.015803473	1.9310541e-05	0
0.171	0.015807964	1.9353147e-05	0
0.1715	0.015812474	1.9394716e-05	0
0.172	0.015817001	1.943539e-05	0
0.1725	0.015821547	1.9474929e-05	0
0.173	0.01582611	1.9513909e-05	0
0.1735	0.015830693	1.9551945e-05	0
0.174	0.015835194	1.9604498e-05	0
0.1745	0.015839701	1.9642252e-05	0
0.175	0.015844226	1.9678462e-05	0
0.1755	0.015848769	1.9713831e-05	0
0.176	0.01585333	1.9748324e-05	0
0.1765	0.015857911	1.9781943e-05	0
0.177	0.01586251	1.9814316e-05	0
0.1775	0.015867128	1.9845917e-05	0
0.178	0.015871763	1.9876375e-05	0
0.1785	0.015876417	1.9906294e-05	0
0.179	0.015881089	1.9935749e-05	0
0.1795	0.015885865	1.9835707e-05	0
0.18	0.015890681	1.9866074e-05	0
0.1805	0.015895499	1.989556e-05	0
0.181	0.015900324	1.9924607e-05	0
0.1815	0.015905156	1.9952609e-05	0
0.182	0.015909998	1.9980064e-05	0
0.1825	0.015914849	2.0006795e-05	0
0.183	0.015919709	2.0032795e-05	0
0.1835	0.015924579	2.0058061e-05	0
0.184	0.015929458	2.0082591e-05	0
0.1845	0.015934347	2.0106389e-05	0
0.185	0.015939246	2.0129461e-05	0
0.1855	0.015944156	2.0151966e-05	0
0.186	0.015949111	2.0119776e-05	0
0.1865	0.015954153	2.0143087e-05	0
0.187	0.015959202	2.0166649e-05	0
0.1875	0.015964258	2.0189296e-05	0
0.188	0.015969319	2.0210907e-05	0
0.1885	0.015974388	2.0228676e-05	0
0.189	0.015979464	2.0242923e-05	0
0.1895	0.015984546	2.0261955e-05	0
0.19	0.015989636	2.0280745e-05	0
0.1905	0.015994787	2.0307258e-05	0
0.191	0.015999976	2.0324452e-05	0
0.1915	0.016005174	2.0341285e-05	0
0.192	0.016010374	2.0405127e-05	0
0.1925	0.016015556	2.0426867e-05	0
0.193	0.016020748	2.0442989e-05	0
0.1935	0.016025946	2.0458103e-05	0
0.194	0.016031154	2.0472732e-05	0
0.1945	0.016036371	2.048669e-05	0
0.195	0.016041597	2.0499987e-05	0
0.1955	0.016046832	2.0512624e-05	0
0.196	0.016052077	2.0524603e-05	0
0.1965	0.01605733	2.0535928e-05	0
0.197	0.016062592	2.05466e-05	0
0.1975	0.016067863	2.0556625e-05	0
0.198	0.016073143	2.0566005e-05	0
0.1985	0.016078431	2.0574745e-05	0
0.199	0.016083729	2.0582848e-05	0
0.1995	0.016089035	2.0590318e-05	0
0.2	0.016094349	2.0597156e-05	0
0.2005	0.016099674	2.0586633e-05	0
0.201	0.016105019	2.0595076e-05	0
0.2015	0.016110374	2.0602997e-05	0
0.202	0.01611573	2.0618293e-05	0
0.2025	0.016121093	2.0625035e-05	0
0.203	0.016126466	2.0630672e-05	0
0.2035	0.01613185	2.0635656e-05	0
0.204	0.016137243	2.0639959e-05	0
0.2045	0.016142645	2.0643578e-05	0
0.205	0.016148058	2.0646517e-05	0
0.2055	0.01615348	2.0649054e-05	0
0.206	0.016158912	2.0650973e-05	0
0.2065	0.016164354	2.0652198e-05	0
0.207	0.016169805	2.0652736e-05	0
0.2075	0.016175265	2.0652592e-05	0
0.208	0.016180734	2.0651771e-05	0
0.2085	0.016186195	2.0679597e-05	0
0.209	0.016191574	2.0680935e-05	0
0.2095	0.016196959	2.0679265e-05	0
0.21	0.016202353	2.067696e-05	0
0.2105	0.016207755	2.0673972e-05	0
0.211	0.016213164	2.0672476e-05	0
0.2115	0.016218575	2.0673886e-05	0
0.212	0.016223989	2.0669422e-05	0
0.2125	0.016229411	2.0663222e-05	0
0.213	0.01623484	2.0656286e-05	0
0.2135	0.016240276	2.0648666e-05	0
0.214	0.016245721	2.0640416e-05	0
0.2145	0.016251173	2.0631547e-05	0
0.215	0.016256632	2.0622056e-05	0
0.2155	0.016262097	2.0611939e-05	0
0.216	0.016267569	2.0601191e-05	0
0.2165	0.016273048	2.0589811e-05	0
0.217	0.016278532	2.0577798e-05	0
0.2175	0.016284022	2.0565152e-05	0
0.218	0.016289518	2.0551788e-05	0
0.2185	0.016295019	2.0537593e-05	0
0.219	0.016300525	2.052279e-05	0
0.2195	0.016306036	2.0507384e-05	0
0.22	0.016311551	2.0491375e-05	0
0.2205	0.016317071	2.0474766e-05	0
0.221	0.016322595	2.0457557e-05	0
0.2215	0.016328122	2.0440024e-05	0
0.222	0.016333653	2.0421898e-05	0
0.2225	0.016339188	2.0403158e-05	0
0.223	0.016344725	2.0383807e-05	0
0.2235	0.016350265	2.036385e-05	0
0.224	0.016355807	2.0343289e-05	0
0.2245	0.016361351	2.0332121e-05	0
0.225	0.016366871	2.0367675e-05	0
0.2255	0.016372386	2.034766e-05	0
0.226	0.016377901	2.0326435e-05	0
0.2265	0.016383418	2.0304838e-05	0
0.227	0.016388935	2.0282688e-05	0
0.2275	0.016394453	2.025997e-05	0
0.228	0.016399971	2.0236689e-05	0
0.2285	0.01640549	2.0212845e-05	0
0.229	0.016411007	2.0188441e-05	0
0.2295	0.016416524	2.0163479e-05	0
0.23	0.016422076	2.0101354e-05	0
0.2305	0.01642763	2.007826e-05	0
0.231	0.016433174	2.0054562e-05	0
0.2315	0.01643871	2.0030338e-05	0
0.232	0.016444241	2.000556e-05	0
0.2325	0.016449765	1.9980234e-05	0
0.233	0.016455285	1.996106e-05	0
0.2335	0.016461035	1.9953742e-05	0
0.234	0.016466795	1.9931804e-05	0
0.2345	0.016472537	1.9908861e-05	0
0.235	0.016478264	1.9885161e-05	0
0.2355	0.016483976	1.9860518e-05	0
0.236	0.016489675	1.9835165e-05	0
0.2365	0.01649536	1.9809225e-05	0
0.237	0.016501031	1.9782515e-05	0
0.2375	0.016506687	1.9755037e-05	0
0.238	0.01651233	1.9726789e-05	0
0.2385	0.016517959	1.9697772e-05	0
0.239	0.016523575	1.9667991e-05	0
0.2395	0.016529178	1.9637666e-05	0
0.24	0.016534768	1.96066e-05	0
0.2405	0.016540345	1.957476e-05	0
0.241	0.016545994	1.9521723e-05	0
0.2415	0.016551669	1.9487141e-05	0
0.242	0.016557334	1.9451751e-05	0
0.2425	0.016562988	1.9415657e-05	0
0.243	0.016568631	1.9378823e-05	0
0.2435	0.016574262	1.9341257e-05	0
0.244	0.016579812	1.9211755e-05	0
0.2445	0.016585216	1.917453e-05	0
0.245	0.016590608	1.9135515e-05	0
0.2455	0.016595995	1.9097244e-05	0
0.246	0.016601377	1.9058051e-05	0
0.2465	0.016606737	1.9054804e-05	0
0.247	0.016612011	1.9030783e-05	0
0.2475	0.016617271	1.8990821e-05	0
0.248	0.016622527	1.8950344e-05	0
0.2485	0.016627778	1.8909171e-05	0
0.249	0.016633024	1.8867254e-05	0
0.2495	0.016638264	1.8824594e-05	0
0.25	0.016643497	1.8784763e-05	0
0.2505	0.016648721	1.8749242e-05	0
0.251	0.016653937	1.8705201e-05	0
0.2515	0.016659145	1.8659947e-05	0
0.252	0.016664347	1.8613972e-05	0
0.2525	0.016669542	1.8567242e-05	0
0.253	0.01667473	1.8519769e-05	0
0.2535	0.016679911	1.8471557e-05	0
0.254	0.016685084	1.8422596e-05	0
0.2545	0.016690249	1.8372902e-05	0
0.255	0.016695407	1.8322316e-05	0
0.2555	0.016700556	1.8270973e-05	0
0.256	0.016705696	1.8218937e-05	0
0.2565	0.016710828	1.8166214e-05	0
0.257	0.016715947	1.8142814e-05	0
0.2575	0.016721031	1.8133718e-05	0
0.258	0.0167261	1.8081311e-05	0
0.2585	0.016731158	1.8027812e-05	0
0.259	0.016736206	1.7973828e-05	0
0.2595	0.016741244	1.7919205e-05	0
0.26	0.016746271	1.7864102e-05	0
0.2605	0.016751287	1.7808391e-05	0
0.261	0.016756291	1.7752023e-05	0
0.2615	0.016761284	1.7695e-05	0
0.262	0.016766264	1.7637328e-05	0
0.2625	0.016771233	1.7579011e-05	0
0.263	0.016776188	1.7520054e-05	0
0.2635	0.016781131	1.7460462e-05	0
0.264	0.016786059	1.740096e-05	0
0.2645	0.016790975	1.7339339e-05	0
0.265	0.016795878	1.7277903e-05	0
0.2655	0.016800769	1.7215844e-05	0
0.266	0.016805702	1.7140992e-05	0
0.2665	0.016810646	1.7079269e-05	0
0.267	0.016815571	1.7016899e-05	0
0.2675	0.016820478	1.695534e-05	0
0.268	0.016825369	1.6892787e-05	0
0.2685	0.016830242	1.6829217e-05	0
0.269	0.016835097	1.6764616e-05	0
0.2695	0.016839934	1.6698998e-05	0
0.27	0.016844753	1.6632374e-05	0
0.2705	0.016849552	1.6564756e-05	0
0.271	0.016854333	1.6495933e-05	0
0.2715	0.016859095	1.6426601e-05	0
0.272	0.016863838	1.6357049e-05	0
0.2725	0.016868562	1.6287499e-05	0
0.273	0.016873267	1.621728e-05	0
0.2735	0.016877952	1.614639e-05	0
0.274	0.016882618	1.6074828e-05	0
0.2745	0.016887263	1.600245e-05	0
0.275	0.01689189	1.5929689e-05	0
0.2755	0.016896496	1.5856107e-05	0
0.276	0.016901082	1.5781853e-05	0
0.2765	0.01690567	1.5762712e-05	0
0.277	0.016910325	1.5689733e-05	0
0.2775	0.016914997	1.5680821e-05	0
0.278	0.01691985	1.5644697e-05	0
0.2785	0.016924693	1.5569469e-05	0
0.279	0.016929506	1.5493058e-05	0
0.2795	0.016934288	1.5415918e-05	0
0.28	0.016939039	1.5337863e-05	0
0.2805	0.01694376	1.5258659e-05	0
0.281	0.016948452	1.5179005e-05	0
0.2815	0.016953113	1.5098221e-05	0
0.282	0.016957744	1.501655e-05	0
0.2825	0.016962343	1.493148e-05	0
0.283	0.016966911	1.4845051e-05	0
0.2835	0.01697145	1.4758444e-05	0
0.284	0.016975958	1.4672894e-05	0
0.2845	0.016980435	1.4588983e-05	0
0.285	0.016984882	1.4504166e-05	0
0.2855	0.016989299	1.4418465e-05	0
0.286	0.016993688	1.4331856e-05	0
0.2865	0.016998048	1.4244325e-05	0
0.287	0.017002343	1.4222437e-05	0
0.2875	0.017006598	1.4078899e-05	0
0.288	0.017010907	1.397443e-05	0
0.2885	0.017015203	1.3883626e-05	0
0.289	0.017019472	1.379212e-05	0
0.2895	0.017023713	1.3699682e-05	0
0.29	0.017027926	1.3606381e-05	0
0.2905	0.01703211	1.3512232e-05	0
0.291	0.017036266	1.3417251e-05	0
0.2915	0.017040371	1.3396161e-05	0
0.292	0.017044448	1.3303475e-05	0
0.2925	0.017048507	1.3207803e-05	0
0.293	0.017052538	1.3111721e-05	0
0.2935	0.017056541	1.3014921e-05	0
0.294	0.017060517	1.2917373e-05	0
0.2945	0.017064464	1.2819092e-05	0
0.295	0.017068383	1.2719859e-05	0
0.2955	0.017072274	1.2620366e-05	0
0.296	0.017076137	1.2519939e-05	0
0.2965	0.017079972	1.2418818e-05	0
0.297	0.017083778	1.2317012e-05	0
0.2975	0.017087556	1.2214534e-05	0
0.298	0.017091305	1.2111393e-05	0
0.2985	0.017095026	1.2007599e-05	0
0.299	0.017098718	1.1903136e-05	0
0.2995	0.017102383	1.1797918e-05	0
0.3	0.017106018	1.1692063e-05	0
0.3005	0.017109624	1.1586756e-05	0
0.301	0.017113199	1.1481509e-05	0
0.3015	0.017116747	1.1376124e-05	0
0.302	0.017120264	1.1268465e-05	0
0.3025	0.017123762	1.1152243e-05	0
0.303	0.01712733	1.1044412e-05	0
0.3035	0.017130868	1.0936342e-05	0
0.304	0.017134375	1.0827461e-05	0
0.3045	0.01713785	1.0717869e-05	0
0.305	0.017141296	1.060759e-05	0
0.3055	0.017144711	1.0496711e-05	0
0.306	0.017148095	1.0385235e-05	0
0.3065	0.017151449	1.0273159e-05	0
0.307	0.017154771	1.0160483e-05	0
0.3075	0.017158062	1.0047207e-05	0
0.308	0.017161322	9.9333335e-06	0
0.3085	0.017164551	9.8188637e-06	0
0.309	0.017167749	9.7037997e-06	0
0.3095	0.017170915	9.5881428e-06	0
0.31	0.017174051	9.4718938e-06	0
0.3105	0.017177154	9.3550534e-06	0
0.311	0.017180227	9.2376221e-06	0
0.3115	0.017183268	9.1197105e-06	0
0.312	0.017186278	9.0012595e-06	0
0.3125	0.017189256	8.8822066e-06	0
0.313	0.017192203	8.7630688e-06	0
0.3135	0.017195118	8.6433382e-06	0
0.314	0.017198002	8.5229839e-06	0
0.3145	0.017200852	8.4017673e-06	0
0.315	0.017203674	8.2804051e-06	0
0.3155	0.017206462	8.1581881e-06	0
0.316	0.017209219	8.0353529e-06	0
0.3165	0.017211944	7.9119009e-06	0
0.317	0.017214638	7.7878343e-06	0
0.3175	0.0172173	7.663154e-06	0
0.318	0.01721993	7.5378615e-06	0
0.3185	0.017222529	7.4119582e-06	0
0.319	0.017225095	7.2854455e-06	0
0.3195	0.017227631	7.1583251e-06	0
0.32	0.017230134	7.0305983e-06	0
0.3205	0.017232606	6.9022668e-06	0
0.321	0.017235046	6.7733322e-06	0
0.3215	0.017237455	6.6439628e-06	0
0.322	0.017239831	6.513659e-06	0
0.3225	0.017242177	6.3829277e-06	0
0.323	0.01724449	6.2515978e-06	0
0.3235	0.017246781	6.1298082e-06	0
0.324	0.017249207	6.1445365e-06	0
0.3245	0.017251723	6.013412e-06	0
0.325	0.017254195	5.8782344e-06	0
0.3255	0.017256625	5.7433963e-06	0
0.326	0.017259012	5.6074995e-06	0
0.3265	0.017261357	5.4709596e-06	0
0.327	0.017263725	5.4735396e-06	0
0.3275	0.017266113	5.3352073e-06	0
0.328	0.017268458	5.1946186e-06	0
0.3285	0.017270762	5.0646537e-06	0
0.329	0.017273009	4.9826498e-06	0
0.3295	0.017275212	4.842321e-06	0
0.33	0.017277314	4.7736906e-06	0
0.3305	0.017279324	4.6339191e-06	0
0.331	0.017281296	4.4923626e-06	0
0.3315	0.017283229	4.3503819e-06	0
0.332	0.017285123	4.2076674e-06	0
0.3325	0.017286978	4.0641876e-06	0
0.333	0.017288796	3.919954e-06	0
0.3335	0.017290574	3.7749732e-06	0
0.334	0.017292332	3.6101619e-06	0
0.3345	0.017294135	3.3508895e-06	0
0.335	0.017295958	3.1517608e-06	0
0.3355	0.01729779	3.0020883e-06	0
0.336	0.017299583	2.8518084e-06	0
0.3365	0.01730134	2.7011032e-06	0
0.337	0.017303058	2.5497754e-06	0
0.3375	0.017304736	2.3974524e-06	0
0.338	0.017306377	2.2446684e-06	0
0.3385	0.017307981	2.0913265e-06	0
0.339	0.017309547	1.9374458e-06	0
0.3395	0.017311076	1.7830381e-06	0
0.34	0.017312568	1.6281116e-06	0
0.3405	0.017314022	1.4726735e-06	0
0.341	0.01731544	1.3167796e-06	0
0.3415	0.017316822	1.1604776e-06	0
0.342	0.017318166	1.0033671e-06	0
0.3425	0.017319473	8.4595451e-07	0
0.343	0.017320745	6.8807873e-07	0
0.3435	0.01732198	5.2975004e-07	0
0.344	0.01732318	3.7124664e-07	0
0.3445	0.017324342	2.1181813e-07	0
0.345	0.01732547	5.217053e-08	0
0.3455	0.017326562	-1.0768576e-07	0
0.346	0.017327618	-2.6803223e-07	0
0.3465	0.017328638	-4.2897756e-07	0
0.347	0.017329622	-5.9059258e-07	0
0.3475	0.017330572	-7.5220608e-07	0
0.348	0.017331486	-9.1460426e-07	0
0.3485	0.017332366	-1.076948e-06	0
0.349	0.017333211	-1.2403124e-06	0
0.3495	0.017334021	-1.4036398e-06	0
0.35	0.017334796	-1.5675053e-06	0
0.3505	0.017335537	-1.7317751e-06	0
0.351	0.017336243	-1.8964361e-06	0
0.3515	0.017336916	-2.0614858e-06	0
0.352	0.017337554	-2.2269208e-06	0
0.3525	0.017338158	-2.395376e-06	0
0.353	0.017338729	-2.5667344e-06	0
0.3535	0.017339266	-2.7383257e-06	0
0.354	0.017339769	-2.9101723e-06	0
0.3545	0.017340239	-3.0826717e-06	0
0.355	0.017340676	-3.2505662e-06	0
0.3555	0.01734108	-3.4187214e-06	0
0.356	0.017341451	-3.5870277e-06	0
0.3565	0.017341789	-3.7559326e-06	0
0.357	0.017342095	-3.9250042e-06	0
0.3575	0.017342368	-4.0946527e-06	0
0.358	0.017342609	-4.2644806e-06	0
0.3585	0.017342818	-4.4347795e-06	0
0.359	0.017343023	-4.6064834e-06	0
0.3595	0.017343268	-4.7761785e-06	0
0.36	0.017343479	-4.9465509e-06	0
0.3605	0.017343657	-5.1174006e-06	0
0.361	0.017343802	-5.2884558e-06	0
0.3615	0.017343913	-5.460069e-06	0
0.362	0.017343991	-5.6319218e-06	0
0.3625	0.017344036	-5.8045007e-06	0
0.363	0.017344048	-5.9772581e-06	0
0.3635	0.017344029	-6.1508829e-06	0
0.364	0.017343976	-6.3247226e-06	0
0.3645	0.017343891	-6.4990486e-06	0
0.365	0.017343775	-6.6737431e-06	0
0.3655	0.017343626	-6.848931e-06	0
0.366	0.017343446	-7.0244693e-06	0
0.3665	0.017343234	-7.2004671e-06	0
0.367	0.01734299	-7.3769182e-06	0
0.3675	0.017342716	-7.5537192e-06	0
0.368	0.017342411	-7.7310074e-06	0
0.3685	0.017342074	-7.9086496e-06	0
0.369	0.017341707	-8.0866381e-06	0
0.3695	0.01734131	-8.264333e-06	0
0.37	0.017340882	-8.4425306e-06	0
0.3705	0.017340424	-8.6211433e-06	0
0.371	0.017339937	-8.8001803e-06	0
0.3715	0.017339419	-8.9796953e-06	0
0.372	0.017338873	-9.1565334e-06	0
0.3725	0.017338294	-9.2812683e-06	0
0.373	0.017337687	-9.460843e-06	0
0.3735	0.01733705	-9.6410589e-06	0
0.374	0.017336386	-9.8216628e-06	0
0.3745	0.017335694	-1.0002724e-05	0
0.375	0.017335096	-1.0039706e-05	0
0.3755	0.017334547	-9.98535e-06	0
0.376	0.017334152	-1.0155617e-05	0
0.3765	0.017333702	-1.0306939e-05	0
0.377	0.017333159	-1.0461559e-05	0
0.3775	0.017332553	-1.0645663e-05	0
0.378	0.017331906	-1.0830549e-05	0
0.3785	0.017331221	-1.1016448e-05	0
0.379	0.017330497	-1.1203208e-05	0
0.3795	0.017329735	-1.1390711e-05	0
0.38	0.017328934	-1.1578885e-05	0
0.3805	0.017328096	-1.1767811e-05	0
0.381	0.01732722	-1.1957405e-05	0
0.3815	0.017326308	-1.214764e-05	0
0.382	0.01732536	-1.2338369e-05	0
0.3825	0.017324376	-1.2529792e-05	0
0.383	0.017323357	-1.272186e-05	0
0.3835	0.017322302	-1.291457e-05	0
0.384	0.017321213	-1.3107937e-05	0
0.3845	0.017320089	-1.3301906e-05	0
0.385	0.017318932	-1.3496519e-05	0
0.3855	0.01731774	-1.3691731e-05	0
0.386	0.017316516	-1.3887566e-05	0
0.3865	0.017315327	-1.4187179e-05	0
0.387	0.017314137	-1.4534959e-05	0
0.3875	0.017312912	-1.4883019e-05	0
0.388	0.017311742	-1.5101499e-05	0
0.3885	0.017310551	-1.5302062e-05	0
0.389	0.017309325	-1.5503229e-05	0
0.3895	0.017308065	-1.5704962e-05	0
0.39	0.017306771	-1.5907216e-05	0
0.3905	0.017305444	-1.6109927e-05	0
0.391	0.017304085	-1.6313108e-05	0
0.3915	0.017302693	-1.6516781e-05	0
0.392	0.017301269	-1.6720858e-05	0
0.3925	0.017299814	-1.6925392e-05	0
0.393	0.017298327	-1.7130338e-05	0
0.3935	0.01729681	-1.7335712e-05	0
0.394	0.017295262	-1.7541487e-05	0
0.3945	0.017293684	-1.7747658e-05	0
0.395	0.017292076	-1.7954236e-05	0
0.3955	0.017290439	-1.8161189e-05	0
0.396	0.017288773	-1.8368535e-05	0
0.3965	0.017287078	-1.8576252e-05	0
0.397	0.017285355	-1.8784336e-05	0
0.3975	0.017283603	-1.8992798e-05	0
0.398	0.017281824	-1.9201616e-05	0
0.3985	0.017280018	-1.9410789e-05	0
0.399	0.017278184	-1.9620326e-05	0
0.3995	0.017276324	-1.9830208e-05	0
0.4	0.017274437	-2.0040435e-05	0
0.4005	0.017272524	-2.0251015e-05	0
0.401	0.017270585	-2.046193e-05	0
0.4015	0.01726862	-2.0673184e-05	0
0.402	0.017266631	-2.0884809e-05	0
0.4025	0.017264616	-2.1096808e-05	0
0.403	0.017262584	-2.1315311e-05	0
0.4035	0.017260528	-2.153399e-05	0
0.404	0.017258447	-2.1752735e-05	0
0.4045	0.017256343	-2.1971561e-05	0
0.405	0.017254215	-2.2190449e-05	0
0.4055	0.017252064	-2.2409428e-05	0
0.406	0.01724989	-2.2628482e-05	0
0.4065	0.017247693	-2.2847627e-05	0
0.407	0.017245474	-2.3066847e-05	0
0.4075	0.017243232	-2.3286469e-05	0
0.408	0.017240974	-2.3516821e-05	0
0.4085	0.017238694	-2.3745762e-05	0
0.409	0.017236393	-2.3974678e-05	0
0.4095	0.017234071	-2.4203585e-05	0
0.41	0.017231727	-2.4432474e-05	0
0.4105	0.017229363	-2.4661374e-05	0
0.411	0.017226978	-2.4890277e-05	0
0.4115	0.017224575	-2.5112446e-05	0
0.412	0.017222154	-2.5328768e-05	0
0.4125	0.017219713	-2.5545259e-05	0
0.413	0.017217252	-2.5761937e-05	0
0.4135	0.017214772	-2.5978793e-05	0
0.414	0.017212273	-2.6195834e-05	0
0.4145	0.017209755	-2.641306e-05	0
0.415	0.017207229	-2.6621948e-05	0
0.4155	0.017204689	-2.68285e-05	0
0.416	0.017202131	-2.7036293e-05	0
0.4165	0.017199554	-2.7245309e-05	0
0.417	0.017196959	-2.7455523e-05	0
0.4175	0.017194346	-2.7666905e-05	0
0.418	0.017191715	-2.7879412e-05	0
0.4185	0.017189067	-2.8093019e-05	0
0.419	0.017186402	-2.8307674e-05	0
0.4195	0.017183722	-2.8525412e-05	0
0.42	0.017181034	-2.8749401e-05	0
0.4205	0.017178328	-2.8973559e-05	0
0.421	0.017175606	-2.9197867e-05	0
0.4215	0.017172867	-2.9422297e-05	0
0.422	0.017170111	-2.9646729e-05	0
0.4225	0.017167339	-2.9871112e-05	0
0.423	0.017164551	-3.009562e-05	0
0.4235	0.017161746	-3.032025e-05	0
0.424	0.017158926	-3.0545001e-05	0
0.4245	0.017156091	-3.0769873e-05	0
0.425	0.017153239	-3.0994867e-05	0
0.4255	0.017150373	-3.1219984e-05	0
0.426	0.017147491	-3.1445225e-05	0
0.4265	0.017144595	-3.1670593e-05	0
0.427	0.017141683	-3.189609e-05	0
0.4275	0.017138757	-3.2121718e-05	0
0.428	0.017135816	-3.2347481e-05	0
0.4285	0.017132862	-3.257338e-05	0
0.429	0.017129892	-3.2799415e-05	0
0.4295	0.017126909	-3.3025596e-05	0
0.43	0.017123912	-3.3251919e-05	0
0.4305	0.01712089	-3.3459678e-05	0
0.431	0.017117835	-3.3622273e-05	0
0.4315	0.017114737	-3.3845746e-05	0