/*--------------------------------*- C++ -*----------------------------------*\
| =========                 |                                                 |
| \\      /  F ield         | foam-extend: Open Source CFD                    |
|  \\    /   O peration     | Version:     4.1                                |
|   \\  /    A nd           | Web:         http://www.foam-extend.org         |
|    \\/     M anipulation  |                                                 |
\*---------------------------------------------------------------------------*/
FoamFile
{
    version     2.0;
    format      ascii;
    class       volScalarField;
    location    "0.95";
    object      p;
}
// * * * * * * * * * * * * * * * * * * * * * * * * * * * * * * * * * * * * * //

dimensions      [0 2 -2 0 0 0 0];

internalField   nonuniform List<scalar> 
4393
(
-46.418088
-92.981549
-146.74622
-201.53718
-258.52783
-318.02886
-380.42323
-446.02049
-515.04489
-587.60658
-663.67353
-743.04331
-825.31783
-909.8845
-995.90808
-1082.336
-1167.9178
-1251.236
-1330.7437
-1404.8034
-1471.7238
-1529.7946
-1577.3213
-1612.6658
-1634.3008
-1640.8831
-1631.3583
-1605.1065
-1562.021
-1502.6019
-1428.0604
-1340.3021
-1241.8214
-1135.5188
-1024.4747
-911.72405
-800.0661
-691.93354
-589.32349
-493.78414
-406.44292
-328.0609
-259.09863
-199.78197
-150.17227
-110.23854
-79.761463
-57.83052
-43.626224
-45.165924
-92.39573
-146.03364
-200.67336
-257.49489
-316.84115
-379.10868
-444.61912
-513.60858
-586.19926
-662.37072
-741.93063
-824.48791
-909.43249
-995.9259
-1082.9066
-1169.1104
-1253.1034
-1333.3218
-1408.1124
-1475.769
-1534.5669
-1582.7947
-1618.7929
-1641.0051
-1648.0545
-1638.8516
-1612.7015
-1569.434
-1509.5421
-1434.2428
-1345.4766
-1245.8035
-1138.2098
-1025.8661
-911.88693
-799.13187
-690.0702
-586.71347
-490.60651
-402.86104
-324.21559
-255.10805
-195.75148
-146.19872
-106.35844
-75.959804
-54.86087
-44.262699
-44.361686
-91.498977
-144.77536
-199.0543
-255.52501
-314.56002
-376.57802
-441.9229
-510.85392
-583.51696
-659.91443
-739.87362
-823.01681
-908.73776
-996.19006
-1084.2922
-1171.7506
-1257.0969
-1338.7326
-1414.9723
-1484.0816
-1544.3075
-1593.9065
-1631.1759
-1654.4988
-1662.4185
-1653.7568
-1627.7358
-1584.0935
-1523.2512
-1446.4201
-1355.6099
-1253.5174
-1143.3072
-1028.3362
-911.882
-796.92443
-686.00315
-581.15382
-483.90869
-395.34192
-316.14036
-246.6881
-187.15451
-137.54898
-97.686148
-67.256042
-46.701117
-37.918589
-43.570968
-90.203233
-142.87164
-196.57207
-252.49875
-311.05285
-372.68185
-437.76164
-506.58626
-579.33811
-656.05542
-736.59689
-820.60693
-907.48679
-996.37894
-1086.1715
-1175.5253
-1262.9186
-1346.6997
-1425.136
-1496.4518
-1558.8556
-1610.5596
-1649.8003
-1674.8725
-1684.1971
-1676.45
-1650.702
-1606.5428
-1544.2873
-1465.1335
-1371.1972
-1265.3921
-1151.1676
-1032.1769
-911.9542
-793.66528
-679.95564
-572.89366
-473.98779
-384.25093
-304.28922
-234.40293
-174.68622
-125.07345
-85.289618
-55.020431
-34.932481
-26.788357
-42.745834
-88.585813
-140.40125
-193.29737
-248.47603
-306.36922
-367.45993
-432.16554
-500.82669
-573.67567
-650.80053
-732.10451
-817.26431
-905.69317
-996.51881
-1088.5866
-1180.492
-1270.6377
-1357.2978
-1438.6763
-1512.9454
-1578.2674
-1632.8017
-1674.7105
-1702.1757
-1713.4565
-1707.0268
-1681.7369
-1636.9509
-1572.8157
-1490.4957
-1392.2518
-1281.3098
-1161.5329
-1037.0008
-911.61148
-788.78716
-671.31193
-561.28844
-460.18121
-368.90981
-287.96365
-217.52403
-157.57587
-107.95188
-68.294825
-38.297973
-18.681615
-10.925206
-41.737256
-86.536627
-137.2527
-189.11351
-243.32978
-300.3687
-360.756
-424.96087
-493.38355
-566.32147
-643.92906
-726.17045
-812.76816
-903.15458
-996.43976
-1091.4116
-1186.5766
-1280.2339
-1370.5596
-1455.6768
-1533.6974
-1602.7341
-1660.8908
-1706.2466
-1736.8476
-1750.7482
-1746.1542
-1721.613
-1676.1669
-1609.7078
-1523.3282
-1419.4754
-1301.807
-1174.764
-1043.016
-910.95284
-782.33139
-660.10367
-546.39826
-442.60341
-349.5013
-267.41784
-196.37047
-136.19331
-86.584939
-47.088665
-17.366917
1.8971329
9.4359554
-40.595327
-84.126914
-133.49082
-184.0696
-237.08732
-293.05228
-352.54073
-416.08444
-484.15738
-557.13931
-635.27052
-718.59627
-806.90294
-899.653
-995.937
-1094.4678
-1193.6322
-1291.5911
-1386.3923
-1476.0609
-1558.6433
-1632.2069
-1694.8074
-1744.4409
-1779.0024
-1796.2989
-1794.1915
-1770.8228
-1724.7844
-1655.5842
-1564.1743
-1453.2302
-1326.997
-1190.7101
-1049.8395
-909.42414
-773.64168
-645.63482
-527.53533
-420.60691
-325.43674
-242.13078
-170.49238
-110.16317
-60.678038
-21.458909
7.9058981
26.825464
34.192729
-39.185825
-81.205298
-128.95608
-178.00113
-229.57643
-284.2366
-342.61602
-405.32029
-472.91251
-545.87432
-624.55501
-709.10625
-799.40241
-894.95256
-994.82784
-1097.644
-1201.6276
-1304.7542
-1404.9057
-1499.9892
-1587.9859
-1666.9319
-1734.8539
-1789.6786
-1829.1443
-1850.7702
-1851.9866
-1830.4082
-1784.0033
-1711.7072
-1614.2123
-1494.4614
-1357.4956
-1209.6413
-1057.4476
-906.79703
-762.38135
-627.54244
-504.36872
-393.92625
-296.52854
-211.9897
-139.83903
-79.479571
-30.251388
8.5674525
37.491953
56.045588
63.250345
-37.653266
-77.93069
-123.79652
-171.03239
-220.88965
-273.9748
-330.9879
-392.62008
-459.54046
-532.35514
-611.55034
-697.41639
-789.94895
-888.72942
-992.81428
-1100.6954
-1210.3843
-1319.607
-1426.0296
-1527.4197
-1621.7002
-1706.9041
-1781.0657
-1842.0743
-1887.5205
-1914.6026
-1920.2242
-1901.3212
-1855.0101
-1779.3742
-1674.6437
-1544.0562
-1393.7376
-1231.5224
-1065.4162
-902.38945
-747.74526
-605.00903
-476.14473
-361.91481
-262.25477
-176.59762
-104.12864
-43.961414
4.793141
43.025467
71.376576
89.495902
96.518715
-35.748633
-74.004586
-117.69173
-162.83108
-210.68128
-261.90355
-317.26991
-377.56863
-443.59293
-516.09899
-595.74316
-682.9948
-778.01575
-880.49862
-989.49724
-1103.3459
-1219.7639
-1336.1363
-1449.8437
-1558.4887
-1659.9536
-1752.3154
-1833.6774
-1901.95
-1954.6087
-1988.5106
-1999.9331
-1984.9532
-1939.5384
-1860.5107
-1747.2955
-1603.4201
-1436.5057
-1256.4991
-1073.3811
-895.51705
-728.9118
-577.21605
-442.13613
-323.97919
-222.1655
-135.63774
-63.157761
-3.4962744
44.49834
81.906171
109.50928
127.09069
133.8944
-33.798455
-69.806007
-111.02755
-153.76748
-199.29427
-248.32665
-301.71373
-360.35154
-425.17624
-497.12273
-577.05664
-665.67672
-763.37199
-870.00609
-984.65737
-1105.463
-1229.7429
-1354.4101
-1476.4637
-1593.3136
-1702.8367
-1803.228
-1892.7532
-1969.4373
-2030.7051
-2073.0732
-2092.1017
-2082.7909
-2039.5838
-1957.4469
-1834.4225
-1674.2456
-1486.6326
-1284.5426
-1080.6558
-885.11435
-704.68892
-543.02572
-401.36331
-279.34047
-175.68412
-88.714801
-16.682065
42.041253
88.900247
125.18056
151.81305
168.71897
175.25173
-31.322552
-64.748129
-103.16366
-143.16669
-186.01741
-232.48982
-283.51268
-340.09952
-403.34915
-474.40778
-554.39703
-644.30781
-744.83878
-856.11598
-977.2962
-1106.2744
-1239.8161
-1374.1656
-1505.7975
-1631.8926
-1750.3789
-1859.6767
-1958.3459
-2044.6685
-2116.1331
-2168.955
-2197.9178
-2196.6889
-2157.7308
-2073.3237
-1939.1466
-1758.8879
-1545.2534
-1315.6
-1086.326
-869.81683
-673.60513
-501.08522
-352.70613
-227.14422
-122.20682
-35.437995
35.520072
92.744737
137.99916
172.7826
198.17481
214.23681
220.43434
-28.935179
-59.574802
-94.897772
-131.84649
-171.67476
-215.20962
-263.45898
-317.55983
-378.791
-448.54354
-528.2467
-619.25665
-722.68724
-839.06168
-967.71372
-1106.2497
-1250.6557
-1396.2112
-1538.6593
-1674.9178
-1803.0739
-1921.9416
-2030.5661
-2127.697
-2211.0775
-2276.7083
-2318.5346
-2328.6687
-2297.092
-2212.1906
-2065.6503
-1860.4836
-1613.7477
-1349.4053
-1089.0095
-847.73673
-633.73301
-449.70342
-294.82558
-166.41524
-61.079711
24.587719
93.647546
148.67108
191.75281
224.60236
248.43914
263.46079
269.24798
-25.834015
-53.293215
-85.133049
-118.63322
-155.0084
-195.12708
-240.07046
-291.10109
-349.69367
-417.52118
-496.38199
-588.08657
-694.30308
-816.15803
-953.35026
-1103.175
-1260.5178
-1419.2427
-1574.0487
-1721.5528
-1860.1703
-1989.3324
-2108.7936
-2218.037
-2315.3437
-2396.6679
-2455.0951
-2481.0183
-2461.496
-2379.4174
-2219.7566
-1983.4109
-1693.8832
-1385.4084
-1086.7029
-816.33089
-582.61443
-386.83163
-226.18191
-96.094095
8.3603837
91.724451
157.84645
209.81788
250.06013
280.47482
302.40029
316.16136
321.45416
-22.988108
-47.105426
-75.193994
-104.93074
-137.49218
-173.77952
-214.93849
-262.35376
-317.70539
-382.98258
-460.41714
-552.36828
-661.21864
-788.98521
-936.05203
-1099.4202
-1272.3816
-1446.6539
-1615.3925
-1774.8771
-1924.1535
-2063.6244
-2194.0712
-2316.1105
-2429.0524
-2529.1487
-2608.6668
-2656.1717
-2655.514
-2582.092
-2409.6761
-2133.8895
-1787.8767
-1422.5312
-1076.4486
-772.13671
-517.10476
-310.00062
-145.03106
-15.062836
86.750676
166.26739
228.18174
276.10176
312.74566
340.169
359.79459
372.05697
376.76481
-19.233847
-39.565965
-63.48376
-89.028394
-117.28517
-149.16054
-185.84128
-228.8154
-279.96253
-341.61389
-416.50357
-507.64364
-618.31613
-751.84014
-909.8664
-1089.2832
-1281.1002
-1473.7671
-1658.1681
-1830.2861
-1990.3688
-2140.3232
-2282.2762
-2418.3684
-2549.5375
-2672.7597
-2779.4807
-2856.4134
-2884.435
-2829.559
-2647.2447
-2321.0856
-1898.521
-1458.8301
-1053.884
-710.45631
-433.22362
-216.29524
-49.465198
77.791404
174.63995
248.3935
304.59916
347.33196
379.54209
403.37688
420.29346
430.80933
434.83838
-15.909409
-32.3671
-51.88926
-72.945918
-96.527803
-123.52961
-155.16068
-192.99563
-239.10605
-296.19189
-367.57273
-457.02846
-568.91966
-708.39318
-879.33662
-1079.0052
-1295.0535
-1510.7373
-1713.4062
-1898.7562
-2069.1414
-2228.6938
-2381.118
-2530.4746
-2680.3836
-2829.6022
-2969.1754
-3084.3369
-3154.0978
-3134.0099
-2949.9587
-2559.1593
-2029.2962
-1490.9039
-1012.5329
-624.92289
-325.98986
-102.36163
62.504334
183.47837
272.40357
338.09779
386.88147
423.18215
450.07316
469.70364
483.49809
492.02055
495.27784
-11.483796
-23.591146
-38.294551
-54.438489
-72.847911
-94.362955
-120.16963
-151.8747
-191.68011
-242.61868
-308.63582
-394.36117
-505.33116
-649.10544
-833.4148
-1057.1132
-1303.0063
-1546.0227
-1768.1134
-1964.9737
-2142.9679
-2309.8796
-2471.3043
-2633.6092
-2804.7337
-2986.7688
-3170.347
-3338.4975
-3469.9059
-3511.258
-3344.1355
-2870.7969
-2184.1416
-1512.8684
-942.74341
-506.96001
-189.29293
35.500371
192.7853
302.75234
380.12747
435.11473
474.59943
503.16186
523.83816
538.66007
548.93655
555.23267
557.63099
-7.5458291
-15.399174
-25.214263
-36.272514
-49.208158
-64.76792
-84.068732
-108.69858
-140.93251
-184.11024
-242.90246
-322.98124
-431.14737
-577.96314
-777.58363
-1033.2845
-1320.873
-1601.279
-1847.8891
-2056.6754
-2241.2998
-2415.2285
-2585.4204
-2759.5227
-2951.4761
-3168.7929
-3401.8409
-3630.6649
-3839.9336
-3979.4498
-3868.0208
-3294.1288
-2367.8682
-1515.4518
-830.29161
-345.15796
-15.870263
201.09689
342.92818
435.89211
497.45998
538.82842
567.06166
586.59091
600.2006
609.65909
616.06437
619.93022
621.39381
-2.4939628
-5.6553691
-10.105264
-15.573795
-22.444952
-31.342335
-43.273783
-59.749265
-83.012819
-116.56721
-165.75561
-237.36335
-339.17899
-484.63955
-697.71569
-992.03404
-1333.7592
-1659.6014
-1930.0927
-2142.137
-2323.1115
-2495.5996
-2666.7894
-2843.1707
-3048.9942
-3303.1736
-3599.0877
-3914.1978
-4241.4071
-4553.2171
-4583.0224
-3903.4769
-2589.3095
-1483.2185
-653.42913
-124.34654
202.50914
397.84893
513.68526
582.40063
623.43502
648.17911
663.2703
672.58176
678.38414
682.01815
684.26973
685.54657
686.01712
2.9588592
3.9729963
4.5462446
4.3727353
3.3872827
1.1546181
-3.1202174
-10.724084
-23.652331
-45.261101
-81.374154
-140.13035
-230.27238
-367.38673
-589.87477
-934.90488
-1357.8441
-1750.6807
-2054.8773
-2266.9138
-2439.8708
-2611.5518
-2788.5954
-2969.4133
-3193.9266
-3500.0128
-3883.2979
-4313.0931
-4763.9039
-5291.5201
-5573.8094
-4825.3561
-2837.3001
-1376.24
-376.92388
174.91032
474.15097
627.83625
704.3419
740.6231
756.28215
761.581
761.89299
760.03609
757.47917
754.9691
752.88409
751.47437
750.91685
8.2851127
13.265269
19.323449
25.157874
31.020537
36.677743
41.594975
44.762935
44.510266
37.799694
18.452039
-23.539049
-98.146245
-220.10542
-443.93996
-853.45901
-1397.271
-1876.3993
-2210.7278
-2392.8672
-2530.4172
-2685.6753
-2862.7801
-3027.8164
-3238.6425
-3573.5321
-4023.7155
-4561.7481
-5089.7131
-5960.3615
-6823.7173
-6299.5126
-3074.0109
-1170.9494
36.508726
572.65688
805.01396
890.17552
911.80095
907.31907
893.26108
876.87718
861.26559
847.66303
836.46359
827.6773
821.19862
817.08003
815.48772
17.841093
25.859634
36.761642
47.719617
59.416464
71.80116
84.631271
97.258159
108.52192
116.23534
114.966
93.714929
41.619825
-49.538286
-244.67493
-715.14738
-1441.8673
-2033.5894
-2413.3523
-2545.6979
-2643.0034
-2787.1883
-2982.1447
-3113.6837
-3276.6831
-3677.6986
-4224.3739
-4961.7067
-5679.3075
-7242.855
-8882.0918
-9068.3504
-3578.1275
-1038.2169
635.19541
1099.0942
1197.3529
1178.9814
1129.5293
1077.2904
1030.5894
991.36847
959.44306
934.02622
914.24042
899.27046
888.48664
881.72212
879.12015
22.150351
30.895051
46.13653
62.237988
80.17127
100.10796
122.29175
146.74739
173.26236
201.23781
227.41423
240.71362
225.96238
180.34476
45.407413
-483.28257
-1555.1431
-2311.4709
-2773.6338
-2770.9982
-2749.6517
-2813.1341
-3022.6422
-3099.9111
-3207.176
-3763.2599
-4232.9975
-5185.227
-6470.8474
-7863.4498
-9589.144
-12103.538
-4823.2608
-72.512111
1722.833
1811.9848
1641.1442
1478.7621
1346.2315
1243.2053
1163.5591
1101.9584
1054.3132
1017.6236
989.69224
968.87628
954.03068
944.77248
941.21919
36.936773
46.533082
66.459921
87.313788
110.74778
137.07705
166.90612
200.72025
238.86135
281.66169
327.57333
365.35336
371.82489
347.26462
293.73819
-191.11302
-1818.0613
-2617.1018
-3115.4591
-2772.7564
-2626.7852
-2732.5176
-3131.7459
-3271.1486
-3302.4552
0
0
0
0
0
0
0
0
6202.3774
3402.4585
2582.4976
2068.2405
1755.8614
1545.1272
1396.0903
1287.0033
1205.4569
1143.7796
1096.9969
1061.7487
1035.6659
1017.1523
1005.6387
1001.2243
35.366215
42.182416
64.028038
87.074654
113.20442
142.73915
176.57863
215.67583
261.07389
314.42351
377.5888
445.9875
502.79752
560.82351
710.675
552.79273
-1996.766
-2776.9196
-3646.839
-2968.6281
-3044.3156
-3012.3122
0
0
0
0
0
0
0
0
0
0
10129.576
6286.2561
4123.9571
3000.3264
2361.3149
1969.18
1709.0512
1527.5651
1396.2877
1299.0446
1225.9942
1170.8572
1129.4588
1098.8985
1077.2415
1063.7858
1058.6283
44.26342
54.950033
80.94975
106.97722
136.15395
169.03549
206.87507
251.10341
303.50521
367.07922
447.115
546.08628
653.28607
754.38814
842.1906
568.4658
-3108.1955
-3581.5546
-3205.2579
0
0
0
0
0
0
0
0
0
0
0
1780.6729
3364.5952
5756.1181
5236.0917
3961.3844
3100.1705
2507.145
2107.7421
1830.6562
1632.9939
1488.4316
1380.7327
1299.5716
1238.1954
1192.0532
1157.9595
1133.7826
1118.7554
1112.9943
22.191575
42.165958
66.370504
91.284316
118.75171
149.54651
184.74241
225.50441
273.13142
329.82864
399.49855
478.02579
537.52896
536.24804
558.10849
702.37123
0
0
0
0
0
0
-1132.0647
-1103.5207
-1011.3029
-917.55336
-790.08209
-495.29603
-94.944761
697.0859
2026.4413
3361.9118
4750.9889
4489.8596
3714.8041
3058.6886
2552.6675
2182.2223
1911.4475
1711.6634
1562.3565
1449.5339
1363.6943
1298.3468
1248.9852
1212.3872
1186.3723
1170.1797
1163.968
19.954099
50.021902
74.970103
100.54335
127.96106
158.05617
191.479
228.66419
269.57117
313.41708
357.89874
396.56116
406.1482
338.09252
142.0202
-338.13466
-1284.4057
-1227.4656
-1147.0944
-1100.4725
-1051.0766
-1021.609
-1010.3606
-803.28596
-838.67905
-583.17866
-362.34206
-204.61454
259.08533
904.85671
1960.2944
3049.3249
3956.5672
3851.8986
3404.3001
2933.5991
2528.4637
2206.0176
1956.706
1765.4243
1618.5307
1505.3827
1418.1073
1351.0031
1299.9442
1261.8852
1234.7303
1217.7903
1211.2858
20.663254
46.485118
72.119842
97.971266
125.28579
154.81448
187.1384
222.62416
261.25824
302.1332
342.03404
373.73461
384.81789
353.15802
205.21557
-227.92111
-792.2987
-920.95245
-962.54197
-966.14538
-887.79809
-842.31608
-818.54599
-691.79692
-620.94069
-417.53744
-179.14052
77.745535
510.88933
1096.4684
1896.1887
2721.59
3334.8874
3356.8287
3105.6588
2777.1452
2463.3594
2193.8121
1973.5994
1797.6805
1658.5157
1548.945
1463.0407
1396.1823
1344.8453
1306.3196
1278.6998
1261.4204
1254.7775
14.996498
36.230401
58.796707
81.290672
104.29043
128.03505
152.53002
177.41548
201.78953
223.68876
238.89659
240.18103
218.24927
159.21529
15.076318
-283.90954
-606.89815
-732.45919
-784.51325
-794.28162
-753.12087
-703.47018
-642.23141
-537.75885
-423.88331
-238.24023
-11.495801
269.88643
668.61085
1187.7244
1823.2443
2450.8984
2889.5225
2967.0607
2834.9741
2613.0032
2376.1835
2157.6782
1969.1904
1812.3875
1684.4742
1581.3781
1499.0928
1434.1715
1383.8019
1345.7057
1318.2413
1301.0013
1294.3645
23.838229
46.444682
70.189578
93.655786
117.5438
141.96051
166.72544
191.20992
214.09521
232.81465
242.68394
236.66976
205.98892
135.39825
-7.2580817
-236.54851
-460.15067
-579.8012
-635.37858
-644.5365
-615.83053
-568.28894
-497.27758
-394.45676
-264.34606
-82.930005
139.16375
416.11604
777.02901
1223.7743
1735.5123
2221.7475
2557.2321
2658.5622
2599.6247
2454.8483
2280.1799
2107.1248
1949.7516
1813.4709
1698.7962
1604.1128
1527.1081
1465.4595
1417.0869
1380.1865
1353.4198
1336.5552
1330.0531
12.024065
29.927536
50.031972
70.035491
90.040742
109.92695
129.38588
147.74666
163.76056
175.18261
178.3157
168.0618
137.6391
74.655294
-40.053603
-203.50522
-358.80375
-456.74358
-506.07497
-514.22962
-488.92627
-440.00201
-365.68589
-262.5977
-128.53555
46.967028
261.85718
525.19352
849.67672
1232.3397
1648.6384
2032.8079
2301.9509
2411.5853
2398.1297
2308.5375
2183.1615
2048.953
1920.3888
1804.4674
1703.833
1618.677
1548.066
1490.6681
1445.0922
1410.0069
1384.3887
1368.1833
1361.9252
21.407136
40.632279
60.853899
80.367494
99.45333
117.84318
135.02338
150.10148
161.6288
167.32359
163.94552
147.54889
113.08175
52.274709
-43.555323
-165.61297
-279.00032
-356.12131
-395.68638
-400.45307
-375.18389
-324.72219
-248.67082
-145.27962
-11.771276
156.79522
361.06178
606.02449
895.95418
1224.4183
1567.8686
1878.5098
2101.9992
2212.1896
2227.1487
2176.7627
2089.8457
1988.0697
1885.1019
1788.3918
1701.7432
1626.5716
1562.9928
1510.4929
1468.2885
1435.4878
1411.3718
1396.0527
1390.1268
11.864006
27.968515
45.959586
63.611445
80.820339
97.231762
112.31652
125.22196
134.61712
138.50976
134.22513
118.55959
87.503097
35.680849
-40.000603
-130.42952
-213.52204
-271.8276
-300.84574
-300.62314
-273.45871
-221.63065
-145.02881
-42.508139
87.997067
248.91134
441.01634
666.30295
924.57656
1207.7367
1495.1792
1752.1645
1942.6303
2049.766
2082.4774
2059.9402
2002.6803
1927.6356
1846.8514
1767.6936
1694.4113
1629.1903
1572.8958
1525.6544
1487.1904
1457.0007
1434.645
1420.3825
1414.8557
17.140249
33.237214
50.219877
66.364636
81.714186
95.886606
108.32917
118.22212
124.38334
125.18582
118.61264
102.36306
73.691953
29.626689
-29.987204
-97.380031
-158.13394
-200.45927
-219.38187
-213.53129
-183.55461
-130.34011
-53.761307
46.963223
173.10832
325.7793
505.17753
711.24885
941.4207
1187.1605
1431.2336
1648.3136
1813.9343
1916.496
1960.2208
1957.5
1922.9632
1869.6973
1807.8387
1744.3125
1683.4286
1627.7771
1578.721
1536.8612
1502.3277
1474.9458
1454.5194
1441.4296
1436.3483
11.96576
26.365613
42.104082
57.216496
71.535663
84.633684
95.955482
104.72786
109.8986
110.11378
103.8025
89.277369
64.759267
28.908628
-17.017985
-66.70163
-110.24768
-139.22621
-148.99169
-137.54839
-104.54486
-50.07665
26.07084
124.40165
245.54861
389.78811
556.64986
744.79011
950.47108
1165.4757
1375.7057
1562.5398
1708.9295
1806.452
1856.8912
1868.3012
1851.1332
1815.4455
1769.5706
1719.7268
1670.0979
1623.4089
1581.3269
1544.785
1514.2229
1489.7334
1471.3258
1459.4761
1454.8678
13.672426
27.359505
41.871589
55.550691
68.315678
79.771172
89.415484
96.581261
100.4074
99.84934
93.764144
81.007965
60.560591
32.099785
-2.5877495
-38.474625
-68.499441
-86.40518
-88.107366
-71.428478
-35.48677
20.056884
95.482174
191.07653
307.00396
442.97613
597.96552
769.86817
954.48812
1144.3042
1327.8992
1491.4068
1622.6084
1715.1588
1769.5599
1791.0658
1787.1685
1765.5793
1733.0753
1695.06
1655.4655
1616.9964
1581.473
1550.0441
1523.3753
1501.7693
1485.402
1474.817
1470.6932
11.353652
24.027768
37.645061
50.500523
62.432361
73.046815
81.880134
88.3522
91.760988
91.31309
86.206713
75.733573
59.447099
37.652402
12.277655
-12.650495
-31.894727
-40.642776
-35.40255
-14.035213
24.578149
80.991079
155.50119
248.22123
358.98111
487.10276
631.16508
788.66447
955.35137
1124.5397
1287.0021
1432.2504
1551.2826
1639.1832
1695.7819
1724.5074
1730.7522
1720.4264
1699.0154
1671.1289
1640.3535
1609.2957
1579.8176
1553.1952
1530.2498
1511.4433
1497.0818
1487.7512
1484.1096
11.407333
23.29595
35.923437
47.754332
58.66621
68.305094
76.268595
82.07695
85.182912
85.010872
81.03393
72.877224
60.490205
44.523412
26.848849
10.72298
0.16451941
-1.0260533
10.107795
35.556435
76.501355
133.57612
207.05768
296.91744
402.7493
523.61166
657.83787
802.76151
954.29951
1106.6029
1252.1867
1382.9777
1492.1667
1575.8569
1633.5336
1667.4235
1681.4245
1680.0742
1667.8024
1648.5084
1625.3942
1600.9205
1576.9198
1554.729
1535.2698
1519.1206
1506.6865
1498.5723
1495.4005
10.34362
21.515174
33.418455
44.560544
54.80571
63.829523
71.285901
76.787285
79.923236
80.302181
77.621334
71.763601
62.95221
52.020868
40.713313
31.706611
28.184055
33.208597
49.283585
78.206807
121.12464
178.67045
251.07516
338.19582
439.46153
553.76064
679.29562
813.38493
952.21777
1090.7138
1222.7537
1342.0054
1443.1873
1523.1457
1581.1994
1618.776
1638.7059
1644.485
1639.6925
1627.6187
1611.0849
1592.3733
1573.2535
1555.0741
1538.815
1525.137
1514.5184
1507.563
1504.8413
9.9405375
20.476334
31.6703
42.130037
51.74013
60.213424
67.259909
72.575468
75.865682
76.887292
75.511153
71.808415
66.179442
59.539569
53.483068
50.251774
52.43375
62.546139
82.717463
114.54531
159.09197
216.94646
288.28062
372.85935
469.99857
578.48466
696.47016
821.34416
949.60449
1076.8409
1197.9949
1308.0006
1402.6607
1479.3722
1537.3837
1577.5874
1602.048
1613.4738
1614.7662
1608.7038
1597.7617
1584.0304
1569.1963
1554.5886
1541.2143
1529.7917
1520.8546
1514.9892
1512.6954
9.3564234
19.364666
30.008325
39.956371
49.101955
57.192001
63.988499
69.261824
72.816406
74.529887
74.408762
72.662144
69.802838
66.771083
65.019601
66.461332
73.251428
87.497608
111.02337
145.23805
191.10071
249.13529
319.45097
401.73907
495.23955
598.68455
710.22889
827.37549
946.92612
1065.0343
1177.4594
1280.0627
1369.4275
1443.3623
1501.0963
1543.1604
1571.0688
1586.9367
1593.1315
1592.009
1585.7438
1576.2404
1565.094
1553.598
1542.7655
1533.3543
1525.9455
1521.098
1519.2124
8.9348659
18.485928
28.650096
38.160525
46.922938
54.71584
61.346797
66.648896
70.506796
72.892894
73.915977
73.882724
73.374086
73.325027
75.063652
80.253777
90.731804
108.29651
134.52682
170.66565
217.56752
275.6856
345.0691
425.3515
515.72336
614.89416
721.05108
831.82569
944.29612
1055.0769
1160.5529
1257.2663
1342.3673
1413.9729
1471.3186
1514.6906
1545.2079
1564.5418
1574.6448
1577.5311
1575.1221
1569.1547
1561.1318
1552.3046
1543.6771
1536.0317
1529.9975
1526.1094
1524.6281
8.5490338
17.743434
27.539705
36.720677
45.201258
52.788298
59.329046
64.709065
68.877599
71.880603
73.90303
75.319314
76.749909
79.111016
83.627128
91.774658
105.15508
125.33509
153.70136
191.35687
239.06083
297.19933
365.76851
444.35738
532.12567
627.77955
729.5521
835.19987
942.03761
1047.0458
1147.0815
1239.1849
1320.917
1390.6247
1447.5604
1491.8448
1524.314
1546.3107
1559.4702
1565.5366
1566.2242
1563.1265
1557.6612
1551.0372
1544.2409
1538.0684
1533.2149
1530.2299
1529.1751
8.1797435
17.102081
26.616413
35.549457
43.82182
51.265067
57.759225
63.231532
67.680902
71.208244
74.053458
76.636827
79.60062
83.838772
90.493892
100.90401
116.49973
138.67643
168.67417
207.48401
255.78498
313.90532
381.79718
459.01639
544.70422
637.57348
735.90497
837.5646
940.05834
1040.6469
1136.5349
1225.1211
1304.2606
1372.4682
1429.0161
1473.9143
1507.8004
1531.7794
1547.2511
1555.754
1558.8407
1557.9895
1554.5478
1549.6909
1544.388
1539.4387
1535.6189
1533.5702
1533.0796
7.8074158
16.603263
25.940317
34.712561
42.847126
50.199549
56.676872
62.238402
66.919792
70.861456
74.341375
77.809643
81.919451
87.543705
95.763164
107.81768
125.01917
148.64262
179.8222
219.46554
268.18984
326.27808
393.64887
469.83466
553.96647
644.76733
740.55982
839.29675
938.62798
1036.0171
1128.9133
1214.9636
1292.2252
1359.3309
1415.5706
1460.8822
1495.769
1521.171
1538.3213
1548.6098
1553.4702
1554.2939
1552.3742
1548.8609
1544.7073
1540.6841
1537.616
1536.3956
1536.6807
7.304111
16.167698
25.42422
34.111486
42.165348
49.465794
55.940649
61.571393
66.417781
70.645271
74.555172
78.614657
83.481151
90.011824
99.247533
112.36816
130.61206
155.17558
187.12261
227.30532
276.29912
334.35612
401.37245
476.86564
559.96139
649.39165
743.50915
840.32623
937.58823
1032.8901
1123.8369
1208.2315
1284.2585
1350.6256
1406.6356
1452.1836
1487.6891
1513.9882
1532.2069
1543.6387
1549.6392
1551.5403
1550.5946
1547.938
1544.5175
1541.0491
1538.3526
1537.9219
1540.115
6.0814112
15.835483
25.14322
33.822901
41.846076
49.124768
55.601021
61.268512
66.199303
70.571378
74.697795
79.054476
84.301719
91.291521
101.04952
114.71945
133.49201
158.52664
190.85735
231.3094
280.43731
338.47754
405.31473
480.45885
563.03305
651.77413
745.05052
840.90513
937.13164
1031.3908
1121.3648
1204.9335
1280.3446
1346.3428
1402.2386
1447.9065
1483.726
1510.4819
1529.2486
1541.2724
1547.8655
1550.3292
1549.9041
1547.7294
1544.7623
1541.678
1539.2622
1539.7852
1545.6274
-2227.7502
-2483.6105
-2699.52
-2881.461
-3023.9416
-3106.1862
-3108.1955
-3029.1905
-2857.2485
-2663.9767
-3205.3657
-3205.2579
-3198.4115
-3187.4234
-3173.3083
-3160.5553
-3148.7188
-3158.187
-3158.7876
-3131.3819
-3183.0132
-3181.8886
-3167.1337
-3150.1707
-3133.2563
-3124.2673
-3105.9753
-3113.1906
-3100.0565
-3046.5283
-3137.8199
-3135.1577
-3126.5554
-3117.8609
-3109.0683
-3112.0815
-3100.9874
-3098.9532
-3085.5507
-3048.6877
-3078.1263
-3076.6921
-3072.147
-3066.2297
-3057.7231
-3058.1194
-3057.7889
-3057.1207
-3055.6435
-3059.3805
-3030.1536
-3029.3615
-3023.602
-3013.4429
-2998.1917
-2968.6281
-2990.7918
-3003.0911
-3009.735
-3023.0819
-3013.4021
-3015.0965
-3018.3495
-3021.7385
-3032.6605
-3008.5398
-3008.2127
-3004.581
-2989.6591
-2966.6681
-3027.9072
-3029.5375
-3035.6219
-3044.3156
-3068.3625
-3076.0823
-3056.702
-3030.6854
-3000.8492
-2965.4456
-3848.4524
-3860.7663
-3831.7285
-3787.3194
-3749.7599
-3717.695
-3696.1918
-3682.4655
-3673.5255
-3675.2674
-2986.9621
-2985.7702
-2977.8927
-2960.9445
-2921.5746
-2946.933
-2958.9357
-2961.1271
-2950.6405
-2923.5334
-3009.2357
-3012.3122
-3018.6762
-3037.9262
-3013.9741
-3005.2477
-3001.2902
-2993.8702
-2979.8773
-2964.7342
-3048.48
-3050.9308
-3056.1039
-3080.6883
-3093.4607
-3069.3921
-3042.6632
-3022.3811
-3003.5144
-2987.0306
-2999.618
-2995.7893
-2976.896
-2951.6113
-2974.5474
-2992.0327
-3003.278
-3010.704
-3012.9725
-3019.9944
-3033.229
-3035.6914
-3034.8255
-2997.9279
-3007.0646
-3020.6808
-3031.4851
-3038.7226
-3041.7762
-3051.3446
-3156.8872
-3164.6833
-3188.9189
-3187.4438
-3159.5393
-3131.7459
-3111.0512
-3095.6578
-3080.2403
-3063.0076
-3141.9926
-3137.1588
-3129.6759
-3149.851
-3150.4415
-3144.6435
-3138.4162
-3132.9772
-3126.9761
-3128.8763
-3162.7782
-3162.0587
-3137.7755
-3147.9274
-3159.3713
-3167.5044
-3171.9205
-3173.7201
-3173.007
-3177.7055
-3277.1349
-3289.5382
-3285.4906
-3271.1486
-3255.8243
-3243.7806
-3235.0462
-3229.2497
-3222.4317
-3213.8691
-3282.4892
-3286.5588
-3294.0128
-3285.9381
-3276.2982
-3270.8003
-3270.566
-3275.0071
-3280.0469
-3292.3481
-3186.3312
-3172.2207
-3189.5572
-3215.4345
-3244.9087
-3273.6063
-3300.5804
-3325.1529
-3345.3049
-3370.2689
-3326.0746
-3302.4552
-3312.0612
-3332.3667
-3359.1278
-3384.3734
-3406.8369
-3425.2664
-3437.7832
-3453.4965
-3701.6942
-3692.6757
-3661.9752
-3627.902
-3602.8207
-3583.3331
-3571.2409
-3564.0812
-3557.9648
-3555.0976
-3016.6512
-3015.1252
-3009.709
-2998.0877
-2992.5948
-2999.8564
-2999.4985
-2994.1527
-2984.9241
-2983.9027
-3540.4962
-3549.093
-3563.5283
-3610.8117
-3666.9865
-3718.8171
-3739.8982
-3721.7581
-3638.0573
-3466.2084
-3268.7263
-3268.961
-3271.91
-3276.7765
-3277.8857
-3276.9881
-3275.0255
-3269.8822
-3265.7246
-3219.248
-3179.5
-3227.5231
-3289.6358
-3394.3362
-3505.6589
-3592.4821
-3635.0367
-3595.1667
-3447.0229
-3214.5957
-3480.235
-3490.2781
-3511.2089
-3547.9072
-3581.5546
-3610.2131
-3618.7836
-3618.2782
-3582.5006
-3470.1124
-3367.3076
-3371.6971
-3385.876
-3409.8327
-3430.7922
-3448.4468
-3456.5719
-3446.1526
-3433.5353
-3381.785
11318.723
10715.548
10129.576
9489.9403
8832.8472
8179.5403
7545.1816
6936.785
6347.3454
5770.3055
8301.8482
8224.5315
8101.2597
7839.6078
7501.7197
7111.2856
6689.6073
6254.5671
5816.4001
5360.0023
-3709.4853
-3727.9208
-3745.3314
-3751.3012
-3759.993
-3763.2599
-3768.0574
-3771.4945
-3772.8206
-3776.3128
-3705.8435
-3709.6946
-3745.0417
-3776.2738
-3815.3345
-3842.5078
-3866.4355
-3882.4666
-3891.1148
-3895.3032
-3946.5185
-3939.2825
-3955.5104
-3963.0866
-3991.4662
-4009.8459
-4029.6729
-4042.6494
-4048.0689
-4043.6191
-4222.4273
-4212.0723
-4226.341
-4216.9268
-4232.9975
-4234.8789
-4241.4013
-4242.4496
-4238.8774
-4234.5161
-4544.882
-4526.7421
-4538.4871
-4511.4514
-4515.2369
-4497.3894
-4484.9309
-4464.9034
-4437.2356
-4404.8745
-4901.1113
-4873.8889
-4883.4958
-4837.074
-4828.6418
-4790.1522
-4757.3209
-4713.8984
-4659.2284
-4599.0169
-5281.8553
-5243.4048
-5252.0448
-5185.227
-5165.6766
-5107.5874
-5056.1915
-4992.7221
-4916.4663
-4831.1539
-5682.8657
-5630.7903
-5639.615
-5550.5934
-5519.7763
-5441.5478
-5370.8812
-5288.4459
-5198.4715
-5115.9206
-6105.0491
-6035.9263
-6045.7753
-5931.7805
-5888.3098
-5787.9005
-5693.5327
-5583.5038
-5458.1903
-5322.5894
-6548.5047
-6458.4167
-6470.8474
-6329.202
-6271.9477
-6149.0626
-6030.8993
-5896.7869
-5747.1805
-5585.4208
-7019.3451
-6902.2139
-6917.9779
-6744.4948
-6670.3484
-6522.7572
-6376.8557
-6214.6305
-6036.1387
-5850.2678
-7516.4433
-7366.2116
-7388.3291
-7179.8894
-7085.7262
-6911.6655
-6733.8704
-6537.7877
-6319.1663
-6081.8859