/*--------------------------------*- C++ -*----------------------------------*\
| =========                 |                                                 |
| \\      /  F ield         | foam-extend: Open Source CFD                    |
|  \\    /   O peration     | Version:     4.1                                |
|   \\  /    A nd           | Web:         http://www.foam-extend.org         |
|    \\/     M anipulation  |                                                 |
\*---------------------------------------------------------------------------*/
FoamFile
{
    version     2.0;
    format      ascii;
    class       surfaceScalarField;
    location    "0.95";
    object      phi;
}
// * * * * * * * * * * * * * * * * * * * * * * * * * * * * * * * * * * * * * //

dimensions      [0 3 -1 0 0 0 0];

internalField   nonuniform List<scalar> 
8438
(
-0.59744047
0.0016735434
-0.59917931
0.0017388465
-0.60095308
0.0017737656
-0.60277077
0.0018176888
-0.60464214
0.0018713708
-0.60657763
0.0019354883
-0.60858664
0.0020090099
-0.61067678
0.0020901445
-0.61285318
0.0021763939
-0.61511774
0.0022645663
-0.61746851
0.0023507721
-0.61989897
0.0024304588
-0.62239749
0.0024985146
-0.62494695
0.0025494596
-0.62752467
0.0025777233
-0.63010268
0.0025780078
-0.63264827
0.0025455882
-0.63512488
0.0024766118
-0.63749311
0.0023682279
-0.63971168
0.0022185791
-0.64173841
0.0020267261
-0.64353097
0.0017925549
-0.64504772
0.001516759
-0.64624868
0.0012009596
-0.6470967
0.00084801802
-0.64755925
0.00046255127
-0.64761057
5.1314345e-05
-0.64723326
-0.00037730309
-0.64642235
-0.00081091158
-0.64518931
-0.0012330424
-0.64356302
-0.0016262876
-0.64158954
-0.0019734782
-0.63932995
-0.0022595949
-0.63685628
-0.0024736702
-0.63424628
-0.0026100004
-0.63157789
-0.0026683878
-0.62892441
-0.0026534815
-0.62635088
-0.0025735302
-0.62391197
-0.002438912
-0.62165121
-0.0022607557
-0.61960137
-0.0020498408
-0.61778553
-0.0018158441
-0.61621862
-0.0015669056
-0.61490908
-0.0013095383
-0.61385998
-0.0010490997
-0.61306953
-0.00079045756
-0.61253402
-0.00053550947
-0.6122586
-0.0002754185
-1.3648001e-05
-0.61123267
0.003139276
-0.61269179
0.0031979696
-0.61417808
0.0032600506
-0.61570479
0.003344399
-0.61728437
0.0034509557
-0.61892804
0.0035791538
-0.62064563
0.0037266045
-0.62244512
0.0038896313
-0.62433195
0.0040632273
-0.6263084
0.0042410081
-0.6283728
0.004415179
-0.63051893
0.0045765905
-0.63273536
0.004714937
-0.63500504
0.0048191385
-0.63730522
0.0048779072
-0.63960771
0.0048804951
-0.64187945
0.004817328
-0.64408346
0.004680624
-0.64617989
0.0044646573
-0.64812704
0.0041657271
-0.64988229
0.0037819763
-0.6514029
0.003313173
-0.6526468
0.0027606511
-0.65357338
0.0021275432
-0.65414476
0.0014193987
-0.6543274
0.00064518978
-0.65409459
-0.00018149345
-0.6534305
-0.0010413992
-0.65233198
-0.0019094283
-0.65080997
-0.0027550529
-0.64889252
-0.003543735
-0.64662538
-0.0042406227
-0.64406994
-0.0048150283
-0.64129909
-0.0052445272
-0.63839157
-0.0055175178
-0.63542625
-0.005633704
-0.63247705
-0.0056026823
-0.62960926
-0.0054413232
-0.62687745
-0.0051707249
-0.62432481
-0.0048133883
-0.62198366
-0.0043909912
-0.61987662
-0.0039228825
-0.61801828
-0.0034252529
-0.61641682
-0.0029109965
-0.61507556
-0.0023903556
-0.61399476
-0.0018712618
-0.6131739
-0.0013563649
-0.61260473
-0.00084459511
-0.00037357395
-0.61227819
0.0045548731
-0.61369206
0.0046118412
-0.61513077
0.0046987608
-0.61660928
0.0048229048
-0.61814088
0.0049825563
-0.61973738
0.0051756529
-0.62140911
0.0053983367
-0.62316454
0.0056450596
-0.62500968
0.0059083656
-0.62694741
0.0061787382
-0.62897673
0.0064445073
-0.63109205
0.0066919017
-0.63328243
0.0069053244
-0.63553122
0.0070679221
-0.63781577
0.0071624587
-0.64010776
0.0071724922
-0.64237384
0.0070834
-0.64457657
0.0068833602
-0.64667567
0.0065637564
-0.64862903
0.0061190875
-0.65039367
0.0055466162
-0.65192645
0.004845955
-0.65318471
0.0040189101
-0.65412697
0.0030698017
-0.65471398
0.0020064042
-0.65491032
0.00084153556
-0.65468687
-0.00040495199
-0.65402354
-0.0017047266
-0.65291289
-0.0030200747
-0.65136387
-0.0043040751
-0.64940437
-0.0055032305
-0.64708186
-0.0065631363
-0.64446116
-0.0074357238
-0.6416197
-0.0080859922
-0.63864105
-0.0084961636
-0.6356084
-0.0086663603
-0.63259889
-0.0086121866
-0.6296798
-0.0083604139
-0.62690644
-0.0079440825
-0.62432178
-0.007398055
-0.62195718
-0.006755589
-0.61983398
-0.0060460857
-0.6179653
-0.0052939321
-0.61635794
-0.0045183508
-0.61501429
-0.0037340067
-0.6139345
-0.0029510577
-0.61311683
-0.002174035
-0.61255277
-0.0014086504
-0.0006813949
-0.61263504
0.0059410861
-0.61402855
0.0060053451
-0.61544754
0.0061177485
-0.61690696
0.0062823295
-0.61842059
0.0064961866
-0.62000094
0.0067559965
-0.6216591
0.0070565
-0.62340439
0.0073903506
-0.62524374
0.0077477119
-0.62718097
0.008115972
-0.62921602
0.0084795577
-0.63134407
0.0088199518
-0.63355477
0.0091160214
-0.63583161
0.0093447684
-0.6381517
0.0094825436
-0.64048594
0.0095067329
-0.64279982
0.0093972784
-0.64505456
0.0091381053
-0.64720849
0.0087176846
-0.64921823
0.0081288238
-0.65103965
0.0073680352
-0.6526285
0.0064348077
-0.65394085
0.0053312591
-0.65493354
0.0040624945
-0.65556502
0.0026378857
-0.65579682
0.001073333
-0.65559597
-0.00060580662
-0.65493834
-0.0023623551
-0.65381277
-0.0041456393
-0.65222565
-0.0058911935
-0.65020457
-0.0075243125
-0.64779959
-0.0089681131
-0.64508096
-0.010154358
-0.6421333
-0.011033649
-0.63904786
-0.011581608
-0.63591456
-0.011799659
-0.63281559
-0.011711155
-0.62982118
-0.011354826
-0.62698768
-0.010777581
-0.62435757
-0.010028168
-0.62196071
-0.0091524518
-0.61981635
-0.0081904442
-0.61793537
-0.007174908
-0.61632247
-0.0061312526
-0.61497832
-0.0050781583
-0.61390148
-0.0040278961
-0.61308836
-0.0029871587
-0.61253356
-0.0019634514
-0.00097000032
-0.61305955
0.0073002484
-0.61442983
0.0073756242
-0.61582655
0.0075144728
-0.61726487
0.0077206446
-0.61875903
0.0079903533
-0.62032234
0.0083193043
-0.62196685
0.0087010035
-0.62370295
0.0091264502
-0.62553878
0.0095835462
-0.62747946
0.01005665
-0.62952616
0.010526261
-0.63167517
0.010968957
-0.63391688
0.011357736
-0.63623505
0.011662939
-0.63860635
0.011853841
-0.64100058
0.011900967
-0.64338157
0.011778268
-0.64570861
0.011465138
-0.64793807
0.010947153
-0.65002491
0.010215656
-0.65192354
0.0092666713
-0.65358841
0.0080996786
-0.65497409
0.0067169352
-0.65603539
0.0051237957
-0.65672785
0.0033303412
-0.65700894
0.0013544284
-0.65684056
-0.000774191
-0.6561928
-0.0030101118
-0.65504891
-0.0052895293
-0.65341123
-0.0075288765
-0.65130652
-0.0096290188
-0.64878838
-0.011486252
-0.64593477
-0.013007969
-0.64284076
-0.014127663
-0.63960856
-0.014813803
-0.63633769
-0.015070531
-0.63311725
-0.014931595
-0.63002137
-0.01445071
-0.62710755
-0.013691402
-0.6244173
-0.012718416
-0.62197816
-0.011591589
-0.61980638
-0.010362227
-0.61790966
-0.0090716205
-0.61628982
-0.0077510989
-0.61494508
-0.0064228982
-0.61387185
-0.0051011289
-0.61306518
-0.0037938235
-0.61252118
-0.0025074562
-0.0012463758
-0.61359675
0.0086271738
-0.61493737
0.0087162424
-0.61630579
0.0088828965
-0.61771733
0.009132182
-0.61918682
0.0094598396
-0.62072844
0.0098609265
-0.62235539
0.010327957
-0.62407944
0.010850497
-0.62591027
0.011414372
-0.62785465
0.012001031
-0.62991543
0.012587044
-0.63209038
0.01314391
-0.634371
0.013638351
-0.63674142
0.014033365
-0.63917783
0.014290245
-0.64164855
0.014371688
-0.64411516
0.014244878
-0.64653432
0.013884298
-0.64885988
0.013272714
-0.65104462
0.012400401
-0.6530413
0.011263347
-0.65480289
0.0098612674
-0.65628234
0.0081963882
-0.65743216
0.0062736175
-0.65820435
0.0041025268
-0.65855125
0.0017013307
-0.65842799
-0.0008974531
-0.65779682
-0.0036412817
-0.65663302
-0.0064533278
-0.65493283
-0.0092290653
-0.65272127
-0.01184058
-0.65005639
-0.014151132
-0.64702675
-0.016037604
-0.64374195
-0.017412467
-0.64031936
-0.018236391
-0.63687143
-0.018518457
-0.63349632
-0.018306708
-0.6302729
-0.017674131
-0.62725968
-0.016704626
-0.62449639
-0.0154817
-0.62200713
-0.014080857
-0.61980386
-0.012565488
-0.61788999
-0.010985494
-0.61626333
-0.0093777603
-0.6149187
-0.0077675304
-0.61384965
-0.0061701794
-0.61304957
-0.0045939008
-0.61251419
-0.0030428325
-0.001515619
-0.61424977
0.0099181205
-0.61555479
0.010021261
-0.61688851
0.010216621
-0.61826695
0.010510625
-0.61970574
0.010898622
-0.62122011
0.011375296
-0.62282461
0.01193246
-0.62453265
0.01255854
-0.62635584
0.013237555
-0.62830304
0.013948238
-0.63037928
0.014663283
-0.63258431
0.015348935
-0.63491112
0.015965161
-0.63734451
0.016466757
-0.63986009
0.016805827
-0.6424243
0.016935895
-0.64499571
0.016816291
-0.64752751
0.016416092
-0.64997024
0.015715448
-0.65227407
0.014704235
-0.65438989
0.013379163
-0.65626927
0.011740645
-0.65786364
0.0097907572
-0.65912312
0.0075331052
-0.65999573
0.0049751337
-0.6604276
0.0021332021
-0.66036525
-0.00095980306
-0.65976049
-0.0042460442
-0.65857748
-0.0076363377
-0.65680335
-0.0110032
-0.65445969
-0.014184239
-0.65160992
-0.017000897
-0.64835691
-0.019290616
-0.64483012
-0.020939259
-0.64116748
-0.021899026
-0.63749853
-0.022187411
-0.63393281
-0.021872422
-0.63055467
-0.021052272
-0.6274231
-0.019836202
-0.62457485
-0.018329948
-0.62202904
-0.016626662
-0.61979195
-0.01480258
-0.6178613
-0.012916143
-0.61622985
-0.011009217
-0.61488808
-0.0091093013
-0.61382607
-0.0072321911
-0.61303484
-0.0053851236
-0.61250836
-0.0035693107
-0.0017790331
-0.61501304
0.011164649
-0.61627521
0.011283428
-0.61756744
0.01150886
-0.61890619
0.011849367
-0.62030789
0.012300329
-0.621789
0.012856406
-0.62336562
0.013509077
-0.62505309
0.014246012
-0.62686534
0.015049801
-0.62881385
0.015896752
-0.63090638
0.016755815
-0.6331453
0.017587851
-0.63552568
0.018345537
-0.63803333
0.018974413
-0.6406433
0.019415792
-0.64331958
0.019612181
-0.64601681
0.019513515
-0.64868352
0.019082807
-0.65126604
0.018297965
-0.65371137
0.017149564
-0.65596846
0.015636258
-0.65798777
0.013759954
-0.6597196
0.011522583
-0.66111192
0.0089254292
-0.66210851
0.0059717188
-0.66264827
0.002672964
-0.66266705
-0.00094101638
-0.66210307
-0.0048100268
-0.66090521
-0.0088341959
-0.65904711
-0.0128613
-0.65654411
-0.016687241
-0.65346574
-0.020079271
-0.64993402
-0.022822337
-0.64610559
-0.024767685
-0.64214607
-0.025858542
-0.63820722
-0.026126261
-0.63441258
-0.025667064
-0.63085229
-0.024612567
-0.62758468
-0.023103813
-0.62464165
-0.021272973
-0.62203532
-0.019232998
-0.61976432
-0.017073576
-0.61781917
-0.014861294
-0.6161863
-0.012642081
-0.61485101
-0.010444596
-0.6137993
-0.0082838976
-0.6130193
-0.006165129
-0.61250256
-0.0040860441
-0.0020367977
-0.61588765
0.012363357
-0.61710098
0.012496759
-0.61834484
0.012752725
-0.61963679
0.01314132
-0.62099434
0.013657877
-0.62243526
0.014297329
-0.62397743
0.015051243
-0.62563844
0.015907026
-0.62743498
0.016846335
-0.62938172
0.017843496
-0.63148988
0.018863972
-0.63376522
0.019863188
-0.63620567
0.020785991
-0.63879866
0.021567402
-0.64151873
0.022135861
-0.64432684
0.022420289
-0.64717236
0.022359036
-0.64999769
0.021908135
-0.65274364
0.021043924
-0.6553535
0.019759418
-0.65777437
0.018057134
-0.65995619
0.015941773
-0.66184894
0.01341533
-0.66339912
0.010475611
-0.66454637
0.0071189608
-0.66522147
0.003348071
-0.66534736
-0.00081512984
-0.66484472
-0.0053126691
-0.66364165
-0.010037262
-0.66169195
-0.014811
-0.65899994
-0.019379252
-0.65564156
-0.023437646
-0.65176463
-0.026699274
-0.64756316
-0.028969149
-0.64324014
-0.03018157
-0.63897604
-0.030390353
-0.63491115
-0.029731955
-0.63114115
-0.028382566
-0.62772169
-0.026523273
-0.62467707
-0.0243176
-0.62200963
-0.021900435
-0.61970806
-0.019375139
-0.61775381
-0.016815545
-0.61612565
-0.014270241
-0.61480272
-0.011767527
-0.61376636
-0.0093202606
-0.61300126
-0.0069302303
-0.61249631
-0.0045909961
-0.0022881548
-0.61686697
0.013502325
-0.61802273
0.013652525
-0.61921047
0.013940465
-0.62044799
0.014378834
-0.62175371
0.014963596
-0.62314682
0.015690438
-0.62464712
0.016551549
-0.62627479
0.017534695
-0.62804973
0.018621273
-0.62999048
0.019784249
-0.63211256
0.020986048
-0.63442612
0.022176753
-0.63693303
0.023292896
-0.63962316
0.024257533
-0.64247083
0.024983536
-0.64543319
0.025382645
-0.64845259
0.025378436
-0.65146311
0.024918653
-0.65439835
0.023979169
-0.65719713
0.022558192
-0.65980506
0.020665064
-0.66217259
0.018309309
-0.66425079
0.015493523
-0.66598595
0.01221078
-0.66731423
0.0084472361
-0.66815771
0.0041915465
-0.66842403
-0.00054880124
-0.66801165
-0.0057250562
-0.66682071
-0.011228204
-0.66477601
-0.016855697
-0.66186296
-0.022292297
-0.65816321
-0.027137399
-0.6538595
-0.031002986
-0.64919797
-0.033630676
-0.64443229
-0.034947254
-0.63977992
-0.03504272
-0.63540051
-0.034111366
-0.63139395
-0.032389128
-0.62780978
-0.030107445
-0.62466072
-0.027466653
-0.62193579
-0.024625364
-0.61961083
-0.021700103
-0.61765612
-0.018770259
-0.61604136
-0.015885002
-0.61473866
-0.013070224
-0.61372415
-0.010334771
-0.61297875
-0.0076756313
-0.61248854
-0.0050812044
-0.0025317428
-0.61795
0.014580838
-0.6190427
0.014745223
-0.62016707
0.015064839
-0.62134236
0.015554116
-0.62258811
0.016209345
-0.62392499
0.017027323
-0.62537491
0.018001467
-0.62696088
0.019120662
-0.62870652
0.020366917
-0.63063499
0.021712721
-0.63276711
0.023118169
-0.6351187
0.02452834
-0.63769694
0.025871131
-0.64049549
0.02705609
-0.64348904
0.027977087
-0.64663003
0.028523635
-0.6498514
0.028599799
-0.65307583
0.028143084
-0.65622735
0.027130694
-0.65923949
0.025570325
-0.66205707
0.023482653
-0.66463281
0.020885041
-0.66692095
0.01778167
-0.66886977
0.014159596
-0.67041329
0.0099907572
-0.6714647
0.0052429567
-0.67191433
-9.9168671e-05
-0.67163249
-0.0060068967
-0.67048223
-0.012378465
-0.66834636
-0.018991566
-0.66517837
-0.02546029
-0.66106261
-0.031253155
-0.65622976
-0.035835841
-0.65099992
-0.038860514
-0.64569619
-0.040250985
-0.64058339
-0.040155514
-0.63584261
-0.038852145
-0.63157473
-0.036657008
-0.62781774
-0.033864436
-0.62456722
-0.030717176
-0.62179413
-0.02739845
-0.61945803
-0.024036209
-0.6175157
-0.020712586
-0.61592635
-0.017474352
-0.61465426
-0.014342317
-0.61366992
-0.011319107
-0.61295032
-0.0083952353
-0.61247874
-0.00555278
-0.0027656859
-0.61913343
0.015581953
-0.6201522
0.015763993
-0.62120413
0.016116774
-0.62230811
0.016658092
-0.62348443
0.017385664
-0.62475516
0.018298056
-0.62614436
0.019390672
-0.62767817
0.02065447
-0.62938445
0.022073199
-0.63129181
0.02362008
-0.63342761
0.025253961
-0.63581489
0.026915625
-0.63846811
0.028524349
-0.64138672
0.029974704
-0.64454693
0.031137295
-0.64789555
0.031872259
-0.6513527
0.032056943
-0.65482516
0.031615542
-0.65822385
0.030529391
-0.66147588
0.028822356
-0.66452648
0.026533244
-0.66733305
0.023691616
-0.66985616
0.020304782
-0.67204922
0.016352648
-0.67384677
0.011788309
-0.67515366
0.0065498468
-0.67583966
0.00058683053
-0.67574205
-0.0061045052
-0.67467689
-0.013443629
-0.67246556
-0.021202893
-0.66900819
-0.028917654
-0.66438412
-0.035877223
-0.65889055
-0.041329417
-0.65295507
-0.044795997
-0.64699685
-0.046209199
-0.64134097
-0.045811397
-0.63619037
-0.044002745
-0.63164062
-0.041206763
-0.62770973
-0.037795321
-0.62436841
-0.034058492
-0.62156367
-0.030203197
-0.6192347
-0.026365174
-0.61732237
-0.022624914
-0.61577404
-0.019022686
-0.61454554
-0.015570818
-0.61360156
-0.012263092
-0.61291513
-0.0090816614
-0.61246693
-0.0060009786
-0.0029876661
-0.6204071
0.016509411
-0.62134755
0.016704441
-0.62231975
0.017088973
-0.62334416
0.017682507
-0.62444203
0.018483533
-0.62563679
0.019492817
-0.62695468
0.020708562
-0.62842512
0.022124911
-0.63008069
0.023728769
-0.63195633
0.025495713
-0.63408729
0.027384924
-0.63650578
0.029334113
-0.63923596
0.031254526
-0.64228594
0.033024692
-0.64563555
0.034486903
-0.64922506
0.03546177
-0.6529569
0.035788777
-0.65671519
0.035373836
-0.66039265
0.03420685
-0.66390866
0.032338371
-0.6672111
0.029835676
-0.67026612
0.02674664
-0.67304512
0.023083779
-0.67551144
0.018818968
-0.67760449
0.013881364
-0.67922283
0.0081681851
-0.68021411
0.0015781096
-0.68037583
-0.0059427847
-0.67946345
-0.014356012
-0.67721203
-0.023454312
-0.67343378
-0.032695899
-0.66818551
-0.041125499
-0.66185778
-0.047657142
-0.65503901
-0.051614769
-0.64828273
-0.052965483
-0.64198968
-0.052104444
-0.63638149
-0.04961093
-0.63153701
-0.046051241
-0.62744163
-0.041890708
-0.62403069
-0.037469432
-0.62121991
-0.033013978
-0.61892367
-0.028661416
-0.61706445
-0.024484124
-0.61557672
-0.020510417
-0.61440759
-0.016739954
-0.61351602
-0.013154662
-0.6128714
-0.0097262752
-0.61245211
-0.0064202699
-0.0031949775
-0.62177478
0.017340221
-0.62262371
0.017553371
-0.62350575
0.017971021
-0.62444
0.018616751
-0.62544784
0.019491378
-0.62655374
0.020598711
-0.62778594
0.021940764
-0.62917723
0.023516205
-0.63076531
0.025316848
-0.63259238
0.027322785
-0.63470326
0.029495805
-0.63714167
0.031772518
-0.63994478
0.034057634
-0.64313373
0.036213645
-0.64669591
0.038049082
-0.65056489
0.039330747
-0.65461877
0.039842663
-0.65870903
0.039464089
-0.66270251
0.038200334
-0.66650924
0.036145105
-0.67008325
0.033409688
-0.67340492
0.030068307
-0.67646193
0.026140791
-0.67923351
0.021590542
-0.68167014
0.016317994
-0.68366813
0.01016618
-0.68505231
0.0029622854
-0.68557393
-0.0054211654
-0.68491426
-0.015015679
-0.6826896
-0.025678977
-0.67856896
-0.036816536
-0.67254904
-0.047145415
-0.66515199
-0.055054195
-0.6572155
-0.059551263
-0.64948254
-0.060698441
-0.64244688
-0.059140105
-0.6363382
-0.055719611
-0.63119907
-0.051190367
-0.6269636
-0.046126177
-0.62351802
-0.040915016
-0.62073807
-0.035793924
-0.61850861
-0.030890874
-0.6167317
-0.026261038
-0.61532832
-0.021913798
-0.61423708
-0.017831191
-0.61341178
-0.013979963
-0.61281874
-0.010319313
-0.61243456
-0.0068044501
-0.003384592
-0.62320309
0.018083361
-0.6239574
0.018307679
-0.624742
0.018755619
-0.62557737
0.019452125
-0.62648527
0.020399277
-0.62749096
0.021604399
-0.62862453
0.023074335
-0.6299221
0.024813773
-0.63142676
0.026821517
-0.63318892
0.029084944
-0.63526473
0.031571615
-0.63771218
0.03421997
-0.64058544
0.036930891
-0.64392459
0.039552791
-0.64773111
0.041855601
-0.6519327
0.043532338
-0.65637316
0.044283125
-0.66085504
0.04394597
-0.66520698
0.042552273
-0.6693271
0.040265225
-0.67318165
0.037264236
-0.67677383
0.033660484
-0.6801156
0.029482565
-0.68321095
0.024685889
-0.68603226
0.019139305
-0.68848215
0.012616069
-0.6903639
0.0048440355
-0.69137634
-0.0044087259
-0.691113
-0.015279014
-0.68903169
-0.027760285
-0.68457152
-0.041276713
-0.6775911
-0.054125835
-0.66879548
-0.06384981
-0.65942571
-0.068921036
-0.65049281
-0.069631343
-0.64260015
-0.067032764
-0.63596041
-0.062359344
-0.63054756
-0.056603221
-0.62621768
-0.050456054
-0.62279036
-0.044342336
-0.62009171
-0.038492578
-0.6179727
-0.033009887
-0.6163137
-0.027920034
-0.61502257
-0.023204929
-0.61403036
-0.018823404
-0.61328674
-0.014723578
-0.61275596
-0.010850096
-0.6124136
-0.0071468051
-0.0035532465
-0.62472693
0.018709976
-0.62537211
0.018952858
-0.62604879
0.019432298
-0.62677453
0.02017786
-0.6275701
0.021194847
-0.62846079
0.022495086
-0.62947789
0.024091442
-0.6306604
0.025996285
-0.6320567
0.028217808
-0.63372589
0.030754144
-0.63573729
0.033583008
-0.6381663
0.036648984
-0.64108887
0.039853458
-0.64457223
0.04303615
-0.64864343
0.045926804
-0.6532291
0.048118009
-0.65812562
0.049179648
-0.66306246
0.048882803
-0.66781237
0.047302187
-0.67226006
0.044712915
-0.67639593
0.0414001
-0.68025967
0.037524225
-0.68389673
0.033119624
-0.68734443
0.028133588
-0.69060948
0.022404363
-0.69361159
0.01561818
-0.69613393
0.0073663669
-0.69781648
-0.0027261752
-0.69815463
-0.014940857
-0.69641076
-0.029504154
-0.6916666
-0.046020878
-0.68348561
-0.062306825
-0.67281356
-0.07452186
-0.66157727
-0.080157322
-0.65116511
-0.080043505
-0.64229922
-0.075898659
-0.63512298
-0.069535582
-0.62948972
-0.062236481
-0.62514044
-0.054805333
-0.62180693
-0.047675848
-0.61925589
-0.041043612
-0.61730138
-0.034964401
-0.61580237
-0.029419043
-0.6146552
-0.024352101
-0.61378527
-0.019693329
-0.61313991
-0.015368941
-0.61268265
-0.011307359
-0.61238911
-0.0074403391
-0.003697559
-0.62625574
0.019233798
-0.62678955
0.019486668
-0.62735047
0.019993218
-0.62795659
0.020783979
-0.62862775
0.02186601
-0.62938881
0.023256146
-0.63027179
0.024974427
-0.63131819
0.027042685
-0.63258158
0.029481196
-0.63413049
0.032303049
-0.63604953
0.035502052
-0.63843568
0.039035131
-0.64139246
0.04281024
-0.6450249
0.046668596
-0.64940428
0.050306182
-0.6544681
0.053181832
-0.65994608
0.054657626
-0.66545334
0.054390065
-0.67067588
0.052524722
-0.67547976
0.049516791
-0.67989655
0.045816896
-0.68402043
0.041648101
-0.68793854
0.037037732
-0.69172946
0.031924506
-0.69545509
0.02613
-0.69907772
0.019240802
-0.70237465
0.010663297
-0.70493047
-0.00017035184
-0.70613763
-0.0137337
-0.70504008
-0.030601702
-0.70017658
-0.050884372
-0.69050279
-0.071980624
-0.67723141
-0.087793231
-0.66352219
-0.093866543
-0.6512839
-0.092281797
-0.641343
-0.085839557
-0.63367108
-0.077207507
-0.62791967
-0.067987886
-0.62366546
-0.059059547
-0.62052898
-0.050812324
-0.61820962
-0.043362979
-0.61648421
-0.036689811
-0.61519312
-0.030710126
-0.61422464
-0.025320584
-0.61350167
-0.020416302
-0.61297165
-0.015898953
-0.6125993
-0.01167971
-0.61236157
-0.0076780741
-0.0038141769
-0.6278823
0.019620653
-0.62829034
0.01989471
-0.6287267
0.020429576
-0.62920443
0.021261713
-0.6297407
0.022402273
-0.63035872
0.023874169
-0.63109006
0.025705765
-0.6319774
0.027930025
-0.63307812
0.030581915
-0.63446911
0.033694037
-0.63625095
0.037283893
-0.63854548
0.041329666
-0.64148903
0.04575379
-0.6452354
0.050414963
-0.64992822
0.054999005
-0.65554359
0.058797202
-0.66171988
0.060833909
-0.66789137
0.060561555
-0.67361209
0.058245445
-0.67872751
0.054632214
-0.68334862
0.05043801
-0.6876616
0.045961072
-0.69181148
0.04118762
-0.69592741
0.036040432
-0.70015801
0.030360597
-0.70454439
0.023627184
-0.70886984
0.014988744
-0.7126256
0.0035854152
-0.71509989
-0.011259418
-0.71514605
-0.030555543
-0.71054268
-0.055487737
-0.69906495
-0.083458358
-0.6820563
-0.10480188
-0.66501591
-0.11090693
-0.65053153
-0.10676618
-0.63946197
-0.09690911
-0.63141565
-0.085253828
-0.62572015
-0.073683389
-0.62172683
-0.063052863
-0.61892295
-0.053616209
-0.61693777
-0.045348157
-0.6155157
-0.03811188
-0.61448494
-0.031740887
-0.61373153
-0.026073989
-0.61318045
-0.020967387
-0.61278258
-0.016296824
-0.61250607
-0.011956216
-0.61233073
-0.0078534183
-0.0038999562
-0.62933595
0.019882523
-0.62961487
0.020173635
-0.62991706
0.020731762
-0.63025346
0.021598116
-0.63063789
0.022786698
-0.63109072
0.024327005
-0.63164159
0.026256634
-0.63233287
0.0286213
-0.63322432
0.031473365
-0.63440027
0.034869986
-0.63597864
0.038862262
-0.63811232
0.043463346
-0.64097937
0.048620844
-0.64479569
0.054231285
-0.64982075
0.060024066
-0.65613207
0.065108519
-0.66324957
0.067951408
-0.6703093
0.06762129
-0.6766589
0.064595042
-0.6821139
0.06008721
-0.68692639
0.055250505
-0.69142549
0.050460165
-0.69581663
0.04557876
-0.70025346
0.040477262
-0.70499396
0.035101103
-0.7102014
0.028834618
-0.71569652
0.020483871
-0.72088194
0.0087708319
-0.72496913
-0.0071722286
-0.72679969
-0.02872498
-0.72323183
-0.059055601
-0.70979737
-0.096892815
-0.68723408
-0.12736517
-0.66565423
-0.13248677
-0.64844078
-0.12397964
-0.63630035
-0.10904954
-0.62813509
-0.093419097
-0.62277143
-0.079047039
-0.61926875
-0.066555552
-0.61696815
-0.055916801
-0.61543681
-0.0468795
-0.61439936
-0.039149335
-0.61368323
-0.032457011
-0.61318089
-0.02657633
-0.61282538
-0.021322896
-0.61257507
-0.016547134
-0.61240418
-0.012127106
-0.61229701
-0.0079605938
-0.0039521653
-0.63049024
0.019981177
-0.63061978
0.020303175
-0.63077077
0.020882753
-0.63094757
0.021774911
-0.63115918
0.022998309
-0.63142215
0.02458998
-0.63176294
0.026597426
-0.63222193
0.029080283
-0.63285894
0.032110379
-0.63376236
0.035773408
-0.63506429
0.040164187
-0.63695045
0.045349504
-0.63964582
0.051316216
-0.64342999
0.058015456
-0.6487223
0.065316375
-0.65582148
0.072207704
-0.66410897
0.076238891
-0.67220453
0.075716858
-0.67914483
0.071535341
-0.68470182
0.065644197
-0.68939197
0.059940655
-0.69377765
0.054845844
-0.69813738
0.049938492
-0.70260006
0.044939937
-0.70761194
0.040112983
-0.71359365
0.03481633
-0.72050256
0.027392778
-0.7277321
0.016000375
-0.73427937
-0.00062495765
-0.73920325
-0.023801104
-0.73833184
-0.059927004
-0.72349558
-0.11172908
-0.69248318
-0.15837757
-0.66469655
-0.1602734
-0.64430094
-0.14437524
-0.6313913
-0.12195918
-0.62358301
-0.10122738
-0.61896662
-0.08366343
-0.6162585
-0.069263674
-0.61466562
-0.057509679
-0.61371995
-0.047825168
-0.61315047
-0.039718819
-0.61280129
-0.032806191
-0.61258279
-0.02679483
-0.61244339
-0.021462295
-0.61235344
-0.016637084
-0.61229599
-0.012184556
-0.61226149
-0.0079950978
-0.0039687022
-0.63007844
0.019879963
-0.63002789
0.020252628
-0.62999526
0.02085012
-0.62997618
0.021755832
-0.62997269
0.022994816
-0.62999471
0.024612003
-0.63006153
0.026664252
-0.63020611
0.029224858
-0.63048142
0.032385687
-0.630971
0.036262995
-0.63181129
0.041004476
-0.63321953
0.046757743
-0.6354818
0.053578488
-0.63894648
0.061480128
-0.64423969
0.070609591
-0.65213501
0.080103027
-0.66194741
0.086051291
-0.6713495
0.085118944
-0.67893475
0.079120592
-0.68436527
0.071074717
-0.68865585
0.06423123
-0.69275078
0.058940774
-0.69705114
0.054238853
-0.7015139
0.049402698
-0.70683804
0.045437124
-0.7138588
0.041837089
-0.72259609
0.036130068
-0.73261914
0.026023428
-0.74190456
0.0086604605
-0.75052998
-0.015175685
-0.75421883
-0.056238151
-0.74047676
-0.12547115
-0.69642062
-0.20243371
-0.66055576
-0.19613826
-0.63703499
-0.16789601
-0.62415364
-0.13484054
-0.617517
-0.10786401
-0.61423903
-0.086941401
-0.61270459
-0.070798114
-0.61204776
-0.058166513
-0.61182143
-0.048051499
-0.61179737
-0.039742872
-0.61186
-0.032743564
-0.61195141
-0.02670342
-0.61204331
-0.021370393
-0.61212256
-0.016557836
-0.61218362
-0.012123501
-0.61222455
-0.0079541595
-0.0039483062
-0.62618373
0.019548562
-0.62589606
0.019964957
-0.62560424
0.020558294
-0.62530167
0.02145327
-0.62498308
0.022676219
-0.62464972
0.024278651
-0.62431048
0.026325008
-0.62398668
0.028901061
-0.6237199
0.032118898
-0.62358353
0.036126626
-0.62371009
0.041131037
-0.62434495
0.047392604
-0.62585793
0.055091468
-0.62866627
0.06428847
-0.63355916
0.075502478
-0.64216217
0.088706038
-0.65403732
0.097926437
-0.66487353
0.095955157
-0.67275677
0.087003828
-0.67707055
0.075388502
-0.67991016
0.067070843
-0.68282177
0.061852381
-0.68642879
0.057845874
-0.69004513
0.053019034
-0.69450603
0.049898025
-0.70161404
0.048945103
-0.71115692
0.045672946
-0.72409864
0.038965143
-0.73556637
0.020128191
-0.74986078
-0.00088127421
-0.76244949
-0.043649445
-0.75916577
-0.12875488
-0.69459066
-0.26700882
-0.65073436
-0.23999456
-0.62530399
-0.19332638
-0.61396271
-0.14618181
-0.60976316
-0.11206357
-0.60860983
-0.088094727
-0.60868416
-0.070723784
-0.60919204
-0.057658631
-0.60980281
-0.04744073
-0.61038442
-0.039161268
-0.6108895
-0.032238476
-0.61130626
-0.026286663
-0.61163706
-0.021039596
-0.61188908
-0.016305813
-0.61207022
-0.011942365
-0.61218723
-0.0078371421
-0.0038907403
-0.61276636
0.018729397
-0.61203609
0.019234688
-0.61128964
0.019811844
-0.61050015
0.020663775
-0.60964989
0.021825966
-0.60872683
0.023355583
-0.60772264
0.025320823
-0.60663671
0.027815125
-0.60548352
0.030965708
-0.60430249
0.034945603
-0.6031805
0.040009039
-0.60232595
0.046538058
-0.60215338
0.054918901
-0.60313619
0.065271274
-0.60601262
0.078378914
-0.61372642
0.096419831
-0.62752692
0.11172694
-0.63868948
0.10711771
-0.64545595
0.093770303
-0.64634379
0.076276341
-0.6457361
0.066463155
-0.64567309
0.061789366
-0.64728025
0.059453035
-0.64831192
0.054050708
-0.64944524
0.051031342
-0.65616996
0.055669825
-0.66607524
0.055578224
-0.68384074
0.056730649
-0.69888835
0.035175796
-0.7278603
0.028090675
-0.75027205
-0.02123769
-0.77323457
-0.10579235
-0.67715865
-0.36308474
-0.63076772
-0.28638549
-0.60622334
-0.21787076
-0.59992087
-0.15248429
-0.6002662
-0.11171824
-0.60224903
-0.086111895
-0.60437342
-0.068599391
-0.60623188
-0.055800173
-0.60775545
-0.045917154
-0.60897156
-0.037945161
-0.60992819
-0.031281844
-0.61067129
-0.02554356
-0.611239
-0.020471892
-0.61166107
-0.015883741
-0.61195982
-0.01164362
-0.61215113
-0.0076458298
-0.0037969182
-0.58477942
0.01748596
-0.58351005
0.01796531
-0.58214142
0.018443221
-0.58066933
0.01919168
-0.57906754
0.020224177
-0.57730518
0.021593225
-0.57534563
0.023361269
-0.57314903
0.025618527
-0.5706778
0.02849448
-0.56790476
0.032172561
-0.56482861
0.036932888
-0.56155663
0.043266084
-0.55853284
0.051895105
-0.55652782
0.063266253
-0.55614883
0.077999929
-0.56153166
0.10180265
-0.58049229
0.13068758
-0.59265588
0.1192813
-0.59890925
0.10002367
-0.59405222
0.071419311
-0.58776386
0.060174802
-0.58244285
0.056468354
-0.58157593
0.058586119
-0.57952864
0.05200341
-0.57387677
0.04537947
-0.58519509
0.032529552
-0.5956201
0.03743913
-0.6046802
0.040313341
-0.60342523
0.020480325
-0.63525118
0.039878439
-0.71434584
0.019774553
-0.6691869
-0.054713832
-0.6068583
-0.22710707
-0.57379936
-0.31944443
-0.57150803
-0.2201621
-0.58113688
-0.14285544
-0.58945237
-0.10340275
-0.59561862
-0.079945641
-0.60008654
-0.064131479
-0.60336088
-0.052525832
-0.60579623
-0.043481799
-0.60762935
-0.036112048
-0.60901858
-0.029892611
-0.61007177
-0.024490372
-0.61086356
-0.019680103
-0.61144608
-0.015301219
-0.61185565
-0.011234046
-0.61211694
-0.0073845446
-0.0036689524
-0.52686953
0.015076006
-0.52437284
0.015468617
-0.52172055
0.015790938
-0.51887047
0.016341593
-0.51576831
0.017122018
-0.51234627
0.018171185
-0.50851867
0.019533666
-0.50418036
0.021280221
-0.49920713
0.023521252
-0.49346107
0.026426494
-0.48679907
0.030270888
-0.47911662
0.035583636
-0.47060971
0.04338819
-0.46224634
0.054902886
-0.45437944
0.070133024
-0.44763069
0.095053901
-0.47081057
0.15386746
-0.47005183
0.11852255
-0.46091615
0.090887995
-0.42709781
0.037600971
-0.39543867
0.028515655
-0.36804491
0.029074598
-0.3034921
0.020771676
-0.16300218
0.013454851
-0.041148686
0.0077712579
0
0
0
0
0
0
0
0
0
0
0
0