/*--------------------------------*- C++ -*----------------------------------*\
| =========                 |                                                 |
| \\      /  F ield         | foam-extend: Open Source CFD                    |
|  \\    /   O peration     | Version:     4.1                                |
|   \\  /    A nd           | Web:         http://www.foam-extend.org         |
|    \\/     M anipulation  |                                                 |
\*---------------------------------------------------------------------------*/
FoamFile
{
    version     2.0;
    format      ascii;
    class       volScalarField;
    location    "1.65";
    object      p;
}
// * * * * * * * * * * * * * * * * * * * * * * * * * * * * * * * * * * * * * //

dimensions      [0 2 -2 0 0 0 0];

internalField   nonuniform List<scalar> 
4393
(
-46.418274
-92.981811
-146.7466
-201.53768
-258.52846
-318.02964
-380.42417
-446.02159
-515.04615
-587.60802
-663.67515
-743.04513
-825.31982
-909.88667
-995.91041
-1082.3385
-1167.9204
-1251.2387
-1330.7464
-1404.8061
-1471.7266
-1529.7974
-1577.324
-1612.6684
-1634.3034
-1640.8855
-1631.3607
-1605.1088
-1562.0232
-1502.604
-1428.0625
-1340.3042
-1241.8234
-1135.5207
-1024.4767
-911.72598
-800.06801
-691.93544
-589.32538
-493.78602
-406.44479
-328.06277
-259.1005
-199.78384
-150.17413
-110.2404
-79.763321
-57.832378
-43.628081
-45.166109
-92.39599
-146.03402
-200.67386
-257.49553
-316.84192
-379.10961
-444.62021
-513.60985
-586.2007
-662.37235
-741.93244
-824.48991
-909.43466
-995.92823
-1082.9091
-1169.113
-1253.106
-1333.3246
-1408.1151
-1475.7718
-1534.5696
-1582.7974
-1618.7955
-1641.0076
-1648.0569
-1638.854
-1612.7038
-1569.4362
-1509.5442
-1434.2449
-1345.4786
-1245.8055
-1138.2118
-1025.868
-911.88886
-799.13378
-690.0721
-586.71536
-490.60839
-402.86291
-324.21746
-255.10992
-195.75334
-146.20058
-106.3603
-75.961662
-54.862727
-44.264556
-44.36187
-91.499237
-144.77574
-199.0548
-255.52564
-314.5608
-376.57895
-441.924
-510.85518
-583.51841
-659.91607
-739.87545
-823.01882
-908.73994
-996.19242
-1084.2947
-1171.7533
-1257.0997
-1338.7354
-1414.9751
-1484.0844
-1544.3102
-1593.9092
-1631.1786
-1654.5013
-1662.4209
-1653.7592
-1627.7381
-1584.0957
-1523.2533
-1446.4222
-1355.612
-1253.5194
-1143.3092
-1028.3381
-911.88392
-796.92634
-686.00505
-581.1557
-483.91057
-395.34379
-316.14223
-246.68997
-187.15637
-137.55084
-97.688008
-67.257899
-46.702974
-37.920445
-43.571151
-90.203492
-142.87202
-196.57257
-252.49939
-311.05362
-372.68278
-437.76273
-506.58752
-579.33955
-656.05706
-736.59872
-820.60896
-907.489
-996.38132
-1086.1741
-1175.528
-1262.9214
-1346.7025
-1425.1388
-1496.4546
-1558.8584
-1610.5623
-1649.8029
-1674.875
-1684.1996
-1676.4524
-1650.7043
-1606.545
-1544.2895
-1465.1356
-1371.1993
-1265.3941
-1151.1696
-1032.1788
-911.95612
-793.66719
-679.95753
-572.89554
-473.98967
-384.2528
-304.29108
-234.40479
-174.68808
-125.07531
-85.291476
-55.022288
-34.934337
-26.790213
-42.746017
-88.586071
-140.40163
-193.29787
-248.47666
-306.36999
-367.46085
-432.16663
-500.82795
-573.67712
-650.80217
-732.10636
-817.26636
-905.69541
-996.52123
-1088.5891
-1180.4947
-1270.6405
-1357.3007
-1438.6792
-1512.9483
-1578.2702
-1632.8045
-1674.7132
-1702.1783
-1713.459
-1707.0292
-1681.7391
-1636.9531
-1572.8178
-1490.4977
-1392.2538
-1281.3118
-1161.5349
-1037.0028
-911.61339
-788.78906
-671.31382
-561.29032
-460.18308
-368.91168
-287.96552
-217.52589
-157.57773
-107.95374
-68.296682
-38.299829
-18.68347
-10.92706
-41.73744
-86.536882
-137.25307
-189.114
-243.3304
-300.36946
-360.75691
-424.96195
-493.38481
-566.32292
-643.93071
-726.17231
-812.77023
-903.15685
-996.44223
-1091.4142
-1186.5794
-1280.2368
-1370.5626
-1455.6798
-1533.7004
-1602.7369
-1660.8936
-1706.2493
-1736.8502
-1750.7507
-1746.1566
-1721.6152
-1676.1691
-1609.7099
-1523.3303
-1419.4774
-1301.8089
-1174.766
-1043.0179
-910.95474
-782.33328
-660.10555
-546.40014
-442.60528
-349.50317
-267.41971
-196.37233
-136.19517
-86.586796
-47.090521
-17.368772
1.895279
9.4341015
-40.595509
-84.127167
-133.49118
-184.07008
-237.08793
-293.05303
-352.54164
-416.08551
-484.15863
-557.14076
-635.27218
-718.59815
-806.90504
-899.65531
-995.93953
-1094.4705
-1193.6351
-1291.594
-1386.3954
-1476.064
-1558.6464
-1632.2099
-1694.8103
-1744.4436
-1779.005
-1796.3013
-1794.1938
-1770.8251
-1724.7865
-1655.5863
-1564.1764
-1453.2322
-1326.9989
-1190.712
-1049.8414
-909.42603
-773.64356
-645.63669
-527.5372
-420.60878
-325.4386
-242.13264
-170.49424
-110.16503
-60.679894
-21.460763
7.9040447
26.823611
34.190876
-39.186007
-81.205547
-128.95644
-178.0016
-229.57703
-284.23734
-342.61691
-405.32135
-472.91375
-545.87577
-624.55667
-709.10814
-799.40454
-894.95493
-994.83044
-1097.6468
-1201.6306
-1304.7573
-1404.9088
-1499.9924
-1587.989
-1666.9349
-1734.8568
-1789.6814
-1829.1469
-1850.7726
-1851.9889
-1830.4105
-1784.0055
-1711.7093
-1614.2143
-1494.4634
-1357.4975
-1209.6432
-1057.4495
-906.79891
-762.38322
-627.54431
-504.37058
-393.92811
-296.53039
-211.99156
-139.84088
-79.481426
-30.253242
8.5655998
37.490101
56.043737
63.248493
-37.653448
-77.930934
-123.79687
-171.03285
-220.89024
-273.97553
-330.98877
-392.62112
-459.54169
-532.35657
-611.552
-697.4183
-789.95111
-888.73185
-992.81696
-1100.6983
-1210.3874
-1319.6103
-1426.0329
-1527.423
-1621.7034
-1706.9072
-1781.0687
-1842.0771
-1887.5231
-1914.6051
-1920.2265
-1901.3234
-1855.0122
-1779.3762
-1674.6456
-1544.0581
-1393.7395
-1231.5243
-1065.4181
-902.39131
-747.74712
-605.01088
-476.14658
-361.91666
-262.25663
-176.59947
-104.13049
-43.963267
4.7912893
43.023616
71.374725
89.494052
96.516865
-35.748814
-74.004825
-117.69207
-162.83153
-210.68185
-261.90425
-317.27076
-377.56965
-443.59414
-516.10042
-595.74483
-682.99672
-778.01795
-880.50111
-989.50002
-1103.349
-1219.7672
-1336.1397
-1449.8471
-1558.4922
-1659.957
-1752.3187
-1833.6805
-1901.9528
-1954.6113
-1988.513
-1999.9354
-1984.9554
-1939.5404
-1860.5127
-1747.2975
-1603.422
-1436.5076
-1256.501
-1073.383
-895.5189
-728.91364
-577.2179
-442.13797
-323.98104
-222.16735
-135.63959
-63.159611
-3.4981246
44.49649
81.904322
109.50743
127.08884
133.89255
-33.798634
-69.806239
-111.02788
-153.76792
-199.29482
-248.32733
-301.71456
-360.35253
-425.17743
-497.12413
-577.05829
-665.67865
-763.37423
-870.00864
-984.66026
-1105.4662
-1229.7463
-1354.4137
-1476.4674
-1593.3173
-1702.8402
-1803.2314
-1892.7563
-1969.4402
-2030.7077
-2073.0756
-2092.1039
-2082.793
-2039.5858
-1957.4488
-1834.4243
-1674.2475
-1486.6344
-1284.5444
-1080.6576
-885.11618
-704.69075
-543.02756
-401.36515
-279.34231
-175.68596
-88.716648
-16.683913
42.039405
88.898399
125.17872
151.81121
168.71712
175.24988
-31.322729
-64.748353
-103.16397
-143.1671
-186.01793
-232.49046
-283.51347
-340.10048
-403.3503
-474.40916
-554.39867
-644.30974
-744.84104
-856.11861
-977.2992
-1106.2778
-1239.8197
-1374.1695
-1505.8015
-1631.8965
-1750.3827
-1859.6802
-1958.3492
-2044.6714
-2116.1358
-2168.9574
-2197.92
-2196.6909
-2157.7327
-2073.3256
-1939.1484
-1758.8897
-1545.2552
-1315.6018
-1086.3278
-869.81865
-673.60695
-501.08705
-352.70797
-227.14606
-122.20867
-35.43984
35.518226
92.74289
137.99732
172.78076
198.17297
214.23496
220.4325
-28.935353
-59.575015
-94.89807
-131.84687
-171.67525
-215.21023
-263.45973
-317.56075
-378.79211
-448.54487
-528.24831
-619.25858
-722.68953
-839.06437
-967.71685
-1106.2533
-1250.6596
-1396.2154
-1538.6636
-1674.922
-1803.0779
-1921.9454
-2030.5695
-2127.6999
-2211.0801
-2276.7106
-2318.5367
-2328.6707
-2297.0938
-2212.1923
-2065.6521
-1860.4854
-1613.7495
-1349.4071
-1089.0113
-847.73853
-633.73483
-449.70525
-294.82741
-166.41707
-61.081552
24.585876
93.645702
148.66923
191.75096
224.60052
248.4373
263.45895
269.24614
-25.834185
-53.293416
-85.133328
-118.63358
-155.00885
-195.12765
-240.07115
-291.10194
-349.69471
-417.52246
-496.38355
-588.08847
-694.30537
-816.16078
-953.35352
-1103.1788
-1260.522
-1419.2472
-1574.0534
-1721.5575
-1860.1746
-1989.3363
-2108.797
-2218.04
-2315.3462
-2396.6702
-2455.0971
-2481.0201
-2461.4977
-2379.4191
-2219.7583
-1983.4126
-1693.8849
-1385.4101
-1086.7046
-816.33269
-582.61624
-386.83346
-226.18374
-96.09593
8.3585449
91.72261
157.84461
209.81604
250.05829
280.47298
302.39845
316.15952
321.45231
-22.988274
-47.105613
-75.194249
-104.93107
-137.49259
-173.78003
-214.93913
-262.35455
-317.70637
-382.98379
-460.41864
-552.37013
-661.22092
-788.98801
-936.05543
-1099.4242
-1272.3863
-1446.659
-1615.3977
-1774.8822
-1924.1582
-2063.6286
-2194.0747
-2316.1134
-2429.0549
-2529.1508
-2608.6686
-2656.1734
-2655.5156
-2582.0936
-2409.6777
-2133.8912
-1787.8784
-1422.5329
-1076.4504
-772.1385
-517.10657
-310.00244
-145.03289
-15.06467
86.748838
166.26555
228.1799
276.09992
312.74382
340.16715
359.79274
372.05512
376.76296
-19.234005
-39.566134
-63.483986
-89.028681
-117.28553
-149.16099
-185.84184
-228.8161
-279.96341
-341.615
-416.50497
-507.64541
-618.31836
-751.84295
-909.86993
-1089.2875
-1281.1052
-1473.7727
-1658.1739
-1830.2918
-1990.374
-2140.3277
-2282.2799
-2418.3713
-2549.5399
-2672.7616
-2779.4823
-2856.4148
-2884.4363
-2829.5604
-2647.2462
-2321.0872
-1898.5227
-1458.8319
-1053.8858
-710.45809
-433.22542
-216.29706
-49.467027
77.789569
174.63811
248.39166
304.59732
347.33012
379.54025
403.37504
420.29161
430.80748
434.83654
-15.909562
-32.367251
-51.889457
-72.946165
-96.528113
-123.53
-155.16116
-192.99624
-239.10683
-296.19289
-367.57401
-457.03013
-568.92182
-708.39599
-879.34027
-1079.0098
-1295.0591
-1510.7437
-1713.4128
-1898.7626
-2069.1472
-2228.6987
-2381.1218
-2530.4775
-2680.3857
-2829.6039
-2969.1767
-3084.3381
-3154.099
-3134.0112
-2949.9601
-2559.1608
-2029.2978
-1490.9056
-1012.5346
-624.92468
-325.99167
-102.36345
62.502502
183.47653
272.40173
338.09595
386.87963
423.18031
450.07131
469.70179
483.49625
492.01871
495.27599
-11.483935
-23.59127
-38.294709
-54.438683
-72.848153
-94.363258
-120.17001
-151.87519
-191.68074
-242.61951
-308.63692
-394.36265
-505.33316
-649.10813
-833.41847
-1057.1182
-1303.0126
-1546.0299
-1768.1209
-1964.9809
-2142.9743
-2309.8848
-2471.3081
-2633.6118
-2804.7355
-2986.7702
-3170.348
-3338.4983
-3469.9067
-3511.2591
-3344.1368
-2870.7984
-2184.1433
-1512.8701
-942.74519
-506.96182
-189.29475
35.498537
192.78346
302.7505
380.12562
435.11288
474.59759
503.16002
523.83631
538.65822
548.93471
555.23083
557.62914
-7.5459574
-15.399275
-25.214384
-36.272658
-49.208335
-64.768143
-84.069016
-108.69895
-140.933
-184.1109
-242.90338
-322.98254
-431.14919
-577.96569
-777.58731
-1033.2899
-1320.8803
-1601.2875
-1847.8979
-2056.6838
-2241.3072
-2415.2343
-2585.4242
-2759.525
-2951.4775
-3168.7938
-3401.8415
-3630.6653
-3839.9341
-3979.4506
-3868.022
-3294.1303
-2367.8699
-1515.4536
-830.29343
-345.15979
-15.872107
201.09504
342.92633
435.89026
497.45813
538.82657
567.05981
586.58906
600.19875
609.65725
616.06252
619.92837
621.39196
-2.4940648
-5.6554324
-10.105335
-15.573878
-22.445053
-31.342462
-43.273948
-59.749488
-83.013127
-116.56765
-165.75626
-237.36434
-339.18046
-484.64173
-697.71908
-992.03954
-1333.7674
-1659.6115
-1930.103
-2142.1466
-2323.12
-2495.6059
-2666.793
-2843.1722
-3048.9948
-3303.174
-3599.0876
-3914.1976
-4241.4071
-4553.2176
-4583.0235
-3903.4785
-2589.3113
-1483.2204
-653.431
-124.34842
202.50727
397.84707
513.6834
582.39878
623.43317
648.17725
663.26845
672.57991
678.3823
682.0163
684.26788
685.54472
686.01527
2.9587804
3.9729637
4.5462184
4.3727133
3.3872612
1.1545931
-3.1202538
-10.724146
-23.652439
-45.261291
-81.374498
-140.13099
-230.27348
-367.38848
-589.87776
-934.91057
-1357.8538
-1750.6934
-2054.8901
-2266.9251
-2439.8808
-2611.559
-2788.5988
-2969.4139
-3193.9262
-3500.0127
-3883.2973
-4313.0922
-4763.9034
-5291.5202
-5573.8103
-4825.3578
-2837.302
-1376.242
-376.92583
174.90839
474.14906
627.83436
704.34002
740.62123
756.28029
761.57914
761.89114
760.03424
757.47732
754.96725
752.88224
751.47252
750.915
8.2851065
13.265302
19.323492
25.157926
31.020599
36.677815
41.595058
44.763024
44.51035
37.799758
18.452034
-23.53926
-98.146845
-220.10651
-443.94208
-853.46431
-1397.2821
-1876.4149
-2210.7431
-2392.8796
-2530.4286
-2685.6836
-2862.7828
-3027.8152
-3238.6402
-3573.5317
-4023.714
-4561.7461
-5089.7118
-5960.361
-6823.7182
-6299.5146
-3074.0129
-1170.9515
36.506662
572.65487
805.012
890.1736
911.79906
907.31719
893.25921
876.87532
861.26373
847.66117
836.46173
827.67544
821.19677
817.07818
815.48586
17.841136
25.859686
36.761715
47.719716
59.416598
71.801337
84.631497
97.258439
108.52226
116.23574
114.96644
93.715305
41.619931
-49.538429
-244.67549
-715.15137
-1441.8801
-2033.6101
-2413.3731
-2545.7124
-2643.0184
-2787.1993
-2982.1462
-3113.6799
-3276.6776
-3677.6989
-4224.3715
-4961.7034
-5679.3057
-7242.854
-8882.0926
-9068.3528
-3578.1298
-1038.2195
635.19319
1099.0921
1197.3509
1178.9794
1129.5274
1077.2885
1030.5875
991.36659
959.44119
934.02436
914.23856
899.26861
888.48478
881.72026
879.11829
22.15058
30.895232
46.136727
62.238208
80.171526
100.10826
122.29211
146.74782
173.26288
201.23844
227.41502
240.71453
225.96315
180.34547
45.408599
-483.28444
-1555.1588
-2311.4994
-2773.6625
-2771.0091
-2749.6659
-2813.1453
-3022.6412
-3099.9059
-3207.1638
-3763.2636
-4232.9948
-5185.2221
-6470.8433
-7863.4477
-9589.1443
-12103.54
-4823.2658
-72.514994
1722.8307
1811.9827
1641.1422
1478.7601
1346.2296
1243.2034
1163.5572
1101.9565
1054.3114
1017.6217
989.69037
968.87442
954.02882
944.77062
941.21733
36.937086
46.533228
66.460086
87.313994
110.74805
137.0774
166.90658
200.72083
238.86209
281.66265
327.57458
365.35492
371.82648
347.26615
293.74151
-191.10967
-1818.0783
-2617.1352
-3115.4964
-2772.758
-2626.8086
-2732.5432
-3131.7561
-3271.1277
-3302.434
0
0
0
0
0
0
0
0
6202.3751
3402.4561
2582.4954
2068.2385
1755.8594
1545.1252
1396.0884
1287.0014
1205.455
1143.7777
1096.9951
1061.7469
1035.6641
1017.1504
1005.6368
1001.2224
35.36675
42.182733
64.028402
87.075071
113.2049
142.73971
176.57929
215.67659
261.07478
314.42458
377.59016
445.98928
502.79952
560.82565
710.68063
552.8041
-1996.7854
-2776.9627
-3646.9058
-2968.6378
-3044.3365
-3012.3249
0
0
0
0
0
0
0
0
0
0
10129.574
6286.2536
4123.9547
3000.3242
2361.3129
1969.178
1709.0492
1527.5631
1396.2858
1299.0427
1225.9923
1170.8554
1129.4569
1098.8966
1077.2396
1063.7839
1058.6265
44.263794
54.950242
80.950031
106.97758
136.15439
169.03602
206.87572
251.1042
303.50616
367.08041
447.11658
546.08847
653.28864
754.39099
842.19556
568.47294
-3108.2258
-3581.5988
-3205.2811
0
0
0
0
0
0
0
0
0
0
0
1780.6716
3364.5942
5756.1164
5236.0896
3961.3823
3100.1684
2507.143
2107.7401
1830.6543
1632.992
1488.4297
1380.7308
1299.5697
1238.1935
1192.0514
1157.9576
1133.7807
1118.7535
1112.9925
22.191602
42.166328
66.371005
91.284915
118.75239
149.54728
184.74327
225.50536
273.13247
329.82982
399.4999
478.02718
537.53004
536.2474
558.1067
702.38656
0
0
0
0
0
0
-1132.0676
-1103.5234
-1011.3057
-917.55636
-790.08525
-495.29908
-94.947486
697.08367
2026.4396
3361.9105
4750.9872
4489.8575
3714.802
3058.6865
2552.6654
2182.2202
1911.4456
1711.6614
1562.3546
1449.532
1363.6924
1298.3449
1248.9833
1212.3853
1186.3704
1170.1778
1163.9661
19.953983
50.022161
74.970469
100.5438
127.96159
158.05677
191.47968
228.66495
269.57201
313.41798
357.8997
396.56221
406.14901
338.09178
142.01772
-338.13543
-1284.417
-1227.4745
-1147.1013
-1100.478
-1051.0809
-1021.6124
-1010.3639
-803.28912
-838.68215
-583.18177
-362.34516
-204.6175
259.08264
904.85442
1960.2925
3049.3232
3956.5653
3851.8966
3404.298
2933.5971
2528.4616
2206.0155
1956.704
1765.4224
1618.5287
1505.3808
1418.1054
1351.0012
1299.9423
1261.8833
1234.7284
1217.7884
1211.2839
20.663328
46.485408
72.120256
97.971774
125.28638
154.81514
187.13913
222.62495
261.2591
302.13411
342.03499
373.73557
384.81868
353.15832
205.21566
-227.9222
-792.30491
-920.9587
-962.5477
-966.15043
-887.80253
-842.31999
-818.54927
-691.79999
-620.94366
-417.54038
-179.14342
77.742773
510.88679
1096.4661
1896.1867
2721.5881
3334.8854
3356.8267
3105.6567
2777.1431
2463.3574
2193.81
1973.5974
1797.6785
1658.5137
1548.9431
1463.0388
1396.1804
1344.8434
1306.3177
1278.6979
1261.4185
1254.7757
14.996585
36.230587
58.796979
81.291009
104.29082
128.03548
152.53046
177.41593
201.78996
223.68914
238.89685
240.18108
218.24891
159.21441
15.075086
-283.91203
-606.9031
-732.46442
-784.5182
-794.28613
-753.12496
-703.47392
-642.23481
-537.76204
-423.88636
-238.24318
-11.498664
269.8837
668.60831
1187.7221
1823.2422
2450.8963
2889.5204
2967.0586
2834.972
2613.0011
2376.1814
2157.6761
1969.1884
1812.3855
1684.4722
1581.3761
1499.0909
1434.1696
1383.8
1345.7038
1318.2394
1300.9994
1294.3626
23.838361
46.444881
70.18986
93.656138
117.54421
141.96097
166.72594
191.21043
214.09572
232.8151
242.68429
236.66989
205.98868
135.39753
-7.2593872
-236.55101
-460.15466
-579.80563
-635.38298
-644.54066
-615.83441
-568.29254
-497.28093
-394.45992
-264.34909
-82.932924
139.16094
416.11337
777.02649
1223.7719
1735.5101
2221.7453
2557.23
2658.5601
2599.6226
2454.8462
2280.1778
2107.1228
1949.7496
1813.4689
1698.7942
1604.1108
1527.1062
1465.4575
1417.085
1380.1846
1353.4179
1336.5533
1330.0512
12.024197
29.927694
50.032179
70.035733
90.04101
109.92723
129.38615
147.74691
163.76075
175.1827
178.31564
168.0615
137.63847
74.654256
-40.055187
-203.50769
-358.80716
-456.74741
-506.07888
-514.23345
-488.92993
-440.00548
-365.68917
-262.60083
-128.53854
46.964147
261.85442
525.19088
849.67421
1232.3373
1648.6362
2032.8057
2301.9488
2411.5831
2398.1276
2308.5354
2183.1595
2048.951
1920.3868
1804.4654
1703.831
1618.675
1548.0641
1490.6661
1445.0903
1410.005
1384.3868
1368.1814
1361.9232
21.407254
40.632414
60.854079
80.36771
99.453573
117.84344
135.02363
150.10171
161.62895
167.32362
163.94537
147.54848
113.081
52.273556
-43.556995
-165.61533
-279.00335
-356.1247
-395.68992
-400.4566
-375.18735
-324.72553
-248.67403
-145.2827
-11.77423
156.79238
361.05905
606.02187
895.95168
1224.4159
1567.8663
1878.5075
2101.997
2212.1875
2227.1466
2176.7606
2089.8436
1988.0677
1885.0998
1788.3898
1701.7412
1626.5697
1562.9908
1510.4909
1468.2866
1435.4859
1411.3699
1396.0508
1390.1249
11.864134
27.96864
45.959734
63.611606
80.820504
97.231919
112.31665
125.22204
134.61711
138.50962
134.2248
118.55901
87.502207
35.679591
-40.002311
-130.43177
-213.52478
-271.83067
-300.84897
-300.62643
-273.46198
-221.63385
-145.03193
-42.51115
87.994163
248.90854
441.01364
666.30036
924.57406
1207.7343
1495.1768
1752.1622
1942.6281
2049.7638
2082.4752
2059.9381
2002.6781
1927.6335
1846.8493
1767.6915
1694.4092
1629.1883
1572.8938
1525.6524
1487.1885
1456.9987
1434.6431
1420.3806
1414.8538
17.14035
33.237304
50.219985
66.364753
81.714303
95.886708
108.32924
118.22212
124.38324
125.18558
118.61221
102.36237
73.69097
29.625367
-29.988915
-97.382169
-158.13647
-200.46209
-219.38486
-213.53437
-183.55771
-130.34318
-53.764327
46.960281
173.10547
325.77654
505.17487
711.24627
941.4182
1187.158
1431.2312
1648.3113
1813.9321
1916.4938
1960.2186
1957.4979
1922.9611
1869.6952
1807.8366
1744.3104
1683.4266
1627.7751
1578.719
1536.8592
1502.3257
1474.9438
1454.5174
1441.4277
1436.3463
11.965869
26.365701
42.104173
57.216581
71.535734
84.633726
95.955477
104.72778
109.89841
110.11345
103.80197
89.276597
64.758217
28.90727
-17.019681
-66.703674
-110.25005
-139.22882
-148.99448
-137.55129
-104.54781
-50.079605
26.067913
124.39877
245.54581
389.78539
556.64722
744.78754
950.46859
1165.4733
1375.7034
1562.5375
1708.9272
1806.4498
1856.889
1868.299
1851.131
1815.4434
1769.5685
1719.7248
1670.0959
1623.4068
1581.3249
1544.783
1514.2209
1489.7314
1471.3238
1459.4741
1454.8659
13.672514
27.359565
41.871647
55.550736
68.315701
79.77116
89.415416
96.581112
100.40714
99.848924
93.763535
81.007125
60.559492
32.098405
-2.5894236
-38.476594
-68.50168
-86.40764
-88.109994
-71.431223
-35.489586
20.054039
95.479335
191.07373
307.00121
442.97344
597.96291
769.86563
954.48564
1144.3018
1327.8968
1491.4045
1622.6061
1715.1566
1769.5577
1791.0637
1787.1664
1765.5771
1733.0732
1695.058
1655.4634
1616.9944
1581.471
1550.0421
1523.3733
1501.7674
1485.4
1474.8151
1470.6913
11.353742
24.027823
37.645102
50.500542
62.432349
73.046758
81.880013
88.35199
91.760659
91.312608
86.206041
75.732682
59.445965
37.651013
12.276005
-12.6524
-31.896865
-40.645112
-35.405046
-14.03783
24.57545
80.988333
155.49843
248.21849
358.97841
487.10011
631.16249
788.66194
955.34889
1124.5373
1286.9998
1432.2481
1551.2803
1639.1809
1695.7796
1724.5053
1730.75
1720.4242
1699.0133
1671.1269
1640.3515
1609.2936
1579.8156
1553.1932
1530.2479
1511.4413
1497.0798
1487.7492
1484.1077
11.407409
23.295985
35.923453
47.75432
58.66616
68.304993
76.268425
82.076687
85.182526
85.010333
81.033207
72.876291
60.489044
44.522017
26.847221
10.721129
0.1624625
-1.0282897
10.105407
35.553926
76.498755
133.57347
207.055
296.91476
402.74664
523.60904
657.8353
802.75899
954.29705
1106.6005
1252.1843
1382.9754
1492.1644
1575.8546
1633.5314
1667.4213
1681.4223
1680.072
1667.8002
1648.5063
1625.3922
1600.9184
1576.9178
1554.727
1535.2678
1519.1187
1506.6845
1498.5704
1495.3985
10.343694
21.515201
33.418455
44.560509
54.805631
63.829388
71.28569
76.786976
79.922803
80.301595
77.620568
71.762635
62.951031
52.019472
40.711705
31.704804
28.182063
33.206441
49.281287
78.204389
121.12212
178.66787
251.07254
338.19319
439.45892
553.75806
679.29307
813.38242
952.21531
1090.7113
1222.7513
1342.0031
1443.185
1523.1434
1581.1971
1618.7738
1638.7037
1644.4829
1639.6903
1627.6166
1611.0828
1592.3712
1573.2515
1555.0721
1538.813
1525.135
1514.5165
1507.561
1504.8393
9.940603
20.476349
31.670283
42.12998
51.740024
60.213256
67.259661
72.57512
75.865208
76.886667
75.510352
71.807422
66.178248
59.538174
53.481479
50.250003
52.431811
62.544049
82.715237
114.54297
159.08953
216.94395
288.27807
372.85678
469.99599
578.48211
696.46763
821.34167
949.60204
1076.8385
1197.9925
1307.9982
1402.6584
1479.3699
1537.3815
1577.5852
1602.0458
1613.4716
1614.7641
1608.7017
1597.7597
1584.0283
1569.1942
1554.5866
1541.2123
1529.7897
1520.8526
1514.9872
1512.6934
9.3564852
19.364673
30.008295
39.956296
49.101826
57.191806
63.988221
69.261442
72.815898
74.529229
74.407933
72.66113
69.801633
66.76969
65.018027
66.459591
73.249532
87.495571
111.02121
145.23577
191.09833
249.13284
319.44847
401.73653
495.23701
598.68202
710.22638
827.37302
946.92368
1065.0319
1177.4571
1280.0603
1369.4252
1443.36
1501.0941
1543.1582
1571.0666
1586.9345
1593.1293
1592.0069
1585.7417
1576.2383
1565.0919
1553.5959
1542.7635
1533.3523
1525.9436
1521.096
1519.2104
8.9349227
18.485926
28.650054
38.160434
46.922789
54.715622
61.346493
66.648487
70.506259
72.892209
73.915125
73.881693
73.372873
73.323635
75.062091
80.25206
90.729943
108.29451
134.5247
170.66342
217.5652
275.68319
345.06664
425.34901
515.72085
614.89166
721.04859
831.82322
944.29369
1055.0745
1160.5505
1257.264
1342.365
1413.9706
1471.3164
1514.6884
1545.2057
1564.5396
1574.6426
1577.529
1575.12
1569.1526
1561.1297
1552.3026
1543.6751
1536.0297
1529.9955
1526.1074
1524.6262
8.5490877
17.743427
27.539653
36.720574
45.201094
52.788061
59.328721
64.708633
68.877039
71.879896
73.902159
75.318269
76.748689
79.109626
83.625577
91.772961
105.15325
125.33313
153.69929
191.35468
239.05855
297.19696
365.76608
444.35492
532.12319
627.77706
729.54963
835.19741
942.03518
1047.0434
1147.0791
1239.1826
1320.9147
1390.6224
1447.5582
1491.8426
1524.3118
1546.3085
1559.468
1565.5345
1566.2221
1563.1244
1557.6591
1551.0352
1544.2389
1538.0664
1533.2129
1530.2279
1529.1731
8.1797945
17.102069
26.616354
35.549343
43.821643
51.264816
57.758883
63.231082
67.680324
71.20752
74.052572
76.635772
79.599395
83.837383
90.49235
100.90233
116.49792
138.6745
168.67213
207.48186
255.78273
313.90299
381.79478
459.01395
544.70176
637.57101
735.9025
837.56216
940.05592
1040.6445
1136.5325
1225.1188
1304.2583
1372.4659
1429.0138
1473.9121
1507.7982
1531.7773
1547.249
1555.7519
1558.8386
1557.9875
1554.5457
1549.6888
1544.386
1539.4367
1535.6169
1533.5682
1533.0776
7.8074653
16.603247
25.940253
34.712439
42.84694
50.199286
56.676518
62.237938
66.9192
70.860719
74.340478
77.80858
81.918223
87.542318
95.761628
107.81601
125.01737
148.64071
179.82018
219.46341
268.18762
326.27577
393.64649
469.83224
553.96402
644.76487
740.55736
839.29431
938.62557
1036.0147
1128.9109
1214.9612
1292.2229
1359.3286
1415.5683
1460.88
1495.7668
1521.1689
1538.3192
1548.6077
1553.4681
1554.2919
1552.3722
1548.8589
1544.7053
1540.6821
1537.614
1536.3936
1536.6787
7.3041602
16.16768
25.424151
34.111359
42.165155
49.465523
55.940285
61.57092
66.417179
70.644524
74.554268
78.613589
83.479921
90.010438
99.246002
112.36649
130.61027
155.17367
187.1206
227.30321
276.29691
334.35383
401.37009
476.86323
559.95896
649.3892
743.5067
840.32379
937.58581
1032.8877
1123.8345
1208.2291
1284.2562
1350.6233
1406.6334
1452.1814
1487.6869
1513.986
1532.2048
1543.6366
1549.6371
1551.5382
1550.5926
1547.936
1544.5155
1541.047
1538.3506
1537.9199
1540.1131
6.0814597
15.835463
25.14315
33.822772
41.84588
49.124493
55.600653
61.268034
66.198695
70.570626
74.696886
79.053406
84.300487
91.290135
101.048
114.71779
133.49022
158.52475
190.85535
231.30729
280.43511
338.47526
405.31238
480.45644
563.03062
651.77168
745.04807
840.9027
937.12923
1031.3884
1121.3624
1204.9312
1280.3423
1346.3406
1402.2363
1447.9043
1483.7238
1510.4797
1529.2464
1541.2703
1547.8634
1550.3271
1549.9021
1547.7274
1544.7603
1541.676
1539.2602
1539.7832
1545.6254
-2227.7587
-2483.6253
-2699.5394
-2881.484
-3023.9678
-3106.2149
-3108.2258
-3029.2216
-2857.2789
-2664.0036
-3205.3892
-3205.2811
-3198.4357
-3187.4487
-3173.3345
-3160.5817
-3148.7459
-3158.2126
-3158.8147
-3131.4104
-3183.0315
-3181.907
-3167.1527
-3150.1895
-3133.2743
-3124.2835
-3105.9909
-3113.208
-3100.0764
-3046.5503
-3137.8421
-3135.1801
-3126.5769
-3117.8812
-3109.0876
-3112.0999
-3101.0043
-3098.9716
-3085.5704
-3048.7084
-3078.1501
-3076.7155
-3072.17
-3066.2526
-3057.7471
-3058.1471
-3057.8128
-3057.1426
-3055.6641
-3059.401
-3030.1694
-3029.3771
-3023.6162
-3013.455
-2998.2001
-2968.6378
-2990.8018
-3003.1026
-3009.7483
-3023.0971
-3013.4131
-3015.1073
-3018.359
-3021.7461
-3032.6628
-3008.5369
-3008.2149
-3004.5877
-2989.6695
-2966.6814
-3027.9235
-3029.5543
-3035.6401
-3044.3365
-3068.3865
-3076.103
-3056.7218
-3030.7043
-3000.8675
-2965.4635
-3848.4529
-3860.7652
-3831.7264
-3787.3168
-3749.757
-3717.6919
-3696.1885
-3682.4624
-3673.5225
-3675.2646
-2986.9818
-2985.7896
-2977.9087
-2960.9536
-2921.5854
-2946.9464
-2958.9512
-2961.1439
-2950.658
-2923.5511
-3009.2484
-3012.3249
-3018.6882
-3037.9315
-3013.9714
-3005.2509
-3001.2993
-2993.8837
-2979.8936
-2964.7519
-3048.507
-3050.9596
-3056.1375
-3080.7267
-3093.4964
-3069.4242
-3042.6922
-3022.4077
-3003.5388
-2987.053
-2999.6599
-2995.8312
-2976.9423
-2951.6614
-2974.5984
-2992.0794
-3003.3184
-3010.7383
-3013.0014
-3020.0188
-3033.2655
-3035.7259
-3034.8624
-2997.9712
-3007.1046
-3020.7173
-3031.5175
-3038.7506
-3041.8
-3051.3647
-3156.8904
-3164.6844
-3188.9177
-3187.4469
-3159.5472
-3131.7561
-3111.0627
-3095.6698
-3080.2524
-3063.0195
-3141.9783
-3137.1436
-3129.6599
-3149.831
-3150.4249
-3144.6322
-3138.4096
-3132.9746
-3126.9765
-3128.8789
-3162.7558
-3162.0351
-3137.7507
-3147.9048
-3159.3505
-3167.4865
-3171.9067
-3173.7104
-3173.0009
-3177.7023
-3277.1164
-3289.5197
-3285.469
-3271.1277
-3255.806
-3243.7651
-3235.0336
-3229.24
-3222.4246
-3213.8643
-3282.4891
-3286.5606
-3294.0152
-3285.9373
-3276.2942
-3270.7941
-3270.559
-3275.0002
-3280.0408
-3292.3433
-3186.325
-3172.215
-3189.5514
-3215.4283
-3244.9017
-3273.5986
-3300.5725
-3325.1454
-3345.2982
-3370.2634
-3326.0532
-3302.434
-3312.0415
-3332.3491
-3359.1125
-3384.3604
-3406.826
-3425.2573
-3437.7757
-3453.4905
-3701.6749
-3692.6555
-3661.9568
-3627.8857
-3602.8069
-3583.3216
-3571.2316
-3564.0736
-3557.9587
-3555.0926
-3016.679
-3015.1534
-3009.7383
-2998.12
-2992.634
-2999.8929
-2999.53
-2994.1794
-2984.9472
-2983.9235
-3540.5382
-3549.135
-3563.5693
-3610.8531
-3667.0287
-3718.8602
-3739.9425
-3721.8035
-3638.1028
-3466.2532
-3268.7587
-3268.9935
-3271.943
-3276.8111
-3277.9218
-3277.0257
-3275.0644
-3269.9198
-3265.7621
-3219.285
-3179.5261
-3227.5523
-3289.6667
-3394.3698
-3505.6951
-3592.5208
-3635.0765
-3595.2072
-3447.0639
-3214.6351
-3480.277
-3490.3205
-3511.2513
-3547.9505
-3581.5988
-3610.2584
-3618.8295
-3618.3247
-3582.5466
-3470.1575
-3367.3454
-3371.7354
-3385.9149
-3409.8731
-3430.834
-3448.49
-3456.6156
-3446.1966
-3433.5789
-3381.8274
11318.722
10715.546
10129.574
9489.9391
8832.8459
8179.539
7545.1802
6936.7836
6347.344
5770.304
8301.8483
8224.5314
8101.2594
7839.6074
7501.7191
7111.2848
6689.6064
6254.5661
5816.3989
5360.001
-3709.5009
-3727.9365
-3745.3442
-3751.3106
-3759.9993
-3763.2636
-3768.0591
-3771.4949
-3772.82
-3776.3117
-3705.8521
-3709.7033
-3745.0496
-3776.2803
-3815.3393
-3842.5109
-3866.4373
-3882.4673
-3891.1148
-3895.3026
-3946.5155
-3939.2801
-3955.509
-3963.0861
-3991.466
-4009.8457
-4029.6726
-4042.6489
-4048.0683
-4043.6183
-4222.4233
-4212.0683
-4226.3372
-4216.9236
-4232.9948
-4234.8766
-4241.3993
-4242.4479
-4238.8759
-4234.5148
-4544.8768
-4526.7371
-4538.4822
-4511.4471
-4515.2329
-4497.386
-4484.9279
-4464.9008
-4437.2334
-4404.8727
-4901.1056
-4873.8834
-4883.4904
-4837.0692
-4828.6372
-4790.1483
-4757.3174
-4713.8953
-4659.2257
-4599.0147
-5281.8496
-5243.3993
-5252.0394
-5185.2221
-5165.6719
-5107.5833
-5056.1878
-4992.7188
-4916.4635
-4831.1515
-5682.8603
-5630.7851
-5639.6099
-5550.5887
-5519.7719
-5441.5439
-5370.8776
-5288.4427
-5198.4687
-5115.9183
-6105.0441
-6035.9216
-6045.7706
-5931.7763
-5888.3057
-5787.8969
-5693.5294
-5583.5009
-5458.1877
-5322.5872
-6548.5004
-6458.4126
-6470.8433
-6329.1984
-6271.9442
-6149.0594
-6030.8964
-5896.7843
-5747.1782
-5585.4189
-7019.3414
-6902.2104
-6917.9745
-6744.4917
-6670.3455
-6522.7546
-6376.8533
-6214.6284
-6036.1369
-5850.2663
-7516.4403
-7366.2089
-7388.3263
-7179.887
-7085.7239
-6911.6635
-6733.8685
-6537.7861
-6319.1649
-6081.8848
-8058.1147
-7863.4477