/*--------------------------------*- C++ -*----------------------------------*\
| =========                 |                                                 |
| \\      /  F ield         | foam-extend: Open Source CFD                    |
|  \\    /   O peration     | Version:     4.1                                |
|   \\  /    A nd           | Web:         http://www.foam-extend.org         |
|    \\/     M anipulation  |                                                 |
\*---------------------------------------------------------------------------*/
FoamFile
{
    version     2.0;
    format      ascii;
    class       volScalarField;
    location    "1.65";
    object      p;
}
// * * * * * * * * * * * * * * * * * * * * * * * * * * * * * * * * * * * * * //

dimensions      [0 2 -2 0 0 0 0];

internalField   nonuniform List<scalar> 
4393
(
-46.421737
-92.987625
-146.75543
-201.54954
-258.54349
-318.04797
-380.44592
-446.04691
-515.07518
-587.64086
-663.71187
-743.08576
-825.36434
-909.93495
-995.96226
-1082.3936
-1167.9784
-1251.2991
-1330.8087
-1404.8696
-1471.7908
-1529.8617
-1577.3878
-1612.7314
-1634.3651
-1640.9457
-1631.4191
-1605.1654
-1562.0778
-1502.6566
-1428.1131
-1340.3529
-1241.8703
-1135.5659
-1024.5202
-911.768
-800.10866
-691.97484
-589.36367
-493.82331
-406.4812
-328.09841
-259.13548
-199.81826
-150.20809
-110.274
-79.796638
-57.865513
-43.661145
-45.169566
-92.401785
-146.04281
-200.68569
-257.51052
-316.8602
-379.13132
-444.6455
-513.63884
-586.23353
-662.40908
-741.97312
-824.5345
-909.48306
-995.98024
-1082.9644
-1169.1712
-1253.1667
-1333.3871
-1408.1789
-1475.8363
-1534.6342
-1582.8615
-1618.8587
-1641.0695
-1648.1172
-1638.9125
-1612.7604
-1569.4908
-1509.5968
-1434.2955
-1345.5273
-1245.8524
-1138.2569
-1025.9115
-911.93085
-799.1744
-690.11147
-586.75361
-490.64564
-402.89928
-324.25306
-255.14486
-195.78772
-146.2345
-106.39385
-75.994938
-54.895822
-44.297579
-44.365313
-91.505012
-144.7845
-199.06659
-255.54058
-314.57902
-376.6006
-441.94924
-510.88416
-583.55124
-659.95285
-739.91623
-823.06359
-908.7886
-996.24476
-1084.3505
-1171.812
-1257.1608
-1338.7984
-1415.0394
-1484.1493
-1544.3752
-1593.9737
-1631.2421
-1654.5635
-1662.4814
-1653.8178
-1627.7948
-1584.1503
-1523.3059
-1446.4728
-1355.6606
-1253.5662
-1143.3542
-1028.3816
-911.92585
-796.96688
-686.04434
-581.19387
-483.94774
-395.38008
-316.17775
-246.72482
-187.19067
-137.58468
-97.721481
-67.291095
-46.735988
-37.953389
-43.574575
-90.209222
-142.88071
-196.58426
-252.51421
-311.07173
-372.70432
-437.78788
-506.61643
-579.37237
-656.0939
-736.63965
-820.65397
-907.53802
-996.43415
-1086.2304
-1175.5874
-1262.9833
-1346.7664
-1425.204
-1496.5204
-1558.9241
-1610.6274
-1649.8669
-1674.9376
-1684.2604
-1676.5112
-1650.7611
-1606.5997
-1544.3421
-1465.1862
-1371.2479
-1265.4408
-1151.2146
-1032.2222
-911.99795
-793.70763
-679.99672
-572.9336
-474.02671
-384.28896
-304.32648
-234.43953
-174.72226
-125.10902
-85.324828
-55.055363
-34.967232
-26.823037
-42.749429
-88.591751
-140.41024
-193.30945
-248.49135
-306.38796
-367.48226
-432.19165
-500.85678
-573.70992
-650.83908
-732.14747
-817.3117
-905.74492
-996.57472
-1088.6463
-1180.5551
-1270.7035
-1357.3657
-1438.7454
-1513.0151
-1578.3369
-1632.8704
-1674.7779
-1702.2413
-1713.5201
-1707.0883
-1681.7961
-1637.0078
-1572.8705
-1490.5483
-1392.3024
-1281.3584
-1161.5798
-1037.046
-911.65509
-788.82936
-671.35285
-561.32822
-460.21997
-368.94768
-288.00074
-217.56046
-157.61174
-107.98729
-68.329872
-38.332743
-18.716204
-10.959725
-41.740834
-86.542494
-137.26157
-189.12543
-243.34492
-300.38723
-360.77812
-424.9868
-493.41351
-566.35567
-643.96768
-726.21364
-812.81597
-903.20696
-996.49655
-1091.4724
-1186.641
-1280.3012
-1370.629
-1455.7475
-1533.7686
-1602.8048
-1660.9606
-1706.3148
-1736.9139
-1750.8123
-1746.216
-1721.6723
-1676.224
-1609.7626
-1523.3808
-1419.5259
-1301.8555
-1174.8107
-1043.061
-910.99627
-782.37339
-660.14439
-546.43783
-442.64196
-349.53896
-267.45473
-196.40669
-136.22897
-86.620145
-47.123509
-17.401486
1.8627437
9.4016353
-40.59888
-84.13269
-133.49954
-184.08132
-237.10222
-293.07055
-352.56259
-416.11014
-484.18716
-557.17343
-635.3092
-718.63971
-806.95123
-899.70615
-995.99485
-1094.53
-1193.6982
-1291.6602
-1386.4636
-1476.1335
-1558.7162
-1632.2793
-1694.8785
-1744.5101
-1779.0695
-1796.3635
-1794.2535
-1770.8824
-1724.8415
-1655.6389
-1564.2268
-1453.2806
-1327.0454
-1190.7566
-1049.8843
-909.46736
-773.68346
-645.6753
-527.57465
-420.64521
-325.47414
-242.16741
-170.52835
-110.19858
-60.712997
-21.493508
7.8715716
26.791315
34.158648
-39.189353
-81.210969
-128.96462
-178.01261
-229.59104
-284.25455
-342.63755
-405.34567
-472.94204
-545.90829
-624.59371
-709.14993
-799.45124
-895.00659
-994.88696
-1097.7079
-1201.6956
-1304.8255
-1404.9793
-1500.0641
-1588.0609
-1667.0062
-1734.9266
-1789.7491
-1829.2122
-1850.8353
-1852.049
-1830.468
-1784.0605
-1711.7619
-1614.2647
-1494.5117
-1357.5438
-1209.6876
-1057.4922
-906.84
-762.42286
-627.58264
-504.40775
-393.96425
-296.56564
-212.02603
-139.8747
-79.514692
-30.286059
8.5331376
37.457907
56.011718
63.216542
-37.656749
-77.936219
-123.80483
-171.04356
-220.90388
-273.99233
-331.00899
-392.64504
-459.56963
-532.38887
-611.58899
-697.46029
-789.99834
-888.78444
-992.87485
-1100.7612
-1210.4547
-1319.6811
-1426.1061
-1527.4974
-1621.7779
-1706.9806
-1781.1403
-1842.1462
-1887.5895
-1914.6684
-1920.2869
-1901.3811
-1855.0672
-1779.4288
-1674.696
-1544.1063
-1393.7856
-1231.5685
-1065.4605
-902.43214
-747.78647
-605.0489
-476.18342
-361.95247
-262.29153
-176.63361
-104.16397
-43.9962
4.7588
42.991477
71.342851
89.462349
96.485229
-35.752078
-74.009966
-117.69979
-162.84191
-210.69509
-261.92058
-317.29048
-377.59307
-443.62164
-516.13239
-595.78169
-683.03887
-778.06572
-880.55472
-989.55949
-1103.414
-1219.8371
-1336.2136
-1449.9236
-1558.5698
-1660.0345
-1752.3947
-1833.7541
-1902.0235
-1954.6787
-1988.5771
-1999.9962
-1985.0132
-1939.5955
-1860.5653
-1747.3477
-1603.47
-1436.5536
-1256.545
-1073.4252
-895.55942
-728.95265
-577.25556
-442.17444
-324.01646
-222.20187
-135.67334
-63.19271
-3.5306838
44.464369
81.872545
109.47591
127.05749
133.86127
-33.801827
-69.81118
-111.03528
-153.77786
-199.30753
-248.34307
-301.73363
-360.37531
-425.20433
-497.15563
-577.09489
-665.72085
-763.42249
-870.06333
-984.72148
-1105.5337
-1229.8194
-1354.4913
-1476.5478
-1593.3988
-1702.9212
-1803.3104
-1892.8323
-1969.5126
-2030.7762
-2073.1403
-2092.165
-2082.8508
-2039.6408
-1957.5013
-1834.4744
-1674.2954
-1486.6802
-1284.5882
-1080.6995
-885.15637
-704.72939
-543.06482
-401.40119
-279.3773
-175.72005
-88.749966
-16.716587
42.007264
88.866688
125.14734
151.78009
168.68617
175.21899
-31.325861
-64.753091
-103.17103
-143.17657
-186.03005
-232.50551
-283.53179
-340.12248
-403.37646
-474.44002
-554.43485
-644.35187
-744.88974
-856.1744
-977.36238
-1106.3482
-1239.8966
-1374.2514
-1505.8866
-1631.9827
-1750.4679
-1859.7628
-1958.4279
-2044.7457
-2116.2054
-2169.0227
-2197.9812
-2196.7487
-2157.7876
-2073.3778
-1939.1984
-1758.9375
-1545.3008
-1315.6454
-1086.3694
-869.85848
-673.64518
-501.12386
-352.74354
-227.18057
-122.24227
-35.47268
35.486021
92.711208
137.96606
172.74982
198.14228
214.20444
220.40203
-28.938385
-59.579484
-94.904692
-131.85576
-171.68664
-215.22443
-263.47711
-317.58175
-378.81728
-448.57485
-528.28382
-619.3004
-722.73849
-839.12123
-967.78212
-1106.327
-1250.7409
-1396.3026
-1538.7543
-1675.0137
-1803.1681
-1922.032
-2030.6512
-2127.7762
-2211.1509
-2276.7763
-2318.5979
-2328.7282
-2297.1483
-2212.2443
-2065.7018
-1860.533
-1613.7949
-1349.4504
-1089.0526
-847.77797
-633.7726
-449.74156
-294.86246
-166.45105
-61.114622
24.553562
93.614013
148.63805
191.72019
224.57006
248.40708
263.42888
269.21613
-25.837116
-53.297594
-85.139471
-118.6418
-155.01942
-195.14088
-240.08744
-291.12177
-349.71869
-417.5513
-496.41812
-588.12974
-694.35439
-816.21862
-953.42103
-1103.2562
-1260.6085
-1419.3407
-1574.1509
-1721.6559
-1860.2708
-1989.4277
-2108.8821
-2218.1182
-2315.4179
-2396.7361
-2455.1581
-2481.0771
-2461.5518
-2379.4708
-2219.8079
-1983.4601
-1693.9302
-1385.4532
-1086.7456
-816.37171
-582.65352
-386.86922
-226.21821
-96.129317
8.3260605
91.690871
157.81348
209.7854
250.02804
280.44304
302.36873
316.12995
321.4228
-22.99108
-47.109452
-75.199841
-104.93854
-137.50221
-173.79213
-214.95411
-262.37296
-317.72885
-383.01116
-460.45189
-552.41046
-661.26964
-789.04659
-936.12521
-1099.5059
-1272.479
-1446.7602
-1615.5037
-1774.9888
-1924.2615
-2063.7256
-2194.1635
-2316.1936
-2429.1273
-2529.2166
-2608.7289
-2656.2296
-2655.5689
-2582.1448
-2409.7271
-2133.9387
-1787.9237
-1422.5759
-1076.491
-772.17708
-517.1433
-310.03759
-145.06672
-15.097408
86.716997
166.23444
228.14938
276.06987
312.71415
340.13776
359.76357
372.02608
376.73397
-19.236639
-39.569553
-63.488912
-89.035248
-117.29401
-149.17173
-185.85525
-228.83275
-279.984
-341.64042
-416.53639
-507.68422
-618.36623
-751.90181
-909.94183
-1089.3738
-1281.2053
-1473.8832
-1658.2901
-1830.4082
-1990.4859
-2140.431
-2282.3724
-2418.4532
-2549.6125
-2672.8267
-2779.5414
-2856.4697
-2884.4885
-2829.611
-2647.2956
-2321.135
-1898.5681
-1458.8748
-1053.9262
-710.49621
-433.26156
-216.33154
-49.50015
77.757544
174.60697
248.36123
304.56745
347.3007
379.51118
403.34624
420.26301
430.779
434.8081
-15.912048
-32.370266
-51.893717
-72.951813
-96.535425
-123.53932
-155.17291
-193.01099
-239.12532
-296.21609
-367.60322
-457.06698
-568.96834
-708.45469
-879.41418
-1079.1014
-1295.1682
-1510.8661
-1713.5417
-1898.8913
-2069.2696
-2228.8097
-2381.2185
-2530.5605
-2680.4577
-2829.6675
-2969.2339
-3084.3909
-3154.1496
-3134.061
-2950.0096
-2559.2091
-2029.3437
-1490.9486
-1012.5748
-624.96231
-326.02715
-102.39718
62.470164
183.44529
272.37135
338.06625
386.85046
423.15156
450.04289
469.67361
483.46824
491.99081
495.24814
-11.486132
-23.593692
-38.298075
-54.443142
-72.85397
-94.370755
-120.17961
-151.88744
-191.69639
-242.63957
-308.66281
-394.39628
-505.37693
-649.16521
-833.49318
-1057.2149
-1303.1321
-1546.1667
-1768.2653
-1965.1242
-2143.109
-2310.0043
-2471.4085
-2633.6947
-2804.8057
-2986.8314
-3170.4024
-3338.5483
-3469.9551
-3511.308
-3344.1867
-2870.8478
-2184.19
-1512.9135
-942.78518
-506.99892
-189.32949
35.465652
192.75199
302.72012
380.09607
435.08397
474.56917
503.13198
523.80856
538.63068
548.90732
555.20355
557.6019
-7.5479672
-15.401215
-25.216956
-36.276016
-49.212737
-64.773897
-84.076524
-108.70875
-140.94583
-184.12779
-242.92584
-323.01272
-431.1899
-578.02074
-777.66264
-1033.3929
-1321.0138
-1601.444
-1848.0632
-2056.846
-2241.4581
-2415.3651
-2585.529
-2759.6065
-2951.5443
-3168.8516
-3401.8916
-3630.7111
-3839.9793
-3979.4981
-3868.0727
-3294.1818
-2367.9182
-1515.4977
-830.33332
-345.1963
-15.905986
201.06311
342.89584
435.86083
497.42948
538.7985
567.03218
586.56177
600.1717
609.63038
616.03579
619.90172
621.36534
-2.4955351
-5.6565228
-10.106747
-15.575769
-22.447648
-31.34602
-43.278805
-59.756106
-83.022157
-116.58004
-165.77348
-237.38872
-339.21516
-484.69107
-697.79081
-992.14581
-1333.9154
-1659.7911
-1930.2924
-2142.3297
-2323.2886
-2495.7486
-2666.8998
-2843.2475
-3049.0539
-3303.2263
-3599.1316
-3914.2378
-4241.4484
-4553.2636
-4583.0758
-3903.5337
-2589.3624
-1483.2657
-653.47082
-124.38422
202.4744
397.81624
513.654
582.37037
623.40548
648.15008
663.24165
672.55339
678.35598
681.99013
684.24182
685.51873
685.9893
2.9575492
3.9723572
4.5456478
4.3720468
3.386313
1.1531506
-3.1224716
-10.727538
-23.657587
-45.269048
-81.386278
-140.14927
-230.3019
-367.43175
-589.94531
-935.02182
-1358.0249
-1750.9109
-2055.1177
-2267.1382
-2440.0751
-2611.7205
-2788.7097
-2969.4801
-3193.9745
-3500.0615
-3883.3348
-4313.1246
-4763.9387
-5291.562
-5573.864
-4825.4191
-2837.3573
-1376.289
-376.96547
174.8735
474.11742
627.80481
704.31184
740.59396
756.25363
761.5529
761.86521
760.00852
757.45176
754.94179
752.85686
751.4472
750.88969
8.2851313
13.266121
19.324597
25.159171
31.021841
36.678903
41.595802
44.763152
44.509455
37.797243
18.446862
-23.549342
-98.165699
-220.13867
-443.99707
-853.57087
-1397.4734
-1876.6739
-2211.0084
-2393.1129
-2530.6429
-2685.8644
-2862.8922
-3027.86
-3238.6637
-3573.5768
-4023.7395
-4561.7631
-5089.7378
-5960.3982
-6823.7755
-6299.5871
-3074.0736
-1171.0018
36.4671
572.62117
804.98189
890.14555
911.77225
907.29113
893.23364
876.85007
861.2387
847.63628
836.43694
827.65072
821.17209
817.05353
815.46123
17.84146
25.860606
36.763211
47.721768
59.419177
71.8044
84.63499
97.262264
108.52622
116.23954
114.96956
93.715978
41.613927
-49.555799
-244.71156
-715.24553
-1442.1017
-2033.9436
-2413.7184
-2545.9944
-2643.2836
-2787.4279
-2982.2558
-3113.6965
-3276.6575
-3677.7549
-4224.3862
-4961.7039
-5679.326
-7242.8857
-8882.1533
-9068.441
-3578.2004
-1038.2776
635.15384
1099.0603
1197.3228
1178.9532
1129.5021
1077.2638
1030.5631
991.34236
959.41707
934.00031
914.21455
899.24463
888.46082
881.6963
879.09434
22.15368
30.898653
46.140971
62.243237
80.177342
100.11485
122.29946
146.75595
173.27174
201.248
227.42536
240.72499
225.96963
180.34246
45.395205
-483.35109
-1555.4181
-2311.936
-2774.1041
-2771.2731
-2749.9003
-2813.3655
-3022.7252
-3099.8993
-3207.0452
-3763.3646
-4233.0016
-5185.1993
-6470.8311
-7863.4652
-9589.1972
-12103.641
-4823.3934
-72.572256
1722.7958
1811.9547
1641.1167
1478.7359
1346.2059
1243.18
1163.5339
1101.9333
1054.2882
1017.5985
989.66715
968.85118
954.00556
944.74735
941.19405
36.940585
46.535779
66.463539
87.318537
110.75382
137.0845
166.91515
200.73112
238.87438
281.67729
327.5925
365.37739
371.851
347.2854
293.76291
-191.10632
-1818.3593
-2617.6725
-3116.0446
-2772.9655
-2627.1196
-2732.9766
-3132.0837
-3270.9269
-3302.1778
0
0
0
0
0
0
0
0
6202.3494
3402.4289
2582.4717
2068.2159
1755.8373
1545.1032
1396.0664
1286.9793
1205.4328
1143.7555
1096.9727
1061.7244
1035.6416
1017.1279
1005.6142
1001.1998
35.373284
42.188265
64.035514
87.083799
113.21532
142.75186
176.5933
215.69271
261.09337
314.44608
377.61577
446.02204
502.84014
560.86559
710.72416
552.88898
-1997.1081
-2777.6512
-3647.7351
-2968.9435
-3044.699
-3012.5135
0
0
0
0
0
0
0
0
0
0
10129.59
6286.2396
4123.9358
3000.305
2361.2933
1969.1581
1709.0289
1527.5425
1396.2649
1299.0216
1225.971
1170.8338
1129.4353
1098.8749
1077.2178
1063.762
1058.6045
44.268081
54.954102
80.95572
106.98514
136.16384
169.04741
206.88919
251.12007
303.52493
367.10267
447.14361
546.12455
653.33724
754.44559
842.22504
568.56906
-3108.6057
-3582.354
-3205.687
0
0
0
0
0
0
0
0
0
0
0
1780.7071
3364.6325
5756.1308
5236.0846
3961.3712
3100.1534
2507.1262
2107.7222
1830.6356
1632.9727
1488.41
1380.7107
1299.5492
1238.1728
1192.0305
1157.9365
1133.7595
1118.7323
1112.9712
22.192095
42.172452
66.380137
91.296493
118.76615
149.56313
184.76126
225.52565
273.15531
329.8553
399.52827
478.0616
537.5732
536.28443
558.12402
702.56868
0
0
0
0
0
0
-1132.0823
-1103.5324
-1011.3098
-917.55583
-790.07993
-495.28883
-94.931426
697.10487
2026.4679
3361.9402
4751.0001
4489.855
3714.7937
3058.6743
2552.6509
2182.2041
1911.4283
1711.6434
1562.3359
1449.5128
1363.6728
1298.325
1248.9632
1212.365
1186.3499
1170.1573
1163.9455
19.952281
50.02741
74.978275
100.5538
127.97352
158.07058
191.4954
228.68275
269.5921
313.44046
357.9247
396.58984
406.17781
338.11019
142.02583
-338.09955
-1284.523
-1227.553
-1147.156
-1100.5175
-1051.11
-1021.6338
-1010.3812
-803.30208
-838.69012
-583.18491
-362.34328
-204.6102
259.09515
904.87184
1960.313
3049.3423
3956.5735
3851.8955
3404.2915
2933.587
2528.4488
2206.0009
1956.688
1765.4054
1618.511
1505.3625
1418.0866
1350.9821
1299.9228
1261.8636
1234.7085
1217.7685
1211.2639
20.664333
46.490609
72.128282
97.982171
125.29886
154.82959
187.15553
222.64339
261.27967
302.157
342.06067
373.76426
384.84784
353.18328
205.23959
-227.9084
-792.35543
-921.01019
-962.59256
-966.18743
-887.83276
-842.34425
-818.56548
-691.81134
-620.95057
-417.54317
-179.14211
77.748294
510.89627
1096.4792
1896.2017
2721.6012
3334.8912
3356.8259
3105.6509
2777.134
2463.3458
2193.7966
1973.5825
1797.6626
1658.4969
1548.9256
1463.0207
1396.1619
1344.8247
1306.2987
1278.6787
1261.3991
1254.7563
14.999113
36.235596
58.804356
81.300408
104.30201
128.0483
152.54481
177.43173
201.80707
223.70743
238.91621
240.20094
218.26724
159.22931
15.087261
-283.91442
-606.93676
-732.50269
-784.55376
-794.31677
-753.15081
-703.49534
-642.25096
-537.77375
-423.89398
-238.24696
-11.498757
269.88713
668.6149
1187.7312
1823.2525
2450.9049
2889.5241
2967.0574
2834.9668
2612.9928
2376.1708
2157.6636
1969.1744
1812.3704
1684.4562
1581.3594
1499.0736
1434.1518
1383.7818
1345.6854
1318.2208
1300.9807
1294.3438
23.840704
46.448944
70.196102
93.664361
117.55427
141.97276
166.73936
191.22542
214.11215
232.83282
242.70291
236.68834
206.00518
135.41072
-7.2511891
-236.55603
-460.17792
-579.83498
-635.41246
-644.56746
-615.85762
-568.31187
-497.29612
-394.47134
-264.35697
-82.937455
139.15959
416.11496
777.03062
1223.778
1735.5167
2221.7505
2557.2318
2658.5583
2599.6174
2454.8383
2280.1678
2107.1109
1949.7364
1813.4545
1698.7789
1604.0947
1527.0895
1465.4404
1417.0675
1380.1667
1353.3998
1336.5351
1330.0329
12.027828
29.932716
50.039067
70.044242
90.050986
109.93852
129.39862
147.7604
163.77509
175.19767
178.33084
168.07609
137.65118
74.663909
-40.050785
-203.5134
-358.82429
-456.76999
-506.10276
-514.25621
-488.95039
-440.02299
-365.70342
-262.6119
-128.54658
46.958996
261.85197
525.19087
849.67625
1232.3407
1648.6399
2032.8083
2301.9489
2411.5805
2398.1223
2308.5277
2183.1498
2048.9397
1920.3741
1804.4516
1703.8163
1618.6596
1548.048
1490.6495
1445.0733
1409.9877
1384.3693
1368.1637
1361.9055
21.409693
40.63589
60.859278
80.374503
99.461855
117.85308
135.03447
150.11357
161.6416
167.33674
163.95841
147.56059
113.09115
52.280635
-43.554929
-165.62101
-279.01692
-356.14288
-395.70976
-400.47613
-375.20537
-324.74136
-248.68732
-145.29338
-11.782349
156.78671
361.05566
606.0205
895.95195
1224.4172
1567.8678
1878.5081
2101.9958
2212.1841
2227.141
2176.753
2089.8342
1988.0568
1885.0876
1788.3765
1701.727
1626.5547
1562.9752
1510.4749
1468.2701
1435.4691
1411.3529
1396.0336
1390.1076
11.867636
27.973098
45.965668
63.618817
80.828876
97.24131
112.32691
125.23297
134.62848
138.52112
134.23593
118.56906
87.510336
35.684787
-40.001548
-130.43696
-213.53579
-271.84551
-300.86559
-300.64324
-273.47789
-221.64819
-145.0443
-42.521407
87.986031
248.90246
441.00947
666.29785
924.57287
1207.7339
1495.1765
1752.1612
1942.6257
2049.7597
2082.4693
2059.9304
2002.6689
1927.6229
1846.8375
1767.6787
1694.3955
1629.1738
1572.8787
1525.6368
1487.1725
1456.9824
1434.6265
1420.3638
1414.837
17.142814
33.240524
50.224589
66.370608
81.721304
95.894711
108.33807
118.23157
124.39304
125.19539
118.62152
102.37057
73.697326
29.629014
-29.989066
-97.386981
-158.14572
-200.47452
-219.39901
-213.54897
-183.57184
-130.3562
-53.775851
46.950442
173.09737
325.77014
505.17004
711.24281
941.41579
1187.1562
1431.2295
1648.3089
1813.9287
1916.4891
1960.2123
1957.4901
1922.9519
1869.6847
1807.8251
1744.2979
1683.4132
1627.761
1578.7043
1536.844
1502.3101
1474.9279
1454.5013
1441.4114
1436.33
11.968908
26.369415
42.109068
57.222484
71.542541
84.641299
95.963649
104.73635
109.90713
110.12199
103.8099
89.283381
64.763243
28.909831
-17.020357
-66.70809
-110.25799
-139.23942
-149.00668
-137.56409
-104.56044
-50.091482
26.057154
124.38934
245.53778
389.77874
556.64187
744.78329
950.46518
1165.4704
1375.7004
1562.5341
1708.923
1806.4444
1856.8824
1868.2911
1851.1219
1815.4331
1769.5572
1719.7126
1670.0829
1623.3931
1581.3106
1544.7682
1514.2057
1489.7159
1471.3081
1459.4582
1454.8499
13.674956
27.362561
41.875747
55.555795
68.321614
79.77778
89.422571
96.58859
100.41469
99.856223
93.770185
81.012661
60.563393
32.100104
-2.5904762
-38.480697
-68.508648
-86.416852
-88.120663
-71.442574
-35.500962
20.043136
95.46925
191.06467
306.99326
442.96661
597.95712
769.86073
954.4814
1144.2979
1327.893
1491.4002
1622.6011
1715.1507
1769.5507
1791.0556
1787.1572
1765.5669
1733.062
1695.046
1655.4507
1616.981
1581.457
1550.0276
1523.3585
1501.7522
1485.3846
1474.7995
1470.6756
11.356371
24.030914
37.649144
50.505378
62.437878
73.052844
81.886493
88.358667
91.767296
91.318915
86.211666
75.737226
59.448995
37.652078
12.274713
-12.656229
-31.903072
-40.653244
-35.414503
-14.047999
24.565113
80.978259
155.48893
248.20977
358.97055
487.09315
631.15636
788.65652
955.34398
1124.5327
1286.9951
1432.2431
1551.2747
1639.1745
1695.7723
1724.497
1730.7408
1720.4141
1699.0023
1671.1151
1640.339
1609.2805
1579.8019
1553.1791
1530.2333
1511.4265
1497.0647
1487.734
1484.0924
11.40975
23.298705
35.927047
47.758639
58.671103
68.310422
76.274177
82.082567
85.188309
85.015748
81.03794
72.879997
60.491361
44.522587
26.845758
10.717521
0.1568411
-1.035582
10.096908
35.544712
76.489276
133.56409
207.04601
296.90634
402.73888
523.60198
657.82889
802.75314
954.29159
1106.5952
1252.179
1382.9698
1492.1583
1575.8478
1633.5238
1667.4128
1681.413
1680.0619
1667.7893
1648.4947
1625.3798
1600.9055
1576.9043
1554.7131
1535.2536
1519.1041
1506.6697
1498.5554
1495.3835
10.346037
21.517842
33.421864
44.564536
54.810178
63.834325
71.290864
76.792205
79.927877
80.306271
77.624569
71.765663
62.952782
52.019664
40.710125
31.70138
28.176903
33.199812
49.273553
78.195948
121.11335
178.65909
251.06399
338.18504
439.45126
553.75093
679.28644
813.37622
952.2094
1090.7056
1222.7455
1341.9969
1443.1784
1523.1362
1581.1893
1618.7652
1638.6943
1644.4727
1639.6795
1627.6051
1611.0706
1592.3585
1573.2382
1555.0585
1538.799
1525.1207
1514.5019
1507.5463
1504.8246
9.942804
20.478783
31.673413
42.133662
51.744161
60.21772
67.264303
72.579767
75.869664
76.89071
75.513737
71.809891
66.179544
59.538068
53.479812
50.246726
52.427013
62.537941
82.708112
114.53515
159.08133
216.93565
288.26987
372.84885
469.98842
578.47493
696.46084
821.33519
949.59577
1076.8323
1197.9863
1307.9917
1402.6514
1479.3624
1537.3734
1577.5764
1602.0363
1613.4615
1614.7533
1608.6902
1597.7476
1584.0158
1569.1812
1554.5731
1541.1985
1529.7756
1520.8383
1514.9727
1512.6789
9.3586366
19.366997
30.01124
39.959721
49.105638
57.195883
63.992422
69.265605
72.81984
74.532748
74.410813
72.663145
69.802567
66.769354
65.016297
66.456433
73.24502
87.489875
111.01456
145.22846
191.0906
249.12494
319.44057
401.7288
495.22952
598.67481
710.21945
827.36631
946.91712
1065.0253
1177.4504
1280.0535
1369.4179
1443.3523
1501.0858
1543.1493
1571.0571
1586.9244
1593.1186
1591.9955
1585.7298
1576.2259
1565.0791
1553.5827
1542.7499
1533.3384
1525.9294
1521.0817
1519.1961
8.9369936
18.48812
28.652813
38.163618
46.92631
54.719362
61.350316
66.652239
70.509772
72.895297
73.917594
73.883344
73.373519
73.32312
75.060314
80.248995
90.725653
108.28914
134.51844
170.6565
217.55784
275.67561
345.059
425.34143
515.71343
614.88443
721.04156
831.81635
944.2869
1055.0677
1160.5436
1257.2568
1342.3575
1413.9627
1471.3079
1514.6794
1545.1962
1564.5295
1574.6319
1577.5177
1575.1082
1569.1403
1561.1169
1552.2894
1543.6617
1536.0159
1529.9816
1526.0933
1524.612
8.5511124
17.745533
27.542272
36.723572
45.204383
52.791529
59.332239
64.712055
68.880207
71.882639
73.904301
75.319632
76.749111
79.108973
83.623765
91.769969
105.14913
125.328
153.69332
191.34807
239.05149
297.18963
365.75864
444.34748
532.11583
627.76982
729.54252
835.1904
942.02821
1047.0364
1147.072
1239.1752
1320.907
1390.6144
1447.5496
1491.8335
1524.3022
1546.2984
1559.4573
1565.5232
1566.2103
1563.1122
1557.6465
1551.0222
1544.2255
1538.0528
1533.1991
1530.214
1529.1591
8.1817718
17.104092
26.61885
35.552182
43.824741
51.268062
57.762154
63.234239
67.683218
71.209991
74.054459
76.636914
79.599646
83.836625
90.490511
100.89939
116.49393
138.66956
168.66638
207.47548
255.7759
313.89585
381.78749
459.00661
544.69445
637.56377
735.89534
837.55505
940.04882
1040.6373
1136.5252
1225.1113
1304.2505
1372.4577
1429.0052
1473.9029
1507.7886
1531.7671
1547.2383
1555.7407
1558.8269
1557.9753
1554.5332
1549.6759
1544.3728
1539.4232
1535.6031
1533.5544
1533.0637
7.8094173
16.605219
25.942667
34.715168
42.849901
50.202374
56.679611
62.240905
66.921897
70.862995
74.342182
77.809562
81.91835
87.541484
95.759769
107.81311
125.01347
148.6359
179.81459
219.4572
268.18094
326.26877
393.63931
469.82497
553.95674
644.75762
740.55016
839.28713
938.61837
1036.0074
1128.9035
1214.9536
1292.215
1359.3203
1415.5596
1460.8708
1495.7572
1521.1587
1538.3085
1548.5965
1553.4564
1554.2798
1552.3597
1548.846
1544.6921
1540.6687
1537.6003
1536.3798
1536.6649
7.3061105
16.169614
25.426499
34.114001
42.168012
49.468492
55.94325
61.57375
66.419736
70.646663
74.555843
78.614461
83.479964
90.009553
99.244129
112.36362
130.60643
155.16895
187.11511
227.29711
276.29033
334.34693
401.36298
476.85602
559.95171
649.38196
743.49947
840.31656
937.57855
1032.8804
1123.827
1208.2214
1284.2482
1350.6149
1406.6246
1452.1721
1487.6773
1513.9758
1532.1941
1543.6254
1549.6254
1551.5261
1550.5801
1547.9231
1544.5024
1541.0337
1538.337
1537.9062
1540.0993
6.0833923
15.837357
25.145468
33.825378
41.848694
49.127413
55.603561
61.270803
66.20119
70.572703
74.698405
79.054227
84.300491
91.289225
101.04611
114.71493
133.48641
158.52007
190.84991
231.30125
280.42859
338.4684
405.3053
480.44925
563.02338
651.76443
745.04083
840.89544
937.12194
1031.381
1121.3549
1204.9234
1280.3342
1346.3322
1402.2276
1447.8951
1483.7141
1510.4695
1529.2357
1541.2591
1547.8517
1550.315
1549.8896
1547.7146
1544.7472
1541.6626
1539.2467
1539.7695
1545.6117
-2227.8658
-2483.8347
-2699.8183
-2881.8132
-3024.3334
-3106.5986
-3108.6057
-3029.5877
-2857.6214
-2664.3037
-3205.8
-3205.687
-3198.8661
-3187.9115
-3173.8223
-3161.0837
-3149.2654
-3158.7128
-3159.3311
-3131.9347
-3183.3622
-3182.2416
-3167.5028
-3150.5434
-3133.6236
-3124.6122
-3106.3158
-3113.5574
-3100.463
-3046.9664
-3138.2618
-3135.6023
-3126.9803
-3118.2584
-3109.443
-3112.4328
-3101.3112
-3099.3041
-3085.9294
-3049.0881
-3078.5818
-3077.1421
-3072.5896
-3066.6675
-3058.1683
-3058.6022
-3058.2255
-3057.5351
-3056.0447
-3059.7812
-3030.5113
-3029.7153
-3023.9481
-3013.7722
-2998.49
-2968.9435
-2991.1096
-3003.417
-3010.0719
-3023.4327
-3013.7151
-3015.4022
-3018.6408
-3022.0072
-3032.8748
-3008.7048
-3008.433
-3004.8453
-2989.9585
-2966.9943
-3028.2636
-3029.8955
-3035.9886
-3044.699
-3068.7732
-3076.4535
-3057.0753
-3031.0568
-3001.2158
-2965.8073
-3848.5079
-3860.7973
-3831.7447
-3787.3286
-3749.7643
-3717.6971
-3696.1934
-3682.4688
-3673.5319
-3675.2787
-2987.2628
-2986.0713
-2978.1322
-2961.0478
-2921.6945
-2947.1096
-2959.1563
-2961.3837
-2950.9275
-2923.8413
-3009.4333
-3012.5135
-3018.8702
-3038.0016
-3013.8882
-3005.2721
-3001.4283
-2994.0953
-2980.1629
-2965.054
-3049.0028
-3051.4871
-3056.753
-3081.4347
-3094.1513
-3070.0062
-3043.2139
-3022.8835
-3003.9779
-2987.46
-3000.4328
-2996.6048
-2977.7876
-2952.576
-2975.5329
-2992.9394
-3004.0682
-3011.3795
-3013.5477
-3020.4864
-3033.9838
-3036.4153
-3035.589
-2998.8003
-3007.8775
-3021.4343
-3032.1645
-3039.3178
-3042.2902
-3051.7856
-3157.1156
-3164.8778
-3189.0781
-3187.6796
-3159.8476
-3132.0837
-3111.3989
-3096.0019
-3080.5716
-3063.323
-3141.9169
-3137.0691
-3129.5679
-3149.6809
-3150.3301
-3144.6161
-3138.4608
-3133.0772
-3127.1152
-3129.0382
-3162.5657
-3161.8301
-3137.5313
-3147.7137
-3159.1822
-3167.3599
-3171.8354
-3173.6945
-3173.032
-3177.7668
-3276.9448
-3289.3448
-3285.2537
-3270.9269
-3255.643
-3243.6432
-3234.9532
-3229.1998
-3222.4213
-3213.8914
-3282.5418
-3286.6379
-3294.0975
-3285.9807
-3276.2982
-3270.7753
-3270.5329
-3274.9792
-3280.0341
-3292.3556
-3186.2875
-3172.1845
-3189.5196
-3215.3904
-3244.8547
-3273.5458
-3300.5209
-3325.1027
-3345.2703
-3370.2532
-3325.7941
-3302.1778
-3311.8068
-3332.1469
-3358.9458
-3384.2282
-3406.7253
-3425.1853
-3437.7295
-3453.4672
-3701.4498
-3692.4182
-3661.7431
-3627.7037
-3602.6602
-3583.2102
-3571.1515
-3564.0201
-3557.927
-3555.0786
-3017.1456
-3015.6235
-3010.2148
-2998.6242
-2993.2269
-3000.427
-2999.9987
-2994.5912
-2985.3195
-2984.2742
-3541.2455
-3549.8429
-3564.2606
-3611.553
-3667.7435
-3719.5851
-3740.6792
-3722.5478
-3638.8216
-3466.9366
-3269.3467
-3269.5819
-3272.5374
-3277.4303
-3278.5679
-3277.697
-3275.7533
-3270.5976
-3266.432
-3219.9347
-3179.9073
-3227.9962
-3290.1511
-3394.9035
-3506.2735
-3593.1304
-3635.7144
-3595.8306
-3447.657
-3215.1833
-3481.011
-3491.0601
-3511.9862
-3548.696
-3582.354
-3611.022
-3619.5922
-3619.106
-3583.3092
-3470.8855
-3368.0188
-3372.4174
-3386.6052
-3410.586
-3431.5687
-3449.2463
-3457.3795
-3446.9647
-3434.3305
-3382.5453
11318.735
10715.562
10129.59
9489.9542
8832.8601
8179.5519
7545.1917
6936.7936
6347.3525
5770.3108
8301.9033
8224.5832
8101.3059
7839.6491
7501.7562
7111.3177
6689.6353
6254.5912
5816.4205
5360.0192
-3709.7706
-3728.2085
-3745.5746
-3751.4922
-3760.1361
-3763.3646
-3768.1325
-3771.5493
-3772.8624
-3776.3475
-3706.0221
-3709.8749
-3745.2085
-3776.4202
-3815.4541
-3842.6038
-3866.5108
-3882.5263
-3891.1633
-3895.3447
-3946.5181
-3939.2918
-3955.5337
-3963.1244
-3991.5085
-4009.8903
-4029.7156
-4042.6897
-4048.1067
-4043.6554
-4222.4107
-4212.0574
-4226.3285
-4216.9245
-4233.0016
-4234.891
-4241.4183
-4242.471
-4238.9021
-4234.5442
-4544.8481
-4526.7121
-4538.4589
-4511.4319
-4515.2227
-4497.384
-4484.9321
-4464.9115
-4437.2494
-4404.894
-4901.0702
-4873.8518
-4883.4603
-4837.0471
-4828.6194
-4790.1386
-4757.3139
-4713.8988
-4659.2355
-4599.0306
-5281.8141
-5243.3678
-5252.009
-5185.1993
-5165.6527
-5107.5716
-5056.1819
-4992.7196
-4916.4706
-4831.1648
-5682.8288
-5630.7577
-5639.5833
-5550.5693
-5519.7553
-5441.5341
-5370.8729
-5288.444
-5198.4758
-5115.9314
-6105.0192
-6035.9008
-6045.7504
-5931.7628
-5888.2943
-5787.8916
-5693.5284
-5583.5052
-5458.1971
-5322.6017
-6548.4837
-6458.4001
-6470.8311
-6329.1924
-6271.9398
-6149.0604
-6030.9011
-5896.7935
-5747.1919
-5585.4371
-7019.334
-6902.2073
-6917.9714
-6744.4944
-6670.3493
-6522.763
-6376.8648
-6214.6437
-6036.156
-5850.2896
-7516.4429
-7366.2158
-7388.3331
-7179.899
-7085.7367
-6911.6802
-6733.8878
-6537.8084
-6319.1902
-6081.9132