/*--------------------------------*- C++ -*----------------------------------*\
| =========                 |                                                 |
| \\      /  F ield         | foam-extend: Open Source CFD                    |
|  \\    /   O peration     | Version:     4.1                                |
|   \\  /    A nd           | Web:         http://www.foam-extend.org         |
|    \\/     M anipulation  |                                                 |
\*---------------------------------------------------------------------------*/
FoamFile
{
    version     2.0;
    format      ascii;
    class       volScalarField;
    location    "1.65";
    object      rAU;
}
// * * * * * * * * * * * * * * * * * * * * * * * * * * * * * * * * * * * * * //

dimensions      [0 0 1 0 0 0 0];

internalField   nonuniform List<scalar> 
4393
(
0.0002276442
0.00022727037
0.00022690429
0.00022653038
0.00022614651
0.00022575126
0.00022534225
0.0002249183
0.00022447854
0.00022402279
0.00022355165
0.00022306662
0.00022257019
0.00022206592
0.00022155818
0.00022105311
0.00022055651
0.00022007536
0.00021961731
0.00021918994
0.00021880098
0.00021845811
0.00021816883
0.00021794034
0.00021777926
0.00021769155
0.00021768183
0.00021768183
0.00021775342
0.00021790741
0.00021814198
0.00021845212
0.00021882965
0.00021926352
0.00021974047
0.00022024597
0.00022076517
0.00022128391
0.00022178935
0.00022227049
0.00022271835
0.00022312599
0.00022348834
0.00022380197
0.00022406476
0.00022427573
0.00022443495
0.00022454294
0.00022458507
0.00022451176
0.00022419125
0.00022388567
0.00022357103
0.00022324459
0.00022290468
0.00022254909
0.00022217695
0.00022178785
0.00022138216
0.00022096115
0.0002205271
0.00022008338
0.00021963447
0.00021918569
0.00021874405
0.00021831616
0.00021790962
0.0002175325
0.00021719266
0.00021689794
0.00021665604
0.00021647435
0.00021635989
0.00021631898
0.000216357
0.00021644366
0.00021641658
0.0002164598
0.00021658671
0.00021679883
0.0002170946
0.00021746887
0.0002179129
0.00021841468
0.00021895996
0.00021953324
0.00022011902
0.00022070271
0.0002212714
0.00022181419
0.00022232237
0.00022278935
0.00022321038
0.00022358222
0.00022390273
0.00022417102
0.00022438861
0.00022454271
0.00022400634
0.00022369766
0.0002233975
0.00022308579
0.00022275979
0.000222418
0.00022205842
0.00022168048
0.00022128417
0.00022087039
0.00022044103
0.00021999916
0.00021954903
0.00021909608
0.00021864665
0.00021820875
0.00021778986
0.00021739833
0.00021704276
0.00021673134
0.00021647209
0.00021627277
0.00021614077
0.00021608301
0.00021610564
0.00021621373
0.00021630045
0.00021618137
0.00021614311
0.00021619269
0.00021633501
0.00021657176
0.00021690037
0.0002173137
0.00021780018
0.00021834494
0.000218931
0.00021954089
0.00022015784
0.00022076676
0.00022135481
0.00022191164
0.00022242932
0.00022290211
0.00022332602
0.00022369841
0.0002240182
0.0002242855
0.00022448062
0.00022365096
0.00022334767
0.00022304743
0.00022273258
0.00022240066
0.00022205036
0.00022167984
0.00022128877
0.00022087747
0.00022044729
0.00022000073
0.00021954158
0.00021907499
0.00021860746
0.00021814645
0.00021770113
0.00021728006
0.00021689249
0.00021654774
0.00021625446
0.00021602099
0.00021585527
0.00021576484
0.00021575675
0.00021583724
0.00021601136
0.00021609282
0.00021588768
0.0002157651
0.0002157356
0.0002158079
0.00021598721
0.00021627367
0.00021666153
0.00021713926
0.00021769072
0.00021829688
0.00021893773
0.00021959394
0.00022024803
0.00022088515
0.00022149333
0.00022206344
0.00022258891
0.00022306523
0.00022348958
0.00022386074
0.00022417774
0.00022442244
0.00022328905
0.0002229899
0.00022268999
0.00022237232
0.00022203461
0.00022167569
0.00022129385
0.00022088892
0.00022046149
0.0002200133
0.00021954737
0.00021906823
0.00021858192
0.00021809603
0.00021761927
0.0002171621
0.00021673433
0.00021634624
0.00021600794
0.00021572862
0.00021551694
0.00021538106
0.00021532872
0.00021536725
0.00021550323
0.00021574207
0.00021582906
0.00021553343
0.00021532256
0.00021521101
0.00021521188
0.00021533447
0.0002155819
0.00021594974
0.00021642593
0.0002169924
0.00021762725
0.00021830728
0.00021901006
0.00021971547
0.00022040652
0.0002210697
0.00022169481
0.00022227463
0.00022280436
0.00022328115
0.0002237037
0.00022407085
0.00022436675
0.00022291133
0.00022261687
0.00022231832
0.00022199879
0.00022165609
0.00022128909
0.00022089615
0.0002204772
0.00022003301
0.00021956561
0.00021907851
0.00021857688
0.0002180677
0.00021755971
0.000217063
0.0002165895
0.00021615044
0.00021575734
0.00021542115
0.00021515164
0.00021495776
0.0002148479
0.00021483007
0.000214912
0.00021510093
0.00021540302
0.00021551065
0.00021511872
0.00021481395
0.00021461554
0.00021454187
0.00021460718
0.00021481809
0.00021517139
0.00021565395
0.00021624477
0.00021691807
0.00021764659
0.00021840419
0.00021916776
0.00021991809
0.00022064016
0.00022132292
0.00022195874
0.00022254282
0.00022307253
0.00022354674
0.00022396477
0.00022431252
0.00022251829
0.0002222292
0.00022193305
0.00022161266
0.0002212658
0.00022089134
0.00022048757
0.00022005444
0.00021959282
0.00021910493
0.00021859465
0.00021806778
0.00021753221
0.00021699792
0.00021647654
0.00021598174
0.00021552642
0.00021512351
0.00021478495
0.00021452103
0.00021434097
0.00021425328
0.00021426627
0.00021438823
0.00021462734
0.00021499102
0.00021513962
0.00021464412
0.00021423796
0.00021394585
0.0002137926
0.00021379868
0.00021397505
0.00021431974
0.00021481772
0.00021544383
0.00021616708
0.00021695501
0.00021777704
0.00021860663
0.00021942225
0.00022020751
0.00022095072
0.00022164415
0.00022228327
0.00022286594
0.00022339157
0.00022386031
0.00022425949
0.00022211195
0.00022182958
0.000221537
0.00022121676
0.0002208666
0.00022048525
0.0002200709
0.00021962339
0.00021914355
0.00021863367
0.00021809791
0.00021754262
0.00021697658
0.00021641111
0.00021585962
0.0002153378
0.00021486062
0.00021444266
0.00021409694
0.00021383424
0.00021366387
0.00021359436
0.00021363422
0.00021379242
0.0002140784
0.0002145015
0.00021471753
0.00021410952
0.00021359231
0.00021319709
0.00021295676
0.00021289988
0.00021304305
0.00021338563
0.00021390963
0.00021458399
0.00021537071
0.00021623073
0.00021712812
0.00021803252
0.00021892001
0.00021977302
0.00022057954
0.00022133212
0.00022202685
0.00022266237
0.00022323898
0.00022375786
0.00022420763
0.00022169398
0.00022141918
0.00022113127
0.00022081226
0.00022045972
0.00022007217
0.00021964757
0.00021918556
0.00021868675
0.00021815337
0.00021758971
0.00021700255
0.00021640153
0.00021579942
0.00021521166
0.00021465643
0.00021415121
0.00021371258
0.00021335478
0.00021308893
0.00021292419
0.00021286883
0.00021293138
0.00021312156
0.00021345043
0.00021392991
0.00021424729
0.00021351601
0.00021287552
0.00021236466
0.00021202662
0.0002119008
0.00021201144
0.00021235947
0.00021292232
0.00021366062
0.00021452699
0.00021547399
0.00021645925
0.00021744818
0.00021841456
0.00021933992
0.0002202124
0.00022102529
0.00022177572
0.0002224635
0.00022309012
0.00022365802
0.00022415708
0.00022126641
0.00022100106
0.00022071922
0.00022040263
0.00022004873
0.00021965575
0.00021922134
0.00021874474
0.00021822622
0.00021766773
0.00021707351
0.0002164506
0.00021580947
0.00021516438
0.00021453315
0.00021393703
0.00021339667
0.00021293119
0.00021255613
0.00021228275
0.00021211961
0.00021207427
0.00021215503
0.00021237226
0.00021273901
0.00021327057
0.00021373227
0.00021286498
0.00021208597
0.00021144306
0.00021099257
0.00021078876
0.00021086671
0.00021122925
0.0002118469
0.00021266849
0.00021363406
0.00021468551
0.00021577289
0.00021685703
0.00021790963
0.00021891187
0.00021985262
0.0002207265
0.00022153219
0.00022227111
0.00022294624
0.00022356149
0.00022410811
0.00022083187
0.00022057657
0.0002203019
0.00021998892
0.00021963475
0.00021923726
0.00021879361
0.00021830253
0.00021776371
0.0002171786
0.00021655112
0.00021588839
0.00021520151
0.00021450633
0.00021382341
0.00021317787
0.00021259449
0.00021209558
0.00021169817
0.00021141325
0.00021124809
0.00021120888
0.00021130318
0.00021154184
0.00021194018
0.00021251778
0.0002131778
0.00021215962
0.00021122333
0.00021042702
0.00020984381
0.00020954874
0.00020959273
0.00020998113
0.00021067389
0.00021160304
0.00021269162
0.00021386809
0.00021507367
0.00021626451
0.00021741072
0.00021849394
0.00021950461
0.00022043939
0.00022129915
0.00022208734
0.00022280882
0.00022346914
0.0002240611
0.00022039133
0.00022014863
0.00021988292
0.00021957506
0.00021922202
0.00021882123
0.00021836928
0.00021786416
0.00021730476
0.00021669172
0.00021602832
0.00021532142
0.00021458255
0.00021382905
0.0002130847
0.00021237949
0.00021174372
0.00021120398
0.00021077892
0.00021047865
0.00021030816
0.00021027125
0.00021037405
0.0002106275
0.00021104936
0.00021166454
0.00021248451
0.0002114045
0.00021028841
0.00020931125
0.00020856754
0.00020816182
0.00020816902
0.00020859807
0.00020939251
0.0002104601
0.00021170092
0.00021302661
0.00021436838
0.00021567797
0.0002169249
0.00021809245
0.00021917369
0.00022016829
0.00022107995
0.00022191468
0.00022267955
0.00022338199
0.00022401651
0.00021994999
0.00021971999
0.00021946428
0.00021916288
0.00021881233
0.00021840952
0.0002179503
0.00021743175
0.00021685164
0.00021620946
0.00021550744
0.00021475175
0.00021395394
0.00021313269
0.00021231539
0.00021153835
0.00021083941
0.00021025098
0.00020979364
0.00020947558
0.00020929788
0.00020926057
0.00020936723
0.00020962826
0.00021006379
0.00021070506
0.00021159211
0.00021060765
0.00020928468
0.00020809148
0.00020714911
0.00020660431
0.00020656951
0.00020705926
0.00020799087
0.0002092368
0.00021066589
0.00021216911
0.00021366684
0.00021510738
0.00021646131
0.00021771521
0.00021886628
0.00021991823
0.00022087841
0.00022175592
0.00022256035
0.00022330122
0.00022397489
0.00021950656
0.00021929259
0.00021904909
0.0002187561
0.00021841001
0.00021800715
0.00021754252
0.00021701207
0.00021641215
0.00021574061
0.0002149981
0.00021418951
0.00021332579
0.00021242646
0.00021152281
0.00021065928
0.00020988423
0.0002092383
0.00020874434
0.000208407
0.00020822107
0.00020818082
0.00020828605
0.0002085457
0.00020898193
0.00020963332
0.00021055288
0.00020978084
0.00020821912
0.00020676534
0.00020557186
0.00020484579
0.00020475992
0.00020533865
0.00020645592
0.0002079323
0.0002095942
0.00021130776
0.00021298261
0.00021456571
0.00021603129
0.00021737162
0.00021858982
0.00021969495
0.00022069883
0.00022161414
0.00022245331
0.00022322812
0.00022393683
0.0002190718
0.00021887334
0.00021864307
0.00021836007
0.00021802024
0.00021761922
0.00021715103
0.0002166102
0.00021599132
0.0002152901
0.00021450486
0.00021363848
0.00021270042
0.00021171016
0.00021070279
0.00020973331
0.00020886523
0.00020815132
0.00020761734
0.00020726187
0.00020706979
0.00020702689
0.00020712752
0.00020737771
0.00020780047
0.00020844221
0.00020937172
0.00020894063
0.00020710396
0.00020533421
0.00020381758
0.00020284668
0.00020269397
0.00020340319
0.00020477373
0.00020654947
0.00020849914
0.00021046041
0.00021233401
0.00021406949
0.00021564869
0.00021707269
0.00021835279
0.00021950479
0.00022054583
0.00022149264
0.00022236068
0.00022316405
0.00022390299
0.00021863722
0.00021845825
0.00021824365
0.00021797287
0.00021764179
0.00021724541
0.00021677667
0.00021622855
0.00021559348
0.00021486443
0.00021403658
0.00021310975
0.00021209076
0.00021099738
0.00020986766
0.00020876983
0.00020778956
0.00020699782
0.00020642403
0.00020605639
0.00020586389
0.00020581996
0.00020591183
0.00020614108
0.00020652985
0.00020713271
0.00020803801
0.00020811271
0.00020595967
0.00020380639
0.00020186824
0.00020055519
0.00020030717
0.00020121053
0.00020293046
0.00020509747
0.0002074022
0.00020965249
0.00021174527
0.00021363936
0.00021532993
0.00021683097
0.00021816448
0.00021935451
0.00022042425
0.00022139478
0.0002222847
0.00022311041
0.00022387404
0.00021822568
0.00021806505
0.00021786722
0.00021761074
0.00021729107
0.00021690246
0.00021643664
0.00021588477
0.00021523672
0.00021448197
0.00021361143
0.00021262044
0.00021151158
0.00021029843
0.00020901937
0.00020775877
0.00020663536
0.00020574887
0.00020513387
0.00020476178
0.00020457689
0.00020453555
0.00020461719
0.00020481776
0.00020515473
0.00020568903
0.00020653138
0.00020732568
0.00020481586
0.00020220234
0.00019971072
0.00019790418
0.00019750672
0.00019870597
0.00020091436
0.00020359616
0.00020633703
0.00020891962
0.00021124782
0.00021330047
0.00021509399
0.00021666025
0.00021803472
0.00021925101
0.00022033888
0.00022132387
0.0002222276
0.00022306858
0.00022385066
0.00021781661
0.00021767853
0.00021749986
0.00021725995
0.00021695446
0.00021657703
0.00021611816
0.0002155671
0.00021491091
0.00021413502
0.00021322489
0.00021216981
0.0002109663
0.00020962043
0.00020816552
0.00020670361
0.00020540354
0.00020441154
0.00020376905
0.00020341965
0.00020326743
0.00020324382
0.00020332017
0.00020348543
0.00020374498
0.00020416167
0.00020487342
0.00020603982
0.00020373247
0.0002005697
0.00019734975
0.00019481238
0.00019415628
0.00019582005
0.00019872037
0.00020208332
0.00020535511
0.00020831078
0.00021088153
0.0002130826
0.000214962
0.00021657508
0.00021797336
0.00021920095
0.00022029423
0.00022128295
0.00022219139
0.00022303981
0.00022383346
0.00021746768
0.00021735044
0.00021719228
0.00021697188
0.00021668473
0.00021632386
0.00021587858
0.00021533617
0.00021468062
0.00021389262
0.00021295053
0.00021183495
0.00021053361
0.0002090405
0.00020737329
0.00020564814
0.0002041105
0.00020298515
0.00020232243
0.00020202141
0.00020192074
0.00020191738
0.00020198002
0.00020209624
0.00020224996
0.00020250012
0.00020301728
0.00020404804
0.00020277654
0.00019900071
0.00019484813
0.00019120995
0.00019005979
0.00019246905
0.00019635895
0.00020062655
0.00020453406
0.00020789224
0.00021069576
0.00021301976
0.00021495635
0.00021658985
0.0002179896
0.0002192102
0.00022029411
0.00022127453
0.00022217773
0.00022302516
0.00022382299
0.0002172
0.00021710801
0.0002169743
0.00021677792
0.00021651469
0.00021617709
0.00021575329
0.00021522854
0.00021458364
0.00021379416
0.00021283009
0.00021166057
0.00021026194
0.00020861281
0.0002066997
0.00020463748
0.00020278909
0.00020151915
0.00020088528
0.00020071629
0.00020074022
0.00020080581
0.00020089033
0.00020099377
0.00020105274
0.00020109886
0.0002013325
0.00020206239
0.00020232296
0.00019782245
0.00019245152
0.00018712441
0.00018495883
0.00018857247
0.00019388246
0.00019934612
0.00020399041
0.00020775199
0.00021074947
0.00021314873
0.00021509907
0.0002167175
0.00021809099
0.00021928325
0.00022034126
0.00022130037
0.00022218778
0.00022302539
0.00022381967
0.00021725908
0.00021719521
0.00021709198
0.00021692741
0.00021669769
0.00021639505
0.00021600701
0.00021551749
0.00021490481
0.00021414002
0.00021318432
0.00021199179
0.00021052205
0.00020873462
0.00020656128
0.00020406704
0.00020178576
0.00020034909
0.00019980412
0.00019987812
0.00020010463
0.00020026536
0.00020036323
0.00020044961
0.00020036974
0.0002000931
0.00019988288
0.00020010205
0.00020118327
0.00019740037
0.00019066048
0.00018291628
0.00017861405
0.00018416372
0.00019146778
0.00019845266
0.00020389543
0.00020800266
0.00021110901
0.00021350585
0.00021540912
0.00021696757
0.00021828223
0.00021942242
0.00022043689
0.00022136116
0.00022222205
0.00022304089
0.00022382376
0.00021801637
0.0002179875
0.00021792937
0.00021781477
0.00021763994
0.00021739703
0.0002170735
0.0002166525
0.00021611022
0.00021541326
0.00021451303
0.00021334304
0.00021183576
0.00020992969
0.00020748517
0.0002044137
0.00020147603
0.0001998799
0.00019957939
0.00020017662
0.00020082114
0.00020120622
0.00020138429
0.00020158279
0.00020150229
0.00020093371
0.00020031596
0.00019986175
0.00020080842
0.00019976168
0.00019129661
0.00018002096
0.00017094747
0.00017965743
0.0001894789
0.0001982715
0.00020448842
0.00020878045
0.00021184178
0.00021412116
0.00021589843
0.00021734392
0.00021856391
0.00021962717
0.00022058027
0.00022145637
0.00022228023
0.00022307159
0.0002238353
0.000220663
0.00022071116
0.000220741
0.00022072042
0.00022064757
0.00022051548
0.00022031285
0.00022002379
0.00021962452
0.00021908023
0.00021833705
0.00021731037
0.00021589725
0.00021401487
0.00021146268
0.00020778466
0.00020388157
0.00020236386
0.00020272311
0.00020450372
0.00020600892
0.00020691025
0.000207323
0.0002079783
0.00020832293
0.00020732465
0.00020619022
0.00020432597
0.00020496073
0.00020348421
0.00019649978
0.00018118192
0.0001622203
0.00017630809
0.00018869719
0.00019949655
0.00020614876
0.00021024608
0.0002130038
0.00021500892
0.00021656659
0.00021784205
0.0002189312
0.00021989352
0.0002207685
0.00022158406
0.00022236119
0.00022311691
0.00022385412
0.00022642189
0.00022656508
0.00022672779
0.00022685546
0.00022694585
0.00022699406
0.00022699291
0.00022693158
0.00022679169
0.00022654359
0.0002261362
0.00022547166
0.00022438706
0.00022271761
0.00022021899
0.000215765
0.00020956362
0.00020824397
0.00020948327
0.00021348514
0.00021646338
0.00021835424
0.00021896864
0.00022040766
0.00022210641
9.300871e-05
9.5433408e-05
9.7691923e-05
9.9882593e-05
0.00010288297
9.4463946e-05
8.6204512e-05
0.00010657322
0.00017933315
0.00019343314
0.00020412667
0.00020945406
0.00021253429
0.00021460525
0.0002161518
0.00021739453
0.00021844671
0.00021937301
0.00022021377
0.00022099638
0.00022174085
0.00022246287
0.00022317578
0.00022387978
0.00023924335
0.00023969107
0.00024019213
0.00024067844
0.00024115909
0.00024163819
0.00024212055
0.00024260991
0.00024310511
0.0002435954
0.00024404805
0.00024437033
0.00024434145
0.0002436252
0.00024200507
0.00023807367
0.00022682138
0.00022935378
0.00023549315
0.00025021864
0.00026145148
0.00027024589
0.00012828199
0.00016689651
0.00032280333
0.00046161511
0.00049956686
0.00049956686
0.00049956686
0.00049956686
0.00049956686
0.00045031222
0.000336498
6.8075214e-05
0.0002129734
0.00021346054
0.0002143785
0.00021549414
0.00021653623
0.00021748093
0.0002183397
0.00021913118
0.0002198722
0.00022057678
0.00022125667
0.00022192214
0.00022258247
0.00022324663
0.00022391164
0.00026426329
0.000265272
0.00026642594
0.00026762269
0.00026888283
0.00027023095
0.00027170117
0.00027333651
0.00027519012
0.00027732952
0.00027984113
0.00028282241
0.00028637464
0.00029054977
0.00029518338
0.00030234444
0.00027345902
0.00030501545
0.00035661083
0.0003725855
0.00027819221
0.00031946864
0.00049956686
0.00049956686
0.00049956686
0.00049956686
0.00049956686
0.00049956686
0.00049956686
0.00049956686
0.00041263422
0.00041826984
0.0001020383
0.00026658948
0.00023113951
0.00022209666
0.000219275
0.00021853461
0.00021855407
0.00021888162
0.00021934132
0.00021986037
0.00022040734
0.00022096895
0.00022154063
0.00022212232
0.00022271651
0.00022332752
0.00022394886
0.0003019459
0.00030408874
0.00030621928
0.00030842219
0.00031077198
0.00031334147
0.00031621663
0.00031951072
0.00032338318
0.00032807762
0.00033399025
0.00034169684
0.00035172959
0.00036474505
0.00038492084
0.00040157488
0.00025700007
0.00025318806
0.00026331961
0.00048918904
0.00047848932
0.00048857099
0.00047869855
0.00047372165
0.00047746537
0.00045865811
0.00045171935
0.00045351627
0.00044093622
0.00043652069
0.00010691846
0.00010767094
0.00021977702
0.00025235708
0.00023694791
0.00022741033
0.00022311554
0.00022121881
0.0002204492
0.00022024455
0.00022033807
0.00022059782
0.00022095573
0.00022137576
0.00022183881
0.00022233526
0.00022286115
0.00022341622
0.00022399042
0.0002885674
0.00028908557
0.00028927518
0.00028946133
0.00028964614
0.00028986157
0.00029013364
0.0002904992
0.00029101123
0.00029174735
0.00029282971
0.0002938747
0.00029481267
0.00029557006
0.00029292699
0.00010292677
0.00037622657
0.00047082367
0.00047252361
0.00049383703
0.00048613834
0.0004824509
0.00012420994
0.00012127924
0.00010077017
0.00010005425
0.00010062914
0.00010197296
0.0001029274
0.00010452178
0.00020120926
0.00020767861
0.00021808353
0.00023901642
0.00023962978
0.00023076114
0.00022595753
0.00022341678
0.00022210814
0.00022149265
0.00022128019
0.00022131139
0.00022149635
0.00022178325
0.00022214187
0.00022255477
0.00022301239
0.00022351035
0.00022403523
0.00022327659
0.00022310865
0.0002228201
0.00022254121
0.00022227979
0.00022205297
0.00022187675
0.00022177446
0.00022177843
0.00022193354
0.00022230474
0.0002220948
0.00022116336
0.00021941684
0.00021672835
0.00021314625
9.5858461e-05
9.9101508e-05
9.9869198e-05
9.9774011e-05
0.00010014976
0.00010017653
0.00021254007
0.00021081391
0.00020893008
0.00020554407
0.00020443563
0.00020387928
0.00020210831
0.00020212653
0.00020330701
0.00020901324
0.00021823678
0.00023217601
0.00023802136
0.00023248174
0.00022785721
0.00022508924
0.00022347594
0.00022257908
0.00022213268
0.00022197613
0.00022201168
0.00022217915
0.00022244127
0.00022277498
0.00022316634
0.00022360754
0.00022408214
0.00021926614
0.00021934603
0.00021947242
0.00021960781
0.00021976343
0.00021995141
0.00022018434
0.00022047828
0.00022085255
0.00022132997
0.00022186474
0.00022156944
0.00022081391
0.0002195778
0.0002178038
0.00021498963
0.00021250642
0.00021402878
0.00021587915
0.00021421486
0.00021238177
0.00021121594
0.00021005928
0.00020833746
0.00020730364
0.0002056862
0.00020478003
0.00020420563
0.00020347982
0.00020394862
0.00020593263
0.00021088894
0.00021854876
0.00022810842
0.00023383193
0.0002331819
0.00022902046
0.00022628584
0.00022454822
0.00022348483
0.00022287564
0.00022257524
0.00022248857
0.00022255358
0.00022272975
0.00022299066
0.0002233194
0.00022370552
0.00022413005
0.00021788915
0.00021796876
0.00021809415
0.00021823296
0.00021838804
0.00021856696
0.00021877824
0.00021903298
0.00021934368
0.00021972407
0.00021997994
0.00021948782
0.00021872961
0.00021765512
0.00021622772
0.00021439196
0.00021326091
0.00021411255
0.00021527056
0.00021349546
0.00021190211
0.00021068294
0.00020952631
0.00020831129
0.00020735649
0.00020629751
0.00020564715
0.00020528656
0.00020521221
0.00020608796
0.00020833152
0.00021262061
0.00021875947
0.00022561494
0.00023030031
0.00023231276
0.00022962724
0.00022708125
0.00022534749
0.0002242103
0.00022350156
0.00022309944
0.0002229184
0.00022289931
0.00022300155
0.00022319746
0.00022346842
0.00022380223
0.00022417791
0.00021721081
0.00021733181
0.00021747159
0.00021762269
0.00021779105
0.0002179831
0.00021820502
0.00021846431
0.000218768
0.00021912149
0.00021921549
0.00021877231
0.00021812066
0.00021723054
0.0002160816
0.00021482222
0.00021419525
0.00021469889
0.00021503936
0.00021341187
0.0002120143
0.00021086232
0.00020980478
0.00020882323
0.00020800314
0.00020726757
0.00020684898
0.00020673418
0.00020703029
0.00020812332
0.00021033558
0.00021399274
0.00021887102
0.00022400978
0.00022786333
0.0002302189
0.00022984651
0.00022755943
0.00022591078
0.00022476849
0.00022401216
0.00022354572
0.00022329661
0.00022321165
0.00022325252
0.00022339196
0.00022361082
0.0002238959
0.00022422479
0.00021692155
0.00021699468
0.00021711074
0.00021724596
0.00021739844
0.0002175717
0.00021776956
0.00021799688
0.00021825758
0.00021855312
0.00021852376
0.00021813422
0.00021760163
0.0002169144
0.00021608501
0.00021529076
0.00021497719
0.00021536544
0.00021499616
0.00021359499
0.00021236953
0.00021132297
0.00021038948
0.00020956905
0.00020889468
0.00020837651
0.00020813571
0.00020820865
0.00020871237
0.00020988794
0.00021195326
0.00021505094
0.00021895128
0.00022294374
0.00022613946
0.00022830402
0.00022930045
0.00022779404
0.00022627856
0.0002251789
0.00022441519
0.00022391573
0.00022362193
0.00022348818
0.00022347999
0.0002235717
0.00022374457
0.00022398508
0.00022426991
0.0002167789
0.00021689195
0.00021701755
0.0002171533
0.0002173032
0.00021747034
0.00021765638
0.00021786321
0.00021809087
0.0002183362
0.00021824956
0.00021790083
0.00021744855
0.00021689741
0.00021628746
0.00021577757
0.00021563504
0.00021596308
0.00021504894
0.00021385957
0.00021279633
0.00021187029
0.00021106109
0.0002103763
0.00020983878
0.00020948109
0.00020937852
0.00020958363
0.00021019781
0.00021137708
0.00021325733
0.00021588308
0.00021904281
0.00022223374
0.00022490841
0.00022685688
0.00022809028
0.00022785088
0.00022649041
0.00022546365
0.00022472187
0.00022421428
0.00022389563
0.00022372837
0.0002236826
0.00022373509
0.00022386819
0.00022406863
0.00022431264
0.00021670562
0.0002167758
0.00021688226
0.00021700558
0.00021714329
0.0002172965
0.00021746538
0.00021765015
0.00021784891
0.00021805618
0.00021796866
0.00021768344
0.00021732746
0.00021691384
0.00021649094
0.00021618365
0.00021615687
0.00021618206
0.00021514107
0.00021414
0.00021322876
0.00021242712
0.00021173758
0.00021117348
0.00021075756
0.00021052534
0.00021053127
0.00021082792
0.00021149537
0.00021263528
0.00021432565
0.00021656017
0.00021915761
0.0002217648
0.00022402386
0.00022576053
0.00022694923
0.00022750558
0.00022658056
0.00022564451
0.00022494486
0.00022444807
0.00022412075
0.0002239331
0.00022386008
0.00022388133
0.00022398077
0.00022414576
0.00022435248
0.00021665236
0.00021674394
0.0002168508
0.00021696697
0.00021709402
0.00021723292
0.00021738278
0.00021754242
0.00021770848
0.00021787422
0.00021779726
0.00021755931
0.00021727686
0.00021696883
0.00021668295
0.00021651282
0.00021656378
0.00021610967
0.00021525441
0.00021441789
0.00021364696
0.00021296661
0.00021239068
0.00021193647
0.00021162744
0.00021149679
0.00021158742
0.00021194562
0.00021263151
0.00021371021
0.00021522123
0.00021713401
0.00021929963
0.00022146765
0.00022339253
0.00022493398
0.00022605211
0.00022677696
0.00022657914
0.00022574175
0.00022509704
0.00022462476
0.00022430143
0.00022410429
0.00022401302
0.00022401029
0.00022408183
0.00022421596
0.00022438911
0.00021662024
0.00021668697
0.00021678197
0.00021688937
0.00021700698
0.00021713449
0.00021727004
0.00021741142
0.0002175543
0.0002176912
0.00021764846
0.0002174604
0.00021724648
0.00021702779
0.00021684711
0.00021677408
0.00021671012
0.00021608885
0.00021538652
0.00021469294
0.00021404962
0.0002134834
0.00021301332
0.00021265891
0.00021244342
0.00021239639
0.00021255273
0.00021295053
0.00021363334
0.00021464136
0.0002159897
0.00021763829
0.00021946727
0.00022129596
0.00022294941
0.00022431591
0.00022535222
0.00022606795
0.00022637974
0.00022577292
0.00022519056
0.00022475219
0.00022444241
0.00022424455
0.00022414264
0.00022412233
0.00022417129
0.00022427899
0.00022442232
0.00021659645
0.00021666891
0.00021675938
0.00021685797
0.00021696434
0.00021707813
0.00021719702
0.00021731834
0.00021743743
0.00021754691
0.0002175382
0.0002173918
0.00021723401
0.0002170858
0.00021698346
0.00021695176
0.0002166444
0.00021611007
0.00021553575
0.00021496654
0.0002144383
0.0002139774
0.00021360472
0.00021334038
0.00021320652
0.00021322888
0.00021343594
0.00021385772
0.00021452474
0.00021546016
0.0002166644
0.00021809563
0.00021965816
0.00022121902
0.00022264979
0.00022386171
0.00022481325
0.00022550264
0.00022595419
0.00022575329
0.00022523649
0.00022483797
0.00022454864
0.00022435688
0.00022425059
0.00022421824
0.00022424941
0.00022433482
0.00022445204
0.00021658558
0.00021664575
0.00021672841
0.00021681957
0.00021691728
0.00021702058
0.0002171267
0.00021723268
0.00021733375
0.0002174229
0.00021744933
0.00021734019
0.00021722966
0.00021713737
0.00021709348
0.00021696866
0.00021660086
0.000216166
0.00021570041
0.00021523976
0.00021481468
0.00021444982
0.00021416589
0.00021398246
0.00021391988
0.0002140002
0.00021424643
0.00021468147
0.00021532583
0.00021619121
0.00021726964
0.00021852132
0.0002198699
0.00022121554
0.00022246174
0.00022353781
0.00022440612
0.00022505896
0.00022551005
0.00022566437
0.00022524457
0.00022488922
0.00022462503
0.00022444449
0.00022433884
0.00022429908
0.00022431666
0.00022438361
0.00022447828
0.00021658193
0.00021664065
0.00021671771
0.00021680108
0.00021688942
0.00021698172
0.00021707513
0.00021716663
0.00021725167
0.00021732393
0.00021736719
0.00021730118
0.00021722897
0.00021718001
0.00021711448
0.00021690023
0.00021659979
0.00021624966
0.00021587762
0.00021551222
0.00021517946
0.0002149016
0.00021469811
0.00021458721
0.00021458706
0.00021471623
0.00021499299
0.00021543425
0.00021605301
0.00021685335
0.00021782289
0.0002189255
0.00022009998
0.00022127
0.00022236165
0.00022331842
0.0002241073
0.0002247179
0.00022515718
0.00022544331
0.00022522317
0.00022491236
0.00022467624
0.0002245106
0.00022440946
0.00022436609
0.00022437373
0.00022442566
0.00022450113
0.00021658679
0.00021663904
0.00021671028
0.00021678714
0.00021686778
0.00021695102
0.00021703398
0.00021711374
0.00021718615
0.00021724564
0.00021728514
0.00021726925
0.00021722823
0.0002171781
0.00021706229
0.0002168729
0.00021663185
0.0002163551
0.00021606451
0.00021578317
0.00021553306
0.00021533383
0.00021520313
0.00021515734
0.00021521222
0.00021538312
0.0002156842
0.00021612743
0.00021672027
0.0002174618
0.00021833767
0.00021931587
0.000220347
0.00022137177
0.00022233269
0.00022318442
0.00022389863
0.00022446412
0.00022488376
0.00022517012
0.00022517961
0.00022491321
0.00022470669
0.00022455838
0.00022446462
0.00022442067
0.00022442138
0.00022446135
0.00022452074
0.00021659757
0.00021664656
0.00021671282
0.00021678341
0.00021685667
0.00021693147
0.00021700501
0.00021707463
0.00021713664
0.00021718631
0.00021721788
0.00021722469
0.00021719954
0.00021713562
0.00021702798
0.00021687711
0.00021668899
0.00021647668
0.00021625775
0.00021605108
0.00021587517
0.00021574709
0.00021568235
0.00021569526
0.00021579913
0.00021600632
0.00021632743
0.00021677043
0.00021733868
0.00021802805
0.00021882364
0.0002196974
0.0002206092
0.00022151231
0.00022236151
0.0002231203
0.00022376473
0.000224284
0.00022467861
0.00022495731
0.00022509781
0.00022489671
0.00022472029
0.00022459078
0.00022450643
0.00022446421
0.00022446048
0.00022449111
0.00022453727
0.00021661375
0.00021665876
0.00021672054
0.00021678576
0.00021685269
0.00021692027
0.00021698586
0.00021704712
0.0002171009
0.00021714333
0.00021716987
0.00021717549
0.00021715509
0.00021710424
0.00021702034
0.00021690529
0.00021676475
0.00021660965
0.00021645439
0.00021631453
0.00021620559
0.00021614212
0.00021613746
0.00021620373
0.00021635182
0.00021659134
0.0002169298
0.00021737193
0.00021791802
0.00021856194
0.00021928895
0.00022007465
0.00022088613
0.00022168615
0.00022243885
0.00022311482
0.00022369413
0.00022416702
0.00022453279