/*--------------------------------*- C++ -*----------------------------------*\
| =========                 |                                                 |
| \\      /  F ield         | foam-extend: Open Source CFD                    |
|  \\    /   O peration     | Version:     4.1                                |
|   \\  /    A nd           | Web:         http://www.foam-extend.org         |
|    \\/     M anipulation  |                                                 |
\*---------------------------------------------------------------------------*/
FoamFile
{
    version     2.0;
    format      ascii;
    class       volVectorField;
    location    "1.65";
    object      U;
}
// * * * * * * * * * * * * * * * * * * * * * * * * * * * * * * * * * * * * * //

dimensions      [0 1 -1 0 0 0 0];

internalField   nonuniform List<vector> 
4393
(
(146.04862 -0.15651644 0)
(146.59727 -0.16295038 0)
(147.01161 -0.16596449 0)
(147.45287 -0.16961524 0)
(147.90396 -0.17402312 0)
(148.36979 -0.17927359 0)
(148.85257 -0.18528847 0)
(149.35445 -0.19192148 0)
(149.87703 -0.19896694 0)
(150.42123 -0.20616179 0)
(150.98706 -0.21318581 0)
(151.57354 -0.21966479 0)
(152.17845 -0.22517934 0)
(152.79828 -0.22928076 0)
(153.42814 -0.2315141 0)
(154.06178 -0.23144607 0)
(154.69171 -0.22869264 0)
(155.30938 -0.22294048 0)
(155.90543 -0.21395802 0)
(156.46992 -0.20159562 0)
(156.99257 -0.18577863 0)
(157.46298 -0.16649957 0)
(157.87081 -0.14381577 0)
(158.20597 -0.11785776 0)
(158.45892 -0.088851788 0)
(158.62096 -0.057153409 0)
(158.68477 -0.023269271 0)
(158.64515 0.012133827 0)
(158.49878 0.04798075 0)
(158.2465 0.08285634 0)
(157.89331 0.1153145 0)
(157.44852 0.14394434 0)
(156.92553 0.16751751 0)
(156.34094 0.18514126 0)
(155.71345 0.19635712 0)
(155.0624 0.2011606 0)
(154.40654 0.19994727 0)
(153.76293 0.19341009 0)
(153.14628 0.18241835 0)
(152.56859 0.16790411 0)
(152.03915 0.15077197 0)
(151.5647 0.13183781 0)
(151.1498 0.11179563 0)
(150.7972 0.091219044 0)
(150.50828 0.070612221 0)
(150.28348 0.050433554 0)
(150.12222 0.03083824 0)
(150.02092 0.011723562 0)
(149.97389 -0.0031697917 0)
(149.47166 -0.39495409 0)
(149.94111 -0.40590572 0)
(150.28739 -0.4140055 0)
(150.65742 -0.42454767 0)
(151.03709 -0.4376475 0)
(151.4314 -0.45334079 0)
(151.84271 -0.47135732 0)
(152.27327 -0.4912516 0)
(152.72475 -0.5124112 0)
(153.19816 -0.53405503 0)
(153.6936 -0.55523124 0)
(154.21015 -0.57482517 0)
(154.74567 -0.5915841 0)
(155.29668 -0.60416367 0)
(155.85828 -0.6111966 0)
(156.42418 -0.61137687 0)
(156.98684 -0.60354407 0)
(157.5376 -0.58674939 0)
(158.06699 -0.56029004 0)
(158.56496 -0.5237103 0)
(159.02113 -0.47678093 0)
(159.425 -0.41947629 0)
(159.76613 -0.3519692 0)
(160.03431 -0.27465995 0)
(160.21982 -0.18825021 0)
(160.31375 -0.093858945 0)
(160.30858 0.0068650757 0)
(160.19869 0.11167961 0)
(159.98196 0.21750709 0)
(159.6591 0.32053538 0)
(159.23486 0.41656953 0)
(158.71841 0.50141411 0)
(158.12315 0.57137864 0)
(157.46586 0.62375597 0)
(156.76547 0.65712729 0)
(156.04157 0.6714255 0)
(155.3131 0.66777531 0)
(154.59723 0.64818663 0)
(153.90868 0.61519325 0)
(153.25938 0.57151378 0)
(152.65853 0.51978139 0)
(152.11274 0.46235836 0)
(151.62647 0.40123261 0)
(151.20243 0.33800712 0)
(150.84202 0.2740004 0)
(150.54554 0.21027087 0)
(150.31218 0.14710758 0)
(150.14086 0.084346313 0)
(150.03531 0.02858125 0)
(149.73713 -0.62945926 0)
(150.19138 -0.63863626 0)
(150.5267 -0.65078608 0)
(150.88488 -0.66777702 0)
(151.25274 -0.68945781 0)
(151.63536 -0.7156062 0)
(152.03524 -0.74571251 0)
(152.45475 -0.7790179 0)
(152.89569 -0.81450012 0)
(153.35921 -0.85085753 0)
(153.84557 -0.88650018 0)
(154.35402 -0.91955966 0)
(154.88256 -0.94792845 0)
(155.42781 -0.96933729 0)
(155.98494 -0.98147266 0)
(156.54767 -0.98212313 0)
(157.10838 -0.96932761 0)
(157.65831 -0.94149109 0)
(158.18789 -0.89744253 0)
(158.68697 -0.83643171 0)
(159.14508 -0.75808617 0)
(159.55163 -0.66236369 0)
(159.89606 -0.54953702 0)
(160.168 -0.42024021 0)
(160.35746 -0.27559575 0)
(160.45512 -0.11742583 0)
(160.45292 0.051496988 0)
(160.34464 0.22728865 0)
(160.12665 0.40489163 0)
(159.799 0.57806593 0)
(159.36618 0.73971236 0)
(158.83759 0.88263417 0)
(158.22727 1.0004738 0)
(157.55305 1.088578 0)
(156.83503 1.1445413 0)
(156.09398 1.1683076 0)
(155.34975 1.1618729 0)
(154.62017 1.1287342 0)
(153.92026 1.0732523 0)
(153.26201 1.0000641 0)
(152.65444 0.9136217 0)
(152.10388 0.81788285 0)
(151.61444 0.71614469 0)
(151.18851 0.61101767 0)
(150.82719 0.5045195 0)
(150.53034 0.3980782 0)
(150.29671 0.29220834 0)
(150.12702 0.18720771 0)
(150.02928 0.087414925 0)
(149.82967 -0.85850032 0)
(150.27599 -0.86827746 0)
(150.60671 -0.88452616 0)
(150.96008 -0.90806779 0)
(151.32336 -0.93851391 0)
(151.70176 -0.97541381 0)
(152.09794 -1.0180246 0)
(152.51449 -1.0652893 0)
(152.95342 -1.1157946 0)
(153.41611 -1.1677346 0)
(153.90307 -1.2188892 0)
(154.41375 -1.2666312 0)
(154.94632 -1.3079764 0)
(155.49752 -1.3396905 0)
(156.06249 -1.3584587 0)
(156.63482 -1.3611046 0)
(157.20664 -1.3448142 0)
(157.76889 -1.3073118 0)
(158.31163 -1.246944 0)
(158.8244 -1.1626653 0)
(159.29644 -1.0539589 0)
(159.71689 -0.92074987 0)
(160.07492 -0.76336664 0)
(160.35982 -0.5825973 0)
(160.5611 -0.37986785 0)
(160.66877 -0.15755135 0)
(160.67393 0.080641922 0)
(160.56935 0.32934773 0)
(160.35038 0.58135006 0)
(160.01623 0.82763065 0)
(159.57103 1.0578464 0)
(159.02446 1.261417 0)
(158.3916 1.4289587 0)
(157.69191 1.5536342 0)
(156.9474 1.6319892 0)
(156.18063 1.6640856 0)
(155.41294 1.6530133 0)
(154.66311 1.6040279 0)
(153.94663 1.5235804 0)
(153.27555 1.4184453 0)
(152.65858 1.295057 0)
(152.10161 1.1590802 0)
(151.6082 1.0151979 0)
(151.18021 0.86708567 0)
(150.81826 0.71750246 0)
(150.52165 0.56833033 0)
(150.28881 0.42059774 0)
(150.12121 0.27535086 0)
(150.02715 0.13502719 0)
(149.93866 -1.0820669 0)
(150.3769 -1.0933889 0)
(150.70229 -1.1138564 0)
(151.05028 -1.1440655 0)
(151.40855 -1.1834565 0)
(151.78242 -1.2313898 0)
(152.17478 -1.2869022 0)
(152.58845 -1.3486489 0)
(153.02575 -1.414833 0)
(153.48835 -1.4831451 0)
(153.9771 -1.5507242 0)
(154.49172 -1.6141565 0)
(155.03066 -1.669531 0)
(155.59074 -1.7125757 0)
(156.16713 -1.7388861 0)
(156.75318 -1.7442305 0)
(157.34069 -1.7248728 0)
(157.92013 -1.6778249 0)
(158.48109 -1.6009606 0)
(159.01264 -1.4929776 0)
(159.50366 -1.3532611 0)
(159.94297 -1.1817328 0)
(160.31943 -0.97877225 0)
(160.6219 -0.74527296 0)
(160.83931 -0.48287639 0)
(160.96081 -0.19439451 0)
(160.97632 0.11563581 0)
(160.87728 0.44047453 0)
(160.6575 0.77082198 0)
(160.31495 1.0947031 0)
(159.85308 1.3981027 0)
(159.28191 1.6664793 0)
(158.61802 1.886864 0)
(157.88321 2.0498664 0)
(157.10221 2.150894 0)
(156.3002 2.1902957 0)
(155.50055 2.1725916 0)
(154.72334 2.1051865 0)
(153.98465 1.9969782 0)
(153.2965 1.8571484 0)
(152.66717 1.6942766 0)
(152.10186 1.5157967 0)
(151.60334 1.3277541 0)
(151.17273 1.1347945 0)
(150.80995 0.94027723 0)
(150.51372 0.74639638 0)
(150.28219 0.55444858 0)
(150.11706 0.36562147 0)
(150.02586 0.1811944 0)
(150.07624 -1.3030928 0)
(150.50451 -1.3164518 0)
(150.82308 -1.3413251 0)
(151.16425 -1.378424 0)
(151.51616 -1.4270844 0)
(151.88428 -1.4865344 0)
(152.27175 -1.5556296 0)
(152.6817 -1.6327712 0)
(153.1168 -1.7158067 0)
(153.57915 -1.8019408 0)
(154.06998 -1.8876708 0)
(154.58945 -1.9687692 0)
(155.1363 -2.0403376 0)
(155.70759 -2.096968 0)
(156.29845 -2.1330368 0)
(156.90199 -2.1431192 0)
(157.50951 -2.1224428 0)
(158.11088 -2.0672442 0)
(158.69502 -1.9749193 0)
(159.25044 -1.8439447 0)
(159.76555 -1.6736483 0)
(160.22883 -1.4639605 0)
(160.62877 -1.2152662 0)
(160.9538 -0.92844768 0)
(161.19214 -0.60517683 0)
(161.33188 -0.24847691 0)
(161.36145 0.13650293 0)
(161.27047 0.54173424 0)
(161.05064 0.95574561 0)
(160.69807 1.3633203 0)
(160.21515 1.7461679 0)
(159.61225 2.0849507 0)
(158.90794 2.3622954 0)
(158.12728 2.5657314 0)
(157.29881 2.6894317 0)
(156.45125 2.7343263 0)
(155.61068 2.7068992 0)
(154.79884 2.6173091 0)
(154.03246 2.4774468 0)
(153.3234 2.2993214 0)
(152.67924 2.0939345 0)
(152.10419 1.8706379 0)
(151.59996 1.6368872 0)
(151.16663 1.3982718 0)
(150.80318 1.1586878 0)
(150.50755 0.92056321 0)
(150.27748 0.68523903 0)
(150.11443 0.45354449 0)
(150.02513 0.22567528 0)
(150.24308 -1.5150806 0)
(150.6598 -1.5307719 0)
(150.97003 -1.5603188 0)
(151.30281 -1.6046422 0)
(151.64685 -1.6630036 0)
(152.00778 -1.734543 0)
(152.38906 -1.8179742 0)
(152.79418 -1.9114826 0)
(153.22626 -2.0125938 0)
(153.68788 -2.1180487 0)
(154.18083 -2.2237051 0)
(154.70579 -2.3244921 0)
(155.26195 -2.4144524 0)
(155.84666 -2.48692 0)
(156.45505 -2.5348864 0)
(157.07993 -2.5515544 0)
(157.71196 -2.5309715 0)
(158.34016 -2.4685353 0)
(158.95261 -2.3611922 0)
(159.53708 -2.2072898 0)
(160.08146 -2.0062051 0)
(160.57385 -1.7579434 0)
(161.00245 -1.4628819 0)
(161.35525 -1.1217769 0)
(161.61973 -0.73611096 0)
(161.78271 -0.30881866 0)
(161.83077 0.15465724 0)
(161.7512 0.6452603 0)
(161.53278 1.1494551 0)
(161.16896 1.6484686 0)
(160.66042 2.1189339 0)
(160.0178 2.5355263 0)
(159.26227 2.8752649 0)
(158.42336 3.121825 0)
(157.53482 3.2680139 0)
(156.6301 3.3157715 0)
(155.73878 3.274291 0)
(154.88461 3.1572922 0)
(154.08497 2.9803519 0)
(153.3513 2.7588036 0)
(152.69016 2.5063651 0)
(152.10439 2.2344324 0)
(151.59427 1.9518775 0)
(151.15856 1.6651719 0)
(150.79506 1.3786706 0)
(150.50079 1.0949698 0)
(150.27285 0.81536737 0)
(150.11214 0.54029505 0)
(150.02456 0.26916928 0)
(150.43851 -1.7256162 0)
(150.84116 -1.7436569 0)
(151.14143 -1.7778992 0)
(151.46416 -1.8295546 0)
(151.79873 -1.8978609 0)
(152.15095 -1.9819251 0)
(152.52461 -2.0803762 0)
(152.92366 -2.1912424 0)
(153.35171 -2.3117818 0)
(153.81199 -2.4383131 0)
(154.30693 -2.5660706 0)
(154.83791 -2.6891159 0)
(155.40474 -2.8003513 0)
(156.00515 -2.8916991 0)
(156.63437 -2.954541 0)
(157.28479 -2.9804515 0)
(157.94624 -2.9620844 0)
(158.60663 -2.8938972 0)
(159.25292 -2.7724204 0)
(159.87196 -2.5960004 0)
(160.45104 -2.3642082 0)
(160.97795 -2.0772126 0)
(161.44066 -1.7353632 0)
(161.82685 -1.3391315 0)
(162.12326 -0.88950862 0)
(162.31531 -0.38892232 0)
(162.38734 0.15735247 0)
(162.32367 0.73958425 0)
(162.10924 1.3422969 0)
(161.73362 1.9428486 0)
(161.19483 2.5117705 0)
(160.50349 3.0160861 0)
(159.68416 3.4254698 0)
(158.7725 3.7186541 0)
(157.80931 3.8869692 0)
(156.83432 3.9340632 0)
(155.88155 3.8729498 0)
(154.97707 3.7220515 0)
(154.13875 3.5015641 0)
(153.37724 3.230778 0)
(152.69754 2.9264707 0)
(152.10063 2.602196 0)
(151.58497 2.2681986 0)
(151.14762 1.9316966 0)
(150.78498 1.5973274 0)
(150.49296 1.2676608 0)
(150.26784 0.94374624 0)
(150.10983 0.62551904 0)
(150.02402 0.31173779 0)
(150.66195 -1.9212644 0)
(151.049 -1.9418924 0)
(151.33773 -1.981235 0)
(151.6487 -2.0407839 0)
(151.97204 -2.1197672 0)
(152.31381 -2.2173059 0)
(152.6782 -2.3320037 0)
(153.06961 -2.4617977 0)
(153.49231 -2.6037441 0)
(153.95022 -2.7537928 0)
(154.44666 -2.9065793 0)
(154.98384 -3.0552759 0)
(155.5624 -3.1915508 0)
(156.18068 -3.3057229 0)
(156.83404 -3.3872671 0)
(157.51442 -3.425776 0)
(158.21056 -3.4122111 0)
(158.90888 -3.3399617 0)
(159.59483 -3.2052228 0)
(160.25415 -3.0065671 0)
(160.87347 -2.7440157 0)
(161.44037 -2.4180773 0)
(161.9428 -2.0290998 0)
(162.36831 -1.5771039 0)
(162.70304 -1.0622151 0)
(162.93095 -0.4858033 0)
(163.03372 0.14767164 0)
(162.99203 0.82840779 0)
(162.78566 1.5393978 0)
(162.39876 2.2538891 0)
(161.82508 2.9350316 0)
(161.07467 3.5398492 0)
(160.1765 4.0281066 0)
(159.17462 4.3720063 0)
(158.11949 4.5613177 0)
(157.05912 4.6024779 0)
(156.03308 4.5139224 0)
(155.06998 4.3203284 0)
(154.18784 4.0477057 0)
(153.39587 3.7200557 0)
(152.69685 3.3575823 0)
(152.08926 2.9760828 0)
(151.56921 2.5870892 0)
(151.13169 2.1983946 0)
(150.77142 1.8147219 0)
(150.48301 1.4384117 0)
(150.2618 1.0700745 0)
(150.10717 0.70903072 0)
(150.02341 0.3533368 0)
(150.91317 -2.1188114 0)
(151.28132 -2.1419037 0)
(151.55665 -2.1861959 0)
(151.85394 -2.2535483 0)
(152.16419 -2.3432429 0)
(152.49364 -2.4544823 0)
(152.84688 -2.5859262 0)
(153.22888 -2.7355137 0)
(153.6446 -2.9001978 0)
(154.09888 -3.075649 0)
(154.59601 -3.2559649 0)
(155.13934 -3.4334361 0)
(155.73058 -3.5984187 0)
(156.36894 -3.7394186 0)
(157.0501 -3.8436338 0)
(157.76545 -3.8981983 0)
(158.50229 -3.8919646 0)
(159.24502 -3.8170805 0)
(159.9771 -3.6695433 0)
(160.68282 -3.4485034 0)
(161.34816 -3.1548131 0)
(161.96065 -2.789575 0)
(162.50857 -2.3531784 0)
(162.97969 -1.8449798 0)
(163.35984 -1.2637446 0)
(163.63153 -0.60903846 0)
(163.77344 0.11639927 0)
(163.76185 0.90360688 0)
(163.56978 1.7347049 0)
(163.17372 2.5788002 0)
(162.5608 3.3901542 0)
(161.7393 4.1125007 0)
(160.74392 4.6918715 0)
(159.63037 5.0916236 0)
(158.46244 5.3000154 0)
(157.29913 5.328001 0)
(156.18675 5.201787 0)
(155.15652 4.9544275 0)
(154.22593 4.6192597 0)
(153.40182 4.2258555 0)
(152.68374 3.7981793 0)
(152.06693 3.3542584 0)
(151.5445 2.906705 0)
(151.10899 2.4636042 0)
(150.75315 2.0294724 0)
(150.47014 1.6061561 0)
(150.25423 1.1936103 0)
(150.10391 0.79040311 0)
(150.02268 0.39378788 0)
(151.19027 -2.2911968 0)
(151.5385 -2.3168839 0)
(151.79881 -2.3665124 0)
(152.08059 -2.442274 0)
(152.37578 -2.5435203 0)
(152.69086 -2.6696014 0)
(153.03087 -2.8193239 0)
(153.40135 -2.9907407 0)
(153.80809 -3.1808237 0)
(154.25694 -3.3850812 0)
(154.75345 -3.5971596 0)
(155.30234 -3.8084923 0)
(155.90676 -4.0080437 0)
(156.56716 -4.1822517 0)
(157.2798 -4.3155344 0)
(158.0355 -4.3918667 0)
(158.81965 -4.3973407 0)
(159.61388 -4.3225702 0)
(160.39895 -4.1635462 0)
(161.15734 -3.9205241 0)
(161.87435 -3.5957661 0)
(162.53782 -3.1913719 0)
(163.13685 -2.7079052 0)
(163.66001 -2.1438742 0)
(164.0933 -1.4961257 0)
(164.41797 -0.76148944 0)
(164.60944 0.060217847 0)
(164.63877 0.96224671 0)
(164.47029 1.9270158 0)
(164.06976 2.9198498 0)
(163.41394 3.8845171 0)
(162.50726 4.7468388 0)
(161.3917 5.4332805 0)
(160.13958 5.8948695 0)
(158.83329 6.1187051 0)
(157.54638 6.1230232 0)
(156.33328 5.9452518 0)
(155.22748 5.6296983 0)
(154.24476 5.2189062 0)
(153.38815 4.7489505 0)
(152.65273 4.247805 0)
(152.02948 3.7355666 0)
(151.50784 3.2255758 0)
(151.07743 2.7258042 0)
(150.72879 2.2401788 0)
(150.45348 1.7697225 0)
(150.24464 1.3134771 0)
(150.09984 0.86907746 0)
(150.02177 0.43282567 0)
(151.49477 -2.4741399 0)
(151.81862 -2.5025013 0)
(152.06174 -2.5574269 0)
(152.32578 -2.6415516 0)
(152.60365 -2.7543749 0)
(152.90199 -2.895475 0)
(153.22626 -3.0639112 0)
(153.58265 -3.2579813 0)
(153.97784 -3.4748298 0)
(154.41888 -3.7099627 0)
(154.9128 -3.9567105 0)
(155.46606 -4.2057243 0)
(156.08369 -4.4445431 0)
(156.76794 -4.6572907 0)
(157.51612 -4.825005 0)
(158.31849 -4.9275644 0)
(159.15791 -4.9473932 0)
(160.01215 -4.8732102 0)
(160.85824 -4.7014039 0)
(161.67626 -4.4342574 0)
(162.4509 -4.0764029 0)
(163.17079 -3.6315774 0)
(163.82655 -3.1007386 0)
(164.40842 -2.4813294 0)
(164.90329 -1.7675321 0)
(165.29166 -0.95212538 0)
(165.54561 -0.030293522 0)
(165.62931 0.99533794 0)
(165.49787 2.109218 0)
(165.10141 3.274339 0)
(164.40064 4.4224861 0)
(163.39207 5.4551285 0)
(162.12703 6.2700709 0)
(160.70179 6.80062 0)
(159.22528 7.0337703 0)
(157.79034 6.9995161 0)
(156.46084 6.7516101 0)
(155.27154 6.3494766 0)
(154.23452 5.8471172 0)
(153.34695 5.2880164 0)
(152.59777 4.7041946 0)
(151.97249 4.1174062 0)
(151.45612 3.5411459 0)
(151.03491 2.9827006 0)
(150.69698 2.4449138 0)
(150.43221 1.9275912 0)
(150.23259 1.4285692 0)
(150.09477 0.94434544 0)
(150.02066 0.47010647 0)
(151.82123 -2.6144591 0)
(152.12059 -2.6450549 0)
(152.34495 -2.7050981 0)
(152.58932 -2.7976077 0)
(152.84777 -2.9222537 0)
(153.12705 -3.0789371 0)
(153.43307 -3.2671111 0)
(153.77267 -3.485504 0)
(154.1535 -3.7316592 0)
(154.58395 -4.0013316 0)
(155.07281 -4.2877729 0)
(155.62868 -4.581028 0)
(156.25904 -4.867272 0)
(156.96867 -5.1281201 0)
(157.75665 -5.3405048 0)
(158.61288 -5.4788585 0)
(159.5168 -5.5204795 0)
(160.44073 -5.4514902 0)
(161.3564 -5.2691278 0)
(162.24072 -4.9789156 0)
(163.07801 -4.5890664 0)
(163.85849 -4.1056503 0)
(164.57542 -3.5301891 0)
(165.22185 -2.8588184 0)
(165.78683 -2.0822721 0)
(166.25094 -1.1877557 0)
(166.583 -0.16373129 0)
(166.73974 0.99354846 0)
(166.66458 2.2732772 0)
(166.2868 3.6390433 0)
(165.54213 5.0099798 0)
(164.41192 6.254415 0)
(162.95901 7.2269778 0)
(161.31534 7.8345452 0)
(159.62832 8.0666194 0)
(158.0164 7.9722584 0)
(156.55383 7.6291232 0)
(155.27438 7.1168657 0)
(154.18327 6.5035165 0)
(153.26893 5.8406728 0)
(152.512 5.1640545 0)
(151.8911 4.4962832 0)
(151.38603 3.850137 0)
(150.97928 3.2314416 0)
(150.65638 2.6413364 0)
(150.40554 2.0779464 0)
(150.21767 1.5375761 0)
(150.08855 1.0153652 0)
(150.01929 0.50521895 0)
(152.17445 -2.7819355 0)
(152.44356 -2.8156752 0)
(152.64663 -2.8815755 0)
(152.8688 -2.9831684 0)
(153.10512 -3.1203914 0)
(153.36236 -3.2935708 0)
(153.64679 -3.5026883 0)
(153.96587 -3.747077 0)
(154.32828 -4.0248984 0)
(154.74393 -4.3324109 0)
(155.22366 -4.6630352 0)
(155.77866 -5.0063907 0)
(156.41958 -5.3473602 0)
(157.15482 -5.6648523 0)
(157.98646 -5.9307648 0)
(158.90454 -6.1120971 0)
(159.88408 -6.1787132 0)
(160.88957 -6.1130458 0)
(161.88508 -5.9140802 0)
(162.84335 -5.5928403 0)
(163.74866 -5.1634463 0)
(164.59403 -4.6358096 0)
(165.37666 -4.0127375 0)
(166.09392 -3.2892481 0)
(166.73861 -2.4519928 0)
(167.29272 -1.4806353 0)
(167.72227 -0.3537937 0)
(167.97613 0.94224771 0)
(167.98432 2.4055416 0)
(167.64892 4.0057068 0)
(166.86726 5.6510134 0)
(165.59222 7.1652177 0)
(163.89992 8.3361443 0)
(161.97682 9.0294339 0)
(160.02766 9.2431905 0)
(158.20454 9.0575293 0)
(156.59193 8.5853376 0)
(155.21823 7.9330736 0)
(154.07689 7.1854722 0)
(153.14359 6.4024158 0)
(152.388 5.6223238 0)
(151.78029 4.8673442 0)
(151.29429 4.1482806 0)
(150.90846 3.4684835 0)
(150.60574 2.8266376 0)
(150.37277 2.2186638 0)
(150.19952 1.638989 0)
(150.08104 1.0811741 0)
(150.01764 0.5376934 0)
(152.54158 -2.8801777 0)
(152.78135 -2.9153153 0)
(152.96165 -2.9854509 0)
(153.15964 -3.0945051 0)
(153.37156 -3.2426737 0)
(153.60417 -3.430793 0)
(153.86402 -3.6595328 0)
(154.1592 -3.9290745 0)
(154.4994 -4.2385438 0)
(154.89619 -4.5851587 0)
(155.36279 -4.9630301 0)
(155.91346 -5.3618572 0)
(156.56285 -5.7656923 0)
(157.32437 -6.1510232 0)
(158.20502 -6.4840842 0)
(159.19603 -6.7220283 0)
(160.26655 -6.8239664 0)
(161.36946 -6.7670284 0)
(162.45742 -6.5533839 0)
(163.49727 -6.2028511 0)
(164.47399 -5.7383621 0)
(165.38531 -5.1747157 0)
(166.23434 -4.5155965 0)
(167.02487 -3.7540091 0)
(167.75612 -2.8710448 0)
(168.414 -1.8359709 0)
(168.96291 -0.61361761 0)
(169.34367 0.82365627 0)
(169.47234 2.4871455 0)
(169.21659 4.3604268 0)
(168.41555 6.3474628 0)
(166.96925 8.2140104 0)
(164.96646 9.6421094 0)
(162.67966 10.429283 0)
(160.40136 10.596148 0)
(158.32707 10.273604 0)
(156.5487 9.6266997 0)
(155.08123 8.7967702 0)
(153.8989 7.8875253 0)
(152.95931 6.9662243 0)
(152.21797 6.0719487 0)
(151.63506 5.224271 0)
(151.17783 4.4302878 0)
(150.82063 3.6895997 0)
(150.54403 2.997566 0)
(150.33334 2.3473411 0)
(150.17788 1.7311288 0)
(150.07212 1.1407114 0)
(150.01568 0.56701415 0)
(152.93679 -3.0314613 0)
(153.14034 -3.0705484 0)
(153.2953 -3.1472621 0)
(153.46657 -3.2660909 0)
(153.65132 -3.427662 0)
(153.856 -3.6335264 0)
(154.08732 -3.885296 0)
(154.3538 -4.1843141 0)
(154.66608 -4.531059 0)
(155.03741 -4.9241901 0)
(155.48366 -5.3590352 0)
(156.02271 -5.8258102 0)
(156.67402 -6.3080638 0)
(157.45787 -6.7800731 0)
(158.38924 -7.2014479 0)
(159.46292 -7.5154085 0)
(160.6406 -7.6639324 0)
(161.85811 -7.6149458 0)
(163.05111 -7.375212 0)
(164.17845 -6.9782072 0)
(165.2277 -6.4604708 0)
(166.2046 -5.8440055 0)
(167.12079 -5.1342554 0)
(167.98861 -4.3236596 0)
(168.81666 -3.3894092 0)
(169.59771 -2.2897291 0)
(170.29573 -0.97196385 0)
(170.84334 0.6108443 0)
(171.14385 2.490398 0)
(171.02532 4.678938 0)
(170.24163 7.0947057 0)
(168.59633 9.4338779 0)
(166.18223 11.207953 0)
(163.41173 12.093759 0)
(160.71663 12.16635 0)
(158.34565 11.639845 0)
(156.38995 10.756779 0)
(154.83689 9.7023713 0)
(153.63059 8.600109 0)
(152.70374 7.5217498 0)
(151.99421 6.5034419 0)
(151.45082 5.559086 0)
(151.03401 4.6897955 0)
(150.71438 3.8898981 0)
(150.47051 3.1504738 0)
(150.2869 2.4613477 0)
(150.1526 1.8121904 0)
(150.06175 1.1928495 0)
(150.01342 0.59263607 0)
(153.3315 -3.0772404 0)
(153.50064 -3.1164667 0)
(153.62872 -3.1958516 0)
(153.77109 -3.3202462 0)
(153.92598 -3.4905852 0)
(154.09949 -3.7090791 0)
(154.29835 -3.9782814 0)
(154.53139 -4.3007794 0)
(154.81011 -4.6786327 0)
(155.14951 -5.1124123 0)
(155.56844 -5.5994069 0)
(156.08904 -6.1312208 0)
(156.73654 -6.69189 0)
(157.54031 -7.2549407 0)
(158.52805 -7.7741236 0)
(159.70266 -8.174911 0)
(161.01673 -8.3737315 0)
(162.37995 -8.3248219 0)
(163.70135 -8.0443475 0)
(164.92794 -7.5894639 0)
(166.0523 -7.019292 0)
(167.09281 -6.3660255 0)
(168.07224 -5.6356579 0)
(169.0132 -4.8185166 0)
(169.9377 -3.8860147 0)
(170.85152 -2.7786484 0)
(171.72254 -1.4145156 0)
(172.4776 0.28439363 0)
(173.01249 2.3780013 0)
(173.11606 4.9216949 0)
(172.42059 7.8767373 0)
(170.55399 10.866923 0)
(167.5818 13.12757 0)
(164.15079 14.105679 0)
(160.92385 14.004962 0)
(158.20696 13.175097 0)
(156.07183 11.973698 0)
(154.45376 10.637834 0)
(153.25151 9.3080914 0)
(152.36453 8.0545245 0)
(151.70974 6.9045437 0)
(151.22389 5.8620707 0)
(150.86108 4.9194106 0)
(150.58893 4.0639114 0)
(150.38492 3.2814126 0)
(150.2334 2.557909 0)
(150.12367 1.8803059 0)
(150.04994 1.2364372 0)
(150.01084 0.61400611 0)
(153.75552 -3.2109694 0)
(153.88256 -3.2558745 0)
(153.98154 -3.3429077 0)
(154.09293 -3.4775026 0)
(154.21569 -3.6611653 0)
(154.35518 -3.8971602 0)
(154.51787 -4.1895159 0)
(154.7126 -4.5427754 0)
(154.95134 -4.9615147 0)
(155.2505 -5.4494657 0)
(155.63192 -6.0074728 0)
(156.12226 -6.6301471 0)
(156.75303 -7.3033533 0)
(157.56468 -8.001694 0)
(158.60427 -8.6745847 0)
(159.89149 -9.2236083 0)
(161.36889 -9.5222139 0)
(162.90598 -9.4976069 0)
(164.37009 -9.178063 0)
(165.69153 -8.6552473 0)
(166.87433 -8.0207111 0)
(167.95941 -7.3166243 0)
(168.98618 -6.5438536 0)
(169.98995 -5.6885488 0)
(171.01241 -4.7210697 0)
(172.08179 -3.5671124 0)
(173.17435 -2.1150031 0)
(174.20873 -0.25720341 0)
(175.06655 2.0895727 0)
(175.52466 5.0324419 0)
(175.0495 8.6563376 0)
(172.96276 12.559167 0)
(169.21572 15.541702 0)
(164.85485 16.579842 0)
(160.94696 16.174805 0)
(157.83679 14.893932 0)
(155.53891 13.265745 0)
(153.89578 11.581433 0)
(152.74053 9.988924 0)
(151.93045 8.5451206 0)
(151.35924 7.2599739 0)
(150.95217 6.1218083 0)
(150.65851 5.1108624 0)
(150.44444 4.205769 0)
(150.28759 3.3862852 0)
(150.17313 2.6342245 0)
(150.0913 1.933631 0)
(150.03677 1.2703545 0)
(150.00798 0.63059012 0)
(154.13587 -3.1951474 0)
(154.22219 -3.2383504 0)
(154.29024 -3.3249684 0)
(154.36794 -3.4613442 0)
(154.45496 -3.6495346 0)
(154.55574 -3.8937495 0)
(154.67612 -4.1992772 0)
(154.82456 -4.5723103 0)
(155.0131 -5.0195724 0)
(155.2592 -5.5476754 0)
(155.58777 -6.1611021 0)
(156.0309 -6.8578119 0)
(156.62714 -7.6256826 0)
(157.43011 -8.4421548 0)
(158.51623 -9.2573347 0)
(159.93894 -9.9458055 0)
(161.63324 -10.313965 0)
(163.40541 -10.244341 0)
(165.05522 -9.7927062 0)
(166.48774 -9.1123743 0)
(167.72855 -8.3534642 0)
(168.85645 -7.5746709 0)
(169.93168 -6.7691692 0)
(170.99735 -5.9221477 0)
(172.11597 -5.0177879 0)
(173.34824 -3.969701 0)
(174.68455 -2.6190547 0)
(176.03324 -0.79560272 0)
(177.28261 1.6465409 0)
(178.24527 4.9158714 0)
(178.21528 9.327759 0)
(175.98324 14.535411 0)
(171.15313 18.675116 0)
(165.44373 19.685969 0)
(160.66934 18.75379 0)
(157.13234 16.800044 0)
(154.72279 14.60453 0)
(153.12363 12.497423 0)
(152.078 10.610566 0)
(151.39328 8.9684751 0)
(150.94038 7.5514433 0)
(150.63597 6.3254528 0)
(150.42753 5.2553189 0)
(150.28222 4.3094748 0)
(150.1796 3.4610616 0)
(150.10684 2.687625 0)
(150.05591 1.9704505 0)
(150.02243 1.2935782 0)
(150.00486 0.64190431 0)
(154.44902 -3.3027343 0)
(154.4854 -3.357171 0)
(154.51858 -3.4550579 0)
(154.5583 -3.6038192 0)
(154.60486 -3.805959 0)
(154.6614 -4.06677 0)
(154.73293 -4.3931127 0)
(154.82719 -4.793489 0)
(154.95574 -5.2779852 0)
(155.13626 -5.8582341 0)
(155.39611 -6.5461013 0)
(155.77275 -7.3483962 0)
(156.31099 -8.2607869 0)
(157.07614 -9.2705389 0)
(158.18377 -10.342342 0)
(159.74956 -11.328635 0)
(161.71043 -11.92522 0)
(163.77018 -11.919648 0)
(165.61764 -11.407711 0)
(167.12132 -10.628271 0)
(168.34845 -9.8213953 0)
(169.44452 -9.0574193 0)
(170.49821 -8.2992354 0)
(171.55116 -7.5086189 0)
(172.69322 -6.6860424 0)
(174.04859 -5.7204911 0)
(175.65017 -4.3708888 0)
(177.4084 -2.3756606 0)
(179.22633 0.47544655 0)
(181.00123 4.3270686 0)
(181.86814 9.7704698 0)
(179.76988 16.836251 0)
(173.45927 22.959209 0)
(165.74664 23.684291 0)
(159.90431 21.828562 0)
(155.95024 18.869878 0)
(153.54175 15.933297 0)
(152.09822 13.33025 0)
(151.24927 11.129424 0)
(150.75035 9.2936681 0)
(150.45539 7.7581171 0)
(150.27892 6.4593272 0)
(150.1716 5.3439107 0)
(150.10504 4.3693062 0)
(150.0629 3.5020621 0)
(150.03575 2.7157632 0)
(150.01815 1.9893022 0)
(150.00717 1.305255 0)
(150.00155 0.64754996 0)
(154.38519 -3.2269151 0)
(154.36095 -3.2768563 0)
(154.35203 -3.366172 0)
(154.34545 -3.5061883 0)
(154.34209 -3.7006991 0)
(154.34317 -3.9566143 0)
(154.35209 -4.2827813 0)
(154.37475 -4.6904121 0)
(154.42064 -5.1932643 0)
(154.50546 -5.8080618 0)
(154.6567 -6.5540865 0)
(154.91645 -7.4470564 0)
(155.33535 -8.4877861 0)
(155.98677 -9.6671723 0)
(157.03686 -10.970541 0)
(158.71886 -12.240045 0)
(161.00868 -12.991321 0)
(163.44358 -12.820017 0)
(165.52615 -11.932391 0)
(167.06859 -10.721639 0)
(168.21186 -9.6083963 0)
(169.22153 -8.6676181 0)
(170.23136 -7.7960712 0)
(171.26014 -6.8986466 0)
(172.42094 -6.0532641 0)
(173.93791 -5.1954047 0)
(175.90383 -4.0096059 0)
(178.21036 -2.1961847 0)
(180.68155 0.51434125 0)
(183.37369 4.015464 0)
(185.59578 9.8513851 0)
(184.21865 19.141538 0)
(175.99491 28.863069 0)
(165.32579 28.72155 0)
(158.34153 25.419187 0)
(154.09611 21.018567 0)
(151.90628 17.14963 0)
(150.78838 13.998077 0)
(150.25054 11.489144 0)
(150.00813 9.4847022 0)
(149.91302 7.8578153 0)
(149.88887 6.5099713 0)
(149.8968 5.3685 0)
(149.91719 4.3803357 0)
(149.94032 3.5062966 0)
(149.96157 2.7168295 0)
(149.97892 1.9891091 0)
(149.99135 1.3047786 0)
(149.99812 0.64724875 0)
(153.47556 -3.2566822 0)
(153.37703 -3.3304111 0)
(153.30978 -3.43923 0)
(153.23684 -3.5993521 0)
(153.16071 -3.814866 0)
(153.08025 -4.0935811 0)
(152.99657 -4.445292 0)
(152.9129 -4.8826265 0)
(152.83557 -5.4215178 0)
(152.77674 -6.0822433 0)
(152.7622 -6.8911738 0)
(152.83909 -7.877204 0)
(153.06543 -9.0562258 0)
(153.51292 -10.435035 0)
(154.39445 -12.05811 0)
(156.14119 -13.847516 0)
(158.85073 -15.095848 0)
(161.76021 -14.979384 0)
(164.04291 -13.952898 0)
(165.43628 -12.559083 0)
(166.22962 -11.491599 0)
(166.9224 -10.755174 0)
(167.71836 -10.148375 0)
(168.53805 -9.4719329 0)
(169.45605 -9.0172916 0)
(170.86728 -8.8477663 0)
(172.96942 -8.2914408 0)
(175.65781 -7.0423251 0)
(178.57216 -4.4760873 0)
(182.42929 -0.72688034 0)
(187.1585 7.2311005 0)
(188.24575 20.228799 0)
(177.92832 36.681434 0)
(163.24711 34.969602 0)
(155.5948 29.536402 0)
(151.35125 23.10309 0)
(149.73672 18.092547 0)
(149.18483 14.388476 0)
(149.09725 11.621806 0)
(149.18649 9.5030962 0)
(149.33032 7.8292843 0)
(149.47859 6.4657319 0)
(149.61205 5.3226951 0)
(149.72459 4.3390514 0)
(149.81557 3.4718373 0)
(149.88647 2.6897732 0)
(149.93934 1.9693088 0)
(149.97543 1.2918605 0)
(149.99467 0.64087548 0)
(150.27881 -3.155774 0)
(150.03218 -3.2218628 0)
(149.86085 -3.306535 0)
(149.67276 -3.4363697 0)
(149.47267 -3.6165842 0)
(149.25579 -3.8560065 0)
(149.01963 -4.1654985 0)
(148.76281 -4.5598318 0)
(148.48567 -5.0590385 0)
(148.19194 -5.6906888 0)
(147.89709 -6.4951213 0)
(147.64258 -7.5285206 0)
(147.48332 -8.843998 0)
(147.4593 -10.472181 0)
(147.78403 -12.508539 0)
(149.20337 -15.036573 0)
(152.18339 -17.055022 0)
(155.43269 -16.590381 0)
(157.58785 -14.746372 0)
(158.33795 -12.182798 0)
(158.2361 -10.347695 0)
(158.17018 -9.1889925 0)
(158.40461 -8.4336208 0)
(158.60251 -7.523374 0)
(158.71833 -7.0225864 0)
(159.66738 -7.0170851 0)
(161.78096 -5.9940027 0)
(164.94931 -4.8728857 0)
(168.68307 -1.9562443 0)
(175.0619 4.1671025 0)
(184.0468 12.175676 0)
(189.65409 24.095685 0)
(176.92334 49.629677 0)
(157.5456 45.388238 0)
(150.91443 34.317902 0)
(147.40327 24.79338 0)
(146.95734 18.491366 0)
(147.31609 14.350163 0)
(147.83445 11.452347 0)
(148.32309 9.3130958 0)
(148.73402 7.6557936 0)
(149.06589 6.3188936 0)
(149.32882 5.2030421 0)
(149.53445 4.2440106 0)
(149.69303 3.3981771 0)
(149.81295 2.6345001 0)
(149.90068 1.9299622 0)
(149.95989 1.2665888 0)
(149.99131 0.62848381 0)
(143.51062 -2.9203942 0)
(143.11055 -3.0127713 0)
(142.80034 -3.1143004 0)
(142.45208 -3.2639018 0)
(142.07745 -3.4664919 0)
(141.66724 -3.7322098 0)
(141.21338 -4.0733762 0)
(140.7065 -4.5071573 0)
(140.1362 -5.0573225 0)
(139.49053 -5.7565789 0)
(138.76283 -6.6526067 0)
(137.97562 -7.8164051 0)
(137.18233 -9.3215661 0)
(136.39279 -11.179025 0)
(135.75987 -13.445429 0)
(136.50368 -16.542063 0)
(140.14415 -19.65858 0)
(144.25913 -18.175998 0)
(146.44039 -15.447475 0)
(146.26555 -11.967068 0)
(144.63887 -10.769205 0)
(143.25532 -10.900877 0)
(142.63803 -11.369465 0)
(142.04181 -10.882754 0)
(141.16375 -10.3679 0)
(141.99027 -10.532111 9.2160958e-18)
(143.27072 -11.920829 -2.0411304e-19)
(145.57567 -13.588821 0)
(146.66328 -7.4753301 1.001612e-17)
(144.02677 -14.509679 -7.4991172e-18)
(161.52938 -10.134879 4.4273629e-18)
(180.41219 5.4384315 -9.8916414e-18)
(167.93201 72.290017 6.3476314e-18)
(142.12825 58.029698 0)
(140.66652 37.126551 0)
(141.63428 24.707251 0)
(143.57067 17.831044 0)
(145.29833 13.692865 0)
(146.55469 10.913035 0)
(147.47727 8.8914611 0)
(148.16032 7.3302686 0)
(148.67269 6.0681744 0)
(149.06042 5.0102148 0)
(149.3548 4.0964113 0)
(149.57745 3.2865085 0)
(149.74366 2.5520112 0)
(149.86425 1.8718235 0)
(149.94526 1.2294619 0)
(149.98814 0.61032094 0)
(129.55003 -2.8697393 0)
(128.766 -2.9450939 0)
(128.16217 -3.0089326 0)
(127.48775 -3.1104485 0)
(126.76269 -3.2515651 0)
(125.96792 -3.4394561 0)