/*--------------------------------*- C++ -*----------------------------------*\
| =========                 |                                                 |
| \\      /  F ield         | foam-extend: Open Source CFD                    |
|  \\    /   O peration     | Version:     4.1                                |
|   \\  /    A nd           | Web:         http://www.foam-extend.org         |
|    \\/     M anipulation  |                                                 |
\*---------------------------------------------------------------------------*/
FoamFile
{
    version     2.0;
    format      ascii;
    class       volScalarField;
    location    "0.8";
    object      p;
}
// * * * * * * * * * * * * * * * * * * * * * * * * * * * * * * * * * * * * * //

dimensions      [0 2 -2 0 0 0 0];

internalField   nonuniform List<scalar> 
4242
(
-13465.85
-13071.682
-12678.221
-12188.935
-11641.735
-11018.022
-10316.412
-9538.3679
-8690.3871
-7785.7767
-6844.8566
-5893.6748
-4963.1859
-4092.1182
-3313.6355
-2561.6745
-15923.415
-15421.579
-14996.111
-14477.773
-13904.464
-13258.678
-12543.137
-11759.109
-10910.674
-10005.444
-9055.0007
-8074.9002
-7084.9757
-6113.1364
-5194.5343
-4325.9022
-19776.322
-19157.354
-18686.518
-18094.907
-17439.289
-16699.48
-15878.886
-14977.836
-14000.829
-12956.113
-11855.838
-10715.748
-9554.4358
-8393.7777
-7261.5443
-6200.6971
-24376.487
-23642.538
-23115.399
-22416.319
-21643.164
-20765.958
-19788.381
-18709.254
-17533.488
-16270.721
-14935.966
-13549.478
-12135.759
-10721.504
-9333.9264
-8026.6446
-27849.815
-27025.033
-26465.118
-25684.703
-24832.728
-23859.806
-22771.92
-21566.011
-20246.931
-18824.606
-17315.341
-15741.748
-14131.942
-12517.437
-10927.859
-9390.5981
-29648.391
-28760.624
-28192.978
-27370.64
-26485.648
-25469.677
-24332.8
-23070.515
-21687.457
-20193.213
-18604.138
-16943.234
-15239.403
-13526.029
-11837.107
-10221.173
-29782.916
-28873.011
-28321.246
-27500.488
-26622.683
-25613.545
-24484.522
-23231.174
-21857.802
-20373.667
-18794.719
-17143.453
-15448.12
-13741.546
-12055.465
-10442.36
-28314.336
-27429.299
-26909.858
-26132.386
-25295.847
-24337.955
-23266.786
-22079.617
-20780.702
-19379.321
-17890.884
-16336.732
-14743.19
-13140.566
-11555.621
-10039.205
-25373.493
-24562.918
-24090.691
-23396.803
-22637.275
-21775.213
-20812.698
-19748.893
-18588.239
-17339.877
-16018.204
-14642.649
-13236.78
-11828.015
-10440.653
-9119.8781
-21179.356
-20491.761
-20078.376
-19504.615
-18859.953
-18136.404
-17332.04
-16446.617
-15484.508
-14453.988
-13367.258
-12240.165
-11091.26
-9941.7881
-8810.8475
-7735.0789
-15928.182
-15418.442
-15087.71
-14666.913
-14181.336
-13642.506
-13048.905
-12399.116
-11696.238
-10946.482
-10158.239
-9341.3356
-8505.5929
-7659.6608
-6805.5413
-5940.945
-11244.244
-10931.727
-10690.243
-10428.226
-10100.322
-9717.6732
-9292.3168
-8829.0522
-8332.7953
-7810.6292
-7270.388
-6718.8006
-6159.6761
-5593.2741
-5015.1209
-4371.5448
-3658.8481
-3390.5219
-3165.9862
-2898.0915
-2599.1498
-2269.6091
-1912.8644
-1534.6941
-1143.3215
-749.3298
-365.22236
-4.8991993
315.29437
576.58247
781.58625
993.04407
1363.8834
1538.4786
1696.2122
1873.5884
2065.7637
2270.1087
2482.0699
2694.9494
2899.727
3085.1851
3238.5585
3346.4762
3394.9676
3369.0079
3262.4333
3113.8519
6070.0905
6161.8454
6246.9632
6336.6347
6427.2654
6514.1652
6590.8658
6648.9202
6677.9628
6666.1812
6601.3259
6471.7653
6266.2775
5974.3726
5600.8783
5204.7057
9804.7138
9836.9569
9862.845
9881.661
9889.2019
9879.4456
9844.5841
9774.9804
9659.3933
9485.6642
9241.8726
8917.1767
8501.1972
7985.6438
7383.3718
6766.5028
12187.399
12187.653
12178.506
12155.107
12112.004
12042.135
11936.745
11785.466
11576.717
11298.564
10939.908
10491.004
9942.8043
9292.0297
8572.2738
7896.8836
-19816.296
-19196.856
-18725.505
-18133.287
-17476.774
-16735.779
-15913.603
-15010.538
-14031.1
-12983.664
-11880.635
-10738.102
-9574.998
-8414.1272
-7286.4992
-6234.1647
12724.314
12712.869
12689.791
12651.167
12591.724
12504.83
12382.461
12215.269
11992.87
11704.444
11339.717
10890.119
10349.903
9718.2306
9005.6792
8248.4584
12748.648
12736.885
12713.111
12673.375
12612.334
12523.302
12398.247
12227.892
12002.041
11710.201
11342.522
10890.866
10349.976
9720.3329
9016.2754
8278.9953
12200.553
12200.423
12190.658
12166.369
12122.041
12050.562
11943.148
11789.45
11577.992
11297.065
10935.908
10485.147
9936.2155
9287.3656
8575.6239
7913.4701
9779.6551
9812.1632
9838.3654
9857.4446
9865.1355
9855.3567
9820.2454
9750.1248
9633.753
9459.0719
9214.3899
8888.7608
8469.8975
7946.1386
7338.6005
6764.9509
6030.7554
6123.3966
6209.5162
6300.3508
6392.308
6480.6888
6559.0154
6618.8287
6649.7564
6640.0558
6577.7116
6450.8614
6244.9735
5942.9514
5563.6894
5253.4647
1346.1388
1521.7104
1680.3871
1858.9851
2052.6816
2258.8902
2473.1122
2688.7117
2896.7326
3086.0551
3244.1107
3357.5799
3411.4718
3389.4808
3289.7135
3144.8223
-3650.6403
-3381.7602
-3157.0023
-2888.6919
-2589.2496
-2259.1212
-1901.7022
-1522.7783
-1130.6065
-735.84076
-351.0847
9.5283543
328.73051
585.53434
780.62947
985.25509
-11261.607
-10949.05
-10707.199
-10444.829
-10116.404
-9732.9445
-9306.4186
-8841.5407
-8343.1397
-7818.2348
-7274.614
-6718.9079
-6154.4845
-5580.3367
-4985.4673
-4331.9845
-15951.523
-15441.402
-15110.14
-14688.876
-14202.63
-13662.897
-13068.125
-12416.864
-11712.229
-10960.548
-10170.461
-9352.2251
-8516.2836
-7672.6339
-6824.8953
-5989.9648
-21211.543
-20523.316
-20109.328
-19534.931
-18889.38
-18164.684
-17358.869
-16471.678
-15507.551
-14474.941
-13386.372
-12258.126
-11109.171
-9961.2241
-8831.6839
-7762.2338
-25412.035
-24600.732
-24127.879
-23433.213
-22672.637
-21809.228
-20845
-19779.117
-18616.101
-17365.315
-16041.531
-14664.667
-13258.772
-11851.774
-10466.494
-9155.4144
-28356.262
-27470.494
-26950.43
-26172.11
-25334.438
-24375.064
-23301.982
-22112.466
-20810.852
-19406.648
-17915.645
-16359.652
-14765.4
-13163.211
-11577.584
-10065.435
-29826.39
-28915.795
-28363.436
-27541.835
-26662.883
-25652.222
-24521.2
-23265.374
-21889.12
-20401.931
-18820.146
-17166.737
-15470.348
-13763.508
-12076.263
-10467.66
-29692.544
-28804.147
-28235.958
-27412.831
-26526.738
-25509.284
-24370.436
-23105.683
-21719.733
-20222.4
-18630.427
-16967.305
-15262.278
-13548.263
-11858.659
-10246.95
-27893.881
-27068.536
-26508.116
-25726.981
-24873.968
-23899.639
-22809.864
-21601.572
-20279.684
-18854.349
-17342.265
-15766.555
-14155.643
-12540.734
-10952.201
-9419.6454
-24419.507
-23685.048
-23157.423
-22457.689
-21683.564
-20805.04
-19825.686
-18744.3
-17565.85
-16300.173
-14962.664
-13574.078
-12159.248
-10745.063
-9360.6695
-8059.7985
-15956.577
-15454.414
-15028.534
-14509.797
-13935.866
-13289.259
-12572.609
-11787.122
-10936.832
-10029.354
-9076.3485
-8093.5703
-7101.3487
-6128.9831
-5213.317
-4341.3887
-13488.617
-13094.508
-12701.034
-12211.91
-11664.712
-11040.827
-10338.733
-9559.754
-8710.264
-7803.5425
-6860.084
-5906.5119
-4974.9527
-4105.8227
-3333.5329
-2591.0084
-1377.5093
-1310.1711
-1224.396
-1155.0211
-1139.3362
-1188.4392
-1297.0448
-1456.3613
-1654.3571
-1873.1205
-2089.4799
-2277.375
-2410.8427
-2468.5265
-2445.7555
-2331.3886
-1813.3627
-1778.1289
-1764.2298
-1754.0511
-1726.611
-1698.2648
-1699.7953
-1742.4514
-1809.7013
-1881.4733
-1944.8115
-1984.3429
-1981.448
-1921.8608
-1807.8752
-1648.2821
-1947.449
-1915.5174
-1892.4216
-1871.1134
-1859.8219
-1860.5401
-1844.7554
-1786.5287
-1704.8821
-1645.6208
-1617.6172
-1568.1732
-1454.1373
-1265.1492
-1018.5131
-730.61507
-2052.4842
-2027.7452
-2008.3802
-1992.5745
-1980.7205
-1974.8292
-1983.3214
-2024.2131
-2106.0051
-2181.8562
-2157.5319
-1972.7717
-1540.6346
-1016.805
-496.60534
-6.2318712
-1476.8359
-1475.3213
-1481.9201
-1498.5426
-1526.5533
-1567.5232
-1622.7525
-1693.0943
-1780.5699
-1892.8322
-1966.5599
-1834.8295
-1333.8474
-665.88764
27.684595
704.71424
-343.42433
-356.9684
-380.55364
-415.2684
-462.51288
-523.2198
-597.39593
-685.60804
-793.31094
-924.36759
-1029.4148
-928.52796
-577.8325
-22.902354
611.63715
1236.0613
-335.92401
-349.67214
-373.69015
-409.12409
-457.44311
-519.62977
-595.72131
-686.20156
-795.60359
-924.27179
-1017.4149
-901.61189
-538.83914
5.6706396
595.98099
1203.4631
-1490.5284
-1489.1946
-1496.0869
-1513.0906
-1541.5473
-1582.9904
-1638.7994
-1710.1755
-1798.0156
-1901.8016
-1947.73
-1786.264
-1279.6469
-608.55073
88.34577
764.38878
-2077.4939
-2052.6225
-2033.172
-2017.332
-2005.552
-1999.9171
-2008.9349
-2050.7857
-2132.858
-2202.3295
-2161.7776
-1955.4387
-1512.9788
-976.80899
-437.56725
87.849573
-1974.1134
-1941.9116
-1918.6867
-1897.3676
-1886.1784
-1887.1898
-1871.9481
-1814.3057
-1733.0097
-1672.3257
-1637.2389
-1576.1203
-1448.5214
-1245.6624
-986.71421
-686.63402
-1831.384
-1795.9606
-1781.9749
-1771.8233
-1744.3092
-1715.646
-1716.6484
-1758.5224
-1824.3521
-1893.8058
-1953.6123
-1988.3366
-1979.8564
-1914.845
-1798.4339
-1619.1609
-1388.3606
-1321.1185
-1235.4012
-1166.0399
-1150.2929
-1199.2029
-1307.4405
-1466.1804
-1663.3507
-1880.974
-2095.7804
-2281.6281
-2412.6173
-2468.2203
-2448.0093
-2325.3068
-6381.4327
-7924.3807
-7479.2742
-7074.9317
-6600.054
-6069.8401
-5492.6014
-4874.8344
-4229.0196
-3572.2087
-2923.8609
-2307.4371
-1755.3273
-1278.817
-774.31026
-6404.3987
-7940.4521
-7496.6703
-7092.1492
-6616.964
-6086.2813
-5508.3123
-4889.4533
-4242.1872
-3583.6739
-2933.7211
-2316.1151
-1762.4877
-1280.0731
-783.63684
-3689.6882
-5169.3312
-5163.5514
-4991.0743
-4899.5315
-4832.8607
-4756.1882
-4663.2443
-4552.5374
-4420.7803
-4262.3711
-4069.1578
-3833.6541
-3556.099
-3086.2364
-3675.4387
-5156.7095
-5150.0993
-4977.72
-4886.5881
-4820.5344
-4744.7995
-4653.2031
-4544.3305
-4415.0033
-4259.7661
-4070.7315
-3839.4531
-3570.4415
-3191.8545
-4470.3009
-4503.6626
-3945.298
-3925.4359
-342.19141
-841.89118
2371.4309
-803.70017
-1448.4086
71.214795
206.90568
446.20529
442.72209
-468.41431
-606.96218
-22.052525
1437.2554
-1416.3566
290.43982
-1879.8421
-528.23418
-2456.9611
-1638.6323
-1828.8301
-1749.797
1497.4185
493.41312
592.61703
940.52142
23.009243
-513.52969
-1864.6595
-972.23231
-3261.275
43.719462
-299.51208
-909.90468
-1372.5717
1227.5255
-755.65129
25.112815
1140.2993
-830.97001
-588.13348
746.62113
-14.376732
431.29807
-3171.1739
427.62703
2982.683
-350.44154
839.26163
354.74469
348.57447
-4071.8726
5206.2902
1515.6042
-672.22494
-3819.264
-1196.0031
-726.55231
209.39929
583.06517
-508.14383
-446.36157
348.16072
328.28781
-505.27596
-4411.2696
-431.30829
34.067712
-333.95554
-836.72912
-368.88284
165.59068
-1555.3906
240.62858
-45.14712
-47.701943
505.67382
-770.88271
144.92385
-98.724348
-56.36243
-303.37737
-3218.0784
-3463.4467
-444.61771
-655.32388
-1030.4519
555.79038
-6.0721389
-3650.273
-44.453254
-619.89597
8.2657718
3331.9351
-1091.3548
988.18853
1236.7795
-6.2674365
2668.8283
-3935.538
1347.35
-38.520595
-678.78621
4.8493297
19.208294
-655.4232
-1535.0362
-837.72649
-35.563961
-824.5335
-3358.2089
-4519.7287
1743.5519
-891.32783
641.14121
-2026.0536
-87.118863
2015.1486
75.247325
-47.134982
1826.7297
1711.0797
-860.22372
1161.7215
-876.88566
-2566.7171
1080.7598
-325.39079
-3306.152
-888.60914
1523.1169
-1016.1098
564.68897
-39.465638
-47.498256
-13.167308
-1097.0681
2761.3194
-4.2612065
-4055.1386
-595.72902
961.34203
-704.73504
-1541.9625
-497.14805
-8.2972459
-4.2248244
-561.91797
-828.20695
-249.37315
291.65305
277.68717
-483.29448
136.77391
1990.6939
-82.582676
845.53722
-3541.7628
-340.76342
-108.40718
-0.19758032
-8376.3768
-8356.6118
1075.9124
1571.9926
-261.39498
-53.289479
-255.92802
276.63283
-1866.064
-27.804208
-1741.8569
3136.2254
125.34428
-36.83605
-433.89973
1059.382
-151.65268
-38.236363
-536.39377
-347.41146
353.98756
-1708.6911
-1349.98
232.43965
206.16207
475.04271
1012.9883
-31.66978
230.9847
-781.16356
-57.638742
-26.89191
-2090.993
1427.3246
-417.10234
627.9733
-23.712545
112.60023
207.01398
3504.4843
343.7643
168.61738
-2453.8462
-157.57576
1593.4221
607.92095
1325.1356
-103.43277
1975.5012
-9.2143221
-489.30834
-348.53947
-190.1576
156.1042
-52.371999
55.273457
-48.464269
862.55379
1170.7492
491.89822
-740.00386
-922.41734
-87.494422
-26.997216
-615.86783
1658.387
1645.9209
-19.886988
-1102.1949
556.34396
1685.3747
2360.2088
-64.807868
-1261.3314
-2302.8192
262.89573
-175.16247
940.11795
-715.47578
-52.75695
57.536435
32.131285
247.65777
-1305.1788
2252.0403
-371.37035
-1286.7178
606.57833
46.398793
-1354.0986
382.25316
3258.1094
-1.2142723
11.67874
-1387.1408
5.423818
1379.4559
182.70752
-42.855938
-640.42551
-786.71569
-19.153063
-65.621942
-89.639429
-435.40909
-251.6742
43.334685
-933.25946
-39.773293
-565.95301
37.573876
-472.66448
-181.80976
1420.4614
-1984.6916
-134.11557
2054.5734
1639.978
-276.29159
32.479603
-203.36186
-116.00401
119.68955
-3006.3864
891.36573
-1756.4851
-15.669281
-290.44071
189.07117
-234.16337
343.90864
918.50202
-2920.6692
19.59861
2082.0632
-879.27685
150.37536
974.56629
238.83855
-888.36222
67.502917
-2238.9265
-1564.1822
2412.2666
3243.9634
-955.42676
200.95575
-127.32519
-577.64027
1101.7081
-2329.1902
-820.41653
-22.434498
-894.02191
-240.73877
-62.679744
103.86512
57.89968
3932.0995
-895.43763
-2509.6676
1285.4007
40.006607
-37.287072
79.055724
-392.3045
-2618.8906
43.012271
-15.110024
-9.8047143
5165.2775
-239.13154
-296.92432
788.01792
-1005.1289
-2347.0072
-528.39572
-13.452295
-73.367171
18.942353
-3172.0076
-995.78165
-21.124014
1828.4478
-2.6247212
11.790464
-3058.2379
53.403954
-1557.9059
27.101563
-13.738795
-4395.0425
526.25725
263.44267
-546.25198
-3117.8616
-902.10786
-86.969377
-2256.9251
530.98849
201.36337
706.75505
-16.277871
-4008.5348
2602.3357
1208.81
148.14398
-3073.5365
4.2064299
1468.5957
-3031.7038
-3630.0419
3441.2499
-77.045377
223.67775
268.4501
561.45423
-1256.8087
-3538.7068
138.60475
-1130.2018
1528.6673
1207.8473
-398.72014
-1232.4278
-277.5984
-624.36646
-4.2923458
189.48578
-4780.1798
-34.47287
267.34267
-4679.039
-46.320158
128.00806
-648.29806
-187.79555
530.91231
4747.7156
-926.29932
36.84613
-1386.625
42.374478
-2419.855
775.0055
-1132.6566
-501.2286
-194.38996
643.1835
-62.222264
-277.16791
639.13315
-42.951428
-326.61447
-211.61746
261.06543
289.09575
-10.600655
-708.63927
-26.275486
-976.50225
-135.70406
-503.5174
524.00416
1598.8138
2445.7387
-2529.374
-22.96238
1312.9144
23.51698
324.01903
288.08076
-822.3374
-874.42393
1397.2611
168.44667
4.989297
-2352.3993
-2284.1093
-432.01689
-3488.2841
-1904.8081
-621.0024
-15.290207
-2577.2276
-972.71892
-50.216886
-47.05881
-534.61619
788.71812
-53.909668
-1763.0813
-2504.27
-9.4461705
-1300.6225
63.385783
-853.61216
-200.83456
3.2292977
324.75112
351.28937
1799.8748
157.76428
-667.64216
221.25617
659.9123
546.73691
1049.8885
1362.6251
-872.12192
669.0428
-83.29406
2214.9483
-288.65309
-226.63211
-827.57959
-66.058143
-52.460832
5347.1339
-133.94957
-838.25673
-2187.2285
-1146.8233
-18.558901
-1688.4894
-3515.1905
-25.665579
903.02833
502.46391
-4130.4368
870.37805
18.391
-1331.4082
-757.38673
-3420.0847
-745.88684
-147.96725
166.95256
4.3863397
-408.89118
286.41757
-204.7581
2331.8102
267.28275
243.23769
-1191.5018
-8038.9234
-656.41949
-5.0530708
1061.6506
-1.940229
-109.4909
-936.16618
-538.10547
-2185.2903
-8018.8531
-164.74901
570.46509
-38.47598
684.43465
-72.660026
-620.67648
308.96002
-171.7611
-4034.9517
-450.73301
-2379.2484
207.70785
-3245.0801
1608.4062
301.27371
-3539.6746
1536.8504
111.28935
-4554.674
1472.3361
383.48391
386.42613
624.92512
559.17628
-7409.1143
-1225.8182
-2670.9073
-54.592396
-2587.0089
1483.0381
709.16369
701.79642
200.07715
-1046.727
-613.29695
-1.6095791
-23.613969
1403.0181
-2158.6825
-765.34297
11.083565
-7416.4179
2373.6114
-2658.9768
-1130.3831
-173.83203
-3252.3716
-2074.647
-83.155846
-4791.2849
-984.73477
-392.07393
578.72293
612.17666
-606.88213
-2244.5079
-3079.4355
1499.5324
2291.3344
2153.787
416.63802
-124.85577
681.18078
1325.8693
2419.2945
1012.1521
3257.0204
-19.698708
533.33547
1027.9997
49.556986
-578.23219
-8.8090925
861.2905
1623.8775
466.59678
-4754.8277
557.17912
-261.0386
5338.2582
793.44544
-17.381364
5108.514
1528.5665
-762.14546
-789.38462
1250.427
5079.5209
-1955.4056
-303.09851
1219.8855
-176.40103
2978.391
1234.0567
1336.5358
-881.87486
5.3240755
1519.6941
1362.8821
5324.8805
384.32466
-41.195033
570.22568
-1268.9703
-1129.4487
-883.55651
-4126.1394
5298.3128
-616.12984
-27.635558
-582.90111
2472.4504
2015.702
-2209.2399
-2151.9843
30.544405
1231.2511
-2475.4103
-4023.6928
-1183.1508
-1878.8534
299.34407
289.71682
-268.02924
-518.64248
-218.41888
289.94237
-601.5624
-1627.0602
849.34376
-799.50487
-311.981
-2564.3287
4359.0123
-1846.2281
317.30444
-21.520329
73.020104
566.18107
-679.57829
5002.0906
-627.67746
-10.150011
892.98764
-53.842612
-3960.4868
-60.024605
-1117.2274
2.6131086
-572.4645
101.22777
-2659.3036
2263.8247
-2537.0816
30.833135
473.18224
-1691.0576
1766.0314
-80.404943
2400.579
-514.02873
6329.1803
-238.15753
-420.6606
-3878.5667
3823.4328
-2723.237
-12.085191
-28.020252
124.03193
41.650451
-3649.8399
695.07867
577.61209
356.92274
-6928.2137
-10.878122
651.32201
-38.730976
-6937.6457
391.04945
21.3358
-1909.7815
-62.338701
111.37976
1386.1506
-1015.4219
-5132.5459
434.93731
-442.12583
7.6752623
11.987333
-847.16572
-1165.8561
507.69322
-222.36028
766.35162
-499.38875
2212.857
-5132.0842
-288.64132
-619.54049
-5021.4944
636.99271
1405.0381
11.572674
-1017.9061
-53.293974
1294.6216
1074.2441
-1342.4055
286.05875
-4.6282481
-688.26853
581.10555
1689.5555
574.45528
-277.89426
1362.3921
26.475651
-5006.3433
927.79431
-170.92084
-1542.9394
-188.75934
-428.79505
-893.03499
-76.241551
-488.11946
-992.76328
91.888505
-15.677811
-1826.6558
-854.38819
-779.93077
-705.90967
-291.55765
-3179.6157
-1969.9661
-1915.345
495.65745
-1864.9231
2503.968
119.07373
424.32219
-860.41974
465.78069
-2939.8774
69.715908
-1539.9372
-3242.3812
-935.10357
-194.51799
-1688.9477
-679.6085
-441.61422
42.752399
-852.2911
1219.8575
-261.64659
1.7180416
603.69391
1279.1202
-1070.508
2389.3048
-1418.6862
7476.7675
950.57209
-1451.4733
-529.59845
10.508511
370.97985
1678.0996
-815.44366
-15.910541
-74.686265
122.54541
533.82784
-270.40074
-12.400186
-120.31939
-12.175673
2314.5531
-32.468669
1107.9955
1628.2656
1398.3723
1280.5697
1045.0787
529.48403
-31.882032
509.93472
-848.10567
-417.2337
3.791845
45.286066
2450.7973
-1155.5526
-2322.7569
245.03464
1449.5145
-428.52181
1580.2954
694.0737
-692.56525
3017.2185
53.409603
-183.61527
-386.80689
8.696101
-1.449138
-275.65109
89.124185
5260.3228
-138.89569
-401.87504
954.5081
87.03711
128.93583
17.443384
-73.197891
1499.3622
-646.33092
-494.59672
-138.91789
753.99033
109.22269
366.88411
-273.38428
-22.881473
-51.768802
377.11925
1184.4505
484.9386
-1114.2584
10.818454
-27.584567
-1781.0241
464.45654
-188.23356
-396.60966
4889.9112
-1030.3553
4867.389
-2382.9158
-1162.5655
164.68954
-629.01513
642.05899
-31.192623
1931.2117
-5.8872225
1225.4326
-275.88428
-1115.8747
-1364.8305
-4747.9006
420.94931
-31.219173
-587.48464
1423.3079
-899.36884
1437.522
-872.22387
-278.99639
1170.0076
555.8874
-76.38082
268.29899
-176.23867
-4658.4452
129.85921
7339.6463
-3584.9626
-1077.1193
38.912118
4247.7097
600.21251
-5138.2425
-780.83047
-8.5133262
-429.00045
-911.40729
-4430.5957
-448.11553
567.53868
-4349.4547
-810.79133
869.12477
35.897574
-225.22369
-414.9802
-26.898698
77.824606
1.8654032
596.29191
117.06926
-5.3872576
-437.33642
1620.3601
1020.7724
2455.6317
1328.3439
-2365.4893
-3488.1371
25.544211
-1358.154
107.88567
-4525.3065
-1967.2799
-795.45085
-666.71182
-1384.8043
1403.9652
-826.33871
16.1191
-930.16302
-167.99061
1383.4906
-359.02412
110.0333
40.566626
-4652.3001
-741.8478
43.2295
-22.928657
15.882492
746.14623
403.91529
6595.6376
-6.782912
-3.491142
-52.568189
-341.61042
-4329.258
-2425.019
-1135.8868
-1342.2482
-1097.0894
2329.6886
3819.5222
-4045.7479
-15.336275
1703.5039
-4796.8576
-458.74179
434.45926
-3459.3898
-3742.4719
816.42846
68.66214
613.40307
-24.742619
-316.82435
-1358.1151
1363.1921
2964.7565
-3414.632
167.39133
3322.065
-69.936274
378.83215
-287.22398
2031.1368
-348.1338
-343.89304
82.363829
-9.1169328
-186.26242
-2422.4129
6024.9627
-2868.1567
-2557.1952
-141.22999
-2413.5615
3817.2894
-2328.1842
1460.3041
-1111.2246
-2011.2112
-32.421098
166.628
335.60902
-1238.6743
72.801061
-3337.8191
432.29994
1091.4418
2745.2551
-1558.733
-1656.6175
1399.2288
-395.39661
89.14453
-190.7784
-4902.8995
-2977.5043
-594.5969
-445.19195
-1006.112
-61.37819
602.94932
1653.3327
662.32583
-3274.925
-65.231884
-1861.5804
-129.66021
47.392683
2827.4677
1545.8756
-77.006518
1381.5423
-603.91414
1677.1387
156.48161
-378.56764
826.92073
3683.5935
-8809.4888
1063.5561
-115.43805
-2520.5546
3.6480587
-8785.3826
-59.409707
971.55193
-1599.9112
-31.572479
757.55682
-408.01399
271.41547
-3594.3899
-5206.417
-188.00459
-74.712595
125.54652
-257.62545
2344.948
-2751.6242
-2414.8429
1469.1267
-35.317051
-2995.4829
103.44878
551.11047
972.3779
-2696.671
208.11366
221.05191
-713.38588
-407.26127
-1683.6483
-16.307874
55.620392
-4265.1046
105.69175
79.009
-771.28243
-283.23301
-5998.7848
-220.18118
4565.8791
-5916.1498
2255.4465
-2678.5792
-115.09258
1686.489
-154.83391
-708.97527
-8037.6335
-942.10666
6004.6452
90.046678
-4163.1133
-2493.6757
669.04344
-8002.605
481.94294
-62.656789
2587.1641
62.467233
232.06046
-102.61665
1883.5792
-765.60207
-29.420217
-225.25332
-3189.8477
21.754398
401.91614
-937.15783
-656.14878
96.236641
-34.544397
719.21665
7526.0693
-62.002914
1795.3523
-1391.0322
1088.1596
475.35689
386.97561
4688.0164
-146.74908
1461.533
2011.7456
-1333.552
1621.2708
-3975.992
-891.03827
4.988566
349.978
-235.96586
3.1849621
-537.88364
264.29462
217.77115
-2083.1064
6588.4869
-2233.8501
1277.6595
-3879.2932
1097.1883
825.87198
-1088.6241
3026.7391
1511.511
520.47819
851.14319
-264.43333
-89.417216
393.10941
-491.59896
-250.36675
-6900.7401
-6860.2358
-134.95672
-533.75241
-225.08608
-28.588161
-891.18322
-112.69249
-173.59519
-2597.1626
-86.647899
-837.66567
-1172.4282
-2.918312
-831.68038
500.79721
-546.20926
-14.766846
451.3384
-8592.6282
1740.1002
7.7247856
-830.18647
1536.15
-1379.9754
-8568.0169
-106.08661
19.717342
-1772.2141
854.14297
-243.76381
-6988.3899
-3.3168468
2380.7384
-916.29493
105.43307
-16.29603
-404.06343
-6910.6204
1487.2844
42.990981
-1938.1089
-8.9362654
-926.52026
-3513.6302
1136.3915
1099.8514
-97.783426
882.62696
-168.90423
-1904.6262
-3416.8383
122.54713
-395.22968
-779.09974
-1501.1663
-105.18693
7031.3373
-73.908937
3827.4004
111.91648
4302.3908
-2004.1577
-1842.5856
-201.0156
479.04396
486.36199
1878.5283
-1020.1877
17.266451
2189.0836
929.2747
-114.63331
-701.9519
-118.23729
1667.0009
732.38947
-22.988496
104.59458
-218.22349
-529.61402
-265.93494
526.62424
596.26737
-742.28222
219.76211
-4345.2885
757.43031
970.98855
243.3065
-596.50657
18.58104
-32.781337
4702.6766
-335.593
-536.23167
-55.65699
1797.2022
2920.1831
-3245.111
-398.25334
-111.92947
1860.1944
6203.3471
-61.408565
99.604142
874.97884
-187.62884
-2.4809554
0.56493792
-897.28879
1487.4679
0.8036546
-674.0808
-1481.9592
495.8367
-4.9855445
-892.78152
-243.8431
-61.990776
-92.124401
-1784.3389
-518.48778
-4690.8592
-1743.8587
0.14722769
-47.995448
-454.84931
1701.1068
1338.1745
762.97211
-2271.2936
-1.0621856
1101.8023
-1770.9626
-4585.9456
909.58575
3.457937
896.42886
98.62338
-3867.5948
-5133.0649
71.770085
1160.495
1171.751
-154.92017
-2667.5541
22.598248
-466.73194
279.98015
2004.4591
-1859.2664
1249.7221
2028.8895
-54.902517
3588.8583
6160.3125
745.03617
92.977329
-2756.4441
1315.6583
-1857.0131
2261.4849
361.02055
-2200.4668
433.38722
3093.1274
2392.4931
-5.5988859
-4.2668356
-4454.0159
-90.037005
2276.7557
185.45399
158.50381
-5035.4182
115.37552
395.8837
2397.4101
-5744.8002
-1460.3467
-2647.5005
-2064.0232
3651.8432
1.4295938
86.47803
-916.49017
1113.0057
-618.80602
-1.3250454
-6188.4816
-78.895868
-97.109451
-6123.2544
81.078156
-6231.8637
-119.39004
171.87204
-377.59218
3.1691889
577.9925
1599.4956
99.594987
1.722865
-834.51285
-96.00358
-874.13198
408.64224
-207.7458
441.11654
734.2868
-4350.4954
-6140.401
-3003.7139
40.883358
-32.310171
2.5579407
79.48191
8.2251953
647.76202
138.83378
-14.901662
971.52072
1967.7755
-781.96792
3121.0634
-637.6406
-156.63614
-3981.7328
1053.6492
-7862.9155
1790.2572
-55.905277
-278.59794
302.17645
-865.20469
-871.37083
-5233.3409
-220.04373
670.45683
-118.88414
1295.3732
-43.953571
64.844937
-36.093949
-22.44344
2087.0072
-253.98066
-660.33123
-551.95261
771.35708
-1018.7574
-409.15067
-52.107344
-71.368844
-321.56105
4840.1229
-810.30511
-24.905337
-788.26848
1543.2786
-1260.8187
-2010.5567
883.84597
1002.5828
-7903.0126
-58.756413
-29.710041
1180.2845
-82.609928
499.90448
-143.71594
-974.19466
4.6621255
1406.6282
549.99899
5123.9306
-3372.2556
42.985435
383.43721
-5391.13
-5389.1114
4931.2501
1303.7089
116.20073
-1338.7041
-203.32684
-72.727444
1948.718
-8.6710753
1391.0538
2807.5907
-52.643002
-2918.2464
2388.6499
-926.8642
50.868892
-124.98471
495.16361
1207.4722
-622.94144
-29.121732
128.59841
132.27732
-1990.9576
-3294.9887
-13.30864
-146.65529
-3088.4616
576.13837
-31.450931
-257.00988
1326.5853
-2087.2989
-31.219999
-554.7336
-29.814201
-95.491437
231.27358
-1270.2566
-5583.6596
257.50525
6470.325
1743.251
216.20549
195.82223
1299.636
19.364639
-4036.0626
113.93041
-4136.5834
457.87047
455.41089
-2820.4748
-1363.9464
-983.75324
791.28816
-3595.3157
-871.05473
4727.6039
3474.8539
-376.88926
7098.9223
874.4306
-4591.1213
-38.819533
-5784.266
6051.4969
276.82282
-5488.552
-4684.6067
-130.51921
-45.312709
-50.409413
1651.4589
5644.1464
-468.15097
-1430.2994
273.30242
502.60297
-1362.3044
522.38485
-209.15123
6.857386
-665.65147
-82.696678
-495.83045
-3661.5863
321.1075
-769.72681
-352.92788
-165.62553
-6004.1281
63.396115
-888.16443
-4484.0346
492.97554
1296.7144
-5973.4162
-193.66188
-1040.0305
-8.6905122
1598.2338
1357.2525
-1838.4836
733.34746
6398.6021
1197.2973
-537.80634
498.63304
-90.160279
1059.4733
4304.15
-241.20004
-255.36461
-729.54323
-6039.9802
-969.08836
1028.2554
53.122378
-33.443239
166.51217
-1063.2086
391.75295
3808.9861
-2541.3034
-1529.4231
-63.45246
411.05461
-58.215563
-72.141897
-87.265265
-6575.0436
1500.3704
604.41131
2085.1507
-6491.5546
-217.35909
2173.2447
-2557.011
-2843.3324
631.89935
-2357.9021
-694.17153
-6012.9259
-7815.5142
-7793.0583
2854.8876
-4.5617653
-3103.7731
-1447.8432
-65.222188
206.96086
-639.24421
-212.02222
-1931.6312
15.530618
-1987.706
-890.823
42.983953
-2342.6341
238.0081
1914.1274
-743.60907
1619.441
-1166.4236
-716.6407
1715.7152
-423.54966
-6799.7
950.20875
-458.16753
-2098.2897
-185.37383
-871.6191
192.09453
-138.51327
114.50604
85.898637
2031.0434
-10.786443
-897.66645
538.03531
25.41515
-215.58413
-296.44166
-2788.3047
3026.7612
-73.400253
162.4985
-628.06464
-27.589214
-8.3303644
-186.77766
6427.8477
46.677014
-1496.7416
-5290.5636
4379.1944
-1184.3667
-527.284
-83.658806
754.01631
2772.097
-175.24665
-1634.7859
-1994.6152
1490.8028
418.54247
1046.5409
-20.569542
-16.380908
1684.3891
-288.42114
-464.66149
-1690.8516
-2005.0376
23.887283
-1895.4805
4526.2435
-158.71072
-37.577169
-792.43691
-338.98422
-1071.7003
-8.4126133
-473.37495
1125.6732
183.10811
-5190.6911
-6917.1947
-1157.6574
-297.91739
-5349.2173
5992.4402
-855.47076
-865.40688
146.67805
132.69126
-929.79561
84.511386
-1864.1277
1158.3082
-1.3180157
-129.30042
1044.0511
-59.786781
1335.4344
1178.8295
1020.9153
-1130.8929
-11.473506
1064.7877
-2161.6015
453.98205
-975.39532
-147.98184
1325.1364
-8.0456041
3.8915458
856.91459
-61.992736
284.07627
-6854.9818
749.13165
383.0019
-2706.4669
-436.91792
40.739846
-427.91978
593.88397
-184.57501
-863.92507
1008.2128
-290.81269
-586.53007
2222.4373
-18.149736
-14.478084
5570.7607
2705.5597
-1123.4238
-156.09487
-1289.9464
-536.26008
470.25495
1177.9806
-411.46397
-1302.7854
17.433472
-44.794855
-1261.7744
1597.8207
-935.39248
-121.37313
1384.86
-892.05219
43.319109
-6.1279049
-4053.1478
-743.34199
69.38407
-4157.7661
-1180.3323
1118.7708
5940.1451
3.9811652
-13.012058
59.678405
-3294.5171
-20.965387
68.590082
21.850107
-32.037161
-49.660273
-5416.2404
-1143.1218
74.474501
84.942743
-927.88995
-1528.8402
-6832.9713
3045.8358
8.671312
1425.2176
-343.03597
1904.7779
1910.6202
-1310.545
-5312.9656
1609.7159
-1111.4506
-1485.8061
544.23049
1631.8294
729.19023
946.25655
-394.96745
-1921.2532
1700.5228
-224.9232
51.449411
-4.0119216
668.22262
161.78495
-15.294424
1115.1072
-92.203316
1186.5657
-45.235692
-77.230234
209.19976
690.63913
-892.2666
-8.8558867
30.033937
-282.13631
-2135.0894
-1.6821232
-2210.3528
-72.145182
-137.07417
544.6026
-176.97108
3883.5972
831.30424
-294.76477
1573.5937
166.174
3205.3781
741.16151
-1172.5781
-670.17543
-2860.4088
-50.688886
-181.20213
75.871522
-2295.7609
-3645.0552
-336.16178
-165.95819
-41.195388
-75.715655
3707.7328
956.73843
-45.783098
-4410.5807
190.1147
-200.33274
-1947.3536
212.4263
3676.1099
1249.003
-802.85791
129.5434
-6002.3306
-61.839008
-805.17727
2.5899524
-13.198249
-77.77987
-354.07398
101.10603
555.52099
-617.7366
838.82974
1213.4282
137.87158
114.69128
41.268555
-2798.9088
-340.23419
-4328.0172
2297.2036
329.47191
-1140.1618
-88.155795
2079.2107
-1853.7735
-7.4945898
-1120.5286
-177.20092
-96.791213
5.4394217
-180.82046
-1568.4163
39.052934
-5961.4747
-199.84238
220.62119
273.23904
-203.18505
-1007.8338
-568.56929
69.757498
-738.05015
2090.9347
-786.01506
-2040.4018
4036.1573
-13.68501
-1225.4606
792.32056
-158.13024
-638.1528
1293.7823
-966.15115
1770.7197
-5527.7764
-2865.9959
-921.86011
-259.42089
-175.86317
-103.35854
479.80571
22.81641
-3535.9248
-1241.7928
-101.62372
93.15963
138.67702
787.72376
438.73292
5404.4006
49.494649
838.6534
-43.020274
-1242.7236
-2722.5618
-699.59046
-218.89536
-864.92761
37.500459
1721.686
-703.19173
-154.47793
-706.6763
-13.013785
-349.92369
42.064122
-792.07374
444.89476
-1265.5937
1390.7515
-46.347967
1420.4251
-517.27437
-717.33224
-20.674334
13.99924
1148.5701
2033.1889
-21.718725
262.88237
-6502.7678
1111.0719
-39.81547
-197.94041
553.47069
-2548.1097
62.352267
42.194127
4016.2537
-50.844541
-1433.5756
507.78763
-3566.1645