/*--------------------------------*- C++ -*----------------------------------*\
| =========                 |                                                 |
| \\      /  F ield         | foam-extend: Open Source CFD                    |
|  \\    /   O peration     | Version:     4.1                                |
|   \\  /    A nd           | Web:         http://www.foam-extend.org         |
|    \\/     M anipulation  |                                                 |
\*---------------------------------------------------------------------------*/
FoamFile
{
    version     2.0;
    format      ascii;
    class       surfaceScalarField;
    location    "0.8";
    object      phi;
}
// * * * * * * * * * * * * * * * * * * * * * * * * * * * * * * * * * * * * * //

dimensions      [0 3 -1 0 0 0 0];

internalField   nonuniform List<scalar> 
6703
(
-0.0042206342
0.021918037
-0.017697403
-0.007997588
0.026981102
-0.023204148
-0.01157923
0.032388974
-0.028807332
-0.01577441
0.038476319
-0.03428114
-0.020592857
0.04560852
-0.040790074
-0.026098266
0.053961664
-0.048456254
-0.032357449
0.063718374
-0.057459192
-0.039441245
0.075088366
-0.068004569
-0.047434291
0.088302249
-0.080309203
-0.056440344
0.10361744
-0.094611383
-0.066585513
0.1213252
-0.11118003
-0.078020444
0.14176116
-0.13032623
-0.090921005
0.16532961
-0.15242905
-0.10550364
0.19255763
-0.17797499
-0.1220269
0.22418726
-0.207664
0.26122083
-0.24278381
-0.14046392
-0.0030621071
0.024980143
-0.0061274757
0.03004647
-0.0091442324
0.035405731
-0.01270258
0.042034667
-0.016855079
0.049761019
-0.02171749
0.058824075
-0.027408762
0.069409646
-0.03405866
0.081738264
-0.041813306
0.096056895
-0.050840445
0.11264457
-0.06133847
0.13182323
-0.073550418
0.15397311
-0.087778752
0.17955795
-0.1043848
0.20916368
-0.12373761
0.24354007
0.28355506
-0.14607184
-0.0011490465
0.026129189
-0.0029825544
0.031879977
-0.005088201
0.037511377
-0.007614267
0.044560733
-0.010610558
0.05275731
-0.014167865
0.062381382
-0.018381424
0.073623204
-0.023362238
0.086719078
-0.02923717
0.10193183
-0.036150818
0.11955822
-0.044268655
0.13994107
-0.053783014
0.16348747
-0.064923076
0.19069801
-0.077964123
0.22220473
-0.093210483
0.25878643
0.30131312
-0.11096854
-0.00043487051
0.026564059
-0.0016067084
0.033051815
-0.0028433735
0.038748041
-0.0043745552
0.046091914
-0.0062078674
0.054590623
-0.0084126993
0.064586214
-0.011054649
0.076265153
-0.01421359
0.089878019
-0.017981542
0.10569978
-0.022464547
0.12404123
-0.027784416
0.14526094
-0.03408023
0.16978328
-0.041508462
0.19812624
-0.050236716
0.23093298
-0.060408166
0.26895788
0.31284959
-0.071944638
0.00020323433
0.026360825
-0.00038177653
0.033636826
-0.00083011626
0.039196381
-0.0014485045
0.046710302
-0.0021825153
0.055324633
-0.0030792169
0.065482915
-0.0041687025
0.077354639
-0.0054945432
0.09120386
-0.00710785
0.10731309
-0.0090700128
0.12600339
-0.011454012
0.14764493
-0.014345731
0.172675
-0.017844398
0.20162491
-0.022060619
0.2351492
-0.0271138
0.27401106
0.31916513
-0.033429342
0.00086933339
0.02549149
0.0009454933
0.033560666
0.0012711667
0.038870707
0.0015748523
0.046406617
0.0019450821
0.054954404
0.0023618331
0.065066164
0.0028299207
0.076886551
0.0033441363
0.090689644
0.0038965094
0.10676071
0.0044726706
0.12542723
0.0050506111
0.14706699
0.0055989948
0.17212662
0.006075533
0.20114837
0.0064241425
0.23480059
0.0065989904
0.27383621
0.31921954
0.0065445754
0.0015701557
0.023921334
0.0024133922
0.032717429
0.003521537
0.037762562
0.0047891393
0.045139015
0.0062853162
0.053458227
0.0080338541
0.063317626
0.010069653
0.074850752
0.012427508
0.088331788
0.015142461
0.10404576
0.018247557
0.12232213
0.021772495
0.14354206
0.025742574
0.16815654
0.030179077
0.19671187
0.035097942
0.22988173
0.040522807
0.26841135
0.31338993
0.046352425
0.0022814499
0.021639884
0.0039740224
0.031024857
0.0058557636
0.035880821
0.0080920839
0.042902694
0.010714171
0.05083614
0.013797015
0.060234782
0.017402754
0.071245012
0.021603659
0.084130883
0.026474445
0.099174973
0.032091939
0.11670464
0.038533538
0.13710046
0.045876097
0.16081398
0.054195436
0.18839253
0.063559976
0.22051719
0.074020548
0.25795078
0.30187915
0.085531326
0.0030505343
0.018589351
0.0057464402
0.028328952
0.0084552829
0.033171977
0.011664787
0.039693189
0.015402323
0.047098604
0.019794629
0.055842475
0.024935141
0.0661045
0.030930535
0.078135489
0.037892591
0.092212918
0.045938989
0.10865824
0.055193038
0.12784641
0.065785255
0.15022176
0.077858872
0.17631891
0.091578384
0.20679767
0.10713768
0.24239148
0.28425147
0.12476536
0.0041121468
0.014477206
0.0080273786
0.024413721
0.011761739
0.029437617
0.016020673
0.035434253
0.020891894
0.042227383
0.026554836
0.050179534
0.033148255
0.059511081
0.040815496
0.070468249
0.049704505
0.083323909
0.059970403
0.098392343
0.071777345
0.11603947
0.08530379
0.13669532
0.10075641
0.1608663
0.11840179
0.18915229
0.13862512
0.22216816
0.26068297
0.16219362
0.0044930148
0.0099841969
0.010603709
0.01830303
0.016391515
0.02364981
0.022244153
0.029581613
0.028467201
0.036004333
0.035407341
0.043239394
0.043320939
0.051597483
0.052424439
0.061364749
0.062918946
0.072829402
0.074999217
0.086312072
0.088856764
0.10218192
0.10468478
0.1208673
0.12268756
0.14286352
0.14309322
0.16874663
0.16612612
0.19913525
0.23448593
0.19232317
0.0079267621
0.0020574476
0.015400596
0.010829205
0.021561344
0.017489065
0.027743839
0.023399116
0.034427606
0.029320562
0.041861717
0.035805278
0.05023241
0.043226787
0.059690603
0.051906554
0.070341343
0.062178662
0.082239708
0.074413705
0.095393911
0.089027719
0.1097761
0.10648512
0.12534377
0.12729585
0.14206898
0.15202142
0.15986604
0.1813382
0.21560917
0.1787428
-0.00029232501
-0.017754627
0.018046952
-0.0022598735
-0.021269553
0.023237101
-0.0059021584
-0.025310183
0.028952468
-0.010155771
-0.030080152
0.034333764
-0.015192858
-0.035678436
0.040715523
-0.021138764
-0.042230251
0.048176157
-0.028128898
-0.049873884
0.056864018
-0.036314166
-0.058760572
0.06694584
-0.045842541
-0.069055947
0.078584323
-0.056851783
-0.080941555
0.091950797
-0.069466702
-0.094617922
0.10723284
-0.08379638
-0.11031143
0.12464111
-0.09994185
-0.12828752
0.14443299
-0.11805322
-0.14885953
0.1669709
-0.13851272
-0.17236303
0.19282253
-0.19924964
0.22312531
-0.16238838
-0.0027258158
-0.015028811
-0.0061842648
-0.017811104
-0.010396952
-0.021097496
-0.01549058
-0.024986524
-0.021605097
-0.02956392
-0.028905216
-0.034930132
-0.037581539
-0.04119756
-0.047852364
-0.048489748
-0.059966877
-0.056941434
-0.074208827
-0.066699606
-0.090900369
-0.077926381
-0.11040685
-0.090804946
-0.1331449
-0.10554948
-0.1595847
-0.12241973
-0.19019172
-0.141756
-0.16405224
-0.22538912
-0.0032033915
-0.011825419
-0.0071161573
-0.013898338
-0.011808643
-0.016405011
-0.017417347
-0.019377819
-0.024102671
-0.022878596
-0.032051144
-0.026981659
-0.041477483
-0.03177122
-0.052626731
-0.0373405
-0.06577661
-0.043791554
-0.081240451
-0.051235764
-0.099371494
-0.059795338
-0.12056982
-0.069606619
-0.14529269
-0.080826618
-0.17406961
-0.09364281
-0.20755599
-0.10826963
-0.12488723
-0.246721
-0.0032944947
-0.0085309247
-0.0073902528
-0.0098025796
-0.012358817
-0.011436446
-0.018330259
-0.013406377
-0.025468756
-0.015740099
-0.033968152
-0.018482263
-0.044051818
-0.021687555
-0.055973513
-0.025418805
-0.070018516
-0.029746551
-0.086504985
-0.034749295
-0.10578605
-0.040514273
-0.12825462
-0.047138045
-0.1543546
-0.054726644
-0.18459427
-0.063403138
-0.21949356
-0.073370339
-0.08506623
-0.25931455
-0.0036228864
-0.0049080383
-0.0080246556
-0.0054008104
-0.013292372
-0.0061687303
-0.019583789
-0.0071149603
-0.027085705
-0.0082381832
-0.036012433
-0.0095555339
-0.046607625
-0.011092363
-0.059146254
-0.012880176
-0.073936616
-0.014956189
-0.091322967
-0.017362944
-0.11168857
-0.020148668
-0.13546088
-0.023365734
-0.16311433
-0.027073195
-0.19519292
-0.031324546
-0.23250493
-0.036058332
-0.040872906
-0.27669826
-0.0011487351
0.026139843
-0.024991108
-0.002982462
0.031895458
-0.030061732
-0.0050882237
0.037532197
-0.035426435
-0.0076142962
0.044589624
-0.042063552
-0.010610309
0.052798284
-0.049802271
-0.014166595
0.062438433
-0.058882147
-0.018377676
0.073700083
-0.069489002
-0.023353444
0.086817692
-0.081841924
-0.029219336
0.10204979
-0.096183899
-0.036118608
0.11968569
-0.11278641
-0.044216771
0.14005832
-0.13196015
-0.053709866
0.16356696
-0.15407387
-0.064836426
0.19071627
-0.17958971
-0.077883333
0.22216596
-0.20911905
-0.093151374
0.25874293
-0.24347489
0.30132938
-0.28360679
-0.11087397
-0.0048701596
-3.7878783e-05
-0.010233728
-3.7241896e-05
-0.016365458
-3.7000767e-05
-0.023444331
-3.6086646e-05
-0.031648649
-3.3865555e-05
-0.041174366
-2.9816491e-05
-0.052243216
-2.351408e-05
-0.065108668
-1.4724613e-05
-0.080061277
-3.5801815e-06
-0.097433431
9.2103979e-06
-0.11760432
2.2220169e-05
-0.14100348
3.3431993e-05
-0.16811711
4.0433051e-05
-0.19948121
3.9553685e-05
-0.23556084
2.1295468e-05
-3.626026e-05
-0.27639749
-0.0049670741
0.0049291953
-0.010414196
0.0054098795
-0.016631384
0.0061801877
-0.023800432
0.0071329617
-0.032099578
0.0082652796
-0.041722977
0.0095935828
-0.052888923
0.011142432
-0.065845744
0.012942096
-0.080877219
0.015027895
-0.098307668
0.017439659
-0.11850743
0.020221985
-0.14189632
0.02342232
-0.1689472
0.027091311
-0.20017415
0.031266507
-0.23603418
0.035881321
0.040658801
-0.27672924
-0.0036415066
0.0085707018
-0.0080823746
0.0098507475
-0.01339741
0.011495223
-0.019741278
0.01347683
-0.027298549
0.015822551
-0.036281047
0.018576081
-0.046929323
0.021790707
-0.059514449
0.025527222
-0.074339792
0.029853238
-0.09174324
0.034843107
-0.11209951
0.040578251
-0.13582474
0.047147552
-0.16338127
0.054647843
-0.19530224
0.06318748
-0.23233991
0.072918991
0.084138001
-0.27581911
-0.0032857663
0.011856468
-0.0073732236
0.013938205
-0.012332045
0.016454044
-0.018290191
0.019434976
-0.025409526
0.022941886
-0.033881001
0.027047556
-0.043924203
0.03183391
-0.055787927
0.037390947
-0.069751122
0.043816433
-0.086124343
0.051216328
-0.10525257
0.059706475
-0.127522
0.069416988
-0.15337675
0.080502591
-0.18334775
0.093158476
-0.21802558
0.10759682
0.12386194
-0.25774952
-0.0031823871
0.015038855
-0.0070696525
0.01782547
-0.011730479
0.02111487
-0.017299714
0.025004212
-0.023935793
0.029577964
-0.031822824
0.034934586
-0.041172648
0.041183734
-0.052227157
0.048445455
-0.065261213
0.056850489
-0.080587026
0.066542142
-0.098561616
0.077681065
-0.11959933
0.090454704
-0.14418798
0.10509124
-0.17290941
0.1218799
-0.20657772
0.14126513
0.16423444
-0.24695021
-0.0027139979
0.017752853
-0.0061569819
0.021268454
-0.010349896
0.025307784
-0.01541889
0.030073206
-0.021503454
0.035662528
-0.028768125
0.042199257
-0.037404072
0.049819682
-0.047631774
0.058673157
-0.059705758
0.068924472
-0.073920908
0.080757292
-0.090620518
0.094380675
-0.11020754
0.11004173
-0.1331646
0.1280483
-0.16007734
0.14879264
-0.1915251
0.17271289
0.20014114
-0.2274318
-0.00027561131
0.018028464
-0.0022330071
0.02322585
-0.0058696078
0.028944385
-0.010115855
0.034319453
-0.015145224
0.040691898
-0.021083851
0.048137884
-0.028068512
0.056804343
-0.036252526
0.066857171
-0.045788396
0.078460342
-0.056821043
0.091789939
-0.069485778
0.10704541
-0.083903772
0.12445972
-0.10017942
0.14432395
-0.11842068
0.16703389
-0.13884417
0.19313638
0.22344985
-0.16215288
0.0079287943
-0.0099748063
0.0020459921
0.015407063
-0.018298461
0.010820206
0.021572338
-0.023649771
0.017484476
0.027757783
-0.029585888
0.023400445
0.034443192
-0.036015089
0.029329681
0.041877392
-0.043259146
0.035824943
0.050245857
-0.051629155
0.043260687
0.059698061
-0.061410877
0.051958669
0.07033663
-0.072890511
0.062251939
0.08221285
-0.086384001
0.074507778
0.095329468
-0.10225218
0.089135558
0.10965119
-0.12091108
0.10658936
0.12512465
-0.14284012
0.12736666
0.14169232
-0.1685959
0.15202823
0.15918373
-0.19873242
0.18124101
-0.23379319
0.21473609
0.17824083
0.0044995708
-0.014474368
0.010617942
-0.024416834
0.016413459
-0.029445285
0.022274243
-0.03544668
0.02850629
-0.042247135
0.035456643
-0.050209503
0.043381982
-0.059554496
0.052498697
-0.070527593
0.063007439
-0.083399254
0.075102281
-0.098478843
0.08897479
-0.11612469
0.1048219
-0.13675819
0.12286297
-0.16088119
0.14337143
-0.18910437
0.16670594
-0.22206692
-0.26077627
0.19368901
0.0041177304
-0.018592098
0.0080390441
-0.028338147
0.011779014
-0.033185249
0.016044292
-0.039711959
0.020923111
-0.047125956
0.026595146
-0.055881539
0.033199221
-0.066158572
0.040878352
-0.078206723
0.049779654
-0.092300556
0.060056895
-0.10875608
0.071872711
-0.1279405
0.085405011
-0.15029049
0.10086283
-0.17633901
0.11851708
-0.20675861
0.13874392
-0.24229377
-0.28421701
0.16218466
0.0030536247
-0.021645728
0.0057531074
-0.031037625
0.0084653018
-0.035897444
0.011678946
-0.042925601
0.01542159
-0.0508686
0.019820061
-0.06028001
0.024967717
-0.071306228
0.030970784
-0.084209789
0.037940128
-0.099269899
0.045991976
-0.11680793
0.055248005
-0.13719653
0.065838136
-0.16088062
0.077908627
-0.1884095
0.091633157
-0.22048314
0.10722809
-0.2578887
-0.30194895
0.12496003
0.0022830145
-0.023928741
0.0039771488
-0.032731758
0.0058604658
-0.037780765
0.0080989098
-0.045164044
0.010723737
-0.053493427
0.013809947
-0.06336622
0.017419525
-0.074915805
0.021624287
-0.088414552
0.026498038
-0.10414365
0.032116145
-0.12242604
0.038554191
-0.14363458
0.045887673
-0.16821411
0.054192811
-0.19671464
0.063539693
-0.22983003
0.073981205
-0.26833021
-0.31339716
0.085429415
0.001571085
-0.025499826
0.0024149103
-0.033575583
0.0035238332
-0.038889688
0.0047925597
-0.04643277
0.0062902997
-0.054991167
0.0080408756
-0.065116796
0.010079095
-0.076954025
0.012439457
-0.090774913
0.015156354
-0.10686055
0.018261784
-0.12553147
0.02178416
-0.14715695
0.02574794
-0.17217789
0.030175159
-0.20114186
0.035084792
-0.23473966
0.040510084
-0.2737555
-0.31921834
0.04633127
0.00087019097
-0.026370017
0.00094668148
-0.033652074
0.0012730293
-0.039216035
0.0015776911
-0.046737431
0.0019493436
-0.05536282
0.0023680888
-0.065535541
0.0028387798
-0.077424716
0.0033561667
-0.0912923
0.003912039
-0.10741642
0.0044915497
-0.12611098
0.0050720278
-0.14773743
0.0056216292
-0.17272749
0.0060983696
-0.2016186
0.006448395
-0.23508968
0.006632757
-0.27393986
-0.31915529
0.0065697039
0.00020402564
-0.026574044
-0.00038078627
-0.033067261
-0.00082842735
-0.038768394
-0.0014458112
-0.046120047
-0.0021782923
-0.054630339
-0.0030726899
-0.064641143
-0.0041588519
-0.076338554
-0.005480037
-0.089971114
-0.0070870854
-0.10580937
-0.0090412566
-0.12415681
-0.011415758
-0.14536293
-0.014297227
-0.16984602
-0.017785892
-0.19812993
-0.021991473
-0.2308841
-0.0270264
-0.26890494
-0.31285504
-0.033326647
-0.0004342005
-0.001606003
-0.0028422006
-0.0043726241
-0.0062046788
-0.0084073888
-0.011045859
-0.014199282
-0.017958862
-0.022429983
-0.027734595
-0.034013649
-0.041427314
-0.050145461
-0.060307471
-0.071833126
-0.0030583498
-0.021932758
-0.0061239497
-0.026996132
-0.0091432974
-0.032407088
-0.01270421
-0.038502639
-0.016859542
-0.045646939
-0.021724526
-0.054017163
-0.027417037
-0.063796492
-0.034064905
-0.075194055
-0.041811338
-0.088437465
-0.050820515
-0.10377724
-0.061288524
-0.12149214
-0.073462009
-0.14190038
-0.087660131
-0.16539158
-0.10427775
-0.19250143
-0.12373177
-0.22402087
-0.26099821
-0.14634035
-0.0042161578
-0.017716601
-0.0079973296
-0.02321496
-0.011588363
-0.028816054
-0.015794925
-0.034296077
-0.020627265
-0.040814599
-0.026148652
-0.048495776
-0.032424626
-0.057520518
-0.039523493
-0.068095188
-0.047525878
-0.08043508
-0.056530078
-0.094773037
-0.066657202
-0.11136502
-0.078059029
-0.13049856
-0.090929944
-0.15252067
-0.10553025
-0.17790113
-0.12212903
-0.20742208
-0.24261551
-0.14051173
0.0047701447
-0.0030491214
-0.0017210364
0.015421083
6.576835e-05
-0.010716721
0.027987306
0.0044757336
-0.017041952
0.041294072
0.0093692338
-0.022675992
0.054366432
0.015249698
-0.028322055
0.067074554
0.0217266
-0.03443472
0.079427134
0.028988856
-0.041341436
0.091475781
0.037279468
-0.049328114
0.1033299
0.046829581
-0.0586837
0.11517224
0.057885118
-0.069727465
0.12724611
0.070748879
-0.082822744
0.13984757
0.085779712
-0.098381179
0.153342
0.10336422
-0.11685866
0.16818041
0.12391866
-0.13875707
0.18487972
0.14793673
-0.16463604
0.17596202
-0.19509964
0.20401734
0.0022833717
-0.0053324919
0.008110108
-0.005760967
0.017111331
-0.004525487
0.029223574
-0.0027430076
0.04473855
-0.00026527554
0.061991662
0.0044734885
0.079979613
0.011000907
0.097947913
0.019311167
0.11582405
0.028953443
0.13379552
0.039913642
0.15202592
0.052518476
0.17085369
0.066951943
0.19090953
0.08330838
0.21319963
0.10162856
0.23905221
0.12208414
0.14490427
0.27010996
0.00011565667
-0.0054481483
0.00014738797
-0.0057926982
0.0020139733
-0.006392072
0.006460051
-0.0071890844
0.014373657
-0.0081788793
0.02619533
-0.0073481822
0.042343461
-0.0051472236
0.063115862
-0.0014612341
0.086731767
0.0053375373
0.11111459
0.015530821
0.1348179
0.028815162
0.15808964
0.043680201
0.1816516
0.059746416
0.20672109
0.076559074
0.23464697
0.094158254
0.11255209
0.26699915
0.00034932381
-0.0057974719
0.00070399314
-0.0061473675
0.0011402142
-0.0068282932
0.0016321865
-0.0076810569
0.0021130983
-0.0086597913
0.0045084184
-0.0097435024
0.010249455
-0.010888259
0.020929127
-0.012140906
0.037446074
-0.011179408
0.059676477
-0.0066995796
0.084505752
0.0039858884
0.10471799
0.023467962
0.1297592
0.034705213
0.15818476
0.048133514
0.19053352
0.061809488
0.074639098
0.22844652
-0.00023241331
-0.0055650588
-0.00093714999
-0.0054426308
-0.0020437677
-0.0057216756
-0.0035806919
-0.006144133
-0.0055931173
-0.0066473661
-0.0081353449
-0.007201275
-0.011247472
-0.0077761322
-0.015090602
-0.0082977744
-0.01759043
-0.008679579
-0.015393855
-0.0088961544
-0.0017556476
-0.0096523175
0.020534001
0.0011783155
0.043400785
0.01183843
0.069813376
0.021720924
0.10174544
0.02987743
0.035751381
0.14063315
-0.005547903
-1.7155974e-05
-0.01096393
-2.6603803e-05
-0.016647409
-3.8197092e-05
-0.022739324
-5.2217955e-05
-0.029317693
-6.8997177e-05
-0.036430108
-8.8859871e-05
-0.044094052
-0.0001121884
-0.052252085
-0.00013974121
-0.0607585
-0.00017316434
-0.069440714
-0.00021394054
-0.078829121
-0.00026390823
-0.07738507
-0.00026573446
-0.065326037
-0.00022060286
-0.043872725
0.00026761239
-0.016252512
0.0022572153
0.0088736952
0.010625173
-0.0056021211
0.0055849655
-0.011071678
0.0054429535
-0.016817466
0.0057075909
-0.022984194
0.0061145097
-0.029651271
0.00659808
-0.036863718
0.0071235866
-0.044628744
0.0076528372
-0.052866321
0.0080978357
-0.061393742
0.0083542564
-0.069967542
0.0083598594
-0.078668937
0.0084374864
-0.076929116
-0.0020055567
-0.064844491
-0.012305228
-0.042830421
-0.021746458
-0.010776165
-0.029797041
-0.035239829
0.033337359
-0.00023322344
0.0058181894
-0.00095189153
0.0061616213
-0.0020857661
0.0068414652
-0.0036664963
0.0076952395
-0.0057431176
0.0086747008
-0.0083734711
0.0097539396
-0.011598066
0.010877431
-0.015572119
0.012071889
-0.018136691
0.010918827
-0.015855798
0.0060789661
-0.0025812697
-0.0048370426
0.01907342
-0.023660247
0.042007072
-0.035238881
0.068931158
-0.048670545
0.1015102
-0.062376086
-0.075504428
0.1417748
0.00034546765
0.0054727213
0.00069483018
0.0058122582
0.0011255637
0.006410731
0.0016133885
0.0072074138
0.002092213
0.008195875
0.0044840609
0.0073620903
0.010214758
0.0051467332
0.020863037
0.0014236085
0.037267647
-0.0054857838
0.059201559
-0.015854946
0.083526261
-0.029161746
0.10387394
-0.044007931
0.12865281
-0.060017746
0.15672009
-0.076737824
0.18849108
-0.094147075
-0.11209041
0.22507705
0.00013291412
0.0053398061
0.00017702533
0.0057681458
0.0020572667
0.0045304889
0.0065197813
0.0027448986
0.01445332
0.00026233689
0.026294588
-0.0044791785
0.042459878
-0.011018558
0.063239253
-0.019355767
0.086779303
-0.029025834
0.11094712
-0.040022759
0.134446
-0.052660625
0.15754499
-0.067106924
0.18096786
-0.083440615
0.20592079
-0.10169076
0.23378576
-0.12201204
-0.14465967
0.26635502
0.0022850019
0.0030548014
0.0081056227
-5.247329e-05
0.017098598
-0.0044624825
0.029203914
-0.0093604145
0.044714778
-0.015248527
0.061969773
-0.021734169
0.079959057
-0.029007843
0.097916999
-0.037313709
0.11577443
-0.046883259
0.1337128
-0.057961135
0.15189772
-0.070845539
0.17067615
-0.08588536
0.1906892
-0.10345366
0.212952
-0.12395356
0.238807
-0.14786704
-0.17557766
0.269725
0.0047644591
-0.0017096414
0.015419342
-0.01070736
0.027994079
-0.017037205
0.041310531
-0.022676865
0.054392461
-0.028330452
0.067111715
-0.03445342
0.079477991
-0.041374116
0.091543121
-0.049378838
0.10341566
-0.0587558
0.11527605
-0.069821529
0.12736427
-0.082933753
0.13997433
-0.098495425
0.15347276
-0.1169521
0.16831963
-0.13880042
0.18506461
-0.16461203
-0.19516185
0.2046488
0.00035276377
-0.00033106149
0.00048981694
0.00052813055
0.0004299546
0.00011158496
-0.00054326366
-0.0016906619
-0.0035395227
-0.0063609662
-0.010495591
-0.016362102
-0.024467201
-0.035408301
-0.049935917
-0.069269884
0.0003524921
-0.00033035079
0.00048890619
0.00052659336
0.00042751731
0.00010789811
-0.00054860156
-0.0016979501
-0.0035487072
-0.0063709467
-0.010503127
-0.016360573
-0.024448249
-0.035378474
-0.049978026
-0.069468229
0.00044919683
-0.00033635092
0.00089646783
0.0016200482
0.0026192774
0.0039907997
0.0058773699
0.0084572006
0.01195334
0.016639589
0.022841395
0.030935334
0.041349893
0.054577702
0.071206679
0.090780916
0.00044889517
-0.0003364113
0.00089600724
0.0016191303
0.0026176371
0.0039881951
0.005873546
0.0084519857
0.011946947
0.016633188
0.022838163
0.030942102
0.041379298
0.054643647
0.071345804
0.091855336
0.24300401
-0.53632791
0.2933239
1.2754994
-1.3206355
0.045136125
0.18666575
-0.48445554
0.29778979
1.2754994
-0.33199069
0.050448688
0.281542
-1.2669454
0.78712986
0.47981552
-0.16840741
0.66048594
-0.49207852
1.1647877
0.44040599
-1.6051937
1.2118217
0.30147259
-1.5132942
0.19143487
-0.26070475
-0.2929787
0.22351047
0.54419372
1.0046264
-1.5488201
-0.54170792
-0.57902418
1.1207321
-1.1497209
0.51057066
0.63915027
-0.25004393
0.60352824
-0.3534843
0.55175127
-0.038880541
-0.51287073
1.09962
-1.1396292
0.040009179
0.070846635
0.25998692
-0.33083356
0.17579531
-0.25545408
0.079658762
0.94117422
-0.34246433
-0.59870989
-0.16562401
-0.16636668
-1.1548283
0.61312042
-1.4218493
1.4085551
0.013294249
0.10903776
1.2784869
-1.3875246
0.0055268841
-0.84973687
0.84420999
0.69821396
0.21231869
-0.91053265
-0.60607747
-0.91243581
1.5185133
0.95731578
-0.31698288
-0.6403329
0.217016
0.96488429
-1.1819003
-0.34563656
0.83838098
-0.49274443
1.0414527
-0.34323878
0.30417936
-0.21755011
-0.086629249
-0.027162767
1.2550266
-1.2278638
0.96357433
0.0030152592
-0.96658959
0.1571636
-0.91966758
0.76250398
1.326829
-1.1175434
-0.20928558
1.1286312
-1.1968372
0.068206012
-0.7202731
0.8774367
0.84017338
-0.48909908
-0.3510743
-1.2970295
0.25553268
1.0414968
0.38347069
-0.54986139
0.16639069
1.2852071
-0.56469508
-0.72051199
1.1647877
-0.34947784
0.84480064
-0.4953228
1.2118217
-0.13091678
0.56093545
-0.43001867
-0.28498996
1.0017843
-0.71679433
-1.4703564
0.62502345
0.84533294
-1.1647877
1.7485516
-0.58376393
-1.2118217
1.763815
-0.55199332
0.47860583
-0.083128835
-0.395477
-0.58683447
0.26242468
0.32440979
0.21620311
-0.40556962
0.18936651
0.14653995
0.17387604
-0.32041598
-0.47367678
0.85722636
-0.38354958
0.10134783
0.8302661
-0.93161393
0.14617886
-0.28679082
0.14061196
-0.8238494
0.52344963
0.30039976
-1.5781507
0.17200781
1.4061429
1.2903213
-0.45894337
-0.83137795
1.1967586
0.093562736
0.83026916
0.61424489
-1.444514
0.77733703
0.65381322
-1.4311503
-0.36875936
0.75626898
-0.38750962
0.10659429
-0.60287548
0.49628119
-0.99678753
1.0343709
-0.037583348
0.66592729
-1.2081578
0.54223052
0.71346532
0.26116091
-0.97462622
-0.15503601
0.93003972
-0.77500372
-1.3821551
1.0971651
-0.35327529
0.92782783
-0.57455253
0.27971292
0.27203835
-0.62829164
0.57097266
0.057318983
0.74324186
0.95743853
-1.7006804
1.3396305
-1.2382829
-0.10134757
0.078150669
-0.44729565
0.74713342
-0.29983777
0.98195013
-0.46712492
-0.5148252
1.4964922
-1.3485138
-0.14797847
1.1580066
-1.0279462
-0.13006033
0.44028976
-0.60068899
0.16039923
-0.34199775
0.13259053
0.20940722
0.20408365
-0.54972021
-1.8130218
1.2860974
0.52692437
0.34797348
0.75164651
0.37056617
-1.3668373
0.9962711
-0.67481676
1.1403625
-0.4655457
-0.15683127
-0.92994129
1.0867726
0.43634851
-0.32277616
-0.11357234
0.075634977
1.2639955
0.8374219
-0.0025969715
-0.83482493
-1.1951199
0.48846466
0.70665526
0.079529435
0.5500384
-0.62956783
0.47840098
0.3617724
0.66037424
0.36472243
-1.0250967
0.68868073
-0.2612651
-0.42741563
-0.72562566
-0.80806164
0.46254223
-0.27587649
-0.1159201
-0.23244722
0.34836732
-0.43442833
0.84923047
-0.41480214
-0.46809594
1.2113378
-0.86156525
1.1454219
-0.28385668
-0.922896
-0.27222392
-0.010732634
1.1393638
1.2401176
-1.1594632
-0.080654412
-0.76317098
-0.38654995
-1.6839975
1.1131899
0.57080757
-1.8140573
1.317446
0.49661125
0.8630327
-0.38792849
-0.47510421
0.20688017
-0.55635801
0.30796549
-0.78164226
0.0067459006
0.63575065
-0.64249655
0.46899515
-0.62403116
-0.22131868
0.60478938
0.28388339
0.65729083
1.0032039
0.49328831
0.58119359
-0.57444769
0.43543737
1.0425355
-1.4779729
1.531411
-0.87861436
-0.65279662
-0.32957073
0.72139989
-0.39182915
-0.0095547673
0.22575788
0.30919492
-0.16265498
0.13001416
0.13669499
-0.26670914
1.6360348
-1.6631976
0.12901007
0.067959828
-0.1969699
0.17504079
-0.034407635
-1.1248439
1.2113653
-0.086521418
-0.31232234
0.20720778
0.10511457
0.59102266
-0.54936239
-0.04166027
-0.84421978
0.76990557
0.074314205
0.29060069
-0.14442182
-0.052235273
0.47837331
-0.42613804
-0.72528717
1.3292093
-0.60392217
0.44988102
0.83532604
1.1902708
-0.52434354
0.51394062
0.34909209
-0.53374984
0.40283305
0.99095878
-1.14779
-0.46455313
0.34863303
0.84563769
0.39447989
0.78917916
-1.6227405
0.83356135
0.46526372
0.25327154
-0.20282286
-0.46092048
0.70392448
1.1970091
-1.1970091
-0.33858713
-0.19316869
1.0305906
0.11892167
-0.56621731
-0.058674176
0.96265393
-0.90397976
-0.61146405
1.4417332
-0.63845175
1.4157888
1.2718663
-0.72911601
-0.5427503
0.62867483
0.45822891
-0.78779964
0.89849285
-1.1797524
0.28125954
0.88555002
-0.88002314
0.13660808
-0.067492435
-1.0289145
1.096407
1.47752
0.24890989
-1.7264299
-0.82916092
1.2645983
-0.62340135
0.70893268
-0.64262082
0.72805024
-0.057607501
0.71798174
0.012275297
0.55246323
-0.56473853
-0.86552538
-0.039209299
0.90473468
0.54121333
-1.2665005
-1.353878
1.2952038
0.90033112
0.40757818
-1.3079093
-0.11051417
-0.52176642
0.6322806
-0.56564743
1.1098411
-0.91460363
0.34295846
0.57164517
0.57100954
-0.49148011
0.13630426
-0.79554797
0.65924371
0.99740263
-1.1091232
0.11172056
0.87606079
0.39580551
-1.5160817
0.79580863
0.074588143
1.0834184
0.96576355
0.73717164
-1.3432491
-0.14831758
0.58860734
-1.053724
0.83476956
0.21895444
-1.0785171
0.96800293
0.57471901
0.72531971
-1.3000387
0.91062034
0.017207484
-0.64646261
0.78276687
-0.31079152
-0.74293247
-0.17453238
-0.33625117
0.51078354
0.45547444
-0.73803564
0.2825612
0.14887306
0.43804171
-0.58691477
-1.0166618
0.25933945
0.75732239
0.16077379
1.19767
-1.3584438
-0.9441951
-0.45676992
1.400965
0.24723307
0.71008271
-0.25191197
-0.001000115
0.25291209
-0.95231442
-0.18731475
1.1991666
-1.0901288
1.0951674
-0.097764816
-0.78594757
-0.449384
1.2353316
-0.68253918
-0.29624582
0.97878499
-0.12043287
0.47634163
-0.35590876
-0.051826613
0.88659617
-0.43002274
-0.51979692
0.94981966
0.55850787
0.0046916741
-0.56319954
-0.79419171
0.7251489
0.069042815
-0.99910947
0.55640862
0.44270085
-0.8878748
0.57708327
0.57448182
-1.153506
1.47752
0.17574739
0.39312689
-0.56887428
1.4531565
-1.161843
-0.29131347
-1.0758502
1.1902843
-0.47681899
-0.8813396
-0.24350433
0.05116374
-0.84046926
0.78930552
-1.0748525
1.2356263
0.57498489
-1.1186359
0.54365106
0.54806768
0.73981448
-1.2878822
-0.68117723
0.53478311
-0.70931548
0.34218721
-0.39442248
-1.1676842
-0.51631334
1.044464
-0.11442427
1.0818235
-0.89356079
-0.18826271
0.8739718
0.71947137
-1.5934432
0.20586003
-0.69495911
-0.0089120922
0.18974104
-0.18082895
-0.41502142
0.59076881
-0.51235366
1.3863255
-1.3783856
1.3656756
0.01271001
-0.13971696
0.61809028
0.030723285
-0.28263525
0.3770881
-0.38868577
0.011597669
0.29199504
-1.3892469
1.0972519
-0.46544824
-0.035259883
0.50070812
-0.13855982
-0.7016675
0.84022732
0.61863776
0.29198258
0.25370094
1.0992188
-1.3529198
-0.62190518
0.28565402
1.0298546
0.2314118
-1.2612664
0.029279931
1.1683901
0.58069438
0.46075835
1.325549
-0.26224426
-1.0633048
-0.50268048
-0.12561116
-1.1672367
0.38152616
0.78571052
0.11488752
-0.58860588
0.47371837
-0.82032057
0.81667794
0.0036426377
-0.19200007
1.1555744
1.1640846
-1.7319757
0.56789108
0.63020286
0.31738153
-0.94758438
-0.45230131
-0.042092108
0.49439342
-0.13131525
-0.35875531
0.49007055
0.44050258
0.081006204
1.3721503
-0.47439943
1.0493843
0.36350091
-0.1877056
0.90487048
0.23258068
-1.1374512
0.46654304
-0.45426775
-0.82946906
0.39944632
1.5055062
-0.12508558
1.2689392
-1.1438536
0.11783234
-1.2353757
-1.4388183
0.81236079
0.62645747
1.4397062
-0.42024967
-0.75950273
-1.0827768
-0.21425274
-0.84345096
1.1046119
-0.57645695
-0.69048842
1.1854271
-0.96841114
-1.1220563
1.2316083
-0.10955203
-0.84260598
0.88261516
-0.393986
-0.40020571
0.11367556
0.96814794
-0.03150163
-0.81271815
-0.57509047
-0.33951315
-0.18322297
1.2486865
-1.0654636
-0.48294161
0.59782913
-0.89328088
0.92842757
-0.035146686
0.0027252051
-1.1955329
1.1928077
0.9239138
-0.075683019
-0.84823078
0.50846482
-0.52343029
0.014965465
1.0145896
-1.1505229
0.13593332
0.07748491
0.89910783
-0.97659274
0.72676968
-0.61209418
-0.1146755
-0.45195334
0.29741375
0.15453958
0.17331197
-0.33893598
-0.0042374294
-0.93995767
-0.092593817
-0.90419371
-1.1662595
1.2466265
-1.2439013
-0.57717781
-0.24667159
-0.35845817
0.15745432
0.20100385
0.72603075
-0.61717092
-0.10885982
0.21450119
-1.0600281
0.84552693
0.0020713327
0.37501677
-0.43282413
-0.032624108
0.65561322
-0.03697546
-0.67555175
-0.94718876
0.77285852
-0.20188587
0.31539933
-1.6360348
1.3206355
1.0634172
-0.59385799
-0.46955921
-0.12960822
-0.69859364
0.82820186