/*--------------------------------*- C++ -*----------------------------------*\
| =========                 |                                                 |
| \\      /  F ield         | foam-extend: Open Source CFD                    |
|  \\    /   O peration     | Version:     4.1                                |
|   \\  /    A nd           | Web:         http://www.foam-extend.org         |
|    \\/     M anipulation  |                                                 |
\*---------------------------------------------------------------------------*/
FoamFile
{
    version     2.0;
    format      ascii;
    class       volVectorField;
    location    "0.8";
    object      U;
}
// * * * * * * * * * * * * * * * * * * * * * * * * * * * * * * * * * * * * * //

dimensions      [0 1 -1 0 0 0 0];

internalField   nonuniform List<vector> 
4242
(
(163.5209 167.54426 3.5568829e-15)
(178.63088 147.00359 1.0572219e-17)
(173.68199 146.45602 -1.8443911e-15)
(174.00867 142.0107 1.4927583e-15)
(172.97062 138.34016 1.9519232e-17)
(172.07229 133.9649 8.630521e-18)
(171.06601 129.07621 0)
(169.95011 123.65754 5.1105289e-16)
(168.72813 117.69726 -8.2964864e-16)
(167.4114 111.20294 3.2680647e-16)
(166.02818 104.2079 -2.1411943e-16)
(164.62222 96.776893 1.8164939e-16)
(163.26158 89.002175 1.8570828e-17)
(162.09942 80.958089 -2.5769031e-17)
(161.39209 72.747341 -5.246069e-17)
(161.01585 64.963725 0)
(188.80586 155.41521 0)
(206.47319 127.89503 -2.2205295e-17)
(199.9211 129.89975 2.1300232e-15)
(199.51899 125.81907 -1.7316743e-15)
(197.70889 122.76144 -3.0948031e-17)
(196.04357 118.95597 1.0259598e-15)
(194.2016 114.76247 -4.9082769e-17)
(192.21702 110.1146 -1.2902605e-15)
(190.09398 105.00507 1.0354382e-16)
(187.84082 99.442713 4.0281741e-16)
(185.47699 93.455653 0)
(183.03311 87.097351 -3.1871037e-17)
(180.55837 80.446744 -3.406157e-17)
(178.16078 73.569479 -1.9555026e-16)
(176.00879 66.521779 2.6955412e-16)
(173.9503 59.653506 3.5935505e-17)
(214.23611 142.28875 -6.3813674e-17)
(235.53792 104.92016 -6.93202e-15)
(227.01261 111.37356 2.7954622e-15)
(226.15327 107.25873 -1.9069788e-17)
(223.56565 104.96545 -1.6829751e-15)
(221.07635 101.84152 1.3767686e-15)
(218.29539 98.439523 -1.893794e-17)
(215.28184 94.629021 2.9796346e-17)
(212.03748 90.411727 -1.3516489e-17)
(208.57917 85.791862 -3.6194536e-17)
(204.93928 80.790944 3.773765e-16)
(201.16624 75.453224 -2.8451509e-16)
(197.32629 69.848819 -4.5746786e-16)
(193.51054 64.060461 4.0564238e-16)
(189.81191 58.206591 -5.1955708e-17)
(186.29237 52.422839 -1.4947406e-16)
(236.82496 124.0718 -1.1417805e-17)
(261.02818 74.890468 -8.8310921e-18)
(250.79058 87.085523 -1.6872486e-15)
(249.78028 82.280063 1.4221068e-15)
(246.54023 81.025253 -1.8370282e-17)
(243.37701 78.736644 8.7951861e-16)
(239.80533 76.330646 -6.6999185e-16)
(235.9012 73.593833 -1.0785152e-15)
(231.65819 70.547781 6.4493633e-17)
(227.09726 67.189006 1.3841136e-15)
(222.26027 63.530203 -5.436726e-16)
(217.21301 59.601141 0)
(212.046 55.450645 3.335893e-17)
(206.86261 51.152387 -2.5877455e-16)
(201.71027 46.877738 1.3191568e-16)
(196.58739 42.625666 -2.7314712e-16)
(251.6177 100.45815 1.1417805e-17)
(277.56241 38.4311 -2.3708021e-15)
(266.23999 57.43989 2.0154467e-15)
(265.2806 51.285443 -1.1762306e-17)
(261.62633 51.459932 2.9477331e-17)
(258.09252 50.081302 -8.4332641e-18)
(254.0681 48.83846 -8.5333963e-16)
(249.64779 47.370146 1.9330334e-17)
(244.81546 45.733969 5.1268188e-16)
(239.59172 43.91449 -3.9579173e-16)
(234.01997 41.913703 3.3358727e-16)
(228.17175 39.741957 0)
(222.14783 37.41794 1.9926584e-16)
(216.06622 34.965794 -1.4768366e-16)
(209.99594 32.457135 4.6960583e-17)
(203.99236 29.573272 0)
(257.11757 72.487488 -1.6478461e-15)
(282.86387 -0.42825367 6.5150593e-16)
(272.03665 24.406661 1.0469523e-15)
(270.9159 17.215398 -8.5052736e-16)
(267.21779 18.893431 1.8576753e-18)
(263.6049 18.47359 2.9404971e-16)
(259.49039 18.468192 2.3325614e-16)
(254.96181 18.359551 -1.0220868e-17)
(250.00056 18.239838 -9.4707773e-18)
(244.62419 18.082674 -3.3393093e-16)
(238.87314 17.879907 3.5196923e-16)
(232.81638 17.621479 -1.3346684e-17)
(226.55277 17.297794 -3.639019e-17)
(220.2022 16.889777 -8.2868353e-17)
(213.83611 16.484781 -5.6494873e-20)
(207.58558 15.499703 3.8878168e-17)
(252.55135 42.743564 -8.4548298e-16)
(276.65729 -37.83186 -5.960594e-16)
(268.07389 -9.6727166 1.544896e-15)
(266.47727 -16.654124 -8.2515687e-16)
(263.13013 -13.918509 3.4900815e-16)
(259.69615 -13.27681 3.2563134e-20)
(255.83062 -12.084163 4.3146741e-16)
(251.57294 -10.841476 -1.9564205e-16)
(246.91266 -9.4647967 -2.5212727e-17)
(241.86418 -7.9808503 9.4368048e-17)
(236.46391 -6.4076507 -1.5254715e-16)
(230.77411 -4.7742763 1.2148447e-16)
(224.88418 -3.1165738 -3.433452e-17)
(218.90263 -1.5002798 -1.466665e-16)
(212.8934 0.17883349 5.8188548e-17)
(206.96148 1.0526739 7.5384361e-17)
(237.46639 14.047594 -1.9818251e-17)
(259.41444 -70.499003 2.3424864e-15)
(254.51764 -42.142641 -1.9535702e-15)
(252.45849 -47.592301 1.5040465e-15)
(249.72316 -44.357567 -1.2643963e-15)
(246.74817 -42.62096 0)
(243.45068 -40.340849 7.7642947e-16)
(239.82722 -37.849136 -6.2997399e-16)
(235.87556 -35.097586 -1.3306806e-17)
(231.60814 -32.109405 0)
(227.05584 -28.913419 -5.4455471e-17)
(222.27002 -25.557248 2.7211742e-17)
(217.32429 -22.101477 -1.8534581e-16)
(212.30536 -18.658377 3.577672e-16)
(207.27839 -15.124682 -2.5623991e-16)
(202.29268 -12.370257 -7.0486169e-17)
(211.76672 -10.483822 1.4017717e-17)
(232.07309 -95.183889 -8.9235889e-18)
(231.94259 -70.160668 0)
(229.94369 -73.071455 3.0912711e-17)
(227.96951 -69.7841 1.5579772e-17)
(225.75271 -67.0717 8.7146794e-16)
(223.32779 -63.885198 -7.4453506e-16)
(220.68397 -60.360226 0)
(217.82375 -56.477051 3.7870335e-18)
(214.75717 -52.257144 -3.8081345e-17)
(211.50598 -47.73848 3.4096426e-17)
(208.10498 -42.982467 1.9270279e-17)
(204.60516 -38.065188 3.9852618e-17)
(201.0625 -33.12287 2.4509071e-16)
(197.54121 -28.081177 -2.9604422e-16)
(194.03141 -23.687496 1.6659187e-16)
(175.27496 -27.164517 0)
(195.44692 -108.07592 3.7393381e-15)
(200.94224 -90.494352 -5.8311403e-15)
(200.30178 -90.6476 2.2943236e-15)
(199.34204 -87.553621 -1.5444317e-17)
(198.20124 -84.186718 -4.3883407e-17)
(196.94656 -80.374903 1.1164313e-15)
(195.59535 -76.163936 -9.1136395e-16)
(194.16127 -71.542115 -6.1197952e-16)
(192.65197 -66.529315 5.711293e-16)
(191.07558 -61.168677 0)
(189.4423 -55.528134 -3.5422331e-16)
(187.76817 -49.688843 2.0615382e-16)
(186.06116 -43.781777 0)
(184.34872 -37.755178 0)
(182.57698 -32.026381 0)
(130.17818 -33.007131 1.1806053e-14)
(153.38559 -108.49055 -3.2000711e-15)
(164.53531 -100.50953 0)
(167.14499 -99.186307 -1.135819e-17)
(167.96335 -96.476283 -1.2854093e-15)
(168.2872 -92.943503 1.1013609e-15)
(168.40485 -88.867663 7.8694241e-16)
(168.44478 -84.360226 -1.8115949e-17)
(168.48356 -79.432067 -5.7001437e-16)
(168.55495 -74.107498 2.9310483e-17)
(168.66697 -68.43796 0)
(168.80996 -62.501142 -4.6738745e-16)
(168.96111 -56.38988 9.0638497e-17)
(169.06931 -50.23851 3.0053466e-16)
(169.07541 -44.082185 0)
(169.393 -37.182221 3.3365718e-17)
(39.321345 9.5163404 5.1666873e-17)
(73.026096 -59.904632 4.8408428e-15)
(99.104463 -75.432813 -1.6506218e-15)
(112.7547 -81.519727 -1.1971266e-15)
(119.83625 -83.328977 9.5510623e-16)
(124.41412 -82.70793 -7.5475952e-16)
(128.06385 -80.64435 6.2710553e-16)
(131.37144 -77.693587 4.4661346e-16)
(134.60904 -74.114598 -4.0441351e-16)
(137.89215 -70.036591 0)
(141.23062 -65.548642 0)
(144.5648 -60.734334 0)
(147.79613 -55.676679 2.6303142e-17)
(150.80163 -50.480043 0)
(153.3964 -45.335026 1.6018758e-16)
(156.11915 -39.226309 -2.9457217e-16)
(104.31817 -148.56652 1.1344832e-15)
(130.05308 -143.24958 8.8185424e-19)
(132.64431 -149.68742 -5.6380857e-16)
(132.5977 -145.76628 4.415161e-16)
(132.51179 -141.98631 5.2639963e-19)
(132.45417 -137.61192 9.2603529e-18)
(132.45862 -132.64746 0)
(132.55391 -127.05775 8.4372405e-17)
(132.76164 -120.81586 -1.0234307e-16)
(133.10797 -113.9303 4.1262363e-17)
(133.61449 -106.44693 -7.2333389e-18)
(134.29344 -98.449364 6.0849721e-18)
(135.16625 -90.046075 -2.2357716e-17)
(136.28772 -81.345248 1.0086071e-17)
(137.59324 -72.549981 1.1008098e-17)
(138.53879 -64.377219 0)
(82.581109 -142.28338 0)
(93.918768 -133.24834 2.7121799e-18)
(93.166581 -131.56344 -3.2608578e-16)
(94.211648 -128.6093 2.5582863e-16)
(95.413071 -125.34234 3.2770448e-18)
(96.880266 -121.63398 -2.1788888e-16)
(98.623749 -117.43986 -1.5863851e-17)
(100.65492 -112.72486 3.27743e-16)
(102.98062 -107.46627 -7.7591314e-18)
(105.59947 -101.65822 -1.2395288e-16)
(108.49756 -95.31792 0)
(111.64653 -88.490387 1.7649484e-17)
(115.0138 -81.24401 1.0564955e-17)
(118.57706 -73.656069 1.2432968e-16)
(122.26843 -65.833756 -1.6572566e-16)
(125.78144 -58.069686 -2.945742e-17)
(54.339457 -122.55961 -1.5064805e-17)
(61.679946 -116.87837 3.2684621e-15)
(62.330281 -114.62915 -1.2490024e-15)
(63.933541 -111.89483 9.8966669e-18)
(65.873382 -108.87159 7.9287528e-16)
(68.180149 -105.48795 -6.2445057e-16)
(70.878473 -101.69584 1.0216748e-17)
(73.990368 -97.459638 -1.6629316e-17)
(77.530901 -92.757015 2.3395484e-18)
(81.502544 -87.582881 2.2112869e-17)
(85.889088 -81.954486 -2.3744442e-16)
(90.655082 -75.914175 1.7891534e-16)
(95.761373 -69.525034 3.3197656e-16)
(101.18105 -62.866462 -2.9469798e-16)
(106.82001 -56.067962 3.8978102e-17)
(112.2653 -49.403603 1.3515353e-16)
(30.463937 -95.184387 9.3708252e-18)
(34.579045 -91.371801 6.7247626e-18)
(36.11135 -89.079869 1.1445612e-15)
(38.22612 -86.704081 -8.9162597e-16)
(40.811532 -84.151372 1.183411e-17)
(43.879514 -81.357441 -5.5123179e-16)
(47.458135 -78.279112 4.0431076e-16)
(51.572875 -74.887144 6.9253493e-16)
(56.238699 -71.164517 -1.2569081e-17)
(61.451719 -67.107989 -9.1928517e-16)
(67.181465 -62.730662 3.6542455e-16)
(73.372359 -58.062304 0)
(79.962982 -53.145428 -2.4794136e-17)
(86.891421 -48.037109 2.1188146e-16)
(93.979578 -42.841746 -1.0700282e-16)
(100.68615 -37.749603 2.5085025e-16)
(13.846545 -63.976387 -1.1893921e-17)
(15.779604 -60.22277 2.2972208e-15)
(17.789253 -57.739946 -1.6586619e-15)
(20.302984 -55.563744 8.7632864e-18)
(23.36172 -53.451474 -2.0987844e-17)
(26.988001 -51.302855 5.8728194e-18)
(31.215877 -49.064603 6.0344043e-16)
(36.0773 -46.705955 6.2437032e-18)
(41.592031 -44.209795 -3.4963596e-16)
(47.757699 -41.569306 2.8828621e-16)
(54.542289 -38.786611 -2.3672435e-16)
(61.889802 -35.869925 0)
(69.743075 -32.827726 -1.5852187e-16)
(78.028824 -29.66601 1.1632737e-16)
(86.454939 -26.420051 -3.999034e-17)
(94.160306 -23.243305 0)
(214.37208 -142.34452 0)
(235.67023 -104.98041 3.4402083e-15)
(227.16672 -111.43051 -5.5223839e-15)
(226.32301 -107.32982 2.2421213e-15)
(223.76339 -105.04594 1.5151193e-17)
(221.30196 -101.93505 4.8053672e-18)
(218.54633 -98.54417 1.0339853e-15)
(215.54869 -94.741031 -8.7699738e-16)
(212.30312 -90.52386 -6.2723768e-16)
(208.81865 -85.893699 4.7220041e-16)
(205.12314 -80.869753 0)
(201.26887 -75.497628 -2.4327597e-16)
(197.33971 -69.855996 1.9153995e-16)
(193.46208 -64.038119 0)
(189.77915 -58.147172 0)
(186.35691 -52.313771 0)
(5.3712079 -37.889025 2.501707e-15)
(6.6322463 -32.63214 -7.312813e-16)
(9.2826749 -29.474739 -9.8463958e-16)
(12.459159 -27.047218 7.127329e-16)
(16.126912 -24.979755 6.7046398e-18)
(20.305948 -23.12004 -2.1501037e-16)
(25.02466 -21.390179 -1.724493e-16)
(30.307812 -19.744175 2.0094194e-18)
(36.169628 -18.151334 2.2041948e-18)
(42.607364 -16.588658 2.4740016e-16)
(49.595233 -15.040399 -2.6464311e-16)
(57.08111 -13.4895 4.6837118e-18)
(64.987797 -11.917248 2.4997569e-17)
(73.20977 -10.298019 6.7126529e-17)
(81.581712 -8.5999434 4.8884231e-20)
(89.808181 -6.8499126 -3.6754029e-17)
(5.43328 37.677517 1.2351817e-15)
(6.7132197 32.3211 7.227163e-16)
(9.3994408 29.192545 -1.4649054e-15)
(12.6208 26.820519 7.0646091e-16)
(16.336603 24.817037 -2.7526721e-16)
(20.564496 23.022881 -2.5137596e-20)
(25.33039 21.355947 -3.3203789e-16)
(30.655984 19.766849 1.3971623e-16)
(36.551826 18.221954 1.4794363e-17)
(43.011224 16.695954 -7.8845883e-17)
(50.005163 15.171877 1.1772371e-16)
(57.480077 13.633101 -1.0224615e-16)
(65.358685 12.063329 2.4884143e-17)
(73.530601 10.442463 1.2947301e-16)
(81.808319 8.7532488 -5.2203302e-17)
(89.85905 7.0582999 -7.4411121e-17)
(13.911855 64.169879 1.8573649e-17)
(15.845457 60.451972 -2.3072531e-15)
(17.882615 58.001525 1.6526263e-15)
(20.426497 55.844754 -1.2213224e-15)
(23.514251 53.739632 9.5213195e-16)
(27.16711 51.586624 0)
(31.41751 49.333011 -5.8207408e-16)
(36.295473 46.948422 4.5477911e-16)
(41.818425 44.415968 9.2938927e-18)
(47.981165 41.728843 0)
(54.748778 38.888825 4.1443243e-17)
(62.063412 35.903167 -2.1187259e-17)
(69.866444 32.777654 1.5483155e-16)
(78.074574 29.509694 -3.06434e-16)
(86.366024 26.113958 2.1990955e-16)
(93.871678 22.726719 6.4496188e-17)
(30.546072 95.539144 -9.3470364e-18)
(34.675922 91.753518 6.7114287e-18)
(36.215377 89.478017 0)
(38.326711 87.103722 -1.8753066e-17)
(40.900671 84.539149 -8.7404672e-18)
(43.949005 81.721438 -5.4980549e-16)
(47.49878 78.608372 4.5545557e-16)
(51.574114 75.171439 0)
(56.188206 71.394337 -4.4381241e-18)
(61.334401 67.274809 2.3812396e-17)
(66.978091 62.82753 -2.4609758e-17)
(73.062746 58.083402 -1.1451385e-17)
(79.543731 53.079724 -3.1033216e-17)
(86.397008 47.851901 -1.9693541e-16)
(93.415842 42.48188 2.4004277e-16)
(99.768572 37.255434 -1.402278e-16)
(54.372164 122.81128 0)
(61.759083 117.12712 -1.6423196e-15)
(62.397123 114.88607 2.5026411e-15)
(63.978153 112.14523 -9.679457e-16)
(65.884952 109.10353 7.8413163e-18)
(68.147413 105.69051 1.9345184e-17)
(70.789573 101.85866 -5.3574952e-16)
(73.833076 97.572989 4.2821077e-16)
(77.293255 92.812226 3.2496442e-16)
(81.173135 87.573769 -3.0116801e-16)
(85.45671 81.88019 0)
(90.11502 75.780463 2.2193166e-16)
(95.14828 69.335192 -1.3030973e-16)
(100.61904 62.608921 0)
(106.42483 55.790313 0)
(111.62708 49.499475 0)
(82.537961 142.37454 -8.7395294e-16)
(93.942785 133.31222 3.4300921e-16)
(93.168242 131.63281 0)
(94.191403 128.66451 -6.0007007e-19)
(95.360329 125.3735 2.4666663e-16)
(96.785555 121.63179 -2.0423966e-16)
(98.478661 117.3959 -1.9190911e-16)
(100.45327 112.63214 -1.4005179e-17)
(102.72064 107.3203 1.5520517e-16)
(105.2868 101.45908 -1.2661748e-17)
(108.14915 95.073474 0)
(111.29962 88.218106 1.9499281e-16)
(114.746 80.968302 -2.8115722e-17)
(118.51523 73.420108 -1.3699928e-16)
(122.52369 65.765203 0)
(126.4491 58.332257 -1.3809393e-17)
(104.13018 148.48721 4.2118816e-17)
(129.99971 143.176 1.6499087e-15)
(132.58859 149.66295 -6.0796801e-16)
(132.52413 145.72162 -3.9901594e-16)
(132.41376 141.9217 3.1753801e-16)
(132.32525 137.52083 -1.9532949e-16)
(132.29429 132.52526 1.447437e-16)
(132.35306 126.90271 8.4755295e-17)
(132.52885 120.63052 -8.3575231e-17)
(132.85627 113.72344 0)
(133.36839 106.23644 0)
(134.0921 98.264296 0)
(135.06636 89.926133 1.1115143e-17)
(136.35493 81.341503 0)
(137.85967 72.715747 -3.1968356e-17)
(138.8872 64.682268 7.4615935e-17)
(39.258311 -9.5984648 5.5717956e-15)
(72.987535 59.842491 1.1376674e-17)
(99.088258 75.408902 -1.6147135e-15)
(112.7699 81.518913 1.2446234e-15)
(119.88051 83.349945 1.7946006e-17)
(124.48574 82.750575 6.282147e-18)
(128.16208 80.708134 0)
(131.49375 77.776513 4.6487152e-16)
(134.74894 74.212097 -7.716689e-16)
(138.03752 70.140616 3.0966942e-16)
(141.36276 65.647622 -2.269527e-16)
(144.65878 60.814834 1.9253902e-16)
(147.82406 55.725419 1.602334e-17)
(150.72988 50.502871 -3.2557089e-17)
(153.25066 45.249293 -8.3026093e-17)
(156.26889 38.355226 0)
(130.19855 32.977366 0)
(153.41703 108.47572 -2.4706285e-17)
(164.58548 100.52879 2.2224004e-15)
(167.21681 99.210962 -1.7298165e-15)
(168.05604 96.512448 -2.9797844e-17)
(168.40253 92.992187 1.0258963e-15)
(168.54338 88.928598 -3.9304022e-17)
(168.60357 84.431023 -1.3114093e-15)
(168.65466 79.507493 9.6882322e-17)
(168.72452 74.178935 4.195354e-16)
(168.81579 68.493666 0)
(168.9166 62.527458 -3.5185086e-17)
(169.00991 56.370588 -3.9823181e-17)
(169.0559 50.162877 -2.3934716e-16)
(169.04941 43.857235 3.3364399e-16)
(169.00271 37.534248 4.5111621e-17)
(175.34734 27.161731 -9.4938793e-17)
(195.52165 108.08765 -7.5519565e-15)
(201.03405 90.52954 2.9538576e-15)
(200.41151 90.682883 -1.9584769e-17)
(199.4726 87.599181 -1.7548607e-15)
(198.35553 84.242006 1.42865e-15)
(197.12447 80.439624 -1.9323006e-17)
(195.79222 76.235492 3.0459492e-17)
(194.36667 71.615694 -1.4231472e-17)
(192.84931 66.597817 -3.7305923e-17)
(191.24359 61.223723 4.0481605e-16)
(189.55998 55.562174 -3.0444997e-16)
(187.82418 49.69694 -5.0464544e-16)
(186.0595 43.776941 4.4739208e-16)
(184.33267 37.703166 -6.1652954e-17)
(182.48684 32.343135 -1.8238577e-16)
(211.87548 10.490921 -1.4035512e-17)
(232.18086 95.206715 -8.9334907e-18)
(232.06668 70.197878 -1.7138188e-15)
(230.08333 73.108186 1.4226243e-15)
(228.13113 69.829977 -1.8011965e-17)
(225.93854 67.124825 8.7216683e-16)
(223.53642 63.945664 -6.604475e-16)
(220.90868 60.425626 -1.0670633e-15)
(218.05146 56.543581 5.8759271e-17)
(214.96842 52.319543 1.3714758e-15)
(211.67746 47.791117 -5.3913637e-16)
(208.21603 43.020934 0)
(204.64831 38.088126 3.4699814e-17)
(201.05058 33.142884 -2.6794283e-16)
(197.51957 28.049877 1.3706163e-16)
(194.01825 23.875749 -2.9088336e-16)
(237.59497 -14.043048 1.2875939e-17)
(259.5409 70.517721 -2.3276184e-15)
(254.66105 42.170946 1.9556243e-15)
(252.61705 47.620057 -1.1396523e-17)
(249.90531 44.392874 2.8147606e-17)
(246.95492 42.661116 -7.8971943e-18)
(243.67944 40.386556 -8.0215001e-16)
(240.06939 37.898593 1.6466105e-17)
(236.11568 35.148571 4.7830896e-16)
(231.82425 32.159004 -3.709054e-16)
(227.22289 28.958968 3.1219041e-16)
(222.36768 25.597432 0)
(217.34842 22.13882 1.8891236e-16)
(212.27592 18.703912 -1.4054324e-16)
(207.23942 15.134019 4.6533309e-17)
(202.29273 12.600466 0)
(252.68909 -42.747351 -1.7061513e-15)
(276.79268 37.838744 6.4467684e-16)
(268.2277 9.6870514 1.0269366e-15)
(266.64656 16.666134 -8.2597974e-16)
(263.32467 13.935874 1.5747499e-18)
(259.91576 13.29602 2.8162135e-16)
(256.07194 12.106622 2.2241969e-16)
(251.82587 10.86628 -9.5685371e-18)
(247.15994 9.491591 -8.8318436e-18)
(242.08198 8.0092147 -3.1508497e-16)
(236.62597 6.4376206 3.3149618e-16)
(230.86058 4.8068027 -1.2342203e-17)
(224.89393 3.1550287 -3.4373911e-17)
(218.86063 1.5455778 -7.7963314e-17)
(212.84192 -0.16616939 -5.2344746e-20)
(206.96371 -0.84428754 3.6786694e-17)
(257.25947 -72.502297 -8.1857133e-16)
(283.00351 0.42049391 -6.0379549e-16)
(272.19614 -24.408649 1.5784564e-15)
(271.09139 -17.222477 -8.5138393e-16)
(267.41995 -18.898165 3.627741e-16)
(263.83273 -18.480022 3.4245721e-20)
(259.74011 -18.474349 4.5322433e-16)
(255.2224 -18.365176 -2.0658503e-16)
(250.25367 -18.243263 -2.668258e-17)
(244.84488 -18.081689 9.9958916e-17)
(239.03445 -17.87171 -1.6258934e-16)
(232.89895 -17.60294 1.2926074e-16)
(226.55757 -17.266655 -3.6433582e-17)
(220.15667 -16.855156 -1.5626589e-16)
(213.78529 -16.466293 6.1993678e-17)
(207.60048 -15.318377 7.9114557e-17)
(251.76107 -100.48571 -1.7725789e-17)
(277.70411 -38.454068 2.3912995e-15)
(266.40204 -57.459608 -2.0178677e-15)
(265.45934 -51.312752 1.5737839e-15)
(261.83254 -51.488897 -1.3352123e-15)
(258.32503 -50.115612 0)
(254.32295 -48.876015 8.2714105e-16)
(249.91368 -47.409315 -6.7462176e-16)
(245.07364 -45.771113 -1.3629559e-17)
(239.81681 -43.944748 0)
(234.18477 -41.93141 -5.7773348e-17)
(228.25708 -39.742046 2.8431339e-17)
(222.15503 -37.400611 -1.9458116e-16)
(216.02331 -34.945076 3.7660362e-16)
(209.95584 -32.430204 -2.6645941e-16)
(204.01648 -29.445319 -7.2308685e-17)
(236.96697 -124.11384 1.1433052e-17)
(261.16882 -74.93071 -8.8426255e-18)
(250.95193 -87.123611 0)
(249.95822 -82.329076 -7.8623647e-18)
(246.74603 -81.079864 -1.5469936e-17)
(243.60975 -78.800412 8.3129545e-16)
(240.06143 -76.401416 -7.174829e-16)
(236.16982 -73.668703 0)
(231.92096 -70.62119 5.3288186e-17)
(227.32886 -67.253326 3.7739284e-17)
(222.43285 -63.576525 3.5018664e-17)
(217.30572 -59.622084 -7.1172395e-17)
(212.05757 -55.447047 4.0480746e-17)
(206.82143 -51.137252 2.4003089e-16)
(201.67995 -46.842601 -2.8539133e-16)
(196.6281 -42.524547 1.6073323e-16)
(188.92425 -155.47966 7.4957166e-15)
(206.58307 -127.97211 -2.8467783e-15)
(200.05411 -129.97124 0)
(199.66607 -125.90666 -1.2231588e-17)
(197.88402 -122.86126 -1.2919423e-15)
(196.24806 -119.07214 1.1149864e-15)
(194.43484 -114.89408 7.7926545e-16)
(192.47212 -110.25823 -2.6361196e-17)
(190.35627 -105.15316 -5.5697408e-16)
(188.08646 -99.583507 2.7563925e-17)
(185.67413 -93.573454 0)
(183.14822 -87.175502 -4.1491927e-16)
(180.57177 -80.473135 9.2648359e-17)
(178.09394 -73.537724 2.570517e-16)
(175.94637 -66.415882 0)
(173.96579 -59.475731 2.3076197e-17)
(163.6163 -167.59034 3.681224e-17)
(178.70113 -147.07929 4.9817253e-15)
(173.77873 -146.5206 -1.9117057e-15)
(174.11777 -142.09218 -1.4203154e-15)
(173.10826 -138.4356 1.1506026e-15)
(172.24181 -134.07929 -8.7896839e-16)
(171.26934 -129.21067 7.2685514e-16)
(170.18375 -123.8108 4.9290508e-16)
(168.98106 -117.86371 -4.4455285e-16)
(167.66234 -111.37217 0)
(166.24432 -104.36358 0)
(164.76239 -96.897623 0)
(163.29031 -89.065992 1.7332961e-17)
(162.01724 -80.953362 0)
(161.26498 -72.689103 1.0471339e-16)
(160.9627 -64.832111 -1.7816078e-16)
(-39.676499 61.795376 1.0894982e-15)
(19.93645 -13.535073 2.0482948e-18)
(47.154946 -35.750659 -2.1362059e-16)
(66.219406 -47.500447 1.4143857e-16)
(80.586641 -53.585333 1.9545642e-18)
(91.682547 -56.195486 5.0393349e-18)
(100.4492 -56.725433 0)
(107.60027 -56.03683 7.3428583e-17)
(113.63109 -54.648319 -1.272417e-16)
(118.86821 -52.871536 6.1344629e-17)
(123.53067 -50.87981 -6.6012616e-17)
(127.75839 -48.739187 5.7435173e-17)
(131.6306 -46.432878 -8.6671382e-18)
(135.21222 -43.880622 -1.106667e-17)
(138.44142 -41.112206 -4.6908523e-17)
(141.93379 -37.678854 0)
(-18.643132 46.058268 0)
(-24.082636 37.167288 -7.127803e-18)
(-3.7947001 16.166127 5.2905978e-16)
(17.670613 -4.3965491 -3.3300339e-16)
(38.917189 -22.933765 -4.6703724e-18)
(56.546813 -35.078342 1.5105246e-16)
(71.435928 -42.467562 1.3270989e-18)
(84.019588 -46.673788 -1.794483e-16)
(94.496778 -48.750749 6.1900487e-18)
(103.14988 -49.363578 6.3718464e-17)
(110.28595 -48.961274 0)
(116.13095 -47.827934 -5.5275031e-18)
(120.87901 -46.113811 -1.1794513e-17)
(124.78455 -43.858185 -5.8473335e-17)
(128.08717 -41.102585 8.695946e-17)
(131.50919 -37.570135 7.9965661e-18)
(-17.117129 53.4947 -1.0730337e-17)
(-23.549306 43.936304 -2.4987158e-15)
(-19.872731 41.314159 1.0788573e-15)
(-17.234844 39.808105 -6.478704e-18)
(-14.589506 38.801839 -5.5253329e-16)
(-1.3822556 24.941173 3.450121e-16)
(15.595323 7.3473504 -3.7350835e-18)
(34.366703 -10.23457 5.1914271e-18)
(52.059007 -23.717048 -3.0966701e-18)
(67.654827 -32.730276 -5.4453232e-18)
(80.957016 -38.575117 5.6542126e-17)
(91.715697 -42.072011 -3.9404453e-17)
(100.01789 -43.430369 -6.9657989e-17)
(106.36448 -42.934358 6.064408e-17)
(111.31267 -40.943424 -1.2024365e-17)
(116.35614 -37.263004 -2.655735e-17)
(-13.656915 57.642697 -2.4578128e-18)
(-16.756705 50.03516 -2.1118031e-18)
(-15.111734 46.61954 -5.2324498e-16)
(-13.776326 43.916758 4.4980964e-16)
(-12.702036 41.491395 -5.0746835e-18)
(-11.295375 39.340598 3.1966367e-16)
(-8.7382339 37.671819 -2.3106045e-16)
(-5.4193344 36.019526 -3.8313898e-16)
(4.9816442 25.835648 -9.5254258e-18)
(20.599653 9.5691833 3.6670847e-16)
(38.46558 -8.0012917 -1.2676238e-16)
(51.848834 -22.042335 0)
(62.683361 -31.731315 6.1085898e-18)
(72.309164 -36.486305 -2.7745879e-17)
(80.88244 -37.375389 1.5253718e-17)
(89.760283 -34.947786 -5.6970331e-19)
(-9.3004064 54.844244 2.4578127e-18)
(-9.5352701 47.586271 -4.5906977e-16)
(-9.3294414 43.611149 3.796949e-16)
(-9.3687763 40.52795 -2.8333268e-18)
(-9.7160275 37.77424 5.8866746e-18)
(-10.332194 35.154498 -1.102971e-18)
(-11.176377 32.585607 -1.8927283e-16)
(-12.180632 29.924835 -1.214223e-17)
(-13.355419 26.757221 1.2340262e-16)
(-15.275655 21.956977 -1.4038019e-16)
(-15.693714 13.559935 1.5194788e-16)
(20.199419 -11.521083 0)
(20.827862 -21.499207 3.9682132e-17)
(28.332299 -27.364104 -2.3961524e-17)
(38.185426 -29.51625 1.9759032e-18)
(50.624878 -28.162369 0)
(-6.3921697 40.101131 -6.3883645e-17)
(-7.1154516 30.019473 1.8147635e-17)
(-9.3985805 23.854913 2.926562e-17)
(-12.017005 18.998871 -2.4020179e-17)
(-14.862715 14.759217 -1.9124322e-18)
(-17.881214 10.848712 9.5675764e-18)
(-21.006743 7.1164825 1.0666571e-17)
(-24.1944 3.4645463 1.2285511e-18)
(-27.52522 -0.18962893 1.2671383e-18)
(-31.132901 -3.9147239 -2.5785666e-17)
(-34.343742 -7.7502983 3.1065645e-17)
(-34.149681 -11.519511 -3.1873263e-18)
(-27.961671 -15.6202 -9.5759065e-18)
(-19.681617 -18.962329 -4.6245567e-18)
(-8.1586745 -20.67477 8.6469585e-21)
(13.996016 -19.820783 -1.814497e-17)
(-6.4200008 -40.019163 -3.0491118e-17)
(-7.1489787 -29.732904 -2.0640275e-17)
(-9.45089 -23.446027 4.2303393e-17)
(-12.097346 -18.496532 -2.3514321e-17)
(-14.978402 -14.180759 1.0399016e-17)
(-18.038374 -10.207115 1.1565965e-21)
(-21.210564 -6.4223903 2.0121744e-17)
(-24.447769 -2.7263134 -7.6922762e-18)
(-27.812764 0.96640577 -4.6783147e-19)
(-31.373247 4.7180516 9.9156203e-18)
(-34.351091 8.5172572 -1.245585e-17)
(-33.787412 12.094313 1.1026722e-17)
(-27.698814 15.733665 -9.4579618e-18)
(-19.503249 18.116441 -3.1924281e-19)
(-9.1468078 18.190264 -4.1020329e-18)
(13.460186 13.026189 -2.9567531e-17)
(-9.3310592 -54.997742 -3.1139632e-18)
(-9.5400003 -47.647582 4.6708423e-16)
(-9.3353792 -43.636363 -3.8248292e-16)
(-9.3901536 -40.531187 3.1310485e-16)
(-9.7601368 -37.750045 -2.5545162e-16)
(-10.397977 -35.074828 0)
(-11.270477 -32.387178 1.8597505e-16)
(-12.359541 -29.490369 -1.4627432e-16)
(-13.664049 -25.925974 -6.2730906e-18)
(-15.330796 -20.558479 0)
(-13.810806 -11.348865 -2.7278137e-17)
(18.444104 12.673894 1.3649797e-17)
(20.253608 22.637371 -4.2156407e-17)
(28.156663 28.380312 3.195376e-17)
(38.083954 30.645525 -1.1438686e-17)
(52.483986 29.046318 8.9812244e-18)
(-13.718242 -57.887604 2.4793705e-18)
(-16.809619 -50.197509 -2.1331524e-18)
(-15.153725 -46.754512 0)
(-13.817029 -44.038486 9.7605292e-18)
(-12.740666 -41.6001 5.6321574e-18)
(-11.323908 -39.41996 3.2391814e-16)
(-8.7467171 -37.68966 -2.6354574e-16)
(-5.4606305 -35.909924 0)
(5.0536909 -25.298862 1.2462614e-19)
(20.94086 -8.567853 -1.0079755e-17)
(38.46962 8.9999357 7.5071965e-18)
(51.693963 22.896758 4.3436789e-18)
(62.445178 32.373887 5.7120215e-18)
(71.945175 36.973873 2.1725902e-17)
(80.287726 37.761426 -1.8878604e-17)
(89.875063 34.892004 1.6537672e-18)
(-17.167952 -53.684722 0)
(-23.583374 -44.057063 1.2600793e-15)
(-19.898089 -41.399572 -2.1661373e-15)
(-17.237222 -39.884459 8.0974858e-16)
(-14.57299 -38.870995 -4.5344803e-18)
(-1.3638945 -25.008943 -1.100045e-17)
(15.640755 -7.3714661 2.3381386e-16)
(34.46884 10.300292 -1.6068078e-16)
(52.168231 23.844793 -9.4298682e-17)
(67.729619 32.935531 7.8004837e-17)
(80.959307 38.847546 0)
(91.631728 42.367427 -4.9953633e-17)
(99.857882 43.715972 2.5994631e-17)
(106.14107 43.166465 0)
(110.99316 41.089829 0)
(116.38311 37.050746 0)
(-18.638309 -46.116331 2.7368003e-15)
(-24.14385 -37.245908 -9.8128856e-16)
(-3.8556891 -16.229814 0)
(17.63966 4.3722059 -2.1696205e-18)
(38.920188 22.961265 -2.1964424e-16)
(56.572982 35.143263 1.5848515e-16)
(71.482914 42.56488 1.112e-16)
(84.08471 46.803799 5.2913541e-18)
(94.576059 48.916002 -7.9078043e-17)
(103.23628 49.563402 3.8541524e-18)
(110.36632 49.185291 0)
(116.18886 48.056477 -9.8817421e-17)
(120.89931 46.320982 1.0601471e-17)
(124.76137 44.011198 7.1604972e-17)
(127.93605 41.235174 0)
(131.48984 37.483173 1.3509397e-17)
(-39.930448 -62.056278 3.1708963e-17)
(19.822607 13.410978 8.9752233e-16)
(47.090173 35.679704 -2.296483e-16)
(66.188241 47.462857 -1.3602819e-16)
(80.584774 53.578122 9.9382271e-17)
(91.70834 56.218444 -8.7594605e-17)
(100.50185 56.77862 6.5090394e-17)
(107.67868 56.119779 7.1435153e-17)
(113.73203 54.758772 -7.3998866e-17)
(118.98434 53.004304 0)
(123.64882 51.025799 0)
(127.85927 48.88563 0)
(131.69362 46.563759 2.1344147e-17)
(135.2231 43.980292 0)
(138.34112 41.242624 8.283496e-17)
(142.57365 37.197967 -1.5823734e-16)
(129.01021 144.69104 0)
(132.79236 150.70274 0)
(134.02472 146.29532 0)
(134.42726 142.72824 2.1877445e-18)
(134.95116 138.53785 -1.6611957e-17)
(135.57164 133.72436 2.0934723e-17)
(136.30877 128.28384 0)
(137.17046 122.1794 -4.2012442e-18)
(138.16085 115.406 0)
(139.278 108.00799 0)
(140.51092 100.07502 0)
(141.85552 91.733457 1.0640621e-17)
(143.35854 83.106685 0)
(145.04319 74.399405 2.3472931e-17)
(146.60896 66.452544 0)
(129.07239 -144.75931 0)
(132.85133 -150.72627 0)
(134.0983 -146.34145 0)
(134.52613 -142.79369 2.1920197e-18)
(135.08087 -138.62961 -1.5574192e-17)
(135.73696 -133.84666 2.3179166e-17)
(136.51024 -128.43854 0)
(137.4025 -122.36264 4.1985537e-18)
(138.40842 -115.60758 0)
(139.51329 -108.20818 0)
(140.69117 -100.24292 0)
(141.92715 -91.82822 -1.0631865e-17)
(143.28091 -83.086303 0)
(144.82903 -74.28185 9.150905e-18)
(146.45375 -66.406183 0)
(71.976816 55.948679 0)
(98.301394 72.840946 0)
(110.63888 79.93661 0)
(117.32389 81.625247 2.0940447e-18)
(121.61411 80.653244 -1.5720043e-17)
(124.85245 78.302416 2.0136948e-17)
(127.69307 75.138095 0)
(130.4765 71.425927 -4.2880228e-18)
(133.35346 67.32066 0)
(136.35212 62.931714 0)
(139.41875 58.348989 0)
(142.45375 53.645187 7.9925734e-18)
(145.33739 48.902421 0)
(147.78343 44.391794 5.1881017e-17)
(150.78539 38.563488 0)
(72.02225 -56.010462 0)
(98.320141 -72.866973 0)
(110.62534 -79.939843 0)
(117.28226 -81.605665 2.0891413e-18)
(121.54558 -80.611201 -1.4379669e-17)
(124.7576 -78.238149 2.2642818e-17)
(127.57422 -75.052953 0)
(130.33961 -71.323645 4.2915458e-18)
(133.20981 -67.208218 0)
(136.21929 -62.819354 0)
(139.32043 -58.248554 0)
(142.4149 -53.569219 -8.0095319e-18)
(145.38956 -48.841124 0)
(148.00046 -44.287538 4.2845421e-17)
(150.79196 -39.068231 0)
(103.99546 148.98114 6.7327705e-20)
(104.18557 -149.05849 -6.7357969e-20)
(37.2341 -10.758107 5.9341554e-19)
(37.317645 10.676696 -5.8974362e-19)
(151.70469 15.029897 0)
(158.59283 0.15791496 0)
(141.36917 -25.727706 0)
(158.36128 0.15389235 0)