/*--------------------------------*- C++ -*----------------------------------*\
| =========                 |                                                 |
| \\      /  F ield         | foam-extend: Open Source CFD                    |
|  \\    /   O peration     | Version:     4.1                                |
|   \\  /    A nd           | Web:         http://www.foam-extend.org         |
|    \\/     M anipulation  |                                                 |
\*---------------------------------------------------------------------------*/
FoamFile
{
    version     2.0;
    format      ascii;
    class       volScalarField;
    location    "0.6";
    object      p;
}
// * * * * * * * * * * * * * * * * * * * * * * * * * * * * * * * * * * * * * //

dimensions      [0 2 -2 0 0 0 0];

internalField   nonuniform List<scalar> 
16796
(
-10.000916
-5.9723703
-4.1867706
-2.5654352
-0.98862489
0.64686883
2.3988103
4.3054876
6.393806
8.6826002
11.183977
13.90369
16.841199
19.989461
23.334782
26.856576
30.527318
34.312474
38.170688
42.053976
45.908225
49.673717
53.2859
56.676209
59.773063
62.502853
64.790412
66.560327
67.739247
68.25668
68.04561
67.04373
65.194455
62.448036
58.762659
54.104997
48.450045
41.782153
34.096731
25.40023
15.710477
5.0570435
-6.5183091
-18.96124
-32.204488
-46.167534
-60.756317
-75.862963
-91.365611
-107.12832
-123.00111
-138.82017
-154.40823
-169.57524
-184.11927
-197.82769
-210.47877
-221.84349
-231.68776
-239.77493
-245.86857
-249.73551
-251.14906
-249.89233
-245.76162
-238.56973
-228.14917
-214.35516
-197.06836
-176.19731
-151.68012
-123.48632
-91.618381
-56.109252
-17.019541
25.557721
71.46822
120.52004
172.52465
227.27506
284.53435
344.04191
405.51847
468.66998
533.19138
598.77065
665.09283
731.84393
798.7149
865.40524
931.62644
997.10505
1061.5853
1124.8312
1186.6287
1246.786
1305.1353
1361.5321
1415.8558
1468.0082
1517.9133
1565.5157
1610.7791
1653.6846
1694.2293
1732.4241
1768.2922
1801.867
1833.1908
1862.313
1889.289
1914.1795
1937.0493
1957.9631
1976.9859
1994.1908
2009.6667
2023.531
2035.8973
2046.7357
2055.9289
2064.413
2076.1728
2093.329
-8.0084143
-5.5681626
-4.0596557
-2.5515492
-1.0234202
0.58698675
2.3247453
4.2233777
6.3078468
8.5961455
11.100009
13.825027
16.770586
19.929602
23.288342
26.826165
30.515468
34.321604
38.20306
42.111655
45.993056
49.787336
53.429678
56.851163
59.97971
62.741192
65.059494
66.858612
68.06537
68.609113
68.42248
67.442925
65.613497
62.884155
59.212745
54.565494
48.916379
42.24912
34.559073
25.852413
16.146706
5.471313
-6.132178
-18.609582
-31.893748
-45.904222
-60.546953
-75.714013
-91.283415
-107.11901
-123.07053
-138.97374
-154.65092
-169.9114
-184.55253
-198.36088
-211.11381
-222.58129
-232.52816
-240.71661
-246.90904
-250.87107
-252.3748
-251.2022
-247.14844
-240.02532
-229.66447
-215.92031
-198.67296
-177.83056
-153.3311
-125.14421
-93.273034
-57.7555
-18.66642
23.888831
69.789798
118.88577
170.9771
225.83581
283.21621
342.85422
404.46842
467.763
532.43134
598.15987
664.63202
731.53221
798.54979
865.38269
931.74092
997.34967
1061.9519
1125.3107
1187.211
1247.4605
1305.8907
1362.3573
1416.7392
1468.9386
1518.8799
1566.5079
1611.7869
1654.6988
1695.2413
1733.426
1769.2768
1802.8276
1834.1214
1863.2079
1890.1425
1914.9848
1937.7982
1958.6499
1977.6084
1994.7434
2010.1345
2023.8812
2036.0637
2046.6495
2055.6368
2063.84
2073.2862
2082.6444
-6.6217043
-5.1029927
-3.9927457
-2.7079866
-1.3214044
0.18692183
1.8446942
3.6783283
5.7099682
7.9566281
10.429862
13.13541
16.072911
19.235529
22.609698
26.174839
29.90327
33.760124
37.703486
41.684645
45.648621
49.534529
53.276158
56.802846
60.041285
62.915921
65.350793
67.270281
68.59867
69.26253
69.192404
68.323503
66.59683
63.960134
60.368626
55.785901
50.186142
43.553614
35.882018
27.176015
17.452074
6.7386386
-4.9233047
-17.479942
-30.864227
-44.995551
-59.779436
-75.107259
-90.856056
-106.88843
-123.05257
-139.18249
-155.09837
-170.60729
-185.50408
-199.57265
-212.58749
-224.3156
-234.5188
-242.95622
-249.38717
-253.57432
-255.28689
-254.30414
-250.41875
-243.44027
-233.19831
-219.5456
-202.36086
-181.55123
-157.05364
-128.83726
-96.905684
-61.298738
-22.091414
20.609668
66.6724
115.93747
168.20989
223.26659
280.86257
340.73238
402.59243
466.14437
531.07879
597.07919
663.82598
731.00051
798.28908
865.38668
932.00054
997.85329
1062.6857
1126.2588
1188.356
1248.784
1307.3736
1363.9799
1418.482
1470.7827
1520.8066
1568.5
1613.8281
1656.7743
1697.3377
1735.5315
1771.3813
1804.9229
1836.2006
1865.266
1892.1761
1916.9919
1939.7776
1960.6002
1979.5285
1996.6342
2011.9973
2025.7042
2037.8107
2048.3132
2057.3493
2065.5264
2073.2423
2078.1487
-5.9927185
-4.7668193
-3.893306
-2.7793209
-1.5136416
-0.094571021
1.494724
3.2750784
5.266018
7.4834604
9.9386148
12.637213
15.579009
18.757281
22.158514
25.76207
29.540083
33.457359
37.471522
41.533265
45.586604
49.568973
53.412961
57.047666
60.398885
63.389741
65.94258
67.97983
69.424432
70.201589
70.240189
69.473879
67.84201
65.290679
61.773473
57.252312
51.699006
45.095427
37.433893
28.718001
18.96307
8.1964743
-3.541698
-16.198332
-29.706854
-43.986867
-58.943821
-74.468708
-90.437849
-106.71278
-123.14026
-139.55251
-155.76755
-171.58995
-186.81172
-201.2136
-214.56667
-226.63434
-237.17461
-245.94273
-252.69413
-257.18757
-259.18853
-258.47268
-254.82937
-248.06513
-238.00691
-224.5051
-207.43661
-186.70724
-162.25219
-134.04013
-102.07616
-66.401969
-27.088842
15.760011
62.010681
111.49863
164.02728
219.37193
277.28428
337.49517
399.71724
463.64818
528.97442
595.37507
662.52598
730.10389
797.79048
865.27628
932.26431
998.47329
1063.6405
1127.5243
1189.9055
1250.589
1309.4046
1366.2068
1420.8746
1473.3113
1523.4426
1571.2158
1616.598
1659.5743
1700.146
1738.3283
1774.1488
1807.6454
1838.8645
1867.8594
1894.6887
1919.4149
1942.1033
1962.8212
1981.6364
1998.6201
2013.8487
2027.3945
2039.2996
2049.5941
2058.4772
2066.3249
2072.8553
2076.1537
-5.8296385
-4.7118032
-4.0117564
-3.0597781
-1.9302408
-0.62343354
0.87354971
2.5788571
4.5106789
6.6845077
9.1116342
11.798105
14.744047
17.943059
21.381826
25.039742
28.888777
32.893378
37.010585
41.189977
45.373506
49.497183
53.493329
57.289759
60.810029
63.975233
66.705274
68.919835
70.539433
71.486767
71.688031
71.074151
69.581742
67.154251
63.742823
59.307228
53.816837
47.251102
39.600225
30.866451
21.063464
10.217427
-1.6325569
-14.434045
-28.120815
-42.612455
-57.814011
-73.615663
-89.892489
-106.50434
-123.29583
-140.09658
-156.72158
-172.97187
-188.63557
-203.48912
-217.29897
-229.82361
-240.81594
-250.02594
-257.20376
-262.10291
-264.48379
-264.1172
-260.78798
-254.29852
-244.47217
-231.15608
-214.22487
-193.5822
-169.16132
-140.93072
-108.89783
-73.106081
-33.627342
9.4341716
55.94276
105.73127
158.60165
214.32763
272.65807
333.31993
396.02137
460.45504
526.3019
593.23526
660.9249
729.0414
797.26029
865.26615
932.75634
999.44445
1065.0632
1129.367
1192.1336
1253.1656
1312.2913
1369.3645
1424.2644
1476.8947
1527.1827
1575.0776
1620.5486
1663.5835
1704.1863
1742.3752
1778.1807
1811.6435
1842.8129
1871.7445
1898.4989
1923.1405
1945.7356
1966.3516
1985.056
2001.9178
2017.0066
2030.3805
2042.0725
2052.1273
2060.7171
2067.9949
2073.5011
2075.9848
-5.8223522
-4.7388611
-4.1565583
-3.333437
-2.3230368
-1.1200093
0.28920728
1.922429
3.7976725
5.930592
8.3328878
11.01113
13.965971
17.191453
20.674567
24.394816
28.324089
32.426573
36.658554
40.96793
45.294762
49.575282
53.740467
57.71563
61.422456
64.779763
67.704908
70.114912
71.927568
73.062793
73.443885
72.998792
71.661106
69.371254
66.077418
61.736548
56.31516
49.79004
42.148887
33.391587
23.530012
12.588885
0.60595117
-12.367338
-26.265385
-41.007996
-56.49999
-72.630845
-89.27443
-106.28885
-123.51644
-140.78392
-157.90287
-174.67034
-190.86989
-206.27293
-220.64044
-233.72502
-245.27339
-255.02919
-262.73606
-268.14108
-270.99832
-271.07254
-268.14289
-262.00651
-252.48215
-239.41268
-222.66974
-202.15388
-177.79572
-149.56312
-117.46503
-81.544654
-41.874301
1.4407423
48.262425
98.420557
151.71411
207.9135
266.76348
327.9861
391.28382
456.34301
522.83779
590.4341
658.7941
727.58054
796.46115
865.11293
933.2261
1000.5077
1066.6846
1131.5063
1194.7467
1256.2055
1315.7091
1373.1103
1428.2887
1481.1488
1531.6197
1579.6528
1625.2205
1668.3137
1708.9401
1747.1216
1782.8925
1816.2976
1847.3894
1876.2272
1902.8749
1927.3995
1949.8696
1970.3543
1988.9221
2005.6417
2020.5785
2033.7836
2045.291
2055.1527
2063.4915
2070.3102
2075.1505
2077.2084
-5.9711536
-4.9406861
-4.4755662
-3.7834775
-2.9006507
-1.8136514
-0.50558387
1.0429271
2.8509312
4.9350199
7.3078262
9.9768203
12.943463
16.202451
19.741228
23.539483
27.569113
31.793955
36.169035
40.640063
45.146693
49.624297
54.000945
58.199763
62.139779
65.736893
68.905336
71.558749
73.611452
74.979788
75.583384
75.34648
74.198951
72.07757
68.926975
64.700705
59.361961
52.884435
45.252881
36.464493
26.529374
15.470398
3.3238568
-9.8598625
-24.015761
-39.063779
-54.908348
-71.438005
-88.525094
-106.02557
-123.77897
-141.60858
-159.32183
-176.71099
-193.5542
-209.61684
-224.65329
-238.40914
-250.62368
-261.03289
-269.37263
-275.3822
-278.80808
-279.40772
-276.95345
-271.23615
-262.06906
-249.29001
-232.76721
-212.39762
-188.10904
-159.86873
-127.68724
-91.608527
-51.70549
-8.0847654
39.113459
89.716204
143.51917
200.28886
259.76519
321.66442
385.6823
451.49768
518.77638
587.17549
656.34785
725.94665
795.63014
865.06603
933.93579
1001.9384
1068.7938
1134.2454
1198.0624
1260.0409
1320.005
1377.8068
1433.3256
1486.4675
1537.1635
1585.3681
1631.057
1674.2252
1714.8845
1753.0615
1788.7949
1822.1336
1853.1346
1881.861
1908.3801
1932.7618
1955.0771
1975.3968
1993.7902
2010.3254
2025.0644
2038.0551
2049.3346
2058.9563
2067.0041
2073.4134
2077.7937
2079.6007
-6.1630481
-5.1913188
-4.8399777
-4.2739651
-3.5166486
-2.5465525
-1.3423331
0.11806601
1.855591
3.888391
6.230484
8.8905808
11.871218
15.167961
18.768885
22.653981
26.795357
31.156319
35.69029
40.341348
45.049205
49.746797
54.359918
58.809202
63.010668
66.877045
70.319046
73.246551
75.569961
77.201548
78.056765
78.05562
77.123734
75.193677
72.205972
68.110166
62.865651
56.442504
48.822049
39.998272
29.978979
18.784878
6.4504674
-6.9751787
-21.427869
-36.827843
-53.079234
-70.069643
-87.669802
-105.73333
-124.09668
-142.57926
-160.98385
-179.09726
-196.6914
-213.5247
-229.34393
-243.88646
-256.88295
-268.06036
-277.14539
-283.86817
-287.96615
-289.18813
-287.29828
-282.08001
-273.33992
-260.90981
-244.65363
-224.46399
-200.26528
-172.02377
-139.75128
-103.4926
-63.321583
-19.346604
28.28962
79.410856
133.80887
191.24545
251.4548
314.1464
379.0082
445.71019
513.90844
583.24952
653.3752
723.92735
794.55282
864.90829
934.66479
1003.5118
1071.1607
1137.348
1201.837
1264.4201
1324.9186
1383.1836
1439.0948
1492.5597
1543.5122
1591.9103
1637.7342
1680.9836
1721.6758
1759.8427
1795.5286
1828.7878
1859.6826
1888.2808
1914.6541
1938.8765
1961.0219
1981.1636
1999.3723
2015.7162
2030.2549
2043.0347
2054.0943
2063.4824
2071.2544
2077.3255
2081.3801
2083.0259
-6.4397069
-5.5560481
-5.3358532
-4.9082434
-4.288024
-3.4465301
-2.3575712
-0.99568429
0.66267551
2.6378047
4.9455802
7.5963348
10.593981
13.935202
17.608863
21.595394
25.867193
30.386773
35.1057
39.967338
44.910352
49.864806
54.754013
59.495564
64.00203
68.182377
71.943203
75.190017
77.828642
79.766606
80.914516
81.187479
80.506215
78.798458
76.000013
72.055839
66.921023
60.561492
52.954723
44.091102
33.975968
22.627431
10.078082
-3.624447
-18.416886
-34.2198
-50.936981
-68.454985
-86.64273
-105.35121
-124.4134
-143.64434
-162.84153
-181.78559
-200.24134
-217.95926
-234.6774
-250.12372
-264.01891
-276.07955
-286.02176
-293.56506
-298.43647
-300.37477
-299.1347
-294.49105
-286.24279
-274.2148
-258.26615
-238.28458
-214.19079
-185.94977
-153.57442
-117.11067
-76.633436
-32.252878
15.885648
67.602413
122.68482
180.88928
241.94354
305.54938
371.38576
439.11248
508.37432
578.8056
650.03516
721.69152
793.40821
864.8289
935.61232
1005.4367
1074.0036
1141.0411
1206.3062
1269.5863
1330.6998
1389.4967
1445.8571
1499.6906
1550.934
1599.5499
1645.5233
1688.8599
1729.583
1767.7308
1803.354
1836.5134
1867.277
1895.7185
1921.9148
1945.9442
1967.8851
1987.8138
2005.8036
2021.9237
2036.2341
2048.7818
2059.6074
2068.755
2076.2641
2082.0514
2085.8628
2087.3957
-6.7508122
-5.9704177
-5.8946866
-5.6152902
-5.1410102
-4.4368916
-3.4718875
-2.2167326
-0.64478711
1.2668705
3.5364004
6.1761208
9.1916265
12.580991
16.334051
20.431865
24.847128
29.541585
34.465266
39.560741
44.764809
50.005018
55.201856
60.269551
65.116863
69.648548
73.766606
77.371636
80.364305
82.64679
84.124222
84.706172
84.307814
82.85141
80.267421
76.495597
71.486168
65.200312
57.611245
48.705292
38.484477
26.964117
14.174741
0.16220123
-15.011359
-31.266976
-48.508177
-66.620452
-85.470802
-104.90739
-124.75937
-144.83697
-164.93182
-184.81762
-204.25122
-222.97414
-240.71454
-257.18969
-272.10888
-285.17686
-296.09757
-304.57834
-310.33419
-313.09235
-312.59668
-308.61202
-300.92853
-289.36322
-273.76939
-254.02937
-230.05964
-201.82363
-169.33527
-132.64191
-91.819967
-46.981675
1.7247007
54.115596
109.97358
169.04914
231.06277
295.7076
362.65249
431.54567
502.01899
573.69268
646.18066
719.09604
792.05684
864.69164
936.64491
1007.5819
1077.1927
1145.1959
1211.3409
1275.4098
1337.2179
1396.6139
1453.4787
1507.7243
1559.2916
1608.1481
1654.285
1697.7148
1738.4679
1776.59
1812.1393
1845.1836
1875.798
1904.0628
1930.0607
1953.8755
1975.59
1995.2845
2013.0353
2028.9133
2042.98
2055.2845
2065.8691
2074.7753
2082.0365
2087.5806
2091.2
2092.6476
-7.1238211
-6.4712881
-6.5615033
-6.4479089
-6.1351786
-5.5827778
-4.75487
-3.6181141
-2.1423672
-0.30164663
1.9249043
4.5519611
7.5871223
11.030132
14.871994
19.09459
23.670928
28.562014
33.716438
39.075528
44.574065
50.13682
55.681092
61.117295
66.349888
71.278858
75.80101
79.811406
83.204886
85.877593
87.728485
88.660894
88.583761
87.413193
85.073651
81.499047
76.634148
70.434845
62.869622
53.920214
43.584687
31.87561
18.821133
4.465097
-11.131656
-27.890746
-45.71547
-64.49022
-84.079953
-104.32977
-125.06468
-146.08962
-167.18976
-188.13112
-208.66169
-228.51298
-247.40206
-265.03415
-281.10572
-295.30808
-307.33142
-316.86921
-323.62285
-327.30641
-327.65144
-324.41148
-317.36672
-306.32534
-291.13412
-271.6695
-247.84332
-219.61721
-187.00599
-150.05865
-108.85335
-63.504525
-14.163518
38.982013
95.709434
155.76275
218.85454
284.66838
352.86183
423.07012
494.91045
567.987
641.89657
716.23453
790.60105
864.6073
937.88128
1010.0732
1080.8601
1149.9496
1217.0826
1282.0351
1344.619
1404.6816
1462.1051
1516.8044
1568.725
1617.8406
1664.1495
1707.6718
1748.4466
1786.528
1821.9827
1854.887
1885.324
1913.3814
1939.149
1962.7167
1984.1729
2003.6026
2021.086
2036.6971
2050.4996
2062.5457
2072.8795
2081.5426
2088.5676
2093.8962
2097.3554
2098.7339
-7.5380341
-7.031833
-7.3081124
-7.3779378
-7.2428152
-6.8570604
-6.1800986
-5.1743044
-3.8056884
-2.0448144
0.13226621
2.7429582
5.7972025
9.2967126
13.233895
17.591731
22.343574
27.449639
32.857152
38.506263
44.329386
50.248405
56.17709
62.021593
67.681656
73.051966
78.023552
82.485308
86.32558
89.433774
91.70196
93.02651
93.309407
92.459898
90.395751
87.044386
82.344448
76.24601
68.712262
59.719736
49.261952
37.348471
24.004734
9.2722819
-6.7895831
-24.103229
-42.571838
-62.078726
-82.486736
-103.63772
-125.35226
-147.42954
-169.64768
-191.76427
-213.51751
-234.6278
-254.79983
-273.72536
-291.08644
-306.55926
-319.81847
-330.54186
-338.41537
-343.13821
-344.42794
-342.02531
-335.69926
-325.24807
-310.51117
-291.35853
-267.697
-239.48608
-206.74154
-169.51445
-127.88519
-81.970666
-31.925476
22.058381
79.75276
140.89476
205.1884
272.30684
341.89523
413.57428
486.94474
561.59265
637.09532
713.02788
788.97005
864.51304
939.26601
1012.862
1084.9631
1155.2645
1223.4976
1289.4316
1352.8747
1413.6731
1471.7106
1526.9057
1579.2096
1628.6029
1675.0924
1718.7072
1759.4959
1797.5225
1832.8634
1865.6043
1895.8375
1923.659
1949.1665
1972.4571
1993.6252
2012.7615
2029.9508
2045.2709
2058.7892
2070.5612
2080.6342
2089.0511
2095.8475
2100.9786
2104.2969
2105.6159
-8.0064295
-7.6691751
-8.1553519
-8.4300419
-8.4922109
-8.2912278
-7.7817489
-6.9216459
-5.6727503
-4.0017872
-1.8813189
0.70916973
3.7823191
7.3421157
11.382636
15.888236
20.832588
26.174894
31.8616
37.831512
44.014023
50.327959
56.683178
62.981204
69.116522
74.977935
80.450063
85.414939
89.753689
93.348231
96.082975
97.84656
98.533246
98.044663
96.291151
93.192947
88.681869
82.701606
75.209427
66.176073
55.589936
43.457369
29.800802
14.659172
-1.9099827
-19.829923
-39.003841
-59.314007
-80.621096
-102.76356
-125.55723
-148.79516
-172.24779
-195.66354
-218.76987
-241.27491
-262.86969
-283.23095
-302.02469
-318.91018
-333.54461
-345.58818
-354.70944
-360.59084
-362.93424
-361.46605
-355.94262
-346.15126
-331.92322
-313.12157
-289.64781
-261.4591
-228.57216
-191.04051
-148.94717
-102.41162
-51.591888
3.3155459
62.076797
124.42171
190.04524
258.60931
329.74548
403.05845
478.13057
554.52745
631.80431
709.5132
787.21055
864.46471
940.86332
1016.0199
1089.5794
1161.2232
1230.6717
1297.6871
1362.0733
1423.6759
1482.3805
1538.1102
1590.8228
1640.5074
1687.1802
1730.881
1771.6692
1809.6201
1844.8211
1877.3686
1907.3652
1934.9164
1960.1287
1983.1071
2003.9532
2022.7641
2039.6297
2054.6327
2067.8448
2079.3255
2089.1258
2097.2915
2103.8625
2108.8065
2111.9951
2113.26
-8.5238961
-8.3770883
-9.0977734
-9.6002859
-9.8813208
-9.8853085
-9.5620162
-8.8645619
-7.7502556
-6.1815904
-4.1272296
-1.5631462
1.5263879
5.1479536
9.2976107
13.961316
19.113189
24.711634
30.702448
37.022597
43.598467
50.345524
57.169376
63.966487
70.625547
77.028875
83.054009
88.5754
93.466185
97.599999
100.85278
103.10463
104.24125
104.15589
102.75068
99.937958
95.641974
89.799456
82.361098
73.291316
62.572624
50.207824
36.216015
20.633177
3.5148425
-15.063355
-35.004808
-56.190841
-78.479961
-101.70711
-125.68313
-150.19451
-175.00349
-199.84852
-224.44535
-248.48868
-271.65442
-293.60274
-313.98174
-332.4318
-348.5906
-362.09858
-372.60477
-379.7728
-383.28684
-382.85726
-378.22635
-369.16929
-355.50824
-337.09893
-313.83719
-285.67765
-252.63816
-214.77535
-172.17546
-124.9608
-73.292935
-17.372914
42.559548
106.22686
173.31447
243.47241
316.31754
391.43697
468.39265
546.72721
625.97097
705.6498
785.29354
864.44456
942.66595
1019.549
1094.7195
1167.8429
1238.6279
1306.8285
1372.2446
1434.721
1494.1461
1550.4487
1603.5943
1653.5818
1700.4385
1744.2163
1784.987
1822.8385
1857.8708
1890.1923
1919.9169
1947.1609
1972.0404
1994.6694
2015.1577
2033.609
2050.1196
2064.7777
2077.6599
2088.8303
2098.3441
2106.2511
2112.596
2117.3573
2120.4219
2121.6358
-9.0953907
-9.1625548
-10.144687
-10.900509
-11.424543
-11.656141
-11.539971
-11.024096
-10.060932
-8.6083254
-6.6306092
-4.099821
-0.99673241
2.6881756
6.9532749
11.786323
17.162147
23.038705
29.360775
36.063207
43.069484
50.291343
57.629756
64.975651
72.211353
79.212048
85.847478
91.98373
97.485136
102.21619
106.04351
108.83774
110.47523
110.83993
109.82497
107.33402
103.28295
97.600915
90.231288
81.131635
70.277857
57.668855
43.319919
27.263941
9.5541795
-9.7351136
-30.507725
-52.644155
-76.000784
-100.40896
-125.67435
-151.57651
-177.86889
-204.27924
-230.51061
-256.24302
-281.13581
-304.83085
-326.95643
-347.13194
-364.97326
-380.09878
-392.13565
-400.72641
-405.53549
-406.25533
-402.61259
-394.36914
-381.33716
-363.36467
-340.34164
-312.22006
-279.01912
-240.79925
-197.65048
-149.6982
-97.107519
-40.084042
21.126745
86.239783
154.93081
226.83734
301.56051
378.66825
457.69989
538.1724
619.58797
701.44279
783.23648
864.48179
944.7139
1023.4988
1100.4407
1175.1873
1247.4342
1316.9265
1383.46
1446.8793
1507.0765
1563.9869
1617.5856
1667.8827
1714.9184
1758.7583
1799.4885
1837.2111
1872.0401
1904.0974
1933.5095
1960.4047
1984.9098
2007.1486
2027.2397
2045.2946
2061.4165
2075.6996
2088.226
2099.0651
2108.2765
2115.9147
2122.0291
2126.608
2129.5504
2130.7143
-9.7230798
-10.029069
-11.301583
-12.338549
-13.13233
-13.616952
-13.731693
-13.4192
-12.62658
-11.306579
-9.4187287
-6.9306678
-3.8192156
-0.071519383
4.3134768
9.3256029
14.940714
21.116564
27.796678
34.913696
42.388103
50.127604
58.02813
65.974577
73.842296
81.49865
88.804812
95.617678
101.79189
107.1819
111.64405
115.03865
117.23171
118.09706
117.51793
115.38852
111.61551
106.11982
98.836636
89.716344
78.727698
65.864591
51.13806
34.578092
16.235221
-3.8180013
-25.486032
-48.648754
-73.160524
-98.849098
-125.5148
-152.92994
-180.83867
-208.95726
-236.97506
-264.55613
-291.34171
-316.95351
-340.99791
-363.07101
-382.76444
-399.67189
-413.39606
-423.55589
-429.79369
-431.78188
-429.22979
-421.88467
-409.54779
-392.05916
-369.30273
-341.22788
-307.85558
-269.25104
-225.50892
-176.75791
-123.1667
-64.945272
-2.3446196
64.342948
134.78346
208.60153
285.38163
364.67088
445.98371
528.80842
612.6155
696.86748
781.02964
864.58101
947.02502
1027.8991
1106.7828
1183.3043
1257.1444
1328.0391
1395.7797
1460.2116
1521.2312
1578.7822
1632.8506
1683.4599
1730.665
1774.5472
1815.2087
1852.7677
1887.3537
1919.1037
1948.1583
1974.6586
1998.7436
2020.5477
2040.1989
2057.8176
2073.5144
2087.3899
2099.5326
2110.017
2118.9079
2126.2647
2132.1411
2136.5342
2139.3535
2140.4672
-10.409011
-10.98019
-12.574205
-13.922547
-15.015322
-15.780889
-16.152768
-16.067775
-15.467241
-14.298316
-12.515226
-10.080705
-6.9671366
-3.1579012
1.3511405
6.552204
12.422511
18.919803
25.986242
33.552144
41.534849
49.837736
58.351278
66.953812
75.513073
83.887862
91.92996
99.486173
106.40051
112.51641
117.67893
121.73706
124.54548
125.96693
125.87382
124.15003
120.69217
115.41215
108.2362
99.107115
87.986047
74.86008
59.736128
42.641552
23.623587
2.7527227
-19.876487
-44.143553
-69.900975
-96.972975
-125.15444
-154.21019
-183.87456
-213.85165
-243.81607
-273.41461
-302.26877
-329.97816
-356.12501
-380.2796
-402.00657
-420.8721
-436.45154
-448.3374
-456.14731
-459.53138
-458.17969
-451.82356
-440.2524
-423.29798
-400.83831
-372.82031
-339.26731
-300.25046
-255.86999
-206.25819
-151.58725
-92.071157
-27.965927
40.429409
112.77147
188.67184
267.6975
349.37319
433.18593
518.59202
605.02627
691.91302
778.67845
864.76318
949.63451
1032.7974
1113.8039
1192.26
1267.8307
1340.2419
1409.2808
1474.7941
1536.6843
1594.9049
1649.455
1700.3734
1747.7321
1791.6303
1832.1883
1869.5423
1903.8394
1935.2331
1963.8794
1989.9338
2013.5482
2034.8688
2054.0341
2071.1734
2086.4055
2099.8384
2111.5667
2121.6708
2130.2209
2137.281
2142.9093
2147.1106
2149.8035
2150.8659
-11.158036
-12.023134
-13.972443
-15.665271
-17.089372
-18.167039
-18.825597
-18.995545
-18.611917
-17.615715
-15.95529
-13.587917
-10.481002
-6.6136618
-1.9782228
3.4202928
9.5608668
16.401455
23.88282
31.93282
40.465507
49.379624
58.55975
67.877097
77.191093
86.351174
95.198839
103.56984
111.29654
118.21027
124.14379
128.93365
132.4222
134.46003
134.90781
133.63811
130.5367
125.50555
118.46136
109.33867
98.089876
84.694479
69.155595
51.497193
31.762898
10.020768
-13.636001
-39.08689
-66.182791
-94.744544
-124.5616
-155.39107
-186.95708
-218.95082
-251.03117
-282.82631
-313.93624
-343.93639
-372.38241
-398.81598
-422.77176
-443.78521
-461.4011
-475.18238
-484.71899
-489.63622
-489.60279
-484.33261
-473.60225
-457.23517
-435.10364
-407.15255
-373.40841
-333.94995
-288.88415
-238.34724
-182.51478
-121.60423
-55.875736
14.365854
88.768472
166.93086
248.40195
332.68251
419.22952
507.46362
596.77933
686.55766
776.18019
865.04375
952.57448
1038.2406
1121.5629
1202.1231
1279.5684
1353.6143
1424.0445
1490.7077
1553.5141
1612.4292
1667.4677
1718.6861
1766.176
1810.0567
1850.4693
1887.5701
1921.5255
1952.5074
1980.6889
2006.2409
2029.3294
2050.1133
2068.7423
2085.3555
2100.0804
2113.0326
2124.3134
2134.0093
2142.1958
2148.9418
2154.3093
2158.3105
2160.8721
2161.8814
-11.972058
-13.161554
-15.502483
-17.575652
-19.366305
-20.790192
-21.767943
-22.223199
-22.084111
-21.28492
-19.767488
-17.483015
-14.393341
-10.472776
-5.7096169
-0.10570732
6.3201264
13.526324
21.452256
30.023196
39.149763
48.725761
58.629416
68.72422
78.860557
88.877639
98.605719
107.86845
116.48544
124.27481
131.05581
136.65144
140.89057
143.61058
144.65931
143.89706
141.1979
136.45281
129.56849
120.47031
109.10102
95.431607
79.461332
61.210504
40.718683
18.051032
-6.7009947
-33.41728
-61.947452
-92.109205
-123.68665
-156.42908
-190.05007
-224.22724
-258.60274
-292.78475
-326.34998
-358.84746
-389.8036
-418.72846
-445.12337
-468.48954
-488.33752
-504.19712
-515.62733
-522.22566
-523.63719
-519.55678
-509.74727
-494.02383
-472.25349
-444.37977
-410.43362
-370.50327
-324.70393
-273.17626
-216.09889
-153.69195
-86.218465
-13.987648
62.640984
143.254
227.382
314.50029
404.03299
495.36094
587.83317
680.78136
773.5362
865.4444
955.88519
1044.285
1130.1297
1212.9735
1292.4446
1368.2477
1440.1631
1508.0434
1571.8083
1631.438
1686.9652
1738.4671
1786.0577
1829.8797
1870.0969
1906.8883
1940.4418
1970.9494
1998.6028
2023.5898
2046.0917
2066.2809
2084.319
2100.3557
2114.5275
2126.958
2137.7555
2147.0127
2154.8106
2161.2228
2166.3148
2170.1055
2172.5297
2173.4834
-12.856576
-14.403727
-17.175736
-19.668424
-21.864385
-23.672303
-25.005555
-25.7803
-25.917153
-25.342916
-23.992267
-21.809647
-18.750676
-14.784233
-9.8940306
-4.0782527
2.6469769
10.240926
18.641604
27.771579
37.537905
47.829129
58.516632
69.455549
80.486415
91.437282
102.12611
112.36333
121.95458
130.70354
138.41471
144.8963
149.96249
153.43628
155.15161
154.95544
152.70922
148.29195
141.59967
132.54777
121.06862
107.12339
90.707409
71.83714
50.547391
26.900014
0.98439608
-27.080361
-57.143078
-89.018671
-122.48613
-157.28693
-193.12384
-229.66034
-266.52089
-303.29221
-339.52588
-374.74213
-408.43525
-440.08037
-469.14177
-495.08241
-517.37452
-535.51071
-549.01522
-557.45449
-560.44734
-557.66783
-548.86408
-533.84325
-512.46795
-484.68136
-450.5206
-410.08597
-363.50277
-310.91668
-252.50911
-188.50168
-119.15849
-44.791004
34.235759
117.49748
204.50656
294.7115
387.50055
482.21011
578.13773
674.5588
770.74567
865.9877
959.61046
1050.9929
1139.5814
1224.8999
1306.5559
1384.2428
1457.7386
1526.9014
1591.6631
1652.0212
1708.03
1759.7907
1807.443
1851.1556
1891.1184
1927.5356
1960.6186
1990.5817
2017.6367
2041.9897
2063.8385
2083.3699
2100.758
2116.1637
2129.733
2141.5978
2151.8734
2160.6589
2168.0409
2174.0976
2178.8974
2182.4658
2184.7451
2185.6404
-13.814395
-15.754688
-19.00028
-21.954953
-24.598462
-26.831846
-28.560594
-29.692705
-30.140525
-29.822662
-28.665848
-26.607017
-23.59484
-19.59208
-14.577257
-8.5443618
-1.506233
6.4976403
15.403983
25.132548
35.58672
46.64947
58.184821
70.03887
82.041439
94.008407
105.74431
117.0451
127.70117
137.5004
146.23121
153.68566
159.66195
163.96746
166.42103
166.85518
165.11781
161.07478
154.6109
145.63061
134.05533
119.83503
102.96084
83.444972
61.317245
36.635758
9.4872112
-20.010956
-51.707347
-85.414607
-120.90696
-157.91825
-196.14027
-235.22187
-274.76888
-314.34522
-353.47532
-391.64809
-428.32259
-462.93536
-494.90948
-523.66518
-548.6317
-569.25982
-585.03468
-595.4879
-600.209
-598.84935
-591.14137
-576.88469
-555.93875
-528.248
-493.85802
-452.88443
-405.46505
-351.75136
-291.92713
-226.2139
-154.87433
-78.219202
3.3838525
89.501714
179.62931
273.18722
369.52457
467.92812
567.63695
667.862
767.80863
866.70022
963.80092
1058.4357
1150.0062
1238.003
1322.011
1401.7126
1476.8844
1547.3925
1613.184
1674.2773
1730.752
1782.7372
1830.4018
1873.9443
1913.5838
1949.5521
1982.087
2011.4269
2037.8055
2061.4488
2082.5717
2101.3766
2118.0509
2132.7669
2145.6807
2156.9324
2166.6449
2174.9235
2181.8602
2187.5374
2192.0266
2195.3594
2197.4855
2198.3189
-14.851012
-17.222944
-20.988181
-24.4511
-27.588449
-30.292992
-32.461627
-33.993426
-34.791655
-34.765887
-33.834057
-31.924755
-28.978896
-24.952354
-19.817775
-13.564354
-6.200958
2.2346762
11.678098
22.046164
33.238499
45.132171
57.583301
70.428203
83.485048
96.556431
109.43222
121.89254
133.71112
144.65857
154.50577
163.02721
170.00369
175.22564
178.49555
179.63034
178.46334
174.84614
168.65167
159.77217
148.11798
133.62704
116.28493
96.098701
73.093924
47.324283
18.873007
-12.1449
-45.57857
-81.239061
-118.89638
-158.27701
-199.06184
-240.88471
-283.33198
-325.94332
-368.21405
-409.59905
-449.51878
-487.36713
-522.52136
-554.35392
-582.24569
-605.60032
-623.85884
-636.51362
-643.1215
-643.30891
-636.79165
-623.36258
-602.8798
-575.29125
-540.65411
-499.10356
-450.79297
-395.88075
-334.55247
-267.02759
-193.56398
-114.4676
-30.104667
59.086105
152.58368
249.77987
349.98133
452.41916
556.26585
660.65827
764.72447
867.6118
968.51382
1066.6938
1161.5034
1252.3957
1338.9318
1420.7829
1497.7264
1569.639
1636.4868
1698.3136
1755.2283
1807.3925
1855.0087
1898.3089
1937.5447
1972.979
2004.8783
2033.5072
2059.1232
2081.9733
2102.2913
2120.2953
2136.1869
2150.1504
2162.3518
2172.9401
2182.0453
2189.7792
2196.2389
2201.5112
2205.6698
2208.7524
2210.7159
2211.4839
-15.970271
-18.815045
-23.149584
-27.170916
-30.852586
-34.078379
-36.735832
-38.714237
-39.906876
-40.213354
-39.541874
-37.811751
-34.955262
-30.920531
-25.673585
-19.198152
-11.498349
-2.609543
7.4028093
18.452621
30.435706
43.222909
56.661866
70.578314
84.777745
99.048258
113.16369
126.88686
139.97329
152.17474
163.24295
172.93326
181.00756
187.23792
191.40914
193.32131
192.79209
189.65772
183.7784
175.03278
163.32053
148.56806
130.75065
109.86977
85.949618
59.037946
29.213586
-3.4118442
-38.688952
-76.428089
-116.39579
-158.31174
-201.8461
-246.61749
-292.19207
-338.08394
-383.7572
-428.62988
-472.08017
-513.45487
-552.08025
-587.2752
-618.36619
-644.70353
-665.67833
-680.7386
-689.40444
-691.2749
-686.04813
-673.51138
-653.52394
-626.0403
-591.13352
-548.96371
-499.70372
-443.52042
-380.60065
-311.15914
-235.44447
-153.75228
-66.441725
26.047504
123.18095
224.32138
328.72933
435.57338
543.94985
652.91007
761.49255
868.75665
973.8146
1075.8593
1174.1857
1268.2057
1357.4551
1441.5945
1520.4044
1593.7759
1661.6987
1724.2467
1781.5637
1833.8489
1881.3429
1924.3156
1963.0551
1997.8584
2029.0236
2056.8438
2081.6021
2103.568
2122.9948
2140.1177
2155.1527
2168.2962
2179.7248