/*--------------------------------*- C++ -*----------------------------------*\
| =========                 |                                                 |
| \\      /  F ield         | foam-extend: Open Source CFD                    |
|  \\    /   O peration     | Version:     4.1                                |
|   \\  /    A nd           | Web:         http://www.foam-extend.org         |
|    \\/     M anipulation  |                                                 |
\*---------------------------------------------------------------------------*/
FoamFile
{
    version     2.0;
    format      ascii;
    class       surfaceScalarField;
    location    "0.6";
    object      phi;
}
// * * * * * * * * * * * * * * * * * * * * * * * * * * * * * * * * * * * * * //

dimensions      [0 3 -1 0 0 0 0];

internalField   nonuniform List<scalar> 
32976
(
-0.22426561
0.00048842251
-0.22479884
0.00053322505
-0.22534083
0.00054198785
-0.22588312
0.00054228967
-0.22642055
0.00053743742
-0.22694934
0.00052878932
-0.22746621
0.00051686522
-0.22796818
0.00050197288
-0.22845252
0.00048434018
-0.22891673
0.00046420841
-0.22935855
0.00044182119
-0.22977602
0.00041746455
-0.23016745
0.00039143825
-0.23053154
0.00036408401
-0.23086729
0.00033575536
-0.23117413
0.00030683983
-0.23145186
0.00027773045
-0.23170071
0.00024884311
-0.2319213
0.00022059108
-0.2321147
0.00019339828
-0.23228237
0.00016767685
-0.23242621
0.00014383559
-0.23254847
0.00012226144
-0.23265179
0.00010332385
-0.23273915
8.7360848e-05
-0.23281383
7.4678295e-05
-0.23287938
6.5547479e-05
-0.23293958
6.0204098e-05
-0.23299841
5.882237e-05
-0.23305994
6.1528533e-05
-0.23312833
6.8398305e-05
-0.23320778
7.945112e-05
-0.23330243
9.4649998e-05
-0.23341633
0.00011389754
-0.23355337
0.00013703925
-0.23371723
0.00016385719
-0.23391132
0.00019409251
-0.23413875
0.00022743039
-0.23440225
0.00026349917
-0.23470413
0.0003018773
-0.23504624
0.00034211104
-0.23542994
0.00038370129
-0.23585607
0.00042612688
-0.23632491
0.0004688382
-0.23683618
0.00051127058
-0.23738903
0.00055284967
-0.23798202
0.00059299902
-0.23861317
0.00063114904
-0.23927992
0.00066674246
-0.23997916
0.00069924444
-0.24070731
0.0007281491
-0.2414603
0.00075298711
-0.24223363
0.00077333239
-0.24302244
0.00078881024
-0.24382154
0.00079910008
-0.24462548
0.00080394367
-0.24542863
0.00080314804
-0.24622522
0.00079658908
-0.24700943
0.00078421362
-0.24777548
0.00076604234
-0.24851764
0.0007421666
-0.24923039
0.00071275054
-0.24990842
0.00067802725
-0.25054672
0.00063829562
-0.25114063
0.00059391577
-0.25168594
0.0005453032
-0.25217886
0.00049292373
-0.25261614
0.00043728341
-0.25299507
0.00037892412
-0.25331348
0.00031841344
-0.2535698
0.00025632079
-0.25376302
0.00019321573
-0.25389271
0.00012969102
-0.25395905
6.6346519e-05
-0.25396283
3.7746397e-06
-0.25390526
-5.7569567e-05
-0.25378737
-0.00011789338
-0.25361012
-0.00017724954
-0.25337538
-0.00023474063
-0.25308604
-0.00028933145
-0.25274576
-0.00034028713
-0.25235865
-0.00038710686
-0.25192922
-0.00042942603
-0.25146225
-0.00046697197
-0.25096271
-0.00049954478
-0.2504357
-0.00052700957
-0.24988641
-0.00054929296
-0.24932002
-0.00056638114
-0.24874171
-0.00057831775
-0.24815651
-0.00058520116
-0.24756932
-0.0005871821
-0.24698487
-0.00058445718
-0.2464076
-0.00057726635
-0.24584171
-0.0005658862
-0.24529109
-0.00055062413
-0.24475928
-0.00053181208
-0.24424948
-0.00050979995
-0.24376453
-0.00048495018
-0.2433069
-0.00045762952
-0.24287869
-0.0004282055
-0.24248165
-0.00039703993
-0.24211717
-0.00036448451
-0.24178629
-0.00033087667
-0.24148976
-0.00029653681
-0.24122799
-0.00026176427
-0.24100115
-0.00022683689
-0.24080915
-0.0001920089
-0.24065163
-0.00015751038
-0.24052809
-0.00012354779
-0.24043778
-9.0304112e-05
-0.24037984
-5.7939082e-05
-0.24035325
-2.6591451e-05
-0.24035686
3.6074571e-06
-0.24038934
3.247755e-05
-0.24044919
5.9851387e-05
-0.24053489
8.5705793e-05
-0.24064494
0.00011005021
-0.24077775
0.00013280302
-0.24093143
0.00015368021
-0.24110323
0.0001718068
-0.24128914
0.0001859063
-0.24148711
0.00019797334
-0.24170274
0.00021562768
0.00023270796
-0.255648
0.00077771954
-0.25592652
0.00081174428
-0.25620793
0.00082339562
-0.25648908
0.00082343949
-0.25676672
0.00081508079
-0.25703777
0.00079983013
-0.25729932
0.00077841779
-0.25754868
0.00075133094
-0.25778329
0.00071895765
-0.25800081
0.00068172008
-0.25819904
0.00064005879
-0.25837607
0.00059449365
-0.25853022
0.00054558198
-0.25866009
0.00049395932
-0.25876463
0.00044029506
-0.25884311
0.0003853219
-0.25889518
0.00032979446
-0.25892084
0.00027450916
-0.25892052
0.00022026868
-0.25889502
0.00016789373
-0.25884553
0.00011819282
-0.25877366
7.1963951e-05
-0.25868137
2.9973507e-05
-0.258571
-7.0487258e-06
-0.25844522
-3.8421448e-05
-0.258307
-6.3534649e-05
-0.25815958
-8.1876461e-05
-0.25800637
-9.3008085e-05
-0.25785101
-9.6534367e-05
-0.25769732
-9.2159586e-05
-0.25754923
-7.969843e-05
-0.2574107
-5.9075927e-05
-0.25728572
-3.0333752e-05
-0.25717819
6.3714389e-06
-0.25709192
5.0766353e-05
-0.25703051
0.00010245535
-0.25699731
0.00016089066
-0.2569953
0.00022542206
-0.25702715
0.00029534545
-0.25709513
0.00036985459
-0.25720108
0.00044806668
-0.2573464
0.00052901521
-0.25753195
0.00061167886
-0.25775809
0.00069498015
-0.25802463
0.00077780695
-0.2583308
0.00085902477
-0.2586753
0.00093749177
-0.25905622
0.0010120762
-0.25947115
0.0010816683
-0.2599171
0.0011451995
-0.26039061
0.0012016561
-0.26088772
0.0012500943
-0.26140404
0.0012896543
-0.26193481
0.0013195757
-0.26247491
0.0013392047
-0.26301898
0.0013480099
-0.26356142
0.0013455887
-0.2640965
0.0013316754
-0.26461844
0.0013061454
-0.26512141
0.0012690215
-0.26559972
0.0012204685
-0.26604776
0.0011607974
-0.26646019
0.0010904583
-0.26683193
0.0010100344
-0.26715825
0.00092023353
-0.26743482
0.00082187635
-0.26765779
0.00071588614
-0.26782377
0.00060326959
-0.26792996
0.00048510862
-0.26797408
0.00036254055
-0.26795445
0.00023669003
-0.26786996
0.00010872655
-0.26772015
-2.0121067e-05
-0.26750515
-0.00014865569
-0.26722564
-0.00027573775
-0.26688289
-0.00040031285
-0.26647959
-0.00052120238
-0.26601955
-0.0006372853
-0.26550658
-0.00074770615
-0.26494425
-0.00085166666
-0.26433615
-0.00094838336
-0.26368611
-0.0010371505
-0.26299817
-0.0011173677
-0.26227659
-0.0011885473
-0.26152582
-0.0012503152
-0.26075042
-0.0013024123
-0.25995502
-0.0013446927
-0.25914428
-0.0013771222
-0.25832282
-0.001399776
-0.25749519
-0.0014128326
-0.2566658
-0.0014165713
-0.2558389
-0.0014113582
-0.25501852
-0.0013976425
-0.25420847
-0.0013759438
-0.25341225
-0.0013468403
-0.2526331
-0.0013109577
-0.25187395
-0.0012689557
-0.25113738
-0.0012215189
-0.25042567
-0.0011693396
-0.24974076
-0.0011131122
-0.24908428
-0.0010535206
-0.24845754
-0.00099122969
-0.24786154
-0.0009268774
-0.247297
-0.00086107031
-0.24676439
-0.00079437469
-0.24626391
-0.00072731685
-0.24579554
-0.00066037861
-0.24535906
-0.00059399652
-0.24495404
-0.00052856169
-0.24457993
-0.00046442195
-0.24423598
-0.00040188186
-0.24392136
-0.00034120957
-0.24363511
-0.00028264274
-0.24337626
-0.00022637772
-0.24314382
-0.00017259008
-0.24293663
-0.00012147853
-0.24275335
-7.3235608e-05
-0.24259247
-2.8077168e-05
-0.24245226
1.347617e-05
-0.24233066
5.0208372e-05
-0.24222587
8.1109155e-05
-0.24213749
0.00010959993
-0.24205505
0.00013318667
0.00011310505
-0.2596633
0.0009980318
-0.25986283
0.0010112663
-0.26005192
0.0010124875
-0.26023131
0.0010028338
-0.26039976
0.00098352397
-0.26055547
0.00095553992
-0.2606966
0.00091955355
-0.26082142
0.00087614616
-0.26092831
0.00082585166
-0.26101587
0.00076927475
-0.26108287
0.00070706076
-0.26112834
0.00063996145
-0.26115154
0.00056878577
-0.26115202
0.00049444301
-0.26112962
0.00041789268
-0.26108447
0.00034017241
-0.26101703
0.00026235257
-0.26092807
0.00018555021
-0.26081869
0.00011089268
-0.26069032
3.952039e-05
-0.26054469
-2.7442556e-05
-0.26038382
-8.8896879e-05
-0.26021006
-0.00014378727
-0.26002599
-0.000191125
-0.25983441
-0.00022999874
-0.25963836
-0.0002595879
-0.25944107
-0.00027916497
-0.25924594
-0.0002881319
-0.25905645
-0.00028602573
-0.25887608
-0.00027253133
-0.25870831
-0.00024746988
-0.25855656
-0.0002108272
-0.25842415
-0.00016274314
-0.25831426
-0.00010351809
-0.25822987
-3.362009e-05
-0.25817375
4.6327188e-05
-0.25814841
0.00013555817
-0.25815615
0.00023315905
-0.25819887
0.00033806916
-0.25827812
0.00044909971
-0.25839501
0.00056495594
-0.25855023
0.00068423247
-0.258744
0.00080545239
-0.25897608
0.00092706539
-0.25924575
0.0010474776
-0.2595518
0.001165068
-0.25989251
0.0012782088
-0.26026573
0.0013852901
-0.2606688
0.0014847357
-0.26109863
0.0015750299
-0.26155171
0.001654737
-0.26202414
0.001722522
-0.26251165
0.0017771702
-0.26300969
0.0018176098
-0.2635134
0.0018429215
-0.26401775
0.0018523613
-0.26451754
0.0018453705
-0.26500745
0.0018215859
-0.26548215
0.001780848
-0.26593634
0.0017232083
-0.26636479
0.0016489236
-0.26676245
0.0015584613
-0.26712449
0.0014524895
-0.26744632
0.0013318686
-0.26772373
0.001197639
-0.26795285
0.0010510045
-0.26813028
0.00089331733
-0.26825306
0.0007260493
-0.26831874
0.00055078702
-0.26832538
0.00036917937
-0.26827155
0.00018285913
-0.26815639
-6.4375394e-06
-0.2679796
-0.00019690639
-0.26774145
-0.00038680675
-0.26744278
-0.00057441123
-0.26708499
-0.00075810198
-0.26666991
-0.0009362833
-0.26619974
-0.0011074508
-0.26567718
-0.001270266
-0.26510535
-0.0014234969
-0.26448773
-0.0015660052
-0.26382811
-0.0016967713
-0.26313056
-0.0018149213
-0.26239936
-0.0019197402
-0.261639
-0.0020106757
-0.26085407
-0.0020873425
-0.26004924
-0.0021495214
-0.25922921
-0.0021971581
-0.25839862
-0.0022303591
-0.25756207
-0.002249385
-0.256724
-0.0022546452
-0.25588868
-0.0022466778
-0.25506018
-0.0022261448
-0.25424231
-0.0021938119
-0.25343862
-0.0021505325
-0.25265234
-0.0020972299
-0.25188642
-0.0020348779
-0.25114345
-0.0019644873
-0.25042571
-0.0018870796
-0.24973515
-0.0018036799
-0.24907337
-0.0017152973
-0.24844169
-0.0016229124
-0.2478411
-0.0015274662
-0.24727232
-0.0014298531
-0.24673578
-0.0013309078
-0.24623169
-0.001231406
-0.24576001
-0.001132058
-0.2453205
-0.0010335071
-0.24491274
-0.00093632972
-0.24453612
-0.00084103851
-0.24418992
-0.00074808115
-0.24387328
-0.00065785042
-0.24358523
-0.00057068874
-0.24332472
-0.0004868932
-0.24309057
-0.00040673522
-0.24288157
-0.00033048083
-0.24269642
-0.00025838559
-0.24253372
-0.00019077488
-0.24239193
-0.00012831216
-0.24226964
-7.2090071e-05
-0.24216607
-2.2455364e-05
-0.24207974
2.3267383e-05
-0.24200098
5.4431064e-05
4.7722656e-05
-0.26013325
0.0012000842
-0.26032041
0.0011984277
-0.26049559
0.0011876606
-0.26065897
0.0011662208
-0.26080965
0.0011341991
-0.26094623
0.0010921214
-0.26106722
0.0010405458
-0.26117118
0.00098009922
-0.26125675
0.00091143049
-0.26132278
0.00083530433
-0.26136827
0.00075255178
-0.26139245
0.0006641365
-0.26139476
0.00057109827
-0.26137492
0.00047459694
-0.26133288
0.00037585838
-0.26126891
0.00027620021
-0.26118354
0.0001769842
-0.26107761
7.9623154e-05
-0.26095227
-1.445265e-05
-0.26080895
-0.00010380184
-0.26064939
-0.00018700117
-0.26047562
-0.00026266251
-0.26028995
-0.00032945822
-0.26009493
-0.0003861435
-0.25989336
-0.00043156807
-0.25968824
-0.00046471281
-0.25948273
-0.00048467806
-0.25928012
-0.00049073807
-0.25908382
-0.00048232609
-0.25889728
-0.00045907413
-0.25872395
-0.00042079193
-0.25856728
-0.00036750498
-0.25843058
-0.00029943853
-0.25831707
-0.00021702432
-0.25822978
-0.00012091168
-0.25817151
-1.1946808e-05
-0.25814478
0.00010882546
-0.25815179
0.00024017709
-0.25819443
0.00038070275
-0.25827416
0.00052883406
-0.25839207
0.00068286308
-0.25854878
0.00084094343
-0.25874447
0.0010011404
-0.25897883
0.0011614286
-0.25925109
0.0013197323
-0.25955996
0.0014739445
-0.25990371
0.0016219544
-0.2602801
0.0017616777
-0.26068644
0.0018910774
-0.26111961
0.0020081977
-0.26157606
0.0021111878
-0.26205186
0.0021983288
-0.26254275
0.0022680586
-0.26304414
0.0023189998
-0.26355119
0.0023499726
-0.26405886
0.0023600242
-0.26456193
0.0023484403
-0.2650551
0.0023147606
-0.26553304
0.0022587878
-0.26599043
0.0021805988
-0.26642204
0.0020805368
-0.2668228
0.0019592194
-0.26718784
0.0018175259
-0.26751256
0.0016565875
-0.26779269
0.0014777709
-0.26802434
0.0012826583
-0.26820405
0.0010730269
-0.26832881
0.0008508107
-0.26839613
0.00061810677
-0.26840401
0.00037705625
-0.26835099
0.00012983668
-0.2682362
-0.00012122863
-0.26805931
-0.00037378911
-0.26782057
-0.00062555332
-0.26752071
-0.00087427123
-0.26716104
-0.0011177686
-0.26674337
-0.0013539517
-0.26626997
-0.0015808497
-0.26574359
-0.0017966535
-0.26516738
-0.0019997011
-0.2645449
-0.002188486
-0.26388
-0.0023616686
-0.26317683
-0.0025181
-0.26243973
-0.0026568364
-0.26167326
-0.0027771467
-0.26088208
-0.0028785189
-0.26007094
-0.0029606608
-0.2592446
-0.0030234992
-0.25840779
-0.0030671748
-0.25756514
-0.0030920332
-0.25672116
-0.0030986192
-0.25588019
-0.0030876483
-0.25504634
-0.0030600019
-0.25422345
-0.0030166993
-0.25341511
-0.0029588766
-0.25262457
-0.0028877626
-0.2518548
-0.0028046532
-0.25110839
-0.0027108927
-0.25038763
-0.0026078394
-0.24969446
-0.0024968552
-0.24903047
-0.0023792801
-0.24839697
-0.0022564157
-0.24779493
-0.0021295096
-0.24722503
-0.0019997475
-0.24668771
-0.0018682346
-0.24618311
-0.0017359974
-0.2457112
-0.0016039749
-0.24527169
-0.0014730171
-0.24486413
-0.0013438846
-0.24448792
-0.0012172531
-0.24414229
-0.001093712
-0.24382636
-0.00097377663
-0.24353916
-0.00085789249
-0.2432796
-0.00074644759
-0.24304655
-0.00063979054
-0.24283878
-0.00053824589
-0.24265504
-0.00044212962
-0.24249396
-0.00035185559
-0.24235415
-0.00026811818
-0.2422345
-0.00019173934
-0.24213412
-0.00012283568
-0.24205092
-5.9934255e-05
-0.24198053
-1.5959568e-05
2.6426214e-06
-0.26019812
0.0013996152
-0.26038687
0.0013871768
-0.26056445
0.0013652457
-0.26073015
0.0013319203
-0.26088283
0.0012868774
-0.2610211
0.0012303921
-0.2611435
0.0011629415
-0.26124859
0.0010851896
-0.26133504
0.00099788592
-0.26140168
0.00090194329
-0.2614475
0.00079836988
-0.2614717
0.00068833511
-0.2614737
0.00057310528
-0.2614532
0.00045408817
-0.26141011
0.00033277482
-0.26134468
0.00021076349
-0.2612574
8.9708477e-05
-0.2611491
-2.8678487e-05
-0.26102089
-0.00014265778
-0.26087421
-0.00025048115
-0.2607108
-0.00035041871
-0.26053267
-0.00044078702
-0.26034216
-0.00051997349
-0.26014183
-0.00058647173
-0.25993451
-0.00063888422
-0.25972325
-0.00067597893
-0.25951125
-0.00069667271
-0.25930189
-0.00070009761
-0.25909864
-0.00068557627
-0.25890503
-0.00065268136
-0.25872462
-0.00060120335
-0.25856092
-0.00053120268
-0.25841738
-0.00044298647
-0.25829728
-0.00033711637
-0.25820377
-0.00021442464
-0.25813973
-7.5983999e-05
-0.25810779
7.6878357e-05
-0.25811023
0.0002426155
-0.25814899
0.00041946641
-0.25822562
0.00060546834
-0.25834126
0.0007984974
-0.25849657
0.00099625266
-0.25869176
0.0011963318
-0.25892656
0.0013962246
-0.25920018
0.001593361
-0.25951138
0.0017851367
-0.25985837
0.0019689461
-0.26023891
0.0021422192
-0.26065028
0.0023024471
-0.2610893
0.0024472227
-0.26155239
0.0025742698
-0.26203553
0.002681476
-0.2625344
0.0027669217
-0.26304431
0.0028289153
-0.26356035
0.0028660085
-0.26407735
0.0028770316
-0.26459002
0.002861109
-0.26509294
0.0028176777
-0.26558065
0.0027464987
-0.26604772
0.0026476716
-0.26648881
0.0025216258
-0.26689872
0.0023691301
-0.26727248
0.0021912784
-0.26760537
0.001989478
-0.26789303
0.0017654295
-0.26813147
0.0015211023
-0.26831715
0.0012587099
-0.268447
0.00098066092
-0.26851847
0.00068957437
-0.26852952
0.00038810235
-0.26847867
7.8992217e-05
-0.26836506
-0.00023484047
-0.26818835
-0.0005505011
-0.26794879
-0.00086511391
-0.26764718
-0.001175884
-0.26728485
-0.0014800927
-0.26686367
-0.0017751361
-0.26638596
-0.0020585603
-0.26585452
-0.002328092
-0.26527258
-0.0025816405
-0.26464374
-0.00281732
-0.26397195
-0.0030334607
-0.26326142
-0.0032286306
-0.26251661
-0.0034016524
-0.26174214
-0.0035516131
-0.26094279
-0.0036778725
-0.26012338
-0.0037800658
-0.25928878
-0.0038581023
-0.25844379
-0.0039121602
-0.25759315
-0.0039426752
-0.25674144
-0.0039503333
-0.25589305
-0.0039360358
-0.25505216
-0.003900892
-0.25422267
-0.0038461847
-0.25340821
-0.0037733432
-0.25261206
-0.0036839123
-0.25183719
-0.0035795202
-0.25108623
-0.0034618554
-0.25036145
-0.0033326219
-0.24966477
-0.0031935273
-0.2489978
-0.00304625
-0.2483618
-0.0028924189
-0.24775772
-0.0027335937
-0.24718621
-0.0025712552
-0.24664766
-0.0024067818
-0.24614221
-0.0022414525
-0.24566975
-0.0020764358
-0.24522998
-0.0019127877
-0.24482241
-0.001751451
-0.2444464
-0.0015932622
-0.24410116
-0.001438948
-0.2437858
-0.0012891408
-0.24349931
-0.001144384
-0.24324061
-0.0010051465
-0.24300856
-0.00087183827
-0.24280198
-0.00074482726
-0.24261964
-0.00062446851
-0.24246029
-0.00051120661
-0.24232275
-0.00040565747
-0.2422061
-0.00030838638
-0.24210935
-0.00021958542
-0.24203103
-0.00013826012
-0.24196998
-7.7012273e-05
-3.1882767e-05
-0.26023986
0.0016009234
-0.26043267
0.0015799818
-0.26061519
0.0015477701
-0.26078605
0.001502777
-0.26094381
0.0014446429
-0.26108698
0.0013735577
-0.26121401
0.0012899734
-0.26132342
0.0011946039
-0.26141384
0.0010882989
-0.26148401
0.00097211755
-0.26153288
0.0008472438
-0.2615596
0.00071505365
-0.26156354
0.00057704252
-0.26154432
0.00043487048
-0.26150185
0.00029029959
-0.2614363
0.00014521648
-0.26134817
1.5751544e-06
-0.26123824
-0.00013860369
-0.26110764
-0.00027325926
-0.26095779
-0.00040033007
-0.26079045
-0.00051776286
-0.26060766
-0.00062357636
-0.26041178
-0.00071585538
-0.26020543
-0.0007928188
-0.2599915
-0.00085281259
-0.2597731
-0.00089438076
-0.25955353
-0.00091624478
-0.25933624
-0.0009173853
-0.25912481
-0.0008970068
-0.25892287
-0.0008546164
-0.2587341
-0.00078997998
-0.25856211
-0.00070318933
-0.25841047
-0.00059463142
-0.25828258
-0.00046499725
-0.25818171
-0.00031530371
-0.25811084
-0.00014685292
-0.2580727
3.8741959e-05
-0.25806969
0.00023960621
-0.25810384
0.00045361864
-0.25817678
0.00067840977
-0.25828971
0.00091142668
-0.25844337
0.0011499072
-0.258638
0.0013909679
-0.25887338
0.0016316002
-0.25914875
0.0018687258
-0.25946284
0.0020992293
-0.25981389
0.0023199953
-0.26019962
0.0025279535
-0.26061728
0.0027201078
-0.26106364
0.0028935852
-0.26153504
0.0030456697
-0.26202741
0.0031738407
-0.2625363
0.0032758085
-0.26305694
0.0033495545
-0.26358428
0.0033933504
-0.26411305
0.0034057998
-0.26463779
0.0033858574
-0.26515297
0.0033328506
-0.26565296
0.0032464948
-0.2661322
0.0031269101
-0.26658519
0.0029746121
-0.26700658
0.0027905239
-0.26739126
0.0025759595
-0.26773439
0.0023326102
-0.26803149
0.0020625206
-0.26827844
0.0017680602
-0.26847163
0.0014518922
-0.26860788
0.0011169162
-0.26868459
0.000766284
-0.26869968
0.0004031943
-0.26865167
3.0974895e-05
-0.26853964
-0.00034686815
-0.26836327
-0.00072686651
-0.26812283
-0.0011055599
-0.26781913
-0.001479581
-0.26745356
-0.001845658
-0.26702804
-0.0022006605
-0.26654497
-0.0025416352
-0.26600722
-0.0028658393
-0.26541811
-0.0031707488
-0.26478134
-0.0034540917
-0.26410094
-0.0037138593
-0.26338124
-0.0039483298
-0.26262681
-0.004156087
-0.26184239
-0.0043360324
-0.26103286
-0.0044873961
-0.26020319
-0.0046097403
-0.25935833
-0.0047029589
-0.25850322
-0.0047672714
-0.25764269
-0.0048032098
-0.25678141
-0.0048116097
-0.25592388
-0.0047935674
-0.25507434
-0.0047504318
-0.25423676
-0.0046837616
-0.25341481
-0.0045952922
-0.25261183
-0.0044868981
-0.25183079
-0.0043605533
-0.25107435
-0.004218303
-0.25034476
-0.0040622092
-0.24964395
-0.0038943358
-0.24897349
-0.0037167094
-0.24833462
-0.0035312942
-0.24772824
-0.0033399687
-0.24715498
-0.0031445138
-0.24661518
-0.0029465851
-0.24610891
-0.0027477165
-0.24563604
-0.0025493066
-0.24519621
-0.0023526173
-0.24478889
-0.0021587731
-0.24441339
-0.0019687683
-0.24406887
-0.001783464
-0.24375441
-0.0016036052
-0.24346896
-0.0014298276
-0.24321144
-0.0012626723
-0.24298067
-0.0011026005
-0.24277549
-0.00095001328
-0.24259467
-0.00080528552
-0.24243703
-0.00066884421
-0.24230151
-0.00054117688
-0.24218724
-0.0004226566
-0.24209327
-0.0003135627
-0.24201895
-0.00021257595
-0.24196438
-0.00013158617
-6.0809531e-05
-0.26029434
0.0018070376
-0.26049279
0.0017784306
-0.26068156
0.0017365427
-0.2608589
0.0016801171
-0.26102314
0.0016088774
-0.2611726
0.0015230245
-0.26130566
0.0014230321
-0.26142074
0.0013096827
-0.26151637
0.0011839329
-0.26159125
0.0010469901
-0.26164422
0.00090021625
-0.26167436
0.00074519718
-0.26168098
0.00058366211
-0.26166364
0.00041752969
-0.26162218
0.00024884124
-0.26155675
7.9780798e-05
-0.26146778
-8.7386841e-05
-0.26135607
-0.00025031997
-0.2612227
-0.0004066254
-0.26106911
-0.00055391781
-0.26089708
-0.00068980006
-0.26070868
-0.00081197751
-0.26050631
-0.00091822227
-0.26029266
-0.0010064635
-0.2600707
-0.0010747744
-0.25984362
-0.0011214636
-0.25961482
-0.001145044
-0.25938787
-0.0011443331
-0.25916647
-0.001118408
-0.25895439
-0.0010667025
-0.25875541
-0.00098895136
-0.25857333
-0.00088527372
-0.25841183
-0.00075613412
-0.25827447
-0.00060235281
-0.25816464
-0.00042513403
-0.25808548
-0.00022601351
-0.25803984
-6.8948054e-06
-0.25803025
0.00023000786
-0.25805883
0.00048220284
-0.25812733
0.00074690582
-0.25823702
0.0010211181
-0.25838871
0.0013016043
-0.25858273
0.0015849836
-0.25881886
0.0018677337
-0.25909639
0.0021462508
-0.25941405
0.0024168907
-0.25977007
0.0026760111
-0.26016214
0.002920023
-0.26058745
0.0031454257
-0.26104273
0.0033488624
-0.26152422
0.0035271602
-0.26202775
0.0036773739
-0.26254877
0.0037968273
-0.26308238
0.0038831603
-0.26362338
0.003934351
-0.26416634
0.0039487647
-0.26470566
0.0039251762
-0.26523561
0.0038627958
-0.2657504
0.0037612876
-0.26624428
0.0036207897
-0.26671157
0.0034419047
-0.26714676
0.0032257131
-0.26754456
0.0029737558
-0.26789997
0.0026880173
-0.26820834
0.0023708993
-0.26846547
0.002025186
-0.26866759
0.001654008
-0.26881145
0.0012607758
-0.26889435
0.00084919097
-0.26891419
0.00042303207
-0.26886944
-1.3774628e-05
-0.26875919
-0.00045712388
-0.2685831
-0.00090294788
-0.26834148
-0.0013471878
-0.26803517
-0.0017858867
-0.26766562
-0.0022152048
-0.26723481
-0.002631471
-0.26674523
-0.0030312192
-0.26619984
-0.0034112272
-0.26560206
-0.0037685292
-0.2649557
-0.0041004573
-0.2642649
-0.0044046543
-0.26353413
-0.0046791001
-0.26276808
-0.0049221336
-0.26197165
-0.0051324657
-0.26114985
-0.0053091945
-0.26030778
-0.0054518089
-0.25945055
-0.0055601897
-0.25858322
-0.0056346024
-0.25771075
-0.0056756825
-0.25683793
-0.0056844248
-0.25596937
-0.005662133
-0.25510939
-0.0056104091
-0.25426205
-0.005531103
-0.25343107
-0.0054262724
-0.25261983
-0.0052981377
-0.25183135
-0.0051490351
-0.25106827
-0.0049813817
-0.25033287
-0.0047976119
-0.24962704
-0.0046001593
-0.24895234
-0.0043914095
-0.24830997
-0.004173672
-0.24770078
-0.0039491513
-0.24712536
-0.0037199346
-0.24658399
-0.0034879584
-0.24607669
-0.0032550135
-0.24560327
-0.0030227297
-0.24516331
-0.002792574
-0.24475624
-0.00256585
-0.2443813
-0.002343707
-0.24403763
-0.0021271355
-0.24372424
-0.001916988
-0.24344008
-0.0017139853
-0.24318403
-0.0015187317
-0.2429549
-0.0013317303
-0.2427515
-0.001153405
-0.24257266
-0.00098413231
-0.24241721
-0.000824293
-0.24228414
-0.00067424644
-0.24217256
-0.00053423461
-0.24208159
-0.00040453318
-0.24201108
-0.00028308546
-0.24196119
-0.0001814811
-8.639506e-05
-0.26036629
0.0020190365
-0.2605713
0.0019834379
-0.26076706
0.0019323027
-0.26095157
0.001864625
-0.26112294
0.0017802555
-0.26127938
0.0016794556
-0.2614191
0.0015627527
-0.26154043
0.0014310151
-0.26164181
0.0012853139
-0.26172183
0.0011270101
-0.26177926
0.00095764734
-0.26181309
0.00077902627
-0.26182254
0.00059311599
-0.26180712
0.00040210131
-0.26176659
0.00020831291
-0.26170105
1.4242625e-05
-0.26161091
-0.0001775225
-0.26149693
-0.00036430464
-0.26136019
-0.00054336753
-0.26120213
-0.00071197468
-0.26102454
-0.00086739368
-0.26082953
-0.0010069822
-0.26061957
-0.0011281837
-0.26039741
-0.0012286243
-0.2601661
-0.001306088
-0.25992893
-0.0013586322
-0.25968942
-0.0013845468
-0.25945128
-0.0013824733
-0.25921834
-0.0013513497
-0.25899452
-0.0012905274
-0.25878377
-0.0011997025
-0.25859002
-0.0010790167
-0.25841715
-0.00092900927
-0.25826887
-0.00075062962
-0.25814873
-0.00054527211
-0.25806004
-0.00031471092
-0.25800578
-6.1145814e-05
-0.25798863
0.00021285691
-0.25801085
0.00050442279
-0.25807429
0.00081034197
-0.25818033
0.0011271534
-0.25832985
0.0014511331
-0.25852325
0.0017783839
-0.25876037
0.0021048518
-0.25904051
0.0024263886
-0.25936242
0.0027388011
-0.25972431
0.0030378995
-0.26012384
0.0033195557
-0.26055816
0.0035797438
-0.2610239
0.0038146029
-0.26151722
0.0040204826
-0.26203384
0.0041939943
-0.26256907
0.0043320565
-0.26311786
0.0044319506
-0.26367486
0.0044913451
-0.26423444
0.004508353
-0.26479083
0.0044815573
-0.26533807
0.004410042
-0.2658702
0.0042934134
-0.26638123
0.0041318246
-0.26686529
0.0039259646
-0.26731666
0.0036770757
-0.26772983
0.0033869326
-0.26809964
0.0030578246
-0.26842126
0.0026925245
-0.26869033
0.0022942492
-0.26890294
0.0018666168
-0.26905573
0.0014135713
-0.26914593
0.00093938676
-0.26917135
0.00044845351
-0.26913044
-5.4680886e-05
-0.26902227
-0.00056529623
-0.26884652
-0.0010786988
-0.26860349
-0.0015902132
-0.26829411
-0.0020952709
-0.26791987
-0.0025894458
-0.26748283
-0.0030685089
-0.26698558
-0.0035284669
-0.26643121
-0.0039656062
-0.26582323
-0.0043765084
-0.26516558
-0.0047580986
-0.26446258
-0.0051076611
-0.26371881
-0.0054228683
-0.26293914
-0.0057018061
-0.26212861
-0.0059429899
-0.26129243
-0.006145382
-0.26043584
-0.0063083978
-0.25956412
-0.0064319069
-0.2586825
-0.0065162269
-0.25779607
-0.006562105
-0.25690979
-0.0065707072
-0.25602837
-0.0065435587
-0.25515624
-0.0064825316
-0.25429756
-0.006389785
-0.25345611
-0.0062677183
-0.25263533
-0.0061189177
-0.25183827
-0.0059461006
-0.25106758
-0.0057520752
-0.25032552
-0.0055396655
-0.24961399
-0.0053116898
-0.24893449
-0.005070907
-0.24828818
-0.0048199825
-0.24767588
-0.0045614566
-0.24709808
-0.0042977293
-0.24655502
-0.0040310227
-0.24604665
-0.0037633874
-0.24557269
-0.0034966852
-0.24513268
-0.0032325871
-0.24472595
-0.0029725737
-0.24435171
-0.0027179453
-0.24400903
-0.002469817
-0.24369688
-0.0022291421
-0.24341415
-0.0019967184
-0.24315967
-0.0017732045
-0.24293227
-0.0015591343
-0.24273073
-0.0013549422
-0.24255388
-0.0011609869
-0.24240059
-0.00097758424
-0.24226986
-0.0008049746
-0.2421608
-0.00064329098
-0.24207262
-0.00049271018
-0.24200537
-0.00035034045
-0.24195887
-0.00022798103
-0.00010981486
-0.26045398
0.0022386106
-0.26066681
0.0021962667
-0.26087066
0.002136156
-0.26106339
0.0020573476
-0.26124293
0.0019598
-0.26140733
0.0018438521
-0.26155468
0.0017101031
-0.26168318
0.0015595194
-0.26179116
0.0013932942
-0.2618771
0.0012129472
-0.26193966
0.001020209
-0.26197774
0.00081710066
-0.26199046
0.00060583836
-0.26197724
0.00038888171
-0.26193779
0.00016886155
-0.26187214
-5.1407249e-05
-0.26178065
-0.00026900635
-0.26166405
-0.00048090561
-0.26152341
-0.0006840147
-0.26136016
-0.00087521493
-0.26117614
-0.0010514198
-0.26097349
-0.0012096307
-0.26075474
-0.0013469389
-0.26052271
-0.0014606469
-0.26028057
-0.0015482317
-0.26003172
-0.0016074813
-0.25977982
-0.001636445
-0.25952872
-0.0016335738
-0.25928242
-0.0015976532
-0.259045
-0.0015279411
-0.25882062
-0.0014240868
-0.25861339
-0.0012862486
-0.25842736
-0.001115038
-0.25826646
-0.00091153342
-0.2581344
-0.00067732251
-0.25803469
-0.00041442388
-0.2579705
-0.00012534042
-0.25794464
0.0001869961
-0.25795952
0.00051931096
-0.25801714
0.00086795711
-0.25811898
0.0012289907
-0.25826603
0.0015981847
-0.25845875
0.0019711018
-0.25869703
0.0023431345
-0.25898021
0.0027095687
-0.25930705
0.0030656393
-0.25967573
0.0034065854
-0.26008389
0.0037277166
-0.26052861
0.0040244579
-0.26100643
0.0042924211
-0.2615134
0.0045274562
-0.26204511
0.0047257083
-0.26259673
0.0048836701
-0.26316302
0.0049982444
-0.26373845
0.0050667721
-0.26431719
0.0050870975
-0.26489323
0.0050575981
-0.26546041
0.0049772208
-0.26601251
0.0048455064
-0.2665433
0.0046626187
-0.26704667
0.0044293335
-0.26751665
0.0041470585
-0.26794753
0.0038178111
-0.2683339
0.0034441979
-0.26867076
0.0030293799
-0.26895354
0.0025770271
-0.26917819
0.0020912691
-0.26934123
0.0015766102
-0.26943977
0.001037924
-0.26947156
0.00048024717
-0.26943502
-9.1223738e-05
-0.26932918
-0.00067113133
-0.26915375
-0.0012541302
-0.26890906
-0.0018349054
-0.26859607
-0.0024082542
-0.26821638
-0.0029691439
-0.26777212
-0.0035127682
-0.26726599
-0.0040345901
-0.26670121
-0.0045303901
-0.26608143
-0.0049962836
-0.26541076
-0.0054287767
-0.26469364
-0.0058247829
-0.26393485
-0.0061816567
-0.26313943
-0.0064972223
-0.26231263
-0.0067697925
-0.26145982
-0.0069981899
-0.26058646
-0.0071817551
-0.25969802
-0.0073203495
-0.2587999
-0.0074143483
-0.25789738
-0.0074646209
-0.25699557
-0.0074725179
-0.25609933
-0.0074398031
-0.25521322
-0.0073686379
-0.25434149
-0.0072615125
-0.25348802
-0.0071211906
-0.25265629
-0.0069506473
-0.25184939
-0.0067530042
-0.25106998
-0.0065314821
-0.25032033
-0.0062893144
-0.2496023
-0.0060297226
-0.24891735
-0.0057558538
-0.24826659
-0.0054707428
-0.24765077
-0.0051772755
-0.24707033
-0.0048781724
-0.24652541
-0.0045759466
-0.24601588
-0.0042729114
-0.24554141
-0.003971161
-0.24510142
-0.0036725698
-0.24469521
-0.0033787925
-0.24432187
-0.0030912765
-0.24398044
-0.0028112562
-0.2436698
-0.0025397795
-0.2433888
-0.0022777139
-0.24313624
-0.0020257635
-0.24291089
-0.0017844849
-0.24271152
-0.0015543115
-0.24253694
-0.0013355706
-0.24238602
-0.0011285045
-0.24225775
-0.00093324378
-0.24215123
-0.00074981046
-0.24206572
-0.00057822006
-0.24200127
-0.00041479339
-0.24195735
-0.0002719041
-0.00013171011
-0.26055724
0.0024666861
-0.26077891
0.0024179369
-0.26099182
0.0023490657
-0.26119367
0.0022592004
-0.26138226
0.002148394
-0.26155548
0.0020170666
-0.26171127
0.0018658974
-0.26184771
0.0016959583
-0.26196299
0.0015085709
-0.26205546
0.001305419
-0.26212367
0.0010884255
-0.26216641
0.00085983894
-0.2621827
0.00062213028
-0.26217187
0.00037804421
-0.26213353
0.00013052303
-0.26206766
-0.00011727738
-0.26197457
-0.00036209645
-0.26185494
-0.00060053455