/*--------------------------------*- C++ -*----------------------------------*\
| =========                 |                                                 |
| \\      /  F ield         | foam-extend: Open Source CFD                    |
|  \\    /   O peration     | Version:     4.1                                |
|   \\  /    A nd           | Web:         http://www.foam-extend.org         |
|    \\/     M anipulation  |                                                 |
\*---------------------------------------------------------------------------*/
FoamFile
{
    version     2.0;
    format      ascii;
    class       volScalarField;
    location    "0.6";
    object      rAU;
}
// * * * * * * * * * * * * * * * * * * * * * * * * * * * * * * * * * * * * * //

dimensions      [0 0 1 0 0 0 0];

internalField   nonuniform List<scalar> 
16796
(
0.00012920895
0.00012895285
0.00012871875
0.0001284831
0.0001282464
0.0001280118
0.0001277791
0.0001275512
0.00012732777
0.00012711154
0.00012690207
0.00012670192
0.00012651046
0.00012633005
0.00012615982
0.00012600187
0.00012585504
0.00012572116
0.00012559876
0.00012548934
0.00012539111
0.00012530524
0.0001252296
0.00012516505
0.00012510914
0.00012506241
0.00012502215
0.00012498861
0.00012495883
0.00012493288
0.0001249076
0.00012488253
0.00012485598
0.0001248251
0.00012478975
0.00012474674
0.00012469604
0.0001246346
0.00012456258
0.00012447719
0.00012437889
0.00012426535
0.00012413686
0.00012399251
0.00012383212
0.00012365566
0.0001234633
0.00012325563
0.00012303323
0.00012279705
0.00012254824
0.00012228816
0.00012201829
0.00012174046
0.0001214564
0.00012116809
0.00012087759
0.000120587
0.00012029843
0.00012001412
0.00011973609
0.00011946645
0.00011920719
0.00011896022
0.00011872732
0.00011851008
0.00011831013
0.00011812866
0.00011796687
0.00011782571
0.00011770594
0.00011760809
0.00011753266
0.00011747971
0.00011744925
0.00011744107
0.00011744107
0.00011745475
0.00011749002
0.00011754644
0.00011762357
0.00011772048
0.00011783596
0.00011796866
0.00011811706
0.00011827955
0.00011845442
0.0001186399
0.00011883419
0.00011903542
0.00011924186
0.00011945158
0.00011966283
0.00011987386
0.00012008302
0.00012028871
0.00012048942
0.00012068387
0.00012087071
0.00012104882
0.0001212172
0.00012137498
0.00012152137
0.00012165589
0.00012177792
0.00012188716
0.00012198335
0.00012206636
0.00012213612
0.00012219281
0.00012223647
0.00012226734
0.00012228575
0.00012228661
0.00012226996
0.00012224278
0.00012220553
0.00012215886
0.00012210348
0.00012204048
0.00012197137
0.00012189797
0.00012181713
0.000121704
0.00011688707
0.00011674982
0.00011664468
0.00011654113
0.00011643766
0.00011633636
0.00011623664
0.00011614087
0.00011604851
0.00011596188
0.00011588037
0.0001158062
0.0001157386
0.00011567965
0.00011562841
0.00011558674
0.00011555348
0.00011553026
0.00011551568
0.00011551111
0.00011551488
0.00011552808
0.00011554877
0.00011557778
0.0001156129
0.00011565471
0.00011569464
0.00011573527
0.00011578013
0.00011582958
0.000115881
0.00011593424
0.00011598799
0.00011603978
0.00011608968
0.00011613481
0.00011616419
0.00011618029
0.00011618659
0.00011618064
0.00011616306
0.00011613183
0.0001160874
0.00011602907
0.00011595678
0.00011587064
0.00011577091
0.00011565823
0.00011553321
0.00011539681
0.00011525014
0.00011509449
0.00011493129
0.00011476221
0.00011458887
0.00011441311
0.0001142368
0.00011406187
0.00011389024
0.00011372396
0.00011356485
0.00011341482
0.00011327567
0.00011314911
0.00011303674
0.00011293999
0.00011286031
0.00011279876
0.00011275638
0.00011273401
0.00011273231
0.00011275171
0.00011279264
0.00011285508
0.00011290394
0.00011296715
0.00011303898
0.00011312461
0.00011323104
0.00011335727
0.00011350262
0.0001136663
0.00011384742
0.00011404502
0.00011425797
0.00011448504
0.00011472491
0.00011497618
0.00011523737
0.00011550693
0.00011578341
0.00011606513
0.00011635057
0.00011663817
0.00011692643
0.00011721388
0.00011749908
0.00011778082
0.00011805774
0.00011832875
0.0001185928
0.00011884895
0.00011909634
0.00011933435
0.00011956227
0.00011977964
0.00011998605
0.00012018121
0.00012036488
0.00012053705
0.00012069757
0.00012084653
0.00012098403
0.00012110493
0.000121209
0.00012130279
0.00012138649
0.00012146056
0.00012152551
0.0001215681
0.00012160351
0.0001216346
0.0001216596
0.00012167322
0.00011537842
0.00011526691
0.00011518524
0.00011510937
0.00011503746
0.00011497126
0.00011490985
0.00011485528
0.0001148067
0.00011476612
0.00011473257
0.00011470793
0.00011469107
0.00011468368
0.00011468443
0.0001146948
0.00011471325
0.00011474101
0.00011477631
0.00011482015
0.0001148705
0.00011492813
0.00011499078
0.00011504291
0.00011509372
0.0001151504
0.00011520457
0.00011525897
0.00011531725
0.00011537996
0.00011544462
0.00011551124
0.00011557869
0.00011564468
0.00011570944
0.00011577028
0.00011581642
0.00011584778
0.00011584382
0.00011582584
0.00011579483
0.00011574916
0.00011568969
0.00011561611
0.00011552879
0.00011542822
0.00011531505
0.00011519024
0.00011505475
0.00011490981
0.00011475678
0.00011459717
0.00011443255
0.00011426473
0.0001140954
0.00011392642
0.00011375967
0.00011359703
0.00011344032
0.0001132915
0.00011315221
0.0001130242
0.00011290906
0.00011280829
0.00011272326
0.00011265514
0.00011260512
0.00011257399
0.00011256255
0.00011257136
0.0001126008
0.00011265108
0.00011272235
0.0001127713
0.00011278647
0.0001128151
0.00011286446
0.00011293455
0.00011302544
0.0001131367
0.00011326794
0.00011341855
0.00011358776
0.0001137747
0.0001139783
0.00011419742
0.0001144308
0.00011467704
0.00011493469
0.00011520221
0.00011547812
0.00011576073
0.00011604846
0.00011633969
0.00011663285
0.00011692639
0.00011721879
0.00011750873
0.00011779477
0.0001180757
0.00011835035
0.0001186177
0.00011887676
0.00011912684
0.00011936711
0.00011959701
0.00011981606
0.00012002387
0.00012022012
0.00012040475
0.00012057755
0.00012073852
0.00012088773
0.0001210253
0.00012115137
0.00012126629
0.00012137021
0.00012146347
0.00012154631
0.00012160491
0.00012165381
0.00012169208
0.00012171268
0.00012171923
0.0001151366
0.0001150325
0.00011495582
0.00011488553
0.00011482034
0.00011476208
0.00011470979
0.00011466543
0.00011462803
0.0001145995
0.00011457874
0.0001145675
0.00011456452
0.00011457135
0.00011458654
0.00011461142
0.00011464429
0.00011468628
0.00011473546
0.00011479271
0.00011485587
0.00011491235
0.00011495588
0.00011499025
0.00011502504
0.00011506778
0.00011511654
0.00011517214
0.00011523242
0.000115298
0.00011536649
0.00011543795
0.00011551127
0.00011558416
0.00011565683
0.00011572655
0.00011579345
0.0001158521
0.0001158621
0.00011583355
0.00011579104
0.0001157331
0.00011566075
0.00011557387
0.000115473
0.00011535884
0.00011523222
0.00011509433
0.00011494628
0.00011478951
0.00011462556
0.00011445609
0.00011428283
0.00011410773
0.00011393258
0.00011375936
0.00011359001
0.00011342647
0.00011327061
0.00011312438
0.00011298946
0.00011286755
0.00011276022
0.0001126689
0.00011259489
0.0001125393
0.0001125032
0.00011248729
0.00011249223
0.00011251846
0.00011256623
0.00011263559
0.00011271591
0.00011270255
0.00011269041
0.00011269913
0.00011272911
0.00011278054
0.0001128536
0.000112948
0.00011306348
0.00011319954
0.00011335548
0.00011353051
0.00011372365
0.00011393379
0.00011415969
0.0001144
0.00011465327
0.00011491792
0.00011519247
0.00011547517
0.00011576439
0.00011605846
0.00011635571
0.00011665451
0.00011695325
0.00011725051
0.00011754474
0.00011783463
0.00011811892
0.00011839646
0.00011866618
0.00011892728
0.00011917883
0.0001194202
0.0001196508
0.00011987019
0.00012007798
0.00012027401
0.00012045804
0.00012063001
0.00012078994
0.00012093791
0.000121074
0.00012119852
0.00012131158
0.00012141345
0.00012150427
0.00012158408
0.00012165303
0.00012170702
0.0001217406
0.00012174322
0.0001150425
0.00011494067
0.00011486537
0.00011479651
0.00011473322
0.00011467749
0.00011462838
0.00011458786
0.00011455496
0.00011453152
0.00011451643
0.00011451139
0.00011451509
0.00011452902
0.00011455166
0.00011458428
0.00011462512
0.0001146752
0.00011473252
0.00011479787
0.0001148499
0.00011487505
0.00011488926
0.00011491286
0.00011494425
0.00011498459
0.00011503202
0.00011508747
0.00011514881
0.00011521671
0.0001152888
0.00011536516
0.00011544466
0.00011552498
0.0001156063
0.00011568579
0.00011576352
0.00011583659
0.00011588857
0.00011585135
0.00011579824
0.00011572886
0.00011564439
0.00011554485
0.00011543095
0.00011530356
0.00011516369
0.00011501269
0.00011485187
0.00011468285
0.00011450733
0.00011432715
0.00011414419
0.00011396055
0.00011377815
0.00011359909
0.00011342543
0.00011325918
0.00011310228
0.00011295674
0.00011282426
0.00011270656
0.00011260521
0.00011252161
0.00011245703
0.00011241249
0.00011238902
0.0001123872
0.00011240758
0.00011245049
0.00011251605
0.00011260415
0.00011266426
0.00011261107
0.00011257845
0.00011256715
0.00011257775
0.00011261059
0.00011266598
0.00011274374
0.00011284375
0.00011296559
0.00011310869
0.0001132723
0.0001134555
0.00011365723
0.00011387628
0.0001141113
0.00011436084
0.00011462329
0.00011489716
0.00011518062
0.00011547199
0.00011576952
0.00011607148
0.00011637612
0.00011668175
0.00011698684
0.00011728973
0.00011758901
0.00011788332
0.0001181714
0.00011845209
0.00011872447
0.00011898754
0.00011924058
0.00011948292
0.00011971404
0.00011993348
0.00012014104
0.0001203364
0.00012051946
0.00012069019
0.00012084863
0.00012099482
0.00012112901
0.00012125129
0.00012136183
0.00012146074
0.00012154804
0.00012162388
0.00012168573
0.00012173724
0.00012174578
0.00011495844
0.00011485695
0.00011478203
0.00011471378
0.00011465154
0.00011459741
0.00011455051
0.00011451283
0.00011448339
0.00011446405
0.00011445366
0.00011445389
0.00011446341
0.00011448366
0.00011451307
0.00011455286
0.00011460118
0.00011465899
0.00011472421
0.00011478808
0.00011479973
0.00011479978
0.00011480859
0.0001148277
0.00011485559
0.00011489351
0.00011493969
0.0001149951
0.00011505769
0.00011512815
0.00011520415
0.00011528576
0.00011537183
0.00011546003
0.00011555046
0.00011564023
0.00011572931
0.0001158147
0.00011589629
0.00011587023
0.00011580652
0.00011572565
0.00011562893
0.00011551652
0.00011538932
0.00011524834
0.00011509478
0.00011493018
0.00011475602
0.00011457411
0.00011438634
0.00011419471
0.00011400126
0.00011380826
0.00011361777
0.00011343201
0.00011325315
0.00011308331
0.00011292451
0.00011277881
0.00011264796
0.00011253371
0.00011243762
0.00011236108
0.00011230533
0.00011227134
0.00011226006
0.00011227199
0.00011230757
0.00011236701
0.00011245028
0.00011255714
0.00011257953
0.0001125051
0.00011245165
0.00011242011
0.00011241121
0.00011242543
0.00011246321
0.00011252451
0.0001126093
0.00011271728
0.00011284794
0.00011300061
0.0001131744
0.0001133683
0.00011358112
0.0001138115
0.00011405797
0.00011431892
0.00011459277
0.00011487767
0.00011517186
0.00011547351
0.00011578077
0.00011609184
0.00011640488
0.00011671829
0.00011703029
0.00011733935
0.00011764402
0.00011794292
0.0001182348
0.00011851865
0.00011879338
0.00011905817
0.00011931229
0.00011955515
0.00011978622
0.00012000525
0.00012021186
0.00012040592
0.00012058735
0.00012075615
0.00012091235
0.00012105617
0.00012118764
0.00012130694
0.00012141413
0.00012150928
0.00012159248
0.00012166012
0.00012171742
0.00012173417
0.0001148707
0.00011476849
0.00011469321
0.00011462502
0.00011456333
0.0001145103
0.00011446513
0.00011442983
0.00011440343
0.00011438778
0.00011438173
0.00011438694
0.00011440204
0.00011442843
0.00011446451
0.00011451141
0.00011456726
0.00011463292
0.00011470623
0.0001147374
0.00011472029
0.00011471399
0.00011471731
0.0001147319
0.00011475633
0.00011479195
0.00011483706
0.0001148927
0.00011495686
0.00011503029
0.00011511064
0.00011519801
0.00011529123
0.00011538791
0.00011548811
0.00011558885
0.00011569
0.00011578842
0.00011588388
0.0001158906
0.00011581634
0.00011572394
0.00011561483
0.00011548932
0.00011534847
0.00011519348
0.00011502572
0.00011484692
0.00011465877
0.00011446324
0.00011426243
0.00011405851
0.00011385371
0.00011365045
0.00011345094
0.00011325756
0.00011307258
0.00011289824
0.00011273664
0.00011258993
0.0001124599
0.00011234833
0.00011225681
0.00011218672
0.00011213925
0.00011211536
0.0001121159
0.00011214131
0.00011219193
0.00011226783
0.00011236887
0.00011249464
0.00011248124
0.00011238514
0.00011231052
0.0001122585
0.00011222995
0.00011222551
0.00011224574
0.00011229072
0.00011236054
0.00011245497
0.00011257359
0.00011271578
0.00011288071
0.00011306737
0.00011327459
0.00011350101
0.00011374513
0.0001140053
0.0001142799
0.00011456699
0.00011486474
0.00011517123
0.00011548451
0.00011580268
0.00011612379
0.00011644612
0.00011676779
0.00011708715
0.00011740264
0.00011771279
0.00011801623
0.00011831187
0.00011859852
0.0001188753
0.00011914138
0.00011939612
0.00011963892
0.00011986948
0.00012008738
0.00012029243
0.00012048454
0.00012066366
0.00012082979
0.00012098313
0.00012112369
0.00012125163
0.00012136704
0.00012147001
0.0001215606
0.00012163441
0.00012169852
0.00012172383
0.00011477644
0.00011467286
0.00011459673
0.0001145282
0.00011446672
0.00011441452
0.00011437083
0.00011433768
0.00011431414
0.00011430205
0.00011430025
0.0001143104
0.00011433108
0.00011436369
0.00011440656
0.00011446079
0.00011452443
0.00011459826
0.00011467353
0.00011465646
0.00011463207
0.00011461927
0.00011461701
0.00011462703
0.00011464802
0.00011468141
0.00011472557
0.00011478163
0.00011484762
0.00011492431
0.0001150094
0.00011510296
0.00011520381
0.00011530952
0.00011542007
0.00011553241
0.00011564628
0.00011575844
0.00011586849
0.00011591389
0.00011582903
0.00011572494
0.00011560317
0.00011546422
0.00011530928
0.00011513974
0.00011495717
0.0001147635
0.00011456059
0.00011435065
0.00011413594
0.00011391884
0.00011370176
0.00011348728
0.0001132778
0.00011307582
0.00011288377
0.00011270399
0.0001125387
0.00011239011
0.00011226008
0.00011215043
0.00011206278
0.00011199852
0.00011195881
0.00011194457
0.00011195659
0.00011199524
0.00011206075
0.00011215308
0.00011227195
0.00011241681
0.00011236989
0.00011225156
0.00011215534
0.0001120825
0.00011203409
0.00011201088
0.00011201355
0.00011204231
0.00011209735
0.00011217852
0.00011228546
0.00011241761
0.00011257418
0.00011275418
0.00011295643
0.00011317955
0.00011342203
0.00011368216
0.00011395823
0.00011424827
0.00011455032
0.00011486238
0.00011518239
0.00011550833
0.00011583815
0.00011617
0.00011650188
0.00011683204
0.0001171588
0.00011748058
0.00011779592
0.00011810363
0.00011840244
0.00011869138
0.00011896958
0.0001192363
0.00011949091
0.00011973305
0.00011996225
0.00012017832
0.0001203811
0.00012057053
0.00012074659
0.00012090947
0.00012105916
0.00012119581
0.00012131954
0.00012143047
0.00012152863
0.00012160899
0.00012168045
0.00012171431
0.00011467619
0.00011457064
0.00011449309
0.00011442373
0.00011436204
0.00011431027
0.0001142677
0.0001142364
0.00011421543
0.00011420667
0.00011420895
0.00011422391
0.00011425013
0.00011428896
0.0001143387
0.00011440039
0.00011447203
0.00011455433
0.00011460833
0.00011456604
0.00011453408
0.00011451456
0.00011450657
0.00011451193
0.00011452945
0.00011456065
0.000114604
0.00011466067
0.00011472876
0.00011480907
0.00011489932
0.00011499957
0.00011510861
0.00011522396
0.00011534555
0.00011547021
0.00011559759
0.00011572428
0.00011584975
0.00011594068
0.00011584516
0.0001157292
0.0001155945
0.00011544169
0.00011527217
0.0001150875
0.00011488944
0.00011468013
0.00011446165
0.00011423639
0.00011400684
0.00011377558
0.0001135452
0.0001133185
0.00011309801
0.00011288641
0.00011268628
0.00011250008
0.00011233014
0.00011217877
0.00011204791
0.00011193942
0.00011185496
0.00011179591
0.00011176345
0.00011175845
0.00011178165
0.00011183334
0.00011191367
0.00011202247
0.00011215932
0.00011232352
0.00011224574
0.00011210459
0.00011198627
0.00011189224
0.0001118237
0.00011178155
0.00011176663
0.00011177923
0.00011181964
0.0001118878
0.00011198342
0.00011210597
0.00011225469
0.00011242861
0.00011262654
0.00011284708
0.00011308865
0.0001133495
0.00011362786
0.00011392164
0.00011422881
0.00011454724
0.00011487477
0.00011520924
0.00011554848
0.00011589052
0.00011623325
0.00011657478
0.00011691333
0.00011724721
0.00011757485
0.00011789498
0.00011820624
0.00011850759
0.00011879808
0.00011907692
0.00011934342
0.00011959719
0.00011983771
0.00012006476
0.00012027816
0.00012047784
0.00012066376
0.00012083609
0.00012099484
0.00012114016
0.00012127219
0.0001213911
0.00012149694
0.00012158408
0.00012166311
0.00012170537
0.00011456943
0.00011446141
0.00011438197
0.00011431135
0.00011424905
0.00011419737
0.00011415562
0.00011412589
0.00011410729
0.00011410169
0.00011410794
0.00011412766
0.00011415943
0.00011420456
0.00011426132
0.00011433071
0.00011441065
0.00011450179
0.00011451772
0.00011446678
0.00011442695
0.00011440046
0.00011438652
0.00011438708
0.00011440105
0.00011443006
0.00011447266
0.00011453009
0.0001146005
0.00011468473
0.00011478052
0.00011488791
0.00011500568
0.0001151313
0.0001152646
0.00011540233
0.000115544
0.00011568607
0.00011582783
0.00011595881
0.00011586574
0.00011573765
0.00011558965
0.00011542252
0.00011523783
0.00011503734
0.00011482302
0.00011459722
0.00011436224
0.00011412069
0.00011387528
0.00011362879
0.00011338404
0.00011314399
0.0001129114
0.0001126891
0.00011247981
0.00011228616
0.00011211058
0.0001119555
0.00011182293
0.00011171481
0.00011163282
0.00011157838
0.00011155265
0.00011155649
0.00011159058
0.00011165515
0.00011175023
0.00011187557
0.0001120306
0.00011221446
0.00011210882
0.00011194417
0.00011180319
0.00011168752
0.00011159852
0.00011153723
0.00011150461
0.00011150107
0.00011152698
0.00011158237
0.00011166699
0.00011178036
0.00011192174
0.00011209015
0.0001122844
0.00011250305
0.00011274448
0.00011300684
0.0001132883
0.00011358666
0.00011389978
0.0001142254
0.00011456125
0.00011490503
0.00011525444
0.00011560737
0.00011596159
0.00011631509
0.00011666597
0.00011701242
0.00011735279
0.0001176857
0.00011800972
0.00011832373
0.00011862671
0.00011891782
0.00011919634
0.00011946181
0.0001197137
0.00011995175
0.00012017577
0.00012038568
0.00012058142
0.00012076317
0.00012093094
0.00012108491
0.00012122525
0.00012135214
0.00012146571
0.00012155975
0.00012164641
0.00012169686
0.00011445636
0.00011434534
0.00011426348
0.00011419111
0.00011412775
0.00011407576
0.00011403447
0.000114006
0.0001139895
0.00011398685
0.00011399691
0.00011402131
0.0001140586
0.00011411009
0.00011417401
0.0001142513
0.00011433984
0.0001144402
0.00011441816
0.00011435815
0.00011431006
0.00011427628
0.00011425613
0.00011425171
0.00011426202
0.00011428881
0.0001143307
0.00011438903
0.00011446199
0.00011455046
0.00011465218
0.00011476722
0.0001148943
0.00011503084
0.00011517659
0.0001153282
0.00011548504
0.00011564342
0.00011580244
0.00011595816
0.00011589146
0.00011575097
0.00011558924
0.00011540724
0.00011520673
0.00011498966
0.00011475823
0.00011451499
0.0001142625
0.00011400359
0.0001137412
0.00011347834
0.00011321804
0.00011296348
0.00011271761
0.00011248344
0.00011226387
0.00011206168
0.00011187944
0.00011171967
0.0001115845
0.00011147594
0.00011139572
0.00011134528
0.0001113258
0.0001113381
0.00011138283
0.00011146015
0.00011157001
0.00011171202
0.00011188549
0.0001120894
0.00011195929
0.00011177038
0.00011160611
0.00011146828
0.00011135843
0.00011127774
0.00011122729
0.00011120759
0.0001112191
0.00011126191
0.00011133584
0.00011144044
0.00011157498
0.00011173848
0.00011192972
0.00011214721
0.00011238927
0.00011265398
0.0001129394
0.00011324322
0.00011356317
0.00011389688
0.00011424191
0.00011459584
0.00011495622
0.00011532081
0.00011568723
0.00011605334
0.00011641713
0.00011677668
0.00011713023
0.00011747631
0.00011781341
0.00011814033
0.00011845602
0.00011875956
0.00011905018
0.00011932741
0.00011959069
0.00011983974
0.00012007435
0.00012029443
0.00012049993
0.00012069104
0.00012086777
0.00012103033
0.00012117892
0.00012131378
0.00012143508
0.00012153604
0.00012163027
0.0001216887
0.00011433676
0.00011422222
0.00011413744
0.00011406284
0.00011399801
0.00011394529
0.00011390411
0.0001138766
0.00011386195
0.00011386205
0.0001138758
0.00011390481
0.00011394765
0.00011400559
0.00011407683
0.00011416229
0.00011425977
0.00011436977
0.0001143099
0.00011424033
0.00011418356
0.0001141421
0.00011411543
0.00011410578
0.00011411226
0.00011413674
0.00011417793
0.00011423724
0.00011431293
0.00011440593
0.00011451398
0.00011463715
0.00011477411
0.00011492225
0.00011508122
0.00011524756
0.0001154205
0.00011559618
0.0001157735
0.00011594832
0.00011592326
0.00011576999
0.00011559405
0.00011539656
0.00011517948
0.00011494498
0.00011469548
0.00011443378
0.00011416267
0.00011388524
0.00011360465
0.00011332418
0.00011304707
0.00011277673
0.00011251632
0.00011226905
0.00011203801
0.00011182613
0.00011163613
0.00011147067
0.00011133197
0.00011122213
0.00011114294
0.00011109589
0.00011108215
0.00011110255
0.00011115769
0.00011124766
0.00011137233
0.0001115312
0.00011172343
0.00011194784
0.00011179703
0.00011158301
0.00011139474
0.0001112342
0.00011110305
0.00011100265
0.00011093418
0.00011089827
0.00011089545
0.00011092588
0.00011098941
0.00011108564
0.00011121384
0.00011137302
0.00011156191
0.000111779
0.0001120225
0.00011229042
0.0001125807
0.0001128909
0.00011321862
0.00011356134
0.00011391647
0.00011428144
0.00011465364
0.00011503068
0.00011541004
0.00011578946
0.00011616677
0.00011653997
0.00011690719
0.00011726685
0.00011761739
0.00011795752
0.00011828613
0.00011860227
0.00011890513
0.0001191942
0.0001194689
0.00011972894
0.00011997411
0.00012020432
0.00012041952
0.00012061991
0.00012080552
0.00012097659
0.00012113338
0.00012127614
0.00012140514
0.00012151295
0.00012161465
0.00012168085
0.00011421061
0.00011409201
0.00011400378
0.00011392645
0.00011385965
0.00011380579
0.00011376432
0.00011373744
0.00011372435
0.00011372699
0.00011374428
0.00011377783
0.00011382621
0.00011389069
0.00011396944
0.00011406333
0.00011417012
0.00011428162
0.00011419269
0.000114113
0.00011404704
0.00011399747
0.00011396391
0.00011394872
0.00011395117
0.00011397321
0.00011401367
0.00011407404
0.00011415265
0.00011425044
0.00011436522
0.00011449702
0.00011464449
0.00011480494
0.00011497795
0.00011515993
0.00011534996
0.00011554401
0.00011574077
0.00011593589
0.00011596202
0.00011579558
0.00011560485
0.00011539118
0.0001151567
0.00011490383
0.00011463521
0.00011435392
0.00011406297
0.00011376574
0.00011346565
0.00011316622
0.00011287094
0.00011258348
0.00011230719
0.00011204552
0.00011180174
0.00011157896
0.00011138006
0.00011120784
0.00011106465
0.00011095267
0.00011087377
0.00011082949
0.00011082101
0.00011084915
0.0001109145
0.00011101707
0.00011115665
0.00011133263
0.000111544
0.00011178943
0.00011162206
0.00011138203
0.00011116897
0.00011098506
0.00011083212
0.00011071165
0.00011062494
0.00011057271
0.00011055559
0.0001105738
0.00011062722
0.00011071548
0.00011083784
0.0001109933
0.00011118055
0.000111398
0.0001116438
0.00011191583
0.00011221191
0.00011252947
0.00011286595
0.00011321867
0.00011358488
0.00011396182
0.00011434675
0.00011473709
0.00011513019
0.00011552364
0.00011591514
0.00011630257
0.00011668396
0.00011705765
0.00011742198
0.00011777561
0.00011811737
0.00011844628
0.00011876149
0.00011906247
0.00011934862
0.00011961965
0.00011987534
0.0001201156
0.00012034042
0.00012054999
0.00012074439
0.00012092389
0.00012108876
0.00012123935
0.00012137595
0.00012149051
0.00012159952
0.00012167326
0.0001140778
0.00011395459
0.00011386236
0.00011378178
0.00011371253
0.00011365708
0.00011361493
0.00011358833
0.00011357652
0.00011358149
0.00011360216
0.00011364018
0.00011369413
0.00011376525
0.00011385171
0.00011395433
0.00011407081
0.00011417161
0.00011406655
0.00011397614
0.00011390042
0.00011384222
0.00011380134
0.00011378025
0.00011377838
0.0001137978
0.00011383746
0.00011389892
0.00011398059
0.00011408346
0.00011420534
0.00011434627
0.00011450487
0.00011467838
0.00011486628
0.00011506486
0.00011527305
0.00011548663
0.00011570407
0.00011592076
0.00011600873
0.00011582864
0.0001156225
0.00011539185
0.00011513906
0.00011486676
0.00011457788
0.00011427574
0.00011396365
0.00011364525
0.00011332423
0.00011300439
0.0001126895
0.00011238345
0.00011208986
0.00011181239
0.00011155453
0.00011131957
0.00011111057
0.00011093049
0.00011078179
0.00011066678
0.0001105874
0.00011054524
0.00011054153
0.00011057708
0.00011065245
0.00011076759
0.00011092221
0.00011111559
0.00011134656
0.00011161361
0.00011143422
0.00011116716
0.00011092846
0.00011072047
0.00011054519
0.00011040423
0.00011029902
0.00011023036
0.00011019896
0.00011020508
0.00011024867
0.00011032934
0.00011044637
0.00011059873
0.00011078506
0.00011100368
0.00011125266
0.00011152975
0.00011183263
0.00011215858
0.00011250487
0.00011286863
0.00011324695
0.00011363688
0.00011403549
0.00011444004
0.00011484772
0.00011525597
0.00011566235
0.00011606464
0.00011646074
0.00011684891
0.00011722741
0.00011759485
0.00011795002
0.00011829187
0.00011861955
0.0001189325
0.00011923012
0.00011951211
0.00011977827
0.00012002852
0.00012026285
0.00012048151
0.00012068458
0.00012087237
0.00012104521
0.00012120348
0.00012134756
0.00012146874
0.00012158488
0.00012166594
0.00011393827
0.00011380985
0.00011371305
0.00011362867
0.00011355645
0.00011349893
0.00011345567
0.00011342898
0.00011341815
0.0001134252
0.0001134491
0.00011349152
0.00011355104
0.00011362892
0.00011372329
0.00011383495
0.00011396156
0.00011404866
0.00011393133
0.0001138295
0.00011374338
0.00011367598
0.00011362726
0.00011359987
0.00011359336
0.00011360995
0.00011364868
0.00011371124
0.00011379609
0.00011390429
0.00011403366
0.00011418424
0.00011435462
0.00011454197
0.00011474568
0.00011496189
0.00011518938
0.00011542372
0.00011566317
0.00011590285
0.00011606448
0.00011587019
0.00011564794
0.00011539945
0.00011512731
0.00011483445
0.00011452405
0.0001141997
0.00011386503
0.00011352395
0.00011318047
0.00011283867
0.0001125026
0.00011217642
0.000111864
0.00011156925
0.00011129587
0.00011104737
0.00011082701
0.00011063789
0.00011048263
0.00011036366
0.00011028301
0.00011024234
0.00011024291
0.00011028554
0.00011037077
0.0001104985
0.00011066835
0.00011087947
0.00011113056
0.0001114199
0.00011123341
0.00011093824
0.00011067296
0.00011044011
0.00011024187
0.00011007997
0.00010995594
0.00010987069
0.00010982499
0.00010981916
0.00010985317
0.00010992665
0.00011003887
0.00011018876
0.0001103749
0.00011059554
0.00011084862
0.00011113177
0.00011144251
0.00011177795
0.00011213516
0.00011251109
0.00011290261
0.00011330659
0.0001137199
0.00011413963
0.00011456278
0.00011498664
0.00011540865
0.00011582643
0.0001162378
0.00011664093
0.000117034
0.00011741557
0.00011778437
0.00011813934
0.0001184796
0.00011880458
0.00011911368
0.0001194066
0.00011968316
0.00011994331
0.00012018704
0.00012041465
0.00012062624
0.00012082218
0.00012100284
0.00012116865
0.00012132005
0.00012144765
0.00012157072
0.00012165887
0.00011379195
0.00011365772
0.00011355574
0.00011346697
0.00011339125
0.00011333117
0.00011328635
0.00011325918
0.000113249
0.00011325788
0.00011328485
0.00011333158
0.00011339669
0.00011348143
0.00011358395
0.00011370499
0.00011384217
0.0001139174
0.00011378699
0.00011367296
0.00011357573
0.00011349848
0.00011344135
0.00011340716
0.00011339563
0.00011340909
0.00011344675
0.00011351036
0.0001135985
0.00011371225
0.0001138495
0.00011401025
0.00011419308
0.00011439509
0.00011461555
0.0001148505
0.0001150985
0.00011535495
0.00011561783
0.00011588201
0.00011612083
0.00011592132
0.00011568215
0.00011541485
0.00011512227
0.00011480758
0.00011447426
0.00011412623
0.00011376742
0.00011340206
0.00011303447
0.00011266903
0.0001123101
0.00011196212
0.00011162925
0.00011131563
0.00011102523
0.00011076177
0.0001105287
0.00011032931
0.00011016639
0.00011004248
0.00010995973
0.00010991988
0.00010992423
0.00010997363
0.00011006858
0.00011020894
0.00011039424
0.00011062352
0.00011089531
0.0001112077
0.00011101941
0.00011069494
0.00011040207
0.00011014354
0.00010992166
0.00010973831
0.00010959513
0.0001094931
0.00010943307
0.00010941539
0.00010944007
0.00010950675
0.00010961468
0.00010976276
0.00010994949
0.00011017303
0.00011043119
0.00011072146
0.00011104118
0.00011138726
0.00011175658
0.00011214586
0.00011255176
0.00011297093
0.00011340003
0.00011383595
0.00011427552
0.00011471586
0.00011515425
0.00011558821
0.00011601544
0.00011643402
0.00011684207
0.00011723809
0.00011762077
0.00011798903
0.00011834197
0.00011867902
0.0001189996
0.00011930341
0.00011959029
0.00011986021
0.00012011322
0.00012034961
0.00012056957
0.00012077348
0.00012096177
0.00012113494
0.00012129346
0.00012142729
0.00012155706
0.00012165205
0.00011363879
0.00011349808
0.00011339029
0.00011329653
0.00011321673
0.00011315354
0.0001131067
0.00011307862
0.00011306874
0.00011307919
0.00011310903
0.00011315999
0.0001132307
0.00011332243
0.00011343331
0.00011356408
0.00011371232
0.00011377779
0.0001136334
0.00011350633
0.00011339719
0.00011330937
0.00011324319
0.00011320165
0.00011318464
0.00011319466
0.00011323103
0.00011329562
0.00011338711
0.00011350665
0.00011365214
0.0001138236
0.00011401957
0.0001142371
0.00011447533
0.00011473016
0.00011499999
0.00011527997
0.00011556784
0.00011585818
0.00011614819
0.00011598327
0.00011572631
0.00011543914
0.00011512486
0.00011478696
0.00011442923
0.0001140559
0.00011367126
0.00011327986
0.00011288637
0.00011249549
0.0001121119
0.00011174035
0.00011138528
0.00011105113
0.00011074209
0.00011046214
0.00011021495
0.000110004
0.00010983224
0.00010970238
0.00010961668
0.00010957696
0.00010958459
0.00010964044
0.000109745
0.00010989807
0.0001100991
0.00011034701
0.00011064016
0.00011097643
0.00011079204
0.00011043699
0.00011011544
0.00010983031
0.00010958407
0.00010937872
0.000109216
0.00010909697
0.00010902254
0.00010899311
0.00010900871
0.00010906898
0.00010917316
0.00010932009
0.00010950822
0.00010973558
0.00010999987
0.00011029838
0.00011062827
0.00011098624
0.00011136893
0.00011177283
0.00011219435
0.00011262992
0.00011307596
0.00011352917
0.00011398615
0.00011444387
0.00011489946
0.00011535031
0.000115794
0.00011622855
0.00011665199
0.00011706277
0.00011745957
0.00011784128
0.000118207
0.00011855616
0.00011888819
0.00011920282
0.00011949992
0.00011977948
0.00012004159