/*--------------------------------*- C++ -*----------------------------------*\
| =========                 |                                                 |
| \\      /  F ield         | foam-extend: Open Source CFD                    |
|  \\    /   O peration     | Version:     4.1                                |
|   \\  /    A nd           | Web:         http://www.foam-extend.org         |
|    \\/     M anipulation  |                                                 |
\*---------------------------------------------------------------------------*/
FoamFile
{
    version     2.0;
    format      ascii;
    class       volScalarField;
    location    "1";
    object      p;
}
// * * * * * * * * * * * * * * * * * * * * * * * * * * * * * * * * * * * * * //

dimensions      [0 2 -2 0 0 0 0];

internalField   nonuniform List<scalar> 
4393
(
-25.182835
-71.754207
-120.47303
-171.93234
-227.0008
-286.56641
-351.48501
-422.54434
-500.42704
-585.66788
-678.60502
-779.32581
-887.61455
-1002.9071
-1124.262
-1250.3583
-1379.519
-1509.7608
-1638.868
-1764.4687
-1884.1171
-1995.3731
-2095.8384
-2183.2915
-2255.6994
-2311.2152
-2348.4963
-2366.7373
-2365.7134
-2345.9131
-2308.5359
-2255.4951
-2189.2945
-2112.8381
-2029.212
-1941.4648
-1852.4243
-1764.5834
-1680.0219
-1600.3549
-1526.8887
-1460.4422
-1401.5752
-1350.7585
-1308.3213
-1272.8725
-1247.8561
-1227.0137
-1215.0151
-24.142413
-70.886353
-119.31754
-170.39959
-225.07957
-284.27282
-348.85266
-419.62389
-497.28809
-582.40115
-675.32354
-776.16416
-884.72508
-1000.4526
-1122.4055
-1249.2512
-1379.2901
-1510.5073
-1640.652
-1767.3168
-1888.0227
-2000.3037
-2101.7264
-2190.0509
-2263.2148
-2319.3103
-2356.9629
-2375.3334
-2374.144
-2353.8598
-2315.7039
-2261.6343
-2194.2248
-2116.4653
-2031.5298
-1942.5435
-1852.392
-1763.6036
-1678.2721
-1598.0103
-1524.1087
-1457.3683
-1398.33
-1347.4473
-1305.0181
-1269.6002
-1244.6975
-1224.8153
-1215.5233
-23.210548
-69.245446
-116.91937
-167.21588
-221.12161
-279.5836
-343.50504
-413.72332
-490.97717
-575.86399
-668.78823
-769.90115
-879.03954
-995.66963
-1118.8491
-1247.2205
-1379.0366
-1512.2182
-1644.4423
-1773.2306
-1896.0389
-2010.3507
-2113.6661
-2203.7114
-2278.3528
-2335.5733
-2373.9277
-2392.4954
-2390.9367
-2369.6744
-2329.9423
-2273.7836
-2203.9167
-2123.5097
-2035.9175
-1944.4224
-1852.0256
-1761.3235
-1674.4352
-1592.9635
-1518.1629
-1450.7917
-1391.3439
-1340.2237
-1297.6619
-1262.1511
-1237.2488
-1218.1646
-1210.5537
-22.221968
-66.998003
-113.43884
-162.51418
-215.2324
-272.57348
-335.4805
-404.83851
-481.44229
-565.95291
-658.84313
-760.33119
-870.30988
-988.27895
-1113.2966
-1243.968
-1378.4727
-1514.6309
-1650.0074
-1782.0148
-1908.0105
-2025.4032
-2131.6016
-2224.2778
-2301.2015
-2360.1979
-2399.693
-2418.6343
-2416.5653
-2393.8412
-2351.7146
-2292.3612
-2218.7282
-2134.267
-2042.6187
-1947.3113
-1851.5241
-1757.9557
-1668.7583
-1585.5151
-1509.422
-1441.1669
-1381.1656
-1329.7394
-1287.0279
-1251.4782
-1226.6356
-1208.0805
-1201.1058
-21.005963
-64.066469
-108.82261
-156.24318
-207.3575
-263.18257
-324.71106
-392.8902
-468.58966
-552.55712
-645.36002
-747.31134
-858.38515
-978.13203
-1105.6145
-1239.3872
-1377.527
-1517.7123
-1657.3492
-1793.6988
-1923.9865
-2045.5229
-2155.6081
-2251.8418
-2331.8732
-2393.3307
-2434.4478
-2453.9798
-2451.2815
-2426.595
-2381.1901
-2317.4277
-2238.584
-2148.5194
-2051.2858
-1950.7579
-1850.3603
-1752.9253
-1660.6418
-1575.0556
-1497.2747
-1427.884
-1367.1861
-1315.3869
-1272.5214
-1237.0137
-1212.3216
-1194.2114
-1187.531
-19.545456
-60.451482
-103.07092
-148.38876
-197.46081
-251.34757
-311.10171
-377.74768
-452.25001
-535.468
-628.09362
-730.56773
-842.97768
-964.94851
-1095.5542
-1233.2854
-1376.0817
-1521.4289
-1666.5189
-1808.4112
-1944.1641
-2070.9696
-2186.0108
-2286.7999
-2370.8506
-2435.5593
-2478.8848
-2499.3188
-2495.9303
-2468.7824
-2419.1475
-2349.631
-2263.9632
-2166.5714
-2062.0712
-1954.8039
-1848.512
-1746.1899
-1650.0552
-1561.5876
-1481.7663
-1411.0291
-1349.5226
-1297.3006
-1254.2713
-1218.8349
-1194.2799
-1176.5169
-1169.9979
-17.81204
-56.122071
-96.150168
-138.9066
-185.47911
-236.97843
-294.52761
-359.24344
-432.20605
-514.4134
-606.71594
-709.7225
-823.67487
-948.30566
-1082.7133
-1225.311
-1373.8589
-1525.5874
-1677.4043
-1826.1079
-1968.5519
-2101.7947
-2222.9078
-2329.3088
-2418.3742
-2487.2405
-2533.4922
-2555.2648
-2551.2066
-2521.1003
-2466.1849
-2389.3794
-2295.0289
-2188.334
-2074.6693
-1958.987
-1845.4279
-1737.1697
-1636.4386
-1544.603
-1462.459
-1390.2427
-1327.8962
-1275.282
-1232.1523
-1196.8655
-1172.4642
-1155.0118
-1148.6044
-15.816326
-51.086562
-88.0627
-127.78645
-171.38158
-220.0153
-274.8909
-337.23265
-408.25785
-489.1323
-580.90355
-684.39703
-800.06279
-927.78769
-1066.7162
-1215.1712
-1370.6816
-1530.1413
-1690.0822
-1846.967
-1997.4042
-2138.3118
-2266.6729
-2379.8185
-2475.0029
-2549.0855
-2599.1614
-2622.8893
-2618.31
-2584.7692
-2523.4015
-2437.5185
-2332.2951
-2213.9819
-2088.9675
-1962.9926
-1840.682
-1725.4052
-1619.3542
-1523.7191
-1439.0394
-1365.2815
-1302.1277
-1249.2062
-1206.082
-1171.053
-1146.8543
-1129.7281
-1123.4223
-13.55884
-45.333064
-78.781938
-114.98074
-155.09097
-200.34084
-252.02275
-311.48303
-380.09821
-459.23302
-550.17551
-654.02678
-771.51576
-902.75032
-1046.9559
-1202.3547
-1366.1799
-1534.8811
-1704.4918
-1871.0417
-2030.8497
-2180.6993
-2317.5356
-2438.6339
-2541.1659
-2621.7116
-2676.752
-2703.3093
-2698.5591
-2661.1674
-2592.0331
-2494.9512
-2376.2213
-2243.5273
-2104.6121
-1966.2256
-1833.5644
-1710.1754
-1598.1413
-1498.3752
-1411.0613
-1335.8121
-1271.984
-1218.9241
-1175.975
-1141.3577
-1117.4529
-1100.7101
-1094.52
-11.026836
-38.846288
-68.289493
-100.46048
-136.55687
-177.87019
-225.78899
-281.79513
-347.44664
-424.33953
-514.05005
-618.02588
-737.36757
-872.50023
-1022.7854
-1186.3414
-1360.0236
-1539.6921
-1720.7126
-1898.5509
-2069.1864
-2229.2942
-2375.8685
-2506.1961
-2617.4418
-2705.9209
-2767.3814
-2797.9969
-2793.7289
-2752.1868
-2673.8003
-2562.9475
-2427.4686
-2277.0247
-2121.1766
-1967.9571
-1823.2167
-1690.6252
-1572.033
-1467.9347
-1378.0301
-1301.4734
-1237.2207
-1184.2863
-1141.7548
-1107.7581
-1084.2845
-1068.0178
-1061.9747
-8.3019461
-31.704136
-56.643097
-84.254452
-115.76829
-152.53879
-196.05523
-247.94635
-309.97348
-383.99649
-471.93026
-575.6518
-696.75413
-836.11921
-993.33025
-1166.4132
-1351.7414
-1544.3857
-1738.8051
-1929.7189
-2112.7107
-2284.4038
-2441.9829
-2582.867
-2704.3444
-2802.4892
-2872.2395
-2908.6394
-2905.9748
-2860.2134
-2770.9049
-2643.1087
-2486.808
-2314.433
-2138.0044
-1967.1751
-1808.5061
-1665.6707
-1540.0921
-1431.6474
-1339.3841
-1261.873
-1197.5859
-1145.1511
-1103.3628
-1070.2566
-1047.3993
-1031.7331
-1025.8828
-5.2977599
-23.809513
-43.749795
-66.267548
-92.614527
-124.2023
-162.62185
-209.65681
-267.29256
-337.68449
-423.13605
-526.04618
-648.65519
-792.50605
-957.53455
-1141.716
-1340.8101
-1548.82
-1758.9535
-1964.925
-2161.8556
-2346.4229
-2516.22
-2669.0003
-2802.3726
-2912.2203
-2992.6561
-3037.2454
-3038.0143
-2988.3792
-2886.2931
-2737.5609
-2555.2047
-2355.6093
-2154.1556
-1962.5229
-1787.9797
-1633.9741
-1501.204
-1388.6545
-1294.5064
-1216.6005
-1152.8333
-1101.3964
-1060.7679
-1028.8869
-1006.8788
-991.96643
-986.36734
-2.1728425
-15.343243
-29.78467
-46.655797
-67.217114
-92.927033
-125.47481
-166.8017
-219.13623
-284.95887
-367.00633
-468.2953
-591.9059
-740.34337
-914.0934
-1111.1835
-1326.5952
-1552.8705
-1781.4624
-2004.7036
-2217.1734
-2415.7869
-2598.8696
-2764.8242
-2911.9087
-3035.8292
-3129.9894
-3186.1019
-3193.2123
-3140.7823
-3023.9251
-2849.1354
-2633.8418
-2400.211
-2168.2613
-1952.1652
-1759.7682
-1593.8904
-1454.0584
-1337.9918
-1242.7396
-1165.2455
-1102.7403
-1052.9358
-1013.979
-983.72311
-962.84284
-948.8635
-943.58524
1.1644543
-6.1882943
-14.619643
-25.277531
-39.409125
-58.500401
-84.329372
-118.98952
-164.96881
-225.10027
-302.58701
-401.1485
-524.92963
-677.84622
-861.22315
-1073.3621
-1308.2595
-1556.433
-1806.8317
-2049.8469
-2279.4175
-2493.0095
-2690.1518
-2870.4059
-3033.137
-3173.8691
-3285.5776
-3357.7892
-3375.739
-3322.8527
-3189.2427
-2981.6942
-2724.1814
-2447.5673
-2178.3299
-1933.6192
-1721.4783
-1543.4184
-1397.1408
-1278.6054
-1183.4103
-1107.4244
-1047.1309
-999.73607
-963.05893
-934.88947
-915.45681
-902.61167
-897.73318
4.3487773
3.2225146
1.2880264
-2.6025843
-9.6560475
-21.354951
-39.54919
-66.467362
-104.86824
-157.9648
-229.44172
-323.77022
-446.39104
-603.30278
-797.07757
-1026.7484
-1285.0675
-1559.72
-1836.0313
-2101.6178
-2349.6513
-2578.6899
-2790.1473
-2985.5243
-3165.858
-3326.6538
-3460.6314
-3555.0687
-3590.6166
-3541.8205
-3389.8896
-3140.6467
-2828.033
-2496.4586
-2181.4534
-1903.5229
-1670.0599
-1480.1533
-1328.7405
-1209.385
-1115.8697
-1042.8167
-985.90554
-941.84003
-908.13941
-882.57096
-864.93921
-853.44567
-849.05286
8.1099439
13.726623
18.759705
22.167981
22.832963
19.32493
9.7484436
-8.2263932
-37.631018
-82.092505
-145.7759
-233.88301
-353.31887
-513.19065
-717.87042
-968.05737
-1254.9369
-1562.1862
-1869.809
-2161.3698
-2429.0554
-2673.4248
-2898.7574
-3109.5377
-3309.3599
-3494.1119
-3656.005
-3780.6698
-3843.7611
-3807.3953
-3636.909
-3333.8301
-2947.6165
-2544.7458
-2173.3663
-1857.3242
-1601.6572
-1401.2579
-1246.9865
-1129.2234
-1039.5525
-971.21378
-919.0769
-879.39117
-849.43802
-827.02377
-811.56817
-801.65211
-797.83465
10.972834
23.590608
36.036857
47.264431
56.269614
61.74502
61.786721
54.017572
35.153949
1.1064422
-52.762022
-132.24981
-245.6591
-406.75577
-622.34528
-896.63062
-1218.7606
-1566.6578
-1912.4022
-2233.5925
-2521.0264
-2778.9413
-3016.0407
-3241.1339
-3461.9168
-3675.2118
-3871.9924
-4037.0574
-4141.9277
-4132.5757
-3946.5771
-3572.9649
-3085.5667
-2588.7765
-2147.8032
-1788.8773
-1511.4543
-1303.4725
-1149.9311
-1037.1145
-954.06142
-892.58158
-846.81278
-812.66081
-787.27425
-768.58456
-755.68644
-747.57226
-744.41955
13.986107
34.123032
54.464796
74.044596
92.041183
107.3804
118.2041
122.16956
115.80576
94.495605
53.106667
-14.496581
-117.37328
-276.31909
-501.18298
-803.37752
-1169.4155
-1568.9325
-1962.16
-2317.7619
-2624.301
-2892.767
-3138.6725
-3376.4398
-3620.0593
-3868.3612
-4108.6961
-4326.0731
-4491.6503
-4533.789
-4343.2094
-3876.7307
-3245.2245
-2622.6054
-2095.5503
-1689.9126
-1393.5458
-1183.206
-1035.711
-932.30392
-859.28028
-807.1365
-769.48258
-742.07491
-722.0838
-707.67729
-697.70401
-691.60249
-689.19881
17.45993
45.548509
74.052349
102.2687
129.62026
155.41504
177.93229
194.95365
202.96629
196.72728
170.47421
117.99095
31.253436
-121.1102
-352.1069
-687.57707
-1110.3623
-1577.8559
-2032.2554
-2429.1171
-2752.3407
-3025.215
-3273.9051
-3519.0403
-3784.337
-4072.6649
-4364.9623
-4646.5573
-4896.7581
-5031.5645
-4866.3143
-4279.0136
-3431.0675
-2636.2113
-2002.68
-1549.3207
-1240.9103
-1036.7805
-902.82414
-814.5074
-755.51932
-715.43148
-687.70434
-668.23742
-654.42862
-644.81615
-638.0973
-634.19186
-632.61087
19.30624
55.467271
92.459972
129.71708
166.90113
203.88349
239.18145
270.78527
295.40469
307.15173
299.37602
265.82456
203.45085
65.616202
-162.55828
-534.97559
-1029.7992
-1585.6211
-2117.6145
-2561.6933
-2892.5045
-3155.791
-3396.0037
-3639.6505
-3924.7333
-4263.0975
-4628.4038
-4997.04
-5363.6033
-5655.2904
-5579.2205
-4836.2998
-3642.4883
-2608.8328
-1847.7536
-1352.6668
-1045.7407
-860.95037
-750.57409
-684.20768
-643.6857
-618.44337
-602.38433
-591.94497
-584.99946
-580.60262
-577.40407
-575.83609
-575.13514
20.187095
64.914115
110.76049
157.42516
204.83679
253.59089
302.61192
350.14858
393.5565
426.31989
440.78247
429.2797
400.68602
287.00132
76.096014
-339.31932
-933.03166
-1613.8769
-2254.7411
-2762.7561
-3092.8356
-3330.8374
-3559.6098
-3795.4884
-4098.6798
-4499.4248
-4960.7471
-5427.8302
-5903.9814
-6406.5324
-6538.433
-5640.5106
-3860.6085
-2509.7707
-1603.0766
-1082.9951
-800.28523
-653.7859
-579.71966
-543.02647
-525.46192
-517.64514
-514.73862
-514.18686
-514.6079
-515.71546
-516.21324
-517.06803
-517.28267
22.44215
75.841152
129.77636
185.03589
241.78233
301.63628
364.55786
428.99209
493.65527
552.05712
594.04689
608.16679
624.76285
550.94909
387.12899
-69.612012
-795.10644
-1643.2392
-2423.7316
-3012.8163
-3313.5466
-3475.1048
-3619.7914
-3803.2475
-4106.6203
-4561.8739
-5129.1678
-5707.3058
-6295.8107
-7193.7591
-7835.0427
-6963.9468
-4135.9145
-2358.1435
-1239.6038
-717.76691
-497.4384
-416.09814
-393.40356
-394.14431
-403.45127
-415.03526
-426.28174
-436.12333
-444.16474
-450.89212
-455.14946
-458.44427
-459.5837
24.475149
87.724688
150.68458
215.56732
282.67947
354.66298
432.51175
514.76178
602.20476
687.02668
759.70955
799.47994
869.23267
846.22923
776.33398
294.51355
-599.19446
-1686.3655
-2683.9597
-3327.561
-3540.2238
-3575.1623
-3750.4732
-3990.6713
-4368.2515
-4879.3392
-5611.0034
-6388.4893
-7127.7631
-8519.6657
-9764.0802
-9488.3411
-4677.4457
-2200.9483
-655.61674
-214.37688
-134.33918
-154.7559
-198.473
-242.65754
-281.20814
-313.08494
-338.76652
-359.03635
-374.64315
-386.90165
-394.85265
-400.52862
-402.57263
14.713569
85.335696
155.90092
229.08562
305.50016
388.12764
479.90686
579.54422
688.06366
800.59553
908.68371
978.08697
1108.7532
1216.9641
1300.9396
822.87149
-359.17125
-1817.3205
-2996.7427
-3841.9197
-4096.8909
-4020.2538
-4027.9381
-4136.7795
-4386.0322
-4516.7506
-5492.8618
-6550.0746
-7778.4142
-9018.358
-10493.429
-12722.697
-4975.3122
-957.92373
442.26711
446.60582
265.02459
111.24669
-6.508616
-95.49721
-163.01633
-214.56136
-254.06484
-284.25208
-307.02788
-324.51048
-335.9537
-343.87329
-346.77137
22.554944
102.26655
178.95854
258.22066
340.75097
430.15289
533.35711
646.73188
777.70843
927.55338
1078.4672
1172.1384
1311.1257
1380.4661
1790.844
1589.1443
75.707974
-1923.6496
-3688.3217
-4649.1266
-4658.1061
-4028.6792
-3354.5635
-3508.9252
-3585.8824
0
0
0
0
0
0
0
0
4497.8957
1883.1534
1072.2092
625.90159
350.93193
167.88553
39.642583
-53.312569
-122.21881
-173.99674
-213.0421
-242.25539
-264.44426
-279.04851
-288.99936
-292.67216
45.542629
133.11567
216.53675
302.46153
392.23666
489.70271
601.20782
725.23995
871.98054
1034.4758
1213.8955
1348.4483
1480.1653
1699.8021
2413.9796
2512.062
501.04612
-2106.3162
-4173.6309
-4914.3966
-4738.1287
-3479.5438
0
0
0
0
0
0
0
0
0
0
7920.0387
4333.9725
2431.8035
1435.9492
878.98233
537.29399
312.2304
156.21112
44.112232
-38.427162
-100.14175
-146.52022
-181.15354
-207.35033
-224.67275
-236.37799
-240.72127
-4.7580267
65.130458
148.35452
237.34964
332.25975
434.22319
553.05911
694.21238
852.86571
1037.3579
1225.3056
1370.2797
1414.2909
2085.8424
3137.2344
3951.7901
2012.0358
-2065.3797
-4308.6609
0
0
0
0
0
0
0
0
0
0
0
-390.83104
1091.3343
3676.4648
3416.0633
2336.7489
1538.1332
1010.7862
660.49491
420.36302
250.3547
126.76702
35.134145
-33.682553
-85.55645
-124.39097
-153.76595
-173.28049
-186.41438
-191.3049
29.934832
107.95011
189.82224
277.19563
369.87521
467.45907
583.68561
714.14255
864.61591
1042.4507
1202.7435
1306.9966
1293.0419
1557.2665
2712.835
3818.8414
0
0
0
0
0
0
-1914.4338
-2080.0431
-2124.6934
-2219.4929
-2250.3635
-2112.2032
-1856.2444
-1206.4223
-175.46173
1187.0581
2575.3671
2618.7165
2050.043
1485.616
1047.3396
726.19642
492.7141
321.27621
193.69819
97.61828
24.679732
-30.725167
-72.444228
-104.0965
-125.22867
-139.43576
-144.73855
64.857508
153.07799
237.21333
324.86895
416.41562
512.99094
621.26139
739.21989
880.84395
999.16201
1103.4788
1280.454
1155.7911
1124.6061
1798.2734
1122.0783
1090.1333
-67.181172
-609.03499
-1017.1926
-1336.0035
-1575.8467
-1884.5033
-1802.0534
-1995.2845
-1955.9087
-1899.3638
-1825.2096
-1531.0983
-979.63772
33.522349
1137.4228
2000.002
2053.1207
1747.6839
1364.4063
1022.4439
747.21381
534.02174
370.59954
245.32126
148.97687
74.728391
17.70606
-25.586327
-58.605615
-80.768843
-95.684249
-101.26032
15.31576
89.786409
170.99136
257.03887
346.54874
442.72329
547.94203
663.92517
798.33959
916.46856
1015.8336
1171.812
1045.9018
1750.0281
1558.1238
1088.205
525.65997
-209.10845
-715.91943
-1087.549
-1321.9498
-1537.5807
-1582.0872
-1565.7578
-1641.8261
-1611.092
-1527.5958
-1402.545
-1123.9728
-648.58935
106.04056
927.6702
1521.6986
1628.1609
1473.5175
1220.2983
962.83834
737.08244
550.78979
401.3787
283.03048
189.8039
116.66841
59.751863
16.104469
-17.417311
-40.046452
-55.315056
-61.028739
41.745813
115.47315
191.53655
271.36224
353.62646
441.90858
536.88281
638.9458
744.74281
846.55064
941.46429
1122.4394
1103.8289
1461.6379
1283.6267
1104.009
612.44753
59.456494
-399.94806
-776.33785
-1053.5187
-1272.9277
-1362.804
-1396.7452
-1422.2309
-1386.8781
-1293.8316
-1133.5412
-860.56451
-438.48439
140.40266
744.93211
1173.4268
1304.1901
1238.411
1076.3105
887.31308
707.28571
549.56706
417.21646
308.77077
221.12983
151.02672
95.660148
52.720384
19.47201
-3.1067262
-18.399429
-24.124669
41.495146
113.00778
186.15609
262.03958
339.92465
422.62242
508.0964
598.92954
686.19284
767.29148
847.57579
971.59249
927.03287
1108.2468
928.68795
790.8433
430.56759
21.054077
-340.01313
-640.44493
-878.12541
-1055.1715
-1153.0741
-1202.2852
-1215.1419
-1176.9069
-1083.6916
-924.34078
-670.74878
-305.77439
150.22688
603.27266
925.95149
1057.0491
1042.23
942.47059
806.95734
666.44496
536.0524
421.65731
324.68051
244.22215
178.5427
125.85193
84.490718
52.17475
30.0944
15.06841
9.4432711
35.380105
104.16658
175.50626
248.87772
323.64755
401.95616
481.01158
564.17132
641.75871
717.36497
790.7886
870.13481
844.60454
953.34847
791.14386
643.76059
365.53963
40.045157
-262.78023
-522.87033
-731.001
-883.14548
-976.59844
-1024.7626
-1031.3579
-991.25994
-899.98204
-749.29613
-523.90402
-217.37602
144.13834
491.37303
744.06203
866.9149
880.94398
823.29781
728.35887
620.6671
514.79538
417.85348
332.84289
260.42329
200.06798
150.86063
111.7451
80.889605
59.675999
45.161404
39.730493
40.000625
105.67007
172.16123
239.80724
308.32122
379.14374
449.56799
521.82414
586.97264
650.85904
708.18787
759.29523
743.62962
785.50203
658.66206
518.47059
300.85269
44.00118
-205.37125
-426.18834
-606.32163
-739.73971
-825.78234
-869.78561
-872.97858
-833.00974
-746.42119
-608.01212
-410.48119
-155.40631
132.70018
404.17155
607.3359
719.20437
749.06194
719.70431
655.01337
573.94884
489.29522
408.43401
335.13965
271.03541
216.48577
171.27825
134.8781
105.87833
85.816359
72.008079
66.846495
38.057953
100.9212
164.32118
228.35466
292.76981
358.11733
421.85239
485.29837
541.30247
594.64255
639.10447
669.78547
657.05254
659.26194
556.51575
427.95758
251.13404
44.433876
-161.54286
-347.97817
-502.55827
-619.10811
-696.18257
-735.20909
-736.24001
-697.99985
-618.15203
-493.89142
-322.96058
-110.98177
120.75937
336.87429
503.19001
603.54531
641.47574
630.98692
588.58912
528.70464
462.00917
395.47728
333.18141
277.24894
228.6524
187.71185
154.31825
127.44382
108.73714
95.780327
90.944059
33.454954
92.81802
152.8492
213.09406
273.13371
333.00694
390.57582
446.44649
495.08426
539.77134
573.72952
591.56508
578.68086
559.94371
474.20377
359.99121
213.15093
44.150266
-126.80877
-284.03664
-416.2953
-517.50872
-585.33061
-619.30248
-618.88226
-583.1878
-510.94561
-401.1404
-254.49273
-78.211045
110.08611
284.9522
423.01987
512.39281
553.77667
555.73321
529.66243
486.40269
434.64455
380.59078
328.29343
280.10632
237.35959
200.7515
170.50274
145.91094
128.68853
116.68139
112.20836
34.54775
91.132062
147.47598
203.55419
258.91725
313.25675
364.7846
413.43213
455.10825
491.44015
516.31257
525.1938
510.59069
481.51673
407.71466
307.71082
183.98596
43.944425
-98.713771
-231.40301
-344.39187
-431.85921
-490.89425
-520.13012
-518.70921
-485.99482
-421.48141
-325.42297
-200.18569
-53.186788
101.33685
244.83657
360.7878
440.15684
482.27456
492.31554
478.13022
447.80406
408.29873
364.94272
321.53632
280.49098
243.31369
210.94862
183.85831
161.61054
145.93615
134.93477
130.84668
31.252997
84.775871
138.01405
190.65263
242.1197
291.88531
338.42249
381.25248
417.29302
446.89588
464.98578
468.02578
451.84528
418.65647
353.90397
266.78592
161.49788
44.090124
-75.698657
-187.92544
-284.39541
-359.71178
-410.73617
-435.70243
-433.61244
-404.00214
-346.90962
-263.39136
-156.59393
-33.474122
94.577911
213.81107
312.18088
382.6674
423.96903
439.13468
433.55216
413.22689
383.66695
349.36065
313.73161
279.12969
247.12724
218.80312
194.78773
174.86712
160.75001
150.77438
147.07913
29.784788
80.401326
130.47453
179.64671
227.27462
272.71109
314.63845
352.31674
383.36065
407.30503
420.16061
419.2071
401.88908
367.85931
310.37794
234.44972
144.15566
44.721842
-56.571332
-151.84868
-234.29123
-299.03215
-342.95262
-364.1633
-361.63948
-335.05775
-284.81097
-212.41088
-121.24924
-17.543989
89.602316
189.80653
274.05026
336.77497
376.42999
394.72227
395.33098
382.69714
361.14903
334.41385
305.50178
276.61366
249.32013
224.75729
203.66103
185.98941
173.39561
164.43637
161.1307
27.974624
75.850651
123.02935
169.06594
213.26793
254.92043
292.84878
326.1697
352.97342
372.36043
381.28108
377.63285
359.74214
326.53896
275.14758
208.72373
130.73961
45.756775
-40.537279
-121.83111
-192.46298
-248.12812
-285.87708
-303.84913
-301.0603
-277.30347
-233.18786
-170.43518
-92.37739
-4.4286931
86.106371
171.23997
244.05498
300.07627
337.70032
357.78398
362.81719
356.07374
340.93853
320.47669
297.29724
273.40597
250.3236
229.19436
210.81051
195.26397
184.127
176.15243
173.22486
26.337079
71.656201
116.16396
159.34011
200.46418
238.7851
273.23315
302.86486
326.10081
341.86627
347.85102
342.41653
324.43737
292.83756
246.65186
188.2073
120.35687
47.075409
-27.03503
-96.83447
-157.60301
-205.57695
-238.05175
-253.27596
-250.34215
-229.13648
-190.38563
-135.86173
-68.680749
6.5046555
83.787695
156.9083
220.44302
270.73201
306.21527
327.211
335.37955
333.12731
323.09284
307.78564
289.44475
269.86843
250.49255
232.44093
216.52871
202.95087
193.18153
186.1448
183.57873
24.84156
67.822981
109.91312
150.529
188.93511
224.36228
255.81989
282.35651
302.63164
315.5515
319.36036
312.77866
295.05413
265.34205
223.6222
171.8204
112.29769
48.512222
-15.706966
-76.101828
-128.70439
-170.23965
-198.27243
-211.19754
-208.19934
-189.23622
-155.08504
-107.47303
-49.236208
15.645625
82.346104
145.86728
201.86731
247.30612
280.70981
302.0564
312.42633
313.58295
307.58187
296.47376
282.17107
266.27209
250.11027
234.76995
221.06799
209.28022
200.77559
194.62261
192.40005
23.529242
64.423204
104.36955
142.73868
178.78777
211.74053
240.66809
264.64114
282.49876
293.20811
295.4196
288.13804
270.87504
243.06424
205.14746
158.82259
106.10062
49.998289
-6.2250885
-58.981194
-104.89474
-141.11255
-165.46134
-176.49154
-173.48114
-156.44273
-126.1606
-84.267502
-33.310023
23.30133
81.571674
137.43361
187.33871
228.72064
260.20511
281.55698
293.45123
297.17635
294.337
286.61168
275.63504
262.82276
249.40282
236.40709
224.64195
214.4502
207.10142
201.77957
199.88616
22.360458
61.428289
99.518627
135.96088
170.00773
200.88286
227.70735
249.58909
265.5061
274.51818
275.57066
267.89351
251.18856
225.13971
190.40969
148.54334
101.31321
51.372781
1.5519445
-45.070512
-85.58158
-117.47946
-138.82679
-148.32208
-145.33031
-129.90336
-102.80843
-65.565006
-20.451084
29.589272
81.197078
130.99386
176.01701
214.0622
243.85258
265.02114
277.95985
283.60848
283.22665
278.19669
269.92246
259.66052
248.53944
237.5326
227.42726
218.62597
212.32278
207.79228
206.2259
21.386425
58.914014
95.451126
130.29346
162.69016
191.86917
216.99234
237.20942
251.60662
259.34001
259.56798
251.69536
235.56148
211.05179
178.92751
140.61979
97.742637
52.659477
7.8769942
-33.910682
-70.146296
-98.611133
-117.56836
-125.84691
-122.8873
-108.76907
-84.230909
-50.680168
-10.163037
34.746893
81.17093
126.2384
167.41792
202.77915
231.13203
252.02931
265.66657
272.73012
274.21971
271.28712
265.15027
256.93363
247.67946
238.30471
229.57175
221.93888
216.56796
212.81736
211.60613
20.548225
56.82922
92.128089
125.69996
156.7904
184.63485
208.42862
227.36155
240.60321
247.39499
247.04761
239.09791
223.48156
200.23767
170.16281
134.60166
95.065787
53.693203
12.754906
-25.340507
-58.302808
-84.13245
-101.25364
-108.60271
-105.68175
-92.589104
-70.032581
-39.320717
-2.3119033
38.703772
81.201981
122.68009
160.91916
194.19192
221.38051
241.99035
256.08325
264.16529
267.04594
265.70357
261.21242
254.59309
246.81932
238.75978
231.14508
224.47216
219.92114
216.98112
216.22818
19.855622
55.214408
89.604066
122.23576
152.35732
179.21586
202.03406
220.03593
232.45209
238.59108
237.86822
229.9154
214.72847
192.46175
163.91447
130.36363
93.259804
54.574602
16.418975
-19.002218
-49.589817
-73.504031
-89.289304
-95.963495
-93.075039
-80.734376
-59.621947
-30.96789
3.5105139
41.728043
81.409901
120.30932
156.42463
188.17219
214.48929
234.85441
249.24101
258.03196
261.90333
261.70919
258.41804
252.97285
246.29681
239.22076
232.43415
226.43315
222.46362
220.3367
220.34848
19.125695
53.985586
87.834034
119.86914
149.36328
175.58112
197.76669
215.16863
227.05774
232.78772
231.83872
223.90529
209.01406
187.40364
159.85749
127.6059
92.078908
55.135553
18.789109
-14.891782
-43.933601
-66.600504
-81.516393
-87.753667
-84.891688
-73.048184
-52.883756
-25.574834
7.2549545
43.653141
81.504028
118.7227
153.44509
184.1797
209.90117
230.07367
244.61706
253.83732
258.32583
258.85625
256.32739
251.63092
245.65863
239.2196
232.96525
227.35735
223.7464
222.60832
224.38783
18.164473
53.312896
86.9724
118.71366
147.8828
173.76577
195.6207
212.71029
224.32672
229.84801
228.78643
220.86904
206.13598
184.86697
157.83936
126.25498
91.537137
55.48813
20.053579
-12.764516
-41.040927
-63.089309
-77.573332
-83.593302
-80.744642
-69.148958
-49.456699
-22.816949
9.1938014
44.689173
81.632064
118.01722
152.04846
182.28023
207.7065
227.7856
242.41209
251.85469
256.66328
257.57241
255.44733
251.15488
245.57295
239.5073
233.59427
228.2623
224.94522
224.86053
229.38892
4188.6698
4572.3032
2860.3478
2092.3981
2013.7697
1995.5844
2012.0358
1994.4079
1778.6141
1471.9927
-4366.5933
-4308.6609
-4279.275
-4296.4096
-4308.5978
-4280.2765
-4194.4807
-4037.867
-3819.4095
-3575.9098
-4504.4096
-4575.9229
-4560.4942
-4593.2571
-4624.4882
-4611.5982
-4558.3176
-4430.1287
-4226.9956
-3951.1816
-4669.5791
-4823.9916
-4760.1093
-4774.7608
-4801.9472
-4788.1396
-4752.1851
-4659.2252
-4508.8064
-4308.5266
-4768.6117
-4949.9982
-4865.9575
-4858.0378
-4870.7253
-4868.9121
-4840.5101
-4783.6178
-4667.832
-4491.5476
-4797.1001
-4978.1056
-4905.7198
-4891.4123
-4903.0267
-4914.3966
-4886.7106
-4841.6529
-4742.0235
-4593.4795
-4758.2234
-4931.4196
-4876.6236
-4864.9579
-4880.9943
-4896.5328
-4883.7174
-4830.1079
-4732.5043
-4574.5583
-4608.248
-4782.8753
-4748.0087
-4738.1287
-4750.7069
-4761.9703
-4752.5192
-4699.5534
-4601.2409
-4442.324
-4116.5859
-4111.8023
-4132.699
-4151.8613
-4193.8391
-4236.7666
-4289.5282
-4344.4256
-4405.317
-4473.7717
-3819.0461
-3941.7182
-3939.3486
-3927.6599
-3934.1938
-3960.6645
-3998.5694
-4024.4362
-4024.3713
-4005.5943
-3408.6134
-3479.5438
-3470.3954
-3452.0084
-3462.895
-3515.0428
-3579.218
-3655.5785
-3718.1681
-3764.7492
-3204.5834
-3235.7428
-3214.3284
-3190.5484
-3199.9041
-3256.9693
-3326.8559
-3415.8225
-3514.0156
-3601.9432
-3179.4955
-3192.1861
-3168.7883
-3154.024
-3154.3139
-3189.6531
-3252.1129
-3331.3527
-3425.4601
-3529.5555
-3262.1343
-3276.5739
-3258.3283
-3250.7226
-3243.5189
-3254.3059
-3296.1792
-3355.8611
-3432.3993
-3528.6687
-3367.2694
-3396.0922
-3381.6435
-3369.5718
-3358.049
-3354.5635
-3376.1369
-3415.7393
-3467.9952
-3523.6497
-3392.7655
-3412.5543
-3408.4786
-3400.8291
-3405.5844
-3416.169
-3441.9195
-3484.4656
-3541.996
-3621.3649
-3394.3919
-3394.5671
-3392.8773
-3399.3445
-3428.4222
-3465.7993
-3507.444
-3557.3582
-3615.4036
-3675.8787
-3512.0437
-3515.3148
-3508.2177
-3508.9252
-3530.4095
-3563.5793
-3602.0714
-3648.0038
-3702.0535
-3761.0842
-3624.0704
-3653.8622
-3653.4973
-3638.8325
-3642.0208
-3663.6193
-3699.5382
-3746.7537
-3805.5669
-3876.0886
-3549.2935
-3580.4269
-3607.7059
-3632.1539
-3669.784
-3715.5575
-3770.7383
-3831.8451
-3896.7818
-3968.1546
-3583.534
-3585.8824
-3621.1071
-3673.2364
-3740.6649
-3809.6732
-3883.4993
-3958.7487
-4037.9199
-4125.2863
-3808.7888
-3807.2342
-3833.6493
-3870.5541
-3928.9936
-3990.4685
-4059.0903
-4128.6902
-4200.9187
-4271.2042
-4284.43
-4448.5428
-4436.5728
-4427.2513
-4435.8407
-4445.973
-4447.7697
-4422.1726
-4371.1309
-4305.8694
-1474.4593
-1477.5357
-1348.9345
-1320.4988
-1337.8288
-1303.9134
-1221.2151
-990.26772
-732.68255
-596.09213
-3896.1741
-3766.5448
-3720.1672
-3741.5519
-3736.4356
-3699.941
-3597.9275
-3440.9781
-3223.6184
-2987.8493
505.2589
405.58932
41.068298
-192.83781
-350.17971
-407.63189
-184.87342
80.528591
297.37573
354.48698
-1534.4384
-1801.9277
-1939.3045
-2033.7039
-2065.3797
-2001.2902
-1954.112
-1827.2691
-1637.1038
-1441.7795
-2602.2191
-2482.1499
-2629.0907
-2845.7005
-2919.8091
-2882.8749
-2807.62
-2672.1521
-2483.556
-2295.6958
8987.309
8470.422
7920.0387
7322.9687
6705.833
6090.7886
5490.9172
4915.0422
4359.2006
3815.698
5719.874
5702.7759
5642.067
5452.5695
5179.2321
4849.3654
4485.9647
4103.8173
3715.9869
3312.7383
-4453.7166
-4443.8156
-4461.2204
-4465.6381
-4493.4418
-4516.7506
-4549.9874
-4584.4875
-4623.9511
-4673.0957
-4813.7237
-4798.0517
-4812.2501
-4801.6923
-4816.4938
-4820.4295
-4833.083
-4843.631
-4851.8478
-4858.4936
-5184.4192
-5162.1271
-5173.9323
-5148.9692
-5153.5885
-5141.9575
-5139.8647
-5135.5115
-5129.4988
-5116.6317
-5558.0587
-5528.134
-5538.1452
-5498.1325
-5492.8618
-5465.4353
-5448.0557
-5428.1592
-5413.685
-5403.5297
-5933.4825
-5894.835
-5903.991
-5848.5725
-5833.9728
-5790.8193
-5757.0014
-5718.183
-5675.4013
-5636.7113
-6311.8891
-6262.7391
-6271.4875
-6199.4826
-6175.2581
-6115.7681
-6063.7713
-6003.1642
-5933.6442
-5846.9128
-6691.876
-6630.2813
-6639.4946
-6550.0746
-6516.8444
-6442.9661
-6376.9856
-6303.6604
-6231.0196
-6156.1159
-7077.0588
-7000.7289
-7011.2115
-6902.6292
-6858.8368
-6768.1964
-6682.7473
-6588.3159
-6491.137
-6399.1546
-7471.937
-7377.4001
-7389.5193
-7259.3863
-7203.0935
-7094.2235
-6986.4707
-6864.9456
-6729.6881
-6581.8438
-7880.0631
-7763.5948
-7778.4142
-7624.7927
-7554.496
-7427.5436
-7298.4786
-7156.9263
-7002.7828
-6836.8995