/*--------------------------------*- C++ -*----------------------------------*\
| =========                 |                                                 |
| \\      /  F ield         | foam-extend: Open Source CFD                    |
|  \\    /   O peration     | Version:     4.1                                |
|   \\  /    A nd           | Web:         http://www.foam-extend.org         |
|    \\/     M anipulation  |                                                 |
\*---------------------------------------------------------------------------*/
FoamFile
{
    version     2.0;
    format      ascii;
    class       volScalarField;
    location    "1";
    object      p;
}
// * * * * * * * * * * * * * * * * * * * * * * * * * * * * * * * * * * * * * //

dimensions      [0 2 -2 0 0 0 0];

internalField   nonuniform List<scalar> 
4393
(
-46.418158
-92.981566
-146.74621
-201.53714
-258.52777
-318.0288
-380.42316
-446.02041
-515.0448
-587.6065
-663.67345
-743.04324
-825.31776
-909.88443
-995.90801
-1082.3359
-1167.9177
-1251.2358
-1330.7435
-1404.8031
-1471.7234
-1529.7942
-1577.3207
-1612.6652
-1634.3001
-1640.8822
-1631.3574
-1605.1056
-1562.0201
-1502.601
-1428.0596
-1340.3014
-1241.8207
-1135.5181
-1024.4742
-911.72355
-800.06568
-691.9332
-589.32323
-493.78396
-406.4428
-328.06084
-259.09863
-199.78201
-150.17235
-110.23865
-79.761594
-57.830666
-43.626375
-45.165994
-92.395746
-146.03363
-200.67333
-257.49484
-316.84108
-379.1086
-444.61904
-513.6085
-586.19918
-662.37065
-741.93056
-824.48785
-909.43242
-995.92582
-1082.9065
-1169.1102
-1253.1032
-1333.3216
-1408.112
-1475.7687
-1534.5664
-1582.7941
-1618.7923
-1641.0043
-1648.0537
-1638.8507
-1612.7006
-1569.4331
-1509.5412
-1434.2419
-1345.4758
-1245.8028
-1138.2092
-1025.8655
-911.88643
-799.13145
-690.06986
-586.71322
-490.60632
-402.86092
-324.21553
-255.10805
-195.75152
-146.1988
-106.35855
-75.959938
-54.861019
-44.262854
-44.361755
-91.498995
-144.77535
-199.05427
-255.52496
-314.55996
-376.57794
-441.92282
-510.85384
-583.51688
-659.91436
-739.87356
-823.01676
-908.7377
-996.19
-1084.2922
-1171.7505
-1257.0968
-1338.7324
-1414.972
-1484.0812
-1544.307
-1593.9059
-1631.1753
-1654.498
-1662.4176
-1653.7559
-1627.7349
-1584.0926
-1523.2503
-1446.4192
-1355.6091
-1253.5167
-1143.3065
-1028.3356
-911.8815
-796.92401
-686.00282
-581.15356
-483.90851
-395.3418
-316.14031
-246.6881
-187.15455
-137.54906
-97.686266
-67.256183
-46.701274
-37.918751
-43.571037
-90.203251
-142.87164
-196.57204
-252.4987
-311.05278
-372.68178
-437.76157
-506.58618
-579.33804
-656.05535
-736.59684
-820.60689
-907.48675
-996.37889
-1086.1715
-1175.5252
-1262.9185
-1346.6995
-1425.1357
-1496.4514
-1558.8551
-1610.559
-1649.7996
-1674.8717
-1684.1963
-1676.4491
-1650.7011
-1606.5419
-1544.2864
-1465.1326
-1371.1964
-1265.3913
-1151.167
-1032.1763
-911.95369
-793.66486
-679.95531
-572.89341
-473.98761
-384.25082
-304.28917
-234.40294
-174.68628
-125.07354
-85.289746
-55.020582
-34.932648
-26.78853
-42.745903
-88.585833
-140.40125
-193.29734
-248.47598
-306.36916
-367.45986
-432.16547
-500.82662
-573.6756
-650.80047
-732.10447
-817.26428
-905.69315
-996.51879
-1088.5865
-1180.492
-1270.6376
-1357.2977
-1438.676
-1512.9451
-1578.2669
-1632.8011
-1674.7098
-1702.1749
-1713.4556
-1707.0259
-1681.7359
-1636.9499
-1572.8147
-1490.4948
-1392.2509
-1281.309
-1161.5322
-1037.0002
-911.61096
-788.78674
-671.3116
-561.2882
-460.18104
-368.90972
-287.96362
-217.52406
-157.57594
-107.95199
-68.294967
-38.298139
-18.681796
-10.925393
-41.737327
-86.536647
-137.25269
-189.11349
-243.32974
-300.36864
-360.75593
-424.9608
-493.38348
-566.32141
-643.92901
-726.17042
-812.76814
-903.15458
-996.43977
-1091.4116
-1186.5766
-1280.2339
-1370.5595
-1455.6766
-1533.6971
-1602.7336
-1660.8902
-1706.2459
-1736.8468
-1750.7473
-1746.1532
-1721.612
-1676.1659
-1609.7068
-1523.3273
-1419.4745
-1301.8062
-1174.7633
-1043.0154
-910.95232
-782.33096
-660.10334
-546.39802
-442.60325
-349.50122
-267.41783
-196.37051
-136.19339
-86.585066
-47.088825
-17.367101
1.8969335
9.4357495
-40.595398
-84.126936
-133.49081
-184.06957
-237.08728
-293.05222
-352.54067
-416.08437
-484.15732
-557.13926
-635.27048
-718.59626
-806.90294
-899.65302
-995.93704
-1094.4678
-1193.6322
-1291.591
-1386.3922
-1476.0607
-1558.643
-1632.2065
-1694.8068
-1744.4401
-1779.0015
-1796.2979
-1794.1904
-1770.8218
-1724.7833
-1655.5831
-1564.1733
-1453.2293
-1326.9961
-1190.7093
-1049.8389
-909.42361
-773.64126
-645.6345
-527.5351
-420.60677
-325.43667
-242.13078
-170.49244
-110.16328
-60.678187
-21.45909
7.9056928
26.825243
34.192501
-39.185898
-81.20532
-128.95608
-178.0011
-229.57639
-284.23655
-342.61596
-405.32023
-472.91245
-545.87428
-624.55498
-709.10624
-799.40244
-894.95261
-994.82792
-1097.6441
-1201.6277
-1304.7542
-1404.9056
-1499.9891
-1587.9856
-1666.9314
-1734.8533
-1789.6778
-1829.1433
-1850.7691
-1851.9855
-1830.4071
-1784.0022
-1711.7061
-1614.2112
-1494.4604
-1357.4947
-1209.6405
-1057.447
-906.79649
-762.38092
-627.54213
-504.3685
-393.92612
-296.52849
-211.98972
-139.83911
-79.479703
-30.251561
8.5672465
37.491722
56.045341
63.250091
-37.65334
-77.930713
-123.79652
-171.03237
-220.88961
-273.97475
-330.98783
-392.62001
-459.5404
-532.35509
-611.55032
-697.4164
-789.949
-888.72951
-992.8144
-1100.6956
-1210.3844
-1319.6071
-1426.0296
-1527.4196
-1621.6999
-1706.9036
-1781.0651
-1842.0735
-1887.5195
-1914.6015
-1920.223
-1901.32
-1855.0088
-1779.373
-1674.6425
-1544.0551
-1393.7366
-1231.5216
-1065.4155
-902.3889
-747.74484
-605.00872
-476.14453
-361.9147
-262.25475
-176.59767
-104.12875
-43.961574
4.7929394
43.025232
71.376316
89.495625
96.518432
-35.748709
-74.004611
-117.69173
-162.83106
-210.68124
-261.90349
-317.26985
-377.56856
-443.59287
-516.09895
-595.74315
-682.99483
-778.01582
-880.49875
-989.49743
-1103.3461
-1219.7641
-1336.1365
-1449.8438
-1558.4887
-1659.9534
-1752.315
-1833.6767
-1901.9491
-1954.6076
-1988.5094
-1999.9318
-1984.9519
-1939.537
-1860.5094
-1747.2943
-1603.419
-1436.5048
-1256.4983
-1073.3804
-895.5165
-728.91137
-577.21576
-442.13594
-323.9791
-222.1655
-135.63781
-63.1579
-3.496466
44.498105
81.905903
109.50899
127.09038
133.89408
-33.798532
-69.806033
-111.02756
-153.76746
-199.29423
-248.3266
-301.71366
-360.35147
-425.17618
-497.12269
-577.05663
-665.67676
-763.37209
-870.00626
-984.65762
-1105.4633
-1229.7432
-1354.4104
-1476.4639
-1593.3136
-1702.8365
-1803.2275
-1892.7524
-1969.4363
-2030.7039
-2073.0719
-2092.1002
-2082.7894
-2039.5824
-1957.4455
-1834.4211
-1674.2445
-1486.6315
-1284.5417
-1080.6551
-885.11379
-704.6885
-543.02544
-401.36315
-279.34041
-175.68415
-88.714911
-16.68224
42.041025
88.899976
125.18026
151.81272
168.71862
175.25138
-31.322629
-64.748155
-103.16366
-143.16667
-186.01737
-232.48975
-283.51261
-340.09944
-403.34908
-474.40774
-554.39703
-644.30786
-744.8389
-856.1162
-977.29652
-1106.2748
-1239.8165
-1374.1661
-1505.7979
-1631.8927
-1750.3788
-1859.6762
-1958.3452
-2044.6674
-2116.1318
-2168.9536
-2197.9162
-2196.6873
-2157.7292
-2073.3222
-1939.1452
-1758.8867
-1545.2523
-1315.5991
-1086.3253
-869.81627
-673.60472
-501.08496
-352.706
-227.1442
-122.2069
-35.438144
35.519856
92.744467
137.99885
172.78226
198.17444
214.23642
220.43395
-28.935258
-59.574829
-94.897774
-131.84646
-171.67471
-215.20955
-263.4589
-317.55975
-378.79093
-448.54349
-528.2467
-619.25671
-722.68739
-839.06194
-967.71411
-1106.2503
-1250.6563
-1396.2118
-1538.6598
-1674.9181
-1803.0738
-1921.9412
-2030.5653
-2127.6958
-2211.0761
-2276.7067
-2318.5328
-2328.6669
-2297.0902
-2212.1889
-2065.6488
-1860.4822
-1613.7465
-1349.4043
-1089.0087
-847.73616
-633.73262
-449.70319
-294.82548
-166.41525
-61.079826
24.587524
93.647285
148.67076
191.75245
224.60197
248.43872
263.46036
269.24754
-25.834094
-53.29324
-85.133049
-118.63319
-155.00835
-195.12701
-240.07037
-291.10099
-349.69357
-417.52111
-496.38196
-588.08662
-694.30323
-816.15833
-953.35073
-1103.1757
-1260.5186
-1419.2435
-1574.0494
-1721.5533
-1860.1704
-1989.332
-2108.7927
-2218.0357
-2315.342
-2396.6661
-2455.0931
-2481.0162
-2461.494
-2379.4155
-2219.7549
-1983.4094
-1693.8819
-1385.4073
-1086.7021
-816.33033
-582.61407
-386.83144
-226.18186
-96.094161
8.3602188
91.724205
157.84614
209.81751
250.05972
280.47438
302.39982
316.16088
321.45367
-22.988188
-47.105451
-75.193993
-104.93071
-137.49212
-173.77944
-214.93839
-262.35365
-317.70528
-382.9825
-460.4171
-552.36832
-661.2188
-788.98555
-936.05259
-1099.421
-1272.3827
-1446.6551
-1615.3936
-1774.8778
-1924.1537
-2063.6241
-2194.0702
-2316.109
-2429.0505
-2529.1466
-2608.6646
-2656.1694
-2655.5117
-2582.0899
-2409.6741
-2133.8879
-1787.8753
-1422.5301
-1076.4478
-772.13616
-517.10443
-310.00047
-145.03106
-15.062958
86.750453
166.26708
228.18137
276.10134
312.7452
340.1685
359.79407
372.05643
376.76426
-19.233925
-39.565987
-63.483754
-89.028356
-117.2851
-149.16045
-185.84115
-228.81526
-279.96239
-341.61376
-416.50349
-507.64364
-618.31626
-751.84047
-909.86703
-1089.2842
-1281.1015
-1473.7686
-1658.1695
-1830.2871
-1990.3692
-2140.3229
-2282.2751
-2418.3667
-2549.5354
-2672.7573
-2779.4781
-2856.4108
-2884.4324
-2829.5566
-2647.2425
-2321.0838
-1898.5196
-1458.829
-1053.8832
-710.45579
-433.22333
-216.29515
-49.465261
77.791215
174.63966
248.39313
304.59872
347.33148
379.54157
403.37633
420.29288
430.80873
434.83778
-15.909487
-32.367119
-51.88925
-72.945877
-96.527731
-123.52951
-155.16054
-192.99547
-239.10588
-296.19173
-367.5726
-457.02842
-568.91976
-708.39351
-879.33733
-1079.0064
-1295.0552
-1510.7393
-1713.4081
-1898.7577
-2069.1421
-2228.6936
-2381.1168
-2530.4726
-2680.381
-2829.5994
-2969.1724
-3084.3339
-3154.0949
-3134.0072
-2949.9563
-2559.1573
-2029.2946
-1490.9027
-1012.5321
-624.92241
-325.98964
-102.36161
62.504195
183.4781
272.4032
338.09735
386.88097
423.1816
450.07257
469.70302
483.49745
492.0199
495.27718
-11.483871
-23.59116
-38.294536
-54.438439
-72.847826
-94.362832
-120.16947
-151.8745
-191.67988
-242.61844
-308.63561
-394.36103
-505.33117
-649.10568
-833.41548
-1057.1146
-1303.0084
-1546.0253
-1768.1158
-1964.9756
-2142.9688
-2309.8794
-2471.3028
-2633.6068
-2804.7306
-2986.7655
-3170.3436
-3338.494
-3469.9025
-3511.2549
-3344.1328
-2870.7947
-2184.1399
-1512.8672
-942.74264
-506.9596
-189.29279
35.500301
192.78507
302.75199
380.12702
435.1142
474.59885
503.16124
523.8375
538.65938
548.93585
555.23196
557.63027
-7.5458968
-15.399179
-25.214238
-36.272454
-49.208062
-64.767783
-84.068548
-108.69835
-140.93224
-184.10994
-242.90217
-322.98102
-431.14728
-577.96327
-777.58428
-1033.2861
-1320.8759
-1601.2825
-1847.8924
-2056.678
-2241.3013
-2415.2284
-2585.4185
-2759.5197
-2951.4725
-3168.789
-3401.8368
-3630.6608
-3839.9298
-3979.4463
-3868.0177
-3294.1263
-2367.8663
-1515.4506
-830.2909
-345.15763
-15.870229
201.09671
342.92784
435.89165
497.45944
538.82781
567.06099
586.59021
600.19987
609.65833
616.06359
619.92943
621.39302
-2.4940233
-5.6553694
-10.105235
-15.573734
-22.444851
-31.342188
-43.27358
-59.749001
-83.01249
-116.56683
-165.7552
-237.36298
-339.1787
-484.63942
-697.71608
-992.03573
-1333.7627
-1659.6061
-1930.097
-2142.1403
-2323.1136
-2495.5996
-2666.787
-2843.1667
-3048.9896
-3303.169
-3599.0829
-3914.1931
-4241.4026
-4553.213
-4583.0188
-3903.474
-2589.3075
-1483.2173
-653.4285
-124.34635
202.50904
397.84862
513.6848
582.40006
623.43438
648.1784
663.26955
672.58097
678.38333
682.01732
684.26888
685.54571
686.01626
2.9588247
3.9730185
4.5462953
4.3728187
3.3874071
1.1547949
-3.1199762
-10.723767
-23.651926
-45.260602
-81.373585
-140.12978
-230.27186
-367.38625
-589.87472
-934.90655
-1357.8487
-1750.6873
-2054.8833
-2266.9181
-2439.8739
-2611.5521
-2788.5923
-2969.4081
-3193.9209
-3500.0076
-3883.2925
-4313.0876
-4763.8987
-5291.5154
-5573.8053
-4825.3528
-2837.2979
-1376.2388
-376.9234
174.91034
474.15069
627.83577
704.34129
740.6224
756.28139
761.58019
761.89215
760.03522
757.47828
754.96819
752.88317
751.47344
750.91592
8.2851128
13.265301
19.323499
25.157948
31.020647
36.677906
41.59521
44.763261
44.510706
37.800272
18.452748
-23.538295
-98.1455
-220.10454
-443.9392
-853.4603
-1397.2767
-1876.4084
-2210.7357
-2392.8718
-2530.4214
-2685.6761
-2862.7757
-3027.8093
-3238.635
-3573.5264
-4023.7092
-4561.7415
-5089.7071
-5960.356
-6823.7125
-6299.5086
-3074.0083
-1170.9482
36.509001
572.65666
805.01346
890.17485
911.80018
907.31823
893.2602
876.87626
861.26465
847.66206
836.46261
827.67631
821.19762
817.07903
815.48671
17.841163
25.859701
36.761724
47.719723
59.416614
71.801375
84.631572
97.258569
108.52247
116.23607
114.96693
93.715983
41.620935
-49.536714
-244.67265
-715.14713
-1441.874
-2033.6025
-2413.3646
-2545.7029
-2643.0105
-2787.1905
-2982.1379
-3113.6739
-3276.6727
-3677.6933
-4224.3668
-4961.6989
-5679.3008
-7242.8488
-8882.0864
-9068.3455
-3578.1244
-1038.2157
635.19537
1099.0936
1197.3521
1178.9805
1129.5284
1077.2894
1030.5884
991.36743
959.44201
934.02516
914.23935
899.26939
888.48556
881.72104
879.11907
22.150545
30.895159
46.136627
62.238087
80.171394
100.10813
122.292
146.74775
173.26287
201.23855
227.41528
240.71494
225.96382
180.34689
45.411323
-483.28039
-1555.1526
-2311.491
-2773.6539
-2770.9974
-2749.6595
-2813.1373
-3022.6323
-3099.9003
-3207.1608
-3763.2571
-4232.9902
-5185.218
-6470.8389
-7863.4426
-9589.1379
-12103.532
-4823.2574
-72.511717
1722.8323
1811.9838
1641.1431
1478.761
1346.2304
1243.2042
1163.5579
1101.9572
1054.3121
1017.6224
989.69108
968.87512
954.02952
944.77132
941.21803
36.937096
46.533205
66.460033
87.313911
110.74795
137.07729
166.90647
200.72075
238.86204
281.66267
327.5747
365.35506
371.82653
347.26665
293.74353
-191.10633
-1818.0716
-2617.1235
-3115.4874
-2772.742
-2626.8047
-2732.532
-3131.7388
-3271.1227
-3302.433
0
0
0
0
0
0
0
0
6202.376
3402.4569
2582.4961
2068.2391
1755.86
1545.1258
1396.089
1287.002
1205.4556
1143.7784
1096.9957
1061.7475
1035.6647
1017.151
1005.6374
1001.223
35.366702
42.182618
64.028227
87.074835
113.20461
142.73938
176.57892
215.67619
261.07436
314.42416
377.58977
445.98881
502.79869
560.82514
710.68321
552.80842
-1996.7776
-2776.9482
-3646.9023
-2968.6216
-3044.326
-3012.32
0
0
0
0
0
0
0
0
0
0
10129.572
6286.2531
4123.9548
3000.3245
2361.3132
1969.1784
1709.0496
1527.5636
1396.2863
1299.0432
1225.9929
1170.8559
1129.4575
1098.8972
1077.2402
1063.7845
1058.627
44.26379
54.95018
80.949913
106.9774
136.15415
169.03573
206.87539
251.10384
303.50578
367.08006
447.11632
546.08818
653.28783
754.39015
842.1989
568.47202
-3108.224
-3581.5801
-3205.2696
0
0
0
0
0
0
0
0
0
0
0
1780.6678
3364.5903
5756.1139
5236.0885
3961.3818
3100.1683
2507.1431
2107.7402
1830.6545
1632.9923
1488.4301
1380.7312
1299.5701
1238.194
1192.0518
1157.958
1133.7812
1118.754
1112.9929
22.191614
42.166218
66.370802
91.284626
118.75203
149.54684
184.74276
225.5048
273.13186
329.8292
399.49933
478.02632
537.52829
536.24464
558.10446
702.38683
0
0
0
0
0
0
-1132.0699
-1103.5257
-1011.3081
-917.55878
-790.08778
-495.30179
-94.950421
697.08054
2026.4362
3361.9071
4750.985
4489.8563
3714.8013
3058.6862
2552.6653
2182.2203
1911.4457
1711.6616
1562.3549
1449.5323
1363.6927
1298.3453
1248.9837
1212.3857
1186.3708
1170.1782
1163.9665
19.954065
50.02205
74.970276
100.54352
127.96123
158.05634
191.47917
228.66439
269.5714
313.41735
357.89904
396.56153
406.1481
338.0903
142.01533
-338.13896
-1284.419
-1227.4764
-1147.1035
-1100.4803
-1051.0832
-1021.6147
-1010.3663
-803.29151
-838.68453
-583.18412
-362.34756
-204.62004
259.07994
904.85156
1960.2896
3049.3205
3956.5633
3851.8952
3404.2971
2933.5965
2528.4613
2206.0154
1956.704
1765.4224
1618.5289
1505.381
1418.1056
1351.0015
1299.9426
1261.8836
1234.7287
1217.7888
1211.2842
20.663333
46.485302
72.120058
97.971485
125.286
154.81468
187.1386
222.62438
261.25849
302.13348
342.03427
373.7347
384.81769
353.15726
205.21439
-227.92402
-792.30665
-920.96063
-962.54978
-966.15258
-887.80468
-842.32217
-818.5515
-691.80225
-620.94593
-417.54266
-179.14572
77.740387
510.8843
1096.4635
1896.1841
2721.5857
3334.8835
3356.8253
3105.6557
2777.1424
2463.3569
2193.8098
1973.5973
1797.6785
1658.5138
1548.9432
1463.0389
1396.1806
1344.8437
1306.3179
1278.6982
1261.4187
1254.7759
14.996482
36.230404
58.796702
81.290638
104.29035
128.03492
152.52983
177.41524
201.78922
223.68834
238.89597
240.18004
218.24764
159.2129
15.073337
-283.91393
-606.90489
-732.46631
-784.52021
-794.2882
-753.12705
-703.47605
-642.23697
-537.76422
-423.88856
-238.2454
-11.500912
269.88141
668.60597
1187.7197
1823.2398
2450.8942
2889.5186
2967.0572
2834.971
2613.0003
2376.1809
2157.6758
1969.1882
1812.3854
1684.4722
1581.3762
1499.091
1434.1698
1383.8001
1345.704
1318.2396
1300.9996
1294.3628
23.838314
46.444786
70.189684
93.655875
117.54386
141.96054
166.72543
191.20987
214.09509
232.81442
242.68353
236.66904
205.98768
135.39632
-7.2608484
-236.55264
-460.15633
-579.80741
-635.38488
-644.54263
-615.83641
-568.29458
-497.283
-394.46201
-264.3512
-82.935054
139.15879
416.11118
777.02427
1223.7697
1735.5079
2221.7434
2557.2283
2658.5587
2599.6215
2454.8454
2280.1772
2107.1223
1949.7493
1813.4687
1698.7941
1604.1108
1527.1062
1465.4576
1417.0851
1380.1847
1353.418
1336.5535
1330.0513
12.024041
29.927475
50.031871
70.035337
90.040524
109.92666
129.38551
147.74619
163.75998
175.18187
178.31475
168.06053
137.63738
74.653019
-40.056594
-203.50922
-358.80876
-456.74911
-506.08069
-514.23533
-488.93187
-440.00745
-365.69117
-262.60284
-128.54058
46.962091
261.85234
525.18878
849.67212
1232.3352
1648.6342
2032.8038
2301.9472
2411.5818
2398.1265
2308.5346
2183.1588
2048.9504
1920.3864
1804.4651
1703.8308
1618.6749
1548.064
1490.6661
1445.0903
1410.0051
1384.3869
1368.1815
1361.9233
21.407186
40.632301
60.853887
80.367433
99.453209
117.84299
135.0231
150.1011
161.62828
167.32288
163.94456
147.54759
113.07999
52.272406
-43.558301
-165.61677
-279.00488
-356.12635
-395.69165
-400.45842
-375.18921
-324.72743
-248.67596
-145.28464
-11.776197
156.7904
361.05705
606.01987
895.94969
1224.4139
1567.8644
1878.5058
2101.9955
2212.1862
2227.1455
2176.7597
2089.8429
1988.0671
1885.0994
1788.3894
1701.7409
1626.5695
1562.9907
1510.4909
1468.2866
1435.4859
1411.3699
1396.0508
1390.1249
11.86398
27.968429
45.959441
63.611231
80.820049
97.231385
112.31605
125.22137
134.61638
138.50884
134.22396
118.5581
87.501206
35.678473
-40.003561
-130.43314
-213.52626
-271.83226
-300.85065
-300.62818
-273.46378
-221.63569
-145.0338
-42.513038
87.992257
248.90662
441.01172
666.29844
924.57216
1207.7324
1495.1751
1752.1606
1942.6266
2049.7625
2082.4741
2059.9372
2002.6774
1927.6329
1846.8488
1767.6911
1694.4089
1629.1881
1572.8937
1525.6523
1487.1884
1456.9987
1434.643
1420.3806
1414.8538
17.140258
33.237161
50.219761
66.364446
81.713912
95.886236
108.32869
118.22151
124.38256
125.18484
118.6114
102.36149
73.689998
29.624286
-29.990117
-97.38349
-158.1379
-200.46362
-219.38649
-213.53607
-183.55946
-130.34497
-53.76614
46.958447
173.10362
325.77468
505.17301
711.24442
941.41638
1187.1563
1431.2295
1648.3097
1813.9307
1916.4926
1960.2175
1957.4969
1922.9603
1869.6945
1807.8361
1744.31
1683.4262
1627.7748
1578.7188
1536.859
1502.3256
1474.9437
1454.5173
1441.4276
1436.3463
11.965731
26.365507
42.1039
57.21623
71.535306
84.633225
95.954909
104.72715
109.89772
110.1127
103.80116
89.275724
64.757261
28.906214
-17.020848
-66.704956
-110.25144
-139.23031
-148.99606
-137.55294
-104.54951
-50.081344
26.066149
124.39699
245.54401
389.78359
556.64542
744.78576
950.46685
1165.4716
1375.7018
1562.536
1708.9258
1806.4486
1856.8879
1868.2981
1851.1302
1815.4427
1769.5679
1719.7243
1670.0955
1623.4065
1581.3246
1544.7828
1514.2207
1489.7313
1471.3237
1459.474
1454.8657
13.672404
27.3594
41.871401
55.55041
68.315297
79.77068
89.414868
96.5805
100.40647
99.848194
93.762744
81.006266
60.558553
32.097373
-2.5905606
-38.477841
-68.503034
-86.409094
-88.111534
-71.432831
-35.491244
20.052345
95.477616
191.07199
306.99946
442.97169
597.96116
769.8639
954.48395
1144.3001
1327.8953
1491.403
1622.6047
1715.1554
1769.5566
1791.0627
1787.1656
1765.5764
1733.0726
1695.0574
1655.463
1616.994
1581.4706
1550.0418
1523.3731
1501.7672
1485.3998
1474.8149
1470.6911
11.353615
24.027639
37.644839
50.500202
62.431934
73.046272
81.879462
88.351379
91.759992
91.311885
86.205259
75.731834
59.445041
37.65
12.274894
-12.653616
-31.898186
-40.64653
-35.406548
-14.039399
24.573831
80.986679
155.49675
248.2168
358.9767
487.09841
631.1608
788.66027
955.34726
1124.5357
1286.9983
1432.2467
1551.279
1639.1797
1695.7786
1724.5043
1730.7492
1720.4235
1699.0127
1671.1263
1640.351
1609.2932
1579.8152
1553.1929
1530.2476
1511.4411
1497.0796
1487.749
1484.1075
11.407292
23.295812
35.9232
47.753988
58.665752
68.304514
76.267881
82.076083
85.181866
85.009617
81.032434
72.875454
60.488135
44.521023
26.846133
10.719939
0.16117251
-1.0296749
10.103939
35.552393
76.497173
133.57185
207.05336
296.9131
402.74498
523.60738
657.83365
802.75737
954.29546
1106.599
1252.1829
1382.974
1492.1632
1575.8535
1633.5303
1667.4203
1681.4214
1680.0713
1667.7996
1648.5057
1625.3917
1600.918
1576.9174
1554.7267
1535.2675
1519.1184
1506.6843
1498.5701
1495.3983
10.343573
21.515022
33.418198
44.560175
54.805223
63.82891
71.285149
76.786376
79.922148
80.300886
77.619803
71.761808
62.950134
52.018495
40.710637
31.703638
28.1808
33.205086
49.27985
78.202887
121.12057
178.66629
251.07094
338.19157
439.45729
553.75643
679.29146
813.38084
952.21377
1090.7098
1222.7499
1342.0017
1443.1838
1523.1422
1581.1961
1618.7728
1638.7028
1644.4821
1639.6897
1627.6161
1611.0823
1592.3708
1573.251
1555.0718
1538.8127
1525.1347
1514.5162
1507.5607
1504.8391
9.9404853
20.476174
31.670029
42.12965
51.73962
60.212783
67.259124
72.574524
75.864559
76.885965
75.509596
71.806606
66.177364
59.537212
53.480429
50.248859
52.430572
62.542719
82.713828
114.54149
159.08801
216.94239
288.27649
372.85519
469.9944
578.48052
696.46606
821.34013
949.60053
1076.837
1197.9912
1307.9969
1402.6571
1479.3688
1537.3804
1577.5842
1602.0449
1613.4709
1614.7634
1608.701
1597.7591
1584.0279
1569.1938
1554.5862
1541.212
1529.7893
1520.8523
1514.9869
1512.6932
9.3563671
19.364498
30.008042
39.955967
49.101424
57.191335
63.987688
69.260852
72.815255
74.528534
74.407186
72.660324
69.800761
66.768742
65.016995
66.458467
73.248314
87.494264
111.01982
145.23432
191.09684
249.13131
319.44691
401.73497
495.23544
598.68046
710.22484
827.3715
946.9222
1065.0304
1177.4557
1280.059
1369.4239
1443.3589
1501.093
1543.1572
1571.0658
1586.9337
1593.1286
1592.0063
1585.7411
1576.2378
1565.0915
1553.5955
1542.7632
1533.352
1525.9432
1521.0957
1519.2101
8.9348062
18.485752
28.649803
38.160108
46.922391
54.715156
61.345964
66.647901
70.505622
72.891521
73.914386
73.880897
73.372013
73.322701
75.061073
80.250952
90.728743
108.29323
134.52333
170.66199
217.56372
275.68169
345.06511
425.34747
515.71931
614.89012
721.04707
831.82173
944.29223
1055.073
1160.5491
1257.2627
1342.3638
1413.9695
1471.3153
1514.6875
1545.2049
1564.5388
1574.6419
1577.5284
1575.1194
1569.1521
1561.1292
1552.3021
1543.6747
1536.0293
1529.9952
1526.1071
1524.6258
8.5489716
17.743254
27.539403
36.72025
45.200698
52.787598
59.328197
64.708053
68.876408
71.879216
73.901429
75.317483
76.747839
79.108703
83.624572
91.771867
105.15207
125.33185
153.69794
191.35327
239.05709
297.19547
365.76457
444.35339
532.12166
627.77554
729.54813
835.19594
942.03374
1047.042
1147.0778
1239.1813
1320.9135
1390.6213
1447.5571
1491.8416
1524.3109
1546.3077
1559.4673
1565.5338
1566.2215
1563.1239
1557.6586
1551.0348
1544.2385
1538.0661
1533.2125
1530.2276
1529.1728
8.1796792
17.101897
26.616105
35.549021
43.821251
51.264357
57.758364
63.230507
67.679699
71.206846
74.051849
76.634994
79.598554
83.83647
90.491356
100.90125
116.49674
138.67324
168.67079
207.48047
255.78129
313.90151
381.79329
459.01244
544.70025
637.56951
735.90102
837.5607
940.05449
1040.6431
1136.5312
1225.1176
1304.2571
1372.4648
1429.0128
1473.9111
1507.7974
1531.7765
1547.2482
1555.7513
1558.838
1557.9869
1554.5453
1549.6884
1544.3856
1539.4363
1535.6165
1533.5679
1533.0773
7.8073503
16.603075
25.940005
34.712119
42.84655
50.198831
56.676002
62.237368
66.91858
70.860051
74.339761
77.807808
81.917389
87.541411
95.760642
107.81493
125.01621
148.63946
179.81885
219.46203
268.18618
326.2743
393.64501
469.83074
553.96252
644.76338
740.55589
839.29287
938.62416
1036.0133
1128.9096
1214.96
1292.2217
1359.3275
1415.5673
1460.879
1495.7659
1521.1681
1538.3185
1548.607
1553.4674
1554.2913
1552.3717
1548.8584
1544.7049
1540.6817
1537.6136
1536.3932
1536.6784
7.3040448
16.167508
25.423904
34.111041
42.164767
49.46507
55.939773
61.570353
66.416563
70.64386
74.553554
78.612821
83.479091
90.009536
99.24502
112.36542
130.60911
155.17243
187.11928
227.30183
276.29548
334.35237
401.36861
476.86174
559.95747
649.38773
743.50524
840.32236
937.58441
1032.8864
1123.8332
1208.2279
1284.255
1350.6222
1406.6323
1452.1804
1487.6861
1513.9852
1532.204
1543.6359
1549.6365
1551.5376
1550.5921
1547.9355
1544.5151
1541.0466
1538.3502
1537.9195
1540.1127
6.0813451
15.835292
25.142903
33.822453
41.845492
49.124041
55.600142
61.267469
66.198082
70.569964
74.696175
79.05264
84.299659
91.289235
101.04701
114.71672
133.48907
158.52351
190.85403
231.30592
280.43368
338.4738
405.3109
480.45496
563.02913
651.77021
745.04662
840.90127
937.12783
1031.3871
1121.3611
1204.93
1280.3411
1346.3394
1402.2353
1447.9034
1483.7229
1510.4789
1529.2457
1541.2696
1547.8627
1550.3265
1549.9015
1547.7269
1544.7599
1541.6756
1539.2598
1539.7828
1545.6251
-2227.7572
-2483.6217
-2699.5347
-2881.479
-3023.963
-3106.2112
-3108.224
-3029.2219
-2857.2808
-2664.0057
-3205.3775
-3205.2696
-3198.4231
-3187.4348
-3173.3193
-3160.5655
-3148.7291
-3158.1958
-3158.7982
-3131.3946
-3183.0213
-3181.8966
-3167.1416
-3150.1779
-3133.2624
-3124.2715
-3105.9785
-3113.1953
-3100.0632
-3046.5368
-3137.8285
-3135.1663
-3126.5639
-3117.8691
-3109.0764
-3112.0895
-3100.9945
-3098.9613
-3085.5592
-3048.6967
-3078.137
-3076.7025
-3072.1571
-3066.2401
-3057.7352
-3058.1361
-3057.8015
-3057.1312
-3055.6523
-3059.389
-3030.156
-3029.3637
-3023.6022
-3013.4402
-2998.184
-2968.6216
-2990.7858
-3003.0875
-3009.7341
-3023.0838
-3013.3983
-3015.0927
-3018.3442
-3021.7313
-3032.6468
-3008.5195
-3008.1985
-3004.5723
-2989.6552
-2966.6681
-3027.9105
-3029.5417
-3035.6283
-3044.326
-3068.377
-3076.0932
-3056.711
-3030.6928
-3000.8557
-2965.4519
-3848.4471
-3860.7597
-3831.7211
-3787.3116
-3749.7518
-3717.6867
-3696.1834
-3682.4572
-3673.5172
-3675.2593
-2986.9763
-2985.784
-2977.9043
-2960.9527
-2921.5849
-2946.9441
-2958.9476
-2961.1388
-2950.6514
-2923.5432
-3009.2437
-3012.32
-3018.683
-3037.9287
-3013.9728
-3005.25
-3001.2956
-2993.8778
-2979.886
-2964.7431
-3048.4921
-3050.9439
-3056.1195
-3080.7061
-3093.4773
-3069.4073
-3042.677
-3022.3936
-3003.5257
-2987.0406
-2999.6375
-2995.8088
-2976.9184
-2951.6358
-2974.572
-2992.0547
-3003.2963
-3010.7188
-3012.9842
-3020.0035
-3033.2422
-3035.7031
-3034.8388
-2997.9456
-3007.0801
-3020.6941
-3031.4959
-3038.731
-3041.7825
-3051.349
-3156.8748
-3164.6692
-3188.903
-3187.4305
-3159.5299
-3131.7388
-3111.0459
-3095.6538
-3080.2374
-3063.0055
-3141.9687
-3137.1342
-3129.6512
-3149.8232
-3150.4159
-3144.6218
-3138.3984
-3132.9629
-3126.9649
-3128.8675
-3162.7487
-3162.0282
-3137.7437
-3147.8976
-3159.3432
-3167.4788
-3171.8983
-3173.7016
-3172.9917
-3177.6931
-3277.1113
-3289.5147
-3285.4643
-3271.1227
-3255.8004
-3243.759
-3235.0269
-3229.2328
-3222.417
-3213.8564
-3282.4829
-3286.5541
-3294.0089
-3285.9313
-3276.2884
-3270.7883
-3270.553
-3274.9939
-3280.0343
-3292.3364
-3186.3206
-3172.2105
-3189.5469
-3215.4238
-3244.8972
-3273.594
-3300.5676
-3325.1402
-3345.2927
-3370.2576
-3326.0522
-3302.433
-3312.0402
-3332.3472
-3359.11
-3384.3572
-3406.8221
-3425.2529
-3437.7708
-3453.4853
-3701.6732
-3692.6541
-3661.9549
-3627.8834
-3602.804
-3583.3182
-3571.2276
-3564.0692
-3557.9538
-3555.0875
-3016.6669
-3015.1414
-3009.7269
-2998.1094
-2992.623
-2999.8837
-2999.5213
-2994.1706
-2984.938
-2983.914
-3540.5211
-3549.1179
-3563.5526
-3610.8362
-3667.0113
-3718.8429
-3739.9253
-3721.7868
-3638.0883
-3466.2409
-3268.7417
-3268.9766
-3271.9261
-3276.7937
-3277.9038
-3277.0072
-3275.0457
-3269.9005
-3265.7434
-3219.2675
-3179.52
-3227.5439
-3289.6569
-3394.3585
-3505.6829
-3592.5083
-3635.0628
-3595.1954
-3447.0554
-3214.6288
-3480.2578
-3490.3013
-3511.2324
-3547.9317
-3581.5801
-3610.24
-3618.8118
-3618.3062
-3582.5291
-3470.1418
-3367.3269
-3371.7167
-3385.8962
-3409.854
-3430.8145
-3448.47
-3456.5954
-3446.1766
-3433.5597
-3381.8099
11318.72
10715.544
10129.572
9489.937
8832.8439
8179.5371
7545.1784
6936.7819
6347.3423
5770.3025
8301.8434
8224.5268
8101.2552
7839.6035
7501.7154
7111.2814
6689.6033
6254.5632
5816.3962
5359.9985
-3709.4918
-3727.9274
-3745.3357
-3751.3029
-3759.9923
-3763.2571
-3768.053
-3771.4891
-3772.8145
-3776.3063
-3705.8447
-3709.6959
-3745.0423
-3776.2734
-3815.3327
-3842.5048
-3866.4314
-3882.4616
-3891.1093
-3895.2973
-3946.5111
-3939.2755
-3955.5041
-3963.0809
-3991.4608
-4009.8405
-4029.6674
-4042.6437
-4048.063
-4043.6131
-4222.4191
-4212.0641
-4226.3329
-4216.9191
-4232.9902
-4234.8719
-4241.3945
-4242.443
-4238.8709
-4234.5098
-4544.8728
-4526.7331
-4538.4782
-4511.4429
-4515.2286
-4497.3816
-4484.9234
-4464.8962
-4437.2287
-4404.8679
-4901.1017
-4873.8795
-4883.4865
-4837.0651
-4828.6331
-4790.144
-4757.313
-4713.8908
-4659.2212
-4599.0101
-5281.8458
-5243.3953
-5252.0354
-5185.218
-5165.6678
-5107.579
-5056.1835
-4992.7144
-4916.459
-4831.147
-5682.8563
-5630.7811
-5639.6058
-5550.5846
-5519.7677
-5441.5396
-5370.8732
-5288.4382
-5198.4642
-5115.9137
-6105.04
-6035.9174
-6045.7664
-5931.772
-5888.3014
-5787.8925
-5693.5249
-5583.4964
-5458.1831
-5322.5826
-6548.4961
-6458.4082
-6470.8389
-6329.1939
-6271.9397
-6149.0549
-6030.8918
-5896.7797
-5747.1735
-5585.4142
-7019.3369
-6902.2058
-6917.9699
-6744.487
-6670.3408
-6522.7499
-6376.8485
-6214.6236
-6036.1321
-5850.2615
-7516.4355
-7366.204
-7388.3215
-7179.882
-7085.719
-6911.6585
-6733.8636
-6537.7812
-6319.16
-6081.8799
-8058.1097
-7863.4426
-7892.3925
-7643.1854