/*--------------------------------*- C++ -*----------------------------------*\
| =========                 |                                                 |
| \\      /  F ield         | foam-extend: Open Source CFD                    |
|  \\    /   O peration     | Version:     4.1                                |
|   \\  /    A nd           | Web:         http://www.foam-extend.org         |
|    \\/     M anipulation  |                                                 |
\*---------------------------------------------------------------------------*/
FoamFile
{
    version     2.0;
    format      ascii;
    class       surfaceScalarField;
    location    "1";
    object      phi;
}
// * * * * * * * * * * * * * * * * * * * * * * * * * * * * * * * * * * * * * //

dimensions      [0 3 -1 0 0 0 0];

internalField   nonuniform List<scalar> 
8438
(
-0.59784085
0.00034417328
-0.59834291
0.00050205529
-0.59898516
0.00064225288
-0.59977502
0.00078986628
-0.6007247
0.00094967452
-0.60184699
0.0011222898
-0.6031538
0.0013068116
-0.60465502
0.0015012187
-0.60635726
0.0017022411
-0.60826244
0.0019051749
-0.61036622
0.0021037847
-0.61265661
0.0022903848
-0.6151128
0.0024561929
-0.61770476
0.0025919592
-0.62039364
0.0026888848
-0.62313326
0.0027396223
-0.62587231
0.0027390429
-0.62855704
0.0026847308
-0.63113406
0.002577023
-0.63355248
0.0024184187
-0.63576582
0.0022133342
-0.63773298
0.001967161
-0.63941779
0.0016848089
-0.640795
0.0013772148
-0.64183954
0.0010445376
-0.64251779
0.00067825451
-0.64280432
0.00028652688
-0.64268593
-0.00011839142
-0.6421599
-0.0005260272
-0.64123759
-0.00092231074
-0.63994646
-0.0012911282
-0.63832916
-0.0016173022
-0.63644127
-0.001887898
-0.63434752
-0.0020937412
-0.63211713
-0.0022303926
-0.62981887
-0.002298266
-0.6275168
-0.0023020632
-0.62526719
-0.0022496119
-0.62311657
-0.0021506191
-0.62110114
-0.0020154347
-0.61924695
-0.0018541855
-0.6175713
-0.0016756557
-0.61608308
-0.0014882135
-0.61478552
-0.0012975612
-0.61367716
-0.0011083664
-0.61275128
-0.00092587574
-0.61241173
-0.00033955414
-0.61221535
-0.00019638168
2.9603842e-05
-0.61125434
0.00048445296
-0.61148151
0.00072923065
-0.61183621
0.00099695024
-0.61233628
0.0012899408
-0.61299633
0.0016097157
-0.61382998
0.0019559486
-0.61484976
0.0023265904
-0.61606618
0.0027176331
-0.61748655
0.0031226166
-0.61911356
0.0035321825
-0.62094361
0.0039338294
-0.62296526
0.0043120415
-0.62515805
0.0046489753
-0.62749182
0.0049257353
-0.62992721
0.0051242702
-0.63241706
0.0052294701
-0.6349088
0.0052307842
-0.63734733
0.0051232609
-0.63967791
0.0049076083
-0.64184849
0.0045889928
-0.64381154
0.0041763859
-0.64552505
0.0036806719
-0.64695199
0.0031117477
-0.6480645
0.0024897233
-0.64883572
0.0018157594
-0.64923538
0.0010779111
-0.64924054
0.00029169036
-0.64883747
-0.00052146125
-0.64802514
-0.0013383598
-0.64681624
-0.0021312095
-0.64523765
-0.0028697247
-0.6433315
-0.0035234468
-0.64115341
-0.0040659948
-0.63876856
-0.0044785859
-0.63624682
-0.0047521332
-0.63365759
-0.0048875017
-0.63106535
-0.0048943014
-0.62852649
-0.0047884685
-0.62608743
-0.0045896841
-0.62378403
-0.004318832
-0.62164199
-0.0039962295
-0.61967815
-0.0036394988
-0.61790123
-0.0032651265
-0.6163138
-0.0028849927
-0.61491526
-0.0025069099
-0.61370132
-0.0021398172
-0.61307223
-0.00096864332
-0.61257365
-0.00069496051
-0.00029924587
-0.61200355
0.00057925746
-0.61220031
0.00092599487
-0.61252179
0.001318425
-0.61298563
0.0017537851
-0.61360721
0.0022312918
-0.6144009
0.0027496383
-0.6153801
0.0033057908
-0.61655651
0.0038940469
-0.61793895
0.0045050539
-0.61953177
0.0051250064
-0.62133312
0.0057351757
-0.62333309
0.0063120136
-0.62551225
0.0068281306
-0.62784076
0.0072542526
-0.63027871
0.0075622215
-0.63277764
0.0077283948
-0.63528315
0.0077362906
-0.63773815
0.007578267
-0.64008612
0.0072555725
-0.64227359
0.0067764638
-0.64425207
0.0061548658
-0.64597879
0.0054073913
-0.64741628
0.0045492361
-0.64853345
0.0036068959
-0.64930563
0.0025879352
-0.64970641
0.0014786883
-0.649711
0.00029627902
-0.64930318
-0.00092927696
-0.64847781
-0.0021637335
-0.6472443
-0.0033647132
-0.64562901
-0.0044850205
-0.64367536
-0.0054770929
-0.64144178
-0.0062995778
-0.63899728
-0.00692309
-0.63641579
-0.0073336212
-0.63377039
-0.0075329035
-0.63112835
-0.0075363404
-0.62854775
-0.0073690675
-0.62607564
-0.0070617909
-0.6237477
-0.0066467781
-0.62158882
-0.0061551117
-0.61961468
-0.0056136334
-0.61783286
-0.0050469524
-0.61624431
-0.0044735395
-0.61484848
-0.0039027348
-0.61364095
-0.0033473572
-0.61301189
-0.0015976986
-0.6125173
-0.0011895521
-0.00057159491
-0.61210455
0.0006434964
-0.61227768
0.0010991273
-0.61257675
0.0016174898
-0.61301804
0.0021950762
-0.61361708
0.0028303379
-0.61438906
0.0035216107
-0.61534862
0.0042653533
-0.6165092
0.0050546285
-0.61788173
0.00587758
-0.61947291
0.0067161856
-0.62128318
0.007545453
-0.62330457
0.0083333955
-0.62551867
0.0090422301
-0.62789548
0.0096310703
-0.6303935
0.010060236
-0.63296141
0.010296306
-0.6355412
0.010316084
-0.638072
0.010109064
-0.64049385
0.0096774175
-0.64275067
0.0090332878
-0.64479219
0.0081963839
-0.64657447
0.0071896741
-0.64805938
0.0060341441
-0.6492134
0.0047609124
-0.65001402
0.0033885575
-0.65043741
0.0019020744
-0.65045527
0.00031413905
-0.65004791
-0.0013366382
-0.64920659
-0.0030050459
-0.64793829
-0.0046330181
-0.64626879
-0.0061545243
-0.64424363
-0.0075022438
-0.64192583
-0.0086173842
-0.63939056
-0.0094583616
-0.63671832
-0.010005856
-0.63398802
-0.010263203
-0.63127128
-0.010253085
-0.62862873
-0.010011617
-0.62610832
-0.0095822044
-0.62374527
-0.0090098278
-0.62156314
-0.0083372352
-0.61957577
-0.007601006
-0.61778879
-0.0068339357
-0.61620094
-0.0060613909
-0.61481065
-0.0052930269
-0.61361163
-0.0045463762
-0.61298179
-0.0022275347
-0.61249553
-0.0016758145
-0.00082217393
-0.61221188
0.00067426627
-0.61235563
0.0012428852
-0.61262689
0.0018887481
-0.61304082
0.0026090034
-0.61361296
0.0034024761
-0.61435932
0.0042679726
-0.61529614
0.0052021698
-0.61643908
0.0061975742
-0.6178019
0.0072403944
-0.61939445
0.0083087403
-0.62122035
0.0093713456
-0.62327421
0.01038726
-0.62553912
0.01130714
-0.62798479
0.012076736
-0.63056735
0.012642801
-0.63323139
0.012960348
-0.63591368
0.012998371
-0.63854795
0.012743334
-0.64106953
0.012199
-0.64341891
0.011382663
-0.64554371
0.010321182
-0.647399
0.0090449636
-0.64894634
0.0075814821
-0.6501507
0.0059652749
-0.65099163
0.004229485
-0.65144765
0.0023580945
-0.65148592
0.00035241468
-0.65108167
-0.0017408962
-0.65022069
-0.0038660248
-0.648906
-0.0059477111
-0.64716238
-0.0078981423
-0.64503833
-0.0096262932
-0.64260349
-0.011052225
-0.63994205
-0.012119796
-0.63714404
-0.012803872
-0.63429665
-0.013110592
-0.63147755
-0.013072186
-0.62875079
-0.012738381
-0.6261653
-0.012167686
-0.62375548
-0.011419647
-0.62154284
-0.010549878
-0.61953854
-0.0096053102
-0.6177455
-0.0086269757
-0.61615956
-0.0076473254
-0.61477728
-0.0066753069
-0.61359009
-0.0057335698
-0.61296162
-0.0028560015
-0.61248499
-0.0021524462
-0.0010623667
-0.61236262
0.00066701496
-0.61247081
0.0013510798
-0.6127077
0.0021256355
-0.61308756
0.0029888694
-0.61362596
0.0039408755
-0.61433987
0.0049818784
-0.61524742
0.0061097241
-0.61636714
0.0073172924
-0.61771641
0.0085896601
-0.61930927
0.0099016053
-0.62115359
0.011215667
-0.62324766
0.012481328
-0.62557669
0.013636173
-0.62811016
0.014610206
-0.6308011
0.015333738
-0.63358846
0.015747706
-0.63640188
0.015811795
-0.63916783
0.015509274
-0.64181535
0.014846528
-0.64428058
0.013847893
-0.64650886
0.012549453
-0.64845461
0.010990716
-0.65007972
0.009206591
-0.65134835
0.0072339056
-0.65224193
0.005123063
-0.65274195
0.0028581131
-0.6528097
0.00042017089
-0.65241327
-0.0021373261
-0.65153052
-0.004748773
-0.65015841
-0.0073198237
-0.64831981
-0.0097367406
-0.64606703
-0.011879082
-0.64347889
-0.013640358
-0.6406522
-0.014946489
-0.63769013
-0.015765947
-0.63469116
-0.016109563
-0.63174087
-0.016022476
-0.62890748
-0.015571768
-0.62624082
-0.014834348
-0.6237737
-0.013886767
-0.62152458
-0.012798999
-0.61950087
-0.011629011
-0.61770177
-0.010426076
-0.61611933
-0.0092297673
-0.61474737
-0.0080472735
-0.61357482
-0.0069061177
-0.61294798
-0.0034828381
-0.61247914
-0.002621285
-0.0012965594
-0.61255664
0.00061599184
-0.61262341
0.0014178518
-0.61281963
0.0023218545
-0.61315861
0.0033278448
-0.61365586
0.004438132
-0.61432945
0.005655467
-0.61519979
0.0069800595
-0.61628888
0.0084063846
-0.61761872
0.0099194949
-0.61920875
0.011491639
-0.6210725
0.013079415
-0.62321329
0.014622123
-0.62561951
0.016042392
-0.62826062
0.017251313
-0.63108564
0.018158754
-0.63402602
0.018688093
-0.63700188
0.018787651
-0.63992997
0.01843737
-0.64273123
0.017647785
-0.64533636
0.016453019
-0.64768835
0.01490144
-0.64974173
0.013044096
-0.65145975
0.010924617
-0.65280663
0.0085807834
-0.65376547
0.0060819046
-0.65432217
0.0034148059
-0.6544308
0.00052880642
-0.65404967
-0.0025184603
-0.65314524
-0.0056531987
-0.65170532
-0.0087597451
-0.64974927
-0.011692792
-0.64733405
-0.0142943
-0.64455102
-0.01642339
-0.64151425
-0.017983264
-0.63834479
-0.018935402
-0.63515607
-0.019298282
-0.63204369
-0.019134859
-0.62908068
-0.018534776
-0.6263173
-0.017597733
-0.6237837
-0.016420362
-0.62149395
-0.015088752
-0.61945039
-0.013672576
-0.61764723
-0.012229231
-0.6160718
-0.0108052
-0.61471432
-0.0094047528
-0.61356083
-0.0080596132
-0.61293663
-0.0041070302
-0.61247474
-0.003083181
-0.0015263482
-0.61279143
0.00051640947
-0.61281157
0.0014379876
-0.61296121
0.0024714927
-0.61325244
0.0036190802
-0.61370065
0.0048863387
-0.61432504
0.0062798576
-0.61514866
0.0078036834
-0.61619774
0.0094554601
-0.61749996
0.011221716
-0.61908167
0.013073346
-0.62096382
0.014961563
-0.62315665
0.016814954
-0.62565319
0.018538934
-0.62842341
0.020021536
-0.63141127
0.021146612
-0.63453833
0.021815152
-0.637712
0.021961318
-0.64083628
0.021561656
-0.64382155
0.020633058
-0.64659188
0.01922334
-0.64908805
0.017397618
-0.65126595
0.015221987
-0.65309186
0.012750532
-0.65453129
0.010020214
-0.65556871
0.0071193252
-0.65619663
0.004042729
-0.65636086
0.00069302926
-0.65600648
-0.0028728404
-0.6550839
-0.006575774
-0.65356718
-0.010276469
-0.65146944
-0.013790526
-0.64885315
-0.016910591
-0.64582654
-0.019450005
-0.64252732
-0.021282481
-0.63910069
-0.022362032
-0.63567955
-0.022719426
-0.63237183
-0.022442571
-0.62925575
-0.021650858
-0.62638099
-0.020472497
-0.62377339
-0.019027956
-0.6214408
-0.017421342
-0.61937881
-0.015734573
-0.61757526
-0.014032776
-0.61601174
-0.012368722
-0.61467406
-0.01074243
-0.61354485
-0.0091888308
-0.612925
-0.0047268773
-0.61247043
-0.0035377482
-0.00175198
-0.6130667
0.0003641792
-0.61303559
0.0014068848
-0.61313309
0.0025689909
-0.61336964
0.0038556326
-0.61376023
0.0052769266
-0.61432524
0.0068448645
-0.61509068
0.0085691247
-0.61608774
0.010452516
-0.61735107
0.012485053
-0.6189157
0.014637974
-0.62081227
0.016858133
-0.62306047
0.019063152
-0.62566016
0.021138622
-0.62858279
0.022944163
-0.63176596
0.024329792
-0.63511823
0.025167415
-0.63853013
0.025373224
-0.64188891
0.024920431
-0.64509124
0.023835387
-0.64805301
0.022185113
-0.65071334
0.020057946
-0.65303144
0.017540082
-0.65497924
0.014698333
-0.65652552
0.011566499
-0.65765558
0.0082493796
-0.65837144
0.004758591
-0.65861038
0.00093196996
-0.65829988
-0.0031833435
-0.6573679
-0.0075077559
-0.65576791
-0.011876456
-0.65350233
-0.016056111
-0.65063972
-0.019773202
-0.6473112
-0.022778523
-0.64368704
-0.024906641
-0.63994501
-0.026104067
-0.63624324
-0.026421192
-0.63270452
-0.025981296
-0.62941201
-0.024943364
-0.62641305
-0.023471459
-0.62372671
-0.021714293
-0.62135216
-0.019795895
-0.61927612
-0.017810614
-0.61747844
-0.015830453
-0.61593387
-0.01391329
-0.61462296
-0.012053339
-0.6135244
-0.010287398
-0.61291161
-0.0053396598
-0.61246586
-0.0039834982
-0.0019728939
-0.61337951
0.00015523452
-0.61329366
0.0013210304
-0.61333429
0.0026096258
-0.6135095
0.0040308402
-0.61383347
0.0056009001
-0.61432767
0.0073390606
-0.61502134
0.0092627906
-0.61595137
0.011382555
-0.61716086
0.013694536
-0.61869559
0.01617271
-0.6205988
0.018761339
-0.62290303
0.021367381
-0.62561816
0.023853755
-0.62871888
0.026044885
-0.6321349
0.027745809
-0.63575754
0.02879005
-0.63945494
0.029070625
-0.64309223
0.028557719
-0.64654825
0.027291415
-0.64972875
0.025365608
-0.65257206
0.022901258
-0.65504397
0.02001199
-0.6571259
0.01678026
-0.65879314
0.013233738
-0.66003083
0.0094870732
-0.66085366
0.0055814204
-0.66119212
0.0012704314
-0.66095032
-0.00342515
-0.66002529
-0.0084327803
-0.65833983
-0.013561916
-0.65587817
-0.018517777
-0.65271512
-0.022936251
-0.64901313
-0.026480511
-0.64498775
-0.028932022
-0.640861
-0.030230818
-0.63682358
-0.030458614
-0.63301554
-0.029789332
-0.62952391
-0.028434991
-0.62639064
-0.026604734
-0.62362448
-0.024480449
-0.62121268
-0.022207692
-0.61913052
-0.019892775
-0.61734798
-0.017612998
-0.61583182
-0.015429443
-0.61455649
-0.013328674
-0.61349627
-0.011347621
-0.61289446
-0.0059414674
-0.61246
-0.0044179601
-0.0021879409
-0.61373114
-0.00010944983
-0.61358852
0.0011784136
-0.61356818
0.0025892834
-0.61367531
0.00413797
-0.6139228
0.0058483953
-0.61433295
0.0077492098
-0.61493838
0.0098682182
-0.61578241
0.01222659
-0.6169181
0.01483022
-0.61840456
0.017659174
-0.62030119
0.020657967
-0.62265802
0.023724212
-0.62549959
0.026695319
-0.62880685
0.029352153
-0.63249963
0.031438585
-0.63644641
0.032736828
-0.64048541
0.03310962
-0.64445256
0.032524877
-0.64820329
0.031042141
-0.65163042
0.028792731
-0.65467311
0.025943954
-0.65730871
0.022647586
-0.65953378
0.019005331
-0.66133536
0.015035322
-0.6626971
0.010848811
-0.66364816
0.0065324814
-0.6641182
0.0017404648
-0.66398049
-0.0035628526
-0.66309015
-0.0093231218
-0.66132429
-0.015327784
-0.65863663
-0.021205428
-0.65510721
-0.026465681
-0.65094194
-0.030645775
-0.64642042
-0.033453542
-0.64182534
-0.0348259
-0.6373892
-0.03489476
-0.63327133
-0.033907197
-0.62955985
-0.032146475
-0.62628646
-0.029878122
-0.6234446
-0.027322311
-0.62100536
-0.024646933
-0.61892946
-0.021968675
-0.61717494
-0.019367517
-0.61569946
-0.016904925
-0.61447055
-0.014557579
-0.61345781
-0.012360359
-0.61287215
-0.0065271292
-0.61245235
-0.0048377661
-0.0023954878
-0.61411687
-0.00043211148
-0.61391706
0.00097860207
-0.61383336
0.0025055788
-0.6138667
0.0041713176
-0.6140279
0.0060095894
-0.6143396
0.0080609151
-0.61483778
0.010366389
-0.6155727
0.012961517
-0.61660905
0.015866567
-0.61802219
0.01907231
-0.61989215
0.022527935
-0.62229268
0.026124742
-0.62526963
0.029672269
-0.62881552
0.032898042
-0.63283759
0.035460652
-0.63717386
0.037073098
-0.64162239
0.037558146
-0.64598056
0.036883045
-0.65007263
0.035134212
-0.65377456
0.032494663
-0.65702882
0.029198215
-0.65983197
0.025450731
-0.6622039
0.021377264
-0.66415222
0.01698364
-0.66565591
0.012352508
-0.66675839
0.0076349584
-0.66740094
0.0023830149
-0.66741682
-0.003546975
-0.66660541
-0.010134525
-0.66477614
-0.017157058
-0.66183189
-0.024149675
-0.65785406
-0.030443519
-0.65311002
-0.035389814
-0.64797177
-0.038591789
-0.64280613
-0.039991537
-0.6378989
-0.039801995
-0.63342937
-0.038376723
-0.62948121
-0.036094636
-0.62606838
-0.033290955
-0.62316198
-0.030228703
-0.62071161
-0.027097305
-0.61865978
-0.024020502
-0.61695042
-0.021076886
-0.61553098
-0.018324357
-0.61436157
-0.015726994
-0.61340696
-0.013314965
-0.61284389
-0.0070902015
-0.61244294
-0.0052387165
-0.0025934756
-0.61454325
-0.00080599011
-0.61428853
0.00072387886
-0.61414014
0.0023571863
-0.61409406
0.0041252425
-0.61415812
0.0060736467
-0.61435464
0.0082574411
-0.6147226
0.01073434
-0.61531942
0.013558336
-0.616223
0.016770149
-0.61752822
0.020377533
-0.61934133
0.024341041
-0.62176799
0.02855141
-0.62488496
0.032789238
-0.62870538
0.03671846
-0.63312006
0.03987533
-0.63792613
0.041879165
-0.6428675
0.042499519
-0.64769061
0.041706152
-0.65217786
0.039621463
-0.65618228
0.036499086
-0.65965325
0.032669183
-0.66261833
0.028415803
-0.66513208
0.023891015
-0.66723732
0.019088885
-0.66890498
0.014020169
-0.67018319
0.0089131673
-0.67104864
0.0032484598
-0.67128611
-0.0033094972
-0.67062199
-0.010798645
-0.66876585
-0.019013203
-0.66553624
-0.027379286
-0.66100594
-0.034973815
-0.65553079
-0.040864972
-0.64961953
-0.044503049
-0.64375703
-0.045854031
-0.63829619
-0.045262839
-0.6334339
-0.043239012
-0.62923931
-0.040289222
-0.62569726
-0.036833013
-0.62274704
-0.03317892
-0.62031007
-0.029534276
-0.61830661
-0.02602396
-0.61666432
-0.022719172
-0.6153197
-0.019668983
-0.61422512
-0.016821578
-0.61334076
-0.014199319
-0.61280794
-0.0076230229
-0.6124308
-0.0056158592
-0.0027794738
-0.61500238
-0.0012267269
-0.61469803
0.0004195304
-0.61448657
0.0021457249
-0.61435748
0.0039961557
-0.6143144
0.0060305624
-0.61437824
0.0083212834
-0.61459024
0.010946337
-0.61501457
0.013982666
-0.61574367
0.017499256
-0.61689546
0.021529323
-0.61860911
0.026054685
-0.62103318
0.030975477
-0.62428874
0.036044807
-0.62842538
0.0408551
-0.63331128
0.04476123
-0.63868847
0.047256353
-0.64422755
0.048038599
-0.64960778
0.047086383
-0.65455462
0.044568296
-0.6588885
0.040832967
-0.66257063
0.036351317
-0.66567744
0.031522617
-0.66831488
0.026528456
-0.6705743
0.021348299
-0.67243554
0.015881414
-0.67392612
0.010403743
-0.67507455
0.00439689
-0.67562147
-0.0027625764
-0.67520326
-0.011216857
-0.67338802
-0.020828441
-0.66985169
-0.030915617
-0.66463442
-0.040191086
-0.65822153
-0.047277857
-0.65133049
-0.051394086
-0.64461378
-0.052570746
-0.63850671
-0.051369913
-0.63321512
-0.048530597
-0.62877626
-0.044728083
-0.62512899
-0.040480285
-0.62216825
-0.036139655
-0.61977938
-0.031923149
-0.61785615
-0.027947191
-0.61630816
-0.024267158
-0.6150606
-0.020916539
-0.61405841
-0.017823767
-0.61325777
-0.014999961
-0.61276396
-0.0081168384
-0.61241622
-0.0059635974
-0.0029507411
-0.61550535
-0.0016704806
-0.61516155
7.5730491e-05
-0.61489111
0.0018752824
-0.61467672
0.0037817708
-0.61451655
0.0058703912
-0.61442856
0.0082332888
-0.61445497
0.010972751
-0.6146653
0.014192995
-0.61516714
0.018001095
-0.61610487
0.02246705
-0.61765857
0.027608392
-0.62003411
0.033351015
-0.6234153
0.039425998
-0.62791588
0.045355675
-0.63337026
0.050215615
-0.63944632
0.053332408
-0.64571485
0.054307135
-0.65176727
0.053138795
-0.65725064
0.050051665
-0.66193736
0.045519688
-0.66580674
0.040220693
-0.6690124
0.034728279
-0.67173733
0.029253389
-0.67413091
0.023741876
-0.6762152
0.017965703
-0.67797306
0.0121616
-0.67947782
0.0059016511
-0.68045017
-0.0017902221
-0.68042189
-0.011245143
-0.67876633
-0.022483998
-0.67492169
-0.034760256
-0.66884082
-0.046271958
-0.66120102
-0.054917653
-0.65305091
-0.0595442
-0.64528299
-0.060338665
-0.63842914
-0.058223763
-0.63268316
-0.054276577
-0.62802136
-0.04938989
-0.62431239
-0.044189251
-0.6213908
-0.039061243
-0.61909699
-0.034216963
-0.61729435
-0.029749835
-0.61587343
-0.025688075
-0.61474862
-0.022041347
-0.61385837
-0.018714017
-0.61315596
-0.015702376
-0.61271077
-0.0085620215
-0.61239852
-0.0062758508
-0.003104311
-0.6160542
-0.0021465934
-0.61568144
-0.00029703125
-0.615359
0.0015528427
-0.6150592
0.0034819697
-0.61477296
0.0055841559
-0.61451308
0.0079734025
-0.6143208
0.010780471
-0.61426806
0.014140255
-0.6144767
0.018209735
-0.61512032
0.023110673
-0.61642918
0.028917249
-0.61868542
0.03560726
-0.62215982
0.042900402
-0.6270797
0.050275547
-0.63322399
0.056359907
-0.6401622
0.060270622
-0.64732904
0.061473971
-0.65420255
0.06001231
-0.66032065
0.056169762
-0.66538252
0.050581559
-0.66939144
0.044229606
-0.67262457
0.037961416
-0.67537958
0.032008391
-0.67787704
0.026239345
-0.68020778
0.020296436
-0.68230101
0.014254838
-0.68425139
0.0078520324
-0.68579752
-0.00024409617
-0.68636094
-0.010681722
-0.68506494
-0.023779999
-0.68095574
-0.038869458
-0.67377699
-0.053450703
-0.66448997
-0.064204677
-0.65469574
-0.069338425
-0.64563037
-0.069404038
-0.6379278
-0.065926334
-0.6317255
-0.060478874
-0.62689196
-0.054223431
-0.62319182
-0.047889393
-0.62037973
-0.041873332
-0.61824222
-0.036354468
-0.61660967
-0.031382388
-0.61535405
-0.026943691
-0.61438069
-0.023014711
-0.61362343
-0.01947127
-0.61303439
-0.016291423
-0.61264801
-0.0089483976
-0.61237759
-0.0065462705
-0.0032371
-0.61664552
-0.0025892237
-0.61626919
-0.00067336556
-0.61590745
0.0011911054
-0.61552582
0.0031003393
-0.61510718
0.0051655118
-0.61465624
0.007522464
-0.61421045
0.010334683
-0.61383937
0.013769177
-0.61367561
0.018045977
-0.61392299
0.023358044
-0.61487182
0.029866082
-0.61690618
0.037641623
-0.62041387
0.046408088
-0.62582508
0.05568676
-0.63281837
0.063353195
-0.64083616
0.068288413
-0.64912512
0.069762922
-0.65701913
0.067906324
-0.66390049
0.063051119
-0.66935507
0.056036141
-0.67340982
0.048284357
-0.67654344
0.041095037
-0.67922792
0.034692871
-0.68176913
0.028780552
-0.68436342
0.022890725
-0.68687662
0.016768042
-0.68938649
0.010361896
-0.69168797
0.0020573869
-0.69311123
-0.0092584575
-0.69249647
-0.024394764
-0.68826196
-0.043103964
-0.67967762
-0.062035043
-0.66810632
-0.075775984
-0.65612839
-0.081316354
-0.64546079
-0.080071638
-0.6368208
-0.074566319
-0.63020287
-0.067096808
-0.62529405
-0.05913225
-0.62170966
-0.051473779
-0.6191027
-0.044480291
-0.61719861
-0.038258556
-0.61579478
-0.032786221
-0.61474749
-0.027990985
-0.61395645
-0.023805747
-0.61335399
-0.020073727
-0.61289345
-0.016751968
-0.61257615
-0.0092656919
-0.6123539
-0.0067685248
-0.0033460501
-0.61732523
-0.0029793661
-0.61696745
-0.0010311422
-0.61658226
0.00080591152
-0.61612606
0.0026441391
-0.6155721
0.0046115556
-0.61491293
0.0068632952
-0.61417812
0.0095998685
-0.61342712
0.013018182
-0.6127952
0.017414054
-0.61251297
0.023075817
-0.61293962
0.030292731
-0.61459629
0.039298286
-0.61801981
0.049831613
-0.62400334
0.061670286
-0.63203026
0.071380117
-0.64138983
0.077647988
-0.65107125
0.07944434
-0.66023308
0.077068155
-0.66803784
0.070855877
-0.67389479
0.061893093
-0.67783857
0.052228135
-0.68068345
0.043939915
-0.68317021
0.037179631
-0.68567683
0.031287178
-0.68856651
0.025780406
-0.69165485
0.019856377
-0.69487506
0.013582104
-0.69813328
0.0053156065
-0.70073685
-0.0066548811
-0.70129149
-0.023840129
-0.69727499
-0.047120454
-0.68691752
-0.072392514
-0.67205563
-0.090637877
-0.65712655
-0.096245433
-0.64448602
-0.092712163
-0.63486313
-0.08418921
-0.62794473
-0.07401521
-0.62312388
-0.063953097
-0.61980971
-0.054787951
-0.61753295
-0.046757053
-0.61595571
-0.039835797
-0.61484728
-0.03389465
-0.61405465
-0.028783607
-0.61347765
-0.024382748
-0.61305143
-0.020499944
-0.6127337
-0.017069701
-0.61249531
-0.0095040855
-0.61232719
-0.0069366374
-0.0034282933
-0.618007
-0.0033110205
-0.61769452
-0.001343619
-0.61730545
0.00041684563
-0.61678433
0.0021230187
-0.61609439
0.0039216107
-0.61521149
0.0059803975
-0.61415133
0.00853971
-0.61295346
0.011820306
-0.611741
0.0162016
-0.61076105
0.022095865
-0.61044395
0.029975632
-0.61149935
0.040353684
-0.61464594
0.052978198
-0.62133298
0.068357326
-0.63065376
0.080700904
-0.64173651
0.088730738
-0.65321262
0.09092045
-0.66402739
0.087882916
-0.67300881
0.079837298
-0.67931149
0.06819578
-0.68290317
0.055819809
-0.68515662
0.046193364
-0.6872414
0.039264412
-0.68954653
0.033592311
-0.69265991
0.028893784
-0.69648524
0.023681705
-0.70062533
0.017722202
-0.70503404
0.0097243187
-0.70912976
-0.0025591643
-0.71155169
-0.021418204
-0.70854566
-0.050126483
-0.69612013
-0.084818035
-0.6762867
-0.11047131
-0.65730668
-0.11522545
-0.64227087
-0.10774797
-0.63172831
-0.094731775
-0.62475136
-0.080992163
-0.62027711
-0.068427345
-0.61744667
-0.057618387
-0.61565684
-0.048546884
-0.6145145
-0.040978134
-0.61377348
-0.034635678
-0.61328263
-0.029274449
-0.61295018
-0.024715197
-0.61271983
-0.020730296
-0.61255739
-0.017232146
-0.61240659
-0.0096548781
-0.61229785
-0.0070453839
-0.0034813413
-0.61863279
-0.0034705242
-0.61841409
-0.0015623273
-0.61805007
5.2827926e-05
-0.61748154
0.001554494
-0.6166629
0.0031029673
-0.61554671
0.0048642096
-0.61412721
0.0071202079
-0.61241038
0.01010348
-0.61048349
0.01427471
-0.6085863
0.020198667
-0.60720672
0.028596057
-0.60731342
0.040460382
-0.60983291
0.055497693
-0.61737545
0.075899857
-0.62824691
0.091572373
-0.64144107
0.10192489
-0.65512963
0.10460901
-0.66801056
0.10076385
-0.67843403
0.090260772
-0.68514901
0.074910759
-0.68788558
0.058556381
-0.68896401
0.047271794
-0.69028061
0.040581015
-0.69211169
0.03542339
-0.69527695
0.032059044
-0.69997255
0.028377308
-0.70549849
0.023248143
-0.71155865
0.015784474
-0.71758135
0.00346354
-0.72285802
-0.016141535
-0.7224455
-0.050539002
-0.70804423
-0.099219305
-0.68044204
-0.1380735
-0.65592888
-0.13973861
-0.63816118
-0.12551567
-0.62699846
-0.10589449
-0.62040528
-0.087585345
-0.61666427
-0.072168352
-0.61459889
-0.059683765
-0.61348227
-0.049663509
-0.61289225
-0.041568153
-0.61259089
-0.034937036
-0.61244585
-0.029419486
-0.61238461
-0.024776437
-0.61236617
-0.020748732
-0.61236853
-0.017229788
-0.61231221
-0.0097112003
-0.61226689
-0.0070907032
-0.0035032795
-0.61826768
-0.0033658585
-0.61818501
-0.0016449914
-0.61787054
-0.0002616399
-0.61726599
0.00094994145
-0.61631992
0.0021569004
-0.61495854
0.0035028226
-0.61314268
0.0053043548
-0.61082667
0.0077874654
-0.60802162
0.011469656
-0.60492284
0.017099895
-0.60200033
0.025673541
-0.60057259
0.039032644
-0.60181047
0.056735574
-0.6103941
0.084483487
-0.62308405
0.10426232
-0.63884309
0.11768394
-0.65531105
0.12107697
-0.67087065
0.11632344
-0.68311042
0.10250054
-0.69025919
0.082059522
-0.69141818
0.059715377
-0.69037071
0.046224316
-0.69070044
0.040910754
-0.69187475
0.036597701
-0.6949773
0.035161595
-0.70074379
0.034143795
-0.70816943
0.030673783
-0.71648098
0.024096023
-0.72424418
0.011226748
-0.73256066
-0.0078250531
-0.73707073
-0.046028931
-0.72323869
-0.11305135
-0.68318558
-0.17812661
-0.65172887
-0.17119531
-0.63129933
-0.14594521
-0.62017511
-0.11701871
-0.61469249
-0.093067971
-0.61223494
-0.074625901
-0.61128553
-0.060633168
-0.61104774
-0.049901303
-0.6111261
-0.041489791
-0.611329
-0.034734139
-0.61156549
-0.029182989
-0.61179503
-0.024546897
-0.61199902
-0.020544741
-0.61217155
-0.017057258
-0.61221402
-0.0096687269
-0.61223463
-0.0070701009
-0.0034929551
-0.61502687
-0.0030233937
-0.61512155
-0.0015503054
-0.61489318
-0.0004900137
-0.61427577
0.00033253833
-0.61321597
0.0010970966
-0.61161089
0.0018977377
-0.60936253
0.0030560021
-0.60636124
0.004786175
-0.60248813
0.0075965427
-0.59778444
0.01239621
-0.59263045
0.020519546
-0.58872143
0.035123625
-0.58762859
0.055642738
-0.59750756
0.094362454
-0.6121994
0.11895416
-0.63077608
0.13626062
-0.65060649
0.14090738
-0.66950711
0.13522406
-0.68368163
0.11667506
-0.69105555
0.089433443
-0.68933911
0.057998944
-0.68513731
0.042022512
-0.68258324
0.038356689
-0.68124942
0.035263878
-0.6830249
0.036937075
-0.68877488
0.039893776
-0.69757555
0.039474459
-0.708294
0.034814474
-0.71637671
0.019309455
-0.73062224
0.0064204767
-0.74549095
-0.031160215
-0.74105718
-0.11748512
-0.68089863
-0.23828516
-0.64318208
-0.20891186
-0.62037503
-0.16875226
-0.6105636
-0.12683014
-0.60742425
-0.096207326
-0.60702257
-0.075027579
-0.60759465
-0.060061084
-0.60843546
-0.049060491
-0.60927853
-0.040646726
-0.61003151
-0.033981159
-0.61067072
-0.028543772
-0.61120007
-0.024017553
-0.61162955
-0.020115262
-0.61197242
-0.016714381
-0.61211486
-0.0095262884
-0.61220198
-0.0069829855
-0.0034501299
-0.60367003
-0.002332501
-0.60402338
-0.0011969562
-0.60391931
-0.00059408853
-0.6032931
-0.00029367458
-0.60207918
-0.00011681433
-0.60013312
-4.8323535e-05
-0.59729596
0.00021883668
-0.59335214
0.00084235536
-0.58796093
0.0022053313
-0.58103947
0.0054747524
-0.57246496
0.011945034
-0.56408472
0.026743387
-0.55815459
0.049712606
-0.56927414
0.105482
-0.58570224
0.13538226
-0.60661219
0.15717057
-0.62937228
0.16366747
-0.65151791
0.15736969
-0.66928069
0.13443784
-0.67503712
0.095189873
-0.66489704
0.04785887
-0.6491502
0.026275668
-0.64375701
0.032963508
-0.64138485
0.032891712
-0.64284612
0.038398347
-0.64722327
0.044270936
-0.65776971
0.050020899
-0.67444015
0.05148491
-0.68556832
0.030437633
-0.71208507
0.032937225
-0.72998402
-0.013261262
-0.75691858
-0.090550552
-0.66364506
-0.33155868
-0.62465011
-0.24790681
-0.60140433
-0.19199804
-0.59704141
-0.13119306
-0.59860642
-0.094642314
-0.60124843
-0.072385569
-0.60372064
-0.057588872
-0.60578086
-0.047000269
-0.60743801
-0.038989577
-0.60875501
-0.032664152
-0.60979729
-0.027501497
-0.61062184
-0.023192995
-0.6112709
-0.019466204
-0.61177833
-0.016206953
-0.61201832
-0.0092862988
-0.6121704
-0.0068308994
-0.0033755836
-0.5801708
-0.00056209928
-0.58102744
-0.00034031315
-0.58117967
-0.00044186411
-0.58064308
-0.00083026368
-0.57938898
-0.0013709084
-0.57727176
-0.0021655417
-0.57400478
-0.0030481459
-0.56926129
-0.0039011393
-0.56243273
-0.004623221
-0.552846
-0.0041119781
-0.53970704
-0.0011939337
-0.52450077
0.011537124
-0.51256879
0.037780621
-0.52379754
0.11671076
-0.54202183
0.15360655
-0.56405175
0.17920048
-0.59369076
0.19330649
-0.6252662
0.18894513
-0.6408559
0.15002754
-0.64395141
0.098285383
-0.63391363
0.037821094
-0.60653424
-0.001103718
-0.5856398
0.012069068
-0.57851292
0.02576483
-0.57275269
0.032638116
-0.59126386
0.044104129
-0.60684981
0.045908678
-0.616677
0.046047593
-0.61492453
0.021361451
-0.63896564
0.043274705
-0.70523178
0.01822729
-0.64417477
-0.065747779
-0.59435539
-0.19940955
-0.56699128
-0.27527091
-0.56727074
-0.19171858
-0.57993767
-0.11852612
-0.58912341
-0.08545657
-0.5954809
-0.06602808
-0.59998609
-0.05308368
-0.60326708
-0.043719273
-0.60571102
-0.036545636
-0.60756275
-0.030812429
-0.60898306
-0.026081183
-0.6100828
-0.022093258
-0.61093581
-0.01861319
-0.61159575
-0.015547016
-0.61192715
-0.008954891
-0.61214046
-0.0066175881
-0.0032711413
-0.52806884
0.0014004995
-0.52925321
0.0008440564
-0.52953826
-0.00015681673
-0.52888522
-0.0014833042
-0.52722178
-0.0030343456
-0.52437245
-0.0050148679
-0.51991316
-0.0075074336
-0.5133585
-0.010455807
-0.50370214
-0.014279574
-0.48939822
-0.018415897
-0.46798092
-0.022611241
-0.4355192
-0.020924596
-0.40264632
0.00490775
-0.41812961
0.13219404
-0.43823497
0.17371192
-0.44798156
0.18894707
-0.4663685
0.21169343