/*--------------------------------*- C++ -*----------------------------------*\
| =========                 |                                                 |
| \\      /  F ield         | foam-extend: Open Source CFD                    |
|  \\    /   O peration     | Version:     4.1                                |
|   \\  /    A nd           | Web:         http://www.foam-extend.org         |
|    \\/     M anipulation  |                                                 |
\*---------------------------------------------------------------------------*/
FoamFile
{
    version     2.0;
    format      ascii;
    class       volScalarField;
    location    "1";
    object      rAU;
}
// * * * * * * * * * * * * * * * * * * * * * * * * * * * * * * * * * * * * * //

dimensions      [0 0 1 0 0 0 0];

internalField   nonuniform List<scalar> 
4393
(
0.00022764396
0.00022727016
0.00022690412
0.00022653024
0.00022614641
0.00022575119
0.00022534222
0.0002249183
0.00022447858
0.00022402286
0.00022355175
0.00022306675
0.00022257036
0.00022206612
0.0002215584
0.00022105335
0.00022055676
0.00022007563
0.0002196176
0.00021919023
0.00021880127
0.00021845839
0.00021816912
0.00021794061
0.00021777953
0.00021769179
0.00021768206
0.00021768206
0.00021775363
0.00021790761
0.00021814216
0.00021845229
0.0002188298
0.00021926365
0.00021974058
0.00022024607
0.00022076526
0.00022128398
0.00022178941
0.00022227054
0.00022271839
0.00022312602
0.00022348837
0.00022380199
0.00022406477
0.00022427574
0.00022443495
0.00022454295
0.00022458507
0.00022451155
0.00022419108
0.00022388553
0.00022357093
0.00022324452
0.00022290465
0.00022254909
0.00022217698
0.00022178792
0.00022138226
0.00022096128
0.00022052726
0.00022008357
0.00021963469
0.00021918592
0.00021874431
0.00021831643
0.0002179099
0.00021753279
0.00021719295
0.00021689823
0.00021665632
0.00021647462
0.00021636015
0.00021631922
0.00021635723
0.00021644391
0.00021641682
0.00021646003
0.00021658693
0.00021679902
0.00021709478
0.00021746904
0.00021791304
0.00021841481
0.00021896007
0.00021953334
0.0002201191
0.00022070278
0.00022127145
0.00022181423
0.00022232241
0.00022278938
0.0002232104
0.00022358224
0.00022390274
0.00022417103
0.00022438861
0.00022454271
0.00022400619
0.00022369754
0.00022339741
0.00022308573
0.00022275976
0.00022241801
0.00022205847
0.00022168056
0.00022128428
0.00022087053
0.0002204412
0.00021999936
0.00021954926
0.00021909633
0.00021864692
0.00021820903
0.00021779016
0.00021739863
0.00021704306
0.00021673164
0.00021647239
0.00021627305
0.00021614104
0.00021608326
0.00021610588
0.00021621395
0.00021630072
0.00021618163
0.00021614336
0.00021619292
0.00021633522
0.00021657195
0.00021690055
0.00021731386
0.00021780033
0.00021834506
0.00021893111
0.00021954099
0.00022015792
0.00022076683
0.00022135487
0.00022191168
0.00022242935
0.00022290213
0.00022332604
0.00022369842
0.00022401821
0.00022428551
0.00022448062
0.00022365084
0.00022334758
0.00022304738
0.00022273256
0.00022240067
0.0002220504
0.00022167992
0.00022128888
0.00022087761
0.00022044746
0.00022000093
0.00021954181
0.00021907525
0.00021860774
0.00021814675
0.00021770144
0.00021728038
0.00021689281
0.00021654806
0.00021625477
0.00021602129
0.00021585556
0.00021576511
0.000215757
0.00021583747
0.00021601157
0.00021609312
0.00021588796
0.00021576537
0.00021573585
0.00021580814
0.00021598743
0.00021627387
0.00021666171
0.00021713941
0.00021769086
0.000218297
0.00021893784
0.00021959403
0.00022024811
0.00022088522
0.00022149338
0.00022206348
0.00022258894
0.00022306525
0.0002234896
0.00022386075
0.00022417775
0.00022442244
0.00022328896
0.00022298985
0.00022268996
0.00022237233
0.00022203466
0.00022167577
0.00022129396
0.00022088906
0.00022046167
0.00022001351
0.00021954761
0.0002190685
0.00021858221
0.00021809634
0.0002176196
0.00021716245
0.00021673467
0.00021634659
0.00021600828
0.00021572895
0.00021551725
0.00021538135
0.000215329
0.0002153675
0.00021550346
0.00021574227
0.00021582937
0.00021553374
0.00021532285
0.00021521128
0.00021521213
0.0002153347
0.00021558212
0.00021594993
0.0002164261
0.00021699256
0.00021762739
0.0002183074
0.00021901016
0.00021971555
0.00022040659
0.00022106976
0.00022169486
0.00022227467
0.00022280439
0.00022328117
0.00022370371
0.00022407086
0.00022436675
0.00022291128
0.00022261685
0.00022231834
0.00022199884
0.00022165617
0.00022128921
0.0002208963
0.00022047738
0.00022003322
0.00021956586
0.00021907879
0.00021857719
0.00021806803
0.00021756006
0.00021706336
0.00021658988
0.00021615082
0.00021575771
0.00021542152
0.00021515199
0.00021495809
0.0002148482
0.00021483034
0.00021491225
0.00021510115
0.00021540321
0.00021551099
0.00021511905
0.00021481426
0.00021461584
0.00021454214
0.00021460744
0.00021481833
0.0002151716
0.00021565414
0.00021624494
0.00021691822
0.00021764672
0.00021840431
0.00021916786
0.00021991817
0.00022064022
0.00022132297
0.00022195879
0.00022254286
0.00022307255
0.00022354676
0.00022396477
0.00022431252
0.00022251828
0.00022222922
0.0002219331
0.00022161274
0.00022126592
0.00022089149
0.00022048775
0.00022005467
0.00021959308
0.00021910522
0.00021859497
0.00021806813
0.00021753258
0.00021699831
0.00021647694
0.00021598215
0.00021552684
0.00021512392
0.00021478534
0.0002145214
0.00021434131
0.0002142536
0.00021426655
0.00021438848
0.00021462755
0.00021499121
0.00021513998
0.00021464447
0.0002142383
0.00021394616
0.00021379289
0.00021379896
0.0002139753
0.00021431996
0.00021481792
0.00021544402
0.00021616725
0.00021695515
0.00021777716
0.00021860674
0.00021942234
0.00022020759
0.00022095078
0.0002216442
0.00022228331
0.00022286596
0.00022339158
0.00022386032
0.0002242595
0.00022211197
0.00022182963
0.00022153708
0.00022121688
0.00022086676
0.00022048544
0.00022007112
0.00021962365
0.00021914384
0.000218634
0.00021809827
0.00021754301
0.00021697699
0.00021641154
0.00021586006
0.00021533826
0.00021486108
0.0002144431
0.00021409736
0.00021383463
0.00021366423
0.00021359469
0.00021363451
0.00021379267
0.00021407862
0.00021450168
0.00021471793
0.0002141099
0.00021359268
0.00021319743
0.00021295708
0.00021290018
0.00021304332
0.00021338588
0.00021390986
0.00021458419
0.00021537089
0.00021623088
0.00021712826
0.00021803263
0.00021892011
0.0002197731
0.0002205796
0.00022133217
0.00022202689
0.0002226624
0.000223239
0.00022375787
0.00022420764
0.00022169403
0.00022141927
0.00022113139
0.00022081241
0.00022045991
0.00022007239
0.00021964783
0.00021918586
0.00021868708
0.00021815374
0.00021759011
0.00021700298
0.00021640199
0.0002157999
0.00021521215
0.00021465693
0.0002141517
0.00021371306
0.00021335523
0.00021308935
0.00021292458
0.00021286917
0.00021293168
0.00021312181
0.00021345064
0.00021393008
0.00021424772
0.00021351642
0.00021287591
0.00021236503
0.00021202696
0.00021190112
0.00021201173
0.00021235974
0.00021292257
0.00021366084
0.00021452718
0.00021547415
0.0002164594
0.00021744831
0.00021841466
0.00021934001
0.00022021247
0.00022102534
0.00022177576
0.00022246353
0.00022309014
0.00022365803
0.00022415708
0.00022126649
0.00022100118
0.00022071937
0.00022040282
0.00022004895
0.00021965601
0.00021922164
0.00021874508
0.00021822659
0.00021766814
0.00021707395
0.00021645108
0.00021580998
0.00021516491
0.00021453369
0.00021393757
0.00021339721
0.00021293171
0.00021255662
0.0002122832
0.00021212001
0.00021207462
0.00021215533
0.00021237251
0.00021273921
0.00021327073
0.00021373274
0.00021286543
0.00021208639
0.00021144346
0.00021099294
0.0002107891
0.00021086703
0.00021122954
0.00021184716
0.00021266872
0.00021363426
0.00021468569
0.00021577305
0.00021685717
0.00021790974
0.00021891196
0.0002198527
0.00022072656
0.00022153224
0.00022227114
0.00022294627
0.0002235615
0.00022410812
0.00022083199
0.00022057672
0.00022030209
0.00021998914
0.00021963501
0.00021923756
0.00021879395
0.00021830291
0.00021776413
0.00021717906
0.00021655161
0.00021588891
0.00021520207
0.00021450691
0.00021382401
0.00021317847
0.00021259508
0.00021209616
0.00021169871
0.00021141374
0.00021124852
0.00021120925
0.00021130349
0.00021154209
0.00021194037
0.00021251793
0.00021317831
0.0002121601
0.00021122378
0.00021042744
0.0002098442
0.0002095491
0.00020959306
0.00020998143
0.00021067417
0.00021160328
0.00021269184
0.00021386829
0.00021507384
0.00021626466
0.00021741084
0.00021849404
0.00021950469
0.00022043946
0.00022129921
0.00022208738
0.00022280884
0.00022346915
0.00022406111
0.00022039148
0.00022014882
0.00021988314
0.00021957532
0.00021922232
0.00021882156
0.00021836965
0.00021786458
0.00021730522
0.00021669222
0.00021602885
0.00021532199
0.00021458315
0.00021382968
0.00021308535
0.00021238015
0.00021174438
0.0002112046
0.0002107795
0.00021047918
0.00021030861
0.00021027164
0.00021037436
0.00021062775
0.00021104955
0.00021166467
0.00021248481
0.00021140502
0.00021028889
0.0002093117
0.00020856795
0.0002081622
0.00020816937
0.00020859839
0.0002093928
0.00021046037
0.00021170115
0.00021302682
0.00021436856
0.00021567813
0.00021692504
0.00021809256
0.00021917378
0.00022016836
0.00022108
0.00022191472
0.00022267958
0.00022338201
0.00022401652
0.00021995018
0.00021972021
0.00021946454
0.00021916318
0.00021881267
0.00021840989
0.00021795071
0.0002174322
0.00021685214
0.00021621
0.00021550802
0.00021475237
0.0002139546
0.00021313338
0.00021231611
0.00021153908
0.00021084013
0.00021025166
0.00020979427
0.00020947615
0.00020929837
0.00020926098
0.00020936755
0.00020962851
0.00021006396
0.00021070518
0.00021159218
0.00021060821
0.00020928519
0.00020809196
0.00020714955
0.00020660472
0.00020656989
0.0002070596
0.00020799118
0.00020923708
0.00021066614
0.00021216932
0.00021366703
0.00021510755
0.00021646145
0.00021771532
0.00021886637
0.0002199183
0.00022087847
0.00022175596
0.00022256038
0.00022330124
0.0002239749
0.00021950679
0.00021929285
0.00021904938
0.00021875643
0.00021841038
0.00021800755
0.00021754298
0.00021701256
0.00021641269
0.0002157412
0.00021499873
0.00021419019
0.00021332651
0.00021242722
0.0002115236
0.00021066008
0.00020988503
0.00020923906
0.00020874504
0.00020840762
0.00020822159
0.00020818124
0.00020828637
0.00020854593
0.00020898209
0.00020963342
0.00021055294
0.00020978143
0.00020821967
0.00020676584
0.00020557232
0.00020484621
0.00020476032
0.00020533901
0.00020645624
0.00020793259
0.00020959447
0.00021130799
0.00021298281
0.00021456588
0.00021603144
0.00021737174
0.00021858992
0.00021969503
0.00022069889
0.00022161419
0.00022245335
0.00022322814
0.00022393684
0.00021907206
0.00021887363
0.0002186434
0.00021836043
0.00021802065
0.00021761967
0.00021715151
0.00021661074
0.00021599191
0.00021529073
0.00021450555
0.00021363921
0.00021270121
0.00021171098
0.00021070366
0.00020973419
0.00020886611
0.00020815216
0.00020761811
0.00020726254
0.00020707035
0.00020702733
0.00020712785
0.00020737793
0.00020780061
0.00020844229
0.00020937175
0.00020894127
0.00020710454
0.00020533474
0.00020381806
0.00020284713
0.00020269438
0.00020340357
0.00020477408
0.00020654978
0.00020849941
0.00021046065
0.00021233422
0.00021406967
0.00021564884
0.00021707282
0.00021835289
0.00021950488
0.0002205459
0.00022149269
0.00022236071
0.00022316407
0.000223903
0.00021863751
0.00021845858
0.00021824402
0.00021797327
0.00021764223
0.00021724589
0.0002167772
0.00021622912
0.0002155941
0.00021486511
0.00021403731
0.00021311054
0.00021209161
0.00021099829
0.0002098686
0.00020877081
0.00020779053
0.00020699875
0.00020642488
0.00020605712
0.00020586449
0.00020582041
0.00020591214
0.00020614128
0.00020652996
0.00020713276
0.000208038
0.00020811338
0.00020596028
0.00020380695
0.00020186874
0.00020055566
0.00020030761
0.00020121093
0.00020293082
0.0002050978
0.00020740249
0.00020965275
0.00021174549
0.00021363955
0.00021533009
0.0002168311
0.00021816459
0.0002193546
0.00022042431
0.00022139483
0.00022228474
0.00022311044
0.00022387405
0.00021822601
0.00021806541
0.00021786762
0.00021761118
0.00021729154
0.00021690298
0.0002164372
0.00021588538
0.00021523738
0.00021448269
0.00021361221
0.00021262129
0.00021151249
0.00021029941
0.00020902041
0.00020775985
0.00020663645
0.00020574991
0.00020513481
0.00020476258
0.00020457753
0.00020453601
0.0002046175
0.00020481793
0.00020515481
0.00020568904
0.00020653134
0.00020732639
0.0002048165
0.00020220292
0.00019971124
0.00019790467
0.00019750717
0.00019870639
0.00020091473
0.0002035965
0.00020633733
0.00020891989
0.00021124805
0.00021330067
0.00021509416
0.00021666039
0.00021803483
0.0002192511
0.00022033895
0.00022132393
0.00022222764
0.00022306861
0.00022385067
0.00021781698
0.00021767893
0.00021750028
0.00021726042
0.00021695497
0.00021657758
0.00021611876
0.00021556774
0.00021491161
0.00021413578
0.00021322572
0.00021217071
0.00021096727
0.00020962149
0.00020816665
0.0002067048
0.00020540475
0.0002044127
0.00020377009
0.00020342053
0.00020326811
0.00020324428
0.00020332044
0.00020348556
0.000203745
0.00020416163
0.00020487333
0.00020604012
0.00020373313
0.0002005703
0.00019735029
0.00019481288
0.00019415675
0.00019582048
0.00019872077
0.00020208368
0.00020535542
0.00020831105
0.00021088176
0.00021308281
0.00021496218
0.00021657522
0.00021797348
0.00021920104
0.0002202943
0.00022128301
0.00022219143
0.00022303983
0.00022383347
0.00021746807
0.00021735087
0.00021719274
0.00021697238
0.00021668527
0.00021632444
0.00021587921
0.00021533685
0.00021468136
0.00021389342
0.0002129514
0.0002118359
0.00021053465
0.00020904163
0.00020737452
0.00020564946
0.00020411187
0.00020298647
0.0002023236
0.00020202237
0.00020192146
0.00020191785
0.00020198026
0.0002020963
0.00020224992
0.00020250003
0.00020301714
0.00020404788
0.00020277723
0.00019900132
0.00019484867
0.00019121046
0.00019006027
0.0001924695
0.00019635936
0.00020062692
0.00020453438
0.00020789252
0.000210696
0.00021301997
0.00021495653
0.00021659
0.00021798972
0.0002192103
0.00022029419
0.00022127459
0.00022217776
0.00022302518
0.000223823
0.00021720042
0.00021710846
0.00021697479
0.00021677845
0.00021651526
0.00021617771
0.00021575395
0.00021522925
0.00021458441
0.00021379499
0.000212831
0.00021166156
0.00021026302
0.000208614
0.00020670102
0.00020463892
0.00020279062
0.00020152063
0.00020088658
0.00020071732
0.00020074096
0.00020080625
0.00020089048
0.0002009937
0.00020105259
0.00020109868
0.00020133228
0.00020206216
0.00020232365
0.00019782305
0.00019245205
0.00018712491
0.00018495931
0.00018857293
0.00019388289
0.0001993465
0.00020399075
0.00020775228
0.00021074972
0.00021314894
0.00021509925
0.00021671764
0.00021809111
0.00021928335
0.00022034134
0.00022130042
0.00022218782
0.00022302542
0.00022381969
0.00021725955
0.00021719571
0.00021709251
0.00021692797
0.0002166983
0.00021639569
0.0002160077
0.00021551823
0.0002149056
0.00021414087
0.00021318525
0.0002119928
0.00021052317
0.00020873587
0.00020656267
0.00020406862
0.00020178749
0.0002003508
0.00019980557
0.00019987921
0.00020010538
0.00020026575
0.00020036323
0.00020044935
0.00020036941
0.00020009281
0.00019988255
0.00020010171
0.00020118344
0.00019740092
0.00019066096
0.00018291674
0.00017861453
0.00018416419
0.00019146821
0.00019845305
0.00020389577
0.00020800296
0.00021110926
0.00021350606
0.0002154093
0.00021696772
0.00021828236
0.00021942251
0.00022043696
0.00022136122
0.00022222209
0.00022304092
0.00022382378
0.00021801693
0.00021798808
0.00021792998
0.00021781541
0.00021764061
0.00021739773
0.00021707424
0.00021665328
0.00021611105
0.00021541414
0.00021451397
0.00021334407
0.0002118369
0.00020993097
0.00020748661
0.00020441539
0.00020147796
0.00019988184
0.00019958097
0.00020017767
0.00020082178
0.00020120645
0.00020138402
0.00020158218
0.00020150163
0.00020093326
0.00020031543
0.00019986122
0.000200808
0.00019976214
0.000191297
0.00018002136
0.00017094792
0.0001796579
0.00018947934
0.00019827189
0.00020448877
0.00020878075
0.00021184204
0.00021412137
0.00021589861
0.00021734407
0.00021856404
0.00021962727
0.00022058035
0.00022145643
0.00022228027
0.00022307162
0.00022383532
0.00022066378
0.00022071196
0.00022074182
0.00022072125
0.00022064842
0.00022051635
0.00022031374
0.00022002469
0.00021962545
0.00021908119
0.00021833804
0.00021731142
0.00021589838
0.00021401614
0.00021146412
0.00020778639
0.00020388375
0.00020236613
0.00020272486
0.00020450464
0.00020600936
0.00020691027
0.00020732219
0.00020797702
0.0002083216
0.00020732401
0.00020618934
0.00020432512
0.00020496014
0.00020348415
0.00019650001
0.00018118221
0.00016222073
0.00017630855
0.00018869764
0.00019949695
0.0002061491
0.00021024638
0.00021300405
0.00021500913
0.00021656677
0.0002178422
0.00021893132
0.00021989362
0.00022076858
0.00022158411
0.00022236123
0.00022311694
0.00022385413
0.00022642318
0.00022656635
0.00022672905
0.0002268567
0.00022694707
0.00022699526
0.00022699409
0.00022693273
0.00022679282
0.00022654469
0.0002261373
0.00022547275
0.00022438818
0.00022271884
0.00022022038
0.00021576668
0.0002095661
0.00020824672
0.00020948518
0.00021348536
0.00021646285
0.00021835332
0.0002189663
0.00022040495
0.00022210354
9.3007797e-05
9.5433627e-05
9.7691769e-05
9.9882206e-05
0.00010288236
9.4463717e-05
8.6204562e-05
0.00010657294
0.00017933368
0.00019343356
0.00020412706
0.00020945439
0.00021253458
0.0002146055
0.00021615201
0.0002173947
0.00021844686
0.00021937313
0.00022021387
0.00022099645
0.00022174091
0.00022246291
0.00022317581
0.00022387979
0.00023924607
0.00023969371
0.00024019468
0.00024068087
0.0002411614
0.00024164037
0.00024212257
0.00024261177
0.00024310679
0.00024359687
0.0002440493
0.00024437132
0.00024434217
0.0002436257
0.00024200544
0.00023807376
0.00022682289
0.00022935536
0.00023549221
0.0002502115
0.00026144207
0.00027023492
0.00012828182
0.00016688289
0.00032275194
0.00046159673
0.00049956686
0.00049956686
0.00049956686
0.00049956686
0.00049956686
0.00045031241
0.00033649836
6.8075284e-05
0.00021297389
0.00021346094
0.00021437883
0.00021549442
0.00021653647
0.00021748113
0.00021833987
0.00021913133
0.00021987232
0.00022057687
0.00022125674
0.00022192219
0.00022258251
0.00022324666
0.00022391166
0.00026426957
0.00026527807
0.00026643176
0.00026762823
0.00026888806
0.00027023584
0.00027170568
0.0002733406
0.00027519375
0.00027733263
0.00027984364
0.00028282417
0.00028637551
0.00029054958
0.00029518228
0.00030234012
0.00027345927
0.00030501259
0.00035659976
0.00037255254
0.00027823009
0.0003197308
0.00049956686
0.00049956686
0.00049956686
0.00049956686
0.00049956686
0.00049956686
0.00049956686
0.00049956686
0.00041263391
0.00041826931
0.00010203819
0.00026659035
0.00023114004
0.00022209705
0.00021927532
0.00021853488
0.0002185543
0.00021888181
0.00021934149
0.00021986051
0.00022040745
0.00022096904
0.0002215407
0.00022212237
0.00022271655
0.00022332755
0.00022394887
0.00030195487
0.00030409733
0.00030622745
0.00030842991
0.00031077922
0.00031334821
0.00031622283
0.00031951636
0.00032338824
0.00032808207
0.00033399406
0.00034169994
0.0003517326
0.00036474732
0.00038492204
0.00040157967
0.00025703268
0.00025319413
0.00026338421
0.00048920851
0.00047849412
0.00048855148
0.00047869854
0.00047372164
0.00047746533
0.00045865802
0.00045171924
0.00045351615
0.00044093603
0.00043652042
0.00010691823
0.00010767071
0.00021977615
0.00025235682
0.00023694832
0.00022741067
0.00022311583
0.00022121906
0.00022044941
0.00022024473
0.00022033823
0.00022059795
0.00022095584
0.00022137585
0.00022183888
0.00022233532
0.00022286119
0.00022341625
0.00022399043
0.0002885644
0.00028908263
0.00028927251
0.000289459
0.00028964419
0.00028986004
0.00029013254
0.00029049855
0.00029101104
0.00029174761
0.00029283041
0.00029387568
0.00029481474
0.00029557291
0.00029293091
0.00010292906
0.00037622816
0.00047082267
0.00047253748
0.00049383689
0.00048613824
0.00048245081
0.00012420996
0.00012127924
0.00010077007
0.00010005409
0.00010062897
0.00010197278
0.00010292721
0.00010452157
0.00020120883
0.00020767803
0.00021808276
0.00023901557
0.00023963011
0.00023076144
0.00022595778
0.000223417
0.00022210833
0.00022149282
0.00022128033
0.00022131151
0.00022149646
0.00022178334
0.00022214194
0.00022255482
0.00022301243
0.00022351038
0.00022403524
0.00022327493
0.00022310716
0.00022281881
0.00022254012
0.00022227887
0.00022205222
0.00022187614
0.00022177398
0.00022177804
0.00022193321
0.00022230445
0.00022209429
0.00022116294
0.00021941659
0.00021672839
0.00021314639
9.585926e-05
9.9101753e-05
9.9869026e-05
9.9773849e-05
0.00010014959
0.00010017635
0.00021253984
0.00021081366
0.00020892982
0.00020554378
0.00020443532
0.00020387895
0.00020210795
0.00020212613
0.00020330654
0.00020901268
0.0002182361
0.00023217531
0.0002380212
0.00023248199
0.00022785743
0.00022508945
0.00022347612
0.00022257924
0.00022213282
0.00022197625
0.00022201177
0.00022217923
0.00022244134
0.00022277503
0.00022316637
0.00022360756
0.00022408215
0.00021926625
0.00021934614
0.00021947251
0.00021960786
0.00021976344
0.00021995138
0.00022018426
0.00022047814
0.00022085234
0.00022132968
0.00022186419
0.00022156875
0.0002208133
0.00021957733
0.00021780346
0.00021498943
0.00021250667
0.00021402892
0.00021587916
0.00021421456
0.00021238149
0.00021121567
0.00021005902
0.00020833717
0.00020730335
0.0002056859
0.00020477971
0.00020420529
0.00020347946
0.00020394822
0.00020593218
0.00021088842
0.00021854817
0.00022810782
0.00023383138
0.00023318211
0.00022902065
0.00022628602
0.00022454838
0.00022348498
0.00022287577
0.00022257534
0.00022248866
0.00022255366
0.00022272981
0.00022299071
0.00022331943
0.00022370554
0.00022413006
0.0002178894
0.00021796897
0.00021809431
0.00021823306
0.00021838809
0.00021856695
0.00021877816
0.00021903283
0.00021934347
0.00021972379
0.00021997925
0.00021948718
0.00021872905
0.00021765468
0.00021622739
0.00021439179
0.00021326097
0.00021411257
0.00021527034
0.00021349511
0.0002119018
0.00021068264
0.00020952601
0.00020831099
0.00020735618
0.0002062972
0.00020564682
0.00020528621
0.00020521185
0.00020608756
0.00020833109
0.00021262013
0.00021875895
0.00022561442
0.00023029982
0.00023231264
0.0002296274
0.0002270814
0.00022534763
0.00022421043
0.00022350167
0.00022309954
0.00022291849
0.00022289938
0.00022300161
0.00022319751
0.00022346846
0.00022380225
0.00022417792
0.00021721112
0.00021733208
0.0002174718
0.00021762284
0.00021779114
0.00021798312
0.00021820498
0.0002184642
0.00021876782
0.00021912123
0.00021921486
0.00021877173
0.00021812016
0.00021723012
0.00021608129
0.00021482204
0.00021419519
0.00021469884
0.00021503894
0.00021341151
0.00021201397
0.000210862
0.00020980447
0.00020882292
0.00020800283
0.00020726725
0.00020684866
0.00020673384
0.00020702993
0.00020812294
0.00021033517
0.0002139923
0.00021887056
0.00022400932
0.0002278629
0.00023021851
0.00022984665
0.00022755957
0.0002259109
0.0002247686
0.00022401226
0.00022354581
0.00022329669
0.00022321171
0.00022325257
0.000223392
0.00022361085
0.00022389592
0.0002242248
0.00021692185
0.00021699493
0.00021711093
0.00021724609
0.00021739851
0.00021757172
0.00021776951
0.00021799677
0.0002182574
0.00021855288
0.00021852318
0.00021813369
0.00021760117
0.00021691401
0.00021608471
0.00021529056
0.00021497707
0.00021536534
0.00021499574
0.00021359462
0.0002123692
0.00021132265
0.00021038918
0.00020956875
0.00020889438
0.0002083762
0.00020813539
0.00020820833
0.00020871203
0.00020988758
0.00021195288
0.00021505053
0.00021895087
0.00022294333
0.00022613907
0.00022830366
0.00022930036
0.00022779415
0.00022627867
0.000225179
0.00022441528
0.00022391581
0.000223622
0.00022348824
0.00022348004
0.00022357173
0.00022374459
0.0002239851
0.00022426992
0.00021677921
0.00021689221
0.00021701775
0.00021715345
0.00021730329
0.00021747037
0.00021765635
0.00021786312
0.00021809071
0.00021833598
0.00021824903
0.00021790034
0.00021744812
0.00021689705
0.00021628717
0.00021577736
0.00021563489
0.00021596281
0.00021504855
0.00021385921
0.000212796
0.00021186998
0.00021106079
0.000210376
0.00020983848
0.00020948079
0.00020937821
0.00020958332
0.00021019748
0.00021137674
0.00021325698
0.00021588272
0.00021904244
0.00022223337
0.00022490806
0.00022685656
0.00022808999
0.00022785098
0.00022649051
0.00022546374
0.00022472195
0.00022421435
0.00022389569
0.00022372843
0.00022368264
0.00022373512
0.00022386822
0.00022406865
0.00022431264
0.00021670591
0.00021677603
0.00021688244
0.00021700571
0.00021714336
0.00021729652
0.00021746534
0.00021765006
0.00021784876
0.00021805597
0.00021796817
0.00021768299
0.00021732706
0.0002169135
0.00021649066
0.00021618343
0.0002161567
0.00021618164
0.0002151407
0.00021413966
0.00021322844
0.00021242681
0.00021173728
0.00021117319
0.00021075727
0.00021052506
0.00021053097
0.00021082762
0.00021149507
0.00021263496
0.00021432532
0.00021655984
0.00021915727
0.00022176447
0.00022402354
0.00022576024
0.00022694897
0.00022750551
0.00022658064
0.00022564459
0.00022494494
0.00022444814
0.00022412081
0.00022393315
0.00022386012
0.00022388137
0.00022398079
0.00022414578
0.00022435249
0.00021665264
0.00021674417
0.00021685098
0.0002169671
0.0002170941
0.00021723294
0.00021738275
0.00021754233
0.00021770834
0.00021787403
0.00021779681
0.0002175589
0.00021727649
0.00021696851
0.00021668268
0.0002165126
0.0002165636
0.00021610929
0.00021525405
0.00021441756
0.00021364665
0.00021296632
0.00021239039
0.00021193619
0.00021162716
0.00021149651
0.00021158714
0.00021194534
0.00021263122
0.00021370991
0.00021522092
0.00021713371
0.00021929933
0.00022146736
0.00022339225
0.00022493372
0.00022605187
0.00022677675
0.00022657921
0.00022574182
0.00022509711
0.00022462482
0.00022430148
0.00022410434
0.00022401305
0.00022401032
0.00022408185
0.00022421598
0.00022438911
0.0002166205
0.00021668717
0.00021678213
0.00021688948
0.00021700704
0.00021713451
0.00021727
0.00021741134
0.00021755417
0.00021769102
0.00021764804
0.00021746002
0.00021724613
0.00021702748
0.00021684685
0.00021677386
0.00021670985
0.0002160885
0.00021538618
0.00021469263
0.00021404932
0.00021348311
0.00021301305
0.00021265864
0.00021244315
0.00021239613
0.00021255246
0.00021295026
0.00021363307
0.00021464108
0.00021598942
0.000217638
0.00021946699
0.00022129569
0.00022294915
0.00022431567
0.000225352
0.00022606775
0.00022637969
0.00022577298
0.00022519061
0.00022475224
0.00022444245
0.00022424459
0.00022414267
0.00022412236
0.00022417131
0.000224279
0.00022442233
0.00021659669
0.00021666911
0.00021675952
0.00021685807
0.0002169644
0.00021707814
0.00021719698
0.00021731826
0.0002174373
0.00021754674
0.00021753782
0.00021739145
0.00021723369
0.00021708551
0.00021698321
0.00021695149
0.00021664406
0.00021610974
0.00021553544
0.00021496624
0.00021443801
0.00021397713
0.00021360445
0.00021334012
0.00021320626
0.00021322863
0.00021343568
0.00021385747
0.00021452448
0.0002154599
0.00021666414
0.00021809537
0.00021965791
0.00022121878
0.00022264956
0.00022386149
0.00022481305
0.00022550246
0.00022595403
0.00022575333
0.00022523654
0.00022483802
0.00022454868
0.00022435692
0.00022425062
0.00022421826
0.00022424943
0.00022433483
0.00022445205
0.0002165858
0.00021664593
0.00021672855
0.00021681966
0.00021691733
0.00021702058
0.00021712667
0.0002172326
0.00021733362
0.00021742274
0.00021744897
0.00021733986
0.00021722935
0.00021713709
0.00021709323
0.00021696835
0.00021660054
0.0002161657
0.00021570011
0.00021523947
0.00021481441
0.00021444956
0.00021416563
0.00021398221
0.00021391963
0.00021399996
0.00021424619
0.00021468123
0.00021532559
0.00021619097
0.0002172694
0.00021852108
0.00021986966
0.00022121532
0.00022246153
0.00022353761
0.00022440594
0.00022505879
0.0002255099
0.00022566434
0.00022524461
0.00022488926
0.00022462506
0.00022444452
0.00022433886
0.0002242991
0.00022431668
0.00022438362
0.00022447828
0.00021658214
0.00021664081
0.00021671783
0.00021680116
0.00021688946
0.00021698172
0.00021707509
0.00021716655
0.00021725155
0.00021732377
0.00021736693
0.00021730088
0.00021722868
0.00021717975
0.00021711423
0.00021689994
0.00021659951
0.00021624938
0.00021587734
0.00021551196
0.0002151792
0.00021490135
0.00021469786
0.00021458697
0.00021458682
0.000214716
0.00021499276
0.00021543402
0.00021605278
0.00021685312
0.00021782267
0.00021892528
0.00022009977
0.0002212698
0.00022236146
0.00022331824
0.00022410714
0.00022471775
0.00022515705
0.0002254432
0.0002252232
0.00022491239
0.00022467627
0.00022451063
0.00022440948
0.00022436611
0.00022437374
0.00022442567
0.00022450113
0.00021658697
0.00021663919
0.00021671039
0.00021678721
0.00021686781
0.00021695101
0.00021703393
0.00021711366
0.00021718603
0.00021724549
0.00021728497
0.000217269
0.00021722798
0.00021717785
0.00021706203
0.00021687263
0.00021663158
0.00021635484
0.00021606425
0.00021578292
0.00021553281
0.00021533359
0.0002152029
0.00021515711
0.000215212
0.0002153829
0.00021568398
0.00021612722
0.00021672006
0.00021746159
0.00021833746
0.00021931566
0.0002203468
0.00022137158
0.00022233252
0.00022318426
0.00022389848
0.00022446399
0.00022488364
0.00022517002
0.00022517963
0.00022491324
0.00022470671
0.0002245584
0.00022446464
0.00022442069
0.0002244214
0.00022446136
0.00022452074
0.00021659774
0.00021664669
0.00021671291
0.00021678346
0.00021685669
0.00021693145
0.00021700496
0.00021707455
0.00021713652
0.00021718617
0.00021721771
0.00021722449
0.00021719932
0.00021713539
0.00021702774
0.00021687686
0.00021668874
0.00021647643
0.00021625751
0.00021605084
0.00021587494
0.00021574686
0.00021568213
0.00021569504
0.00021579892
0.00021600611
0.00021632722
0.00021677023
0.00021733848
0.00021802785
0.00021882344
0.00021969722
0.00022060902
0.00022151214
0.00022236135
0.00022312015
0.00022376459
0.00022428388
0.0002246785
0.00022495722
0.00022509778
0.00022489673
0.00022472031
0.0002245908
0.00022450645
0.00022446423
0.00022446049
0.00022449112
0.00022453727
0.00021661389
0.00021665887
0.00021672061
0.0002167858
0.0002168527
0.00021692025
0.0002169858
0.00021704703
0.00021710078
0.00021714319
0.0002171697
0.0002171753
0.00021715488
0.00021710402
0.00021702011
0.00021690506
0.00021676452
0.00021660941
0.00021645416
0.0002163143
0.00021620536
0.0002161419
0.00021613725
0.00021620352
0.00021635162
0.00021659114
0.00021692961
0.00021737174
0.00021791784
0.00021856176
0.00021928878
0.00022007448
0.00022088596
0.000221686
0.00022243871
0.00022311469
0.00022369401
0.00022416691
0.0002245327
0.00022479767