/*--------------------------------*- C++ -*----------------------------------*\
| =========                 |                                                 |
| \\      /  F ield         | foam-extend: Open Source CFD                    |
|  \\    /   O peration     | Version:     4.1                                |
|   \\  /    A nd           | Web:         http://www.foam-extend.org         |
|    \\/     M anipulation  |                                                 |
\*---------------------------------------------------------------------------*/
FoamFile
{
    version     2.0;
    format      ascii;
    class       volScalarField;
    location    "1";
    object      rAU;
}
// * * * * * * * * * * * * * * * * * * * * * * * * * * * * * * * * * * * * * //

dimensions      [0 0 1 0 0 0 0];

internalField   nonuniform List<scalar> 
4393
(
0.0004008319
0.00040022333
0.00039959696
0.0003989055
0.00039814178
0.00039730177
0.00039637924
0.00039537245
0.00039428151
0.00039310926
0.00039186155
0.00039054733
0.00038917857
0.00038777
0.00038633802
0.00038490312
0.0003834834
0.00038209908
0.00038077101
0.00037951904
0.00037836279
0.00037732184
0.0003764154
0.00037566248
0.00037507896
0.00037468318
0.00037449599
0.00037449599
0.00037453065
0.00037479328
0.00037528217
0.00037598629
0.00037688481
0.0003779487
0.00037914251
0.00038042715
0.00038176246
0.00038310988
0.00038443433
0.00038570559
0.00038689888
0.00038799507
0.00038897987
0.00038984425
0.00039058216
0.00039118998
0.00039166866
0.00039178926
0.00039175726
0.00039191558
0.0003914369
0.0003909577
0.00039041183
0.00038978876
0.00038908451
0.00038829391
0.0003874167
0.0003864547
0.00038541277
0.00038429896
0.00038312456
0.00038190387
0.00038065384
0.00037939277
0.00037814263
0.00037692255
0.00037575327
0.00037465577
0.00037364992
0.00037275514
0.00037199109
0.00037137707
0.00037093251
0.0003706719
0.00037061656
0.00037078937
0.00037093887
0.00037090452
0.00037109898
0.00037152927
0.00037219376
0.00037308057
0.0003741675
0.00037542321
0.00037680993
0.0003782863
0.00037981066
0.00038134359
0.00038284992
0.00038429968
0.00038566927
0.00038693943
0.00038809811
0.00038913725
0.00039004782
0.00039105763
0.00039141468
0.00039168151
0.00039111042
0.00039062199
0.00039010881
0.00038951964
0.0003888463
0.00038808593
0.00038723465
0.00038629374
0.00038526692
0.00038416124
0.00038298725
0.00038175892
0.0003804934
0.00037921032
0.00037793044
0.00037667763
0.00037547237
0.00037433614
0.00037329001
0.00037235379
0.00037154653
0.00037088786
0.00037039724
0.0003700948
0.00036999487
0.00037012019
0.00037049497
0.00037048644
0.0003702258
0.00037020145
0.00037043136
0.0003709234
0.00037167302
0.00037266249
0.00037386182
0.00037523173
0.00037672712
0.0003783012
0.00037990879
0.00038150903
0.0003830666
0.00038455361
0.00038594668
0.00038723089
0.00038839831
0.00038943613
0.00039079689
0.00039120536
0.0003916006
0.00039070914
0.00039019994
0.00038965064
0.00038901401
0.00038828389
0.00038745863
0.0003865355
0.00038551714
0.00038440891
0.00038321994
0.00038196324
0.00038065565
0.00037931742
0.0003779714
0.00037664131
0.00037535356
0.00037413054
0.00037299492
0.00037196828
0.00037107055
0.0003703207
0.0003697386
0.0003693444
0.00036915961
0.00036919978
0.0003694879
0.00037005115
0.00036988999
0.00036939273
0.00036914344
0.00036917139
0.00036949466
0.00037011614
0.00037102191
0.00037218201
0.00037355399
0.00037508736
0.00037672877
0.0003784263
0.00038013278
0.00038180746
0.00038341823
0.00038493804
0.00038634908
0.00038764526
0.00038881031
0.00039051698
0.00039097997
0.00039148074
0.00039031449
0.00038978492
0.00038920229
0.00038852082
0.00038773564
0.00038684607
0.00038585035
0.00038475224
0.00038355858
0.00038228044
0.00038093329
0.00037953696
0.00037811513
0.00037669425
0.00037530154
0.00037396638
0.00037271343
0.00037156673
0.00037054834
0.0003696781
0.00036897477
0.00036845832
0.00036814976
0.00036807247
0.00036824433
0.00036868803
0.00036943575
0.00036914818
0.00036840169
0.00036791774
0.00036773888
0.00036789477
0.0003683963
0.00036923278
0.00037037281
0.00037176872
0.00037336253
0.00037509258
0.00037689887
0.00037872722
0.00038053114
0.00038227441
0.00038392677
0.00038546751
0.00038689388
0.00038818593
0.00039023151
0.00039075357
0.00039136716
0.00038990883
0.00038936081
0.0003887476
0.00038802397
0.00038718576
0.00038623296
0.00038516446
0.00038398488
0.0003827023
0.00038132954
0.00037988453
0.00037839022
0.00037687407
0.00037536668
0.00037389933
0.00037250489
0.00037121066
0.00037004218
0.00036902188
0.00036816913
0.00036750208
0.00036704053
0.00036680649
0.00036682578
0.00036711978
0.00036771102
0.00036863904
0.00036826324
0.00036725
0.00036651648
0.00036612119
0.00036610762
0.00036649569
0.00036727745
0.00036841822
0.00036986257
0.00037154237
0.00037338534
0.00037532182
0.00037728972
0.00037923655
0.00038112217
0.00038291362
0.00038458753
0.00038614596
0.00038756525
0.0003899428
0.00039052922
0.0003912571
0.00038949634
0.00038893275
0.00038829165
0.00038752829
0.0003866389
0.00038562376
0.00038448209
0.000383219
0.00038184348
0.00038036993
0.00037881863
0.00037721584
0.00037559328
0.00037398636
0.00037243115
0.00037096469
0.00036961737
0.00036841639
0.00036738432
0.00036653941
0.00036589859
0.00036548101
0.00036530963
0.00036541333
0.00036581839
0.00036654778
0.00036765103
0.0003672398
0.00036593673
0.00036493268
0.0003643059
0.00036411707
0.00036439684
0.00036513954
0.0003663048
0.0003678261
0.00036962168
0.00037160578
0.0003736971
0.00037582461
0.00037792956
0.00037996812
0.00038190534
0.00038371559
0.00038540711
0.00038695301
0.00038965352
0.00039030795
0.00039114952
0.00038908412
0.00038850751
0.00038784105
0.00038704027
0.00038610147
0.00038502486
0.00038380953
0.00038246064
0.00038098766
0.00037940627
0.00037773906
0.00037601571
0.00037427281
0.00037255146
0.00037089352
0.00036934099
0.00036792799
0.00036668358
0.00036563009
0.00036478376
0.00036415929
0.00036377436
0.00036365264
0.00036382668
0.00036432937
0.00036518519
0.00036645646
0.00036608051
0.00036445796
0.00036315496
0.00036227489
0.00036190051
0.00036207581
0.00036279685
0.00036401446
0.00036564643
0.00036759287
0.00036975094
0.00037202538
0.00037433509
0.00037661489
0.0003788178
0.00038090767
0.00038285728
0.00038468243
0.00038635369
0.00038936595
0.00039009065
0.00039104415
0.00038867794
0.000388091
0.00038740179
0.00038656604
0.00038557984
0.00038444285
0.00038315354
0.00038171656
0.00038014132
0.0003784444
0.00037665047
0.0003747928
0.00037291357
0.00037106081
0.00036928337
0.00036762931
0.0003661373
0.00036483856
0.00036375471
0.0003628986
0.00036228121
0.0003619175
0.00036183124
0.00036205927
0.00036264309
0.00036361032
0.00036503898
0.00036479153
0.0003628119
0.00036117229
0.00036000855
0.00035943266
0.00035950596
0.00036022562
0.00036152913
0.00036331242
0.00036545147
0.00036782181
0.00037031153
0.00037282837
0.00037530088
0.00037767966
0.00037992856
0.00038201973
0.00038397796
0.00038577224
0.00038908255
0.0003898785
0.00039094123
0.00038828525
0.00038769055
0.00038698108
0.00038611284
0.00038508142
0.00038388546
0.00038252215
0.00038099497
0.00037931248
0.00037749164
0.00037555893
0.00037355115
0.00037151711
0.00036951329
0.00036759726
0.0003658244
0.00036423909
0.00036287521
0.00036175313
0.00036088027
0.00036026176
0.0003599079
0.00035984156
0.00036010423
0.00036074852
0.00036180758
0.00036337783
0.00036338064
0.00036099687
0.00035897134
0.0003574824
0.00035668178
0.00035665423
0.0003573971
0.00035882814
0.00036081264
0.00036319451
0.00036582202
0.00036856357
0.00037131486
0.00037399868
0.00037656454
0.00037897787
0.00038121154
0.0003833008
0.00038521428
0.00038880622
0.00038967308
0.00039084133
0.00038791181
0.00038731097
0.00038658391
0.00038568625
0.00038461262
0.00038336002
0.00038192362
0.00038030485
0.00037851042
0.00037655698
0.00037447231
0.00037229647
0.00037008616
0.00036790848
0.00036583198
0.00036392088
0.00036222687
0.00036078737
0.00035962091
0.00035872659
0.0003581006
0.00035774582
0.0003576825
0.00035795681
0.00035863556
0.00035976077
0.00036144954
0.00036186054
0.0003590143
0.00035653861
0.00035466802
0.00035360954
0.00035348072
0.0003542778
0.00035588914
0.00035813702
0.00036082258
0.00036375988
0.00036679441
0.00036980947
0.00037272333
0.00037548639
0.00037806782
0.00038044302
0.00038265928
0.00038468627
0.00038854043
0.00038947642
0.00039074529
0.00038756569
0.00038696207
0.00038622007
0.00038529617
0.0003841838
0.00038287764
0.00038136984
0.00037965886
0.00037774807
0.00037565296
0.00037340183
0.00037103719
0.00036862524
0.0003662468
0.00036398435
0.00036191271
0.00036009306
0.00035856784
0.00035735341
0.00035643623
0.00035579934
0.00035543421
0.00035535572
0.00035561426
0.00035629446
0.00035745215
0.00035922661
0.00036024975
0.00035686947
0.00035386036
0.00035153137
0.00035016812
0.00034993574
0.00035082748
0.00035268759
0.00035527743
0.00035834097
0.00036164966
0.00036502307
0.00036833258
0.00037149435
0.00037446262
0.00037721318
0.00037972632
0.00038206298
0.00038419549
0.00038828933
0.00038929099
0.00039065419
0.00038725259
0.00038664434
0.00038589021
0.00038494444
0.00038379853
0.00038244398
0.00038086867
0.00037906697
0.00037703695
0.00037479175
0.00037235918
0.0003697823
0.00036713888
0.00036452799
0.00036205019
0.0003597923
0.00035782824
0.00035620779
0.00035494566
0.00035400912
0.00035336244
0.00035298004
0.00035286722
0.00035307735
0.00035371709
0.00035486329
0.00035667804
0.00035857544
0.0003545745
0.00035092449
0.00034803231
0.0003462973
0.00034595653
0.00034699739
0.00034919691
0.00035222925
0.00035576183
0.00035951372
0.00036327628
0.00036691114
0.00037033643
0.00037351447
0.00037643142
0.00037907541
0.0003815227
0.00038375006
0.00038805766
0.0003891196
0.00039056931
0.00038697877
0.00038637341
0.00038561069
0.00038464772
0.00038347424
0.00038207781
0.00038044039
0.00037855123
0.00037640019
0.00037399667
0.00037136661
0.00036854997
0.00036563834
0.00036275622
0.00036002792
0.00035755281
0.0003554222
0.00035369676
0.00035239224
0.00035144645
0.00035079773
0.00035039541
0.00035022872
0.00035035179
0.0003508977
0.00035197519
0.00035376934
0.00035642369
0.00035215169
0.0003477231
0.00034412387
0.00034192011
0.0003414621
0.00034272768
0.00034538898
0.00034899391
0.00035310737
0.00035738532
0.00036159063
0.00036558005
0.00036928011
0.00037266725
0.0003757427
0.00037850598
0.00038105031
0.00038335873
0.00038785071
0.00038896541
0.00039049212
0.00038675034
0.00038614078
0.00038537198
0.00038439815
0.00038320581
0.0003817776
0.00038008733
0.00037811827
0.00037584796
0.00037328026
0.00037043778
0.00036735067
0.00036412635
0.0003609266
0.0003579076
0.00035517906
0.00035285666
0.00035101678
0.00034968364
0.00034874895
0.00034811649
0.00034769883
0.00034745954
0.00034745025
0.00034783429
0.00034876851
0.00035046296
0.00035336275
0.00034963848
0.00034425753
0.00033975288
0.00033693677
0.00033634545
0.00033794396
0.00034123538
0.00034558289
0.00035041435
0.00035531238
0.00036001503
0.00036438345
0.00036836233
0.00037195034
0.00037516966
0.00037803511
0.00038065845
0.00038303072
0.00038767412
0.00038883178
0.00039042419
0.00038657644
0.00038596419
0.00038519383
0.00038421679
0.00038301633
0.0003815697
0.00037983945
0.00037780263
0.00037541876
0.0003726835
0.0003696152
0.00036622257
0.00036262858
0.00035905274
0.00035569526
0.00035266771
0.00035012155
0.00034815367
0.00034681472
0.00034592276
0.00034533833
0.0003449194
0.00034458975
0.00034439505
0.00034452995
0.00034522447
0.0003467197
0.00034955764
0.00034709451
0.00034054678
0.0003348633
0.00033121663
0.00033046136
0.00033255318
0.00033671048
0.00034202442
0.00034774082
0.00035336252
0.00035861382
0.00036337615
0.00036762673
0.000371397
0.0003747369
0.00037768077
0.00038036011
0.00038277531
0.00038753369
0.00038872216
0.00039036718
0.00038645005
0.00038584287
0.00038507566
0.00038410375
0.00038290768
0.00038145954
0.0003797062
0.00037761937
0.00037513278
0.00037222969
0.00036892488
0.00036518731
0.00036114836
0.00035712205
0.00035337152
0.00034998817
0.0003471789
0.00034506285
0.00034375592
0.00034295665
0.00034247625
0.00034208901
0.00034165804
0.0003412212
0.00034099851
0.00034132772
0.00034249995
0.0003451376
0.00034460901
0.00033664074
0.00032940651
0.00032459015
0.00032360726
0.00032643902
0.0003317974
0.00033837427
0.00034517607
0.00035162976
0.00035747013
0.00036262473
0.00036712344
0.00037104354
0.00037447016
0.00037746104
0.00038016795
0.00038260141
0.00038743504
0.00038863991
0.0003903227
0.00038635781
0.00038574968
0.00038499101
0.00038403715
0.00038286416
0.00038144014
0.00037968995
0.00037758262
0.00037501682
0.00037195554
0.00036841398
0.00036429483
0.00035971252
0.00035514212
0.00035094188
0.00034713409
0.00034401699
0.00034172048
0.00034050355
0.00033987072
0.00033958477
0.00033928473
0.00033874244
0.00033799309
0.00033727532
0.00033706217
0.00033774012
0.00034000806
0.00034228817
0.00033264066
0.00032337745
0.00031685086
0.00031549184
0.00031945698
0.00032649862
0.00033473366
0.00034285532
0.0003502432
0.00035668947
0.00036220795
0.00036690801
0.00037092786
0.00037439485
0.00037739297
0.00038009351
0.00038251695
0.0003873833
0.00038858809
0.00039029227
0.00038640875
0.00038576675
0.00038501612
0.00038409035
0.00038295805
0.00038158679
0.00037987147
0.00037778228
0.00037517336
0.00037197077
0.00036819977
0.00036366549
0.00035839859
0.0003531531
0.00034844109
0.00034411455
0.00034063167
0.00033808932
0.00033703508
0.00033665977
0.00033670522
0.00033658386
0.00033592807
0.00033479393
0.00033343492
0.00033247245
0.00033246695
0.00033420339
0.00033816475
0.00032881123
0.00031691446
0.00030779143
0.00030569337
0.00031143686
0.00032086284
0.00033128253
0.00034098241
0.00034937782
0.00035640265
0.00036221563
0.00036703898
0.00037108696
0.00037453412
0.00037749113
0.00038014619
0.00038252823
0.00038738265
0.00038856923
0.0003902772
0.00038653541
0.00038591875
0.00038519363
0.00038431462
0.00038324729
0.00038196661
0.00038032849
0.00037830892
0.00037571437
0.00037240322
0.00036842356
0.00036346169
0.00035731224
0.00035121595
0.00034595504
0.0003410072
0.00033711452
0.00033423133
0.00033346402
0.00033352454
0.00033418606
0.00033446251
0.00033374157
0.00033219224
0.00033006421
0.00032808046
0.00032706543
0.00032797912
0.00033156185
0.00032569221
0.00031051754
0.00029740263
0.00029365693
0.00030225626
0.00031506462
0.00032833493
0.00033985925
0.00034926573
0.00035676632
0.00036274484
0.0003675733
0.00037155328
0.00037490619
0.00037776589
0.00038033217
0.00038263924
0.00038743588
0.0003885851
0.00039027846
0.00038716334
0.0003867877
0.00038608041
0.00038525906
0.00038428021
0.00038313273
0.000381626
0.00037974468
0.00037725962
0.0003739016
0.00036975607
0.00036440895
0.00035710832
0.00034990046
0.00034407929
0.00033839395
0.0003341044
0.00033075405
0.00033043993
0.00033113791
0.0003327978
0.00033369757
0.00033290333
0.00033077674
0.00032760125
0.00032415432
0.00032171883
0.00032157573
0.00032466115
0.00032448614
0.00030568456
0.00028654483
0.00027894572
0.00029210197
0.00030949192
0.00032638196
0.00033991962
0.00035020817
0.00035795909
0.00036389121
0.00036855876
0.00037234933
0.00037552106
0.00037822141
0.00038065316
0.00038285088
0.00038754403
0.00038863649
0.00039029658
0.00038932403
0.00038950763
0.00038877776
0.00038799523
0.00038710716
0.00038612914
0.00038481984
0.00038315495
0.00038090756
0.00037762019
0.00037334435
0.00036770821
0.00035883452
0.00035009271
0.00034379739
0.00033726763
0.00033265173
0.00032857913
0.00032891952
0.00033079425
0.00033450227
0.00033730387
0.00033657886
0.00033391068
0.00032990629
0.00032474463
0.00032066382
0.00031889832
0.00032222987
0.00032613395
0.00030677637
0.00027869598
0.00026149979
0.00028196806
0.000304854
0.00032626764
0.00034185017
0.00035259971
0.00036016734
0.00036573173
0.0003700223
0.00037348114
0.00037637701
0.00037885384
0.00038110553
0.0003831605
0.00038770602
0.00038872302
0.00039033159
0.00039678951
0.00039782886
0.00039704822
0.00039626199
0.00039541821
0.00039457885
0.00039348867
0.00039212352
0.0003903453
0.00038732702
0.00038293811
0.00037723084
0.00036617658
0.00035515531
0.00034858774
0.00034118358
0.00033707495
0.00033234799
0.00033444281
0.00033878783
0.00034619691
0.00035272512
0.0003523775
0.00034954577
0.00034530553
0.00033743754
0.00033111989
0.00032616826
0.00033158347
0.00033149496
0.00031955881
0.00028177323
0.00024169383
0.00027515608
0.00030338606
0.00033037006
0.0003468749
0.00035690216
0.0003635302
0.00036829175
0.00037195414
0.00037493114
0.00037745743
0.00037964994
0.0003816796
0.00038356157
0.00038791855
0.00038884304
0.00039038292
0.00041298807
0.00041482583
0.00041418673
0.00041332099
0.00041248696
0.00041177653
0.00041091653
0.00040986316
0.00040865857
0.00040612311
0.00040149722
0.00039592594
0.00038141738
0.00036704078
0.00036044436
0.00035234268
0.00034957754
0.00034234323
0.0003454896
0.00035412511
0.00036814202
0.00038506309
0.00038317626
0.00037743787
0.00037801737
0.00011776069
0.0001193173
0.00011976622
0.00012064753
0.00012256396
0.00011297866
0.0001032445
0.00013118717
0.00028355821
0.0003173212
0.00034426107
0.00035631461
0.00036331203
0.00036800755
0.00037149891
0.00037429235
0.0003766531
0.00037872939
0.0003805867
0.00038235965
0.00038404366
0.00038817603
0.00038899363
0.00039044942
0.00045304719
0.00045435339
0.00045356548
0.00045228021
0.00045108624
0.00045014214
0.00044922229
0.00044827709
0.00044742212
0.00044572165
0.00044026958
0.00043466053
0.00041686553
0.00039484424
0.00038782725
0.00037788544
0.00038555318
0.00037807848
0.00038438762
0.00040966124
0.0004393124
0.00047478884
0.00013628114
0.00016440029
0.00026041508
0.0017700096
0.0098295501
0.0098295501
0.0098295501
0.0098295501
0.0098295501
0.002673721
0.00099802183
7.8838274e-05
0.00036898611
0.00036765693
0.00036917715
0.00037123692
0.00037326702
0.00037516037
0.00037691993
0.00037857327
0.00038014507
0.00038163252
0.00038312473
0.000384593
0.00038847092
0.00038917072
0.00039052937
0.00053335433
0.00053542824
0.00053538755
0.00053455319
0.00053429078
0.00053481846
0.00053621899
0.0005389949
0.00054348129
0.00054724071
0.00054508959
0.00054057699
0.0005021966
0.00046674321
0.00047668939
0.00048045238
0.00060759059
0.00065438105
0.00079085515
0.00040087924
0.00034256899
0.0002278009
0.0098295501
0.0098295501
0.0098295501
0.0098295501
0.0098295501
0.0098295501
0.0098295501
0.0098295501
0.001870011
0.0019425031
0.00012629713
0.00052416341
0.00041962862
0.00039126165
0.00038242765
0.00037949245
0.00037877085
0.00037900087
0.0003796826
0.00038059927
0.00038164647
0.00038274983
0.00038395007
0.00038519328
0.00038879415
0.00038936928
0.00039062058
0.00049374491
0.00049777053
0.00050004341
0.00050194251
0.00050455155
0.0005080949
0.00051283185
0.00051910086
0.00052737684
0.00054060467
0.00055931185
0.00058826983
0.00062025106
0.00061128044
0.00074504517
0.00065636312
0.00017507607
0.00054615309
0.00019870679
0.0098295502
0.0034773924
0.002754442
0.0062287626
0.0053822774
0.0050099758
0.0033692627
0.0030465826
0.0032633895
0.002643615
0.0024778685
0.0001311249
0.00013191394
0.00035696746
0.00046325257
0.00044278471
0.00040804292
0.00039352879
0.00038698324
0.00038398802
0.00038273866
0.00038241966
0.000382634
0.00038317233
0.00038389866
0.00038480914
0.00038582676
0.00038913575
0.00038958364
0.00039072047
0.0004259285
0.00042770442
0.0004298094
0.00043214927
0.00043476391
0.00043771808
0.00044104949
0.00044487932
0.00044915836
0.00045805841
0.00047607402
0.00050641755
0.00060248457
0.00075120723
0.00099991451
0.00015773509
0.0019281079
0.0089453126
0.0077555791
0.0070007755
0.0066399076
0.0059599319
0.00016282712
0.00015775006
0.00012374363
0.00012163079
0.00012234461
0.00012397263
0.00012525736
0.00012744882
0.00031812678
0.00033214427
0.00035757926
0.00041617987
0.00043947221
0.00041754252
0.00040155981
0.00039308999
0.00038854442
0.00038614853
0.00038499227
0.00038458927
0.00038466501
0.00038504039
0.00038567567
0.00038647547
0.00038948547
0.00038980783
0.00039082627
0.00039815215
0.00039817813
0.00039886407
0.00039978404
0.00040082238
0.0004020299
0.0004034265
0.00040428041
0.0004042809
0.00040353682
0.00039370325
0.00037709861
0.0003641975
0.00045950137
0.00045570214
0.00042124995
0.00011253962
0.00011864488
0.00012172282
0.00012108602
0.00012128468
0.00012126781
0.00035210535
0.00034679913
0.00033959647
0.00033074458
0.00032906098
0.00032789595
0.0003227426
0.00032265941
0.00032370066
0.00033639448
0.00036073299
0.00039960309
0.00042221107
0.00042158547
0.00040671037
0.00039764687
0.00039225607
0.00038908844
0.00038729967
0.00038639508
0.00038607584
0.00038614087
0.00038652556
0.00038712237
0.0003898335
0.00039003588
0.00039093516
0.00038480998
0.00038498791
0.00038492352
0.0003848426
0.00038466589
0.00038434919
0.0003837234
0.00038241316
0.00038043068
0.0003773739
0.0003661323
0.00035425732
0.00031567393
0.00035902152
0.00036844856
0.00037637982
0.00035757712
0.00035643618
0.00035725894
0.00035385302
0.00035183143
0.00034833746
0.00034292605
0.00033766184
0.00033468956
0.00033130906
0.00032992455
0.00032867433
0.00032654764
0.00032727656
0.00033093899
0.00034258789
0.00036326681
0.00039002597
0.00040798266
0.0004168446
0.00040955935
0.00040076409
0.00039509124
0.00039149604
0.00038928282
0.00038800354
0.00038736808
0.00038717242
0.00038733819
0.00038775219
0.00039017093
0.00039026222
0.00039104437
0.00037802992
0.00037733939
0.0003768433
0.00037636341
0.00037577711
0.00037506198
0.00037390448
0.00037231575
0.00036941109
0.00036576523
0.00035504331
0.00034694255
0.00032528344
0.00034842203
0.00035639517
0.00036167257
0.00035814706
0.00035711901
0.0003552775
0.0003517913
0.00034910819
0.00034565503
0.00034120043
0.00033767793
0.00033525979
0.00033322995
0.00033224424
0.00033148228
0.00033113674
0.00033293018
0.00033786046
0.00034838018
0.00036508798
0.00038431523
0.00039878312
0.00040739875
0.00040913163
0.00040267826
0.00039711483
0.00039337051
0.00039091943
0.00038938838
0.00038851758
0.00038811474
0.0003880972
0.00038835208
0.00039049015
0.00039048181
0.0003911514
0.0003763007
0.00037524279
0.00037446838
0.000373709
0.0003728054
0.00037170977
0.00037004386
0.00036807048
0.00036478613
0.00036135806
0.00035290059
0.00034758218
0.00033369047
0.00034904531
0.00035387308
0.00035746395
0.00035777571
0.00035824704
0.00035503903
0.0003519009
0.00034904949
0.00034595743
0.00034255229
0.00033974711
0.00033770381
0.00033629241
0.0003356388
0.00033544016
0.00033610729
0.00033853463
0.00034375968
0.00035309583
0.00036642032
0.0003808962
0.0003926534
0.00040056498
0.00040498076
0.00040364591
0.00039843918
0.000394751
0.00039221527
0.00039054162
0.00038951188
0.00038895479
0.00038879072
0.00038891188
0.00039078513
0.00039069043
0.00039125402
0.00037511465
0.00037418779
0.0003732749
0.00037233172
0.0003712482
0.00036999765
0.00036822576
0.00036634902
0.0003631937
0.00036009449
0.0003538134
0.00035000801
0.00034172257
0.00035134997
0.00035423408
0.00035678299
0.00035850981
0.00035921305
0.00035582102
0.00035294817
0.0003502209
0.00034745246
0.00034472594
0.00034244764
0.00034077649
0.00033973708
0.00033937217
0.00033961269
0.00034079828
0.00034357723
0.00034867676
0.00035678715
0.00036750657
0.00037882946
0.0003885074
0.00039559439
0.00040008199
0.00040221315
0.00039919285
0.00039569818
0.00039319467
0.00039146921
0.00039034817
0.00038968609
0.00038941115
0.00038942415
0.00039105141
0.00039088465
0.00039135039
0.00037511093
0.00037390497
0.00037287795
0.00037183787
0.00037066979
0.00036934252
0.00036754826
0.00036569028
0.00036272291
0.00036005366
0.00035535059
0.00035250229
0.00034764929
0.0003532927
0.00035538532
0.00035741037
0.00035943769
0.00035963828
0.00035685332
0.00035429987
0.00035179728
0.00034936309
0.00034709414
0.00034521838
0.00034387566
0.00034312404
0.00034300238
0.0003435556
0.00034505105
0.00034794861
0.00035274466
0.00035974726
0.00036849166
0.00037760852
0.00038567555
0.00039195203
0.00039628897
0.00039892233
0.00039913688
0.00039628018
0.00039389248
0.0003921865
0.00039103104
0.00039030754
0.00038995473
0.00038988409
0.00039128607
0.00039106197
0.0003914391
0.00037487123
0.00037372071
0.00037265487
0.00037156582
0.00037036251
0.00036901948
0.00036730474
0.0003655539
0.0003629683
0.00036070367
0.00035715369
0.0003549312
0.00035213454
0.00035532052
0.00035693818
0.00035862198
0.00036055899
0.00036039246
0.00035796374
0.00035567394
0.00035344168
0.00035132592
0.00034942301
0.000347883
0.00034682445
0.00034631326
0.00034640189
0.00034717584
0.00034884563
0.00035173529
0.00035615573
0.00036220518
0.000369453
0.00037695713
0.00038376388
0.00038930169
0.00039337974
0.00039608704
0.00039766373
0.00039656494
0.00039434797
0.00039271446
0.00039157021
0.00039082225
0.00039042083
0.00039028917
0.00039148761
0.00039122069
0.0003915191
0.00037469113
0.00037355276
0.00037248413
0.00037138892
0.00037019458
0.00036888012
0.00036728339
0.00036564722
0.00036342363
0.0003615044
0.0003588034
0.00035704145
0.00035541852
0.00035719004
0.0003584845
0.00035993046
0.00036169708
0.00036124036
0.00035906704
0.00035701449
0.00035504651
0.00035322453
0.00035163399
0.00035038622
0.00034957932
0.0003492798
0.00034954888
0.00035047917
0.00035223491
0.00035503842
0.0003590694
0.00036431635
0.00037041363
0.00037669881
0.00038250534
0.00038738909
0.00039116168
0.00039383424
0.00039554686
0.00039613455
0.0003946003
0.00039307655
0.00039197856
0.00039123627
0.00039081135
0.00039063883
0.00039165573
0.00039135989
0.00039158976
0.00037448288
0.00037338958
0.00037234811
0.00037127639
0.00037011823
0.00036885824
0.00036739188
0.00036588209
0.00036399275
0.00036235345
0.00036027579
0.00035887167
0.00035789077
0.00035888273
0.00035992728
0.00036118756
0.00036277545
0.0003620817
0.00036012915
0.0003583013
0.00035658512
0.0003550329
0.00035371794
0.00035272837
0.00035214563
0.00035203335
0.00035245437
0.00035349431
0.00035527799
0.00035795247
0.00036161019
0.00036618765
0.00037138542
0.00037672558
0.00038172679
0.00038604221
0.00038950013
0.00039207283
0.00039383512
0.00039491778
0.00039468652
0.00039329671
0.0003922706
0.00039155766
0.00039113004
0.00039093409
0.00039179111
0.00039147929
0.00039165076
0.00037422898
0.00037320813
0.00037221785
0.00037119318
0.0003700935
0.00036890936
0.00036757769
0.00036620396
0.00036460332
0.00036319302
0.00036157253
0.00036045191
0.00035981915
0.00036039266
0.00036123797
0.00036234273
0.00036376478
0.00036288614
0.00036114305
0.00035953137
0.00035805188
0.00035674753
0.00035568003
0.00035492107
0.00035453877
0.00035459166
0.00035513883
0.0003562535
0.0003580277
0.00036055387
0.00036386897
0.00036788893
0.00037237159
0.00037696343
0.00038130749
0.00038513152
0.0003882834
0.00039071869
0.00039247219
0.00039363078
0.0003942327
0.00039339785
0.00039246135
0.00039179557
0.00039138193
0.0003911772
0.00039189516
0.00039157919
0.00039170209
0.00037398448
0.00037304428
0.00037211851
0.00037115425
0.00037012416
0.00036902451
0.00036782075
0.0003665817
0.00036521956
0.0003640011
0.00036271538
0.0003618143
0.00036137355
0.00036172306
0.00036241098
0.00036337978
0.00036465103
0.00036364358
0.00036210559
0.00036070327
0.00035944615
0.00035837031
0.00035752725
0.00035697597
0.00035677359
0.00035697215
0.00035762387
0.00035878812
0.00036053023
0.00036290407
0.00036591275
0.00036946778
0.00037337345
0.00037736227
0.00038116362
0.00038456233
0.00038742628
0.00038970536
0.00039141067
0.00039259791
0.00039334565
0.00039338732
0.00039256548
0.00039195966
0.00039157289
0.00039137133
0.00039196985
0.00039166026
0.00039174395
0.00037374295
0.00037288671
0.00037203522
0.00037114227
0.00037019079
0.00036918182
0.00036809928
0.00036699027
0.00036582358
0.00036476825
0.00036372843
0.00036299382
0.00036266162
0.00036288662
0.00036344976
0.00036429669
0.00036542952
0.00036435185
0.00036301502
0.0003618154
0.00036076794
0.00035990387
0.00035926619
0.00035890354
0.00035886367
0.00035919135
0.00035993054
0.00036112724
0.00036282549
0.0003650525
0.00036779164
0.00037095771
0.00037439178
0.00037788737
0.00038123551
0.0003842648
0.00038686237
0.00038897766
0.00039060853
0.0003917896
0.00039257869
0.00039304179
0.00039259694
0.00039205961
0.00039170925
0.00039152026
0.0003919956
0.0003917235
0.00039177674
0.00037351858
0.00037275063
0.00037197809
0.00037116137
0.00037029164
0.00036937368
0.00036840302
0.00036741442
0.0003664069
0.00036548951
0.0003646308
0.00036402027
0.00036375065
0.00036389991
0.00036436152
0.00036509706
0.0003661007
0.00036501111
0.00036387023
0.00036286633
0.00036201729
0.00036135075
0.00036090265
0.00036071299
0.00036082121
0.00036126461
0.00036207858
0.00036329697
0.00036494725
0.00036703846
0.0003695431
0.00037238254
0.00037542673
0.0003785135
0.00038147903
0.0003841858
0.00038653854
0.00038848903
0.00039002848
0.00039117781
0.00039197923
0.00039248546
0.00039256251
0.00039210482
0.0003917975
0.00039162815
0.00039194793
0.00039177004
0.00039180093
0.00037331511
0.00037263423
0.00037194289
0.00037120523
0.00037041828
0.00036958957
0.0003687216
0.00036784215
0.00036696476
0.00036616281
0.00036543777
0.00036491779
0.00036468335
0.00036477918
0.00036515437
0.00036578614
0.00036664906
0.00036562125
0.0003646699
0.00036385448
0.00036319401
0.00036271308
0.00036244166
0.00036241238
0.0003626572
0.00036320611
0.00036408614
0.0003653206
0.00036692413
0.00036889356
0.0003711959
0.00037376007
0.00037647874
0.00037922267
0.0003818618
0.00038428518
0.00038641312
0.00038820162
0.00038963904
0.00039073773
0.00039152871
0.00039205433
0.00039235769
0.00039210422
0.00039184407
0.00039169935
0.00039187503
0.00039180107
0.00039181703
0.00037313523
0.00037254031
0.00037193022
0.00037127191
0.00037056651
0.00036982334
0.00036904887
0.00036826661
0.00036749599
0.00036678929
0.0003661627
0.00036570675
0.00036548916
0.00036554026
0.00036583768
0.00036637071
0.00036706686
0.0003661822
0.00036541322
0.00036477906
0.00036429856
0.00036399341
0.00036388839
0.00036400969
0.00036438245
0.0003650297
0.00036597067
0.00036721959
0.00036878128
0.00037064433
0.00037277344
0.00037510493
0.00037754942
0.00038000263
0.00038236033
0.00038453272
0.00038645369
0.00038808466
0.00038941336
0.00039044723
0.00039120965
0.00039173496