/*--------------------------------*- C++ -*----------------------------------*\
| =========                 |                                                 |
| \\      /  F ield         | foam-extend: Open Source CFD                    |
|  \\    /   O peration     | Version:     4.1                                |
|   \\  /    A nd           | Web:         http://www.foam-extend.org         |
|    \\/     M anipulation  |                                                 |
\*---------------------------------------------------------------------------*/
FoamFile
{
    version     2.0;
    format      ascii;
    class       volVectorField;
    location    "1";
    object      U;
}
// * * * * * * * * * * * * * * * * * * * * * * * * * * * * * * * * * * * * * //

dimensions      [0 1 -1 0 0 0 0];

internalField   nonuniform List<vector> 
4393
(
(146.39909 -0.047193232 0)
(146.52346 -0.060464752 0)
(146.66262 -0.071995459 0)
(146.83727 -0.084085569 0)
(147.0496 -0.097174629 0)
(147.30273 -0.11132173 0)
(147.59976 -0.1264531 0)
(147.94343 -0.14239894 0)
(148.33585 -0.15888509 0)
(148.77817 -0.1755187 0)
(149.2702 -0.19178125 0)
(149.81 -0.20703649 0)
(150.39359 -0.22056076 0)
(151.01471 -0.2315952 0)
(151.66483 -0.23942149 0)
(152.33336 -0.24344112 0)
(153.00816 -0.24324089 0)
(153.67617 -0.23862968 0)
(154.32412 -0.2296423 0)
(154.93909 -0.21649143 0)
(155.50908 -0.1995493 0)
(156.02346 -0.17926831 0)
(156.47242 -0.15605902 0)
(156.84842 -0.13086801 0)
(157.14669 -0.10372765 0)
(157.35871 -0.073733922 0)
(157.47742 -0.04147054 0)
(157.49736 -0.0080470067 0)
(157.41723 0.025667508 0)
(157.23747 0.058448635 0)
(156.96313 0.088950153 0)
(156.60301 0.11591751 0)
(156.16941 0.13828782 0)
(155.67735 0.15531141 0)
(155.14355 0.16663121 0)
(154.58508 0.17229204 0)
(154.01838 0.17269405 0)
(153.45831 0.16849616 0)
(152.91748 0.16051336 0)
(152.40545 0.14961411 0)
(151.93144 0.13664962 0)
(151.49771 0.12236294 0)
(151.11065 0.10747471 0)
(150.76893 0.092474314 0)
(150.48033 0.077817782 0)
(150.21041 0.063945741 0)
(150.05767 0.017332914 0)
(150.00911 0.0084436459 0)
(149.9663 -0.0027175208 0)
(149.7279 -0.070866528 0)
(149.77645 -0.10408793 0)
(149.84647 -0.13751183 0)
(149.95031 -0.17353145 0)
(150.09162 -0.21269791 0)
(150.27388 -0.25503748 0)
(150.50034 -0.30030492 0)
(150.77391 -0.34800056 0)
(151.09686 -0.39732479 0)
(151.47053 -0.44712883 0)
(151.8949 -0.49588908 0)
(152.36821 -0.5417261 0)
(152.88662 -0.58248989 0)
(153.44387 -0.61591267 0)
(154.03136 -0.63983443 0)
(154.63832 -0.65244329 0)
(155.25232 -0.65247487 0)
(155.85996 -0.63932691 0)
(156.44764 -0.6130716 0)
(157.00213 -0.57431634 0)
(157.51115 -0.5241402 0)
(157.9639 -0.46386226 0)
(158.35017 -0.39469323 0)
(158.66256 -0.31927425 0)
(158.89484 -0.23756977 0)
(159.03887 -0.14775652 0)
(159.08909 -0.051887405 0)
(159.03969 0.047232983 0)
(158.88931 0.14685452 0)
(158.63939 0.24355739 0)
(158.29474 0.33359209 0)
(157.86402 0.41327465 0)
(157.35946 0.47942596 0)
(156.79615 0.5297749 0)
(156.19098 0.56320875 0)
(155.56118 0.5798083 0)
(154.92329 0.58071153 0)
(154.29226 0.5678278 0)
(153.6807 0.54353139 0)
(153.09809 0.5103558 0)
(152.55354 0.47077841 0)
(152.0493 0.42695646 0)
(151.59153 0.3809436 0)
(151.1791 0.33418299 0)
(150.81922 0.28776531 0)
(150.47809 0.24278242 0)
(150.25307 0.098984768 0)
(150.13455 0.066505014 0)
(150.03071 0.02176949 0)
(149.91886 -0.086595183 0)
(149.95639 -0.13493191 0)
(150.01861 -0.18893757 0)
(150.11391 -0.24850178 0)
(150.24603 -0.31366934 0)
(150.41864 -0.38429009 0)
(150.63517 -0.4599316 0)
(150.89877 -0.53978094 0)
(151.21207 -0.62253068 0)
(151.57679 -0.70628035 0)
(151.99336 -0.78848232 0)
(152.46044 -0.86596444 0)
(152.97449 -0.93506737 0)
(153.52948 -0.99190468 0)
(154.11673 -1.0327552 0)
(154.72524 -1.054491 0)
(155.34218 -1.054932 0)
(155.95365 -1.0330509 0)
(156.54557 -0.98898849 0)
(157.10431 -0.92381496 0)
(157.61732 -0.8393797 0)
(158.0737 -0.73791805 0)
(158.46272 -0.62148468 0)
(158.77765 -0.49398646 0)
(159.0098 -0.35591372 0)
(159.15432 -0.20518982 0)
(159.20464 -0.044739616 0)
(159.15475 0.1212938 0)
(159.00246 0.28826274 0)
(158.74791 0.45052815 0)
(158.39563 0.60184368 0)
(157.95439 0.73591195 0)
(157.43698 0.8472514 0)
(156.85934 0.93194277 0)
(156.23935 0.98807935 0)
(155.59521 1.0158263 0)
(154.94428 1.0171674 0)
(154.30202 0.99539706 0)
(153.68133 0.95457876 0)
(153.09173 0.89901352 0)
(152.54216 0.83286955 0)
(152.0347 0.7597574 0)
(151.57511 0.68302455 0)
(151.16215 0.60511587 0)
(150.80224 0.52743304 0)
(150.46212 0.45164773 0)
(150.23709 0.21203711 0)
(150.12063 0.15562146 0)
(150.02514 0.071182775 0)
(149.9488 -0.10181211 0)
(149.97815 -0.16719211 0)
(150.03481 -0.24149939 0)
(150.12458 -0.32416608 0)
(150.25114 -0.4149747 0)
(150.41825 -0.51365863 0)
(150.62961 -0.61966103 0)
(150.88874 -0.73192822 0)
(151.19873 -0.84871214 0)
(151.56188 -0.96740702 0)
(151.97922 -1.0844509 0)
(152.44994 -1.1953377 0)
(152.97091 -1.2947972 0)
(153.5362 -1.3771694 0)
(154.13693 -1.4369896 0)
(154.7615 -1.4696473 0)
(155.39626 -1.4719332 0)
(156.02634 -1.4423538 0)
(156.63677 -1.3811453 0)
(157.21317 -1.2899188 0)
(157.74243 -1.1713718 0)
(158.2135 -1.0287048 0)
(158.61495 -0.86486219 0)
(158.94082 -0.68460124 0)
(159.18028 -0.48991157 0)
(159.33136 -0.27844691 0)
(159.38622 -0.05285307 0)
(159.33819 0.18129406 0)
(159.1841 0.41750907 0)
(158.92328 0.6476579 0)
(158.5599 0.86261275 0)
(158.10293 1.053109 0)
(157.56606 1.2110496 0)
(156.96661 1.3306642 0)
(156.32408 1.4092029 0)
(155.65822 1.4470134 0)
(154.98763 1.4471249 0)
(154.32862 1.4144627 0)
(153.69448 1.3550193 0)
(153.09478 1.2750658 0)
(152.53814 1.1806159 0)
(152.02637 1.0768517 0)
(151.56462 0.9684792 0)
(151.15133 0.85907894 0)
(150.79193 0.75025438 0)
(150.45393 0.64450119 0)
(150.22969 0.31243177 0)
(150.11444 0.23463918 0)
(150.02302 0.11384766 0)
(149.98105 -0.10831614 0)
(150.00076 -0.19186261 0)
(150.05048 -0.28688782 0)
(150.1335 -0.39283431 0)
(150.25336 -0.50944553 0)
(150.41394 -0.63645184 0)
(150.61924 -0.77326137 0)
(150.87324 -0.91866282 0)
(151.17969 -1.0705363 0)
(151.54161 -1.2256096 0)
(151.96085 -1.3792966 0)
(152.43736 -1.5256784 0)
(152.96855 -1.6577121 0)
(153.54865 -1.767729 0)
(154.16846 -1.8482514 0)
(154.81554 -1.8929527 0)
(155.47501 -1.8974536 0)
(156.13063 -1.8597762 0)
(156.7662 -1.7803452 0)
(157.36628 -1.661488 0)
(157.91711 -1.5069391 0)
(158.40745 -1.3210152 0)
(158.8253 -1.1076697 0)
(159.16552 -0.87232523 0)
(159.41553 -0.61910363 0)
(159.5758 -0.3454679 0)
(159.63748 -0.052833703 0)
(159.59257 0.25186662 0)
(159.43663 0.56043548 0)
(159.16765 0.86210785 0)
(158.78921 1.1444935 0)
(158.31058 1.3948317 0)
(157.7467 1.6019071 0)
(157.11692 1.7577672 0)
(156.44308 1.8587279 0)
(155.74719 1.9054543 0)
(155.04958 1.9023022 0)
(154.36772 1.8561617 0)
(153.71538 1.7752624 0)
(153.10214 1.6680797 0)
(152.53617 1.5426168 0)
(152.01881 1.4056894 0)
(151.55436 1.2633414 0)
(151.14076 1.1202999 0)
(150.78235 0.97815378 0)
(150.44753 0.84025263 0)
(150.22497 0.41534536 0)
(150.11078 0.31297709 0)
(150.02204 0.15391457 0)
(150.02482 -0.11180966 0)
(150.03316 -0.21400234 0)
(150.07439 -0.32994942 0)
(150.14903 -0.459239 0)
(150.26053 -0.60174539 0)
(150.41289 -0.75734467 0)
(150.61045 -0.92554866 0)
(150.8578 -1.1051198 0)
(151.15947 -1.2936767 0)
(151.51949 -1.4873503 0)
(151.94077 -1.6805316 0)
(152.42431 -1.8657935 0)
(152.96829 -2.0341013 0)
(153.56722 -2.1754434 0)
(154.21145 -2.2799338 0)
(154.88742 -2.3391819 0)
(155.57858 -2.3474234 0)
(156.26683 -2.302158 0)
(156.93424 -2.2041207 0)
(157.56408 -2.0565937 0)
(158.14177 -1.8646097 0)
(158.65595 -1.6338117 0)
(159.09421 -1.3692825 0)
(159.45227 -1.0769227 0)
(159.71624 -0.76349529 0)
(159.8885 -0.42634128 0)
(159.95973 -0.06439822 0)
(159.91973 0.31416683 0)
(159.76236 0.69947987 0)
(159.48362 1.0778442 0)
(159.08611 1.4330508 0)
(158.57941 1.7480821 0)
(157.9802 2.0078821 0)
(157.31066 2.2018568 0)
(156.5959 2.3253016 0)
(155.86097 2.3794485 0)
(155.12858 2.3704404 0)
(154.4176 2.3076578 0)
(153.74241 2.202042 0)
(153.11243 2.0646342 0)
(152.53517 1.9056575 0)
(152.01125 1.7336729 0)
(151.54384 1.5560661 0)
(151.13016 1.3787214 0)
(150.77321 1.2030058 0)
(150.44247 1.0330464 0)
(150.22197 0.51782363 0)
(150.10828 0.39007391 0)
(150.02151 0.19265114 0)
(150.08032 -0.10613386 0)
(150.07549 -0.22739371 0)
(150.10676 -0.36444244 0)
(150.17141 -0.51708598 0)
(150.2728 -0.68547725 0)
(150.41505 -0.86980479 0)
(150.60291 -1.0698581 0)
(150.84166 -1.284547 0)
(151.13685 -1.5113823 0)
(151.49377 -1.746004 0)
(151.91674 -1.981805 0)
(152.40815 -2.2097491 0)
(152.9673 -2.4185377 0)
(153.58913 -2.5953768 0)
(154.2635 -2.727431 0)
(154.97532 -2.8037735 0)
(155.70583 -2.8169742 0)
(156.4344 -2.763986 0)
(157.14087 -2.6460567 0)
(157.80681 -2.4677923 0)
(158.41674 -2.2359358 0)
(158.95924 -1.9577898 0)
(159.42187 -1.6397578 0)
(159.80122 -1.2880364 0)
(160.08261 -0.91240692 0)
(160.26979 -0.5103679 0)
(160.35384 -0.076748786 0)
(160.32119 0.37933954 0)
(160.16349 0.84657991 0)
(159.87375 1.3080385 0)
(159.45302 1.742915 0)
(158.91114 2.1288301 0)
(158.26709 2.4458207 0)
(157.54694 2.6799791 0)
(156.78027 2.8254599 0)
(155.99624 2.8844294 0)
(155.22059 2.8654679 0)
(154.47395 2.7811625 0)
(153.77125 2.6457886 0)
(153.1216 2.4734078 0)
(152.53149 2.2767386 0)
(152.00053 2.0662139 0)
(151.53041 1.8505756 0)
(151.11734 1.6368801 0)
(150.76285 1.4261232 0)
(150.43743 1.2231733 0)
(150.21964 0.61998544 0)
(150.1062 0.46604892 0)
(150.02114 0.23054142 0)
(150.14676 -0.095093947 0)
(150.12723 -0.23571823 0)
(150.14719 -0.39391007 0)
(150.20031 -0.56979414 0)
(150.28978 -0.76396314 0)
(150.41984 -0.97711312 0)
(150.5957 -1.2095258 0)
(150.82348 -1.4604825 0)
(151.10994 -1.7275927 0)
(151.46197 -2.0061601 0)
(151.8857 -2.2886365 0)
(152.3854 -2.5642756 0)
(152.96192 -2.8191771 0)
(153.61096 -3.0371791 0)
(154.32179 -3.2017387 0)
(155.07735 -3.2987324 0)
(155.85589 -3.318673 0)
(156.63346 -3.2579385 0)
(157.38693 -3.1185746 0)
(158.09576 -2.9070293 0)
(158.74344 -2.6323462 0)
(159.31869 -2.3039582 0)
(159.80959 -1.9298339 0)
(160.21365 -1.5162227 0)
(160.51615 -1.0760987 0)
(160.72138 -0.60772724 0)
(160.82227 -0.099692211 0)
(160.80037 0.43851322 0)
(160.64442 0.99445817 0)
(160.34307 1.5475938 0)
(159.8949 2.0714992 0)
(159.3098 2.5368659 0)
(158.60984 2.9172909 0)
(157.82637 3.1946111 0)
(156.99507 3.3617298 0)
(156.15052 3.4223369 0)
(155.32233 3.3884079 0)
(154.53317 3.2767338 0)
(153.79841 3.1057441 0)
(153.12648 2.8930778 0)
(152.52243 2.6542459 0)
(151.9844 2.4016504 0)
(151.51224 2.1453426 0)
(151.10088 1.8934756 0)
(150.75012 1.6464641 0)
(150.43148 1.4097931 0)
(150.21723 0.72161937 0)
(150.10409 0.5409022 0)
(150.0208 0.26773435 0)
(150.22384 -0.073540401 0)
(150.18829 -0.23395529 0)
(150.19574 -0.41336325 0)
(150.2358 -0.61231097 0)
(150.31146 -0.83201913 0)
(150.42702 -1.0739263 0)
(150.58818 -1.3390732 0)
(150.80203 -1.6274022 0)
(151.07682 -1.9369048 0)
(151.42135 -2.2627766 0)
(151.8441 -2.5966494 0)
(152.35185 -2.9259941 0)
(152.94764 -3.2339126 0)
(153.62837 -3.5001195 0)
(154.38272 -3.7033126 0)
(155.19104 -3.8252631 0)
(156.02759 -3.8539011 0)
(156.86402 -3.785019 0)
(157.67332 -3.6218728 0)
(158.43225 -3.3734945 0)
(159.12318 -3.0520931 0)
(159.73533 -2.6699172 0)
(160.25809 -2.2368331 0)
(160.6901 -1.758824 0)
(161.01759 -1.2519213 0)
(161.24424 -0.71626184 0)
(161.36692 -0.13148665 0)
(161.3605 0.49357228 0)
(161.20986 1.1460052 0)
(160.89729 1.8013253 0)
(160.4175 2.4261352 0)
(159.77999 2.9819497 0)
(159.01089 3.4336762 0)
(158.14887 3.7575484 0)
(157.23789 3.9451312 0)
(156.31971 4.0025637 0)
(155.42877 3.9466133 0)
(154.58998 3.7996513 0)
(153.81888 3.5853305 0)
(153.12267 3.3255458 0)
(152.50433 3.0389269 0)
(151.95995 2.7399165 0)
(151.48713 2.4397824 0)
(151.07914 2.1476298 0)
(150.73384 1.8630543 0)
(150.42376 1.5919659 0)
(150.21416 0.82236338 0)
(150.10166 0.61446583 0)
(150.02042 0.30420368 0)
(150.31088 -0.045814383 0)
(150.2582 -0.22600056 0)
(150.25219 -0.42612023 0)
(150.27784 -0.64734117 0)
(150.33777 -0.89174126 0)
(150.43631 -1.161778 0)
(150.57967 -1.45957 0)
(150.77601 -1.7860815 0)
(151.03532 -2.140059 0)
(151.36878 -2.5169133 0)
(151.7878 -2.9076659 0)
(152.30246 -3.2979889 0)
(152.91896 -3.6675325 0)
(153.6361 -3.9909148 0)
(154.44201 -4.2405841 0)
(155.31365 -4.3929432 0)
(156.21996 -4.4326154 0)
(157.12673 -4.3548154 0)
(158.00184 -4.1645769 0)
(158.8186 -3.8745495 0)
(159.5582 -3.5013563 0)
(160.21089 -3.0610456 0)
(160.7686 -2.5658125 0)
(161.23144 -2.0209528 0)
(161.58813 -1.4449123 0)
(161.83971 -0.84139454 0)
(161.99026 -0.17798823 0)
(162.00584 0.53905574 0)
(161.86615 1.2973275 0)
(161.54433 2.0682189 0)
(161.02893 2.809625 0)
(160.3283 3.4706548 0)
(159.47394 4.0041954 0)
(158.51465 4.3789374 0)
(157.50584 4.5851142 0)
(156.49874 4.632787 0)
(155.53373 4.5455597 0)
(154.63806 4.3532658 0)
(153.82682 4.0861393 0)
(153.10515 3.7711083 0)
(152.4731 3.4302245 0)
(151.92402 3.0799617 0)
(151.45271 2.7326154 0)
(151.05041 2.3979973 0)
(150.71283 2.0746115 0)
(150.41344 1.768546 0)
(150.20993 0.92167351 0)
(150.09868 0.68641003 0)
(150.01994 0.33980951 0)
(150.40746 -0.0044858268 0)
(150.33752 -0.20507833 0)
(150.31733 -0.4259228 0)
(150.32727 -0.6689592 0)
(150.36946 -0.93738018 0)
(150.44815 -1.2349886 0)
(150.57004 -1.5653662 0)
(150.74446 -1.9309505 0)
(150.98338 -2.3317454 0)
(151.30084 -2.7638375 0)
(151.71194 -3.2179972 0)
(152.23113 -3.6782042 0)
(152.869 -4.1201807 0)
(153.62743 -4.5122371 0)
(154.49418 -4.8184423 0)
(155.44172 -5.0080885 0)
(156.43182 -5.0615134 0)
(157.42249 -4.9734147 0)
(158.37485 -4.7513818 0)
(159.25773 -4.413118 0)
(160.05106 -3.9814827 0)
(160.74701 -3.4777617 0)
(161.34184 -2.9170277 0)
(161.83773 -2.3033793 0)
(162.22826 -1.6561153 0)
(162.50846 -0.98510151 0)
(162.69421 -0.24257114 0)
(162.74075 0.57121935 0)
(162.62066 1.4458445 0)
(162.29401 2.348835 0)
(161.73962 3.2272444 0)
(160.96322 4.0131017 0)
(160.00345 4.6422395 0)
(158.92348 5.0729594 0)
(157.79458 5.294394 0)
(156.6806 5.322896 0)
(155.62907 5.191918 0)
(154.66933 4.9413233 0)
(153.81499 4.6096214 0)
(153.06788 4.2296208 0)
(152.42399 3.8270167 0)
(151.87304 3.4201632 0)
(151.4064 3.0220499 0)
(151.01289 2.6428129 0)
(150.68584 2.279534 0)
(150.39971 1.938159 0)
(150.20405 1.0188058 0)
(150.09495 0.75625469 0)
(150.0193 0.37432451 0)
(150.51262 0.039485435 0)
(150.42517 -0.18073043 0)
(150.39055 -0.42074355 0)
(150.38385 -0.6835224 0)
(150.40642 -0.97368276 0)
(150.46231 -1.2967483 0)
(150.5586 -1.6582107 0)
(150.70585 -2.062523 0)
(150.91827 -2.5116022 0)
(151.21329 -3.0028451 0)
(151.61051 -3.5273343 0)
(152.13016 -4.0676626 0)
(152.78897 -4.5951627 0)
(153.59373 -5.0703681 0)
(154.53226 -5.445836 0)
(155.57099 -5.6813305 0)
(156.66203 -5.7515584 0)
(157.75291 -5.6508383 0)
(158.7959 -5.390327 0)
(159.75383 -4.9947288 0)
(160.60528 -4.4957922 0)
(161.34576 -3.9221506 0)
(161.97838 -3.2924111 0)
(162.50848 -2.6088824 0)
(162.93817 -1.8891796 0)
(163.25061 -1.1516015 0)
(163.48027 -0.33153445 0)
(163.56992 0.58290833 0)
(163.48227 1.5855188 0)
(163.15903 2.6411364 0)
(162.56359 3.6835108 0)
(161.69625 4.6208114 0)
(160.60532 5.3640358 0)
(159.37462 5.8568298 0)
(158.09791 6.0879551 0)
(156.85577 6.0839113 0)
(155.70414 5.8924609 0)
(154.67361 5.5669707 0)
(153.7746 5.1562741 0)
(153.0038 4.6998967 0)
(152.35162 4.2272137 0)
(151.80308 3.7580812 0)
(151.34544 3.3056477 0)
(150.96471 2.8798253 0)
(150.65167 2.4758694 0)
(150.38179 2.0991866 0)
(150.19608 1.1128089 0)
(150.0903 0.82337947 0)
(150.01846 0.40744705 0)
(150.62681 0.10210525 0)
(150.52332 -0.13839412 0)
(150.47446 -0.39714427 0)
(150.45031 -0.67844673 0)
(150.45129 -0.98867846 0)
(150.48102 -1.3355032 0)
(150.54686 -1.7268368 0)
(150.66049 -2.169787 0)
(150.83861 -2.6690491 0)
(151.10258 -3.2242069 0)
(151.47745 -3.8275315 0)
(151.99095 -4.460878 0)
(152.66838 -5.0908436 0)
(153.52438 -5.6685333 0)
(154.54765 -6.1302645 0)
(155.69641 -6.4229577 0)
(156.90953 -6.51385 0)
(158.1206 -6.3971805 0)
(159.2701 -6.0889526 0)
(160.31273 -5.6234932 0)
(161.22548 -5.0453671 0)
(162.00945 -4.3937543 0)
(162.67817 -3.6915231 0)
(163.24165 -2.939095 0)
(163.71719 -2.1464089 0)
(164.06563 -1.3444487 0)
(164.34876 -0.45223507 0)
(164.49779 0.56485064 0)
(164.46137 1.70763 0)
(164.15569 2.9410316 0)
(163.51965 4.183136 0)
(162.54305 5.3084996 0)
(161.28718 6.190939 0)
(159.86639 6.752833 0)
(158.40678 6.9843783 0)
(157.01125 6.9285725 0)
(155.74505 6.6541232 0)
(154.63818 6.2325382 0)
(153.69509 5.7253335 0)
(152.90475 5.179416 0)
(152.25001 4.6275288 0)
(151.70996 4.0903012 0)
(151.26701 3.5802284 0)
(150.90402 3.1062472 0)
(150.60915 2.6612948 0)
(150.35893 2.2497641 0)
(150.18561 1.2025271 0)
(150.08455 0.88703449 0)
(150.0174 0.43881039 0)
(150.74805 0.15945215 0)
(150.63028 -0.10012377 0)
(150.56812 -0.37503388 0)
(150.52637 -0.67135252 0)
(150.50415 -0.99757863 0)
(150.50439 -1.3639658 0)
(150.53451 -1.7814296 0)
(150.60713 -2.260446 0)
(150.74147 -2.809605 0)
(150.96339 -3.4318631 0)
(151.30445 -4.1219897 0)
(151.802 -4.8622839 0)
(152.49314 -5.6145126 0)
(153.40508 -6.3187793 0)
(154.529 -6.8877868 0)
(155.81161 -7.2511818 0)
(157.17363 -7.366236 0)
(158.52995 -7.2277642 0)
(159.80551 -6.8581568 0)
(160.94356 -6.3048107 0)
(161.91896 -5.6309192 0)
(162.74191 -4.891065 0)
(163.44124 -4.1129424 0)
(164.03486 -3.2953336 0)
(164.55942 -2.4322522 0)
(164.95435 -1.5680297 0)
(165.3001 -0.61352574 0)
(165.53023 0.50479762 0)
(165.57003 1.7990732 0)
(165.30505 3.2403151 0)
(164.63361 4.7298681 0)
(163.52542 6.0947471 0)
(162.05917 7.1513612 0)
(160.39544 7.7900942 0)
(158.70794 8.0067229 0)
(157.12914 7.8713377 0)
(155.73367 7.4834858 0)
(154.54723 6.9388643 0)
(153.56395 6.3141599 0)
(152.76147 5.6638617 0)
(152.1127 5.0231723 0)
(151.58934 4.4122552 0)
(151.16832 3.8417799 0)
(150.8291 3.3187227 0)
(150.55723 2.8331144 0)
(150.33049 2.3877937 0)
(150.17228 1.2866137 0)
(150.07759 0.94635511 0)
(150.01607 0.46799202 0)
(150.87649 0.24473665 0)
(150.74959 -0.032962248 0)
(150.67594 -0.32202745 0)
(150.6169 -0.63029994 0)
(150.57006 -0.96870191 0)
(150.53732 -1.3505151 0)
(150.52582 -1.7902791 0)
(150.54871 -2.302576 0)
(150.62761 -2.9013168 0)
(150.79333 -3.5944357 0)
(151.08493 -4.3811617 0)
(151.552 -5.2462719 0)
(152.24759 -6.1470829 0)
(153.21919 -7.0119138 0)
(154.46329 -7.717929 0)
(155.90993 -8.1718543 0)
(157.45477 -8.3175144 0)
(158.9878 -8.1514522 0)
(160.41352 -7.7038956 0)
(161.65863 -7.0395213 0)
(162.69466 -6.2486159 0)
(163.54654 -5.4085854 0)
(164.26522 -4.5523047 0)
(164.8831 -3.6753735 0)
(165.45383 -2.7522131 0)
(165.91248 -1.8296408 0)
(166.33108 -0.82566995 0)
(166.6698 0.38678855 0)
(166.82165 1.8407575 0)
(166.63417 3.5242607 0)
(165.94135 5.3251624 0)
(164.67462 7.0036044 0)
(162.93506 8.2844378 0)
(160.9556 9.007586 0)
(158.98173 9.1838643 0)
(157.18473 8.9282882 0)
(155.64638 8.3859618 0)
(154.38129 7.6843345 0)
(153.36659 6.9174299 0)
(152.56381 6.146557 0)
(151.933 5.4075146 0)
(151.43703 4.7180513 0)
(151.04685 4.0853935 0)
(150.73846 3.5133216 0)
(150.49506 2.9882825 0)
(150.29597 2.5109777 0)
(150.15581 1.3635593 0)
(150.06933 1.0003835 0)
(150.01446 0.49452562 0)
(151.01648 0.29396684 0)
(150.88177 2.5524616e-05 0)
(150.79892 -0.29886598 0)
(150.72355 -0.61341251 0)
(150.65106 -0.95735899 0)
(150.58188 -1.347421 0)
(150.52244 -1.8024335 0)
(150.48559 -2.3417645 0)
(150.49491 -2.9863846 0)
(150.58638 -3.7513013 0)
(150.8074 -4.642993 0)
(151.22297 -5.6519868 0)
(151.90689 -6.732101 0)
(152.93983 -7.8013116 0)
(154.32846 -8.680796 0)
(155.97786 -9.2475892 0)
(157.74911 -9.4268667 0)
(159.49935 -9.219303 0)
(161.1065 -8.6641566 0)
(162.47262 -7.8489924 0)
(163.56318 -6.9042007 0)
(164.42654 -5.942975 0)
(165.14688 -5.0037459 0)
(165.77903 -4.074437 0)
(166.39235 -3.1088635 0)
(166.93155 -2.1381497 0)
(167.43696 -1.1025193 0)
(167.91663 0.1887822 0)
(168.23035 1.805126 0)
(168.17765 3.7684049 0)
(167.49382 5.9658667 0)
(166.03681 8.066744 0)
(163.93404 9.6457978 0)
(161.53561 10.458358 0)
(159.19871 10.551989 0)
(157.14375 10.116522 0)
(155.45261 9.3643444 0)
(154.11677 8.4634321 0)
(153.08653 7.5260515 0)
(152.30107 6.6177922 0)
(151.70437 5.7717372 0)
(151.24927 5.0003354 0)
(150.90055 4.3052444 0)
(150.63107 3.6855766 0)
(150.42212 3.1234604 0)
(150.25508 2.6168764 0)
(150.13604 1.4317356 0)
(150.0597 1.0480991 0)
(150.01255 0.51791685 0)
(151.15715 0.41221931 0)
(151.02803 0.10319064 0)
(150.94055 -0.20204951 0)
(150.85093 -0.51764223 0)
(150.75262 -0.86029537 0)
(150.64398 -1.2503328 0)
(150.53026 -1.7115697 0)
(150.42284 -2.2685815 0)
(150.34612 -2.9514904 0)
(150.34117 -3.7851673 0)
(150.46414 -4.7875376 0)
(150.79905 -5.9602977 0)
(151.44547 -7.255578 0)
(152.53902 -8.5888233 0)
(154.10478 -9.6902579 0)
(156.00883 -10.402254 0)
(158.06455 -10.624542 0)
(160.08585 -10.366879 0)
(161.91636 -9.6773498 0)
(163.42046 -8.6716614 0)
(164.55151 -7.5383967 0)
(165.39487 -6.4470196 0)
(166.08674 -5.4381027 0)
(166.71342 -4.4805987 0)
(167.36226 -3.5064224 0)
(168.00097 -2.5111215 0)
(168.61123 -1.4618433 0)
(169.26908 -0.11516302 0)
(169.80979 1.6580245 0)
(169.97887 3.9348362 0)
(169.36344 6.6375584 0)
(167.68181 9.3232742 0)
(165.08339 11.316028 0)
(162.11505 12.21565 0)
(159.31431 12.156396 0)
(156.95855 11.452698 0)
(155.11309 10.416373 0)
(153.7257 9.2646231 0)
(152.7058 8.1257628 0)
(151.96266 7.0640709 0)
(151.4211 6.104521 0)
(151.02326 5.2502306 0)
(150.72823 4.494649 0)
(150.50652 3.8305812 0)
(150.33835 3.235117 0)
(150.20778 2.7029951 0)
(150.11295 1.4894588 0)
(150.04873 1.0884599 0)
(150.01035 0.53766386 0)
(151.31553 0.43506145 0)
(151.19917 0.11783606 0)
(151.11181 -0.18700439 0)
(151.0109 -0.49626444 0)
(150.8875 -0.82958246 0)
(150.73705 -1.2108188 0)
(150.56307 -1.669396 0)
(150.3736 -2.2352531 0)
(150.19174 -2.9497781 0)
(150.06267 -3.8513005 0)
(150.05079 -4.9749143 0)
(150.26353 -6.3423239 0)
(150.82885 -7.9060142 0)
(151.97436 -9.5994122 0)
(153.7568 -10.996125 0)
(155.97864 -11.902987 0)
(158.38928 -12.179758 0)
(160.74721 -11.852972 0)
(162.85405 -10.974011 0)
(164.51602 -9.6964738 0)
(165.66181 -8.290092 0)
(166.43598 -7.0199373 0)
(167.05888 -5.9248045 0)
(167.65583 -4.9357435 0)
(168.32905 -3.9732322 0)
(169.10334 -2.9621133 0)
(169.8489 -1.9170603 0)
(170.72036 -0.55003691 0)
(171.56613 1.3518149 0)
(172.08203 3.9541918 0)
(171.6472 7.2929851 0)
(169.71592 10.816107 0)
(166.42371 13.422313 0)
(162.6571 14.386035 0)
(159.26045 14.054313 0)
(156.56271 12.949826 0)
(154.57803 11.53062 0)
(153.17598 10.06731 0)
(152.20603 8.6954032 0)
(151.53926 7.467354 0)
(151.07917 6.3918552 0)
(150.75777 5.4574128 0)
(150.52993 4.6462335 0)
(150.36529 3.9431676 0)
(150.24426 3.3196811 0)
(150.15441 2.7669025 0)
(150.08668 1.5350717 0)
(150.03651 1.1204529 0)
(150.00786 0.55328233 0)
(151.47144 0.52831439 0)
(151.37491 0.20766338 0)
(151.29325 -0.087294002 0)
(151.18467 -0.37793047 0)
(151.03755 -0.68673754 0)
(150.8434 -1.0403737 0)
(150.60344 -1.4748821 0)
(150.32002 -2.024674 0)
(150.01135 -2.7444565 0)
(149.72466 -3.6897575 0)
(149.53023 -4.92058 0)
(149.56449 -6.4925022 0)
(149.97989 -8.3584574 0)
(151.16197 -10.517634 0)
(153.22073 -12.268663 0)
(155.85158 -13.402767 0)
(158.72037 -13.7232 0)
(161.51439 -13.289995 0)
(163.9813 -12.150429 0)
(165.83716 -10.496267 0)
(166.96152 -8.7180852 0)
(167.58912 -7.2486509 0)
(168.08095 -6.1142062 0)
(168.60251 -5.1643457 0)
(169.26776 -4.3254743 0)
(170.18759 -3.4217521 0)
(171.13007 -2.4680477 0)
(172.23303 -1.1781382 0)
(173.46671 0.79859608 0)
(174.49399 3.7197395 0)
(174.45298 7.8638539 0)
(172.29729 12.630068 0)
(168.01392 16.191477 0)
(163.08884 17.131359 0)
(158.92968 16.313124 0)
(155.86306 14.608802 0)
(153.78563 12.679495 0)
(152.43275 10.837647 0)
(151.57046 9.2049693 0)
(151.02454 7.8044758 0)
(150.67747 6.6171075 0)
(150.45388 5.610411 0)
(150.30736 4.752261 0)
(150.209 4.0181834 0)
(150.14106 3.3737523 0)
(150.0957 2.8063815 0)
(150.05761 1.5670444 0)
(150.0232 1.1431553 0)
(150.00514 0.56433448 0)
(151.59636 0.55641783 0)
(151.54404 0.23614128 0)
(151.47705 -0.04381587 0)
(151.3664 -0.31071623 0)
(151.19913 -0.5898509 0)
(150.96104 -0.90945327 0)
(150.6506 -1.311671 0)
(150.2616 -1.834362 0)
(149.80154 -2.5460257 0)
(149.31547 -3.5256672 0)
(148.87361 -4.8670473 0)
(148.64966 -6.6885109 0)
(148.79925 -8.9416433 0)
(149.97994 -11.799656 0)
(152.38559 -14.058317 0)
(155.52202 -15.55788 0)
(158.95703 -16.000297 0)
(162.28943 -15.507117 0)
(165.21009 -14.078203 0)
(167.29166 -11.973318 0)
(168.3071 -9.7126898 0)
(168.63554 -8.0311026 0)
(168.88441 -6.9359127 0)
(169.25001 -6.0426829 0)
(169.85348 -5.3463614 0)
(170.90363 -4.5552167 0)
(172.14619 -3.5680397 0)
(173.56249 -2.1983142 0)
(175.29841 -0.0055175432 0)
(177.09184 3.2754403 0)
(177.82145 8.3107355 0)
(175.58087 14.761997 0)
(169.88157 19.967501 0)
(163.24625 20.618014 0)
(158.1473 18.987028 0)
(154.73152 16.403084 0)
(152.66325 13.809632 0)
(151.46205 11.523501 0)
(150.78744 9.6138068 0)
(150.41765 8.0470475 0)
(150.21933 6.7615599 0)
(150.11585 5.6972363 0)
(150.06432 4.8051568 0)
(150.04055 4.0508777 0)
(150.03075 3.3943671 0)
(150.03283 2.8196063 0)
(150.02631 1.584088 0)
(150.00905 1.1558006 0)
(150.00222 0.57046038 0)
(151.46369 0.58837553 0)
(151.47722 0.28346325 0)
(151.43245 0.030447447 0)
(151.32386 -0.1987672 0)
(151.13832 -0.43152151 0)
(150.85504 -0.69311909 0)
(150.46915 -1.0313659 0)
(149.96256 -1.4848924 0)
(149.32249 -2.1343437 0)
(148.58499 -3.0823631 0)
(147.80466 -4.4770546 0)
(147.20302 -6.52921 0)
(146.88022 -9.1797711 0)
(147.97723 -12.960973 0)
(150.81899 -15.758401 0)
(154.57411 -17.610467 0)
(158.71397 -18.070426 0)
(162.73415 -17.32966 0)
(166.24295 -15.324497 0)
(168.60381 -12.416471 0)
(169.39222 -9.2525007 0)
(169.17756 -7.1029958 0)
(169.05959 -5.7290831 0)
(169.22108 -4.7855871 0)
(169.71836 -4.3244077 0)
(170.92113 -3.8398017 0)
(172.58853 -3.104268 0)
(174.40578 -2.0392187 0)
(176.62369 -0.23644837 0)
(179.30814 2.3631769 0)
(181.23522 7.872151 0)
(179.42247 16.72666 0)
(171.92309 24.965199 0)
(162.75574 24.952605 0)
(156.67371 22.11875 0)
(153.0074 18.277484 0)
(151.13296 14.831205 0)
(150.23729 12.048376 0)
(149.85571 9.8693809 0)
(149.72659 8.1623405 0)
(149.71429 6.8056937 0)
(149.75189 5.7064503 0)
(149.80701 4.7982591 0)
(149.86428 4.037391 0)
(149.91613 3.3793087 0)
(149.9674 2.8053344 0)
(149.9936 1.5852727 0)
(149.99441 1.1578463 0)
(149.99918 0.57140927 0)
(150.62477 0.50356155 0)
(150.71307 0.25145107 0)
(150.69904 0.060650642 0)
(150.59918 -0.097205578 0)
(150.40111 -0.24966732 0)
(150.07461 -0.41977369 0)
(149.60985 -0.66612801 0)
(148.9738 -1.0240856 0)
(148.12307 -1.5819759 0)
(147.06503 -2.4909826 0)
(145.81503 -3.906642 0)
(144.66634 -6.2343677 0)
(143.53482 -9.3816255 0)
(144.41084 -14.685024 0)
(147.80281 -18.276524 0)
(152.25713 -20.74982 0)
(157.23027 -21.413512 0)
(162.08163 -20.72025 0)
(166.30956 -18.397653 0)
(168.95932 -14.453001 0)
(169.25915 -10.195885 0)
(168.18336 -7.9400917 0)
(167.38093 -8.3475476 0)
(166.86447 -8.5045804 0)
(166.8656 -8.8531691 0)
(167.92871 -9.0187743 0)
(169.83977 -8.7929961 0)
(171.9737 -7.9974955 0)
(174.3031 -5.7590545 0)
(178.21947 -1.816056 0)
(182.8909 6.050725 0)
(183.06472 17.925914 0)
(173.35642 32.565415 0)
(161.00884 30.802338 0)
(154.18289 25.929802 0)
(150.48313 20.118777 0)
(149.10844 15.584337 0)
(148.74864 12.300644 0)
(148.79241 9.907662 0)
(148.97237 8.1160926 0)
(149.17976 6.7315947 0)
(149.37467 5.628754 0)
(149.5441 4.7267775 0)
(149.68585 3.9753149 0)
(149.80075 3.3274304 0)
(149.90142 2.7630931 0)
(149.96044 1.5701386 0)
(149.97969 1.1490351 0)
(149.99612 0.56706734 0)
(147.77621 0.42780969 0)
(147.9748 0.18086223 0)
(148.00381 0.014085315 0)
(147.91761 -0.10789083 0)
(147.7045 -0.21501692 0)
(147.31745 -0.31827078 0)
(146.743 -0.45958569 0)
(145.93448 -0.67271943 0)
(144.78306 -1.0474933 0)
(143.28773 -1.7026939 0)
(141.35706 -2.9313973 0)
(139.34604 -5.3540362 0)
(136.6857 -8.9068421 0)
(136.9514 -15.946136 0)
(140.95623 -20.332926 0)
(146.06286 -23.46566 0)
(151.79218 -24.670354 0)
(157.3759 -23.755116 0)
(162.59158 -19.563894 0)
(165.58138 -15.328235 0)
(164.49695 -10.125447 0)
(160.39575 -7.4607875 0)
(157.90545 -4.5252317 0)
(157.33002 -2.1031389 0)
(156.96421 -1.1562038 0)
(157.799 -0.18762855 0)
(159.82432 -0.43721868 0)
(162.7085 0.27012797 0)
(165.89808 1.9250341 0)
(172.19692 5.2299657 0)
(180.29264 11.201246 0)
(183.86837 22.10207 0)
(171.97793 46.848655 0)
(155.72341 41.082934 0)
(149.712 30.282323 0)
(146.73712 21.397982 0)
(146.5031 15.745168 0)
(147.03067 12.126568 0)
(147.64756 9.6610755 0)
(148.19386 7.8791462 0)
(148.64206 6.5268221 0)
(149.00123 5.4590367 0)
(149.28641 4.5888535 0)
(149.51201 3.8642419 0)
(149.68865 3.2389443 0)
(149.83712 2.6933327 0)
(149.92795 1.5387822 0)
(149.96533 1.129442 0)
(149.99312 0.55747879 0)
(141.84704 0.48052525 0)
(142.29752 0.37787525 0)
(142.41498 0.3468292 0)
(142.3651 0.36548025 0)
(142.16003 0.40354534 0)
(141.75041 0.47179318 0)
(141.10834 0.51767711 0)
(140.15736 0.51043869 0)
(138.76433 0.45453779 0)
(136.79957 0.082426498 0)
(133.98286 -0.79001354 0)
(130.79852 -3.2485124 0)
(125.93883 -7.4839742 0)
(125.21718 -19.77136 0)
(129.8618 -24.623419 0)
(135.35769 -27.536238 0)
(142.26508 -28.142025 0)
(150.21091 -27.191469 0)
(156.33334 -25.740312 0)
(158.44987 -16.20908 0)
(156.37641 -4.129504 0)
(152.97912 2.4280184 0)
(144.17127 -1.146086 0)
(142.67597 -5.2398948 0)
(141.59409 -8.6311432 0)
(141.01671 -13.713799 1.4324677e-17)
(145.06656 -14.945436 4.328924e-19)
(148.04517 -15.889078 0)
(149.41884 -8.039169 1.4802893e-17)
(146.50301 -16.268101 -1.0322454e-17)
(160.73904 -10.76958 5.7868007e-18)
(176.74574 6.4432978 -1.2048452e-17)
(161.41597 65.837598 1.0668685e-17)
(140.5314 50.873507 0)
(139.73774 31.860468 0)
(141.3195 20.671433 0)
(143.45357 14.849236 0)
(145.24287 11.381882 0)
(146.52234 9.0852902 0)
(147.44952 7.4390904 0)
(148.13504 6.1893144 0)
(148.65157 5.1984725 0)
(149.04594 4.3864811 0)
(149.34997 3.7061816 0)
(149.58409 3.1156134 0)
(149.77687 2.5975153 0)
(149.89727 1.4919041 0)
(149.95181 1.0994998 0)
(149.9903 0.54285646 0)
(129.02405 -0.30190193 0)
(129.59045 -0.28741573 0)