/*--------------------------------*- C++ -*----------------------------------*\
| =========                 |                                                 |
| \\      /  F ield         | foam-extend: Open Source CFD                    |
|  \\    /   O peration     | Version:     4.1                                |
|   \\  /    A nd           | Web:         http://www.foam-extend.org         |
|    \\/     M anipulation  |                                                 |
\*---------------------------------------------------------------------------*/
FoamFile
{
    version     2.0;
    format      ascii;
    class       volVectorField;
    location    "1";
    object      U;
}
// * * * * * * * * * * * * * * * * * * * * * * * * * * * * * * * * * * * * * //

dimensions      [0 1 -1 0 0 0 0];

internalField   nonuniform List<vector> 
4393
(
(146.04892 -0.15650269 0)
(146.59751 -0.16293666 0)
(147.01181 -0.16595076 0)
(147.45303 -0.16960148 0)
(147.90408 -0.17400932 0)
(148.36987 -0.17925976 0)
(148.85261 -0.18527464 0)
(149.35445 -0.19190768 0)
(149.87699 -0.19895324 0)
(150.42114 -0.2061483 0)
(150.98694 -0.21317263 0)
(151.57338 -0.21965208 0)
(152.17825 -0.22516727 0)
(152.79805 -0.22926953 0)
(153.42787 -0.23150393 0)
(154.06148 -0.23143718 0)
(154.69139 -0.22868522 0)
(155.30904 -0.22293469 0)
(155.90508 -0.21395399 0)
(156.46956 -0.20159339 0)
(156.9922 -0.18577819 0)
(157.46261 -0.16650082 0)
(157.87045 -0.14381857 0)
(158.20562 -0.1178619 0)
(158.45859 -0.088857063 0)
(158.62064 -0.057159584 0)
(158.68447 -0.023276129 0)
(158.64487 0.012126468 0)
(158.49852 0.0479731 0)
(158.24627 0.082848601 0)
(157.8931 0.11530683 0)
(157.44834 0.14393686 0)
(156.92536 0.16751031 0)
(156.3408 0.18513442 0)
(155.71332 0.19635072 0)
(155.06229 0.20115467 0)
(154.40645 0.19994185 0)
(153.76286 0.19340519 0)
(153.14622 0.18241398 0)
(152.56854 0.16790026 0)
(152.03911 0.15076864 0)
(151.56467 0.13183497 0)
(151.14977 0.11179325 0)
(150.79719 0.091217102 0)
(150.50827 0.070610685 0)
(150.28348 0.050432391 0)
(150.12222 0.030837408 0)
(150.02092 0.011723035 0)
(149.97389 -0.0031700421 0)
(149.47196 -0.39491387 0)
(149.94135 -0.40586541 0)
(150.28759 -0.41396509 0)
(150.65758 -0.42450713 0)
(151.03722 -0.43760681 0)
(151.43149 -0.45329999 0)
(151.84275 -0.47131647 0)
(152.27327 -0.49121082 0)
(152.72471 -0.51237069 0)
(153.19808 -0.53401506 0)
(153.69348 -0.55519215 0)
(154.20999 -0.57478742 0)
(154.74548 -0.5915482 0)
(155.29645 -0.60413022 0)
(155.85801 -0.61116625 0)
(156.42389 -0.61135028 0)
(156.98652 -0.60352183 0)
(157.53726 -0.58673202 0)
(158.06664 -0.5602779 0)
(158.5646 -0.52370354 0)
(159.02077 -0.4767795 0)
(159.42464 -0.41947991 0)
(159.76577 -0.35197744 0)
(160.03396 -0.27467222 0)
(160.21948 -0.18826583 0)
(160.31344 -0.093877211 0)
(160.30828 0.006844855 0)
(160.19842 0.11165806 0)
(159.98171 0.21748479 0)
(159.65887 0.32051285 0)
(159.23465 0.41654719 0)
(158.71823 0.50139231 0)
(158.12299 0.57135767 0)
(157.46572 0.62373604 0)
(156.76534 0.65710859 0)
(156.04146 0.67140816 0)
(155.31301 0.66775943 0)
(154.59716 0.64817225 0)
(153.90861 0.6151804 0)
(153.25934 0.57150245 0)
(152.65849 0.51977155 0)
(152.11271 0.46234995 0)
(151.62645 0.40122556 0)
(151.20242 0.33800136 0)
(150.84201 0.27399584 0)
(150.54554 0.21026742 0)
(150.31218 0.14710511 0)
(150.14086 0.084344744 0)
(150.03531 0.028580501 0)
(149.73741 -0.62939218 0)
(150.19161 -0.63856904 0)
(150.52689 -0.65071868 0)
(150.88503 -0.6677094 0)
(151.25285 -0.68938995 0)
(151.63543 -0.71553813 0)
(152.03527 -0.74564435 0)
(152.45474 -0.77894985 0)
(152.89564 -0.81443249 0)
(153.35912 -0.85079078 0)
(153.84545 -0.88643488 0)
(154.35386 -0.91949655 0)
(154.88236 -0.94786842 0)
(155.42757 -0.96928134 0)
(155.98467 -0.98142188 0)
(156.54737 -0.98207863 0)
(157.10805 -0.96929044 0)
(157.65797 -0.9414621 0)
(158.18753 -0.89742234 0)
(158.6866 -0.83642058 0)
(159.14471 -0.75808401 0)
(159.55125 -0.66237004 0)
(159.8957 -0.54955112 0)
(160.16765 -0.42026106 0)
(160.35712 -0.27562221 0)
(160.4548 -0.11745668 0)
(160.45262 0.051462932 0)
(160.34436 0.22725247 0)
(160.12639 0.40485429 0)
(159.79876 0.57802824 0)
(159.36597 0.73967503 0)
(158.8374 0.88259776 0)
(158.22711 1.0004388 0)
(157.5529 1.0885448 0)
(156.83491 1.1445102 0)
(156.09387 1.1682787 0)
(155.34966 1.1618464 0)
(154.62009 1.1287102 0)
(153.92019 1.0732309 0)
(153.26196 1.0000453 0)
(152.6544 0.91360533 0)
(152.10385 0.81786888 0)
(151.61442 0.71613299 0)
(151.18849 0.61100811 0)
(150.82718 0.50451193 0)
(150.53034 0.39807247 0)
(150.29671 0.29220424 0)
(150.12702 0.18720511 0)
(150.02928 0.08741368 0)
(149.82995 -0.85840759 0)
(150.27621 -0.86818462 0)
(150.6069 -0.88443306 0)
(150.96022 -0.90797434 0)
(151.32347 -0.93842006 0)
(151.70182 -0.9753196 0)
(152.09797 -1.0179301 0)
(152.51447 -1.0651949 0)
(152.95337 -1.1157007 0)
(153.41602 -1.1676418 0)
(153.90294 -1.2187982 0)
(154.41358 -1.2665432 0)
(154.94611 -1.3078925 0)
(155.49727 -1.3396121 0)
(156.06221 -1.3583876 0)
(156.63451 -1.3610422 0)
(157.20631 -1.344762 0)
(157.76853 -1.3072711 0)
(158.31126 -1.2469158 0)
(158.82402 -1.1626499 0)
(159.29606 -1.0539562 0)
(159.71651 -0.92075918 0)
(160.07455 -0.7633869 0)
(160.35946 -0.58262706 0)
(160.56075 -0.37990547 0)
(160.66845 -0.15759512 0)
(160.67362 0.080593691 0)
(160.56907 0.32929656 0)
(160.35012 0.58129733 0)
(160.016 0.82757751 0)
(159.57082 1.0577938 0)
(159.02427 1.2613657 0)
(158.39144 1.4289094 0)
(157.69177 1.5535874 0)
(156.94727 1.6319454 0)
(156.18052 1.664045 0)
(155.41285 1.6529762 0)
(154.66303 1.6039943 0)
(153.94657 1.5235504 0)
(153.2755 1.4184189 0)
(152.65854 1.2950341 0)
(152.10158 1.1590606 0)
(151.60818 1.0151816 0)
(151.1802 0.86707228 0)
(150.81825 0.71749186 0)
(150.52164 0.56832231 0)
(150.28881 0.420592 0)
(150.12121 0.27534722 0)
(150.02715 0.13502545 0)
(149.93893 -1.0819476 0)
(150.37712 -1.0932695 0)
(150.70248 -1.1137367 0)
(151.05043 -1.1439453 0)
(151.40866 -1.1833358 0)
(151.78248 -1.2312686 0)
(152.1748 -1.2867806 0)
(152.58843 -1.3485273 0)
(153.02569 -1.4147119 0)
(153.48825 -1.4830252 0)
(153.97696 -1.5506066 0)
(154.49155 -1.6140425 0)
(155.03044 -1.6694222 0)
(155.59049 -1.712474 0)
(156.16684 -1.7387936 0)
(156.75286 -1.7441493 0)
(157.34034 -1.7248049 0)
(157.91976 -1.6777721 0)
(158.4807 -1.6009241 0)
(159.01224 -1.492958 0)
(159.50326 -1.3532581 0)
(159.94258 -1.1817457 0)
(160.31904 -0.97879939 0)
(160.62153 -0.74531246 0)
(160.83896 -0.48292605 0)
(160.96047 -0.19445202 0)
(160.97601 0.11557265 0)
(160.87699 0.44040771 0)
(160.65724 0.77075328 0)
(160.31471 1.094634 0)
(159.85286 1.3980344 0)
(159.28172 1.6664129 0)
(158.61786 1.8868002 0)
(157.88306 2.0498059 0)
(157.10209 2.1508373 0)
(156.30009 2.1902433 0)
(155.50046 2.1725436 0)
(154.72326 2.1051432 0)
(153.98459 1.9969395 0)
(153.29645 1.8571144 0)
(152.66713 1.6942471 0)
(152.10183 1.5157715 0)
(151.60332 1.327733 0)
(151.17272 1.1347773 0)
(150.80994 0.94026361 0)
(150.51371 0.74638608 0)
(150.28219 0.55444121 0)
(150.11706 0.3656168 0)
(150.02586 0.18119216 0)
(150.07651 -1.3029478 0)
(150.50473 -1.3163066 0)
(150.82326 -1.3411794 0)
(151.16439 -1.3782777 0)
(151.51626 -1.4269373 0)
(151.88434 -1.4863865 0)
(152.27177 -1.555481 0)
(152.68168 -1.6326224 0)
(153.11674 -1.7156583 0)
(153.57904 -1.8017936 0)
(154.06983 -1.8875262 0)
(154.58926 -1.9686287 0)
(155.13607 -2.0402032 0)
(155.70733 -2.0968421 0)
(156.29814 -2.132922 0)
(156.90165 -2.1430183 0)
(157.50915 -2.1223585 0)
(158.1105 -2.0671787 0)
(158.69462 -1.9748743 0)
(159.25003 -1.8439208 0)
(159.76514 -1.6736454 0)
(160.22841 -1.4639775 0)
(160.62836 -1.215301 0)
(160.95341 -0.92849785 0)
(161.19178 -0.60523951 0)
(161.33153 -0.24854918 0)
(161.36113 0.13642387 0)
(161.27018 0.54165091 0)
(161.05037 0.95566017 0)
(160.69783 1.3632346 0)
(160.21493 1.7460834 0)
(159.61206 2.0848686 0)
(158.90777 2.3622166 0)
(158.12713 2.5656568 0)
(157.29868 2.6893619 0)
(156.45114 2.7342618 0)
(155.61058 2.7068402 0)
(154.79876 2.6172558 0)
(154.0324 2.4773993 0)
(153.32335 2.2992796 0)
(152.6792 2.0938982 0)
(152.10416 1.870607 0)
(151.59994 1.6368614 0)
(151.16662 1.3982508 0)
(150.80317 1.1586711 0)
(150.50754 0.92055062 0)
(150.27748 0.68523004 0)
(150.11443 0.45353878 0)
(150.02513 0.22567255 0)
(150.24334 -1.514909 0)
(150.66002 -1.5306 0)
(150.97021 -1.5601464 0)
(151.30295 -1.6044689 0)
(151.64695 -1.6628293 0)
(152.00784 -1.7343677 0)
(152.38908 -1.8177979 0)
(152.79415 -1.9113058 0)
(153.22619 -2.0124172 0)
(153.68777 -2.1178733 0)
(154.18068 -2.2235323 0)
(154.70559 -2.3243239 0)
(155.26171 -2.4142911 0)
(155.84638 -2.4867686 0)
(156.45473 -2.534748 0)
(157.07958 -2.5514325 0)
(157.71158 -2.5308696 0)
(158.33976 -2.4684563 0)
(158.95219 -2.3611381 0)
(159.53665 -2.2072617 0)
(160.08102 -2.0062028 0)
(160.57342 -1.7579653 0)
(161.00203 -1.4629255 0)
(161.35484 -1.121839 0)
(161.61935 -0.73618797 0)
(161.78235 -0.30890693 0)
(161.83044 0.15456116 0)
(161.75089 0.64515944 0)
(161.53251 1.149352 0)
(161.16871 1.6483655 0)
(160.6602 2.1188325 0)
(160.0176 2.535428 0)
(159.2621 2.8751707 0)
(158.42321 3.1217359 0)
(157.53469 3.2679306 0)
(156.62999 3.3156946 0)
(155.73868 3.2742208 0)
(154.88454 3.1572288 0)
(154.08491 2.9802955 0)
(153.35125 2.758754 0)
(152.69012 2.5063222 0)
(152.10436 2.2343959 0)
(151.59425 1.951847 0)
(151.15854 1.665147 0)
(150.79505 1.3786509 0)
(150.50078 1.0949549 0)
(150.27284 0.81535676 0)
(150.11214 0.54028832 0)
(150.02456 0.26916606 0)
(150.43877 -1.7254188 0)
(150.84137 -1.7434592 0)
(151.1416 -1.7777007 0)
(151.4643 -1.8293549 0)
(151.79882 -1.8976599 0)
(152.151 -1.9817227 0)
(152.52462 -2.0801724 0)
(152.92362 -2.1910376 0)
(153.35164 -2.3115768 0)
(153.81187 -2.438109 0)
(154.30677 -2.5658689 0)
(154.8377 -2.688919 0)
(155.40448 -2.8001619 0)
(156.00486 -2.8915206 0)
(156.63403 -2.9543774 0)
(157.28441 -2.9803073 0)
(157.94583 -2.9619637 0)
(158.6062 -2.8938038 0)
(159.25247 -2.772357 0)
(159.8715 -2.5959682 0)
(160.45058 -2.364207 0)
(160.97749 -2.0772405 0)
(161.44022 -1.735417 0)
(161.82642 -1.3392071 0)
(162.12286 -0.88960159 0)
(162.31494 -0.38902819 0)
(162.38699 0.15723788 0)
(162.32336 0.73946456 0)
(162.10895 1.3421752 0)
(161.73336 1.9427272 0)
(161.1946 2.5116515 0)
(160.50328 3.0159709 0)
(159.68398 3.4253597 0)
(158.77234 3.71855 0)
(157.80918 3.886872 0)
(156.83421 3.9339735 0)
(155.88146 3.872868 0)
(154.977 3.7219778 0)
(154.13869 3.5014986 0)
(153.37719 3.2307205 0)
(152.6975 2.926421 0)
(152.10061 2.6021537 0)
(151.58495 2.2681634 0)
(151.14761 1.9316678 0)
(150.78497 1.5973047 0)
(150.49295 1.2676436 0)
(150.26784 0.94373402 0)
(150.10983 0.62551129 0)
(150.02402 0.31173408 0)
(150.66221 -1.92104 0)
(151.04921 -1.9416676 0)
(151.3379 -1.9810094 0)
(151.64882 -2.0405569 0)
(151.97213 -2.1195385 0)
(152.31386 -2.2170753 0)
(152.6782 -2.3317713 0)
(153.06957 -2.4615638 0)
(153.49222 -2.6035095 0)
(153.95009 -2.7535586 0)
(154.44648 -2.9063473 0)
(154.98362 -3.0550486 0)
(155.56213 -3.1913314 0)
(156.18036 -3.3055154 0)
(156.83368 -3.3870763 0)
(157.51402 -3.4256072 0)
(158.21013 -3.4120698 0)
(158.90841 -3.3398525 0)
(159.59435 -3.2051493 0)
(160.25365 -3.0065308 0)
(160.87298 -2.7440164 0)
(161.43988 -2.4181126 0)
(161.94233 -2.0291655 0)
(162.36786 -1.5771949 0)
(162.70262 -1.062326 0)
(162.93056 -0.48592864 0)
(163.03336 0.14753686 0)
(162.99171 0.82826783 0)
(162.78537 1.5392561 0)
(162.39849 2.2537484 0)
(161.82485 2.934894 0)
(161.07446 3.5397164 0)
(160.17632 4.0279799 0)
(159.17446 4.3718867 0)
(158.11935 4.5612062 0)
(157.05901 4.6023752 0)
(156.03298 4.5138288 0)
(155.0699 4.3202443 0)
(154.18777 4.047631 0)
(153.39582 3.7199903 0)
(152.69681 3.3575257 0)
(152.08924 2.9760348 0)
(151.56919 2.5870491 0)
(151.13168 2.198362 0)
(150.77141 1.8146962 0)
(150.483 1.4383923 0)
(150.2618 1.0700607 0)
(150.10717 0.70902197 0)
(150.02341 0.35333261 0)
(150.91343 -2.1185615 0)
(151.28152 -2.1416533 0)
(151.55681 -2.1859444 0)
(151.85407 -2.253295 0)
(152.16427 -2.3429873 0)
(152.49368 -2.4542243 0)
(152.84688 -2.5856656 0)
(153.22883 -2.7352509 0)
(153.64451 -2.8999335 0)
(154.09874 -3.0753843 0)
(154.59582 -3.2557017 0)
(155.13911 -3.4331772 0)
(155.7303 -3.5981676 0)
(156.36861 -3.7391801 0)
(157.04971 -3.8434136 0)
(157.76503 -3.8980029 0)
(158.50183 -3.8918007 0)
(159.24452 -3.8169541 0)
(159.97658 -3.669459 0)
(160.68229 -3.4484632 0)
(161.34763 -3.1548167 0)
(161.96013 -2.7896193 0)
(162.50807 -2.3532582 0)
(162.97921 -1.8450887 0)
(163.3594 -1.2638759 0)
(163.63112 -0.60918552 0)
(163.77306 0.1162423 0)
(163.76151 0.90344496 0)
(163.56948 1.734542 0)
(163.17345 2.5786391 0)
(162.56055 3.3899972 0)
(161.73909 4.1123494 0)
(160.74373 4.6917274 0)
(159.63021 5.0914879 0)
(158.46231 5.299889 0)
(157.29902 5.3278847 0)
(156.18665 5.2016813 0)
(155.15644 4.9543326 0)
(154.22587 4.6191756 0)
(153.40177 4.2257819 0)
(152.6837 3.7981159 0)
(152.0669 3.3542046 0)
(151.54448 2.9066602 0)
(151.10897 2.4635678 0)
(150.75314 2.0294437 0)
(150.47013 1.6061345 0)
(150.25423 1.193595 0)
(150.1039 0.79039336 0)
(150.02268 0.39378321 0)
(151.19052 -2.2909193 0)
(151.53869 -2.3166059 0)
(151.79897 -2.366233 0)
(152.0807 -2.4419926 0)
(152.37586 -2.5432362 0)
(152.6909 -2.6693142 0)
(153.03086 -2.8190335 0)
(153.40129 -2.9904473 0)
(153.80799 -3.1805278 0)
(154.2568 -3.384784 0)
(154.75325 -3.5968631 0)
(155.30209 -3.8081993 0)
(155.90646 -4.0077583 0)
(156.5668 -4.1819792 0)
(157.27939 -4.3152815 0)
(158.03505 -4.3916413 0)
(158.81915 -4.3971513 0)
(159.61334 -4.3224245 0)
(160.39839 -4.1634499 0)
(161.15677 -3.9204801 0)
(161.87378 -3.5957737 0)
(162.53726 -3.1914274 0)
(163.13631 -2.7080018 0)
(163.65951 -2.1440041 0)
(164.09283 -1.4962803 0)
(164.41754 -0.76166094 0)
(164.60905 0.060036277 0)
(164.63842 0.96206087 0)
(164.46997 1.9268301 0)
(164.06948 2.9196672 0)
(163.41369 3.8843397 0)
(162.50704 4.7466683 0)
(161.39151 5.4331183 0)
(160.13941 5.8947169 0)
(158.83315 6.1185633 0)
(157.54626 6.1228929 0)
(156.33318 5.9451336 0)
(155.2274 5.6295924 0)
(154.2447 5.2188125 0)
(153.3881 4.7488687 0)
(152.6527 4.2477346 0)
(152.02945 3.735507 0)
(151.50782 3.2255263 0)
(151.07742 2.725764 0)
(150.72878 2.2401472 0)
(150.45347 1.7696987 0)
(150.24464 1.3134602 0)
(150.09983 0.86906675 0)
(150.02177 0.43282054 0)
(151.49501 -2.4738377 0)
(151.81881 -2.5021983 0)
(152.06189 -2.5571222 0)
(152.32589 -2.6412444 0)
(152.60372 -2.7540643 0)
(152.90202 -2.8951605 0)
(153.22624 -3.0635924 0)
(153.58259 -3.2576583 0)
(153.97774 -3.474503 0)
(154.41872 -3.7096333 0)
(154.91259 -3.9563803 0)
(155.46579 -4.2053963 0)
(156.08337 -4.4442216 0)
(156.76757 -4.6569817 0)
(157.51568 -4.8247164 0)
(158.318 -4.9273058 0)
(159.15737 -4.9471752 0)
(160.01157 -4.8730429 0)
(160.85763 -4.7012946 0)
(161.67563 -4.4342098 0)
(162.45027 -4.0764164 0)
(163.17018 -3.6316469 0)
(163.82598 -3.1008557 0)
(164.40788 -2.481484 0)
(164.9028 -1.7677136 0)
(165.29121 -0.95232442 0)
(165.5452 -0.030502101 0)
(165.62895 0.99512641 0)
(165.49754 2.109008 0)
(165.10112 3.2741336 0)
(164.40038 4.4222874 0)
(163.39185 5.4549379 0)
(162.12683 6.2698899 0)
(160.70162 6.8004498 0)
(159.22514 7.0336123 0)
(157.79022 6.9993713 0)
(156.46074 6.7514791 0)
(155.27146 6.3493594 0)
(154.23446 5.8470138 0)
(153.3469 5.2879264 0)
(152.59774 4.7041172 0)
(151.97246 4.1173408 0)
(151.4561 3.5410917 0)
(151.0349 2.9826567 0)
(150.69697 2.4448793 0)
(150.4322 1.9275653 0)
(150.23259 1.4285508 0)
(150.09477 0.94433378 0)
(150.02066 0.4701009 0)
(151.82147 -2.6141287 0)
(152.12078 -2.6447238 0)
(152.3451 -2.7047651 0)
(152.58943 -2.7972716 0)
(152.84783 -2.9219137 0)
(153.12707 -3.0785924 0)
(153.43305 -3.2667612 0)
(153.7726 -3.4851486 0)
(154.15338 -3.7312987 0)
(154.58378 -4.0009669 0)
(155.07259 -4.2874058 0)
(155.6284 -4.5806613 0)
(156.2587 -4.8669104 0)
(156.96827 -5.1277701 0)
(157.75619 -5.3401755 0)
(158.61235 -5.4785615 0)
(159.51621 -5.5202283 0)
(160.4401 -5.4512975 0)
(161.35573 -5.2690036 0)
(162.24003 -4.9788645 0)
(163.07733 -4.5890873 0)
(163.85783 -4.105737 0)
(164.5748 -3.5303308 0)
(165.22127 -2.859002 0)
(165.78631 -2.0824846 0)
(166.25047 -1.1879857 0)
(166.58258 -0.16396952 0)
(166.73936 0.993309 0)
(166.66424 2.2730412 0)
(166.2865 3.6388139 0)
(165.54186 5.0097588 0)
(164.41169 6.2542035 0)
(162.95881 7.2267769 0)
(161.31516 7.8343567 0)
(159.62818 8.0664447 0)
(158.01628 7.9720985 0)
(156.55373 7.6289789 0)
(155.2743 7.116737 0)
(154.18321 6.5034032 0)
(153.26888 5.8405744 0)
(152.51197 5.1639702 0)
(151.89107 4.4962122 0)
(151.38601 3.8500781 0)
(150.97926 3.231394 0)
(150.65637 2.6412991 0)
(150.40553 2.0779184 0)
(150.21767 1.5375562 0)
(150.08855 1.0153526 0)
(150.01929 0.50521294 0)
(152.17467 -2.7815813 0)
(152.44373 -2.8153199 0)
(152.64677 -2.8812178 0)
(152.8689 -2.9828071 0)
(153.10518 -3.1200252 0)
(153.36237 -3.2931989 0)
(153.64675 -3.5023099 0)
(153.96579 -3.7466917 0)
(154.32816 -4.0245061 0)
(154.74376 -4.3320122 0)
(155.22343 -4.6626315 0)
(155.77837 -5.0059848 0)
(156.41922 -5.3469567 0)
(157.15439 -5.6644584 0)
(157.98596 -5.9303906 0)
(158.90396 -6.1117566 0)
(159.88344 -6.1784235 0)
(160.88887 -6.1128239 0)
(161.88434 -5.9139391 0)
(162.8426 -5.592786 0)
(163.74791 -5.1634776 0)
(164.59331 -4.6359183 0)
(165.37599 -4.0129096 0)
(166.0933 -3.2894668 0)
(166.73805 -2.4522418 0)
(167.29222 -1.480901 0)
(167.72183 -0.35406552 0)
(167.97573 0.94197753 0)
(167.98397 2.4052779 0)
(167.64861 4.0054524 0)
(166.86699 5.6507693 0)
(165.59198 7.1649843 0)
(163.89972 8.3359228 0)
(161.97665 9.029226 0)
(160.02751 9.2429981 0)
(158.20442 9.0573537 0)
(156.59183 8.5851795 0)
(155.21815 7.9329331 0)
(154.07683 7.1853489 0)
(153.14355 6.402309 0)
(152.38796 5.6222326 0)
(151.78027 4.8672675 0)
(151.29427 4.1482172 0)
(150.90845 3.4684323 0)
(150.60573 2.8265975 0)
(150.37276 2.2186338 0)
(150.19952 1.6389676 0)
(150.08103 1.0811607 0)
(150.01763 0.53768697 0)
(152.5418 -2.8797954 0)
(152.78152 -2.9149319 0)
(152.96178 -2.9850647 0)
(153.15973 -3.0941148 0)
(153.37161 -3.2422778 0)
(153.60417 -3.4303905 0)
(153.86399 -3.6591225 0)
(154.15912 -3.9286558 0)
(154.49927 -4.2381162 0)
(154.89601 -4.5847223 0)
(155.36254 -4.9625859 0)
(155.91316 -5.3614077 0)
(156.56248 -5.7652419 0)
(157.32392 -6.1505792 0)
(158.20449 -6.4836579 0)
(159.19542 -6.7216365 0)
(160.26585 -6.8236307 0)
(161.36869 -6.7667716 0)
(162.45661 -6.5532231 0)
(163.49644 -6.2027941 0)
(164.47317 -5.7384069 0)
(165.38453 -5.1748518 0)
(166.23362 -4.5158057 0)
(167.02421 -3.7542694 0)
(167.75553 -2.8713356 0)
(168.41348 -1.8362765 0)
(168.96245 -0.61392627 0)
(169.34327 0.82335297 0)
(169.47198 2.4868525 0)
(169.21628 4.3601465 0)
(168.41527 6.347195 0)
(166.969 8.2137545 0)
(164.96625 9.6418663 0)
(162.67949 10.429055 0)
(160.40121 10.595937 0)
(158.32695 10.273412 0)
(156.5486 9.6265275 0)
(155.08116 8.7966177 0)
(153.89884 7.887392 0)
(152.95927 6.9661092 0)
(152.21794 6.0718506 0)
(151.63504 5.2241888 0)
(151.17781 4.43022 0)
(150.82062 3.6895451 0)
(150.54402 2.9975233 0)
(150.33333 2.3473091 0)
(150.17788 1.7311062 0)
(150.07212 1.1406971 0)
(150.01568 0.56700733 0)
(152.937 -3.0310554 0)
(153.14051 -3.0701409 0)
(153.29542 -3.1468514 0)
(153.46666 -3.2656751 0)
(153.65136 -3.4272397 0)
(153.856 -3.633096 0)
(154.08728 -3.8848564 0)
(154.35371 -4.183864 0)
(154.66594 -4.5305976 0)
(155.03722 -4.9237169 0)
(155.48341 -5.3585506 0)
(156.02239 -5.8253159 0)
(156.67363 -6.3075637 0)
(157.4574 -6.7795744 0)
(158.38868 -7.2009626 0)
(159.46225 -7.5149561 0)
(160.63984 -7.6635407 0)
(161.85726 -7.6146456 0)
(163.0502 -7.3750268 0)
(164.17753 -6.9781469 0)
(165.22679 -6.4605327 0)
(166.20374 -5.8441761 0)
(167.12 -5.1345113 0)
(167.98791 -4.3239714 0)
(168.81604 -3.3897503 0)
(169.59717 -2.290081 0)
(170.29526 -0.97231406 0)
(170.84293 0.61050484 0)
(171.14349 2.4900743 0)
(171.025 4.6786313 0)
(170.24134 7.0944141 0)
(168.59608 9.433599 0)
(166.18202 11.207687 0)
(163.41155 12.093509 0)
(160.71649 12.16612 0)
(158.34553 11.639636 0)
(156.38985 10.756593 0)
(154.83681 9.7022067 0)
(153.63054 8.5999656 0)
(152.7037 7.5216265 0)
(151.99418 6.5033372 0)
(151.45079 5.5589984 0)
(151.034 4.6897235 0)
(150.71437 3.8898402 0)
(150.4705 3.1504286 0)
(150.2869 2.4613139 0)
(150.1526 1.8121664 0)
(150.06175 1.1928344 0)
(150.01342 0.59262888 0)
(153.3317 -3.0768082 0)
(153.50079 -3.1160328 0)
(153.62884 -3.1954142 0)
(153.77116 -3.3198034 0)
(153.92601 -3.4901352 0)
(154.09948 -3.7086203 0)
(154.2983 -3.9778122 0)
(154.53129 -4.3002981 0)
(154.80996 -4.6781379 0)
(155.14931 -5.1119028 0)
(155.56818 -5.5988821 0)
(156.08871 -6.1306812 0)
(156.73613 -6.6913386 0)
(157.53982 -7.254384 0)
(158.52745 -7.7735736 0)
(159.70195 -8.1743897 0)
(161.01589 -8.3732748 0)
(162.379 -8.3244724 0)
(163.70034 -8.0441376 0)
(164.92691 -7.5894056 0)
(166.05129 -7.0193801 0)
(167.09186 -6.3662428 0)
(168.07138 -5.6359735 0)
(169.01245 -4.818891 0)
(169.93705 -3.8864131 0)
(170.85096 -2.7790502 0)
(171.72205 -1.4149094 0)
(172.47718 0.28401682 0)
(173.01212 2.3776461 0)
(173.11573 4.9213619 0)
(172.4203 7.8764223 0)
(170.55373 10.866621 0)
(167.58158 13.12728 0)
(164.15061 14.105406 0)
(160.9237 14.004711 0)
(158.20685 13.17487 0)
(156.07174 11.973496 0)
(154.45369 10.637657 0)
(153.25145 9.3079381 0)
(152.36449 8.0543932 0)
(151.70971 6.9044326 0)
(151.22386 5.861978 0)
(150.86106 4.9193346 0)
(150.58892 4.0638504 0)
(150.38491 3.2813651 0)
(150.23339 2.5578735 0)
(150.12367 1.8802808 0)
(150.04994 1.2364214 0)
(150.01084 0.61399858 0)
(153.75571 -3.2105125 0)
(153.8827 -3.2554153 0)
(153.98165 -3.342444 0)
(154.093 -3.4770322 0)
(154.21572 -3.6606864 0)
(154.35517 -3.8966706 0)
(154.51782 -4.1890136 0)
(154.7125 -4.5422583 0)
(154.95119 -4.9609806 0)
(155.2503 -5.4489126 0)
(155.63166 -6.0068988 0)
(156.12193 -6.6295514 0)
(156.75263 -7.3027373 0)
(157.56418 -8.0010627 0)
(158.60365 -8.6739491 0)
(159.89073 -9.2229921 0)
(161.36798 -9.5216633 0)
(162.90493 -9.4971818 0)
(164.36896 -9.17781 0)
(165.69038 -8.6551807 0)
(166.87321 -8.0208217 0)
(167.95837 -7.3168914 0)
(168.98526 -6.5442389 0)
(169.98917 -5.6889984 0)
(171.01174 -4.7215363 0)
(172.08123 -3.5675735 0)
(173.17387 -2.1154497 0)
(174.20831 -0.25762445 0)
(175.06619 2.0891846 0)
(175.52434 5.0320835 0)
(175.04921 8.656001 0)
(172.9625 12.558842 0)
(169.2155 15.541386 0)
(164.85467 16.579543 0)
(160.94682 16.174531 0)
(157.83668 14.893686 0)
(155.53883 13.265528 0)
(153.89572 11.581244 0)
(152.74048 9.988761 0)
(151.93042 8.5449816 0)
(151.35921 7.2598568 0)
(150.95215 6.1217109 0)
(150.65849 5.1107828 0)
(150.44443 4.2057052 0)
(150.28758 3.3862355 0)
(150.17313 2.6341875 0)
(150.0913 1.9336049 0)
(150.03677 1.2703381 0)
(150.00798 0.63058228 0)
(154.13605 -3.1946695 0)
(154.22232 -3.2378697 0)
(154.29035 -3.3244827 0)
(154.368 -3.4608516 0)
(154.45499 -3.6490332 0)
(154.55572 -3.8932373 0)
(154.67606 -4.1987522 0)
(154.82446 -4.5717701 0)
(155.01295 -5.0190143 0)
(155.259 -5.5470965 0)
(155.58751 -6.160499 0)
(156.03058 -6.8571817 0)
(156.62673 -7.6250242 0)
(157.4296 -8.4414707 0)
(158.51559 -9.2566326 0)
(159.93814 -9.9451078 0)
(161.63225 -10.313329 0)
(163.40425 -10.243853 0)
(165.05395 -9.7924339 0)
(166.48644 -9.112333 0)
(167.72729 -8.3536345 0)
(168.85529 -7.5750279 0)
(169.93068 -6.7696655 0)
(170.99653 -5.9227062 0)
(172.11529 -5.0183403 0)
(173.34767 -3.9702239 0)
(174.68407 -2.6195504 0)
(176.03284 -0.79605856 0)
(177.28226 1.6461281 0)
(178.24496 4.9154929 0)
(178.21499 9.3274047 0)
(175.98298 14.535065 0)
(171.1529 18.674771 0)
(165.44354 19.685642 0)
(160.6692 18.753492 0)
(157.13223 16.799779 0)
(154.72271 14.604298 0)
(153.12357 12.497222 0)
(152.07795 10.610393 0)
(151.39325 8.968329 0)
(150.94035 7.5513207 0)
(150.63596 6.3253511 0)
(150.42751 5.2552359 0)
(150.28221 4.3094085 0)
(150.1796 3.4610101 0)
(150.10684 2.6875866 0)
(150.05591 1.9704235 0)
(150.02242 1.2935611 0)
(150.00486 0.64189621 0)
(154.44919 -3.302228 0)
(154.48553 -3.356661 0)
(154.51867 -3.4545422 0)
(154.55836 -3.6032955 0)
(154.60488 -3.805425 0)
(154.66138 -4.0662231 0)
(154.73287 -4.3925499 0)
(154.82709 -4.792907 0)
(154.95559 -5.2773798 0)
(155.13607 -5.8576006 0)
(155.39587 -6.5454342 0)
(155.77244 -7.3476891 0)
(156.31061 -8.2600348 0)
(157.07565 -9.2697403 0)
(158.18316 -10.341499 0)
(159.74875 -11.327765 0)
(161.70938 -11.924392 0)
(163.76889 -11.918991 0)
(165.61622 -11.407336 0)
(167.11988 -10.628195 0)
(168.34707 -9.8215771 0)
(169.44327 -9.0578302 0)
(170.49716 -8.2998245 0)
(171.55034 -7.5092779 0)
(172.69258 -6.6866711 0)
(174.04807 -5.7210659 0)
(175.64974 -4.3714426 0)
(177.40805 -2.376171 0)
(179.22602 0.47499054 0)
(181.00095 4.3266635 0)
(181.86786 9.7701017 0)
(179.76961 16.835889 0)
(173.45903 22.958833 0)
(165.74646 23.683932 0)
(159.90418 21.828236 0)
(155.95015 18.869593 0)
(153.54168 15.933049 0)
(152.09817 13.330037 0)
(151.24923 11.129244 0)
(150.75032 9.2935156 0)
(150.45537 7.7579896 0)
(150.27891 6.4592218 0)
(150.17159 5.3438249 0)
(150.10503 4.3692378 0)
(150.06289 3.502009 0)
(150.03575 2.7157237 0)
(150.01815 1.9892744 0)
(150.00716 1.3052375 0)
(150.00155 0.64754163 0)
(154.38533 -3.226402 0)
(154.36105 -3.2763367 0)
(154.3521 -3.3656449 0)
(154.34549 -3.5056517 0)
(154.3421 -3.7001513 0)
(154.34315 -3.9560534 0)
(154.35203 -4.2822049 0)
(154.37466 -4.6898175 0)
(154.42051 -5.192648 0)
(154.5053 -5.8074191 0)
(154.65649 -6.5534116 0)
(154.91618 -7.4463411 0)
(155.33502 -8.4870218 0)
(155.98634 -9.666354 0)
(157.0363 -10.969665 0)
(158.71809 -12.239114 0)
(161.00759 -12.99041 0)
(163.44217 -12.819319 0)
(165.52455 -11.932074 0)
(167.06699 -10.721703 0)
(168.21037 -9.6087383 0)
(169.2202 -8.6682129 0)
(170.2303 -7.7968883 0)
(171.25939 -6.8995271 0)
(172.42042 -6.0540496 0)
(173.93748 -5.1960583 0)
(175.90348 -4.0102389 0)
(178.2101 -2.1967433 0)
(180.68135 0.51388209 0)
(183.37349 4.0150769 0)
(185.59556 9.8510322 0)
(184.2184 19.141177 0)
(175.99468 28.862663 0)
(165.32563 28.721158 0)
(158.34141 25.418832 0)
(154.09603 21.018261 0)
(151.90623 17.149368 0)
(150.78834 13.997854 0)
(150.25051 11.488955 0)
(150.0081 9.4845442 0)
(149.913 7.8576837 0)
(149.88886 6.5098629 0)
(149.8968 5.3684119 0)
(149.91719 4.3802656 0)
(149.94031 3.5062423 0)
(149.96157 2.7167891 0)
(149.97892 1.9890807 0)
(149.99135 1.3047607 0)
(149.99812 0.64724025 0)
(153.47562 -3.2561294 0)
(153.37706 -3.3298515 0)
(153.30979 -3.4386644 0)
(153.23684 -3.5987789 0)
(153.16068 -3.8142831 0)
(153.08019 -4.0929859 0)
(152.9965 -4.4446812 0)
(152.9128 -4.8819955 0)
(152.83544 -5.4208609 0)
(152.77659 -6.0815527 0)
(152.76202 -6.8904391 0)
(152.83888 -7.8764098 0)
(153.06517 -9.0553527 0)
(153.51259 -10.434066 0)
(154.39402 -12.057026 0)
(156.14054 -13.846285 0)
(158.84968 -15.094522 0)
(161.75872 -14.978249 0)
(164.0412 -13.952253 0)
(165.43465 -12.558963 0)
(166.22815 -11.491822 0)
(166.92111 -10.755752 0)
(167.7174 -10.149315 0)
(168.53752 -9.4729474 0)
(169.45582 -9.0181476 0)
(170.86709 -8.8483624 0)
(172.96926 -8.2920938 0)
(175.65777 -7.0429061 0)
(178.57215 -4.4765548 0)
(182.42925 -0.72729849 0)
(187.15837 7.2307526 0)
(188.24554 20.228451 0)
(177.9281 36.681005 0)
(163.24697 34.969171 0)
(155.59469 29.536015 0)
(151.35119 23.102762 0)
(149.73667 18.092271 0)
(149.1848 14.388245 0)
(149.09723 11.621612 0)
(149.18648 9.502934 0)
(149.33031 7.8291497 0)
(149.47858 6.4656213 0)
(149.61204 5.3226054 0)
(149.72459 4.3389801 0)
(149.81557 3.4717821 0)
(149.88647 2.6897322 0)
(149.93934 1.9692799 0)
(149.97543 1.2918424 0)
(149.99467 0.64086686 0)
(150.27862 -3.1552573 0)
(150.03198 -3.2213327 0)
(149.86064 -3.3059942 0)
(149.67255 -3.4358168 0)
(149.47246 -3.6160171 0)
(149.25558 -3.8554232 0)
(149.01943 -4.1648962 0)
(148.76261 -4.559207 0)
(148.48548 -5.0583868 0)
(148.19176 -5.6900042 0)
(147.89692 -6.4943954 0)
(147.64242 -7.5277396 0)
(147.48317 -8.8431397 0)
(147.45914 -10.471223 0)
(147.78383 -12.507467 0)
(149.20301 -15.035323 0)
(152.18256 -17.053592 0)
(155.43122 -16.58926 0)
(157.58607 -14.746104 0)
(158.33636 -12.183438 0)
(158.23477 -10.348642 0)
(158.16903 -9.1901368 0)
(158.40393 -8.4350485 0)
(158.60249 -7.5247711 0)
(158.71871 -7.0237805 0)
(159.66763 -7.0176256 0)
(161.78112 -5.9948006 0)
(164.94962 -4.8735962 0)
(168.68334 -1.9567742 0)
(175.06206 4.1667586 0)
(184.04685 12.17542 0)
(189.65394 24.095417 0)
(176.92312 49.629278 0)
(157.54552 45.387743 0)
(150.91436 34.317481 0)
(147.40323 24.793034 0)
(146.95732 18.491081 0)
(147.31608 14.349926 0)
(147.83444 11.45215 0)
(148.32309 9.312931 0)
(148.73401 7.6556571 0)
(149.06588 6.3187817 0)
(149.32881 5.2029514 0)
(149.53445 4.2439385 0)
(149.69303 3.3981214 0)
(149.81295 2.6344587 0)
(149.90068 1.9299331 0)
(149.95989 1.2665705 0)
(149.99131 0.62847513 0)
(143.50988 -2.9198131 0)
(143.10986 -3.0121778 0)
(142.79968 -3.1137031 0)
(142.45146 -3.2633008 0)
(142.07687 -3.4658864 0)
(141.66671 -3.7315981 0)
(141.2129 -4.0727562 0)
(140.70608 -4.5065258 0)
(140.13584 -5.0566746 0)
(139.49024 -5.7559071 0)
(138.76262 -6.6518999 0)
(137.9755 -7.8156441 0)
(137.18231 -9.3207128 0)
(136.39284 -11.178029 0)
(135.76003 -13.444254 0)
(136.50384 -16.54059 0)
(140.14374 -19.656561 0)
(144.25778 -18.174162 0)
(146.43862 -15.44658 0)
(146.26443 -11.967135 0)
(144.63853 -10.768948 0)
(143.25524 -10.900718 0)
(142.63849 -11.370349 0)
(142.04303 -10.884939 0)
(141.16564 -10.369132 0)
(141.99173 -10.532127 9.2157551e-18)
(143.27226 -11.921816 -2.0396357e-19)
(145.57728 -13.589607 0)
(146.66479 -7.475549 1.0016059e-17)
(144.02823 -14.510059 -7.4990563e-18)
(161.53018 -10.135077 4.4273263e-18)
(180.41243 5.4383802 -9.8916332e-18)
(167.93163 72.289462 6.3471548e-18)
(142.12823 58.029188 0)
(140.66652 37.126125 0)
(141.63428 24.706902 0)
(143.57067 17.830756 0)
(145.29833 13.692626 0)
(146.55469 10.912836 0)
(147.47727 8.8912956 0)
(148.16032 7.3301316 0)
(148.67269 6.0680621 0)
(149.06042 5.0101238 0)
(149.35481 4.0963391 0)
(149.57745 3.2864527 0)
(149.74366 2.5519698 0)
(149.86425 1.8717944 0)
(149.94526 1.2294436 0)
(149.98814 0.61031225 0)
(129.54792 -2.869305 0)
(128.76401 -2.9446479 0)
(128.1603 -3.0084826 0)
(127.48603 -3.1099916 0)
(126.76112 -3.2510983 0)
(125.96652 -3.4389762 0)
(125.08406 -3.6815912 0)