/*--------------------------------*- C++ -*----------------------------------*\
| =========                 |                                                 |
| \\      /  F ield         | foam-extend: Open Source CFD                    |
|  \\    /   O peration     | Version:     4.1                                |
|   \\  /    A nd           | Web:         http://www.foam-extend.org         |
|    \\/     M anipulation  |                                                 |
\*---------------------------------------------------------------------------*/
FoamFile
{
    version     2.0;
    format      ascii;
    class       volScalarField;
    location    "0.5";
    object      p;
}
// * * * * * * * * * * * * * * * * * * * * * * * * * * * * * * * * * * * * * //

dimensions      [0 2 -2 0 0 0 0];

internalField   nonuniform List<scalar> 
16126
(
0.00022780835
0.00095362202
0.0014677138
0.0021443817
0.0026997009
0.0033426439
0.0039202986
0.0045422788
0.0051295577
0.0057377842
0.0063269738
0.006924772
0.0075111462
0.0080995646
0.0086799847
0.0092588009
0.0098309009
0.010399178
0.010960922
0.011517298
0.012066749
0.012609583
0.013144788
0.01367224
0.014191176
0.014701254
0.015201821
0.015692421
0.016172454
0.016641412
0.017098728
0.017543882
0.017976351
0.018395641
0.018801291
0.019192878
0.01957004
0.019932478
0.020279979
0.020612429
0.020929835
0.021232343
0.021520257
0.021794074
0.022054496
0.022302468
0.022539198
0.02276619
0.02298527
0.023198613
0.023408773
0.023618702
0.023831774
0.0240518
0.024283035
0.024530189
0.024798412
0.025093289
0.025420809
0.025787328
0.026199529
0.026664348
0.027188913
0.02778045
0.028446196
0.029193281
0.030028625
0.030958812
0.03198997
0.033127636
0.034376652
0.035741022
0.03722383
0.038827122
0.040551835
0.04239774
0.044363377
0.046446095
0.048641944
0.050945917
0.05335165
0.055852101
0.058438632
0.061102728
0.063833366
0.066620031
0.069451928
0.072316649
0.075197714
0.078079301
0.080950339
0.08379728
0.086607328
0.089366286
0.092059178
0.094668604
0.097174616
0.09955292
0.10177557
0.10381014
0.1056238
0.10718874
0.10848486
0.10952811
0.11033157
0.11109518
0.1118728
0.11279478
0.11394535
0.11559256
0.11765474
0.12059658
0.12409235
0.12912424
0.13480331
0.1433534
0.15223847
0.16672906
0.17931905
0.20425022
0.21796024
0.26838652
0.26463392
0.43368478
0.00022442012
0.00095595142
0.0014689709
0.0021455545
0.0027015459
0.0033438596
0.0039222347
0.0045438002
0.0051315999
0.0057396531
0.0063292141
0.0069270086
0.0075136784
0.0081022049
0.0086828973
0.0092619009
0.0098342827
0.010402812
0.010964868
0.011521556
0.012071365
0.012614575
0.013150195
0.013678092
0.014197514
0.014708115
0.015209249
0.015700462
0.016181158
0.016650831
0.01710892
0.017554908
0.017988275
0.018408534
0.018815225
0.019207931
0.019586295
0.019950022
0.020298904
0.020632831
0.020951813
0.021256
0.021545699
0.02182141
0.022083835
0.02233392
0.022572871
0.022802189
0.023023694
0.023239556
0.023452317
0.023664918
0.023880714
0.024103496
0.024337498
0.024587398
0.024858318
0.025155804
0.025485804
0.025854631
0.02626892
0.026735557
0.02726162
0.02785428
0.028520726
0.029268039
0.030103097
0.031032448
0.032062191
0.033197847
0.034444251
0.035805414
0.03728444
0.038883408
0.040603304
0.042443956
0.04440398
0.046480797
0.04867056
0.05096833
0.053367906
0.055862211
0.058443076
0.061101665
0.063827108
0.066616839
0.069446507
0.072297848
0.075169643
0.078045086
0.080911214
0.08375415
0.08656086
0.089317006
0.092007404
0.0946144
0.09711765
0.099492589
0.10171109
0.1037415
0.10555315
0.10712268
0.10843541
0.10956503
0.11057264
0.11139434
0.11220362
0.11333068
0.11472872
0.11666783
0.11905808
0.12233309
0.12617805
0.13151029
0.13749633
0.14622597
0.15534276
0.16974377
0.18251855
0.20628907
0.22064496
0.26094721
0.2690174
0.32897951
0.00021296027
0.00095653261
0.0014676563
0.0021453296
0.0027025941
0.0033443442
0.0039240552
0.0045451567
0.0051339371
0.0057418251
0.0063320887
0.0069299474
0.0075171625
0.0081059035
0.0086870701
0.0092663878
0.0098392257
0.010408141
0.010970666
0.011527801
0.012078109
0.01262182
0.01315798
0.013686432
0.01420644
0.014717648
0.015219417
0.015711286
0.016192663
0.016663038
0.017121849
0.017568572
0.01800269
0.018423705
0.018831155
0.019224616
0.019603722
0.019968168
0.020317736
0.020652303
0.020971864
0.021276555
0.021566661
0.021842663
0.022105241
0.022355317
0.022594068
0.022822968
0.023043809
0.023258728
0.023470234
0.023681238
0.023895063
0.024115472
0.02434667
0.024593313
0.024860503
0.025153774
0.025479071
0.025842712
0.026251347
0.026711889
0.027231456
0.027817275
0.028476603
0.029216602
0.03004425
0.030966202
0.031988679
0.033117331
0.03435713
0.035712226
0.037185861
0.038780245
0.040496488
0.042334523
0.044293054
0.046369561
0.048560222
0.050860131
0.053262939
0.055761914
0.058348049
0.061015115
0.063752521
0.066533417
0.069356671
0.072221
0.075103483
0.077990756
0.080869004
0.083724571
0.086544132
0.0893134
0.092017399
0.094639043
0.097159117
0.099554646
0.10180015
0.10386583
0.10572441
0.1073538
0.10878289
0.10995904
0.11085185
0.11171615
0.11266459
0.11384821
0.11534376
0.11739997
0.11997159
0.12345618
0.12759476
0.13319345
0.13951421
0.14833889
0.15756912
0.17131259
0.18365535
0.20487263
0.21887132
0.25210851
0.26523694
0.30896929
0.00020123795
0.00095816871
0.0014665762
0.0021463873
0.0027046803
0.0033464044
0.0039274977
0.0045484559
0.0051383851
0.0057463681
0.0063375618
0.0069357476
0.0075237776
0.0081130246
0.0086949776
0.0092749428
0.0098485972
0.010418285
0.010981696
0.011539724
0.012091015
0.012635746
0.013173007
0.013702616
0.014223861
0.014736374
0.01523953
0.015732865
0.016215792
0.0166878
0.017148334
0.017596866
0.018032881
0.01845588
0.018865399
0.019261008
0.019642339
0.020009076
0.020360994
0.020697956
0.02101994
0.021327065
0.021619592
0.021897977
0.022162865
0.022415143
0.022655947
0.022886703
0.02310915
0.023325366
0.0235378
0.023749293
0.023963097
0.024182899
0.02441283
0.024657468
0.024921843
0.025211422
0.025532086
0.025890106
0.026292096
0.026744953
0.027255798
0.02783189
0.02848054
0.029208999
0.03002436
0.030933426
0.031942599
0.03305773
0.034284023
0.035625872
0.037086782
0.038669221
0.040374566
0.042202987
0.044153424
0.046223529
0.04840968
0.050706956
0.053109393
0.055609323
0.058200579
0.06086931
0.063599747
0.066392923
0.069235456
0.072109048
0.075003764
0.077904062
0.080796979
0.083668334
0.086504739
0.089291847
0.092014905
0.09465755
0.097201787
0.099627468
0.10191275
0.10403623
0.10598552
0.10773784
0.1092386
0.11056478
0.11181318
0.11301054
0.11427073
0.11581277
0.11767894
0.12010014
0.12303595
0.12682998
0.1312593
0.13700679
0.1434301
0.15201959
0.16097041
0.1736304
0.18508907
0.20315458
0.21556899
0.23929921
0.2504041
0.26848173
0.00018985003
0.00095981767
0.0014647102
0.002147521
0.0027065676
0.0033488734
0.0039313501
0.0045525556
0.0051437529
0.0057521155
0.0063444086
0.0069431615
0.0075321995
0.0081221767
0.0087051225
0.0092859571
0.0098606442
0.010431329
0.010995849
0.011555
0.012107503
0.012653487
0.01319208
0.013723076
0.014245783
0.014759823
0.015264578
0.015759579
0.01624424
0.016718047
0.01718044
0.017630887
0.018068866
0.018493866
0.018905414
0.019303066
0.019686435
0.020055184
0.020409065
0.020747911
0.021071667
0.021380415
0.021674371
0.021953942
0.02221972
0.022472531
0.022713443
0.022943813
0.023165301
0.023379905
0.023589988
0.023798306
0.024008022
0.02422274
0.024446508
0.024683832
0.02493968
0.025219469
0.025529054
0.025874698
0.026263037
0.026701019
0.027195856
0.027754927
0.028385711
0.029095661
0.029892114
0.030782153
0.031772492
0.032869319
0.034078198
0.035403886
0.036850257
0.038420129
0.040115213
0.041935963
0.04388157
0.045949864
0.048137306
0.050439099
0.052848787
0.055359814
0.057960854
0.060641495
0.063396093
0.066209694
0.069071398
0.071970763
0.074891616
0.077820261
0.080742549
0.083644514
0.086512545
0.089332521
0.092090238
0.094770392
0.097357059
0.099832843
0.10218129
0.10438031
0.10640011
0.10824957
0.1099451
0.11148942
0.11291077
0.11433822
0.11586473
0.11763757
0.11972675
0.1223324
0.12544178
0.12935583
0.13389874
0.13964244
0.14604089
0.15430406
0.16291785
0.17454535
0.18527369
0.20103644
0.21280235
0.23214373
0.24348114
0.25579664
0.00018182787
0.00096229201
0.001464145
0.0021500563
0.0027096723
0.0033529565
0.00393673
0.004558523
0.0051510335
0.0057600585
0.0063535867
0.0069531684
0.0075434118
0.0081343865
0.0087185712
0.0093005647
0.0098765751
0.01044858
0.011014546
0.011575185
0.012129285
0.012676935
0.013217298
0.013750151
0.014274819
0.014790915
0.015297832
0.015795095
0.016282124
0.016758398
0.017223358
0.017676463
0.018117189
0.018545013
0.01895945
0.019360041
0.01974638
0.020118108
0.020474949
0.020816702
0.021143277
0.021454709
0.021751165
0.022032994
0.022300722
0.022555104
0.022797128
0.023028064
0.023249478
0.023463268
0.023671692
0.023877395
0.024083433
0.024293297
0.024510932
0.024740744
0.024987613
0.025256887
0.02555437
0.0258863
0.026259323
0.026680429
0.027156915
0.02769629
0.02830621
0.028994351
0.029768327
0.030635537
0.031603058
0.032677471
0.033864765
0.035170129
0.036597885
0.038151275
0.039832426
0.041642148
0.043579967
0.045643932
0.047830732
0.050135489
0.052552092
0.055072494
0.05768723
0.060387118
0.063161401
0.066000092
0.068890167
0.071816947
0.074767613
0.077727294
0.080682459
0.083618795
0.086522827
0.089380578
0.092178349
0.094901922
0.09753669
0.10006815
0.10247827
0.10475928
0.10690647
0.10891316
0.110778
0.11254395
0.1142676
0.11601362
0.11786049
0.11995169
0.12233872
0.12519527
0.12851004
0.13253629
0.13712637
0.1427505
0.14894504
0.15667963
0.16469286
0.17503874
0.1846013
0.19763264
0.20754037
0.22149451
0.2300919
0.23626467
0.00017607445
0.00096459093
0.0014639089
0.0021527703
0.0027129186
0.0033574257
0.0039424765
0.0045651064
0.0051589764
0.0057688701
0.0063637243
0.0069643097
0.0075558742
0.0081480045
0.0087335569
0.0093168591
0.0098943283
0.010467798
0.011035348
0.011597615
0.012153447
0.012702897
0.013245158
0.013779989
0.01430673
0.014824985
0.015334151
0.015833748
0.016323193
0.016801957
0.017269476
0.017725197
0.018168581
0.018599091
0.019016221
0.019419487
0.019808454
0.02018273
0.020541998
0.020886014
0.021214634
0.021527836
0.021825719
0.02210856
0.022376804
0.022631118
0.022872394
0.023101798
0.02332079
0.023531156
0.023735037
0.023934964
0.024133878
0.024335162
0.024542661
0.024760697
0.024994081
0.025248117
0.025528594
0.025841769
0.026194346
0.026593418
0.027046435
0.027561108
0.028145351
0.028807149
0.029554479
0.030395146
0.031336677
0.032386132
0.033550003
0.034833983
0.036242902
0.037780472
0.039449272
0.041250485
0.043183969
0.045247989
0.047439383
0.049753305
0.052183553
0.054721755
0.05735889
0.060085466
0.062890944
0.065762199
0.068686912
0.071651799
0.074642251
0.077643829
0.080642322
0.083623408
0.086573517
0.08947885
0.092326254
0.095102299
0.097793852
0.1003879
0.10287467
0.10524473
0.10748874
0.10961529
0.11163785
0.11358218
0.11548573
0.11743089
0.11948533
0.12176137
0.12431387
0.12729079
0.13069262
0.13473553
0.13930194
0.14477783
0.15077693
0.15806867
0.16562685
0.17502778
0.18386352
0.19520042
0.20431211
0.21571254
0.2235181
0.22766894
0.00017305364
0.00096700973
0.0014650136
0.0021563734
0.0027172525
0.0033630715
0.0039494431
0.0045730983
0.0051683963
0.0057793545
0.0063756495
0.0069774346
0.0075704754
0.0081639657
0.0087510754
0.0093359078
0.0099150573
0.010490237
0.011059624
0.011623794
0.012181647
0.012733205
0.013277689
0.013814843
0.014344021
0.01486482
0.015376642
0.015878999
0.01637131
0.016853037
0.017323608
0.017782459
0.018229038
0.018662788
0.019083185
0.019489714
0.019881913
0.020259351
0.020621668
0.02096857
0.021299855
0.021615437
0.021915342
0.022199765
0.022469061
0.022723796
0.022964758
0.023192996
0.023409849
0.023616974
0.023816384
0.024010476
0.024202061
0.024394396
0.024591212
0.024796727
0.025015672
0.025253293
0.025515353
0.025808121
0.026138355
0.026513255
0.026940428
0.027427801
0.027983564
0.028616038
0.029333598
0.030144492
0.031056751
0.032077961
0.033215181
0.03447467
0.035861834
0.03738092
0.039035027
0.04082577
0.042753404
0.044816452
0.04701197
0.049335159
0.051779794
0.054337544
0.056999477
0.059755198
0.062593239
0.065501246
0.068465814
0.071472278
0.074506625
0.077553678
0.080599365
0.083629032
0.086629226
0.089586263
0.092487528
0.095320593
0.098073507
0.1007366
0.10330083
0.10576228
0.10812057
0.1103813
0.11255713
0.11468186
0.116797
0.11896271
0.12123587
0.12371549
0.12644545
0.12955093
0.13303163
0.13706583
0.14155379
0.14680474
0.15249346
0.15921572
0.16613278
0.17441092
0.1821828
0.19155553
0.19917611
0.20771959
0.21376568
0.21633526
0.00017171262
0.00096906562
0.0014667013
0.0021600683
0.0027219093
0.0033690421
0.003956815
0.0045816169
0.0051784135
0.0057905735
0.0063883946
0.0069915116
0.0075861277
0.0081811042
0.0087698792
0.0093563644
0.0099373073
0.010514318
0.011085657
0.011651848
0.012211834
0.012765613
0.013312428
0.013852009
0.014383722
0.014907153
0.015421707
0.015926889
0.016422112
0.016906828
0.017380454
0.017842408
0.018292121
0.018729011
0.019152526
0.019562118
0.019957285
0.020337551
0.020702502
0.021051785
0.02138513
0.021702373
0.022003456
0.022288478
0.022557692
0.022811552
0.023050724
0.023276133
0.023488981
0.02369079
0.023883431
0.024069163
0.024250663
0.024431062
0.024613977
0.024803533
0.025004391
0.025221758
0.025461395
0.025729614
0.026033266
0.026379697
0.026776725
0.027232549
0.0277557
0.028354901
0.029038995
0.029816752
0.030696779
0.031687268
0.032795918
0.034029619
0.035394421
0.036895154
0.038535486
0.040317489
0.042241834
0.044307303
0.046511148
0.048848631
0.051313391
0.05389694
0.056590227
0.059382151
0.062261057
0.065213228
0.068225168
0.071281943
0.074368775
0.077470164
0.08057157
0.083658033
0.086716012
0.089731809
0.09269328
0.095588461
0.098407113
0.10113991
0.10378091
0.10632704
0.10877818
0.11114466
0.11344187
0.11569849
0.11794917
0.12025354
0.12266207
0.12525753
0.12808204
0.13124193
0.13474156
0.13872987
0.14312593
0.14817762
0.15361672
0.15990227
0.16636379
0.1738604
0.180975
0.18914336
0.19600959
0.20306365
0.20832495
0.21009973
0.00017208872
0.00097104755
0.0014695229
0.0021643822
0.0027275613
0.0033759651
0.0039652872
0.004591339
0.0051897457
0.0058032541
0.0064027266
0.0070073395
0.00760368
0.0082003218
0.0087909364
0.0093792712
0.0099622077
0.010541268
0.011114786
0.011683241
0.012245617
0.012801889
0.013351321
0.013893633
0.014428198
0.014954598
0.015472238
0.015980616
0.016479139
0.016967248
0.01744435
0.017909843
0.018363141
0.018803636
0.019230744
0.019643883
0.020042508
0.020426093
0.020794168
0.021146313
0.021482185
0.021801536
0.022104212
0.022390213
0.022659676
0.022912931
0.023150512
0.023373202
0.023582055
0.02377844
0.023964071
0.02414105
0.024311902
0.024479615
0.024647675
0.024820097
0.025001457
0.025196909
0.025412207
0.025653697
0.025928323
0.026243584
0.02660752
0.02702862
0.027515785
0.028078174
0.028725148
0.029466047
0.030310121
0.031266233
0.032342801
0.033547425
0.03488688
0.036366659
0.037991082
0.039762739
0.041682793
0.043750319
0.045962828
0.048315618
0.05080228
0.053414131
0.056141795
0.058973525
0.061897055
0.064898216
0.067962747
0.071074734
0.074219161
0.077379741
0.08054175
0.08368972
0.086810116
0.089889144
0.092915116
0.095876625
0.098764687
0.10157126
0.10429174
0.10692571
0.1094763
0.11195341
0.1143728
0.11676321
0.11915782
0.12160569
0.12414987
0.12686124
0.12977469
0.13297884
0.13647653
0.14038796
0.14464363
0.14943614
0.15454104
0.16030063
0.16617536
0.17277419
0.17902118
0.18585382
0.19164543
0.19716375
0.20139163
0.20270641
0.00017356075
0.00097272089
0.0014729339
0.0021687982
0.0027336444
0.0033832341
0.0039742492
0.0046016079
0.0052017234
0.0058166803
0.0064178993
0.0070241203
0.0076222865
0.0082207095
0.0088132724
0.0094035753
0.0099886202
0.01056985
0.011145668
0.01171651
0.012281398
0.012840286
0.013392458
0.013937621
0.014475158
0.01500464
0.015525475
0.016037149
0.016539063
0.017030644
0.017511283
0.01798036
0.018437262
0.018881352
0.019312012
0.019728618
0.020130574
0.020517298
0.020888256
0.021242954
0.021580965
0.021901946
0.02220564
0.022491932
0.022760832
0.023012536
0.023247431
0.023466147
0.023669577
0.023858922
0.02403573
0.024201935
0.024359903
0.024512469
0.024662986
0.024815358
0.02497408
0.025144262
0.025331661
0.025542675
0.02578437
0.026064427
0.02639115
0.026773364
0.027220394
0.027741897
0.028347819
0.029048147
0.029852851
0.030771546
0.031813458
0.03298697
0.03429967
0.035757778
0.037366336
0.039128494
0.041045954
0.043118086
0.04534268
0.047715003
0.050228561
0.052874357
0.055642698
0.058521086
0.061496764
0.06455446
0.067679421
0.070854832
0.074065038
0.077292922
0.08052329
0.08374002
0.086929417
0.090077377
0.093172499
0.096203526
0.099162464
0.10204161
0.10483739
0.10755035
0.11018428
0.11275018
0.11526388
0.11775148
0.12024259
0.12278241
0.12540947
0.12818446
0.13113946
0.13434928
0.13781836
0.14164489
0.14577161
0.15034826
0.1551908
0.16055263
0.16600697
0.17197902
0.17766229
0.18364396
0.18880646
0.19342974
0.19706286
0.1980155
0.00017614332
0.00097431989
0.0014772589
0.0021737041
0.0027406211
0.0033913221
0.0039842228
0.0046129524
0.0052149121
0.0058314358
0.0064345337
0.0070425068
0.0076426453
0.0082430121
0.0088376892
0.0094301419
0.010017483
0.010601086
0.011179414
0.01175287
0.012320508
0.012882265
0.013437442
0.013985738
0.014526542
0.015059418
0.015583774
0.016099086
0.016604749
0.017100174
0.017584739
0.0180578
0.01851872
0.01896683
0.019401475
0.019821985
0.020227714
0.020618019
0.020992294
0.021349968
0.021690521
0.022013511
0.022318567
0.022605449
0.022874029
0.023124355
0.023356655
0.023571388
0.023769269
0.023951317
0.02411889
0.024273736
0.024418039
0.024554463
0.024686206
0.02481704
0.024951362
0.025094222
0.025251368
0.025429247
0.025635041
0.025876622
0.026162571
0.026502072
0.026904912
0.027381288
0.027941791
0.028597119
0.029358047
0.030235025
0.031238185
0.032376793
0.033659359
0.035092922
0.036683355
0.038434441
0.040348514
0.042425271
0.044662848
0.047056485
0.049599558
0.052282711
0.05509587
0.058025693
0.061058791
0.064178871
0.067370425
0.070615419
0.073897634
0.07719884
0.080503452
0.083794499
0.087058167
0.090279924
0.093448637
0.096553236
0.09958631
0.10254151
0.10541522
0.10820927
0.110929
0.11358491
0.11619271
0.11877668
0.12136398
0.12399325
0.1266977
0.12952879
0.13251343
0.13571313
0.13913076
0.14284369
0.14680236
0.1511189
0.15564022
0.1605465
0.16549857
0.17078031
0.17579012
0.18087423
0.18528712
0.18904774
0.19206419
0.19285507
0.0001794861
0.00097570362
0.0014821107
0.0021787419
0.0027480622
0.0033997766
0.0039947298
0.0046248599
0.0052287769
0.005846947
0.0064520251
0.0070618502
0.0076640646
0.0082664852
0.0088633868
0.0094581062
0.010047861
0.010633961
0.011214925
0.011791124
0.012361644
0.012926406
0.013484726
0.014036295
0.014580507
0.01511692
0.015644937
0.016164027
0.016673573
0.017172973
0.017661585
0.018138742
0.018603778
0.01905599
0.01949468
0.01991913
0.020328636
0.020722488
0.021100006
0.021460528
0.021803439
0.022128184
0.022434271
0.022721321
0.022989061
0.023237376
0.023466321
0.023676171
0.02386745
0.024040974
0.024197903
0.024339781
0.024468595
0.024586825
0.024697504
0.02480426
0.024911388
0.025023875
0.025147461
0.025288649
0.025454754
0.025653859
0.025894854
0.026187322
0.026541558
0.026968362
0.027479039
0.028085074
0.028798138
0.029629605
0.03059062
0.031691424
0.032941558
0.034348966
0.035920449
0.037660485
0.039572119
0.041655375
0.04390884
0.046327492
0.048904738
0.051630811
0.054495101
0.057483316
0.060581411
0.063771738
0.067038069
0.070360947
0.073723428
0.077105939
0.080492351
0.083864595
0.087208615
0.090509179
0.093755284
0.096935655
0.10004325
0.10307239
0.10601989
0.10888671
0.11167963
0.11440897
0.11708974
0.11974424
0.12239724
0.12508345
0.12783276
0.13068945
0.13367777
0.13684917
0.14020687
0.14381249
0.14762474
0.15172722
0.15599466
0.16055259
0.16513422
0.16992069
0.17446543
0.17894488
0.18286526
0.18606586
0.18866127
0.18926323
0.00018360911
0.00097704539
0.0014876977
0.0021841951
0.0027562892
0.0034089499
0.0040061553
0.004637734
0.0052437508
0.0058636679
0.0064708589
0.0070826646
0.007687096
0.0082917193
0.0088910024
0.0094881565
0.010080503
0.010669287
0.011253086
0.01183224
0.012405865
0.012973869
0.013535582
0.014090688
0.014638587
0.015178829
0.015710817
0.016234009
0.016747778
0.017251508
0.017744536
0.018226171
0.01869572
0.01915244
0.019595592
0.020024405
0.020438115
0.020835941
0.021217123
0.021580905
0.021926566
0.022253435
0.022560886
0.022848393
0.023115523
0.023361985
0.023587646
0.02379258
0.023977099
0.024141799
0.024287614
0.024415863
0.024528312
0.024627229
0.024715455
0.024796454
0.024874389
0.024954165
0.0250415
0.025142939
0.025265925
0.025418755
0.025610642
0.025851593
0.026152454
0.026524672
0.026980343
0.027531815
0.028191756
0.028972571
0.029886542
0.030945007
0.032158678
0.033536524
0.035086416
0.036813611
0.038721991
0.040811943
0.043082558
0.045528608
0.0481435
0.050916809
0.053837499
0.056890092
0.060059826
0.063327496
0.066676034
0.070084242
0.073534446
0.077005417
0.080480513
0.083940314
0.087370566
0.090755144
0.094083231
0.097343184
0.10052856
0.10363346
0.10665678
0.10959763
0.112464
0.11526557
0.11801713
0.12073884
0.1234532
0.12619034
0.12897623
0.13184835
0.13482715
0.1379545
0.14123233
0.14470788
0.14834533
0.15220416
0.15618066
0.16035742
0.1645243
0.1687881
0.17282105
0.17669174
0.18009016
0.18277841
0.18498937
0.18551921
0.00018830371
0.00097824684
0.0014937431
0.0021898042
0.0027649731
0.0034184968
0.0040181211
0.0046511698
0.0052594026
0.0058811356
0.0064905421
0.0071044197
0.007711172
0.0083181026
0.0089198777
0.0095195815
0.010114638
0.010706232
0.011292995
0.01187524
0.01245211
0.013023501
0.013588758
0.014147557
0.014699303
0.01524354
0.015779668
0.016307134
0.016825302
0.017333536
0.017831157
0.018317446
0.018791677
0.019253069
0.019700837
0.020134155
0.020552193
0.020954097
0.021339018
0.021706103
0.022054517
0.022383462
0.022692171
0.022979962
0.023246228
0.023490491
0.023712416
0.023911857
0.024088899
0.024243901
0.024377551
0.024490924
0.024585542
0.024663442
0.024727255
0.024780258
0.02482647
0.024870698
0.024918627
0.024976841
0.025052917
0.025155374
0.025293775
0.025478577
0.025721229
0.026033881
0.026429492
0.026921359
0.027523251
0.028248705
0.029111272
0.030123499
0.031297413
0.032643112
0.034169677
0.035883224
0.037788587
0.039886537
0.042176761
0.044653733
0.047310898
0.050137087
0.053120797
0.05624514
0.059494609
0.062848095
0.066287677
0.069790052
0.073336748
0.076904508
0.080476115
0.084030441
0.08755299
0.091026417
0.094440027
0.097781482
0.10104478
0.1042236
0.10731803
0.11032709
0.11325655
0.1161182
0.11892509
0.12169602
0.12445179
0.12721919
0.13002183
0.13289193
0.13584787
0.13892428
0.14212314
0.14548094
0.14896754
0.15262448
0.15636677
0.16024543
0.16409547
0.16797019
0.17162872
0.1750644
0.17808811
0.18041098
0.18232762
0.18274822
0.00019359008
0.00097943286
0.0015003893
0.0021957762
0.0027743419
0.003428679
0.0040309109
0.0046654723
0.0052760599
0.0058996978
0.0065114474
0.0071275132
0.0077367198
0.008346094
0.0089505082
0.0095529173
0.010150849
0.010745429
0.011335342
0.011920876
0.012501201
0.013076203
0.01364524
0.014207982
0.014763842
0.015312355
0.015852919
0.016384972
0.016907868
0.017420953
0.017923528
0.018414848
0.018894154
0.019360626
0.01981343
0.020251682
0.020674486
0.021080909
0.02147001
0.021840833
0.022192423
0.022523847
0.022834188
0.023122595
0.023388277
0.023630552
0.023848864
0.024042834
0.024212295
0.024357344
0.024478398
0.024576257
0.024652172
0.024707917
0.024745876
0.024769108
0.024781457
0.024787601
0.024793169
0.024804759
0.024830073
0.024877848
0.024958007
0.025081478
0.025260355
0.025507547
0.025836959
0.026262924
0.026800441
0.027464303
0.028269493
0.029229914
0.030359095
0.031668412
0.033168345
0.034865981
0.036767275
0.038873421
0.041184822
0.043695603
0.046399265
0.049283689
0.052336929
0.05554037
0.058877739
0.062325634
0.065865248
0.069470721
0.073122806
0.076795776
0.080471914
0.084128008
0.087749424
0.091317309
0.094821206
0.098247895
0.10159187
0.10484653
0.10801188
0.11108929
0.11408221
0.11700062
0.11985928
0.12267472
0.12546577
0.12825621
0.13106662
0.13392453
0.13684553
0.13985767
0.14296206
0.14618581
0.14950279
0.15294005
0.15642743
0.15999249
0.16350607
0.16698549
0.170257
0.17327127
0.17592695
0.1779276
0.17959285
0.17997334
0.00019933484
0.00098052932
0.0015074349
0.0022019168
0.0027841414
0.0034392286
0.0040442236
0.0046803186
0.0052933737
0.0059189792
0.0065331722
0.0071515111
0.0077632733
0.008375191
0.0089823529
0.0095875794
0.010188505
0.010786196
0.011379391
0.011968351
0.012552277
0.013131041
0.013704019
0.014270874
0.014831024
0.015383997
0.015929192
0.016466033
0.016993866
0.01751202
0.018019773
0.018516355
0.019000972
0.019472763
0.019930843
0.020374271
0.020802078
0.02121325
0.021606751
0.021981513
0.022336458
0.022670511
0.022982595
0.023271682
0.023536782
0.023776998
0.023991539
0.024179773
0.024341263
0.024475822
0.024583573
0.024665017
0.024721105
0.024753319
0.024763769
0.024755267
0.024731452
0.024696846
0.024657002
0.024618517
0.024589204
0.02457802
0.02459526
0.02465235
0.024762069
0.024938139
0.025195496
0.025549598
0.026016795
0.026613257
0.027355558
0.028259097
0.029339092
0.030608324
0.032078871
0.033758884
0.035655618
0.037770706
0.040105422
0.042653426
0.045408383
0.04835703
0.051487029
0.054777682
0.058211982
0.061763737
0.06541329
0.069131663
0.072898874
0.07668616
0.080475366
0.084240685
0.087967432
0.09163482
0.09523271
0.098746644
0.10217171
0.10550054
0.10873401
0.11187224
0.11492202
0.11788865
0.12078802
0.12363505
0.12644833
0.12924833
0.13205455
0.13489043
0.13777033
0.14071718
0.14373223
0.14683563
0.15000528
0.15325762
0.15653501
0.15984807
0.16309536
0.16626879
0.16924253
0.17193864
0.17431175
0.17606444
0.17752222
0.17783477
0.0002055544
0.00098162587
0.00151498
0.0022083765
0.0027945345
0.0034503385
0.004058267
0.0046959363
0.0053115882
0.0059392417
0.0065559973
0.0071767145
0.0077911566
0.0084057422
0.0090157885
0.0096239756
0.010228049
0.010829014
0.011425665
0.012018237
0.012605962
0.013188701
0.013765845
0.014337052
0.014901746
0.015459453
0.016009566
0.016551503
0.017084597
0.017608163
0.018121458
0.018623684
0.019114013
0.019591542
0.020055337
0.020504393
0.020937671
0.02135407
0.021752456
0.022131647
0.022490434
0.022827591
0.023141873
0.023432063
0.023696961
0.023935439
0.024146453
0.024329095
0.024482635
0.024606576
0.024700715
0.02476522
0.024800705
0.02480832
0.024789861
0.024747847
0.02468567
0.024607656
0.024519241
0.024426986
0.024338796
0.024263828
0.024212754
0.024197508
0.024231601
0.024329619
0.024507625
0.024782302
0.025171507
0.025692931
0.026364954
0.027204647
0.028229168
0.02945289
0.030889748
0.032549099
0.034439742
0.036563792
0.038923581
0.041512199
0.044323553
0.047342939
0.050557689
0.053944536
0.057485793
0.061151855
0.064922292
0.068764311
0.072657333
0.076568884
0.080480573
0.084363422
0.088202936
0.091975956
0.095672913
0.099277819
0.10278656
0.10619093
0.10949253
0.11269102
0.11579424
0.11880744
0.12174223
0.12461633
0.12744472
0.13024732
0.13304065
0.13584556
0.13867422
0.14154545
0.14445999
0.14743228
0.15044331
0.15350141
0.15655916
0.15961549
0.16259136
0.16546333
0.16814289
0.17053962
0.17264816
0.17418703
0.17547309
0.17575949
0.00021215713
0.00098266478
0.0015228739
0.0022150057
0.0028053224
0.0034617975
0.0040727996
0.0047120658
0.0053304195
0.0059601792
0.0065795923
0.007202767
0.0078199855
0.0084373336
0.0090503689
0.009661625
0.010268963
0.010873324
0.011473561
0.012069885
0.012661556
0.013248426
0.013829903
0.014405641
0.014975069
0.015537709
0.016092953
0.016640212
0.017178808
0.017708039
0.018227143
0.018735294
0.019231631
0.019715208
0.020185039
0.020640057
0.021079149
0.021501127
0.021904755
0.022288732
0.022651712
0.022992315
0.02330912
0.02360071
0.023865665
0.02410261
0.024310234
0.024487335
0.024632868
0.024745999
0.024826175
0.024873197
0.02488731
0.024869293
0.02482059
0.024743384
0.024640783
0.024516871
0.024376935
0.024227464
0.024076433
0.023933179
0.023808756
0.023715615
0.023668042
0.023681533
0.023773371
0.023961556
0.024265602
0.024704856
0.025299709
0.026069063
0.027032269
0.028205447
0.029604661
0.031240583
0.033123823
0.035256983
0.037643705
0.040276318
0.043149206
0.046245895
0.049553567
0.053045822
0.056704455
0.060495681
0.064398486
0.068375377
0.072405414
0.076451534
0.080495391
0.084504065
0.088463558
0.092347736
0.096147896
0.099846087
0.10343926
0.10691805
0.11028509
0.11353939
0.11668886
0.11974128
0.12270608
0.12559616
0.12843164
0.13122728
0.13400068
0.1367689
0.13954405
0.14234125
0.14516173
0.14801561
0.15088695
0.15377831
0.15665064
0.15949473
0.16224851
0.16487828
0.16732162
0.16948119
0.17137598
0.17274041
0.17387767
0.17411949
0.00021915401
0.00098371071
0.0015311874
0.0022219134
0.0028166213
0.0034737459
0.0040879714
0.0047288735
0.0053500457
0.0059819843
0.0066041636
0.0072298906
0.0078499993
0.0084702228
0.0090863726
0.0097008287
0.010311572
0.010919481
0.011523468
0.012123717
0.01271952
0.013310722
0.013896746
0.014477244
0.015051653
0.01561949
0.01618015
0.016733034
0.017277456
0.017812699
0.018337981
0.01885245
0.019355212
0.019845278
0.020321611
0.02078308
0.0212285
0.02165659
0.022066011
0.022455339
0.022823089
0.023167716
0.023487615
0.023781161
0.024046699
0.024282594
0.024487245
0.024659135
0.024796878
0.024899273
0.02496538
0.024994592
0.024986743
0.024942192
0.024861975
0.024747888
0.024602693
0.024430176
0.024235419
0.024024786
0.023806282
0.02358939
0.023385535
0.023207682
0.023070931
0.022991737
0.02298871
0.023081273
0.023290788
0.023638428
0.024146866
0.024837057
0.025730881
0.026846431
0.028202275
0.029810573
0.031684105
0.033826001
0.036241511
0.038922032
0.041862606
0.045044511
0.048454961
0.052063648
0.055852073
0.05978126
0.063829909
0.067954704
0.072134744
0.076327281
0.080514504
0.084658618
0.088746643
0.092748771
0.096657665
0.10045295
0.10413308
0.10768726
0.11111953
0.11442798
0.11762194
0.12070656
0.12369706
0.12660091
0.12943499
0.13221794
0.13496309
0.1376874