/*--------------------------------*- C++ -*----------------------------------*\
| =========                 |                                                 |
| \\      /  F ield         | foam-extend: Open Source CFD                    |
|  \\    /   O peration     | Version:     4.1                                |
|   \\  /    A nd           | Web:         http://www.foam-extend.org         |
|    \\/     M anipulation  |                                                 |
\*---------------------------------------------------------------------------*/
FoamFile
{
    version     2.0;
    format      ascii;
    class       surfaceScalarField;
    location    "0.5";
    object      phi;
}
// * * * * * * * * * * * * * * * * * * * * * * * * * * * * * * * * * * * * * //

dimensions      [0 3 -1 0 0 0 0];

internalField   nonuniform List<scalar> 
31929
(
-7.0899532e-05
9.4877637e-09
-7.0902681e-05
3.1489548e-09
-7.0906003e-05
3.3216228e-09
-7.0908699e-05
2.6956928e-09
-7.0910778e-05
2.0798572e-09
-7.0913016e-05
2.2376289e-09
-7.0914723e-05
1.7068877e-09
-7.0916617e-05
1.893812e-09
-7.0918182e-05
1.5657622e-09
-7.0919877e-05
1.6946121e-09
-7.0921404e-05
1.5271546e-09
-7.0923027e-05
1.62291e-09
-7.0924596e-05
1.5686517e-09
-7.092626e-05
1.6642449e-09
-7.0927955e-05
1.6947512e-09
-7.092977e-05
1.8156458e-09
-7.093169e-05
1.9191377e-09
-7.0933775e-05
2.0850393e-09
-7.0936036e-05
2.2614322e-09
-7.0938526e-05
2.4899982e-09
-7.0941274e-05
2.7475923e-09
-7.0944331e-05
3.057426e-09
-7.0947742e-05
3.4113495e-09
-7.0951567e-05
3.8242124e-09
-7.0955863e-05
4.2960876e-09
-7.0960701e-05
4.8386651e-09
-7.0966158e-05
5.4570589e-09
-7.0972321e-05
6.1625531e-09
-7.0979285e-05
6.9639189e-09
-7.0987159e-05
7.8736281e-09
-7.0996062e-05
8.9035077e-09
-7.1006131e-05
1.0068453e-08
-7.1017514e-05
1.1383164e-08
-7.1030379e-05
1.2865152e-08
-7.1044912e-05
1.4532815e-08
-7.1061318e-05
1.640647e-08
-7.1079826e-05
1.8508064e-08
-7.1100687e-05
2.0861099e-08
-7.1124178e-05
2.3490904e-08
-7.1150602e-05
2.6423974e-08
-7.1180291e-05
2.9688646e-08
-7.1213604e-05
3.3313512e-08
-7.1250933e-05
3.7329001e-08
-7.1292698e-05
4.1764743e-08
-7.1339349e-05
4.6650749e-08
-7.1391365e-05
5.201567e-08
-7.1449251e-05
5.7886421e-08
-7.1513538e-05
6.4286956e-08
-7.1584775e-05
7.1236967e-08
-7.1663526e-05
7.8750844e-08
-7.1750362e-05
8.6835854e-08
-7.1845852e-05
9.5490592e-08
-7.1950556e-05
1.0470323e-07
-7.2065005e-05
1.1444968e-07
-7.2189697e-05
1.246914e-07
-7.2325071e-05
1.3537414e-07
-7.2471497e-05
1.4642584e-07
-7.2629252e-05
1.5775542e-07
-7.2798504e-05
1.6925184e-07
-7.2979288e-05
1.8078378e-07
-7.3171487e-05
1.9219932e-07
-7.3374815e-05
2.033279e-07
-7.3588797e-05
2.1398165e-07
-7.3812755e-05
2.2395867e-07
-7.4045802e-05
2.3304676e-07
-7.4286831e-05
2.4102849e-07
-7.4534518e-05
2.4768692e-07
-7.4787329e-05
2.5281126e-07
-7.5043533e-05
2.5620442e-07
-7.5301223e-05
2.5768958e-07
-7.555834e-05
2.5711673e-07
-7.581271e-05
2.5436985e-07
-7.6062082e-05
2.4937204e-07
-7.6304172e-05
2.4209078e-07
-7.6536713e-05
2.3254052e-07
-7.6757499e-05
2.2078624e-07
-7.6964438e-05
2.0693921e-07
-7.7155598e-05
1.9115979e-07
-7.7329243e-05
1.7364458e-07
-7.7483874e-05
1.5463155e-07
-7.7618247e-05
1.3437269e-07
-7.7731407e-05
1.1315952e-07
-7.7822679e-05
9.1272249e-08
-7.7891762e-05
6.9082769e-08
-7.793903e-05
4.7268657e-08
-7.7965454e-05
2.642346e-08
-7.7973126e-05
7.6718805e-09
-7.7963042e-05
-1.0083463e-08
-7.7932909e-05
-3.0133658e-08
-7.7880867e-05
-5.2041906e-08
-7.7806928e-05
-7.3938482e-08
-7.7711566e-05
-9.5362532e-08
-7.7595453e-05
-1.1611306e-07
-7.74591e-05
-1.3635322e-07
-7.730259e-05
-1.5650912e-07
-7.7125327e-05
-1.7726344e-07
-7.6925828e-05
-1.9949911e-07
-7.6701734e-05
-2.2409425e-07
-7.645017e-05
-2.5156359e-07
-7.6168894e-05
-2.812759e-07
-7.5858172e-05
-3.1072248e-07
-7.5524242e-05
-3.3392964e-07
-7.5183385e-05
-3.4085769e-07
-7.4873182e-05
-3.10203e-07
-7.465817e-05
-2.1501188e-07
-7.4666077e-05
7.9075535e-09
-7.5052772e-05
3.8669463e-07
-7.593565e-05
8.8287823e-07
-7.7425439e-05
1.4897884e-06
-7.9663102e-05
2.2376637e-06
-8.2808318e-05
3.1452154e-06
-8.7062238e-05
4.2539201e-06
-9.2654128e-05
5.5918897e-06
-9.988439e-05
7.230262e-06
-0.00010907464
9.1902514e-06
-0.00012063391
1.1559272e-05
-0.00013491457
1.4280656e-05
-0.00015236245
1.7447877e-05
-0.00017315737
2.0794923e-05
-0.00019769287
2.4535497e-05
-0.00022539605
2.7703187e-05
-0.00025688391
3.1487854e-05
-0.00028731367
3.0429765e-05
3.5266927e-05
-0.0001910144
2.1156271e-08
-0.00019102387
1.262471e-08
-0.00019103339
1.2840897e-08
-0.00019104238
1.1685494e-08
-0.00019105141
1.1103441e-08
-0.00019106054
1.1368844e-08
-0.00019106989
1.1054061e-08
-0.00019107961
1.1617589e-08
-0.00019108974
1.1692692e-08
-0.00019110041
1.2372697e-08
-0.00019111168
1.2790582e-08
-0.00019112365
1.3598901e-08
-0.0001911364
1.4314447e-08
-0.00019115003
1.5296361e-08
-0.00019116463
1.6293132e-08
-0.00019118031
1.749687e-08
-0.00019119718
1.8784191e-08
-0.00019121535
2.0258982e-08
-0.00019123496
2.1866187e-08
-0.00019125613
2.3665587e-08
-0.00019127902
2.5638422e-08
-0.00019130379
2.7823915e-08
-0.0001913306
3.0223236e-08
-0.00019135964
3.2867381e-08
-0.00019139112
3.5769448e-08
-0.00019142524
3.895871e-08
-0.00019146224
4.2456512e-08
-0.00019150237
4.6293959e-08
-0.0001915459
5.0499107e-08
-0.00019159314
5.5107028e-08
-0.00019164438
6.0151826e-08
-0.00019169999
6.5673952e-08
-0.00019176032
7.1714177e-08
-0.00019182577
7.8317287e-08
-0.00019189677
8.5531774e-08
-0.00019197377
9.3407504e-08
-0.00019205726
1.0199921e-07
-0.00019214777
1.1136175e-07
-0.00019224583
1.2155492e-07
-0.00019235204
1.3263698e-07
-0.00019246702
1.4467071e-07
-0.00019259143
1.5771469e-07
-0.00019272593
1.7183036e-07
-0.00019287124
1.8707341e-07
-0.00019302808
2.0349652e-07
-0.00019319721
2.2114523e-07
-0.00019337938
2.4005616e-07
-0.00019357535
2.6025425e-07
-0.00019378586
2.8174878e-07
-0.00019401164
3.0453093e-07
-0.00019425337
3.2856923e-07
-0.00019451169
3.5380576e-07
-0.00019478714
3.8015184e-07
-0.00019508017
4.0748437e-07
-0.00019539112
4.3564041e-07
-0.00019572016
4.6441515e-07
-0.00019606729
4.9355788e-07
-0.00019643231
5.227702e-07
-0.00019681476
5.5170509e-07
-0.00019721395
5.7996854e-07
-0.00019762887
6.0712018e-07
-0.00019805822
6.3268067e-07
-0.00019850038
6.5613741e-07
-0.00019895337
6.7695495e-07
-0.00019941491
6.9458655e-07
-0.00019988237
7.0848861e-07
-0.00020035282
7.1813723e-07
-0.00020082305
7.2304284e-07
-0.00020128962
7.2277014e-07
-0.00020174889
7.1695453e-07
-0.00020219709
7.0531791e-07
-0.0002026304
6.8768475e-07
-0.00020304502
6.6399403e-07
-0.00020343724
6.3430831e-07
-0.00020380352
5.9881886e-07
-0.00020414058
5.5784936e-07
-0.00020444549
5.1184619e-07
-0.00020471571
4.6137741e-07
-0.00020494917
4.0710987e-07
-0.00020514435
3.4980527e-07
-0.00020530026
2.9028562e-07
-0.00020541654
2.2944358e-07
-0.00020549347
1.6819591e-07
-0.00020553212
1.0773132e-07
-0.00020553384
4.8992333e-08
-0.00020550006
-7.3511178e-09
-0.00020542775
-6.4646847e-08
-0.00020531473
-1.2309539e-07
-0.00020516509
-1.797763e-07
-0.0002049828
-2.3433521e-07
-0.00020477114
-2.8559834e-07
-0.00020453331
-3.3319539e-07
-0.00020427233
-3.770932e-07
-0.00020399089
-4.1778385e-07
-0.00020369119
-4.562122e-07
-0.0002033748
-4.9365712e-07
-0.00020304294
-5.3135846e-07
-0.00020269734
-5.6969189e-07
-0.0002023422
-6.0670234e-07
-0.0002019877
-6.357798e-07
-0.00020165578
-6.4264415e-07
-0.00020138938
-6.0033154e-07
-0.0002012614
-4.6883678e-07
-0.00020138037
-1.9122411e-07
-0.00020188606
2.9067459e-07
-0.00020287501
9.9685794e-07
-0.00020444605
1.957729e-06
-0.00020676527
3.202098e-06
-0.00020998714
4.711663e-06
-0.0002142298
6.4803196e-06
-0.00021957243
8.4878486e-06
-0.00022605775
1.0739243e-05
-0.00023368797
1.3222111e-05
-0.00024243135
1.5973636e-05
-0.00025220613
1.8965035e-05
-0.00026288799
2.2241133e-05
-0.00027425938
2.5652042e-05
-0.00028603324
2.9221742e-05
-0.00029771738
3.2479064e-05
-0.00030873527
3.5553385e-05
-0.00031807623
3.7044145e-05
-0.00032467337
3.8084992e-05
-0.00032739671
3.3153103e-05
3.0450821e-05
-0.00026811267
3.5059139e-08
-0.00026812707
2.7026566e-08
-0.00026814202
2.778839e-08
-0.00026815709
2.6759513e-08
-0.00026817291
2.6915602e-08
-0.00026818926
2.7725786e-08
-0.00026820656
2.8345437e-08
-0.00026822475
2.98119e-08
-0.00026824409
3.1036373e-08
-0.00026826464
3.2924078e-08
-0.00026828659
3.4736136e-08
-0.00026831004
3.7046942e-08
-0.00026833516
3.9434673e-08
-0.00026836209
4.2229949e-08
-0.00026839101
4.5214156e-08
-0.00026842209
4.8573644e-08
-0.00026845551
5.2206362e-08
-0.00026849147
5.6221494e-08
-0.00026853019
6.05812e-08
-0.00026857188
6.5356548e-08
-0.00026861679
7.0545184e-08
-0.00026866516
7.6201422e-08
-0.00026871729
8.23435e-08
-0.00026877344
8.9020374e-08
-0.00026883393
9.6263518e-08
-0.0002688991
1.041226e-07
-0.00026896928
1.1263889e-07
-0.00026904485
1.2186605e-07
-0.00026912621
1.3185357e-07
-0.00026921376
1.42661e-07
-0.00026930795
1.5434508e-07
-0.00026940925
1.6697181e-07
-0.00026951814
1.80607e-07
-0.00026963514
1.9531919e-07
-0.0002697608
2.1118364e-07
-0.00026989566
2.2827283e-07
-0.00027004033
2.466673e-07
-0.00027019541
2.6644205e-07
-0.00027036154
2.8767976e-07
-0.00027053935
3.1045403e-07
-0.00027072953
3.3484492e-07
-0.00027093273
3.6091853e-07
-0.00027114964
3.8874312e-07
-0.00027138094
4.1837183e-07
-0.00027162729
4.4984792e-07
-0.00027188935
4.8319797e-07
-0.00027216772
5.1842856e-07
-0.00027246299
5.5552235e-07
-0.00027277567
5.9443119e-07
-0.00027310621
6.3507291e-07
-0.00027345497
6.7732441e-07
-0.00027382218
7.210161e-07
-0.00027420795
7.6592583e-07
-0.00027461224
8.1177466e-07
-0.00027503482
8.5821869e-07
-0.00027547525
9.0484816e-07
-0.00027593288
9.5118263e-07
-0.00027640678
9.9667028e-07
-0.00027689576
1.0406884e-06
-0.00027739834
1.0825492e-06
-0.00027791272
1.1215023e-06
-0.00027843679
1.1567492e-06
-0.00027896811
1.1874549e-06
-0.00027950392
1.2127663e-06
-0.00028004117
1.2318318e-06
-0.0002805765
1.243826e-06
-0.00028110634
1.2479762e-06
-0.00028162689
1.243586e-06
-0.00028213418
1.2300665e-06
-0.00028262419
1.2069608e-06
-0.00028309284
1.173968e-06
-0.00028353612
1.1309655e-06
-0.00028395015
1.0780254e-06
-0.00028433127
1.0154255e-06
-0.0002846761
9.4365403e-07
-0.00028498166
8.6341113e-07
-0.00028524541
7.7559169e-07
-0.00028546531
6.8127853e-07
-0.00028563991
5.817046e-07
-0.00028576834
4.7824261e-07
-0.00028585039
3.7233585e-07
-0.00028588647
2.6552414e-07
-0.00028587754
1.5926636e-07
-0.000285825
5.5183627e-08
-0.00028572933
-4.6676078e-08
-0.00028558966
-1.4702312e-07
-0.00028541042
-2.4388721e-07
-0.00028519902
-3.3449558e-07
-0.00028496123
-4.1756144e-07
-0.00028470339
-4.9217825e-07
-0.00028443161
-5.5737534e-07
-0.00028415242
-6.1238466e-07
-0.00028387273
-6.5678309e-07
-0.00028359992
-6.9059107e-07
-0.00028334195
-7.1419152e-07
-0.00028310756
-7.2804444e-07
-0.00028290689
-7.3202688e-07
-0.0002827524
-7.2418678e-07
-0.00028266043
-6.9866309e-07
-0.00028265354
-6.4267104e-07
-0.00028276259
-5.3359403e-07
-0.00028302608
-3.3684407e-07
-0.00028349277
-2.1450011e-09
-0.00028420058
5.1658785e-07
-0.00028517774
1.2678252e-06
-0.00028649166
2.3107821e-06
-0.00028822824
3.6943111e-06
-0.00029046348
5.4373407e-06
-0.00029326068
7.5088595e-06
-0.00029665067
9.870311e-06
-0.00030062879
1.2465965e-05
-0.00030514893
1.5259383e-05
-0.00031012227
1.8195454e-05
-0.00031541367
2.1265038e-05
-0.0003208431
2.4394457e-05
-0.00032618191
2.7579948e-05
-0.00033115275
3.0622881e-05
-0.0003354282
3.3497192e-05
-0.00033862298
3.5673844e-05
-0.00034030995
3.7240354e-05
-0.00034004026
3.6774454e-05
-0.00033722969
3.5274427e-05
-0.00033228805
2.8211459e-05
2.0743572e-05
-0.00030704486
5.0933393e-08
-0.00030706273
4.4898332e-08
-0.00030708169
4.6749615e-08
-0.00030710152
4.659048e-08
-0.00030712263
4.8024221e-08
-0.00030714482
4.9917093e-08
-0.00030716849
5.2014844e-08
-0.0003071936
5.492283e-08
-0.00030722045
5.7882406e-08
-0.0003072491
6.1575774e-08
-0.0003072798
6.5432673e-08
-0.00030731267
6.9924909e-08
-0.00030734796
7.4717305e-08
-0.00030738583
8.0098958e-08
-0.00030742651
8.5899106e-08
-0.00030747023
9.2292764e-08
-0.00030751723
9.9208215e-08
-0.00030756777
1.067585e-07
-0.00030762212
1.149287e-07
-0.00030768056
1.2380181e-07
-0.00030774341
1.3339568e-07
-0.00030781099
1.437812e-07
-0.00030788364
1.5499618e-07
-0.00030796173
1.6710908e-07
-0.00030804564
1.8017113e-07
-0.00030813577
1.9425343e-07
-0.00030823255
2.0941727e-07
-0.00030833642
2.2573891e-07
-0.00030844786
2.4328776e-07
-0.00030856734
2.6214632e-07
-0.00030869539
2.8239049e-07
-0.00030883252
3.0410789e-07
-0.0003089793
3.2738396e-07
-0.00030913628
3.5230334e-07
-0.00030930406
3.7895999e-07
-0.00030948323
4.0743766e-07
-0.00030967439
4.3783066e-07
-0.00030987817
4.7021843e-07
-0.00031009518
5.0468999e-07
-0.00031032604
5.4131345e-07
-0.00031057135
5.801644e-07
-0.00031083173
6.2129021e-07
-0.00031110772
6.6473817e-07
-0.00031139988
7.1052756e-07
-0.00031170869
7.5865828e-07
-0.00031203459
8.0910143e-07
-0.00031237796
8.6179462e-07
-0.00031273907
9.1663746e-07
-0.00031311812
9.7348197e-07
-0.00031351518
1.0321295e-06
-0.00031393018
1.0923221e-06
-0.0003143629
1.1537364e-06
-0.00031481295
1.2159766e-06
-0.00031527975
1.2785712e-06
-0.00031576249
1.3409631e-06
-0.00031626015
1.4025119e-06
-0.00031677146
1.4624891e-06
-0.00031729487
1.5200807e-06
-0.00031782857
1.57439e-06
-0.00031837047
1.624449e-06
-0.00031891819
1.6692234e-06
-0.00031946908
1.7076356e-06
-0.00032002021
1.7385813e-06
-0.00032056839
1.7609554e-06
-0.00032111024
1.7736803e-06
-0.00032164215
1.7757375e-06
-0.00032216038
1.7662042e-06
-0.00032266108
1.744282e-06
-0.00032314035
1.7093376e-06
-0.00032359432
1.6609333e-06
-0.00032401921
1.5988549e-06
-0.00032441138
1.523139e-06
-0.00032476745
1.4340905e-06
-0.00032508432
1.3322928e-06
-0.00032535927
1.2186111e-06
-0.00032559005
1.0941903e-06
-0.00032577489
9.6042977e-07
-0.00032591258
8.1897008e-07
-0.00032600252
6.7164551e-07
-0.00032604473
5.204535e-07
-0.00032603989
3.6749682e-07
-0.00032598925
2.1488437e-07
-0.00032589482
6.4827868e-08
-0.00032575824
-8.1391439e-08
-0.00032558233
-2.2258713e-07
-0.00032537367
-3.5568524e-07
-0.00032514019
-4.7736354e-07
-0.00032488917
-5.8551709e-07
-0.00032462797
-6.7876118e-07
-0.00032436488
-7.5526901e-07
-0.00032410922
-8.1303136e-07
-0.00032387138
-8.5022563e-07
-0.00032366291
-8.6525991e-07
-0.00032349659
-8.5691097e-07
-0.00032338648
-8.2429684e-07
-0.00032334788
-7.6664525e-07
-0.00032339718
-6.82723e-07
-0.00032355165
-5.6972012e-07
-0.00032382893
-4.2137927e-07
-0.00032424558
-2.2602859e-07
-0.00032481558
3.6408914e-08
-0.00032554442
3.9199758e-07
-0.00032642549
8.7892762e-07
-0.00032745839
1.5494838e-06
-0.00032865347
2.4629082e-06
-0.00033002299
3.6803024e-06
-0.00033157002
5.2413342e-06
-0.00033328518
7.152509e-06
-0.00033515823
9.381905e-06
-0.00033716974
1.1881823e-05
-0.00033928313
1.4579354e-05
-0.00034143637
1.7412624e-05
-0.00034354007
2.0299152e-05
-0.00034546992
2.3194884e-05
-0.0003470727
2.5997243e-05
-0.00034816133
2.8668576e-05
-0.00034853564
3.0997184e-05
-0.00034797863
3.2940188e-05
-0.00034631175
3.4006962e-05
-0.000343366
3.4294607e-05
-0.00033921368
3.2622131e-05
-0.00033380414
2.9864883e-05
-0.0003284552
2.286252e-05
1.4868975e-05
-0.00032306916
6.8537159e-08
-0.00032308942
6.5155795e-08
-0.00032311094
6.8268235e-08
-0.00032313389
6.9537313e-08
-0.00032315842
7.2555085e-08
-0.00032318446
7.5956949e-08
-0.00032321232
7.9880719e-08
-0.00032324203
8.4627509e-08
-0.00032327385
8.9708813e-08
-0.00032330791
9.5626585e-08
-0.00032334443
1.019615e-07
-0.00032338361
1.0909802e-07
-0.00032342567
1.1678311e-07
-0.00032347085
1.2527067e-07
-0.00032351938
1.3443746e-07
-0.00032357154
1.4445049e-07
-0.0003236276
1.552693e-07
-0.00032368786
1.6701306e-07
-0.00032375262
1.7969095e-07
-0.00032382222
1.9339963e-07
-0.000323897
2.0817822e-07
-0.00032397733
2.2411548e-07
-0.00032406361
2.4126949e-07
-0.00032415623
2.5972902e-07
-0.00032425562
2.795651e-07
-0.00032436224
3.0087035e-07
-0.00032447655
3.2372528e-07
-0.00032459904
3.4822787e-07
-0.00032473021
3.7446547e-07
-0.00032487061
4.0254134e-07
-0.00032502076
4.32547e-07
-0.00032518124
4.6458771e-07
-0.00032535262
4.987634e-07
-0.00032553549
5.3516815e-07
-0.00032573044
5.7390744e-07
-0.00032593807
6.150668e-07
-0.00032615898
6.5874434e-07
-0.00032639377
7.0501135e-07
-0.00032664303
7.5394983e-07
-0.00032690732
8.0560634e-07
-0.0003271872
8.6003503e-07
-0.00032748315
9.1724474e-07
-0.00032779565
9.7724093e-07
-0.00032812511
1.0399859e-06
-0.00032847186
1.1054114e-06
-0.00032883617
1.173407e-06
-0.00032921819
1.2438139e-06
-0.00032961797
1.3164205e-06
-0.00033003544
1.3909501e-06
-0.00033047037
1.4670592e-06
-0.00033092237
1.5443273e-06
-0.00033139089
1.6222513e-06
-0.00033187515
1.7002379e-06
-0.00033237418
1.7776033e-06
-0.00033288678
1.8535617e-06
-0.0003334115
1.9272319e-06
-0.00033394665
1.9976345e-06
-0.00033449026
2.0636975e-06
-0.00033504014
2.1242635e-06
-0.0003355938
2.1781067e-06
-0.00033614851
2.2239412e-06
-0.00033670133
2.2604519e-06
-0.00033724907
2.2863169e-06
-0.00033778835
2.3002404e-06
-0.00033831566
2.3009873e-06
-0.00033882734
2.2874217e-06
-0.00033931969
2.2585512e-06
-0.00033978897
2.2135599e-06
-0.00034023148
2.1518553e-06
-0.00034064365
2.0731034e-06
-0.00034102206
1.9772588e-06
-0.00034136351
1.864594e-06
-0.00034166514
1.7357176e-06
-0.00034192443
1.5915819e-06
-0.0003421393
1.4334833e-06
-0.00034230817
1.263057e-06
-0.00034242998
1.0822438e-06
-0.00034250429
8.9327376e-07
-0.00034253125
6.9860536e-07
-0.00034251169
5.0090145e-07
-0.00034244712
3.029215e-07
-0.00034233979
1.0756025e-07
-0.0003421924
-8.2565196e-08
-0.00034200894
-2.6485161e-07
-0.00034179585
-4.3568167e-07
-0.00034156027
-5.9126155e-07
-0.00034130888
-7.2875612e-07
-0.000341049
-8.453947e-07
-0.00034078951
-9.3825341e-07
-0.00034054053
-1.004252e-06
-0.00034031338
-1.0401729e-06
-0.00034012079
-1.0428222e-06
-0.0003399768
-1.0092431e-06
-0.00033989681
-9.3690652e-07
-0.00033989721
-8.2389946e-07
-0.00033999494
-6.6891606e-07
-0.00034020667
-4.7098991e-07
-0.00034054758
-2.2881229e-07
-0.00034102965
6.0693145e-08
-0.00034165872
4.0304401e-07
-0.00034243298
8.1066449e-07
-0.00034334741
1.3064345e-06
-0.00034439153
1.9230446e-06
-0.00034554779
2.7057459e-06
-0.00034678996
3.7050747e-06
-0.00034807582
4.9661642e-06
-0.00034935517
6.5206864e-06
-0.00035057968
8.3770193e-06
-0.00035170444
1.050666e-05
-0.00035268508
1.2862461e-05
-0.00035347662
1.5370901e-05
-0.00035402679
1.7962792e-05
-0.00035427496
2.0547319e-05
-0.0003541447
2.3064624e-05
-0.00035355104
2.5403585e-05
-0.00035239599
2.7513523e-05
-0.00035059406
2.9195253e-05
-0.00034806341
3.040954e-05
-0.00034478965
3.07332e-05
-0.00034076078
3.0265738e-05
-0.00033619784
2.8059197e-05
-0.00033113809
2.4805128e-05
-0.00032665244
1.8376873e-05
1.0797133e-05
-0.00032860367
8.7268534e-08
-0.0003286252
8.6685275e-08
-0.00032864802
9.1085277e-08
-0.00032867259
9.4106997e-08
-0.00032869887
9.8842026e-08
-0.00032872693
1.040149e-07
-0.00032875699
1.0994103e-07
-0.00032878912
1.1675855e-07
-0.00032882358
1.2416586e-07
-0.0003288605
1.3254174e-07
-0.00032890012
1.4158598e-07
-0.00032894264
1.5161895e-07
-0.00032898832
1.6245769e-07
-0.00032903738
1.7433087e-07
-0.0003290901
1.8715834e-07
-0.00032914675
2.0110379e-07
-0.00032920764
2.1615661e-07
-0.00032927307
2.3244453e-07
-0.00032934338
2.500006e-07
-0.00032941892
2.6893658e-07
-0.00032950005
2.8931293e-07
-0.00032958717
3.112372e-07
-0.00032968069
3.3478775e-07
-0.00032978104
3.6007409e-07
-0.00032988866
3.8718683e-07
-0.00033000403
4.1624008e-07
-0.00033012763
4.4733283e-07
-0.00033025999
4.8058413e-07
-0.00033040162
5.1609792e-07
-0.00033055308
5.5399677e-07
-0.00033071492
5.9438559e-07
-0.00033088771
6.3738482e-07
-0.00033107206
6.8310572e-07
-0.00033126854
7.3164784e-07
-0.00033147775
7.8312384e-07
-0.0003317003
8.3761557e-07
-0.00033193678
8.9521904e-07
-0.00033218775
9.5599012e-07
-0.0003324538
1.0199962e-06
-0.00033273545
1.0872531e-06
-0.0003330332
1.1577839e-06
-0.0003333475
1.231548e-06
-0.00033367876
1.3084973e-06
-0.0003340273
1.3885244e-06
-0.00033439336
1.4714796e-06
-0.00033477711
1.5571568e-06
-0.00033517859
1.645286e-06
-0.00033559769
1.7355295e-06
-0.00033603421
1.8274673e-06
-0.00033648775
1.9205965e-06
-0.00033695774
2.0143204e-06
-0.00033744343
2.1079434e-06
-0.00033794386
2.2006644e-06
-0.00033845784
2.2915784e-06
-0.00033898394
2.3796653e-06
-0.00033952051
2.4638009e-06
-0.00034006563
2.5427563e-06
-0.00034061714
2.6152077e-06
-0.00034117262
2.6797474e-06
-0.00034172943
2.7349077e-06
-0.00034228466
2.7791718e-06
-0.00034283522
2.8110132e-06
-0.00034337782
2.8289232e-06
-0.00034390903
2.8314502e-06
-0.00034442529
2.8172403e-06
-0.00034492295
2.7850826e-06
-0.00034539836
2.7339591e-06
-0.00034584788
2.6630809e-06
-0.00034626796
2.571942e-06
-0.00034665522
2.4603565e-06
-0.00034700645
2.3284902e-06
-0.00034731875
2.1768925e-06
-0.00034758954
2.0065123e-06
-0.00034781666
1.8187046e-06
-0.00034799841
1.6152265e-06
-0.00034813358
1.3982296e-06
-0.00034822155
1.1702185e-06
-0.00034826231
9.3403157e-07
-0.00034825648
6.9277323e-07
-0.00034820536
4.4978431e-07
-0.00034811099
2.085477e-07
-0.00034797613
-2.7296794e-08
-0.00034780446
-2.5423796e-07
-0.00034760113
-4.6818048e-07
-0.00034737198
-6.6483159e-07
-0.00034712289
-8.4035617e-07
-0.00034686078
-9.9085873e-07
-0.00034659379
-1.1123862e-06
-0.00034633106
-1.2009859e-06
-0.00034608296
-1.2523536e-06
-0.0003458611
-1.2620349e-06
-0.00034567834
-1.2255746e-06
-0.00034554876
-1.1388267e-06
-0.00034548741
-9.9825985e-07
-0.00034550993
-8.0137084e-07
-0.00034563194
-5.4690657e-07
-0.00034586798
-2.349503e-07
-0.00034623028
1.3347949e-07
-0.00034672674
5.5715923e-07
-0.0003473611
1.0373971e-06
-0.00034813109
1.5806609e-06
-0.00034902601
2.2013511e-06
-0.00035002497
2.9220108e-06
-0.00035109262
3.7733922e-06
-0.00035218029
4.7927436e-06
-0.00035323163
6.0175062e-06
-0.00035418393
7.4729876e-06
-0.00035497237
9.165456e-06
-0.00035553893
1.1073223e-05
-0.00035583375
1.3157277e-05
-0.0003558159
1.5353055e-05
-0.00035544908
1.7595969e-05
-0.00035470093
1.9799165e-05
-0.00035353586
2.1899559e-05
-0.00035192085
2.3788573e-05
-0.00034981922
2.5411899e-05
-0.00034721432
2.6590347e-05
-0.00034409522
2.7290438e-05
-0.00034052227
2.716026e-05
-0.00033654918
2.6292643e-05
-0.00033244974
2.3959753e-05
-0.00032833067
2.0686058e-05
-0.00032501895
1.5065153e-05
8.3587876e-06
-0.00033024472
1.0665454e-07
-0.00033026676
1.0871666e-07
-0.00033029002
1.1434823e-07
-0.00033031517
1.1925925e-07
-0.00033034206
1.2572814e-07
-0.00033037084
1.3280297e-07
-0.00033040169
1.407894e-07
-0.00033043472
1.4978656e-07
-0.00033047015
1.5959748e-07
-0.00033050814
1.7053257e-07
-0.00033054893
1.8237684e-07
-0.00033059273
1.9540994e-07
-0.00033063977
2.0950516e-07
-0.00033069032
2.2487605e-07
-0.00033074464
2.4147995e-07
-0.00033080302
2.5948178e-07
-0.00033086576
2.7889856e-07
-0.00033093318
2.9986879e-07
-0.00033100563
3.2244854e-07
-0.00033108346
3.4676582e-07
-0.00033116705
3.7290217e-07
-0.0003312568
4.0098453e-07
-0.00033135312
4.3111147e-07
-0.00033145646
4.6341355e-07
-0.00033156727
4.9800084e-07
-0.00033168604
5.35009e-07
-0.00033181327
5.7455528e-07
-0.00033194946
6.1677962e-07
-0.00033209517
6.6180203e-07
-0.00033225093
7.0976395e-07
-0.00033241733
7.6078284e-07
-0.00033259494
8.1499351e-07
-0.00033278435
8.7251737e-07
-0.00033298616
9.3345802e-07
-0.00033320097
9.9793381e-07
-0.00033342938
1.0660209e-06
-0.00033367197
1.1378111e-06
-0.00033392932
1.2133423e-06
-0.00033420199
1.2926646e-06
-0.0003344905
1.3757597e-06
-0.00033479533
1.4626166e-06
-0.00033511692
1.553141e-06
-0.00033545565
1.6472274e-06
-0.00033581182
1.7446944e-06
-0.00033618565
1.8453061e-06
-0.00033657725
1.9487558e-06
-0.00033698662
2.0546576e-06
-0.00033741363
2.1625427e-06
-0.00033785801
2.2718428e-06
-0.0003383193
2.3818907e-06
-0.00033879689
2.491909e-06
-0.00033928995
2.6010056e-06
-0.00033979746
2.708168e-06
-0.00034031814
2.812267e-06
-0.00034085053
2.9120465e-06
-0.00034139286
3.006138e-06
-0.00034194317
3.0930633e-06
-0.00034249921
3.1712478e-06
-0.0003430585
3.2390363e-06
-0.00034361831
3.2947225e-06
-0.00034417571
3.3365636e-06
-0.00034472752
3.3628281e-06
-0.00034527042
3.3718271e-06
-0.00034580094
3.3619614e-06
-0.00034631546
3.3317675e-06
-0.00034681035
3.2799687e-06
-0.00034728192
3.2055314e-06
-0.00034772655
3.1077051e-06
-0.00034814068
2.986081e-06
-0.00034852096
2.8406331e-06
-0.00034886422
2.6717509e-06
-0.0003491676
2.4802729e-06
-0.00034942859
2.2675016e-06
-0.0003496451
2.035209e-06
-0.0003498155
1.7856273e-06
-0.00034993871
1.5214401e-06
-0.00035001422
1.245731e-06
-0.00035004215
9.6196393e-07
-0.00035002328
6.7390488e-07
-0.00034995909
3.8558999e-07
-0.00034985179
1.0124894e-07
-0.00034970434
-1.7475236e-07
-0.00034952072
-4.3785577e-07
-0.00034930566
-6.8323425e-07
-0.00034906434
-9.0615949e-07
-0.00034880278
-1.1019113e-06
-0.00034852783
-1.2658075e-06
-0.00034824724
-1.3929827e-06
-0.00034796982
-1.4784041e-06
-0.00034770541
-1.5167655e-06
-0.00034746479
-1.5026498e-06
-0.00034725971
-1.4306587e-06
-0.00034710269
-1.2958435e-06
-0.00034700687
-1.0940828e-06
-0.00034698554
-8.2269746e-07
-0.0003470516
-4.8084923e-07
-0.00034721668
-6.9868266e-08
-0.00034749018
4.0697761e-07
-0.00034787845
9.4543222e-07
-0.00034838346
1.5424087e-06
-0.00034900027
2.1974676e-06
-0.00034971437
2.9154523e-06
-0.00035050086
3.708503e-06
-0.00035132473
4.5972552e-06
-0.00035213987
5.6078885e-06
-0.00035288932
6.7669591e-06
-0.00035351044
8.0941024e-06
-0.00035394156
9.5965779e-06
-0.00035412771
1.125937e-05
-0.00035402328
1.3052848e-05
-0.00035359476
1.4924534e-05
-0.00035281818
1.6819389e-05
-0.0003516793
1.8660291e-05
-0.0003501673
2.0387553e-05
-0.00034827915
2.1900427e-05
-0.00034601203
2.3144781e-05
-0.00034338273
2.3961043e-05
-0.00034040877
2.4316477e-05
-0.00033716607
2.3917563e-05
-0.00033370961
2.2836184e-05
-0.00033026846
2.0518595e-05
-0.00032693194
1.7349542e-05
-0.00032431396
1.2447171e-05
6.6256274e-06
-0.00033066891
1.2627847e-07
-0.00033069093
1.3074111e-07
-0.00033071415
1.3756832e-07
-0.00033073929
1.4440054e-07
-0.00033076615
1.525817e-07
-0.00033079496
1.6161091e-07
-0.00033082583
1.7165821e-07
-0.00033085891
1.8287328e-07
-0.00033089441
1.9509861e-07
-0.0003309325
2.0862054e-07
-0.0003309734
2.2328003e-07
-0.00033101733
2.3933603e-07
-0.00033106453
2.5670546e-07
-0.00033111525
2.7559558e-07
-0.00033116977
2.9599589e-07
-0.00033122836
3.1807648e-07
-0.00033129134
3.4187976e-07
-0.00033135903
3.6755681e-07
-0.00033143177
3.9518585e-07
-0.00033150991
4.2491204e-07
-0.00033159385
4.568377e-07
-0.00033168397
4.9110965e-07
-0.00033178071
5.2784665e-07
-0.0003318845
5.672006e-07
-0.0003319958
6.0930116e-07
-0.00033211509
6.5430577e-07
-0.00033224289
7.0235008e-07
-0.0003323797
7.5359512e-07
-0.00033252608
8.0817718e-07
-0.00033268257
8.6625676e-07
-0.00033284975
9.2796405e-07
-0.00033302821
9.9344848e-07
-0.00033321853
1.0628418e-06
-0.00033342133
1.1362518e-06
-0.0003336372
1.2138029e-06
-0.00033386674
1.2955657e-06
-0.00033411056
1.381628e-06
-0.00033436923
1.4720102e-06
-0.00033464331
1.566745e-06
-0.00033493333
1.6657808e-06
-0.00033523978
1.7690723e-06
-0.00033556311
1.8764719e-06
-0.0003359037
1.9878174e-06
-0.00033626186
2.1028531e-06
-0.00033663781
2.2212578e-06
-0.00033703168
2.3426242e-06
-0.00033744348
2.4664508e-06
-0.00033787307
2.5921379e-06
-0.0003383202
2.7189688e-06
-0.00033878442
2.8461121e-06
-0.00033926512
2.9726094e-06
-0.00033976148
3.0973715e-06
-0.00034027249
3.2191737e-06
-0.00034079688
3.3366617e-06
-0.00034133318
3.448341e-06
-0.00034187964
3.552597e-06
-0.00034243427
3.6476987e-06
-0.00034299484
3.7318172e-06
-0.00034355885
3.8030447e-06
-0.00034412356
3.859431e-06
-0.000344686
3.8990003e-06
-0.00034524298
3.919808e-06
-0.00034579113
3.9199769e-06
-0.00034632692
3.8977507e-06
-0.00034684669
3.851546e-06
-0.00034734674
3.7800104e-06
-0.00034782329
3.6820848e-06
-0.00034827263
3.5570477e-06
-0.00034869113
3.4045795e-06
-0.00034907531
3.2248078e-06
-0.0003494219
3.0183414e-06
-0.00034972793
2.7863073e-06
-0.00034999079
2.5303635e-06
-0.00035020829
2.2527046e-06
-0.00035037871
1.9560472e-06
-0.00035050089
1.6436198e-06
-0.00035057426
1.3191006e-06
-0.00035059889
9.8659741e-07
-0.00035057554
6.505548e-07
-0.00035050567
3.1572282e-07
-0.0003503915
-1.2924392e-08
-0.00035023601
-3.3023897e-07
-0.00035004297
-6.3090287e-07
-0.00034981679
-9.0941544e-07
-0.00034956254
-1.160401e-06
-0.00034928605
-1.378401e-06
-0.00034899394
-1.5579178e-06
-0.00034869365
-1.6932718e-06
-0.00034839336
-1.7786984e-06
-0.00034810198
-1.808146e-06
-0.00034782909
-1.7755428e-06
-0.00034758485
-1.6748983e-06
-0.00034737986
-1.5008344e-06
-0.00034722494
-1.2489992e-06
-0.0003471308
-9.1683501e-07
-0.00034710759
-5.0406676e-07
-0.00034716419
-1.326294e-08
-0.00034730766
5.5044821e-07
-0.00034754216
1.1799334e-06
-0.00034786718
1.8674271e-06
-0.00034827619
2.6064739e-06
-0.0003487556
3.3948646e-06
-0.00034928328
4.2361859e-06
-0.00034982712
5.1410918e-06
-0.00035034544
6.12621e-06
-0.00035078959
7.2111059e-06
-0.00035110666
8.4111789e-06
-0.00035124367
9.7335793e-06
-0.00035115353
1.1169239e-05
-0.00035079801
1.2697329e-05
-0.00035015042
1.4276945e-05
-0.00034919409
1.5863051e-05
-0.00034792282
1.7389029e-05
-0.0003463356
1.8800325e-05
-0.00034444037
2.0005199e-05
-0.00034224652
2.0950937e-05
-0.00033978238
2.1496904e-05
-0.0003370766
2.1610689e-05
-0.0003342112
2.1052169e-05
-0.00033125057
1.9875554e-05
-0.00032840238
1.7670401e-05
-0.00032576804
1.4715202e-05
-0.00032377918
1.0458309e-05
5.4270515e-06
-0.00033076461
1.4591196e-07
-0.0003307864
1.5253201e-07
-0.00033080936
1.6052718e-07
-0.00033083421
1.6925367e-07
-0.00033086074
1.7910844e-07
-0.00033088923
1.9009906e-07
-0.00033091975
2.0218106e-07
-0.00033095249
2.1561529e-07
-0.00033098763
2.3023441e-07
-0.00033102534
2.4633482e-07
-0.00033106585
2.6378923e-07
-0.00033110937
2.8285231e-07
-0.00033115614
3.0347369e-07
-0.0003312064
3.2586182e-07
-0.00033126044
3.5003357e-07
-0.00033131853
3.7616756e-07
-0.00033138098
4.0432956e-07
-0.00033144811
4.3468477e-07
-0.00033152026
4.6733275e-07