/*--------------------------------*- C++ -*----------------------------------*\
| =========                 |                                                 |
| \\      /  F ield         | foam-extend: Open Source CFD                    |
|  \\    /   O peration     | Version:     4.1                                |
|   \\  /    A nd           | Web:         http://www.foam-extend.org         |
|    \\/     M anipulation  |                                                 |
\*---------------------------------------------------------------------------*/
FoamFile
{
    version     2.0;
    format      ascii;
    class       volVectorField;
    location    "0.5";
    object      U;
}
// * * * * * * * * * * * * * * * * * * * * * * * * * * * * * * * * * * * * * //

dimensions      [0 1 -1 0 0 0 0];

internalField   nonuniform List<vector> 
16126
(
(0.21976193 -9.2631003e-06 0)
(0.21981031 -4.4381558e-08 0)
(0.2197902 -4.6295111e-07 0)
(0.21982418 5.994616e-08 0)
(0.21981194 1.0046817e-06 0)
(0.21983338 6.3780889e-07 0)
(0.2198285 1.5568212e-06 0)
(0.21984204 1.31964e-06 0)
(0.21984161 1.9969669e-06 0)
(0.21985077 1.9643562e-06 0)
(0.21985281 2.4642466e-06 0)
(0.21985975 2.5777194e-06 0)
(0.21986322 2.9806657e-06 0)
(0.21986924 3.1868508e-06 0)
(0.2198737 3.5472624e-06 0)
(0.21987963 3.8134645e-06 0)
(0.21988504 4.162964e-06 0)
(0.21989147 4.4714152e-06 0)
(0.21989801 4.8269702e-06 0)
(0.21990546 5.1680756e-06 0)
(0.21991346 5.5377101e-06 0)
(0.21992248 5.9053434e-06 0)
(0.21993243 6.2912234e-06 0)
(0.21994363 6.6797117e-06 0)
(0.21995614 7.0794331e-06 0)
(0.21997026 7.4815043e-06 0)
(0.21998615 7.8882617e-06 0)
(0.22000409 8.2934185e-06 0)
(0.22002435 8.6954722e-06 0)
(0.22004727 9.0884553e-06 0)
(0.22007317 9.4681989e-06 0)
(0.22010247 9.8272673e-06 0)
(0.2201356 1.0159527e-05 0)
(0.22017305 1.045553e-05 0)
(0.22021536 1.0706092e-05 0)
(0.22026315 1.0899625e-05 0)
(0.22031708 1.102378e-05 0)
(0.2203779 1.1063995e-05 0)
(0.22044642 1.1004589e-05 0)
(0.22052354 1.0827621e-05 0)
(0.22061025 1.0513762e-05 0)
(0.22070762 1.0041895e-05 0)
(0.2208168 9.3886073e-06 0)
(0.22093906 8.5297902e-06 0)
(0.22107574 7.4391054e-06 0)
(0.2212283 6.0894802e-06 0)
(0.22139824 4.4527374e-06 0)
(0.22158719 2.5005082e-06 0)
(0.22179683 2.046353e-07 0)
(0.22202887 -2.4622691e-06 0)
(0.22228509 -5.5256957e-06 0)
(0.22256725 -9.0084041e-06 0)
(0.22287713 -1.2929432e-05 0)
(0.22321642 -1.7302537e-05 0)
(0.22358672 -2.2135032e-05 0)
(0.22398951 -2.742655e-05 0)
(0.22442605 -3.316728e-05 0)
(0.22489736 -3.9336695e-05 0)
(0.22540414 -4.5902458e-05 0)
(0.22594672 -5.2818857e-05 0)
(0.226525 -6.0026201e-05 0)
(0.22713836 -6.745057e-05 0)
(0.22778563 -7.5003354e-05 0)
(0.22846505 -8.2582102e-05 0)
(0.22917418 -9.0071343e-05 0)
(0.22990993 -9.7344783e-05 0)
(0.23066855 -0.00010426698 0)
(0.23144559 -0.00011069672 0)
(0.23223597 -0.00011649052 0)
(0.23303405 -0.00012150647 0)
(0.23383364 -0.00012560819 0)
(0.23462816 -0.00012867037 0)
(0.23541072 -0.00013058165 0)
(0.23617426 -0.00013125084 0)
(0.23691167 -0.00013060826 0)
(0.237616 -0.00012861171 0)
(0.23828054 -0.00012524169 0)
(0.23889901 -0.00012051 0)
(0.23946572 -0.00011443799 0)
(0.23997559 -0.00010708389 0)
(0.24042443 -9.8454044e-05 0)
(0.24080868 -8.8661784e-05 0)
(0.24112602 -7.7478634e-05 0)
(0.24137455 -6.5226195e-05 0)
(0.24155434 -5.1176905e-05 0)
(0.24166761 -3.3371627e-05 0)
(0.24171815 -2.5738597e-05 0)
(0.24171513 -2.8268579e-05 0)
(0.24165563 -2.3858724e-05 0)
(0.24152835 -1.3383849e-05 0)
(0.24133295 -8.974153e-07 0)
(0.24106994 1.2551401e-05 0)
(0.24074169 2.6377632e-05 0)
(0.24035003 4.0424079e-05 0)
(0.23989627 5.4703378e-05 0)
(0.23937965 6.9350349e-05 0)
(0.23879719 8.4640871e-05 0)
(0.23814272 0.00010102357 0)
(0.23740777 0.00011928408 0)
(0.23658302 0.00014071692 0)
(0.23566391 0.00016811565 0)
(0.23465662 0.00020493664 0)
(0.23359391 0.00026210126 0)
(0.23254327 0.00036995179 0)
(0.23167256 0.00055857667 0)
(0.23120871 0.00062325363 0)
(0.23172237 0.0004545991 0)
(0.23360574 0.00022479489 0)
(0.23719809 -3.1748301e-05 0)
(0.24283887 -0.00039891227 0)
(0.25107718 -0.00094415538 0)
(0.26233114 -0.00177718 0)
(0.27746482 -0.0029877356 0)
(0.29698178 -0.0047440129 0)
(0.32232417 -0.00714197 0)
(0.35391288 -0.010401548 0)
(0.39407108 -0.014526499 0)
(0.44232305 -0.019782301 0)
(0.50246875 -0.025885554 0)
(0.57086822 -0.03330933 0)
(0.65531263 -0.04064398 0)
(0.74122508 -0.049812536 0)
(0.85374272 -0.051292989 0)
(0.92416408 -0.062793435 0)
(0.59211142 -3.0024156e-05 0)
(0.59217293 -1.3033571e-05 0)
(0.59217914 -1.3324871e-05 0)
(0.59222518 -1.1241369e-05 0)
(0.59223986 -9.6418349e-06 0)
(0.5922775 -9.9164105e-06 0)
(0.59229909 -8.6433816e-06 0)
(0.59233359 -9.1731934e-06 0)
(0.59236071 -8.4955823e-06 0)
(0.59239543 -8.9927483e-06 0)
(0.59242757 -8.8011538e-06 0)
(0.5924648 -9.3092911e-06 0)
(0.59250215 -9.4887258e-06 0)
(0.59254359 -1.0090036e-05 0)
(0.59258683 -1.0577663e-05 0)
(0.59263399 -1.1344477e-05 0)
(0.59268413 -1.2123434e-05 0)
(0.5927385 -1.3119387e-05 0)
(0.59279685 -1.4206469e-05 0)
(0.59286002 -1.5495016e-05 0)
(0.59292816 -1.6932746e-05 0)
(0.59300193 -1.8584801e-05 0)
(0.59308172 -2.0438097e-05 0)
(0.59316816 -2.2538153e-05 0)
(0.59326179 -2.4894264e-05 0)
(0.59336329 -2.7545641e-05 0)
(0.59347334 -3.051619e-05 0)
(0.59359269 -3.3846004e-05 0)
(0.59372215 -3.7570364e-05 0)
(0.59386261 -4.173453e-05 0)
(0.594015 -4.6383878e-05 0)
(0.59418035 -5.1572306e-05 0)
(0.59435975 -5.7354555e-05 0)
(0.5945544 -6.3794348e-05 0)
(0.59476556 -7.0957931e-05 0)
(0.59499459 -7.8918874e-05 0)
(0.59524297 -8.775474e-05 0)
(0.59551224 -9.7549594e-05 0)
(0.59580407 -0.00010839139 0)
(0.59612023 -0.00012037355 0)
(0.5964626 -0.0001335925 0)
(0.59683312 -0.00014814741 0)
(0.59723389 -0.00016413969 0)
(0.59766703 -0.00018166867 0)
(0.5981348 -0.00020083232 0)
(0.59863948 -0.00022172237 0)
(0.59918341 -0.00024442236 0)
(0.59976894 -0.00026900296 0)
(0.60039841 -0.00029551802 0)
(0.60107411 -0.00032399976 0)
(0.60179825 -0.0003544529 0)
(0.60257287 -0.00038684898 0)
(0.60339981 -0.00042112021 0)
(0.60428065 -0.00045715257 0)
(0.60521663 -0.00049477967 0)
(0.60620854 -0.00053377693 0)
(0.60725669 -0.00057385565 0)
(0.60836076 -0.00061465895 0)
(0.60951978 -0.00065575933 0)
(0.61073198 -0.00069665738 0)
(0.61199473 -0.00073678407 0)
(0.61330449 -0.00077550609 0)
(0.61465672 -0.00081213332 0)
(0.61604586 -0.00084593129 0)
(0.6174653 -0.00087613578 0)
(0.6189074 -0.00090197209 0)
(0.62036355 -0.00092267499 0)
(0.62182419 -0.00093751283 0)
(0.62327898 -0.0009458114 0)
(0.62471689 -0.00094697927 0)
(0.62612641 -0.00094053046 0)
(0.62749573 -0.00092610926 0)
(0.62881296 -0.00090350644 0)
(0.63006637 -0.00087267906 0)
(0.63124469 -0.0008337557 0)
(0.63233729 -0.00078704731 0)
(0.63333447 -0.00073303424 0)
(0.6342277 -0.00067236925 0)
(0.63500981 -0.00060584519 0)
(0.63567517 -0.00053439027 0)
(0.63621988 -0.00045904638 0)
(0.63664182 -0.00038089881 0)
(0.63694084 -0.00030136151 0)
(0.63711873 -0.00022160032 0)
(0.63718054 -0.00014514404 0)
(0.63712919 -7.7017194e-05 0)
(0.6369712 -7.1732361e-06 0)
(0.63668099 6.9351497e-05 0)
(0.63627037 0.00014826137 0)
(0.63575325 0.00022870824 0)
(0.63514014 0.00030706182 0)
(0.63444096 0.0003824802 0)
(0.63366556 0.00045472023 0)
(0.63282288 0.00052461865 0)
(0.63192067 0.00059393351 0)
(0.63096469 0.00066536814 0)
(0.62995898 0.00074232571 0)
(0.62890713 0.00082801869 0)
(0.62781624 0.00092383576 0)
(0.62670528 0.0010258779 0)
(0.62561839 0.0011209671 0)
(0.62464745 0.0011808395 0)
(0.6239676 0.0011535754 0)
(0.62385385 0.00091708976 0)
(0.624704 0.00032702812 0)
(0.62699152 -0.00066017419 0)
(0.63083708 -0.0020560222 0)
(0.63672811 -0.0038825093 0)
(0.64521946 -0.006140599 0)
(0.65670008 -0.0088717738 0)
(0.67152923 -0.01208499 0)
(0.68981683 -0.015841577 0)
(0.71175071 -0.020167465 0)
(0.73710648 -0.025188211 0)
(0.76598919 -0.030895799 0)
(0.79766522 -0.037432139 0)
(0.83228997 -0.044560851 0)
(0.8680487 -0.052403385 0)
(0.9054848 -0.060146638 0)
(0.94015776 -0.068187185 0)
(0.97435681 -0.07397053 0)
(0.99713134 -0.080245731 0)
(1.0166891 -0.07467263 0)
(1.0120475 -0.080123958 0)
(0.831109 -5.7302904e-05 0)
(0.83118321 -3.9105849e-05 0)
(0.83120788 -3.9708228e-05 0)
(0.83126895 -3.7017855e-05 0)
(0.83130631 -3.6224621e-05 0)
(0.83136344 -3.7039705e-05 0)
(0.83141025 -3.7020498e-05 0)
(0.83146885 -3.8814127e-05 0)
(0.83152431 -3.9806821e-05 0)
(0.83158789 -4.2116316e-05 0)
(0.83165236 -4.4036976e-05 0)
(0.83172352 -4.6866726e-05 0)
(0.83179804 -4.9644831e-05 0)
(0.83187905 -5.3099049e-05 0)
(0.83196518 -5.6730026e-05 0)
(0.83205826 -6.0935246e-05 0)
(0.83215793 -6.5474727e-05 0)
(0.83226542 -7.0570447e-05 0)
(0.83238093 -7.6122904e-05 0)
(0.83250543 -8.2266748e-05 0)
(0.83263943 -8.8978661e-05 0)
(0.83278384 -9.6353568e-05 0)
(0.83293938 -0.00010441136 0)
(0.83310698 -0.00011323244 0)
(0.83328753 -0.00012286382 0)
(0.83348204 -0.00013338478 0)
(0.83369155 -0.00014486212 0)
(0.83391717 -0.00015738142 0)
(0.83416009 -0.00017102627 0)
(0.83442157 -0.00018589292 0)
(0.83470293 -0.00020208044 0)
(0.83500557 -0.00021969911 0)
(0.83533098 -0.00023886229 0)
(0.8356807 -0.00025969484 0)
(0.83605639 -0.0002823256 0)
(0.83645974 -0.00030689252 0)
(0.83689256 -0.0003335379 0)
(0.83735668 -0.00036241088 0)
(0.83785406 -0.00039366308 0)
(0.83838666 -0.00042744963 0)
(0.83895652 -0.00046392461 0)
(0.83956574 -0.00050323944 0)
(0.84021639 -0.00054553989 0)
(0.8409106 -0.00059095944 0)
(0.84165044 -0.00063961713 0)
(0.84243798 -0.00069160927 0)
(0.84327517 -0.00074700393 0)
(0.84416389 -0.00080583217 0)
(0.84510584 -0.00086807972 0)
(0.84610252 -0.00093367752 0)
(0.8471552 -0.001002491 0)
(0.84826481 -0.0010743093 0)
(0.84943191 -0.0011488349 0)
(0.85065661 -0.0012256715 0)
(0.85193851 -0.0013043147 0)
(0.8532766 -0.0013841426 0)
(0.8546692 -0.0014644089 0)
(0.85611388 -0.0015442382 0)
(0.85760738 -0.0016226259 0)
(0.85914558 -0.0016984417 0)
(0.86072338 -0.001770439 0)
(0.86233475 -0.0018372707 0)
(0.86397261 -0.0018975101 0)
(0.86562891 -0.0019496805 0)
(0.86729464 -0.0019922883 0)
(0.86895983 -0.0020238644 0)
(0.87061372 -0.0020430067 0)
(0.87224483 -0.0020484287 0)
(0.87384108 -0.0020390054 0)
(0.87539005 -0.0020138224 0)
(0.87687911 -0.001972217 0)
(0.87829567 -0.0019138209 0)
(0.87962744 -0.0018385875 0)
(0.88086266 -0.0017468214 0)
(0.88199036 -0.0016391825 0)
(0.88300062 -0.0015166964 0)
(0.88388483 -0.0013807256 0)
(0.88463583 -0.0012329644 0)
(0.8852482 -0.0010753698 0)
(0.8857183 -0.00091016519 0)
(0.88604451 -0.00073969192 0)
(0.88622699 -0.00056657986 0)
(0.88626824 -0.00039312869 0)
(0.88617158 -0.00022328545 0)
(0.88594228 -5.7501608e-05 0)
(0.8855787 0.00010775859 0)
(0.88507631 0.00027518962 0)
(0.88446719 0.00043979466 0)
(0.88376573 0.00059488559 0)
(0.88299292 0.00073969386 0)
(0.8821671 0.00087300696 0)
(0.88130791 0.00099411771 0)
(0.88043612 0.0011031361 0)
(0.87957382 0.0012012546 0)
(0.87874469 0.0012906147 0)
(0.87797433 0.0013737887 0)
(0.87729146 0.0014524773 0)
(0.87673016 0.0015250084 0)
(0.87633354 0.0015818871 0)
(0.87616003 0.0015997727 0)
(0.87629087 0.0015329741 0)
(0.87683666 0.0012983237 0)
(0.87792367 0.000779882 0)
(0.87973037 -0.00012892605 0)
(0.88231498 -0.0015187375 0)
(0.88578727 -0.0034457954 0)
(0.89046169 -0.0060205735 0)
(0.89655332 -0.0093306548 0)
(0.90432192 -0.013305702 0)
(0.91389297 -0.01787857 0)
(0.92534432 -0.02295816 0)
(0.93855066 -0.028503966 0)
(0.9533799 -0.03443982 0)
(0.96936983 -0.040793331 0)
(0.98621193 -0.047454171 0)
(1.0029932 -0.054462725 0)
(1.0193749 -0.061436592 0)
(1.0337117 -0.068346664 0)
(1.0460453 -0.074064519 0)
(1.0532546 -0.078719187 0)
(1.0569315 -0.079101096 0)
(1.0509222 -0.077210909 0)
(1.0404101 -0.062403636 0)
(1.0190283 -0.047323226 0)
(0.95179356 -8.7599444e-05 0)
(0.95187875 -7.2619502e-05 0)
(0.95191467 -7.5166108e-05 0)
(0.95198912 -7.3606172e-05 0)
(0.95204264 -7.5045484e-05 0)
(0.95211648 -7.7577654e-05 0)
(0.95218269 -8.0159244e-05 0)
(0.9522615 -8.4425452e-05 0)
(0.95233959 -8.8495181e-05 0)
(0.9524271 -9.3987292e-05 0)
(0.95251782 -9.9557935e-05 0)
(0.95261701 -0.00010627925 0)
(0.95272195 -0.00011337226 0)
(0.95283556 -0.00012147217 0)
(0.95295688 -0.00013017827 0)
(0.95308771 -0.00013985983 0)
(0.953228 -0.00015033864 0)
(0.95337907 -0.00016184031 0)
(0.95354137 -0.00017431189 0)
(0.95371601 -0.0001879084 0)
(0.95390374 -0.00020264786 0)
(0.95410567 -0.00021865518 0)
(0.95432274 -0.00023599099 0)
(0.95455611 -0.00025477184 0)
(0.9548069 -0.00027508679 0)
(0.95507634 -0.0002970556 0)
(0.95536571 -0.00032078892 0)
(0.95567636 -0.00034641581 0)
(0.95600972 -0.00037406523 0)
(0.95636726 -0.0004038786 0)
(0.95675053 -0.0004360009 0)
(0.95716114 -0.00047058747 0)
(0.95760077 -0.00050779649 0)
(0.95807116 -0.00054779581 0)
(0.95857408 -0.00059075506 0)
(0.95911137 -0.00063684997 0)
(0.9596849 -0.00068625627 0)
(0.96029658 -0.00073915132 0)
(0.96094832 -0.00079570798 0)
(0.96164204 -0.00085609444 0)
(0.96237965 -0.00092046741 0)
(0.96316302 -0.00098896913 0)
(0.96399396 -0.0010617212 0)
(0.96487419 -0.0011388167 0)
(0.96580533 -0.0012203143 0)
(0.96678882 -0.0013062278 0)
(0.96782593 -0.0013965173 0)
(0.96891769 -0.0014910774 0)
(0.97006485 -0.0015897262 0)
(0.97126781 -0.0016921921 0)
(0.9725266 -0.0017981007 0)
(0.9738408 -0.0019069616 0)
(0.97520948 -0.0020181551 0)
(0.97663112 -0.0021309201 0)
(0.97810362 -0.0022443428 0)
(0.97962414 -0.0023573491 0)
(0.98118914 -0.0024686988 0)
(0.98279425 -0.002576985 0)
(0.98443429 -0.0026806391 0)
(0.9861032 -0.0027779416 0)
(0.98779407 -0.002867041 0)
(0.98949908 -0.0029459809 0)
(0.99120957 -0.0030127349 0)
(0.99291606 -0.0030652511 0)
(0.99460834 -0.0031015022 0)
(0.99627552 -0.0031195451 0)
(0.99790619 -0.0031175809 0)
(0.99948853 -0.0030940226 0)
(1.0010105 -0.0030475571 0)
(1.00246 -0.0029772104 0)
(1.0038251 -0.0028824 0)
(1.0050943 -0.0027629894 0)
(1.0062566 -0.0026193184 0)
(1.0073019 -0.0024522363 0)
(1.0082212 -0.0022631003 0)
(1.0090066 -0.0020537805 0)
(1.009652 -0.0018266151 0)
(1.0101526 -0.0015843882 0)
(1.0105056 -0.0013302397 0)
(1.0107102 -0.0010676218 0)
(1.0107673 -0.00080017754 0)
(1.0106802 -0.00053159173 0)
(1.0104533 -0.00026577155 0)
(1.0100947 -5.1483455e-06 0)
(1.0096067 0.00025084462 0)
(1.0090039 0.00050015553 0)
(1.0083129 0.00073270542 0)
(1.0075564 0.00094292059 0)
(1.0067566 0.0011313551 0)
(1.005937 0.0012951771 0)
(1.0051254 0.0014315279 0)
(1.004352 0.001537965 0)
(1.0036508 0.001612623 0)
(1.0030594 0.0016543996 0)
(1.0026196 0.0016627411 0)
(1.0023767 0.001636979 0)
(1.0023802 0.0015749172 0)
(1.0026824 0.0014701357 0)
(1.0033379 0.001307919 0)
(1.0044016 0.0010585264 0)
(1.005921 0.00067350565 0)
(1.0079353 9.3578152e-05 0)
(1.0104411 -0.00076886734 0)
(1.0133982 -0.0020046936 0)
(1.0168444 -0.0037298749 0)
(1.0208086 -0.0061196552 0)
(1.0253365 -0.0092667585 0)
(1.0303984 -0.013167688 0)
(1.0359724 -0.017761282 0)
(1.0420085 -0.022955529 0)
(1.0484476 -0.028610264 0)
(1.0551058 -0.034614933 0)
(1.0618068 -0.040817444 0)
(1.0681355 -0.047152047 0)
(1.0737933 -0.053424576 0)
(1.0780396 -0.059579044 0)
(1.0805945 -0.065177563 0)
(1.0802775 -0.070140781 0)
(1.0772687 -0.073410628 0)
(1.0697415 -0.075209082 0)
(1.0592983 -0.072868958 0)
(1.0435865 -0.068445126 0)
(1.0261963 -0.053918015 0)
(1.0099745 -0.037689387 0)
(1.0014639 -0.00012287985 0)
(1.0015586 -0.0001129476 0)
(1.0016006 -0.00011803449 0)
(1.0016845 -0.00011894739 0)
(1.001748 -0.00012343363 0)
(1.0018331 -0.00012872769 0)
(1.0019118 -0.000134819 0)
(1.0020042 -0.00014257232 0)
(1.0020972 -0.00015073759 0)
(1.0022007 -0.00016051041 0)
(1.0023089 -0.00017088321 0)
(1.0024268 -0.00018272832 0)
(1.002552 -0.00019544505 0)
(1.0026874 -0.00020958734 0)
(1.0028322 -0.00022485601 0)
(1.0029882 -0.00024159902 0)
(1.0031556 -0.0002597046 0)
(1.0033358 -0.00027940752 0)
(1.0035292 -0.00030070631 0)
(1.0037373 -0.00032378124 0)
(1.0039608 -0.0003486963 0)
(1.0042009 -0.00037561065 0)
(1.0044588 -0.00040462953 0)
(1.0047358 -0.00043590896 0)
(1.0050331 -0.0004695827 0)
(1.005352 -0.00050581287 0)
(1.0056941 -0.00054475489 0)
(1.0060608 -0.00058658105 0)
(1.0064535 -0.00063146412 0)
(1.0068741 -0.0006795875 0)
(1.007324 -0.00073113718 0)
(1.007805 -0.00078630639 0)
(1.008319 -0.00084528888 0)
(1.0088676 -0.00090828333 0)
(1.0094527 -0.00097548512 0)
(1.0100763 -0.0010470894 0)
(1.01074 -0.0011232834 0)
(1.0114459 -0.0012042468 0)
(1.0121958 -0.0012901433 0)
(1.0129913 -0.0013811196 0)
(1.0138344 -0.0014772953 0)
(1.0147265 -0.0015787591 0)
(1.0156693 -0.0016855585 0)
(1.016664 -0.0017976916 0)
(1.0177119 -0.0019150968 0)
(1.0188139 -0.0020376408 0)
(1.0199706 -0.0021651068 0)
(1.0211824 -0.0022971806 0)
(1.0224493 -0.002433437 0)
(1.0237707 -0.0025733248 0)
(1.0251459 -0.0027161525 0)
(1.0265732 -0.0028610736 0)
(1.0280507 -0.003007074 0)
(1.0295756 -0.00315296 0)
(1.0311447 -0.0032973496 0)
(1.0327537 -0.0034386675 0)
(1.0343979 -0.0035751442 0)
(1.0360716 -0.003704822 0)
(1.0377684 -0.0038255671 0)
(1.0394809 -0.0039350907 0)
(1.041201 -0.0040309783 0)
(1.0429201 -0.0041107305 0)
(1.0446285 -0.0041718104 0)
(1.0463161 -0.0042117042 0)
(1.0479721 -0.0042279861 0)
(1.0495854 -0.004218394 0)
(1.0511445 -0.0041809046 0)
(1.0526379 -0.0041138158 0)
(1.054054 -0.0040158211 0)
(1.0553815 -0.0038860866 0)
(1.0566095 -0.0037243104 0)
(1.0577276 -0.0035307832 0)
(1.0587265 -0.0033064187 0)
(1.0595977 -0.0030527868 0)
(1.0603341 -0.0027721036 0)
(1.0609299 -0.0024672306 0)
(1.061381 -0.0021416131 0)
(1.0616851 -0.0017992487 0)
(1.0618417 -0.0014445708 0)
(1.0618523 -0.0010823936 0)
(1.0617205 -0.00071773707 0)
(1.0614518 -0.0003557039 0)
(1.0610551 -1.3018671e-06 0)
(1.0605381 0.00034240405 0)
(1.0599175 0.00066948231 0)
(1.0592169 0.00097025761 0)
(1.058457 0.0012407851 0)
(1.0576582 0.0014773799 0)
(1.0568457 0.0016741997 0)
(1.0560494 0.0018264205 0)
(1.0553021 0.0019286504 0)
(1.0546411 0.0019757825 0)
(1.0541079 0.0019631089 0)
(1.0537484 0.0018866704 0)
(1.053612 0.0017433697 0)
(1.0537508 0.0015306785 0)
(1.0542179 0.0012456724 0)
(1.0550636 0.00088315692 0)
(1.0563314 0.00043185576 0)
(1.0580524 -0.00012637153 0)
(1.0602321 -0.00082492949 0)
(1.0628528 -0.0017134721 0)
(1.0659015 -0.0028659152 0)
(1.0693266 -0.0044026951 0)
(1.0730713 -0.0064482935 0)
(1.0770277 -0.0090875202 0)
(1.0810442 -0.012391182 0)
(1.0849589 -0.01638653 0)
(1.0886375 -0.021004437 0)
(1.0919302 -0.026139449 0)
(1.0947206 -0.031631158 0)
(1.096833 -0.037334604 0)
(1.0981391 -0.043061412 0)
(1.0983605 -0.048695284 0)
(1.0973491 -0.054006663 0)
(1.0946525 -0.058895341 0)
(1.0902297 -0.062924837 0)
(1.0834145 -0.065997221 0)
(1.0746385 -0.067145573 0)
(1.062967 -0.066555285 0)
(1.0498663 -0.062014877 0)
(1.0344042 -0.055134175 0)
(1.0187425 -0.040797113 0)
(1.0063693 -0.024291308 0)
(1.0186177 -0.00016042423 0)
(1.0187184 -0.00015637756 0)
(1.0187628 -0.00016415612 0)
(1.0188521 -0.00016849136 0)
(1.0189204 -0.00017647756 0)
(1.0190115 -0.00018524558 0)
(1.0190967 -0.00019537283 0)
(1.0191962 -0.00020723954 0)
(1.0192971 -0.00022007847 0)
(1.0194091 -0.00023476535 0)
(1.0195265 -0.00025057923 0)
(1.0196544 -0.00026823121 0)
(1.0197904 -0.00028728271 0)
(1.0199374 -0.00030822192 0)
(1.0200947 -0.00033084663 0)
(1.0202642 -0.00035549053 0)
(1.020446 -0.00038210762 0)
(1.0206416 -0.00041094547 0)
(1.0208517 -0.00044205459 0)
(1.0210775 -0.00047564241 0)
(1.02132 -0.00051181937 0)
(1.0215805 -0.00055077957 0)
(1.0218602 -0.00059267263 0)
(1.0221604 -0.00063769352 0)
(1.0224823 -0.00068601932 0)
(1.0228276 -0.0007378524 0)
(1.0231976 -0.00079338992 0)
(1.023594 -0.00085284334 0)
(1.0240182 -0.00091642399 0)
(1.0244721 -0.00098435065 0)
(1.0249573 -0.0010568423 0)
(1.0254755 -0.0011341202 0)
(1.0260286 -0.0012164021 0)
(1.0266184 -0.0013039039 0)
(1.0272468 -0.001396831 0)
(1.0279156 -0.0014953797 0)
(1.0286266 -0.0015997279 0)
(1.0293817 -0.0017100343 0)
(1.0301827 -0.0018264274 0)
(1.0310312 -0.0019490032 0)
(1.0319289 -0.0020778126 0)
(1.0328772 -0.002212856 0)
(1.0338776 -0.0023540699 0)
(1.034931 -0.0025013175 0)
(1.0360385 -0.0026543755 0)
(1.0372006 -0.0028129205 0)
(1.0384178 -0.0029765151 0)
(1.0396898 -0.0031445921 0)
(1.0410162 -0.0033164402 0)
(1.0423962 -0.003491188 0)
(1.0438282 -0.0036677893 0)
(1.0453102 -0.0038450099 0)
(1.0468395 -0.0040214154 0)
(1.0484128 -0.0041953629 0)
(1.0500261 -0.0043649955 0)
(1.0516746 -0.0045282423 0)
(1.0533529 -0.0046828241 0)
(1.0550544 -0.004826267 0)
(1.0567722 -0.0049559236 0)
(1.0584984 -0.0050690042 0)
(1.0602244 -0.0051626178 0)
(1.0619408 -0.0052338241 0)
(1.0636379 -0.0052796948 0)
(1.065305 -0.0052973866 0)
(1.0669314 -0.0052842188 0)
(1.0685058 -0.0052377623 0)
(1.0700169 -0.0051559257 0)
(1.0714533 -0.005037049 0)
(1.0728039 -0.0048799857 0)
(1.0740578 -0.0046841887 0)
(1.0752049 -0.0044497718 0)
(1.0762355 -0.0041775745 0)
(1.0771411 -0.0038691886 0)
(1.0779144 -0.0035269905 0)
(1.0785492 -0.0031541202 0)
(1.0790412 -0.0027544758 0)
(1.0793873 -0.0023326355 0)
(1.0795866 -0.0018938213 0)
(1.07964 -0.0014437599 0)
(1.0795504 -0.00098864454 0)
(1.079323 -0.00053487745 0)
(1.0789653 -8.9264429e-05 0)
(1.0784869 0.00034225758 0)
(1.0779009 0.00075200369 0)
(1.0772263 0.0011312642 0)
(1.0764802 0.0014735947 0)
(1.0756819 0.0017713337 0)
(1.0748551 0.0020169814 0)
(1.0740265 0.0022040725 0)
(1.0732262 0.002324771 0)
(1.0724883 0.002371117 0)
(1.0718507 0.0023350352 0)
(1.0713552 0.0022090011 0)
(1.0710473 0.0019865222 0)
(1.0709748 0.0016627902 0)
(1.0711869 0.0012349308 0)
(1.0717313 0.00070188838 0)
(1.0726503 6.3422612e-05 0)
(1.0739776 -0.00068165039 0)
(1.0757285 -0.0015384641 0)
(1.0779106 -0.0025260564 0)
(1.0805025 -0.0036881664 0)
(1.0834595 -0.0050841722 0)
(1.0866962 -0.0067832582 0)
(1.090079 -0.0088720138 0)
(1.0934399 -0.011448423 0)
(1.096598 -0.014572631 0)
(1.0993433 -0.018253455 0)
(1.1014875 -0.022441201 0)
(1.1028541 -0.027046444 0)
(1.103318 -0.031925209 0)
(1.1027394 -0.036936227 0)
(1.1010499 -0.041892194 0)
(1.0980915 -0.046661869 0)
(1.0938409 -0.051015414 0)
(1.088056 -0.054843433 0)
(1.0808441 -0.057758935 0)
(1.0718537 -0.059696785 0)
(1.0615796 -0.059873065 0)
(1.0495926 -0.058509102 0)
(1.0370846 -0.053894953 0)
(1.0240095 -0.04726766 0)
(1.0116703 -0.034960316 0)
(1.0034097 -0.020068673 0)
(1.0237025 -0.00020027943 0)
(1.0238065 -0.00020191637 0)
(1.0238512 -0.00021231519 0)
(1.0239428 -0.00022047269 0)
(1.0240125 -0.00023205604 0)
(1.0241059 -0.00024466984 0)
(1.0241934 -0.00025903814 0)
(1.0242955 -0.00027534951 0)
(1.0243993 -0.00029312918 0)
(1.0245144 -0.00031306057 0)
(1.0246353 -0.0003346315 0)
(1.0247669 -0.00035844632 0)
(1.0249071 -0.00038419702 0)
(1.0250585 -0.00041233007 0)
(1.0252206 -0.00044272771 0)
(1.0253952 -0.00047572063 0)
(1.0255826 -0.00051132411 0)
(1.0257841 -0.00054980432 0)
(1.0260006 -0.00059126264 0)
(1.0262333 -0.0006359371 0)
(1.0264832 -0.00068398485 0)
(1.0267515 -0.0007356372 0)
(1.0270396 -0.00079108897 0)
(1.0273487 -0.00085057563 0)
(1.0276803 -0.00091431839 0)
(1.0280358 -0.00098256093 0)
(1.0284167 -0.0010555427 0)
(1.0288246 -0.0011335147 0)
(1.0292611 -0.0012167268 0)
(1.0297279 -0.0013054328 0)
(1.0302268 -0.0013998839 0)
(1.0307596 -0.0015003281 0)
(1.031328 -0.0016070052 0)
(1.031934 -0.0017201457 0)
(1.0325792 -0.0018399616 0)
(1.0332658 -0.0019666463 0)
(1.0339954 -0.0021003633 0)
(1.0347698 -0.0022412442 0)
(1.035591 -0.0023893751 0)
(1.0364604 -0.0025447933 0)
(1.0373797 -0.0027074713 0)
(1.0383503 -0.0028773104 0)
(1.0393736 -0.0030541242 0)
(1.0404505 -0.0032376278 0)
(1.0415818 -0.0034274218 0)
(1.0427682 -0.0036229768 0)
(1.0440097 -0.0038236178 0)
(1.0453063 -0.0040285073 0)
(1.0466572 -0.0042366293 0)
(1.0480614 -0.0044467733 0)
(1.0495173 -0.0046575196 0)
(1.0510225 -0.0048672271 0)
(1.0525742 -0.0050740234 0)
(1.054169 -0.0052757991 0)
(1.0558025 -0.0054702071 0)
(1.0574698 -0.0056546677 0)
(1.059165 -0.0058263813 0)
(1.0608817 -0.0059823506 0)
(1.0626125 -0.0061194102 0)
(1.0643493 -0.0062342698 0)
(1.0660833 -0.0063235655 0)
(1.0678051 -0.0063839249 0)
(1.0695046 -0.0064120409 0)
(1.0711711 -0.0064047576 0)
(1.0727937 -0.006359161 0)
(1.0743612 -0.0062726805 0)
(1.075862 -0.0061431859 0)
(1.0772849 -0.0059690923 0)
(1.0786187 -0.0057494498 0)
(1.0798526 -0.0054840378 0)
(1.0809764 -0.0051734286 0)
(1.0819808 -0.0048190567 0)
(1.0828573 -0.0044232412 0)
(1.0835989 -0.0039892175 0)
(1.0841997 -0.0035211042 0)
(1.0846554 -0.0030238957 0)
(1.0849635 -0.002503365 0)
(1.0851235 -0.0019660232 0)
(1.0851367 -0.0014189677 0)
(1.0850065 -0.00086982132 0)
(1.0847387 -0.00032656733 0)
(1.0843413 0.00020254292 0)
(1.0838245 0.00070894939 0)
(1.0832028 0.0011834238 0)
(1.0824911 0.0016168351 0)
(1.0817066 0.0019999566 0)
(1.0808694 0.0023242788 0)
(1.0800019 0.0025808355 0)
(1.0791298 0.0027598681 0)
(1.0782819 0.0028513818 0)
(1.0774904 0.0028449503 0)
(1.0767901 0.0027302307 0)
(1.0762189 0.0024976153 0)
(1.0758166 0.0021389988 0)
(1.0756248 0.0016488422 0)
(1.0756844 0.0010248481 0)
(1.0760343 0.00026840967 0)
(1.076708 -0.00061597503 0)
(1.07773 -0.0016223252 0)
(1.0791152 -0.0027505656 0)
(1.0808613 -0.0040077396 0)
(1.0829395 -0.0054103694 0)
(1.0852888 -0.0069929874 0)
(1.0878159 -0.008812257 0)
(1.0903972 -0.010934498 0)
(1.0928696 -0.013418318 0)
(1.0950443 -0.016308233 0)
(1.0967199 -0.019620652 0)
(1.0977182 -0.023316189 0)
(1.0978726 -0.027322929 0)
(1.0970729 -0.031518387 0)
(1.0952124 -0.035777025 0)
(1.0922631 -0.039927362 0)
(1.0881436 -0.043840037 0)
(1.0829003 -0.047296318 0)
(1.0764191 -0.050181201 0)
(1.0688703 -0.052141609 0)
(1.0600774 -0.053105215 0)
(1.0504867 -0.052402553 0)
(1.0398944 -0.050200052 0)
(1.0291495 -0.045198126 0)
(1.0184548 -0.038341423 0)
(1.0085217 -0.027459742 0)
(1.002219 -0.014687208 0)
(1.0250174 -0.00024057613 0)
(1.0251226 -0.00024745216 0)
(1.0251664 -0.00026033653 0)
(1.0252584 -0.00027247651 0)
(1.0253277 -0.00028763285 0)
(1.0254212 -0.00030426079 0)
(1.0255087 -0.00032290482 0)
(1.025611 -0.00034378023 0)
(1.025715 -0.000366555 0)
(1.0258304 -0.00039182002 0)
(1.0259516 -0.00041920885 0)
(1.0260836 -0.00044926191 0)
(1.0262242 -0.00048177575 0)
(1.0263761 -0.00051717319 0)
(1.0265388 -0.0005554102 0)
(1.026714 -0.00059682208 0)
(1.0269021 -0.00064148085 0)
(1.0271045 -0.0006896745 0)
(1.0273218 -0.00074155321 0)
(1.0275554 -0.00079738682 0)
(1.0278063 -0.00085737809 0)
(1.0280758 -0.00092179581 0)
(1.0283651 -0.00099087911 0)
(1.0286756 -0.0010649037 0)
(1.0290086 -0.001144134 0)
(1.0293656 -0.0012288541 0)
(1.0297482 -0.0013193448 0)
(1.030158 -0.0014158954 0)
(1.0305965 -0.0015187929 0)
(1.0310655 -0.0016283244 0)
(1.0315667 -0.0017447714 0)
(1.032102 -0.0018684066 0)
(1.0326732 -0.0019994893 0)
(1.033282 -0.0021382621 0)
(1.0339305 -0.0022849405 0)
(1.0346204 -0.002439712 0)
(1.0353537 -0.002602722 0)
(1.0361321 -0.0027740712 0)
(1.0369574 -0.0029537997 0)
(1.0378314 -0.0031418814 0)
(1.0387555 -0.0033382062 0)
(1.0397314 -0.0035425722 0)
(1.0407602 -0.0037546654 0)
(1.0418431 -0.0039740484 0)
(1.0429808 -0.0042001414 0)
(1.044174 -0.0044322052 0)
(1.0454228 -0.004669324 0)
(1.0467271 -0.0049103868 0)
(1.0480863 -0.005154071 0)
(1.0494993 -0.0053988256 0)
(1.0509644 -0.0056428573 0)
(1.0524796 -0.0058841195 0)
(1.0540419 -0.0061203041 0)
(1.0556479 -0.0063488394 0)
(1.0572932 -0.0065668934 0)
(1.0589729 -0.006771385 0)
(1.0606812 -0.0069590031 0)
(1.0624116 -0.0071262366 0)
(1.0641568 -0.0072694139 0)
(1.0659085 -0.0073847559 0)
(1.067658 -0.0074684389 0)
(1.0693956 -0.0075166715 0)
(1.0711112 -0.0075257806 0)
(1.0727941 -0.0074923105 0)
(1.0744331 -0.0074131256 0)
(1.0760168 -0.0072855247 0)
(1.0775334 -0.0071073481 0)
(1.0789714 -0.0068770951 0)
(1.0803193 -0.0065940199 0)
(1.0815661 -0.0062582352 0)
(1.0827012 -0.005870778 0)
(1.0837149 -0.0054336844 0)
(1.0845986 -0.0049500063 0)
(1.0853447 -0.0044238452 0)
(1.085947 -0.0038603051 0)
(1.0864013 -0.0032654843 0)
(1.0867045 -0.002646356 0)
(1.0868561 -0.0020107291 0)
(1.0868573 -0.0013670683 0)
(1.0867113 -0.00072443947 0)
(1.0864241 -9.2341871e-05 0)
(1.0860035 0.00051942112 0)
(1.08546 0.0011005714 0)
(1.0848066 0.0016403974 0)
(1.0840577 0.0021285151 0)
(1.0832303 0.0025545497 0)
(1.0823434 0.0029076995 0)
(1.0814192 0.0031768794 0)
(1.0804816 0.0033509896 0)
(1.0795574 0.0034181186 0)
(1.0786751 0.0033662729 0)
(1.0778654 0.0031834953 0)
(1.0771608 0.0028589302 0)
(1.0765945 0.002383647 0)
(1.0762003 0.0017521095 0)
(1.0760109 0.00096313937 0)
(1.0760564 2.0853739e-05 0)
(1.0763618 -0.0010658119 0)
(1.0769459 -0.0022850965 0)
(1.0778158 -0.0036244954 0)
(1.0789611 -0.0050754838 0)
(1.0803517 -0.0066411684 0)
(1.0819337 -0.0083369135 0)
(1.0836234 -0.010191908 0)
(1.0853057 -0.012248574 0)
(1.0868369 -0.014557136 0)
(1.0880598 -0.017154169 0)
(1.0888023 -0.020053586 0)
(1.08891 -0.023232372 0)
(1.0882422 -0.026639894 0)
(1.0867076 -0.030181517 0)
(1.0842243 -0.033755124 0)
(1.0807824 -0.037213223 0)
(1.0763361 -0.040438354 0)
(1.0709508 -0.043232678 0)
(1.0645713 -0.045487182 0)
(1.0573691 -0.046895061 0)
(1.0492632 -0.047392761 0)
(1.0406332 -0.04643537 0)
(1.0314429 -0.044152647 0)
(1.0223379 -0.039553643 0)
(1.0137228 -0.033286335 0)
(1.0060295 -0.023875537 0)
(1.0014108 -0.012580513 0)
(1.0253141 -0.00028137538 0)
(1.0254191 -0.0002929389 0)
(1.0254618 -0.00030827202 0)
(1.0255532 -0.00032436981 0)
(1.0256214 -0.00034302929 0)
(1.025714 -0.00036372009 0)
(1.0258004 -0.00038660672 0)
(1.0259017 -0.00041208418 0)
(1.0260045 -0.00043984336 0)
(1.0261188 -0.00047046541 0)
(1.0262389 -0.00050367223 0)
(1.0263696 -0.0005399795 0)
(1.0265089 -0.00057926278 0)
(1.0266594 -0.00062193916 0)
(1.0268206 -0.00066802732 0)
(1.0269944 -0.00071787549 0)
(1.0271809 -0.00077160793 0)
(1.0273815 -0.00082953852 0)
(1.0275971 -0.00089186469 0)
(1.0278288 -0.0009588904 0)
(1.0280777 -0.0010308639 0)
(1.0283451 -0.0011080931 0)
(1.0286322 -0.001190862 0)
(1.0289404 -0.0012794881 0)
(1.029271 -0.0013742801 0)
(1.0296256 -0.0014755645 0)
(1.0300056 -0.0015836644 0)
(1.0304126 -0.0016989095 0)
(1.0308483 -0.0018216261 0)
(1.0313144 -0.0019521368 0)
(1.0318127 -0.0020907556 0)
(1.0323449 -0.0022377829 0)
(1.032913 -0.0023935005 0)
(1.0335187 -0.0025581662 0)