/*--------------------------------*- C++ -*----------------------------------*\
| =========                 |                                                 |
| \\      /  F ield         | foam-extend: Open Source CFD                    |
|  \\    /   O peration     | Version:     4.1                                |
|   \\  /    A nd           | Web:         http://www.foam-extend.org         |
|    \\/     M anipulation  |                                                 |
\*---------------------------------------------------------------------------*/
FoamFile
{
    version     2.0;
    format      ascii;
    class       volScalarField;
    location    "0.8";
    object      p;
}
// * * * * * * * * * * * * * * * * * * * * * * * * * * * * * * * * * * * * * //

dimensions      [0 2 -2 0 0 0 0];

internalField   nonuniform List<scalar> 
16126
(
-6.5894133
-7.6933473
-10.275096
-13.088808
-16.054527
-19.119262
-22.263369
-25.480475
-28.771015
-32.139301
-35.592125
-39.138026
-42.786891
-46.549705
-50.438395
-54.465714
-58.645142
-62.990795
-67.517344
-72.239916
-77.174004
-82.335352
-87.739857
-93.403433
-99.341894
-105.57081
-112.10537
-118.96023
-126.14934
-133.6858
-141.5817
-149.84797
-158.49408
-167.52804
-176.95607
-186.78249
-197.00953
-207.6371
-218.66262
-230.08084
-241.88361
-254.0597
-266.59465
-279.47049
-292.6656
-306.15451
-319.90772
-333.89149
-348.06765
-362.39346
-376.82144
-391.29916
-405.76917
-420.16882
-434.4302
-448.48004
-462.2397
-475.62521
-488.54733
-500.91174
-512.61927
-523.56629
-533.64519
-542.74499
-550.75217
-557.55159
-563.02763
-567.06547
-569.55262
-570.38057
-569.44654
-566.65548
-561.92191
-555.1719
-546.34496
-535.39603
-522.29732
-507.03985
-489.6341
-470.11072
-448.51997
-424.93266
-399.448
-372.18731
-343.27958
-312.8667
-281.10757
-248.17315
-214.24324
-179.5035
-144.14254
-108.34914
-72.309639
-36.205478
-0.21106741
35.508067
70.796797
105.51159
139.52135
172.70793
204.96638
236.20507
266.34569
295.32256
323.07911
349.56857
374.75807
398.62548
421.15606
442.34266
462.18518
480.69017
497.8705
513.74488
528.33714
541.67787
553.81616
564.83555
574.81865
583.70751
591.35966
598.70467
609.73035
626.61607
-4.8721604
-7.3201495
-10.114398
-13.006801
-16.000642
-19.076256
-22.223952
-25.441105
-28.729731
-32.094883
-35.543733
-39.08503
-42.728786
-46.486071
-50.368875
-54.39
-58.562971
-62.901951
-67.421654
-72.137256
-77.064296
-82.218574
-87.616039
-93.272663
-99.204322
-105.42665
-111.95489
-118.80378
-125.98733
-133.51872
-141.41012
-149.67248
-158.31542
-167.34697
-176.77345
-186.59927
-196.8267
-207.45575
-218.48392
-229.90602
-241.714
-253.8967
-266.43972
-279.32519
-292.53156
-306.03344
-319.80139
-333.80176
-347.99646
-362.34284
-376.79345
-391.29596
-405.79298
-420.22192
-434.5149
-448.59869
-462.39466
-475.81882
-488.78188
-501.18943
-512.94216
-523.93626
-534.06386
-543.21367
-551.27176
-558.12251
-563.64974
-567.73801
-570.27411
-571.14874
-570.25831
-567.50687
-562.80803
-556.08697
-547.28257
-536.34943
-523.25973
-508.00391
-490.59208
-471.05525
-449.4458
-425.8374
-400.32109
-373.00726
-344.02993
-313.53941
-281.69727
-248.67609
-214.65711
-179.82734
-144.37671
-108.49525
-72.370428
-36.184723
-0.1134343
35.677166
71.031353
105.80514
139.86709
173.09885
205.39534
236.6647
266.82802
295.81878
323.58364
350.08064
375.27596
399.14487
421.67225
442.8508
462.68025
481.16674
498.32235
514.16437
528.71454
542.00077
554.06717
564.98051
574.7901
583.43569
590.88945
597.95927
606.67534
615.76468
-3.7950808
-6.8460841
-9.8815564
-12.888372
-15.935109
-19.035566
-22.194405
-25.415344
-28.703324
-32.064818
-35.50772
-39.041167
-42.675392
-46.421605
-50.291903
-54.299186
-58.457079
-62.779856
-67.282362
-71.979918
-76.888232
-82.02329
-87.401247
-93.038298
-98.950554
-105.1539
-111.66385
-118.49538
-125.66281
-133.17957
-141.05811
-149.30964
-157.94404
-166.9696
-176.39286
-186.21846
-196.44888
-207.0843
-218.12239
-229.55812
-241.38353
-253.58761
-266.15601
-279.07092
-292.31087
-305.85048
-319.66035
-333.70681
-347.9518
-362.35264
-376.86188
-391.42717
-405.99108
-420.49099
-434.85896
-449.02168
-462.90042
-476.41104
-489.46405
-501.96478
-513.81358
-524.90619
-535.13417
-544.38557
-552.54563
-559.49776
-565.12465
-569.30957
-571.9379
-572.89876
-572.08692
-569.40469
-564.76399
-558.08857
-549.31612
-538.3995
-525.30895
-510.0335
-492.58288
-472.98795
-451.30173
-427.59944
-401.97539
-374.54214
-345.43237
-314.79628
-282.79762
-249.61151
-215.42172
-180.41782
-144.79222
-108.73733
-72.442808
-36.093083
0.13484995
36.073319
71.56551
106.46665
140.64483
173.9815
206.37165
237.72372
267.95905
297.01138
324.82714
351.36461
376.59182
400.48586
423.03264
444.22586
464.06622
482.56079
499.72244
515.56902
530.12286
543.41288
555.48182
566.38278
576.1403
584.72294
592.24254
599.29931
606.29406
610.93546
-3.306292
-6.5006217
-9.6507881
-12.732654
-15.820356
-18.940819
-22.107311
-25.328432
-28.611782
-31.965288
-35.397652
-38.918483
-42.538299
-46.268504
-50.12134
-54.109831
-58.247724
-62.549423
-67.02991
-71.704663
-76.589562
-81.700781
-87.054681
-92.667682
-98.556132
-104.73617
-111.22357
-118.0336
-125.18084
-132.67903
-140.5409
-148.77798
-157.40043
-166.41684
-175.83405
-185.65697
-195.88838
-206.52872
-217.57592
-229.0252
-240.86883
-253.09602
-265.69265
-278.6411
-291.92006
-305.50437
-319.36476
-333.46775
-347.7754
-362.24519
-376.82981
-391.47702
-406.12951
-420.72472
-435.19479
-449.46643
-463.46087
-477.09387
-490.27574
-502.91152
-514.90113
-526.13971
-536.51808
-545.92329
-554.23942
-561.34844
-567.13138
-571.46962
-574.24638
-575.34845
-574.66805
-572.10496
-567.56878
-560.98102
-552.27642
-541.4052
-528.33538
-513.05453
-495.57098
-475.91467
-454.13802
-430.31583
-404.54404
-376.93871
-347.63537
-316.78676
-284.5599
-251.13353
-216.69522
-181.43837
-145.55915
-109.25355
-72.71455
-36.12956
0.32182957
36.469784
72.155769
107.23374
141.57096
175.04843
207.56114
239.01784
269.3406
298.46427
326.33605
352.91457
378.16865
402.0765
424.62493
445.80843
465.62833
484.09207
501.21249
517.00695
531.49721
544.71141
556.68765
567.46475
577.05304
585.45445
592.84256
599.58614
605.40621
608.44398
-3.0772324
-6.2745841
-9.4711992
-12.596688
-15.712602
-18.847656
-22.018805
-25.237579
-28.513505
-31.855698
-35.273586
-38.777226
-42.377432
-46.085821
-49.914808
-53.87758
-57.988053
-62.260815
-66.711052
-71.35447
-76.207204
-81.285709
-86.60665
-92.186772
-98.042776
-104.19116
-110.64809
-117.42922
-124.54954
-132.02319
-139.86331
-148.08183
-156.68933
-165.69479
-175.10544
-184.92656
-195.16127
-205.81037
-216.87209
-228.34196
-240.21254
-252.47329
-265.11031
-278.10622
-291.43992
-305.08642
-319.01665
-333.19726
-347.5905
-362.15397
-376.84051
-391.59799
-406.3692
-421.09169
-435.69763
-450.11373
-464.26116
-478.05551
-491.40684
-504.21978
-516.39367
-527.82288
-538.39721
-548.00244
-556.52105
-563.83316
-569.81759
-574.35318
-577.32032
-578.60263
-578.08901
-575.67597
-571.27016
-564.78938
-556.16456
-545.34314
-532.29058
-516.99234
-499.45526
-479.70857
-457.80454
-433.81836
-407.84731
-380.01004
-350.4452
-319.30916
-286.77334
-253.02126
-218.24555
-182.64471
-146.41995
-109.77203
-72.898385
-35.990391
0.76891487
37.206831
73.16256
108.48839
143.05049
176.72932
209.41976
241.03091
271.48561
300.71991
328.68234
355.33291
380.64199
404.58936
427.16329
448.35956
468.1805
486.63421
503.73358
519.49533
533.93996
547.09288
558.98473
569.63956
579.05826
587.25695
594.38208
600.57838
605.38883
607.61766
-2.9523496
-6.1096826
-9.3125422
-12.455174
-15.584033
-18.724531
-21.894074
-25.105444
-28.369299
-31.695584
-35.094297
-38.575882
-42.151429
-45.832764
-49.632484
-53.56395
-57.641261
-61.879202
-66.293183
-70.89916
-75.713544
-80.753095
-86.034812
-91.5758
-97.393143
-103.50375
-109.92421
-116.67061
-123.75842
-131.20223
-139.01566
-147.21112
-155.79967
-164.79077
-174.19211
-184.00943
-194.24632
-204.90401
-215.98116
-227.47369
-239.37455
-251.67357
-264.35722
-277.40844
-290.80644
-304.52654
-318.53995
-332.81362
-347.31003
-361.98707
-376.79779
-391.6903
-406.6076
-421.48738
-436.26197
-450.85811
-465.19695
-479.19396
-492.7589
-505.79594
-518.20375
-529.87574
-540.70047
-550.56213
-559.34126
-566.9156
-573.16119
-577.95369
-581.16982
-582.68923
-582.39657
-580.18443
-575.95492
-569.62057
-561.10824
-550.3613
-537.34168
-522.03194
-504.43681
-484.58443
-462.52697
-438.34055
-412.12469
-384.00127
-354.11298
-322.62106
-289.70246
-255.54682
-220.35315
-184.32646
-147.67431
-110.60355
-73.317215
-36.011712
1.125583
37.918375
74.203046
109.82984
144.66361
178.58422
211.48654
243.2802
273.88904
303.25047
331.31462
358.04328
383.4088
407.39301
429.98619
451.18602
470.99661
489.42749
506.49262
522.20941
536.59858
549.68438
561.49259
572.0397
581.32695
589.37743
596.28824
602.05309
606.21583
608.02614
-2.885026
-5.9968425
-9.1873679
-12.330597
-15.460984
-18.599313
-21.761777
-24.961243
-28.208813
-31.514888
-34.889834
-38.344385
-41.889858
-45.538277
-49.302426
-53.19586
-57.232894
-61.428552
-65.798517
-70.359051
-75.126905
-80.119217
-85.353395
-90.846985
-96.617541
-102.68247
-109.05887
-115.76337
-122.81199
-130.21987
-138.00122
-146.169
-154.73483
-163.70874
-173.09898
-182.91182
-193.15138
-203.81939
-214.915
-226.4346
-238.37158
-250.71619
-263.4553
-276.57222
-290.04654
-303.85391
-317.96587
-332.34968
-346.96814
-361.77942
-376.73687
-391.78887
-406.87865
-421.94413
-436.91779
-451.72647
-466.29132
-480.52768
-494.34503
-507.647
-520.33151
-532.29089
-543.41227
-553.57799
-562.66627
-570.55207
-577.10815
-582.20631
-585.71896
-587.5209
-587.49175
-585.51927
-581.49988
-575.3404
-566.96238
-556.30418
-543.32337
-527.99888
-510.33279
-490.35169
-468.10742
-443.67715
-417.16285
-388.69023
-358.40695
-326.48021
-293.09382
-258.44488
-222.74027
-186.19294
-149.01827
-111.43055
-73.639667
-35.848171
1.7512762
38.978007
75.664981
111.65996
146.82623
181.04291
214.2049
246.22252
277.02084
306.53894
334.7289
361.55464
386.99078
411.02147
433.6392
454.84368
474.64076
493.04137
510.06039
525.71566
540.02775
553.01924
564.71171
575.11756
584.24071
592.10516
598.76877
604.15717
607.88137
609.44951
-2.8419891
-5.9087299
-9.0766385
-12.208531
-15.330442
-18.458809
-21.607985
-24.790259
-28.016689
-31.297821
-34.644211
-38.066772
-41.576993
-45.187066
-48.909953
-52.759408
-56.749969
-60.89692
-65.216242
-69.724533
-74.438924
-79.376971
-84.556537
-89.995664
-95.712433
-101.72481
-108.05047
-114.70667
-121.71002
-129.07635
-136.82047
-144.95602
-153.49528
-162.44893
-171.82586
-181.63299
-191.87504
-202.55436
-213.67068
-225.22095
-237.1991
-249.5959
-262.39869
-275.59128
-289.15368
-303.06198
-317.28813
-331.79979
-346.56016
-361.52776
-376.65633
-391.89458
-407.18607
-422.46901
-437.6761
-452.73435
-467.56494
-482.08311
-496.19802
-509.81278
-522.82444
-535.12414
-546.59735
-557.12428
-566.58049
-574.83766
-581.76467
-587.22881
-591.09731
-593.23926
-593.52831
-591.84622
-588.08231
-582.1368
-573.92483
-563.37873
-550.45076
-535.11547
-517.37174
-497.24428
-474.78458
-450.07105
-423.20859
-394.32741
-363.5811
-331.14404
-297.20825
-261.97981
-225.67498
-188.51624
-150.72829
-112.53426
-74.152193
-35.791902
2.3477347
40.080943
77.236728
113.66003
149.21241
183.77224
217.2346
249.51074
280.52738
310.22569
338.56024
365.49772
391.01567
415.10119
437.74964
458.96346
478.75093
497.12501
514.10212
529.70113
543.94284
556.84852
568.43667
578.71728
587.69506
595.38873
601.82793
606.91645
610.34006
611.75704
-2.8148868
-5.8396163
-8.9801976
-12.093351
-15.199542
-18.311638
-21.442062
-24.602193
-27.802729
-31.054119
-34.366946
-37.752201
-41.221487
-44.787135
-48.462277
-52.260871
-56.197702
-60.288345
-64.549117
-68.997002
-73.649565
-78.524839
-83.641216
-89.0173
-94.671776
-100.62324
-106.89006
-113.49016
-120.44088
-127.75875
-135.45936
-143.55706
-152.06489
-160.99426
-170.35479
-180.15414
-190.39771
-201.08853
-212.227
-223.8107
-235.83417
-248.28874
-261.16233
-274.43926
-288.10006
-302.1213
-316.4754
-331.13048
-346.05018
-361.19349
-376.51454
-391.96247
-407.48125
-423.00945
-438.48006
-453.82033
-468.95156
-483.78891
-498.24132
-512.21134
-525.59515
-538.28259
-550.15734
-561.09728
-570.97497
-579.65841
-587.01211
-592.89815
-597.17783
-599.71368
-600.37252
-599.02869
-595.56343
-589.86918
-581.85334
-571.44104
-558.57813
-543.23384
-525.4031
-505.1083
-482.40038
-457.35916
-430.0929
-400.73707
-369.45225
-336.42133
-301.84605
-265.94309
-228.93984
-191.07
-152.56928
-113.67123
-74.603456
-35.584266
3.1802072
41.498267
79.19436
116.11021
152.10544
187.05767
220.86224
253.43159
284.69435
314.59422
343.08868
370.14765
395.75205
419.89241
442.56747
463.78285
483.54977
501.88374
518.80337
534.32925
548.48318
561.28634
572.75631
582.90306
591.7323
599.25758
605.4926
610.34128
613.55039
614.86605
-2.7988052
-5.7839312
-8.894401
-11.983477
-15.068076
-18.158323
-21.26487
-24.398078
-27.568105
-30.78514
-34.059662
-37.402656
-40.825778
-44.341467
-47.96301
-51.704569
-55.581186
-59.608747
-63.803936
-68.184161
-72.767461
-77.572403
-82.617959
-87.923364
-93.507976
-99.391104
-105.59185
-112.12893
-119.02047
-126.28383
-133.93541
-141.99042
-150.46272
-159.36457
-168.70641
-178.4967
-188.74166
-199.44508
-210.60812
-222.22906
-234.30315
-246.82238
-259.7753
-273.14683
-286.91808
-301.06618
-315.56409
-330.38046
-345.47944
-360.82051
-376.35833
-392.04253
-407.81754
-423.62238
-439.39043
-455.04925
-470.52031
-485.71881
-500.55345
-514.92627
-528.73255
-541.86076
-554.19265
-565.60352
-575.96263
-585.13387
-592.97678
-599.34757
-604.10076
-607.09137
-608.17829
-607.22711
-604.10991
-598.71004
-590.92586
-580.67404
-567.89283
-552.54514
-534.62116
-514.14042
-491.15312
-465.7406
-438.01497
-408.11775
-376.21767
-342.50753
-307.20044
-270.52545
-232.72293
-194.03966
-154.72411
-115.02194
-75.171787
-35.401704
4.0738918
43.056601
81.365771
118.83961
155.33569
190.73095
224.92127
257.82064
289.36006
319.48629
348.16033
375.35592
401.05799
425.26108
447.96785
469.18762
488.935
507.22851
524.08932
539.54006
553.60391
566.30258
577.65381
587.66853
596.35344
603.71895
609.77242
614.42755
617.47718
618.72057
-2.7863922
-5.7328483
-8.8114354
-11.87267
-14.931083
-17.994702
-21.072637
-24.174227
-27.308997
-30.486767
-33.717816
-37.013048
-40.384126
-43.843564
-47.404793
-51.082185
-54.891053
-58.847621
-62.968976
-67.272992
-71.778241
-76.503878
-81.469524
-86.695116
-92.200759
-98.006557
-104.13245
-110.59799
-117.42222
-124.6234
-132.21885
-140.22471
-148.65577
-157.52522
-166.84443
-176.62275
-186.86729
-197.5827
-208.77096
-220.43116
-232.55932
-245.14816
-258.18693
-271.66122
-285.55279
-299.83937
-314.49455
-329.48753
-344.78308
-360.34123
-376.11724
-392.06129
-408.11839
-424.2281
-440.32429
-456.33495
-472.18183
-487.78027
-503.03883
-517.85912
-532.13555
-545.7552
-558.59783
-570.536
-581.43539
-591.15542
-599.55014
-606.46922
-611.75959
-615.26772
-616.84338
-616.34215
-613.62558
-608.56639
-601.05239
-590.99033
-578.30951
-562.96535
-544.94236
-524.25659
-500.9572
-475.12718
-446.88299
-416.37314
-383.77574
-349.29511
-313.15755
-275.60651
-236.89737
-197.2921
-157.05393
-116.44243
-75.708904
-35.092551
5.1828208
44.911267
83.906467
122.00279
159.05568
194.94153
229.55699
262.81804
294.65859
325.02902
353.89452
381.23334
407.03509
431.29902
454.0324
475.24894
494.96732
513.20974
530.0006
545.36525
559.32895
571.91486
583.14196
593.02282
601.56541
608.77903
614.67054
619.16583
622.09153
623.2804
-2.7831324
-5.6925448
-8.7383243
-11.769049
-14.797749
-17.830859
-20.876174
-23.942066
-27.037388
-30.171522
-33.354478
-36.597021
-39.910775
-43.308304
-46.803168
-50.409949
-54.144242
-58.022633
-62.062641
-66.282651
-70.701812
-75.339929
-80.217332
-85.35473
-90.773053
-96.493281
-102.53626
-108.92252
-115.67205
-122.80414
-130.33711
-138.28815
-146.67307
-155.50608
-164.79957
-174.5639
-184.80716
-195.53494
-206.75014
-218.45275
-230.63963
-243.30431
-256.43682
-270.02348
-284.04676
-298.48507
-313.31265
-328.49937
-344.01062
-359.8071
-375.84468
-392.07424
-408.44141
-424.88639
-441.34369
-457.74179
-474.00289
-490.04255
-505.76935
-521.08452
-535.88168
-550.04655
-563.45683
-575.9822
-587.48453
-597.81837
-606.83178
-614.36718
-620.26305
-624.35627
-626.48614
-626.49696
-624.23837
-619.57078
-612.36987
-602.53079
-589.9724
-574.64125
-556.51508
-535.60569
-511.96088
-485.66535
-456.84041
-425.64254
-392.26065
-356.91231
-319.83904
-281.3009
-241.57058
-200.92751
-159.65184
-118.01904
-76.294832
-34.731002
6.4380982
46.998145
86.756619
125.54379
163.21298
199.64021
234.72333
268.38076
300.54994
331.18557
360.25768
387.74976
413.65678
437.98339
460.74211
481.95164
501.6353
519.81955
536.53255
551.80296
565.65874
578.12532
589.22381
598.96908
607.37104
614.43984
620.18505
624.54447
627.36952
628.51504
-2.7791314
-5.6508539
-8.6626646
-11.660599
-14.656495
-17.655508
-20.664299
-23.690329
-26.741773
-29.827532
-32.957296
-36.141644
-39.392126
-42.721335
-46.142951
-49.671766
-53.323676
-57.115652
-61.065686
-65.192715
-69.516522
-74.057622
-78.837127
-83.87659
-89.197852
-94.822848
-100.77344
-107.07118
-113.73717
-120.79177
-128.25444
-136.14348
-144.47585
-153.26688
-162.53008
-172.2769
-182.51649
-193.25552
-204.49787
-216.24451
-228.49322
-241.23842
-254.47097
-268.17802
-282.34277
-296.9444
-311.95785
-327.3537
-343.09804
-359.15228
-375.47303
-392.0119
-408.71528
-425.52413
-442.37368
-459.19311
-475.90521
-492.42595
-508.66405
-524.52056
-539.88842
-554.65209
-568.68721
-581.86054
-594.02994
-605.04478
-614.74661
-622.96998
-629.54404
-634.2949
-637.05007
-637.64105
-635.90393
-631.68497
-624.84584
-615.26827
-602.85891
-587.55387
-569.32287
-548.17254
-524.14887
-497.33828
-467.86755
-435.90219
-401.64349
-365.32425
-327.2035
-287.56039
-246.68755
-204.88437
-162.4504
-119.67916
-76.852742
-34.237067
7.9217455
49.400137
89.998874
129.54393
167.88658
204.90277
240.49205
274.57593
307.09612
338.0124
367.30053
394.95004
420.96212
445.3476
468.12501
489.31876
508.9575
527.07256
543.6965
558.86183
572.59986
584.93894
595.90296
605.50962
613.77136
620.70056
626.31105
630.55114
633.2908
634.40013
-2.78431
-5.6195266
-8.597034
-11.560702
-14.521569
-17.483746
-20.452895
-23.435626
-26.439437
-29.472717
-32.544801
-35.666044
-38.847888
-42.102935
-45.444977
-48.889018
-52.451266
-56.149104
-60.001027
-64.026573
-68.246211
-72.681227
-77.353585
-82.285761
-87.500584
-93.02104
-98.870083
-105.07042
-111.64432
-118.61334
-125.99818
-133.81837
-142.0921
-150.83594
-160.0646
-169.79075
-180.02472
-190.77429
-202.04446
-213.83725
-226.15145
-238.98244
-252.322
-266.15811
-280.47484
-295.25212
-310.46568
-326.08686
-342.08251
-358.4148
-375.04115
-391.91398
-408.98055
-426.18269
-443.45651
-460.73205
-477.93284
-494.97547
-511.76902
-528.21454
-544.20448
-559.62214
-574.34123
-588.22553
-601.12876
-612.89484
-623.35837
-632.34531
-639.6746
-645.16044
-648.61701
-649.86155
-648.71477
-645.00687
-638.58336
-629.31045
-617.08057
-601.81759
-583.48165
-562.07317
-537.6357
-510.25742
-480.07113
-447.2526
-412.01721
-374.61523
-335.32579
-294.44995
-252.30316
-209.20768
-165.4851
-121.44947
-77.401274
-33.622289
9.6283298
52.116922
93.637056
134.01028
173.08597
210.74045
246.87551
281.41654
314.31032
345.52263
375.03584
402.84643
428.9627
453.40247
476.19107
497.35937
516.94202
534.97589
551.49854
566.54694
580.15637
592.35872
603.18127
612.64499
620.76544
627.55813
633.04171
637.17344
639.83758
640.91527
-2.7877534
-5.585318
-8.5277085
-11.455667
-14.379411
-17.302112
-20.228515
-23.164417
-26.116641
-29.093048
-32.102583
-35.155345
-38.26265
-41.437086
-44.692552
-48.04427
-51.508779
-55.103898
-58.848669
-62.763274
-66.868931
-71.187762
-75.742658
-80.5571
-85.654994
-91.060468
-96.797673
-102.89056
-109.36268
-116.2369
-123.53525
-131.27859
-139.48648
-148.1768
-157.36562
-167.06689
-177.29221
-188.0506
-199.34827
-211.18835
-223.57074
-236.49185
-249.94441
-263.91737
-278.39564
-293.36001
-308.78702
-324.64881
-340.91304
-357.54272
-374.49613
-391.72662
-409.18239
-426.80631
-444.53552
-462.3011
-480.02758
-497.63237
-515.02519
-532.10736
-548.7711
-564.89877
-580.36229
-595.02255
-608.72909
-621.32014
-632.62294
-642.45424
-650.62185
-656.92683
-661.16845
-663.14792
-662.66863
-659.54239
-653.59625
-644.67849
-632.66495
-617.46517
-599.02795
-577.34615
-552.46017
-524.45986
-493.48472
-459.72205
-423.40335
-384.79888
-344.21082
-301.96533
-258.40401
-213.87518
-168.72552
-123.2923
-77.896669
-32.838084
11.609939
55.202772
97.726366
138.99781
178.86487
217.2048
253.92244
288.94792
322.23411
353.75382
383.49707
411.46832
437.68393
462.16965
484.95845
506.08842
525.60096
543.53911
559.94604
574.86377
588.33207
600.38694
611.05948
620.37439
628.35075
635.00775
640.36889
644.399
646.99371
648.04257
-2.800357
-5.561329
-8.4686492
-11.360138
-14.24538
-17.126687
-20.007939
-22.894143
-25.791444
-28.70715
-31.649791
-34.629181
-37.656481
-40.744255
-43.906498
-47.158658
-50.517615
-54.001657
-57.630406
-61.424741
-65.406684
-69.599266
-74.026377
-78.71259
-83.682979
-88.962909
-94.577832
-100.55305
-106.91349
-113.68346
-120.88642
-128.5447
-136.67929
-145.30956
-154.45298
-164.12494
-174.3384
-185.10373
-196.42842
-208.31684
-220.77004
-233.78555
-247.35715
-261.47475
-276.1242
-291.28718
-306.94107
-323.05886
-339.60906
-356.55557
-373.85759
-391.46947
-409.3405
-427.41469
-445.63039
-463.91994
-482.20908
-500.41639
-518.4525
-536.21933
-553.60917
-570.50378
-586.77352
-602.27655
-616.85826
-630.35105
-642.57442
-653.33534
-662.42956
-669.64374
-674.76052
-677.56327
-677.83589
-675.36933
-669.96947
-661.46391
-649.70924
-634.59814
-616.06597
-594.09644
-568.72589
-540.04569
-508.20266
-473.39716
-435.87904
-395.94144
-353.91294
-310.14849
-265.01956
-218.90425
-172.17768
-125.20335
-78.325575
-31.863452
13.893743
58.689565
102.30199
144.54372
185.26136
224.33381
261.66985
297.20548
330.90076
362.73674
392.71224
420.84084
447.148
471.66842
494.44359
515.51967
534.94553
552.77107
569.0457
583.81703
597.12987
609.02479
619.53714
628.69565
636.52332
643.04321
648.2835
652.21545
654.74409
655.76571
-2.8121256
-5.5355985
-8.4075401
-11.261841
-14.107322
-16.945434
-19.779206
-22.612855
-25.451833
-28.302877
-31.174072
-34.074922
-37.016412
-40.011063
-43.072969
-46.217804
-49.462815
-52.826783
-56.329957
-59.993965
-63.841697
-67.897163
-72.18534
-76.731979
-81.563421
-86.706371
-92.187685
-98.034125
-104.27213
-110.92753
-118.02535
-125.5895
-133.64254
-142.20541
-151.29713
-160.9346
-171.13229
-181.90201
-193.2526
-205.18979
-217.71586
-230.82952
-244.52566
-258.79523
-273.62503
-288.99767
-304.89142
-321.28014
-338.13323
-355.41551
-373.08718
-391.10366
-409.41542
-427.96778
-446.70051
-465.54742
-484.43578
-503.28563
-522.00892
-540.50856
-558.67736
-576.39685
-593.53619
-609.95111
-625.48297
-639.95829
-653.18861
-664.97048
-675.08677
-683.30838
-689.39951
-693.12366
-694.24278
-692.5242
-687.74956
-679.72264
-668.27764
-653.28746
-634.67152
-612.40247
-586.51143
-557.09101
-524.29608
-488.34172
-449.49868
-408.08628
-364.46341
-319.018
-272.15571
-224.28856
-175.82396
-127.15497
-78.651858
-30.655429
16.52783
62.628834
107.41733
150.70185
192.32848
232.17867
270.16632
306.2345
340.35186
372.509
402.71487
430.99341
457.38036
481.92039
504.66452
525.66781
544.98739
562.68069
578.80394
593.41089
606.55188
618.27247
628.61263
637.60537
645.27782
651.65705
656.77561
660.61029
663.07418
664.06923
-2.8328345
-5.519972
-8.3570402
-11.174031
-13.97909
-16.772806
-19.557347
-22.336127
-25.113884
-27.896752
-30.692342
-33.509817
-36.359962
-39.255243
-42.20984
-45.239666
-48.362348
-51.597195
-54.965123
-58.488563
-62.191338
-66.098518
-70.236247
-74.631552
-79.312139
-84.306163
-89.641996
-95.347977
-101.45216
-107.98206
-114.96436
-122.42466
-130.38724
-138.87472
-147.90779
-157.50501
-167.68242
-178.45339
-189.82827
-201.81417
-214.41472
-227.62989
-241.45573
-255.88425
-270.90329
-286.4964
-302.64275
-319.3171
-336.48975
-354.12648
-372.18852
-390.63244
-409.41002
-428.46801
-447.74779
-467.18492
-486.70851
-506.24046
-525.69447
-544.97492
-563.97564
-582.57846
-600.65184
-618.04944
-634.60889
-650.1509
-664.47886
-677.37845
-688.61878
-697.95366
-705.12691
-709.87995
-711.95018
-711.07813
-707.01777
-699.54542
-688.46925
-673.63896
-654.95502
-632.37671
-605.92845
-575.70373
-541.86616
-504.64744
-464.34213
-421.29959
-375.91346
-328.60952
-279.83257
-230.03329
-179.65577
-129.12633
-78.844227
-29.174236
19.558453
67.071352
113.12584
157.52672
200.12038
240.79198
279.4619
316.08182
350.6305
383.10961
413.53973
441.95653
468.40729
492.94782
515.63967
536.54772
555.73813
573.27655
589.22663
603.64879
616.59933
628.12916
638.28316
647.09889
654.60772
660.8407
665.83448
669.57069
671.96958
672.93805
-2.8546207
-5.5052038
-8.3077991
-11.087543
-13.851752
-16.600099
-19.33386
-22.055613
-24.769348
-27.480563
-30.196358
-32.925526
-35.678627
-38.468057
-41.308081
-44.214854
-47.206407
-50.302607
-53.525085
-56.897134
-60.443585
-64.190643
-68.165715
-72.397203
-76.914286
-81.74668
-86.924396
-92.477468
-98.435704
-104.82839
-111.68403
-119.03005
-126.89256
-135.29597
-144.2628
-153.81335
-163.9654
-174.73396
-186.13098
-198.16507
-210.84131
-224.16095
-238.12129
-252.71547
-267.93237
-283.75648
-300.16792
-317.14233
-334.65093
-352.66046
-371.13323
-390.02702
-409.295
-428.88552
-448.74178
-468.80138
-488.99563
-509.2487
-529.47657
-549.58569
-569.47152
-589.01685
-608.09004
-626.54327
-644.21084
-660.90789
-676.42964
-690.55047
-703.02493
-713.58843
-721.96236
-727.86361
-731.00207
-731.088
-727.84378
-721.01404
-710.37671
-695.75424
-677.02457
-654.13077
-627.0888
-595.99239
-561.01469
-522.4061
-480.4884
-435.64539
-388.31069
-338.95354
-288.06359
-236.13566
-183.6554
-131.08666
-78.860947
-27.369464
23.042401
72.078071
119.49062
165.08174
208.69924
250.23345
289.61288
326.79956
361.78415
394.58117
425.22442
453.76285
480.25667
504.77403
527.3881
548.17451
567.20926
584.5669
600.31909
614.53339
627.27246
638.59293
648.5448
657.17034
664.50525
670.58453
675.44858
679.08336
681.41571
682.35705
-2.8852263
-5.5007572
-8.2700181
-11.013123
-13.736582
-16.439107
-19.121034
-21.784059
-24.431381
-27.067817
-29.699915
-32.336064
-34.986569
-37.663737
-40.381911
-43.157497
-46.008946
-48.956721
-52.023213
-55.232641
-58.610913
-62.185462
-65.985051
-70.039563
-74.379764
-79.037053
-84.043202
-89.430073
-95.229352
-101.47224
-108.1892
-115.40961
-123.16152
-131.47132
-140.36345
-149.8601
-159.98089
-170.74261
-182.15891
-194.24003
-206.99253
-220.41907
-234.51824
-249.28433
-264.70729
-280.77261
-297.46128
-314.74985
-332.61043
-351.01073
-369.91414
-389.27969
-409.06203
-429.21127
-449.67265
-470.38607
-491.28546
-512.29776
-533.34181
-554.32679
-575.15056
-595.69764
-615.83712
-635.42039
-654.2791
-672.22318
-689.0398
-704.49183
-718.31848
-730.23553
-739.93983
-747.12094
-751.45801
-752.62724
-750.3149
-744.22916
-734.11268
-719.75591
-701.00997
-677.79829
-650.12609
-618.08654
-581.86308
-541.72723
-498.03186
-451.20038
-401.71246
-350.08737
-296.86622
-242.59424
-187.80428
-133.00239
-78.656031
-25.185372
27.042474
77.716297
126.58113
173.4365
218.13308
260.56811
300.68025
338.44395
373.86379
406.96911
437.80881
466.44674
492.95756
517.42309
539.92922
560.56332
579.41202
596.55947
612.08588
626.06642
638.57049
649.66068
659.39235
667.81258
674.96143
680.87775
685.60544
689.13437
691.39759
692.31082
-2.91925
-5.5004642
-8.2376895
-10.945117
-13.628302
-16.284918
-18.91429
-21.517179
-24.095935
-26.654643
-29.199255
-31.73771
-34.280032
-36.838419
-39.427282
-42.063285
-44.765324
-47.554491
-50.453991
-53.489034
-56.686687
-60.075699
-63.686296
-67.549954
-71.699148
-76.167085
-80.987431
-86.194012
-91.82053
-97.900248
-104.46571
-111.54838
-119.17844
-127.38435
-136.19262
-145.62745
-155.71046
-166.46033
-177.89253
-190.01901
-202.84794
-216.38345
-230.62544
-245.56944
-261.20646
-277.52295
-294.50082
-312.11745
-330.34582
-349.15458
-368.50818
-388.36694
-408.68706
-429.42052
-450.51482
-471.91252
-493.55054
-515.35918
-537.26079
-559.16808
-580.98219
-602.59035
-623.86331
-644.6527
-664.78828
-684.07548
-702.2937
-719.19421
-734.50025
-747.90676
-759.08404
-767.69115
-773.3729
-775.7672
-774.51912
-769.29477
-759.79578
-745.77491
-727.05132
-703.5246
-675.18642
-642.12826
-604.54462
-562.73082
-517.07541
-468.04744
-416.17971
-362.04921
-306.2562
-249.40359
-192.07782
-134.83242
-78.174847
-22.556948
31.630968
84.06269
134.47578
182.6689
228.4974
271.86764
312.73076
351.07602
386.92432
420.32201
451.33514
480.04431
506.54021
530.91972
553.28268
573.72914
592.35722
609.26129
624.53069
638.24859
650.49145
661.32809
670.81932
679.01716
685.96603
691.70846
696.29162
699.70898
701.89959
702.78334
-2.9623886
-5.5113917
-8.2185675
-10.891818
-13.535725
-16.146839
-18.723407
-21.26518
-23.773592
-26.251936
-28.705511
-31.141762
-33.570393
-36.003467
-38.455456
-40.943287
-43.486319
-46.106313
-48.827342
-51.675675
-54.679624
-57.869354
-61.276662
-64.934738
-68.877895
-73.141285
-77.760607
-82.771795
-88.210714
-94.112832
-100.51292
-107.44471
-114.94061
-123.03133
-131.74558
-141.10975
-151.14754
-161.87969
-173.3236
-185.49306
-198.39791
-212.04385
-226.43217
-241.55963
-257.41832
-273.99565
-291.27437
-309.23266
-327.84431
-347.07884
-366.90173
-387.27456
-408.15513
-429.49742
-451.25139
-473.36258
-495.77138
-518.41203
-541.21113
-564.08586
-586.94166
-609.66959
-632.14332
-654.21586
-675.71624
-696.44625
-716.17814
-734.65166
-751.57361
-766.61703
-779.42396
-789.61899
-796.80861
-800.5881
-800.55547
-796.32825
-787.56028
-773.95987
-755.30805
-731.47549
-702.43672
-668.28
-629.21164
-585.5539
-537.73623
-486.28044
-431.78087
-374.8812
-316.24985
-256.5558
-196.44641
-136.52865
-77.354353
-19.409898
36.88983
91.203511
143.26218
192.86538
239.87543
284.21049
325.83693
364.76165
401.02455
434.6915
465.84792
494.59321
521.0358
545.28913
567.46815
587.68666
606.05503
622.67856
637.65615
651.0794
663.03209
673.58943
682.81785
690.77427
697.50745
703.06348
707.49255
710.79149
712.90525
713.75782
-3.0113757
-5.5300333
-8.2095414
-10.850631
-13.456769