/*--------------------------------*- C++ -*----------------------------------*\
| =========                 |                                                 |
| \\      /  F ield         | foam-extend: Open Source CFD                    |
|  \\    /   O peration     | Version:     4.1                                |
|   \\  /    A nd           | Web:         http://www.foam-extend.org         |
|    \\/     M anipulation  |                                                 |
\*---------------------------------------------------------------------------*/
FoamFile
{
    version     2.0;
    format      ascii;
    class       surfaceScalarField;
    location    "0.8";
    object      phi;
}
// * * * * * * * * * * * * * * * * * * * * * * * * * * * * * * * * * * * * * //

dimensions      [0 3 -1 0 0 0 0];

internalField   nonuniform List<scalar> 
31929
(
-0.042657911
5.4396876e-05
-0.042720127
6.221579e-05
-0.042784141
6.4014397e-05
-0.042848944
6.4802259e-05
-0.042914113
6.5169e-05
-0.042979462
6.534987e-05
-0.043044889
6.5426932e-05
-0.043110328
6.5438385e-05
-0.043175731
6.5403097e-05
-0.043241066
6.5335275e-05
-0.04330631
6.5244206e-05
-0.043371451
6.5140307e-05
-0.043436482
6.503158e-05
-0.043501411
6.492825e-05
-0.043566249
6.4838559e-05
-0.043631022
6.4773051e-05
-0.043695762
6.4740188e-05
-0.043760513
6.4750514e-05
-0.043825325
6.4812211e-05
-0.04389026
6.4935214e-05
-0.043955387
6.5126746e-05
-0.044020782
6.5395433e-05
-0.044086529
6.5746825e-05
-0.044152717
6.618755e-05
-0.044219438
6.6720819e-05
-0.044286788
6.7350656e-05
-0.044354866
6.8077387e-05
-0.044423768
6.8901971e-05
-0.044493589
6.982147e-05
-0.044564423
7.0833513e-05
-0.044636354
7.1931716e-05
-0.044709464
7.3109977e-05
-0.044783824
7.4359814e-05
-0.044859494
7.5670084e-05
-0.044936525
7.7030371e-05
-0.045014951
7.8426411e-05
-0.045094796
7.9845259e-05
-0.045176067
8.127036e-05
-0.045258754
8.2686936e-05
-0.045342831
8.4076908e-05
-0.045428255
8.5424491e-05
-0.045514966
8.6711072e-05
-0.045602886
8.7920215e-05
-0.045691921
8.9034519e-05
-0.045781958
9.0037471e-05
-0.045872872
9.0913189e-05
-0.045964518
9.1646616e-05
-0.046056742
9.2223899e-05
-0.046149374
9.2632136e-05
-0.046242234
9.2859862e-05
-0.046335131
9.2896959e-05
-0.046427866
9.273473e-05
-0.046520232
9.2365882e-05
-0.046612016
9.178471e-05
-0.046703003
9.0986669e-05
-0.046792972
8.9968681e-05
-0.046881701
8.8728879e-05
-0.046968967
8.7266539e-05
-0.047054549
8.5581951e-05
-0.047138226
8.3676516e-05
-0.047219778
8.1552311e-05
-0.04729899
7.9212383e-05
-0.047375651
7.6660578e-05
-0.047449553
7.3901588e-05
-0.047520494
7.0941026e-05
-0.047588279
6.7785507e-05
-0.047652722
6.4442972e-05
-0.047713645
6.0922592e-05
-0.04777088
5.7235302e-05
-0.047824274
5.3393954e-05
-0.047873687
4.9413557e-05
-0.047918999
4.5311481e-05
-0.047960107
4.110764e-05
-0.047996931
3.6824411e-05
-0.048029418
3.248694e-05
-0.048057541
2.8123092e-05
-0.048081305
2.3763505e-05
-0.048100746
1.9441564e-05
-0.048115937
1.5191007e-05
-0.048126985
1.1047504e-05
-0.048134033
7.0481068e-06
-0.048137257
3.2244038e-06
-0.048136836
-4.2080177e-07
-0.048132964
-3.8721468e-06
-0.048125903
-7.0609331e-06
-0.048115978
-9.9252588e-06
-0.048103544
-1.2434231e-05
-0.048088977
-1.4567341e-05
-0.048072666
-1.631084e-05
-0.048055009
-1.7656943e-05
-0.048036405
-1.8603616e-05
-0.048017251
-1.9154309e-05
-0.047997933
-1.9317722e-05
-0.047978826
-1.9107326e-05
-0.047960285
-1.8540835e-05
-0.047942645
-1.7639583e-05
-0.047926218
-1.6427839e-05
-0.047911285
-1.4932118e-05
-0.047898105
-1.318042e-05
-0.047886903
-1.1201642e-05
-0.047877879
-9.0249221e-06
-0.0478712
-6.6789356e-06
-0.047867008
-4.1912519e-06
-0.047865418
-1.5900611e-06
-0.047866506
1.0874209e-06
-0.047870315
3.8093722e-06
-0.047876883
6.5681289e-06
-0.047886242
9.358867e-06
-0.04789841
1.2168079e-05
-0.047913392
1.4982216e-05
-0.047931181
1.7788808e-05
-0.047951758
2.0576555e-05
-0.047975093
2.3334895e-05
-0.048001146
2.6053184e-05
-0.048029865
2.8719275e-05
-0.048061183
3.1317845e-05
-0.048095015
3.3832209e-05
-0.048131255
3.6239711e-05
-0.048169735
3.8480012e-05
-0.048210109
4.037402e-05
-0.048251767
4.1658419e-05
-0.048294472
4.2704119e-05
-0.048339621
4.5149781e-05
4.746858e-05
-0.04903436
7.5862417e-05
-0.04905309
8.0945015e-05
-0.049072252
8.3177186e-05
-0.049091762
8.4311991e-05
-0.049111478
8.4885117e-05
-0.049131287
8.5158678e-05
-0.049151111
8.5250848e-05
-0.049170896
8.5223193e-05
-0.049190602
8.5108867e-05
-0.049210199
8.4932743e-05
-0.049229667
8.4712192e-05
-0.049248992
8.4465663e-05
-0.049268169
8.4208427e-05
-0.0492872
8.3958785e-05
-0.049306094
8.373268e-05
-0.04932487
8.354924e-05
-0.049343555
8.3425068e-05
-0.049362184
8.3379545e-05
-0.049380801
8.3428999e-05
-0.049399457
8.3591912e-05
-0.049418214
8.3883044e-05
-0.049437137
8.4318616e-05
-0.049456301
8.4910425e-05
-0.049475784
8.5671065e-05
-0.049495671
8.6608035e-05
-0.04951605
8.7729081e-05
-0.049537009
8.9036271e-05
-0.049558638
9.0531532e-05
-0.049581027
9.2210682e-05
-0.049604263
9.4069215e-05
-0.049628428
9.6096251e-05
-0.049653598
9.8280233e-05
-0.049679843
0.00010060526
-0.049707224
0.00010305093
-0.049735791
0.00010559677
-0.04976558
0.00010821618
-0.049796619
0.00011088352
-0.049828916
0.00011356746
-0.049862467
0.00011623845
-0.049897252
0.00011886187
-0.049933234
0.0001214059
-0.049970357
0.00012383444
-0.050008551
0.00012611439
-0.050047728
0.0001282112
-0.050087782
0.00013009173
-0.050128593
0.00013172397
-0.050170024
0.00013307747
-0.050211924
0.00013412394
-0.050254129
0.000134837
-0.050296462
0.00013519302
-0.050338736
0.00013517096
-0.050380754
0.00013475263
-0.050422311
0.00013392261
-0.050463195
0.00013266861
-0.050503189
0.00013098079
-0.050542072
0.00012885224
-0.050579622
0.00012627854
-0.050615613
0.00012325765
-0.050649821
0.00011978969
-0.050682021
0.00011587701
-0.050711993
0.00011152356
-0.050739515
0.00010673525
-0.050764375
0.00010151974
-0.050786359
9.5886467e-05
-0.050805265
8.9846797e-05
-0.050820894
8.3414227e-05
-0.050833056
7.660487e-05
-0.050841571
6.9437477e-05
-0.05084627
6.1934301e-05
-0.050846997
5.4121476e-05
-0.050843613
4.6029485e-05
-0.050835995
3.7693574e-05
-0.050824042
2.9154024e-05
-0.050807673
2.0456103e-05
-0.050786837
1.1650794e-05
-0.050761509
2.7944241e-06
-0.050731692
-6.0536715e-06
-0.050697422
-1.4827634e-05
-0.050658776
-2.3455861e-05
-0.050615863
-3.1865453e-05
-0.050568831
-3.9983564e-05
-0.050517867
-4.7739901e-05
-0.050463228
-5.5059245e-05
-0.050405233
-6.1867801e-05
-0.050344186
-6.8107643e-05
-0.050280384
-7.3726778e-05
-0.050214143
-7.8676041e-05
-0.050145794
-8.291619e-05
-0.050075686
-8.6418716e-05
-0.050004177
-8.9166015e-05
-0.049931629
-9.1151537e-05
-0.049858404
-9.2379165e-05
-0.049784859
-9.2863048e-05
-0.049711339
-9.2626622e-05
-0.049638179
-9.1701645e-05
-0.049565691
-9.0127011e-05
-0.049494172
-8.7947425e-05
-0.049423892
-8.521223e-05
-0.049355098
-8.1973692e-05
-0.049288014
-7.8286074e-05
-0.049222835
-7.4204222e-05
-0.049159731
-6.9782415e-05
-0.049098849
-6.5073588e-05
-0.04904031
-6.0129199e-05
-0.048984227
-5.4994927e-05
-0.048930706
-4.9712146e-05
-0.048879815
-4.4322726e-05
-0.048831592
-3.8864444e-05
-0.048786055
-3.336887e-05
-0.048743209
-2.7864064e-05
-0.048703045
-2.2374821e-05
-0.048665545
-1.6923311e-05
-0.04863068
-1.1529851e-05
-0.048598413
-6.2144963e-06
-0.048568694
-9.9930956e-07
-0.048541467
4.0902116e-06
-0.048516659
9.0248948e-06
-0.048494182
1.3762862e-05
-0.048473899
1.8196281e-05
-0.048455597
2.2072761e-05
-0.048439115
2.5176432e-05
-0.048424549
2.8137403e-05
-0.048410083
3.0684186e-05
2.4475371e-05
-0.049716603
8.8302537e-05
-0.049726491
9.0832946e-05
-0.049735774
9.2460254e-05
-0.04974489
9.3428075e-05
-0.049753943
9.3937881e-05
-0.049762936
9.4151361e-05
-0.04977185
9.4164846e-05
-0.049780667
9.4040008e-05
-0.049789373
9.3815355e-05
-0.049797963
9.3522632e-05
-0.049806437
9.3186002e-05
-0.049814802
9.2831029e-05
-0.049823074
9.2479859e-05
-0.049831273
9.2157995e-05
-0.049839429
9.1888325e-05
-0.049847576
9.1697165e-05
-0.049855759
9.1607907e-05
-0.049864027
9.1646762e-05
-0.049872434
9.1836284e-05
-0.049881043
9.2200981e-05
-0.049889921
9.2760782e-05
-0.049899139
9.3536646e-05
-0.049908772
9.454399e-05
-0.0499189
9.5798395e-05
-0.049929601
9.7308997e-05
-0.049940956
9.9084385e-05
-0.049953046
0.00010112593
-0.049965948
0.000103434
-0.049979738
0.00010600116
-0.049994488
0.00010881878
-0.050010262
0.00011187011
-0.050027119
0.00011513689
-0.050045108
0.00011859506
-0.050064272
0.00012221473
-0.050084641
0.00012596535
-0.050106233
0.00012980864
-0.050129057
0.00013370706
-0.050153105
0.00013761598
-0.05017836
0.0001414927
-0.050204786
0.00014528823
-0.050232337
0.00014895692
-0.05026095
0.00015244795
-0.05029055
0.00015571427
-0.050321046
0.00015870717
-0.050352335
0.00016137996
-0.050384298
0.00016368758
-0.050416808
0.00016558723
-0.050449723
0.00016703913
-0.050482892
0.00016800633
-0.050516155
0.00016845561
-0.050549342
0.00016835748
-0.050582275
0.00016768636
-0.050614773
0.00016642057
-0.050646647
0.0001645427
-0.050677705
0.00016203877
-0.050707752
0.00015889878
-0.05073659
0.00015511616
-0.050764019
0.00015068754
-0.050789842
0.00014561249
-0.050813859
0.00013989356
-0.050835871
0.00013353545
-0.050855681
0.00012654555
-0.050873095
0.00011893354
-0.05088792
0.00011071161
-0.050899968
0.00010189463
-0.050909054
9.250053e-05
-0.050915
8.2550951e-05
-0.050917634
7.2071483e-05
-0.050916793
6.1092847e-05
-0.050912323
4.9651622e-05
-0.050904085
3.7791051e-05
-0.050891952
2.5561399e-05
-0.050875819
1.3020514e-05
-0.050855597
2.341996e-07
-0.050831223
-1.2723083e-05
-0.050802659
-2.5769277e-05
-0.0507699
-3.8813165e-05
-0.05073297
-5.1757748e-05
-0.050691926
-6.450022e-05
-0.050646858
-7.693307e-05
-0.050597894
-8.8947263e-05
-0.0505452
-0.00010043397
-0.050488975
-0.00011128452
-0.050429447
-0.00012139564
-0.05036688
-0.00013067504
-0.050301567
-0.00013903971
-0.050233826
-0.00014641703
-0.050163994
-0.00015274816
-0.050092423
-0.00015798961
-0.050019475
-0.00016211387
-0.049945517
-0.0001651099
-0.049870914
-0.00016698215
-0.049796026
-0.00016775049
-0.049721204
-0.00016744867
-0.049646783
-0.00016612296
-0.04957308
-0.0001638303
-0.049500391
-0.0001606364
-0.049428989
-0.00015661398
-0.049359123
-0.00015184011
-0.049291014
-0.00014639494
-0.049224859
-0.00014035944
-0.049160827
-0.00013381389
-0.049099064
-0.00012683649
-0.049039691
-0.00011950223
-0.048982806
-0.00011188039
-0.048928483
-0.00010403547
-0.048876778
-9.602771e-05
-0.048827731
-8.7911312e-05
-0.048781366
-7.9733767e-05
-0.048737693
-7.1537095e-05
-0.04869671
-6.3358126e-05
-0.048658403
-5.5229664e-05
-0.048622751
-4.718155e-05
-0.048589723
-3.9242837e-05
-0.048559278
-3.1444463e-05
-0.048531367
-2.3820746e-05
-0.04850593
-1.6412017e-05
-0.048482888
-9.2796023e-06
-0.048462131
-2.5603408e-06
-0.048443574
3.5154589e-06
-0.048427257
8.8595523e-06
-0.048413046
1.3926049e-05
-0.048399285
1.6923823e-05
1.2310063e-05
-0.049770462
9.832056e-05
-0.049779195
9.9565974e-05
-0.049787355
0.0001006198
-0.049795241
0.0001013144
-0.049802975
0.00010167164
-0.049810592
0.00010176861
-0.049818097
0.00010167026
-0.049825487
0.00010142974
-0.049832758
0.00010108583
-0.049839909
0.00010067436
-0.049846948
0.00010022486
-0.049853886
9.976919e-05
-0.049860742
9.9335899e-05
-0.049867542
9.8957328e-05
-0.049874317
9.8663043e-05
-0.049881106
9.8486239e-05
-0.049887955
9.8456822e-05
-0.049894915
9.8607505e-05
-0.049902046
9.8966741e-05
-0.049909409
9.9564699e-05
-0.049917075
0.00010042612
-0.049925114
0.00010157632
-0.049933604
0.00010303398
-0.049942623
0.00010481728
-0.049952251
0.00010693666
-0.049962568
0.00010940121
-0.049973653
0.00011221133
-0.049985585
0.00011536553
-0.049998437
0.00011885291
-0.050012278
0.00012266052
-0.050027174
0.00012676562
-0.05004318
0.00013114312
-0.050060346
0.00013576079
-0.05007871
0.00014057924
-0.050098303
0.00014555787
-0.050119141
0.00015064683
-0.050141231
0.00015579684
-0.050164565
0.00016095012
-0.050189123
0.00016605102
-0.050214871
0.00017103642
-0.050241762
0.00017584712
-0.050269732
0.00018041783
-0.050298705
0.0001846878
-0.050328592
0.00018859447
-0.05035929
0.00019207781
-0.050390683
0.00019507997
-0.050422641
0.000197546
-0.050455027
0.00019942486
-0.05048769
0.00020066909
-0.05052047
0.00020123605
-0.050553201
0.00020108781
-0.050585706
0.00020019142
-0.050617804
0.00019851891
-0.050649309
0.00019604764
-0.05068003
0.00019275935
-0.050709772
0.00018864079
-0.050738338
0.00018368296
-0.050765532
0.00017788091
-0.050791153
0.00017123334
-0.050815002
0.00016374261
-0.05083688
0.00015541379
-0.05085659
0.00014625526
-0.050873935
0.00013627828
-0.05088872
0.00012549726
-0.050900756
0.00011393006
-0.050909854
0.00010159843
-0.050915832
8.8529035e-05
-0.050918514
7.4753707e-05
-0.050917732
6.031115e-05
-0.050913329
4.5248057e-05
-0.050905158
2.9620015e-05
-0.050893088
1.3491891e-05
-0.050877007
-3.0609907e-06
-0.05085682
-1.995283e-05
-0.050832456
-3.7086395e-05
-0.050803873
-5.4352568e-05
-0.050771055
-7.1630815e-05
-0.050734022
-8.8791494e-05
-0.050692825
-0.00010569708
-0.050647554
-0.00012220382
-0.050598336
-0.0001381652
-0.050545336
-0.0001534341
-0.050488755
-0.00016786564
-0.050428828
-0.00018132248
-0.050365824
-0.00019367875
-0.050300043
-0.00020482154
-0.050231806
-0.00021465335
-0.050161459
-0.00022309503
-0.050089361
-0.00023008777
-0.050015881
-0.00023559405
-0.049941393
-0.00023959846
-0.049866268
-0.00024210634
-0.049790875
-0.00024314376
-0.049715568
-0.00024275545
-0.049640688
-0.00024100291
-0.049566557
-0.00023796201
-0.049493473
-0.0002337203
-0.049421712
-0.00022837478
-0.049351524
-0.0002220282
-0.049283132
-0.0002147874
-0.049216731
-0.00020676033
-0.049152491
-0.00019805395
-0.049090555
-0.00018877222
-0.049031043
-0.00017901459
-0.048974049
-0.0001688737
-0.048919649
-0.0001584359
-0.048867896
-0.00014778053
-0.048818828
-0.00013697895
-0.048772468
-0.00012609423
-0.048728823
-0.00011518203
-0.04868789
-0.00010429083
-0.048649656
-9.3463559e-05
-0.048614099
-8.2738916e-05
-0.048581188
-7.2153891e-05
-0.048550886
-6.1746462e-05
-0.048523149
-5.1557721e-05
-0.048497924
-4.1636697e-05
-0.048475143
-3.2061291e-05
-0.048454728
-2.2975578e-05
-0.048436653
-1.4559005e-05
-0.048420933
-6.8610316e-06
-0.048407316
3.0936333e-07
-0.048395206
4.8140463e-06
4.1939598e-06
-0.049772246
0.00010753415
-0.049780847
0.00010816643
-0.049789024
0.00010879736
-0.049796933
0.00010922316
-0.04980466
0.00010939826
-0.049812241
0.00010934966
-0.049819688
0.00010911697
-0.049827001
0.00010874371
-0.049834183
0.00010826685
-0.049841233
0.00010772482
-0.04984816
0.00010715152
-0.049854975
0.00010658456
-0.049861698
0.00010605867
-0.049868353
0.00010561293
-0.049874974
0.0001052836
-0.049881599
0.00010511087
-0.049888273
0.00010513131
-0.04989505
0.0001053843
-0.049901988
0.00010590442
-0.049909151
0.0001067277
-0.049916608
0.00010788393
-0.049924435
0.00010940298
-0.049932708
0.000111307
-0.049941508
0.00011361699
-0.049950916
0.00011634487
-0.049961015
0.00011950039
-0.049971887
0.00012308309
-0.049983611
0.00012708972
-0.049996264
0.00013150602
-0.050009918
0.00013631471
-0.05002464
0.00014148707
-0.050040488
0.00014699112
-0.050057514
0.00015278639
-0.050075758
0.00015882385
-0.050095253
0.00016505271
-0.050116018
0.00017141137
-0.050138059
0.00017783853
-0.050161372
0.00018426306
-0.050185937
0.00019061607
-0.050211721
0.00019682001
-0.050238676
0.00020280179
-0.050266739
0.00020848137
-0.050295835
0.00021378398
-0.050325874
0.00021863286
-0.05035675
0.00022295437
-0.050388348
0.00022667757
-0.050420537
0.00022973509
-0.050453176
0.00023206437
-0.050486115
0.00023360728
-0.05051919
0.00023431157
-0.050552233
0.00023413078
-0.050585066
0.00023302451
-0.050617506
0.00023095843
-0.050649363
0.00022790473
-0.050680444
0.0002238409
-0.050710554
0.0002187505
-0.050739493
0.00021262223
-0.050767062
0.00020544964
-0.050793059
0.00019723064
-0.050817284
0.00018796749
-0.050839536
0.00017766567
-0.050859616
0.00016633453
-0.050877324
0.00015398686
-0.050892466
0.00014063912
-0.050904848
0.00012631193
-0.05091428
0.00011103062
-0.050920578
9.4826463e-05
-0.050923561
7.7737102e-05
-0.050923059
5.980894e-05
-0.050918909
4.1098325e-05
-0.050910962
2.1672519e-05
-0.050899081
1.6109502e-06
-0.050883147
-1.8994794e-05
-0.050863061
-4.003844e-05
-0.050838749
-6.1399081e-05
-0.050810161
-8.2940421e-05
-0.050777279
-0.00010451207
-0.05074012
-0.00012595119
-0.050698732
-0.00014708463
-0.050653205
-0.00016773119
-0.050603664
-0.00018770567
-0.050550277
-0.00020682195
-0.050493245
-0.00022489736
-0.050432809
-0.00024175812
-0.050369244
-0.00025724368
-0.050302856
-0.00027121023
-0.050233975
-0.00028353404
-0.050162955
-0.00029411477
-0.050090165
-0.00030287774
-0.050015984
-0.0003097753
-0.049940795
-0.00031478777
-0.049864979
-0.00031792182
-0.049788913
-0.00031921037
-0.049712958
-0.00031870999
-0.049637463
-0.00031649845
-0.049562753
-0.00031267163
-0.049489133
-0.00030734012
-0.049416882
-0.00030062636
-0.04934625
-0.00029265991
-0.049277462
-0.00028357535
-0.049210714
-0.00027350857
-0.049146174
-0.00026259404
-0.049083984
-0.00025096228
-0.04902426
-0.00023873809
-0.048967096
-0.00022603785
-0.048912562
-0.00021296974
-0.04886071
-0.0001996325
-0.048811575
-0.00018611474
-0.048765174
-0.00017249481
-0.048721514
-0.00015884161
-0.048680591
-0.0001452147
-0.048642388
-0.00013166631
-0.048606884
-0.0001182428
-0.048574051
-0.0001049873
-0.048543855
-9.194232e-05
-0.04851626
-7.915258e-05
-0.048491225
-6.6671868e-05
-0.048468703
-5.4583257e-05
-0.048448662
-4.3016353e-05
-0.048431118
-3.2102736e-05
-0.048416066
-2.1913579e-05
-0.048403382
-1.2374769e-05
-0.04839311
-5.4574857e-06
-1.8261541e-06
-0.049772904
0.00011639801
-0.049781455
0.00011671653
-0.049789703
0.00011704619
-0.049797714
0.00011723357
-0.049805536
0.00011722003
-0.049813195
0.00011700894
-0.049820702
0.00011662382
-0.049828059
0.00011610071
-0.049835267
0.00011547482
-0.049842328
0.0001147866
-0.049849251
0.00011407392
-0.049856046
0.00011337987
-0.049862733
0.00011274522
-0.049869336
0.00011221584
-0.049875887
0.00011183484
-0.049882426
0.00011164957
-0.049888998
0.00011170353
-0.049895657
0.00011204305
-0.049902461
0.00011270911
-0.049909477
0.00011374392
-0.049916776
0.00011518263
-0.049924433
0.00011705996
-0.049932528
0.00011940186
-0.049941143
0.00012223235
-0.049950364
0.00012556511
-0.049960274
0.00012941072
-0.049970959
0.00013376807
-0.049982501
0.00013863225
-0.049994981
0.0001439857
-0.050008473
0.00014980687
-0.050023047
0.00015606104
-0.050038765
0.00016270925
-0.050055682
0.00016970266
-0.05007384
0.00017698248
-0.050093275
0.00018448746
-0.050114008
0.00019214399
-0.050136048
0.00019987849
-0.050159391
0.00020760611
-0.050184019
0.00021524433
-0.0502099
0.00022270083
-0.050236986
0.00022988822
-0.050265216
0.00023671126
-0.050294513
0.00024308073
-0.050324785
0.00024890532
-0.050355928
0.00025409734
-0.050387823
0.00025857241
-0.050420338
0.00026225043
-0.050453331
0.00026505702
-0.050486647
0.00026692316
-0.050520122
0.00026778682
-0.050553584
0.00026759286
-0.050586853
0.0002662934
-0.050619743
0.00026384777
-0.050652061
0.00026022301
-0.050683613
0.0002553925
-0.050714199
0.00024933672
-0.050743619
0.00024204224
-0.05077167
0.00023350128
-0.050798151
0.00022371112
-0.050822857
0.00021267403
-0.050845588
0.00020039596
-0.05086614
0.00018688724
-0.050884316
0.00017216205
-0.050899915
0.00015623875
-0.050912744
0.00013914038
-0.050922609
0.00012089547
-0.050929322
0.00010153939
-0.050932699
8.1114995e-05
-0.050932566
5.9675897e-05
-0.050928755
3.7287286e-05
-0.05092111
1.4027261e-05
-0.050909488
-1.0010977e-05
-0.050893764
-3.4719179e-05
-0.050873831
-5.9971219e-05
-0.050849608
-8.5621928e-05
-0.050821041
-0.00011150785
-0.050788105
-0.0001374479
-0.050750811
-0.00016324514
-0.050709206
-0.00018868959
-0.050663376
-0.00021356091
-0.050613449
-0.00023763342
-0.05055959
-0.00026068021
-0.050502009
-0.00028247866
-0.050440951
-0.00030281648
-0.050376698
-0.00032149696
-0.050309564
-0.00033834392
-0.050239892
-0.00035320603
-0.050168046
-0.00036596065
-0.050094407
-0.00037651665
-0.050019366
-0.00038481598
-0.049943319
-0.00039083491
-0.049866659
-0.00039458194
-0.049789772
-0.00039609771
-0.04971303
-0.00039545176
-0.049636789
-0.00039273942
-0.049561383
-0.00038807805
-0.04948712
-0.00038160277
-0.049414283
-0.00037346299
-0.049343127
-0.00036381652
-0.049273875
-0.00035282708
-0.049206724
-0.0003406597
-0.049141841
-0.00032747742
-0.049079365
-0.0003134382
-0.04901941
-0.00029869295
-0.048962066
-0.00028338227
-0.048907399
-0.00026763651
-0.048855457
-0.00025157414
-0.048806271
-0.00023530121
-0.048759854
-0.00021891125
-0.04871621
-0.00020248615
-0.048675328
-0.00018609617
-0.048637192
-0.00016980225
-0.048601778
-0.0001536576
-0.048569055
-0.00013771025
-0.048538991
-0.00012200567
-0.048511554
-0.00010659029
-0.048486706
-9.1519076e-05
-0.048464419
-7.6870921e-05
-0.048444684
-6.2751325e-05
-0.048427529
-4.9257281e-05
-0.048412959
-3.6484136e-05
-0.048401022
-2.4310989e-05
-0.048392009
-1.4470782e-05
-6.7453426e-06
-0.049775714
0.00012512013
-0.049784248
0.00012525047
-0.04979256
0.00012535842
-0.049800666
0.00012533901
-0.049808586
0.0001251402
-0.049816334
0.00012475732
-0.049823916
0.00012420552
-0.049831332
0.00012351653
-0.049838582
0.00012272468
-0.049845668
0.00012187264
-0.049852596
0.00012100219
-0.049859378
0.00012016191
-0.049866031
0.00011939865
-0.049872581
0.00011876524
-0.049879058
0.00011831184
-0.049885501
0.00011809325
-0.049891958
0.00011816022
-0.049898481
0.00011856639
-0.049905132
0.00011935955
-0.049911976
0.00012058846
-0.049919088
0.00012229402
-0.049926544
0.00012451618
-0.049934427
0.00012728502
-0.049942823
0.00013062796
-0.049951818
0.00013456069
-0.049961503
0.00013909489
-0.049971964
0.000144229
-0.049983288
0.0001499566
-0.049995559
0.00015625692
-0.050008856
0.00016310417
-0.050023253
0.00017045757
-0.050038815
0.00017827113
-0.0500556
0.00018648748
-0.050073655
0.00019503782
-0.050093018
0.0002038502
-0.050113712
0.00021283865
-0.050135751
0.00022191694
-0.050159131
0.00023098608
-0.050183836
0.0002399495
-0.050209835
0.00024869955
-0.050237081
0.00025713408
-0.050265512
0.00026514213
-0.05029505
0.00027261956
-0.050325605
0.00027945995
-0.050357069
0.00028556114
-0.050389321
0.00029082482
-0.050422229
0.0002951578
-0.050455645
0.00029847355
-0.050489414
0.00030069185
-0.050523368
0.00030174069
-0.050557331
0.00030155614
-0.05059112
0.00030008276
-0.050624546
0.00029727356
-0.050657414
0.00029309052
-0.050689524
0.00028750304
-0.050720676
0.00028048874
-0.050750666
0.00027203224
-0.05077929
0.00026212466
-0.050806341
0.00025076285
-0.050831617
0.00023794926
-0.050854911
0.00022369042
-0.050876022
0.00020799763
-0.050894746
0.00019088638
-0.050910884
0.00017237669
-0.050924237
0.00015249369
-0.05093461
0.00013126857
-0.050941811
0.00010874018
-0.050945652
8.4956014e-05
-0.050945952
5.9975962e-05
-0.050942538
3.3873218e-05
-0.050935247
6.7360727e-06
-0.050923928
-2.1329517e-05
-0.050908449
-5.0198542e-05
-0.050888695
-7.9725248e-05
-0.050864576
-0.00010974066
-0.050836031
-0.00014005367
-0.050803027
-0.00017045169
-0.050765569
-0.00020070257
-0.050723701
-0.00023055802
-0.050677505
-0.00025975672
-0.050627108
-0.00028803045
-0.050572679
-0.00031510913
-0.05051443
-0.00034072758
-0.050452614
-0.0003646325
-0.050387522
-0.00038658887
-0.05031948
-0.00040638618
-0.050248842
-0.0004238438
-0.050175987
-0.00043881556
-0.050101311
-0.00045119306
-0.050025219
-0.00046090758
-0.049948123
-0.00046793155
-0.049870429
-0.00047227598
-0.049792536
-0.00047399029
-0.04971483
-0.00047315833
-0.049637675
-0.00046989463
-0.049561413
-0.0004643398
-0.04948636
-0.00045665534
-0.049412804
-0.00044701946
-0.049341
-0.00043562001
-0.049271176
-0.0004226515
-0.049203526
-0.00040830959
-0.049138216
-0.00039278722
-0.049075384
-0.00037627088
-0.049015138
-0.00035893843
-0.048957565
-0.00034095526
-0.048902727
-0.00032247424
-0.048850668
-0.00030363382
-0.048801411
-0.00028455752
-0.048754969
-0.00026535384
-0.048711338
-0.00024611726
-0.048670506
-0.00022692813
-0.048632453
-0.00020785536
-0.048597152
-0.00018895791
-0.048564575
-0.00017028742
-0.04853469
-0.00015189084
-0.048507466
-0.00013381455
-0.048482874
-0.0001161114
-0.048460894
-9.8850664e-05
-0.048441531
-8.2114128e-05
-0.048424812
-6.5976754e-05
-0.048410756
-5.0540164e-05
-0.048399516
-3.5550609e-05
-0.048391394
-2.2592969e-05
-1.1019158e-05
-0.049780387
0.00013378654
-0.049788929
0.00013379187
-0.049797299
0.00013372856
-0.049805487
0.00013352765
-0.049813496
0.00013314917
-0.049821328
0.00013258846
-0.04982898
0.00013185773
-0.04983645
0.00013098721
-0.049843737
0.00013001168
-0.049850841
0.00012897656
-0.049857767
0.00012792781
-0.049864525
0.00012691961
-0.049871131
0.00012600516
-0.04987761
0.00012524444
-0.049883994
0.00012469498
-0.04989032
0.0001244194
-0.049896636
0.00012447606
-0.049902996
0.00012492636
-0.049909461
0.0001258253
-0.049916102
0.00012722867
-0.049922991
0.00012918353
-0.04993021
0.00013173552
-0.049937845
0.00013491924
-0.049945983
0.00013876587
-0.049954715
0.00014329345
-0.049964135
0.00014851505
-0.049974335
0.00015442886
-0.049985406
0.00016102714
-0.049997435
0.000168286
-0.050010506
0.00017617545
-0.050024697
0.00018464863
-0.050040079
0.00019365237
-0.050056712
0.00020312061
-0.050074648
0.00021297429
-0.050093928
0.00022313045
-0.05011458
0.0002334904
-0.050136618
0.0002439548
-0.050160042
0.00025441006
-0.050184838
0.000264745
-0.050210974
0.00027483615
-0.050238406
0.00028456598
-0.050267071
0.00029380726
-0.050296892
0.00030244029
-0.050327775
0.00031034301
-0.050359612
0.00031739821
-0.05039228
0.0003234932
-0.050425644
0.00032852119
-0.050459553
0.00033238311
-0.050493849
0.00033498725
-0.050528359
0.00033625137
-0.050562906
0.0003361026
-0.050597301
0.00033447787
-0.050631351
0.00033132391
-0.050664859
0.00032659774
-0.050697621
0.00032026494
-0.050729432
0.0003123005
-0.050760087
0.00030268736
-0.050789379
0.00029141581
-0.050817098
0.00027848251
-0.050843039
0.00026389031
-0.050866995
0.00024764641
-0.050888761
0.00022976311
-0.050908132
0.00021025709
-0.050924905
0.00018914975
-0.050938879
0.00016646787
-0.050949855
0.00014224472
-0.050957637
0.00011652182
-0.050962031
8.9350517e-05
-0.050962851
6.0795889e-05
-0.050959916
3.093805e-05
-0.050953055
-1.2511325e-07
-0.050942108
-3.2276002e-05
-0.050926933
-6.537406e-05
-0.050907405
-9.9253129e-05
-0.050883425
-0.00013372081
-0.05085492
-0.00016855797
-0.050821852
-0.00020351965
-0.050784218
-0.00023833715
-0.050742054
-0.00027272201
-0.050695441
-0.00030636973
-0.050644504
-0.00033896695
-0.050589416
-0.00037019764
-0.050530393
-0.00039975103
-0.050467695
-0.00042732986
-0.050401626
-0.00045265809
-0.050332524
-0.00047548852
-0.050260758
-0.0004956092
-0.050186725
-0.00051284888
-0.050110837
-0.00052708099
-0.050033519
-0.00053822584
-0.049955198
-0.00054625232
-0.049876299
-0.00055117475
-0.049797237
-0.00055305265
-0.049718409
-0.00055198589
-0.049640194
-0.00054811017
-0.049562942
-0.0005415915
-0.049486977
-0.00053262001
-0.049412592
-0.00052140493
-0.049340046
-0.0005081663
-0.049269566
-0.00049313139
-0.049201347
-0.00047652828
-0.049135553
-0.00045858133
-0.049072317
-0.00043950687
-0.049011745
-0.00041951076
-0.048953916
-0.00039878389
-0.048898888
-0.00037750216
-0.048846698
-0.00035582429
-0.048797364
-0.00033389135
-0.048750891
-0.0003118266
-0.048707272
-0.00028973673
-0.048666488
-0.00026771158
-0.048628517
-0.00024582716
-0.048593327
-0.0002241471
-0.04856089
-0.00020272527
-0.048531172
-0.00018160849
-0.048504145
-0.000160841
-0.048479787
-0.00014047008
-0.048458085
-0.00012055203
-0.048439052
-0.00010114717
-0.048422716
-8.2313184e-05
-0.048409117
-6.4139207e-05
-0.048398453
-4.6214942e-05
-0.048390957
-3.0088344e-05
-1.4886425e-05
-0.049786903
0.0001424549
-0.04979548
0.00014236914
-0.049803919
0.00014216672
-0.049812194
0.00014180289
-0.049820294
0.00014124973
-0.049828212
0.00014050627
-0.04983594
0.00013958514
-0.04984347
0.0001385173
-0.049850797
0.00013733925
-0.049857921
0.00013609988
-0.049864842
0.00013484972
-0.049871572
0.00013364893
-0.049878124
0.00013255736
-0.049884522
0.00013164247
-0.049890797
0.00013096958
-0.049896987
0.00013060952
-0.04990314
0.00013062879
-0.04990931
0.00013109701
-0.049915562
0.00013207693
-0.049921965
0.00013363187
-0.049928597
0.0001358156
-0.049935541
0.00013867989
-0.049942887
0.00014226438
-0.049950725
0.00014660442
-0.049959153
0.0001517208
-0.049968266
0.00015762828
-0.049978162
0.00016432508
-0.049988937
0.00017180231
-0.050000684
0.00018003311
-0.050013492
0.00018898327
-0.050027443
0.00019859984
-0.050042613
0.00020882234
-0.050059068
0.0002195758
-0.050076865
0.00023077061
-0.050096047
0.00024231244
-0.050116646
0.00025408943
-0.05013868
0.00026598864
-0.050162151
0.0002778813
-0.050187047
0.00028964107
-0.050213339
0.00030112796
-0.050240981
0.00031220843
-0.050269912
0.00032273826
-0.050300054
0.00033258156
-0.050331311
0.00034159994
-0.050363573
0.00034966051
-0.050396715
0.00035663561
-0.050430598
0.00036240433
-0.05046507
0.00036685461
-0.050499966
0.00036988288
-0.050535111
0.0003713964
-0.050570321
0.00037131318
-0.050605406
0.00036956248
-0.050640167
0.00036608477
-0.050674401
0.00036083225
-0.050707903
0.00035376691
-0.050740464
0.00034486139
-0.050771874
0.00033409728
-0.050801923
0.00032146439
-0.0508304
0.00030695951
-0.050857095
0.00029058614
-0.050881801
0.00027235234
-0.05090431
0.00025227146
-0.050924414
0.00023036124
-0.050941908
0.00020664417
-0.050956589
0.00018114817
-0.050968252
0.00015390788
-0.050976697
0.00012496661
-0.050981725
9.4378549e-05
-0.050983141
6.2212693e-05
-0.050980758
2.8554725e-05
-0.050974394
-6.4892368e-06
-0.05096388
-4.279048e-05
-0.05094906
-8.0193548e-05
-0.0509298
-0.00011851312
-0.050905988
-0.00015753319
-0.05087754
-0.00019700615
-0.050844406
-0.00023665366
-0.050806574
-0.0002761689
-0.050764075
-0.00031522116
-0.050716984
-0.00035346003
-0.050665427
-0.00039052399
-0.050609577
-0.00042604761
-0.050549658
-0.00045967097
-0.050485938
-0.00049104932
-0.050418734
-0.00051986235
-0.050348399