/*--------------------------------*- C++ -*----------------------------------*\
| =========                 |                                                 |
| \\      /  F ield         | foam-extend: Open Source CFD                    |
|  \\    /   O peration     | Version:     4.1                                |
|   \\  /    A nd           | Web:         http://www.foam-extend.org         |
|    \\/     M anipulation  |                                                 |
\*---------------------------------------------------------------------------*/
FoamFile
{
    version     2.0;
    format      ascii;
    class       volScalarField;
    location    "0.8";
    object      rAU;
}
// * * * * * * * * * * * * * * * * * * * * * * * * * * * * * * * * * * * * * //

dimensions      [0 0 1 0 0 0 0];

internalField   nonuniform List<scalar> 
16126
(
0.00013372019
0.00013354803
0.00013340152
0.00013325405
0.00013310497
0.00013295631
0.0001328067
0.00013265792
0.00013250848
0.00013236009
0.00013221122
0.00013206355
0.00013191552
0.00013176875
0.00013162167
0.00013147587
0.00013132972
0.00013118478
0.00013103937
0.00013089502
0.00013075002
0.00013060584
0.00013046074
0.00013031614
0.0001301703
0.0001300246
0.00012987726
0.00012972968
0.00012958006
0.00012942978
0.00012927707
0.00012912292
0.00012896716
0.00012880845
0.00012864823
0.00012848481
0.00012831967
0.0001281512
0.00012798094
0.00012780733
0.00012763199
0.00012745357
0.00012727319
0.0001270906
0.00012690608
0.00012671987
0.00012653221
0.00012634353
0.00012615404
0.00012596417
0.0001257743
0.00012558487
0.00012539626
0.00012520906
0.0001250236
0.00012484042
0.00012465998
0.00012448278
0.00012430924
0.00012413997
0.00012397531
0.00012381576
0.00012366176
0.00012351373
0.0001233721
0.0001232372
0.00012310951
0.00012298926
0.00012287678
0.00012277236
0.00012267623
0.00012258854
0.00012250957
0.00012243929
0.00012237781
0.00012232511
0.00012228114
0.00012224571
0.00012221878
0.00012219992
0.0001221889
0.00012218532
0.00012218531
0.00012218881
0.00012219899
0.0001222153
0.00012223707
0.00012226361
0.00012229415
0.0001223279
0.00012236419
0.00012240211
0.00012244093
0.0001224799
0.00012251828
0.00012255538
0.00012259052
0.00012262319
0.00012265275
0.00012267873
0.00012270069
0.00012271826
0.00012273107
0.00012273899
0.00012273906
0.00012273106
0.00012271762
0.00012269872
0.00012267429
0.00012264448
0.00012260921
0.00012256858
0.00012252269
0.00012247163
0.00012241552
0.00012235461
0.00012228899
0.00012221893
0.00012214478
0.00012206721
0.00012198737
0.00012190572
0.0001218196
0.000121704
0.00012050179
0.00012042815
0.00012038876
0.00012035118
0.00012031304
0.00012027564
0.00012023746
0.00012020007
0.00012016199
0.0001201248
0.00012008701
0.00012005019
0.00012001284
0.00011997648
0.0001199396
0.0001199037
0.00011986724
0.00011983168
0.00011979545
0.00011975998
0.00011972368
0.00011968794
0.00011965113
0.00011961462
0.00011957677
0.00011953892
0.00011949941
0.00011945957
0.00011941775
0.00011937528
0.00011933049
0.00011928437
0.00011923676
0.00011918643
0.00011913477
0.00011908018
0.00011902411
0.00011896502
0.00011890439
0.00011884077
0.0001187757
0.00011870787
0.0001186384
0.00011856701
0.00011849398
0.00011841954
0.00011834388
0.00011826743
0.00011819037
0.00011811309
0.00011803595
0.00011795933
0.00011788361
0.00011780931
0.00011773676
0.00011766643
0.00011759876
0.0001175342
0.00011747317
0.00011741622
0.00011736367
0.00011731599
0.0001172736
0.00011723691
0.00011720629
0.00011718209
0.00011716476
0.0001171545
0.00011715165
0.00011715647
0.00011716919
0.00011718994
0.00011721897
0.00011725628
0.00011730193
0.00011735591
0.00011740441
0.00011745865
0.00011752119
0.00011759172
0.00011767012
0.00011775611
0.00011784608
0.00011793982
0.00011804022
0.00011814685
0.00011825923
0.00011837683
0.00011849908
0.00011862532
0.00011875504
0.00011888745
0.00011902193
0.0001191578
0.00011929439
0.00011943105
0.00011956713
0.00011970213
0.00011983539
0.00011996642
0.00012009476
0.00012021996
0.00012034162
0.00012045951
0.00012057068
0.00012067473
0.00012077405
0.00012086851
0.00012095799
0.00012104256
0.00012112211
0.00012119668
0.00012126632
0.00012133108
0.00012139099
0.00012143689
0.00012147837
0.00012151577
0.00012154948
0.00012158023
0.00012160878
0.00012163413
0.00012165682
0.00012167076
0.00011920637
0.00011915463
0.00011913239
0.000119113
0.00011909381
0.00011907587
0.00011905752
0.00011904021
0.00011902243
0.00011900568
0.00011898846
0.00011897225
0.00011895553
0.00011893977
0.00011892343
0.00011890793
0.0001188917
0.00011887614
0.00011885966
0.00011884363
0.00011882642
0.00011880939
0.00011879089
0.00011877226
0.00011875184
0.00011873096
0.00011870797
0.00011868419
0.00011865798
0.00011863068
0.00011860067
0.00011856895
0.00011853541
0.00011849885
0.0001184607
0.00011841943
0.00011837652
0.00011833051
0.00011828293
0.00011823236
0.00011818041
0.00011812583
0.00011806977
0.00011801201
0.00011795285
0.00011789256
0.00011783138
0.00011776972
0.00011770781
0.00011764604
0.00011758475
0.00011752434
0.00011746516
0.00011740772
0.00011735231
0.00011729939
0.00011724936
0.00011720263
0.00011715957
0.0001171207
0.00011708629
0.00011705677
0.00011703251
0.00011701386
0.00011700117
0.00011699474
0.00011699496
0.00011700203
0.00011701621
0.00011703775
0.00011706683
0.00011710355
0.00011714815
0.00011719918
0.00011723555
0.00011727961
0.00011731771
0.00011736117
0.00011741271
0.00011747218
0.00011753962
0.00011761489
0.00011769783
0.00011778821
0.0001178857
0.00011798993
0.00011810046
0.00011821679
0.00011833836
0.00011846455
0.00011859481
0.00011872838
0.00011886461
0.0001190028
0.00011914226
0.0001192823
0.00011942222
0.0001195615
0.00011969941
0.00011983544
0.00011996905
0.00012009978
0.00012022716
0.00012035093
0.00012047064
0.00012058607
0.00012069699
0.00012080321
0.00012090455
0.00012100101
0.00012109242
0.00012117877
0.00012126004
0.00012133624
0.00012140734
0.00012146411
0.00012151607
0.00012156348
0.00012160647
0.00012163731
0.00012166225
0.00012168331
0.0001217046
0.00012171429
0.00011908573
0.00011904046
0.00011902108
0.00011900394
0.000118987
0.00011897141
0.00011895553
0.00011894078
0.00011892564
0.00011891157
0.00011889706
0.00011888358
0.00011886958
0.00011885653
0.00011884284
0.00011882994
0.00011881624
0.00011880311
0.00011878894
0.0001187751
0.00011875992
0.00011874477
0.00011872796
0.00011871084
0.00011869173
0.00011867196
0.00011864987
0.00011862678
0.00011860105
0.00011857402
0.00011854408
0.00011851224
0.00011847841
0.00011844139
0.00011840264
0.00011836065
0.00011831692
0.00011827
0.00011822147
0.00011816992
0.00011811699
0.00011806147
0.00011800452
0.00011794597
0.00011788614
0.00011782532
0.00011776378
0.00011770196
0.0001176401
0.00011757862
0.0001175179
0.00011745832
0.00011740027
0.00011734427
0.00011729062
0.00011723977
0.00011719215
0.00011714818
0.00011710821
0.00011707277
0.00011704214
0.00011701674
0.00011699694
0.00011698309
0.00011697553
0.00011697455
0.00011698055
0.00011699369
0.00011701425
0.00011704244
0.00011707844
0.00011712233
0.00011716784
0.00011719518
0.00011720763
0.00011722772
0.00011725567
0.00011729163
0.00011733586
0.00011738829
0.00011744902
0.00011751798
0.00011759506
0.00011768008
0.00011777276
0.00011787277
0.0001179797
0.00011809308
0.00011821237
0.00011833693
0.00011846624
0.00011859951
0.00011873607
0.0001188752
0.00011901617
0.00011915827
0.00011930073
0.000119443
0.0001195843
0.00011972406
0.00011986172
0.00011999675
0.00012012864
0.00012025709
0.00012038162
0.00012050195
0.00012061783
0.00012072903
0.00012083536
0.00012093678
0.00012103311
0.0001211243
0.00012121034
0.0001212912
0.00012136685
0.00012143741
0.00012150278
0.00012156298
0.00012161789
0.00012165927
0.00012169308
0.00012172079
0.00012173821
0.00012173728
0.00011906435
0.00011902144
0.00011900288
0.00011898603
0.0001189692
0.00011895372
0.000118938
0.00011892345
0.00011890856
0.00011889477
0.00011888058
0.00011886744
0.0001188538
0.00011884109
0.00011882774
0.00011881516
0.00011880174
0.00011878885
0.00011877486
0.00011876112
0.00011874597
0.00011873073
0.00011871374
0.00011869631
0.00011867677
0.00011865643
0.00011863361
0.00011860965
0.0001185829
0.0001185547
0.00011852343
0.00011849011
0.00011845465
0.00011841588
0.00011837525
0.00011833127
0.00011828545
0.00011823638
0.00011818563
0.00011813184
0.00011807666
0.00011801891
0.00011795977
0.0001178991
0.00011783726
0.00011777456
0.0001177113
0.00011764795
0.00011758477
0.00011752221
0.00011746067
0.00011740058
0.00011734231
0.00011728642
0.00011723324
0.00011718322
0.0001171368
0.00011709441
0.00011705643
0.00011702338
0.00011699554
0.00011697334
0.00011695714
0.0001169473
0.00011694416
0.00011694799
0.00011695919
0.00011697791
0.00011700442
0.00011703892
0.00011708155
0.00011713238
0.00011715019
0.00011714744
0.00011715203
0.00011716431
0.00011718455
0.00011721296
0.00011724987
0.00011729526
0.00011734931
0.00011741202
0.00011748333
0.0001175631
0.00011765112
0.00011774709
0.00011785064
0.00011796131
0.00011807857
0.0001182018
0.00011833046
0.00011846374
0.00011860096
0.00011874136
0.00011888417
0.00011902862
0.00011917394
0.00011931949
0.00011946447
0.00011960824
0.00011975018
0.00011988974
0.00012002635
0.00012015966
0.00012028917
0.00012041456
0.00012053553
0.00012065185
0.00012076327
0.00012086977
0.00012097111
0.00012106726
0.00012115816
0.0001212438
0.0001213241
0.00012139918
0.00012146889
0.00012153322
0.00012159198
0.00012164491
0.00012169184
0.00012173189
0.00012175565
0.00012174963
0.00011904656
0.00011900466
0.00011898656
0.00011896983
0.00011895298
0.00011893746
0.00011892171
0.00011890717
0.00011889233
0.00011887864
0.00011886457
0.00011885159
0.00011883812
0.0001188256
0.00011881244
0.00011880003
0.00011878676
0.00011877399
0.00011876007
0.00011874634
0.00011873112
0.00011871573
0.00011869849
0.0001186807
0.00011866066
0.00011863969
0.00011861611
0.00011859124
0.00011856342
0.00011853399
0.00011850134
0.00011846648
0.00011842934
0.00011838873
0.00011834614
0.00011830008
0.00011825208
0.00011820074
0.00011814765
0.00011809148
0.0001180339
0.00011797375
0.00011791226
0.00011784929
0.00011778525
0.00011772046
0.00011765527
0.00011759016
0.00011752544
0.00011746157
0.00011739899
0.00011733813
0.00011727942
0.00011722341
0.00011717045
0.00011712103
0.00011707559
0.00011703457
0.00011699835
0.00011696747
0.00011694222
0.00011692301
0.00011691023
0.00011690423
0.00011690533
0.00011691381
0.00011693006
0.00011695423
0.00011698657
0.00011702727
0.00011707646
0.00011711701
0.00011710263
0.00011709185
0.00011708843
0.00011709275
0.00011710515
0.00011712591
0.00011715543
0.00011719375
0.00011724113
0.00011729761
0.00011736321
0.00011743784
0.00011752133
0.00011761343
0.00011771379
0.00011782197
0.00011793746
0.00011805962
0.00011818791
0.0001183215
0.00011845967
0.00011860162
0.00011874656
0.00011889367
0.0001190421
0.00011919119
0.00011934006
0.00011948805
0.00011963447
0.00011977871
0.00011992017
0.00012005847
0.00012019303
0.00012032353
0.00012044964
0.00012057108
0.0001206876
0.00012079914
0.00012090547
0.00012100653
0.00012110226
0.00012119263
0.00012127756
0.00012135716
0.00012143127
0.00012149985
0.00012156272
0.00012161965
0.00012167043
0.00012171589
0.00012175081
0.00012174875
0.00011902565
0.00011898418
0.00011896633
0.00011894967
0.00011893281
0.00011891724
0.00011890145
0.00011888691
0.00011887211
0.0001188585
0.00011884456
0.00011883172
0.00011881843
0.00011880611
0.00011879316
0.00011878096
0.00011876788
0.00011875527
0.00011874147
0.00011872781
0.00011871259
0.00011869712
0.0001186797
0.00011866162
0.00011864117
0.00011861966
0.00011859539
0.00011856967
0.00011854085
0.00011851026
0.00011847628
0.00011843993
0.00011840113
0.00011835872
0.00011831417
0.00011826602
0.00011821582
0.00011816217
0.00011810669
0.00011804807
0.000117988
0.00011792536
0.00011786139
0.000117796
0.00011772961
0.00011766258
0.00011759529
0.00011752825
0.00011746181
0.00011739644
0.00011733261
0.0001172708
0.00011721143
0.0001171551
0.00011710217
0.00011705315
0.00011700848
0.00011696863
0.000116934
0.00011690511
0.00011688227
0.0001168659
0.00011685638
0.00011685406
0.00011685927
0.00011687228
0.00011689349
0.00011692302
0.00011696113
0.00011700798
0.00011706371
0.00011707405
0.00011704824
0.00011702929
0.00011701772
0.00011701395
0.00011701841
0.00011703144
0.0001170535
0.00011708473
0.00011712542
0.00011717572
0.00011723568
0.00011730528
0.00011738439
0.00011747281
0.00011757021
0.00011767617
0.00011779017
0.00011791159
0.00011803985
0.00011817411
0.0001183136
0.00011845749
0.00011860494
0.00011875507
0.00011890698
0.00011905995
0.00011921306
0.00011936556
0.00011951674
0.00011966593
0.00011981248
0.00011995595
0.00012009576
0.00012023153
0.00012036289
0.00012048956
0.00012061126
0.00012072792
0.00012083927
0.00012094526
0.00012104582
0.00012114089
0.00012123042
0.00012131449
0.00012139293
0.00012146572
0.00012153268
0.00012159365
0.00012164835
0.0001216978
0.00012173683
0.00012174074
0.00011900162
0.00011896029
0.00011894254
0.00011892591
0.00011890903
0.00011889342
0.00011887761
0.00011886309
0.00011884835
0.00011883484
0.00011882105
0.0001188084
0.00011879534
0.00011878326
0.00011877057
0.00011875864
0.00011874582
0.00011873346
0.00011871987
0.00011870636
0.00011869123
0.00011867578
0.00011865827
0.00011863999
0.00011861923
0.00011859726
0.00011857239
0.00011854591
0.00011851615
0.00011848446
0.0001184492
0.0001184114
0.00011837097
0.00011832676
0.00011828025
0.00011823
0.00011817755
0.00011812154
0.0001180636
0.00011800245
0.00011793979
0.00011787454
0.00011780797
0.00011774001
0.00011767111
0.00011760167
0.0001175321
0.00011746295
0.00011739458
0.00011732751
0.00011726223
0.00011719925
0.00011713902
0.00011708216
0.00011702904
0.0001169802
0.00011693611
0.00011689723
0.00011686397
0.00011683687
0.00011681625
0.00011680253
0.00011679609
0.00011679729
0.00011680645
0.00011682385
0.00011684988
0.00011688466
0.00011692844
0.00011698138
0.0001170436
0.00011702158
0.00011698743
0.00011696012
0.00011694019
0.00011692816
0.00011692452
0.00011692968
0.00011694417
0.00011696821
0.00011700218
0.00011704627
0.00011710062
0.00011716525
0.0001172401
0.00011732498
0.00011741961
0.00011752357
0.00011763636
0.00011775732
0.00011788587
0.00011802112
0.00011816228
0.00011830847
0.00011845877
0.00011861227
0.000118768
0.00011892518
0.00011908281
0.00011924012
0.00011939631
0.00011955068
0.00011970252
0.00011985136
0.00011999656
0.00012013772
0.00012027446
0.00012040645
0.0001205334
0.00012065522
0.00012077165
0.00012088262
0.00012098805
0.00012108789
0.00012118207
0.00012127068
0.00012135356
0.00012143068
0.00012150191
0.0001215671
0.00012162597
0.00012167987
0.00012172359
0.0001217335
0.00011897452
0.00011893318
0.00011891541
0.00011889875
0.00011888181
0.00011886615
0.00011885032
0.00011883582
0.00011882114
0.00011880775
0.00011879412
0.00011878168
0.00011876888
0.00011875709
0.00011874472
0.00011873311
0.00011872062
0.00011870857
0.00011869527
0.00011868201
0.00011866707
0.00011865172
0.00011863423
0.00011861586
0.00011859488
0.00011857255
0.00011854716
0.00011852
0.0001184894
0.00011845667
0.00011842019
0.00011838098
0.00011833895
0.00011829296
0.00011824449
0.00011819211
0.00011813739
0.00011807896
0.00011801849
0.00011795472
0.00011788937
0.00011782139
0.00011775208
0.00011768139
0.00011760982
0.0001175378
0.00011746576
0.0001173943
0.0001173238
0.00011725482
0.00011718788
0.00011712351
0.0001170622
0.00011700459
0.00011695108
0.00011690221
0.00011685848
0.00011682037
0.00011678829
0.0001167628
0.00011674422
0.00011673299
0.00011672947
0.00011673404
0.00011674702
0.00011676868
0.00011679941
0.00011683935
0.00011688874
0.00011694772
0.00011700905
0.00011696345
0.00011692075
0.00011688484
0.00011685636
0.00011683588
0.00011682396
0.00011682109
0.00011682789
0.00011684464
0.00011687182
0.00011690969
0.00011695844
0.00011701818
0.00011708887
0.00011717038
0.00011726245
0.00011736467
0.00011747652
0.00011759736
0.00011772655
0.00011786319
0.00011800642
0.0001181553
0.00011830887
0.00011846614
0.00011862609
0.00011878785
0.00011895037
0.00011911281
0.00011927433
0.00011943414
0.00011959152
0.00011974593
0.00011989671
0.00012004342
0.00012018564
0.00012032304
0.00012045531
0.00012058234
0.00012070387
0.00012081981
0.00012093009
0.00012103466
0.00012113347
0.0001212266
0.00012131391
0.00012139538
0.00012147092
0.00012154042
0.00012160363
0.00012166227
0.00012171097
0.00012172678
0.00011894467
0.00011890318
0.00011888532
0.00011886856
0.00011885153
0.00011883582
0.00011881996
0.00011880548
0.00011879087
0.00011877762
0.00011876418
0.00011875199
0.00011873949
0.00011872804
0.00011871604
0.00011870484
0.00011869276
0.00011868111
0.00011866819
0.00011865527
0.00011864062
0.00011862549
0.00011860812
0.00011858976
0.00011856866
0.00011854607
0.00011852027
0.00011849252
0.00011846114
0.00011842744
0.00011838979
0.0001183492
0.0001183056
0.00011825783
0.0001182074
0.00011815286
0.00011809581
0.0001180349
0.00011797182
0.00011790531
0.00011783715
0.0001177663
0.00011769408
0.0001176205
0.00011754608
0.00011747127
0.00011739656
0.00011732256
0.00011724971
0.00011717858
0.00011710975
0.00011704376
0.00011698113
0.00011692254
0.00011686839
0.00011681927
0.00011677568
0.00011673811
0.00011670701
0.00011668292
0.00011666619
0.00011665724
0.00011665647
0.00011666424
0.00011668088
0.00011670667
0.00011674199
0.00011678698
0.00011684188
0.00011690685
0.00011695748
0.00011689973
0.00011684822
0.00011680347
0.00011676619
0.00011673703
0.0001167166
0.00011670551
0.00011670444
0.00011671377
0.00011673405
0.00011676562
0.00011680876
0.00011686364
0.00011693026
0.00011700854
0.00011709823
0.00011719893
0.00011731014
0.00011743117
0.00011756137
0.00011769977
0.00011784547
0.00011799747
0.00011815473
0.00011831618
0.00011848074
0.00011864748
0.00011881527
0.00011898319
0.00011915034
0.0001193159
0.00011947907
0.00011963929
0.00011979585
0.00011994827
0.00012009613
0.00012023907
0.00012037675
0.00012050907
0.00012063575
0.00012075671
0.00012087188
0.00012098123
0.00012108469
0.00012118237
0.00012127414
0.00012136001
0.00012143994
0.00012151383
0.0001215815
0.00012164506
0.00012169887
0.00012172045
0.00011891204
0.00011887035
0.0001188523
0.00011883539
0.00011881824
0.00011880244
0.00011878654
0.00011877207
0.00011875755
0.00011874444
0.00011873122
0.00011871932
0.00011870715
0.0001186961
0.00011868454
0.00011867381
0.00011866222
0.00011865106
0.00011863863
0.00011862615
0.0001186119
0.00011859709
0.00011857997
0.00011856173
0.00011854063
0.00011851789
0.00011849177
0.00011846353
0.00011843145
0.00011839686
0.0001183581
0.00011831619
0.00011827103
0.0001182215
0.00011816908
0.00011811236
0.00011805294
0.00011798948
0.00011792369
0.00011785435
0.00011778324
0.00011770937
0.00011763409
0.00011755743
0.00011747995
0.00011740216
0.00011732455
0.00011724779
0.00011717235
0.00011709885
0.00011702787
0.00011696002
0.00011689584
0.00011683602
0.00011678101
0.00011673141
0.00011668773
0.0001166505
0.00011662016
0.00011659729
0.00011658221
0.00011657538
0.00011657718
0.000116588
0.00011660815
0.00011663793
0.00011667773
0.00011672767
0.00011678802
0.00011685892
0.00011689758
0.00011683083
0.00011677023
0.00011671638
0.00011667003
0.00011663191
0.00011660275
0.0001165832
0.00011657405
0.00011657579
0.00011658903
0.00011661423
0.00011665172
0.00011670174
0.00011676437
0.00011683955
0.00011692705
0.0001170265
0.00011713736
0.00011725894
0.00011739052
0.0001175311
0.00011767971
0.00011783527
0.00011799667
0.00011816277
0.0001183324
0.00011850453
0.00011867798
0.00011885175
0.00011902489
0.0001191965
0.00011936574
0.000119532
0.00011969453
0.00011985284
0.00012000647
0.00012015504
0.00012029821
0.00012043587
0.00012056774
0.00012069374
0.00012081381
0.00012092792
0.00012103603
0.00012113825
0.00012123449
0.00012132478
0.00012140912
0.00012148746
0.00012155968
0.00012162826
0.00012168719
0.0001217144
0.00011887685
0.00011883487
0.00011881657
0.00011879945
0.00011878214
0.00011876622
0.00011875027
0.00011873582
0.00011872138
0.00011870843
0.00011869545
0.00011868387
0.00011867209
0.00011866149
0.00011865044
0.00011864026
0.00011862925
0.00011861869
0.00011860684
0.00011859493
0.00011858119
0.00011856683
0.00011855006
0.00011853208
0.0001185111
0.00011848832
0.00011846199
0.00011843334
0.00011840067
0.00011836525
0.00011832544
0.00011828224
0.00011823556
0.00011818426
0.00011812984
0.0001180709
0.00011800903
0.00011794294
0.00011787434
0.00011780203
0.00011772784
0.00011765078
0.00011757224
0.00011749231
0.00011741156
0.00011733055
0.0001172498
0.00011717004
0.00011709175
0.00011701561
0.00011694224
0.00011687226
0.00011680626
0.00011674496
0.00011668884
0.00011663851
0.00011659451
0.00011655739
0.00011652759
0.00011650571
0.00011649209
0.00011648718
0.00011649139
0.00011650508
0.0001165286
0.00011656223
0.00011660637
0.00011666117
0.00011672688
0.00011680366
0.00011683278
0.00011675674
0.00011668676
0.0001166235
0.00011656778
0.00011652041
0.00011648221
0.00011645393
0.00011643647
0.0001164304
0.00011643643
0.00011645513
0.0001164869
0.00011653206
0.00011659075
0.00011666294
0.00011674845
0.00011684689
0.00011695771
0.00011708018
0.00011721356
0.00011735676
0.00011750874
0.00011766835
0.00011783438
0.00011800561
0.00011818077
0.00011835876
0.0001185383
0.00011871834
0.00011889783
0.00011907583
0.00011925143
0.000119424
0.00011959274
0.00011975713
0.00011991668
0.00012007101
0.00012021977
0.00012036284
0.00012049995
0.00012063103
0.00012075601
0.00012087489
0.00012098765
0.00012109441
0.00012119512
0.00012128984
0.00012137861
0.00012146142
0.00012153822
0.00012161185
0.00012167588
0.00012170857
0.00011883908
0.00011879675
0.00011877814
0.00011876075
0.00011874324
0.00011872718
0.00011871115
0.0001186967
0.00011868235
0.00011866958
0.00011865687
0.00011864563
0.00011863429
0.00011862421
0.00011861375
0.0001186042
0.00011859387
0.000118584
0.00011857285
0.00011856163
0.00011854854
0.00011853476
0.00011851848
0.00011850088
0.00011848015
0.00011845746
0.00011843104
0.00011840211
0.00011836892
0.00011833276
0.00011829196
0.00011824752
0.00011819934
0.00011814628
0.00011808985
0.00011802864
0.00011796428
0.00011789546
0.00011782394
0.00011774853
0.00011767109
0.00011759067
0.00011750869
0.00011742527
0.00011734102
0.00011725654
0.00011717241
0.00011708938
0.00011700799
0.00011692893
0.00011685289
0.00011678052
0.00011671244
0.00011664939
0.0001165919
0.00011654059
0.00011649604
0.00011645879
0.00011642933
0.00011640824
0.00011639587
0.0001163927
0.00011639913
0.00011641553
0.00011644226
0.0001164796
0.00011652797
0.00011658752
0.00011665851
0.00011674112
0.00011676345
0.0001166778
0.0001165981
0.00011652509
0.00011645966
0.00011640271
0.00011635515
0.00011631783
0.00011629176
0.00011627762
0.00011627624
0.00011628826
0.00011631422
0.00011635449
0.00011640927
0.00011647859
0.00011656228
0.00011665996
0.00011677107
0.00011689482
0.00011703042
0.00011717671
0.00011733257
0.00011749674
0.00011766793
0.00011784481
0.00011802601
0.00011821034
0.00011839644
0.00011858317
0.0001187694
0.00011895413
0.00011913642
0.00011931556
0.00011949073
0.00011966139
0.00011982702
0.00011998723
0.00012014167
0.00012029022
0.00012043261
0.00012056877
0.00012069868
0.00012082233
0.00012093972
0.00012105101
0.00012115617
0.00012125531
0.00012134849
0.00012143578
0.00012151716
0.00012159584
0.0001216649
0.00012170294
0.00011879888
0.00011875612
0.00011873713
0.00011871942
0.00011870165
0.00011868541
0.00011866929
0.00011865483
0.00011864057
0.00011862799
0.00011861557
0.00011860473
0.00011859388
0.00011858438
0.00011857457
0.00011856575
0.00011855619
0.00011854714
0.00011853682
0.00011852641
0.0001185141
0.00011850104
0.0001184854
0.00011846833
0.00011844798
0.00011842552
0.00011839913
0.00011837002
0.00011833642
0.0001182996
0.00011825789
0.00011821225
0.00011816259
0.00011810778
0.00011804931
0.00011798579
0.00011791884
0.00011784721
0.00011777264
0.00011769399
0.00011761313
0.00011752915
0.00011744351
0.00011735637
0.00011726838
0.00011718017
0.00011709238
0.0001170058
0.00011692101
0.00011683875
0.00011675975
0.00011668469
0.00011661424
0.00011654918
0.00011649004
0.0001164375
0.00011639214
0.00011635452
0.00011632515
0.00011630463
0.00011629332
0.0001162917
0.00011630016
0.0001163191
0.00011634888
0.00011638979
0.00011644226
0.00011650644
0.00011658263
0.00011667101
0.00011668962
0.00011659402
0.00011650425
0.00011642113
0.00011634562
0.00011627871
0.00011622141
0.0001161747
0.00011613969
0.00011611718
0.00011610812
0.00011611329
0.00011613328
0.0001161686
0.00011621949
0.00011628605
0.00011636811
0.00011646529
0.00011657702
0.00011670246
0.00011684074
0.00011699063
0.0001171509
0.00011732019
0.00011749711
0.0001176802
0.000117868
0.0001180592
0.00011825236
0.00011844623
0.00011863963
0.00011883148
0.00011902078
0.00011920678
0.00011938864
0.00011956576
0.00011973764
0.00011990386
0.00012006407
0.00012021816
0.00012036587
0.00012050715
0.00012064198
0.00012077038
0.00012089238
0.00012100818
0.00012111776
0.00012122129
0.00012131886
0.00012141059
0.00012149653
0.00012158021
0.00012165422
0.00012169748
0.00011875623
0.00011871299
0.00011869355
0.00011867547
0.0001186574
0.00011864094
0.00011862469
0.00011861021
0.00011859603
0.00011858365
0.00011857155
0.00011856114
0.00011855084
0.00011854199
0.00011853292
0.00011852493
0.00011851627
0.00011850815
0.00011849879
0.00011848933
0.00011847796
0.00011846578
0.00011845093
0.00011843454
0.00011841473
0.00011839263
0.00011836642
0.00011833725
0.00011830336
0.00011826598
0.00011822341
0.00011817663
0.00011812553
0.00011806896
0.00011800843
0.00011794255
0.00011787296
0.0001177984
0.00011772065
0.00011763859
0.00011755413
0.00011746639
0.00011737687
0.00011728575
0.00011719375
0.00011710155
0.00011700981
0.00011691937
0.00011683088
0.00011674512
0.00011666284
0.0001165848
0.00011651168
0.00011644431
0.00011638325
0.0001163292
0.00011628278
0.00011624456
0.00011621505
0.00011619489
0.00011618442
0.00011618414
0.00011619446
0.00011621577
0.00011624844
0.00011629277
0.0001163492
0.0001164179
0.00011649919
0.00011659327
0.00011661158
0.00011650566
0.00011640544
0.0001163118
0.00011622579
0.00011614851
0.00011608106
0.00011602454
0.0001159802
0.00011594897
0.00011593194
0.00011592999
0.00011594386
0.00011597413
0.00011602113
0.000116085
0.00011616561
0.00011626258
0.00011637529
0.00011650284
0.0001166443
0.00011679833
0.00011696359
0.00011713862
0.00011732187
0.00011751178
0.00011770676
0.00011790541
0.00011810615
0.00011830766
0.00011850867
0.00011870804
0.0001189047
0.00011909786
0.00011928665
0.00011947045
0.00011964874
0.0001198211
0.00011998717
0.00012014686
0.00012029992
0.00012044632
0.00012058606
0.0001207192
0.00012084578
0.00012096604
0.00012108
0.00012118787
0.00012128979
0.00012138591
0.00012147635
0.00012156496
0.00012164383
0.00012169218
0.00011871125
0.00011866744
0.00011864749
0.00011862896
0.00011861053
0.0001185938
0.0001185774
0.00011856288
0.00011854878
0.00011853662
0.00011852486
0.00011851492
0.00011850522
0.00011849709
0.00011848887
0.0001184818
0.00011847415
0.0001184671
0.00011845884
0.00011845049
0.00011844021
0.00011842907
0.00011841519
0.00011839964
0.00011838053
0.00011835896
0.00011833306
0.00011830398
0.00011826991
0.00011823206
0.00011818873
0.00011814086
0.00011808834
0.00011803002
0.0001179674
0.0001178991
0.00011782677
0.00011774918
0.00011766811
0.00011758248
0.00011749422
0.00011740249
0.00011730884
0.00011721348
0.00011711719
0.00011702068
0.00011692468
0.00011683007
0.00011673756
0.00011664796
0.00011656209
0.00011648074
0.00011640464
0.00011633465
0.00011627138
0.00011621555
0.00011616779
0.00011612871
0.00011609883
0.00011607879
0.00011606896
0.00011606983
0.00011608182
0.00011610532
0.00011614071
0.0001161883
0.00011624855
0.00011632165
0.00011640793
0.00011650763
0.00011652944
0.00011641281
0.00011630173
0.00011619713
0.00011610018
0.00011601205
0.00011593398
0.0001158672
0.00011581309
0.00011577273
0.00011574737
0.00011573802
0.00011574555
0.00011577064
0.00011581374
0.000115875
0.00011595435
0.00011605139
0.00011616545
0.00011629559
0.00011644076
0.00011659952
0.00011677041
0.00011695182
0.00011714207
0.00011733946
0.00011754227
0.00011774896
0.00011795786
0.00011816753
0.00011837663
0.00011858393
0.00011878832
0.00011898897
0.00011918495
0.00011937565
0.00011956051
0.00011973913
0.00011991116
0.00012007651
0.00012023494
0.00012038646
0.0001205311
0.00012066893
0.00012080005
0.00012092472
0.000121043
0.00012115515
0.00012126134
0.00012136179
0.00012145666
0.00012155011
0.00012163372
0.00012168702
0.00011866393
0.0001186195
0.00011859895
0.00011857992
0.00011856107
0.00011854403
0.00011852743
0.00011851285
0.00011849883
0.00011848688
0.00011847549
0.00011846608
0.00011845704
0.00011844971
0.00011844241
0.00011843639
0.00011842988
0.00011842404
0.00011841703
0.00011840997
0.00011840095
0.00011839103
0.00011837829
0.00011836377
0.00011834555
0.00011832467
0.00011829926
0.0001182704
0.00011823628
0.00011819807
0.00011815406
0.00011810517
0.00011805127
0.0001179912
0.00011792647
0.0001178557
0.00011778054
0.00011769979
0.00011761524
0.00011752585
0.00011743359
0.00011733763
0.00011723958
0.0001171397
0.00011703881
0.00011693768
0.00011683708
0.00011673797
0.00011664108
0.0001165473
0.0001164575
0.0001163725
0.00011629309
0.00011622017
0.00011615438
0.00011609647
0.0001160471
0.0001160069
0.00011597641
0.00011595627
0.00011594686
0.00011594868
0.00011596214
0.00011598765
0.00011602559
0.00011607629
0.00011614021
0.00011621757
0.00011630873
0.00011641397
0.00011644344
0.00011631569
0.0001161933
0.00011607728
0.00011596889
0.0001158694
0.00011578019
0.00011570262
0.00011563823
0.00011558827
0.00011555416
0.00011553706
0.00011553798
0.00011555775
0.00011559688
0.00011565561
0.00011573388
0.00011583129
0.00011594711
0.00011608033
0.0001162298
0.00011639394
0.00011657114
0.00011675964
0.00011695762
0.0001171632
0.00011737452
0.00011758992
0.00011780758
0.00011802598
0.00011824367
0.00011845936
0.00011867186
0.00011888031
0.00011908376
0.00011928156
0.00011947317
0.00011965817
0.00011983624
0.00012000729
0.00012017112
0.00012032775
0.00012047725