/*--------------------------------*- C++ -*----------------------------------*\
| =========                 |                                                 |
| \\      /  F ield         | foam-extend: Open Source CFD                    |
|  \\    /   O peration     | Version:     4.1                                |
|   \\  /    A nd           | Web:         http://www.foam-extend.org         |
|    \\/     M anipulation  |                                                 |
\*---------------------------------------------------------------------------*/
FoamFile
{
    version     2.0;
    format      ascii;
    class       volVectorField;
    location    "0.8";
    object      U;
}
// * * * * * * * * * * * * * * * * * * * * * * * * * * * * * * * * * * * * * //

dimensions      [0 1 -1 0 0 0 0];

internalField   nonuniform List<vector> 
16126
(
(132.10428 -0.091352094 0)
(132.33736 -0.10122592 0)
(132.53091 -0.10344424 0)
(132.73103 -0.10440654 0)
(132.93261 -0.10487016 0)
(133.13498 -0.10512038 0)
(133.33774 -0.10525548 0)
(133.54061 -0.10531873 0)
(133.74344 -0.10533338 0)
(133.94611 -0.10531485 0)
(134.14852 -0.10527532 0)
(134.35062 -0.10522573 0)
(134.55238 -0.10517659 0)
(134.75381 -0.10513838 0)
(134.95494 -0.10512158 0)
(135.15581 -0.10513674 0)
(135.35653 -0.1051943 0)
(135.5572 -0.1053045 0)
(135.75798 -0.10547717 0)
(135.95903 -0.10572162 0)
(136.16057 -0.10604639 0)
(136.36282 -0.10645912 0)
(136.56603 -0.10696632 0)
(136.77045 -0.10757329 0)
(136.97639 -0.1082839 0)
(137.18412 -0.1091005 0)
(137.39396 -0.11002381 0)
(137.60621 -0.11105287 0)
(137.82116 -0.11218493 0)
(138.0391 -0.11341548 0)
(138.26033 -0.11473822 0)
(138.48508 -0.1161451 0)
(138.71361 -0.1176265 0)
(138.94612 -0.1191711 0)
(139.18277 -0.12076614 0)
(139.42371 -0.12239759 0)
(139.66903 -0.12405024 0)
(139.91876 -0.12570794 0)
(140.17291 -0.12735376 0)
(140.43142 -0.12897027 0)
(140.6942 -0.13053969 0)
(140.96106 -0.13204419 0)
(141.23181 -0.13346603 0)
(141.50618 -0.13478793 0)
(141.78384 -0.13599312 0)
(142.06442 -0.13706565 0)
(142.34751 -0.13799051 0)
(142.63264 -0.13875382 0)
(142.91931 -0.13934295 0)
(143.20697 -0.13974658 0)
(143.49505 -0.1399548 0)
(143.78295 -0.13995912 0)
(144.07002 -0.13975248 0)
(144.35563 -0.1393292 0)
(144.6391 -0.13868494 0)
(144.91976 -0.13781657 0)
(145.19692 -0.13672212 0)
(145.46989 -0.13540065 0)
(145.73799 -0.13385212 0)
(146.00051 -0.13207735 0)
(146.25679 -0.13007787 0)
(146.50615 -0.12785595 0)
(146.74792 -0.12541452 0)
(146.98145 -0.12275727 0)
(147.20611 -0.1198887 0)
(147.42128 -0.11681429 0)
(147.62638 -0.11354066 0)
(147.82082 -0.11007586 0)
(148.00409 -0.10642958 0)
(148.17567 -0.10261355 0)
(148.33511 -0.098641737 0)
(148.48201 -0.094530621 0)
(148.61601 -0.090299418 0)
(148.73684 -0.085970457 0)
(148.84428 -0.081569137 0)
(148.93822 -0.077122791 0)
(149.0186 -0.072659445 0)
(149.0855 -0.068206662 0)
(149.13909 -0.063794393 0)
(149.17964 -0.059455897 0)
(149.20753 -0.055222095 0)
(149.22326 -0.05111262 0)
(149.22747 -0.047135692 0)
(149.22064 -0.043346228 0)
(149.20343 -0.039848961 0)
(149.17681 -0.036716228 0)
(149.14186 -0.0339806 0)
(149.0997 -0.031661962 0)
(149.05153 -0.029772389 0)
(148.99857 -0.028317277 0)
(148.94205 -0.027295699 0)
(148.88323 -0.02670068 0)
(148.82331 -0.026519576 0)
(148.76348 -0.026734586 0)
(148.70487 -0.027323362 0)
(148.64855 -0.028259695 0)
(148.59553 -0.029514248 0)
(148.54673 -0.031055318 0)
(148.50298 -0.032849521 0)
(148.46504 -0.034862448 0)
(148.43357 -0.037059187 0)
(148.40912 -0.039404881 0)
(148.39219 -0.041864345 0)
(148.38316 -0.044399617 0)
(148.38236 -0.04696934 0)
(148.38994 -0.049551721 0)
(148.406 -0.052148957 0)
(148.43068 -0.054755264 0)
(148.46405 -0.057351853 0)
(148.50614 -0.059918118 0)
(148.55695 -0.06243294 0)
(148.61645 -0.064874337 0)
(148.68454 -0.067218349 0)
(148.76114 -0.069437031 0)
(148.84609 -0.071495337 0)
(148.93924 -0.073347505 0)
(149.04035 -0.074934216 0)
(149.149 -0.076170724 0)
(149.26468 -0.076887574 0)
(149.38736 -0.076748032 0)
(149.5177 -0.075403604 0)
(149.65335 -0.073156232 0)
(149.7779 -0.069447941 0)
(149.87057 -0.054196437 0)
(151.95817 -0.14299875 0)
(152.03588 -0.1571006 0)
(152.09394 -0.16154445 0)
(152.15406 -0.1636451 0)
(152.21495 -0.16467448 0)
(152.27628 -0.16517773 0)
(152.33775 -0.16537545 0)
(152.39918 -0.16537197 0)
(152.46041 -0.16522496 0)
(152.52135 -0.16497275 0)
(152.58191 -0.16464569 0)
(152.64204 -0.16427126 0)
(152.70172 -0.16387628 0)
(152.76094 -0.16348798 0)
(152.81971 -0.16313428 0)
(152.87808 -0.16284376 0)
(152.93612 -0.1626454 0)
(152.99393 -0.16256818 0)
(153.05162 -0.16264063 0)
(153.10935 -0.16289027 0)
(153.16729 -0.16334309 0)
(153.22564 -0.16402296 0)
(153.28461 -0.16495108 0)
(153.34445 -0.16614547 0)
(153.40541 -0.16762046 0)
(153.46776 -0.16938621 0)
(153.53176 -0.1714484 0)
(153.5977 -0.17380782 0)
(153.66586 -0.17646021 0)
(153.73652 -0.17939602 0)
(153.80993 -0.18260037 0)
(153.88634 -0.18605303 0)
(153.96599 -0.1897287 0)
(154.04907 -0.19359692 0)
(154.13575 -0.19762252 0)
(154.22619 -0.20176601 0)
(154.32046 -0.20598396 0)
(154.41863 -0.2102296 0)
(154.52071 -0.21445328 0)
(154.62665 -0.21860326 0)
(154.73638 -0.22262626 0)
(154.84975 -0.22646827 0)
(154.96656 -0.23007509 0)
(155.08656 -0.23339331 0)
(155.20946 -0.23637077 0)
(155.33491 -0.2389573 0)
(155.4625 -0.24110535 0)
(155.59179 -0.24277053 0)
(155.72229 -0.24391205 0)
(155.85347 -0.24449311 0)
(155.98477 -0.24448122 0)
(156.11558 -0.24384833 0)
(156.24529 -0.24257097 0)
(156.37325 -0.24063022 0)
(156.49878 -0.2380116 0)
(156.62122 -0.23470488 0)
(156.73987 -0.23070391 0)
(156.85404 -0.22600626 0)
(156.96303 -0.220613 0)
(157.06614 -0.21452841 0)
(157.16268 -0.20775974 0)
(157.25197 -0.20031706 0)
(157.33333 -0.19221321 0)
(157.40611 -0.18346385 0)
(157.46965 -0.17408767 0)
(157.52332 -0.16410669 0)
(157.56654 -0.15354682 0)
(157.59872 -0.14243836 0)
(157.61932 -0.13081682 0)
(157.62784 -0.11872375 0)
(157.62382 -0.10620727 0)
(157.60684 -0.093323002 0)
(157.57656 -0.080134487 0)
(157.53269 -0.066713306 0)
(157.47504 -0.053138379 0)
(157.40347 -0.039493738 0)
(157.31796 -0.025870323 0)
(157.21855 -0.012378295 0)
(157.10544 0.00087173845 0)
(156.97889 0.013768779 0)
(156.83932 0.026204079 0)
(156.68725 0.038082471 0)
(156.5233 0.049328045 0)
(156.34844 0.059843069 0)
(156.16369 0.069490441 0)
(155.96992 0.078149839 0)
(155.76809 0.08573788 0)
(155.5592 0.092192797 0)
(155.34431 0.097471116 0)
(155.12452 0.10154689 0)
(154.90095 0.10441136 0)
(154.67473 0.10607251 0)
(154.44697 0.10655413 0)
(154.21877 0.10589456 0)
(153.99117 0.10414512 0)
(153.76519 0.10136817 0)
(153.54178 0.097635123 0)
(153.3218 0.093024296 0)
(153.10607 0.087618795 0)
(152.89532 0.081504535 0)
(152.69018 0.074768368 0)
(152.49124 0.067496343 0)
(152.29897 0.059773116 0)
(152.1138 0.051684233 0)
(151.93606 0.04331707 0)
(151.76611 0.034745681 0)
(151.60425 0.02601809 0)
(151.45061 0.017174825 0)
(151.30528 0.0082596405 0)
(151.1683 -0.00068735804 0)
(151.03965 -0.0096307075 0)
(150.9193 -0.018539108 0)
(150.80717 -0.027384004 0)
(150.70315 -0.036136647 0)
(150.60712 -0.044763737 0)
(150.51893 -0.053223982 0)
(150.43837 -0.06147517 0)
(150.36509 -0.069433018 0)
(150.29874 -0.076859898 0)
(150.23941 -0.083226491 0)
(150.18737 -0.088132893 0)
(150.14029 -0.092673685 0)
(150.08875 -0.095550621 0)
(150.03001 -0.078352149 0)
(154.09401 -0.1703491 0)
(154.13763 -0.17832302 0)
(154.1665 -0.18253218 0)
(154.19499 -0.18484193 0)
(154.22315 -0.18604645 0)
(154.25114 -0.18660255 0)
(154.27891 -0.18674624 0)
(154.3064 -0.18660678 0)
(154.33357 -0.18626332 0)
(154.36038 -0.18577213 0)
(154.38682 -0.18517949 0)
(154.41291 -0.18452804 0)
(154.43868 -0.18385975 0)
(154.46419 -0.18321722 0)
(154.48952 -0.18264416 0)
(154.51476 -0.18218525 0)
(154.54003 -0.18188573 0)
(154.56549 -0.18179082 0)
(154.59129 -0.18194491 0)
(154.61761 -0.18239081 0)
(154.64466 -0.18316883 0)
(154.67266 -0.18431595 0)
(154.70182 -0.18586489 0)
(154.73238 -0.18784332 0)
(154.76461 -0.19027308 0)
(154.79873 -0.19316943 0)
(154.83501 -0.1965405 0)
(154.87369 -0.20038672 0)
(154.91501 -0.2047005 0)
(154.95919 -0.20946582 0)
(155.00646 -0.21465832 0)
(155.05699 -0.22024505 0)
(155.11097 -0.22618492 0)
(155.16853 -0.23242878 0)
(155.22979 -0.23891986 0)
(155.29482 -0.24559452 0)
(155.36367 -0.25238274 0)
(155.43634 -0.25920915 0)
(155.51278 -0.26599373 0)
(155.59292 -0.27265304 0)
(155.67663 -0.27910106 0)
(155.76374 -0.28525053 0)
(155.85404 -0.29101388 0)
(155.94727 -0.29630454 0)
(156.04313 -0.30103795 0)
(156.14127 -0.30513266 0)
(156.24131 -0.30851128 0)
(156.34284 -0.31110141 0)
(156.4454 -0.31283638 0)
(156.5485 -0.31365583 0)
(156.65164 -0.31350626 0)
(156.75427 -0.31234128 0)
(156.85584 -0.3101218 0)
(156.95577 -0.30681599 0)
(157.05347 -0.30239914 0)
(157.14834 -0.29685337 0)
(157.23977 -0.29016729 0)
(157.32715 -0.2823355 0)
(157.40985 -0.27335818 0)
(157.48726 -0.26324067 0)
(157.55876 -0.25199305 0)
(157.62375 -0.23962994 0)
(157.6816 -0.22617039 0)
(157.73172 -0.21163805 0)
(157.77352 -0.19606145 0)
(157.80642 -0.17947465 0)
(157.82985 -0.16191803 0)
(157.84328 -0.1434393 0)
(157.84617 -0.1240948 0)
(157.83805 -0.10395093 0)
(157.81844 -0.08308546 0)
(157.78695 -0.061588636 0)
(157.74319 -0.039563722 0)
(157.68688 -0.017125714 0)
(157.61778 0.0055988793 0)
(157.53572 0.028458948 0)
(157.44064 0.051293768 0)
(157.33257 0.073938717 0)
(157.21162 0.096211944 0)
(157.07804 0.1179241 0)
(156.93215 0.13888194 0)
(156.77442 0.15889236 0)
(156.6054 0.17776811 0)
(156.42577 0.19534467 0)
(156.23629 0.21148173 0)
(156.03782 0.22604369 0)
(155.83132 0.23890521 0)
(155.6178 0.24996484 0)
(155.39835 0.25914785 0)
(155.17406 0.26640726 0)
(154.94607 0.27172395 0)
(154.71552 0.27510613 0)
(154.48354 0.27658798 0)
(154.25124 0.27622769 0)
(154.01967 0.27410482 0)
(153.78985 0.27031735 0)
(153.56274 0.26497827 0)
(153.33921 0.25821216 0)
(153.12008 0.25015161 0)
(152.90607 0.24093387 0)
(152.69784 0.23069748 0)
(152.49594 0.21957922 0)
(152.30087 0.20771151 0)
(152.11304 0.19522048 0)
(151.93279 0.18222443 0)
(151.76038 0.1688379 0)
(151.59601 0.15517143 0)
(151.43983 0.14132135 0)
(151.29194 0.12736873 0)
(151.15238 0.11338429 0)
(151.02118 0.099429435 0)
(150.8983 0.085557237 0)
(150.78369 0.071814123 0)
(150.67727 0.058242986 0)
(150.57894 0.04488693 0)
(150.48855 0.031789794 0)
(150.40591 0.01900369 0)
(150.33077 0.006603199 0)
(150.26291 -0.0051956016 0)
(150.20244 -0.015979293 0)
(150.14908 -0.025643516 0)
(150.10077 -0.035463996 0)
(150.0542 -0.043272064 0)
(150.01547 -0.036706559 0)
(154.26581 -0.1934203 0)
(154.30279 -0.19708469 0)
(154.32832 -0.19981881 0)
(154.35314 -0.20153716 0)
(154.37733 -0.20243842 0)
(154.40112 -0.20276096 0)
(154.42457 -0.20267642 0)
(154.44766 -0.20230222 0)
(154.47038 -0.20172307 0)
(154.49274 -0.20100644 0)
(154.51472 -0.20021166 0)
(154.53637 -0.19939498 0)
(154.55774 -0.19861214 0)
(154.57888 -0.19791948 0)
(154.59989 -0.1973742 0)
(154.62088 -0.19703411 0)
(154.64198 -0.19695703 0)
(154.66334 -0.19719998 0)
(154.68514 -0.19781823 0)
(154.70755 -0.19886426 0)
(154.73079 -0.20038669 0)
(154.75508 -0.2024292 0)
(154.78064 -0.20502951 0)
(154.80771 -0.20821831 0)
(154.83655 -0.21201842 0)
(154.86741 -0.21644389 0)
(154.90052 -0.2214994 0)
(154.93614 -0.22717956 0)
(154.9745 -0.23346864 0)
(155.01582 -0.24034018 0)
(155.06032 -0.24775702 0)
(155.10818 -0.25567126 0)
(155.15956 -0.26402471 0)
(155.21461 -0.27274919 0)
(155.27343 -0.28176708 0)
(155.33609 -0.29099236 0)
(155.40263 -0.30033118 0)
(155.47305 -0.30968331 0)
(155.54731 -0.31894293 0)
(155.62532 -0.32800029 0)
(155.70695 -0.33674272 0)
(155.79205 -0.34505636 0)
(155.88038 -0.3528273 0)
(155.97169 -0.35994323 0)
(156.06569 -0.36629472 0)
(156.16203 -0.37177653 0)
(156.26033 -0.37628887 0)
(156.36018 -0.37973844 0)
(156.46113 -0.38203938 0)
(156.5627 -0.38311401 0)
(156.66438 -0.38289338 0)
(156.76564 -0.38131761 0)
(156.86593 -0.37833603 0)
(156.96467 -0.37390711 0)
(157.06127 -0.36799823 0)
(157.15515 -0.36058524 0)
(157.24569 -0.35165197 0)
(157.33227 -0.34118962 0)
(157.4143 -0.32919616 0)
(157.49114 -0.31567579 0)
(157.56217 -0.30063844 0)
(157.62679 -0.28409954 0)
(157.68438 -0.26607999 0)
(157.73434 -0.2466064 0)
(157.77606 -0.22571167 0)
(157.80896 -0.20343592 0)
(157.83246 -0.17982775 0)
(157.84602 -0.15494572 0)
(157.84909 -0.12886025 0)
(157.84116 -0.10165619 0)
(157.82177 -0.073434623 0)
(157.79048 -0.044313579 0)
(157.74691 -0.014428503 0)
(157.69074 0.016066733 0)
(157.62171 0.046986701 0)
(157.53964 0.078140516 0)
(157.44445 0.10931185 0)
(157.33612 0.14026696 0)
(157.21478 0.17075906 0)
(157.08065 0.20053011 0)
(156.93405 0.22931609 0)
(156.77545 0.25685043 0)
(156.6054 0.28286591 0)
(156.4246 0.30710877 0)
(156.23381 0.32935189 0)
(156.03394 0.34939343 0)
(155.82594 0.36705841 0)
(155.61085 0.38220502 0)
(155.38977 0.39472819 0)
(155.16383 0.40456147 0)
(154.93419 0.41167749 0)
(154.70201 0.41608737 0)
(154.46844 0.4178388 0)
(154.23459 0.41701332 0)
(154.00156 0.41372272 0)
(153.77036 0.40810474 0)
(153.54197 0.40031848 0)
(153.31727 0.39053952 0)
(153.09709 0.37895505 0)
(152.88214 0.36575913 0)
(152.67309 0.35114825 0)
(152.47049 0.33531723 0)
(152.27483 0.31845556 0)
(152.08652 0.30074351 0)
(151.90588 0.28234823 0)
(151.73318 0.26342491 0)
(151.56862 0.24411874 0)
(151.41234 0.22456194 0)
(151.26442 0.20487233 0)
(151.12492 0.18515507 0)
(150.99384 0.16550429 0)
(150.87115 0.1460055 0)
(150.7568 0.12673901 0)
(150.65071 0.10778529 0)
(150.55277 0.089231104 0)
(150.46286 0.071173712 0)
(150.3808 0.053729555 0)
(150.3064 0.037077921 0)
(150.23953 0.021546191 0)
(150.18025 0.0075835288 0)
(150.12796 -0.0045914842 0)
(150.08116 -0.015462287 0)
(150.03957 -0.021483506 0)
(150.01011 -0.016711574 0)
(154.2727 -0.21239784 0)
(154.308 -0.21423865 0)
(154.33347 -0.21596557 0)
(154.35837 -0.21713482 0)
(154.38259 -0.21770262 0)
(154.40631 -0.21776538 0)
(154.4296 -0.21743314 0)
(154.45248 -0.21680217 0)
(154.47495 -0.21595472 0)
(154.497 -0.21496423 0)
(154.51866 -0.21390002 0)
(154.53995 -0.21283049 0)
(154.56091 -0.21182467 0)
(154.58163 -0.210953 0)
(154.60218 -0.21028719 0)
(154.62267 -0.20989975 0)
(154.64325 -0.20986312 0)
(154.66405 -0.2102486 0)
(154.68526 -0.2111251 0)
(154.70707 -0.21255788 0)
(154.72967 -0.21460717 0)
(154.7533 -0.21732681 0)
(154.7782 -0.22076296 0)
(154.8046 -0.22495282 0)
(154.83275 -0.22992358 0)
(154.86293 -0.23569122 0)
(154.89537 -0.24225987 0)
(154.93033 -0.24962088 0)
(154.96806 -0.25775255 0)
(155.00879 -0.26661957 0)
(155.05272 -0.2761732 0)
(155.10006 -0.28635114 0)
(155.15098 -0.29707811 0)
(155.20563 -0.30826633 0)
(155.26411 -0.31981615 0)
(155.3265 -0.33161738 0)
(155.39285 -0.34355006 0)
(155.46316 -0.35548623 0)
(155.5374 -0.36729103 0)
(155.61547 -0.37882468 0)
(155.69726 -0.38994386 0)
(155.7826 -0.40050379 0)
(155.87127 -0.41035978 0)
(155.96301 -0.4193692 0)
(156.05752 -0.42739315 0)
(156.15445 -0.4342981 0)
(156.25343 -0.43995745 0)
(156.35403 -0.44425286 0)
(156.45581 -0.44707546 0)
(156.55826 -0.44832673 0)
(156.66089 -0.44791923 0)
(156.76314 -0.445777 0)
(156.86446 -0.44183576 0)
(156.96428 -0.43604278 0)
(157.06199 -0.42835659 0)
(157.157 -0.41874644 0)
(157.24869 -0.40719161 0)
(157.33644 -0.39368069 0)
(157.41962 -0.37821078 0)
(157.49763 -0.36078676 0)
(157.56983 -0.3414207 0)
(157.6356 -0.32013155 0)
(157.69433 -0.2969451 0)
(157.74541 -0.27189428 0)
(157.78822 -0.24501997 0)
(157.82218 -0.21637217 0)
(157.8467 -0.18601172 0)
(157.86122 -0.15401205 0)
(157.86519 -0.12046228 0)
(157.85809 -0.085470343 0)
(157.83944 -0.049164689 0)
(157.80879 -0.01169546 0)
(157.76575 0.026765981 0)
(157.70997 0.066018073 0)
(157.64118 0.10584153 0)
(157.55919 0.14598107 0)
(157.46389 0.18615708 0)
(157.35527 0.226068 0)
(157.23344 0.26539363 0)
(157.09862 0.30380052 0)
(156.95112 0.34094841 0)
(156.79141 0.37649638 0)
(156.62006 0.41010912 0)
(156.43777 0.44146655 0)
(156.24532 0.47027324 0)
(156.04363 0.49626418 0)
(155.83368 0.51921081 0)
(155.61654 0.53892747 0)
(155.39334 0.55527575 0)
(155.16524 0.56816714 0)
(154.93342 0.57756374 0)
(154.69907 0.58347749 0)
(154.46338 0.58596777 0)
(154.22748 0.58513775 0)
(153.99248 0.58112968 0)
(153.75943 0.5741193 0)
(153.52931 0.56430977 0)
(153.30302 0.55192526 0)
(153.08139 0.53720466 0)
(152.86514 0.52039535 0)
(152.65494 0.50174755 0)
(152.45134 0.48150924 0)
(152.25482 0.45992162 0)
(152.06579 0.4372149 0)
(151.88456 0.41360456 0)
(151.7114 0.38928966 0)
(151.54648 0.36445186 0)
(151.38994 0.33925379 0)
(151.24185 0.31383861 0)
(151.10227 0.28833116 0)
(150.97118 0.26283948 0)
(150.84855 0.23745736 0)
(150.73433 0.21226798 0)
(150.62844 0.18734927 0)
(150.53078 0.16277988 0)
(150.44124 0.13864515 0)
(150.35967 0.11505214 0)
(150.28596 0.092172628 0)
(150.22008 0.070293902 0)
(150.16204 0.049753558 0)
(150.1113 0.030789291 0)
(150.0672 0.013342486 0)
(150.0308 0.0014874366 0)
(150.00741 -0.0022470339 0)
(154.27531 -0.23190545 0)
(154.30987 -0.23281481 0)
(154.33545 -0.23377739 0)
(154.36064 -0.23440287 0)
(154.38516 -0.23457489 0)
(154.40916 -0.23431501 0)
(154.43266 -0.23369026 0)
(154.4557 -0.23277857 0)
(154.47828 -0.23165847 0)
(154.50039 -0.23040776 0)
(154.52206 -0.22910455 0)
(154.54331 -0.22782842 0)
(154.56419 -0.22666101 0)
(154.58477 -0.22568614 0)
(154.60513 -0.22498928 0)
(154.62538 -0.22465676 0)
(154.64566 -0.2247746 0)
(154.66613 -0.22542721 0)
(154.68695 -0.22669587 0)
(154.70832 -0.22865718 0)
(154.73045 -0.23138146 0)
(154.75357 -0.23493116 0)
(154.77792 -0.23935933 0)
(154.80376 -0.24470811 0)
(154.83134 -0.25100752 0)
(154.86092 -0.25827413 0)
(154.89278 -0.26651024 0)
(154.92717 -0.27570285 0)
(154.96435 -0.28582341 0)
(155.00455 -0.29682714 0)
(155.048 -0.3086533 0)
(155.09491 -0.32122504 0)
(155.14546 -0.33445016 0)
(155.19979 -0.34822167 0)
(155.25805 -0.36241855 0)
(155.3203 -0.37690738 0)
(155.38659 -0.39154324 0)
(155.45695 -0.40617183 0)
(155.53133 -0.42063076 0)
(155.60965 -0.43475194 0)
(155.6918 -0.44836318 0)
(155.77759 -0.46129071 0)
(155.86683 -0.47336094 0)
(155.95924 -0.48440289 0)
(156.05453 -0.49425008 0)
(156.15234 -0.50274252 0)
(156.25229 -0.50972857 0)
(156.35395 -0.51506647 0)
(156.45685 -0.51862578 0)
(156.56052 -0.52028843 0)
(156.66441 -0.51994955 0)
(156.76799 -0.51751794 0)
(156.87069 -0.51291625 0)
(156.97192 -0.50608082 0)
(157.07108 -0.49696125 0)
(157.16755 -0.48551978 0)
(157.26073 -0.47173037 0)
(157.34997 -0.45557779 0)
(157.43466 -0.43705663 0)
(157.51416 -0.41617039 0)
(157.58785 -0.39293075 0)
(157.6551 -0.36735716 0)
(157.71529 -0.3394768 0)
(157.7678 -0.309325 0)
(157.81202 -0.27694623 0)
(157.84734 -0.24239561 0)
(157.87318 -0.20574115 0)
(157.88896 -0.16706575 0)
(157.89412 -0.12647216 0)
(157.88812 -0.084085532 0)
(157.87047 -0.040055592 0)
(157.8407 0.0054405814 0)
(157.79839 0.052194381 0)
(157.74317 0.099962936 0)
(157.67476 0.14847007 0)
(157.59295 0.19740622 0)
(157.4976 0.24642899 0)
(157.38869 0.2951668 0)
(157.26632 0.34322336 0)
(157.13068 0.39018417 0)
(156.98211 0.43562437 0)
(156.82107 0.47911769 0)
(156.64814 0.52024641 0)
(156.46402 0.55861264 0)
(156.26953 0.59384853 0)
(156.06561 0.6256246 0)
(155.85327 0.65365781 0)
(155.63362 0.67771871 0)
(155.40781 0.69763683 0)
(155.17705 0.7133038 0)
(154.94256 0.72467439 0)
(154.70557 0.73176544 0)
(154.46728 0.73465291 0)
(154.22889 0.73346723 0)
(153.99151 0.72838736 0)
(153.75622 0.71963373 0)
(153.52402 0.70746062 0)
(153.29583 0.69214816 0)
(153.07247 0.67399433 0)
(152.85469 0.65330729 0)
(152.64315 0.63039821 0)
(152.43839 0.60557479 0)
(152.2409 0.57913571 0)
(152.05107 0.5513658 0)
(151.86921 0.52253233 0)
(151.69556 0.49288275 0)
(151.5303 0.46264294 0)
(151.37355 0.43201575 0)
(151.22536 0.40118072 0)
(151.08578 0.37029501 0)
(150.95478 0.33949503 0)
(150.83233 0.30889913 0)
(150.71835 0.27861134 0)
(150.61276 0.24872616 0)
(150.51548 0.21933356 0)
(150.42638 0.19052495 0)
(150.34534 0.16240865 0)
(150.27228 0.13514187 0)
(150.20721 0.10894476 0)
(150.15011 0.084028108 0)
(150.10059 0.060570139 0)
(150.05864 0.038360609 0)
(150.02585 0.021048006 0)
(150.00602 0.0089650499 0)
(154.28414 -0.24908447 0)
(154.31841 -0.24951162 0)
(154.34409 -0.24994426 0)
(154.36955 -0.25010833 0)
(154.39438 -0.24988756 0)
(154.41866 -0.2492723 0)
(154.44243 -0.24830448 0)
(154.46568 -0.24704912 0)
(154.48841 -0.24558184 0)
(154.51062 -0.24398436 0)
(154.53234 -0.24234305 0)
(154.55358 -0.24074859 0)
(154.57439 -0.23929559 0)
(154.59483 -0.23808203 0)
(154.61499 -0.2372083 0)
(154.63498 -0.236776 0)
(154.65494 -0.23688647 0)
(154.67501 -0.23763912 0)
(154.69538 -0.23912961 0)
(154.71625 -0.24144804 0)
(154.73782 -0.24467696 0)
(154.76034 -0.24888956 0)
(154.78405 -0.25414783 0)
(154.80921 -0.26050079 0)
(154.8361 -0.26798303 0)
(154.86498 -0.27661322 0)
(154.89614 -0.28639309 0)
(154.92984 -0.29730627 0)
(154.96636 -0.30931797 0)
(155.00593 -0.32237422 0)
(155.0488 -0.33640221 0)
(155.09519 -0.3513101 0)
(155.14529 -0.36698793 0)
(155.19926 -0.38330835 0)
(155.25724 -0.40012747 0)
(155.31931 -0.41728684 0)
(155.38555 -0.4346145 0)
(155.45596 -0.45192749 0)
(155.53051 -0.4690334 0)
(155.60914 -0.48573321 0)
(155.69171 -0.50182312 0)
(155.77807 -0.51709765 0)
(155.86799 -0.53135158 0)
(155.96122 -0.54438295 0)
(156.05744 -0.55599522 0)
(156.15631 -0.56599968 0)
(156.25742 -0.57421758 0)
(156.36034 -0.58048205 0)
(156.46461 -0.58463968 0)
(156.56972 -0.58655186 0)
(156.67514 -0.5860957 0)
(156.7803 -0.58316458 0)
(156.88464 -0.57766836 0)
(156.98756 -0.56953315 0)
(157.08843 -0.55870081 0)
(157.18666 -0.54512806 0)
(157.28159 -0.52878546 0)
(157.37261 -0.50965617 0)
(157.45907 -0.48773475 0)
(157.54034 -0.463026 0)
(157.61579 -0.435544 0)
(157.68478 -0.40531157 0)
(157.74669 -0.37236013 0)
(157.80088 -0.33673018 0)
(157.84675 -0.29847242 0)
(157.88368 -0.25764962 0)
(157.91106 -0.21433917 0)
(157.92832 -0.16863571 0)
(157.93487 -0.12065748 0)
(157.93017 -0.07054848 0)
(157.91369 -0.01848149 0)
(157.88494 0.035337771 0)
(157.84349 0.090669866 0)
(157.78894 0.14723808 0)
(157.72097 0.20471815 0)
(157.63935 0.26274441 0)
(157.54394 0.32091109 0)
(157.43467 0.37877619 0)
(157.31164 0.43586708 0)
(157.17503 0.49168821 0)
(157.02517 0.54573031 0)
(156.86251 0.59748123 0)
(156.68765 0.64643818 0)
(156.50131 0.69212089 0)
(156.30434 0.73408407 0)
(156.0977 0.77192862 0)
(155.88245 0.80531182 0)
(155.65972 0.83395587 0)
(155.43073 0.85765431 0)
(155.19672 0.8762758 0)
(154.95897 0.88976533 0)
(154.71873 0.89814291 0)
(154.47728 0.90149985 0)
(154.23582 0.89999306 0)
(153.99553 0.8938377 0)
(153.75749 0.88329862 0)
(153.52274 0.86868096 0)
(153.29221 0.85032048 0)
(153.06673 0.82857387 0)
(152.84706 0.80380951 0)
(152.63386 0.77639879 0)
(152.42767 0.74670839 0)
(152.22897 0.71509346 0)
(152.03814 0.68189192 0)
(151.85548 0.64742006 0)
(151.68121 0.6119696 0)
(151.51551 0.57580557 0)
(151.35846 0.5391651 0)
(151.21014 0.50225736 0)
(151.07054 0.4652647 0)
(150.93964 0.42834462 0)
(150.81739 0.39163313 0)
(150.70372 0.35524912 0)
(150.59853 0.31929968 0)
(150.50174 0.28388597 0)
(150.41324 0.24911111 0)
(150.33293 0.21509634 0)
(150.26075 0.18200362 0)
(150.19671 0.15003313 0)
(150.14079 0.11937438 0)
(150.09271 0.090246668 0)
(150.05285 0.062221924 0)
(150.02277 0.03859286 0)
(150.00521 0.018422058 0)
(154.29879 -0.26804891 0)
(154.33297 -0.26816806 0)
(154.35877 -0.26820432 0)
(154.38446 -0.2679746 0)
(154.40957 -0.26738593 0)
(154.43412 -0.26642197 0)
(154.45812 -0.26511388 0)
(154.48157 -0.26352053 0)
(154.50444 -0.26171731 0)
(154.52675 -0.25979069 0)
(154.54849 -0.25783545 0)
(154.56968 -0.25595333 0)
(154.59038 -0.25425175 0)
(154.61064 -0.25284275 0)
(154.63055 -0.25184153 0)
(154.65022 -0.25136487 0)
(154.66977 -0.25152931 0)
(154.68937 -0.25244916 0)
(154.7092 -0.25423437 0)
(154.72946 -0.25698839 0)
(154.75037 -0.26080591 0)
(154.77217 -0.2657707 0)
(154.79513 -0.27195359 0)
(154.81951 -0.27941035 0)
(154.84558 -0.28818011 0)
(154.87365 -0.29828354 0)
(154.90399 -0.30972179 0)
(154.93689 -0.32247512 0)
(154.97263 -0.33650255 0)
(155.01147 -0.351741 0)
(155.05367 -0.3681057 0)
(155.09946 -0.38548996 0)
(155.14904 -0.40376627 0)
(155.20259 -0.42278709 0)
(155.26025 -0.44238587 0)
(155.32213 -0.46237934 0)
(155.3883 -0.48256867 0)
(155.45878 -0.50274245 0)
(155.53354 -0.52267838 0)
(155.61251 -0.5421466 0)
(155.69559 -0.56091179 0)
(155.7826 -0.57873673 0)
(155.87332 -0.59538456 0)
(155.9675 -0.61062221 0)
(156.06481 -0.62422293 0)
(156.1649 -0.63596905 0)
(156.26736 -0.64565447 0)
(156.37176 -0.65308682 0)
(156.47761 -0.6580894 0)
(156.5844 -0.66050258 0)
(156.69159 -0.66018498 0)
(156.79861 -0.65701402 0)
(156.90485 -0.65088614 0)
(157.00973 -0.64171654 0)
(157.11261 -0.62943847 0)
(157.21287 -0.61400221 0)
(157.30986 -0.59537379 0)
(157.40295 -0.57353344 0)
(157.49148 -0.54847413 0)
(157.57482 -0.52020012 0)
(157.65233 -0.48872573 0)
(157.72336 -0.45407467 0)
(157.78729 -0.41627976 0)
(157.84347 -0.37538349 0)
(157.89129 -0.33143927 0)
(157.93012 -0.2845137 0)
(157.95935 -0.23468947 0)
(157.97837 -0.18206908 0)
(157.98659 -0.12678181 0)
(157.98344 -0.068986326 0)
(157.96837 -0.0088750948 0)
(157.94088 0.053321369 0)
(157.90048 0.11732258 0)
(157.84675 0.18280491 0)
(157.77936 0.24939485 0)
(157.69803 0.31666865 0)
(157.60258 0.38415402 0)
(157.49295 0.45133439 0)
(157.36919 0.51765555 0)
(157.23147 0.58253501 0)
(157.08012 0.645373 0)
(156.9156 0.70556578 0)
(156.73851 0.76252021 0)
(156.5496 0.8156691 0)
(156.34974 0.86448619 0)
(156.13993 0.90849998 0)
(155.92127 0.94730611 0)
(155.69495 0.9805776 0)
(155.46225 1.0080724 0)
(155.22444 1.029638 0)
(154.98287 1.0452124 0)
(154.73887 1.0548229 0)
(154.49372 1.0585814 0)
(154.2487 1.0566769 0)
(154.00502 1.0493674 0)
(153.7638 1.0369689 0)
(153.5261 1.0198444 0)
(153.29286 0.99839194 0)
(153.06495 0.9730336 0)
(152.84312 0.94420402 0)
(152.62801 0.9123404 0)
(152.4202 0.87787333 0)
(152.22013 0.84121893 0)
(152.02817 0.80277221 0)
(151.84461 0.76290198 0)
(151.66966 0.72194716 0)
(151.50346 0.6802143 0)
(151.3461 0.63797619 0)
(151.19761 0.59547175 0)
(151.05798 0.55290707 0)
(150.92718 0.51045749 0)
(150.80513 0.46827088 0)
(150.69176 0.42647198 0)
(150.58696 0.38516757 0)
(150.49064 0.34445232 0)
(150.40271 0.30441731 0)
(150.32306 0.26516432 0)
(150.25167 0.22682026 0)
(150.18855 0.18953077 0)
(150.13369 0.15344004 0)
(150.08694 0.11875368 0)
(150.04883 0.084759198 0)
(150.02076 0.054634535 0)
(150.0047 0.026811654 0)
(154.31895 -0.28491843 0)
(154.3532 -0.28481661 0)
(154.37918 -0.28452807 0)
(154.40511 -0.28393269 0)
(154.4305 -0.28296431 0)
(154.45534 -0.28161112 0)
(154.47959 -0.27990236 0)
(154.50325 -0.27789594 0)
(154.52628 -0.27566971 0)
(154.54868 -0.27331632 0)
(154.57044 -0.27093987 0)
(154.59159 -0.26865393 0)
(154.61216 -0.26657965 0)
(154.63222 -0.26484419 0)
(154.65183 -0.26357879 0)
(154.67112 -0.26291683 0)
(154.69021 -0.26299157 0)
(154.70926 -0.26393387 0)
(154.72846 -0.26586965 0)
(154.74802 -0.26891739 0)
(154.76816 -0.2731856 0)
(154.78914 -0.27877027 0)
(154.81122 -0.28575252 0)
(154.83468 -0.29419628 0)
(154.85982 -0.30414636 0)
(154.88693 -0.31562642 0)
(154.91632 -0.32863777 0)
(154.94829 -0.34315782 0)
(154.98313 -0.3591396 0)
(155.02112 -0.3765109 0)
(155.06254 -0.39517467 0)
(155.10762 -0.41500878 0)
(155.1566 -0.43586728 0)
(155.20965 -0.45758136 0)
(155.26694 -0.47996049 0)
(155.32858 -0.502795 0)
(155.39466 -0.52585752 0)
(155.4652 -0.54890631 0)
(155.54019 -0.57168723 0)
(155.61956 -0.59393757 0)
(155.7032 -0.61538844 0)
(155.79095 -0.63576885 0)
(155.88259 -0.65480836 0)
(155.97784 -0.67224096 0)
(156.07639 -0.68780799 0)
(156.17787 -0.70126138 0)
(156.28188 -0.71236644 0)
(156.38796 -0.72090439 0)
(156.49562 -0.72667458 0)
(156.60432 -0.72949616 0)
(156.71353 -0.72920932 0)
(156.82264 -0.72567602 0)
(156.93107 -0.71878016 0)
(157.03817 -0.70842723 0)
(157.14333 -0.69454346 0)
(157.2459 -0.67707456 0)
(157.34523 -0.65598411 0)
(157.44066 -0.63125172 0)
(157.53154 -0.60287114 0)
(157.61723 -0.57084847 0)
(157.69707 -0.53520059 0)
(157.77042 -0.4959542 0)
(157.83664 -0.45314542 0)
(157.89508 -0.40682018 0)
(157.94511 -0.35703572 0)
(157.98611 -0.30386312 0)
(158.01743 -0.24739045 0)
(158.03847 -0.18772805 0)
(158.0486 -0.12501519 0)
(158.04724 -0.059423903 0)
(158.03381 0.0088347568 0)
(158.00776 0.079505959 0)
(157.96859 0.15228801 0)
(157.91585 0.22681852 0)
(157.84914 0.30267574 0)
(157.76816 0.37937791 0)
(157.6727 0.45638511 0)
(157.56267 0.53310395 0)
(157.43808 0.60889519 0)
(157.2991 0.68308455 0)
(157.14605 0.75497578 0)
(156.97938 0.82386652 0)
(156.79972 0.88906553 0)
(156.60782 0.94991089 0)
(156.4046 1.0057879 0)
(156.19111 1.0561456 0)
(155.96849 1.100512 0)
(155.738 1.1385058 0)
(155.50097 1.1698456 0)
(155.25875 1.1943548 0)
(155.01275 1.2119637 0)
(154.76435 1.2227066 0)
(154.51492 1.2267168 0)
(154.26577 1.2242176 0)
(154.01816 1.2155122 0)
(153.77325 1.2009709 0)
(153.53214 1.1810178 0)
(153.29578 1.1561171 0)
(153.06506 1.1267593 0)
(152.84074 1.0934488 0)
(152.62347 1.0566916 0)
(152.41379 1.016985 0)
(152.21216 0.9748083 0)
(152.01893 0.93061579 0)
(151.83437 0.88483049 0)
(151.65866 0.83784032 0)
(151.49194 0.78999528 0)
(151.33426 0.74160606 0)
(151.18563 0.69294408 0)
(151.04602 0.64424272 0)
(150.91539 0.59569951 0)
(150.79363 0.54747978 0)
(150.68066 0.49972092 0)
(150.57637 0.45253748 0)
(150.48064 0.406027 0)
(150.39339 0.36027807 0)
(150.31451 0.31538129 0)
(150.24399 0.2714368 0)
(150.18183 0.22854743 0)
(150.12805 0.18681448 0)
(150.08255 0.14639113 0)
(150.04592 0.10624676 0)
(150.01936 0.069597475 0)
(150.00437 0.034507507 0)
(154.34397 -0.30386923 0)
(154.37841 -0.30360871 0)
(154.40461 -0.30306672 0)
(154.43082 -0.30216168 0)
(154.4565 -0.30085078 0)
(154.48162 -0.29913156 0)
(154.50614 -0.2970368 0)
(154.53001 -0.29462745 0)
(154.5532 -0.29198629 0)
(154.57569 -0.28921352 0)
(154.59747 -0.28642338 0)
(154.61855 -0.2837418 0)
(154.63897 -0.28130409 0)
(154.65877 -0.27925298 0)
(154.67804 -0.27773617 0)
(154.69689 -0.27690415 0)
(154.71545 -0.27690744 0)
(154.73387 -0.27789402 0)
(154.75236 -0.28000638 0)
(154.77111 -0.28337868 0)
(154.79038 -0.28813387 0)