/*--------------------------------*- C++ -*----------------------------------*\
| =========                 |                                                 |
| \\      /  F ield         | foam-extend: Open Source CFD                    |
|  \\    /   O peration     | Version:     4.1                                |
|   \\  /    A nd           | Web:         http://www.foam-extend.org         |
|    \\/     M anipulation  |                                                 |
\*---------------------------------------------------------------------------*/
FoamFile
{
    version     2.0;
    format      ascii;
    class       volScalarField;
    location    "0.4";
    object      p;
}
// * * * * * * * * * * * * * * * * * * * * * * * * * * * * * * * * * * * * * //

dimensions      [0 2 -2 0 0 0 0];

internalField   nonuniform List<scalar> 
4242
(
-0.59496903
-0.57755653
-0.56017454
-0.53855451
-0.51438827
-0.48684366
-0.45586137
-0.4215035
-0.38405448
-0.34409994
-0.3025346
-0.26050602
-0.21937861
-0.18086388
-0.14643851
-0.11317917
-0.70406665
-0.68187989
-0.66305899
-0.64013975
-0.61480391
-0.58627007
-0.55466161
-0.5200323
-0.48256001
-0.44257736
-0.40059057
-0.35727994
-0.31351447
-0.27052399
-0.22986489
-0.19136334
-0.87681502
-0.84940541
-0.82852379
-0.80231096
-0.77326954
-0.74050188
-0.70416002
-0.66425479
-0.62098213
-0.57470256
-0.52594791
-0.4754078
-0.42389651
-0.37237375
-0.32206878
-0.27489876
-1.0847284
-1.0521489
-1.028677
-0.99760597
-0.96323755
-0.92424609
-0.88079229
-0.83281822
-0.78053661
-0.72436846
-0.66497275
-0.60324106
-0.54025337
-0.47718447
-0.41524187
-0.35687527
-1.2445083
-1.2077978
-1.1827959
-1.1479899
-1.1099629
-1.0665427
-1.0179841
-0.96414356
-0.90522848
-0.84167093
-0.77418677
-0.70377391
-0.63167788
-0.55929667
-0.48796164
-0.41893629
-1.3313094
-1.2916816
-1.2661691
-1.2292735
-1.189571
-1.1439792
-1.0929573
-1.0362876
-0.97417099
-0.90702455
-0.83556839
-0.76082017
-0.68406479
-0.60678949
-0.53051988
-0.45751328
-1.3461167
-1.305303
-1.2803647
-1.2432737
-1.2036766
-1.1580984
-1.1071032
-1.0504582
-0.98835037
-0.92118011
-0.84965072
-0.77476044
-0.69777048
-0.62015149
-0.54331826
-0.46972544
-1.290382
-1.2504085
-1.2267601
-1.1912939
-1.1532721
-1.1096427
-1.0608541
-1.006744
-0.94749609
-0.88351176
-0.8154709
-0.74432142
-0.6712402
-0.59759342
-0.52457266
-0.45461166
-1.1682889
-1.1313205
-1.109639
-1.0776136
-1.042749
-1.0030788
-0.95878396
-0.90979818
-0.85631188
-0.79872193
-0.73766143
-0.67398853
-0.60874868
-0.54317564
-0.47834406
-0.41642167
-0.98738471
-0.9555735
-0.93641001
-0.90954961
-0.87958376
-0.84589945
-0.80845984
-0.76724855
-0.72245269
-0.67442395
-0.6236798
-0.57088969
-0.51683926
-0.46245924
-0.40859449
-0.35705843
-0.75246641
-0.72833103
-0.71286824
-0.69292997
-0.67013792
-0.64492512
-0.61722375
-0.5869687
-0.55427392
-0.51935209
-0.48247005
-0.44392557
-0.40401196
-0.36302901
-0.32106046
-0.27819993
-0.53504373
-0.51951547
-0.50805932
-0.4959325
-0.48090809
-0.4634646
-0.4441977
-0.42333089
-0.40102117
-0.37744222
-0.3527154
-0.32685144
-0.2997422
-0.27125707
-0.24128097
-0.20772173
-0.16026234
-0.14842317
-0.13853684
-0.12673785
-0.11358246
-0.099086654
-0.083401452
-0.066782076
-0.049590606
-0.032292053
-0.015434188
0.00037597974
0.014425381
0.025893321
0.034901468
0.044238209
0.061033246
0.068740106
0.075679097
0.083483498
0.091930604
0.10090694
0.1102118
0.11955035
0.12852592
0.13664577
0.14335019
0.14805424
0.15014746
0.14897312
0.14427001
0.137771
0.26809294
0.27215291
0.27589522
0.27983723
0.28381501
0.28762296
0.2909763
0.2935033
0.29474832
0.29419303
0.2913012
0.28556536
0.27649702
0.26364032
0.24721786
0.2298483
0.43221847
0.43365912
0.43479842
0.43562288
0.43594565
0.43550175
0.43394769
0.43086007
0.42574594
0.41807334
0.4073222
0.39302109
0.37471951
0.35205895
0.32561261
0.2985671
0.53691208
0.53693372
0.53652426
0.53547974
0.53356221
0.53046249
0.52579687
0.51911173
0.5099011
0.49764453
0.48185835
0.46211862
0.43803266
0.40946139
0.37788481
0.34828642
-0.87774573
-0.85032794
-0.82943113
-0.80320299
-0.77413454
-0.74132985
-0.70493639
-0.66496417
-0.62161084
-0.57524329
-0.52640526
-0.47580165
-0.42426077
-0.37278223
-0.32273832
-0.27599824
0.56044815
0.55993654
0.5589066
0.55718836
0.55455102
0.55070424
0.54529663
0.5379188
0.52811638
0.51541712
0.499374
0.47961558
0.45589438
0.42817919
0.39694024
0.36376972
0.56126473
0.56073998
0.55968428
0.55792647
0.55523376
0.55131425
0.54581645
0.53833343
0.52841714
0.51560626
0.49946822
0.47964631
0.45591171
0.42829015
0.39741893
0.36511434
0.53707104
0.53708613
0.5366642
0.53559886
0.53365015
0.5305072
0.5257855
0.51903226
0.50974526
0.49741214
0.48156144
0.46178186
0.43769752
0.40923283
0.37801852
0.34900703
0.43066643
0.43213433
0.43330356
0.43415853
0.43451066
0.4340929
0.43255971
0.42948587
0.42437772
0.41670628
0.4059592
0.39165719
0.37326172
0.35026196
0.3235938
0.29845168
0.26590686
0.27002341
0.27382395
0.277834
0.28188979
0.28578565
0.28923665
0.2918706
0.29323119
0.29280215
0.29005586
0.28447203
0.27541297
0.26212837
0.24545935
0.23187723
0.059777163
0.067544341
0.074536074
0.082408693
0.090938943
0.10001551
0.10944032
0.11892135
0.12806461
0.13638118
0.14331896
0.14829362
0.15064767
0.14966577
0.14527129
0.13892824
-0.16042793
-0.14854902
-0.1386458
-0.12681701
-0.11362697
-0.099090886
-0.083359572
-0.06668836
-0.049440762
-0.032085084
-0.015174133
0.00067371405
0.014703445
0.02599512
0.03458039
0.043621746
-0.53509256
-0.51958025
-0.5081127
-0.49596971
-0.48092183
-0.46344345
-0.44412628
-0.42319008
-0.40078885
-0.37709497
-0.35223053
-0.32620663
-0.29890265
-0.27014598
-0.2395362
-0.20586214
-0.75253847
-0.72840383
-0.71292343
-0.69297387
-0.67016193
-0.64492096
-0.6171817
-0.58687822
-0.55412624
-0.51914484
-0.4822135
-0.4436502
-0.40377598
-0.36295023
-0.32131309
-0.27988538
-0.9876759
-0.95585268
-0.93666967
-0.9097947
-0.87980369
-0.846087
-0.80860555
-0.7673435
-0.72249187
-0.67441152
-0.62363498
-0.57085055
-0.51685956
-0.46260967
-0.40885427
-0.35766748
-1.1688044
-1.131817
-1.1101152
-1.0780698
-1.043174
-1.0034645
-0.95911888
-0.91007241
-0.85652035
-0.79887066
-0.7377738
-0.67410866
-0.60893911
-0.54351674
-0.47884079
-0.41744367
-1.2910583
-1.2510639
-1.2273952
-1.1919052
-1.1538484
-1.1101736
-1.0613256
-1.0071436
-0.9478162
-0.88375638
-0.81566156
-0.74449931
-0.67146136
-0.59790849
-0.52492686
-0.45524933
-1.3469048
-1.3060715
-1.2811141
-1.2439987
-1.2043657
-1.1587397
-1.1076806
-1.0509572
-0.98876101
-0.92150438
-0.84990825
-0.77499106
-0.69802802
-0.62047054
-0.54365911
-0.47035648
-1.3321811
-1.2925369
-1.2670077
-1.2300898
-1.1903531
-1.1447146
-1.0936292
-1.0368802
-0.97467331
-0.90743697
-0.83590895
-0.76112775
-0.68439034
-0.60715929
-0.53093685
-0.45819457
-1.2454402
-1.208717
-1.1837004
-1.148875
-1.1108164
-1.067352
-1.0187322
-0.96481414
-0.90580965
-0.84216191
-0.77460494
-0.70415891
-0.63208074
-0.55975227
-0.48854053
-0.41979069
-1.0856993
-1.0531099
-1.0296242
-0.99853643
-0.96413863
-0.92510571
-0.88159361
-0.83354455
-0.78117486
-0.72491564
-0.66544356
-0.60367231
-0.54069518
-0.47769402
-0.41596169
-0.35793754
-0.70475447
-0.6825662
-0.66373607
-0.64081254
-0.61546324
-0.58691008
-0.55527229
-0.52060135
-0.48307352
-0.44302197
-0.40095659
-0.35756661
-0.31374241
-0.27077512
-0.23029889
-0.19170692
-0.59523643
-0.57784101
-0.56047033
-0.53887431
-0.51472462
-0.48719051
-0.45620656
-0.42182899
-0.38433744
-0.34431722
-0.30267173
-0.26057465
-0.21944224
-0.18106113
-0.14697051
-0.11420684
-0.039926954
-0.035453902
-0.031097468
-0.029633446
-0.033044663
-0.042049012
-0.05564173
-0.072368226
-0.09056366
-0.10821261
-0.12314344
-0.13340717
-0.13763682
-0.13534742
-0.12743667
-0.11488356
-0.14502386
-0.14067986
-0.13822643
-0.13860988
-0.14064064
-0.14331013
-0.14712587
-0.15191712
-0.15513086
-0.15437003
-0.14879325
-0.13867967
-0.12486143
-0.10847612
-0.091011209
-0.073763628
-0.24063635
-0.23682916
-0.23446521
-0.23371476
-0.23517558
-0.23989233
-0.24566808
-0.2451251
-0.23181634
-0.20879503
-0.1793322
-0.14558663
-0.11016596
-0.075904499
-0.044930833
-0.017897882
-0.19040707
-0.1883671
-0.1869424
-0.18620702
-0.1863992
-0.18764092
-0.1895797
-0.18793696
-0.17965243
-0.15979826
-0.13041699
-0.094163616
-0.054972269
-0.017321086
0.015591911
0.042661553
-0.074847304
-0.074884691
-0.075531763
-0.076888776
-0.078958782
-0.081662223
-0.084311838
-0.083810521
-0.077402733
-0.06339504
-0.041538795
-0.012408841
0.020449282
0.051634342
0.078773627
0.10037236
0.023404691
0.022488144
0.020956286
0.018860322
0.016351037
0.013789395
0.011863531
0.011703186
0.014915942
0.023182679
0.037415755
0.056240389
0.079163231
0.10576768
0.13076692
0.14749855
0.022785138
0.021874528
0.020353847
0.018273006
0.015781744
0.013239202
0.011331402
0.011195094
0.014466393
0.022813681
0.037139525
0.056066675
0.079120619
0.10582909
0.13088421
0.14812146
-0.075373118
-0.075401218
-0.076037588
-0.07738072
-0.07943169
-0.082104331
-0.084695477
-0.08411339
-0.07764952
-0.063551783
-0.041631896
-0.012462262
0.020407077
0.051682842
0.078970857
0.10120832
-0.19045017
-0.18840651
-0.18698027
-0.18624166
-0.18642566
-0.18764125
-0.18953299
-0.18776876
-0.17929214
-0.15930643
-0.12979903
-0.093384421
-0.053973069
-0.015982076
0.017416613
0.045767854
-0.24080199
-0.23699778
-0.23464231
-0.23389995
-0.23536624
-0.24005229
-0.2456845
-0.24491879
-0.23139945
-0.20819341
-0.17850219
-0.14445692
-0.10864269
-0.07382632
-0.042098588
-0.013616034
-0.14574916
-0.14140754
-0.13896544
-0.13936158
-0.14139417
-0.14404504
-0.14779626
-0.1524315
-0.15541528
-0.15438499
-0.14851837
-0.13810568
-0.12399444
-0.10734598
-0.089789802
-0.071607974
-0.040481028
-0.036019618
-0.031666985
-0.030193751
-0.033578484
-0.042529629
-0.056040584
-0.072656275
-0.090710871
-0.10819086
-0.12293021
-0.13299015
-0.1370199
-0.13458652
-0.12677746
-0.11381177
-0.28118922
-0.34969113
-0.32994232
-0.31214712
-0.29119827
-0.26781456
-0.24235755
-0.2151105
-0.18662566
-0.15765313
-0.12904831
-0.10184179
-0.077458357
-0.056396329
-0.034065206
-0.28172324
-0.34978053
-0.33012915
-0.31233404
-0.29138491
-0.26799651
-0.24252586
-0.21525192
-0.18672781
-0.15770847
-0.12906428
-0.1018395
-0.077425055
-0.056139836
-0.03419367
-0.15387153
-0.23212176
-0.23502201
-0.23010786
-0.22969089
-0.23116405
-0.23250641
-0.23288554
-0.23159914
-0.22784601
-0.22085237
-0.21002091
-0.1952184
-0.17702626
-0.14938242
-0.15340918
-0.23184812
-0.23473432
-0.22983411
-0.22945372
-0.2309845
-0.23240914
-0.23289855
-0.23175104
-0.22816364
-0.22135907
-0.21074142
-0.19611351
-0.17830619
-0.1546919
-0.19617031
-0.1973893
-0.15848265
-0.15773597
0.00027195455
-0.030542784
0.1060502
-0.028774605
-0.053917547
0.0039384861
0.011687013
0.023447658
0.023360795
-0.020377276
-0.026153398
9.729986e-05
0.066476278
-0.055081356
0.015254984
-0.073856872
-0.019061093
-0.10328402
-0.063807747
-0.077027813
-0.071702722
0.069015716
0.02554968
0.029772114
0.044824038
0.0042142944
-0.016322937
-0.078839701
-0.035379069
-0.14249459
0.0049358827
-0.012484318
-0.034255996
-0.054097528
0.057292864
-0.026419684
0.00089034279
0.053550828
-0.033721046
-0.022056868
0.041788225
0.0006119034
0.022806728
-0.13823706
0.022710547
0.13361807
-0.0097615043
0.040488809
0.019478174
0.019270228
-0.182707
0.23087269
0.067831263
-0.028327956
-0.16534449
-0.044530136
-0.030986904
0.012359811
0.029439128
-0.015602989
-0.013059174
0.019238875
0.018441989
-0.018607471
-0.19618771
-0.015413142
0.0032912697
-0.0066086791
-0.032974602
-0.010637621
0.0078072822
-0.057821875
0.01063531
-0.00068738194
-0.00088651879
0.026081834
-0.020394359
0.0084983855
-0.0020047033
0.0015275561
0.003588558
-0.1419482
-0.15188331
-0.013517385
-0.02440902
-0.039352918
0.027962744
-0.00010151539
-0.15925078
-0.00084528858
-0.018797984
0.0028049939
0.14902863
-0.045161758
0.046621411
0.056826532
4.2849893e-05
0.11900742
-0.1784734
0.062260013
-0.00064483851
-0.023127227
0.0036866322
0.00071512895
-0.021755267
-0.060528142
-0.031582165
-0.0005828051
-0.033630469
-0.14691523
-0.19805828
0.0792261
-0.035621492
0.03981279
-0.085592295
-0.0017580803
0.091147809
0.00064266894
-0.0003357859
0.083239757
0.076413133
-0.03678329
0.095299176
-0.032950293
-0.11994616
0.11017398
-0.010611857
-0.15315165
-0.024284299
0.070047257
-0.043993435
0.036907594
0.00033546373
0.00048215156
0.002559058
-0.045606717
0.12393782
-4.4460601e-05
-0.18212759
-0.019105558
0.045802402
-0.024116362
-0.058445152
-0.0080492797
-0.00015208273
-7.597789e-05
-0.016145449
-0.022195727
-0.0067003344
0.016754548
0.016224943
-0.014274615
0.0074233232
0.090511195
-0.0011605368
0.040707904
-0.15634416
-0.011449303
-0.0022301507
0.00068651279
-0.3777247
-0.37631796
0.050516461
0.071764346
-0.0083131931
-0.00013357608
-0.0070369303
0.015886715
-0.075945098
-6.8600723e-05
-0.066851294
0.14042829
0.012169693
0.0010546476
-0.012357197
0.050068745
-0.0026726492
-0.00022939991
-0.017200708
0.00057333048
0.018941453
-0.069187156
-0.052871618
0.0074075407
0.012445241
0.024316521
0.047026494
0.0082210144
0.02049935
-0.024959652
-0.00091410312
0.0021764593
-0.088694567
0.091999004
-0.014269776
0.031300125
0.0013070951
0.0049674977
0.012834911
0.15648966
0.018404282
0.010192849
-0.10152852
-0.0042571764
0.073321215
0.030105759
0.061625833
-0.002269632
0.089156539
0.00061535269
-0.015183398
-0.0076369842
-0.0046520574
0.010737203
-0.00078599349
0.00044551907
-0.00085307832
0.041507947
0.05398872
0.036607222
-0.027517944
-0.036800654
0.00030887117
-0.00045567849
-0.024561643
0.1030066
0.074680464
-0.00037316905
-0.043638146
0.032927024
0.10108496
0.10549131
-0.0010397526
-0.054071512
-0.098629713
0.006200473
-0.0033191408
0.043909755
-0.024648362
-0.00090321055
0.0045841068
0.00055694936
0.011422531
-0.053918301
0.10164176
-0.013567872
-0.050093938
0.030439567
0.0018375294
-0.058411064
0.018776613
0.14566632
0.00062699478
0.00047220649
-0.050547639
0.00033193273
0.063305626
0.0096313177
-0.00077250196
-0.02165804
-0.027810951
7.5591071e-05
-0.0006532799
-0.0011726639
-0.015315888
-0.0027812536
0.0040748945
-0.03394108
0.0012221667
-0.020993893
0.0043446138
-0.017231288
-0.0038444491
0.065532201
-0.078383148
-0.0016268223
0.092881841
0.075369651
-0.0064169869
0.0024637705
0.01216041
0.00018800883
0.0042923131
-0.13043171
0.069861851
-0.074136035
0.00303684
-0.0091309676
0.011056695
-0.0045355625
0.018300555
0.060352739
-0.12635865
0.00018078619
0.093163915
-0.037101881
0.0058813483
0.046378987
0.0093703661
-0.032880039
0.011241159
-0.095583356
-0.065469208
0.10844974
0.14386903
-0.040706014
0.0083518093
-0.0022921351
-0.018405986
0.051792306
-0.095391408
-0.02934157
0.0023391459
-0.03364546
-0.0076665222
0.00063831908
0.0089639544
0.0036494307
0.174184
-0.029992259
-0.10984569
0.059685834
0.00016763132
-0.00067660122
0.0046898716
-0.014304487
-0.11497423
0.0018613344
0.0021023421
-5.8014764e-05
0.22874762
0.0092732689
-0.012081494
0.038308706
-0.03647899
-0.099479534
-0.02079587
0.0011157457
-0.0012465707
0.0039039657
-0.13948856
-0.039071991
0.0028687186
0.082369633
-1.0055243e-05
0.0021345318
-0.13415093
0.010443374
-0.065063704
0.00045312806
0.00081916662
-0.20283386
0.029920924
0.014221916
-0.01205074
-0.13511315
-0.033387604
0.0055920753
-0.1056132
0.027122338
0.012327505
0.033508422
0.00035924325
-0.18756901
0.11758219
0.056277667
0.011704994
-0.13007677
0.0013094618
0.067823657
-0.13103313
-0.16027821
0.15220669
-0.0023109126
0.013805707
0.013893395
0.042055552
-0.052821694
-0.15588886
0.010922841
-0.044167536
0.070517198
0.056392609
0.0024028749
-0.051574149
-0.0085294478
-0.011904909
4.1220283e-05
0.012201929
-0.2105135
0.00040841878
0.010528542
-0.2056899
0.0011762673
0.0099539258
-0.021804631
-0.00053720456
0.036658091
0.2108984
-0.034848694
0.00028059885
-0.049398747
0.0041392155
-0.10292735
0.037053812
-0.036922983
-0.015826161
-0.003951602
0.032050755
0.0012097764
-0.0090785395
0.031843943
-0.00071869914
-0.0081989929
-0.0058209757
0.015498747
0.016647842
-8.6879616e-05
-0.024275316
0.001010305
-0.033021538
0.00096364981
-0.015428664
0.026890997
0.073571423
0.11040509
-0.10592784
0.00067577024
0.061109601
0.003835963
0.018135053
0.016629406
-0.030843315
-0.033318558
0.12705492
0.011185022
0.0024638622
-0.10154354
-0.098264609
-0.014546605
-0.14991369
-0.075017413
-0.024335171
0.00243862
-0.11125545
-0.036972613
0.00050601674
0.00014707809
-0.016715414
0.038346292
0.00092862314
-0.067725344
-0.10778173
0.00045288747
-0.053815894
0.0080839689
-0.037001032
-0.0047427608
0.00031360358
0.018216148
0.019308865
0.082325084
0.0080012827
-0.024878724
0.013482169
0.032656813
0.027793039
0.049642761
0.062150931
-0.027940297
0.086637907
-0.00011135357
0.10032937
-0.0055693135
-0.0050878846
-0.031145905
-0.0012381453
-9.2138536e-05
0.23690857
-0.0012961495
-0.030033566
-0.089000352
-0.042826988
6.495732e-05
-0.068572724
-0.1537561
0.0028018533
0.043064358
0.025892172
-0.18023809
0.073712984
0.00018553236
-0.053612677
-0.026661585
-0.1492676
-0.015891451
-0.002712006
0.015905042
0.00065319689
-0.012037402
0.017182673
-0.0047924823
0.10345405
0.015690384
0.014479863
-0.047492072
-0.36072665
-0.021799672
0.0002403648
0.067839895
0.00097188829
-0.0017465328
-0.033674027
-0.016695588
-0.088627757
-0.35932572
-0.0025068801
0.028892158
0.00057621699
0.033728742
-0.001336353
-0.024171879
0.020452126
-0.0036519807
-0.17568951
-0.013755044
-0.097618934
0.017067154
-0.13986598
0.073872231
0.017039049
-0.15296875
0.070861949
0.0060310995
-0.205157
0.067718173
0.020817435
0.020880033
0.0312416
0.028391332
-0.33414452
-0.047453073
-0.11607544
0.00089291513
-0.11209305
0.11046979
0.034901018
0.034255202
0.013529347
-0.04162416
-0.023171828
0.0035588887
-0.00017043457
0.065031407
-0.093447234
-0.029400665
0.0045426302
-0.33392334
0.10715806
-0.12085461
-0.046290593
-0.0049069179
-0.1490602
-0.08734402
-0.001278986
-0.21338449
-0.031285314
-0.0055017269
0.029133968
0.030534614
-0.024361565
-0.097479298
-0.13136992
0.069122206
0.10373633
0.097115595
0.020805468
0.0039140884
0.033403582
0.061214258
0.10882019
0.047887648
0.14526167
0.0011664176
0.027293973
0.047643776
0.00099253432
-0.01841425
0.0092193214
0.040946385
0.073922572
0.02107605
-0.20902141
0.027806267
-0.0061538939
0.2364116
0.03653038
-0.00031923877
0.22644713
0.070453242
-0.023389796
-0.029599684
0.087041518
0.22502647
-0.083443529
0.0030458261
0.056962359
-0.0020039059
0.13297717
0.05657783
0.062133291
-0.032905844
1.2117304e-05
0.096937501
0.063284477
0.23535146
0.020821255
0.0019437889
0.027007165
-0.047859515
-0.035986018
-0.033587538
-0.18137381
0.23478115
-0.014008126
-0.00049507962
-0.021435924
0.11121494
0.089784993
-0.089798236
-0.090925556
0.0052085667
0.057538269
-0.10878612
-0.17653277
-0.045840507
-0.077265473
0.017137663
0.0167897
-0.0038775117
-0.0081262706
-0.0051164331
0.039179329
-0.019227313
-0.061767785
0.040164912
-0.029852865
-0.00831182
-0.11145928
0.19287912
-0.080733337
0.017516316
-0.00035362871
0.0065062544
0.028569516
-0.020133215
0.22179307
-0.020996104
0.00030705917
0.042618087
-0.00025744071
-0.17464673
-0.00089151874
-0.040594676
0.0011480115
-0.020828903
0.015585707
-0.11592061
0.10075121
-0.11314654
0.0055558406
0.024308564
-0.073571145
0.079128811
-0.0014003675
0.1086567
-0.0061801514
0.2794261
0.0078961679
-0.013952091
-0.17069663
0.16923672
-0.1208651
0.00031614821
0.0011988464
0.0060235787
0.0059267058
-0.16145664
0.033974573
0.026989825
0.047445068
-0.30743418
0.0016359843
0.045736111
-0.00066588649
-0.30825413
0.042101845
0.0008404119
-0.081238426
0.00050737773
0.0031347008
0.06429335
-0.039265057
-0.22758353
0.02296401
-0.014863842
4.5176742e-05
0.0042810444
-0.030363113
-0.044873295
0.037134929
-0.0051959857
0.070983409
-0.014006368
0.098295432
-0.22613107
-0.0054570267
-0.020232405
-0.2208644
0.031680996
0.065111003
8.3770603e-05
-0.035349833
-0.00078701977
0.058411508
0.05066689
-0.050675685
0.015942704
0.00035783672
-0.027215563
0.057382974
0.10105846
0.02898722
0.0045762161
0.090065476
0.0017815809
-0.2207291
0.044270475
-0.0039148019
-0.061332176
-0.0042730926
-0.012985287
-0.029383076
-0.0012214015
-0.00098935014
-0.039232444
0.0073757339
-0.00022496046
-0.079731937
-0.032450242
-0.023875608
-0.028644066
-0.0089021665
-0.14501177
-0.084484216
-0.08184437
0.02663834
-0.076316345
0.11148608
0.0045897338
0.02249019
-0.031711081
0.024227633
-0.1242619
0.011767597
-0.057052452
-0.13940613
-0.035753878
-0.0042090155
-0.073376779
-0.026779121
-0.012991793
0.0057752979
-0.030052831
0.057020658
-0.005637882
0.0014757347
0.028530451
0.059556752
-0.041491691
0.10801909
-0.05581484
0.32999112
0.063691533
-0.056062252
-0.016607452
0.00024446041
0.022150686
0.076941271
-0.02885465
0.0011165413
1.9903692e-05
0.0062025044
0.035796052
-0.0036978465
0.00093954179
-0.0025738617
-0.00013925364
0.1047312
-0.00058740949
0.05213396
0.07480799
0.06474017
0.059640029
0.048989925
0.026973311
0.00043103837
0.028780986
-0.025640715
-0.012357536
-9.6015599e-07
0.0062293343
0.11070638
-0.042933831
-0.096541932
0.019611031
0.067061309
-0.013516346
0.072764829
0.033998308
-0.026707962
0.13365308
0.0064920209
-0.0038421381
-0.007358244
9.7879194e-05
-4.6498356e-05
-0.0071149772
0.0033294661
0.23302162
-0.0034554467
-0.013226078
0.044724996
0.0078197843
0.0097199834
0.00086412033
-0.00031682598
0.068388402
-0.024595886
-0.018050564
1.7226258e-06
0.034985638
0.0056284997
0.019860803
-0.0077589739
-0.00027380096
0.00053094137
0.031068589
0.055476603
0.030631273
-0.039901232
0.00021582549
0.0052719394
-0.068850766
0.02339989
0.00068001724
-0.01289345
0.21627338
-0.03942166
0.21514728
-0.1000141
-0.046551227
0.011189805
-0.020640645
0.031540578
0.00091152578
0.087600969
0.0070296389
0.057193847
-0.0067227882
-0.04147076
-0.048193526
-0.20965486
0.021810009
-0.00060227452
-0.019410007
0.06590725
-0.035043297
0.094453748
-0.026488163
-0.0078886217
0.054799815
0.026279917
0.0040581113
0.015421631
-0.00337248
-0.20534444
0.0095782426
0.32403922
-0.15546459
-0.043504668
0.0056804306
0.18781376
0.029341782
-0.22799623
-0.029655737
0.00092268631
-0.014200823
-0.035582501
-0.19583018
-0.012860724
0.028707213
-0.19189138
-0.035122023
0.058943602
0.005221096
-0.0058382793
-0.011555862
0.0071662114
0.020630729
4.1737713e-05
0.029951472
0.0035049522
0.0038006709
-0.01593373
0.073965161
0.048199663
0.11077367
0.061528155
-0.096673734
-0.15089701
0.022412614
-0.052185188
0.005508175
-0.19816463
-0.077884848
-0.031253617
-0.02516742
-0.057561665
0.065059554
-0.024441109
0.00041882269
-0.032771513
-0.0031175749
0.12308866
-0.013118043
0.0034897843
0.0035346685
-0.20415301
-0.025331218
0.0021697738
0.00061262225
0.0045852559
0.035364389
0.021540138
0.29151023
0.0054678464
0.00061380704
0.0015328955
-0.0079341881
-0.18910837
-0.10036699
-0.038714372
-0.049539169
-0.044790566
0.1055822
0.16940411
-0.1762325
0.00022395603
0.077745591
-0.21141606
-0.014209203
0.032684618
-0.15277703
-0.16361607
0.039453078
0.0062049123
0.030563352
-0.00030744736
-5.0346363e-05
-0.05409164
0.062526784
0.13111973
-0.150465
0.0092860394
0.14762349
0.00085771528
0.02580832
-0.0077174393
0.092265292
-0.0050436508
-0.0096804822
0.0041884073
0.00056521967
-0.0041863098
-0.10577363
0.26646746
-0.12563772
-0.10932533
-0.0032276919
-0.10537455
0.17002574
-0.096386715
0.14676084
-0.043085103
-0.088006366
0.0012119542
0.015898734
0.018528286
-0.04915363
0.0062208478
-0.14239252
0.027316084
0.051418536
0.12197179
-0.062983239
-0.063402666
0.063047922
-0.015932263
0.0076492696
-0.0042888953
-0.21628895
-0.13076386
-0.019435717
-0.018391954
-0.036409855
0.0014411011
0.030032249
0.075251349
0.032757685
-0.14138102
0.0010090688
-0.081097513
0.010507734
0.0032259043
0.12561066
0.15601252
0.00031874903
0.06408843
-0.018359235
0.076783501
0.0074318995
-0.01251743
0.039897442
0.16321089
-0.39495595
0.068186466
-0.0019022435
-0.11039537
0.00030435343
-0.39340683
-0.00098977057
0.044842245
-0.059955978
0.00021147001
0.036865036
-0.010492181
0.013313387
-0.15481951
-0.22990488
-0.0043282686
0.0073087417
0.0079449542
-0.006152423
0.10577522
-0.11519496
-0.10273633
0.13732423
0.0013803171
-0.13483173
0.0027809036
0.032691229
0.045512676
-0.11895461
0.013298697
0.013783154
-0.020160864
-0.009521537
-0.06424412
-8.1026542e-05
0.0016407977
-0.18615956
0.010488765
0.0044432091
-0.027161059
-0.007977513
-0.26568233
-0.0053094219
0.20276734
-0.26166375
0.099897942
-0.11783765
-0.0018273867
0.076032825
-0.0017852193
-0.024009343
-0.35902528
-0.03549855
0.26562762
0.0077176133
-0.18129922
-0.10652674
0.033077561
-0.35702193
0.028876637
-0.00036431596
0.11528203
0.0058943687
0.01283376
-0.0014043068
0.085977061
-0.028978857
0.00013357428
-0.0044588649
-0.13737853
4.2623929e-05
0.021511927
-0.034891452
-0.024559527
0.0070457705
0.00042284603
0.045654818
0.33215225
0.00084630235
0.10750635
-0.049948179
0.068748718
0.024691326
0.025168206
0.20748871
-0.0020627823
0.088854292
0.11740921
-0.051539539
0.1093788
-0.17390446
-0.033547982
-1.0545347e-05
0.025530253
-0.0058027355
0.00013264455
-0.015265875
0.012815628
0.014194395
-0.08320974
0.29093195
-0.090470688
0.059575201
-0.16932308
0.051064022
0.038579096
-0.042044611
0.13588583
0.14883949
0.029603866
0.03949419
-0.0067889947
-0.0014882166
0.020184867
-0.013338788
-0.0058269108
-0.30634352
-0.30417027
-0.00034011917
-0.016452029
-0.0056578209
0.00096013406
-0.028616477
-0.0024097123
-0.0040290955
-0.10800839
0.00056412367
-0.031443232
-0.045730426
-5.3375743e-05
-0.031252673
0.028321627
-0.021795969
0.0013723832
0.023709548
-0.38377045
0.079621184
0.0010932872
-0.018716002
0.069856671
-0.057414639
-0.38221989
-0.00060775819
0.0069128477
-0.069109995
0.041140731
-0.0055364517
-0.31094508
-5.3271218e-05
0.10776519
-0.029455269
0.0063640083
-0.00028358143
-0.01316143
-0.3070639
0.13258836
0.0012342983
-0.079719497
-2.6440181e-07
-0.036051977
-0.15255498
0.053374349
0.075970999
-0.0018418816
0.042187512
-0.0023863936
-0.075860697
-0.14797062
0.0053087808
-0.011581284
-0.029711528
-0.061484858
0.0036582068
0.31045801
-0.00052381978
0.17054833
0.0091470078
0.19138337
-0.079580457
-0.071923501
-0.0016011817
0.02486046
0.025188399
0.083821435
-0.036219719
0.00018645984
0.098972335
0.044286466
-0.0023942017
-0.013072129
-0.0022781063
0.074862778
0.035756957
0.0002901658
0.012845104
-0.005470217
-0.017175094
-0.0074525901
0.024453289
0.060092403
-0.013070378
0.013048695
-0.19789414
0.036640318
0.051935835
0.010159044
-0.019241129
0.0028553516
-0.00049618361
0.20872958
-0.012205077
-0.014556569
-0.0010142233
0.08184538
0.13029419
-0.14369187
-0.01302794
0.0094443156
0.12222555
0.27394551
0.0018639224
0.0075366218
0.040479083
-0.0033481364
0.0001134879
0.006109523
-0.021426327
0.068684964
7.4286539e-05
-0.022647114
-0.054922037
0.023479472
-0.00011116683
-0.028218243
-0.0051217212
-0.0011741442
-0.0010342181
-0.075997377
-0.0028531076
-0.20643841
-0.074010559
0.00015031563
0.00054955852
-0.015695774
0.078023342
0.086669014
0.047717684
-0.093415708
-8.0479165e-06
0.050175885
-0.076417111
-0.20145558
0.052128274
3.0369072e-06
0.093450898
0.01701901
-0.16999132
-0.22665125
0.0032881251
0.052938136
0.054839728
-0.0036024616
-0.11082339
0.00012472889
-0.012304224
0.044033082
0.091204542
-0.078127066
0.058109532
0.092308456
-0.00097971202
0.15972232
0.27223301
0.036252217
0.0046904252
-0.12137251
0.11087734
-0.080456416
0.10256153
0.017999197
-0.096687555
0.024167276
0.13702041
0.10712103
0.0002263682
-7.1704911e-05
-0.195612
0.00090551212
0.10130063
0.011433305
0.0092016609
-0.22195779
0.014997496
0.030668608
0.10641693
-0.26345929
-0.059422582
-0.11624352
-0.090354581
0.16285367
0.0005665367
0.0055837871
-0.034543809
0.052396508
-0.021112158
1.2248275e-05
-0.27416079
-0.0014740796
0.0011119098
-0.2709164
0.013525978
-0.2764082
-0.0010006806
0.054975436
-0.01264356
0.00048368015
0.029173561
0.11043595
0.0043923916
-3.6746723e-06
-0.029383471
-0.00064195305
-0.03299823
0.021870707
0.0029041134
0.023226986
0.0358495
-0.19067567
-0.2719605
-0.12939363
0.00022053886
-0.000615984
0.00013414897
0.0060059738
0.00065331875
0.031022632
0.012038525
0.00021443081
0.053305601
0.088553175
-0.032305514
0.13965608
-0.021054427
-0.0033371707
-0.18171837
0.048316628
-0.3572532
0.081990062
-0.00085637128
-0.00080752627
0.019841124
-0.036181972
-0.032710848
-0.24019419
-0.0048591171
0.033109374
-0.002105379
0.060276252
-0.00067978397
0.0056348106
-0.00032608552
0.00081708451
0.093832022
-0.0070773668
-0.024573349
-0.019619196
0.037407084
-0.038892521
-0.011991862
-0.00086274858
-0.0010437568
-0.0066260329
0.21453908
-0.0266275
-0.00040766314
-0.026330217
0.071025498
-0.045749695
-0.084134024
0.051580947
0.047526315
-0.35854669
7.0022186e-05
-0.00032074535
0.054134099
-0.00066921429
0.023364155
-0.0029245313
-0.034249637
0.004850071
0.065153312
0.028609354
0.22632749
-0.14663653
0.0074331199
0.017922377
-0.23881992
-0.23836851
0.21824109
0.060707494
0.052855047
-0.047830883
-0.0040683238
-0.0013908336
0.08879053
-0.00011732
0.064503737
0.12592648
-0.00090298609
-0.12537317
0.10800904
-0.024183381
0.0042127172
-0.0013182485
0.025567709
0.11521667
-0.017157595
0.0009987855
0.0099100385
0.0099821872
-0.07858324
-0.14073367
0.00043429266
-0.00067079819
-0.13078701
0.047475374
-0.00055426714
-0.0065596883
0.12121405
-0.087749733
6.4442645e-05
-0.012764343
0.0021597722
-0.0015914733
0.013737255
-0.04660512
-0.24705137
0.023158089
0.2859028
0.07987472
0.013510259
0.012736589
0.081284014
0.00050462806
-0.17722222
0.0082636245
-0.18200289
0.023945393
0.023899749
-0.12124698
-0.049455588
-0.035199114
0.038451303
-0.15523602
-0.020174525
0.20965698
0.15534806
-0.013762757
0.31341506
0.084060373
-0.20231693
-0.00065677396
-0.26439688
0.26748526
0.01479953
-0.24248761
-0.20679496
-0.0021302279
-0.00082769115
0.0018086172
0.07559823
0.24931787
-0.0098996834
-0.052521118
0.011007136
0.026084993
-0.059542581
0.026409407
0.013553642
0.0081838249
-0.016710348
-0.0029748534
-0.015625711
-0.15833963
0.020488616
-0.033686449
-0.010148854
-0.0030417238
-0.26632135
0.0031536504
-0.038505768
-0.20114728
0.025527515
0.12372439
-0.26457636
7.8583734e-05
-0.039704082
0.00011458506
0.073557972
0.063003204
-0.072662024