/*--------------------------------*- C++ -*----------------------------------*\
| =========                 |                                                 |
| \\      /  F ield         | foam-extend: Open Source CFD                    |
|  \\    /   O peration     | Version:     4.1                                |
|   \\  /    A nd           | Web:         http://www.foam-extend.org         |
|    \\/     M anipulation  |                                                 |
\*---------------------------------------------------------------------------*/
FoamFile
{
    version     2.0;
    format      ascii;
    class       surfaceScalarField;
    location    "0.4";
    object      phi;
}
// * * * * * * * * * * * * * * * * * * * * * * * * * * * * * * * * * * * * * //

dimensions      [0 3 -1 0 0 0 0];

internalField   nonuniform List<scalar> 
6703
(
-2.8262836e-05
0.0001457261
-0.00011746326
-5.3549602e-05
0.00017949847
-0.00015421171
-7.755249e-05
0.00021543028
-0.00019142739
-0.00010567451
0.00025586435
-0.00022774233
-0.0001379722
0.00030324046
-0.00027094277
-0.00017487351
0.00035872282
-0.00032182151
-0.00021682484
0.00042352242
-0.0003815711
-0.0002642979
0.00049903029
-0.00045155723
-0.00031785651
0.00058677352
-0.00053321491
-0.00037818958
0.00068845656
-0.00062812349
-0.00044613234
0.00080600523
-0.00073806248
-0.00052267995
0.00094163437
-0.00086508676
-0.00060899092
0.0010980071
-0.0010116961
-0.00070648328
0.0012785905
-0.0011810981
-0.00081681957
0.0014882531
-0.0013779168
0.0017335289
-0.0016106654
-0.00093968305
-2.0615959e-05
0.00016634206
-4.1247952e-05
0.00020013047
-6.1601159e-05
0.00023578349
-8.5612386e-05
0.00027987557
-0.00011363107
0.00033125915
-0.0001464393
0.00039153105
-0.00018483792
0.00046192104
-0.00022970036
0.00054389273
-0.00028200905
0.00063908221
-0.00034288866
0.00074933616
-0.00041366498
0.00087678156
-0.00049595591
0.0010239253
-0.00059176544
0.0011938166
-0.00070347144
0.0013902965
-0.00083348383
0.0016182655
0.001883407
-0.00098336194
-7.928617e-06
0.00017427068
-2.0455584e-05
0.00021265743
-3.487483e-05
0.00025020274
-5.2163357e-05
0.0002971641
-7.2664425e-05
0.00035176022
-9.6995743e-05
0.00041586237
-0.00012580519
0.00049073048
-0.00015984719
0.00057793473
-0.00019998238
0.0006792174
-0.00024718916
0.00079654294
-0.00030258339
0.00093217579
-0.00036745611
0.001088798
-0.00044333661
0.0012696971
-0.00053204774
0.0014790076
-0.00063558829
0.001721806
0.0020037898
-0.00075597107
-3.2762021e-06
0.00017754688
-1.15036e-05
0.00022088483
-2.0278991e-05
0.00025897813
-3.1109969e-05
0.00030799508
-4.4067626e-05
0.00036471788
-5.9631847e-05
0.00043142659
-7.8258714e-05
0.00050935735
-0.00010050197
0.00060017799
-0.00012699731
0.00070571274
-0.00015847446
0.00082802009
-0.00019576754
0.00096946888
-0.00023982325
0.0011328537
-0.00029169831
0.0013215722
-0.00035251174
0.001539821
-0.00042320788
0.0017925022
0.0020837882
-0.00050320631
9.0798851e-07
0.00017663889
-3.5278031e-06
0.00022532062
-7.1842497e-06
0.00026263457
-1.2109661e-05
0.00031292049
-1.7959356e-05
0.00037056757
-2.5071702e-05
0.00043853893
-3.3671995e-05
0.00051795765
-4.4078863e-05
0.00061058485
-5.6663177e-05
0.00071829705
-7.1865976e-05
0.00084322289
-9.0206396e-05
0.0009878093
-0.00011228886
0.0011549362
-0.0001388033
0.0013480866
-0.0001705032
0.0015715209
-0.00020817129
0.0018301703
0.0021303063
-0.00025468934
5.1872742e-06
0.00017145162
4.9628397e-06
0.00022554506
6.3348639e-06
0.00026126255
7.3570353e-06
0.00031189832
8.6567182e-06
0.00036926789
1.0051178e-05
0.00043714447
1.1544068e-05
0.00051646476
1.305889e-05
0.00060907003
1.449901e-05
0.00071685693
1.5721123e-05
0.00084200078
1.6528786e-05
0.00098700164
1.6662693e-05
0.0011548023
1.5792274e-05
0.0013489571
1.3503963e-05
0.0015738092
9.4968864e-06
0.0018341773
0.0021363803
3.4228898e-06
9.7626975e-06
0.00016168892
1.4494869e-05
0.00022081289
2.0962525e-05
0.00025479489
2.8225131e-05
0.00030463571
3.6812483e-05
0.00036068054
4.6820291e-05
0.00042713667
5.8449537e-05
0.00050483551
7.1881332e-05
0.00059563824
8.7294169e-05
0.0007014441
0.0001048447
0.00082445024
0.00012465996
0.00096718638
0.00014683132
0.0011326309
0.00017141932
0.0013243691
0.00019844717
0.0015467814
0.00022802291
0.0018046016
0.0021050917
0.00025931149
1.4407378e-05
0.00014728154
2.4652965e-05
0.0002105673
3.6178327e-05
0.00024326953
4.9781316e-05
0.00029103272
6.5716207e-05
0.00034474565
8.4422863e-05
0.00040843001
0.00010627151
0.00048298686
0.00013168292
0.00057022683
0.0001610824
0.00067204462
0.00019489563
0.00079063701
0.00023353817
0.00092854384
0.00027740972
0.0010887594
0.00032689569
0.0012748831
0.00038232841
0.0014913486
0.00044396495
0.0017429651
0.0020376693
0.00051138735
1.9459249e-05
0.00012782229
3.6274405e-05
0.00019375214
5.3243287e-05
0.00022630065
7.3336045e-05
0.00027093996
9.6683433e-05
0.00032139826
0.00012407747
0.00038103597
0.00015607323
0.0004509911
0.0001933035
0.00053299657
0.00023641082
0.00062893729
0.0002860538
0.00074099403
0.00034290633
0.00087169131
0.00040767609
0.0010239896
0.00048115706
0.0012014021
0.00056430015
0.0014082055
0.00065829666
0.0016489686
0.0019314535
0.00076451244
2.6517299e-05
0.00010130499
5.1440937e-05
0.0001688285
7.5302501e-05
0.00020243908
0.00010265283
0.00024358963
0.00013387151
0.00029017958
0.00017006759
0.00034483989
0.0002120416
0.00040901709
0.00026061738
0.0004844208
0.0003166132
0.00057294147
0.00038085992
0.00067674731
0.00045422389
0.00079832734
0.00053766955
0.00094054394
0.00063239589
0.0011066758
0.00074009285
0.0013005086
0.00086338036
0.0015256811
0.0017871739
0.00100766
2.8908995e-05
7.2395996e-05
6.9436405e-05
0.0001283011
0.00010802772
0.00016384777
0.00014714541
0.00020447195
0.00018856283
0.00024876216
0.00023445126
0.00029895145
0.00028628447
0.00035718388
0.00034521451
0.00042549076
0.00041223812
0.00050591785
0.00048828363
0.00060070181
0.00057428064
0.00071233033
0.0006712665
0.00084355807
0.00078052845
0.00099741385
0.00090373038
0.0011773067
0.0010426649
0.0013867465
0.0016284196
0.0012014193
5.5698167e-05
1.669783e-05
0.00010796998
7.6029283e-05
0.00015080532
0.00012101243
0.00019379422
0.00016148305
0.00024004162
0.00020251477
0.00029097368
0.00024801939
0.0003474323
0.00030072526
0.00040990991
0.00036301315
0.00047852896
0.0004372988
0.00055311646
0.00052611431
0.0006333757
0.00063207109
0.0007191185
0.00075781528
0.00081050865
0.0009060237
0.00090822473
0.0010795906
0.0010127477
0.0012822235
0.0015156383
0.001125529
-1.9000668e-06
-0.00011786801
0.00011976808
-1.5027094e-05
-0.00014125015
0.00015437718
-3.9333041e-05
-0.00016802229
0.00019232823
-6.7705878e-05
-0.000199643
0.00022801584
-0.00010130734
-0.00023675733
0.00027035879
-0.00014096669
-0.00028019398
0.00031985333
-0.00018758443
-0.00033086635
0.00037748409
-0.00024216553
-0.00038977369
0.00044435479
-0.00030569065
-0.00045801029
0.0005215354
-0.00037907126
-0.00053677509
0.0006101557
-0.00046312945
-0.00062739174
0.00071144993
-0.00055857894
-0.00073135407
0.00082680356
-0.00066607635
-0.00085041398
0.00095791139
-0.00078660237
-0.00098664143
0.0011071674
-0.00092267837
-0.001142257
0.001278333
-0.0013202594
0.001478923
-0.001081342
-1.8110172e-05
-9.9757839e-05
-4.1121785e-05
-0.00011823854
-6.9157418e-05
-0.00013998665
-0.00010305939
-0.00016574103
-0.00014375372
-0.00019606299
-0.00019233311
-0.00023161459
-0.00025006189
-0.00027313758
-0.0003183877
-0.00032144788
-0.00039896245
-0.00037743554
-0.00049366616
-0.00044207138
-0.0006046319
-0.000516426
-0.00073427676
-0.00060170921
-0.00088535439
-0.00069933635
-0.0010609697
-0.00081102613
-0.0012641921
-0.00093903452
-0.0010866428
-0.0014978087
-2.1256176e-05
-7.8501663e-05
-4.7248101e-05
-9.2246614e-05
-7.8426284e-05
-0.00010880847
-0.00011569394
-0.00012847338
-0.00016011176
-0.00015164518
-0.00021291507
-0.00017881128
-0.00027552635
-0.0002105263
-0.00034956883
-0.0002474054
-0.00043688171
-0.00029012266
-0.00053953896
-0.00033941413
-0.00065987731
-0.00039608765
-0.0008005416
-0.00046104492
-0.00096455326
-0.00053532469
-0.0011554113
-0.00062016813
-0.0013774492
-0.0007169966
-0.00082701077
-0.0016370812
-2.1809245e-05
-5.6692418e-05
-4.8971266e-05
-6.5084593e-05
-8.1946052e-05
-7.5833683e-05
-0.00012158891
-8.8830518e-05
-0.00016898167
-0.00010425242
-0.00022540388
-0.00012238907
-0.00029233081
-0.00014359936
-0.00037143861
-0.00016829761
-0.00046461135
-0.00019694992
-0.00057395012
-0.00023007536
-0.00070178737
-0.0002682504
-0.00085071894
-0.00031211335
-0.0010236786
-0.00036236502
-0.0012240283
-0.00041981848
-0.0014552114
-0.00048581346
-0.0005632479
-0.0017189743
-2.3871823e-05
-3.2820595e-05
-5.3040791e-05
-3.5915625e-05
-8.8014913e-05
-4.0859562e-05
-0.00012980891
-4.703652e-05
-0.00017964212
-5.4419207e-05
-0.0002389208
-6.3110394e-05
-0.00030924614
-7.3274018e-05
-0.00039242641
-8.5117338e-05
-0.00049049091
-9.888542e-05
-0.00060570776
-0.00011485851
-0.00074061124
-0.00013334692
-0.00089803278
-0.0001546918
-0.0010811173
-0.00017928052
-0.0012934725
-0.00020746323
-0.0015404576
-0.00023882838
-0.00027071823
-0.0018329873
-7.9304797e-06
0.0001743105
-0.00016638002
-2.0461826e-05
0.00021272239
-0.00020019104
-3.4884256e-05
0.00025029741
-0.00023587498
-5.2174249e-05
0.00029730007
-0.00028001007
-7.2673509e-05
0.00035196205
-0.00033146279
-9.6996102e-05
0.00041615127
-0.00039182868
-0.00012578455
0.00049112408
-0.00046233563
-0.00015978522
0.00057843541
-0.00054443474
-0.00019984879
0.00067979596
-0.00063973239
-0.00024694506
0.00079711871
-0.00075002244
-0.00030219198
0.00093260386
-0.00087735694
-0.00036690933
0.0010888883
-0.001024171
-0.00044269393
0.0012692997
-0.0011935151
-0.00053144832
0.0014781709
-0.0013894165
-0.00063514018
0.0017209046
-0.0016172127
0.0020032724
-0.0018831426
-0.00075526998
-3.2710324e-05
-1.10271e-07
-6.8543393e-05
-8.2556355e-08
-0.00010934104
-6.191421e-08
-0.00015633504
-4.2518176e-08
-0.00021073235
-2.1897891e-08
-0.00027384407
1.3205277e-09
-0.00034714581
2.7723854e-08
-0.00043232005
5.6902505e-08
-0.0005312924
8.692841e-08
-0.00064626466
1.1375448e-07
-0.00077974277
1.3118559e-07
-0.00093456672
1.3215181e-07
-0.0011139572
1.0998131e-07
-0.0013214724
5.1910663e-08
-0.0015602084
-9.2345849e-08
-4.5501477e-07
-0.0018304716
-3.323372e-05
3.3123449e-05
-6.9519528e-05
3.6203252e-05
-0.0001107765
4.1195058e-05
-0.00015825339
4.7434374e-05
-0.00021315965
5.4884357e-05
-0.00027680041
6.3642083e-05
-0.00035063733
7.3864644e-05
-0.00043633021
8.574978e-05
-0.00053577281
9.9529534e-05
-0.00065112625
0.00011546719
-0.00078484726
0.00013385219
-0.00093971423
0.00015499912
-0.0011188537
0.0001792495
-0.0013256634
0.0002068616
-0.001563162
0.00023740622
0.00026906897
-0.001832686
-2.3965072e-05
5.7088521e-05
-5.3320076e-05
6.5558256e-05
-8.8518796e-05
7.6393778e-05
-0.00013056262
8.9478198e-05
-0.00018066225
0.00010498399
-0.00024021415
0.00012319398
-0.00031080651
0.00014445701
-0.00039422992
0.00016917319
-0.00049248942
0.00019778904
-0.00060781919
0.00023079696
-0.00074270446
0.00026873746
-0.00089990841
0.00031220307
-0.0010825008
0.00036184184
-0.0012940198
0.00041838067
-0.0015394534
0.00048283981
0.00055718986
-0.0018275743
-2.1716753e-05
7.8805274e-05
-4.8776995e-05
9.2618498e-05
-8.1632031e-05
0.00010924881
-0.00012112689
0.00012897305
-0.00016833149
0.00015218859
-0.00022450996
0.00017937246
-0.000291117
0.00021106405
-0.00036980128
0.00024785747
-0.00046241153
0.00029039928
-0.00057100607
0.0003393915
-0.00069787179
0.00039560319
-0.0008455687
0.00045989999
-0.0010170395
0.00053331267
-0.0012158006
0.00061714171
-0.0014457596
0.00071279889
0.00082057544
-0.0017091452
-2.1088874e-05
9.9894148e-05
-4.688172e-05
0.00011841134
-7.7817514e-05
0.00014018461
-0.00011479016
0.0001659457
-0.00015884895
0.00019624738
-0.00021121522
0.00023173873
-0.00027329515
0.00027314397
-0.00034669474
0.00032125706
-0.000433239
0.00037694354
-0.00053500038
0.00044115288
-0.00065434729
0.00051495009
-0.00079402538
0.00059957808
-0.00095726206
0.00069654935
-0.0011478998
0.00080777944
-0.0013713113
0.00093621038
0.0010883887
-0.0016391246
-1.8014175e-05
0.00011790832
-4.0905852e-05
0.00014130302
-6.8792431e-05
0.00016807119
-0.00010251422
0.00019966749
-0.00014299543
0.00023672858
-0.00019132921
0.00028007251
-0.00024878587
0.00033060064
-0.00031683046
0.00038930164
-0.00039715394
0.00045726702
-0.00049171447
0.00053571342
-0.00060278964
0.00062602526
-0.00073304909
0.00072983752
-0.0008856842
0.00084918447
-0.0010645602
0.00098665541
-0.001273491
0.0011451412
0.0013268256
-0.0015119278
-1.7597971e-06
0.00011966812
-1.4806129e-05
0.00015434935
-3.907309e-05
0.00019233815
-6.7394696e-05
0.0002279891
-0.00010094506
0.00027027895
-0.0001405593
0.00031968676
-0.00018714825
0.00037718958
-0.00024173433
0.00044388773
-0.0003053303
0.00052086298
-0.00037889711
0.00060928024
-0.00046332798
0.00071045613
-0.00055941659
0.00082592613
-0.00066783787
0.00095760575
-0.00078928115
0.0011080987
-0.00092514519
0.0012810052
0.0014817171
-0.0010800367
5.5671192e-05
-7.2282453e-05
1.6611261e-05
0.00010793583
-0.00012822443
7.5959794e-05
0.00015076976
-0.00016380754
0.00012097361
0.00019374283
-0.0002044477
0.00016147463
0.0002399609
-0.00024875816
0.00020254009
0.00029084924
-0.00029897185
0.00024808351
0.00034724754
-0.0003572323
0.000300834
0.0004096437
-0.00042556335
0.00036316718
0.00047815244
-0.00050599165
0.00043748292
0.00055258798
-0.0006007171
0.00052628155
0.00063263454
-0.00071216953
0.00063212297
0.00071807725
-0.00084302806
0.00075758535
0.00080903864
-0.00099623848
0.0009052771
0.00090603833
-0.0011751266
0.001078127
0.0010091066
-0.001382799
0.0012797308
-0.0016227961
0.0015076066
0.0011242961
2.8954004e-05
-0.00010123646
6.9522561e-05
-0.00016879299
0.00010815072
-0.00020243569
0.00014730397
-0.00024360095
0.00018876095
-0.00029021514
0.00023469646
-0.00034490735
0.0002865886
-0.00040912444
0.00034559231
-0.00048456705
0.00041270574
-0.00057310509
0.00048885883
-0.00067687019
0.00057499014
-0.00079830084
0.00067217263
-0.00094021056
0.00078180302
-0.0011058689
0.00090583874
-0.0012991624
0.0010469152
-0.0015238755
-0.0017866478
0.0012107669
2.6558719e-05
-0.00012779518
5.152728e-05
-0.00019376155
7.5426783e-05
-0.0002263352
0.00010281748
-0.00027099164
0.00013408483
-0.0003214825
0.00017034106
-0.00038116358
0.00021238915
-0.00045117253
0.00026105292
-0.00053323082
0.00031714805
-0.00062920021
0.00038150049
-0.00074122263
0.00045497245
-0.0008717728
0.00053853252
-0.0010237706
0.00063340227
-0.0012007386
0.00074129568
-0.0014070558
0.00086474412
-0.0016473239
-0.0019300429
0.0010081392
1.9487133e-05
-0.00014728231
3.6333558e-05
-0.00021060798
5.3329118e-05
-0.00024333076
7.3454369e-05
-0.00029111689
9.6842428e-05
-0.00034487056
0.00012428724
-0.0004086084
0.00015634477
-0.00048323006
0.00019364643
-0.00057053248
0.00023683091
-0.00067238469
0.00028655033
-0.00079094205
0.00034347243
-0.00092869489
0.00040830709
-0.0010886053
0.00048187421
-0.0012743057
0.00056518591
-0.0014903675
0.00065958235
-0.0017417203
-0.0020371196
0.00076665902
1.4424413e-05
-0.00016170672
2.4686998e-05
-0.00022087056
3.6227656e-05
-0.00025487142
4.9851505e-05
-0.00030474074
6.5813551e-05
-0.0003608326
8.4554882e-05
-0.00042734973
0.00010644563
-0.00050512081
0.00013190474
-0.00059599159
0.00016135303
-0.00070183297
0.00019520865
-0.00082479768
0.00023387815
-0.00096736439
0.00027775559
-0.0011324827
0.00032723085
-0.001323781
0.00038264415
-0.0015457808
0.00044426231
-0.0018033385
-0.0021042188
0.00051136157
9.7731289e-06
-0.00017147985
1.4513092e-05
-0.00022561053
2.0989349e-05
-0.00026134767
2.8264664e-05
-0.00031201606
3.6869672e-05
-0.00036943761
4.6901132e-05
-0.00043738119
5.8560015e-05
-0.00051677969
7.2026243e-05
-0.00060945782
8.747497e-05
-0.0007172817
0.00010505712
-0.00084237983
0.00012489254
-0.00098719982
0.00014706783
-0.001154658
0.00017164715
-0.0013483603
0.00019866982
-0.0015728035
0.00022830843
-0.0018329771
-0.0021355291
0.00025961871
5.194167e-06
-0.00017667402
4.9726216e-06
-0.00022538898
6.3503648e-06
-0.00026272542
7.3814234e-06
-0.00031304712
8.6946263e-06
-0.00037075081
1.0108514e-05
-0.00043879508
1.1627394e-05
-0.00051829857
1.3174995e-05
-0.00061100542
1.4653632e-05
-0.00071876034
1.5917345e-05
-0.00084364354
1.6765402e-05
-0.00098804787
1.6934e-05
-0.0011548266
1.6091604e-05
-0.0013475179
1.3837198e-05
-0.001570549
9.9234768e-06
-0.0018290634
-0.0021294672
3.8616187e-06
9.11573e-07
-0.00017758559
-3.5248445e-06
-0.00022095256
-7.1779212e-06
-0.00025907234
-1.2097164e-05
-0.00030812788
-1.7935906e-05
-0.00036491207
-2.5030488e-05
-0.0004317005
-3.3604186e-05
-0.00050972487
-4.3973133e-05
-0.00060063648
-5.6506096e-05
-0.00070622737
-7.164336e-05
-0.00082850628
-8.9906689e-05
-0.00096978454
-0.00011190824
-0.0011328251
-0.00013834832
-0.0013210778
-0.00016997428
-0.0015389231
-0.0002075057
-0.001791532
-0.0020831314
-0.00025384152
-3.2750854e-06
-1.1505261e-05
-2.0280189e-05
-3.1107999e-05
-4.4058022e-05
-5.9607243e-05
-7.8208029e-05
-0.00010040909
-0.00012684051
-0.00015822808
-0.00019540876
-0.00023934547
-0.00029112361
-0.00035187579
-0.00042250318
-0.00050236221
-2.058583e-05
-0.00014579419
-4.1220555e-05
-0.00017955632
-6.1595616e-05
-0.00021549992
-8.5626212e-05
-0.00025597948
-0.00011366448
-0.00030342452
-0.0001464879
-0.00035900526
-0.00018488901
-0.00042393453
-0.00022972693
-0.00049959681
-0.00028196334
-0.00058749598
-0.00034269838
-0.0006892874
-0.00041324355
-0.00080681177
-0.00049524472
-0.00094216983
-0.00059082406
-0.0010979358
-0.00070258975
-0.0012776508
-0.00083327385
-0.0014865286
-0.0017314159
-0.00098500054
-2.822425e-05
-0.00011756995
-5.3545011e-05
-0.00015423556
-7.7621633e-05
-0.0001914233
-0.00010582695
-0.00022777416
-0.00013822178
-0.00027102969
-0.00017522961
-0.00032199744
-0.00021728678
-0.00038187735
-0.0002648463
-0.0004520373
-0.00031844375
-0.00053389853
-0.00037873092
-0.00062900023
-0.00044651087
-0.00073903181
-0.00052279076
-0.00086588995
-0.00060886078
-0.0010118657
-0.00070644101
-0.0011800706
-0.00081726395
-0.0013757057
-0.0016089422
-0.00093973769
3.7979077e-05
-2.3711946e-05
-1.4267131e-05
0.00011871722
-5.4416245e-06
-7.529652e-05
0.00021830818
1.8303126e-05
-0.00011789409
0.00032794753
4.6777053e-05
-0.0001564164
0.00043815153
8.5284173e-05
-0.00019548817
0.00054040245
0.0001361396
-0.00023839051
0.00063288781
0.00019508888
-0.00028757424
0.00071424652
0.00026389257
-0.00034525128
0.0007841755
0.00034371004
-0.00041363902
0.00084418759
0.00043503594
-0.00049504803
0.00089779901
0.00053823538
-0.00059184679
0.00095032107
0.00065385941
-0.00070638147
0.0010082491
0.00078299133
-0.00084091938
0.001078315
0.00092772321
-0.00099778904
0.0011664834
0.0010915257
-0.0011796941
0.0012787148
-0.0013902164
0.001277985
3.0204138e-05
-5.3916083e-05
8.4480666e-05
-5.9718153e-05
0.00016089753
-5.811374e-05
0.00025699606
-4.932147e-05
0.00037322565
-3.0945419e-05
0.00050623583
3.1294124e-06
0.00063584904
6.5475671e-05
0.00075143452
0.00014830709
0.00085215325
0.00024299131
0.00094169894
0.00034549026
0.001025656
0.00045427829
0.0011112059
0.00056830954
0.0012070147
0.00068718255
0.0013229459
0.00081179197
0.0014699171
0.00094455449
0.0010886784
0.0016599535
1.4784657e-05
-6.8700741e-05
3.1445083e-05
-7.6378579e-05
5.7383806e-05
-8.4052463e-05
9.8020946e-05
-8.9958611e-05
0.00015869794
-9.1622413e-05
0.00024123222
-7.9404865e-05
0.00034023638
-3.3528489e-05
0.00042978282
5.876065e-05
0.00053134296
0.00014143116
0.0006404069
0.00023642631
0.00075675419
0.000337931
0.0008827443
0.00044231943
0.0010224373
0.00054748954
0.0011810363
0.00065319297
0.0013648258
0.00076076501
0.00087268989
0.0015808143
-7.1619827e-06
-6.1538758e-05
-1.628967e-05
-6.7250891e-05
-2.6890761e-05
-7.3451372e-05
-3.8533694e-05
-7.8315677e-05
-5.0137933e-05
-8.0018174e-05
-5.2262843e-05
-7.7279954e-05
-1.2570124e-05
-7.3221209e-05
6.2676931e-05
-1.6486405e-05
0.00015420123
4.9906861e-05
0.00026622625
0.0001244013
0.00039538478
0.00020877247
0.00054775706
0.00028994716
0.00072359413
0.00037165247
0.00092340442
0.00045338268
0.0011506149
0.0005335545
0.00061299653
0.0014103083
-1.5817361e-05
-4.5721397e-05
-3.873182e-05
-4.4336432e-05
-6.6527679e-05
-4.5655513e-05
-9.7920662e-05
-4.6922694e-05
-0.00013111588
-4.6822961e-05
-0.00016447744
-4.3918386e-05
-0.00020134505
-3.6353603e-05
-0.00019534
-2.2491455e-05
-0.00014921038
3.7772411e-06
-6.3547655e-05
3.8738574e-05
6.3907567e-05
8.1317246e-05
0.00022991899
0.00012393574
0.00042204835
0.00017952311
0.000642361
0.00023307003
0.00089537283
0.00028054267
0.0003282714
0.001180098
-4.5797777e-05
7.6379883e-08
-9.0188495e-05
5.4286811e-08
-0.00013586492
2.0910433e-08
-0.00018275884
-2.8773254e-08
-0.00022948073
-1.0107275e-07
-0.0002731951
-2.0401319e-07
-0.00030920147
-3.4722913e-07
-0.00033115173
-5.4119539e-07
-0.00032660026
-7.7423058e-07
-0.0002867695
-1.0921867e-06
-0.00020404963
-1.4026229e-06
-7.8410969e-05
-1.7029273e-06
0.00010322971
-2.1175626e-06
0.00033907764
-2.777898e-06
0.0006232924
-3.6720939e-06
-5.4020648e-06
0.00095696586
-4.5625627e-05
4.5702007e-05
-8.9866795e-05
4.4295454e-05
-0.00013539703
4.5551151e-05
-0.00018214417
4.671836e-05
-0.00022871403
4.6468793e-05
-0.00027226046
4.3342411e-05
-0.00030806317
3.5455486e-05
-0.00032976662
2.116225e-05
-0.00032485673
-5.684124e-06
-0.00028485501
-4.1093902e-05
-0.000202151
-8.4106636e-05
-7.6540457e-05
-0.00012731347
0.00010471192
-0.00018336994
0.00033927931
-0.00023734529
0.0006211072
-0.00028549998
-0.00033351462
0.00094921975
-1.5757984e-05
6.1459991e-05
-3.858037e-05
6.711784e-05
-6.6267852e-05
7.3238633e-05
-9.7530515e-05
7.7981022e-05
-0.00013056033
7.949861e-05
-0.00016372046
7.6502538e-05
-0.00020026885
7.2003881e-05
-0.00019381031
1.4703704e-05
-0.00014768239
-5.1812041e-05
-6.2319969e-05
-0.00012645632
6.4464007e-05
-0.00021089061
0.00022930742
-0.00029215688
0.00041998716
-0.00037404968
0.0006386975
-0.00045605563
0.00089004678
-0.00053684926
-0.00061721462
0.0011737468
-7.1909422e-06
6.8650933e-05
-1.6360812e-05
7.628771e-05
-2.7015993e-05
8.3893813e-05
-3.8726563e-05
8.9691592e-05
-5.0408405e-05
9.1180453e-05
-5.2410341e-05
7.8504474e-05
-1.2566818e-05
3.2160358e-05
6.2303637e-05
-6.0166751e-05
0.00015323081
-0.00014273921
0.00026442019
-0.0002376457
0.00039252132
-0.00033899174
0.00054352612
-0.00044316168
0.00071751033
-0.00054803389
0.00091475182
-0.00065329712
0.0011381718
-0.00076026921
-0.00087060223
0.0013915594
1.4716086e-05
5.3934847e-05
3.130572e-05
5.9698076e-05
5.7162012e-05
5.8037522e-05
9.7703582e-05
4.9150022e-05
0.00015825275
3.0631281e-05
0.00024047531
-3.7180821e-06
0.00033896993
-6.6334261e-05
0.00042792589
-0.00014912271
0.00052887055
-0.00024368387
0.00063722784
-0.00034600299
0.0007527742
-0.00045453811
0.00087780428
-0.00056819176
0.0010162336
-0.00068646321
0.0011729933
-0.00081005685
0.0013538531
-0.00094112895
-0.00108242
0.0015656709
3.0207831e-05
2.3727017e-05
8.4441012e-05
5.4648953e-06
0.00016078681
-1.8308276e-05
0.00025677351
-4.6836678e-05
0.00037283027
-8.5425484e-05
0.00050542307
-0.00013631088
0.00063438062
-0.0001952918
0.00074937426
-0.00026411635
0.00084961283
-0.00034392244
0.00093879378
-0.00043518395
0.001022487
-0.00053823133
0.0011078539
-0.00065355868
0.0012035625
-0.00078217175
0.0013195918
-0.00092608617
0.0014671674
-0.0010887045
-0.0012731249
0.0016578723
3.7909718e-05
-1.4182702e-05
0.00011859893
-7.5224316e-05
0.00021814618
-0.00011785553
0.00032771768
-0.00015640818
0.00043780635
-0.00019551415
0.00053995197
-0.0002384565
0.00063234714
-0.00028768697
0.00071364342
-0.00034541264
0.00078355696
-0.00041383598
0.00084361076
-0.00049523774
0.00089731814
-0.00059193871
0.00094998224
-0.00070622278
0.0010081058
-0.0008402953
0.001078495
-0.00099647538
0.0011673379
-0.0011775474
-0.0013882279
0.0012824408
2.3425024e-06
-2.2048559e-06
3.2532563e-06
3.5000229e-06
2.8361997e-06
7.0144848e-07
-3.680063e-06
-1.1349566e-05
-2.3701488e-05
-4.2544735e-05
-7.0151085e-05
-0.00010931171
-0.0001634021
-0.00023640151
-0.00033331306
-0.00046226135
2.3397567e-06
-2.1981326e-06
3.2446919e-06
3.4863766e-06
2.8154824e-06
6.7137743e-07
-3.7218831e-06
-1.1404387e-05
-2.3767519e-05
-4.2612048e-05
-7.0193934e-05
-0.00010928032
-0.00016323467
-0.00023613782
-0.0003335105
-0.00046352966
3.1640373e-06
-2.428559e-06
6.2821158e-06
1.1348565e-05
1.8374509e-05
2.8001512e-05
4.1148542e-05
5.8903084e-05
8.2550019e-05
0.00011359383
0.00015377809
0.00020514066
0.00027012245
0.00035177403
0.00045395739
0.0005733361
3.1634614e-06
-2.4306981e-06
6.2818056e-06
1.1348452e-05
1.8375047e-05
2.8003923e-05
4.1154938e-05
5.8916803e-05
8.2576586e-05
0.00011364287
0.00015386716
0.00020530097
0.00027040528
0.00035220682
0.0004547362
0.00058015805
0.001349519
-0.0034381476
0.0020886285
0.0084505129
-0.0087724958
0.00032198292
0.0012391642
-0.0032142235
0.0019750593
0.0084505129
-0.0022254594
0.00018498074
0.0020404787
-0.008164274
0.0050595406
0.0031047333
-0.0011203412
0.0043922331
-0.0032718918
0.0077647371
0.002936303
-0.01070104
0.0080785201
0.0020098569
-0.010088377
0.0012677568
-0.0017300181
-0.001943908
0.0014803784
0.00349888
0.0064427362
-0.0099416162
-0.0036235652
-0.0038398167
0.0074633818
-0.0075611321
0.0034772908
0.0040838413
-0.0016608879
0.0040144737
-0.0023535858
0.0035916605
-0.00010700065
-0.0034846598
0.0073432453
-0.0076183696
0.00027512426
0.00057817063
0.0016597207
-0.0022378913
0.0013195654
-0.0017404698
0.00042090443
0.0062650285
-0.0023099376
-0.0039550909
-0.0009877759
-0.0012376835
-0.0076992657
0.0040757005
-0.0094787818
0.0093904048
8.8377024e-05
0.00072786463
0.0085228149
-0.0092506795
6.1811846e-05
-0.0056752405
0.0056134287
0.0044753374
0.0013108686
-0.0057862061
-0.0040108519
-0.0059458968
0.0099567487
0.0063767598
-0.0021455907
-0.0042311691
0.0013480894
0.0064048829
-0.0077529723
-0.002261518
0.0055586337
-0.0032971157
0.006665317
-0.0021899796
0.0020188385
-0.001440188
-0.00057865052
-0.00021078443
0.0083788656
-0.0081680812
0.0062929654
0.00010377328
-0.0063967387
0.0010613047
-0.0061369565
0.0050756517
0.008740691
-0.0074016995
-0.0013389915
0.0076715471
-0.0081035405
0.00043199338
-0.0047930447
0.0058543495
0.0055910253
-0.0032437786
-0.0023472467
-0.0086677123
0.0017176539
0.0069500584
0.0029019315
-0.0042580614
0.0013561298
0.0099891383
-0.0043178096
-0.0056713287
0.0077647371
-0.0022880535
0.0056012105
-0.003313157
0.0080785201
-0.00085960616
0.0037196989
-0.0028600927
-0.0019043764
0.0065486912
-0.0046443148
-0.009802666
0.0041754504
0.0056272156
-0.0077647371
0.011659246
-0.0038945086
-0.0080785201
0.011761865
-0.0036833452
0.0031601757
-0.00042949964
-0.002730676
-0.0038876115
0.0017388516
0.0021487599
0.0014369463
-0.0026912527
0.0012543064
0.00098053112
0.001145948
-0.0021264792
-0.0030379771
0.0056770589
-0.0026390818
0.00052365592
0.0054944765
-0.0060181324
0.00097751454
-0.0019021549
0.00092464037
-0.0054895059
0.0034975029
0.001992003
-0.010521218
0.0011480557
0.0093731624
0.0084227019
-0.0030798155
-0.0053428864
0.0077453536
0.00067734829
0.0055481034
0.0040823585
-0.0096304619
0.0051959068
0.0043465493
-0.0095424561
-0.0024662568
0.0050446986
-0.0025784417
0.00083047753
-0.0040772749
0.0032467973
-0.0066519926
0.0068983096
-0.00024631703
0.0043407585
-0.0079003978
0.0035596393
0.0044782435
0.0017808046
-0.0062590481
-0.0010138351
0.0061884645
-0.0051746294
-0.0090377432
0.0071333669
-0.0024861646
0.0069177877
-0.0044316231
0.0017174026
0.0018742578
-0.0048254826
0.004406817
0.0004186656
0.0048260151
0.0062229767
-0.011048992
0.008717101
-0.0080578078
-0.00065929329
0.00052121818
-0.002757281
0.0048569728
-0.0020996918
0.0068408026
-0.0033509506
-0.003489852
0.00973802
-0.0087793393
-0.00095868074
0.0077325848
-0.0068904691
-0.0008421157
0.002718012
-0.0039716611
0.0012536491
-0.0023425254
0.0010023383
0.0013401871
0.0013967134
-0.0036582315
-0.011897938
0.0084266281
0.0034713097
0.0023111218
0.0050321235
0.0024189839
-0.0090883944
0.0066694106
-0.0045362186
0.0076038361
-0.0030676176
-0.0010145825
-0.006001768
0.0070163505
0.0029275593
-0.0022736929
-0.00065386639
0.00049262871
0.0082244723
0.0053333225
0.00011496457
-0.0054482871
-0.0076519187
0.0031092228
0.0045426959
0.00053164721
0.0036459808
-0.004177628
0.0031989164
0.002392109
0.004381535
0.0024628891
-0.0068444241
0.0045770521
-0.00174388
-0.002833172
-0.0046727301
-0.0053248153
0.0030681105
-0.0018289463
-0.00087777438
-0.0014905087
0.0023682831
-0.0029192904
0.0056550232
-0.0027357328
-0.0030327696
0.0078587847
-0.0057013427
0.007533712
-0.0018323694
-0.0059043672
-0.0017475515
-3.971323e-05
0.0077112603
0.0081315995
-0.0075586851
-0.00057291443
-0.0051081568
-0.0024529753
-0.011266422
0.007426935
0.0038394871
-0.011816783
0.0085830921
0.0032336912
0.0057419755
-0.0025919432
-0.0031500323
0.0014137326
-0.003701786
0.002162368
-0.0052003451
2.9210904e-05
0.0042333328
-0.0042625437
0.0031439385
-0.0041577736
-0.0016643524
0.0045662839
0.0019352
0.0043298285
0.0065289279
0.0032090921
0.0038547553
-0.0038255444
0.0029556312
0.0071172635
-0.010072895
0.0098547301
-0.0056456287
-0.0042091014
-0.0022128106
0.0048014975
-0.002588687
-6.051798e-05
0.0014974642
0.002056741
-0.0010762099
0.00099564635
0.0008929649
-0.0018886112
0.010895064
-0.011105849
0.00098662201
0.00036880821
-0.0013554302
0.0015640356
-0.00038393765
-0.0075153068
0.0080862823
-0.00057097547
-0.0021325719
0.0013572997
0.00077527217
0.0037608224
-0.0037094681
-5.1354358e-05
-0.0056078124
0.0051327945
0.00047501789
0.0019332513
-0.00095573675
-0.00048767907
0.0047599273
-0.0042722482
-0.00464855
0.0085019189
-0.0038533689
0.0034799144
0.0065092239
0.0077147055
-0.0033739471
0.0034347757
0.0023071998
-0.0035396689
0.0026800627
0.0063707699
-0.0073853524
-0.0031682758
0.0022905014
0.0055789371
0.0025526624
0.0052635427
-0.010818386
0.0055548431
0.0030393483
0.0016165639
-0.0014315832
-0.0031750704
0.0045245894
0.0077990984
-0.0077990984
-0.0022062443
-0.0013463449
0.0066796674
0.0010152638
-0.0037725449
-0.00039348813
0.006284708
-0.0058912199
-0.0040726958
0.0096207992
-0.0042530255
0.0094489323
0.0082879505
-0.0047995525
-0.0034883981
0.0043546379
0.003030494
-0.0052433046
0.0057801746