/*--------------------------------*- C++ -*----------------------------------*\
| =========                 |                                                 |
| \\      /  F ield         | foam-extend: Open Source CFD                    |
|  \\    /   O peration     | Version:     4.1                                |
|   \\  /    A nd           | Web:         http://www.foam-extend.org         |
|    \\/     M anipulation  |                                                 |
\*---------------------------------------------------------------------------*/
FoamFile
{
    version     2.0;
    format      ascii;
    class       volVectorField;
    location    "0.4";
    object      U;
}
// * * * * * * * * * * * * * * * * * * * * * * * * * * * * * * * * * * * * * //

dimensions      [0 1 -1 0 0 0 0];

internalField   nonuniform List<vector> 
4242
(
(1.0873627 1.1139334 1.0463486e-18)
(1.1882016 0.97759955 3.5702097e-21)
(1.154987 0.97370291 -6.6056504e-19)
(1.157083 0.94377737 5.4673712e-19)
(1.1500366 0.91913863 7.2429502e-21)
(1.1440014 0.8897914 3.2084453e-21)
(1.1372719 0.85704421 0)
(1.1298412 0.82077821 1.8717747e-19)
(1.1217274 0.78090935 -2.9825216e-19)
(1.1129991 0.73748855 1.1455811e-19)
(1.1038378 0.69073597 -7.2743469e-20)
(1.0945253 0.64108216 5.9446445e-20)
(1.0855031 0.58914276 5.8330191e-21)
(1.0777789 0.53541626 -7.6990239e-21)
(1.0730515 0.48057919 -1.4848085e-20)
(1.0704826 0.4285577 0)
(1.2567877 1.0336583 0)
(1.3743605 0.851302 -7.8559228e-21)
(1.3306387 0.8641809 7.7548115e-19)
(1.3278206 0.83669205 -6.3872181e-19)
(1.315622 0.81607346 -1.1457873e-20)
(1.3044694 0.79044546 3.7789936e-19)
(1.2921704 0.76224101 -1.7839774e-20)
(1.278958 0.73100225 -4.6052695e-19)
(1.2648521 0.69667765 3.5999512e-20)
(1.2499004 0.65932565 1.3549381e-19)
(1.2342235 0.6191326 0)
(1.2180118 0.57645619 -9.843924e-21)
(1.2015758 0.53182567 -9.9502848e-21)
(1.1856127 0.48568133 -5.3815603e-20)
(1.1712175 0.43839144 6.9425111e-20)
(1.1573386 0.39230009 8.6167143e-21)
(1.4281623 0.94688756 -2.1733156e-20)
(1.5697185 0.69957993 -2.452402e-18)
(1.5130855 0.74171944 9.9910582e-19)
(1.507133 0.71404883 -6.8901547e-21)
(1.4897309 0.69842993 -6.070032e-19)
(1.4730543 0.67724405 4.9330878e-19)
(1.454464 0.65419536 -6.7115107e-21)
(1.4343595 0.62839508 1.035464e-20)
(1.4127423 0.5998548 -4.5352497e-21)
(1.3897158 0.56860114 -1.1860018e-20)
(1.3654848 0.53477753 1.1865145e-19)
(1.3403568 0.49868182 -8.5434655e-20)
(1.3147532 0.46078707 -1.3031736e-19)
(1.2892532 0.42165487 1.0892312e-19)
(1.2644527 0.3820821 -1.3050382e-20)
(1.2407848 0.34297768 -3.4939357e-20)
(1.5818055 0.82583793 -3.9700836e-21)
(1.7423268 0.50079441 -3.1788938e-21)
(1.6746148 0.58051939 -6.0344687e-19)
(1.667519 0.54841164 5.084069e-19)
(1.6457264 0.5395783 -6.5346047e-21)
(1.6244891 0.52385569 3.0831573e-19)
(1.6005546 0.50731316 -2.3073734e-19)
(1.574433 0.48851243 -3.6292426e-19)
(1.5460685 0.46760017 2.1101521e-20)
(1.5155909 0.44455127 4.3703753e-19)
(1.4832661 0.41945268 -1.6478974e-19)
(1.4495162 0.39250809 0)
(1.4149226 0.36405194 9.1291606e-21)
(1.3801397 0.33459969 -6.6777863e-20)
(1.3454524 0.30531762 3.1867376e-20)
(1.3108722 0.27611405 -6.1347108e-20)
(1.6841659 0.66919485 3.9700837e-21)
(1.8564857 0.25820691 -8.5828298e-19)
(1.7816343 0.38304165 7.1215846e-19)
(1.7746996 0.34215012 -4.1138093e-21)
(1.7500754 0.34262652 1.0174529e-20)
(1.7262441 0.33288416 -2.8662138e-21)
(1.6991616 0.32395812 -2.8279655e-19)
(1.6694553 0.31345227 6.2309585e-21)
(1.6370051 0.30175429 1.6005576e-19)
(1.601938 0.28875973 -1.1898838e-19)
(1.56453 0.27448789 9.6047902e-20)
(1.5252411 0.25901681 0)
(1.4847198 0.24248394 5.1725864e-20)
(1.4437132 0.22508719 -3.6084762e-20)
(1.4026551 0.20730106 1.0715903e-20)
(1.3619808 0.18687119 0)
(1.7258365 0.48301016 -5.7318961e-19)
(1.897341 -0.0023959601 2.4210754e-19)
(1.8251517 0.16282362 3.7631622e-19)
(1.8174101 0.11388593 -3.0198717e-19)
(1.792261 0.12478699 6.5033633e-22)
(1.7677854 0.12121769 9.9946034e-20)
(1.7399284 0.12048936 7.7149784e-20)
(1.7093126 0.11892171 -3.2744795e-21)
(1.6757908 0.11720012 -2.9266929e-21)
(1.6394704 0.11512859 -9.8947255e-20)
(1.6006068 0.11266268 9.9452464e-20)
(1.5596429 0.10974624 -3.5846295e-21)
(1.5172159 0.10632967 -9.1839006e-21)
(1.4740867 0.10232773 -1.9596615e-20)
(1.4306851 0.098394231 -1.24692e-23)
(1.3879704 0.090313938 7.9160683e-21)
(1.7017923 0.28403982 -2.8784578e-19)
(1.862555 -0.25492235 -2.2638517e-19)
(1.8046704 -0.065547991 5.7216482e-19)
(1.7939639 -0.11445518 -3.0484145e-19)
(1.7709771 -0.095952413 1.2727729e-19)
(1.7475264 -0.092673221 1.1639974e-23)
(1.7211285 -0.085442236 1.5142821e-19)
(1.6920893 -0.07809502 -6.683941e-20)
(1.660317 -0.069940969 -8.3602956e-21)
(1.6258954 -0.061191332 3.0023142e-20)
(1.5890525 -0.051954989 -4.640962e-20)
(1.5501857 -0.042414757 3.5132464e-20)
(1.5098688 -0.032794526 -9.4202658e-21)
(1.4687881 -0.023505031 -3.7574785e-20)
(1.4273083 -0.013695826 1.3901679e-20)
(1.3862048 -0.0097428789 1.6679434e-20)
(1.6086405 0.090597281 -6.4639856e-21)
(1.7547155 -0.47793551 8.9405191e-19)
(1.7207597 -0.28495535 -7.3616891e-19)
(1.7069814 -0.32489263 5.7020542e-19)
(1.6880298 -0.3026097 -4.7655318e-19)
(1.6674319 -0.2921148 0)
(1.6446107 -0.27762607 2.8478833e-19)
(1.6195516 -0.26195967 -2.2584672e-19)
(1.5922293 -0.24466617 -4.7074218e-21)
(1.5627122 -0.22593245 0)
(1.5311893 -0.20594436 -1.7591867e-20)
(1.497982 -0.18501046 8.4002748e-21)
(1.463555 -0.16351568 -5.3923361e-20)
(1.4284438 -0.14219855 9.7595012e-20)
(1.3930243 -0.12011892 -6.533198e-20)
(1.3576788 -0.10375983 -1.6620006e-20)
(1.4452204 -0.076876727 4.2236121e-21)
(1.5794087 -0.64991945 -3.3460165e-21)
(1.5765932 -0.47678631 0)
(1.562898 -0.5004619 1.1928531e-20)
(1.5491277 -0.47769227 6.0430533e-21)
(1.5334465 -0.46053648 3.3429389e-19)
(1.5162921 -0.43994051 -2.8200415e-19)
(1.497581 -0.41728429 0)
(1.4773288 -0.39237676 1.2652047e-21)
(1.4555851 -0.36539071 -1.3431564e-20)
(1.4324692 -0.33658429 1.1431739e-20)
(1.408178 -0.30636291 6.3342854e-21)
(1.3830109 -0.27520534 1.2086975e-20)
(1.3572815 -0.24401423 7.0184039e-20)
(1.3313742 -0.2119835 -7.9310775e-20)
(1.3052494 -0.18475629 4.1362152e-20)
(1.2094466 -0.19377359 0)
(1.3411606 -0.74515182 1.3697334e-18)
(1.3752088 -0.61948084 -2.2229321e-18)
(1.3697819 -0.62421769 8.9627064e-19)
(1.3629163 -0.60294499 -6.0387708e-21)
(1.3545438 -0.58104383 -1.7223283e-20)
(1.3453068 -0.55612765 4.3441071e-19)
(1.335316 -0.5287269 -3.4867318e-19)
(1.3246518 -0.49878774 -2.2860693e-19)
(1.3133282 -0.46648689 2.0672473e-19)
(1.3013388 -0.43212886 0)
(1.2886715 -0.39615543 -1.1795757e-19)
(1.2753526 -0.35904295 6.5099986e-20)
(1.2613496 -0.32160738 0)
(1.2468366 -0.28312755 0)
(1.2314923 -0.24686515 0)
(0.91564395 -0.23998092 2.6642339e-18)
(1.0652212 -0.75882913 -1.078854e-18)
(1.1362676 -0.69478908 0)
(1.1514654 -0.6870545 -4.532465e-21)
(1.1564456 -0.66832657 -5.2168859e-19)
(1.1583847 -0.64472689 4.4739429e-19)
(1.1589442 -0.61777491 3.1674682e-19)
(1.158873 -0.58826926 -6.8863589e-21)
(1.1585914 -0.55635236 -2.1961394e-19)
(1.1582115 -0.52226067 1.0855422e-20)
(1.1576498 -0.48635422 0)
(1.1566914 -0.44908321 -1.6078308e-19)
(1.1550616 -0.41088475 2.9528541e-20)
(1.1523416 -0.37243798 9.2285415e-20)
(1.1482081 -0.33351181 0)
(1.1456074 -0.28925279 8.8411224e-21)
(0.29310234 0.05460591 9.2665822e-21)
(0.51151943 -0.42195685 1.5208138e-18)
(0.68644553 -0.52172637 -6.1694284e-19)
(0.7792237 -0.56219224 -4.7968585e-19)
(0.82890477 -0.57491091 3.9290348e-19)
(0.86244897 -0.57236712 -3.1337788e-19)
(0.8901808 -0.56092475 2.5891527e-19)
(0.915603 -0.54420046 1.8312719e-19)
(0.94001311 -0.52384077 -1.6273048e-19)
(0.96363391 -0.50057679 0)
(0.98602981 -0.47479057 0)
(1.006457 -0.44674635 0)
(1.0241905 -0.41663324 9.7673675e-21)
(1.0386628 -0.38481797 0)
(1.0492033 -0.35222889 5.0390182e-20)
(1.0601299 -0.31192377 -8.6310397e-20)
(0.69181638 -0.98638743 2.827649e-19)
(0.86418301 -0.95154909 2.3008397e-22)
(0.88109285 -0.9943498 -1.6161199e-19)
(0.88066992 -0.96792193 1.335971e-19)
(0.87999781 -0.94263174 1.5459011e-22)
(0.87954901 -0.91337611 3.0004342e-21)
(0.87953425 -0.8802152 0)
(0.88013762 -0.84290229 2.7451072e-20)
(0.88149769 -0.80125479 -3.2974499e-20)
(0.88378571 -0.75533057 1.3124531e-20)
(0.88714146 -0.70543659 -2.1310208e-21)
(0.89164215 -0.65213327 1.7405766e-21)
(0.89742613 -0.59614802 -6.6392424e-21)
(0.90485526 -0.53820711 2.8758358e-21)
(0.91350371 -0.47966408 3.0068028e-21)
(0.91976197 -0.42527329 0)
(0.54779362 -0.94476177 0)
(0.62376786 -0.88455759 7.4349555e-22)
(0.61831555 -0.87311782 -9.5261235e-20)
(0.62518939 -0.8532088 7.8349904e-20)
(0.63308352 -0.83133787 1.0407987e-21)
(0.64278717 -0.80656932 -7.0011152e-20)
(0.65434587 -0.7785991 -5.0765468e-21)
(0.66782803 -0.7471852 1.0581815e-19)
(0.68327361 -0.71217246 -2.5096451e-21)
(0.70066911 -0.67352024 -3.8722581e-20)
(0.71991779 -0.63134251 0)
(0.7408269 -0.58593942 5.1407862e-21)
(0.76317686 -0.53776723 2.9525794e-21)
(0.78681873 -0.48734215 3.2792992e-20)
(0.81130053 -0.43538317 -4.1078554e-20)
(0.8345686 -0.38385422 -6.8035919e-21)
(0.36014519 -0.81380341 -3.2822074e-21)
(0.40963651 -0.7757065 7.9663889e-19)
(0.41349771 -0.76044359 -3.305905e-19)
(0.42406899 -0.74200404 2.7740692e-21)
(0.43687768 -0.7217681 2.3153578e-19)
(0.452154 -0.69919119 -1.8699882e-19)
(0.47004407 -0.67393376 3.0948803e-21)
(0.49068639 -0.6457484 -5.0453224e-21)
(0.51417602 -0.61448155 7.1393973e-22)
(0.5405256 -0.58009734 6.5358579e-21)
(0.56962414 -0.54271 -6.8378682e-20)
(0.60123294 -0.50260149 4.9727984e-20)
(0.63508959 -0.4601918 8.8310781e-20)
(0.67101496 -0.41600901 -7.4407484e-20)
(0.70838306 -0.37091525 9.2773238e-21)
(0.74443963 -0.32674196 3.0093148e-20)
(0.20156015 -0.63235859 1.6950864e-21)
(0.22969984 -0.60644737 1.397979e-21)
(0.23945345 -0.59075236 2.6405366e-19)
(0.25340748 -0.57467514 -2.2172703e-19)
(0.27051757 -0.55757012 3.1011066e-21)
(0.29085679 -0.5389368 -1.4966943e-19)
(0.31459587 -0.51845714 1.1206098e-19)
(0.34189459 -0.49592191 1.9349874e-19)
(0.3728456 -0.47121086 -3.5032081e-21)
(0.40741788 -0.44429893 -2.5268717e-19)
(0.44540524 -0.41527119 9.8161009e-20)
(0.486436 -0.38432422 0)
(0.53010114 -0.35173914 -6.1903937e-21)
(0.57599057 -0.31789317 5.0309387e-20)
(0.62292424 -0.28347771 -2.3960166e-20)
(0.66730706 -0.24975959 5.2590572e-20)
(0.091231373 -0.42589498 -1.7049143e-21)
(0.10484359 -0.3999692 3.9659371e-19)
(0.11787801 -0.3827195 -3.2738235e-19)
(0.13448903 -0.36789121 1.9013865e-21)
(0.15477427 -0.35370974 -4.8643726e-21)
(0.17885051 -0.33940227 1.4234086e-21)
(0.2069232 -0.32456277 1.5047717e-19)
(0.23919026 -0.30895963 1.5764728e-21)
(0.27577207 -0.29246364 -8.8680287e-20)
(0.3166451 -0.27501971 7.2513826e-20)
(0.36159379 -0.25663474 -5.8458442e-20)
(0.41024739 -0.23735981 0)
(0.46222984 -0.21724909 -3.6684915e-20)
(0.51706015 -0.19634048 2.5704874e-20)
(0.57280956 -0.17486567 -8.3724971e-21)
(0.62377864 -0.15384096 0)
(1.4288074 -0.94704599 0)
(1.5702925 -0.69986425 1.2163571e-18)
(1.5138394 -0.74194564 -1.9726245e-18)
(1.5079681 -0.71437525 8.0804343e-19)
(1.4907438 -0.6988077 5.4735066e-21)
(1.4742336 -0.67770187 1.7485098e-21)
(1.4557863 -0.65471599 3.6554825e-19)
(1.4357535 -0.62895122 -3.0402662e-19)
(1.4140863 -0.60039609 -2.1187358e-19)
(1.3908401 -0.56905812 1.543079e-19)
(1.3661975 -0.53506841 0)
(1.3405027 -0.49873774 -7.2935864e-20)
(1.3143055 -0.46059965 5.4495739e-20)
(1.2884265 -0.42128588 0)
(1.2637926 -0.38148692 0)
(1.240845 -0.34208965 0)
(0.035333785 -0.25451776 2.5391004e-19)
(0.044404419 -0.21734993 -1.0445019e-19)
(0.061946557 -0.19493452 -1.7101513e-19)
(0.083001067 -0.17819608 1.4003387e-19)
(0.10730971 -0.16428462 1.4249882e-21)
(0.13499739 -0.15197829 -4.8131711e-20)
(0.16624961 -0.14065771 -3.975147e-20)
(0.20122941 -0.12995943 4.6987887e-22)
(0.24003028 -0.11963932 5.1456126e-22)
(0.2826328 -0.10951777 5.7052966e-20)
(0.32886413 -0.099450508 -5.9705078e-20)
(0.37837797 -0.089314861 1.0216234e-21)
(0.43066491 -0.078990537 5.2507157e-21)
(0.48503031 -0.068313541 1.3447097e-20)
(0.540385 -0.057079682 9.2607777e-24)
(0.59478211 -0.045480964 -6.5258879e-21)
(0.035839379 0.255105 1.261525e-19)
(0.044955523 0.21762048 1.041565e-19)
(0.062698279 0.19533023 -2.5692021e-19)
(0.083985684 0.17875374 1.4017998e-19)
(0.10853884 0.16498593 -5.915319e-20)
(0.13647414 0.15279369 -5.6816808e-24)
(0.1679673 0.14155341 -7.7234846e-20)
(0.20316818 0.1308985 3.2899047e-20)
(0.24215335 0.12058261 3.4780473e-21)
(0.28488399 0.11042635 -1.8312977e-20)
(0.33116978 0.10029083 2.6720039e-20)
(0.38065519 0.09006626 -2.2476459e-20)
(0.43282605 0.079653781 5.24727e-21)
(0.48694693 0.068925916 2.6014331e-20)
(0.54176969 0.057769276 -9.9032087e-21)
(0.59508595 0.046602138 -1.3220477e-20)
(0.091870795 0.42889709 2.6682827e-21)
(0.10553089 0.40312294 -3.994623e-19)
(0.1187024 0.38594327 3.2742238e-19)
(0.13543265 0.37107192 -2.660759e-19)
(0.15582401 0.35675259 2.2167702e-19)
(0.17999097 0.34222796 0)
(0.20813415 0.32710231 -1.4582167e-19)
(0.24044416 0.31115128 1.1555651e-19)
(0.27703087 0.29425118 2.3677377e-21)
(0.31785632 0.27635086 0)
(0.36268891 0.25745903 1.0263539e-20)
(0.41114779 0.23762467 -5.0990814e-21)
(0.46284827 0.21688799 3.5872527e-20)
(0.51724168 0.19523276 -6.7733501e-20)
(0.57219547 0.17275536 4.5978099e-20)
(0.62194235 0.15035819 1.2666967e-20)
(0.20231554 0.6359157 -1.6925087e-21)
(0.23067416 0.61002237 1.3959134e-21)
(0.24040099 0.59433095 0)
(0.25426042 0.5781527 -4.6635583e-21)
(0.27122503 0.56085797 -2.291475e-21)
(0.29136702 0.54195962 -1.4918422e-19)
(0.31485376 0.52114797 1.261042e-19)
(0.34183936 0.49822023 0)
(0.37240837 0.47306242 -1.2306584e-21)
(0.40651509 0.44565766 6.5323629e-21)
(0.44392943 0.41610342 -6.5893368e-21)
(0.48427657 0.38460582 -2.9716873e-21)
(0.52726127 0.35141289 -7.7101116e-21)
(0.57272444 0.31675866 -4.6531373e-20)
(0.61928876 0.28118526 5.3478544e-20)
(0.6614172 0.24659164 -2.921208e-20)
(0.36055198 0.81630604 0)
(0.41051117 0.77802638 -3.9956108e-19)
(0.41419968 0.76276471 6.608253e-19)
(0.42457141 0.74421237 -2.7085643e-19)
(0.43711039 0.72378772 2.2810769e-21)
(0.45204579 0.70095435 5.771854e-21)
(0.4695224 0.67537776 -1.6181229e-19)
(0.48967867 0.64681576 1.2948546e-19)
(0.51261412 0.6151229 9.7399187e-20)
(0.53834787 0.58028056 -8.8636087e-20)
(0.56677284 0.54243874 0)
(0.59769524 0.50192311 6.134287e-20)
(0.63111405 0.45913571 -3.4464332e-20)
(0.66744033 0.41450328 0)
(0.70598235 0.36927695 0)
(0.74048001 0.32757863 0)
(0.54768659 0.94596427 -2.1782146e-19)
(0.62427549 0.88542534 9.3417402e-20)
(0.61857919 0.8740109 0)
(0.62527622 0.85396262 -1.776892e-22)
(0.6329199 0.83189422 7.7376329e-20)
(0.64231531 0.80687063 -6.5307869e-20)
(0.65351718 0.77859509 -6.1780372e-20)
(0.66661083 0.74683628 -4.4778842e-21)
(0.68166769 0.71145636 4.925342e-20)
(0.69872522 0.67244505 -3.9290422e-21)
(0.71776275 0.62996716 0)
(0.73872154 0.58438429 5.666689e-20)
(0.76164604 0.5361951 -7.8070051e-21)
(0.78670629 0.4860358 -3.6085525e-20)
(0.81333646 0.43517917 0)
(0.8393737 0.38581644 -3.204553e-21)
(0.69057125 0.98616522 1.0574698e-20)
(0.86413 0.95132316 4.3902835e-19)
(0.8809837 0.99454513 -1.7479855e-19)
(0.88042328 0.96793684 -1.2101728e-19)
(0.87957092 0.94249716 9.9984252e-20)
(0.87890385 0.91304942 -6.2942976e-20)
(0.87864733 0.87967018 4.7229277e-20)
(0.8790102 0.84213345 2.773258e-20)
(0.88017009 0.80028539 -2.7234511e-20)
(0.88235493 0.75422452 0)
(0.88577989 0.70431644 0)
(0.89061638 0.65119209 0)
(0.89711247 0.5956452 3.2952432e-21)
(0.90567928 0.53847248 0)
(0.91566151 0.48103542 -8.6466153e-21)
(0.92245952 0.42753437 1.9064186e-20)
(0.29244291 -0.055084923 9.59478e-19)
(0.51118801 0.42147029 3.5551251e-21)
(0.68625945 0.52154133 -6.0294579e-19)
(0.77919198 0.56215205 4.9770029e-19)
(0.82899249 0.57498422 7.3473901e-21)
(0.86262846 0.57253325 2.567519e-21)
(0.89042963 0.56116669 0)
(0.91589022 0.54449222 1.9037438e-19)
(0.94028681 0.5241388 -3.1016281e-19)
(0.96381294 0.5008152 1.2169607e-19)
(0.98600275 0.4748837 -8.7088442e-20)
(1.0060917 0.44660379 7.1192783e-20)
(1.0233641 0.41617382 5.0725918e-21)
(1.0372367 0.3841125 -1.0819287e-20)
(1.0474957 0.35063094 -2.6290741e-20)
(1.0602677 0.30550556 0)
(0.91524966 0.23965906 0)
(1.0650637 0.75839666 -8.2941365e-21)
(1.1362691 0.69472523 8.3707378e-19)
(1.1515975 0.68700393 -6.8781824e-19)
(1.1566666 0.66833875 -1.2068889e-20)
(1.1586919 0.64479151 4.1665102e-19)
(1.1593308 0.61788301 -1.5590566e-20)
(1.1593123 0.58839799 -5.1807495e-19)
(1.1590267 0.55645993 3.7078011e-20)
(1.1585527 0.52228377 1.5663747e-19)
(1.1577812 0.48621234 0)
(1.1564992 0.44869011 -1.1967386e-20)
(1.1544922 0.41014602 -1.3117746e-20)
(1.1514259 0.37131757 -7.3024399e-20)
(1.1473584 0.33134604 9.5238533e-20)
(1.1424178 0.29121703 1.1767277e-20)
(1.2094432 0.19367679 -2.5538642e-20)
(1.3412828 0.74496166 -2.7635929e-18)
(1.3754698 0.61957454 1.1252193e-18)
(1.3701361 0.62425407 -7.593827e-21)
(1.3633574 0.6030409 -6.903522e-19)
(1.3550851 0.58117431 5.6110796e-19)
(1.3459408 0.55628884 -7.4652869e-21)
(1.3360068 0.5288966 1.1570346e-20)
(1.325327 0.49892918 -5.4699006e-21)
(1.3138799 0.46654925 -1.3414742e-20)
(1.3016389 0.43205628 1.4108673e-19)
(1.2886103 0.39590288 -1.0134471e-19)
(1.2749022 0.3585885 -1.5923099e-19)
(1.2605851 0.32105892 1.3301287e-19)
(1.2460735 0.28221159 -1.7232297e-20)
(1.2301495 0.24870576 -4.6885796e-20)
(1.4455278 0.076886778 -4.225665e-21)
(1.5797715 0.64988146 -3.3475905e-21)
(1.5770767 0.47694884 -6.5057234e-19)
(1.563447 0.50055514 5.4779175e-19)
(1.549774 0.47784572 -6.9063816e-21)
(1.5342018 0.46071193 3.3440567e-19)
(1.5171423 0.44014026 -2.500661e-19)
(1.4984768 0.41748774 -3.9649995e-19)
(1.4781807 0.39255508 2.1194565e-20)
(1.456267 0.36550623 4.8074282e-19)
(1.4328411 0.33659953 -1.8165639e-19)
(1.4081345 0.306252 0)
(1.3825489 0.27496649 1.0630954e-20)
(1.3565284 0.24373959 -7.6764803e-20)
(1.3306361 0.21130693 3.6760289e-20)
(1.3045261 0.18564802 -7.2033712e-20)
(1.6091543 -0.090568881 4.2099024e-21)
(1.7552397 0.47794792 -8.8781574e-19)
(1.7213985 0.28510516 7.3653833e-19)
(1.7076775 0.32498647 -4.3391701e-21)
(1.6888392 0.30275738 1.0622568e-20)
(1.6683569 0.2922753 -2.9313985e-21)
(1.6456298 0.27780721 -2.940822e-19)
(1.6206028 0.26214522 5.8740267e-21)
(1.5932069 0.24483888 1.6649612e-19)
(1.5634739 0.22607082 -1.2465589e-19)
(1.5315845 0.20603014 1.0063666e-19)
(1.497908 0.18503654 0)
(1.4630288 0.16350322 5.4788015e-20)
(1.4276334 0.14222106 -3.8338457e-20)
(1.3922109 0.11985957 1.1878215e-20)
(1.3570791 0.10505123 0)
(1.7024229 -0.28403602 -5.8052874e-19)
(1.8631697 0.25491804 2.4463309e-19)
(1.8054042 0.065640545 3.8015114e-19)
(1.794758 0.11450211 -3.050123e-19)
(1.7719011 0.096039552 5.5407817e-22)
(1.7485731 0.092762062 1.0098143e-19)
(1.722271 0.085544898 7.8050192e-20)
(1.6932548 0.078202304 -3.268258e-21)
(1.6613873 0.070049078 -2.9218724e-21)
(1.6267155 0.061295698 -1.0022714e-19)
(1.5894635 0.052054519 1.0084044e-19)
(1.550087 0.042515371 -3.5826104e-21)
(1.5092941 0.032919166 -9.4210021e-21)
(1.4679319 0.023654934 -1.995835e-20)
(1.4264346 0.013611714 -1.2445157e-23)
(1.3856466 0.011010909 8.1111275e-21)
(1.7265234 -0.48304566 -2.8458358e-19)
(1.8979966 0.0023407898 -2.2433527e-19)
(1.8259374 -0.1628071 5.6712132e-19)
(1.8182639 -0.11391514 -3.0218087e-19)
(1.7932597 -0.12479495 1.2614431e-19)
(1.7689156 -0.12123894 1.1677161e-23)
(1.7411598 -0.12050875 1.498935e-19)
(1.7105653 -0.11893909 -6.6193471e-20)
(1.6769386 -0.11720499 -8.2327553e-21)
(1.64035 -0.11510779 2.960942e-20)
(1.6010536 -0.11259987 -4.5939702e-20)
(1.5595572 -0.10962339 3.4594979e-20)
(1.5166411 -0.10613559 -9.1862864e-21)
(1.4732307 -0.10212776 -3.6898518e-20)
(1.4298368 -0.098297412 1.3636273e-20)
(1.3875346 -0.089117831 1.608671e-20)
(1.6848694 -0.66927172 -6.1699759e-21)
(1.8571487 -0.25832549 8.6528632e-19)
(1.7824398 -0.3831055 -7.1269059e-19)
(1.7755828 -0.34226866 5.5131035e-19)
(1.7511155 -0.34274725 -4.6088712e-19)
(1.7274256 -0.3330362 0)
(1.7004523 -0.32412523 2.7401657e-19)
(1.6707724 -0.31362364 -2.1745167e-19)
(1.6382189 -0.30190562 -4.221201e-21)
(1.6028812 -0.28886007 0)
(1.5650344 -0.2745027 -1.6615867e-20)
(1.5252048 -0.25891747 7.7723188e-21)
(1.4841852 -0.24227863 -5.0399101e-20)
(1.4428931 -0.22487094 9.1874987e-20)
(1.4019036 -0.20703668 -6.0821616e-20)
(1.3616566 -0.18597598 -1.536276e-20)
(1.5824979 -0.82595829 3.973279e-21)
(1.7429682 -0.50099113 -3.1814874e-21)
(1.6754157 -0.58066268 0)
(1.6684015 -0.54863229 -2.7883952e-21)
(1.6467766 -0.53982427 -5.4787949e-21)
(1.6256918 -0.5241556 2.9133919e-19)
(1.6018797 -0.50764905 -2.4706152e-19)
(1.5758002 -0.48886393 0)
(1.5473495 -0.46792924 1.7425072e-20)
(1.5166162 -0.444808 1.1891024e-20)
(1.4838594 -0.41958118 1.0631367e-20)
(1.4495595 -0.3924656 -2.0554577e-20)
(1.4144377 -0.36385251 1.1104777e-20)
(1.3793466 -0.33433503 6.1880974e-20)
(1.3447916 -0.30492819 -6.8843527e-20)
(1.3107289 -0.27531892 3.6091682e-20)
(1.2572982 -1.0338125 2.4540154e-18)
(1.3747671 -0.85164268 -1.0056442e-18)
(1.3312479 -0.86445529 0)
(1.3285076 -0.83708459 -4.5066957e-21)
(1.3164976 -0.81653972 -4.7784418e-19)
(1.3055314 -0.7910168 4.1047811e-19)
(1.2934081 -0.76290673 2.8342967e-19)
(1.2803164 -0.73173649 -9.3972337e-21)
(1.2662243 -0.69742708 -1.9358646e-19)
(1.2511209 -0.66001091 9.2821532e-21)
(1.2350788 -0.61965136 0)
(1.2182869 -0.57670414 -1.2779359e-19)
(1.2011592 -0.53173393 2.7053221e-20)
(1.1846775 -0.48522199 7.0590508e-20)
(1.1703644 -0.43746592 0)
(1.1570873 -0.39093043 5.5126583e-21)
(1.0877113 -1.1138629 1.0813553e-20)
(1.1883191 -0.97785556 1.6799894e-18)
(1.1553521 -0.97386023 -6.8402323e-19)
(1.1575218 -0.94406801 -5.1978236e-19)
(1.1506797 -0.91952171 4.264977e-19)
(1.14486 -0.89030335 -3.2701765e-19)
(1.1383516 -0.85768824 2.6924745e-19)
(1.1311087 -0.82154259 1.8042896e-19)
(1.1230987 -0.78175288 -1.5970087e-19)
(1.1143225 -0.73833973 0)
(1.1048886 -0.69148639 0)
(1.09503 -0.64159412 0)
(1.0852372 -0.58928085 5.406878e-21)
(1.076771 -0.53511978 0)
(1.0717845 -0.4799594 2.9504386e-20)
(1.0698086 -0.42747058 -4.7343837e-20)
(-0.18526707 0.36801612 7.1221415e-20)
(0.15078776 -0.10801329 5.0831068e-22)
(0.33927774 -0.25597381 -3.6736609e-20)
(0.47705999 -0.32764308 3.0049719e-20)
(0.58522988 -0.36252411 1.0924711e-21)
(0.67198014 -0.37761542 2.282032e-21)
(0.74213271 -0.38330944 0)
(0.79892252 -0.38522967 3.6646556e-20)
(0.84431231 -0.38601701 -6.4984293e-20)
(0.8794352 -0.38643997 3.0470748e-20)
(0.90536532 -0.38594622 -3.2479572e-20)
(0.92358781 -0.38312262 2.6617467e-20)
(0.936091 -0.3762654 -2.7010929e-21)
(0.94529847 -0.36391494 -4.245199e-21)
(0.95268596 -0.34620864 -1.5365469e-20)
(0.96356433 -0.32105096 0)
(-0.19084825 0.47379794 0)
(-0.23699913 0.4027825 -1.6024333e-21)
(-0.13936652 0.30704004 1.6785783e-19)
(0.003768046 0.1842827 -1.3711283e-19)
(0.16658073 0.043866883 -2.2781871e-21)
(0.3416304 -0.10186967 9.5788183e-20)
(0.48942871 -0.21173652 2.2862408e-21)
(0.61047663 -0.29464966 -1.3228445e-19)
(0.70395334 -0.3560349 6.5031232e-21)
(0.77138636 -0.39820755 4.4661625e-20)
(0.81641508 -0.42228638 0)
(0.84363502 -0.42965443 -3.3380745e-21)
(0.85822392 -0.42247886 -4.9495283e-21)
(0.86575345 -0.40346653 -2.0387928e-20)
(0.87084246 -0.37583642 2.7426001e-20)
(0.87980301 -0.34060036 1.693356e-21)
(-0.21387283 0.61593976 -3.1031379e-21)
(-0.25616468 0.54703996 -7.0249304e-19)
(-0.22095654 0.50658675 2.8828823e-19)
(-0.17797494 0.46070531 -1.6516096e-21)
(-0.12720809 0.40469218 -1.9509739e-19)
(-0.048320201 0.30862965 1.5867949e-19)
(0.11574036 0.11303753 -1.8803516e-21)
(0.27387771 -0.096230715 3.0380068e-21)
(0.39823232 -0.26628051 -2.0586457e-21)
(0.49662731 -0.37878867 -3.382598e-21)
(0.57223255 -0.44151453 3.8813954e-20)
(0.62777407 -0.46584426 -2.7766912e-20)
(0.66793395 -0.46152663 -3.0263396e-20)
(0.69788957 -0.43699651 2.4176305e-20)
(0.72170859 -0.39977982 -3.2201031e-21)
(0.74941986 -0.35218845 -4.0755497e-21)
(-0.17720871 0.63080741 -4.6514546e-22)
(-0.20067667 0.56893631 -3.8169339e-22)
(-0.18678971 0.51836449 -1.1440351e-19)
(-0.17248901 0.45568611 9.6548651e-20)
(-0.15383301 0.37701044 -8.6368462e-22)
(-0.12635404 0.28127307 6.6937159e-20)
(-0.087101899 0.16238649 -5.010013e-20)
(0.0673345 -0.067346056 -8.71671e-20)
(0.14455766 -0.21036968 4.1391276e-21)
(0.21943994 -0.31635587 9.8607964e-20)
(0.29255494 -0.38419931 -3.5259195e-20)
(0.35988775 -0.41682117 0)
(0.42150701 -0.42004257 1.5800789e-21)
(0.47817663 -0.4013898 -1.7174732e-21)
(0.52983067 -0.36824779 1.364753e-21)
(0.58473376 -0.32407513 7.6595268e-21)
(-0.10010387 0.50620139 4.6603679e-22)
(-0.10715341 0.45035602 -5.5434744e-20)
(-0.11145309 0.4040327 4.5991949e-20)
(-0.11677708 0.35363034 -5.1757776e-22)
(-0.12210743 0.29483501 9.5996379e-22)
(-0.12658552 0.22430365 -9.0197369e-23)
(-0.12800223 0.13992559 -2.4795873e-20)
(-0.11579017 0.045926369 -2.4511681e-22)
(-0.069702037 -0.067028993 1.3592218e-20)
(-0.01501013 -0.16749874 -8.1006647e-21)
(0.055406012 -0.24637345 6.5313231e-21)
(0.12306422 -0.28344048 0)
(0.19542179 -0.29466599 -3.1518671e-21)
(0.26967664 -0.28621311 2.1088174e-21)
(0.34219508 -0.26465581 -1.1326598e-21)
(0.42029873 -0.23455058 0)
(-0.051995395 0.30693667 1.038332e-20)
(-0.05834414 0.22348583 -4.4819037e-21)
(-0.076711994 0.17207068 -6.3657146e-21)
(-0.097220931 0.13116705 4.7236271e-21)
(-0.11812977 0.094978902 -3.6126369e-22)
(-0.13782869 0.060826069 -1.1938317e-21)
(-0.15407639 0.026916747 -6.6018813e-22)
(-0.16354744 -0.0082811816 -7.7628869e-23)
(-0.161409 -0.045577498 -2.5428496e-22)
(-0.1425335 -0.086070016 2.928719e-21)
(-0.10735618 -0.12360432 -4.595529e-21)
(-0.05798309 -0.15217425 -1.0133336e-21)
(0.0137976 -0.16545379 -4.7352421e-22)
(0.091967643 -0.16022129 2.8134206e-21)
(0.18226247 -0.14763193 3.0911184e-24)
(0.28941906 -0.1316311 -2.7729588e-21)
(-0.051799496 -0.30751644 5.098874e-21)
(-0.058131583 -0.22382011 3.7061154e-21)
(-0.076420296 -0.17193342 -9.4093822e-21)
(-0.096830596 -0.13048546 4.576983e-21)
(-0.11763423 -0.093704956 -1.6619118e-21)
(-0.13722335 -0.058914489 -1.3941925e-25)
(-0.15335786 -0.024316594 -1.4032023e-21)
(-0.16268647 0.011623337 4.3040405e-22)
(-0.16023831 0.049703538 -4.4060532e-22)
(-0.14126488 0.090886676 -1.5167105e-21)
(-0.10605667 0.1288073 1.799095e-21)
(-0.05671902 0.1575406 -3.2536076e-21)
(0.014854274 0.17082409 -4.7856989e-22)
(0.092666356 0.16563827 6.42777e-21)
(0.18182258 0.15327519 -2.8361769e-21)
(0.28880789 0.13772348 -5.1458413e-21)
(-0.099770769 -0.50598465 -5.1325139e-22)
(-0.1068712 -0.44978375 5.658132e-20)
(-0.11106082 -0.40313231 -4.630802e-20)
(-0.11625959 -0.35236581 3.892381e-20)
(-0.12144326 -0.29312707 -3.2542643e-20)
(-0.12573409 -0.22202399 0)
(-0.12681069 -0.13694082 2.4580501e-20)
(-0.11410039 -0.04222814 -1.9174502e-20)
(-0.06787548 0.071172305 -1.3133887e-21)
(-0.013418554 0.17141685 0)
(0.056570713 0.24988758 -1.324546e-21)
(0.12372819 0.28670385 6.4509823e-22)
(0.1955514 0.29786171 1.8634587e-21)
(0.26926655 0.28947633 -9.6561368e-21)
(0.3407578 0.26835864 7.2980705e-21)
(0.42655981 0.2369268 3.7108619e-21)
(-0.17680671 -0.63020704 4.6615504e-22)
(-0.20034341 -0.56796557 -3.8250936e-22)
(-0.18631431 -0.51700484 0)
(-0.17187402 -0.45380394 2.1807391e-21)
(-0.15306054 -0.37445571 1.3728965e-21)
(-0.12528104 -0.27796257 6.6935126e-20)
(-0.085162487 -0.15809935 -5.6358383e-20)
(0.06901062 0.071558272 0)
(0.14534139 0.2140156 -8.9576379e-22)
(0.21980647 0.31951593 -3.4450081e-21)
(0.29235766 0.38694707 1.2891802e-21)
(0.35905151 0.41925226 2.2234063e-21)
(0.41995313 0.42227044 3.2120246e-22)
(0.47582251 0.40349499 -1.5385205e-22)
(0.52593883 0.37059019 1.6342255e-21)
(0.58509961 0.32438319 -3.6147002e-21)
(-0.213611 -0.61558628 0)
(-0.2559827 -0.54637121 3.5082051e-19)
(-0.22059017 -0.50562461 -5.750442e-19)
(-0.17747457 -0.45934693 2.342832e-19)
(-0.12664744 -0.40279082 -1.3630854e-21)
(-0.046819012 -0.30505655 -4.3015106e-21)
(0.11771879 -0.10854803 1.3756255e-19)
(0.27491431 0.10026736 -1.1015316e-19)
(0.39852615 0.2694713 -7.3583686e-20)
(0.49629003 0.38122742 6.4923562e-20)
(0.57128261 0.44339195 0)
(0.62622575 0.46727929 -2.7170466e-20)
(0.66574934 0.46256731 1.5032493e-20)
(0.69499754 0.43758861 0)
(0.71747951 0.40008261 0)
(0.74868686 0.3493608 0)
(-0.19072965 -0.47362217 5.2259107e-19)
(-0.23688307 -0.40240731 -2.1426826e-19)
(-0.13915603 -0.30654474 0)
(0.0041853097 -0.18344286 -6.5298959e-22)
(0.16726071 -0.042561254 -1.1427399e-19)
(0.34212084 0.10317982 9.7113738e-20)
(0.48963972 0.21311357 7.8820049e-20)
(0.61035784 0.29609951 3.2231205e-21)
(0.70350785 0.3574773 -5.8968316e-20)
(0.77064656 0.39953997 3.2696098e-21)
(0.81540221 0.42340656 0)
(0.8423459 0.43046075 -4.950998e-20)
(0.85663619 0.42285602 8.9593656e-21)
(0.8638825 0.40323553 2.7860786e-20)
(0.86807606 0.37528432 0)
(0.87854151 0.3376754 3.502418e-21)
(-0.18676588 -0.36932769 4.1303166e-21)
(0.15001258 0.10724767 1.072892e-19)
(0.33885917 0.25564996 -4.1092564e-20)
(0.47682285 0.32759362 -3.0677174e-20)
(0.58509326 0.36270124 2.4613935e-20)
(0.67189725 0.3779945 -3.3429077e-20)
(0.74206898 0.38386074 2.47621e-20)
(0.798843 0.38590911 3.5148563e-20)
(0.84417751 0.38676375 -3.540128e-20)
(0.87919766 0.38717384 0)
(0.90496184 0.38656772 0)
(0.92293429 0.38352295 0)
(0.93511296 0.37633207 8.2579828e-21)
(0.94396354 0.36357074 0)
(0.95068251 0.34589674 2.6963436e-20)
(0.96698997 0.31608874 -4.6334588e-20)
(0.85749278 0.96143891 0)
(0.88234238 1.0014894 0)
(0.890428 0.97178008 0)
(0.8929851 0.94790499 6.4662105e-21)
(0.89640359 0.91986269 -4.0614764e-20)
(0.90049058 0.88769526 4.236541e-20)
(0.90537847 0.85137621 0)
(0.91111678 0.81064384 -5.9281459e-21)
(0.91772964 0.76546644 0)
(0.92519969 0.71613598 0)
(0.93344564 0.66324663 0)
(0.94242886 0.6076376 7.4108152e-21)
(0.9524489 0.55012924 0)
(0.96366346 0.49207619 1.1635257e-20)
(0.97408572 0.43905036 0)
(0.85762413 -0.96161458 0)
(0.88247795 -1.001284 0)
(0.8906711 -0.97177687 0)
(0.89341529 -0.94804502 6.469502e-21)
(0.8970502 -0.92019388 -3.8015886e-20)
(0.90137867 -0.88824 4.6869316e-20)
(0.9065023 -0.85214154 0)
(0.91242855 -0.81159698 5.9288122e-21)
(0.91911811 -0.76653383 0)
(0.92646982 -0.71718294 0)