# Probe 0 (0.012 0 0)
# Probe 1 (0.05 0 0)
#         Probe               0               1
#          Time
         0.0005         -1e+300         -1e+300
          0.001         -1e+300         -1e+300
         0.0015         -1e+300         -1e+300
          0.002         -1e+300         -1e+300
         0.0025         -1e+300         -1e+300
          0.003         -1e+300         -1e+300
         0.0035         -1e+300         -1e+300
          0.004         -1e+300         -1e+300
         0.0045         -1e+300         -1e+300
          0.005         -1e+300         -1e+300
         0.0055         -1e+300         -1e+300
          0.006         -1e+300         -1e+300
         0.0065         -1e+300         -1e+300
          0.007         -1e+300         -1e+300
         0.0075         -1e+300         -1e+300
          0.008         -1e+300         -1e+300
         0.0085         -1e+300         -1e+300
          0.009         -1e+300         -1e+300
         0.0095         -1e+300         -1e+300
           0.01         -1e+300         -1e+300
         0.0105         -1e+300         -1e+300
          0.011         -1e+300         -1e+300
         0.0115         -1e+300         -1e+300
          0.012         -1e+300         -1e+300
         0.0125         -1e+300         -1e+300
          0.013         -1e+300         -1e+300
         0.0135         -1e+300         -1e+300
          0.014         -1e+300         -1e+300
         0.0145         -1e+300         -1e+300
          0.015         -1e+300         -1e+300
         0.0155         -1e+300         -1e+300
          0.016         -1e+300         -1e+300
         0.0165         -1e+300         -1e+300
          0.017         -1e+300         -1e+300
         0.0175         -1e+300         -1e+300
          0.018         -1e+300         -1e+300
         0.0185         -1e+300         -1e+300
          0.019         -1e+300         -1e+300
         0.0195         -1e+300         -1e+300
           0.02         -1e+300         -1e+300
         0.0205         -1e+300         -1e+300
          0.021         -1e+300         -1e+300
         0.0215         -1e+300         -1e+300
          0.022         -1e+300         -1e+300
         0.0225         -1e+300         -1e+300
          0.023         -1e+300         -1e+300
         0.0235         -1e+300         -1e+300
          0.024         -1e+300         -1e+300
         0.0245         -1e+300         -1e+300
          0.025         -1e+300         -1e+300
         0.0255         -1e+300         -1e+300
          0.026         -1e+300         -1e+300
         0.0265         -1e+300         -1e+300
          0.027         -1e+300         -1e+300
         0.0275         -1e+300         -1e+300
          0.028         -1e+300         -1e+300
         0.0285         -1e+300         -1e+300
          0.029         -1e+300         -1e+300
         0.0295         -1e+300         -1e+300
           0.03         -1e+300         -1e+300
         0.0305         -1e+300         -1e+300
          0.031         -1e+300         -1e+300
         0.0315         -1e+300         -1e+300
          0.032         -1e+300         -1e+300
         0.0325         -1e+300         -1e+300
          0.033         -1e+300         -1e+300
         0.0335         -1e+300         -1e+300
          0.034         -1e+300         -1e+300
         0.0345         -1e+300         -1e+300
          0.035         -1e+300         -1e+300
         0.0355         -1e+300         -1e+300
          0.036         -1e+300         -1e+300
         0.0365         -1e+300         -1e+300
          0.037         -1e+300         -1e+300
         0.0375         -1e+300         -1e+300
          0.038         -1e+300         -1e+300
         0.0385         -1e+300         -1e+300
          0.039         -1e+300         -1e+300
         0.0395         -1e+300         -1e+300
           0.04         -1e+300         -1e+300
         0.0405         -1e+300         -1e+300
          0.041         -1e+300         -1e+300
         0.0415         -1e+300         -1e+300
          0.042         -1e+300         -1e+300
         0.0425         -1e+300         -1e+300
          0.043         -1e+300         -1e+300
         0.0435         -1e+300         -1e+300
          0.044         -1e+300         -1e+300
         0.0445         -1e+300         -1e+300
          0.045         -1e+300         -1e+300
         0.0455         -1e+300         -1e+300
          0.046         -1e+300         -1e+300
         0.0465         -1e+300         -1e+300
          0.047         -1e+300         -1e+300
         0.0475         -1e+300         -1e+300
          0.048         -1e+300         -1e+300
         0.0485         -1e+300         -1e+300
          0.049         -1e+300         -1e+300
         0.0495         -1e+300         -1e+300
           0.05         -1e+300         -1e+300
         0.0505         -1e+300         -1e+300
          0.051         -1e+300         -1e+300
         0.0515         -1e+300         -1e+300
          0.052         -1e+300         -1e+300
         0.0525         -1e+300         -1e+300
          0.053         -1e+300         -1e+300
         0.0535         -1e+300         -1e+300
          0.054         -1e+300         -1e+300
         0.0545         -1e+300         -1e+300
          0.055         -1e+300         -1e+300
         0.0555         -1e+300         -1e+300
          0.056         -1e+300         -1e+300
         0.0565         -1e+300         -1e+300
          0.057         -1e+300         -1e+300
         0.0575         -1e+300         -1e+300
          0.058         -1e+300         -1e+300
         0.0585         -1e+300         -1e+300
          0.059         -1e+300         -1e+300
         0.0595         -1e+300         -1e+300
           0.06         -1e+300         -1e+300
         0.0605         -1e+300         -1e+300
          0.061         -1e+300         -1e+300
         0.0615         -1e+300         -1e+300
          0.062         -1e+300         -1e+300
         0.0625         -1e+300         -1e+300
          0.063         -1e+300         -1e+300
         0.0635         -1e+300         -1e+300
          0.064         -1e+300         -1e+300
         0.0645         -1e+300         -1e+300
          0.065         -1e+300         -1e+300
         0.0655         -1e+300         -1e+300
          0.066         -1e+300         -1e+300
         0.0665         -1e+300         -1e+300
          0.067         -1e+300         -1e+300
         0.0675         -1e+300         -1e+300
          0.068         -1e+300         -1e+300
         0.0685         -1e+300         -1e+300
          0.069         -1e+300         -1e+300
         0.0695         -1e+300         -1e+300
           0.07         -1e+300         -1e+300
         0.0705         -1e+300         -1e+300
          0.071         -1e+300         -1e+300
         0.0715         -1e+300         -1e+300
          0.072         -1e+300         -1e+300
         0.0725         -1e+300         -1e+300
          0.073         -1e+300         -1e+300
         0.0735         -1e+300         -1e+300
          0.074         -1e+300         -1e+300
         0.0745         -1e+300         -1e+300
          0.075         -1e+300         -1e+300
         0.0755         -1e+300         -1e+300
          0.076         -1e+300         -1e+300
         0.0765         -1e+300         -1e+300
          0.077         -1e+300         -1e+300
         0.0775         -1e+300         -1e+300
          0.078         -1e+300         -1e+300
         0.0785         -1e+300         -1e+300
          0.079         -1e+300         -1e+300
         0.0795         -1e+300         -1e+300
           0.08         -1e+300         -1e+300
         0.0805         -1e+300         -1e+300
          0.081         -1e+300         -1e+300
         0.0815         -1e+300         -1e+300
          0.082         -1e+300         -1e+300
         0.0825         -1e+300         -1e+300
          0.083         -1e+300         -1e+300
         0.0835         -1e+300         -1e+300
          0.084         -1e+300         -1e+300
         0.0845         -1e+300         -1e+300
          0.085         -1e+300         -1e+300
         0.0855         -1e+300         -1e+300
          0.086         -1e+300         -1e+300
         0.0865         -1e+300         -1e+300
          0.087         -1e+300         -1e+300
         0.0875         -1e+300         -1e+300
          0.088         -1e+300         -1e+300
         0.0885         -1e+300         -1e+300
          0.089         -1e+300         -1e+300
         0.0895         -1e+300         -1e+300
           0.09         -1e+300         -1e+300
         0.0905         -1e+300         -1e+300
          0.091         -1e+300         -1e+300
         0.0915         -1e+300         -1e+300
          0.092         -1e+300         -1e+300
         0.0925         -1e+300         -1e+300
          0.093         -1e+300         -1e+300
         0.0935         -1e+300         -1e+300
          0.094         -1e+300         -1e+300
         0.0945         -1e+300         -1e+300
          0.095         -1e+300         -1e+300
         0.0955         -1e+300         -1e+300
          0.096         -1e+300         -1e+300
         0.0965         -1e+300         -1e+300
          0.097         -1e+300         -1e+300
         0.0975         -1e+300         -1e+300
          0.098         -1e+300         -1e+300
         0.0985         -1e+300         -1e+300
          0.099         -1e+300         -1e+300
         0.0995         -1e+300         -1e+300
            0.1         -1e+300         -1e+300
         0.1005         -1e+300         -1e+300
          0.101         -1e+300         -1e+300
         0.1015         -1e+300         -1e+300
          0.102         -1e+300         -1e+300
         0.1025         -1e+300         -1e+300
          0.103         -1e+300         -1e+300
         0.1035         -1e+300         -1e+300
          0.104         -1e+300         -1e+300
         0.1045         -1e+300         -1e+300
          0.105         -1e+300         -1e+300
         0.1055         -1e+300         -1e+300
          0.106         -1e+300         -1e+300
         0.1065         -1e+300         -1e+300
          0.107         -1e+300         -1e+300
         0.1075         -1e+300         -1e+300
          0.108         -1e+300         -1e+300
         0.1085         -1e+300         -1e+300
          0.109         -1e+300         -1e+300
         0.1095         -1e+300         -1e+300
           0.11         -1e+300         -1e+300
         0.1105         -1e+300         -1e+300
          0.111         -1e+300         -1e+300
         0.1115         -1e+300         -1e+300
          0.112         -1e+300         -1e+300
         0.1125         -1e+300         -1e+300
          0.113         -1e+300         -1e+300
         0.1135         -1e+300         -1e+300
          0.114         -1e+300         -1e+300
         0.1145         -1e+300         -1e+300
          0.115         -1e+300         -1e+300
         0.1155         -1e+300         -1e+300
          0.116         -1e+300         -1e+300
         0.1165         -1e+300         -1e+300
          0.117         -1e+300         -1e+300
         0.1175         -1e+300         -1e+300
          0.118         -1e+300         -1e+300
         0.1185         -1e+300         -1e+300
          0.119         -1e+300         -1e+300
         0.1195         -1e+300         -1e+300
           0.12         -1e+300         -1e+300
         0.1205         -1e+300         -1e+300
          0.121         -1e+300         -1e+300
         0.1215         -1e+300         -1e+300
          0.122         -1e+300         -1e+300
         0.1225         -1e+300         -1e+300
          0.123         -1e+300         -1e+300
         0.1235         -1e+300         -1e+300
          0.124         -1e+300         -1e+300
         0.1245         -1e+300         -1e+300
          0.125         -1e+300         -1e+300
         0.1255         -1e+300         -1e+300
          0.126         -1e+300         -1e+300
         0.1265         -1e+300         -1e+300
          0.127         -1e+300         -1e+300
         0.1275         -1e+300         -1e+300
          0.128         -1e+300         -1e+300
         0.1285         -1e+300         -1e+300
          0.129         -1e+300         -1e+300
         0.1295         -1e+300         -1e+300
           0.13         -1e+300         -1e+300
         0.1305         -1e+300         -1e+300
          0.131         -1e+300         -1e+300
         0.1315         -1e+300         -1e+300
          0.132         -1e+300         -1e+300
         0.1325         -1e+300         -1e+300
          0.133         -1e+300         -1e+300
         0.1335         -1e+300         -1e+300
          0.134         -1e+300         -1e+300
         0.1345         -1e+300         -1e+300
          0.135         -1e+300         -1e+300
         0.1355         -1e+300         -1e+300
          0.136         -1e+300         -1e+300
         0.1365         -1e+300         -1e+300
          0.137         -1e+300         -1e+300
         0.1375         -1e+300         -1e+300
          0.138         -1e+300         -1e+300
         0.1385         -1e+300         -1e+300
          0.139         -1e+300         -1e+300
         0.1395         -1e+300         -1e+300
           0.14         -1e+300         -1e+300
         0.1405         -1e+300         -1e+300
          0.141         -1e+300         -1e+300
         0.1415         -1e+300         -1e+300
          0.142         -1e+300         -1e+300
         0.1425         -1e+300         -1e+300
          0.143         -1e+300         -1e+300
         0.1435         -1e+300         -1e+300
          0.144         -1e+300         -1e+300
         0.1445         -1e+300         -1e+300
          0.145         -1e+300         -1e+300
         0.1455         -1e+300         -1e+300
          0.146         -1e+300         -1e+300
         0.1465         -1e+300         -1e+300
          0.147         -1e+300         -1e+300
         0.1475         -1e+300         -1e+300
          0.148         -1e+300         -1e+300
         0.1485         -1e+300         -1e+300
          0.149         -1e+300         -1e+300
         0.1495         -1e+300         -1e+300
           0.15         -1e+300         -1e+300
         0.1505         -1e+300         -1e+300
          0.151         -1e+300         -1e+300
         0.1515         -1e+300         -1e+300
          0.152         -1e+300         -1e+300
         0.1525         -1e+300         -1e+300
          0.153         -1e+300         -1e+300
         0.1535         -1e+300         -1e+300
          0.154         -1e+300         -1e+300
         0.1545         -1e+300         -1e+300
          0.155         -1e+300         -1e+300
         0.1555         -1e+300         -1e+300
          0.156         -1e+300         -1e+300
         0.1565         -1e+300         -1e+300
          0.157         -1e+300         -1e+300
         0.1575         -1e+300         -1e+300
          0.158         -1e+300         -1e+300
         0.1585         -1e+300         -1e+300
          0.159         -1e+300         -1e+300
         0.1595         -1e+300         -1e+300
           0.16         -1e+300         -1e+300
         0.1605         -1e+300         -1e+300
          0.161         -1e+300         -1e+300
         0.1615         -1e+300         -1e+300
          0.162         -1e+300         -1e+300
         0.1625         -1e+300         -1e+300
          0.163         -1e+300         -1e+300
         0.1635         -1e+300         -1e+300
          0.164         -1e+300         -1e+300
         0.1645         -1e+300         -1e+300
          0.165         -1e+300         -1e+300
         0.1655         -1e+300         -1e+300
          0.166         -1e+300         -1e+300
         0.1665         -1e+300         -1e+300
          0.167         -1e+300         -1e+300
         0.1675         -1e+300         -1e+300
          0.168         -1e+300         -1e+300
         0.1685         -1e+300         -1e+300
          0.169         -1e+300         -1e+300
         0.1695         -1e+300         -1e+300
           0.17         -1e+300         -1e+300
         0.1705         -1e+300         -1e+300
          0.171         -1e+300         -1e+300
         0.1715         -1e+300         -1e+300
          0.172         -1e+300         -1e+300
         0.1725         -1e+300         -1e+300
          0.173         -1e+300         -1e+300
         0.1735         -1e+300         -1e+300
          0.174         -1e+300         -1e+300
         0.1745         -1e+300         -1e+300
          0.175         -1e+300         -1e+300
         0.1755         -1e+300         -1e+300
          0.176         -1e+300         -1e+300
         0.1765         -1e+300         -1e+300
          0.177         -1e+300         -1e+300
         0.1775         -1e+300         -1e+300
          0.178         -1e+300         -1e+300
         0.1785         -1e+300         -1e+300
          0.179         -1e+300         -1e+300
         0.1795         -1e+300         -1e+300
           0.18         -1e+300         -1e+300
         0.1805         -1e+300         -1e+300
          0.181         -1e+300         -1e+300
         0.1815         -1e+300         -1e+300
          0.182         -1e+300         -1e+300
         0.1825         -1e+300         -1e+300
          0.183         -1e+300         -1e+300
         0.1835         -1e+300         -1e+300
          0.184         -1e+300         -1e+300
         0.1845         -1e+300         -1e+300
          0.185         -1e+300         -1e+300
         0.1855         -1e+300         -1e+300
          0.186         -1e+300         -1e+300
         0.1865         -1e+300         -1e+300
          0.187         -1e+300         -1e+300
         0.1875         -1e+300         -1e+300
          0.188         -1e+300         -1e+300
         0.1885         -1e+300         -1e+300
          0.189         -1e+300         -1e+300
         0.1895         -1e+300         -1e+300
           0.19         -1e+300         -1e+300
         0.1905         -1e+300         -1e+300
          0.191         -1e+300         -1e+300
         0.1915         -1e+300         -1e+300
          0.192         -1e+300         -1e+300
         0.1925         -1e+300         -1e+300
          0.193         -1e+300         -1e+300
         0.1935         -1e+300         -1e+300
          0.194         -1e+300         -1e+300
         0.1945         -1e+300         -1e+300
          0.195         -1e+300         -1e+300
         0.1955         -1e+300         -1e+300
          0.196         -1e+300         -1e+300
         0.1965         -1e+300         -1e+300
          0.197         -1e+300         -1e+300
         0.1975         -1e+300         -1e+300
          0.198         -1e+300         -1e+300
         0.1985         -1e+300         -1e+300
          0.199         -1e+300         -1e+300
         0.1995         -1e+300         -1e+300
            0.2         -1e+300         -1e+300
         0.2005         -1e+300         -1e+300
          0.201         -1e+300         -1e+300
         0.2015         -1e+300         -1e+300
          0.202         -1e+300         -1e+300
         0.2025         -1e+300         -1e+300
          0.203         -1e+300         -1e+300
         0.2035         -1e+300         -1e+300
          0.204         -1e+300         -1e+300
         0.2045         -1e+300         -1e+300
          0.205         -1e+300         -1e+300
         0.2055         -1e+300         -1e+300
          0.206         -1e+300         -1e+300
         0.2065         -1e+300         -1e+300
          0.207         -1e+300         -1e+300
         0.2075         -1e+300         -1e+300
          0.208         -1e+300         -1e+300
         0.2085         -1e+300         -1e+300
          0.209         -1e+300         -1e+300
         0.2095         -1e+300         -1e+300
           0.21         -1e+300         -1e+300
         0.2105         -1e+300         -1e+300
          0.211         -1e+300         -1e+300
         0.2115         -1e+300         -1e+300
          0.212         -1e+300         -1e+300
         0.2125         -1e+300         -1e+300
          0.213         -1e+300         -1e+300
         0.2135         -1e+300         -1e+300
          0.214         -1e+300         -1e+300
         0.2145         -1e+300         -1e+300
          0.215         -1e+300         -1e+300
         0.2155         -1e+300         -1e+300
          0.216         -1e+300         -1e+300
         0.2165         -1e+300         -1e+300
          0.217         -1e+300         -1e+300
         0.2175         -1e+300         -1e+300
          0.218         -1e+300         -1e+300
         0.2185         -1e+300         -1e+300
          0.219         -1e+300         -1e+300
         0.2195         -1e+300         -1e+300
           0.22         -1e+300         -1e+300
         0.2205         -1e+300         -1e+300
          0.221         -1e+300         -1e+300
         0.2215         -1e+300         -1e+300
          0.222         -1e+300         -1e+300
         0.2225         -1e+300         -1e+300
          0.223         -1e+300         -1e+300
         0.2235         -1e+300         -1e+300
          0.224         -1e+300         -1e+300
         0.2245         -1e+300         -1e+300
          0.225         -1e+300         -1e+300
         0.2255         -1e+300         -1e+300
          0.226         -1e+300         -1e+300
         0.2265         -1e+300         -1e+300
          0.227         -1e+300         -1e+300
         0.2275         -1e+300         -1e+300
          0.228         -1e+300         -1e+300
         0.2285         -1e+300         -1e+300
          0.229         -1e+300         -1e+300
         0.2295         -1e+300         -1e+300
           0.23         -1e+300         -1e+300
         0.2305         -1e+300         -1e+300
          0.231         -1e+300         -1e+300
         0.2315         -1e+300         -1e+300
          0.232         -1e+300         -1e+300
         0.2325         -1e+300         -1e+300
          0.233         -1e+300         -1e+300
         0.2335         -1e+300         -1e+300
          0.234         -1e+300         -1e+300
         0.2345         -1e+300         -1e+300
          0.235         -1e+300         -1e+300
         0.2355         -1e+300         -1e+300
          0.236         -1e+300         -1e+300
         0.2365         -1e+300         -1e+300
          0.237         -1e+300         -1e+300
         0.2375         -1e+300         -1e+300
          0.238         -1e+300         -1e+300
         0.2385         -1e+300         -1e+300
          0.239         -1e+300         -1e+300
         0.2395         -1e+300         -1e+300
           0.24         -1e+300         -1e+300
         0.2405         -1e+300         -1e+300
          0.241         -1e+300         -1e+300
         0.2415         -1e+300         -1e+300
          0.242         -1e+300         -1e+300
         0.2425         -1e+300         -1e+300
          0.243         -1e+300         -1e+300
         0.2435         -1e+300         -1e+300
          0.244         -1e+300         -1e+300
         0.2445         -1e+300         -1e+300
          0.245         -1e+300         -1e+300
         0.2455         -1e+300         -1e+300
          0.246         -1e+300         -1e+300
         0.2465         -1e+300         -1e+300
          0.247         -1e+300         -1e+300
         0.2475         -1e+300         -1e+300
          0.248         -1e+300         -1e+300
         0.2485         -1e+300         -1e+300
          0.249         -1e+300         -1e+300
         0.2495         -1e+300         -1e+300
           0.25         -1e+300         -1e+300
         0.2505         -1e+300         -1e+300
          0.251         -1e+300         -1e+300
         0.2515         -1e+300         -1e+300
          0.252         -1e+300         -1e+300
         0.2525         -1e+300         -1e+300
          0.253         -1e+300         -1e+300
         0.2535         -1e+300         -1e+300
          0.254         -1e+300         -1e+300
         0.2545         -1e+300         -1e+300
          0.255         -1e+300         -1e+300
         0.2555         -1e+300         -1e+300
          0.256         -1e+300         -1e+300
         0.2565         -1e+300         -1e+300
          0.257         -1e+300         -1e+300
         0.2575         -1e+300         -1e+300
          0.258         -1e+300         -1e+300
         0.2585         -1e+300         -1e+300
          0.259         -1e+300         -1e+300
         0.2595         -1e+300         -1e+300
           0.26         -1e+300         -1e+300
         0.2605         -1e+300         -1e+300
          0.261         -1e+300         -1e+300
         0.2615         -1e+300         -1e+300
          0.262         -1e+300         -1e+300
         0.2625         -1e+300         -1e+300
          0.263         -1e+300         -1e+300
         0.2635         -1e+300         -1e+300
          0.264         -1e+300         -1e+300
         0.2645         -1e+300         -1e+300
          0.265         -1e+300         -1e+300
         0.2655         -1e+300         -1e+300
          0.266         -1e+300         -1e+300
         0.2665         -1e+300         -1e+300
          0.267         -1e+300         -1e+300
         0.2675         -1e+300         -1e+300
          0.268         -1e+300         -1e+300
         0.2685         -1e+300         -1e+300
          0.269         -1e+300         -1e+300
         0.2695         -1e+300         -1e+300
           0.27         -1e+300         -1e+300
         0.2705         -1e+300         -1e+300
          0.271         -1e+300         -1e+300
         0.2715         -1e+300         -1e+300
          0.272         -1e+300         -1e+300
         0.2725         -1e+300         -1e+300
          0.273         -1e+300         -1e+300
         0.2735         -1e+300         -1e+300
          0.274         -1e+300         -1e+300
         0.2745         -1e+300         -1e+300
          0.275         -1e+300         -1e+300
         0.2755         -1e+300         -1e+300
          0.276         -1e+300         -1e+300
         0.2765         -1e+300         -1e+300
          0.277         -1e+300         -1e+300
         0.2775         -1e+300         -1e+300
          0.278         -1e+300         -1e+300
         0.2785         -1e+300         -1e+300
          0.279         -1e+300         -1e+300
         0.2795         -1e+300         -1e+300
           0.28         -1e+300         -1e+300
         0.2805         -1e+300         -1e+300
          0.281         -1e+300         -1e+300
         0.2815         -1e+300         -1e+300
          0.282         -1e+300         -1e+300
         0.2825         -1e+300         -1e+300
          0.283         -1e+300         -1e+300
         0.2835         -1e+300         -1e+300
          0.284         -1e+300         -1e+300
         0.2845         -1e+300         -1e+300
          0.285         -1e+300         -1e+300
         0.2855         -1e+300         -1e+300
          0.286         -1e+300         -1e+300
         0.2865         -1e+300         -1e+300
          0.287         -1e+300         -1e+300
         0.2875         -1e+300         -1e+300
          0.288         -1e+300         -1e+300
         0.2885         -1e+300         -1e+300
          0.289         -1e+300         -1e+300
         0.2895         -1e+300         -1e+300
           0.29         -1e+300         -1e+300
         0.2905         -1e+300         -1e+300
          0.291         -1e+300         -1e+300
         0.2915         -1e+300         -1e+300
          0.292         -1e+300         -1e+300
         0.2925         -1e+300         -1e+300
          0.293         -1e+300         -1e+300
         0.2935         -1e+300         -1e+300
          0.294         -1e+300         -1e+300
         0.2945         -1e+300         -1e+300
          0.295         -1e+300         -1e+300
         0.2955         -1e+300         -1e+300
          0.296         -1e+300         -1e+300
         0.2965         -1e+300         -1e+300
          0.297         -1e+300         -1e+300
         0.2975         -1e+300         -1e+300
          0.298         -1e+300         -1e+300
         0.2985         -1e+300         -1e+300
          0.299         -1e+300         -1e+300
         0.2995         -1e+300         -1e+300
            0.3         -1e+300         -1e+300
         0.3005         -1e+300         -1e+300
          0.301         -1e+300         -1e+300
         0.3015         -1e+300         -1e+300
          0.302         -1e+300         -1e+300
         0.3025         -1e+300         -1e+300
          0.303         -1e+300         -1e+300
         0.3035         -1e+300         -1e+300
          0.304         -1e+300         -1e+300
         0.3045         -1e+300         -1e+300
          0.305         -1e+300         -1e+300
         0.3055         -1e+300         -1e+300
          0.306         -1e+300         -1e+300
         0.3065         -1e+300         -1e+300
          0.307         -1e+300         -1e+300
         0.3075         -1e+300         -1e+300
          0.308         -1e+300         -1e+300
         0.3085         -1e+300         -1e+300
          0.309         -1e+300         -1e+300
         0.3095         -1e+300         -1e+300
           0.31         -1e+300         -1e+300
         0.3105         -1e+300         -1e+300
          0.311         -1e+300         -1e+300