/*--------------------------------*- C++ -*----------------------------------*\
| =========                 |                                                 |
| \\      /  F ield         | foam-extend: Open Source CFD                    |
|  \\    /   O peration     | Version:     4.1                                |
|   \\  /    A nd           | Web:         http://www.foam-extend.org         |
|    \\/     M anipulation  |                                                 |
\*---------------------------------------------------------------------------*/
FoamFile
{
    version     2.0;
    format      ascii;
    class       surfaceScalarField;
    location    "0.05";
    object      phi;
}
// * * * * * * * * * * * * * * * * * * * * * * * * * * * * * * * * * * * * * //

dimensions      [0 3 -1 0 0 0 0];

internalField   nonuniform List<scalar> 
8438
(
-0.60177232
0.00052862013
-0.60239288
0.00062055614
-0.60302467
0.00063179685
-0.60369181
0.00066714109
-0.60439369
0.00070188058
-0.60514081
0.00074711657
-0.60594088
0.00080006567
-0.60680274
0.0008618673
-0.60773433
0.00093158191
-0.60874269
0.0010083661
-0.60983321
0.0010905173
-0.61100889
0.0011756769
-0.61226948
0.0012605987
-0.61361064
0.0013411538
-0.61502299
0.0014123505
-0.61649151
0.0014685208
-0.61799511
0.0015036042
-0.6195067
0.001511584
-0.62099374
0.0014870413
-0.62241934
0.0014256052
-0.62374379
0.0013244485
-0.62492639
0.0011825942
-0.62592761
0.0010012267
-0.62671142
0.00078380333
-0.62724764
0.00053622202
-0.62751431
0.00026667313
-0.62749983
-1.4479189e-05
-0.62720379
-0.00029603859
-0.6266391
-0.00056469115
-0.62583282
-0.00080628152
-0.62482396
-0.0010088594
-0.6236606
-0.0011633649
-0.6223959
-0.0012646999
-0.62108351
-0.0013123869
-0.61977319
-0.0013103254
-0.61850796
-0.0012652259
-0.61732198
-0.0011859762
-0.61624036
-0.0010816229
-0.61527935
-0.00096101092
-0.61444773
-0.00083162002
-0.61374813
-0.00069960221
-0.61317865
-0.00056947997
-0.61273422
-0.00044442356
-0.61240781
-0.0003264096
-0.61219117
-0.00021663968
-0.61207553
-0.00011564121
-0.6120501
-2.5428683e-05
-0.61209806
4.7957185e-05
0.00014688845
-0.61563267
0.00087426683
-0.6159668
0.00095468692
-0.61631776
0.00098275801
-0.61669522
0.001044603
-0.61710743
0.0011140884
-0.61756386
0.0012035508
-0.61807312
0.0013093243
-0.61864408
0.0014328218
-0.6192849
0.0015724102
-0.6200029
0.001726366
-0.62080376
0.0018913706
-0.62169083
0.0020627454
-0.62266426
0.0022340293
-0.62372005
0.0023969518
-0.62484917
0.002541467
-0.62603676
0.0026561137
-0.62726175
0.0027285937
-0.62849682
0.0027466519
-0.62970901
0.0026992326
-0.63086079
0.0025773868
-0.63191164
0.0023752965
-0.63281992
0.0020908764
-0.63354512
0.0017264197
-0.63405012
0.0012888029
-0.63430379
0.00078989047
-0.63428334
0.00024623074
-0.63397669
-0.00032113424
-0.63338507
-0.00088765388
-0.63252315
-0.0014266141
-0.63141808
-0.0019113536
-0.63010927
-0.0023176685
-0.62864542
-0.0026272188
-0.62708055
-0.0028295691
-0.62546915
-0.0029237859
-0.62386149
-0.0029179836
-0.62230087
-0.0028258488
-0.62082128
-0.0026655583
-0.61944752
-0.0024553907
-0.61819532
-0.0022132068
-0.61707297
-0.0019539659
-0.61608264
-0.0016899329
-0.61522209
-0.0014300312
-0.61448607
-0.0011804508
-0.61386755
-0.00094492465
-0.6133587
-0.00072548881
-0.61295146
-0.00052288399
-0.61263836
-0.0003385252
-0.61241442
-0.00017598131
-2.2734606e-05
-0.616166
0.0012017093
-0.61648169
0.0012703768
-0.61681046
0.0013115298
-0.61716349
0.0013976309
-0.61754986
0.0015004636
-0.61797939
0.0016330745
-0.61846107
0.0017910008
-0.6190041
0.0019758578
-0.61961713
0.0021854376
-0.62030801
0.0024172463
-0.62108313
0.002666489
-0.62194667
0.0029262866
-0.62289968
0.0031870407
-0.62393907
0.0034363419
-0.62505659
0.0036589912
-0.626238
0.0038375179
-0.62746247
0.0039530655
-0.62870255
0.0039867308
-0.62992474
0.0039214262
-0.63109059
0.0037432391
-0.63215835
0.0034430469
-0.63308484
0.0030173737
-0.63382783
0.0024694107
-0.63434829
0.0018092604
-0.6346131
0.001054696
-0.63459754
0.00023067507
-0.63428785
-0.00063082697
-0.63368314
-0.0014923634
-0.6327969
-0.0023128565
-0.63165726
-0.0030509912
-0.63030599
-0.0036689407
-0.62879516
-0.0041380403
-0.62718275
-0.0044419847
-0.62552693
-0.0045796049
-0.62388064
-0.0045642717
-0.6222889
-0.0044175957
-0.62078613
-0.0041683271
-0.61939679
-0.0038447308
-0.61813563
-0.0034743677
-0.61700967
-0.0030799242
-0.61601971
-0.0026798902
-0.61516225
-0.0022874902
-0.61443093
-0.0019117716
-0.61381786
-0.0015579961
-0.61331458
-0.0012287639
-0.61291276
-0.00092470922
-0.61260507
-0.00064621711
-0.61238683
-0.00039421801
-0.00016461427
-0.6162249
0.0015006455
-0.61652467
0.0015701377
-0.61684169
0.001628555
-0.61718361
0.0017395488
-0.61755978
0.0018766357
-0.61797951
0.0020528041
-0.61845206
0.0022635512
-0.61898688
0.0025106783
-0.61959311
0.0027916652
-0.62027928
0.0031034176
-0.62105266
0.0034398673
-0.62191846
0.0037920934
-0.62287888
0.0041474539
-0.62393191
0.004489375
-0.62507024
0.0047973154
-0.62628013
0.0050474129
-0.62754076
0.0052136987
-0.62882395
0.0052699156
-0.63009481
0.0051922882
-0.63131289
0.0049613217
-0.63243398
0.0045641321
-0.63341209
0.003995483
-0.63420194
0.0032592629
-0.63476132
0.0023686444
-0.63505404
0.0013474158
-0.63505256
0.00022918913
-0.63474074
-0.00094264795
-0.63411619
-0.0021169116
-0.63319238
-0.0032366668
-0.63199925
-0.0042441241
-0.63058235
-0.005085838
-0.62899909
-0.0057213021
-0.62731362
-0.0061274561
-0.62558999
-0.0063032347
-0.62388521
-0.0062690421
-0.62224694
-0.0060558696
-0.62071013
-0.0057051349
-0.61929866
-0.0052562079
-0.61802562
-0.004747405
-0.61689609
-0.0042094563
-0.61590877
-0.0036672039
-0.61505831
-0.0031379552
-0.61433678
-0.0026333014
-0.61373517
-0.0021596062
-0.61324436
-0.0017195695
-0.61285591
-0.0013131623
-0.61256292
-0.00093920178
-0.61236116
-0.00059597961
-0.00028082732
-0.61635711
0.0017912759
-0.61664984
0.0018628654
-0.61695325
0.0019319622
-0.61727916
0.0020654631
-0.61763719
0.0022346671
-0.61803759
0.002453204
-0.61849033
0.0027162906
-0.6190057
0.0030260484
-0.61959387
0.003379833
-0.62026464
0.0037741912
-0.62102682
0.0042020402
-0.62188736
0.0046526317
-0.62285029
0.0051103914
-0.62391543
0.0055545167
-0.62507693
0.0059588161
-0.62632197
0.006292444
-0.62762975
0.0065214829
-0.62897109
0.0066112556
-0.63030916
0.0065303558
-0.63160066
0.0062528239
-0.63279792
0.0057613897
-0.63385096
0.0050485262
-0.63471021
0.0041185153
-0.63532885
0.0029872781
-0.63566612
0.0016846926
-0.63569024
0.00025330208
-0.63538148
-0.0012514051
-0.63473506
-0.0027633348
-0.6337641
-0.0042076216
-0.63250078
-0.0055074506
-0.63099598
-0.0065906341
-0.62931477
-0.00740251
-0.62753035
-0.0079118742
-0.62571533
-0.0081182626
-0.62393234
-0.0080520268
-0.62223264
-0.0077555744
-0.62065161
-0.0072861635
-0.61921208
-0.0066957351
-0.61792464
-0.0060348408
-0.61679151
-0.0053425941
-0.61580839
-0.004650325
-0.61496725
-0.0039790869
-0.61425796
-0.0033425987
-0.61366977
-0.0027477971
-0.61319238
-0.0021969583
-0.61281672
-0.0016888183
-0.61253584
-0.0012200821
-0.61234584
-0.0007859821
-0.00038186485
-0.61648961
0.0020452549
-0.61675247
0.0021257216
-0.61703371
0.00221321
-0.61734032
0.00237207
-0.61768107
0.002575411
-0.61806539
0.0028375329
-0.61850331
0.0031542092
-0.61900546
0.0035281959
-0.61958277
0.0039571408
-0.62024617
0.0044375924
-0.62100596
0.0049618275
-0.62187092
0.0055175968
-0.62284714
0.006086614
-0.6239365
0.0066438675
-0.62513491
0.0071572318
-0.62643067
0.0075882081
-0.62780311
0.007893916
-0.62922171
0.0080298558
-0.63064716
0.0079558044
-0.63203254
0.0076382053
-0.63332581
0.0070546628
-0.634472
0.0061947166
-0.63541624
0.0050627503
-0.63610597
0.0036770133
-0.63649493
0.0020736543
-0.63654611
0.0003044795
-0.63623545
-0.0015620652
-0.6355552
-0.0034435855
-0.63451794
-0.0052448824
-0.63315846
-0.0068669309
-0.6315346
-0.0082144894
-0.62972163
-0.0092154807
-0.62780513
-0.0098283739
-0.62586952
-0.010053874
-0.62398465
-0.0099369008
-0.62220637
-0.0095338555
-0.62057006
-0.0089224684
-0.61909682
-0.0081689767
-0.61779354
-0.0073381247
-0.61665848
-0.0064776535
-0.61568334
-0.0056254595
-0.61485664
-0.004805788
-0.61416534
-0.0040338971
-0.61359653
-0.0033166126
-0.61313828
-0.0026552014
-0.61278043
-0.0020466726
-0.61251511
-0.0014854065
-0.61233737
-0.00096371441
-0.00047428762
-0.61671102
0.0022943085
-0.61696587
0.0023805697
-0.61722814
0.002475476
-0.61751162
0.0026555587
-0.6178255
0.002889291
-0.61818065
0.0031926763
-0.61858791
0.0035614742
-0.61905907
0.0039993554
-0.61960649
0.0045045579
-0.62024299
0.0050740917
-0.62098126
0.0057000997
-0.62183298
0.0063693117
-0.62280743
0.0070610689
-0.62390977
0.0077462098
-0.62513884
0.0083862963
-0.62648487
0.0089342371
-0.62792772
0.0093367701
-0.6294354
0.0095375334
-0.6309655
0.0094859039
-0.63246652
0.0091392255
-0.63388096
0.0084691091
-0.63514759
0.0074613422
-0.63620491
0.0061200673
-0.63699293
0.0044650417
-0.637458
0.0025387239
-0.63755581
0.00040228231
-0.63725556
-0.0018623149
-0.63654402
-0.0041551276
-0.63543188
-0.0063570178
-0.63395674
-0.0083420693
-0.63218569
-0.0099855446
-0.63020785
-0.011193322
-0.62812598
-0.011910238
-0.62604099
-0.012138863
-0.62403164
-0.011946251
-0.6221596
-0.011405898
-0.6204593
-0.01062277
-0.61894906
-0.0096792176
-0.61763049
-0.0086566954
-0.61649659
-0.007611548
-0.61553387
-0.006588185
-0.61472649
-0.0056131697
-0.61405791
-0.0047024752
-0.61351262
-0.0038619009
-0.61307688
-0.0030909365
-0.61273935
-0.002384205
-0.61249143
-0.0017333264
-0.61232755
-0.0011275929
-0.00055689122
-0.61690283
0.0024911256
-0.61711132
0.0025890559
-0.61733973
0.0027038945
-0.61759343
0.0029092565
-0.61788055
0.0031764066
-0.6182106
0.0035227318
-0.61859438
0.0039452525
-0.61904407
0.0044490475
-0.61957308
0.0050335625
-0.62019583
0.0056968435
-0.62092724
0.0064315137
-0.62178181
0.0072238737
-0.6227721
0.008051367
-0.62390678
0.0088808839
-0.62518787
0.009667387
-0.62660783
0.010354198
-0.62814713
0.01087607
-0.62977171
0.011162117
-0.63143528
0.011149469
-0.63308058
0.010784526
-0.63464348
0.01003201
-0.63605512
0.0088729789
-0.63724618
0.0073111287
-0.63814769
0.0053665505
-0.63869733
0.0030883634
-0.63884243
0.00054738797
-0.63854488
-0.0021598725
-0.63778544
-0.0049145628
-0.63657237
-0.0075700918
-0.63494578
-0.0099686562
-0.63298402
-0.011947305
-0.63079382
-0.013383517
-0.62850085
-0.014203208
-0.62622857
-0.014411148
-0.62406597
-0.014108847
-0.62208181
-0.013390061
-0.62030774
-0.012396837
-0.61875777
-0.01122919
-0.61742599
-0.0099884762
-0.61629844
-0.0087390987
-0.61535492
-0.0075317042
-0.61457423
-0.0063938564
-0.61393557
-0.0053411381
-0.6134203
-0.0043771743
-0.61301244
-0.003498794
-0.6126991
-0.002697546
-0.61247055
-0.0019618739
-0.61232032
-0.0012778254
-0.00063240886
-0.61720591
0.0026890741
-0.61740949
0.0027926348
-0.61761625
0.0029106624
-0.61784181
0.0031348159
-0.61809486
0.0034294504
-0.61838669
0.003814569
-0.61872895
0.0042875093
-0.61913502
0.0048551127
-0.61961992
0.005518463
-0.62020046
0.0062773882
-0.62089484
0.0071258927
-0.62172179
0.0080508186
-0.62269899
0.0090285675
-0.62384067
0.010022573
-0.62515426
0.010980976
-0.62663628
0.01183621
-0.62826907
0.012508863
-0.63001645
0.012909496
-0.63182754
0.01296056
-0.63363807
0.01259506
-0.63537607
0.011770007
-0.6369637
0.010460613
-0.63832285
0.0086702769
-0.63937366
0.0064173578
-0.64004313
0.0037578327
-0.64026746
0.00077172172
-0.63999698
-0.0024303528
-0.63920076
-0.0057107831
-0.63788079
-0.0088900594
-0.63607858
-0.011770874
-0.63388725
-0.014138631
-0.63143729
-0.015833478
-0.62888622
-0.016754276
-0.62638962
-0.016907747
-0.62404764
-0.016450824
-0.62193765
-0.01550006
-0.62008536
-0.014249118
-0.61849829
-0.012816269
-0.61716005
-0.011326717
-0.61604773
-0.009851413
-0.61513287
-0.0084465644
-0.61438796
-0.007138772
-0.61378736
-0.0059417367
-0.61330909
-0.0048554406
-0.61293491
-0.0038729769
-0.61265044
-0.0029820114
-0.61244499
-0.0021673274
-0.61231128
-0.0014115363
-0.00069873623
-0.61743658
0.0028150809
-0.61757454
0.0029305971
-0.61773386
0.003069976
-0.61791686
0.0033178206
-0.61813102
0.0036436077
-0.61838557
0.0040691149
-0.61869195
0.0045938951
-0.61906403
0.0052271947
-0.61951818
0.0059726056
-0.62007336
0.0068325742
-0.62075091
0.007803441
-0.62157369
0.0088736
-0.62256448
0.010019353
-0.62374322
0.011201313
-0.62512296
0.012360723
-0.62670451
0.013417755
-0.62847219
0.014276545
-0.63038632
0.01482362
-0.63238995
0.01496419
-0.63440986
0.014614979
-0.63636471
0.013724854
-0.63816588
0.012261786
-0.63972516
0.010229558
-0.64094904
0.0076412327
-0.64175172
0.0045605147
-0.64205681
0.0010768118
-0.64180291
-0.0026842557
-0.64094709
-0.0065666036
-0.63948415
-0.010353
-0.63745485
-0.013800168
-0.63496966
-0.016623829
-0.63218821
-0.018614921
-0.62931062
-0.019631874
-0.62653801
-0.019680353
-0.62398061
-0.019008226
-0.62172619
-0.017754479
-0.61978935
-0.016185951
-0.61816801
-0.014437613
-0.6168313
-0.012663429
-0.61574481
-0.010937897
-0.61486982
-0.0093215607
-0.61417133
-0.0078372617
-0.6136182
-0.0064948695
-0.61318473
-0.0052889009
-0.61285026
-0.0042074488
-0.6125989
-0.0032333766
-0.61241898
-0.0023472432
-0.61230263
-0.001527887
-0.00075641742
-0.61780995
0.0029514518
-0.61795018
0.0030708309
-0.61808844
0.0032082375
-0.61824154
0.0034709235
-0.61841742
0.003819485
-0.61862726
0.0042789498
-0.61888298
0.0048496229
-0.61919929
0.0055434972
-0.61959387
0.0063671883
-0.62008811
0.0073268181
-0.62070718
0.0084225086
-0.62147957
0.0096459911
-0.62243558
0.01097536
-0.62360428
0.012370017
-0.62500848
0.013764917
-0.62665721
0.015066493
-0.62854026
0.016159591
-0.63061449
0.016897855
-0.63281612
0.017165818
-0.63506095
0.016859805
-0.63725678
0.015920686
-0.63930257
0.014307577
-0.6411002
0.012027184
-0.64254063
0.0090816646
-0.64352427
0.00554415
-0.64396001
0.0015125513
-0.64376853
-0.0028757268
-0.64288225
-0.0074528886
-0.64127843
-0.011956817
-0.63899119
-0.016087406
-0.63615398
-0.019461042
-0.6329662
-0.021802708
-0.62968859
-0.022909478
-0.62659075
-0.022778198
-0.62378852
-0.02181045
-0.62138215
-0.020160854
-0.61936634
-0.018201756
-0.61772501
-0.016078942
-0.6164075
-0.013980939
-0.61536508
-0.011980322
-0.6145468
-0.01013984
-0.6139094
-0.0084746614
-0.61341595
-0.0069883237
-0.61303716
-0.005667691
-0.61275016
-0.0044944429
-0.61253786
-0.0034456802
-0.6123879
-0.0024972024
-0.61229196
-0.0016238254
-0.00080357742
-0.61806061
0.0029947895
-0.61811435
0.0031245802
-0.61818971
0.0032835906
-0.6182848
0.0035660123
-0.61840598
0.003940664
-0.61856149
0.004434463
-0.61876291
0.0050510464
-0.61902538
0.0058059676
-0.61936825
0.0067100536
-0.61981574
0.0077743067
-0.62039734
0.009004108
-0.62114758
0.010396237
-0.6221046
0.011932383
-0.62330691
0.013572324
-0.62478736
0.01524536
-0.62656323
0.016842365
-0.62862998
0.018226339
-0.63093714
0.019205022
-0.63341075
0.019639422
-0.63595187
0.019400931
-0.6384558
0.018424619
-0.64080701
0.01665878
-0.64289776
0.014117939
-0.64459806
0.010781966
-0.64578972
0.0067358104
-0.64636356
0.0020863899
-0.64622255
-0.0030167336
-0.64527456
-0.0084008864
-0.64347963
-0.013751744
-0.64085867
-0.018708361
-0.6375711
-0.02274862
-0.63386252
-0.025511288
-0.63007498
-0.026697012
-0.626581
-0.026272184
-0.62348966
-0.024901783
-0.62091679
-0.022733731
-0.61882407
-0.020294473
-0.6171759
-0.017727115
-0.61589507
-0.015261765
-0.61491514
-0.012960252
-0.61417067
-0.010884314
-0.61360912
-0.0090362087
-0.61318742
-0.0074100196
-0.61287275
-0.0059823661
-0.61264027
-0.0047269241
-0.61247195
-0.0036140023
-0.61235506
-0.002614089
-0.61228117
-0.0016977153
-0.00083979647
-0.61848649
0.0030590104
-0.61855215
0.0031902411
-0.61861033
0.003341767
-0.61867785
0.0036335286
-0.61876119
0.0040240045
-0.6188704
0.0045436705
-0.61901672
0.0051973685
-0.61921511
0.0060043584
-0.61948513
0.0069800741
-0.61985242
0.0081415962
-0.62034984
0.0095015301
-0.62101818
0.011064577
-0.62190548
0.012819682
-0.62306421
0.014731059
-0.62454443
0.016725573
-0.6263799
0.018677841
-0.62858108
0.020427516
-0.63109043
0.021714369
-0.63382306
0.022372054
-0.6366619
0.022239769
-0.63948806
0.021250785
-0.64216808
0.019338797
-0.64458731
0.01653717
-0.64659121
0.012785861
-0.64804545
0.0081900543
-0.64882776
0.0028687024
-0.64882022
-0.0030242818
-0.64787955
-0.0093415559
-0.64592045
-0.015710844
-0.64292807
-0.021700739
-0.63909679
-0.026579892
-0.63473669
-0.029871392
-0.63030963
-0.031124075
-0.62635383
-0.030227981
-0.6229447
-0.028310909
-0.62021583
-0.025462604
-0.61807392
-0.022436384
-0.61645526
-0.019345781
-0.61524729
-0.01646973
-0.61436231
-0.013845233
-0.61371867
-0.011527956
-0.61325449
-0.0095003823
-0.61292114
-0.0077433726
-0.61268306
-0.0062204492
-0.61251428
-0.004895698
-0.61239656
-0.0037317244
-0.61231734
-0.0026933096
-0.61226845
-0.001746605
-0.00086344836
-0.61874125
0.0030125936
-0.61870185
0.0031508427
-0.61868165
0.0033215676
-0.61867395
0.0036258359
-0.61868308
0.0040331297
-0.61871509
0.0045756824
-0.61878037
0.0052626461
-0.61889398
0.006117972
-0.61907717
0.0071632593
-0.619359
0.0084234254
-0.61977812
0.0099206549
-0.62038413
0.011670581
-0.62123739
0.013672949
-0.62240647
0.015900136
-0.62396024
0.018279342
-0.62594886
0.020666466
-0.62839956
0.022878209
-0.63123591
0.024550718
-0.63435332
0.025489467
-0.63760749
0.025493941
-0.64086356
0.024506856
-0.6439684
0.022443639
-0.64681039
0.019379157
-0.64920158
0.015177052
-0.65098116
0.0099696278
-0.65200361
0.0038911576
-0.65212565
-0.0029022394
-0.65114923
-0.010317976
-0.64895387
-0.017906211
-0.64547484
-0.02517977
-0.64094678
-0.031107947
-0.63574449
-0.035073679
-0.63048765
-0.036380918
-0.62597931
-0.034736319
-0.62220461
-0.032085608
-0.61932089
-0.02834633
-0.61715003
-0.024607235
-0.61559132
-0.020904498
-0.61448726
-0.017573791
-0.61372529
-0.014607194
-0.61320586
-0.012047387
-0.61285757
-0.0098486758
-0.61262665
-0.0079742881
-0.61247554
-0.0063715649
-0.61237785
-0.004993383
-0.61231576
-0.0037938172
-0.61227742
-0.0027316538
-0.61225534
-0.0017686823
-0.00087383809
-0.61918845
0.0029940302
-0.61916885
0.0031312498
-0.61913705
0.0032897648
-0.61910769
0.0035964705
-0.61908475
0.0040101898
-0.61907566
0.0045665928
-0.61908938
0.0052763713
-0.61913926
0.0061678475
-0.61924464
0.0072686403
-0.61943349
0.0086122738
-0.61974524
0.010232406
-0.6202339
0.012159239
-0.62097009
0.014409148
-0.62204102
0.01697106
-0.62354407
0.01978239
-0.62556099
0.022683385
-0.62816125
0.025478476
-0.63124936
0.027638825
-0.6347014
0.028941508
-0.63834097
0.029133509
-0.64201877
0.028184658
-0.64555351
0.025978381
-0.64884459
0.022670232
-0.65165149
0.017983956
-0.65379018
0.01210831
-0.65512216
0.0052231392
-0.65550939
-0.0025150048
-0.65465498
-0.011172391
-0.65232797
-0.020233214
-0.64833124
-0.029176508
-0.64294922
-0.036489961
-0.63665174
-0.041371157
-0.63030126
-0.042731403
-0.62515767
-0.03987991
-0.62100603
-0.036237251
-0.61802444
-0.031327917
-0.61590003
-0.02673164
-0.61447842
-0.02232611
-0.61354504
-0.018507177
-0.61295938
-0.015192847
-0.61260439
-0.012402377
-0.61240119
-0.010051875
-0.61229338
-0.0080821032
-0.61224354
-0.0064214049
-0.61222668
-0.0050102371
-0.61222672
-0.003793777
-0.61223347
-0.0027249099
-0.61224075
-0.0017614006
-0.00086963857
-0.61944168
0.0028583859
-0.61930796
0.0029975351
-0.61918675
0.0031685538
-0.61906702
0.0034767352
-0.61894955
0.00389272
-0.61883648
0.0044535251
-0.61873451
0.0051744058
-0.61865565
0.0060889868
-0.61861967
0.0072326542
-0.61865731
0.0086499212
-0.61881453
0.010389623
-0.61915728
0.012501991
-0.61977554
0.015027405
-0.62078495
0.01798047
-0.62232096
0.021318398
-0.62449998
0.024862404
-0.62744535
0.028423853
-0.63100702
0.031200494
-0.63501715
0.032951632
-0.63924241
0.03335877
-0.64351321
0.032455459
-0.6476127
0.030077871
-0.65149669
0.026554224
-0.65486775
0.021355018
-0.65750836
0.014748919
-0.65926959
0.0069843735
-0.65998077
-0.0018038317
-0.65919448
-0.011958674
-0.65661686
-0.022810843
-0.65190645
-0.033886915
-0.64542935
-0.042967063
-0.63771003
-0.049090469
-0.62990814
-0.050533296
-0.62404624
-0.045741806
-0.61949278
-0.040790717
-0.61645641
-0.034364281
-0.61443287
-0.028755183
-0.61320254
-0.023556445
-0.61248545
-0.01922426
-0.61211166
-0.015566637
-0.61194764
-0.012566398
-0.61190855
-0.010090963
-0.61193714
-0.0080535204
-0.6119976
-0.0063609383
-0.61206755
-0.0049402919
-0.61213352
-0.0037278016
-0.61218765
-0.0026707829
-0.61222554
-0.0017235139
-0.00085037671
-0.61985396
0.0027465524
-0.61973918
0.0028827611
-0.61960957
0.0030389385
-0.61947425
0.0033414179
-0.61933338
0.003751843
-0.6191899
0.0043100481
-0.61904839
0.0050328937
-0.61891779
0.0059583958
-0.61881376
0.0071286183
-0.61876234
0.0085985068
-0.61880515
0.01043243
-0.61900631
0.012703145
-0.61946023
0.01548133
-0.62029996
0.018820195
-0.62170157
0.022720014
-0.62383483
0.026995665
-0.62694684
0.031535857
-0.63082791
0.035081568
-0.63526854
0.037392263
-0.63997273
0.038062959
-0.64477521
0.037257939
-0.64941208
0.034714741
-0.65393295
0.031075092
-0.65788926
0.025311329
-0.6609854
0.017845056
-0.6631291
0.0091280785
-0.66430461
-0.00062832748
-0.66391669
-0.012346594
-0.66143755
-0.025289976
-0.65608002
-0.039244447
-0.64824998
-0.050797105
-0.63856912
-0.058771324
-0.62868785
-0.060414567
-0.6220213
-0.052408359
-0.61713247
-0.045679546
-0.61421072
-0.037286033
-0.61246543
-0.030500475
-0.61157776
-0.024444116
-0.61119338
-0.019608634
-0.61111405
-0.015645975
-0.61119716
-0.012483284
-0.61135885
-0.0099292728
-0.61154717
-0.0078652042
-0.61173242
-0.0061756893
-0.61189796
-0.0047747494
-0.61203509
-0.0035906654
-0.61213963
-0.002566251
-0.61220978
-0.0016533613
-0.00081520546
-0.62012387
0.0025314502
-0.61990508
0.0026639712
-0.61968681
0.0028206645
-0.61945581
0.0031104191
-0.61920753
0.0035035673
-0.61893805
0.0040405677
-0.61864669
0.0047415289
-0.61833717
0.0056488777
-0.61802075
0.0068121972
-0.6177211
0.0082988632
-0.61748194
0.010193263
-0.61737818
0.012599386
-0.6175299
0.015633053
-0.61811849
0.019408781
-0.61940172
0.024003252
-0.62162916
0.029223101
-0.62523503
0.03514173
-0.62984273
0.039689268
-0.63513323
0.04268276
-0.6406894
0.043619131
-0.64632424
0.042892781
-0.65166032
0.040050813
-0.65696958
0.036384358
-0.66168279
0.030024534
-0.66546672
0.021628993
-0.66837905
0.012040406
-0.67041002
0.0014026407
-0.67044091
-0.012315702
-0.66781281
-0.027918081
-0.66135127
-0.04570599
-0.6517679
-0.060380471
-0.63956953
-0.070969689
-0.62688246
-0.07310164
-0.61948581
-0.059805007
-0.61435856
-0.050806802
-0.61168061
-0.039963979
-0.61031468
-0.031866406
-0.60983808
-0.024920716
-0.60983248
-0.019614237
-0.61007613
-0.015402316
-0.61042435
-0.012135073
-0.61079751
-0.0095561099
-0.61115178
-0.0075109327
-0.61146515
-0.0058623178
-0.61172789
-0.0045120063
-0.61193678
-0.0033817769
-0.61209179
-0.0024112454
-0.61219406
-0.0015510858
-0.0007643192
-0.62032764
0.0023171772
-0.62011012
0.0024464479
-0.61987785
0.0025883979
-0.61963038
0.0028629463
-0.61936233
0.0032355175
-0.61907006
0.0037483024
-0.61875114
0.0044226106
-0.61840652
0.0053042528
-0.61804301
0.0064486876
-0.61767783
0.0079336845
-0.61734579
0.0098612252
-0.61711107
0.012364665
-0.61708397
0.015605953
-0.61744483
0.019769644
-0.61848959
0.025048005
-0.62052277
0.031256283
-0.62435023
0.038969194
-0.62940523
0.044744268
-0.63525978
0.048537306
-0.64134403
0.049703376
-0.64755984
0.049108595
-0.65343708
0.045928056
-0.65973312
0.042680391
-0.66541107
0.035702487
-0.66981462
0.026032544
-0.67300087
0.015226657
-0.67558987
0.0039916422
-0.67648349
-0.011422083
-0.67477062
-0.02963095
-0.66789889
-0.052577717
-0.65631456
-0.071964801
-0.64038199
-0.086902265
-0.62317516
-0.090308466
-0.61497946
-0.068000705
-0.60998054
-0.05580572
-0.60798207
-0.041962452
-0.60739543
-0.032453045
-0.6076179
-0.024698253
-0.60818794
-0.019044196
-0.6088775
-0.014712752
-0.60956472
-0.011447853
-0.61019156
-0.008929269
-0.61073491
-0.0069675827
-0.61118838
-0.0054088513
-0.61155407
-0.0041463111
-0.61183716
-0.0030986867
-0.61204349
-0.0022049209
-0.61217808
-0.0014164921
-0.00069760074
-0.62028292
0.0020393081
-0.61999761
0.0021611378
-0.61969615
0.0022869388
-0.61936685
0.0025336414
-0.61899831
0.0028669767
-0.61857885
0.0033288458
-0.61809651
0.0039402672
-0.61754012
0.0047478645
-0.61690153
0.0058100978
-0.61618046
0.0072126132
-0.6153939
0.0090746723
-0.61459416
0.011564922
-0.61389991
0.014911697
-0.61354493
0.019414667
-0.61398883
0.025491903
-0.61573109
0.032998547
-0.62027184
0.043509946
-0.62651195
0.050984378
-0.63369547
0.055720822
-0.64104728
0.057055183
-0.64851688
0.0565782
-0.65521096
0.052622138
-0.66249712
0.049966548
-0.66899974
0.042205106
-0.6737635
0.030796303
-0.67802513
0.019488285
-0.68311275
0.0090792646
-0.68579569
-0.0087391383
-0.68461902
-0.030807626
-0.67572952
-0.061467219
-0.6613587
-0.086335616
-0.64098325
-0.10727771
-0.6178664
-0.11342532
-0.60979183
-0.076075276
-0.6054259
-0.060171645
-0.60431755
-0.043070805
-0.60459303
-0.032177566
-0.60551288
-0.023778404
-0.60664105
-0.017916024
-0.60775298
-0.013600822
-0.60875986
-0.010440971
-0.60962494
-0.0080641912
-0.61034574
-0.0062467781
-0.6109305
-0.0048240943
-0.61139253
-0.0036842815
-0.6117449
-0.0027463136
-0.61199903
-0.0019507956
-0.61216364
-0.0012518819
-0.00061628975
-0.61844413
0.0017142331
-0.61811809
0.0018350878
-0.61777905
0.0019479019
-0.6174128
0.0021673899
-0.61700649
0.0024606706
-0.61654718
0.002869532
-0.61602177
0.0034148633
-0.6154177
0.0041437919
-0.61472475
0.0051171509
-0.61393927
0.0064271279
-0.61307228
0.008207685
-0.61216536
0.010657996
-0.61132039
0.014066728
-0.61073749
0.018831774
-0.61087555
0.025629957
-0.61212637
0.034249372
-0.61707629
0.048459866
-0.62402563
0.057933715
-0.63197833
0.063673519
-0.63966128
0.064738138
-0.64736784
0.064284755
-0.65372707
0.058981373
-0.66253448
0.05877396
-0.67082932
0.05049994
-0.67707844
0.037045425
-0.68142041
0.023830254
-0.68616548
0.013824339
-0.6896088
-0.0052958175
-0.69116294
-0.029253493
-0.68433934
-0.068290814
-0.66862271
-0.10205225
-0.64164846
-0.13425196
-0.6079932
-0.14708058
-0.59977161
-0.084296864
-0.59758238
-0.062360872
-0.5984989
-0.042154285
-0.60055733
-0.03011914
-0.6027387
-0.021597026
-0.60475739
-0.015897336
-0.6064725
-0.011885709
-0.60789158
-0.0090218944
-0.6090392
-0.0069165741
-0.60995626
-0.0053297209
-0.61067855
-0.0041018029
-0.61123736
-0.0031254654
-0.61165725
-0.0023264217
-0.61195698
-0.0016510657
-0.61214987
-0.0010590006
-0.00052120549
-0.61467574
0.0013859528
-0.61433762
0.0014969663
-0.61396468
0.001574962
-0.61355015
0.0017528623
-0.61307571
0.0019862319
-0.61252161
0.0023154258
-0.61186272
0.0027559796
-0.61106831
0.0033493832
-0.61010054
0.0041493749
-0.6089142
0.0052407913
-0.60745933
0.0067528113
-0.60569186
0.0088905255
-0.60361138
0.011986251
-0.60131903
0.016539426
-0.59942379
0.023734716
-0.5987327
0.033558281
-0.60458964
0.054316804
-0.61362457
0.066968652
-0.62341373
0.073462677
-0.63269828
0.074022684
-0.64225825
0.073844726
-0.64992057
0.066643693
-0.6600493
0.068902688
-0.66956229
0.060012928
-0.67281116
0.040294304
-0.67555724
0.026576333
-0.68783512
0.026102212
-0.69838266
0.0052517241
-0.70477178
-0.022864367
-0.69145464
-0.081607959
-0.66946691
-0.12403998
-0.63660468
-0.16711419
-0.59325985
-0.19042542
-0.59070882
-0.086847896
-0.59175019
-0.061319494
-0.59429472
-0.039609762
-0.59769111
-0.02672275
-0.60071159
-0.018576541
-0.60334886
-0.013260068
-0.60548737
-0.0097471995
-0.60720882
-0.0073004491
-0.60857017
-0.0055552186
-0.60964031
-0.0042595793
-0.61047228
-0.0032698395
-0.61110956
-0.0024881796
-0.61158479
-0.0018511898
-0.61192215
-0.0013137102
-0.61213842
-0.0008427332
-0.00041482145
-0.60889687
0.00094751053
-0.60847518
0.0010752734
-0.60804245
0.0011422295
-0.60756725
0.0012776641
-0.60702947
0.0014484555
-0.6064045
0.0016904594
-0.60566508
0.0020165557
-0.60477798
0.002462285
-0.60370361
0.003075006
-0.60239633
0.0039335075
-0.60080923
0.005165715
-0.59890674
0.0069880279
-0.5967201
0.0097996203
-0.59437032
0.014189642
-0.59258011
0.021944506
-0.59141244
0.032390612
-0.59902926
0.061933623
-0.60982971
0.077769099
-0.62181397
0.085446943
-0.63158603
0.083794739
-0.64170737
0.08396607
-0.64402495
0.06896127
-0.65510849
0.038652671
-0.66330456
0.035304729
-0.67098544
0.018377235
-0.68257764
0.0097963457
-0.69423071
0.021722053
-0.70185005
0.011938523
-0.70208332
-0.0014271638
-0.6955016
-0.051803499
-0.6691882
-0.077815453
-0.62604172
-0.095779978
-0.56491043
-0.25155671
-0.56642482
-0.085333509
-0.57744546
-0.050298852
-0.58562097
-0.031434257
-0.59262388
-0.019719837
-0.59771908
-0.013481344
-0.60153653
-0.0094426132
-0.60436751
-0.0069162239
-0.60650062
-0.0051673324
-0.60811758
-0.0039382669
-0.60935085
-0.0030263025
-0.61029035
-0.0023303372
-0.61099981
-0.001778727
-0.61152372
-0.0013272794
-0.61189318
-0.00094424987
-0.61212905
-0.00060686018
-0.00029892213
-0.5974176
0.00060435773
-0.59708683
0.00074450044
-0.59670641
0.00076181275
-0.59627622
0.00084747226
-0.59577342
0.00094565542
-0.59517285
0.0010898915
-0.59444057
0.0012842706
-0.59353103
0.0015527507
-0.59238141
0.0019253837
-0.59090198
0.0024540793
-0.58896101
0.0032247433
-0.58635299
0.0043800087
-0.58278604
0.0062326692
-0.57760788
0.0090114885
-0.57041337
0.014749993
-0.56099579
0.02297303
-0.57315651
0.038016391
-0.58994692
0.043107752
-0.59541202
0.047121716
-0.58118007
0.04262544
-0.48614194
0.04380752
-0.20207813
0.024238933
0
0
0
0
0
0
0
0
0
0
0
0
0
0
0
0
0
0
-0.25086902
0
-0.51606472
-0.14663628
-0.56674367
-0.034654561
-0.57828448
-0.038758034
-0.583983
-0.02573574
-0.59145649
-0.012246348
-0.59672591
-0.008211921
-0.60082548
-0.0053430437
-0.603854
-0.0038877057
-0.60614078
-0.0028805542
-0.60786865
-0.0022103898
-0.60918274
-0.0017122173
-0.61018054
-0.0013325415
-0.61093181
-0.001027451
-0.61148523
-0.00077386054
-0.61187473
-0.00055474918
-0.61212304
-0.00035855394
-0.00017705469
-0.42168227
-0.00039895906
-0.42040118
-0.00053658523
-0.41908876
-0.00055061214
-0.41761191
-0.00062937095
-0.41594771
-0.00071854651
-0.41400711
-0.00085071061
-0.41169283
-0.0010300069
-0.40886025
-0.0012798294
-0.40530512
-0.0016297483
-0.40072015
-0.0021308868