/*--------------------------------*- C++ -*----------------------------------*\
| =========                 |                                                 |
| \\      /  F ield         | foam-extend: Open Source CFD                    |
|  \\    /   O peration     | Version:     4.1                                |
|   \\  /    A nd           | Web:         http://www.foam-extend.org         |
|    \\/     M anipulation  |                                                 |
\*---------------------------------------------------------------------------*/
FoamFile
{
    version     2.0;
    format      ascii;
    class       volScalarField;
    location    "0.05";
    object      rAU;
}
// * * * * * * * * * * * * * * * * * * * * * * * * * * * * * * * * * * * * * //

dimensions      [0 0 1 0 0 0 0];

internalField   nonuniform List<scalar> 
4393
(
4.4622619e-05
4.4617144e-05
4.4612112e-05
4.4606799e-05
4.4601203e-05
4.4595265e-05
4.4588899e-05
4.4582043e-05
4.4574634e-05
4.4566618e-05
4.4557953e-05
4.4548614e-05
4.4538605e-05
4.4527961e-05
4.451675e-05
4.4505115e-05
4.4493203e-05
4.4481229e-05
4.4469458e-05
4.4458179e-05
4.4447706e-05
4.4438359e-05
4.4430448e-05
4.4424258e-05
4.4420022e-05
4.4417918e-05
4.4417918e-05
4.4418032e-05
4.4420369e-05
4.4424829e-05
4.4431197e-05
4.4439169e-05
4.4448364e-05
4.4458365e-05
4.4468747e-05
4.4479119e-05
4.4489138e-05
4.4498533e-05
4.4507105e-05
4.4514724e-05
4.452132e-05
4.452687e-05
4.4531388e-05
4.4534915e-05
4.4537506e-05
4.4539226e-05
4.4540144e-05
4.4539965e-05
4.453827e-05
4.4509449e-05
4.4505544e-05
4.4502673e-05
4.4499401e-05
4.4495852e-05
4.4491886e-05
4.4487433e-05
4.4482422e-05
4.4476797e-05
4.4470506e-05
4.4463519e-05
4.4455829e-05
4.444746e-05
4.4438479e-05
4.4428987e-05
4.4419173e-05
4.4409229e-05
4.4399417e-05
4.4390051e-05
4.4381455e-05
4.437397e-05
4.4367932e-05
4.4363649e-05
4.4361384e-05
4.4361335e-05
4.436362e-05
4.4365606e-05
4.4365804e-05
4.4368348e-05
4.4373235e-05
4.4380347e-05
4.4389447e-05
4.4400193e-05
4.4412165e-05
4.4424903e-05
4.443796e-05
4.4450923e-05
4.446345e-05
4.4475276e-05
4.4486214e-05
4.449615e-05
4.4505029e-05
4.4512843e-05
4.4519615e-05
4.4525392e-05
4.4530231e-05
4.4534179e-05
4.4536865e-05
4.4538114e-05
4.4502484e-05
4.4498816e-05
4.4495989e-05
4.4492702e-05
4.4489083e-05
4.4484981e-05
4.4480329e-05
4.4475053e-05
4.4469096e-05
4.4462412e-05
4.4454976e-05
4.4446793e-05
4.4437907e-05
4.4428408e-05
4.4418434e-05
4.4408211e-05
4.4397981e-05
4.4388056e-05
4.4378795e-05
4.4370569e-05
4.436375e-05
4.4358694e-05
4.4355713e-05
4.4355061e-05
4.4356903e-05
4.4361307e-05
4.4360718e-05
4.4358695e-05
4.4359213e-05
4.4362375e-05
4.4368151e-05
4.4376358e-05
4.4386672e-05
4.4398645e-05
4.4411755e-05
4.4425481e-05
4.4439323e-05
4.4452864e-05
4.4465769e-05
4.4477801e-05
4.4488808e-05
4.4498709e-05
4.4507483e-05
4.4515149e-05
4.4521751e-05
4.4527351e-05
4.4532002e-05
4.4535734e-05
4.4538154e-05
4.4499422e-05
4.4495974e-05
4.4493137e-05
4.4489746e-05
4.4485945e-05
4.4481579e-05
4.4476587e-05
4.4470891e-05
4.4464436e-05
4.4457174e-05
4.4449088e-05
4.444019e-05
4.4430542e-05
4.4420256e-05
4.4409504e-05
4.4398558e-05
4.4387707e-05
4.4377324e-05
4.4367825e-05
4.4359635e-05
4.4353172e-05
4.4348824e-05
4.434692e-05
4.4347713e-05
4.4351347e-05
4.4357847e-05
4.4354697e-05
4.4350369e-05
4.4348827e-05
4.4350288e-05
4.4354816e-05
4.4362279e-05
4.4372356e-05
4.4384555e-05
4.4398268e-05
4.4412877e-05
4.4427781e-05
4.4442481e-05
4.4456568e-05
4.446976e-05
4.4481868e-05
4.4492795e-05
4.450251e-05
4.4511034e-05
4.4518415e-05
4.452472e-05
4.4530012e-05
4.4534337e-05
4.4537231e-05
4.4496004e-05
4.4492607e-05
4.4489741e-05
4.448628e-05
4.4482352e-05
4.4477795e-05
4.4472543e-05
4.4466509e-05
4.4459633e-05
4.4451863e-05
4.4443177e-05
4.4433594e-05
4.4423181e-05
4.4412072e-05
4.4400468e-05
4.4388685e-05
4.4377068e-05
4.4366054e-05
4.4356128e-05
4.434778e-05
4.4341484e-05
4.4337673e-05
4.4336705e-05
4.4338845e-05
4.4344225e-05
4.4352837e-05
4.4347221e-05
4.4340411e-05
4.4336687e-05
4.43364e-05
4.4339717e-05
4.4346558e-05
4.4356594e-05
4.4369263e-05
4.4383835e-05
4.4399577e-05
4.4415758e-05
4.4431789e-05
4.4447186e-05
4.4461621e-05
4.4474878e-05
4.4486853e-05
4.4497513e-05
4.4506889e-05
4.4515041e-05
4.452205e-05
4.4527997e-05
4.4532949e-05
4.4536429e-05
4.4492653e-05
4.4489476e-05
4.4486701e-05
4.4483216e-05
4.4479171e-05
4.4474406e-05
4.4468858e-05
4.4462435e-05
4.445507e-05
4.4446707e-05
4.443732e-05
4.4426927e-05
4.4415604e-05
4.4403501e-05
4.4390851e-05
4.4378015e-05
4.43654e-05
4.4353519e-05
4.4342937e-05
4.4334222e-05
4.4327916e-05
4.4324509e-05
4.4324397e-05
4.4327868e-05
4.4335052e-05
4.4345912e-05
4.4338059e-05
4.4328611e-05
4.4322604e-05
4.432054e-05
4.4322712e-05
4.4329096e-05
4.4339349e-05
4.4352807e-05
4.4368571e-05
4.4385761e-05
4.4403488e-05
4.4421064e-05
4.4437922e-05
4.4453697e-05
4.4468152e-05
4.4481183e-05
4.4492771e-05
4.4502962e-05
4.4511837e-05
4.45195e-05
4.4526057e-05
4.4531607e-05
4.4535696e-05
4.4488888e-05
4.4485704e-05
4.4482935e-05
4.4479432e-05
4.447533e-05
4.4470452e-05
4.4464724e-05
4.4458038e-05
4.4450317e-05
4.4441488e-05
4.4431512e-05
4.4420396e-05
4.4408212e-05
4.4395119e-05
4.4381372e-05
4.4367378e-05
4.4353611e-05
4.4340673e-05
4.432922e-05
4.4319916e-05
4.4313386e-05
4.4310191e-05
4.4310777e-05
4.4315474e-05
4.432442e-05
4.4337565e-05
4.4327675e-05
4.4315244e-05
4.4306682e-05
4.4302677e-05
4.4303679e-05
4.4309728e-05
4.4320455e-05
4.4335051e-05
4.4352378e-05
4.4371376e-05
4.4390951e-05
4.4410308e-05
4.4428793e-05
4.4446012e-05
4.4461718e-05
4.4475822e-05
4.4488326e-05
4.4499305e-05
4.4508869e-05
4.4517149e-05
4.4524278e-05
4.4530384e-05
4.453504e-05
4.4485395e-05
4.4482533e-05
4.4479973e-05
4.4476539e-05
4.4472409e-05
4.4467404e-05
4.446145e-05
4.445443e-05
4.4446253e-05
4.4436829e-05
4.4426106e-05
4.4414074e-05
4.4400801e-05
4.4386449e-05
4.4371299e-05
4.4355809e-05
4.4340528e-05
4.4326169e-05
4.4313498e-05
4.4303296e-05
4.4296285e-05
4.4293114e-05
4.4294293e-05
4.430021e-05
4.4311023e-05
4.4326676e-05
4.4315199e-05
4.4299525e-05
4.42882e-05
4.4282141e-05
4.4282009e-05
4.4287926e-05
4.4299493e-05
4.431571e-05
4.433509e-05
4.4356361e-05
4.4378159e-05
4.4399587e-05
4.4419889e-05
4.4438665e-05
4.4455669e-05
4.4470847e-05
4.4484236e-05
4.4495953e-05
4.4506146e-05
4.4514983e-05
4.452263e-05
4.4529249e-05
4.4534441e-05
4.4481438e-05
4.4478523e-05
4.4475977e-05
4.4472566e-05
4.4468442e-05
4.44634e-05
4.4457351e-05
4.4450156e-05
4.4441702e-05
4.4431874e-05
4.4420587e-05
4.4407804e-05
4.4393567e-05
4.4378027e-05
4.4361474e-05
4.4344409e-05
4.4327463e-05
4.4311477e-05
4.4297351e-05
4.4286002e-05
4.4278269e-05
4.4274907e-05
4.4276497e-05
4.428351e-05
4.4296137e-05
4.4314335e-05
4.4301667e-05
4.4282165e-05
4.426758e-05
4.4259124e-05
4.4257741e-05
4.4263661e-05
4.4276446e-05
4.4294835e-05
4.4316821e-05
4.434089e-05
4.4365318e-05
4.4389117e-05
4.4411425e-05
4.4431858e-05
4.4450192e-05
4.4466427e-05
4.4480655e-05
4.4493046e-05
4.4503796e-05
4.4513114e-05
4.4521204e-05
4.4528261e-05
4.4533914e-05
4.4478045e-05
4.4475605e-05
4.447341e-05
4.4470187e-05
4.4466153e-05
4.4461101e-05
4.4454937e-05
4.4447507e-05
4.4438674e-05
4.4428292e-05
4.4416241e-05
4.4402448e-05
4.4386922e-05
4.4369799e-05
4.4351379e-05
4.4332214e-05
4.4313032e-05
4.4294848e-05
4.4278721e-05
4.4265745e-05
4.4256888e-05
4.4253034e-05
4.4254844e-05
4.4262911e-05
4.4277473e-05
4.4298517e-05
4.4285496e-05
4.4261756e-05
4.4243548e-05
4.4232445e-05
4.4229795e-05
4.4235983e-05
4.4250558e-05
4.4271913e-05
4.4297258e-05
4.4324822e-05
4.4352398e-05
4.437894e-05
4.4403471e-05
4.4425669e-05
4.4445354e-05
4.4462615e-05
4.4477616e-05
4.4490598e-05
4.4501816e-05
4.451153e-05
4.4519983e-05
4.4527406e-05
4.4533456e-05
4.447409e-05
4.4471539e-05
4.4469341e-05
4.4466169e-05
4.4462192e-05
4.4457174e-05
4.4451002e-05
4.4443495e-05
4.4434486e-05
4.4423789e-05
4.4411237e-05
4.4396699e-05
4.4380127e-05
4.4361608e-05
4.434142e-05
4.432015e-05
4.4298611e-05
4.4278033e-05
4.4259665e-05
4.424481e-05
4.4234584e-05
4.4230022e-05
4.4231858e-05
4.4240847e-05
4.4257277e-05
4.4281181e-05
4.4268572e-05
4.4239647e-05
4.4216945e-05
4.4202528e-05
4.4198334e-05
4.420495e-05
4.4221931e-05
4.4247215e-05
4.427677e-05
4.4308613e-05
4.4339863e-05
4.4369496e-05
4.439642e-05
4.4420434e-05
4.4441438e-05
4.4459644e-05
4.4475309e-05
4.4488765e-05
4.4500334e-05
4.4510329e-05
4.4519039e-05
4.4526728e-05
4.4533082e-05
4.4471028e-05
4.4469131e-05
4.4467447e-05
4.4464616e-05
4.4460892e-05
4.4456036e-05
4.4449931e-05
4.4442371e-05
4.4433152e-05
4.4422038e-05
4.4408797e-05
4.4393226e-05
4.4375203e-05
4.4354748e-05
4.4332115e-05
4.4307933e-05
4.4283126e-05
4.4259237e-05
4.4237757e-05
4.422026e-05
4.4208019e-05
4.4202248e-05
4.420373e-05
4.4213469e-05
4.4231826e-05
4.4258915e-05
4.4248232e-05
4.4213503e-05
4.4185703e-05
4.4167463e-05
4.4161588e-05
4.4168972e-05
4.4189293e-05
4.4219936e-05
4.4254876e-05
4.4292063e-05
4.4327669e-05
4.4360841e-05
4.4390361e-05
4.4416251e-05
4.4438528e-05
4.4457578e-05
4.4473781e-05
4.4487576e-05
4.4499364e-05
4.4509518e-05
4.4518374e-05
4.4526229e-05
4.4532795e-05
4.4467314e-05
4.446524e-05
4.4463522e-05
4.4460754e-05
4.4457123e-05
4.4452362e-05
4.4446331e-05
4.4438796e-05
4.4429519e-05
4.4418214e-05
4.4404581e-05
4.438833e-05
4.436923e-05
4.4347194e-05
4.4322383e-05
4.4295425e-05
4.4267296e-05
4.4239957e-05
4.4215167e-05
4.4194834e-05
4.418038e-05
4.4173241e-05
4.417419e-05
4.4184594e-05
4.4204852e-05
4.4235112e-05
4.4227829e-05
4.4185782e-05
4.4151353e-05
4.4127983e-05
4.4119819e-05
4.4128145e-05
4.4152895e-05
4.4190778e-05
4.4232439e-05
4.4276147e-05
4.4316727e-05
4.4353769e-05
4.4385943e-05
4.4413628e-05
4.4437013e-05
4.4456711e-05
4.4473249e-05
4.4487192e-05
4.4499023e-05
4.4509182e-05
4.4518044e-05
4.4525941e-05
4.4532607e-05
4.4464791e-05
4.4463538e-05
4.4462499e-05
4.4460251e-05
4.4457083e-05
4.4452728e-05
4.4447043e-05
4.4439767e-05
4.443061e-05
4.4419211e-05
4.4405169e-05
4.438806e-05
4.4367504e-05
4.4343252e-05
4.4315342e-05
4.4284401e-05
4.4251465e-05
4.4219176e-05
4.4189657e-05
4.4165276e-05
4.4147587e-05
4.4138285e-05
4.4137971e-05
4.4148577e-05
4.4170552e-05
4.4204142e-05
4.4202925e-05
4.4152635e-05
4.4110605e-05
4.4081079e-05
4.4070195e-05
4.4079808e-05
4.4110538e-05
4.4158499e-05
4.4208694e-05
4.4260552e-05
4.4306931e-05
4.4348302e-05
4.4383232e-05
4.4412643e-05
4.4436961e-05
4.4457097e-05
4.4473754e-05
4.448764e-05
4.4499331e-05
4.4509331e-05
4.4518057e-05
4.4525871e-05
4.4532525e-05
4.4461621e-05
4.4460155e-05
4.4459056e-05
4.4456882e-05
4.4453834e-05
4.4449624e-05
4.4444085e-05
4.4436931e-05
4.442784e-05
4.4416398e-05
4.4402121e-05
4.4384467e-05
4.4362889e-05
4.433693e-05
4.4306404e-05
4.4271843e-05
4.4234136e-05
4.4196889e-05
4.4162594e-05
4.4134172e-05
4.4113209e-05
4.4101753e-05
4.4099989e-05
4.411085e-05
4.4134756e-05
4.4171786e-05
4.4179509e-05
4.4118647e-05
4.4066259e-05
4.4027855e-05
4.4012878e-05
4.402386e-05
4.4062596e-05
4.41248e-05
4.418561e-05
4.4247346e-05
4.4300063e-05
4.4345872e-05
4.4383302e-05
4.4414066e-05
4.4438909e-05
4.4459099e-05
4.4475538e-05
4.4489082e-05
4.4500396e-05
4.4510037e-05
4.4518459e-05
4.4526044e-05
4.4532558e-05
4.4459763e-05
4.4459208e-05
4.4458913e-05
4.4457434e-05
4.4455083e-05
4.4451586e-05
4.444678e-05
4.4440357e-05
4.4431943e-05
4.4421034e-05
4.4407004e-05
4.4389101e-05
4.4366498e-05
4.4338385e-05
4.4304203e-05
4.4264345e-05
4.4219385e-05
4.4174654e-05
4.4133206e-05
4.4098804e-05
4.4072967e-05
4.4058256e-05
4.4053784e-05
4.4064e-05
4.4089149e-05
4.4129044e-05
4.4150158e-05
4.4077202e-05
4.4012966e-05
4.3963676e-05
4.3943552e-05
4.3955888e-05
4.4005109e-05
4.4087817e-05
4.4161869e-05
4.4235844e-05
4.4295692e-05
4.4346229e-05
4.4386001e-05
4.4417806e-05
4.4442802e-05
4.4462686e-05
4.4478583e-05
4.4491508e-05
4.450221e-05
4.4511298e-05
4.4519251e-05
4.4526464e-05
4.4532711e-05
4.4457576e-05
4.4456856e-05
4.4456529e-05
4.4455162e-05
4.4452978e-05
4.4449686e-05
4.4445106e-05
4.443891e-05
4.4430696e-05
4.4419909e-05
4.4405839e-05
4.4387591e-05
4.4364113e-05
4.4334261e-05
4.4297006e-05
4.425248e-05
4.4200249e-05
4.4148257e-05
4.4100017e-05
4.4060274e-05
4.4030004e-05
4.4012484e-05
4.4004756e-05
4.4014389e-05
4.4041615e-05
4.4085287e-05
4.4125615e-05
4.403751e-05
4.3956453e-05
4.3890082e-05
4.3861405e-05
4.3874548e-05
4.3938098e-05
4.4051745e-05
4.4142146e-05
4.4230552e-05
4.4297438e-05
4.4352032e-05
4.4393159e-05
4.4425058e-05
4.4449393e-05
4.4468315e-05
4.4483163e-05
4.4495078e-05
4.4504867e-05
4.4513167e-05
4.4520462e-05
4.4527147e-05
4.453299e-05
4.4456326e-05
4.4456452e-05
4.4456943e-05
4.4456378e-05
4.4455087e-05
4.4452812e-05
4.4449401e-05
4.4444531e-05
4.4437783e-05
4.4428538e-05
4.4415944e-05
4.4398844e-05
4.4375744e-05
4.4344817e-05
4.430406e-05
4.4253048e-05
4.4189305e-05
4.4125682e-05
4.4066536e-05
4.4018203e-05
4.3980786e-05
4.3959178e-05
4.3946271e-05
4.3954392e-05
4.3982878e-05
4.402786e-05
4.4082981e-05
4.3987177e-05
4.388695e-05
4.3799826e-05
4.3760776e-05
4.3773111e-05
4.3854193e-05
4.4014028e-05
4.4123804e-05
4.4229395e-05
4.4303602e-05
4.4361977e-05
4.440385e-05
4.4435182e-05
4.4458258e-05
4.4475711e-05
4.44891e-05
4.4499678e-05
4.4508298e-05
4.4515603e-05
4.4522071e-05
4.4528083e-05
4.4533394e-05
4.4456415e-05
4.445656e-05
4.4457157e-05
4.4456823e-05
4.4455825e-05
4.4453898e-05
4.4450877e-05
4.4446428e-05
4.4440106e-05
4.4431245e-05
4.4418906e-05
4.4401769e-05
4.4378061e-05
4.4345485e-05
4.4301144e-05
4.4244263e-05
4.4168051e-05
4.4093212e-05
4.4024481e-05
4.3970098e-05
4.3927668e-05
4.3904243e-05
4.3883969e-05
4.3889224e-05
4.3920017e-05
4.3969493e-05
4.4031851e-05
4.3947345e-05
4.3820221e-05
4.3697047e-05
4.3637508e-05
4.3645092e-05
4.3750545e-05
4.3985445e-05
4.4118966e-05
4.4242706e-05
4.4321929e-05
4.438122e-05
4.4421329e-05
4.4450105e-05
4.4470495e-05
4.4485471e-05
4.4496706e-05
4.4505464e-05
4.4512574e-05
4.4518637e-05
4.452409e-05
4.4529277e-05
4.4533923e-05
4.4458464e-05
4.4459171e-05
4.4460433e-05
4.4460866e-05
4.4460826e-05
4.4460096e-05
4.4458577e-05
4.4456005e-05
4.4452005e-05
4.4445965e-05
4.4436947e-05
4.4423489e-05
4.4403384e-05
4.4373354e-05
4.4328304e-05
4.4265883e-05
4.4170011e-05
4.4076402e-05
4.3991233e-05
4.3925368e-05
4.3872352e-05
4.3845306e-05
4.3814261e-05
4.3817912e-05
4.3855639e-05
4.3906066e-05
4.3953539e-05
4.389617e-05
4.3735669e-05
4.3569664e-05
4.3490065e-05
4.3485777e-05
4.3614567e-05
4.3963107e-05
4.4120437e-05
4.4262739e-05
4.4346139e-05
4.4405076e-05
4.4442463e-05
4.4467796e-05
4.4484838e-05
4.4496813e-05
4.4505503e-05
4.4512146e-05
4.451752e-05
4.4522165e-05
4.4526459e-05
4.4530699e-05
4.4534569e-05
4.4475212e-05
4.4476301e-05
4.4477989e-05
4.4478935e-05
4.4479505e-05
4.4479493e-05
4.4478812e-05
4.4477201e-05
4.4474278e-05
4.4469394e-05
4.4461521e-05
4.4449e-05
4.4429229e-05
4.4398285e-05
4.4349304e-05
4.4280492e-05
4.4159512e-05
4.4047239e-05
4.3948942e-05
4.3879355e-05
4.3823723e-05
4.3805262e-05
4.3758074e-05
4.3753987e-05
4.379355e-05
4.3847078e-05
4.3890697e-05
4.3893319e-05
4.3697508e-05
4.345274e-05
4.3316825e-05
4.3277625e-05
4.3434284e-05
4.3977022e-05
4.4164526e-05
4.4315606e-05
4.4394149e-05
4.4444213e-05
4.4473328e-05
4.4491512e-05
4.4502959e-05
4.4510551e-05
4.4515861e-05
4.4519871e-05
4.4523183e-05
4.4526191e-05
4.4529171e-05
4.4532339e-05
4.4535323e-05
4.4507636e-05
4.450883e-05
4.4510892e-05
4.4512439e-05
4.4513867e-05
4.4515027e-05
4.4515927e-05
4.4516447e-05
4.4516402e-05
4.4515422e-05
4.4512839e-05
4.4507426e-05
4.44969e-05
4.4477316e-05
4.4438529e-05
4.4375973e-05
4.4218402e-05
4.4074052e-05
4.395367e-05
4.3873807e-05
4.3803772e-05
4.3785667e-05
4.3709684e-05
4.3700213e-05
4.3778344e-05
4.3858783e-05
4.3841302e-05
4.386652e-05
4.364241e-05
4.3298903e-05
4.3146065e-05
4.3070126e-05
4.3219355e-05
4.4027474e-05
4.421824e-05
4.4368705e-05
4.4443594e-05
4.4484146e-05
4.4505372e-05
4.4516268e-05
4.452202e-05
4.4525065e-05
4.4526854e-05
4.4528106e-05
4.4529252e-05
4.4530535e-05
4.4532123e-05
4.4534145e-05
4.4536168e-05
4.4556102e-05
4.455804e-05
4.4560859e-05
4.4563221e-05
4.4565632e-05
4.4567991e-05
4.4570367e-05
4.4572702e-05
4.4574883e-05
4.45766e-05
4.4577197e-05
4.4575326e-05
4.4568099e-05
4.4550592e-05
4.4507697e-05
4.4439195e-05
4.4216083e-05
4.4033358e-05
4.3890451e-05
4.3810949e-05
4.3734708e-05
4.3772119e-05
3.5423444e-05
3.5319404e-05
3.5249789e-05
3.5166634e-05
3.4926888e-05
3.4833654e-05
3.4771544e-05
3.4969835e-05
3.5247477e-05
3.5743418e-05
4.2975701e-05
4.4228505e-05
4.4417286e-05
4.4501836e-05
4.4539206e-05
4.4548283e-05
4.4550041e-05
4.4547622e-05
4.4544571e-05
4.4541491e-05
4.453894e-05
4.4537007e-05
4.4535754e-05
4.4535179e-05
4.4535287e-05
4.4536092e-05
4.4537088e-05
4.4650981e-05
4.4652068e-05
4.465457e-05
4.4656922e-05
4.4659564e-05
4.4662433e-05
4.4665676e-05
4.4669379e-05
4.4673666e-05
4.4678626e-05
4.4684288e-05
4.4690567e-05
4.4696605e-05
4.4702907e-05
4.4698418e-05
4.4690204e-05
3.6027276e-05
3.606128e-05
3.6036828e-05
3.6209873e-05
3.6736996e-05
3.97771e-05
4.8052935e-05
4.9995665e-05
4.9995665e-05
4.9995665e-05
4.9995665e-05
4.9995665e-05
4.9981394e-05
4.9482819e-05
4.9229253e-05
4.9055646e-05
3.4930197e-05
4.4626264e-05
4.4501936e-05
4.4560053e-05
4.4607905e-05
4.4598073e-05
4.458828e-05
4.4575767e-05
4.4565595e-05
4.455719e-05
4.4550709e-05
4.45458e-05
4.4542257e-05
4.4539877e-05
4.4538524e-05
4.4538111e-05
4.4538055e-05
4.6097997e-05
4.6105964e-05
4.6116865e-05
4.6128038e-05
4.6140611e-05
4.61548e-05
4.6171349e-05
4.61911e-05
4.6215298e-05
4.6245704e-05
4.6284976e-05
4.6337268e-05
4.6409229e-05
4.6513025e-05
4.6665051e-05
3.5716529e-05
4.8511428e-05
4.9995665e-05
4.9995665e-05
4.9995665e-05
4.9995665e-05
4.9995665e-05
4.9995665e-05
4.9995665e-05
4.9995665e-05
4.9995665e-05
4.9995665e-05
4.9995665e-05
4.9995665e-05
4.9995665e-05
4.9995665e-05
4.9995665e-05
4.7255651e-05
3.098451e-05
4.506392e-05
4.4849433e-05
4.4746376e-05
4.4680676e-05
4.4638389e-05
4.4608895e-05
4.4588468e-05
4.4573585e-05
4.4562699e-05
4.4554657e-05
4.4548782e-05
4.4544598e-05
4.4541795e-05
4.4540166e-05
4.453905e-05
4.4668323e-05
4.4669433e-05
4.4671955e-05
4.4674358e-05
4.4677068e-05
4.4680033e-05
4.4683397e-05
4.4687254e-05
4.4691733e-05
4.4696931e-05
4.4702891e-05
4.4709549e-05
4.4716082e-05
4.4723094e-05
4.4719791e-05
4.4713591e-05
3.6057816e-05
3.6092079e-05
3.6069587e-05
3.6241776e-05
3.6772186e-05
3.9805447e-05
4.8059796e-05
4.9995665e-05
4.9995665e-05
4.9995665e-05
4.9995665e-05
4.9995665e-05
4.9978895e-05
4.9485464e-05
4.923433e-05
4.9066914e-05
3.4914561e-05
4.4502607e-05
4.4962183e-05
4.4812276e-05
4.4726014e-05
4.4673879e-05
4.4636336e-05
4.4609679e-05
4.4590299e-05
4.457587e-05
4.4565017e-05
4.4556825e-05
4.4550682e-05
4.454617e-05
4.4542999e-05
4.454098e-05
4.453946e-05
4.4572691e-05
4.4574684e-05
4.4577555e-05
4.4579995e-05
4.4582503e-05
4.4584985e-05
4.4587511e-05
4.4590029e-05
4.4592431e-05
4.4594413e-05
4.4595328e-05
4.4593839e-05
4.4587066e-05
4.4570091e-05
4.4527788e-05
4.4460222e-05
4.4235939e-05
4.4052795e-05
4.3909708e-05
4.3829164e-05
4.3752617e-05
4.3788453e-05
3.5444651e-05
3.5338414e-05
3.5267044e-05
3.518176e-05
3.4942774e-05
3.4847363e-05
3.4782645e-05
3.4980275e-05
3.5259986e-05
3.5727883e-05
4.2876182e-05
4.4076909e-05
4.4557725e-05
4.4609388e-05
4.4624433e-05
4.4611252e-05
4.4596706e-05
4.458325e-05
4.4572075e-05
4.4563108e-05
4.4555995e-05
4.455045e-05
4.454621e-05
4.4543093e-05
4.4540967e-05
4.4539754e-05
4.4538881e-05
4.4521015e-05
4.4522278e-05
4.4524417e-05
4.4526066e-05
4.4527619e-05
4.4528933e-05
4.4530018e-05
4.4530761e-05
4.4530986e-05
4.453033e-05
4.452814e-05
4.4523204e-05
4.4513257e-05
4.449437e-05
4.445635e-05
4.4394665e-05
4.4236545e-05
4.4092237e-05
4.3972213e-05
4.3892527e-05
4.3823131e-05
4.3805374e-05
4.3729813e-05
4.3721266e-05
4.379902e-05
4.3879654e-05
4.3864015e-05
4.387916e-05
4.3640763e-05
4.3291033e-05
4.3125497e-05
4.3030746e-05
4.3120006e-05
4.3952444e-05
4.4343059e-05
4.4464863e-05
4.452413e-05
4.4543942e-05
4.4550795e-05
4.4551145e-05
4.4549183e-05
4.4546469e-05
4.4543771e-05
4.4541434e-05
4.4539603e-05
4.453835e-05
4.4537714e-05
4.4537734e-05
4.4537916e-05
4.447946e-05
4.4480612e-05
4.448237e-05
4.4483408e-05
4.4484087e-05
4.4484207e-05
4.4483682e-05
4.4482254e-05
4.4479547e-05
4.4474915e-05
4.4467334e-05
4.4455152e-05
4.443577e-05
4.4405266e-05
4.4356743e-05
4.4288472e-05
4.4167382e-05
4.4055213e-05
4.3957051e-05
4.3887461e-05
4.3832032e-05
4.3813522e-05
4.3766332e-05
4.3762778e-05
4.3802821e-05
4.385762e-05
4.3903533e-05
4.3886005e-05
4.3686902e-05
4.3437921e-05
4.3294273e-05
4.3243659e-05
4.3367499e-05
4.3921189e-05
4.4218899e-05
4.436831e-05
4.4450349e-05
4.4490884e-05
4.4512256e-05
4.4522918e-05
4.4528302e-05
4.4530905e-05
4.4532145e-05
4.4532777e-05
4.4533235e-05
4.4533782e-05
4.4534593e-05
4.453581e-05
4.4537007e-05
4.4458273e-05
4.445904e-05
4.446037e-05
4.4460892e-05
4.4460959e-05
4.4460355e-05
4.4458985e-05
4.4456586e-05
4.4452785e-05
4.4446972e-05
4.4438212e-05
4.4425041e-05
4.4405246e-05
4.4375534e-05
4.4330765e-05
4.4268583e-05
4.4172539e-05
4.4078874e-05
4.3993672e-05
4.3927743e-05
4.3874816e-05
4.3847804e-05
4.3816889e-05
4.3820872e-05
4.385884e-05
4.391011e-05
4.3959294e-05
4.3880666e-05
4.3716425e-05
4.3545729e-05
4.3459666e-05
4.3449311e-05
4.3566896e-05
4.3935442e-05
4.4161259e-05
4.4305675e-05
4.4393594e-05
4.4445802e-05
4.4477454e-05
4.449659e-05
4.4508471e-05
4.4516005e-05
4.4520984e-05
4.4524476e-05
4.452715e-05
4.4529442e-05
4.4531654e-05
4.4534017e-05
4.4536171e-05
4.4453984e-05
4.4454196e-05
4.4454866e-05
4.4454622e-05
4.4453729e-05
4.4451925e-05
4.4449046e-05
4.444476e-05
4.4438623e-05
4.442997e-05
4.4417864e-05
4.4400982e-05
4.437755e-05
4.4345259e-05
4.4301185e-05
4.4244548e-05
4.4168354e-05
4.4093565e-05
4.4024868e-05
4.3970506e-05
4.3928201e-05
4.3904925e-05
4.3884987e-05
4.3890902e-05
4.3922578e-05
4.3973501e-05
4.4037981e-05
4.3932378e-05
4.3802501e-05
4.3676119e-05
4.3612557e-05
4.3616661e-05
4.3717012e-05
4.3965395e-05
4.4139365e-05
4.4269541e-05
4.4355902e-05
4.4412977e-05
4.4450396e-05
4.447508e-05
4.4491649e-05
4.4503016e-05
4.4511067e-05
4.451701e-05
4.4521644e-05
4.4525511e-05
4.4528999e-05
4.4532409e-05
4.4535431e-05
4.4452772e-05
4.4452963e-05
4.4453524e-05
4.4453048e-05
4.4451861e-05
4.4449706e-05
4.4446432e-05
4.4441718e-05
4.4435143e-05
4.4426089e-05
4.4413704e-05
4.4396824e-05
4.437395e-05
4.4343241e-05
4.4302674e-05
4.4251812e-05
4.4188089e-05
4.4124506e-05
4.4065399e-05
4.401712e-05
4.3979838e-05
4.3958411e-05
4.3945819e-05
4.3954468e-05
4.3983708e-05
4.4029945e-05
4.4077645e-05
4.3970425e-05
4.3868027e-05
4.3778724e-05
4.3737701e-05
4.3749634e-05
4.3831392e-05
4.4003397e-05
4.413886e-05
4.4250825e-05
4.4331097e-05
4.4388628e-05
4.4428885e-05
4.4457191e-05
4.4477242e-05
4.449168e-05
4.4502312e-05
4.451038e-05
4.4516747e-05
4.4522024e-05
4.4526661e-05
4.4531009e-05
4.4534797e-05
4.4453378e-05
4.4452734e-05
4.4452487e-05
4.4451216e-05
4.4449141e-05
4.4445974e-05
4.4441535e-05
4.4435497e-05
4.442746e-05
4.4416868e-05
4.440301e-05
4.438499e-05
4.4361751e-05
4.433214e-05
4.4295112e-05
4.4250792e-05
4.4198694e-05
4.4146847e-05
4.409876e-05
4.4059206e-05
4.4029215e-05
4.401207e-05
4.4004893e-05
4.401532e-05
4.4043602e-05
4.4088737e-05
4.4112621e-05
4.4022903e-05
4.3940167e-05
4.3872205e-05
4.3842288e-05
4.3855533e-05
4.3920711e-05
4.4043275e-05
4.4150234e-05
4.4245012e-05
4.4317641e-05
4.437295e-05
4.4413709e-05
4.4443773e-05
4.4465962e-05
4.4482528e-05
4.4495092e-05
4.4504839e-05
4.4512627e-05
4.4519089e-05
4.4524703e-05
4.452985e-05
4.4534283e-05
4.445486e-05
4.4454376e-05
4.4454158e-05
4.4452772e-05
4.4450526e-05
4.4447149e-05
4.4442477e-05
4.4436203e-05
4.4427954e-05
4.4417222e-05
4.4403383e-05
4.438568e-05
4.4363281e-05
4.433537e-05
4.430138e-05
4.4261698e-05
4.4216876e-05
4.4172297e-05
4.4131017e-05
4.4096824e-05
4.4071274e-05
4.4056941e-05
4.4053001e-05
4.4063966e-05
4.4090133e-05
4.4131446e-05
4.4136773e-05
4.4062675e-05
4.3997409e-05
4.3947385e-05
4.392714e-05
4.3940687e-05
4.3992687e-05
4.4082633e-05
4.4167878e-05
4.4247299e-05
4.4311806e-05
4.4363456e-05
4.4403297e-05
4.4433902e-05
4.4457298e-05
4.4475298e-05
4.4489287e-05
4.4500341e-05
4.4509273e-05
4.4516709e-05
4.4523132e-05
4.4528937e-05
4.4533891e-05
4.4456267e-05
4.4454886e-05
4.4453874e-05
4.4451801e-05
4.4448865e-05
4.4444781e-05
4.4439382e-05
4.4432383e-05
4.4423463e-05
4.4412206e-05
4.4398128e-05
4.4380685e-05
4.4359327e-05
4.4333592e-05
4.4303288e-05
4.4268945e-05
4.4231441e-05
4.4194416e-05
4.416037e-05
4.4132251e-05
4.4111675e-05
4.4100713e-05
4.4099597e-05
4.41113e-05
4.413628e-05
4.4174686e-05
4.4167336e-05
4.4105554e-05
4.4052387e-05
4.4013526e-05
4.3998694e-05
4.4010953e-05
4.405237e-05
4.412017e-05
4.4188866e-05
4.4255377e-05
4.431213e-05
4.4359466e-05
4.4397422e-05
4.4427589e-05
4.4451353e-05
4.4470114e-05
4.4485008e-05
4.4496973e-05
4.450675e-05
4.4514927e-05
4.4521975e-05
4.4528285e-05
4.4533625e-05
4.4458858e-05
4.4457681e-05
4.4456724e-05
4.4454573e-05
4.4451512e-05
4.4447278e-05
4.4441726e-05
4.4434595e-05
4.4425597e-05
4.4414368e-05
4.4400509e-05
4.4383592e-05
4.4363236e-05
4.4339188e-05
4.4311484e-05
4.4280753e-05
4.4248026e-05
4.4215968e-05
4.4186713e-05
4.416265e-05
4.4145361e-05
4.4136565e-05
4.4136903e-05
4.4148353e-05
4.4171406e-05
4.4206365e-05
4.4191092e-05
4.4140268e-05
4.4097902e-05
4.4068402e-05
4.4058129e-05
4.4069291e-05
4.4102681e-05
4.4155123e-05
4.4211037e-05
4.4266836e-05
4.4316494e-05
4.435938e-05
4.4394961e-05
4.4424093e-05
4.444766e-05
4.4466693e-05
4.448209e-05
4.4494644e-05
4.4505006e-05
4.4513715e-05
4.4521216e-05
4.4527885e-05
4.4533481e-05
4.4460997e-05
4.4459014e-05
4.4457388e-05
4.4454724e-05
4.4451207e-05
4.4446572e-05
4.4440678e-05
4.4433294e-05
4.4424181e-05
4.4413052e-05
4.4399608e-05
4.4383556e-05
4.4364666e-05
4.4342848e-05
4.4318263e-05
4.4291538e-05
4.4263653e-05
4.4236585e-05
4.4212103e-05
4.4192135e-05
4.4178125e-05
4.417153e-05
4.4173155e-05
4.4184393e-05
4.4205673e-05
4.423718e-05
4.4216797e-05
4.4174365e-05
4.413976e-05
4.4116564e-05
4.4109106e-05
4.4118915e-05
4.4146048e-05
4.4187537e-05
4.4233543e-05
4.4280594e-05
4.4323965e-05
4.4362536e-05
4.4395488e-05
4.442317e-05
4.444609e-05
4.4464974e-05
4.448051e-05
4.4493346e-05
4.4504041e-05
4.4513075e-05
4.4520856e-05
4.4527734e-05
4.4533458e-05
4.4464244e-05
4.4462428e-05
4.4460831e-05
4.44581e-05
4.4454485e-05
4.4449749e-05
4.4443775e-05
4.4436358e-05
4.4427294e-05
4.4416346e-05
4.4403283e-05
4.4387901e-05
4.4370076e-05
4.4349831e-05
4.4327418e-05
4.430347e-05
4.4278913e-05
4.4255305e-05
4.4234148e-05
4.4217032e-05
4.4205251e-05
4.420004e-05
4.4202211e-05
4.4212792e-05
4.4232169e-05
4.426048e-05
4.4237839e-05
4.4202975e-05
4.4175249e-05
4.4157402e-05
4.4152376e-05
4.4161219e-05
4.4183674e-05
4.4217243e-05
4.425553e-05
4.4295466e-05
4.4333371e-05
4.4367934e-05
4.4398223e-05
4.4424245e-05
4.4446237e-05
4.4464679e-05
4.4480079e-05
4.4492955e-05
4.4503773e-05
4.4512952e-05
4.4520859e-05
4.4527814e-05
4.4533545e-05
4.4466984e-05
4.4464527e-05
4.4462426e-05
4.445936e-05
4.4455497e-05
4.4450603e-05
4.4444566e-05
4.4437205e-05
4.4428353e-05
4.4417824e-05
4.4405452e-05
4.4391106e-05
4.4374738e-05
4.4356433e-05
4.4336474e-05
4.4315448e-05
4.4294174e-05
4.4273892e-05
4.4255861e-05
4.42414e-05
4.4231639e-05
4.4227632e-05
4.4230132e-05
4.4239912e-05
4.4257278e-05
4.428228e-05
4.425879e-05
4.4229837e-05
4.4207312e-05
4.4193365e-05
4.4190035e-05
4.4198009e-05
4.4216874e-05
4.4244584e-05
4.4276824e-05
4.4310988e-05
4.4344193e-05
4.4375114e-05
4.4402804e-05
4.4427058e-05
4.4447923e-05
4.4465692e-05
4.4480727e-05
4.4493427e-05
4.4504176e-05
4.4513332e-05
4.4521216e-05
4.4528117e-05
4.4533738e-05
4.4470566e-05
4.4468213e-05
4.4466108e-05
4.4462987e-05
4.4459063e-05
4.4454131e-05
4.4448096e-05
4.4440806e-05
4.4432125e-05
4.4421904e-05
4.4410027e-05
4.439642e-05
4.4381093e-05
4.4364181e-05
4.4345988e-05
4.432707e-05
4.430816e-05
4.4290281e-05
4.4274503e-05
4.4261933e-05
4.4253553e-05
4.4250263e-05
4.4252742e-05
4.4261594e-05
4.4277071e-05
4.4299166e-05
4.4276421e-05
4.4252801e-05
4.4234893e-05
4.4224341e-05
4.4222563e-05
4.4230007e-05
4.4246225e-05
4.4269589e-05
4.4297094e-05
4.4326582e-05
4.435579e-05
4.4383465e-05
4.4408705e-05
4.443118e-05
4.4450814e-05
4.4467758e-05
4.4482259e-05
4.4494618e-05
4.4505144e-05
4.4514138e-05
4.4521877e-05
4.4528613e-05
4.4534025e-05
4.4473693e-05
4.4470876e-05
4.4468429e-05
4.4465125e-05
4.4461114e-05
4.4456195e-05
4.4450276e-05
4.4443222e-05
4.4434919e-05
4.4425252e-05
4.4414138e-05
4.440154e-05
4.4387499e-05
4.437217e-05
4.4355844e-05
4.4339026e-05
4.4322352e-05
4.430667e-05
4.4292889e-05
4.4281938e-05
4.4274666e-05
4.4271842e-05
4.4274058e-05
4.4281798e-05
4.4295261e-05
4.4314407e-05
4.4293128e-05
4.4273822e-05
4.4259601e-05
4.4251729e-05
4.4251198e-05
4.4258274e-05
4.4272511e-05
4.4292602e-05
4.4316381e-05
4.434208e-05
4.4367901e-05
4.4392711e-05
4.4415677e-05
4.4436412e-05
4.445476e-05
4.4470773e-05
4.4484609e-05
4.4496489e-05
4.4506657e-05
4.4515362e-05
4.4522837e-05
4.45293e-05
4.4534402e-05
4.4477358e-05
4.4474586e-05
4.4472119e-05
4.4468788e-05
4.4464768e-05
4.4459882e-05
4.4454055e-05
4.4447171e-05
4.4439141e-05
4.4429875e-05
4.4419319e-05
4.4407469e-05
4.4394389e-05
4.4380247e-05
4.4365324e-05
4.4350083e-05
4.4335078e-05
4.4321027e-05
4.4308708e-05
4.4298908e-05
4.429236e-05
4.4289725e-05
4.4291522e-05
4.4298145e-05
4.4309758e-05
4.4325903e-05
4.4307343e-05
4.4291946e-05
4.4281041e-05
4.4275585e-05
4.4276269e-05
4.4283235e-05
4.4296066e-05
4.4313718e-05
4.4334582e-05
4.4357218e-05
4.4380186e-05
4.4402489e-05
4.4423377e-05
4.4442445e-05
4.4459496e-05
4.4474515e-05
4.4487591e-05
4.4498887e-05
4.4508591e-05
4.4516905e-05
4.4524025e-05
4.4530136e-05
4.4534855e-05
4.4480631e-05
4.4477547e-05
4.4474877e-05
4.4471481e-05
4.4467491e-05
4.4462732e-05
4.445713e-05
4.445058e-05
4.4443003e-05
4.4434328e-05
4.4424516e-05
4.4413576e-05
4.4401581e-05
4.4388692e-05
4.4375167e-05
4.4361414e-05
4.4347914e-05
4.4335274e-05
4.4324159e-05
4.4315238e-05
4.4309146e-05
4.4306453e-05
4.4307614e-05
4.4312963e-05
4.4322642e-05
4.4335547e-05
4.4320327e-05
4.4308228e-05
4.4300124e-05
4.4296731e-05
4.4298517e-05
4.430553e-05
4.4317379e-05
4.4333211e-05
4.4351794e-05
4.4371952e-05
4.4392524e-05
4.4412643e-05
4.4431648e-05