/*--------------------------------*- C++ -*----------------------------------*\
| =========                 |                                                 |
| \\      /  F ield         | foam-extend: Open Source CFD                    |
|  \\    /   O peration     | Version:     4.1                                |
|   \\  /    A nd           | Web:         http://www.foam-extend.org         |
|    \\/     M anipulation  |                                                 |
\*---------------------------------------------------------------------------*/
FoamFile
{
    version     2.0;
    format      ascii;
    class       volScalarField;
    location    "0.3";
    object      p;
}
// * * * * * * * * * * * * * * * * * * * * * * * * * * * * * * * * * * * * * //

dimensions      [0 2 -2 0 0 0 0];

internalField   nonuniform List<scalar> 
16796
(
13.265753
58.5803
95.044504
131.9135
166.86156
200.74424
233.26729
264.30676
293.6904
321.3478
347.1646
371.03506
392.86821
412.58947
430.14286
445.49173
458.61884
469.52586
478.23241
484.7749
489.20488
491.58781
492.00158
490.53586
487.29206
482.4029
476.04762
468.17004
458.68498
447.72238
435.36709
421.67748
406.71343
390.53063
373.18308
354.72364
335.20532
314.68192
293.20926
270.84552
247.65208
223.69365
199.03787
173.75555
147.91956
121.60427
94.884411
67.83414
40.525993
13.029952
-14.587142
-42.261914
-69.934366
-97.547232
-125.04484
-152.37152
-179.46942
-206.27594
-232.72097
-258.72383
-284.19028
-309.00983
-333.05333
-356.17107
-378.19141
-398.92083
-418.14506
-435.62845
-451.11167
-464.34611
-475.09632
-483.09242
-488.05701
-489.73663
-487.8969
-482.33003
-472.86012
-459.34859
-441.69882
-419.85977
-393.82859
-363.65182
-329.42545
-291.29365
-249.44627
-204.11524
-155.57008
-104.11258
-50.070938
6.2064606
64.357348
124.01184
184.79842
246.34954
308.30666
370.32461
432.07536
493.25099
553.56592
612.75855
670.59214
726.85521
781.36134
833.9486
884.47857
932.8351
978.92286
1022.6658
1064.0055
1102.8995
1139.3201
1173.2539
1204.6943
1233.645
1260.1256
1284.1663
1305.8092
1325.1073
1342.138
1357.0877
1370.131
1380.6923
1390.8125
1413.6634
18.505663
59.195914
96.047889
132.55626
167.46417
201.16837
233.45699
264.36516
293.76393
321.48361
347.38552
371.35417
393.2917
413.12001
430.78098
446.23665
459.46883
470.47845
479.28422
485.92128
490.43917
492.9
493.37575
491.94577
488.69189
483.68722
476.98973
468.79304
459.21773
448.22203
435.83964
422.12713
407.13963
390.93242
373.55973
355.07458
335.53017
314.98044
293.48136
271.0913
247.87185
223.88795
199.20754
173.90168
148.04351
121.70763
94.968954
67.901706
40.578395
13.06884
-14.560441
-42.246565
-69.930202
-97.554932
-125.0661
-152.40918
-179.52758
-206.36002
-232.8377
-258.88121
-284.39746
-309.27692
-333.39119
-356.59092
-378.70475
-399.5415
-418.88914
-436.51568
-452.17649
-465.60055
-476.50098
-484.61379
-489.68485
-491.46088
-489.70679
-484.21242
-474.79937
-461.32674
-443.69603
-421.85483
-395.79944
-365.57624
-331.28162
-293.06074
-251.10495
-205.6482
-156.96238
-105.35192
-51.147871
5.2984433
63.621838
123.4496
184.40759
246.12584
308.24371
370.41423
432.30794
493.61579
554.05142
613.35276
671.28289
727.63035
782.20898
834.85728
885.43733
933.83358
979.95131
1023.715
1065.0668
1103.9645
1140.3799
1174.2971
1205.7147
1234.6417
1261.0926
1285.0921
1306.6762
1325.8894
1342.7947
1357.5165
1370.1255
1380.416
1389.651
1399.8788
24.728987
59.533121
96.443556
132.47482
167.41077
201.2697
233.82593
264.97403
294.54743
322.40719
348.4322
372.51442
394.56014
414.4935
432.25731
447.81388
461.14496
472.25136
481.15173
487.88138
492.49024
495.04128
495.60802
494.2728
491.12398
486.24706
479.70436
471.56681
461.91021
450.79104
438.26716
424.39716
409.23888
392.84868
375.28199
356.59365
336.83908
316.07484
294.35971
271.75503
248.32529
224.13828
199.26458
173.77765
147.75272
121.26604
94.393766
67.210873
39.790071
12.200825
-15.491281
-43.224883
-70.942724
-98.590992
-126.11811
-153.473
-180.6028
-207.45011
-233.94999
-260.02671
-285.59051
-310.53464
-334.73277
-358.03731
-380.27931
-401.26374
-420.77243
-438.56921
-454.40491
-468.01696
-479.13189
-487.47259
-492.76557
-494.74952
-493.1823
-487.84778
-478.56233
-465.1806
-447.60055
-425.76725
-399.67562
-369.37176
-334.95295
-296.56633
-254.40625
-208.71051
-159.75556
-107.85097
-53.333236
3.4406883
62.100018
122.26663
183.5613
245.60946
308.04636
370.5216
432.70287
494.27895
554.96194
614.48881
672.62224
729.15087
783.88907
836.67619
887.37549
935.87283
982.07506
1025.9084
1067.3167
1106.2597
1142.7113
1176.6573
1208.0954
1237.0342
1263.4917
1287.495
1309.0805
1328.293
1345.1961
1359.8808
1372.3713
1382.7385
1391.8076
1397.8347
28.266831
60.581644
97.783933
133.58177
168.5652
202.45875
235.07255
266.28915
295.96036
323.94606
350.11363
374.34661
396.54516
416.6286
434.53613
450.22725
463.68148
474.89777
483.89301
490.70065
495.36834
497.95604
498.53315
497.1765
493.96764
488.98969
482.3246
474.06548
464.29814
453.07521
440.44348
426.45842
411.17594
394.65174
376.94175
358.10192
338.18932
317.26248
295.38244
272.61297
249.02108
224.67703
199.65381
174.02702
147.87369
121.27154
94.297657
67.027392
39.533233
11.88377
-15.856966
-43.629835
-71.380457
-99.058498
-126.61638
-154.00744
-181.18348
-208.09191
-234.67248
-260.85388
-286.55023
-311.65786
-336.05301
-359.59166
-382.10397
-403.392
-423.23595
-441.39494
-457.60913
-471.60286
-483.09186
-491.79328
-497.42896
-499.73025
-498.44704
-493.35514
-484.26339
-471.01991
-453.51738
-431.69715
-405.55204
-375.12784
-340.52324
-301.88842
-259.42233
-213.36865
-164.01083
-111.66621
-56.679611
0.58348008
59.743777
120.41495
182.2101
244.74765
307.65671
370.58161
433.18577
495.15466
556.19802
616.05134
674.4766
731.26248
786.22397
839.20155
890.05997
938.68683
984.99092
1028.9004
1070.3611
1109.3344
1145.796
1179.7334
1211.1455
1240.0402
1266.4332
1290.348
1311.8147
1330.869
1347.559
1361.9356
1373.9915
1383.8515
1391.9212
1396.1782
29.913948
61.088021
98.540321
134.30785
169.47093
203.57956
236.45567
267.94054
297.87008
326.09797
352.4912
376.93438
399.3286
419.59363
437.66874
453.51326
467.10646
478.44706
487.55187
494.45439
499.20247
501.85627
502.4853
501.16596
497.97775
492.99916
486.3048
477.97324
468.08097
456.69223
443.86717
429.66683
414.15081
397.37771
379.40612
360.29479
340.10378
318.89494
296.73276
273.68458
249.82099
225.21573
199.94503
174.08745
147.72255
120.93002
93.788299
66.373401
38.757659
11.008659
-16.811464
-44.646382
-72.445421
-100.1628
-127.75623
-155.18498
-182.40721
-209.37688
-236.04025
-262.33214
-288.17213
-313.46098
-338.07988
-361.88729
-384.70996
-406.34963
-426.58363
-445.16605
-461.83133
-476.29733
-488.27047
-497.45373
-503.55375
-506.28831
-505.39446
-500.63622
-491.81189
-478.76059
-461.36786
-439.57
-413.35708
-382.77444
-347.92268
-308.95612
-266.07989
-219.54562
-169.64617
-116.70935
-61.091171
-3.1685986
56.667667
118.0203
180.49209
243.69212
307.24126
370.77689
433.95673
496.46192
557.9991
618.30191
677.13156
734.27694
789.55408
842.8052
893.89734
942.72082
989.1874
1033.2284
1074.7928
1113.8453
1150.3641
1184.3396
1215.7728
1244.6735
1271.0587
1294.9515
1316.3792
1335.3721
1351.9649
1366.1776
1377.985
1387.482
1394.6919
1397.7356
31.167212
62.158855
99.98121
135.87888
171.24829
205.55886
238.65107
270.35512
300.5082
328.96346
355.58473
380.2521
402.86217
423.33053
441.5927
457.60483
471.34349
482.80522
492.005
498.9748
503.7611
506.42289
507.02861
505.65411
502.37943
497.28609
490.45473
481.9687
471.9078
460.33878
447.32169
432.91702
417.18458
400.18363
381.97398
362.61616
342.17244
320.70725
298.28795
274.98495
250.87204
226.02616
200.5266
174.45477
147.89269
120.92201
93.622553
66.070915
38.33919
10.493769
-17.405426
-45.305338
-73.159624
-100.92785
-128.574
-156.06437
-183.36467
-210.43673
-237.23459
-263.70046
-289.76041
-315.32078
-340.26876
-364.46347
-387.73015
-409.86808
-430.64852
-449.81684
-467.09611
-482.19148
-494.79637
-504.6
-511.29442
-514.58228
-514.18548
-509.85358
-501.37168
-488.56758
-471.31777
-449.55218
-423.25738
-392.47822
-357.31779
-317.93576
-274.5452
-227.40795
-176.82891
-123.14932
-66.739466
-7.9909613
52.690957
114.89497
178.2108
242.23568
306.58009
370.87259
434.76379
497.92933
560.07202
620.92315
680.24296
737.82059
793.47331
847.04546
898.40685
947.45103
994.09332
1038.2688
1079.9301
1119.0456
1155.597
1189.5775
1220.9906
1249.8475
1276.166
1299.969
1321.2821
1340.1329
1356.5496
1370.5408
1382.0873
1391.2784
1398.0035
1400.6447
31.602273
62.822545
101.02791
137.22369
172.92999
207.58423
241.03106
273.08867
303.5874
332.37516
359.31225
384.27617
407.16165
427.88256
446.37291
462.58748
476.50172
488.1113
497.43064
504.49134
509.3397
512.03446
512.64368
511.24233
507.90892
502.72307
495.76338
487.11136
476.84723
465.04229
451.76195
437.07113
421.03341
403.71141
385.16822
365.46767
344.67549
322.85974
300.09156
276.44528
251.99864
226.83244
201.02971
174.67529
147.8542
120.65054
93.145826
65.417515
37.537538
9.57099
-18.424739
-46.400424
-74.314875
-102.13409
-129.82966
-157.37647
-184.74959
-211.92058
-238.85324
-265.49903
-291.79236
-317.64746
-342.95816
-367.58472
-391.35272
-414.05932
-435.47036
-455.32279
-473.32824
-489.17759
-502.54741
-513.10779
-520.53066
-524.49857
-524.71391
-520.90791
-512.84919
-500.35143
-483.27995
-461.55679
-435.16419
-404.14642
-368.60965
-328.72017
-284.70086
-236.82616
-185.4158
-130.82756
-73.449274
-13.690549
48.025561
111.27062
175.61841
240.65176
305.96852
371.18664
435.94818
499.92228
562.80726
624.33174
684.25502
742.36673
798.48592
852.4597
904.16148
953.48899
1000.3621
1044.7206
1086.5219
1125.7389
1162.3576
1196.3754
1227.7986
1256.6408
1282.9212
1306.6619
1327.8861
1346.6164
1362.8714
1376.6467
1387.9187
1396.7543
1402.9926
1405.289
32.181624
63.928535
102.60916
139.20284
175.28802
210.30923
244.11711
276.52945
307.37568
336.50208
363.76623
389.04195
412.21991
433.20987
451.94194
468.36743
482.45894
494.20987
503.63299
510.75889
515.63337
518.31525
518.87314
517.38314
513.92553
508.58249
501.43556
492.56943
482.06794
470.00515
456.44817
441.46351
425.11639
407.47129
388.59351
368.54943
347.40774
325.23976
302.12022
278.12725
253.34253
227.85088
201.7392
175.09599
148.00954
120.56666
92.850811
64.940463
36.907444
8.8154651
-19.280884
-47.336692
-75.316637
-103.1941
-130.94949
-158.56768
-186.03468
-213.33348
-240.43938
-267.31466
-293.90346
-320.13015
-345.89493
-371.05907
-395.44827
-418.85577
-441.03977
-461.7261
-480.61194
-497.37099
-511.66035
-523.12867
-531.42512
-536.20897
-537.15964
-533.98661
-526.43878
-514.31294
-497.46095
-475.79538
-449.29334
-417.99841
-382.02055
-341.53406
-296.77371
-248.02917
-195.63811
-139.97819
-81.458393
-20.509921
42.422818
106.89094
172.4492
238.66332
305.11623
371.41337
437.18678
502.09806
565.84038
628.13939
688.75344
747.47293
804.11917
858.54272
910.62135
960.25783
1007.3775
1051.926
1093.8664
1133.1772
1169.85
1203.8868
1235.2986
1264.1028
1290.3215
1313.9792
1335.1002
1353.7074
1369.8173
1383.4239
1394.5065
1403.1207
1409.0943
1411.2552
32.363108
64.786421
103.97804
141.08956
177.66239
213.1641
247.4424
280.31491
311.6076
341.1634
368.83613
394.49584
418.02959
439.34369
458.36515
475.04263
489.34653
501.26868
510.82077
518.03286
522.9506
525.63294
526.14875
524.57447
520.99075
515.4803
508.12539
499.01256
488.22896
475.85267
461.95459
446.60511
429.87317
411.82684
392.53503
372.0678
350.4977
327.90013
304.35408
279.94213
254.7505
228.86859
202.38778
175.40081
147.99978
120.27471
92.311435
64.189775
35.981632
7.7493173
-20.455628
-48.593128
-76.634552
-104.56182
-132.36559
-160.04253
-187.59159
-215.00947
-242.28531
-269.39462
-296.29369
-322.9194
-349.17947
-374.93808
-400.02229
-424.22187
-447.28708
-468.93144
-488.83556
-506.6527
-522.01628
-534.54874
-543.87155
-549.61584
-551.43343
-549.00775
-542.06415
-530.37927
-513.78898
-492.1946
-465.56714
-433.94938
-397.45583
-356.27036
-310.64189
-260.8782
-207.33826
-150.42337
-90.567508
-28.22742
36.127321
102.02378
168.99445
236.58505
304.36121
371.91391
438.86371
504.86369
569.60125
632.79893
694.21422
753.63872
810.89661
865.84267
918.35995
968.35722
1015.7663
1060.5395
1102.6465
1142.0724
1178.8147
1212.8812
1244.2873
1273.0546
1299.2081
1322.7739
1343.7774
1362.2408
1378.1796
1391.5879
1402.4501
1410.8213
1416.5466
1418.5865
32.742659
65.988632
105.76903
143.4703
180.57741
216.59721
251.37483
284.73271
316.49567
346.50489
374.61078
400.67915
424.59226
446.25156
465.57942
482.52043
497.04169
509.13253
518.80311
526.08283
531.01748
533.66689
534.10143
532.39959
528.6445
522.92166
515.31626
505.91863
494.82053
482.10337
467.84039
452.10454
434.96739
416.49975
396.77354
375.86214
353.84177
330.79185
306.79575
281.9407
256.31777
230.02135
203.14776
175.79447
148.05796
120.03197
91.805181
63.459143
35.06607
6.6869262
-21.629984
-49.849886
-77.951613
-105.92673
-133.77758
-161.51437
-189.15099
-216.7
-244.16672
-271.54215
-298.79681
-325.8818
-352.71381
-379.16039
-405.04949
-430.16661
-454.25273
-477.00709
-498.09123
-517.13503
-533.7448
-547.51301
-558.02927
-564.89209
-567.72118
-566.16951
-559.9349
-548.77035
-532.49297
-510.99091
-484.22799
-452.24619
-415.16535
-373.18067
-326.55776
-275.62575
-220.76862
-162.41537
-101.02932
-37.097006
28.882679
96.408885
164.98835
234.1438
303.42104
372.39464
440.67224
507.89747
573.75151
637.9537
700.261
760.46678
818.39891
873.91741
926.91173
977.29789
1025.0155
1070.0247
1112.3034
1151.8445
1188.6528
1222.7432
1254.1375
1282.8627
1308.9487
1332.4255
1353.3216
1371.6611
1387.4609
1400.7172
1411.4188
1419.6213
1425.1874
1427.1633
32.895009
67.05873
107.4699
145.85353
183.58463
220.21586
255.584
289.51625
321.83496
352.37863
380.9934
407.54015
431.8959
453.95696
473.64094
490.8883
505.66288
517.95167
527.76342
535.12699
540.08843
542.70845
543.05878
541.21964
537.27621
531.31628
523.42752
513.70396
502.24251
489.12914
474.44067
458.25396
440.64442
421.68664
401.45643
380.03125
357.49161
333.92153
309.40928
284.04726
257.932
231.16344
203.84347
176.07501
147.95955
119.59524
91.074255
62.480372
33.886494
5.3523941
-23.076976
-51.37259
-79.521572
-107.52636
-135.40267
-163.17628
-190.87849
-218.54049
-246.18668
-273.82672
-301.44843
-329.02001
-356.46933
-383.66886
-410.44878
-436.59052
-461.82492
-485.83513
-508.26074
-528.7044
-546.74079
-561.92726
-573.8161
-581.96772
-585.96423
-585.42307
-580.00985
-569.45001
-553.53877
-532.14885
-505.23582
-472.84067
-435.08958
-392.19102
-344.43016
-292.16105
-235.79691
-175.79903
-112.66478
-46.915262
20.91673
90.298196
160.70634
231.63765
302.61543
373.1958
442.97202
511.5773
578.68622
644.01491
707.32017
768.39779
827.08021
883.2337
936.75523
987.5692
1035.6241
1080.8892
1123.3515
1163.0125
1199.8856
1233.993
1265.3637
1294.0309
1320.0296
1343.3948
1364.1585
1382.3486
1397.9854
1411.0702
1421.599
1429.6335
1435.0563
1436.9748
33.198021
68.391558
109.49832
148.62468
187.02652
224.31238
260.31057
294.85545
327.76768
358.88349
388.04439
415.10557
439.93767
462.43051
482.49566
500.06836
515.10823
527.59935
537.54884
544.98514
549.95502
552.52084
552.7568
550.74615
546.57751
540.34234
532.13201
522.04545
510.18555
496.64245
481.49577
464.82561
446.71065
427.22884
406.45962
384.48439
361.38803
337.2593
312.19168
286.28318
259.63628
232.35711
204.55386
176.33563
147.80976
119.0796
90.241582
61.382374
32.576066
3.8815163
-24.659697
-53.024665
-81.209588
-109.229
-137.11367
-164.90711
-192.66052
-220.42656
-248.25172
-276.16737
-304.18209
-332.28395
-360.4132
-388.44887
-416.22407
-443.51594
-470.04423
-495.47409
-519.42036
-541.45484
-561.11612
-577.9214
-591.38015
-601.00884
-606.34621
-606.96858
-602.5043
-592.64681
-577.16595
-555.91662
-528.8448
-495.9904
-457.48705
-413.55869
-364.51326
-310.7338
-252.66745
-190.81288
-125.70682
-57.9102
12.005305
83.469948
155.92735
228.84432
301.71897
374.08688
445.52555
515.65705
584.14912
650.71495
715.11186
777.13902
836.63467
893.4727
947.55908
998.82812
1047.2388
1092.771
1135.4223
1175.2045
1212.1405
1246.2618
1277.6055
1306.2122
1332.1236
1355.3801
1376.0188
1394.0718
1409.5634
1422.5002
1432.8841
1440.7831
1446.0961
1447.9744
33.349999
69.663496
111.50612
151.45149
190.5984
228.61721
265.32377
300.55974
334.14304
365.90678
395.6868
423.33148
448.70402
471.68684
492.18466
510.12683
525.46842
538.19033
548.29795
555.8194
560.80228
563.31084
563.42186
561.22182
556.80296
550.26054
541.68983
531.1951
518.88607
504.85824
489.19489
471.98023
453.29696
433.22698
411.85392
389.26356
365.54556
340.79386
315.10761
288.59095
261.35288
233.50646
205.16692
176.45045
147.47114
118.33852
89.154166
60.008501
30.977471
2.1194485
-26.527254
-54.946156
-83.143319
-111.14671
-139.00405
-166.77905
-194.54586
-222.38201
-250.35972
-278.53601
-306.94556
-335.59924
-364.45118
-393.39044
-422.25444
-450.81618
-478.7834
-505.80105
-531.45592
-555.28454
-576.78408
-595.42554
-610.66903
-621.98036
-628.8482
-630.80137
-627.42511
-618.37594
-603.39433
-582.3146
-555.07166
-521.70427
-482.35475
-437.26504
-386.76953
-331.28487
-271.29744
-207.34909
-140.02186
-69.922395
2.3331386
76.133156
150.88323
226.01681
301.00381
375.35716
448.63717
520.45401
590.46845
658.39112
723.98057
787.04046
847.41608
904.99038
959.6798
1011.4301
1060.2121
1106.018
1148.8569
1188.7523
1225.7379
1259.8552
1291.1508
1319.6736
1345.4729
1368.596
1389.0861
1406.9811
1422.311
1435.0888
1445.3239
1453.0908
1458.3028
1460.1441
33.588816
71.128087
113.75687
154.57426
194.50988
233.30582
270.76503
306.73802
341.03997
373.50048
403.94871
432.22488
458.18319
481.69705
502.66284
521.00284
536.66658
549.63129
559.90048
567.50214
572.48525
574.91672
574.87697
572.4568
567.75319
560.86632
551.89629
540.95369
528.1559
513.60356
497.38312
479.5825
460.28809
439.58556
417.56257
394.30934
369.92045
344.4953
318.13912
290.9627
263.0823
234.61867
205.69505
176.43573
146.96271
117.39282
87.833936
58.381274
29.113526
0.089204675
-28.656368
-57.113312
-85.298262
-113.25393
-141.04694
-168.76379
-196.50482
-224.37612
-252.47954
-280.90195
-309.71019
-338.94012
-368.56192
-398.47872
-428.53331
-458.49497
-488.0586
-516.84695
-544.41535
-570.26053
-593.83261
-614.54989
-631.81603
-645.03872
-653.64914
-657.12143
-654.99123
-646.87246
-632.47178
-611.59977
-584.17863
-550.24587
-509.95391
-463.56561
-411.44595
-354.05043
-291.91073
-225.61837
-155.80743
-83.136824
-8.2733846
68.123895
145.41775
223.00432
300.32234
376.85994
452.15898
525.81727
597.48872
666.88212
733.75841
797.92719
859.24248
917.5981
972.92284
1025.1758
1074.3415
1120.4258
1163.4516
1203.4551
1240.4823
1274.5863
1305.8237
1334.2531
1359.9321
1382.9154
1403.2531
1420.9893
1436.1601
1448.7848
1458.8798
1466.5259
1471.6482
1473.4579
33.706395
72.566341
116.01268
157.76472
198.549
238.18753
276.46758
313.24889
348.34297
381.57476
412.76522
441.74472
468.35673
492.464
513.9532
532.73836
548.76274
561.99941
572.44985
580.14203
585.12661
587.47361
587.26758
584.60421
579.58577
572.31786
562.90589
551.46754
538.12893
522.99683
506.16146
487.71501
467.74798
446.3501
423.61336
399.63266
374.50775
348.34385
321.25267
293.35223
264.76671
235.62543
206.06063
176.20585
146.19224
116.1453
86.180568
56.399335
26.88417
-2.3054147
-31.136621
-59.60621
-87.742056
-115.603
-143.27674
-170.87554
-198.52963
-226.37814
-254.55749
-283.18956
-312.37851
-342.1909
-372.61676
-403.57568
-434.91824
-466.41061
-497.73411
-528.48688
-558.18897
-586.29201
-612.19259
-635.24884
-654.79984
-670.18664
-680.77441
-685.97448
-685.26543
-678.2122
-664.48249
-643.8596
-616.25113
-581.69325
-540.35014
-492.50888
-438.56988
-379.03351
-314.48365
-245.56897
-172.98318
-97.444928
-19.678659
59.603011
139.71468
220.01089
299.89597
378.83104
456.33828
532.00268
605.47168
676.45307
744.71156
810.06431
872.37597
931.55316
987.53906
1040.308
1089.8601
1136.2169
1179.4164
1219.5093
1256.5553
1290.62
1321.7719
1350.0798
1375.6111
1398.429
1418.5914
1436.1496
1451.1465
1463.6084
1473.5585
1481.0837
1486.1188
1487.8978
33.846221
74.132303
118.42774
161.15794
202.82724
243.34944
282.49539
320.13553
356.07711
390.13934
422.13313
451.87692
479.20111
503.95562
526.01542
545.28476
561.69949
575.22791
585.86934
593.65201
598.62893
600.87412
600.47736
597.54038
592.17189
584.48393
574.58813
562.61035
548.6864
532.92907
515.43194
496.29118
475.60116
453.4555
429.95043
405.18556
379.26598
352.30301
324.4153
295.72872
266.37619
236.49655
206.23224
175.72742
145.12389
114.55742
84.152831
54.019103
24.244118
-5.110449
-34.013577
-62.468485
-90.514794
-118.2288
-145.72147
-173.134
-200.63057
-228.38821
-256.58331
-285.37857
-314.92281
-345.31747
-376.57625
-408.64052
-441.37057
-474.53068
-507.78804
-540.71389
-572.78891
-603.41396
-631.92496
-657.61159
-679.73915
-697.57253
-710.40123
-717.56452
-718.47545
-712.64264
-699.68904
-679.36655
-651.56606
-616.32222
-573.81291
-524.35325
-468.38458
-406.45904
-339.22062
-267.38363
-191.71005
-112.98662
-32.003159
50.467261
133.68535
216.95951
299.65636
381.20791
461.11561
538.95156
614.3574
687.04129
756.77347
823.3808
886.74081
946.77534
1003.4443
1056.7394
1106.6788
1153.3014
1196.6621
1236.8279
1273.8734
1307.8782
1338.9233
1367.0893
1392.4536
1415.0888
1435.0611
1452.4294
1467.2436
1479.5372
1489.3402
1496.7447
1501.6943
1503.4435
33.863729
75.674923
120.83334
164.58802
207.18576
248.64381
288.71447
327.27973
364.14134
399.11109
431.98758
462.57465
490.68702
516.15929
538.85259
558.65969
575.5079
589.36011
600.21333
608.09629
613.06489
615.19793
614.59128
611.35362
605.60098
597.45264
587.02711
574.45953
559.89661
543.45797
525.24079
505.34556
483.87064
460.91361
436.57498
410.95914
384.17667
356.34522
327.59082
298.04775
267.85845
237.17237
206.14339
174.92779
143.67972
112.54708
81.665945
51.154891
21.108913
-8.4066489
-37.361499
-65.76489
-93.668573
-121.16763
-148.39872
-175.53548
-202.78068
-230.35497
-258.48128
-287.37004
-317.22175
-348.18054
-380.28892
-413.51373
-447.72858
-482.69724
-518.07231
-553.39553
-588.10369
-621.54043
-652.9729
-681.61284
-706.64143
-727.2364
-742.60063
-751.99077
-754.74462
-750.30614
-738.24683
-718.28254
-690.28493
-654.28709
-610.48275
-559.21951
-500.98601
-436.39417
-366.15718
-291.06478
-211.9571
-129.69852
-45.152958
40.838357
127.47591
214.01705
299.78719
384.18709
466.69656
546.87498
624.35922
698.85946
770.15362
838.08074
902.53384
963.45263
1020.8163
1074.6368
1124.9521
1171.8209
1215.3173
1255.5257
1292.5378
1326.4481
1357.3518
1385.342
1410.5073
1432.9306
1452.6869
1469.8435
1484.4576
1496.57
1506.2172
1513.4963
1518.3581
1520.0767
33.836943
77.277404
123.3039
168.11085
211.65989
254.08677
295.12444
334.66785
372.51207
408.45948
442.29348
473.80002
502.77481
529.03395
552.42204
572.81831
590.14006
604.34406
615.42488
623.41222
628.36573
630.37017
629.5288
625.95863
619.78433
611.13355
600.13265
586.92738
571.67656
554.50644
535.5174
514.81392
492.49807
468.67109
443.43763
416.90679
389.1947
360.42561
330.73333
300.26121
269.16215
237.59734
205.73356
173.74093
141.78795
110.03682
78.637169
47.719546
17.388282
-12.28566
-41.271229
-69.582914
-97.284692
-124.49161
-151.36847
-178.12508
-205.00785
-232.2873
-260.24038
-289.13376
-319.22902
-350.71869
-383.68018
-418.1131
-453.90788
-490.82997
-528.51716
-566.47912
-604.10383
-640.67055
-675.36858
-707.32109
-735.61329
-759.32335
-777.55495
-789.47002
-794.32007
-791.47475
-780.44644
-760.90953
-732.71367
-695.89014
-650.65114
-597.38181
-536.62549
-469.06305
-395.48743
-316.775
-233.85534
-147.68128
-59.200721
30.668504
121.05973
211.17402
300.29205
387.78133
473.09948
555.79375
635.49772
711.92586
784.86647
854.17373
919.75926
981.58374
1039.6487
1093.9887
1144.6646
1191.7571
1235.361
1275.5807
1312.5257
1346.3073
1377.0358
1404.8176
1429.7535
1451.937
1471.4528
1488.3765
1502.7734
1514.6912
1524.1731
1531.3205
1536.091
1537.778
33.661203
78.828972
125.70823
171.59019
216.11182
259.54333
301.59662
342.18066
381.08207
418.0911
452.97237
485.49001
515.4167
542.54644
566.70421
587.7533
605.5995
620.19264
631.5248
639.62715
644.56398
646.42721
645.32883
641.3955
634.76175
625.56466
613.9393
600.04352
584.04966
566.09098
546.27104
524.69832
501.47845
476.71616
450.52001
423.00372
394.28894
364.50665
333.79881
302.31846
270.22983
237.70709
204.9315
172.08892
139.36446
106.93714
74.9729
43.617036
12.985966
-16.84126
-45.830877
-74.001409
-101.42888
-128.24939
-154.6584
-180.90609
-207.2882
-234.13222
-261.77778
-290.55864
-320.80762
-352.77267
-386.57492
-422.25336
-459.72022
-498.74521
-538.95127
-579.81328
-620.66491
-660.71302
-699.05879
-734.72467
-766.68644
-793.9085
-815.38098
-830.15727
-837.38983
-836.36299
-826.52116
-807.49108
-779.09705
-741.36841
-694.53874
-639.03666
-575.46877
-504.5956
-427.30206
-344.56408
-257.41376
-166.90473
-74.080018
20.056397
114.56309
208.57923
301.33707
392.16908
480.51037
565.8971
647.96164
726.4255
801.09062
871.82983
938.57697
1001.3172
1060.0775
1114.9187
1165.9269
1213.2073
1256.8781
1297.065
1333.8976
1367.5051
1398.0139
1425.545
1450.2122
1472.1202
1491.3639
1508.0278
1522.185
1533.8905
1543.1938
1550.2003
1554.8739
1556.5272
33.368561
80.360238
128.0586
175.01677
220.51111
264.96547
308.06989
349.74866
389.77776
427.93194
463.9525
497.57683
528.54968
556.63845
581.64477
603.41319
621.83612
636.85565
648.46136
656.68662
661.60167
663.30715
661.92553
657.59487
650.46119
640.67231
628.37306
613.73525
596.94614
578.14558
557.43967
534.94048
510.7567
484.99606
457.77074
429.19875
399.40724
368.534
336.72949
304.15708
270.9933
237.42665
203.6546
169.88094
136.30991
103.14032
70.557589
38.72517
7.774911
-22.202934
-51.169279
-79.144888
-106.21716
-132.54405
-158.35416
-183.94239
-209.66014
-235.89953
-263.07245
-291.59546
-321.88302
-354.24204
-388.8517
-425.79911
-465.02403
-506.30386
-549.2471
-593.291
-637.70891
-681.62634
-724.04465
-763.87181
-799.95882
-831.13998
-856.2755
-874.29428
-884.23512
-885.28432
-876.80812
-858.37838
-829.79022
-791.07082
-742.4785
-684.49223
-617.79182
-543.22991
-461.7975
-374.58516
-282.74244
-187.43796
-89.822451
9.0033389
108.01491
206.28362
302.98967
397.4289
489.01417
577.27221
661.83695
742.44043
818.9022
891.11788
959.04768
1022.7052
1082.1469
1137.4627
1188.7675
1236.1935
1279.8844
1319.9895
1356.6598
1390.0438
1420.2854
1447.521
1471.8776
1493.4723
1512.4103
1528.7853
1542.6784
1554.152
1563.2616
1570.1163
1574.6858
1576.3031
32.878386
81.779946
130.23611
178.25654
224.71279
270.20326
314.39475
357.22775
398.46453
437.85996
475.12645
509.96863
542.09752
571.24865
597.19596
619.76208
638.82405
654.31531
666.22311
674.58393
679.47541
681.00872
679.3187
674.55669
666.88184
656.45406
643.42899
627.99444
610.35421
590.65447
569.00346
545.51656
520.30499
493.47901
465.1539
435.45166
404.50464
372.45746
339.46931
305.71447
271.38273
236.67832
201.8168
167.02228
132.52104
98.535028
65.272918
32.920299
1.6285215
-28.497095
-57.408796
-85.127126
-111.74968
-137.4567
-162.51243
-187.26127
-212.11731
-237.54612
-264.04281
-292.12749
-322.30287
-354.94289
-390.30346
-428.52796
-469.59062
-513.28097
-559.19378
-606.72572
-655.08322
-703.30025
-750.26522
-794.75584
-835.48075
-871.12561
-900.40175
-922.0954
-935.11483
-938.53366
-931.62818
-913.90701
-885.13163
-845.32669
-794.77918
-734.02638
-663.83291
-585.15805
-499.11543
-406.92772
-309.87929
-209.26995
-106.37254
-2.3964273
101.5417
204.43909
305.42029
403.74333
498.79964
590.10891
677.31015
760.15032
838.4713
912.19639
981.31694
1045.8795
1105.9743
1161.7242
1213.2759
1260.7919
1304.4436
1344.406
1380.8532
1413.9547
1443.8725
1470.7594
1494.7569
1515.9943
1534.5876
1550.64
1564.2408
1575.4595
1584.3576
1591.0475
1595.5045
1597.0829
32.192232
83.076634
132.19883
181.23825
228.61992
275.14065
320.44316
364.48467
407.00981
447.74787
486.37542
522.55699
555.9627
586.28991
613.27975
636.72916
656.49755
672.50886
684.74828
693.25668
698.12098
699.46512
697.43872
692.20866
683.94928
672.83414
659.03088
642.74589
624.20114
603.548
580.89594
556.36296
530.06203
502.10514
472.61009
441.70228
409.51898
376.21151
341.94797
306.91411
271.31398
235.369
199.31487
163.39868
127.872
92.983747
58.970243
26.043958
-5.6193439
-35.894482
-64.72073
-92.115025
-118.18318
-143.12763
-167.25048
-190.95058
-214.71267
-239.08655
-264.66395
-292.08282
-321.95175
-354.72657
-390.75167
-430.23954
-473.20839
-519.46538
-568.59296
-619.9442
-672.65119
-725.64499
-777.68598
-827.40368
-873.34426
-914.02331
-947.98165
-973.84179
-990.36211
-996.4866
-991.38796
-974.50185
-945.55079
-904.55645
-851.83896
-788.00316
-713.912
-630.64838
-539.46788
-441.74563
-338.92094
-232.44352
-123.72458
-14.095395
95.225243
203.1539
308.7561
411.25139
510.01137
604.55205
694.52213
779.68875
859.92179
935.17796
1005.4852
1070.9284
1131.6356
1187.7672
1239.5053
1287.0454
1330.5893
1370.3399
1406.496
1439.2492
1468.781
1495.2613
1518.8464
1539.6784
1557.8847
1573.5778
1586.8553
1597.7936
1606.4605
1612.9708
1617.3056
1618.8417
31.247311
84.162309
133.81845
183.80386
232.05215
279.58414
326.01703
371.32439
415.22783
457.42378
497.54437
535.2051
570.02672
601.66098
629.81028
654.24168
674.79447
691.38224
703.98871
712.66068
717.49665
718.63598
716.2457
710.51082
701.62304
689.7712
675.13614
657.9458
638.44208
616.78015
593.06985
567.43114
539.97777
510.82266
480.08525
447.89369
414.3896
379.73074
344.0942
307.6776
270.7002
233.40217
196.04151
158.89116
122.23165
86.343273
51.495021
17.931851
-14.140162
-44.570111
-73.278878
-100.27534
-125.67061
-149.68858
-172.67115
-195.07671
-217.46928
-240.49515
-264.85813
-291.3359
-320.65778
-353.37594
-389.94454
-430.65779
-475.58897
-524.56995
-577.17276
-632.70374
-690.21256
-748.51439
-806.22451
-861.8037
-913.61257
-959.97212
-999.22775
-1029.8141
-1050.3171
-1059.5319
-1056.5115
-1040.6074
-1011.4968
-969.19786
-914.06883
-846.7929
-768.34716
-679.95803
-583.04573
-479.1617
-369.92362
-256.95266
-141.81698
-25.984626
89.212702
202.60412
313.193
420.16048
522.86097
620.81127
713.67552
801.24751
883.43189
960.22539
1031.6989
1097.9811
1159.2437
1215.6885
1267.537
1315.0209
1358.3755
1397.833
1433.6191
1465.9486
1495.0238
1521.032
1544.1451
1564.5185
1582.2905
1597.5836
1610.5033
1621.1333
1629.5467
1635.8611
1640.0629
1641.5529