/*--------------------------------*- C++ -*----------------------------------*\
| =========                 |                                                 |
| \\      /  F ield         | foam-extend: Open Source CFD                    |
|  \\    /   O peration     | Version:     4.1                                |
|   \\  /    A nd           | Web:         http://www.foam-extend.org         |
|    \\/     M anipulation  |                                                 |
\*---------------------------------------------------------------------------*/
FoamFile
{
    version     2.0;
    format      ascii;
    class       volScalarField;
    location    "0.3";
    object      p;
}
// * * * * * * * * * * * * * * * * * * * * * * * * * * * * * * * * * * * * * //

dimensions      [0 2 -2 0 0 0 0];

internalField   nonuniform List<scalar> 
16796
(
1.9165819
2.0345402
1.3842427
0.17879067
-1.5206103
-3.7230325
-6.4626094
-9.7809823
-13.721103
-18.324373
-23.629003
-29.668926
-36.47452
-44.074617
-52.493734
-61.750014
-71.857479
-82.825996
-94.661477
-107.36574
-120.93666
-135.36807
-150.64996
-166.76842
-183.70575
-201.44047
-219.94747
-239.19806
-259.16019
-279.79861
-301.07525
-322.94957
-345.37891
-368.3192
-391.72552
-415.55283
-439.75682
-464.29471
-489.12614
-514.21408
-539.52563
-565.03273
-590.71287
-616.54941
-642.53184
-668.65569
-694.92212
-721.33718
-747.91067
-774.65468
-801.58165
-828.70217
-856.02244
-883.54142
-911.2479
-939.11737
-967.10896
-995.16243
-1023.1954
-1051.101
-1078.7461
-1105.9702
-1132.5851
-1158.3751
-1183.0978
-1206.4867
-1228.2543
-1248.0952
-1265.6916
-1280.7168
-1292.8474
-1301.77
-1307.1755
-1308.771
-1306.2928
-1299.5106
-1288.2337
-1272.3159
-1251.6598
-1226.2205
-1196.0074
-1161.0855
-1121.5744
-1077.6469
-1029.5257
-977.47959
-921.81779
-862.88445
-801.05199
-736.71428
-670.27972
-602.16439
-532.78557
-462.55563
-391.87659
-321.13536
-250.69968
-180.91498
-112.10185
-44.554448
21.460536
85.70424
147.9654
208.05968
265.82861
321.13818
373.87728
423.95595
471.30359
515.86712
557.6093
596.50718
632.55115
665.7433
696.09405
723.62253
748.3723
770.42466
789.86076
806.62869
820.617
832.70467
846.78405
864.91182
3.6675642
2.5218693
1.6661665
0.40699827
-1.2982222
-3.49189
-6.2175852
-9.5203434
-13.444513
-18.032085
-23.321442
-29.34662
-36.138352
-43.72732
-52.138514
-61.389281
-71.49372
-82.461547
-94.298614
-107.00667
-120.58349
-135.02286
-150.31467
-166.44489
-183.3957
-201.14545
-219.66886
-238.93702
-258.91762
-279.57517
-300.87129
-322.76512
-345.21368
-368.17254
-391.59643
-415.43997
-439.65849
-464.20889
-489.05056
-514.1462
-539.46273
-564.97202
-590.65152
-616.48471
-642.46129
-668.57713
-694.83387
-721.2382
-747.8007
-774.53434
-801.45263
-828.56731
-855.8858
-883.4084
-911.12521
-939.01305
-967.03232
-995.12385
-1023.2062
-1051.1734
-1078.893
-1106.2051
-1132.9217
-1158.8267
-1183.6769
-1207.2047
-1229.1203
-1249.1163
-1266.8727
-1282.0635
-1294.359
-1303.4322
-1308.9725
-1310.6901
-1308.3191
-1301.6267
-1290.4197
-1274.5496
-1253.9175
-1228.4774
-1198.2383
-1163.2652
-1123.6785
-1079.6523
-1031.4113
-979.22635
-923.40948
-864.30771
-802.29652
-737.77294
-671.14847
-602.84219
-533.27418
-462.85936
-392.00201
-321.09094
-250.4955
-180.56231
-111.61289
-43.941957
22.183512
86.524612
148.87025
209.03645
266.86521
322.22307
374.99952
425.10521
472.47006
517.04144
558.78235
597.66985
633.69352
666.85374
697.16106
724.6366
749.3184
771.26802
790.53288
807.05878
820.84906
832.6611
844.43013
854.76078
4.5837724
3.0811918
2.1380061
0.89139041
-0.74744399
-2.8523054
-5.481495
-8.6873928
-12.518448
-17.01936
-22.231195
-28.191388
-34.932744
-42.480001
-50.855451
-60.080074
-70.168636
-81.131759
-92.975569
-105.70193
-119.30853
-133.78889
-149.13246
-165.32461
-182.34677
-200.17639
-218.78714
-238.14893
-258.22819
-278.98803
-300.3886
-322.38753
-344.94029
-368.00091
-391.52257
-415.45842
-439.76241
-464.39016
-489.29992
-514.45347
-539.81701
-565.36192
-591.06545
-616.91121
-642.88934
-668.99649
-695.23546
-721.61445
-748.14592
-774.84509
-801.72797
-828.80914
-856.09903
-883.60111
-911.30874
-939.20194
-967.24413
-995.37908
-1023.5282
-1051.5879
-1079.4267
-1106.8848
-1133.7733
-1159.8748
-1184.9449
-1208.7134
-1230.888
-1251.158
-1269.1991
-1284.6791
-1297.2624
-1306.6166
-1312.4233
-1314.3844
-1312.2283
-1305.7167
-1294.6513
-1278.8796
-1258.2996
-1232.8631
-1202.5781
-1167.51
-1127.7804
-1083.5661
-1035.095
-982.64251
-926.52562
-867.09692
-804.73781
-739.85133
-672.85495
-604.17353
-534.23253
-463.45179
-392.23992
-320.98942
-250.07266
-179.83862
-110.61049
-42.684053
23.673228
88.222486
150.75312
211.082
269.05231
324.53202
377.41221
427.60525
475.04285
519.67422
561.46414
600.39138
636.44688
669.63202
699.95806
727.44732
752.13773
774.07856
793.29297
809.75605
823.61122
835.4083
845.45325
851.33408
5.0744809
3.573242
2.6501861
1.4436105
-0.1311637
-2.1580086
-4.7028594
-7.8228687
-11.569387
-15.988933
-21.123765
-27.012262
-33.688437
-41.17996
-49.509829
-58.698216
-68.76068
-79.708085
-91.54683
-104.2789
-117.90202
-132.40961
-147.79089
-164.03085
-181.11036
-199.00617
-217.69106
-237.13392
-257.29996
-278.15097
-299.64565
-321.74008
-344.38813
-367.54216
-391.15373
-415.17437
-439.55651
-464.25437
-489.22497
-514.42908
-539.83213
-565.40506
-591.12502
-616.97587
-642.94843
-669.0405
-695.25646
-721.60656
-748.10576
-774.77224
-801.62536
-828.68339
-855.96075
-883.46506
-911.1939
-939.13146
-967.24531
-995.48356
-1023.7711
-1052.006
-1080.0582
-1107.7682
-1134.9471
-1161.3758
-1186.8069
-1210.966
-1233.5553
-1254.2574
-1272.7406
-1288.6643
-1301.6847
-1311.4616
-1317.667
-1319.9933
-1318.1596
-1311.9193
-1301.0667
-1285.4432
-1264.9421
-1239.512
-1209.1598
-1173.951
-1134.0095
-1089.5157
-1040.703
-987.85319
-931.29097
-871.37732
-808.50249
-743.0786
-675.53213
-606.2966
-535.80558
-464.48629
-392.75385
-321.00633
-249.62066
-178.94937
-109.31823
-41.024676
25.663024
90.505932
153.29402
213.84527
272.00439
327.64117
380.64874
430.94162
478.45369
523.13623
564.956
603.89343
639.94078
673.1003
703.3836
730.81252
755.42134
777.24612
796.29664
812.58209
826.30836
837.79408
846.66508
850.94258
5.4666329
4.1111254
3.3162637
2.2339569
0.79037507
-1.100987
-3.5105151
-6.4992376
-10.121455
-14.425911
-19.456427
-25.252168
-31.8475
-39.271571
-47.548708
-56.699135
-66.73874
-77.678679
-89.525505
-102.2812
-115.94329
-130.50483
-145.95446
-162.27642
-179.45061
-197.45262
-216.25387
-235.82169
-256.11959
-277.10748
-298.74205
-320.97727
-343.76482
-367.05486
-390.79673
-414.9398
-439.43445
-464.23302
-489.29087
-514.56734
-540.02682
-565.63957
-591.38254
-617.23987
-643.20325
-669.27192
-695.45232
-721.75742
-748.20555
-774.81881
-801.62112
-828.63576
-855.88258
-883.37488
-911.11599
-939.09599
-967.28865
-995.64796
-1024.1022
-1052.5523
-1080.871
-1108.9003
-1136.4509
-1163.3022
-1189.2033
-1213.875
-1237.0122
-1258.2892
-1277.3637
-1293.8836
-1307.4928
-1317.8387
-1324.5809
-1327.3986
-1325.9987
-1320.1233
-1309.5569
-1294.1326
-1273.7372
-1248.3152
-1217.8715
-1182.4723
-1142.2442
-1097.3728
-1048.0985
-994.71201
-937.5482
-876.97939
-813.40778
-747.2577
-678.9677
-608.98293
-537.74782
-465.69945
-393.26165
-320.83986
-248.81706
-177.55044
-107.36911
-38.572615
28.569824
93.81932
156.96676
217.83177
276.26124
332.12759
385.32687
435.7766
483.41375
528.19253
570.0824
609.06607
645.13748
678.29991
708.56518
735.95359
760.49301
782.20588
801.09351
817.18011
830.64528
841.58433
849.44596
852.91481
5.8158083
4.6444073
4.0191514
3.0923479
1.8018218
0.062413899
-2.1979058
-5.0424495
-8.5276533
-12.704108
-17.617208
-23.307316
-29.809691
-37.154611
-45.367535
-54.469304
-64.4762
-75.399684
-87.246518
-100.01872
-113.71372
-128.32426
-143.8385
-160.23998
-177.50769
-195.61609
-214.53525
-234.23095
-254.66492
-275.79511
-297.57609
-319.95955
-342.89481
-366.32956
-390.21069
-414.48516
-439.10099
-464.00835
-489.16065
-514.51558
-540.03625
-565.6921
-591.45977
-617.32371
-643.27656
-669.31924
-695.46063
-721.7169
-748.11038
-774.66794
-801.41896
-828.39281
-855.61595
-883.10853
-910.88098
-938.93094
-967.24001
-995.76781
-1024.447
-1053.1833
-1081.8521
-1110.2968
-1138.3275
-1165.7214
-1192.2231
-1217.5467
-1241.3791
-1263.384
-1283.2068
-1300.4815
-1314.8368
-1325.9046
-1333.328
-1336.7702
-1335.9225
-1330.5127
-1320.3127
-1305.1449
-1284.888
-1259.4814
-1228.9274
-1193.2929
-1152.7083
-1107.3654
-1057.5139
-1003.4557
-945.53869
-884.14965
-819.70596
-752.64745
-683.42802
-612.50754
-540.3442
-467.38755
-394.07234
-320.81331
-248.00099
-175.99839
-105.13874
-35.724144
31.975069
97.720173
161.30331
222.54627
281.29883
337.43685
390.86016
441.49034
489.26843
534.15272
576.11653
615.1461
651.23846
684.39948
714.643
741.98973
766.46419
788.08261
806.84785
822.79212
836.04646
846.55579
853.77051
856.82115
6.2044944
5.2701542
4.8756309
4.1620239
3.0756435
1.5331071
-0.53835897
-3.2037427
-6.5213263
-10.54342
-15.316896
-20.883317
-27.278994
-34.53526
-42.678477
-51.729931
-61.706432
-72.619643
-84.476369
-97.2785
-111.02314
-125.70251
-141.30404
-157.81028
-175.19903
-193.44329
-212.51146
-232.3674
-252.97069
-274.27693
-296.23815
-318.80335
-341.91901
-365.52994
-389.58007
-414.01348
-438.7754
-463.81337
-489.07842
-514.52623
-540.11834
-565.82312
-591.61677
-617.48404
-643.41866
-669.4235
-695.51032
-721.69913
-748.01709
-774.49682
-801.17436
-828.0865
-855.26782
-882.74686
-910.54304
-938.6636
-967.09935
-995.81647
-1024.7546
-1053.8249
-1082.9067
-1111.845
-1140.45
-1168.496
-1195.7222
-1221.8349
-1246.5104
-1269.3994
-1290.1323
-1308.3258
-1323.5903
-1335.538
-1343.7923
-1347.9964
-1347.8228
-1342.9815
-1333.2288
-1318.3742
-1298.2864
-1272.8982
-1242.209
-1206.2865
-1165.2655
-1119.346
-1068.7887
-1013.9093
-955.07206
-892.68124
-827.17296
-759.00608
-688.6533
-616.59249
-543.29864
-469.23645
-394.85396
-320.57715
-246.80563
-173.90938
-102.22652
-32.062146
36.312183
102.65803
166.76915
228.47
287.61386
344.08071
397.77494
448.62286
496.5703
541.58022
583.63031
622.71076
658.82195
691.97253
722.17831
749.46029
773.84056
795.33292
813.94434
829.70921
842.7204
852.85556
859.63295
862.44189
6.6076047
5.9306754
5.7995032
5.3317696
4.4796078
3.1611402
1.3032996
-1.1600983
-4.2888588
-8.1368407
-12.752365
-18.178263
-24.452006
-31.605995
-39.667524
-48.658496
-58.596372
-69.493079
-81.355552
-94.185609
-107.98008
-122.7307
-138.42414
-155.04197
-172.56074
-190.95193
-210.18214
-230.21316
-251.00226
-272.50245
-294.66296
-317.42979
-340.74626
-364.5539
-388.79333
-413.40531
-438.33184
-463.51741
-488.9103
-514.46377
-540.13744
-565.89837
-591.72215
-617.59375
-643.50801
-669.46997
-695.49461
-721.60633
-747.83778
-774.22824
-800.82148
-827.66293
-854.79664
-882.26098
-910.08627
-938.29115
-966.87626
-995.81615
-1025.059
-1054.5224
-1084.0903
-1113.6103
-1142.8924
-1171.7078
-1199.79
-1226.8361
-1252.5102
-1276.4479
-1298.2616
-1317.5478
-1333.8948
-1346.8918
-1356.138
-1361.2532
-1361.8867
-1357.7276
-1348.5134
-1334.0379
-1314.1578
-1288.798
-1257.9544
-1221.6956
-1180.1618
-1133.5626
-1082.1721
-1026.3228
-966.39831
-902.82412
-836.05875
-766.58389
-694.89467
-621.49047
-546.8662
-471.50455
-395.86924
-320.39941
-245.50526
-171.5648
-98.921697
-27.884288
41.274683
108.31743
173.0399
235.27
294.86546
351.71145
405.71799
456.81731
504.96122
550.11851
592.2724
631.41814
667.56058
700.71211
730.89128
758.1201
782.41968
803.80331
822.28041
837.88148
850.67248
860.51011
866.98816
869.64646
7.0749867
6.6958324
6.8737018
6.6968642
6.1212303
5.0656089
3.4564977
1.2265829
-1.6853808
-5.3347561
-9.7713185
-15.039205
-21.177108
-28.218458
-36.191452
-45.118614
-55.017909
-65.90145
-77.776205
-90.643803
-104.50067
-119.33786
-135.14115
-151.89092
-169.56226
-188.12489
-207.54336
-227.77712
-248.78079
-270.50447
-292.89423
-315.89265
-339.43947
-363.4725
-387.92856
-412.74459
-437.85888
-463.21239
-488.75012
-514.42253
-540.18693
-566.00874
-591.86276
-617.73406
-643.61869
-669.52403
-695.46874
-721.48217
-747.60332
-773.87914
-800.36237
-827.10857
-854.17281
-881.60526
-909.4491
-937.73621
-966.47878
-995.66207
-1025.244
-1055.1502
-1085.2702
-1115.4549
-1145.5143
-1175.2165
-1204.288
-1232.4155
-1259.2489
-1284.4061
-1307.4788
-1328.0396
-1345.651
-1359.8749
-1370.2824
-1376.4651
-1378.0455
-1374.6876
-1366.1067
-1352.0781
-1332.4443
-1307.1206
-1276.0988
-1239.4486
-1197.3167
-1149.924
-1097.5606
-1040.5789
-979.38529
-914.43058
-846.19975
-775.20138
-701.95707
-626.99142
-550.82273
-473.95465
-396.8691
-320.02049
-243.83118
-168.68827
-94.941684
-22.903282
47.153071
114.99058
180.40793
243.23725
303.34159
360.61225
414.96589
466.34171
514.69853
560.01198
602.27185
641.47947
677.64523
710.78636
740.92536
768.08682
792.29334
813.56036
831.90018
847.33978
859.93059
869.53047
875.79509
878.35253
7.5777454
7.522568
8.0439512
8.1928403
7.9273915
7.1663614
5.8355808
3.8665769
1.1966839
-2.2309614
-6.4676177
-11.558795
-17.544469
-24.459154
-32.332056
-41.186499
-51.04088
-61.907635
-73.793822
-86.700909
-100.62491
-115.55622
-131.47966
-148.37434
-166.21379
-184.96584
-204.59282
-225.0516
-246.29392
-268.26668
-290.9124
-314.16992
-337.97493
-362.26107
-386.96086
-412.00691
-437.33327
-462.8768
-488.57875
-514.38622
-540.25377
-566.14483
-592.03306
-617.90351
-643.75336
-669.59252
-695.44357
-721.34139
-747.33203
-773.47113
-799.82155
-826.45044
-853.42537
-880.8103
-908.6634
-937.03179
-965.94083
-995.38851
-1025.3444
-1055.7436
-1086.4828
-1117.4171
-1148.3569
-1179.067
-1209.2665
-1238.6304
-1266.7924
-1293.3503
-1317.8716
-1339.9017
-1358.9732
-1374.6159
-1386.3684
-1393.7895
-1396.4702
-1394.0453
-1386.2039
-1372.6996
-1353.3582
-1328.0838
-1296.8634
-1259.7679
-1216.9514
-1168.6485
-1115.1677
-1056.8849
-994.2332
-927.69294
-857.78005
-785.03447
-710.00855
-633.25615
-555.32253
-476.73545
-397.99766
-319.58084
-241.92102
-165.41543
-90.420735
-17.252412
53.814819
122.54571
188.74253
252.24256
312.91527
370.65926
425.39907
477.08201
525.67507
571.16185
613.53969
652.81698
689.01049
722.14309
752.24199
779.33531
803.44858
824.6006
842.80682
858.09281
870.50535
879.91313
886.01888
888.50433
8.149075
8.4566051
9.3634504
9.8790144
9.9629348
9.5332455
8.5147628
6.8376885
4.4378477
1.2568108
-2.7582257
-7.6542152
-13.47247
-20.248623
-28.012953
-36.789546
-46.597132
-57.448456
-69.350601
-82.304801
-96.306578
-111.34554
-127.40544
-144.464
-162.493
-181.4582
-201.31946
-222.03085
-243.54093
-265.79303
-288.7258
-312.27385
-336.36844
-360.93847
-385.91165
-411.2157
-436.77981
-462.53619
-488.42172
-514.3796
-540.36115
-566.32733
-592.25038
-618.11506
-643.91967
-669.67674
-695.41315
-721.16983
-747.00074
-772.97127
-799.15572
-825.63449
-852.48924
-879.80017
-907.643
-936.08179
-965.15707
-994.88222
-1025.2404
-1056.178
-1087.6004
-1119.3677
-1151.2916
-1183.1334
-1214.6041
-1245.3657
-1275.0338
-1303.1831
-1329.3539
-1353.0603
-1373.8004
-1391.0673
-1404.3618
-1413.2049
-1417.151
-1415.8009
-1408.8136
-1395.9171
-1376.9177
-1351.7068
-1320.2653
-1282.6657
-1239.071
-1189.7311
-1134.9767
-1075.2105
-1010.897
-942.55078
-870.72366
-795.99186
-718.94325
-640.16531
-560.2342
-479.70516
-399.10453
-318.92344
-239.61313
-161.58193
-85.193692
-10.767537
61.421348
131.13996
198.19505
262.43022
323.72258
381.97935
437.13427
489.14417
537.98549
583.65112
626.14724
665.49047
701.70518
734.82101
764.87097
791.88804
815.90204
836.93614
855.0094
870.1483
882.40084
891.64916
897.63089
900.06181
8.7684511
9.4706786
10.800867
11.720474
12.189935
12.126009
11.452174
10.09711
7.9950092
5.0857709
1.3149538
-3.3659438
-8.9996565
-15.623022
-23.267487
-31.958004
-41.713695
-52.547641
-64.46699
-77.472752
-91.559946
-106.71737
-122.92764
-140.167
-158.40537
-177.60626
-197.7269
-218.7183
-240.52551
-263.08801
-286.34017
-310.21194
-334.62961
-359.51688
-384.796
-410.3892
-436.22017
-462.21578
-488.30789
-514.43515
-540.54502
-566.59547
-592.55686
-618.41335
-644.1642
-669.82457
-695.42591
-721.01569
-746.65654
-772.42466
-798.40712
-824.6992
-851.39857
-878.60406
-906.4115
-934.90372
-964.13916
-994.14935
-1024.9333
-1056.4508
-1088.6179
-1121.3009
-1154.3136
-1187.4141
-1220.3049
-1252.6334
-1283.9952
-1313.9392
-1341.9746
-1367.58
-1390.2142
-1409.3283
-1424.3796
-1434.8456
-1440.2386
-1440.1202
-1434.1142
-1421.9194
-1403.3193
-1378.1903
-1346.5065
-1308.3421
-1263.8703
-1213.359
-1157.1641
-1095.7199
-1029.527
-959.13944
-885.15054
-808.17823
-728.85105
-647.79488
-565.62099
-482.91567
-400.23172
-318.0819
-236.93417
-157.20883
-79.277237
-3.4619687
69.961887
140.76446
208.75813
273.79406
335.75842
394.56847
450.1686
502.52652
551.62951
597.48099
640.09718
679.5041
715.73476
748.8266
778.81952
805.75251
829.66092
850.57321
868.51295
883.50966
895.616
904.72728
910.60724
912.9944
9.4584855
10.594942
12.390774
13.755217
14.649344
14.988213
14.693643
13.692571
11.917379
9.3061592
5.8027152
1.3568781
-4.075593
-10.532823
-18.047508
-26.645535
-36.346333
-47.163309
-59.103647
-72.168111
-86.351155
-101.64071
-118.01815
-135.45814
-153.92861
-173.39064
-193.79862
-215.10023
-237.23677
-260.14347
-283.75
-307.98124
-332.75796
-357.99806
-383.61776
-409.53308
-435.66152
-461.92387
-488.24624
-514.562
-540.81407
-566.95681
-592.95816
-618.80134
-644.48631
-670.03088
-695.47127
-720.86201
-746.27518
-771.79893
-797.53457
-823.59401
-850.09315
-877.15191
-904.88872
-933.40813
-962.78939
-993.08462
-1024.3114
-1056.4457
-1089.4157
-1123.0962
-1157.3036
-1191.7935
-1226.2593
-1260.3326
-1293.5868
-1325.542
-1355.6726
-1383.4169
-1408.1889
-1429.3922
-1446.4342
-1458.7427
-1465.7816
-1467.0672
-1462.1832
-1450.7942
-1432.6577
-1407.6324
-1375.6848
-1336.8909
-1291.4355
-1239.6075
-1181.792
-1118.4594
-1050.1522
-977.46997
-901.05349
-821.56852
-739.69005
-656.08759
-571.41211
-486.28477
-401.2879
-316.9581
-233.78154
-152.19124
-72.566223
4.7678515
79.536802
151.51503
220.5219
286.41772
349.09932
408.49565
464.56342
517.28279
566.65344
612.69073
655.42228
694.88475
731.12093
764.17716
794.10126
820.93928
844.73309
865.51724
883.32064
898.17742
910.14656
919.13533
924.92745
927.27745
10.206167
11.813254
14.11601
15.965356
17.322744
18.101163
18.220488
17.605679
16.187124
13.900942
10.689039
6.4994316
1.2862656
-4.9899885
-12.363363
-20.860843
-30.502179
-41.301119
-53.264938
-66.394152
-80.682623
-96.11739
-112.67856
-130.33911
-149.06485
-168.81432
-189.53883
-211.1825
-233.68257
-256.96965
-280.96832
-305.59785
-330.77297
-356.40516
-382.40389
-408.67828
-435.13882
-461.69942
-488.27957
-514.80656
-541.21793
-567.46371
-593.50878
-619.33485
-644.94228
-670.3514
-695.60329
-720.76
-745.90382
-771.13593
-796.57341
-822.34661
-848.59205
-875.45344
-903.07459
-931.58512
-961.08796
-991.65907
-1023.3378
-1056.1189
-1089.9456
-1124.7028
-1160.2114
-1196.2246
-1232.4264
-1268.4317
-1303.7895
-1337.9877
-1370.4616
-1400.6043
-1427.7794
-1451.336
-1470.6252
-1485.0177
-1493.9221
-1496.8029
-1493.1973
-1482.731
-1465.131
-1440.2361
-1408.0034
-1368.5111
-1321.9574
-1268.6554
-1209.0237
-1143.5745
-1072.8982
-997.64678
-918.51545
-836.22456
-751.50188
-665.06635
-577.61359
-489.80378
-402.25192
-315.52075
-230.11604
-146.4842
-65.011847
13.972875
90.197742
163.4428
233.53605
300.34865
363.78994
423.8024
480.35681
533.44755
583.08825
629.30776
672.14648
711.65298
747.88106
780.88702
810.72768
837.45717
861.12477
881.77188
899.43356
914.14963
925.98611
934.86075
940.57322
942.88996
11.027567
13.146554
16.000485
18.377125
20.2384
21.494949
22.064442
21.869624
20.838677
18.905557
16.01011
12.098368
7.1227478
1.0421796
-6.17879
-14.568397
-24.146648
-34.927684
-46.918835
-60.120329
-74.525431
-90.120248
-106.88355
-124.78656
-143.79287
-163.85828
-184.93085
-206.95091
-229.8513
-253.55766
-277.98902
-303.05855
-328.67436
-354.74082
-381.15996
-407.83314
-434.66302
-461.55572
-488.42317
-515.18564
-541.7744
-568.13425
-594.22627
-620.03004
-645.54585
-670.79632
-695.82752
-720.70934
-745.53508
-770.42005
-795.49878
-820.92187
-846.8492
-873.45117
-900.90034
-929.35463
-958.94411
-989.77223
-1021.9035
-1055.3548
-1090.0874
-1125.9987
-1162.9155
-1200.5898
-1238.6961
-1276.8314
-1314.5177
-1351.2078
-1386.2933
-1419.1165
-1448.984
-1475.1836
-1497.002
-1513.7452
-1524.7585
-1529.447
-1527.2948
-1517.8824
-1500.9021
-1476.1694
-1443.6306
-1403.3665
-1355.5906
-1300.6436
-1238.9828
-1171.1684
-1097.8461
-1019.7277
-937.57063
-852.15755
-764.27613
-674.70108
-584.17814
-493.41088
-403.05033
-313.68767
-225.84957
-139.99625
-56.521647
24.244523
102.03337
176.6323
247.87987
315.66018
379.89714
440.54887
497.60218
551.06756
600.97435
647.3665
690.29864
729.83261
766.03437
798.97132
828.71026
855.31434
878.84104
899.3393
916.85101
931.42236
943.1266
951.89072
957.52758
959.81304
11.915071
14.585968
18.035666
20.982522
23.388901
25.162834
26.219534
26.479299
25.867881
24.316863
21.763846
18.152688
13.433952
7.5648207
0.50838162
-7.7649689
-17.275603
-28.038205
-40.060032
-53.341054
-67.873949
-83.64389
-100.62828
-118.79652
-138.10988
-158.52129
-179.9754
-202.40846
-225.74861
-249.91617
-274.82415
-300.37909
-326.48184
-353.02896
-379.91424
-407.03043
-434.2714
-461.53444
-488.72292
-515.74897
-542.53653
-569.0242
-595.16828
-620.94546
-646.35535
-671.4225
-696.19786
-720.75951
-745.21242
-769.68714
-794.33738
-819.33578
-844.8686
-871.13651
-898.34449
-926.68161
-956.30952
-987.36312
-1019.9362
-1054.0719
-1089.7528
-1126.8915
-1165.3231
-1204.7995
-1244.9859
-1285.4601
-1325.7152
-1365.1648
-1403.1523
-1438.963
-1471.8397
-1501.0003
-1525.6591
-1545.0482
-1558.4408
-1565.1739
-1564.6707
-1556.4601
-1540.1941
-1515.6615
-1482.796
-1441.681
-1392.5476
-1335.7684
-1271.8451
-1201.3932
-1125.1215
-1043.8106
-958.28917
-869.41049
-778.0302
-684.98581
-591.07918
-497.06197
-403.62475
-311.38939
-220.90468
-132.64485
-47.010569
35.668133
115.12742
191.16415
263.62969
332.42344
397.48629
458.79426
516.35245
570.18946
620.35225
666.90157
709.90782
749.4475
785.59997
818.4448
848.05977
874.51792
897.88568
918.22012
935.57052
949.98988
961.55862
970.21194
975.77412
978.02891
12.880566
16.146788
20.239142
23.801021
26.795451
29.127644
30.710123
31.460486
31.301813
30.16308
27.97943
24.692344
20.250363
14.608704
7.7290038
-0.41970731
-9.8587691
-20.60323
-32.659987
-46.028867
-60.701976
-76.663549
-93.8896
-112.34765
-131.99657
-152.78632
-174.65791
-197.5433
-221.36566
-246.03954
-271.47151
-297.5609
-324.20065
-351.27878
-378.67996
-406.2874
-433.98511
-461.66048
-489.20711
-516.52781
-543.53799
-570.16884
-596.37082
-622.11676
-647.40484
-672.26103
-696.74099
-720.93115
-744.94887
-768.94095
-793.0822
-817.56894
-842.61753
-868.46323
-895.34636
-923.49015
-953.09371
-984.32785
-1017.3202
-1052.1446
-1088.8089
-1127.2444
-1167.2972
-1208.7204
-1251.1703
-1294.205
-1337.286
-1379.7842
-1420.9893
-1460.1233
-1496.3567
-1528.8295
-1556.6733
-1579.0363
-1595.1096
-1604.1526
-1605.5185
-1598.677
-1583.2337
-1558.9461
-1525.7338
-1483.6828
-1433.0445
-1374.2278
-1307.7857
-1234.3969
-1154.8431
-1069.9835
-980.72786
-888.01016
-792.76283
-695.89406
-598.26825
-500.69031
-403.89393
-308.53393
-215.18219
-124.32689
-36.374426
48.346514
129.57932
207.13279
280.87377
350.71973
416.6312
478.60469
536.666
590.86409
641.26555
687.94974
731.00446
770.52224
806.59711
839.32188
868.78626
895.07398
918.2611
938.41339
955.58794
969.84481
981.27143
989.81043
995.29641
997.52006
13.920292
17.825009
22.607881
26.830701
30.457272
33.38978
35.537819
36.816029
37.144554
36.449515
34.663347
31.724964
27.580664
22.183568
15.493741
7.4785559
-1.8845517
-12.610597
-24.706328
-38.17143
-52.997462
-69.16774
-86.656892
-105.43054
-125.4451
-146.64743
-168.97475
-192.35452
-216.7046
-241.93344
-267.94065
-294.61778
-321.84918
-349.51352
-377.48544
-405.63756
-433.84294
-461.97779
-489.92464
-517.57563
-544.83622
-571.62885
-597.89686
-623.60803
-648.75813
-673.37388
-697.51526
-721.27714
-744.7898
-768.21738
-791.75761
-815.6326
-840.09256
-865.4116
-891.86829
-919.72509
-949.22418
-980.57742
-1013.9516
-1049.4562
-1087.1292
-1126.9249
-1168.7031
-1212.2206
-1257.1255
-1302.9553
-1349.1376
-1394.9966
-1439.7629
-1482.5874
-1522.5603
-1558.733
-1590.1439
-1615.8462
-1634.9372
-1646.5876
-1650.0704
-1644.7871
-1630.2902
-1606.301
-1572.7222
-1529.6429
-1477.3375
-1416.2567
-1347.0124
-1270.3562
-1187.1533
-1098.3528
-1004.9574
-907.99274
-808.47803
-707.40088
-605.69545
-504.22526
-403.7709
-305.02228
-208.57513
-114.93108
-24.500832
62.390429
145.496
224.63957
299.70665
370.63586
437.41044
500.05028
558.60452
613.1449
663.75982
710.54916
753.61977
793.08169
829.04483
861.61636
890.8988
916.98734
939.96827
959.91652
976.89736
990.97808
1002.2529
1010.6713
1016.0775
1018.2687
15.043279
19.632109
25.155282
30.086661
34.391121
37.967631
40.722608
42.56745
43.419069
43.200444
41.841035
39.27696
35.452024
30.317138
23.830601
15.957857
6.6749863
-4.0328446
-16.172263
-29.742848
-44.735625
-61.13303
-78.908316
-98.025194
-118.43759
-140.08916
-162.91322
-186.83252
-211.75929
-237.59551
-264.23334
-291.55598
-319.43845
-347.74923
-376.35194
-405.10752
-433.87681
-462.5235
-490.91759
-518.939
-546.4817
-573.45778
-599.80194
-625.47556
-650.4708
-674.81418
-698.5695
-721.83993
-744.76916
-767.53973
-790.37401
-813.52261
-837.27306
-861.94197
-887.85146
-915.30891
-944.60437
-975.99697
-1009.6988
-1045.8609
-1084.557
-1125.769
-1169.3746
-1215.1367
-1262.6965
-1311.5702
-1361.1496
-1410.7079
-1459.4101
-1506.3284
-1550.4628
-1590.7653
-1626.1688
-1655.6184
-1678.1047
-1692.6971
-1698.5768
-1695.0667
-1681.6579
-1658.0301
-1624.0661
-1579.8582
-1525.7071
-1462.1115
-1389.7512
-1309.4614
-1222.2031
-1129.0291
-1031.048
-929.38944
-825.17111
-719.4697
-613.29689
-507.58065
-403.15228
-300.73881
-200.96015
-104.33048
-11.262787
77.923986
162.99631
243.79634
320.23185
392.26622
459.90884
523.20616
582.23359
637.08827
687.88268
734.73925
777.78561
817.15078
852.96184
885.34128
914.40536
940.26141
963.0065
982.72517
999.4911
1013.3789
1024.4893
1032.7784
1038.0996
1040.2563
16.248535
21.567327
27.881813
33.570733
38.600273
42.865972
46.270798
48.722592
50.134706
50.426661
49.524645
47.361737
43.878969
39.024909
32.755911
25.035235
15.83736
5.1477349
-7.0400822
-20.725628
-35.899454
-52.543151
-70.628664
-90.117823
-110.96204
-133.10174
-156.46621
-180.97325
-206.52925
-233.02929
-260.35764
-288.38849
-316.9868
-346.00998
-375.30958
-404.73365
-434.12946
-463.34671
-492.24121
-520.67895
-548.54062
-575.72615
-602.15983
-627.79497
-652.61867
-676.65608
-699.97401
-722.68363
-744.94226
-766.95194
-788.96132
-811.25236
-834.15353
-858.02841
-883.24862
-910.17162
-939.14169
-970.47216
-1004.4274
-1041.2069
-1080.9265
-1123.6015
-1169.1322
-1217.291
-1267.7139
-1319.8955
-1373.1896
-1426.8139
-1479.8614
-1531.3169
-1580.0793
-1624.9888
-1664.8591
-1698.5126
-1724.8183
-1742.7298
-1751.323
-1749.8306
-1737.6726
-1714.4803
-1680.1133
-1634.6673
-1578.4727
-1512.0837
-1436.2578
-1351.9268
-1260.1622
-1162.1353
-1059.076
-952.23257
-842.83378
-732.05635
-620.99805
-510.65747
-401.92049
-295.55296
-192.19898
-92.383668
3.4803229
95.083797
182.21034
264.72477
342.56135
415.71232
484.21705
548.15211
607.62235
662.75312
713.68345
760.5604
803.53418
842.75427
878.36611
910.50862
939.31254
964.89801
987.37337
1006.8331
1023.3595
1037.0346
1047.9654
1056.1142
1061.3437
1063.4631
17.542994
23.639263
30.797694
37.29473
43.09821
48.100024
52.199367
55.300159
57.311819
58.150049
57.737428
56.003728
52.886898
48.333019
42.296293
34.737601
25.629446
14.957715
2.7162853
-11.09445
-26.46465
-43.375078
-61.796471
-81.68883
-103.00109
-125.6704
-149.62192
-174.76837
-201.01002
-228.23472
-256.31831
-285.1254
-314.5101
-344.31779
-374.38687
-404.55121
-434.64304
-464.4964
-493.95116
-522.85745
-551.0806
-578.50636
-605.04655
-630.64444
-655.2803
-678.97643
-701.80157
-723.87436
-745.36579
-766.49839
-787.54854
-808.83269
-830.72423
-853.63876
-878.00335
-904.23152
-932.72903
-963.87112
-997.98246
-1035.3191
-1076.0463
-1120.2199
-1167.768
-1218.4766
-1271.979
-1327.7486
-1385.0988
-1443.1874
-1501.0284
-1557.5094
-1611.4164
-1661.4639
-1706.3308
-1744.7003
-1775.3028
-1796.9595
-1808.6253
-1809.4292
-1798.7089
-1776.0396
-1741.2533
-1694.449
-1635.9914
-1566.4981
-1486.8163
-1397.9894
-1301.2158
-1197.8032
-1089.1206
-976.55118
-861.44952
-745.10445
-628.7092
-513.33951
-399.93965
-289.31571
-182.13527
-78.932128
19.884917
114.0207
203.28071
287.55734
366.81622
441.0831
510.43166
574.97247
634.8433
690.20071
741.21287
788.05364
830.89765
869.9163
905.27466
937.12898
965.62529
990.89708
1013.0644
1032.2319
1048.4909
1061.9304
1072.6638
1080.6594
1085.7888
1087.8679
18.927474
25.84897
33.90518
41.262337
47.890245
53.676849
58.5172
62.31086
64.962888
66.384764
66.49509
65.220037
62.494138
58.260828
52.471939
45.085852
36.072629
25.418709
13.118397
-0.82814116
-16.410681
-33.609163
-52.393302
-72.721364
-94.539869
-117.78273
-142.37091
-168.21193
-195.1997
-223.21448
-252.12324
-281.78033
-312.02826
-342.69939
-373.61781
-404.6018
-435.467
-466.02999
-496.1127
-525.54723
-554.1813
-581.8841
-608.55258
-634.11769
-658.55072
-681.8693
-704.14265
-725.49607
-746.11389
-766.24013
-786.18004
-806.28796
-826.98662
-848.74932
-872.0643
-897.40816
-925.25644
-956.05514
-990.19838
-1028.0078
-1069.7072
-1115.4002
-1165.05
-1218.4615
-1275.2678
-1334.9221
-1396.6956
-1459.6815
-1522.8069
-1584.852
-1644.4766
-1700.2538
-1750.7103
-1794.3712
-1829.8088
-1855.6927
-1870.8392
-1874.2573
-1865.1898
-1843.1461
-1807.9261
-1759.6316
-1698.6662
-1625.7205
-1541.7454
-1447.9128
-1345.5681
-1236.176
-1121.2646
-1002.3713
-880.99303
-758.54423
-636.32386
-515.49163
-397.05388
-281.85781
-170.59304
-63.798853
38.124314
134.90063
226.36316
312.43767
393.12677
468.495
538.65511
603.75599
663.97206
719.49429
770.52273
817.26029
859.90781
898.66016
933.70314
965.21129
993.3466
1018.2564
1040.0729
1058.9111
1074.8711
1088.0493
1098.5651
1106.3925
1111.4126
1113.4474
20.407232
28.202517
37.211603
45.482368
52.986921
59.608904
65.238739
69.771122
73.106243
75.150903
75.819316
75.033731
72.724916
68.833475
63.308609
56.106119
47.193276
36.557009
24.191953
10.098341
-5.7132952
-23.222309