/*--------------------------------*- C++ -*----------------------------------*\
| =========                 |                                                 |
| \\      /  F ield         | foam-extend: Open Source CFD                    |
|  \\    /   O peration     | Version:     4.1                                |
|   \\  /    A nd           | Web:         http://www.foam-extend.org         |
|    \\/     M anipulation  |                                                 |
\*---------------------------------------------------------------------------*/
FoamFile
{
    version     2.0;
    format      ascii;
    class       surfaceScalarField;
    location    "0.3";
    object      phi;
}
// * * * * * * * * * * * * * * * * * * * * * * * * * * * * * * * * * * * * * //

dimensions      [0 3 -1 0 0 0 0];

internalField   nonuniform List<scalar> 
32976
(
-0.23005306
0.00022272306
-0.2303074
0.00025434731
-0.2304979
0.00019049614
-0.23063041
0.00013250515
-0.23069844
6.8037041e-05
-0.23070466
6.21751e-06
-0.2306517
-5.296256e-05
-0.230541
-0.00011069314
-0.23037304
-0.00016796846
-0.23014932
-0.00022371733
-0.22987268
-0.00027663872
-0.22954729
-0.0003253857
-0.22917869
-0.0003686022
-0.22877366
-0.00040502739
-0.22834014
-0.00043352381
-0.22788701
-0.00045313006
-0.22742396
-0.00046304635
-0.2269613
-0.00046266268
-0.22650978
-0.00045151854
-0.22608046
-0.00042932009
-0.22568457
-0.00039589665
-0.22533334
-0.00035122524
-0.22503793
-0.00029541074
-0.22480918
-0.00022874881
-0.2246574
-0.00015178009
-0.22459199
-6.5409423e-05
-0.22462046
2.8471704e-05
-0.2247445
0.00012403143
-0.22496051
0.00021601643
-0.22526478
0.00030426409
-0.22565423
0.00038945224
-0.22612581
0.00047158005
-0.22667613
0.0005503226
-0.22730124
0.00062511007
-0.22799652
0.00069527653
-0.22875663
0.00076011165
-0.22957558
0.00081895467
-0.23044677
0.00087118256
-0.23136305
0.00091628243
-0.23231686
0.00095381211
-0.23330033
0.00098346747
-0.23430536
0.0010050296
-0.23532378
0.0010184222
-0.23634745
0.0010236736
-0.23736839
0.0010209343
-0.23837886
0.0010104675
-0.2393715
0.00099264352
-0.24033943
0.00096793347
-0.24127633
0.00093689505
-0.24217649
0.00090016458
-0.24303493
0.00085844131
-0.24384741
0.00081247254
-0.24461044
0.00076303694
-0.24532137
0.0007109289
-0.24597831
0.00065693749
-0.24658014
0.00060183188
-0.24712648
0.00054634253
-0.24761763
0.00049114523
-0.24805448
0.00043684641
-0.24843845
0.00038397193
-0.2487714
0.00033295569
-0.24905554
0.0002841354
-0.24929329
0.00023774897
-0.24948722
0.00019393431
-0.24963995
0.00015273135
-0.24975405
0.00011409185
-0.24983194
7.7892552e-05
-0.24987589
4.3946918e-05
-0.24988788
1.1994257e-05
-0.24986931
-1.8569023e-05
-0.24982102
-4.8290939e-05
-0.24974417
-7.6846848e-05
-0.24964037
-0.00010380573
-0.24951117
-0.00012919928
-0.24935803
-0.00015313878
-0.24918227
-0.00017575685
-0.24898511
-0.0001971618
-0.24876769
-0.00021742178
-0.24853113
-0.00023655974
-0.24827658
-0.00025455297
-0.24800524
-0.00027133871
-0.24771842
-0.00028682011
-0.24741754
-0.0003008752
-0.24710418
-0.00031336655
-0.24678002
-0.00032415115
-0.24644693
-0.00033309031
-0.24610688
-0.00034005872
-0.24576192
-0.00034495226
-0.24541423
-0.00034769452
-0.24506599
-0.00034824126
-0.2447194
-0.00034658385
-0.24437666
-0.00034274873
-0.24403986
-0.000336798
-0.24371103
-0.00032882607
-0.24339208
-0.00031895592
-0.24308474
-0.00030733408
-0.24279062
-0.0002941248
-0.24251111
-0.00027950436
-0.24224746
-0.00026365371
-0.24200071
-0.00024675373
-0.24177173
-0.00022897905
-0.24156123
-0.00021049355
-0.24136979
-0.00019144646
-0.24119782
-0.00017197006
-0.24104564
-0.00015217718
-0.24091348
-0.00013216163
-0.24080148
-0.00011199801
-0.24070974
-9.1742889e-05
-0.2406383
-7.1436563e-05
-0.2405872
-5.1105116e-05
-0.24055643
-3.0761082e-05
-0.24054602
-1.041241e-05
-0.2405559
9.878647e-06
-0.240586
3.0102003e-05
-0.24063632
5.0316856e-05
-0.24070684
7.0521845e-05
-0.24079751
9.0665019e-05
-0.24090813
0.00011062314
-0.24103831
0.0001301805
-0.24118734
0.0001490326
-0.24135336
0.00016601908
-0.24153091
0.0001775487
-0.24171932
0.00018841011
0.00021612946
-0.26126977
0.00025089711
-0.26125244
0.00023700874
-0.261168
0.00010606322
-0.26101088
-2.4616178e-05
-0.2607768
-0.00016604104
-0.26046387
-0.00030671239
-0.26007342
-0.00044341987
-0.25961199
-0.00057211889
-0.25908967
-0.00069028828
-0.25851728
-0.00079610723
-0.25790589
-0.00088803282
-0.25726648
-0.00096479348
-0.25660977
-0.0010253156
-0.25594602
-0.0010687754
-0.255285
-0.0010945427
-0.25463587
-0.0011022574
-0.25400715
-0.0010917628
-0.25340664
-0.0010631737
-0.25284137
-0.0010167904
-0.25231754
-0.0009531513
-0.2518405
-0.00087293927
-0.2514147
-0.00077702818
-0.2510437
-0.00066640692
-0.25073021
-0.00054224022
-0.25047614
-0.00040584638
-0.25028273
-0.00025882256
-0.2501511
-0.00010316116
-0.25008619
5.9123939e-05
-0.25009528
0.00022511075
-0.25018241
0.00039139507
-0.25034858
0.00055561567
-0.25059285
0.00071585351
-0.25091285
0.00087032255
-0.25130507
0.0010173253
-0.25176506
0.0011552721
-0.25228759
0.0012826411
-0.25286671
0.0013980709
-0.25349584
0.0015003117
-0.25416789
0.0015883348
-0.25487534
0.0016612614
-0.25561035
0.0017184781
-0.25636486
0.0017595459
-0.25713074
0.0017843016
-0.25789986
0.0017927916
-0.25866423
0.0017853038
-0.25941611
0.0017623505
-0.26014813
0.0017246581
-0.26085335
0.0016731549
-0.2615254
0.0016089453
-0.26215853
0.0015332933
-0.26274768
0.0014475926
-0.26328855
0.0013533384
-0.2637776
0.0012520945
-0.26421214
0.0011454624
-0.26459024
0.0010350413
-0.26491081
0.00092239814
-0.2651735
0.00080903076
-0.26537869
0.00069633598
-0.26552742
0.00058557985
-0.26562132
0.00047787365
-0.26566252
0.00037415109
-0.26565354
0.00027515702
-0.26559723
0.00018143865
-0.26549664
9.3342932e-05
-0.26535493
1.1018993e-05
-0.26517526
-6.5577938e-05
-0.26496071
-0.00013665698
-0.26471424
-0.00020252047
-0.26443867
-0.00026357687
-0.26413696
-0.00032027726
-0.26381217
-0.00037308505
-0.26346649
-0.00042252543
-0.2631012
-0.00046908908
-0.26271722
-0.00051318707
-0.26231518
-0.00055517634
-0.2618956
-0.00059534105
-0.26145888
-0.00063387813
-0.26100541
-0.00067088898
-0.26053559
-0.00070637955
-0.26004988
-0.0007402621
-0.25954885
-0.0007723692
-0.25903321
-0.00080246543
-0.25850382
-0.0008302655
-0.25796173
-0.00085545354
-0.25740818
-0.00087770246
-0.25684458
-0.0008966937
-0.2562725
-0.00091213493
-0.25569368
-0.00092377569
-0.25510995
-0.00093142019
-0.25452326
-0.00093493636
-0.25393558
-0.00093426334
-0.25334892
-0.00092940973
-0.25276526
-0.00092045608
-0.25218653
-0.00090754837
-0.2516146
-0.00089089114
-0.2510512
-0.00087073818
-0.25049794
-0.00084738139
-0.2499563
-0.00082114081
-0.24942761
-0.00079234936
-0.24891302
-0.00076134492
-0.24841354
-0.00072845803
-0.24793003
-0.00069400306
-0.2474632
-0.00065827032
-0.24701365
-0.00062152168
-0.24658185
-0.00058398387
-0.24616816
-0.00054584923
-0.24577288
-0.0005072739
-0.24539625
-0.00046837935
-0.24503843
-0.00042925489
-0.24469957
-0.00038996242
-0.24437979
-0.00035053969
-0.24407919
-0.00031101019
-0.24379794
-0.00027137607
-0.2435362
-0.00023164149
-0.24329405
-0.00019183123
-0.24307154
-0.00015199021
-0.24286866
-0.0001122091
-0.24268536
-7.2675514e-05
-0.24252147
-3.3708918e-05
-0.24237662
4.1749312e-06
-0.24225001
3.941455e-05
-0.2421414
6.8932304e-05
-0.24204823
9.5249072e-05
0.00010334455
-0.26424366
8.7080466e-05
-0.26396922
-3.7432573e-05
-0.26363003
-0.00023312766
-0.26322753
-0.00042711539
-0.26276729
-0.00062627941
-0.26225405
-0.00081995617
-0.26169348
-0.001003986
-0.26109176
-0.0011738357
-0.26045583
-0.0013262256
-0.25979327
-0.0014586664
-0.25911215
-0.0015691511
-0.25842084
-0.0016560976
-0.25772794
-0.0017182242
-0.25704206
-0.0017546478
-0.25637182
-0.0017647892
-0.25572558
-0.0017484985
-0.25511139
-0.0017059443
-0.25453685
-0.0016377215
-0.25400892
-0.0015447174
-0.25353388
-0.0014281936
-0.25311717
-0.0012896433
-0.25276334
-0.001130856
-0.25247596
-0.00095379204
-0.25225756
-0.00076064381
-0.25210965
-0.00055375002
-0.25203281
-0.00033566386
-0.25202689
-0.00010908451
-0.25209105
0.00012328306
-0.2522244
0.00035846787
-0.25242605
0.00059304243
-0.25269417
0.00082372938
-0.25302598
0.0010476696
-0.25341794
0.0012622839
-0.2538658
0.0014651797
-0.2543647
0.0016541736
-0.25490927
0.0018272152
-0.25549371
0.001982504
-0.2561118
0.0021184073
-0.25675707
0.002233607
-0.25742281
0.0023269936
-0.25810215
0.0023978256
-0.25878821
0.0024456005
-0.2594741
0.0024701964
-0.26015309
0.0024717792
-0.26081864
0.0024508483
-0.2614645
0.0024082128
-0.26208482
0.0023449774
-0.26267419
0.0022625264
-0.26322773
0.0021624866
-0.26374114
0.0020467048
-0.26421075
0.0019172057
-0.26463357
0.0017761508
-0.26500726
0.001625792
-0.26533023
0.0014684273
-0.26560153
0.0013063432
-0.2658209
0.0011417719
-0.26598871
0.00097683847
-0.26610589
0.00081351499
-0.26617389
0.0006535785
-0.26619459
0.00049857648
-0.26617024
0.00034979569
-0.26610333
0.00020824644
-0.26599654
7.4652469e-05
-0.26585265
-5.0552484e-05
-0.26567441
-0.00016721745
-0.26546453
-0.00027545257
-0.26522561
-0.00037558674
-0.26495998
-0.00046814344
-0.26466978
-0.00055377939
-0.26435684
-0.00063321351
-0.26402271
-0.00070721762
-0.26366862
-0.00077661991
-0.26329552
-0.00084218557
-0.26290416
-0.00090455186
-0.26249508
-0.00096425439
-0.26206871
-0.0010217077
-0.2616254
-0.0010771887
-0.26116546
-0.001130826
-0.26068924
-0.0011826024
-0.26019714
-0.0012323578
-0.2596897
-0.0012798112
-0.25916759
-0.0013245789
-0.25863165
-0.0013662016
-0.25808293
-0.0014041746
-0.25752266
-0.0014379764
-0.25695225
-0.0014670991
-0.25637331
-0.001491075
-0.25578759
-0.0015095003
-0.25519695
-0.0015220548
-0.25460338
-0.001528515
-0.25400887
-0.0015287662
-0.25341548
-0.0015227992
-0.25282523
-0.0015107144
-0.25224006
-0.0014927123
-0.25166187
-0.0014690828
-0.25109242
-0.0014401917
-0.25053333
-0.0014064633
-0.24998611
-0.0013683667
-0.24945207
-0.0013263916
-0.24893237
-0.0012810373
-0.24842804
-0.0012327941
-0.24793991
-0.0011821299
-0.2474687
-0.0011294782
-0.24701499
-0.0010752319
-0.24657924
-0.0010197323
-0.24616182
-0.00096327051
-0.24576301
-0.00090608427
-0.24538303
-0.00084835977
-0.24502205
-0.000790235
-0.24468021
-0.00073180661
-0.24435761
-0.00067313377
-0.24405438
-0.00061425
-0.24377058
-0.00055516666
-0.24350633
-0.00049589683
-0.24326169
-0.00043646945
-0.24303674
-0.00037693976
-0.24283153
-0.00031742416
-0.24264605
-0.00025815347
-0.24248024
-0.00019951553
-0.24233388
-0.00014218721
-0.2422067
-8.7767421e-05
-0.24209932
-3.845058e-05
-0.24200958
5.5138316e-06
2.9364333e-05
-0.2645843
-0.00013301987
-0.26426476
-0.00035696891
-0.26388406
-0.00061382973
-0.26344436
-0.00086681691
-0.26295211
-0.0011185278
-0.26241181
-0.0013602598
-0.26182852
-0.0015872765
-0.26120763
-0.0017947166
-0.26055518
-0.0019786755
-0.2598779
-0.0021359516
-0.2591832
-0.0022638458
-0.25847908
-0.0023602272
-0.2577739
-0.0024234027
-0.25707627
-0.0024522744
-0.25639486
-0.0024461996
-0.2557382
-0.0024051574
-0.25511456
-0.0023295839
-0.25453177
-0.0022205136
-0.2539971
-0.0020793906
-0.25351711
-0.0019081763
-0.2530976
-0.0017091528
-0.25274346
-0.001485004
-0.25245861
-0.0012386391
-0.25224599
-0.00097325966
-0.25210751
-0.00069222923
-0.25204404
-0.00039913442
-0.25205545
-9.767397e-05
-0.25214059
0.00020842063
-0.25229749
0.00051536834
-0.25252372
0.00081926598
-0.25281631
0.001116324
-0.2531717
0.0014030564
-0.25358566
0.0016762491
-0.25405341
0.0019329228
-0.25456963
0.0021703995
-0.25512862
0.002386203
-0.25572432
0.0025782043
-0.25635041
0.0027445011
-0.2570004
0.0028835988
-0.25766767
0.0029942626
-0.25834557
0.0030757174
-0.25902744
0.0031274763
-0.25970677
0.0031495204
-0.26037716
0.0031421779
-0.2610325
0.003106183
-0.26166693
0.0030426468
-0.262275
0.002953041
-0.26285165
0.0028391797
-0.26339234
0.0027031751
-0.26389305
0.0025474117
-0.26435033
0.0023744944
-0.26476138
0.0021871992
-0.26512401
0.0019884158
-0.26543667
0.0017810916
-0.26569849
0.0015681597
-0.2659092
0.001352484
-0.26606915
0.0011367909
-0.26617925
0.00092361022
-0.26624089
0.00071521975
-0.26625591
0.00051359956
-0.26622651
0.00032039085
-0.26615514
0.00013687479
-0.26604444
-3.6039791e-05
-0.26589716
-0.00019783326
-0.26571602
-0.00034835691
-0.26550367
-0.00048780182
-0.26526262
-0.00061664332
-0.26499515
-0.00073560578
-0.26470334
-0.00084559456
-0.26438894
-0.00094761664
-0.26405342
-0.0010427312
-0.26369803
-0.0011320144
-0.26332373
-0.0012164811
-0.26293127
-0.0012970197
-0.26252115
-0.0013743725
-0.26209375
-0.0014491031
-0.26164936
-0.0015215775
-0.26118824
-0.0015919539
-0.26071065
-0.0016601888
-0.26021697
-0.001726042
-0.25970767
-0.0017891087
-0.2591834
-0.0018488442
-0.258645
-0.0019046018
-0.2580935
-0.0019556734
-0.25753015
-0.0020013294
-0.25695639
-0.0020408596
-0.25637386
-0.0020736097
-0.25578434
-0.0020990137
-0.25518978
-0.0021166196
-0.25459218
-0.0021261085
-0.25399364
-0.0021273098
-0.25339624
-0.0021201969
-0.25280206
-0.0021048931
-0.25221312
-0.0020816576
-0.25163133
-0.0020508719
-0.2510585
-0.0020130205
-0.2504963
-0.0019686681
-0.24994622
-0.0019184405
-0.24940962
-0.0018629919
-0.24888767
-0.0018029907
-0.24838137
-0.0017390935
-0.24789157
-0.0016719274
-0.24741898
-0.0016020743
-0.24696415
-0.0015300616
-0.24652753
-0.001456348
-0.24610948
-0.0013813249
-0.24571025
-0.0013053123
-0.24533005
-0.0012285609
-0.24496903
-0.0011512562
-0.24462731
-0.0010735277
-0.24430499
-0.00099545332
-0.24400216
-0.00091707426
-0.24371893
-0.00083840333
-0.24345538
-0.00075944661
-0.24321162
-0.00068022149
-0.24298779
-0.00060077657
-0.24278399
-0.00052122436
-0.24260035
-0.00044179237
-0.24243699
-0.00036287105
-0.24229401
-0.00028516548
-0.24217169
-0.00021008848
-0.24207083
-0.0001393139
-0.24199082
-7.4491819e-05
-2.6010282e-05
-0.26474108
-0.00036763612
-0.26442254
-0.00067551322
-0.26404092
-0.0009954439
-0.26359866
-0.0013090754
-0.26310163
-0.0016155648
-0.26255431
-0.001907573
-0.26196186
-0.00217973
-0.26132989
-0.0024266878
-0.26066477
-0.0026437988
-0.25997359
-0.0028271322
-0.2592641
-0.0029733303
-0.25854457
-0.0030797615
-0.25782361
-0.0031443577
-0.25711006
-0.0031658288
-0.25641278
-0.0031434805
-0.25574051
-0.0030774286
-0.25510171
-0.002968384
-0.25450439
-0.0028178329
-0.25395598
-0.0026277915
-0.25346322
-0.0024009415
-0.253032
-0.0021403763
-0.2526673
-0.0018496973
-0.25237316
-0.0015327806
-0.25215258
-0.0011938446
-0.25200754
-0.00083726387
-0.25193906
-0.00046761236
-0.25194722
-8.9518593e-05
-0.25203116
0.0002923601
-0.25218916
0.00067336901
-0.25241874
0.0010488432
-0.25271669
0.0014142748
-0.25307912
0.0017654924
-0.25350153
0.0020986545
-0.25397883
0.0024102215
-0.25450548
0.0026970473
-0.25507553
0.0029562548
-0.25568273
0.0031854094
-0.25632059
0.0033823624
-0.25698246
0.003545465
-0.25766158
0.0036733787
-0.25835117
0.0037653146
-0.25904452
0.0038208177
-0.25973498
0.0038399852
-0.26041612
0.0038233162
-0.26108172
0.0037717847
-0.26172588
0.0036868053
-0.26234305
0.0035702163
-0.26292813
0.0034242601
-0.26347649
0.0032515336
-0.26398404
0.0030549596
-0.26444727
0.0028377276
-0.26486331
0.0026032359
-0.26522992
0.0023550242
-0.26554553
0.0020967059
-0.26580926
0.0018318815
-0.26602084
0.00156407
-0.26618068
0.0012966248
-0.26628972
0.0010326594
-0.26634948
0.00077497704
-0.26636189
0.00052601251
-0.26632928
0.00028777986
-0.26625425
6.1844366e-05
-0.26613959
-0.00015070013
-0.26598819
-0.00034923989
-0.2658029
-0.00053363939
-0.26558653
-0.00070417258
-0.2653417
-0.00086147974
-0.2650708
-0.0010065072
-0.26477596
-0.0011404295
-0.26445901
-0.0012645651
-0.26412144
-0.0013803031
-0.26376442
-0.0014890344
-0.26338884
-0.0015920639
-0.26299532
-0.0016905355
-0.2625843
-0.0017853976
-0.26215604
-0.001877363
-0.26171073
-0.0019668858
-0.26124853
-0.0020541496
-0.26076965
-0.0021390764
-0.26027435
-0.0022213348
-0.25976308
-0.0023003813
-0.25923643
-0.0023754929
-0.25869522
-0.0024458169
-0.25814047
-0.0025104227
-0.25757344
-0.0025683538
-0.25699562
-0.0026186806
-0.25640868
-0.0026605469
-0.25581449
-0.0026932118
-0.25521502
-0.0027160827
-0.25461239
-0.0027287388
-0.25400875
-0.0027309513
-0.25340627
-0.0027226766
-0.2528071
-0.0027040643
-0.25221332
-0.002675438
-0.25162691
-0.0026372785
-0.25104974
-0.0025901982
-0.25048349
-0.0025349121
-0.24992972
-0.0024722132
-0.24938978
-0.0024029305
-0.24886486
-0.0023279111
-0.24835597
-0.002247987
-0.24786394
-0.002163953
-0.24738947
-0.0020765458
-0.2469331
-0.0019864337
-0.24649525
-0.0018941969
-0.24607624
-0.0018003307
-0.24567632
-0.0017052393
-0.24529564
-0.0016092387
-0.24493433
-0.0015125616
-0.24459249
-0.0014153691
-0.24427019
-0.001317755
-0.2439675
-0.0012197655
-0.24368449
-0.00112141
-0.24342126
-0.001022682
-0.2431779
-0.00092357838
-0.24295455
-0.00082412375
-0.24275138
-0.00072439924
-0.24256859
-0.00062458666
-0.24240644
-0.00052501141
-0.24226534
-0.00042626651
-0.24214603
-0.00032940045
-0.24204978
-0.00023556617
-0.24197773
-0.00014653997
-6.8291848e-05
-0.26491614
-0.00061114527
-0.26459687
-0.00099478033
-0.26421352
-0.0013788019
-0.26376802
-0.0017545699
-0.26326552
-0.0021180648
-0.26271056
-0.0024625332
-0.26210841
-0.0027818806
-0.26146488
-0.0030702174
-0.26078651
-0.0033221721
-0.26008053
-0.0035331071
-0.25935488
-0.0036989882
-0.258618
-0.0038166416
-0.25787878
-0.0038835772
-0.25714633
-0.0038982738
-0.25642985
-0.0038599583
-0.25573841
-0.0037688705
-0.2550808
-0.0036259956
-0.25446535
-0.0034332814
-0.25389981
-0.0031933343
-0.25339117
-0.00290958
-0.2529456
-0.0025859501
-0.2525683
-0.0022269932
-0.2522635
-0.0018375846
-0.25203434
-0.001422999
-0.25188293
-0.00098867321
-0.2518103
-0.00054024105
-0.25181647
-8.3351338e-05
-0.25190047
0.00037635675
-0.25206044
0.00083333653
-0.25229375
0.0012821599
-0.2525971
0.0017176198
-0.25296648
0.0021348748
-0.25339728
0.0025294556
-0.25388431
0.0028972529
-0.2544219
0.0032346397
-0.25500397
0.003538324
-0.25562412
0.0038055545
-0.25627568
0.0040339257
-0.25695184
0.0042216271
-0.25764568
0.0043672105
-0.25835023
0.004469869
-0.25905859
0.0045291769
-0.25976395
0.0045453463
-0.26045968
0.0045190479
-0.2611394
0.0044514985
-0.26179701
0.0043444217
-0.26242683
0.0042000304
-0.26302357
0.0040210075
-0.26358249
0.0038104498
-0.26409937
0.003571838
-0.26457061
0.0033089696
-0.26499327
0.0030258925
-0.26536507
0.0027268264
-0.26568445
0.0024160837
-0.26595053
0.0020979659
-0.26616314
0.0017766812
-0.26632276
0.0014562426
-0.26643048
0.0011403769
-0.26648794
0.00083243832
-0.26649726
0.0005353359
-0.26646095
0.00025146992
-0.26638181
-1.7304062e-05
-0.26626279
-0.00026971399
-0.26610696
-0.00050506887
-0.26591735
-0.00072325663
-0.26569686
-0.00092465892
-0.26544823
-0.0011101099
-0.26517392
-0.0012808124
-0.26487611
-0.0014382465
-0.2645566
-0.0015840683
-0.26421689
-0.001720014
-0.26385812
-0.001847808
-0.26348111
-0.0019690693
-0.26308643
-0.0020852211
-0.26267439
-0.0021974387
-0.26224515
-0.0023065978
-0.26179879
-0.0024132463
-0.26133535
-0.0025175917
-0.26085491
-0.0026195132
-0.26035768
-0.0027185736
-0.25984398
-0.0028140718
-0.25931439
-0.0029050847
-0.25876968
-0.0029905289
-0.25821088
-0.0030692267
-0.25763926
-0.0031399706
-0.25705635
-0.0032015891
-0.25646389
-0.0032530049
-0.25586382
-0.0032932862
-0.25525821
-0.0033216878
-0.25464927
-0.0033376799
-0.25403925
-0.003340972
-0.25343042
-0.0033315048
-0.25282503
-0.0033094583
-0.25222524
-0.003275229
-0.25163311
-0.0032294066
-0.25105057
-0.0031727434
-0.25047936
-0.003106118
-0.24992107
-0.0030305034
-0.24937708
-0.0029469171
-0.2488486
-0.002856397
-0.24833662
-0.0027599622
-0.24784199
-0.0026585848
-0.24736537
-0.0025531652
-0.24690729
-0.0024445188
-0.24646813
-0.0023333528
-0.24604819
-0.0022202696
-0.24564767
-0.0021057597
-0.24526671
-0.0019902048
-0.24490538
-0.001873884
-0.24456376
-0.0017569879
-0.2442419
-0.0016396229
-0.24393983
-0.001521835
-0.24365762
-0.0014036227
-0.24339534
-0.0012849591
-0.2431531
-0.0011658121
-0.24293106
-0.0010461709
-0.24272939
-0.00092607037
-0.24254834
-0.00080562924
-0.24238827
-0.00068508563
-0.24224965
-0.00056488338
-0.24213332
-0.00044573417
-0.24204051
-0.00032837297
-0.24197296
-0.00021408873
-0.00010580541
-0.26514332
-0.00085483256
-0.26482628
-0.0013118287
-0.26444226
-0.0017628232
-0.2639936
-0.002203227
-0.26348486
-0.0026267989
-0.26292061
-0.0030267839
-0.26230622
-0.0033962708
-0.26164775
-0.0037286921
-0.26095204
-0.004017877
-0.26022671
-0.0042584385
-0.25948006
-0.0044456435
-0.25872093
-0.0045757675
-0.25795861
-0.0046458966
-0.2572026
-0.0046542813
-0.25646249
-0.0046000759
-0.2557477
-0.0044836572
-0.25506739
-0.0043063033
-0.25443022
-0.0040704508
-0.25384423
-0.0037793288
-0.25331666
-0.003437146
-0.2528539
-0.0030487123
-0.25246133
-0.0026195631
-0.25214331
-0.0021556076
-0.2519031
-0.0016632035
-0.25174291
-0.001148866
-0.25166385
-0.00061929791
-0.25166603
-8.117583e-05
-0.25174854
0.00045886896
-0.25190956
0.00099435948
-0.25214642
0.0015190203
-0.25245567
0.0020268667
-0.25283314
0.0025123447
-0.25327403
0.0029703399
-0.25377294
0.0033961678
-0.25432402
0.0037857186
-0.25492098
0.0041352829
-0.25555721
0.0044417888
-0.25622586
0.0047025687
-0.25691987
0.0049156455
-0.25763212
0.0050794552
-0.25835542
0.0051931687
-0.25908263
0.0052563857
-0.25980671
0.0052694318
-0.26052082
0.00523315
-0.26121832
0.0051490029
-0.26189293
0.0050190298
-0.26253873
0.0048458289
-0.26315026
0.0046325376
-0.26372258
0.0043827719
-0.26425133
0.0041005939
-0.2647328
0.003790437
-0.26516394
0.003457031
-0.26554243
0.0031053121
-0.26586667
0.0027403304
-0.26613584
0.0023671298
-0.2663498
0.0019906493
-0.26650916
0.0016156021
-0.26661515
0.0012463666
-0.2666696
0.00088688203
-0.26667482
0.00054055936
-0.26663356
0.00021020558
-0.26654884
-0.00010202069
-0.26642389
-0.00039466354
-0.266262
-0.00066696433
-0.26606641
-0.00091884262
-0.26584025
-0.0011508195
-0.2655864
-0.001363957
-0.26530746
-0.0015597552
-0.26500566
-0.0017400457
-0.26468286
-0.0019068702
-0.26434051
-0.0020623607
-0.2639797
-0.0022086225
-0.26360114
-0.002347625
-0.26320527
-0.0024810952
-0.26279226
-0.0026104509
-0.26236211
-0.0027367401
-0.26191475
-0.0028606064
-0.26145007
-0.0029822756
-0.26096801
-0.0031015715
-0.26046865
-0.0032179323
-0.25995225
-0.0033304754
-0.25941928
-0.0034380491
-0.2588705
-0.0035393095
-0.25830693
-0.0036328008
-0.25772987
-0.0037170343
-0.25714089
-0.0037905693
-0.25654181
-0.0038520832
-0.25593466
-0.0039004335
-0.25532164
-0.0039347082
-0.25470506
-0.0039542592
-0.2540873
-0.0039587306
-0.25347076
-0.0039480487
-0.25285779
-0.0039224301
-0.25225066
-0.003882353
-0.25165154
-0.0038285294
-0.25106242
-0.003761866
-0.25048512
-0.0036834206
-0.24992126
-0.0035943631
-0.24937226
-0.003495915
-0.24883933
-0.0033893209
-0.2483235
-0.0032758006
-0.24782556
-0.0031565159
-0.24734619
-0.0030325414
-0.24688586
-0.0029048482
-0.24644494
-0.002774277
-0.24602366
-0.0026415419
-0.2456222
-0.0025072221
-0.24524064
-0.0023717661
-0.24487902
-0.0022354986
-0.24453738
-0.0020986371
-0.2442157
-0.0019612968
-0.24391402
-0.0018235181
-0.24363236
-0.0016852807
-0.24337079
-0.0015465268
-0.24312942
-0.0014071821
-0.24290841
-0.0012671823
-0.24270799
-0.0011264932
-0.24252848
-0.00098514222
-0.24237032
-0.00084324506
-0.24223414
-0.00070105771
-0.2421209
-0.00055897762
-0.24203188
-0.00041739406
-0.24196889
-0.00027707751
-0.00013909489
-0.26541099
-0.0011003244
-0.2650925
-0.0016303146
-0.26470513
-0.0021501972
-0.26425074
-0.0026576163
-0.26373339
-0.0031441527
-0.26315755
-0.0036026182
-0.26252866
-0.0040251628
-0.26185293
-0.0044044236
-0.26113744
-0.0047333637
-0.26039008
-0.005005795
-0.25961949
-0.0052162372
-0.25883489
-0.0053603678
-0.25804598
-0.0054348065
-0.25726272
-0.0054375427
-0.25649516
-0.0053676387
-0.25575321
-0.0052256036
-0.2550465
-0.0050130184
-0.25438411
-0.0047328325
-0.25377451
-0.0043889326
-0.2532253
-0.0039863551
-0.25274317
-0.0035308389
-0.25233377
-0.003028963
-0.25200165
-0.0024877297
-0.25175021
-0.0019146418
-0.25158172
-0.0013173568
-0.25149731
-0.00070371181
-0.25149701
-8.1470768e-05
-0.25157985
0.0005417006
-0.25174386
0.0011583714
-0.25198624
0.0017614025
-0.25230339
0.0023440182
-0.25269099
0.0028999434
-0.25314406
0.0034234096
-0.25365704
0.0039091471
-0.25422387
0.0043525521
-0.25483808
0.0047494859
-0.25549283
0.0050965451
-0.25618105
0.0053907886
-0.25689547
0.0056300627
-0.25762869
0.0058126783
-0.2583733
0.0059377768
-0.25912189
0.0060049773
-0.25986718
0.0060147159
-0.26060203
0.0059680073
-0.26131959
0.0058665633
-0.26201331
0.005712746
-0.26267703
0.0055095504
-0.26330508
0.0052605858
-0.26389232
0.0049700092
-0.26443422
0.0046424922
-0.26492692
0.0042831375
-0.26536728
0.0038973953
-0.26575293
0.0034909611
-0.26608227
0.0030696695
-0.26635449
0.0026393551
-0.26656958
0.0022057366
-0.26672825
0.0017742752
-0.26683193
0.0013500445
-0.26688266
0.00093760675
-0.266883
0.00054090585
-0.26683597
0.00016317653
-0.26674488
-0.00019311326
-0.26661322
-0.00052632364
-0.26644454
-0.000835645
-0.26624233
-0.0011210513
-0.26600992
-0.0013832341
-0.26575035
-0.001623522
-0.26546635
-0.0018437583
-0.26516022
-0.0020461748
-0.26483385
-0.0022332461
-0.26448866
-0.0024075463
-0.26412568
-0.0025716068
-0.26374551
-0.0027277886
-0.26334845
-0.002878156
-0.26293451
-0.0030243951
-0.26250351
-0.0031677412
-0.26205517
-0.0033089386
-0.26158922
-0.003448226
-0.26110544
-0.0035853573
-0.26060375
-0.003719623
-0.26008429
-0.0038499292
-0.25954748
-0.0039748618
-0.25899401
-0.0040927791
-0.2584249
-0.0042019095
-0.25784149
-0.0043004469
-0.25724541
-0.0043866475
-0.25663858
-0.0044589141
-0.25602314
-0.0045158707
-0.25540143
-0.0045564207
-0.2547759
-0.0045797873
-0.25414909
-0.0045855454
-0.25352353
-0.0045736089
-0.25290172
-0.0045442384
-0.25228607
-0.0044980066
-0.25167883
-0.0044357628
-0.25108211
-0.0043585866
-0.2504978
-0.0042677345
-0.24992757
-0.0041645932
-0.24937288
-0.0040506078
-0.24883495
-0.0039272477
-0.2483148
-0.00379595
-0.24781323
-0.0036580811
-0.24733087
-0.0035149017
-0.24686817
-0.0033675487
-0.24642545
-0.0032170034
-0.24600289
-0.0030640969
-0.24560061
-0.0029095003
-0.24521865
-0.0027537296
-0.244857
-0.0025971547
-0.24451561
-0.0024400173
-0.24419447
-0.0022824382
-0.24389354
-0.0021244471
-0.24361283
-0.0019659989
-0.24335236
-0.0018069979
-0.24311222
-0.0016473195
-0.24289256
-0.0014868369
-0.24269362
-0.0013254354
-0.24251572
-0.0011630401
-0.24235934
-0.00099963038
-0.24222513
-0.00083526522
-0.24211405
-0.00067005432
-0.24202739
-0.0005040613
-0.24196692
-0.00033754693
-0.00017056268
-0.26572869
-0.0013432772
-0.26541062
-0.0019483796
-0.26502016
-0.0025406657
-0.26455935
-0.0031184196
-0.26403197
-0.0036715339
-0.26344247
-0.0041921158
-0.26279636
-0.0046712762
-0.26210006
-0.0051007263
-0.26136096
-0.0054724656
-0.26058733
-0.005779426
-0.25978824
-0.0060153176
-0.25897344
-0.006175172
-0.25815314
-0.0062551076
-0.25733785
-0.0062528338
-0.25653817
-0.0061673143
-0.25576458
-0.0059992006
-0.25502719
-0.0057503998
-0.25433562
-0.0054244116
-0.25369872
-0.0050258284
-0.2531245
-0.004560571
-0.25261997
-0.0040353686
-0.25219103
-0.0034579061
-0.25184242
-0.0028363383
-0.2515777
-0.0021793686
-0.25139921
-0.0014958453
-0.25130814
-0.00079478368
-0.25130453
-8.5075423e-05
-0.25138737
0.00062453843
-0.25155462
0.0013256242
-0.25180334
0.0020101225
-0.25212974
0.0026704193
-0.25252929
0.0032994871
-0.25299676
0.0038908856
-0.25352636
0.0044387488
-0.25411179
0.0049379731
-0.25474628
0.0053839853
-0.25542279
0.0057730455
-0.25613393
0.0061019337
-0.25687218
0.0063683141
-0.25762987
0.0065703664
-0.25839929
0.0067071971
-0.25917275
0.0067784399
-0.25994268
0.0067846387
-0.26070165
0.0067269792
-0.26144251
0.006607425
-0.26215843
0.0064286675
-0.26284299
0.0061941103
-0.26349026
0.0059078511
-0.26409486
0.0055746112
-0.26465207
0.005199701
-0.26515786
0.0047889287
-0.26560897
0.0043485076
-0.26600295
0.0038849407
-0.26633818
0.0034049003
-0.26661389
0.0029150683
-0.26683016
0.0024220011
-0.26698785
0.001931965
-0.26708859
0.0014507831
-0.26713467
0.00098368903
-0.26712896
0.00053519938
-0.26707479
0.00010900502
-0.2669758
-0.00029210207
-0.26683584
-0.00066628911
-0.26665878
-0.0010127032
-0.26644843
-0.0013314043
-0.26620837
-0.0016232946
-0.26594187
-0.0018900201
-0.2656518
-0.0021338265
-0.26534056
-0.0023574094
-0.26501007
-0.002563742
-0.26466171
-0.0027559034
-0.26429641
-0.0029369092
-0.26391464
-0.0031095611
-0.26351649
-0.0032762992
-0.26310178
-0.0034391051
-0.26267011
-0.0035994165
-0.26222097
-0.003758082
-0.26175385
-0.003915345
-0.26126833
-0.0040708703
-0.26076418
-0.0042237724
-0.2602414
-0.0043727101
-0.2597003
-0.0045159651
-0.25914153
-0.0046515535
-0.25856609
-0.0047773425
-0.25797538
-0.0048911647
-0.25737109
-0.0049909331
-0.25675526
-0.0050747417
-0.25613018
-0.0051409525
-0.25549834
-0.0051882646
-0.25486236
-0.0052157601
-0.25422497
-0.0052229404
-0.25358887
-0.0052097101
-0.25295672
-0.0051763836
-0.25233109
-0.0051236425
-0.25171436
-0.0050524928
-0.25110874
-0.0049642087
-0.2505162
-0.0048602685
-0.2499385
-0.0047422993
-0.24937711
-0.0046119929
-0.24883329
-0.0044710649
-0.24830805
-0.0043211895
-0.24780218
-0.0041639542
-0.24731626
-0.0040008201
-0.24685071
-0.0038331013
-0.24640578
-0.0036619283
-0.24598163
-0.0034882548
-0.24557828
-0.0033128469
-0.24519572
-0.0031362894
-0.24483388
-0.0029589954
-0.24449267
-0.0027812285
-0.244172
-0.0026031093
-0.24387179
-0.0024246504
-0.24359202
-0.0022457735
-0.24333268
-0.0020663355
-0.24309385
-0.0018861507
-0.24287567
-0.0017050176
-0.24267838
-0.0015227299
-0.24250232
-0.0013391002
-0.24234798
-0.0011539671
-0.24221604
-0.00096720236
-0.24210742
-0.00077867386
-0.24202331
-0.00058817825
-0.24196527
-0.00039558651
-0.00020037951
-0.2660898
-0.0015854417
-0.26577005
-0.0022681341
-0.26537485
-0.002935868
-0.26490582
-0.003587443
-0.26436644
-0.0042109185
-0.26376107
-0.0047974866
-0.26309525
-0.0053370893
-0.2623756
-0.0058203809
-0.26160978
-0.0062382888
-0.26080643
-0.0065827689
-0.25997511
-0.0068466372
-0.25912608
-0.007024208
-0.25827015
-0.0071110408
-0.25741845
-0.0071045256
-0.25658226
-0.0070035076
-0.25577268
-0.0068087822
-0.25500048