/*--------------------------------*- C++ -*----------------------------------*\
| =========                 |                                                 |
| \\      /  F ield         | foam-extend: Open Source CFD                    |
|  \\    /   O peration     | Version:     4.1                                |
|   \\  /    A nd           | Web:         http://www.foam-extend.org         |
|    \\/     M anipulation  |                                                 |
\*---------------------------------------------------------------------------*/
FoamFile
{
    version     2.0;
    format      ascii;
    class       volScalarField;
    location    "0.3";
    object      rAU;
}
// * * * * * * * * * * * * * * * * * * * * * * * * * * * * * * * * * * * * * //

dimensions      [0 0 1 0 0 0 0];

internalField   nonuniform List<scalar> 
16796
(
0.0001281419
0.00012811292
0.00012810603
0.0001281007
0.00012809495
0.00012808937
0.00012808121
0.00012807074
0.00012805507
0.00012803443
0.00012800594
0.00012796989
0.00012792349
0.00012786718
0.00012779834
0.00012771761
0.00012762258
0.00012751414
0.00012739019
0.00012725191
0.00012709753
0.00012692856
0.0001267436
0.0001265445
0.0001263302
0.00012610291
0.00012586189
0.00012560968
0.00012534584
0.00012507315
0.00012479143
0.00012450328
0.00012421021
0.00012391266
0.00012361376
0.00012331359
0.00012301531
0.00012271895
0.00012242758
0.00012214113
0.00012186251
0.00012159157
0.00012133046
0.0001210798
0.00012084053
0.0001206134
0.00012039895
0.00012019772
0.00012000988
0.00011983555
0.00011967472
0.00011952719
0.00011939261
0.00011927067
0.0001191607
0.00011906212
0.00011897425
0.00011889633
0.00011882758
0.00011876735
0.00011871479
0.00011866925
0.00011863011
0.00011859683
0.00011856899
0.00011854623
0.00011852844
0.00011851545
0.00011850746
0.00011850472
0.00011850472
0.00011850744
0.00011851596
0.00011853046
0.0001185513
0.00011857885
0.00011861348
0.0001186555
0.00011870535
0.00011876314
0.00011882914
0.00011890343
0.00011898596
0.00011907662
0.00011917514
0.00011928114
0.00011939414
0.00011951353
0.00011963859
0.0001197685
0.0001199025
0.00012003956
0.00012017877
0.00012031913
0.00012045968
0.00012059942
0.00012073738
0.00012087277
0.0001210046
0.00012113211
0.00012125455
0.00012137125
0.00012148154
0.000121585
0.00012168103
0.00012176924
0.00012184927
0.00012192081
0.00012198355
0.0001220374
0.00012208205
0.00012211739
0.00012214331
0.00012215972
0.0001221638
0.00012215157
0.00012212982
0.00012209866
0.00012205828
0.00012200924
0.00012195255
0.00012188826
0.00012181372
0.000121704
0.0001161467
0.00011617766
0.00011623431
0.00011629404
0.00011635474
0.00011641725
0.00011647932
0.00011654154
0.00011660144
0.00011665949
0.00011671316
0.00011676287
0.00011680465
0.00011682519
0.00011683547
0.00011683622
0.00011682538
0.00011680394
0.00011677001
0.00011672483
0.00011666676
0.00011659729
0.00011651506
0.00011642183
0.00011631654
0.0001162012
0.00011607503
0.0001159403
0.00011579646
0.000115646
0.00011548857
0.00011532647
0.00011516095
0.00011499222
0.00011482306
0.00011465338
0.00011448596
0.00011432066
0.00011416022
0.00011400441
0.00011385581
0.00011371415
0.00011358134
0.00011345782
0.00011334441
0.00011324169
0.00011315011
0.00011307009
0.00011300173
0.00011294511
0.00011290016
0.00011286667
0.00011284428
0.00011283269
0.00011283127
0.00011283947
0.00011285666
0.00011288215
0.00011291523
0.00011295531
0.00011300165
0.00011304928
0.00011309501
0.00011314645
0.00011320308
0.00011326443
0.00011333027
0.00011340024
0.00011347425
0.00011355213
0.00011363131
0.00011371171
0.00011379624
0.00011388515
0.00011397893
0.00011407803
0.00011418297
0.0001142942
0.00011441234
0.00011453766
0.00011467065
0.00011481157
0.00011496064
0.00011511796
0.00011528351
0.00011545716
0.00011563865
0.00011582762
0.00011602356
0.00011622587
0.00011643398
0.00011664701
0.00011686418
0.00011708465
0.0001173075
0.00011753184
0.00011775671
0.00011798134
0.00011820475
0.00011842615
0.00011864473
0.00011885978
0.00011907055
0.00011927654
0.00011947706
0.00011967164
0.0001198598
0.00012004115
0.00012021527
0.00012038196
0.00012054082
0.00012069165
0.00012083421
0.00012096831
0.00012109104
0.00012119828
0.00012129651
0.0001213857
0.00012146584
0.00012153704
0.00012159706
0.00012163396
0.00012166248
0.00012167662
0.00011532199
0.00011536514
0.00011543162
0.00011549947
0.00011556668
0.00011563427
0.00011570017
0.0001157652
0.00011582718
0.00011588681
0.00011594188
0.00011599311
0.00011603684
0.00011605691
0.00011604394
0.00011602073
0.00011598564
0.00011594005
0.00011588251
0.00011581466
0.00011573528
0.00011564623
0.00011554655
0.00011543831
0.00011532074
0.00011519613
0.00011506391
0.00011492651
0.00011478351
0.00011463747
0.00011448808
0.00011433761
0.00011418725
0.00011403711
0.00011388984
0.00011374515
0.00011360563
0.0001134709
0.00011334342
0.00011322269
0.000113111
0.00011300777
0.00011291457
0.00011283154
0.00011275915
0.00011269768
0.00011264725
0.00011260798
0.00011257966
0.00011256211
0.00011255499
0.00011255786
0.00011257016
0.0001125914
0.0001126208
0.00011265771
0.0001127014
0.00011275115
0.00011280457
0.00011284332
0.00011288808
0.00011293389
0.00011297755
0.00011302658
0.00011308038
0.00011313838
0.00011320027
0.00011326558
0.00011333415
0.00011340586
0.00011348073
0.00011355886
0.0001136406
0.00011372619
0.0001138161
0.00011391081
0.00011401088
0.00011411683
0.00011422933
0.00011434877
0.00011447573
0.00011461061
0.00011475371
0.00011490528
0.00011506539
0.00011523404
0.00011541108
0.00011559622
0.00011578904
0.00011598898
0.00011619554
0.00011640786
0.00011662519
0.00011684666
0.00011707137
0.00011729838
0.00011752673
0.00011775557
0.00011798389
0.00011821084
0.00011843557
0.00011865729
0.00011887522
0.00011908879
0.00011929727
0.00011950012
0.00011969685
0.00011988699
0.00012007012
0.000120246
0.00012041419
0.00012057447
0.00012072659
0.00012087032
0.00012100545
0.00012113189
0.00012124938
0.00012135777
0.00012145682
0.00012154606
0.00012162262
0.00012167614
0.00012171999
0.00012172604
0.00011521377
0.00011525647
0.0001153241
0.00011539422
0.00011546452
0.00011553582
0.00011560596
0.00011567572
0.00011574288
0.00011580812
0.00011586917
0.00011592672
0.0001159785
0.00011602187
0.00011600694
0.00011597181
0.00011592424
0.00011586578
0.00011579517
0.00011571417
0.00011562177
0.00011551998
0.00011540799
0.00011528804
0.00011515951
0.00011502481
0.00011488352
0.00011473815
0.00011458841
0.00011443691
0.00011428342
0.00011413024
0.00011397859
0.00011382858
0.00011368284
0.00011354106
0.00011340576
0.00011327653
0.00011315573
0.00011304279
0.00011293989
0.00011284634
0.00011276361
0.00011269171
0.000112631
0.00011258163
0.00011254359
0.00011251688
0.00011250118
0.00011249617
0.0001125014
0.00011251634
0.00011254031
0.00011257273
0.00011261274
0.00011265963
0.00011271261
0.00011275903
0.00011279062
0.00011280939
0.00011283594
0.0001128696
0.00011290963
0.00011295533
0.000113006
0.00011306099
0.00011311986
0.00011318207
0.00011324732
0.00011331541
0.00011338628
0.00011345996
0.00011353675
0.00011361688
0.0001137008
0.00011378905
0.00011388222
0.00011398088
0.00011408582
0.00011419752
0.00011431666
0.00011444376
0.00011457926
0.00011472351
0.00011487672
0.00011503898
0.00011521024
0.0001153903
0.00011557881
0.00011577526
0.00011597918
0.00011618976
0.00011640622
0.00011662771
0.00011685329
0.000117082
0.00011731283
0.00011754489
0.00011777712
0.0001180086
0.00011823843
0.00011846577
0.00011868978
0.00011890984
0.00011912516
0.00011933517
0.00011953933
0.00011973715
0.00011992815
0.00012011208
0.00012028848
0.0001204571
0.00012061768
0.00012076997
0.00012091372
0.00012104884
0.00012117501
0.00012129206
0.00012139965
0.0001214973
0.00012158467
0.00012166372
0.00012172896
0.00012173979
0.00011513027
0.00011517316
0.0001152421
0.00011531476
0.00011538872
0.00011546467
0.0001155404
0.00011561658
0.00011569094
0.00011576411
0.00011583375
0.00011590047
0.00011596194
0.00011601876
0.00011601862
0.00011597465
0.00011591776
0.00011584958
0.00011576893
0.00011567769
0.00011557495
0.00011546281
0.00011534059
0.00011521061
0.00011507238
0.0001149284
0.00011477833
0.00011462481
0.00011446761
0.00011430943
0.0001141501
0.00011399199
0.00011383636
0.00011368337
0.00011353567
0.00011339299
0.00011325785
0.00011312982
0.00011301128
0.00011290161
0.00011280297
0.00011271462
0.00011263799
0.00011257301
0.00011251997
0.00011247894
0.00011244981
0.0001124325
0.00011242656
0.00011243158
0.00011244698
0.00011247212
0.00011250621
0.00011254856
0.0001125982
0.00011265431
0.00011270925
0.00011272444
0.00011272911
0.00011274302
0.0001127653
0.0001127952
0.00011283189
0.00011287456
0.00011292239
0.00011297461
0.00011303067
0.0001130899
0.00011315189
0.00011321636
0.00011328316
0.00011335226
0.00011342394
0.00011349839
0.00011357611
0.00011365764
0.00011374364
0.00011383477
0.00011393191
0.00011403565
0.0001141468
0.000114266
0.00011439382
0.00011453075
0.0001146771
0.00011483309
0.00011499875
0.00011517397
0.00011535847
0.00011555179
0.00011575348
0.00011596273
0.00011617879
0.00011640077
0.00011662771
0.0001168586
0.00011709239
0.00011732814
0.00011756471
0.00011780114
0.00011803648
0.0001182698
0.00011850021
0.00011872705
0.00011894948
0.00011916689
0.00011937868
0.00011958434
0.00011978338
0.00011997551
0.00012016024
0.00012033732
0.00012050646
0.00012066741
0.00012081989
0.00012096379
0.00012109876
0.00012122457
0.00012134083
0.00012144705
0.0001215429
0.00012163029
0.00012170215
0.00012172866
0.00011504116
0.00011508511
0.00011515589
0.00011523142
0.00011530932
0.0001153902
0.0001154718
0.00011555472
0.00011563664
0.00011571813
0.00011579678
0.00011587313
0.00011594477
0.00011601222
0.00011603312
0.00011598051
0.00011591447
0.00011583673
0.00011574617
0.00011564479
0.00011553175
0.00011540928
0.00011527676
0.00011513665
0.00011498853
0.00011483502
0.00011467587
0.0001145138
0.00011434867
0.00011418326
0.00011401749
0.00011385377
0.00011369344
0.00011353671
0.00011338627
0.00011324187
0.00011310606
0.00011297844
0.00011286137
0.00011275423
0.00011265916
0.00011257539
0.0001125043
0.00011244576
0.0001124
0.000112367
0.00011234658
0.00011233853
0.00011234231
0.00011235739
0.00011238307
0.00011241858
0.000112463
0.00011251551
0.00011257504
0.00011264064
0.00011266959
0.00011265843
0.00011265778
0.00011266704
0.00011268529
0.00011271168
0.0001127453
0.00011278519
0.00011283043
0.00011288011
0.00011293355
0.00011298995
0.00011304879
0.00011310969
0.00011317242
0.00011323688
0.00011330332
0.00011337194
0.00011344323
0.0001135178
0.00011359637
0.0001136797
0.00011376877
0.00011386431
0.00011396726
0.00011407839
0.00011419842
0.00011432797
0.00011446747
0.00011461726
0.00011477747
0.00011494806
0.00011512881
0.00011531931
0.00011551912
0.00011572746
0.00011594354
0.00011616645
0.00011639519
0.00011662872
0.0001168659
0.00011710575
0.00011734706
0.00011758881
0.00011782996
0.00011806955
0.00011830663
0.00011854046
0.00011877016
0.00011899508
0.0001192146
0.00011942817
0.00011963527
0.00011983558
0.00012002862
0.00012021411
0.00012039176
0.00012056131
0.00012072248
0.00012087513
0.00012101892
0.00012115359
0.00012127874
0.00012139394
0.00012149877
0.00012159532
0.00012167587
0.00012171358
0.00011494255
0.00011498805
0.00011506118
0.00011514005
0.00011522233
0.00011530859
0.00011539651
0.00011548666
0.00011557665
0.00011566697
0.00011575518
0.0001158417
0.00011592406
0.00011600268
0.00011604829
0.00011598714
0.000115912
0.00011582467
0.00011572414
0.00011561247
0.00011548893
0.00011535584
0.00011521272
0.00011506209
0.00011490366
0.00011474013
0.00011457138
0.0001144002
0.00011422656
0.00011405331
0.00011388046
0.0001137105
0.00011354482
0.0001133837
0.00011322988
0.00011308315
0.00011294609
0.00011281832
0.0001127022
0.00011259713
0.00011250521
0.00011242566
0.00011235981
0.0001123075
0.00011226887
0.00011224384
0.00011223212
0.00011223342
0.00011224707
0.00011227242
0.00011230865
0.00011235484
0.00011240994
0.00011247301
0.00011254283
0.00011261232
0.00011259891
0.00011258194
0.00011257628
0.00011258125
0.00011259587
0.00011261917
0.00011265011
0.00011268763
0.00011273065
0.00011277813
0.00011282922
0.00011288302
0.00011293888
0.00011299629
0.00011305496
0.00011311473
0.00011317581
0.00011323841
0.00011330305
0.00011337039
0.00011344123
0.00011351646
0.00011359716
0.00011368421
0.0001137787
0.00011388156
0.00011399366
0.00011411574
0.00011424839
0.00011439205
0.00011454696
0.00011471314
0.00011489044
0.00011507848
0.00011527685
0.00011548473
0.00011570133
0.00011592571
0.00011615681
0.00011639352
0.00011663465
0.00011687914
0.00011712571
0.00011737326
0.0001176207
0.00011786697
0.00011811108
0.00011835224
0.00011858951
0.00011882221
0.00011904966
0.00011927131
0.00011948659
0.00011969519
0.0001198966
0.00012009053
0.00012027669
0.00012045482
0.00012062462
0.00012078597
0.0001209385
0.00012108196
0.00012121597
0.00012134015
0.00012145402
0.00012156015
0.00012165043
0.00012169972
0.00011483665
0.00011488403
0.00011495986
0.00011504241
0.00011512937
0.0001152213
0.00011531586
0.00011541356
0.00011551195
0.00011561147
0.00011570959
0.00011580668
0.00011590016
0.00011599035
0.00011606468
0.0001159949
0.00011591052
0.00011581341
0.00011570265
0.00011558041
0.00011544604
0.00011530196
0.00011514781
0.00011498621
0.00011481698
0.00011464293
0.00011446403
0.00011428318
0.00011410045
0.00011391879
0.00011373827
0.00011356148
0.00011338987
0.0001132238
0.00011306605
0.00011291647
0.00011277767
0.0001126493
0.00011253374
0.00011243037
0.00011234131
0.00011226575
0.00011220498
0.00011215879
0.00011212725
0.00011211022
0.0001121073
0.00011211811
0.00011214185
0.00011217775
0.00011222486
0.00011228211
0.0001123483
0.00011242234
0.00011250287
0.00011255362
0.00011251821
0.00011249565
0.00011248524
0.00011248625
0.00011249759
0.00011251819
0.00011254688
0.00011258243
0.00011262364
0.00011266928
0.00011271836
0.00011276982
0.00011282289
0.00011287694
0.00011293159
0.00011298663
0.00011304224
0.00011309862
0.00011315634
0.00011321614
0.00011327891
0.00011334565
0.00011341762
0.00011349582
0.00011358152
0.00011367583
0.00011377975
0.00011389422
0.00011401994
0.00011415747
0.00011430716
0.0001144691
0.0001146432
0.0001148291
0.00011502639
0.00011523426
0.00011545186
0.00011567821
0.00011591219
0.00011615262
0.00011639822
0.00011664786
0.00011690018
0.00011715399
0.00011740813
0.00011766148
0.00011791297
0.00011816176
0.00011840687
0.00011864756
0.00011888314
0.000119113
0.00011933659
0.00011955356
0.00011976341
0.00011996584
0.00012016055
0.00012034728
0.00012052576
0.00012069585
0.0001208572
0.00012100955
0.00012115256
0.00012128588
0.00012140902
0.00012152517
0.00012162576
0.00012168665
0.0001147221
0.00011477168
0.00011485058
0.0001149372
0.00011502924
0.00011512727
0.0001152289
0.0001153346
0.00011544188
0.0001155511
0.00011565967
0.00011576785
0.00011587298
0.00011597529
0.00011607176
0.00011600454
0.00011591082
0.00011580377
0.00011568255
0.00011554943
0.00011540387
0.0001152484
0.00011508275
0.00011490967
0.0001147291
0.00011454394
0.00011435427
0.00011416312
0.00011397065
0.0001137799
0.00011359106
0.00011340677
0.00011322858
0.00011305693
0.00011289464
0.00011274163
0.00011260055
0.00011247108
0.00011235562
0.00011225357
0.00011216704
0.00011209521
0.00011203932
0.00011199913
0.00011197466
0.00011196566
0.00011197167
0.00011199218
0.0001120263
0.00011207309
0.00011213147
0.00011220021
0.00011227797
0.00011236348
0.00011245521
0.00011246888
0.00011242716
0.00011239927
0.00011238445
0.0001123819
0.0001123904
0.00011240878
0.00011243571
0.0001124698
0.00011250966
0.0001125539
0.00011260136
0.00011265081
0.00011270132
0.00011275217
0.00011280287
0.00011285314
0.00011290315
0.0001129531
0.00011300363
0.00011305553
0.00011310983
0.00011316768
0.00011323047
0.00011329941
0.00011337594
0.00011346135
0.00011355684
0.00011366349
0.00011378217
0.00011391357
0.00011405811
0.000114216
0.00011438717
0.00011457128
0.00011476793
0.00011497627
0.00011519542
0.00011542431
0.00011566177
0.00011590652
0.00011615721
0.0001164126
0.00011667123
0.00011693185
0.0001171932
0.00011745408
0.00011771337
0.00011797015
0.0001182234
0.00011847234
0.00011871625
0.00011895451
0.00011918652
0.00011941194
0.00011963027
0.0001198412
0.00012004445
0.00012023977
0.00012042688
0.00012060567
0.00012077579
0.00012093702
0.00012108906
0.00012123158
0.00012136411
0.00012149057
0.00012160173
0.00012167411
0.00011459974
0.00011465177
0.00011473403
0.00011482503
0.00011492249
0.00011502697
0.00011513605
0.00011525016
0.00011536676
0.00011548613
0.00011560561
0.00011572539
0.00011584269
0.00011595765
0.00011606744
0.0001160166
0.00011591336
0.00011579612
0.00011566415
0.00011551979
0.00011536263
0.0001151953
0.00011501765
0.00011483254
0.00011464003
0.00011444314
0.00011424208
0.00011403997
0.00011383708
0.00011363657
0.00011343871
0.00011324625
0.00011306083
0.00011288294
0.00011271551
0.00011255849
0.00011241458
0.00011228353
0.00011216773
0.00011206664
0.00011198232
0.00011191398
0.00011186282
0.00011182855
0.00011181114
0.00011181027
0.00011182538
0.00011185584
0.00011190064
0.00011195872
0.00011202882
0.00011210955
0.0001121994
0.00011229692
0.0001124004
0.00011237362
0.00011232574
0.00011229277
0.00011227389
0.00011226818
0.00011227434
0.00011229103
0.00011231674
0.00011234992
0.00011238898
0.00011243233
0.00011247863
0.00011252644
0.0001125747
0.00011262254
0.00011266937
0.00011271485
0.00011275912
0.00011280242
0.00011284541
0.00011288902
0.00011293439
0.00011298284
0.00011303594
0.00011309511
0.000113162
0.00011323809
0.00011332479
0.00011342335
0.00011353482
0.00011366001
0.00011379945
0.00011395342
0.00011412189
0.00011430455
0.00011450097
0.00011471027
0.00011493151
0.00011516353
0.00011540508
0.00011565479
0.00011591118
0.00011617293
0.00011643848
0.00011670646
0.00011697553
0.00011724443
0.00011751194
0.0001177771
0.00011803883
0.00011829631
0.00011854879
0.00011879562
0.00011903621
0.0001192702
0.00011949709
0.00011971659
0.00011992841
0.00012013233
0.00012032807
0.00012051556
0.00012069447
0.0001208646
0.00012102569
0.00012117746
0.00012131949
0.00012145641
0.00012157824
0.00012166195
0.00011446876
0.00011452349
0.00011460943
0.00011470516
0.00011480842
0.00011491976
0.00011503673
0.00011515973
0.00011528614
0.00011541621
0.00011554717
0.00011567912
0.0001158092
0.00011593743
0.00011606085
0.0001160317
0.00011591877
0.00011579109
0.00011564803
0.00011549204
0.00011532283
0.00011514312
0.00011495291
0.00011475516
0.00011455006
0.00011434077
0.0001141276
0.00011391379
0.00011369975
0.00011348873
0.00011328112
0.00011307977
0.00011288639
0.00011270159
0.00011252835
0.0001123667
0.00011221941
0.00011208624
0.00011196966
0.00011186912
0.00011178671
0.00011172162
0.00011167504
0.00011164664
0.00011163632
0.00011164369
0.00011166811
0.00011170883
0.0001117647
0.00011183451
0.00011191685
0.00011201015
0.0001121127
0.00011222287
0.00011232855
0.00011226756
0.00011221371
0.00011217595
0.00011215338
0.000112145
0.00011214935
0.00011216493
0.00011219006
0.00011222297
0.00011226185
0.0001123049
0.00011235054
0.00011239717
0.00011244352
0.00011248858
0.00011253164
0.00011257232
0.00011261071
0.00011264709
0.00011268219
0.00011271704
0.00011275296
0.00011279143
0.00011283426
0.00011288308
0.00011293976
0.00011300604
0.00011308353
0.00011317369
0.00011327773
0.0001133966
0.00011353096
0.00011368115
0.00011384718
0.00011402875
0.0001142254
0.00011443618
0.0001146601
0.00011489591
0.00011514222
0.00011539757
0.00011566036
0.00011592914
0.00011620224
0.0001164782
0.00011675557
0.000117033
0.00011730919
0.00011758313
0.00011785368
0.00011811999
0.00011838128
0.00011863688
0.00011888618
0.00011912884
0.00011936435
0.00011959244
0.00011981284
0.00012002533
0.00012022969
0.00012042584
0.0001206135
0.00012079251
0.00012096265
0.00012112368
0.00012127526
0.00012142271
0.00012155521
0.0001216501
0.00011432935
0.00011438701
0.00011447688
0.00011457765
0.00011468707
0.00011480565
0.00011493094
0.00011506328
0.00011520001
0.0001153413
0.0001154843
0.00011562903
0.00011577251
0.00011591464
0.00011605235
0.00011605043
0.00011592755
0.00011578913
0.0001156346
0.00011546655
0.00011528476
0.00011509213
0.00011488873
0.00011467769
0.00011445931
0.00011423688
0.00011401085
0.00011378459
0.00011355862
0.00011333631
0.00011311817
0.00011290716
0.00011270509
0.00011251266
0.00011233292
0.00011216601
0.00011201473
0.00011187893
0.00011176109
0.00011166072
0.0001115799
0.00011151783
0.00011147569
0.0001114531
0.00011144993
0.0001114657
0.00011149967
0.00011155099
0.00011161836
0.00011170043
0.0001117956
0.0001119021
0.00011201803
0.00011214154
0.000112228
0.00011215037
0.00011209074
0.00011204849
0.00011202266
0.00011201212
0.00011201527
0.00011203042
0.00011205568
0.00011208904
0.00011212845
0.00011217187
0.00011221748
0.00011226343
0.00011230828
0.00011235083
0.00011239027
0.00011242612
0.00011245848
0.00011248764
0.00011251442
0.00011254
0.00011256585
0.00011259369
0.00011262555
0.00011266333
0.00011270916
0.00011276503
0.00011283281
0.00011291415
0.00011301048
0.00011312289
0.00011325215
0.00011339867
0.00011356251
0.00011374335
0.00011394069
0.00011415352
0.00011438075
0.00011462102
0.00011487282
0.00011513453
0.00011540446
0.00011568099
0.00011596234
0.00011624693
0.00011653321
0.00011681971
0.00011710509
0.00011738825
0.00011766801
0.00011794347
0.00011821383
0.0001184784
0.00011873658
0.00011898802
0.00011923223
0.00011946894
0.00011969793
0.00011991899
0.00012013193
0.00012033671
0.00012053308
0.00012072093
0.00012090009
0.00012107037
0.00012123148
0.00012138947
0.00012153259
0.00012163849
0.00011418097
0.00011424179
0.00011433588
0.00011444203
0.00011455796
0.00011468421
0.00011481827
0.00011496046
0.00011510805
0.00011526115
0.00011541682
0.00011557498
0.00011573255
0.00011588929
0.00011604202
0.00011607343
0.00011594036
0.00011579083
0.00011562443
0.00011544381
0.0001152489
0.00011504271
0.00011482546
0.0001146004
0.00011436799
0.00011413163
0.00011389193
0.00011365238
0.00011341364
0.00011317921
0.00011294971
0.00011272822
0.00011251666
0.00011231584
0.00011212889
0.00011195604
0.00011180016
0.00011166116
0.00011154158
0.00011144096
0.00011136141
0.00011130214
0.0001112643
0.00011124751
0.00011125156
0.00011127592
0.00011131975
0.00011138207
0.00011146146
0.00011155637
0.00011166504
0.00011178548
0.00011191557
0.00011205321
0.00011210645
0.00011202174
0.00011195652
0.00011191012
0.00011188149
0.00011186938
0.000111872
0.00011188747
0.00011191365
0.00011194828
0.00011198904
0.00011203359
0.00011207985
0.00011212573
0.00011216953
0.00011220991
0.00011224588
0.00011227691
0.00011230306
0.00011232466
0.00011234265
0.00011235835
0.00011237344
0.00011238988
0.00011240998
0.00011243593
0.00011247016
0.00011251493
0.0001125724
0.00011264446
0.00011273273
0.00011283848
0.0001129626
0.00011310557
0.00011326747
0.00011344797
0.00011364651
0.000113862
0.00011409322
0.00011433869
0.00011459675
0.00011486564
0.00011514349
0.00011542855
0.0001157189
0.00011601282
0.00011630865
0.00011660483
0.00011689992
0.00011719276
0.00011748212
0.00011776706
0.00011804675
0.0001183205
0.00011858771
0.00011884804
0.000119101
0.00011934637
0.00011958394
0.00011981354
0.00012003501
0.00012024837
0.00012045339
0.00012065002
0.00012083814
0.00012101761
0.00012118823
0.00012135672
0.00012151034
0.00012162709
0.00011402355
0.00011408773
0.00011418629
0.00011429811
0.00011442093
0.00011455524
0.00011469854
0.00011485108
0.00011501009
0.0001151756
0.00011534459
0.00011551687
0.00011568925
0.00011586136
0.00011602988
0.00011610134
0.00011595776
0.00011579676
0.00011561799
0.00011542426
0.00011521562
0.0001149952
0.00011476337
0.00011452352
0.00011427626
0.00011402513
0.00011377089
0.00011351717
0.00011326477
0.00011301732
0.00011277559
0.00011254276
0.00011232088
0.00011211086
0.00011191594
0.00011173644
0.0001115753
0.00011143253
0.00011131071
0.00011120942
0.00011113081
0.00011107411
0.00011104046
0.00011102945
0.00011104083
0.000111074
0.00011112803
0.00011120181
0.00011129376
0.00011140218
0.00011152509
0.00011166028
0.00011180539
0.00011195805
0.00011197293
0.00011188118
0.00011181058
0.0001117604
0.00011172949
0.00011171645
0.00011171931
0.00011173594
0.00011176396
0.00011180079
0.00011184382
0.00011189038
0.0001119381
0.00011198457
0.00011202788
0.00011206645
0.00011209915
0.00011212535
0.0001121451
0.00011215878
0.00011216743
0.00011217256
0.00011217609
0.00011218025
0.00011218767
0.00011220087
0.00011222262
0.0001122555
0.00011230196
0.00011236418
0.00011244399
0.00011254284
0.00011266175
0.00011280127
0.00011296149
0.00011314205
0.00011334233
0.00011356113
0.00011379709
0.00011404856
0.00011431373
0.00011459066
0.00011487729
0.00011517173
0.00011547188
0.00011577589
0.00011608197
0.00011638846
0.00011669382
0.00011699683
0.0001172962
0.00011759097
0.00011788028
0.00011816343
0.00011843983
0.00011870914
0.00011897092
0.00011922497
0.0001194711
0.0001197092
0.00011993916
0.00012016101
0.00012037461
0.00012057993
0.00012077692
0.00012096551
0.00012114554
0.00012132444
0.00012148846
0.00012161588
0.00011385667
0.00011392444
0.00011402773
0.00011414555
0.00011427561
0.00011441841
0.00011457143
0.00011473486
0.00011490588
0.00011508444
0.00011526745
0.0001154546
0.00011564257
0.00011583088
0.00011601603
0.0001161349
0.00011598048
0.00011580756
0.00011561593
0.00011540849
0.00011518544
0.00011495005
0.00011470285
0.00011444737
0.00011418436
0.00011391755
0.00011364783
0.000113379
0.00011311199
0.00011285058
0.00011259567
0.00011235058
0.00011211749
0.00011189742
0.00011169373
0.00011150682
0.00011133975
0.00011119259
0.00011106799
0.0001109656
0.00011088759
0.00011083322
0.00011080364
0.00011079842
0.00011081727
0.00011085952
0.00011092412
0.00011100988
0.00011111504
0.00011123771
0.0001113757
0.00011152657
0.00011168767
0.00011185635
0.00011182702
0.00011172828
0.00011165252
0.00011159895
0.00011156633
0.00011155307
0.00011155701
0.00011157577
0.00011160663
0.00011164672
0.00011169306
0.00011174264
0.00011179271
0.00011184058
0.00011188402
0.00011192121
0.00011195086
0.00011197224
0.00011198537
0.00011199069
0.00011198938
0.00011198315
0.0001119742
0.00011196508
0.00011195877
0.00011195817
0.00011196642
0.00011198649
0.00011202114
0.00011207287
0.00011214375
0.00011223542
0.00011234902
0.00011248518
0.000112644
0.00011282508
0.00011302769
0.00011325051
0.00011349201
0.00011375037
0.00011402357
0.00011430946
0.00011460582
0.00011491054
0.00011522136
0.00011553627
0.00011585334
0.00011617081
0.00011648704
0.00011680073
0.00011711055
0.0001174155
0.00011771471
0.00011800748
0.00011829322
0.00011857162
0.00011884227
0.000119105
0.00011935967
0.00011960621
0.00011984456
0.00012007482
0.00012029688
0.00012051079
0.00012071655
0.00012091413
0.00012110346
0.00012129267
0.00012146693
0.00012160486
0.00011368016
0.00011375169
0.00011385997
0.00011398407
0.00011412175
0.00011427347
0.00011443669
0.00011461156
0.00011479521
0.0001149875
0.00011518526
0.00011538806
0.00011559246
0.00011579783
0.00011600052
0.00011617488
0.00011600923
0.00011582391
0.00011561883
0.00011539703
0.00011515884
0.00011490769
0.00011464425
0.00011437222
0.00011409254
0.00011380906
0.00011352287
0.0001132379
0.00011295526
0.00011267888
0.0001124098
0.00011215149
0.00011190624
0.00011167523
0.00011146191
0.00011126681
0.00011109308
0.00011094089
0.00011081295
0.00011070899
0.00011063124
0.00011057896
0.00011055334
0.00011055392
0.00011058039
0.000110632
0.00011070762
0.00011080592
0.00011092499
0.00011106274
0.00011121674
0.0001113843
0.00011156248
0.00011174828
0.0001116681
0.0001115624
0.00011148173
0.00011142523
0.00011139152
0.00011137886
0.00011138483
0.00011140677
0.00011144164
0.00011148618
0.00011153702
0.00011159075
0.00011164423
0.00011169439
0.00011173867
0.00011177499
0.00011180186
0.00011181843
0.00011182469
0.00011182116
0.00011180918
0.00011179069
0.00011176821
0.00011174465
0.00011172341
0.0001117078
0.0001117014
0.00011170759
0.00011172951
0.00011177
0.00011183139
0.00011191553
0.00011202371
0.00011215661
0.00011231434
0.00011249642
0.00011270201
0.00011292963
0.00011317756
0.00011344377
0.000113726
0.0001140219
0.00011432898
0.00011464497
0.00011496739
0.00011529407
0.00011562293
0.00011595209
0.00011627982
0.00011660474
0.00011692546
0.00011724097
0.00011755037
0.00011785297
0.0001181482
0.00011843578
0.00011871533
0.00011898673
0.0001192499
0.00011950481
0.00011975145
0.00011999
0.0001202204
0.00012044275
0.00012065713
0.00012086357
0.00012106205
0.00012126142
0.00012144576
0.00012159402
0.00011349371
0.00011356919
0.00011368268
0.00011381338
0.00011395904
0.00011412012
0.00011429404
0.00011448093
0.00011467785
0.00011488459
0.00011509787
0.00011531716
0.00011553889
0.00011576226
0.00011598349
0.00011619948
0.00011604483
0.00011584659
0.00011562743
0.00011539054
0.00011513641
0.00011486862
0.00011458802
0.00011429847
0.00011400107
0.00011369989
0.00011339614
0.00011309396
0.00011279461
0.00011250217
0.00011221787
0.00011194529
0.00011168689
0.00011144397
0.00011122012
0.000111016
0.00011083484
0.00011067693
0.00011054507
0.00011043906
0.00011036118
0.00011031076
0.00011028897
0.00011029539
0.00011032964
0.00011039095
0.00011047807
0.00011058955
0.00011072331
0.00011087706
0.00011104812
0.00011123351
0.00011142997
0.00011162176
0.00011149565
0.00011138301
0.00011129767
0.0001112387
0.0001112046
0.00011119342
0.00011120249
0.00011122882
0.00011126899
0.00011131933
0.00011137602
0.0001114352
0.00011149328
0.00011154675
0.0001115927
0.00011162872
0.00011165311
0.00011166488
0.00011166401
0.00011165108
0.00011162761
0.00011159583
0.00011155861
0.00011151929
0.00011148172
0.00011144972
0.00011142734
0.00011141844
0.00011142658
0.00011145497
0.00011150624
0.00011158247
0.00011168509
0.00011181482
0.00011197178
0.0001121554
0.00011236469
0.00011259799
0.00011285333
0.00011312844
0.00011342081
0.00011372782
0.00011404674
0.00011437505
0.00011471008
0.00011504947
0.00011539097
0.00011573258
0.00011607246
0.00011640917
0.00011674127
0.0001170677
0.00011738759
0.00011770023
0.0001180051
0.00011830194
0.00011859041
0.00011887046
0.00011914205
0.00011940523