/*--------------------------------*- C++ -*----------------------------------*\
| =========                 |                                                 |
| \\      /  F ield         | foam-extend: Open Source CFD                    |
|  \\    /   O peration     | Version:     4.1                                |
|   \\  /    A nd           | Web:         http://www.foam-extend.org         |
|    \\/     M anipulation  |                                                 |
\*---------------------------------------------------------------------------*/
FoamFile
{
    version     2.0;
    format      ascii;
    class       volScalarField;
    location    "0.3";
    object      rAU;
}
// * * * * * * * * * * * * * * * * * * * * * * * * * * * * * * * * * * * * * //

dimensions      [0 0 1 0 0 0 0];

internalField   nonuniform List<scalar> 
16796
(
3.8601775e-05
3.858866e-05
3.8580453e-05
3.8574542e-05
3.8571048e-05
3.8570032e-05
3.8569996e-05
3.8571273e-05
3.8574686e-05
3.858036e-05
3.8588106e-05
3.8597979e-05
3.8609693e-05
3.8623199e-05
3.8638111e-05
3.8654284e-05
3.8671246e-05
3.8688779e-05
3.8706351e-05
3.8723696e-05
3.8740247e-05
3.8755715e-05
3.876952e-05
3.878137e-05
3.8790696e-05
3.8797233e-05
3.8800174e-05
3.8796243e-05
3.8788666e-05
3.8777742e-05
3.8763448e-05
3.8746016e-05
3.8725576e-05
3.8702177e-05
3.867614e-05
3.864753e-05
3.8616724e-05
3.8583835e-05
3.8549283e-05
3.8513218e-05
3.8476087e-05
3.8438068e-05
3.8399568e-05
3.8360858e-05
3.8322249e-05
3.8284035e-05
3.8246489e-05
3.8209881e-05
3.8174437e-05
3.8140375e-05
3.810788e-05
3.807711e-05
3.8048192e-05
3.8021235e-05
3.79963e-05
3.7973433e-05
3.7952649e-05
3.7933939e-05
3.7917268e-05
3.7902597e-05
3.7889849e-05
3.7878946e-05
3.7869803e-05
3.7862325e-05
3.7856416e-05
3.7851978e-05
3.7848934e-05
3.7847187e-05
3.7846666e-05
3.7846666e-05
3.7847317e-05
3.7849106e-05
3.7852002e-05
3.7855934e-05
3.7860844e-05
3.7866675e-05
3.7873374e-05
3.7880889e-05
3.7889186e-05
3.7898203e-05
3.7907904e-05
3.7918237e-05
3.7929151e-05
3.7940591e-05
3.7952494e-05
3.7964796e-05
3.7977426e-05
3.7990308e-05
3.8003364e-05
3.8016508e-05
3.802967e-05
3.8042753e-05
3.8055681e-05
3.8068374e-05
3.8080755e-05
3.8092754e-05
3.8104301e-05
3.8115347e-05
3.812583e-05
3.8135706e-05
3.8144937e-05
3.8153491e-05
3.8161338e-05
3.8168468e-05
3.8174856e-05
3.8180495e-05
3.8185377e-05
3.8189498e-05
3.8192852e-05
3.819545e-05
3.8197282e-05
3.8198351e-05
3.819821e-05
3.8197007e-05
3.8195049e-05
3.8192347e-05
3.8188895e-05
3.8184704e-05
3.8179789e-05
3.817418e-05
3.8167942e-05
3.8161292e-05
3.8154245e-05
3.8143689e-05
3.7441356e-05
3.7437565e-05
3.7441896e-05
3.7448693e-05
3.745426e-05
3.7461714e-05
3.7470746e-05
3.7481769e-05
3.7495389e-05
3.7511448e-05
3.7529457e-05
3.7549226e-05
3.7570256e-05
3.759236e-05
3.7615053e-05
3.7638169e-05
3.7661247e-05
3.7684146e-05
3.7706439e-05
3.7728025e-05
3.774852e-05
3.7767871e-05
3.7785747e-05
3.7802147e-05
3.7816789e-05
3.7829715e-05
3.7840388e-05
3.7844978e-05
3.7841846e-05
3.7836092e-05
3.782748e-05
3.7816142e-05
3.7802169e-05
3.7785589e-05
3.7766739e-05
3.7745685e-05
3.7722819e-05
3.7698254e-05
3.7672421e-05
3.7645459e-05
3.7617819e-05
3.7589661e-05
3.7561386e-05
3.7533245e-05
3.750553e-05
3.7478514e-05
3.7452445e-05
3.742757e-05
3.7404087e-05
3.7382186e-05
3.7362026e-05
3.7343735e-05
3.7327414e-05
3.7313144e-05
3.7300961e-05
3.7290883e-05
3.7282904e-05
3.727699e-05
3.7273087e-05
3.7271133e-05
3.7271033e-05
3.7272693e-05
3.7276008e-05
3.7280869e-05
3.7287165e-05
3.7292893e-05
3.729909e-05
3.7306591e-05
3.7315296e-05
3.7324471e-05
3.7334167e-05
3.7344785e-05
3.7356269e-05
3.736856e-05
3.7381622e-05
3.7395424e-05
3.7409941e-05
3.7425149e-05
3.7441043e-05
3.745759e-05
3.7474783e-05
3.7492599e-05
3.7511013e-05
3.7529999e-05
3.7549521e-05
3.7569537e-05
3.759e-05
3.7610855e-05
3.763204e-05
3.7653486e-05
3.7675133e-05
3.7696896e-05
3.7718702e-05
3.7740476e-05
3.7762142e-05
3.7783627e-05
3.7804855e-05
3.7825772e-05
3.7846307e-05
3.7866406e-05
3.788602e-05
3.7905106e-05
3.7923622e-05
3.7941548e-05
3.7958847e-05
3.7975502e-05
3.7991495e-05
3.8006814e-05
3.8021445e-05
3.8035392e-05
3.8048638e-05
3.8061181e-05
3.8072571e-05
3.8082943e-05
3.8092593e-05
3.810153e-05
3.8109741e-05
3.811723e-05
3.8123998e-05
3.8129812e-05
3.8133866e-05
3.813747e-05
3.8140528e-05
3.8141214e-05
3.7330174e-05
3.7337241e-05
3.7347417e-05
3.7358772e-05
3.7368204e-05
3.737889e-05
3.7391564e-05
3.7406338e-05
3.7422949e-05
3.7441385e-05
3.7461288e-05
3.748258e-05
3.7504853e-05
3.752799e-05
3.7551552e-05
3.7575399e-05
3.759908e-05
3.7622451e-05
3.7645068e-05
3.7666802e-05
3.7687239e-05
3.7706288e-05
3.7723583e-05
3.7739089e-05
3.7752498e-05
3.7763838e-05
3.777285e-05
3.7776274e-05
3.7765936e-05
3.7753129e-05
3.773786e-05
3.7720412e-05
3.7700979e-05
3.7679665e-05
3.7656857e-05
3.7632654e-05
3.7607473e-05
3.7581432e-05
3.7554958e-05
3.7528174e-05
3.7501505e-05
3.7475074e-05
3.7449237e-05
3.7424194e-05
3.7400177e-05
3.7377394e-05
3.7356025e-05
3.7336246e-05
3.7318182e-05
3.7301949e-05
3.7287631e-05
3.7275286e-05
3.7264943e-05
3.7256618e-05
3.7250283e-05
3.7245901e-05
3.7243412e-05
3.7242739e-05
3.7243787e-05
3.7246467e-05
3.725066e-05
3.7256258e-05
3.7263149e-05
3.7270385e-05
3.7275222e-05
3.7279447e-05
3.7284105e-05
3.729004e-05
3.7297159e-05
3.730537e-05
3.7314592e-05
3.7324747e-05
3.7335784e-05
3.7347641e-05
3.7360279e-05
3.7373667e-05
3.7387778e-05
3.7402591e-05
3.7418103e-05
3.7434285e-05
3.7451134e-05
3.7468636e-05
3.7486772e-05
3.7505522e-05
3.7524856e-05
3.7544741e-05
3.7565134e-05
3.7585984e-05
3.7607233e-05
3.7628815e-05
3.765067e-05
3.7672711e-05
3.7694867e-05
3.7717056e-05
3.77392e-05
3.7761219e-05
3.7783035e-05
3.7804587e-05
3.7825796e-05
3.7846604e-05
3.7866956e-05
3.7886803e-05
3.7906099e-05
3.7924818e-05
3.7942919e-05
3.7960382e-05
3.7977188e-05
3.799332e-05
3.8008765e-05
3.8023524e-05
3.803758e-05
3.8050932e-05
3.8063576e-05
3.8075508e-05
3.8086721e-05
3.8097221e-05
3.8106991e-05
3.8116026e-05
3.8124313e-05
3.8131595e-05
3.8137003e-05
3.8141712e-05
3.8145431e-05
3.8145411e-05
3.7321012e-05
3.7325751e-05
3.733063e-05
3.7336586e-05
3.734437e-05
3.7354302e-05
3.7366229e-05
3.7380301e-05
3.7396307e-05
3.7414296e-05
3.743396e-05
3.7455262e-05
3.7477819e-05
3.750153e-05
3.7525959e-05
3.7550962e-05
3.7576072e-05
3.7601125e-05
3.7625647e-05
3.7649477e-05
3.7672161e-05
3.7693566e-05
3.7713275e-05
3.7731205e-05
3.7746996e-05
3.7760622e-05
3.7771785e-05
3.777302e-05
3.7759314e-05
3.7743125e-05
3.772453e-05
3.7703881e-05
3.7681429e-05
3.7657323e-05
3.763199e-05
3.7605561e-05
3.7578478e-05
3.7550877e-05
3.7523198e-05
3.7495566e-05
3.7468405e-05
3.7441831e-05
3.7416186e-05
3.7391649e-05
3.7368434e-05
3.7346721e-05
3.7326665e-05
3.730841e-05
3.7292052e-05
3.7277675e-05
3.7265335e-05
3.725506e-05
3.7246849e-05
3.7240691e-05
3.7236533e-05
3.7234314e-05
3.7233952e-05
3.7235353e-05
3.7238404e-05
3.7243003e-05
3.7249019e-05
3.7256335e-05
3.7264835e-05
3.7267771e-05
3.7268407e-05
3.7270597e-05
3.727425e-05
3.7279252e-05
3.7285502e-05
3.7292905e-05
3.7301371e-05
3.7310814e-05
3.7321174e-05
3.7332379e-05
3.7344387e-05
3.735716e-05
3.7370673e-05
3.7384904e-05
3.7399852e-05
3.7415495e-05
3.7431835e-05
3.7448863e-05
3.7466569e-05
3.7484938e-05
3.7503949e-05
3.7523573e-05
3.7543774e-05
3.7564505e-05
3.7585711e-05
3.7607326e-05
3.762929e-05
3.7651517e-05
3.767393e-05
3.7696446e-05
3.771898e-05
3.7741448e-05
3.7763764e-05
3.7785862e-05
3.7807656e-05
3.7829082e-05
3.7850078e-05
3.787059e-05
3.7890566e-05
3.7909977e-05
3.7928778e-05
3.7946944e-05
3.7964455e-05
3.7981293e-05
3.7997443e-05
3.8012905e-05
3.8027663e-05
3.8041715e-05
3.8055057e-05
3.8067686e-05
3.8079593e-05
3.8090783e-05
3.8101237e-05
3.8110944e-05
3.8119886e-05
3.8128033e-05
3.8135317e-05
3.8141658e-05
3.8146746e-05
3.8147226e-05
3.7313401e-05
3.7310735e-05
3.7312151e-05
3.7315991e-05
3.7321932e-05
3.7330246e-05
3.7340799e-05
3.7353757e-05
3.7368922e-05
3.7386358e-05
3.7405773e-05
3.7427137e-05
3.7450079e-05
3.7474496e-05
3.7499953e-05
3.7526296e-05
3.7553044e-05
3.7580014e-05
3.7606708e-05
3.7632937e-05
3.7658212e-05
3.7682366e-05
3.7704945e-05
3.7725824e-05
3.7744604e-05
3.7761216e-05
3.7775321e-05
3.7774573e-05
3.7758206e-05
3.773936e-05
3.7718141e-05
3.7694933e-05
3.7670022e-05
3.764359e-05
3.7616091e-05
3.7587681e-05
3.7558821e-05
3.7529664e-05
3.7500659e-05
3.7471943e-05
3.7443943e-05
3.7416778e-05
3.7390787e-05
3.7366149e-05
3.7343069e-05
3.732172e-05
3.7302244e-05
3.7284774e-05
3.7269391e-05
3.7256164e-05
3.7245129e-05
3.7236296e-05
3.7229643e-05
3.722514e-05
3.722271e-05
3.722227e-05
3.7223718e-05
3.7226936e-05
3.7231793e-05
3.7238165e-05
3.7245905e-05
3.7254882e-05
3.7261409e-05
3.7259348e-05
3.7258866e-05
3.7260031e-05
3.7262746e-05
3.7266883e-05
3.7272332e-05
3.7278984e-05
3.7286737e-05
3.7295498e-05
3.7305198e-05
3.7315761e-05
3.732714e-05
3.7339297e-05
3.7352206e-05
3.7365846e-05
3.7380223e-05
3.7395319e-05
3.7411142e-05
3.7427691e-05
3.7444965e-05
3.7462956e-05
3.748165e-05
3.7501026e-05
3.7521052e-05
3.7541686e-05
3.7562875e-05
3.7584553e-05
3.7606662e-05
3.7629112e-05
3.7651823e-05
3.7674708e-05
3.7697674e-05
3.7720634e-05
3.7743493e-05
3.7766178e-05
3.7788596e-05
3.7810677e-05
3.7832351e-05
3.7853559e-05
3.7874245e-05
3.7894373e-05
3.7913895e-05
3.7932786e-05
3.795102e-05
3.796858e-05
3.7985448e-05
3.8001627e-05
3.80171e-05
3.8031865e-05
3.8045919e-05
3.8059261e-05
3.8071882e-05
3.8083788e-05
3.8094958e-05
3.8105382e-05
3.8115038e-05
3.8123889e-05
3.8131863e-05
3.8138882e-05
3.8144825e-05
3.814678e-05
3.7299311e-05
3.7293944e-05
3.7293102e-05
3.7294792e-05
3.7298833e-05
3.7305474e-05
3.7314603e-05
3.7326397e-05
3.7340679e-05
3.7357535e-05
3.7376692e-05
3.7398138e-05
3.7421508e-05
3.7446705e-05
3.7473287e-05
3.7501088e-05
3.7529611e-05
3.7558645e-05
3.7587665e-05
3.7616445e-05
3.7644461e-05
3.7671502e-05
3.7697073e-05
3.7721004e-05
3.7742851e-05
3.7762506e-05
3.7779591e-05
3.7776971e-05
3.7757824e-05
3.7736221e-05
3.7712297e-05
3.7686469e-05
3.765905e-05
3.7630246e-05
3.7600534e-05
3.757009e-05
3.753939e-05
3.7508602e-05
3.7478186e-05
3.7448289e-05
3.7419343e-05
3.7391472e-05
3.7365017e-05
3.7340155e-05
3.731709e-05
3.7295988e-05
3.7276987e-05
3.7260207e-05
3.7245718e-05
3.7233575e-05
3.7223797e-05
3.7216375e-05
3.7211266e-05
3.7208419e-05
3.7207731e-05
3.7209097e-05
3.7212388e-05
3.7217462e-05
3.7224165e-05
3.7232351e-05
3.7241853e-05
3.7252523e-05
3.7253224e-05
3.7249773e-05
3.7248181e-05
3.7248332e-05
3.7250119e-05
3.7253403e-05
3.7258064e-05
3.726398e-05
3.7271039e-05
3.7279135e-05
3.7288193e-05
3.7298129e-05
3.7308891e-05
3.7320439e-05
3.7332748e-05
3.7345801e-05
3.7359607e-05
3.7374155e-05
3.7389463e-05
3.7405537e-05
3.7422385e-05
3.7440009e-05
3.7458402e-05
3.747755e-05
3.7497426e-05
3.7517993e-05
3.75392e-05
3.7560982e-05
3.7583279e-05
3.7605998e-05
3.7629055e-05
3.7652357e-05
3.7675806e-05
3.7699305e-05
3.7722753e-05
3.7746069e-05
3.7769153e-05
3.7791926e-05
3.7814312e-05
3.7836246e-05
3.7857665e-05
3.7878531e-05
3.7898792e-05
3.7918417e-05
3.7937381e-05
3.7955665e-05
3.7973252e-05
3.7990142e-05
3.800632e-05
3.8021786e-05
3.8036537e-05
3.8050573e-05
3.8063886e-05
3.8076483e-05
3.8088344e-05
3.809946e-05
3.8109809e-05
3.8119355e-05
3.8128038e-05
3.8135795e-05
3.8142502e-05
3.814539e-05
3.7283437e-05
3.7275349e-05
3.7272105e-05
3.7271549e-05
3.7273602e-05
3.727851e-05
3.728619e-05
3.7296834e-05
3.7310284e-05
3.7326641e-05
3.7345646e-05
3.7367296e-05
3.7391231e-05
3.7417352e-05
3.7445208e-05
3.7474621e-05
3.7505074e-05
3.753633e-05
3.7567834e-05
3.7599327e-05
3.7630244e-05
3.7660336e-05
3.7689063e-05
3.7716213e-05
3.7741298e-05
3.7764166e-05
3.7784396e-05
3.7780157e-05
3.7758197e-05
3.7733782e-05
3.7707081e-05
3.7678541e-05
3.7648505e-05
3.7617208e-05
3.7585152e-05
3.7552536e-05
3.7519855e-05
3.748729e-05
3.7455319e-05
3.7424095e-05
3.7394062e-05
3.7365347e-05
3.7338295e-05
3.7313086e-05
3.728992e-05
3.7268962e-05
3.7250341e-05
3.7234171e-05
3.7220509e-05
3.7209397e-05
3.7200837e-05
3.7194802e-05
3.7191228e-05
3.719004e-05
3.7191112e-05
3.7194311e-05
3.7199485e-05
3.7206463e-05
3.7215067e-05
3.7225127e-05
3.7236454e-05
3.7248137e-05
3.7243298e-05
3.7238685e-05
3.7236042e-05
3.7235244e-05
3.7236169e-05
3.7238665e-05
3.7242597e-05
3.7247829e-05
3.7254236e-05
3.7261702e-05
3.7270142e-05
3.7279466e-05
3.728962e-05
3.7300562e-05
3.7312268e-05
3.7324726e-05
3.7337953e-05
3.7351945e-05
3.7366729e-05
3.7382323e-05
3.7398743e-05
3.7416001e-05
3.7434101e-05
3.7453034e-05
3.7472782e-05
3.7493309e-05
3.7514567e-05
3.7536492e-05
3.7559021e-05
3.7582059e-05
3.7605515e-05
3.7629289e-05
3.7653277e-05
3.7677372e-05
3.7701467e-05
3.7725469e-05
3.7749272e-05
3.7772787e-05
3.7795933e-05
3.7818637e-05
3.784083e-05
3.7862471e-05
3.7883501e-05
3.7903891e-05
3.7923611e-05
3.7942642e-05
3.7960966e-05
3.7978586e-05
3.7995485e-05
3.8011666e-05
3.8027128e-05
3.8041871e-05
3.8055891e-05
3.8069195e-05
3.8081764e-05
3.8093589e-05
3.810465e-05
3.8114913e-05
3.8124325e-05
3.8132833e-05
3.814033e-05
3.8144158e-05
3.7266081e-05
3.725542e-05
3.7249805e-05
3.7247014e-05
3.7247064e-05
3.7250219e-05
3.7256426e-05
3.7265904e-05
3.7278515e-05
3.7294383e-05
3.7313265e-05
3.733517e-05
3.7359744e-05
3.7386884e-05
3.7416133e-05
3.7447294e-05
3.7479827e-05
3.7513466e-05
3.7547619e-05
3.7581988e-05
3.7615966e-05
3.7649256e-05
3.7681274e-05
3.7711758e-05
3.7740176e-05
3.7766332e-05
3.7789766e-05
3.7784044e-05
3.7759107e-05
3.7731719e-05
3.7702081e-05
3.7670675e-05
3.7637875e-05
3.7603943e-05
3.7569407e-05
3.7534486e-05
3.7499695e-05
3.7465234e-05
3.743159e-05
3.7398931e-05
3.7367708e-05
3.7338057e-05
3.7310325e-05
3.7284695e-05
3.7261367e-05
3.7240502e-05
3.7222225e-05
3.720664e-05
3.7193795e-05
3.7183717e-05
3.7176392e-05
3.7171772e-05
3.7169772e-05
3.7170292e-05
3.717318e-05
3.7178277e-05
3.7185399e-05
3.719435e-05
3.7204922e-05
3.7216919e-05
3.7230128e-05
3.7240072e-05
3.7232114e-05
3.7226359e-05
3.7222693e-05
3.7220977e-05
3.7221075e-05
3.7222821e-05
3.7226062e-05
3.7230646e-05
3.7236436e-05
3.72433e-05
3.7251146e-05
3.7259876e-05
3.7269431e-05
3.727977e-05
3.7290872e-05
3.7302729e-05
3.7315368e-05
3.7328793e-05
3.7343042e-05
3.7358146e-05
3.7374133e-05
3.7391025e-05
3.7408836e-05
3.7427567e-05
3.7447203e-05
3.7467715e-05
3.7489057e-05
3.7511162e-05
3.7533967e-05
3.755737e-05
3.7581275e-05
3.7605574e-05
3.7630154e-05
3.76549e-05
3.7679693e-05
3.7704433e-05
3.7729001e-05
3.7753303e-05
3.7777248e-05
3.7800756e-05
3.7823754e-05
3.7846193e-05
3.7868015e-05
3.7889184e-05
3.7909671e-05
3.7929455e-05
3.7948519e-05
3.7966867e-05
3.7984484e-05
3.8001374e-05
3.8017538e-05
3.8032979e-05
3.8047696e-05
3.8061698e-05
3.807497e-05
3.8087506e-05
3.809929e-05
3.8110294e-05
3.8120474e-05
3.8129793e-05
3.8138162e-05
3.8142994e-05
3.7247116e-05
3.7233742e-05
3.7225622e-05
3.7220501e-05
3.7218467e-05
3.7219809e-05
3.7224509e-05
3.723281e-05
3.7244603e-05
3.7260029e-05
3.727886e-05
3.7301117e-05
3.7326446e-05
3.7354743e-05
3.7385537e-05
3.7418612e-05
3.7453402e-05
3.748961e-05
3.7526605e-05
3.7564048e-05
3.7601285e-05
3.7637972e-05
3.7673475e-05
3.7707486e-05
3.7739422e-05
3.7769041e-05
3.7795838e-05
3.7788823e-05
3.7760806e-05
3.7730324e-05
3.7697617e-05
3.7663203e-05
3.7627487e-05
3.7590764e-05
3.7553588e-05
3.7516203e-05
3.7479145e-05
3.7442632e-05
3.7407167e-05
3.737293e-05
3.7340384e-05
3.730967e-05
3.7281143e-05
3.7254988e-05
3.7231405e-05
3.7210555e-05
3.7192556e-05
3.7177506e-05
3.7165442e-05
3.7156376e-05
3.7150279e-05
3.7147083e-05
3.714668e-05
3.7148945e-05
3.7153698e-05
3.7160751e-05
3.7169889e-05
3.7180886e-05
3.7193503e-05
3.7207516e-05
3.7222685e-05
3.722864e-05
3.7219451e-05
3.7212606e-05
3.7207977e-05
3.7205409e-05
3.7204748e-05
3.7205809e-05
3.720842e-05
3.7212412e-05
3.7217629e-05
3.722393e-05
3.7231208e-05
3.7239361e-05
3.7248326e-05
3.7258062e-05
3.7268552e-05
3.7279796e-05
3.7291829e-05
3.7304669e-05
3.7318366e-05
3.7332965e-05
3.7348506e-05
3.7365027e-05
3.738255e-05
3.7401086e-05
3.7420629e-05
3.7441152e-05
3.746261e-05
3.7484938e-05
3.7508067e-05
3.7531891e-05
3.7556305e-05
3.7581193e-05
3.7606431e-05
3.7631894e-05
3.7657451e-05
3.7682993e-05
3.7708389e-05
3.7733537e-05
3.7758337e-05
3.7782701e-05
3.7806549e-05
3.782983e-05
3.7852478e-05
3.7874458e-05
3.7895739e-05
3.79163e-05
3.7936124e-05
3.7955216e-05
3.7973562e-05
3.799117e-05
3.8008043e-05
3.8024188e-05
3.8039604e-05
3.8054305e-05
3.8068279e-05
3.8081524e-05
3.8094027e-05
3.8105769e-05
3.8116714e-05
3.812684e-05
3.813608e-05
3.8141892e-05
3.7226697e-05
3.7210603e-05
3.7199933e-05
3.7192426e-05
3.7188246e-05
3.7187717e-05
3.719086e-05
3.7197951e-05
3.7208909e-05
3.72239e-05
3.7242714e-05
3.7265382e-05
3.7291555e-05
3.7321121e-05
3.7353598e-05
3.7388747e-05
3.7425972e-05
3.7464939e-05
3.7504975e-05
3.7545692e-05
3.7586387e-05
3.7626664e-05
3.7665835e-05
3.7703539e-05
3.7739143e-05
3.7772358e-05
3.7802633e-05
3.7794447e-05
3.7763176e-05
3.7729425e-05
3.7693476e-05
3.7655881e-05
3.7617082e-05
3.7577403e-05
3.7537428e-05
3.7497424e-05
3.745795e-05
3.7419243e-05
3.7381821e-05
3.7345881e-05
3.7311892e-05
3.7280009e-05
3.7250591e-05
3.7223827e-05
3.719992e-05
3.7179027e-05
3.7161266e-05
3.7146725e-05
3.7135432e-05
3.7127385e-05
3.7122539e-05
3.7120804e-05
3.7122049e-05
3.7126122e-05
3.7132814e-05
3.7141904e-05
3.7153145e-05
3.7166278e-05
3.7181028e-05
3.7197141e-05
3.7214348e-05
3.7215818e-05
3.7205423e-05
3.7197525e-05
3.7191978e-05
3.7188612e-05
3.718725e-05
3.7187685e-05
3.7189723e-05
3.7193177e-05
3.719787e-05
3.7203644e-05
3.7210385e-05
3.7217979e-05
3.7226362e-05
3.7235493e-05
3.7245361e-05
3.7255976e-05
3.7267382e-05
3.7279612e-05
3.7292734e-05
3.7306805e-05
3.7321883e-05
3.733802e-05
3.735525e-05
3.7373596e-05
3.7393057e-05
3.7413613e-05
3.7435219e-05
3.7457809e-05
3.7481309e-05
3.7505605e-05
3.7530586e-05
3.7556123e-05
3.7582082e-05
3.7608325e-05
3.7634709e-05
3.7661113e-05
3.7687395e-05
3.7713441e-05
3.7739144e-05
3.7764406e-05
3.7789144e-05
3.7813297e-05
3.78368e-05
3.7859613e-05
3.7881705e-05
3.7903055e-05
3.7923646e-05
3.7943486e-05
3.7962563e-05
3.7980889e-05
3.799847e-05
3.8015315e-05
3.8031429e-05
3.804683e-05
3.806151e-05
3.8075471e-05
3.8088707e-05
3.8101204e-05
3.8112939e-05
3.8123897e-05
3.813403e-05
3.8140825e-05
3.7204728e-05
3.7185733e-05
3.717236e-05
3.7162344e-05
3.7155912e-05
3.7153427e-05
3.7154952e-05
3.7160797e-05
3.7170912e-05
3.718549e-05
3.7204339e-05
3.72275e-05
3.7254627e-05
3.7285601e-05
3.7319924e-05
3.7357331e-05
3.7397194e-05
3.7439137e-05
3.7482443e-05
3.752667e-05
3.7571063e-05
3.7615166e-05
3.7658237e-05
3.7699859e-05
3.7739344e-05
3.7776351e-05
3.7810283e-05
3.7801062e-05
3.7766382e-05
3.7729197e-05
3.7689831e-05
3.7648876e-05
3.7606812e-05
3.7563995e-05
3.752104e-05
3.7478242e-05
3.743618e-05
3.7395114e-05
3.7355579e-05
3.7317786e-05
3.7282219e-05
3.724904e-05
3.7218617e-05
3.7191143e-05
3.7166825e-05
3.714582e-05
3.7128241e-05
3.7114172e-05
3.710363e-05
3.7096601e-05
3.709302e-05
3.7092779e-05
3.7095722e-05
3.7101667e-05
3.7110375e-05
3.712159e-05
3.7135031e-05
3.7150399e-05
3.7167386e-05
3.71857e-05
3.720504e-05
3.7201451e-05
3.7189895e-05
3.7181e-05
3.7174604e-05
3.7170514e-05
3.7168529e-05
3.7168415e-05
3.7169954e-05
3.7172934e-05
3.7177158e-05
3.7182451e-05
3.7188684e-05
3.7195738e-05
3.7203545e-05
3.7212066e-05
3.7221297e-05
3.7231257e-05
3.7242008e-05
3.7253597e-05
3.726611e-05
3.7279625e-05
3.7294215e-05
3.730995e-05
3.7326879e-05
3.7345036e-05
3.7364428e-05
3.7385039e-05
3.7406828e-05
3.7429724e-05
3.7453648e-05
3.7478479e-05
3.7504094e-05
3.7530353e-05
3.7557108e-05
3.7584207e-05
3.7611495e-05
3.7638834e-05
3.7666073e-05
3.7693086e-05
3.7719754e-05
3.7745973e-05
3.777165e-05
3.7796722e-05
3.7821119e-05
3.7844798e-05
3.7867728e-05
3.7889888e-05
3.7911264e-05
3.7931864e-05
3.7951681e-05
3.7970728e-05
3.7989017e-05
3.8006561e-05
3.8023368e-05
3.8039462e-05
3.805484e-05
3.8069509e-05
3.8083468e-05
3.8096713e-05
3.8109229e-05
3.8121013e-05
3.8132033e-05
3.8139789e-05
3.7181268e-05
3.715928e-05
3.7143096e-05
3.713046e-05
3.7121669e-05
3.711713e-05
3.7116954e-05
3.7121492e-05
3.7130732e-05
3.7144891e-05
3.7163804e-05
3.718752e-05
3.7215698e-05
3.724821e-05
3.7284539e-05
3.7324392e-05
3.7367104e-05
3.7412253e-05
3.7459069e-05
3.7507053e-05
3.755539e-05
3.7603564e-05
3.7650769e-05
3.7696527e-05
3.7740095e-05
3.7781079e-05
3.7818832e-05
3.7808661e-05
3.7770373e-05
3.7729552e-05
3.7686567e-05
3.7642054e-05
3.7596529e-05
3.7550385e-05
3.7504266e-05
3.7458494e-05
3.7413675e-05
3.7370088e-05
3.7328287e-05
3.7288499e-05
3.725122e-05
3.7216625e-05
3.718509e-05
3.7156815e-05
3.7132009e-05
3.7110831e-05
3.7093392e-05
3.7079771e-05
3.7069974e-05
3.7063976e-05
3.7061694e-05
3.7062999e-05
3.7067707e-05
3.7075609e-05
3.708643e-05
3.7099878e-05
3.7115632e-05
3.7133352e-05
3.7152691e-05
3.7173317e-05
3.7194892e-05
3.7185561e-05
3.7172881e-05
3.7163045e-05
3.7155868e-05
3.7151131e-05
3.7148603e-05
3.7148023e-05
3.7149141e-05
3.7151718e-05
3.7155534e-05
3.7160394e-05
3.7166155e-05
3.7172689e-05
3.7179924e-05
3.7187826e-05
3.7196399e-05
3.7205676e-05
3.7215734e-05
3.7226642e-05
3.7238506e-05
3.7251424e-05
3.7265494e-05
3.7280801e-05
3.7297414e-05
3.7315376e-05
3.7334707e-05
3.7355394e-05
3.7377396e-05
3.740064e-05
3.7425041e-05
3.7450468e-05
3.7476785e-05
3.7503838e-05
3.7531464e-05
3.7559495e-05
3.7587761e-05
3.761611e-05
3.7644375e-05
3.7672418e-05
3.770011e-05
3.7727337e-05
3.7754001e-05
3.7780032e-05
3.7805356e-05
3.7829929e-05
3.7853719e-05
3.7876707e-05
3.7898879e-05
3.7920247e-05
3.7940809e-05
3.796058e-05
3.7979578e-05
3.799782e-05
3.8015321e-05
3.8032108e-05
3.8048184e-05
3.8063563e-05
3.8078251e-05
3.8092249e-05
3.8105552e-05
3.8118166e-05
3.813007e-05
3.8138777e-05
3.715625e-05
3.713106e-05
3.7111885e-05
3.7096469e-05
3.7085177e-05
3.7078464e-05
3.7076491e-05
3.7079655e-05
3.7087982e-05
3.7101722e-05
3.7120733e-05
3.7145079e-05
3.7174418e-05
3.7208614e-05
3.724713e-05
3.728964e-05
3.7335437e-05
3.7384048e-05
3.7434646e-05
3.7486669e-05
3.7539236e-05
3.7591762e-05
3.7643377e-05
3.7693538e-05
3.7741439e-05
3.7786629e-05
3.782841e-05
3.7817363e-05
3.7775263e-05
3.7730595e-05
3.7683779e-05
3.7635492e-05
3.7586294e-05
3.7536613e-05
3.7487126e-05
3.7438185e-05
3.739042e-05
3.7344132e-05
3.7299896e-05
3.7257954e-05
3.7218819e-05
3.7182675e-05
3.714991e-05
3.7120731e-05
3.7095351e-05
3.7073933e-05
3.7056586e-05
3.7043384e-05
3.7034326e-05
3.7029373e-05
3.7028425e-05
3.7031331e-05
3.7037881e-05
3.7047832e-05
3.7060874e-05
3.7076675e-05
3.709487e-05
3.7115077e-05
3.7136901e-05
3.7159968e-05
3.7183025e-05
3.7168036e-05
3.7154285e-05
3.7143578e-05
3.7135706e-05
3.7130415e-05
3.7127443e-05
3.7126492e-05
3.7127281e-05
3.7129538e-05
3.7133015e-05
3.7137496e-05
3.7142821e-05
3.7148853e-05
3.7155518e-05
3.7162788e-05
3.7170675e-05
3.7179229e-05
3.7188548e-05
3.7198724e-05
3.7209887e-05
3.7222162e-05
3.7235669e-05
3.7250516e-05
3.726679e-05
3.7284551e-05
3.7303826e-05
3.732461e-05
3.7346861e-05
3.7370503e-05
3.7395441e-05
3.7421533e-05
3.744863e-05
3.7476561e-05
3.7505146e-05
3.7534198e-05
3.756353e-05
3.7592973e-05
3.7622346e-05
3.7651496e-05
3.7680282e-05
3.7708583e-05
3.7736289e-05
3.7763327e-05
3.778962e-05
3.7815122e-05
3.78398e-05
3.7863636e-05
3.788662e-05
3.7908766e-05
3.7930077e-05
3.7950573e-05
3.7970276e-05
3.7989211e-05
3.8007396e-05
3.8024866e-05
3.804163e-05
3.8057708e-05
3.8073113e-05
3.8087855e-05
3.8101935e-05
3.811537e-05
3.8128146e-05
3.8137787e-05
3.7129689e-05
3.7101139e-05
3.7078811e-05
3.7060449e-05
3.70465e-05
3.7037471e-05
3.703358e-05
3.7035277e-05
3.7042631e-05
3.7055931e-05
3.7075059e-05
3.7100095e-05
3.7130701e-05
3.7166729e-05
3.7207618e-05
3.7253007e-05
3.730214e-05
3.7354488e-05
3.740916e-05
3.7465524e-05
3.7522624e-05
3.7579804e-05
3.7636119e-05
3.7690957e-05
3.7743447e-05
3.7793076e-05
3.7839095e-05
3.7827195e-05
3.7781044e-05
3.7732292e-05
3.7681406e-05
3.7629115e-05
3.7576016e-05
3.752258e-05
3.7469514e-05
3.74172e-05
3.7366296e-05
3.7317125e-05
3.7270282e-05
3.7226028e-05
3.7184889e-05
3.7147064e-05
3.7112952e-05
3.7082768e-05
3.7056732e-05
3.703501e-05
3.7017712e-05
3.7004908e-05
3.6996589e-05
3.6992705e-05
3.6993139e-05
3.6997716e-05
3.7006198e-05
3.7018308e-05
3.7033698e-05
3.7051992e-05
3.7072777e-05
3.7095622e-05
3.7120081e-05
3.7145731e-05
3.7167049e-05
3.7148831e-05
3.7134066e-05
3.7122567e-05
3.7114092e-05
3.7108352e-05
3.7105046e-05
3.7103835e-05
3.7104398e-05
3.7106427e-05
3.7109643e-05
3.7113805e-05
3.7118734e-05
3.7124284e-05
3.713038e-05
3.7136998e-05
3.7144164e-05
3.7151948e-05
3.7160471e-05
3.7169852e-05
3.7180251e-05
3.7191822e-05
3.7204714e-05
3.721906e-05
3.7234966e-05
3.7252511e-05
3.7271733e-05
3.7292631e-05
3.7315165e-05
3.7339253e-05
3.736479e-05
3.739162e-05
3.7419578e-05
3.7448474e-05
3.7478107e-05
3.7508272e-05
3.753876e-05
3.7569385e-05
3.7599948e-05
3.7630282e-05
3.7660234e-05
3.768967e-05
3.7718474e-05
3.7746567e-05
3.7773869e-05
3.7800332e-05
3.7825923e-05
3.7850627e-05
3.7874436e-05
3.789737e-05
3.7919435e-05
3.7940657e-05
3.7961065e-05
3.7980689e-05
3.7999555e-05
3.8017704e-05
3.803515e-05
3.8051922e-05
3.8068039e-05
3.8083519e-05
3.8098371e-05
3.8112618e-05
3.8126257e-05
3.8136815e-05
3.7101538e-05
3.7069388e-05
3.7043688e-05
3.7022177e-05
3.7005384e-05
3.6993873e-05
3.6987926e-05
3.6988049e-05
3.6994361e-05
3.7007194e-05
3.7026458e-05
3.7052252e-05
3.708424e-05
3.7122262e-05
3.7165729e-05
3.7214241e-05
3.726699e-05
3.7323381e-05
3.7382451e-05
3.7443493e-05
3.7505469e-05
3.7567641e-05
3.7628986e-05
3.7688815e-05
3.7746188e-05
3.7800528e-05
3.7851027e-05
3.7838262e-05
3.7787807e-05
3.7734713e-05
3.7679503e-05
3.7622953e-05
3.7565709e-05
3.7508278e-05
3.7451403e-05
3.7395498e-05
3.7341246e-05
3.7288995e-05
3.7239361e-05
3.7192623e-05
3.7149323e-05
3.7109675e-05
3.707409e-05
3.7042793e-05
3.7016012e-05
3.6993918e-05
3.6976622e-05
3.6964194e-05
3.6956618e-05
3.6953831e-05
3.69557e-05
3.6962027e-05
3.6972544e-05
3.6986939e-05
3.7004821e-05
3.7025765e-05
3.7049309e-05
3.7074964e-05
3.7102231e-05
3.7130629e-05
3.7147283e-05
3.7127847e-05
3.7112138e-05
3.7099939e-05
3.7090972e-05
3.7084907e-05
3.7081394e-05
3.7080049e-05
3.7080504e-05
3.7082411e-05
3.7085454e-05
3.7089362e-05
3.7093939e-05
3.7099027e-05
3.7104548e-05
3.7110488e-05
3.7116889e-05
3.7123843e-05
3.7131499e-05
3.714001e-05
3.7149569e-05
3.7160364e-05
3.7172576e-05
3.7186368e-05
3.7201871e-05
3.7219181e-05
3.723835e-05
3.7259382e-05
3.7282236e-05
3.7306824e-05
3.733303e-05
3.7360681e-05
3.7389592e-05
3.7419552e-05
3.7450337e-05
3.7481719e-05
3.7513466e-05
3.7545373e-05
3.7577221e-05
3.7608826e-05
3.7640022e-05
3.7670664e-05
3.7700629e-05
3.772983e-05
3.7758185e-05
3.7785644e-05
3.7812177e-05
3.7837769e-05
3.7862417e-05
3.7886146e-05
3.7908966e-05
3.7930913e-05
3.795202e-05
3.7972324e-05
3.799186e-05
3.8010674e-05
3.802879e-05
3.8046241e-05
3.8063057e-05
3.8079261e-05
3.8094871e-05
3.8109918e-05
3.8124403e-05
3.8135862e-05
3.7071795e-05
3.7035828e-05
3.7006535e-05
3.6981654e-05
3.6961806e-05
3.694762e-05
3.6939449e-05
3.6937863e-05
3.6943041e-05
3.6955361e-05
3.6974768e-05
3.7001379e-05
3.7034863e-05
3.7075046e-05
3.7121311e-05
3.7173209e-05
3.7229874e-05
3.7290641e-05
3.7354464e-05
3.742055e-05
3.7487772e-05
3.7555302e-05
3.7622031e-05
3.7687187e-05
3.7749754e-05
3.7809088e-05
3.786432e-05
3.7850616e-05
3.7795572e-05
3.7737851e-05
3.7678038e-05
3.761696e-05
3.7555308e-05
3.7493631e-05
3.7432708e-05
3.7372984e-05
3.7315168e-05
3.7259634e-05
3.7207018e-05
3.7157619e-05
3.7111996e-05
3.7070379e-05
3.7033191e-05
3.7000671e-05
3.6973055e-05
3.6950521e-05
3.6933183e-05
3.6921112e-05
3.6914286e-05
3.6912632e-05
3.6916e-05
3.6924168e-05
3.6936839e-05
3.6953661e-05
3.6974197e-05
3.6997972e-05
3.7024465e-05
3.7053127e-05
3.7083393e-05
3.7114724e-05
3.7125601e-05
3.7104995e-05
3.7088421e-05
3.707563e-05
3.70663e-05
3.7060049e-05
3.7056477e-05
3.7055143e-05
3.7055628e-05
3.7057532e-05
3.7060501e-05
3.7064232e-05
3.7068503e-05
3.7073147e-05
3.7078087e-05
3.7083315e-05
3.7088895e-05
3.7094946e-05
3.7101651e-05
3.71092e-05
3.7117826e-05
3.7127758e-05
3.7139213e-05
3.7152388e-05
3.7167442e-05
3.7184491e-05
3.7203602e-05
3.7224786e-05
3.7247999e-05
3.7273145e-05
3.7300094e-05
3.7328654e-05
3.7358616e-05
3.7389746e-05
3.7421792e-05
3.7454502e-05
3.7487618e-05
3.7520911e-05
3.7554142e-05
3.7587109e-05
3.7619632e-05
3.7651554e-05
3.7682742e-05
3.7713106e-05
3.7742558e-05
3.777105e-05
3.7798552e-05
3.7825052e-05
3.7850552e-05
3.7875083e-05
3.7898663e-05
3.7921332e-05
3.7943133e-05
3.796411e-05
3.7984305e-05
3.8003774e-05
3.8022547e-05
3.8040667e-05
3.8058168e-05
3.8075083e-05
3.8091438e-05
3.8107269e-05
3.8122586e-05
3.8134926e-05
3.7040432e-05
3.7000367e-05
3.6967215e-05
3.6938706e-05
3.6915559e-05
3.6898476e-05
3.688789e-05
3.6884442e-05
3.6888377e-05
3.6900126e-05
3.6919676e-05
3.6947166e-05
3.6982268e-05
3.7024796e-05
3.7074097e-05
3.7129672e-05
3.7190587e-05
3.7256095e-05
3.7325064e-05
3.73966e-05
3.7469479e-05
3.7542774e-05
3.761528e-05
3.7686136e-05
3.7754245e-05
3.7818889e-05
3.7879139e-05
3.7864359e-05
3.7804414e-05
3.774176e-05
3.7677042e-05
3.7611143e-05
3.7544801e-05
3.7478607e-05
3.7413378e-05
3.734959e-05
3.728798e-05
3.7228946e-05
3.7173146e-05
3.7120898e-05
3.7072781e-05
3.702904e-05
3.6990113e-05
3.6956251e-05
3.6927704e-05
3.6904657e-05
3.6887232e-05
3.6875498e-05
3.6869433e-05
3.6868953e-05
3.6873892e-05
3.6884006e-05
3.6898963e-05
3.6918373e-05
3.6941749e-05
3.6968559e-05
3.6998218e-05
3.7030109e-05
3.7063597e-05
3.7098072e-05
3.7101883e-05
3.7080165e-05
3.7062822e-05
3.7049565e-05
3.704002e-05
3.7033748e-05
3.7030286e-05
3.702913e-05
3.7029798e-05
3.7031838e-05
3.7034846e-05
3.703848e-05
3.7042498e-05
3.7046716e-05
3.7051059e-05
3.7055533e-05
3.7060224e-05
3.7065283e-05
3.7070935e-05
3.7077412e-05
3.7084996e-05
3.709396e-05
3.7104565e-05
3.7117047e-05
3.7131596e-05
3.7148353e-05
3.71674e-05
3.7188753e-05
3.7212368e-05
3.7238136e-05
3.7265912e-05
3.729548e-05
3.7326606e-05
3.7359025e-05
3.7392457e-05
3.7426618e-05
3.7461224e-05
3.749602e-05
3.7530743e-05
3.7565174e-05
3.7599114e-05
3.7632395e-05
3.7664875e-05
3.7696459e-05
3.7727056e-05
3.7756617e-05
3.7785115e-05
3.7812542e-05
3.7838907e-05
3.7864245e-05
3.7888582e-05
3.7911968e-05
3.7934453e-05
3.7956091e-05
3.7976931e-05
3.7997038e-05