/*--------------------------------*- C++ -*----------------------------------*\
| =========                 |                                                 |
| \\      /  F ield         | foam-extend: Open Source CFD                    |
|  \\    /   O peration     | Version:     4.1                                |
|   \\  /    A nd           | Web:         http://www.foam-extend.org         |
|    \\/     M anipulation  |                                                 |
\*---------------------------------------------------------------------------*/
FoamFile
{
    version     2.0;
    format      ascii;
    class       volVectorField;
    location    "0.3";
    object      U;
}
// * * * * * * * * * * * * * * * * * * * * * * * * * * * * * * * * * * * * * //

dimensions      [0 1 -1 0 0 0 0];

internalField   nonuniform List<vector> 
16796
(
(139.61507 -0.025611694 0)
(139.60706 -0.034403707 0)
(139.61146 -0.036862588 0)
(139.61889 -0.038725912 0)
(139.62959 -0.040814219 0)
(139.64486 -0.043395524 0)
(139.6664 -0.046547887 0)
(139.69604 -0.050289235 0)
(139.73565 -0.054612084 0)
(139.78707 -0.059495628 0)
(139.85206 -0.064913415 0)
(139.93231 -0.070835166 0)
(140.02935 -0.077224578 0)
(140.14461 -0.084039032 0)
(140.27935 -0.091222375 0)
(140.43467 -0.098708722 0)
(140.61146 -0.10642824 0)
(140.81039 -0.11430525 0)
(141.03192 -0.12226133 0)
(141.27627 -0.13021528 0)
(141.54344 -0.13808469 0)
(141.83315 -0.14578654 0)
(142.14491 -0.15323845 0)
(142.47795 -0.16035942 0)
(142.83128 -0.16707118 0)
(143.20368 -0.17329892 0)
(143.59368 -0.17897268 0)
(143.99962 -0.1840281 0)
(144.41966 -0.18840775 0)
(144.85177 -0.19206182 0)
(145.29379 -0.19494916 0)
(145.7434 -0.19703793 0)
(146.19824 -0.19830645 0)
(146.65585 -0.19874339 0)
(147.11375 -0.19834837 0)
(147.56946 -0.197132 0)
(148.02054 -0.19511597 0)
(148.4646 -0.19233275 0)
(148.89936 -0.18882533 0)
(149.32268 -0.18464653 0)
(149.73258 -0.1798584 0)
(150.12725 -0.17453111 0)
(150.50512 -0.16874196 0)
(150.86484 -0.16257407 0)
(151.20533 -0.15611489 0)
(151.52575 -0.14945472 0)
(151.82557 -0.14268494 0)
(152.10452 -0.13589631 0)
(152.36262 -0.12917704 0)
(152.60015 -0.12261103 0)
(152.81766 -0.11627597 0)
(153.01592 -0.11024155 0)
(153.19593 -0.10456782 0)
(153.35887 -0.099303711 0)
(153.50607 -0.094485717 0)
(153.63896 -0.090136843 0)
(153.75905 -0.086265901 0)
(153.86786 -0.082866771 0)
(153.96692 -0.079919216 0)
(154.05766 -0.077389417 0)
(154.14141 -0.07522991 0)
(154.21936 -0.073379452 0)
(154.29249 -0.071764772 0)
(154.3616 -0.070304252 0)
(154.42723 -0.068912035 0)
(154.48968 -0.067507485 0)
(154.54897 -0.066018486 0)
(154.6049 -0.064377153 0)
(154.65701 -0.062528328 0)
(154.70462 -0.06044214 0)
(154.74699 -0.058072711 0)
(154.78306 -0.055365055 0)
(154.81158 -0.052306814 0)
(154.83138 -0.048894601 0)
(154.84123 -0.045117638 0)
(154.83991 -0.040977336 0)
(154.82621 -0.036490881 0)
(154.79905 -0.03169132 0)
(154.75743 -0.026626413 0)
(154.70057 -0.021356762 0)
(154.62786 -0.015953482 0)
(154.53893 -0.010495531 0)
(154.43368 -0.0050668234 0)
(154.31223 0.00024671777 0)
(154.175 0.0053600464 0)
(154.02264 0.010191702 0)
(153.85604 0.014666232 0)
(153.67632 0.018716247 0)
(153.48478 0.022284039 0)
(153.28291 0.025322734 0)
(153.0723 0.027796947 0)
(152.85466 0.029682997 0)
(152.63175 0.030968673 0)
(152.40536 0.031652617 0)
(152.17729 0.031743401 0)
(151.9493 0.031258374 0)
(151.72311 0.030222338 0)
(151.50035 0.02866613 0)
(151.28259 0.026625215 0)
(151.07126 0.024138319 0)
(150.86771 0.021246141 0)
(150.67316 0.017990227 0)
(150.48873 0.014412008 0)
(150.3154 0.010552009 0)
(150.15408 0.0064492761 0)
(150.00552 0.0021410107 0)
(149.87043 -0.0023376244 0)
(149.74939 -0.0069534978 0)
(149.64291 -0.011675267 0)
(149.55143 -0.016472987 0)
(149.47532 -0.021317194 0)
(149.41487 -0.026178813 0)
(149.37034 -0.031026153 0)
(149.34191 -0.035821073 0)
(149.32974 -0.040516585 0)
(149.33388 -0.045067074 0)
(149.35426 -0.049432892 0)
(149.39072 -0.053538776 0)
(149.44299 -0.057212217 0)
(149.5113 -0.060111447 0)
(149.59617 -0.061882451 0)
(149.69618 -0.063064363 0)
(149.79584 -0.062687999 0)
(149.87462 -0.050769845 0)
(159.26209 0.039311397 0)
(159.12928 0.030310112 0)
(159.0196 0.028271302 0)
(158.90817 0.026530595 0)
(158.79798 0.023761821 0)
(158.6905 0.019400955 0)
(158.58737 0.01322603 0)
(158.49032 0.0051555532 0)
(158.40111 -0.004819064 0)
(158.32152 -0.016660295 0)
(158.25326 -0.030294784 0)
(158.19801 -0.04561655 0)
(158.15735 -0.062486947 0)
(158.13274 -0.080735924 0)
(158.12527 -0.10019262 0)
(158.13603 -0.12067855 0)
(158.1659 -0.141997 0)
(158.21559 -0.16393846 0)
(158.28562 -0.18627977 0)
(158.37629 -0.20878742 0)
(158.48769 -0.23122052 0)
(158.61969 -0.25333314 0)
(158.77194 -0.27487827 0)
(158.94382 -0.29561021 0)
(159.13452 -0.3152888 0)
(159.34298 -0.33368191 0)
(159.56794 -0.35056962 0)
(159.80791 -0.36574673 0)
(160.06123 -0.37902666 0)
(160.32606 -0.39024388 0)
(160.6004 -0.39925709 0)
(160.88212 -0.4059515 0)
(161.16898 -0.41024138 0)
(161.45868 -0.41207146 0)
(161.74884 -0.41141858 0)
(162.0371 -0.40829269 0)
(162.3211 -0.40273721 0)
(162.59851 -0.39482894 0)
(162.86712 -0.38467761 0)
(163.12479 -0.37242439 0)
(163.36956 -0.3582405 0)
(163.59962 -0.34232441 0)
(163.81337 -0.32489928 0)
(164.00944 -0.3062092 0)
(164.1867 -0.28651521 0)
(164.34426 -0.26609074 0)
(164.48153 -0.24521658 0)
(164.59819 -0.22417556 0)
(164.69419 -0.20324676 0)
(164.76976 -0.1826998 0)
(164.8254 -0.16278888 0)
(164.86183 -0.14374703 0)
(164.88003 -0.12578056 0)
(164.88114 -0.10906407 0)
(164.8665 -0.093735904 0)
(164.83754 -0.079894099 0)
(164.79578 -0.067594185 0)
(164.74282 -0.056847232 0)
(164.68019 -0.047617801 0)
(164.60943 -0.039823696 0)
(164.53194 -0.033337265 0)
(164.449 -0.027991742 0)
(164.36169 -0.02359012 0)
(164.27091 -0.019914867 0)
(164.17729 -0.016724559 0)
(164.08124 -0.013762013 0)
(163.9829 -0.01076452 0)
(163.88217 -0.0074728372 0)
(163.77865 -0.0036454753 0)
(163.67171 0.00092394107 0)
(163.56038 0.0064246572 0)
(163.44365 0.013021637 0)
(163.32044 0.020813677 0)
(163.1894 0.02985289 0)
(163.04914 0.04016102 0)
(162.89827 0.05171627 0)
(162.73546 0.06445065 0)
(162.55948 0.07825139 0)
(162.36923 0.092964617 0)
(162.16382 0.10840073 0)
(161.94254 0.12434093 0)
(161.70492 0.14054468 0)
(161.45077 0.15675778 0)
(161.18012 0.17272052 0)
(160.89328 0.18817579 0)
(160.59083 0.20287666 0)
(160.27355 0.21659324 0)
(159.94249 0.22911843 0)
(159.59885 0.24027266 0)
(159.24403 0.24990717 0)
(158.87955 0.25790607 0)
(158.50703 0.26418705 0)
(158.12818 0.2687009 0)
(157.74472 0.27142993 0)
(157.35841 0.27238552 0)
(156.97095 0.27160498 0)
(156.58404 0.26914784 0)
(156.19928 0.26509194 0)
(155.81822 0.25952939 0)
(155.44229 0.25256259 0)
(155.07285 0.24430048 0)
(154.71112 0.23485514 0)
(154.35824 0.22433873 0)
(154.01523 0.21286097 0)
(153.68299 0.2005271 0)
(153.36234 0.18743629 0)
(153.05401 0.17368062 0)
(152.75862 0.15934445 0)
(152.47672 0.14450429 0)
(152.20879 0.12922906 0)
(151.95525 0.11358099 0)
(151.71646 0.0976163 0)
(151.4927 0.081387555 0)
(151.28424 0.064949248 0)
(151.09129 0.048363428 0)
(150.91405 0.031695169 0)
(150.75269 0.015002768 0)
(150.60715 -0.0016284179 0)
(150.47731 -0.017951835 0)
(150.36354 -0.033429313 0)
(150.26597 -0.047653707 0)
(150.1832 -0.062445169 0)
(150.10672 -0.075288994 0)
(150.03408 -0.068071372 0)
(160.64749 0.1155492 0)
(160.49954 0.11328429 0)
(160.38464 0.11148302 0)
(160.2719 0.10832236 0)
(160.16525 0.10304346 0)
(160.06618 0.095174329 0)
(159.97609 0.08448831 0)
(159.89625 0.070900317 0)
(159.82785 0.054413102 0)
(159.772 0.035090811 0)
(159.72972 0.013047286 0)
(159.70191 -0.011557742 0)
(159.68936 -0.038520105 0)
(159.69272 -0.067591093 0)
(159.71277 -0.098503196 0)
(159.74994 -0.13097159 0)
(159.80461 -0.16468764 0)
(159.87693 -0.19932132 0)
(159.96692 -0.23452292 0)
(160.07439 -0.2699266 0)
(160.19901 -0.30515527 0)
(160.34026 -0.33982396 0)
(160.49744 -0.37354576 0)
(160.66968 -0.4059355 0)
(160.85597 -0.43661615 0)
(161.05511 -0.46522279 0)
(161.26576 -0.49140906 0)
(161.48643 -0.51485125 0)
(161.71552 -0.53525442 0)
(161.9513 -0.55235637 0)
(162.19195 -0.56593291 0)
(162.43557 -0.57580156 0)
(162.68021 -0.58182562 0)
(162.92389 -0.58391702 0)
(163.16461 -0.58203879 0)
(163.40038 -0.57620694 0)
(163.62927 -0.5664913 0)
(163.84941 -0.55301552 0)
(164.05902 -0.53595644 0)
(164.25645 -0.51554191 0)
(164.44019 -0.49204862 0)
(164.60889 -0.46579763 0)
(164.7614 -0.4371504 0)
(164.89678 -0.40650257 0)
(165.01431 -0.37427765 0)
(165.11349 -0.34091955 0)
(165.19407 -0.3068844 0)
(165.25606 -0.2726318 0)
(165.29969 -0.23861546 0)
(165.32544 -0.20527372 0)
(165.33399 -0.17301981 0)
(165.32624 -0.14223236 0)
(165.30327 -0.11324632 0)
(165.2663 -0.086344623 0)
(165.21669 -0.061750596 0)
(165.15586 -0.039622254 0)
(165.0853 -0.020048542 0)
(165.00649 -0.0030422705 0)
(164.92088 0.011462135 0)
(164.82982 0.023608331 0)
(164.73455 0.033597831 0)
(164.63615 0.041702427 0)
(164.53552 0.048248798 0)
(164.43334 0.053611076 0)
(164.33005 0.058191458 0)
(164.22583 0.062414274 0)
(164.12058 0.066713478 0)
(164.01397 0.071516276 0)
(163.9054 0.077231172 0)
(163.79406 0.084236556 0)
(163.67893 0.092855169 0)
(163.55882 0.10334471 0)
(163.43239 0.11590374 0)
(163.29825 0.13065382 0)
(163.15496 0.1476314 0)
(163.00108 0.16679347 0)
(162.83523 0.18801928 0)
(162.65616 0.21111413 0)
(162.46273 0.23581587 0)
(162.254 0.26180379 0)
(162.02927 0.28870945 0)
(161.78804 0.31612896 0)
(161.53009 0.34363614 0)
(161.25549 0.37079605 0)
(160.96453 0.39717825 0)
(160.65779 0.4223693 0)
(160.33611 0.44598398 0)
(160.00052 0.46767491 0)
(159.65228 0.48714024 0)
(159.29279 0.50412911 0)
(158.92361 0.5184451 0)
(158.54641 0.52994738 0)
(158.1629 0.53854999 0)
(157.77484 0.54421926 0)
(157.38401 0.54696982 0)
(156.99215 0.54685943 0)
(156.60096 0.54398299 0)
(156.21207 0.53846604 0)
(155.82704 0.5304582 0)
(155.44731 0.52012659 0)
(155.07424 0.50764969 0)
(154.70906 0.49321167 0)
(154.35291 0.47699741 0)
(154.0068 0.45918824 0)
(153.67165 0.4399585 0)
(153.34826 0.41947287 0)
(153.03735 0.39788448 0)
(152.73954 0.37533378 0)
(152.45539 0.35194805 0)
(152.18536 0.32784151 0)
(151.92986 0.30311599 0)
(151.68924 0.27786228 0)
(151.4638 0.25216148 0)
(151.25379 0.22608865 0)
(151.05941 0.19971765 0)
(150.88083 0.17312417 0)
(150.71813 0.14638665 0)
(150.57132 0.11960862 0)
(150.44045 0.093028105 0)
(150.3259 0.067076331 0)
(150.22729 0.041873888 0)
(150.14349 0.014943633 0)
(150.0721 -0.0094906092 0)
(150.01951 -0.019568104 0)
(160.72172 0.1893781 0)
(160.56898 0.18723132 0)
(160.45317 0.18220787 0)
(160.33998 0.17410943 0)
(160.23335 0.16274027 0)
(160.13479 0.14789398 0)
(160.04574 0.12947319 0)
(159.96751 0.10747974 0)
(159.9013 0.081993173 0)
(159.84824 0.053155246 0)
(159.80933 0.021157293 0)
(159.78549 -0.013765854 0)
(159.7775 -0.051343506 0)
(159.786 -0.091272321 0)
(159.8115 -0.13320649 0)
(159.85437 -0.17676971 0)
(159.91481 -0.22155743 0)
(159.99289 -0.26713964 0)
(160.08847 -0.31306744 0)
(160.20128 -0.35887529 0)
(160.33086 -0.40408803 0)
(160.47658 -0.44822415 0)
(160.63765 -0.49080309 0)
(160.81314 -0.53134923 0)
(161.00194 -0.56939959 0)
(161.2028 -0.60450832 0)
(161.41436 -0.63625458 0)
(161.6351 -0.66424726 0)
(161.86341 -0.68813259 0)
(162.09759 -0.70759887 0)
(162.33585 -0.72238304 0)
(162.57633 -0.73227534 0)
(162.81716 -0.73712425 0)
(163.05641 -0.7368404 0)
(163.29216 -0.73139961 0)
(163.52254 -0.72084532 0)
(163.74569 -0.70528989 0)
(163.95982 -0.6849145 0)
(164.16326 -0.65996864 0)
(164.35443 -0.6307672 0)
(164.53189 -0.59768778 0)
(164.69438 -0.5611649 0)
(164.84079 -0.52168491 0)
(164.97023 -0.47977768 0)
(165.08201 -0.43600843 0)
(165.17568 -0.3909678 0)
(165.25099 -0.34526099 0)
(165.30796 -0.29949605 0)
(165.34683 -0.25427145 0)
(165.36806 -0.21016336 0)
(165.37235 -0.16771259 0)
(165.36059 -0.12741186 0)
(165.33384 -0.089693628 0)
(165.29334 -0.054918937 0)
(165.24043 -0.023367673 0)
(165.17656 0.0047675342 0)
(165.10321 0.029392413 0)
(165.02188 0.050518687 0)
(164.93402 0.068258959 0)
(164.841 0.082818107 0)
(164.74407 0.09451311 0)
(164.64432 0.10373574 0)
(164.54265 0.11095397 0)
(164.43974 0.11669502 0)
(164.33602 0.12153073 0)
(164.23166 0.12605623 0)
(164.12658 0.13087053 0)
(164.02041 0.13655967 0)
(163.91254 0.14367793 0)
(163.80213 0.15272963 0)
(163.68812 0.16414876 0)
(163.56928 0.1782862 0)
(163.44422 0.19540405 0)
(163.31148 0.21566195 0)
(163.16957 0.23910729 0)
(163.01698 0.26567471 0)
(162.85229 0.29518863 0)
(162.67416 0.32736903 0)
(162.48144 0.36184091 0)
(162.27313 0.39814702 0)
(162.04849 0.43576314 0)
(161.80703 0.47411557 0)
(161.5485 0.51259975 0)
(161.27296 0.55059935 0)
(160.98074 0.58750502 0)
(160.67244 0.62273203 0)
(160.3489 0.65573612 0)
(160.01121 0.68602702 0)
(159.66066 0.71317923 0)
(159.29871 0.73683972 0)
(158.92696 0.7567326 0)
(158.54712 0.77266081 0)
(158.16095 0.78450481 0)
(157.77027 0.792219 0)
(157.37687 0.7958259 0)
(156.98254 0.79540882 0)
(156.58901 0.79110329 0)
(156.19793 0.78308798 0)
(155.81087 0.77157525 0)
(155.42929 0.75680202 0)
(155.05456 0.73902107 0)
(154.68792 0.7184931 0)
(154.33049 0.69547985 0)
(153.98329 0.67023814 0)
(153.64723 0.64301515 0)
(153.3231 0.61404491 0)
(153.01161 0.58354578 0)
(152.71337 0.55171909 0)
(152.42891 0.51874885 0)
(152.15871 0.48480235 0)
(151.90315 0.45003163 0)
(151.66258 0.41457586 0)
(151.43728 0.3785654 0)
(151.22751 0.34212685 0)
(151.03346 0.30538808 0)
(150.85531 0.26848478 0)
(150.69315 0.23157214 0)
(150.54705 0.19486391 0)
(150.41716 0.15871669 0)
(150.30377 0.12360311 0)
(150.20621 0.089757594 0)
(150.12388 0.055008532 0)
(150.05747 0.0257604 0)
(150.01416 0.0072600964 0)
(160.7416 0.27280515 0)
(160.58407 0.27095486 0)
(160.46547 0.26455835 0)
(160.3495 0.25365556 0)
(160.24004 0.23823811 0)
(160.13862 0.21823716 0)
(160.04673 0.19363774 0)
(159.96574 0.16450078 0)
(159.8969 0.13096069 0)
(159.84139 0.093219823 0)
(159.80026 0.051541895 0)
(159.77447 0.0062477116 0)
(159.76481 -0.042297178 0)
(159.77198 -0.093689422 0)
(159.79649 -0.14748285 0)
(159.83872 -0.20318758 0)
(159.89889 -0.26027877 0)
(159.97703 -0.31820546 0)
(160.07304 -0.37639486 0)
(160.18661 -0.43425747 0)
(160.31727 -0.49119474 0)
(160.46439 -0.54660355 0)
(160.62716 -0.59988518 0)
(160.80462 -0.65045008 0)
(160.99565 -0.69772722 0)
(161.19896 -0.74116937 0)
(161.41317 -0.7802624 0)
(161.63674 -0.81453075 0)
(161.86804 -0.84354633 0)
(162.10532 -0.86693398 0)
(162.34678 -0.88437911 0)
(162.59052 -0.89563311 0)
(162.83465 -0.90051915 0)
(163.0772 -0.89893679 0)
(163.31624 -0.89086568 0)
(163.54983 -0.87636854 0)
(163.77611 -0.8555928 0)
(163.99325 -0.82877077 0)
(164.19952 -0.7962192 0)
(164.39334 -0.75833604 0)
(164.57321 -0.71559746 0)
(164.73783 -0.66855108 0)
(164.88608 -0.61780997 0)
(165.01702 -0.56404266 0)
(165.12995 -0.50796327 0)
(165.22437 -0.45031927 0)
(165.30004 -0.39187801 0)
(165.35696 -0.33341206 0)
(165.39538 -0.27568346 0)
(165.41577 -0.21942746 0)
(165.41884 -0.16533582 0)
(165.40552 -0.11404017 0)
(165.37692 -0.066096167 0)
(165.33432 -0.021969761 0)
(165.27912 0.017975447 0)
(165.21283 0.053491749 0)
(165.13701 0.084459919 0)
(165.05323 0.11089596 0)
(164.963 0.13294016 0)
(164.86777 0.15087757 0)
(164.76885 0.16510381 0)
(164.6674 0.17612874 0)
(164.56437 0.18455714 0)
(164.46049 0.19107469 0)
(164.35622 0.19642602 0)
(164.25174 0.20139233 0)
(164.14696 0.20676608 0)
(164.04151 0.21332374 0)
(163.93475 0.22179935 0)
(163.82576 0.23285918 0)
(163.71345 0.24707734 0)
(163.5965 0.26491734 0)
(163.47347 0.28671909 0)
(163.3428 0.31268606 0)
(163.20291 0.34287652 0)
(163.05223 0.37720156 0)
(162.88925 0.41542802 0)
(162.71255 0.45718629 0)
(162.52091 0.50198284 0)
(162.3133 0.54921698 0)
(162.08892 0.59820091 0)
(161.84725 0.64818265 0)
(161.58804 0.69837041 0)
(161.31135 0.74795763 0)
(161.01752 0.79614749 0)
(160.70717 0.84217595 0)
(160.38121 0.88533249 0)
(160.04075 0.92497766 0)
(159.68716 0.96055709 0)
(159.32194 0.99161146 0)
(158.94677 1.0177824 0)
(158.56341 1.0388147 0)
(158.1737 1.0545541 0)
(157.77949 1.0649427 0)
(157.38265 1.0700113 0)
(156.985 1.0698691 0)
(156.58831 1.0646934 0)
(156.19426 1.0547165 0)
(155.80445 1.0402143 0)
(155.42036 1.0214935 0)
(155.04336 0.99888099 0)
(154.6747 0.97271288 0)
(154.31549 0.94332576 0)
(153.96675 0.91104888 0)
(153.62937 0.87619793 0)
(153.30414 0.83907032 0)
(152.99174 0.79994186 0)
(152.69278 0.75906481 0)
(152.40778 0.71666715 0)
(152.13717 0.67295313 0)
(151.88134 0.62810472 0)
(151.64062 0.58228449 0)
(151.41528 0.53563954 0)
(151.20558 0.48830693 0)
(151.01171 0.4404196 0)
(150.83386 0.39211281 0)
(150.67214 0.3435402 0)
(150.52669 0.29491571 0)
(150.39775 0.24656381 0)
(150.28559 0.19885238 0)
(150.18957 0.15204351 0)
(150.10994 0.10391095 0)
(150.04871 0.062204909 0)
(150.01146 0.028562332 0)
(160.76569 0.3538626 0)
(160.60298 0.35011693 0)
(160.48081 0.34065309 0)
(160.36129 0.32549739 0)
(160.24829 0.30473891 0)
(160.14334 0.27841625 0)
(160.04794 0.24660302 0)
(159.96352 0.20943614 0)
(159.89139 0.16712156 0)
(159.83275 0.11993427 0)
(159.78871 0.068212761 0)
(159.76025 0.012357726 0)
(159.74822 -0.047176368 0)
(159.75333 -0.10989053 0)
(159.77614 -0.17523853 0)
(159.81705 -0.24263508 0)
(159.8763 -0.31145749 0)
(159.95394 -0.38105003 0)
(160.04987 -0.45073439 0)
(160.1638 -0.51981311 0)
(160.29528 -0.58758054 0)
(160.44366 -0.65332721 0)
(160.60814 -0.71635074 0)
(160.78773 -0.77596118 0)
(160.9813 -0.83149194 0)
(161.18757 -0.88230571 0)
(161.40511 -0.92780525 0)
(161.63235 -0.96743956 0)
(161.86763 -1.0007141 0)
(162.10916 -1.0271972 0)
(162.3551 -1.0465284 0)
(162.60351 -1.0584255 0)
(162.85242 -1.0626905 0)
(163.09983 -1.0592156 0)
(163.34375 -1.0479874 0)
(163.58219 -1.0290906 0)
(163.81319 -1.0027099 0)
(164.0349 -0.96913094 0)
(164.24551 -0.92873936 0)
(164.44338 -0.88201768 0)
(164.62696 -0.82954184 0)
(164.79489 -0.7719734 0)
(164.946 -0.71005261 0)
(165.07933 -0.64458665 0)
(165.19411 -0.57643788 0)
(165.28985 -0.50650926 0)
(165.36628 -0.43572812 0)
(165.42341 -0.36502845 0)
(165.46148 -0.29533177 0)
(165.481 -0.22752729 0)
(165.48271 -0.16245151 0)
(165.46759 -0.10086751 0)
(165.43679 -0.043446604 0)
(165.39167 0.0092479863 0)
(165.33373 0.056781624 0)
(165.26454 0.098863827 0)
(165.18576 0.13536313 0)
(165.09903 0.16629806 0)
(165.00597 0.19186497 0)
(164.90811 0.21240837 0)
(164.80686 0.22842562 0)
(164.70343 0.24054963 0)
(164.59886 0.24953347 0)
(164.4939 0.25622762 0)
(164.38906 0.26155437 0)
(164.28454 0.2664788 0)
(164.18025 0.27197834 0)
(164.07579 0.2790113 0)
(163.97049 0.28848513 0)
(163.86338 0.30122505 0)
(163.75329 0.31794479 0)
(163.63882 0.33922213 0)
(163.51842 0.36547934 0)
(163.39045 0.39696763 0)
(163.25321 0.43375723 0)
(163.10502 0.47573447 0)
(162.94427 0.52260539 0)
(162.76946 0.57390554 0)
(162.57928 0.62901579 0)
(162.37262 0.68718346 0)
(162.14865 0.74754757 0)
(161.90679 0.8091677 0)
(161.6468 0.87105457 0)
(161.36872 0.93220153 0)
(161.07292 0.99161528 0)
(160.76007 1.0483448 0)
(160.43111 1.101507 0)
(160.08724 1.1503092 0)
(159.72988 1.1940658 0)
(159.36061 1.232211 0)
(158.98121 1.2643059 0)
(158.5935 1.2900404 0)
(158.1994 1.3092314 0)
(157.80084 1.3218153 0)
(157.39976 1.327839 0)
(156.99802 1.3274469 0)
(156.59746 1.320867 0)
(156.1998 1.3083956 0)
(155.80665 1.2903817 0)
(155.41952 1.2672121 0)
(155.03979 1.2392975 0)
(154.66871 1.2070594 0)
(154.3074 1.1709188 0)
(153.95686 1.131287 0)
(153.61797 1.088558 0)
(153.2915 1.0431026 0)
(152.97811 0.99526444 0)
(152.67839 0.94535789 0)
(152.39283 0.89366694 0)
(152.12186 0.840446 0)
(151.86582 0.78592146 0)
(151.62504 0.73029489 0)
(151.39976 0.67374721 0)
(151.19023 0.61644388 0)
(150.99664 0.55854032 0)
(150.81915 0.50018812 0)
(150.6579 0.4415508 0)
(150.51308 0.38283448 0)
(150.38492 0.32430233 0)
(150.27369 0.2661993 0)
(150.17887 0.20873013 0)
(150.10139 0.14903135 0)
(150.04376 0.095242495 0)
(150.01006 0.046614714 0)
(160.80143 0.44263818 0)
(160.63266 0.43782139 0)
(160.50596 0.42620552 0)
(160.38191 0.40771829 0)
(160.2644 0.38247227 0)
(160.15496 0.35056283 0)
(160.05515 0.31212478 0)
(159.96642 0.26735659 0)
(159.89015 0.21652811 0)
(159.82759 0.15998382 0)
(159.7799 0.098138637 0)
(159.7481 0.031477831 0)
(159.7331 -0.039450445 0)
(159.73563 -0.11404754 0)
(159.7563 -0.19166025 0)
(159.79554 -0.27158811 0)
(159.8536 -0.35308453 0)
(159.93058 -0.4353698 0)
(160.02639 -0.5176394 0)
(160.14075 -0.59906935 0)
(160.2732 -0.67882866 0)
(160.4231 -0.7560845 0)
(160.58966 -0.83001477 0)
(160.77186 -0.89981409 0)
(160.96856 -0.96470638 0)
(161.17846 -1.0239514 0)
(161.40008 -1.0768572 0)
(161.63183 -1.1227865 0)
(161.872 -1.161169 0)
(162.11877 -1.1915076 0)
(162.37022 -1.2133888 0)
(162.62436 -1.2264898 0)
(162.87916 -1.230586 0)
(163.13256 -1.2255575 0)
(163.38248 -1.211394 0)
(163.62685 -1.1881995 0)
(163.86367 -1.1561946 0)
(164.09098 -1.1157177 0)
(164.30691 -1.0672244 0)
(164.50974 -1.0112843 0)
(164.69786 -0.94857712 0)
(164.86984 -0.87988411 0)
(165.02445 -0.80608034 0)
(165.16067 -0.72812106 0)
(165.27772 -0.64702832 0)
(165.37505 -0.56387384 0)
(165.45239 -0.47976004 0)
(165.50973 -0.39579906 0)
(165.54735 -0.31309003 0)
(165.56575 -0.23269527 0)
(165.56574 -0.15561589 0)
(165.54834 -0.082766114 0)
(165.51479 -0.014954412 0)
(165.46653 0.047140161 0)
(165.40515 0.10299956 0)
(165.33232 0.15227419 0)
(165.24983 0.19480685 0)
(165.15941 0.23062757 0)
(165.06281 0.25997012 0)
(164.96166 0.28325451 0)
(164.85748 0.30108372 0)
(164.75159 0.31422547 0)
(164.64509 0.32359338 0)
(164.5388 0.33022 0)
(164.43327 0.33522597 0)
(164.32873 0.33978481 0)
(164.22507 0.3450852 0)
(164.12188 0.35229192 0)
(164.01842 0.36250684 0)
(163.91367 0.37673127 0)
(163.80636 0.39583129 0)
(163.69498 0.42050771 0)
(163.57788 0.45127158 0)
(163.45327 0.48842563 0)
(163.31934 0.53205266 0)
(163.17427 0.58201194 0)
(163.01631 0.6379436 0)
(162.84387 0.69928067 0)
(162.65551 0.7652684 0)
(162.45006 0.83499016 0)
(162.22661 0.90739834 0)
(161.98455 0.98134961 0)
(161.72361 1.0556424 0)
(161.44385 1.1290552 0)
(161.14566 1.2003842 0)
(160.82974 1.2684784 0)
(160.49712 1.3322711 0)
(160.14906 1.3908064 0)
(159.78708 1.4432601 0)
(159.41286 1.4889543 0)
(159.02826 1.5273661 0)
(158.63523 1.558129 0)
(158.23576 1.5810306 0)
(157.83189 1.5960031 0)
(157.42561 1.6031118 0)
(157.01889 1.6025389 0)
(156.6136 1.5945664 0)
(156.21151 1.5795576 0)
(155.81428 1.5579375 0)
(155.42343 1.5301755 0)
(155.04036 1.4967674 0)
(154.66632 1.4582209 0)
(154.30244 1.415041 0)
(153.94968 1.36772 0)
(153.60893 1.3167275 0)
(153.28093 1.2625042 0)
(152.96633 1.2054572 0)
(152.66567 1.1459573 0)
(152.37942 1.0843382 0)
(152.10799 1.0208978 0)
(151.8517 0.95589984 0)
(151.61084 0.88957807 0)
(151.38566 0.82214126 0)
(151.17637 0.75377913 0)
(150.98315 0.68466879 0)
(150.80618 0.61498307 0)
(150.64559 0.54490694 0)
(150.50161 0.47465866 0)
(150.37446 0.4044881 0)
(150.26439 0.3346241 0)
(150.17101 0.26531634 0)
(150.0956 0.19299762 0)
(150.04068 0.12626703 0)
(150.00926 0.062913829 0)
(160.84465 0.53088959 0)
(160.66917 0.52420298 0)
(160.53731 0.50969986 0)
(160.40807 0.48722728 0)
(160.28541 0.45691148 0)
(160.17089 0.4188918 0)
(160.0661 0.37335909 0)
(159.97255 0.32057366 0)
(159.89165 0.26087211 0)
(159.82474 0.19467151 0)
(159.77301 0.12246572 0)
(159.73754 0.044826014 0)
(159.71927 -0.037604291 0)
(159.71899 -0.12412698 0)
(159.73735 -0.21398354 0)
(159.7748 -0.30636518 0)
(159.83164 -0.40041963 0)
(159.90798 -0.49525237 0)
(160.00376 -0.58994332 0)
(160.1187 -0.68355018 0)
(160.25236 -0.77512352 0)
(160.40411 -0.86371267 0)
(160.57312 -0.94837991 0)
(160.75839 -1.0282075 0)
(160.95875 -1.1023116 0)
(161.17285 -1.1698502 0)
(161.39921 -1.2300363 0)
(161.63619 -1.282146 0)
(161.88202 -1.3255316 0)
(162.13483 -1.3596292 0)
(162.39263 -1.3839701 0)
(162.65338 -1.3981889 0)
(162.91497 -1.4020324 0)
(163.17526 -1.3953665 0)
(163.43207 -1.3781828 0)
(163.68329 -1.3506029 0)
(163.92679 -1.3128829 0)
(164.16053 -1.2654133 0)
(164.38258 -1.2087201 0)
(164.59111 -1.1434607 0)
(164.78443 -1.0704201 0)
(164.96105 -0.99050096 0)
(165.11966 -0.90471557 0)
(165.25919 -0.81417001 0)
(165.3788 -0.72004909 0)
(165.47791 -0.62359661 0)
(165.55624 -0.52609355 0)
(165.61378 -0.42883369 0)
(165.65079 -0.33309713 0)
(165.66784 -0.2401225 0)
(165.66577 -0.15107823 0)
(165.64566 -0.067032395 0)
(165.60884 0.011065113 0)
(165.55686 0.082423717 0)
(165.4914 0.14643966 0)
(165.41429 0.20270754 0)
(165.32739 0.25103506 0)
(165.23262 0.29146741 0)
(165.13185 0.3242718 0)
(165.02683 0.34994098 0)
(164.91921 0.36918483 0)
(164.81043 0.38290994 0)
(164.70166 0.39219634 0)
(164.59383 0.39826614 0)
(164.48752 0.40244699 0)
(164.38299 0.40613066 0)
(164.28013 0.41072828 0)
(164.1785 0.4176239 0)
(164.0773 0.42812783 0)
(163.97543 0.44343163 0)
(163.87151 0.46456656 0)
(163.7639 0.4923673 0)
(163.65081 0.52744215 0)
(163.5303 0.57015079 0)
(163.4004 0.62059059 0)
(163.25912 0.67859224 0)
(163.10459 0.74372507 0)
(162.93504 0.81531147 0)
(162.74894 0.89245018 0)
(162.54501 0.97404747 0)
(162.32225 1.0588543 0)
(162.08002 1.1455085 0)
(161.81802 1.2325803 0)
(161.53631 1.3186178 0)
(161.23532 1.4021923 0)
(160.91582 1.4819404 0)
(160.57889 1.5566014 0)
(160.2259 1.6250491 0)
(159.85848 1.6863159 0)
(159.47844 1.7396106 0)
(159.08773 1.7843271 0)
(158.68844 1.8200471 0)
(158.28267 1.8465351 0)
(157.87256 1.8637276 0)
(157.46022 1.8717181 0)
(157.04767 1.8707376 0)
(156.63686 1.861134 0)
(156.22963 1.8433489 0)
(155.82766 1.8178954 0)
(155.43252 1.7853363 0)
(155.0456 1.7462633 0)
(154.66817 1.7012794 0)
(154.30133 1.6509826 0)
(153.94606 1.5959531 0)
(153.6032 1.5367424 0)
(153.27348 1.4738661 0)
(152.9575 1.4077982 0)
(152.65578 1.3389682 0)
(152.36877 1.2677603 0)
(152.09682 1.1945142 0)
(151.84025 1.1195277 0)
(151.59929 1.0430607 0)
(151.37419 0.96534028 0)
(151.16512 0.88656678 0)
(150.97226 0.80692046 0)
(150.79576 0.72657031 0)
(150.6358 0.64568886 0)
(150.49257 0.564465 0)
(150.36632 0.48309881 0)
(150.25731 0.40177705 0)
(150.16524 0.32073788 0)
(150.09159 0.23564141 0)
(150.03867 0.15578859 0)
(150.00875 0.078146142 0)
(160.89727 0.6261482 0)
(160.71405 0.6180734 0)
(160.57619 0.60110933 0)
(160.44088 0.57502901 0)
(160.31221 0.53996009 0)
(160.19177 0.49607002 0)
(160.08119 0.44359351 0)
(159.98204 0.3828451 0)
(159.8958 0.31422396 0)
(159.82385 0.23821818 0)
(159.76746 0.15540101 0)
(159.72775 0.066431365 0)
(159.70574 -0.027949404 0)
(159.70225 -0.12693815 0)
(159.71798 -0.22966619 0)
(159.75341 -0.33520497 0)
(159.80889 -0.44257652 0)
(159.88456 -0.55075648 0)
(159.98035 -0.65869372 0)
(160.09602 -0.76531408 0)
(160.23114 -0.86953717 0)
(160.38506 -0.9702829 0)
(160.55696 -1.0664874 0)
(160.74581 -1.1571109 0)
(160.95042 -1.2411531 0)
(161.16942 -1.3176618 0)
(161.40126 -1.3857478 0)
(161.64428 -1.4445938 0)
(161.89664 -1.4934685 0)
(162.15641 -1.5317356 0)
(162.42153 -1.5588662 0)
(162.68989 -1.574448 0)
(162.95929 -1.5781951 0)
(163.22749 -1.5699564 0)
(163.49224 -1.5497224 0)
(163.75131 -1.5176316 0)
(164.00249 -1.4739743 0)
(164.24364 -1.4191943 0)
(164.47271 -1.3538898 0)
(164.68778 -1.2788092 0)
(164.88708 -1.1948476 0)
(165.06902 -1.1030361 0)
(165.23221 -1.0045325 0)
(165.37552 -0.90060417 0)
(165.49804 -0.79261083 0)
(165.59918 -0.68198248 0)
(165.6786 -0.57019435 0)
(165.73629 -0.45873899 0)
(165.77255 -0.34909578 0)
(165.78795 -0.24269862 0)
(165.78341 -0.14090218 0)
(165.76007 -0.044948401 0)
(165.71938 0.044052428 0)
(165.66298 0.12518679 0)
(165.5927 0.19774872 0)
(165.51051 0.26126683 0)
(165.41841 0.31551765 0)
(165.3185 0.36055492 0)
(165.21279 0.39669147 0)
(165.1032 0.42450418 0)
(164.99153 0.44482154 0)
(164.87934 0.45870415 0)
(164.76793 0.46741628 0)
(164.65829 0.47238962 0)
(164.55109 0.47518032 0)
(164.4466 0.47742055 0)
(164.34472 0.48076601 0)
(164.24497 0.48684127 0)
(164.14648 0.49718495 0)
(164.04805 0.51319669 0)
(163.94817 0.5360882 0)
(163.84507 0.56684023 0)
(163.73676 0.60616719 0)
(163.62115 0.65449084 0)
(163.49604 0.71192407 0)
(163.3593 0.77826587 0)
(163.20885 0.85300748 0)
(163.04277 0.93534963 0)
(162.85938 1.0242302 0)
(162.65727 1.1183609 0)
(162.43537 1.216272 0)
(162.19297 1.316362 0)
(161.92975 1.4169514 0)
(161.64577 1.5163372 0)
(161.34151 1.6128463 0)
(161.0178 1.704885 0)
(160.67582 1.7909836 0)
(160.31707 1.8698329 0)
(159.94328 1.9403131 0)
(159.55641 2.0015133 0)
(159.15857 2.0527422 0)
(158.75196 2.0935294 0)
(158.33885 2.1236191 0)
(157.92148 2.1429568 0)
(157.50207 2.1516708 0)
(157.08275 2.1500486 0)
(156.66556 2.1385117 0)
(156.25237 2.117589 0)
(155.84493 2.0878897 0)
(155.44483 2.0500776 0)
(155.05349 2.0048476 0)
(154.67217 1.9529046 0)
(154.30197 1.8949449 0)
(153.94384 1.8316416 0)
(153.5986 1.7636325 0)
(153.26695 1.6915114 0)
(152.94945 1.6158225 0)
(152.64659 1.5370572 0)
(152.35876 1.4556533 0)
(152.0863 1.3719962 0)
(151.82947 1.2864219 0)
(151.58848 1.1992216 0)
(151.36354 1.1106471 0)
(151.1548 1.0209171 0)
(150.96241 0.93022383 0)
(150.78652 0.8387416 0)
(150.62728 0.74663853 0)
(150.48489 0.65408222 0)
(150.3596 0.56123444 0)
(150.25166 0.46824189 0)
(150.16084 0.37529195 0)
(150.08867 0.27723594 0)
(150.03728 0.18423141 0)
(150.00842 0.09268531 0)
(160.95722 0.72303248 0)
(160.76544 0.71328602 0)
(160.62086 0.69356874 0)
(160.47875 0.66359309 0)
(160.34334 0.62349078 0)
(160.21626 0.57345423 0)
(160.0992 0.51375901 0)
(159.9938 0.44477254 0)
(159.90161 0.36695682 0)
(159.82406 0.28087228 0)
(159.76249 0.18717362 0)
(159.7181 0.086609772 0)
(159.69194 -0.0199782 0)
(159.68492 -0.13167915 0)
(159.69775 -0.24751329 0)
(159.73099 -0.36643283 0)
(159.78501 -0.48734285 0)
(159.85996 -0.60909396 0)
(159.95584 -0.73050752 0)
(160.07239 -0.85037958 0)
(160.2092 -0.96749927 0)
(160.36561 -1.0806566 0)
(160.5408 -1.1886598 0)
(160.73372 -1.2903445 0)
(160.94315 -1.3845907 0)
(161.16768 -1.470332 0)
(161.40574 -1.5465728 0)
(161.65557 -1.6123974 0)
(161.91531 -1.6669862 0)
(162.18294 -1.7096254 0)
(162.45634 -1.7397212 0)
(162.73328 -1.7568094 0)
(163.01149 -1.7605674 0)
(163.28863 -1.7508229 0)
(163.56234 -1.7275626 0)
(163.83028 -1.6909385 0)
(164.09013 -1.6412738 0)
(164.33964 -1.5790643 0)