/*--------------------------------*- C++ -*----------------------------------*\
| =========                 |                                                 |
| \\      /  F ield         | foam-extend: Open Source CFD                    |
|  \\    /   O peration     | Version:     4.1                                |
|   \\  /    A nd           | Web:         http://www.foam-extend.org         |
|    \\/     M anipulation  |                                                 |
\*---------------------------------------------------------------------------*/
FoamFile
{
    version     2.0;
    format      ascii;
    class       volVectorField;
    location    "0.3";
    object      U;
}
// * * * * * * * * * * * * * * * * * * * * * * * * * * * * * * * * * * * * * //

dimensions      [0 1 -1 0 0 0 0];

internalField   nonuniform List<vector> 
16796
(
(142.50981 -0.066106041 0)
(142.73398 -0.078253196 0)
(142.85463 -0.066719183 0)
(142.96096 -0.058016181 0)
(143.02147 -0.048561476 0)
(143.04441 -0.040617532 0)
(143.02931 -0.033702007 0)
(142.97869 -0.026701409 0)
(142.89213 -0.018517058 0)
(142.77038 -0.008985385 0)
(142.61473 0.001637229 0)
(142.42736 0.012905228 0)
(142.21127 0.02427022 0)
(141.9703 0.035149167 0)
(141.70905 0.044971072 0)
(141.43275 0.053205185 0)
(141.14719 0.059377025 0)
(140.85858 0.063074885 0)
(140.5735 0.063950611 0)
(140.29871 0.061718112 0)
(140.04115 0.056152482 0)
(139.80781 0.047093587 0)
(139.60564 0.034457465 0)
(139.44151 0.018263833 0)
(139.32202 -0.0013106327 0)
(139.25334 -0.02382559 0)
(139.24073 -0.048240984 0)
(139.28862 -0.072221032 0)
(139.3947 -0.093804011 0)
(139.55645 -0.11308112 0)
(139.77196 -0.13078903 0)
(140.03937 -0.14733225 0)
(140.35672 -0.16289464 0)
(140.72177 -0.17750695 0)
(141.13186 -0.19111195 0)
(141.58391 -0.20361221 0)
(142.0744 -0.21489748 0)
(142.59941 -0.22486118 0)
(143.15467 -0.23340931 0)
(143.7356 -0.24046593 0)
(144.3374 -0.24597591 0)
(144.9551 -0.2499068 0)
(145.58364 -0.25224941 0)
(146.21795 -0.25301827 0)
(146.853 -0.252251 0)
(147.48391 -0.25000755 0)
(148.10598 -0.24636872 0)
(148.71478 -0.24143432 0)
(149.30621 -0.23532084 0)
(149.87653 -0.22815874 0)
(150.42241 -0.22008935 0)
(150.94099 -0.21126154 0)
(151.42988 -0.20182811 0)
(151.88716 -0.19194205 0)
(152.31143 -0.18175276 0)
(152.70176 -0.17140233 0)
(153.0577 -0.16102203 0)
(153.37923 -0.1507291 0)
(153.66673 -0.14062404 0)
(153.92093 -0.13078847 0)
(154.14287 -0.1212837 0)
(154.33381 -0.11215011 0)
(154.49521 -0.10340725 0)
(154.62864 -0.095054813 0)
(154.73571 -0.087074906 0)
(154.81804 -0.079434386 0)
(154.8772 -0.072075599 0)
(154.91465 -0.064908922 0)
(154.93169 -0.057813112 0)
(154.92951 -0.050591462 0)
(154.90869 -0.043168666 0)
(154.86964 -0.035835576 0)
(154.81338 -0.028880786 0)
(154.7409 -0.022365647 0)
(154.65315 -0.016291978 0)
(154.55099 -0.010637788 0)
(154.43518 -0.0053783237 0)
(154.30647 -0.00049398548 0)
(154.16555 0.0040266801 0)
(154.0131 0.0081863436 0)
(153.84986 0.011979471 0)
(153.6766 0.015393622 0)
(153.49417 0.018411238 0)
(153.30348 0.021011645 0)
(153.10556 0.023173168 0)
(152.9015 0.024875193 0)
(152.6925 0.026100073 0)
(152.47981 0.026834772 0)
(152.26474 0.027072177 0)
(152.04866 0.026812026 0)
(151.83292 0.026061399 0)
(151.61889 0.024834833 0)
(151.40791 0.023154043 0)
(151.20127 0.021047244 0)
(151.00018 0.018548226 0)
(150.80578 0.015695179 0)
(150.6191 0.012529376 0)
(150.44108 0.0090937475 0)
(150.27253 0.0054315065 0)
(150.11417 0.0015848473 0)
(149.96658 -0.0024062574 0)
(149.83026 -0.0065050049 0)
(149.70559 -0.01067847 0)
(149.59288 -0.01489806 0)
(149.49236 -0.019139626 0)
(149.4042 -0.023383279 0)
(149.3285 -0.027613033 0)
(149.26533 -0.03181624 0)
(149.21475 -0.035982946 0)
(149.17676 -0.040105222 0)
(149.15139 -0.044176135 0)
(149.13863 -0.048184768 0)
(149.13849 -0.052105055 0)
(149.15089 -0.055940575 0)
(149.17582 -0.05970588 0)
(149.21329 -0.063382324 0)
(149.26328 -0.066928454 0)
(149.32573 -0.070271214 0)
(149.40054 -0.073292877 0)
(149.48715 -0.075802901 0)
(149.58474 -0.077298464 0)
(149.69508 -0.076755909 0)
(149.81368 -0.075001002 0)
(149.89027 -0.068965485 0)
(161.97266 -0.12314099 0)
(161.99609 -0.13306633 0)
(161.95968 -0.092663359 0)
(161.88771 -0.053130524 0)
(161.76613 -0.0091648283 0)
(161.59699 0.034595761 0)
(161.37829 0.077465839 0)
(161.11269 0.11877733 0)
(160.80609 0.1581086 0)
(160.46504 0.19467828 0)
(160.09635 0.22774765 0)
(159.70692 0.256677 0)
(159.3035 0.28091874 0)
(158.89261 0.30001987 0)
(158.48047 0.31362241 0)
(158.07296 0.32146004 0)
(157.67557 0.32335425 0)
(157.29336 0.31920792 0)
(156.93095 0.3089969 0)
(156.59243 0.2927613 0)
(156.28141 0.27059623 0)
(156.00091 0.24264619 0)
(155.75342 0.20910281 0)
(155.54087 0.1702145 0)
(155.36468 0.12630924 0)
(155.22582 0.07784841 0)
(155.12496 0.025650423 0)
(155.06254 -0.028537412 0)
(155.04435 -0.082876978 0)
(155.07387 -0.13661676 0)
(155.15241 -0.18943414 0)
(155.27992 -0.2409141 0)
(155.45531 -0.29058878 0)
(155.67671 -0.33795984 0)
(155.94165 -0.38252493 0)
(156.24711 -0.42380161 0)
(156.58959 -0.46134171 0)
(156.96521 -0.4947448 0)
(157.36972 -0.52366638 0)
(157.79856 -0.54782601 0)
(158.24696 -0.56701176 0)
(158.70997 -0.58108453 0)
(159.18256 -0.58997935 0)
(159.65966 -0.59370663 0)
(160.13627 -0.59235074 0)
(160.60748 -0.58606802 0)
(161.0686 -0.57508308 0)
(161.51518 -0.55968393 0)
(161.94308 -0.54021587 0)
(162.34852 -0.51707421 0)
(162.72815 -0.49069601 0)
(163.07906 -0.46155082 0)
(163.39882 -0.43013068 0)
(163.68549 -0.39693957 0)
(163.93765 -0.36248237 0)
(164.15434 -0.32725392 0)
(164.33515 -0.29172816 0)
(164.48008 -0.25634793 0)
(164.5896 -0.22151558 0)
(164.66452 -0.18758507 0)
(164.70605 -0.15485539 0)
(164.71562 -0.12356615 0)
(164.69493 -0.093895105 0)
(164.64581 -0.065957785 0)
(164.57021 -0.03980725 0)
(164.47011 -0.015426756 0)
(164.34744 0.0072402264 0)
(164.20407 0.028271589 0)
(164.04184 0.047801137 0)
(163.86238 0.066069149 0)
(163.6677 0.083318009 0)
(163.45963 0.099599049 0)
(163.23906 0.11492116 0)
(163.00666 0.1293816 0)
(162.7629 0.14308077 0)
(162.50811 0.15610763 0)
(162.24258 0.16852723 0)
(161.96655 0.18037618 0)
(161.68025 0.19166144 0)
(161.38394 0.20236157 0)
(161.07793 0.2124298 0)
(160.76262 0.22179838 0)
(160.43849 0.23038403 0)
(160.10614 0.23809378 0)
(159.76627 0.24483122 0)
(159.41971 0.25050248 0)
(159.06738 0.25502184 0)
(158.71031 0.25831657 0)
(158.34962 0.26033092 0)
(157.98648 0.26102904 0)
(157.62211 0.26039665 0)
(157.25776 0.25844175 0)
(156.89465 0.25519413 0)
(156.53403 0.25070384 0)
(156.17705 0.24503896 0)
(155.82484 0.23828259 0)
(155.47844 0.23052941 0)
(155.13882 0.221882 0)
(154.80683 0.21244704 0)
(154.48326 0.20233177 0)
(154.16876 0.19164056 0)
(153.86392 0.18047206 0)
(153.56923 0.1689168 0)
(153.28508 0.15705538 0)
(153.0118 0.14495729 0)
(152.74966 0.13268033 0)
(152.49884 0.12027059 0)
(152.25953 0.10776285 0)
(152.03183 0.095181481 0)
(151.81584 0.082541571 0)
(151.61165 0.069850196 0)
(151.41933 0.057111048 0)
(151.23892 0.044335699 0)
(151.07058 0.031523665 0)
(150.91437 0.018656885 0)
(150.77032 0.0057330405 0)
(150.63846 -0.0072315531 0)
(150.51877 -0.020186884 0)
(150.41122 -0.033038188 0)
(150.31551 -0.045617026 0)
(150.23138 -0.057276239 0)
(150.15968 -0.066618281 0)
(150.09731 -0.075454144 0)
(150.0337 -0.079520286 0)
(163.92125 -0.08851685 0)
(163.75366 -0.061714034 0)
(163.56571 0.0067834228 0)
(163.3352 0.075696922 0)
(163.06679 0.1485866 0)
(162.76431 0.22058791 0)
(162.43047 0.28990457 0)
(162.06916 0.35435269 0)
(161.68436 0.41243589 0)
(161.28061 0.46323383 0)
(160.8628 0.50613749 0)
(160.43604 0.54068564 0)
(160.0056 0.56652633 0)
(159.57684 0.58340302 0)
(159.15513 0.59115826 0)
(158.74575 0.58974041 0)
(158.35381 0.5792099 0)
(157.98418 0.55974097 0)
(157.64139 0.5316178 0)
(157.32956 0.49522701 0)
(157.05235 0.45104549 0)
(156.81285 0.39962922 0)
(156.61361 0.34159986 0)
(156.4565 0.27763638 0)
(156.34278 0.20846267 0)
(156.27308 0.1348293 0)
(156.24751 0.057439852 0)
(156.26574 -0.023183705 0)
(156.32705 -0.10610508 0)
(156.43111 -0.18969638 0)
(156.57709 -0.27246215 0)
(156.76357 -0.3532375 0)
(156.98855 -0.43102653 0)
(157.2496 -0.50493701 0)
(157.54388 -0.57414645 0)
(157.86823 -0.63789669 0)
(158.21916 -0.69549713 0)
(158.59293 -0.74633691 0)
(158.9856 -0.78989427 0)
(159.39307 -0.82574807 0)
(159.81111 -0.85358464 0)
(160.23546 -0.8732048 0)
(160.66182 -0.88452653 0)
(161.08597 -0.88758694 0)
(161.50377 -0.88254077 0)
(161.91124 -0.86965719 0)
(162.30464 -0.84931407 0)
(162.68044 -0.82199032 0)
(163.03545 -0.7882559 0)
(163.36683 -0.74876014 0)
(163.67208 -0.70421821 0)
(163.94914 -0.65539604 0)
(164.19636 -0.60309404 0)
(164.41253 -0.54812985 0)
(164.59684 -0.49132045 0)
(164.74894 -0.43346437 0)
(164.86887 -0.37532412 0)
(164.95703 -0.31760969 0)
(165.01418 -0.26096355 0)
(165.04136 -0.20594789 0)
(165.03986 -0.1530343 0)
(165.01117 -0.10259699 0)
(164.95691 -0.05490964 0)
(164.87877 -0.010144038 0)
(164.7785 0.031635904 0)
(164.65778 0.07044216 0)
(164.51827 0.10637617 0)
(164.36152 0.13960154 0)
(164.18891 0.1703069 0)
(164.00167 0.1986854 0)
(163.80087 0.2249808 0)
(163.58735 0.24954564 0)
(163.36178 0.27270988 0)
(163.12469 0.29470626 0)
(162.87647 0.31572297 0)
(162.61741 0.33590427 0)
(162.34775 0.35534739 0)
(162.06767 0.3740997 0)
(161.77739 0.39215849 0)
(161.47712 0.40947374 0)
(161.16715 0.42595335 0)
(160.84785 0.44147054 0)
(160.51969 0.45587284 0)
(160.18326 0.46899185 0)
(159.83924 0.48065354 0)
(159.48849 0.49068818 0)
(159.13192 0.49893958 0)
(158.77058 0.50527319 0)
(158.4056 0.50958268 0)
(158.03818 0.51179477 0)
(157.66956 0.51187218 0)
(157.301 0.50981476 0)
(156.93376 0.50565881 0)
(156.56908 0.49947474 0)
(156.20817 0.49136342 0)
(155.85214 0.48145145 0)
(155.50206 0.46988562 0)
(155.1589 0.456827 0)
(154.82352 0.4424449 0)
(154.49671 0.42691105 0)
(154.17912 0.41039422 0)
(153.87135 0.39305551 0)
(153.57387 0.37504441 0)
(153.28707 0.35649587 0)
(153.01128 0.3375281 0)
(152.74676 0.31824153 0)
(152.4937 0.29871842 0)
(152.25225 0.27902338 0)
(152.02253 0.25920457 0)
(151.80464 0.2392956 0)
(151.59866 0.21931763 0)
(151.40464 0.19928113 0)
(151.22265 0.17918653 0)
(151.05274 0.15904329 0)
(150.89498 0.13887283 0)
(150.7494 0.11869889 0)
(150.61605 0.098564726 0)
(150.49495 0.078552865 0)
(150.38608 0.058796586 0)
(150.2893 0.03951203 0)
(150.20463 0.021292573 0)
(150.13219 0.0051316878 0)
(150.06945 -0.009624297 0)
(150.01994 -0.019334358 0)
(164.16007 0.017450405 0)
(163.94696 0.091207551 0)
(163.73654 0.18416619 0)
(163.48019 0.27556718 0)
(163.19064 0.3674516 0)
(162.86987 0.45590159 0)
(162.52073 0.5391995 0)
(162.14656 0.61558672 0)
(161.75084 0.68375844 0)
(161.33753 0.74259123 0)
(160.91102 0.79110058 0)
(160.47612 0.82844854 0)
(160.03792 0.85396962 0)
(159.60171 0.86718146 0)
(159.17288 0.86779605 0)
(158.75678 0.85572376 0)
(158.35864 0.83107222 0)
(157.98347 0.79413952 0)
(157.63599 0.74540163 0)
(157.32049 0.68549785 0)
(157.04082 0.61521192 0)
(156.8003 0.5354571 0)
(156.60168 0.44726021 0)
(156.4471 0.35175648 0)
(156.33804 0.25018818 0)
(156.27538 0.14392118 0)
(156.25935 0.034439813 0)
(156.28953 -0.076757884 0)
(156.36489 -0.18823958 0)
(156.48408 -0.29865811 0)
(156.64542 -0.40673615 0)
(156.8469 -0.51125277 0)
(157.0861 -0.61105733 0)
(157.36021 -0.70507094 0)
(157.6661 -0.79228908 0)
(158.00033 -0.87179345 0)
(158.35925 -0.9427602 0)
(158.739 -1.0044741 0)
(159.13561 -1.0563372 0)
(159.54499 -1.0978813 0)
(159.96302 -1.1287744 0)
(160.38558 -1.1488282 0)
(160.80855 -1.1580016 0)
(161.22794 -1.1564025 0)
(161.63985 -1.1442863 0)
(162.04056 -1.1220517 0)
(162.42655 -1.0902342 0)
(162.79455 -1.049496 0)
(163.14159 -1.000614 0)
(163.465 -0.94446434 0)
(163.76247 -0.88200519 0)
(164.03204 -0.81425733 0)
(164.27216 -0.74228268 0)
(164.48169 -0.66716172 0)
(164.65987 -0.58996983 0)
(164.80634 -0.51175387 0)
(164.92115 -0.43350881 0)
(165.00469 -0.35615595 0)
(165.05768 -0.28052313 0)
(165.08114 -0.20732791 0)
(165.07632 -0.1371642 0)
(165.04469 -0.070493986 0)
(164.98784 -0.00764404 0)
(164.90745 0.051202396 0)
(164.80523 0.10598349 0)
(164.68285 0.15677633 0)
(164.54193 0.2037578 0)
(164.38396 0.24719711 0)
(164.21029 0.28743557 0)
(164.02212 0.32484191 0)
(163.82043 0.3597806 0)
(163.60607 0.39260222 0)
(163.37973 0.42363777 0)
(163.14193 0.4531901 0)
(162.89305 0.48151811 0)
(162.63336 0.50882211 0)
(162.36305 0.53523455 0)
(162.08229 0.56081526 0)
(161.79122 0.58555162 0)
(161.49004 0.60936292 0)
(161.17901 0.63210818 0)
(160.85847 0.65359706 0)
(160.52888 0.6736027 0)
(160.19082 0.69187593 0)
(159.84499 0.70815989 0)
(159.49223 0.7222043 0)
(159.1335 0.7337787 0)
(158.76986 0.74268395 0)
(158.40248 0.74876156 0)
(158.03259 0.75190061 0)
(157.66146 0.75204192 0)
(157.2904 0.74917957 0)
(156.92069 0.74335988 0)
(156.55362 0.73467809 0)
(156.19041 0.72327307 0)
(155.83222 0.70932057 0)
(155.48012 0.69302527 0)
(155.1351 0.67461242 0)
(154.79805 0.65431914 0)
(154.46974 0.6323862 0)
(154.15085 0.60905031 0)
(153.84195 0.58453747 0)
(153.54352 0.55905733 0)
(153.25595 0.53279904 0)
(152.97955 0.50592821 0)
(152.71456 0.47858542 0)
(152.46118 0.45088578 0)
(152.21953 0.42291972 0)
(151.98974 0.39475474 0)
(151.77188 0.36643805 0)
(151.56601 0.33800013 0)
(151.37221 0.30945883 0)
(151.19052 0.28082168 0)
(151.021 0.25209403 0)
(150.86372 0.22328954 0)
(150.71875 0.19444012 0)
(150.58617 0.16561138 0)
(150.46605 0.13692715 0)
(150.35846 0.10859605 0)
(150.26345 0.080980662 0)
(150.18127 0.054807389 0)
(150.11199 0.031060759 0)
(150.05429 0.010624263 0)
(150.01403 -0.0015979959 0)
(164.26286 0.094244814 0)
(164.04306 0.20516631 0)
(163.83479 0.32473496 0)
(163.57684 0.44241821 0)
(163.28521 0.55849625 0)
(162.96072 0.66964993 0)
(162.60656 0.77373386 0)
(162.22607 0.86853662 0)
(161.82293 0.95221783 0)
(161.40132 1.023241 0)
(160.96588 1.0803714 0)
(160.52157 1.1226381 0)
(160.07367 1.1493239 0)
(159.6276 1.1599595 0)
(159.18888 1.1543264 0)
(158.76299 1.1324568 0)
(158.35528 1.0946314 0)
(157.97089 1.041371 0)
(157.61462 0.97342042 0)
(157.29088 0.89172832 0)
(157.0036 0.79741986 0)
(156.75617 0.6917705 0)
(156.55139 0.57617375 0)
(156.39144 0.45211634 0)
(156.27786 0.32114901 0)
(156.21159 0.18487108 0)
(156.19295 0.044910497 0)
(156.2217 -0.097083462 0)
(156.29703 -0.23938039 0)
(156.41762 -0.38012524 0)
(156.5817 -0.51751626 0)
(156.78708 -0.64990152 0)
(157.03113 -0.77578245 0)
(157.31086 -0.89379921 0)
(157.62298 -1.002722 0)
(157.9639 -1.1014533 0)
(158.32984 -1.1890285 0)
(158.71684 -1.2646266 0)
(159.1208 -1.3275756 0)
(159.53755 -1.3773634 0)
(159.9629 -1.4136427 0)
(160.39265 -1.4362389 0)
(160.82265 -1.4451516 0)
(161.24883 -1.4405566 0)
(161.66726 -1.4228044 0)
(162.07418 -1.3924152 0)
(162.46602 -1.3500717 0)
(162.83947 -1.2966085 0)
(163.19151 -1.2329983 0)
(163.51943 -1.1603349 0)
(163.82087 -1.0798135 0)
(164.09384 -0.9927081 0)
(164.33675 -0.90034591 0)
(164.54843 -0.80408059 0)
(164.72811 -0.7052632 0)
(164.87544 -0.60521314 0)
(164.99048 -0.50518878 0)
(165.07364 -0.40635957 0)
(165.12571 -0.30978035 0)
(165.14776 -0.21636906 0)
(165.14112 -0.12688874 0)
(165.10733 -0.041936042 0)
(165.0481 0.038066104 0)
(164.96518 0.11287211 0)
(164.86037 0.18241578 0)
(164.73545 0.24678378 0)
(164.59209 0.30619382 0)
(164.43187 0.36097988 0)
(164.25619 0.41156123 0)
(164.06628 0.45841632 0)
(163.86317 0.50206229 0)
(163.64769 0.54302844 0)
(163.42046 0.58180863 0)
(163.18195 0.61883016 0)
(162.93248 0.65444445 0)
(162.67225 0.68891587 0)
(162.4014 0.72241406 0)
(162.12003 0.75501049 0)
(161.82824 0.7866799 0)
(161.52617 0.81730683 0)
(161.21404 0.84669633 0)
(160.89215 0.87458861 0)
(160.56095 0.90067605 0)
(160.22101 0.92462206 0)
(159.87303 0.94608035 0)
(159.51786 0.96471377 0)
(159.1565 0.98021163 0)
(158.79004 0.99230485 0)
(158.41968 1.0007782 0)
(158.04669 1.0054793 0)
(157.67241 1.0063238 0)
(157.29818 1.0032978 0)
(156.92534 0.99645588 0)
(156.55521 0.98591694 0)
(156.18906 0.97185726 0)
(155.82809 0.95450154 0)
(155.47338 0.93411258 0)
(155.12596 0.91098027 0)
(154.78673 0.88541033 0)
(154.45646 0.85771363 0)
(154.13585 0.82819612 0)
(153.82545 0.79715015 0)
(153.52575 0.76484724 0)
(153.23713 0.73153245 0)
(152.95987 0.69742045 0)
(152.69421 0.66269332 0)
(152.44032 0.62749978 0)
(152.19832 0.59195593 0)
(151.96829 0.55614721 0)
(151.75031 0.52013138 0)
(151.54442 0.4839426 0)
(151.35066 0.44759631 0)
(151.16909 0.41109439 0)
(150.99974 0.37443282 0)
(150.84268 0.33760786 0)
(150.69798 0.30062351 0)
(150.56573 0.26350497 0)
(150.44605 0.22631542 0)
(150.33906 0.18917445 0)
(150.24496 0.15231386 0)
(150.16419 0.11618837 0)
(150.09695 0.081325069 0)
(150.04333 0.04845322 0)
(150.00998 0.020897547 0)
(164.37485 0.20917783 0)
(164.15064 0.35213319 0)
(163.94278 0.49691952 0)
(163.6831 0.63850946 0)
(163.38888 0.77592095 0)
(163.06029 0.90633353 0)
(162.70073 1.0274531 0)
(162.31362 1.1370064 0)
(161.90276 1.2329937 0)
(161.47245 1.3136555 0)
(161.02737 1.3774909 0)
(160.57264 1.4232647 0)
(160.11365 1.4500347 0)
(159.65602 1.4571696 0)
(159.20544 1.4443641 0)
(158.7676 1.4116442 0)
(158.34807 1.359364 0)
(157.95218 1.2881939 0)
(157.58493 1.1990988 0)
(157.25091 1.0933129 0)
(156.95423 0.97230585 0)
(156.69841 0.83775121 0)
(156.48639 0.69148889 0)
(156.32045 0.53549623 0)
(156.20224 0.37185192 0)
(156.13271 0.20270916 0)
(156.11218 0.030249984 0)
(156.14035 -0.14335958 0)
(156.21633 -0.31602167 0)
(156.33871 -0.48571468 0)
(156.50564 -0.65050357 0)
(156.71485 -0.80856797 0)
(156.96367 -0.95821882 0)
(157.24905 -1.0979057 0)
(157.56759 -1.2262229 0)
(157.91566 -1.3419212 0)
(158.28936 -1.4439117 0)
(158.68464 -1.5312789 0)
(159.09731 -1.6032854 0)
(159.52308 -1.6593825 0)
(159.95766 -1.6992146 0)
(160.39673 -1.7226261 0)
(160.83603 -1.7296634 0)
(161.27138 -1.7205766 0)
(161.69874 -1.6958173 0)
(162.11422 -1.6560341 0)
(162.51418 -1.6020648 0)
(162.89519 -1.5349246 0)
(163.25414 -1.455791 0)
(163.58824 -1.365985 0)
(163.89506 -1.2669482 0)
(164.17258 -1.1602161 0)
(164.41915 -1.0473883 0)
(164.63361 -0.93009653 0)
(164.81518 -0.80996881 0)
(164.96355 -0.6885945 0)
(165.07882 -0.56748805 0)
(165.16148 -0.44805443 0)
(165.2124 -0.33155733 0)
(165.23275 -0.21909145 0)
(165.22398 -0.11156033 0)
(165.18774 -0.0096623331 0)
(165.12585 0.086121767 0)
(165.04019 0.17552749 0)
(164.93265 0.25850895 0)
(164.80508 0.33520333 0)
(164.65926 0.40591709 0)
(164.4968 0.47109467 0)
(164.31914 0.53128114 0)
(164.12752 0.58708241 0)
(163.92296 0.63913002 0)
(163.70627 0.68805152 0)
(163.47807 0.73443737 0)
(163.23877 0.77881139 0)
(162.98864 0.82160801 0)
(162.72781 0.86315349 0)
(162.45636 0.90365425 0)
(162.17429 0.94319189 0)
(161.88165 0.98172521 0)
(161.5785 1.0190987 0)
(161.26503 1.0550565 0)
(160.94148 1.0892612 0)
(160.60829 1.1213155 0)
(160.266 1.1507864 0)
(159.91533 1.1772298 0)
(159.55716 1.2002139 0)
(159.1925 1.2193414 0)
(158.82249 1.2342689 0)
(158.44839 1.2447215 0)
(158.07153 1.2505045 0)
(157.6933 1.2515099 0)
(157.3151 1.2477186 0)
(156.93835 1.2391983 0)
(156.56442 1.2260978 0)
(156.19463 1.2086379 0)
(155.8302 1.1871004 0)
(155.47229 1.1618145 0)
(155.12193 1.1331433 0)
(154.78003 1.1014691 0)
(154.44741 1.0671807 0)
(154.12473 1.0306601 0)
(153.81258 0.99227239 0)
(153.51141 0.95235604 0)
(153.22159 0.91121663 0)
(152.9434 0.86912173 0)
(152.67705 0.82629849 0)
(152.42269 0.78293275 0)
(152.18042 0.73917018 0)
(151.95031 0.6951188 0)
(151.73239 0.6508529 0)
(151.52671 0.60641799 0)
(151.33329 0.56183681 0)
(151.15215 0.51711621 0)
(150.98335 0.47225631 0)
(150.82693 0.42725963 0)
(150.68298 0.38214102 0)
(150.55159 0.33694078 0)
(150.43291 0.29173975 0)
(150.32709 0.24667575 0)
(150.23439 0.20198276 0)
(150.15529 0.15803147 0)
(150.08998 0.1151988 0)
(150.03902 0.074030116 0)
(150.00864 0.036010718 0)
(164.51522 0.29714948 0)
(164.29237 0.47119862 0)
(164.08513 0.64396571 0)
(163.82428 0.8129264 0)
(163.52719 0.97590824 0)
(163.19376 1.1301115 0)
(162.8275 1.2728421 0)
(162.43193 1.4014833 0)
(162.01101 1.5136504 0)
(161.56926 1.6072352 0)
(161.11161 1.680452 0)
(160.64342 1.7318593 0)
(160.17031 1.7603867 0)
(159.69816 1.7653497 0)
(159.23288 1.7464623 0)
(158.78043 1.7038391 0)
(158.34657 1.6379889 0)
(157.93686 1.5497979 0)
(157.55649 1.4405009 0)
(157.21023 1.3116485 0)
(156.90232 1.1650612 0)
(156.63642 1.0027869 0)
(156.41554 0.82704951 0)
(156.24207 0.6402069 0)
(156.11769 0.44470328 0)
(156.04343 0.24303742 0)
(156.01966 0.037722689 0)
(156.04613 -0.16873542 0)
(156.12197 -0.37384429 0)
(156.24579 -0.57513507 0)
(156.41568 -0.77026325 0)
(156.62926 -0.95704316 0)
(156.88374 -1.1334716 0)
(157.17595 -1.2977329 0)
(157.50239 -1.4482012 0)
(157.85929 -1.5834487 0)
(158.24263 -1.7022457 0)
(158.64822 -1.8035709 0)
(159.07175 -1.886613 0)
(159.5088 -1.9507808 0)
(159.95493 -1.9957051 0)
(160.40569 -2.0212458 0)
(160.85668 -2.0274929 0)
(161.30356 -2.014768 0)
(161.74216 -1.9836226 0)
(162.16846 -1.934833 0)
(162.57867 -1.8693925 0)
(162.96925 -1.7884993 0)
(163.33696 -1.6935403 0)
(163.67892 -1.5860705 0)
(163.99261 -1.4677876 0)
(164.27593 -1.340502 0)
(164.52722 -1.2061032 0)
(164.74525 -1.0665217 0)
(164.92928 -0.92368792 0)
(165.07902 -0.77949005 0)
(165.19461 -0.63573091 0)
(165.27663 -0.49408607 0)
(165.32604 -0.35606481 0)
(165.34415 -0.22297596 0)
(165.33253 -0.095900599 0)
(165.293 0.024326052 0)
(165.22751 0.13713423 0)
(165.13809 0.24221789 0)
(165.02678 0.3395328 0)
(164.89559 0.42925997 0)
(164.74637 0.5117849 0)
(164.58084 0.58766186 0)
(164.40049 0.65757251 0)
(164.20662 0.72228141 0)
(164.00023 0.78259087 0)
(163.7821 0.83929602 0)
(163.55281 0.89313942 0)
(163.31268 0.94477376 0)
(163.0619 0.99473433 0)
(162.80052 1.0434184 0)
(162.52849 1.0910723 0)
(162.24575 1.137787 0)
(161.95224 1.183501 0)
(161.64795 1.228012 0)
(161.33299 1.2709944 0)
(161.00757 1.3120227 0)
(160.67207 1.3505989 0)
(160.32703 1.3861817 0)
(159.97319 1.4182174 0)
(159.61144 1.4461686 0)
(159.24283 1.4695417 0)
(158.86856 1.4879098 0)
(158.48995 1.5009313 0)
(158.1084 1.5083637 0)
(157.72539 1.5100711 0)
(157.34239 1.506027 0)
(156.96088 1.4963109 0)
(156.58231 1.4811017 0)
(156.20806 1.4606658 0)
(155.83942 1.4353436 0)
(155.47757 1.4055327 0)
(155.12359 1.3716717 0)
(154.77841 1.334222 0)
(154.44285 1.2936523 0)
(154.11761 1.2504226 0)
(153.80324 1.2049717 0)
(153.5002 1.1577062 0)
(153.20883 1.1089919 0)
(152.92941 1.0591485 0)
(152.6621 1.0084459 0)
(152.40704 0.95710358 0)
(152.1643 0.90529149 0)
(151.93392 0.85313302 0)
(151.71591 0.80070943 0)
(151.51028 0.74806541 0)
(151.31704 0.6952158 0)
(151.1362 0.64215286 0)
(150.96779 0.58885494 0)
(150.81186 0.53529545 0)
(150.66849 0.48145278 0)
(150.53781 0.42732236 0)
(150.41997 0.37292985 0)
(150.31519 0.31834686 0)
(150.22383 0.26372115 0)
(150.14641 0.20929242 0)
(150.08323 0.15532357 0)
(150.03509 0.10228202 0)
(150.00749 0.050966132 0)
(164.68192 0.40888708 0)
(164.45821 0.61244644 0)
(164.2496 0.81244145 0)
(163.98603 1.0075643 0)
(163.68451 1.1948205 0)
(163.34482 1.3713659 0)
(162.97045 1.5342074 0)
(162.565 1.6804759 0)
(162.13256 1.8074937 0)
(161.6778 1.9128566 0)
(161.20585 1.994492 0)
(160.72228 2.0507042 0)
(160.23296 2.0802195 0)
(159.74404 2.0822166 0)
(159.26174 2.0563498 0)
(158.79228 2.0027558 0)
(158.34174 1.9220475 0)
(157.91596 1.8152954 0)
(157.5204 1.6839929 0)
(157.16007 1.5300166 0)
(156.8394 1.355572 0)
(156.56223 1.1631428 0)
(156.33175 0.95542719 0)
(156.15041 0.7352871 0)
(156.01997 0.50568468 0)
(155.94148 0.26963556 0)
(155.9153 0.030149153 0)
(155.94111 -0.20981104 0)
(156.018 -0.44738977 0)
(156.14448 -0.67985422 0)
(156.31855 -0.90461211 0)
(156.53775 -1.119236 0)
(156.79917 -1.3214912 0)
(157.09955 -1.5093476 0)
(157.43527 -1.6809874 0)
(157.80243 -1.8348186 0)
(158.19689 -1.9694758 0)
(158.61433 -2.0838324 0)
(159.05028 -2.1770017 0)
(159.50021 -2.2483469 0)
(159.95948 -2.2974829 0)
(160.42352 -2.3242828 0)
(160.88774 -2.3288797 0)
(161.34767 -2.3116677 0)
(161.79896 -2.2733009 0)
(162.23744 -2.2146883 0)
(162.65917 -2.1369859 0)
(163.06045 -2.041584 0)
(163.43794 -1.9300897 0)
(163.78862 -1.8043044 0)
(164.10989 -1.6661954 0)
(164.39956 -1.5178621 0)
(164.65593 -1.3614968 0)
(164.87776 -1.199341 0)
(165.06431 -1.0336373 0)
(165.21532 -0.86657953 0)
(165.33102 -0.70026188 0)
(165.41208 -0.53662876 0)
(165.45959 -0.37742837 0)
(165.47499 -0.2241717 0)
(165.46004 -0.078100101 0)
(165.4167 0.059837266 0)
(165.34711 0.18900512 0)
(165.25347 0.30907988 0)
(165.13797 0.42003753 0)
(165.00275 0.52212576 0)
(164.8498 0.6158335 0)
(164.68092 0.70184605 0)
(164.49766 0.78099455 0)
(164.30133 0.85420245 0)
(164.09296 0.92243181 0)
(163.8733 0.98663153 0)
(163.64285 1.0476874 0)
(163.40188 1.1063786 0)
(163.15047 1.1633425 0)
(162.88856 1.2190492 0)
(162.61599 1.273785 0)
(162.33258 1.3276473 0)
(162.03817 1.3805488 0)
(161.73264 1.4322319 0)
(161.41602 1.4822902 0)
(161.08847 1.5301976 0)
(160.75032 1.5753415 0)
(160.40212 1.6170591 0)
(160.04458 1.6546738 0)
(159.67865 1.6875311 0)
(159.30542 1.7150311 0)
(158.92615 1.7366561 0)
(158.54226 1.7519932 0)
(158.15522 1.7607503 0)
(157.7666 1.7627645 0)
(157.37797 1.7580055 0)
(156.99091 1.7465707 0)
(156.60694 1.728677 0)
(156.22752 1.7046459 0)
(155.85399 1.674887 0)
(155.48761 1.6398779 0)
(155.12947 1.6001438 0)
(154.78055 1.5562367 0)
(154.44167 1.5087158 0)
(154.11354 1.4581294 0)
(153.79671 1.4049996 0)
(153.49162 1.349809 0)
(153.19861 1.2929918 0)
(152.91789 1.2349265 0)
(152.64964 1.1759325 0)
(152.39394 1.1162692 0)
(152.15083 1.0561374 0)
(151.92032 0.99568277 0)
(151.70239 0.9350011 0)
(151.49702 0.87414499 0)
(151.30418 0.81313158 0)
(151.12387 0.75195089 0)
(150.95609 0.69057505 0)
(150.80089 0.62896727 0)
(150.65832 0.5670909 0)
(150.52851 0.50491849 0)
(150.41163 0.44244009 0)
(150.3079 0.37967125 0)
(150.2177 0.31666531 0)
(150.14155 0.25350402 0)
(150.07979 0.19024626 0)
(150.03329 0.12705007 0)
(150.00703 0.064070123 0)
(164.87758 0.50140453 0)
(164.65612 0.73596138 0)
(164.44629 0.96579077 0)
(164.17993 1.1900706 0)
(163.8733 1.4049559 0)
(163.52627 1.6073094 0)
(163.1423 1.7936915 0)
(162.72509 1.9608382 0)
(162.2789 2.105673 0)
(161.80861 2.2254262 0)
(161.31961 2.3177081 0)
(160.81777 2.3805708 0)
(160.30927 2.412564 0)
(159.80061 2.4127707 0)
(159.29833 2.3808331 0)
(158.80902 2.3169591 0)
(158.33909 2.2219127 0)
(157.89468 2.0969901 0)
(157.48155 1.943976 0)
(157.10494 1.7650943 0)
(156.76953 1.5629408 0)
(156.47933 1.3404201 0)
(156.23765 1.1006688 0)
(156.04706 0.84699282 0)
(155.90939 0.5827942 0)
(155.82573 0.31151901 0)
(155.79646 0.036595047 0)
(155.82127 -0.23860531 0)
(155.89918 -0.51079578 0)
(156.02865 -0.7767986 0)
(156.20759 -1.0336288 0)
(156.43339 -1.2785125 0)
(156.70302 -1.5089139 0)
(157.01306 -1.722545 0)
(157.35973 -1.9173701 0)
(157.73898 -2.091618 0)
(158.14651 -2.2437797 0)
(158.57784 -2.3726188 0)
(159.02834 -2.4771706 0)
(159.49328 -2.5567513 0)
(159.96788 -2.6109586 0)
(160.44736 -2.6396785 0)
(160.92697 -2.643086 0)
(161.40206 -2.6216482 0)
(161.8681 -2.5761221 0)
(162.32073 -2.5075512 0)
(162.75583 -2.4172573 0)
(163.16958 -2.306828 0)
(163.55844 -2.1780982 0)
(163.91927 -2.0331265 0)
(164.24937 -1.8741637 0)
(164.54645 -1.7036159 0)
(164.80874 -1.5240001 0)
(165.03497 -1.3378945 0)
(165.22442 -1.1478833 0)
(165.37686 -0.95649892 0)
(165.49259 -0.76616169 0)
(165.5724 -0.57912135 0)
(165.61751 -0.39740144 0)
(165.62956 -0.22275008 0)
(165.61045 -0.056600623 0)
(165.5624 0.099957104 0)
(165.48774 0.24620224 0)
(165.38888 0.38179088 0)
(165.26822 0.5067276 0)
(165.12807 0.62133809 0)
(164.97057 0.72623157 0)
(164.79764 0.82224904 0)
(164.61091 0.91040403 0)
(164.41172 0.99181859 0)
(164.2011 1.0676575 0)
(163.97976 1.1390644 0)
(163.74812 1.2071015 0)
(163.50635 1.2726984 0)
(163.2544 1.3366105 0)
(162.99207 1.3993891 0)
(162.71908 1.4613633 0)
(162.43509 1.5226345 0)
(162.1398 1.5830829 0)
(161.833 1.6423847 0)
(161.5146 1.7000393 0)
(161.1847 1.7554041 0)
(160.84358 1.8077349 0)
(160.49177 1.8562294 0)
(160.13 1.9000713 0)
(159.75924 1.9384727 0)
(159.38065 1.970713 0)
(158.99558 1.9961717 0)
(158.60553 2.0143551 0)
(158.21209 2.0249142 0)
(157.81692 2.0276552 0)
(157.42172 2.0225419 0)
(157.02817 2.0096902 0)
(156.63788 1.9893567 0)
(156.2524 1.9619217 0)
(155.87315 1.9278683 0)
(155.50145 1.8877588 0)
(155.13844 1.8422102 0)
(154.78512 1.7918695 0)
(154.44235 1.737391 0)
(154.11081 1.6794146 0)
(153.79108 1.618548 0)
(153.48356 1.555352 0)
(153.18856 1.4903291 0)
(152.90629 1.4239159 0)
(152.63687 1.3564791 0)
(152.38035 1.2883143 0)
(152.13673 1.219648 0)
(151.90599 1.1506414 0)
(151.68806 1.0813969 0)
(151.4829 1.0119648 0)
(151.29044 0.94235291 0)
(151.11065 0.87253532 0)
(150.94352 0.8024626 0)
(150.78907 0.7320716 0)
(150.64737 0.66129516 0)
(150.51852 0.59007112 0)
(150.40272 0.51835008 0)
(150.30019 0.44610204 0)
(150.21133 0.37332225 0)
(150.13665 0.30001687 0)
(150.07648 0.2261669 0)
(150.03164 0.15179694 0)
(150.00663 0.076786763 0)
(165.10104 0.60854924 0)
(164.88019 0.87414579 0)
(164.66809 1.133906 0)
(164.3979 1.3872503 0)
(164.08498 1.6296674 0)
(163.72933 1.8577123 0)
(163.33431 2.067523 0)
(162.90372 2.2554451 0)
(162.44195 2.4180039 0)
(161.9541 2.552051 0)
(161.44582 2.6548519 0)
(160.92328 2.7241666 0)
(160.39303 2.7583206 0)
(159.86193 2.7562539 0)
(159.33695 2.7175545 0)
(158.82507 2.6424701 0)
(158.33309 2.5318974 0)
(157.86755 2.3873545 0)
(157.43454 2.2109298 0)
(157.03964 2.0052232 0)
(156.68776 1.7732667 0)
(156.38316 1.5184491 0)
(156.12929 1.2444246 0)
(155.92884 0.95503677 0)
(155.78372 0.65422937 0)
(155.69501 0.34598056 0)
(155.66307 0.034225633 0)
(155.68751 -0.27719084 0)
(155.76729 -0.58458765 0)
(155.90075 -0.88446414 0)
(156.08566 -1.1735307 0)
(156.31929 -1.448728 0)
(156.59847 -1.7072586 0)
(156.9196 -1.9465991 0)
(157.27876 -2.1645076 0)
(157.67174 -2.3590374 0)
(158.09405 -2.5285345 0)
(158.54105 -2.671649 0)
(159.00791 -2.787333 0)
(159.48972 -2.8748502 0)
(159.98152 -2.9337759 0)
(160.47832 -2.9640047 0)
(160.97518 -2.9657512 0)
(161.46724 -2.9395541 0)
(161.94977 -2.8862745 0)
(162.41821 -2.807094 0)
(162.86826 -2.703506 0)
(163.29589 -2.5773041 0)
(163.6974 -2.4305624 0)
(164.06951 -2.2656102 0)