/*--------------------------------*- C++ -*----------------------------------*\
| =========                 |                                                 |
| \\      /  F ield         | foam-extend: Open Source CFD                    |
|  \\    /   O peration     | Version:     4.1                                |
|   \\  /    A nd           | Web:         http://www.foam-extend.org         |
|    \\/     M anipulation  |                                                 |
\*---------------------------------------------------------------------------*/
FoamFile
{
    version     2.0;
    format      ascii;
    class       volScalarField;
    location    "1.8";
    object      p;
}
// * * * * * * * * * * * * * * * * * * * * * * * * * * * * * * * * * * * * * //

dimensions      [0 2 -2 0 0 0 0];

internalField   nonuniform List<scalar> 
4393
(
-46.417934
-92.981313
-146.74587
-201.5367
-258.52723
-318.02814
-380.42237
-446.01949
-515.04375
-587.60531
-663.67212
-743.04177
-825.31616
-909.8827
-995.90617
-1082.334
-1167.9157
-1251.2338
-1330.7414
-1404.8011
-1471.7216
-1529.7924
-1577.3191
-1612.6638
-1634.2988
-1640.8812
-1631.3566
-1605.1049
-1562.0195
-1502.6005
-1428.0591
-1340.3009
-1241.8203
-1135.5177
-1024.4737
-911.72309
-800.06518
-691.93266
-589.32264
-493.78332
-406.44212
-328.06012
-259.09787
-199.78122
-150.17153
-110.23781
-79.760734
-57.829795
-43.6255
-45.165771
-92.395495
-146.03329
-200.67289
-257.4943
-316.84042
-379.10782
-444.61812
-513.60745
-586.19799
-662.36931
-741.92908
-824.48624
-909.43068
-995.92398
-1082.9046
-1169.1082
-1253.1012
-1333.3196
-1408.1101
-1475.7668
-1534.5647
-1582.7925
-1618.7908
-1641.0031
-1648.0526
-1638.8499
-1612.6999
-1569.4325
-1509.5407
-1434.2415
-1345.4753
-1245.8024
-1138.2088
-1025.8651
-911.88597
-799.13095
-690.06932
-586.71263
-490.60569
-402.86024
-324.21481
-255.10729
-195.75072
-146.19798
-106.35771
-75.959076
-54.860146
-44.261976
-44.361533
-91.498744
-144.77501
-199.05384
-255.52442
-314.5593
-376.57716
-441.92191
-510.85279
-583.51569
-659.91302
-739.87207
-823.01513
-908.73594
-996.18813
-1084.2902
-1171.7485
-1257.0947
-1338.7303
-1414.97
-1484.0793
-1544.3052
-1593.9043
-1631.1739
-1654.4968
-1662.4166
-1653.7551
-1627.7342
-1584.092
-1523.2498
-1446.4188
-1355.6087
-1253.5163
-1143.3061
-1028.3352
-911.88105
-796.92352
-686.00228
-581.15297
-483.90788
-395.34112
-316.13958
-246.68734
-187.15376
-137.54824
-97.685418
-67.255317
-46.700396
-37.917869
-43.570816
-90.203003
-142.8713
-196.57161
-252.49817
-311.05213
-372.681
-437.76066
-506.58513
-579.33684
-656.054
-736.59534
-820.60524
-907.48496
-996.37698
-1086.1695
-1175.5231
-1262.9164
-1346.6974
-1425.1336
-1496.4495
-1558.8533
-1610.5574
-1649.7982
-1674.8705
-1684.1953
-1676.4483
-1650.7004
-1606.5413
-1544.286
-1465.1322
-1371.196
-1265.3909
-1151.1666
-1032.1759
-911.95325
-793.66438
-679.95477
-572.89282
-473.98698
-384.25014
-304.28845
-234.40217
-174.68548
-125.07271
-85.288891
-55.01971
-34.931765
-26.787642
-42.745683
-88.585587
-140.40091
-193.29692
-248.47545
-306.36852
-367.45909
-432.16456
-500.82556
-573.6744
-650.79911
-732.10295
-817.2626
-905.69131
-996.51682
-1088.5844
-1180.4898
-1270.6353
-1357.2955
-1438.6739
-1512.9431
-1578.2651
-1632.7995
-1674.7084
-1702.1737
-1713.4547
-1707.0251
-1681.7352
-1636.9494
-1572.8143
-1490.4944
-1392.2506
-1281.3087
-1161.5319
-1036.9998
-911.61054
-788.78626
-671.31107
-561.28761
-460.18041
-368.90903
-287.96289
-217.52328
-157.57513
-107.95115
-68.294104
-38.297258
-18.680904
-10.924496
-41.737107
-86.536405
-137.25237
-189.11307
-243.32922
-300.368
-360.75517
-424.9599
-493.38243
-566.32021
-643.92764
-726.16888
-812.76643
-903.15269
-996.43773
-1091.4094
-1186.5743
-1280.2316
-1370.5572
-1455.6743
-1533.695
-1602.7317
-1660.8886
-1706.2444
-1736.8456
-1750.7463
-1746.1525
-1721.6114
-1676.1654
-1609.7064
-1523.327
-1419.4742
-1301.8059
-1174.763
-1043.015
-910.95191
-782.3305
-660.10282
-546.39744
-442.60261
-349.50052
-267.41709
-196.36973
-136.19258
-86.584218
-47.087952
-17.36621
1.8978368
9.436658
-40.595178
-84.126698
-133.49049
-184.06917
-237.08677
-293.0516
-352.53992
-416.08349
-484.15627
-557.13805
-635.2691
-718.59469
-806.90119
-899.65107
-995.93492
-1094.4655
-1193.6298
-1291.5886
-1386.3898
-1476.0584
-1558.6408
-1632.2045
-1694.8051
-1744.4387
-1779.0004
-1796.297
-1794.1897
-1770.8212
-1724.7829
-1655.5828
-1564.1731
-1453.2291
-1326.9959
-1190.709
-1049.8386
-909.42322
-773.6408
-645.63398
-527.53452
-420.60613
-325.43597
-242.13003
-170.49165
-110.16245
-60.677326
-21.458204
7.9065971
26.826159
34.193423
-39.185678
-81.205087
-128.95577
-178.00071
-229.5759
-284.23594
-342.61522
-405.31935
-472.91142
-545.87307
-624.55359
-709.10465
-799.40063
-894.9506
-994.8257
-1097.6417
-1201.6252
-1304.7516
-1404.903
-1499.9866
-1587.9833
-1666.9294
-1734.8515
-1789.6763
-1829.1422
-1850.7683
-1851.9848
-1830.4067
-1784.0019
-1711.7059
-1614.2111
-1494.4603
-1357.4945
-1209.6403
-1057.4467
-906.79612
-762.38048
-627.54161
-504.36792
-393.92547
-296.52778
-211.98896
-139.8383
-79.478859
-30.250685
8.5681474
37.492642
56.046274
63.251029
-37.653122
-77.930487
-123.79622
-171.03199
-220.88913
-273.97416
-330.98712
-392.61916
-459.53938
-532.35389
-611.54892
-697.41478
-789.94714
-888.72741
-992.81206
-1100.693
-1210.3817
-1319.6043
-1426.0268
-1527.4169
-1621.6974
-1706.9014
-1781.0632
-1842.072
-1887.5184
-1914.6007
-1920.2225
-1901.3197
-1855.0086
-1779.3729
-1674.6425
-1544.055
-1393.7365
-1231.5214
-1065.4153
-902.38856
-747.74441
-605.00821
-476.14394
-361.91404
-262.25403
-176.59689
-104.12793
-43.960713
4.7938326
43.026151
71.377254
89.496576
96.519388
-35.748491
-74.004392
-117.69144
-162.8307
-210.68079
-261.90293
-317.26916
-377.56773
-443.59187
-516.09776
-595.74175
-682.99319
-778.01392
-880.49656
-989.49495
-1103.3434
-1219.7612
-1336.1335
-1449.8407
-1558.4858
-1659.9507
-1752.3127
-1833.6749
-1901.9476
-1954.6065
-1988.5087
-1999.9314
-1984.9517
-1939.5369
-1860.5095
-1747.2944
-1603.419
-1436.5047
-1256.4982
-1073.3802
-895.51618
-728.91096
-577.21525
-442.13535
-323.97844
-222.16477
-135.63702
-63.157061
-3.4955858
44.499019
81.906843
109.50994
127.09135
133.89506
-33.798317
-69.805824
-111.02729
-153.76712
-199.2938
-248.32607
-301.71302
-360.35068
-425.17521
-497.12152
-577.05524
-665.6751
-763.37013
-870.00398
-984.655
-1105.4604
-1229.74
-1354.4071
-1476.4605
-1593.3105
-1702.8336
-1803.2251
-1892.7505
-1969.4349
-2030.7029
-2073.0713
-2092.1
-2082.7894
-2039.5825
-1957.4457
-1834.4213
-1674.2446
-1486.6316
-1284.5417
-1080.6549
-885.11349
-704.6881
-543.02494
-401.36255
-279.33973
-175.6834
-88.714101
-16.681379
42.041928
88.900913
125.18122
151.81371
168.71962
175.25238
-31.322417
-64.747957
-103.16341
-143.16636
-186.01698
-232.48927
-283.512
-340.09869
-403.34816
-474.4066
-554.39565
-644.30619
-744.8369
-856.11381
-977.29372
-1106.2716
-1239.813
-1374.1624
-1505.7942
-1631.8892
-1750.3756
-1859.6736
-1958.3432
-2044.666
-2116.131
-2168.9531
-2197.9162
-2196.6874
-2157.7295
-2073.3225
-1939.1455
-1758.8869
-1545.2524
-1315.5991
-1086.3251
-869.81599
-673.60433
-501.08445
-352.70539
-227.1435
-122.20613
-35.437311
35.520742
92.745397
137.99981
172.78325
198.17545
214.23744
220.43497
-28.935049
-59.574644
-94.897545
-131.84618
-171.67436
-215.20911
-263.45835
-317.55906
-378.79006
-448.5424
-528.24535
-619.25505
-722.68535
-839.05946
-967.71114
-1106.2468
-1250.6524
-1396.2077
-1538.6556
-1674.9141
-1803.0704
-1921.9384
-2030.5632
-2127.6945
-2211.0754
-2276.7064
-2318.533
-2328.6673
-2297.0907
-2212.1894
-2065.6492
-1860.4826
-1613.7468
-1349.4044
-1089.0086
-847.73591
-633.73223
-449.70268
-294.82485
-166.41454
-61.079029
24.588386
93.648201
148.67172
191.75344
224.60299
248.43976
263.46141
269.2486
-25.83389
-53.293072
-85.132847
-118.63295
-155.00804
-195.12662
-240.06988
-291.10037
-349.69278
-417.5201
-496.38068
-588.08499
-694.30118
-816.15577
-953.34757
-1103.1719
-1260.5142
-1419.2388
-1574.0447
-1721.5489
-1860.1665
-1989.3289
-2108.7905
-2218.0344
-2315.3415
-2396.6661
-2455.0936
-2481.017
-2461.4948
-2379.4163
-2219.7556
-1983.4099
-1693.8822
-1385.4075
-1086.702
-816.3301
-582.61368
-386.83091
-226.18121
-96.093414
8.3610477
91.7251
157.84709
209.8185
250.06075
280.47543
302.4009
316.16196
321.45476
-22.987989
-47.105299
-75.193818
-104.93051
-137.49187
-173.77911
-214.93797
-262.35311
-317.70457
-382.98157
-460.41589
-552.36674
-661.21676
-788.98291
-936.04922
-1099.4168
-1272.3778
-1446.6497
-1615.3881
-1774.8727
-1924.1493
-2063.6207
-2194.068
-2316.1078
-2429.0502
-2529.147
-2608.6654
-2656.1705
-2655.5129
-2582.091
-2409.6751
-2133.8886
-1787.8758
-1422.5304
-1076.4478
-772.13594
-517.10403
-309.99992
-145.03038
-15.062175
86.751321
166.26802
228.18236
276.10237
312.74626
340.16959
359.79517
372.05755
376.76539
-19.233736
-39.565859
-63.483617
-89.028202
-117.28491
-149.1602
-185.84083
-228.81483
-279.9618
-341.61296
-416.50241
-507.64218
-618.31429
-751.83782
-909.8635
-1089.2796
-1281.0959
-1473.7623
-1658.1632
-1830.2813
-1990.3643
-2140.3192
-2282.2729
-2418.3658
-2549.5354
-2672.758
-2779.4794
-2856.4123
-2884.434
-2829.558
-2647.2437
-2321.0847
-1898.5201
-1458.8293
-1053.8832
-710.45556
-433.2229
-216.29456
-49.464538
77.792043
174.64057
248.39411
304.59976
347.33255
379.54267
403.37745
420.29402
430.80989
434.83894
-15.909306
-32.367013
-51.889148
-72.94577
-96.527601
-123.52934
-155.1603
-192.99514
-239.10541
-296.19107
-367.57166
-457.02709
-568.91788
-708.39088
-879.33363
-1079.0013
-1295.0487
-1510.732
-1713.4006
-1898.7507
-2069.1363
-2228.6895
-2381.1145
-2530.472
-2680.3816
-2829.6007
-2969.1742
-3084.336
-3154.097
-3134.0091
-2949.9579
-2559.1584
-2029.2953
-1490.903
-1012.5321
-624.92216
-325.98917
-102.36097
62.504971
183.47899
272.40417
338.09838
386.88205
423.18272
450.07372
469.70419
483.49864
492.0211
495.27838
-11.483705
-23.591086
-38.294481
-54.438395
-72.847777
-94.362761
-120.16935
-151.87432
-191.6796
-242.618
-308.63491
-394.35994
-505.32952
-649.10323
-833.41178
-1057.1091
-1303.001
-1546.0166
-1768.1069
-1964.9675
-2142.9622
-2309.8749
-2471.3007
-2633.6067
-2804.7319
-2986.7675
-3170.3461
-3338.4968
-3469.9052
-3511.2573
-3344.1346
-2870.796
-2184.1408
-1512.8676
-942.74264
-506.9593
-189.29226
35.501008
192.78591
302.75293
380.12805
435.11529
474.59999
503.16241
523.83869
538.66059
548.93708
555.2332
557.63151
-7.5457487
-15.399139
-25.214232
-36.272472
-49.208089
-64.767806
-84.068551
-108.69831
-140.93213
-184.1097
-242.9017
-322.98018
-431.14588
-577.96104
-777.5806
-1033.2801
-1320.8671
-1601.2718
-1847.8816
-2056.6682
-2241.2933
-2415.2233
-2585.4167
-2759.5204
-2951.4746
-3168.7919
-3401.8403
-3630.6645
-3839.9332
-3979.4493
-3868.02
-3294.1279
-2367.8673
-1515.4509
-830.29085
-345.15726
-15.869614
201.0975
342.92877
435.89268
497.46054
538.82896
567.06219
586.59143
600.20111
609.6596
616.06487
619.93071
621.39431
-2.493905
-5.6553699
-10.105282
-15.573817
-22.44496
-31.342315
-43.273716
-59.749134
-83.012601
-116.56687
-165.75509
-237.36256
-339.17778
-484.63774
-697.71288
-992.0295
-1333.7525
-1659.593
-1930.0839
-2142.1287
-2323.1042
-2495.5939
-2666.7858
-2843.1689
-3048.9932
-3303.173
-3599.0875
-3914.1978
-4241.407
-4553.2167
-4583.0217
-3903.4759
-2589.3086
-1483.2176
-653.42837
-124.34586
202.50977
397.84952
513.68582
582.40118
623.43555
648.17962
663.27081
672.58226
678.38463
682.01863
684.27021
685.54705
686.0176
2.9588996
3.9729669
4.5461821
4.3726529
3.3871955
1.1545404
-3.1202714
-10.724099
-23.652289
-45.260977
-81.373895
-140.12985
-230.2715
-367.38528
-589.87226
-934.90016
-1357.8362
-1750.6703
-2054.8665
-2266.904
-2439.862
-2611.5452
-2788.5918
-2969.4122
-3193.9264
-3500.0125
-3883.2982
-4313.0936
-4763.9042
-5291.5201
-5573.8088
-4825.355
-2837.2991
-1376.2391
-376.92312
174.91099
474.15157
627.83681
704.34243
740.62361
756.28265
761.58149
761.89348
760.03656
757.47964
754.96956
752.88454
751.47483
750.9173
8.2850968
13.26518
19.323319
25.157716
31.020363
36.677565
41.594802
44.762776
44.510129
37.79959
18.452002
-23.538919
-98.145789
-220.1045
-443.93815
-853.45459
-1397.262
-1876.3866
-2210.7149
-2392.8564
-2530.4072
-2685.6678
-2862.7769
-3027.8166
-3238.6437
-3573.5321
-4023.7165
-4561.7495
-5089.714
-5960.3618
-6823.7167
-6299.5112
-3074.0097
-1170.9483
36.509519
572.65753
805.01453
890.17604
911.80145
907.31955
893.26155
876.87765
861.26605
847.66347
836.46403
827.67773
821.19905
817.08046
815.48815
17.841047
25.859528
36.761482
47.719409
59.416218
71.800882
84.630964
97.257826
108.52156
116.23495
114.96558
93.714556
41.619675
-49.538151
-244.67431
-715.14394
-1441.8569
-2033.5727
-2413.3351
-2545.6849
-2642.9906
-2787.1785
-2982.1423
-3113.6859
-3276.687
-3677.6982
-4224.3756
-4961.709
-5679.3089
-7242.8558
-8882.0913
-9068.3486
-3578.1261
-1038.2156
635.19625
1099.0948
1197.3534
1178.9819
1129.5298
1077.2908
1030.5898
991.3689
959.44348
934.02664
914.24083
899.27087
888.48705
881.72252
879.12056
22.150168
30.894837
46.136257
62.237664
80.170902
100.10755
122.2913
146.7469
173.26182
201.23719
227.41349
240.71279
225.96163
180.34417
45.406657
-483.28082
-1555.1304
-2311.4481
-2773.6105
-2770.9873
-2749.6395
-2813.1242
-3022.6418
-3099.9144
-3207.1851
-3763.2571
-4232.9996
-5185.2305
-6470.8504
-7863.4514
-9589.1438
-12103.535
-4823.2572
-72.510626
1722.8338
1811.9854
1641.1447
1478.7625
1346.2319
1243.2057
1163.5595
1101.9588
1054.3136
1017.624
989.69262
968.87666
954.03106
944.77286
941.21957
36.936541
46.532893
66.459667
87.313467
110.74739
137.07659
166.90559
200.71962
238.86061
281.6608
327.5722
365.35194
371.82339
347.26317
293.73565
-191.1154
-1818.0477
-2617.0746
-3115.4296
-2772.7514
-2626.7667
-2732.4965
-3131.7359
-3271.1637
-3302.4715
0
0
0
0
0
0
0
0
6202.3779
3402.4591
2582.498
2068.2409
1755.8618
1545.1275
1396.0907
1287.0037
1205.4572
1143.78
1096.9973
1061.7491
1035.6663
1017.1526
1005.639
1001.2246
35.365818
42.182087
64.02762
87.074154
113.20384
142.7385
176.5779
215.675
261.07295
314.42242
377.58747
445.98576
502.79547
560.8213
710.67071
552.78439
-1996.7506
-2776.8848
-3646.7889
-2968.6163
-3044.2971
-3012.3015
0
0
0
0
0
0
0
0
0
0
10129.575
6286.2564
4123.9574
3000.3267
2361.3152
1969.1804
1709.0515
1527.5654
1396.2881
1299.0449
1225.9946
1170.8576
1129.4592
1098.8988
1077.2418
1063.7861
1058.6287
44.263137
54.94978
80.949388
106.97676
136.15339
169.03484
206.87432
251.10255
303.5042
367.07802
447.11348
546.08423
653.28352
754.38524
842.18688
568.45941
-3108.173
-3581.5176
-3205.2374
0
0
0
0
0
0
0
0
0
0
0
1780.6712
3364.5934
5756.1173
5236.0916
3961.3845
3100.1707
2507.1453
2107.7423
1830.6565
1632.9943
1488.432
1380.733
1299.5719
1238.1957
1192.0535
1157.9598
1133.7829
1118.7557
1112.9946
22.191518
42.165602
66.36999
91.283677
118.75097
149.54567
184.74148
225.50337
273.13027
329.82737
399.49712
478.02416
537.52729
536.24733
558.10863
702.35912
0
0
0
0
0
0
-1132.0627
-1103.519
-1011.3018
-917.55289
-790.08221
-495.29661
-94.945708
697.08476
2026.44
3361.9105
4750.9882
4489.8595
3714.8042
3058.6888
2552.6676
2182.2225
1911.4478
1711.6636
1562.3568
1449.5342
1363.6946
1298.3471
1248.9855
1212.3875
1186.3726
1170.18
1163.9683
19.954135
50.021604
74.969661
100.54279
127.9604
158.05542
191.47816
228.66327
269.57015
313.41597
357.89753
396.55981
406.14687
338.09209
142.02081
-338.13557
-1284.3992
-1227.4609
-1147.0911
-1100.47
-1051.0744
-1021.6069
-1010.3586
-803.28431
-838.67784
-583.17797
-362.34186
-204.61476
259.08476
904.8559
1960.2934
3049.324
3956.5667
3851.8985
3404.3001
2933.5992
2528.4638
2206.0177
1956.7062
1765.4246
1618.5309
1505.383
1418.1076
1351.0034
1299.9444
1261.8854
1234.7305
1217.7906
1211.286
20.663165
46.484811
72.119383
97.970685
125.28511
154.81371
187.13754
222.62322
261.25721
302.13208
342.03281
373.73325
384.81652
353.15686
205.21449
-227.92155
-792.29552
-920.94925
-962.53913
-966.14288
-887.79582
-842.31402
-818.5443
-691.79554
-620.93968
-417.53683
-179.1403
77.745429
510.88896
1096.4678
1896.188
2721.5893
3334.887
3356.8286
3105.6588
2777.1452
2463.3595
2193.8122
1973.5996
1797.6807
1658.5159
1548.9452
1463.0409
1396.1825
1344.8456
1306.3198
1278.7
1261.4206
1254.7778
14.996379
36.230145
58.796326
81.290191
104.28987
128.03443
152.52934
177.41476
201.78878
223.68799
238.89581
240.18027
218.24867
159.21493
15.076101
-283.909
-606.89592
-732.45673
-784.51092
-794.27949
-753.1189
-703.46837
-642.22985
-537.75757
-423.88235
-238.2396
-11.495492
269.88646
668.61065
1187.724
1823.2438
2450.8979
2889.5221
2967.0605
2834.9741
2613.0032
2376.1835
2157.6783
1969.1906
1812.3877
1684.4743
1581.3783
1499.093
1434.1718
1383.8021
1345.7059
1318.2415
1301.0015
1294.3648
23.838093
46.444438
70.189216
93.655324
117.54325
141.9599
166.72476
191.20919
214.09443
232.81382
242.6831
236.66895
205.98825
135.39779
-7.258244
-236.54794
-460.14907
-579.79924
-635.37657
-644.53458
-615.82874
-568.28732
-497.27618
-394.45559
-264.34516
-82.929377
139.16412
416.11617
777.02893
1223.7741
1735.512
2221.7472
2557.2318
2658.5621
2599.6247
2454.8483
2280.1799
2107.1249
1949.7518
1813.471
1698.7963
1604.1129
1527.1083
1465.4597
1417.0871
1380.1867
1353.42
1336.5554
1330.0533
12.023912
29.927303
50.031645
70.035091
90.040285
109.92645
129.38535
147.7461
163.75999
175.18203
178.31514
168.06128
137.6387
74.65506
-40.053549
-203.50461
-358.80249
-456.742
-506.07328
-514.22795
-488.92468
-440.00055
-365.68461
-262.59662
-128.53469
46.967656
261.85759
525.19372
849.67675
1232.3395
1648.6382
2032.8076
2301.9508
2411.5852
2398.1297
2308.5376
2183.1616
2048.9531
1920.3889
1804.4675
1703.8332
1618.6772
1548.0662
1490.6682
1445.0924
1410.0071
1384.3889
1368.1835
1361.9253
21.40701
40.632086
60.853619
80.367143
99.452921
117.84273
135.02289
150.10098
161.62828
167.32308
163.94503
147.54847
113.08144
52.274578
-43.555168
-165.61238
-278.99927
-356.11997
-395.68492
-400.4516
-375.18248
-324.72088
-248.66966
-145.27863
-11.770465
156.79584
361.06221
606.02474
895.95428
1224.4182
1567.8685
1878.5096
2101.9991
2212.1896
2227.1487
2176.7627
2089.8457
1988.0698
1885.102
1788.3919
1701.7433
1626.5718
1562.9929
1510.493
1468.2887
1435.488
1411.372
1396.0529
1390.127
11.863862
27.96832
45.959324
63.611131
80.819988
97.231385
112.31613
125.22156
134.61672
138.50938
134.22477
118.55929
87.502908
35.680819
-40.000384
-130.42896
-213.52113
-271.82646
-300.84447
-300.62185
-273.45745
-221.62947
-145.02776
-42.507221
87.997831
248.91194
441.01678
666.30324
924.5767
1207.7367
1495.1791
1752.1644
1942.6302
2049.766
2082.4774
2059.9402
2002.6803
1927.6356
1846.8515
1767.6937
1694.4114
1629.1904
1572.8959
1525.6545
1487.1905
1457.0008
1434.6451
1420.3826
1414.8558
17.140137
33.23706
50.219664
66.364378
81.713895
95.886295
108.32885
118.2218
124.38303
125.18553
118.61239
102.36286
73.691853
29.626735
-29.986944
-97.3795
-158.13314
-200.45828
-219.38076
-213.53015
-183.55349
-130.33905
-53.760345
46.96407
173.10904
325.77988
505.17798
711.24915
941.42088
1187.1605
1431.2336
1648.3135
1813.9343
1916.496
1960.2208
1957.5
1922.9632
1869.6973
1807.8387
1744.3125
1683.4287
1627.7772
1578.7211
1536.8613
1502.3278
1474.9459
1454.5195
1441.4298
1436.3484
11.965639
26.365462
42.103885
57.216268
71.535416
84.633429
95.955228
104.72761
109.89837
110.11358
103.80233
89.277255
64.759241
28.908732
-17.0177
-66.701125
-110.24696
-139.22532
-148.99071
-137.54736
-104.54385
-50.075688
26.071722
124.40243
245.54929
389.78867
556.6503
744.79042
950.47129
1165.4758
1375.7058
1562.5398
1708.9295
1806.452
1856.8912
1868.3012
1851.1332
1815.4455
1769.5706
1719.7269
1670.098
1623.4089
1581.327
1544.7851
1514.223
1489.7335
1471.3259
1459.4762
1454.8679
13.672327
27.359385
41.871432
55.55051
68.315484
79.770975
89.415293
96.581084
100.40725
99.849207
93.764047
81.007922
60.560627
32.099934
-2.5874468
-38.474143
-68.498785
-86.404383
-88.106479
-71.427552
-35.485851
20.057762
95.482986
191.07726
307.0046
442.97666
597.96595
769.8685
954.48835
1144.3043
1327.8993
1491.4068
1622.6084
1715.1588
1769.5599
1791.0658
1787.1686
1765.5793
1733.0753
1695.0601
1655.4655
1616.9965
1581.473
1550.0442
1523.3754
1501.7694
1485.402
1474.8171
1470.6933
11.353552
24.027656
37.644922
50.50037
62.432205
73.046664
81.879995
88.352079
91.76089
91.31302
86.206678
75.733588
59.447184
37.652586
12.277968
-12.650033
-31.894121
-40.64205
-35.401744
-14.03437
24.57899
80.991886
155.50194
248.22191
358.98171
487.10327
631.1655
788.6648
955.35161
1124.5399
1287.0022
1432.2505
1551.2826
1639.1832
1695.7819
1724.5075
1730.7522
1720.4264
1699.0154
1671.129
1640.3536
1609.2957
1579.8177
1553.1953
1530.2499
1511.4434
1497.0818
1487.7513
1484.1097
11.407246
23.295858
35.923326
47.754214
58.666093
68.304988
76.268506
82.076883
85.182868
85.010856
81.033949
72.877287
60.49033
44.523622
26.849169
10.723425
0.16508672
-1.0253832
10.108535
35.557211
76.502131
133.57687
207.05838
296.91808
402.74986
523.61215
657.83828
802.76183
954.29976
1106.6031
1252.1868
1382.9778
1492.1668
1575.8569
1633.5336
1667.4235
1681.4245
1680.0742
1667.8024
1648.5084
1625.3943
1600.9205
1576.9198
1554.729
1535.2699
1519.1207
1506.6866
1498.5724
1495.4006
10.343537
21.515093
33.418362
44.560451
54.805625
63.829454
71.285853
76.787261
79.923238
80.302211
77.621395
71.763703
62.952368
52.0211
40.713639
31.707043
28.184591
33.209222
49.284274
78.207528
121.12536
178.67115
251.07582
338.19642
439.46207
553.76111
679.29601
813.38525
952.21802
1090.7139
1222.7538
1342.0055
1443.1874
1523.1457
1581.1994
1618.776
1638.7059
1644.485
1639.6925
1627.6188
1611.0849
1592.3733
1573.2535
1555.0742
1538.815
1525.137
1514.5185
1507.563
1504.8414
9.9404613
20.476267
31.670227
42.12997
51.740076
60.213389
67.259897
72.575482
75.865722
76.88736
75.511251
71.80855
66.179626
59.539818
53.483398
50.252195
52.434261
62.546729
82.718109
114.54598
159.09265
216.94712
288.28125
372.85993
469.99909
578.48512
696.47055
821.34448
949.60475
1076.8411
1197.9951
1308.0007
1402.6608
1479.3722
1537.3837
1577.5874
1602.048
1613.4738
1614.7663
1608.7038
1597.7618
1584.0304
1569.1963
1554.5886
1541.2144
1529.7917
1520.8546
1514.9892
1512.6955
9.3563513
19.364608
30.008267
39.956324
49.101925
57.191993
63.988518
69.26187
72.816479
74.529986
74.408889
72.662305
69.803043
66.771345
65.019934
66.461745
73.25192
87.49817
111.02398
145.23869
191.10136
249.13592
319.45157
401.73962
495.24005
598.68499
710.22927
827.37581
946.92638
1065.0345
1177.4596
1280.0628
1369.4275
1443.3623
1501.0964
1543.1604
1571.0688
1586.9367
1593.1315
1592.009
1585.7438
1576.2404
1565.094
1553.598
1542.7656
1533.3544
1525.9456
1521.098
1519.2125
8.9347985
18.485879
28.650052
38.160495
46.922928
54.715857
61.346841
66.648968
70.506895
72.893019
73.916129
73.882906
73.374308
73.325299
75.063987
80.254183
90.732282
108.29705
134.5274
170.66626
217.56814
275.6862
345.06968
425.35204
515.72384
614.89459
721.05146
831.82601
944.29638
1055.0771
1160.553
1257.2664
1342.3674
1413.973
1471.3187
1514.6907
1545.208
1564.5418
1574.6448
1577.5311
1575.1221
1569.1547
1561.1318
1552.3046
1543.6772
1536.0317
1529.9976
1526.1095
1524.6282
8.5489697
17.743392
27.539671
36.720662
45.201265
52.788333
59.329111
64.709158
68.877719
71.880748
73.9032
75.319512
76.750143
79.111296
83.627464
91.775059
105.15555
125.33561
153.70193
191.35746
239.06143
297.19991
365.76906
444.3579
532.12614
627.77997
729.55247
835.20018
942.03787
1047.0461
1147.0816
1239.185
1320.9171
1390.6248
1447.5605
1491.8448
1524.314
1546.3107
1559.4702
1565.5366
1566.2242
1563.1265
1557.6612
1551.0373
1544.2409
1538.0685
1533.2149
1530.2299
1529.1752
8.1796824
17.102045
26.616388
35.549453
43.821842
51.265118
57.759306
63.231642
67.681038
71.208405
74.053642
76.637038
79.600864
83.839058
90.494231
100.90441
116.50019
138.67695
168.67473
207.48459
255.78556
313.90589
381.79772
459.0169
544.70469
637.5739
735.90533
837.56492
940.0586
1040.6471
1136.535
1225.1213
1304.2607
1372.4683
1429.0161
1473.9143
1507.8005
1531.7795
1547.2511
1555.7541
1558.8408
1557.9896
1554.5478
1549.6909
1544.3881
1539.4387
1535.6189
1533.5703
1533.0796
7.8073565
16.603231
25.940299
34.712565
42.847158
50.199611
56.676964
62.238523
66.919939
70.861627
74.341569
77.809862
81.919702
87.543995
95.763504
107.81807
125.01962
148.64312
179.82274
219.4661
268.19041
326.27863
393.6494
469.83516
553.96693
644.76774
740.56018
839.29707
938.62825
1036.0173
1128.9135
1214.9637
1292.2253
1359.331
1415.5706
1460.8822
1495.7691
1521.1711
1538.3214
1548.6099
1553.4702
1554.294
1552.3743
1548.8609
1544.7074
1540.6842
1537.616
1536.3956
1536.6808
7.3040522
16.167669
25.424207
34.111497
42.165386
49.465863
55.940749
61.571522
66.417936
70.645448
74.555371
78.614881
83.481406
90.012117
99.247873
112.36855
130.61251
155.17607
187.12314
227.30588
276.29968
334.35667
401.37297
476.86613
559.96185
649.39206
743.50951
840.32654
937.5885
1032.8904
1123.8371
1208.2316
1284.2586
1350.6257
1406.6357
1452.1836
1487.6892
1513.9882
1532.2069
1543.6387
1549.6392
1551.5403
1550.5947
1547.938
1544.5175
1541.0491
1538.3526
1537.9219
1540.1151
6.0813536
15.835456
25.14321
33.822915
41.846118
49.12484
55.601124
61.268643
66.199459
70.571557
74.697996
79.054702
84.301974
91.291815
101.04987
114.71985
133.49245
158.52714
190.85788
231.30995
280.43786
338.47809
405.31525
480.45934
563.0335
651.77454
745.05088
840.90545
937.13191
1031.391
1121.3649
1204.9337
1280.3447
1346.3429
1402.2387
1447.9066
1483.726
1510.4819
1529.2486
1541.2724
1547.8655
1550.3292
1549.9041
1547.7295
1544.7623
1541.678
1539.2623
1539.7853
1545.6275
-2227.7442
-2483.5992
-2699.505
-2881.4431
-3023.9214
-3106.1644
-3108.173
-3029.1679
-2857.2268
-2663.9576
-3205.345
-3205.2374
-3198.3902
-3187.4009
-3173.2849
-3160.5316
-3148.6943
-3158.1636
-3158.7632
-3131.3568
-3182.9963
-3181.8716
-3167.1161
-3150.1531
-3133.2391
-3124.2513
-3105.9598
-3113.1737
-3100.0378
-3046.508
-3137.7993
-3135.137
-3126.5354
-3117.842
-3109.0502
-3112.0641
-3100.9712
-3098.9358
-3085.5322
-3048.6685
-3078.1048
-3076.6708
-3072.1261
-3066.2088
-3057.7015
-3058.0951
-3057.7672
-3057.1003
-3055.6241
-3059.3615
-3030.1379
-3029.346
-3023.5873
-3013.4297
-2998.1808
-2968.6163
-2990.7797
-3003.078
-3009.7207
-3023.0665
-3013.3898
-3015.0845
-3018.3384
-3021.7287
-3032.6543
-3008.5371
-3008.2064
-3004.5717
-2989.6472
-2966.6542
-3027.8917
-3029.5216
-3035.6051
-3044.2971
-3068.3419
-3076.0641
-3056.6842
-3030.6681
-3000.8322
-2965.429
-3848.4521
-3860.7672
-3831.7302
-3787.3214
-3749.7622
-3717.6974
-3696.1942
-3682.4679
-3673.5277
-3675.2693
-2986.9459
-2985.7541
-2977.8793
-2960.9369
-2921.5659
-2946.9221
-2958.923
-2961.1132
-2950.6258
-2923.5183
-3009.2252
-3012.3015
-3018.6661
-3037.9213
-3013.9759
-3005.2447
-3001.2823
-2993.8588
-2979.8634
-2964.7191
-3048.4574
-3050.9067
-3056.0759
-3080.6563
-3093.4309
-3069.3653
-3042.639
-3022.3589
-3003.4939
-2987.0116
-2999.5834
-2995.7547
-2976.858
-2951.5702
-2974.5056
-2991.9942
-3003.2445
-3010.6755
-3012.9483
-3019.9739
-3033.1985
-3035.6623
-3034.7946
-2997.8918
-3007.0314
-3020.6503
-3031.4578
-3038.6989
-3041.7559
-3051.3275
-3156.8826
-3164.6805
-3188.9178
-3187.4392
-3159.5311
-3131.7359
-3111.0403
-3095.6466
-3080.2293
-3062.9969
-3142.0022
-3137.1691
-3129.6869
-3149.8651
-3150.4529
-3144.6508
-3138.4198
-3132.9778
-3126.9744
-3128.873
-3162.7942
-3162.0756
-3137.7933
-3147.9435
-3159.3861
-3167.5168
-3171.9298
-3173.7262
-3173.0103
-3177.7068
-3277.1481
-3289.5515
-3285.5064
-3271.1637
-3255.8374
-3243.7915
-3235.0548
-3229.2562
-3222.4362
-3213.8718
-3282.4887
-3286.5569
-3294.0105
-3285.938
-3276.3007
-3270.8043
-3270.5707
-3275.0116
-3280.0508
-3292.351
-3186.3356
-3172.2247
-3189.5613
-3215.439
-3244.9138
-3273.6119
-3300.5861
-3325.1582
-3345.3095
-3370.2727
-3326.0911
-3302.4715
-3312.0764
-3332.3801
-3359.1394
-3384.3832
-3406.8451
-3425.2731
-3437.7886
-3453.5007
-3701.709
-3692.6911
-3661.9894
-3627.9145
-3602.8313
-3583.3418
-3571.2479
-3564.0869
-3557.9693
-3555.1012
-3016.6275
-3015.1014
-3009.6844
-2998.061
-2992.5629
-2999.827
-2999.4727
-2994.1305
-2984.9045
-2983.8846
-3540.4613
-3549.0581
-3563.4942
-3610.7773
-3666.9514
-3718.7814
-3739.8619
-3721.7211
-3638.0208
-3466.1731
-3268.698
-3268.9326
-3271.8812
-3276.7466
-3277.8545
-3276.9557
-3274.9922
-3269.8499
-3265.6925
-3219.2165
-3179.4797
-3227.5
-3289.6109
-3394.3091
-3505.6295
-3592.451
-3635.0045
-3595.1345
-3446.991
-3214.5656
-3480.1994
-3490.2423
-3511.1732
-3547.8708
-3581.5176
-3610.1755
-3618.7458
-3618.2397
-3582.4627
-3470.0758
-3367.2752
-3371.6643
-3385.8427
-3409.7983
-3430.7567
-3448.4102
-3456.5349
-3446.1154
-3433.4986
-3381.7495
11318.722
10715.547
10129.575
9489.9394
8832.8463
8179.5395
7545.1808
6936.7844
6347.3448
5770.305
8301.8461
8224.5294
8101.2578
7839.606
7501.718
7111.2841
6689.606
6254.566
5816.3991
5360.0014
-3709.4735
-3727.9087
-3745.3216
-3751.294
-3759.9883
-3763.2571
-3768.0561
-3771.4943
-3772.821
-3776.3135
-3705.837
-3709.688
-3745.0358
-3776.2689
-3815.3309
-3842.5054
-3866.4341
-3882.466
-3891.1148
-3895.3035
-3946.5208
-3939.2844
-3955.5116
-3963.0871
-3991.4665
-4009.846
-4029.6732
-4042.6497
-4048.0694
-4043.6197
-4222.4304
-4212.0753
-4226.3439
-4216.9292
-4232.9996
-4234.8806
-4241.4027
-4242.4508
-4238.8784
-4234.5169
-4544.8859
-4526.7458
-4538.4907
-4511.4546
-4515.2398
-4497.3919
-4484.933
-4464.9052
-4437.2371
-4404.8758
-4901.1155
-4873.8929
-4883.4998
-4837.0776
-4828.6451
-4790.1551
-4757.3234
-4713.9005
-4659.2302
-4599.0184
-5281.8596
-5243.4088
-5252.0487
-5185.2305
-5165.6799
-5107.5903
-5056.1942
-4992.7243
-4916.4682
-4831.1555
-5682.8697
-5630.7942
-5639.6188
-5550.5968
-5519.7796
-5441.5507
-5370.8837
-5288.4481
-5198.4734
-5115.9222
-6105.0527
-6035.9298
-6045.7787
-5931.7836
-5888.3127
-5787.9031
-5693.5351
-5583.5059
-5458.1921
-5322.5909
-6548.508
-6458.4198
-6470.8504
-6329.2048
-6271.9503
-6149.0649
-6030.9014
-5896.7887
-5747.182
-5585.4221
-7019.3479
-6902.2165
-6917.9805
-6744.4971
-6670.3507
-6522.7592
-6376.8574
-6214.632
-6036.14
-5850.2689
-7516.4456
-7366.2138
-7388.3312
-7179.8912
-7085.728
-6911.6671
-6733.8718
-6537.7889
-6319.1673
-6081.8868
-8058.1188
-7863.4514
-7892.4013