/*--------------------------------*- C++ -*----------------------------------*\
| =========                 |                                                 |
| \\      /  F ield         | foam-extend: Open Source CFD                    |
|  \\    /   O peration     | Version:     4.1                                |
|   \\  /    A nd           | Web:         http://www.foam-extend.org         |
|    \\/     M anipulation  |                                                 |
\*---------------------------------------------------------------------------*/
FoamFile
{
    version     2.0;
    format      ascii;
    class       surfaceScalarField;
    location    "1.8";
    object      phi;
}
// * * * * * * * * * * * * * * * * * * * * * * * * * * * * * * * * * * * * * //

dimensions      [0 3 -1 0 0 0 0];

internalField   nonuniform List<scalar> 
8438
(
-0.5974405
0.0016735353
-0.59917934
0.0017388385
-0.6009531
0.0017737577
-0.60277078
0.001817681
-0.60464214
0.0018713631
-0.60657762
0.0019354806
-0.60858663
0.0020090024
-0.61067676
0.0020901371
-0.61285315
0.0021763867
-0.61511771
0.0022645593
-0.61746847
0.0023507654
-0.61989893
0.0024304525
-0.62239744
0.0024985087
-0.62494689
0.0025494544
-0.62752461
0.0025777187
-0.63010261
0.002578004
-0.6326482
0.0025455852
-0.63512481
0.0024766098
-0.63749303
0.0023682269
-0.63971161
0.0022185791
-0.64173834
0.0020267271
-0.6435309
0.0017925568
-0.64504766
0.0015167617
-0.64624862
0.0012009629
-0.64709664
0.00084802192
-0.6475592
0.00046255554
-0.64761052
5.1318837e-05
-0.64723322
-0.00037729849
-0.64642231
-0.00081090699
-0.64518927
-0.0012330379
-0.64356299
-0.0016262833
-0.64158952
-0.0019734742
-0.63932993
-0.0022595911
-0.63685626
-0.0024736667
-0.63424626
-0.0026099972
-0.63157788
-0.0026683849
-0.6289244
-0.002653479
-0.62635087
-0.0025735279
-0.62391196
-0.0024389101
-0.62165121
-0.002260754
-0.61960137
-0.0020498394
-0.61778552
-0.001815843
-0.61621862
-0.0015669046
-0.61490908
-0.0013095375
-0.61385998
-0.0010490991
-0.61306953
-0.00079045715
-0.61253402
-0.00053550919
-0.6122586
-0.00027541834
-1.3647923e-05
-0.61123271
0.00313926
-0.61269182
0.0031979538
-0.6141781
0.0032600349
-0.6157048
0.0033443835
-0.61728438
0.0034509404
-0.61892804
0.0035791386
-0.62064562
0.0037265895
-0.6224451
0.0038896166
-0.62433193
0.0040632129
-0.62630836
0.0042409941
-0.62837276
0.0044151655
-0.63051889
0.0045765778
-0.63273531
0.0047149252
-0.63500498
0.0048191278
-0.63730516
0.0048778978
-0.63960764
0.0048804873
-0.64187938
0.004817322
-0.64408339
0.0046806199
-0.64617982
0.0044646552
-0.64812696
0.0041657271
-0.64988222
0.0037819783
-0.65140284
0.0033131768
-0.65264673
0.0027606565
-0.65357332
0.00212755
-0.6541447
0.0014194065
-0.65432735
0.00064519836
-0.65409454
-0.00018148444
-0.65343045
-0.00104139
-0.65233194
-0.0019094192
-0.65080993
-0.002755044
-0.64889249
-0.0035437265
-0.64662535
-0.0042406147
-0.64406992
-0.0048150208
-0.64129907
-0.0052445202
-0.63839155
-0.0055175115
-0.63542624
-0.0056336983
-0.63247704
-0.0056026772
-0.62960925
-0.0054413188
-0.62687744
-0.005170721
-0.62432481
-0.004813385
-0.62198366
-0.0043909885
-0.61987662
-0.0039228802
-0.61801827
-0.003425251
-0.61641682
-0.002910995
-0.61507556
-0.0023903545
-0.61399476
-0.001871261
-0.6131739
-0.0013563643
-0.61260473
-0.00084459477
-0.00037357379
-0.61227822
0.0045548493
-0.61369209
0.0046118177
-0.61513079
0.0046987376
-0.61660929
0.0048228818
-0.61814088
0.0049825334
-0.61973737
0.0051756303
-0.6214091
0.0053983143
-0.62316452
0.0056450376
-0.62500965
0.005908344
-0.62694737
0.0061787172
-0.62897669
0.0064444872
-0.631092
0.0066918826
-0.63328238
0.0069053066
-0.63553116
0.007067906
-0.63781571
0.0071624445
-0.6401077
0.0071724804
-0.64237377
0.007083391
-0.6445765
0.0068833541
-0.6466756
0.0065637533
-0.64862896
0.0061190876
-0.6503936
0.0055466193
-0.65192639
0.0048459609
-0.65318465
0.0040189184
-0.65412691
0.003069812
-0.65471392
0.0020064161
-0.65491027
0.00084154854
-0.65468682
-0.00040493837
-0.65402349
-0.0017047128
-0.65291285
-0.0030200609
-0.65136383
-0.0043040616
-0.64940434
-0.0055032177
-0.64708183
-0.0065631241
-0.64446114
-0.0074357125
-0.64161968
-0.0080859818
-0.63864104
-0.0084961541
-0.63560838
-0.0086663518
-0.63259888
-0.0086121791
-0.62967979
-0.0083604073
-0.62690644
-0.0079440767
-0.62432177
-0.00739805
-0.62195718
-0.0067555848
-0.61983397
-0.0060460822
-0.6179653
-0.0052939294
-0.61635794
-0.0045183486
-0.61501429
-0.003734005
-0.6139345
-0.0029510565
-0.61311683
-0.0021740341
-0.61255277
-0.0014086499
-0.00068139466
-0.61263508
0.0059410545
-0.61402857
0.0060053139
-0.61544755
0.0061177177
-0.61690697
0.0062822989
-0.61842059
0.0064961563
-0.62000093
0.0067559665
-0.62165909
0.0070564703
-0.62340437
0.0073903214
-0.62524371
0.0077476832
-0.62718093
0.0081159441
-0.62921598
0.0084795308
-0.63134402
0.0088199263
-0.63355471
0.0091159976
-0.63583155
0.0093447467
-0.63815163
0.0094825246
-0.64048587
0.0095067171
-0.64279975
0.0093972662
-0.64505449
0.009138097
-0.64720842
0.0087176805
-0.64921815
0.008128824
-0.65103957
0.0073680395
-0.65262843
0.0064348158
-0.65394078
0.0053312704
-0.65493348
0.0040625086
-0.65556496
0.0026379018
-0.65579676
0.0010733506
-0.65559591
-0.00060578818
-0.65493829
-0.0023623364
-0.65381273
-0.0041456207
-0.65222562
-0.0058911754
-0.65020454
-0.0075242953
-0.64779957
-0.0089680968
-0.64508094
-0.010154343
-0.64213328
-0.011033635
-0.63904784
-0.011581595
-0.63591455
-0.011799647
-0.63281558
-0.011711145
-0.62982117
-0.011354817
-0.62698767
-0.010777573
-0.62435756
-0.010028161
-0.6219607
-0.0091524463
-0.61981634
-0.0081904397
-0.61793537
-0.0071749043
-0.61632247
-0.0061312497
-0.61497832
-0.0050781561
-0.61390148
-0.0040278944
-0.61308836
-0.0029871575
-0.61253356
-0.0019634507
-0.00097
-0.61305958
0.0073002091
-0.61442985
0.0073755853
-0.61582657
0.0075144343
-0.61726488
0.0077206065
-0.61875903
0.0079903155
-0.62032234
0.0083192668
-0.62196683
0.0087009664
-0.62370292
0.0091264136
-0.62553875
0.0095835103
-0.62747942
0.010056615
-0.62952612
0.010526228
-0.63167512
0.010968924
-0.63391682
0.011357706
-0.63623499
0.011662912
-0.63860628
0.011853817
-0.64100051
0.011900946
-0.6433815
0.011778253
-0.64570853
0.011465128
-0.647938
0.010947148
-0.65002483
0.010215657
-0.65192347
0.0092666769
-0.65358834
0.0080996891
-0.65497402
0.0067169499
-0.65603533
0.0051238138
-0.65672779
0.003330362
-0.65700889
0.0013544509
-0.65684051
-0.00077416749
-0.65619276
-0.003010088
-0.65504887
-0.0052895058
-0.65341119
-0.0075288537
-0.65130649
-0.009628997
-0.64878836
-0.011486231
-0.64593475
-0.01300795
-0.64284074
-0.014127645
-0.63960855
-0.014813787
-0.63633768
-0.015070517
-0.63311724
-0.014931583
-0.63002136
-0.014450699
-0.62710754
-0.013691392
-0.62441729
-0.012718408
-0.62197816
-0.011591582
-0.61980637
-0.010362222
-0.61790966
-0.0090716158
-0.61628982
-0.0077510953
-0.61494508
-0.0064228954
-0.61387184
-0.0051011268
-0.61306518
-0.0037938221
-0.61252118
-0.0025074553
-0.0012463754
-0.61359678
0.0086271266
-0.61493739
0.0087161957
-0.61630581
0.0088828503
-0.61771734
0.0091321362
-0.61918682
0.0094597942
-0.62072843
0.0098608815
-0.62235538
0.010327913
-0.62407942
0.010850453
-0.62591023
0.011414328
-0.62785461
0.012000988
-0.62991538
0.012587003
-0.63209033
0.013143871
-0.63437094
0.013638314
-0.63674136
0.014033331
-0.63917776
0.014290216
-0.64164847
0.014371663
-0.64411508
0.014244859
-0.64653424
0.013884285
-0.6488598
0.013272708
-0.65104454
0.012400402
-0.65304122
0.011263354
-0.65480281
0.0098612806
-0.65628227
0.0081964066
-0.65743209
0.0062736401
-0.65820428
0.0041025526
-0.65855119
0.0017013586
-0.65842793
-0.00089742417
-0.65779677
-0.0036412525
-0.65663298
-0.006453299
-0.65493279
-0.0092290374
-0.65272124
-0.011840554
-0.65005636
-0.014151108
-0.64702673
-0.016037581
-0.64374193
-0.017412446
-0.64031934
-0.018236372
-0.63687142
-0.01851844
-0.63349631
-0.018306692
-0.63027289
-0.017674117
-0.62725967
-0.016704614
-0.62449639
-0.01548169
-0.62200712
-0.014080849
-0.61980386
-0.012565481
-0.61788999
-0.010985489
-0.61626333
-0.0093777559
-0.6149187
-0.0077675271
-0.61384965
-0.006170177
-0.61304957
-0.0045938991
-0.61251419
-0.0030428315
-0.0015156186
-0.6142498
0.0099180655
-0.61555481
0.010021206
-0.61688852
0.010216567
-0.61826696
0.010510571
-0.61970573
0.010898569
-0.6212201
0.011375243
-0.62282459
0.011932408
-0.62453263
0.012558488
-0.6263558
0.013237504
-0.628303
0.013948188
-0.63037923
0.014663234
-0.63258425
0.015348889
-0.63491105
0.015965117
-0.63734444
0.016466717
-0.63986002
0.016805792
-0.64242422
0.016935866
-0.64499563
0.016816268
-0.64752742
0.016416077
-0.64997015
0.015715441
-0.65227399
0.014704236
-0.65438981
0.013379172
-0.65626919
0.011740661
-0.65786356
0.0097907797
-0.65912305
0.0075331327
-0.65999567
0.0049751649
-0.66042754
0.0021332357
-0.6603652
-0.0009597683
-0.65976044
-0.0042460092
-0.65857744
-0.0076363034
-0.65680331
-0.011003166
-0.65445965
-0.014184208
-0.65160989
-0.017000868
-0.64835689
-0.019290589
-0.6448301
-0.020939234
-0.64116747
-0.021899003
-0.63749851
-0.022187391
-0.6339328
-0.021872404
-0.63055466
-0.021052256
-0.62742309
-0.019836188
-0.62457484
-0.018329937
-0.62202904
-0.016626652
-0.61979195
-0.014802572
-0.6178613
-0.012916136
-0.61622985
-0.011009211
-0.61488808
-0.0091092974
-0.61382606
-0.0072321882
-0.61303484
-0.0053851216
-0.61250836
-0.0035693095
-0.0017790326
-0.61501307
0.011164586
-0.61627522
0.011283366
-0.61756746
0.011508798
-0.61890619
0.011849306
-0.62030789
0.012300269
-0.62178899
0.012856346
-0.6233656
0.013509017
-0.62505307
0.014245953
-0.6268653
0.015049742
-0.62881381
0.015896694
-0.63090633
0.016755759
-0.63314524
0.017587797
-0.63552561
0.018345487
-0.63803326
0.018974366
-0.64064322
0.019415751
-0.6433195
0.019612146
-0.64601672
0.019513488
-0.64868343
0.019082788
-0.65126595
0.018297957
-0.65371128
0.017149566
-0.65596837
0.015636269
-0.65798769
0.013759974
-0.65971952
0.01152261
-0.66111185
0.0089254623
-0.66210844
0.0059717561
-0.66264821
0.0026730039
-0.662667
-0.00094097531
-0.66210302
-0.0048099857
-0.66090517
-0.0088341558
-0.65904707
-0.012861262
-0.65654408
-0.016687204
-0.65346571
-0.020079237
-0.64993399
-0.022822306
-0.64610557
-0.024767657
-0.64214606
-0.025858516
-0.63820721
-0.026126237
-0.63441257
-0.025667044
-0.63085228
-0.024612549
-0.62758467
-0.023103797
-0.62464165
-0.02127296
-0.62203531
-0.019232986
-0.61976432
-0.017073567
-0.61781917
-0.014861287
-0.6161863
-0.012642075
-0.61485101
-0.010444591
-0.6137993
-0.0082838943
-0.6130193
-0.0061651267
-0.61250256
-0.0040860427
-0.0020367971
-0.61588767
0.012363286
-0.61710099
0.012496689
-0.61834485
0.012752655
-0.6196368
0.013141251
-0.62099434
0.013657808
-0.62243525
0.01429726
-0.62397741
0.015051175
-0.62563842
0.015906959
-0.62743494
0.016846268
-0.62938168
0.01784343
-0.63148983
0.018863908
-0.63376516
0.019863126
-0.6362056
0.020785933
-0.63879858
0.021567347
-0.64151865
0.022135813
-0.64432675
0.022420248
-0.64717226
0.022359004
-0.64999759
0.021908114
-0.65274355
0.021043914
-0.6553534
0.01975942
-0.65777428
0.018057147
-0.6599561
0.015941797
-0.66184886
0.013415363
-0.66339904
0.01047565
-0.66454629
0.0071190049
-0.66522141
0.0033481179
-0.6653473
-0.00081508183
-0.66484467
-0.0053126214
-0.66364161
-0.010037215
-0.66169191
-0.014810956
-0.65899991
-0.01937921
-0.65564154
-0.023437608
-0.6517646
-0.026699238
-0.64756314
-0.028969117
-0.64324012
-0.03018154
-0.63897603
-0.030390327
-0.63491114
-0.029731932
-0.63114114
-0.028382546
-0.62772169
-0.026523256
-0.62467706
-0.024317585
-0.62200962
-0.021900422
-0.61970806
-0.019375129
-0.61775381
-0.016815536
-0.61612565
-0.014270234
-0.61480272
-0.011767522
-0.61376636
-0.0093202569
-0.61300126
-0.0069302278
-0.61249631
-0.0045909946
-0.0022881541
-0.61686699
0.013502247
-0.61802275
0.013652447
-0.61921048
0.013940387
-0.62044799
0.014378757
-0.6217537
0.01496352
-0.6231468
0.015690362
-0.6246471
0.016551473
-0.62627476
0.01753462
-0.62804969
0.018621198
-0.62999043
0.019784175
-0.6321125
0.020985976
-0.63442606
0.022176683
-0.63693295
0.023292829
-0.63962308
0.02425747
-0.64247074
0.02498348
-0.64543309
0.025382597
-0.64845249
0.025378398
-0.651463
0.024918628
-0.65439825
0.023979158
-0.65719702
0.022558195
-0.65980496
0.020665081
-0.6621725
0.018309338
-0.66425069
0.015493562
-0.66598587
0.012210827
-0.66731415
0.008447288
-0.66815764
0.0041916012
-0.66842397
-0.00054874562
-0.66801159
-0.0057250013
-0.66682066
-0.011228151
-0.66477597
-0.016855647
-0.66186293
-0.02229225
-0.65816318
-0.027137355
-0.65385947
-0.031002946
-0.64919795
-0.033630639
-0.64443227
-0.034947221
-0.63977991
-0.035042691
-0.6354005
-0.03411134
-0.63139394
-0.032389105
-0.62780977
-0.030107426
-0.62466072
-0.027466636
-0.62193579
-0.02462535
-0.61961083
-0.021700091
-0.61765611
-0.01877025
-0.61604135
-0.015884994
-0.61473866
-0.013070219
-0.61372415
-0.010334767
-0.61297875
-0.0076756285
-0.61248854
-0.0050812028
-0.002531742
-0.61795002
0.014580751
-0.61904271
0.014745137
-0.62016708
0.015064754
-0.62134236
0.015554032
-0.6225881
0.016209261
-0.62392497
0.017027239
-0.62537488
0.018001383
-0.62696084
0.019120578
-0.62870648
0.020366834
-0.63063494
0.021712638
-0.63276705
0.023118087
-0.63511863
0.024528261
-0.63769686
0.025871055
-0.64049541
0.027056019
-0.64348895
0.027977022
-0.64662993
0.02852358
-0.64985129
0.028599755
-0.65307572
0.028143055
-0.65622724
0.027130681
-0.65923937
0.025570329
-0.66205696
0.023482673
-0.6646327
0.020885075
-0.66692086
0.017781716
-0.66886968
0.014159651
-0.67041321
0.0099908178
-0.67146463
0.0052430202
-0.67191427
-9.9104624e-05
-0.67163244
-0.006006834
-0.67048218
-0.012378405
-0.66834632
-0.018991509
-0.66517833
-0.025460237
-0.66106258
-0.031253106
-0.65622973
-0.035835796
-0.6509999
-0.038860473
-0.64569617
-0.040250948
-0.64058338
-0.040155482
-0.6358426
-0.038852116
-0.63157473
-0.036656983
-0.62781774
-0.033864415
-0.62456722
-0.030717158
-0.62179413
-0.027398435
-0.61945803
-0.024036196
-0.6175157
-0.020712576
-0.61592635
-0.017474344
-0.61465426
-0.014342311
-0.61366992
-0.011319102
-0.61295032
-0.0083952323
-0.61247874
-0.0055527782
-0.002765685
-0.61913345
0.015581858
-0.62015221
0.015763899
-0.62120414
0.016116681
-0.6223081
0.016658
-0.62348442
0.017385571
-0.62475514
0.018297963
-0.62614434
0.01939058
-0.62767814
0.020654378
-0.62938441
0.022073107
-0.63129176
0.023619988
-0.63342754
0.02525387
-0.63581482
0.026915536
-0.63846803
0.028524263
-0.64138663
0.029974623
-0.64454683
0.031137221
-0.64789544
0.031872195
-0.65135258
0.032056893
-0.65482503
0.031615508
-0.65822373
0.030529376
-0.66147576
0.028822361
-0.66452636
0.026533268
-0.66733294
0.023691658
-0.66985606
0.020304837
-0.67204912
0.016352713
-0.67384669
0.01178838
-0.67515359
0.0065499201
-0.67583959
0.00058690371
-0.67574199
-0.0061044342
-0.67467684
-0.013443561
-0.67246552
-0.02120283
-0.66900816
-0.028917595
-0.66438409
-0.035877169
-0.65889052
-0.041329367
-0.65295504
-0.044795952
-0.64699683
-0.046209159
-0.64134096
-0.045811361
-0.63619036
-0.044002713
-0.63164061
-0.041206735
-0.62770972
-0.037795297
-0.62436841
-0.034058472
-0.62156366
-0.03020318
-0.6192347
-0.026365161
-0.61732237
-0.022624903
-0.61577404
-0.019022678
-0.61454554
-0.015570811
-0.61360155
-0.012263087
-0.61291513
-0.0090816582
-0.61246693
-0.0060009767
-0.0029876652
-0.62040712
0.016509308
-0.62134756
0.016704339
-0.62231975
0.017088872
-0.62334416
0.017682406
-0.62444202
0.018483433
-0.62563677
0.019492717
-0.62695465
0.020708462
-0.62842508
0.022124811
-0.63008065
0.023728669
-0.63195627
0.025495612
-0.63408722
0.027384824
-0.6365057
0.029334014
-0.63923587
0.031254429
-0.64228585
0.0330246
-0.64563544
0.034486817
-0.64922494
0.035461695
-0.65295677
0.035788717
-0.65671506
0.035373796
-0.66039251
0.034206833
-0.66390853
0.032338378
-0.66721097
0.029835706
-0.670266
0.02674669
-0.67304501
0.023083845
-0.67551134
0.018819045
-0.6776044
0.013881446
-0.67922275
0.0081682695
-0.68021404
0.0015781931
-0.68037577
-0.0059427044
-0.6794634
-0.014355936
-0.67721199
-0.023454242
-0.67343375
-0.032695834
-0.66818548
-0.041125439
-0.66185776
-0.047657087
-0.65503899
-0.051614719
-0.64828271
-0.052965439
-0.64198966
-0.052104405
-0.63638148
-0.049610895
-0.63153701
-0.046051211
-0.62744162
-0.041890682
-0.62403068
-0.037469411
-0.6212199
-0.03301396
-0.61892366
-0.028661401
-0.61706445
-0.024484112
-0.61557672
-0.020510408
-0.61440759
-0.016739947
-0.61351602
-0.013154657
-0.6128714
-0.0097262717
-0.61245211
-0.0064202678
-0.0031949765
-0.62177479
0.017340111
-0.62262371
0.017553261
-0.62350575
0.017970912
-0.62443999
0.018616642
-0.62544783
0.01949127
-0.62655371
0.020598602
-0.6277859
0.021940655
-0.62917719
0.023516096
-0.63076526
0.025316738
-0.63259232
0.027322675
-0.63470319
0.029495695
-0.63714159
0.031772408
-0.63994468
0.034057526
-0.64313362
0.03621354
-0.64669579
0.038048984
-0.65056476
0.03933066
-0.65461863
0.039842593
-0.65870888
0.039464041
-0.66270236
0.038200314
-0.66650909
0.036145113
-0.67008311
0.033409724
-0.67340479
0.030068367
-0.67646182
0.02614087
-0.6792334
0.021590632
-0.68167005
0.01631809
-0.68366805
0.010166277
-0.68505224
0.0029623802
-0.68557387
-0.0054210752
-0.68491421
-0.015015595
-0.68268956
-0.025678899
-0.67856892
-0.036816465
-0.67254901
-0.04714535
-0.66515197
-0.055054135
-0.65721548
-0.059551209
-0.64948252
-0.060698393
-0.64244687
-0.059140062
-0.63633819
-0.055719574
-0.63119906
-0.051190335
-0.6269636
-0.04612615
-0.62351801
-0.040914992
-0.62073807
-0.035793905
-0.61850861
-0.030890859
-0.6167317
-0.026261026
-0.61532832
-0.021913788
-0.61423708
-0.017831183
-0.61341178
-0.013979957
-0.61281874
-0.010319309
-0.61243456
-0.0068044478
-0.0033845909
-0.6232031
0.018083243
-0.6239574
0.018307561
-0.62474199
0.018755502
-0.62557736
0.019452009
-0.62648525
0.020399161
-0.62749093
0.021604282
-0.62862449
0.023074217
-0.62992205
0.024813654
-0.63142671
0.026821398
-0.63318886
0.029084824
-0.63526466
0.031571494
-0.6377121
0.034219848
-0.64058534
0.03693077
-0.64392448
0.039552672
-0.64773098
0.041855489
-0.65193256
0.043532237
-0.65637301
0.044283042
-0.66085488
0.043945913
-0.66520681
0.042552249
-0.66932694
0.040265236
-0.67318149
0.037264281
-0.67677368
0.033660557
-0.68011547
0.029482659
-0.68321084
0.024685996
-0.68603216
0.019139416
-0.68848207
0.012616181
-0.69036383
0.0048441429
-0.69137628
-0.0044086249
-0.69111295
-0.015278921
-0.68903165
-0.0277602
-0.68457148
-0.041276635
-0.67759107
-0.054125764
-0.66879546
-0.063849745
-0.65942569
-0.068920977
-0.65049279
-0.069631291
-0.64260013
-0.067032718
-0.6359604
-0.062359303
-0.63054755
-0.056603187
-0.62621768
-0.050456025
-0.62279036
-0.044342311
-0.62009171
-0.038492557
-0.61797269
-0.03300987
-0.6163137
-0.02792002
-0.61502257
-0.023204919
-0.61403036
-0.018823397
-0.61328674
-0.014723572
-0.61275596
-0.010850092
-0.6124136
-0.0071468027
-0.0035532454
-0.62472694
0.018709851
-0.62537212
0.018952733
-0.62604879
0.019432174
-0.62677452
0.020177736
-0.62757008
0.021194723
-0.62846076
0.022494961
-0.62947785
0.024091317
-0.63066036
0.025996157
-0.63205664
0.028217679
-0.63372583
0.030754013
-0.63573721
0.033582876
-0.63816621
0.03664885
-0.64108877
0.039853324
-0.64457211
0.043036016
-0.6486433
0.045926674
-0.65322895
0.048117889
-0.65812546
0.049179548
-0.66306228
0.048882735
-0.66781219
0.047302159
-0.67225988
0.044712929
-0.67639575
0.041400155
-0.68025951
0.037524314
-0.68389659
0.033119737
-0.68734431
0.028133715
-0.69060938
0.022404493
-0.69361151
0.015618308
-0.69613386
0.0073664882
-0.69781642
-0.0027260627
-0.69815459
-0.014940754
-0.69641072
-0.029504061
-0.69166656
-0.046020795
-0.68348558
-0.062306749
-0.67281353
-0.07452179
-0.66157725
-0.080157259
-0.6511651
-0.080043449
-0.6422992
-0.07589861
-0.63512297
-0.069535539
-0.62948971
-0.062236444
-0.62514043
-0.054805302
-0.62180692
-0.047675822
-0.61925589
-0.04104359
-0.61730138
-0.034964383
-0.61580237
-0.029419028
-0.6146552
-0.02435209
-0.61378527
-0.019693321
-0.61313991
-0.015368935
-0.61268265
-0.011307355
-0.61238911
-0.0074403367
-0.0036975578
-0.62625575
0.019233664
-0.62678955
0.019486535
-0.62735046
0.019993086
-0.62795657
0.020783847
-0.62862773
0.021865878
-0.62938878
0.023256012
-0.63027175
0.024974292
-0.63131814
0.027042549
-0.63258152
0.029481058
-0.63413042
0.032302908
-0.63604945
0.035501908
-0.63843558
0.039034984
-0.64139235
0.042810091
-0.64502478
0.046668445
-0.64940414
0.050306033
-0.65446794
0.05318169
-0.6599459
0.054657505
-0.66545314
0.054389982
-0.67067567
0.052524688
-0.67547955
0.049516809
-0.67989636
0.045816963
-0.68402026
0.04164821
-0.68793839
0.037037871
-0.69172933
0.031924657
-0.69545499
0.026130152
-0.69907763
0.019240948
-0.70237458
0.010663433
-0.70493041
-0.00017022691
-0.70613758
-0.013733588
-0.70504004
-0.030601603
-0.70017655
-0.050884283
-0.69050276
-0.071980543
-0.67723139
-0.087793157
-0.66352217
-0.093866475
-0.65128389
-0.092281737
-0.64134299
-0.085839504
-0.63367107
-0.077207461
-0.62791967
-0.067987847
-0.62366546
-0.059059514
-0.62052898
-0.050812296
-0.61820961
-0.043362957
-0.6164842
-0.036689792
-0.61519312
-0.030710111
-0.61422464
-0.025320572
-0.61350167
-0.020416293
-0.61297165
-0.015898947
-0.6125993
-0.011679706
-0.61236157
-0.0076780715
-0.0038141758
-0.6278823
0.019620512
-0.62829034
0.01989457
-0.62872669
0.020429436
-0.62920441
0.021261573
-0.62974067
0.022402133
-0.63035868
0.023874028
-0.63109001
0.025705622
-0.63197735
0.027929881
-0.63307806
0.030581768
-0.63446904
0.033693887
-0.63625087
0.037283738
-0.63854539
0.041329506
-0.64148892
0.045753626
-0.64523527
0.050414794
-0.64992807
0.054998834
-0.65554342
0.058797034
-0.66171967
0.06083376
-0.66789114
0.060561451
-0.67361186
0.058245403
-0.67872728
0.054632237
-0.68334841
0.050438093
-0.68766141
0.045961207
-0.69181133
0.041187789
-0.69592729
0.036040613
-0.70015791
0.030360774
-0.70454431
0.023627349
-0.70886977
0.014988896
-0.71262555
0.0035855525
-0.71509984
-0.011259297
-0.71514601
-0.030555437
-0.71054265
-0.055487643
-0.69906492
-0.083458272
-0.68205628
-0.1048018
-0.66501589
-0.11090686
-0.65053151
-0.10676612
-0.63946196
-0.096909054
-0.63141564
-0.08525378
-0.62572014
-0.073683348
-0.62172683
-0.063052829
-0.61892294
-0.05361618
-0.61693777
-0.045348133
-0.6155157
-0.038111861
-0.61448494
-0.031740872
-0.61373153
-0.026073977
-0.61318045
-0.020967378
-0.61278258
-0.016296818
-0.61250607
-0.011956212
-0.61233073
-0.0078534157
-0.003899955
-0.62933595
0.019882375
-0.62961487
0.020173488
-0.62991705
0.020731615
-0.63025344
0.021597968
-0.63063786
0.02278655
-0.63109069
0.024326855
-0.63164155
0.026256483
-0.63233282
0.028621147
-0.63322426
0.031473208
-0.6344002
0.034869825
-0.63597855
0.038862097
-0.63811222
0.043463174
-0.64097926
0.048620663
-0.64479556
0.054231097
-0.6498206
0.060023869
-0.65613188
0.065108318
-0.66324934
0.067951223
-0.67030905
0.067621158
-0.67665864
0.064594991
-0.68211364
0.06008724
-0.68692616
0.055250607
-0.69142528
0.050460331
-0.69581646
0.045578969
-0.70025333
0.040477482
-0.70499386
0.035101308
-0.71020132
0.028834803
-0.71569646
0.020484042
-0.72088189
0.0087709828
-0.72496909
-0.0071720988
-0.72679966
-0.028724869
-0.7232318
-0.059055504
-0.70979735
-0.096892726
-0.68723405
-0.12736509
-0.66565422
-0.13248669
-0.64844077
-0.12397957
-0.63630034
-0.10904948
-0.62813508
-0.093419047
-0.62277143
-0.079046996
-0.61926874
-0.066555515
-0.61696815
-0.055916771
-0.61543681
-0.046879475
-0.61439936
-0.039149315
-0.61368323
-0.032456995
-0.61318089
-0.026576318
-0.61282538
-0.021322886
-0.61257507
-0.016547127
-0.61240418
-0.012127101
-0.61229701
-0.0079605911
-0.003952164
-0.63049024
0.019981023
-0.63061977
0.020303021
-0.63077076
0.020882599
-0.63094754
0.021774755
-0.63115915
0.022998153
-0.63142211
0.024589823
-0.6317629
0.026597267
-0.63222187
0.029080122
-0.63285888
0.032110214
-0.63376229
0.035773239
-0.63506421
0.040164012
-0.63695035
0.045349319
-0.63964571
0.05131602
-0.64342986
0.058015248
-0.64872214
0.065316151
-0.65582129
0.072207463
-0.66410872
0.076238657
-0.67220425
0.075716687
-0.67914454
0.071535278
-0.68470154
0.06564424
-0.68939171
0.059940781
-0.69377743
0.05484605
-0.69813722
0.049938754
-0.70259994
0.044940206
-0.70761185
0.04011322
-0.71359358
0.034816533
-0.72050251
0.027392967
-0.72773206
0.016000539
-0.73427934
-0.00062482094
-0.73920322
-0.023800991
-0.73833182
-0.059926907
-0.72349555
-0.11172899
-0.69248316
-0.15837748
-0.66469653
-0.16027332
-0.64430093
-0.14437517
-0.63139129
-0.12195912
-0.62358301
-0.10122733
-0.61896662
-0.083663385
-0.6162585
-0.069263636
-0.61466562
-0.057509648
-0.61371995
-0.047825143
-0.61315047
-0.039718798
-0.61280129
-0.032806175
-0.61258279
-0.026794817
-0.61244339
-0.021462285
-0.61235344
-0.016637077
-0.61229599
-0.012184551
-0.61226149
-0.007995095
-0.0039687009
-0.63007843
0.019879803
-0.63002788
0.020252467
-0.62999524
0.020849959
-0.62997615
0.02175567
-0.62997265
0.022994653
-0.62999467
0.024611839
-0.63006149
0.026664086
-0.63020606
0.02922469
-0.63048136
0.032385516
-0.63097094
0.036262818
-0.63181122
0.041004291
-0.63321945
0.046757548
-0.63548171
0.053578278
-0.63894636
0.0614799
-0.64423955
0.070609338
-0.65213482
0.080102738
-0.66194715
0.08605099
-0.67134918
0.085118715
-0.67893442
0.079120514
-0.68436496
0.071074784
-0.68865557
0.064231386
-0.69275055
0.05894103
-0.69705098
0.054239186
-0.7015138
0.049403031
-0.70683798
0.045437399
-0.71385875
0.0418373
-0.72259606
0.036130277
-0.73261913
0.026023607
-0.74190455
0.0086606009
-0.75052997
-0.015175573
-0.75421881
-0.056238061
-0.74047674
-0.12547107
-0.6964206
-0.20243362
-0.66055574
-0.19613818
-0.63703498
-0.16789593
-0.62415363
-0.13484047
-0.617517
-0.10786396
-0.61423903
-0.086941355
-0.61270459
-0.070798075
-0.61204776
-0.058166481
-0.61182143
-0.048051473
-0.61179737
-0.039742851
-0.61186
-0.032743548
-0.61195141
-0.026703407
-0.61204331
-0.021370383
-0.61212256
-0.016557829
-0.61218362
-0.012123496
-0.61222455
-0.0079541567
-0.0039483049
-0.62618371
0.019548398
-0.62589604
0.019964791
-0.62560421
0.020558128
-0.62530164
0.021453103
-0.62498304
0.022676051
-0.62464968
0.024278482
-0.62431043
0.026324838
-0.62398663
0.028900888
-0.62371984
0.032118722
-0.62358347
0.036126445
-0.62371002
0.041130849
-0.62434488
0.047392404
-0.62585785
0.055091248
-0.62866618
0.064288227
-0.63355904
0.075502202
-0.642162
0.0887057
-0.65403706
0.097926046
-0.66487319
0.095954845
-0.67275641
0.087003736
-0.67707025
0.075388621
-0.67990989
0.067071032
-0.68282155
0.061852691
-0.68642867
0.057846305
-0.69004509
0.05301945
-0.69450604
0.049898347
-0.70161403
0.048945294
-0.71115693
0.045673177
-0.72409867
0.038965341
-0.73556639
0.020128327
-0.74986079
-0.00088117199
-0.76244948
-0.043649371
-0.75916575
-0.12875481
-0.69459064
-0.26700872
-0.65073435
-0.23999447
-0.62530398
-0.1933263
-0.61396271
-0.14618174
-0.60976315
-0.11206352
-0.60860983
-0.088094679
-0.60868416
-0.070723744
-0.60919204
-0.057658598
-0.60980281
-0.047440704
-0.61038442
-0.039161247
-0.6108895
-0.032238459
-0.61130626
-0.02628665
-0.61163706
-0.021039587
-0.61188908
-0.016305806
-0.61207022
-0.01194236
-0.61218723
-0.0078371393
-0.003890739
-0.6127663
0.018729233
-0.61203603
0.019234522
-0.61128958
0.019811677
-0.61050008
0.020663607
-0.60964983
0.021825798
-0.60872676
0.023355415
-0.60772258
0.025320654
-0.60663665
0.027814954
-0.60548346
0.030965535
-0.60430244
0.034945426
-0.60318045
0.040008855
-0.60232591
0.046537862
-0.60215334
0.054918684
-0.60313614
0.065271027
-0.60601257
0.07837863
-0.61372632
0.096419452
-0.62752671
0.11172643
-0.63868914
0.10711728
-0.64545558
0.09377018
-0.64634353
0.07627657
-0.64573587
0.066463372
-0.64567291
0.061789729
-0.64728023
0.059453624
-0.648312
0.054051221
-0.64944539
0.051031738
-0.65617001
0.055669915
-0.66607531
0.055578479
-0.68384083
0.056730861
-0.69888841
0.035175902
-0.72786034
0.028090762
-0.75027207
-0.021237645
-0.77323456
-0.10579232
-0.67715864
-0.36308463
-0.63076772
-0.28638539
-0.60622334
-0.21787068
-0.59992086
-0.15248422
-0.6002662
-0.11171818
-0.60224903
-0.086111847
-0.60437342
-0.068599351
-0.60623188
-0.055800141
-0.60775545
-0.045917128
-0.60897156
-0.037945139
-0.60992819
-0.031281827
-0.61067129
-0.025543547
-0.611239
-0.020471882
-0.61166107
-0.015883734
-0.61195982
-0.011643616
-0.61215113
-0.007645827
-0.0037969169
-0.58477928
0.017485805
-0.5835099
0.017965151
-0.58214129
0.018443062
-0.5806692
0.019191521
-0.57906742
0.020224019
-0.57730508
0.021593067
-0.57534553
0.023361111
-0.57314895
0.025618369
-0.57067774
0.028494322
-0.56790471
0.032172401
-0.56482858
0.036932724
-0.56155663
0.043265911
-0.55853286
0.051894911
-0.55652785
0.063266024
-0.55614888
0.077999659
-0.5615317
0.10180227
-0.58049216
0.13068689
-0.59265557
0.11928069
-0.59890887
0.10002348
-0.59405216
0.071419863
-0.58776386
0.060175063
-0.58244287
0.056468748
-0.58157619
0.058586943
-0.57952894
0.052003964
-0.57387718
0.045379978
-0.58519541
0.032529609
-0.59562046
0.037439279
-0.60468053
0.040313454
-0.60342551
0.020480353
-0.63525138
0.039878489
-0.71434593
0.019774577
-0.66918692
-0.054713819
-0.60685828
-0.227107
-0.57379936
-0.31944431
-0.57150803
-0.22016201
-0.58113688
-0.14285537
-0.58945237
-0.10340269
-0.59561863
-0.079945593
-0.60008654
-0.064131439
-0.60336088
-0.052525799
-0.60579623
-0.043481772
-0.60762935
-0.036112027
-0.60901858
-0.029892594
-0.61007177
-0.024490359
-0.61086356
-0.019680093
-0.61144608
-0.015301212
-0.61185565
-0.011234042
-0.61211694
-0.0073845418
-0.0036689511
-0.52686917
0.015075873
-0.5243725
0.015468485
-0.52172025
0.01579081
-0.51887019
0.016341468
-0.51576807
0.017121896
-0.51234607
0.018171066
-0.50851851
0.019533551
-0.50418025
0.02128011
-0.49920707
0.023521145
-0.49346107
0.026426392
-0.48679913
0.030270791
-0.47911676
0.035583541
-0.47060994
0.043388089
-0.46224667
0.054902758
-0.45437988
0.070132868
-0.44763132
0.095053706
-0.47081105
0.15386662
-0.47005228
0.11852192
-0.46091665
0.09088785
-0.42709934
0.037602551
-0.39544019
0.028515908
-0.36804666
0.029075216
-0.30349384
0.020772484
-0.16300391
0.013454835
-0.041149808
0.0077714431
0
0
0
0
0
0