/*--------------------------------*- C++ -*----------------------------------*\
| =========                 |                                                 |
| \\      /  F ield         | foam-extend: Open Source CFD                    |
|  \\    /   O peration     | Version:     4.1                                |
|   \\  /    A nd           | Web:         http://www.foam-extend.org         |
|    \\/     M anipulation  |                                                 |
\*---------------------------------------------------------------------------*/
FoamFile
{
    version     2.0;
    format      ascii;
    class       volScalarField;
    location    "1.8";
    object      rAU;
}
// * * * * * * * * * * * * * * * * * * * * * * * * * * * * * * * * * * * * * //

dimensions      [0 0 1 0 0 0 0];

internalField   nonuniform List<scalar> 
4393
(
0.00022764396
0.00022727016
0.00022690412
0.00022653025
0.00022614642
0.00022575121
0.00022534223
0.00022491831
0.00022447859
0.00022402288
0.00022355177
0.00022306677
0.00022257038
0.00022206614
0.00022155843
0.00022105338
0.00022055679
0.00022007566
0.00021961762
0.00021919025
0.00021880129
0.00021845842
0.00021816914
0.00021794063
0.00021777954
0.00021769181
0.00021768208
0.00021768208
0.00021775364
0.00021790762
0.00021814217
0.00021845229
0.0002188298
0.00021926366
0.00021974059
0.00022024607
0.00022076526
0.00022128398
0.00022178941
0.00022227054
0.00022271839
0.00022312602
0.00022348837
0.00022380199
0.00022406477
0.00022427573
0.00022443495
0.00022454295
0.00022458507
0.00022451155
0.00022419108
0.00022388554
0.00022357094
0.00022324453
0.00022290466
0.00022254911
0.000222177
0.00022178794
0.00022138228
0.0002209613
0.00022052728
0.0002200836
0.00021963471
0.00021918595
0.00021874434
0.00021831646
0.00021790993
0.00021753282
0.00021719297
0.00021689825
0.00021665634
0.00021647464
0.00021636017
0.00021631923
0.00021635724
0.00021644392
0.00021641684
0.00021646004
0.00021658694
0.00021679903
0.00021709478
0.00021746904
0.00021791305
0.00021841482
0.00021896008
0.00021953334
0.0002201191
0.00022070278
0.00022127145
0.00022181423
0.00022232241
0.00022278938
0.0002232104
0.00022358224
0.00022390274
0.00022417103
0.00022438861
0.00022454271
0.00022400619
0.00022369754
0.00022339742
0.00022308574
0.00022275978
0.00022241803
0.00022205849
0.00022168058
0.0002212843
0.00022087055
0.00022044123
0.00021999939
0.00021954928
0.00021909636
0.00021864695
0.00021820906
0.00021779019
0.00021739866
0.00021704309
0.00021673166
0.00021647241
0.00021627307
0.00021614106
0.00021608328
0.00021610589
0.00021621396
0.00021630074
0.00021618165
0.00021614337
0.00021619293
0.00021633523
0.00021657196
0.00021690056
0.00021731386
0.00021780033
0.00021834507
0.00021893112
0.00021954099
0.00022015793
0.00022076683
0.00022135487
0.00022191168
0.00022242935
0.00022290213
0.00022332604
0.00022369842
0.00022401821
0.00022428551
0.00022448062
0.00022365085
0.00022334759
0.00022304739
0.00022273257
0.00022240068
0.00022205042
0.00022167994
0.0002212889
0.00022087764
0.00022044749
0.00022000096
0.00021954184
0.00021907528
0.00021860777
0.00021814678
0.00021770147
0.00021728041
0.00021689284
0.00021654808
0.00021625479
0.00021602131
0.00021585558
0.00021576513
0.00021575701
0.00021583748
0.00021601158
0.00021609314
0.00021588798
0.00021576538
0.00021573587
0.00021580815
0.00021598744
0.00021627388
0.00021666172
0.00021713942
0.00021769086
0.000218297
0.00021893784
0.00021959404
0.00022024811
0.00022088522
0.00022149338
0.00022206348
0.00022258894
0.00022306525
0.0002234896
0.00022386075
0.00022417775
0.00022442244
0.00022328897
0.00022298986
0.00022268998
0.00022237235
0.00022203468
0.0002216758
0.00022129399
0.00022088909
0.0002204617
0.00022001354
0.00021954764
0.00021906853
0.00021858224
0.00021809637
0.00021761963
0.00021716248
0.0002167347
0.00021634662
0.00021600831
0.00021572897
0.00021551727
0.00021538137
0.00021532901
0.00021536751
0.00021550347
0.00021574227
0.0002158294
0.00021553376
0.00021532287
0.0002152113
0.00021521214
0.00021533471
0.00021558213
0.00021594994
0.00021642611
0.00021699256
0.00021762739
0.0002183074
0.00021901016
0.00021971555
0.00022040659
0.00022106976
0.00022169486
0.00022227467
0.00022280439
0.00022328117
0.00022370371
0.00022407086
0.00022436675
0.00022291129
0.00022261687
0.00022231836
0.00022199886
0.00022165619
0.00022128923
0.00022089632
0.00022047741
0.00022003325
0.00021956589
0.00021907882
0.00021857722
0.00021806806
0.0002175601
0.0002170634
0.00021658991
0.00021615085
0.00021575774
0.00021542154
0.00021515201
0.00021495811
0.00021484822
0.00021483036
0.00021491226
0.00021510116
0.00021540322
0.00021551101
0.00021511907
0.00021481428
0.00021461585
0.00021454216
0.00021460745
0.00021481834
0.00021517161
0.00021565415
0.00021624495
0.00021691823
0.00021764672
0.00021840431
0.00021916786
0.00021991817
0.00022064022
0.00022132297
0.00022195879
0.00022254286
0.00022307255
0.00022354676
0.00022396477
0.00022431252
0.00022251829
0.00022222924
0.00022193312
0.00022161276
0.00022126595
0.00022089151
0.00022048778
0.0002200547
0.00021959311
0.00021910525
0.000218595
0.00021806816
0.00021753262
0.00021699834
0.00021647698
0.00021598218
0.00021552687
0.00021512395
0.00021478537
0.00021452142
0.00021434133
0.00021425361
0.00021426656
0.00021438849
0.00021462756
0.00021499121
0.00021514001
0.0002146445
0.00021423832
0.00021394618
0.00021379291
0.00021379897
0.00021397531
0.00021431997
0.00021481793
0.00021544402
0.00021616725
0.00021695515
0.00021777716
0.00021860674
0.00021942234
0.00022020759
0.00022095078
0.0002216442
0.00022228331
0.00022286596
0.00022339158
0.00022386032
0.0002242595
0.00022211199
0.00022182965
0.00022153711
0.00022121691
0.00022086679
0.00022048547
0.00022007115
0.00021962369
0.00021914388
0.00021863403
0.00021809831
0.00021754305
0.00021697703
0.00021641158
0.0002158601
0.00021533829
0.00021486111
0.00021444313
0.00021409739
0.00021383465
0.00021366425
0.0002135947
0.00021363452
0.00021379267
0.00021407862
0.00021450168
0.00021471796
0.00021410993
0.0002135927
0.00021319745
0.00021295709
0.00021290019
0.00021304333
0.00021338589
0.00021390987
0.0002145842
0.00021537089
0.00021623089
0.00021712826
0.00021803263
0.00021892011
0.0002197731
0.0002205796
0.00022133217
0.00022202689
0.0002226624
0.000223239
0.00022375787
0.00022420764
0.00022169406
0.0002214193
0.00022113141
0.00022081244
0.00022045994
0.00022007243
0.00021964787
0.00021918589
0.00021868712
0.00021815378
0.00021759016
0.00021700302
0.00021640203
0.00021579995
0.0002152122
0.00021465697
0.00021415174
0.0002137131
0.00021335526
0.00021308938
0.00021292459
0.00021286918
0.00021293169
0.00021312181
0.00021345064
0.00021393007
0.00021424775
0.00021351645
0.00021287593
0.00021236505
0.00021202698
0.00021190113
0.00021201174
0.00021235975
0.00021292257
0.00021366084
0.00021452719
0.00021547416
0.0002164594
0.00021744831
0.00021841466
0.00021934001
0.00022021247
0.00022102534
0.00022177576
0.00022246353
0.00022309014
0.00022365803
0.00022415708
0.00022126652
0.00022100121
0.0002207194
0.00022040285
0.00022004899
0.00021965605
0.00021922168
0.00021874512
0.00021822663
0.00021766819
0.000217074
0.00021645113
0.00021581002
0.00021516495
0.00021453373
0.00021393762
0.00021339725
0.00021293175
0.00021255665
0.00021228323
0.00021212003
0.00021207463
0.00021215534
0.00021237251
0.00021273921
0.00021327073
0.00021373277
0.00021286546
0.00021208642
0.00021144348
0.00021099296
0.00021078912
0.00021086704
0.00021122955
0.00021184716
0.00021266872
0.00021363427
0.00021468569
0.00021577305
0.00021685717
0.00021790974
0.00021891197
0.0002198527
0.00022072656
0.00022153224
0.00022227114
0.00022294626
0.0002235615
0.00022410812
0.00022083202
0.00022057676
0.00022030213
0.00021998918
0.00021963505
0.0002192376
0.00021879399
0.00021830295
0.00021776417
0.0002171791
0.00021655166
0.00021588896
0.00021520212
0.00021450696
0.00021382406
0.00021317852
0.00021259512
0.00021209619
0.00021169874
0.00021141376
0.00021124854
0.00021120926
0.00021130349
0.00021154209
0.00021194037
0.00021251792
0.00021317835
0.00021216013
0.0002112238
0.00021042747
0.00020984422
0.00020954911
0.00020959308
0.00020998144
0.00021067417
0.00021160329
0.00021269184
0.00021386829
0.00021507384
0.00021626466
0.00021741084
0.00021849404
0.00021950469
0.00022043946
0.00022129921
0.00022208738
0.00022280884
0.00022346915
0.00022406111
0.00022039152
0.00022014886
0.00021988318
0.00021957536
0.00021922236
0.00021882161
0.0002183697
0.00021786463
0.00021730527
0.00021669227
0.00021602891
0.00021532205
0.00021458321
0.00021382974
0.0002130854
0.0002123802
0.00021174442
0.00021120464
0.00021077953
0.0002104792
0.00021030863
0.00021027165
0.00021037436
0.00021062775
0.00021104954
0.00021166466
0.00021248482
0.00021140505
0.00021028892
0.00020931172
0.00020856797
0.00020816222
0.00020816939
0.0002085984
0.00020939281
0.00021046037
0.00021170116
0.00021302682
0.00021436857
0.00021567813
0.00021692504
0.00021809256
0.00021917378
0.00022016836
0.00022108
0.00022191472
0.00022267957
0.00022338201
0.00022401652
0.00021995022
0.00021972025
0.00021946458
0.00021916322
0.00021881272
0.00021840994
0.00021795076
0.00021743225
0.00021685219
0.00021621006
0.00021550808
0.00021475243
0.00021395466
0.00021313344
0.00021231616
0.00021153913
0.00021084018
0.00021025171
0.00020979431
0.00020947618
0.00020929839
0.00020926099
0.00020936755
0.0002096285
0.00021006395
0.00021070517
0.00021159217
0.00021060824
0.00020928523
0.00020809199
0.00020714958
0.00020660473
0.0002065699
0.00020705961
0.00020799119
0.00020923708
0.00021066614
0.00021216933
0.00021366703
0.00021510755
0.00021646145
0.00021771532
0.00021886637
0.0002199183
0.00022087847
0.00022175596
0.00022256038
0.00022330124
0.0002239749
0.00021950683
0.0002192929
0.00021904943
0.00021875648
0.00021841043
0.00021800761
0.00021754303
0.00021701262
0.00021641275
0.00021574126
0.00021499879
0.00021419025
0.00021332658
0.00021242729
0.00021152366
0.00021066014
0.00020988508
0.00020923911
0.00020874508
0.00020840765
0.00020822161
0.00020818125
0.00020828637
0.00020854592
0.00020898207
0.00020963341
0.00021055292
0.00020978147
0.0002082197
0.00020676587
0.00020557234
0.00020484623
0.00020476033
0.00020533902
0.00020645625
0.0002079326
0.00020959447
0.00021130799
0.00021298281
0.00021456588
0.00021603144
0.00021737174
0.00021858992
0.00021969503
0.00022069889
0.00022161419
0.00022245335
0.00022322814
0.00022393684
0.00021907211
0.00021887368
0.00021864345
0.00021836049
0.0002180207
0.00021761972
0.00021715157
0.0002166108
0.00021599197
0.0002152908
0.00021450561
0.00021363928
0.00021270128
0.00021171105
0.00021070372
0.00020973426
0.00020886617
0.00020815222
0.00020761815
0.00020726258
0.00020707037
0.00020702734
0.00020712784
0.00020737791
0.00020780059
0.00020844227
0.00020937172
0.00020894131
0.00020710458
0.00020533477
0.00020381809
0.00020284715
0.00020269439
0.00020340358
0.00020477409
0.00020654978
0.00020849942
0.00021046065
0.00021233422
0.00021406967
0.00021564884
0.00021707282
0.00021835289
0.00021950487
0.0002205459
0.00022149269
0.00022236071
0.00022316407
0.000223903
0.00021863757
0.00021845864
0.00021824407
0.00021797333
0.00021764229
0.00021724595
0.00021677726
0.00021622919
0.00021559417
0.00021486518
0.00021403738
0.00021311061
0.00021209168
0.00021099836
0.00020986868
0.00020877088
0.0002077906
0.00020699882
0.00020642493
0.00020605716
0.00020586451
0.00020582041
0.00020591213
0.00020614126
0.00020652994
0.00020713273
0.00020803797
0.00020811343
0.00020596032
0.00020380697
0.00020186877
0.00020055568
0.00020030762
0.00020121094
0.00020293083
0.0002050978
0.00020740249
0.00020965275
0.0002117455
0.00021363955
0.00021533009
0.0002168311
0.00021816458
0.00021935459
0.00022042431
0.00022139483
0.00022228474
0.00022311044
0.00022387405
0.00021822607
0.00021806547
0.00021786768
0.00021761124
0.00021729161
0.00021690304
0.00021643727
0.00021588545
0.00021523745
0.00021448277
0.00021361228
0.00021262137
0.00021151257
0.00021029949
0.00020902049
0.00020775994
0.00020663652
0.00020574998
0.00020513487
0.00020476262
0.00020457755
0.00020453601
0.00020461748
0.0002048179
0.00020515478
0.000205689
0.00020653131
0.00020732644
0.00020481654
0.00020220295
0.00019971127
0.00019790468
0.00019750719
0.0001987064
0.00020091474
0.0002035965
0.00020633734
0.00020891989
0.00021124805
0.00021330067
0.00021509416
0.00021666039
0.00021803483
0.0002192511
0.00022033895
0.00022132393
0.00022222764
0.0002230686
0.00022385067
0.00021781704
0.00021767899
0.00021750035
0.00021726049
0.00021695504
0.00021657765
0.00021611883
0.00021556782
0.00021491169
0.00021413586
0.0002132258
0.00021217079
0.00021096735
0.00020962157
0.00020816674
0.00020670489
0.00020540484
0.00020441278
0.00020377015
0.00020342057
0.00020326813
0.00020324428
0.00020332042
0.00020348552
0.00020374496
0.00020416159
0.00020487329
0.00020604012
0.00020373317
0.00020057033
0.00019735031
0.00019481289
0.00019415676
0.00019582049
0.00019872077
0.00020208368
0.00020535543
0.00020831105
0.00021088177
0.00021308281
0.00021496218
0.00021657522
0.00021797348
0.00021920104
0.0002202943
0.000221283
0.00022219142
0.00022303983
0.00022383347
0.00021746814
0.00021735094
0.00021719281
0.00021697245
0.00021668535
0.00021632452
0.00021587929
0.00021533693
0.00021468144
0.0002138935
0.00021295148
0.00021183598
0.00021053473
0.00020904172
0.00020737462
0.00020564956
0.00020411197
0.00020298656
0.00020232367
0.00020202241
0.00020192147
0.00020191784
0.00020198023
0.00020209625
0.00020224987
0.00020249998
0.00020301709
0.00020404783
0.00020277726
0.00019900134
0.00019484869
0.00019121047
0.00019006028
0.0001924695
0.00019635937
0.00020062692
0.00020453438
0.00020789252
0.000210696
0.00021301997
0.00021495653
0.00021659
0.00021798972
0.0002192103
0.00022029419
0.00022127459
0.00022217776
0.00022302518
0.000223823
0.00021720049
0.00021710854
0.00021697487
0.00021677853
0.00021651534
0.00021617779
0.00021575403
0.00021522933
0.0002145845
0.00021379508
0.00021283109
0.00021166165
0.00021026312
0.0002086141
0.00020670112
0.00020463904
0.00020279074
0.00020152074
0.00020088666
0.00020071736
0.00020074098
0.00020080623
0.00020089043
0.00020099364
0.00020105252
0.00020109862
0.00020133222
0.00020206211
0.00020232368
0.00019782307
0.00019245207
0.00018712492
0.00018495932
0.00018857293
0.00019388289
0.00019934651
0.00020399075
0.00020775229
0.00021074972
0.00021314894
0.00021509925
0.00021671764
0.00021809111
0.00021928334
0.00022034134
0.00022130042
0.00022218782
0.00022302541
0.00022381969
0.00021725963
0.00021719578
0.00021709259
0.00021692805
0.00021669838
0.00021639577
0.00021600778
0.00021551831
0.00021490569
0.00021414096
0.00021318533
0.00021199289
0.00021052326
0.00020873596
0.00020656278
0.00020406874
0.00020178763
0.00020035093
0.00019980566
0.00019987926
0.00020010539
0.00020026571
0.00020036316
0.00020044926
0.00020036933
0.00020009274
0.00019988248
0.00020010165
0.00020118342
0.00019740094
0.00019066097
0.00018291675
0.00017861453
0.0001841642
0.00019146821
0.00019845306
0.00020389578
0.00020800296
0.00021110926
0.00021350606
0.0002154093
0.00021696772
0.00021828236
0.00021942251
0.00022043696
0.00022136122
0.00022222208
0.00022304092
0.00022382377
0.00021801701
0.00021798816
0.00021793006
0.00021781549
0.00021764069
0.00021739782
0.00021707433
0.00021665336
0.00021611113
0.00021541423
0.00021451406
0.00021334416
0.00021183699
0.00020993106
0.00020748672
0.00020441551
0.00020147812
0.00019988199
0.00019958107
0.0002001777
0.00020082178
0.0002012064
0.0002013839
0.00020158205
0.00020150151
0.00020093318
0.00020031535
0.00019986115
0.00020080794
0.00019976214
0.00019129701
0.00018002136
0.00017094793
0.0001796579
0.00018947934
0.0001982719
0.00020448877
0.00020878075
0.00021184204
0.00021412137
0.00021589861
0.00021734407
0.00021856404
0.00021962727
0.00022058035
0.00022145643
0.00022228027
0.00022307161
0.00022383532
0.00022066388
0.00022071206
0.00022074191
0.00022072135
0.00022064851
0.00022051643
0.00022031382
0.00022002477
0.00021962553
0.00021908127
0.00021833811
0.00021731149
0.00021589846
0.00021401622
0.00021146421
0.00020778651
0.00020388392
0.00020236631
0.00020272496
0.00020450462
0.00020600932
0.00020691017
0.000207322
0.00020797681
0.00020832141
0.00020732392
0.00020618922
0.00020432502
0.00020496007
0.00020348413
0.00019650001
0.0001811822
0.00016222073
0.00017630855
0.00018869764
0.00019949695
0.0002061491
0.00021024638
0.00021300405
0.00021500913
0.00021656677
0.0002178422
0.00021893132
0.00021989362
0.00022076857
0.00022158411
0.00022236123
0.00022311694
0.00022385413
0.0002264233
0.00022656647
0.00022672916
0.0002268568
0.00022694717
0.00022699535
0.00022699417
0.00022693281
0.00022679289
0.00022654476
0.00022613735
0.00022547279
0.00022438822
0.00022271887
0.00022022041
0.00021576674
0.00020956628
0.00020824694
0.00020948531
0.00021348519
0.00021646272
0.00021835311
0.00021896589
0.0002204046
0.0002221032
9.3007681e-05
9.5433641e-05
9.7691749e-05
9.9882167e-05
0.00010288231
9.4463694e-05
8.6204555e-05
0.00010657293
0.00017933369
0.00019343356
0.00020412706
0.0002094544
0.00021253458
0.0002146055
0.00021615201
0.0002173947
0.00021844686
0.00021937312
0.00022021387
0.00022099645
0.00022174091
0.00022246291
0.00022317581
0.00022387979
0.00023924625
0.00023969388
0.00024019483
0.00024068101
0.00024116151
0.00024164045
0.00024212264
0.00024261181
0.0002431068
0.00024359685
0.00024404924
0.00024437123
0.00024434204
0.00024362554
0.00024200522
0.00023807351
0.00022682288
0.00022935529
0.00023549197
0.00025021012
0.00026144103
0.00027023354
0.0001282817
0.00016688129
0.00032274685
0.00046159486
0.00049956686
0.00049956686
0.00049956686
0.00049956686
0.00049956686
0.00045031241
0.00033649837
6.8075286e-05
0.00021297389
0.00021346094
0.00021437883
0.00021549442
0.00021653647
0.00021748113
0.00021833987
0.00021913133
0.00021987232
0.00022057687
0.00022125674
0.00022192219
0.0002225825
0.00022324666
0.00022391166
0.00026426996
0.00026527842
0.00026643206
0.00026762849
0.00026888826
0.00027023599
0.00027170577
0.00027334064
0.00027519372
0.00027733252
0.00027984344
0.00028282388
0.00028637509
0.000290549
0.00029518141
0.00030233874
0.0002734588
0.00030501119
0.00035659735
0.0003725487
0.00027823035
0.00031975187
0.00049956686
0.00049956686
0.00049956686
0.00049956686
0.00049956686
0.00049956686
0.00049956686
0.00049956686
0.0004126339
0.0004182693
0.00010203819
0.00026659038
0.00023114005
0.00022209706
0.00021927532
0.00021853488
0.0002185543
0.00021888181
0.00021934149
0.00021986051
0.00022040745
0.00022096904
0.0002215407
0.00022212237
0.00022271655
0.00022332755
0.00022394887
0.00030195548
0.00030409788
0.00030622793
0.00030843033
0.00031077959
0.00031334851
0.00031622307
0.00031951654
0.00032338836
0.00032808213
0.00033399408
0.00034169992
0.00035173268
0.0003647474
0.00038492216
0.00040158117
0.00025703216
0.00025319648
0.00026338768
0.00048921263
0.00047849297
0.00048855039
0.00047869855
0.00047372164
0.00047746533
0.00045865802
0.00045171924
0.00045351615
0.00044093603
0.00043652041
0.00010691822
0.0001076707
0.00021977614
0.00025235682
0.00023694833
0.00022741068
0.00022311583
0.00022121906
0.00022044941
0.00022024473
0.00022033823
0.00022059795
0.00022095584
0.00022137585
0.00022183888
0.00022233531
0.00022286119
0.00022341625
0.00022399043
0.00028856448
0.00028908273
0.00028927264
0.00028945918
0.00028964441
0.0002898603
0.00029013285
0.0002904989
0.00029101143
0.00029174804
0.00029283087
0.00029387623
0.00029481541
0.00029557361
0.00029293169
0.00010292934
0.00037622846
0.000470823
0.00047253832
0.00049383687
0.00048613823
0.0004824508
0.00012420997
0.00012127925
0.00010077008
0.00010005409
0.00010062896
0.00010197277
0.00010292721
0.00010452156
0.00020120881
0.00020767802
0.00021808274
0.00023901556
0.00023963012
0.00023076144
0.00022595779
0.00022341701
0.00022210833
0.00022149282
0.00022128033
0.00022131151
0.00022149646
0.00022178333
0.00022214193
0.00022255482
0.00022301243
0.00022351038
0.00022403524
0.00022327486
0.0002231071
0.00022281875
0.00022254007
0.00022227883
0.00022205218
0.00022187611
0.00022177394
0.000221778
0.00022193317
0.00022230439
0.0002220943
0.00022116296
0.00021941664
0.00021672848
0.00021314648
9.5859394e-05
9.9101812e-05
9.9869022e-05
9.9773846e-05
0.00010014958
0.00010017635
0.00021253984
0.00021081365
0.0002089298
0.00020554377
0.00020443531
0.00020387893
0.00020210794
0.00020212612
0.00020330653
0.00020901267
0.00021823608
0.00023217529
0.0002380212
0.00023248199
0.00022785744
0.00022508945
0.00022347612
0.00022257924
0.00022213282
0.00022197625
0.00022201177
0.00022217923
0.00022244134
0.00022277503
0.00022316637
0.00022360756
0.00022408215
0.00021926622
0.0002193461
0.00021947247
0.00021960782
0.00021976339
0.00021995132
0.00022018419
0.00022047808
0.00022085226
0.0002213296
0.00022186413
0.00022156872
0.00022081329
0.00021957734
0.00021780348
0.00021498947
0.00021250676
0.00021402898
0.00021587921
0.00021421454
0.00021238147
0.00021121565
0.000210059
0.00020833716
0.00020730333
0.00020568588
0.0002047797
0.00020420528
0.00020347944
0.0002039482
0.00020593217
0.0002108884
0.00021854816
0.00022810781
0.00023383137
0.00023318211
0.00022902066
0.00022628602
0.00022454838
0.00022348498
0.00022287577
0.00022257534
0.00022248866
0.00022255366
0.00022272981
0.00022299071
0.00022331943
0.00022370554
0.00022413006
0.00021788937
0.00021796894
0.00021809427
0.00021823301
0.00021838804
0.00021856689
0.0002187781
0.00021903276
0.00021934339
0.00021972371
0.00021997921
0.00021948716
0.00021872904
0.00021765469
0.00021622742
0.00021439183
0.00021326103
0.00021411262
0.00021527034
0.00021349508
0.00021190177
0.00021068261
0.00020952599
0.00020831097
0.00020735616
0.00020629718
0.00020564681
0.0002052862
0.00020521183
0.00020608755
0.00020833108
0.00021262012
0.00021875893
0.00022561441
0.00023029981
0.00023231264
0.00022962741
0.00022708141
0.00022534763
0.00022421043
0.00022350167
0.00022309954
0.00022291849
0.00022289938
0.0002230016
0.0002231975
0.00022346846
0.00022380225
0.00022417792
0.00021721109
0.00021733205
0.00021747177
0.0002176228
0.00021779109
0.00021798307
0.00021820491
0.00021846413
0.00021876775
0.00021912115
0.00021921482
0.00021877171
0.00021812014
0.00021723012
0.0002160813
0.00021482207
0.00021419524
0.00021469888
0.00021503889
0.00021341147
0.00021201394
0.00021086198
0.00020980445
0.0002088229
0.00020800281
0.00020726724
0.00020684864
0.00020673383
0.00020702992
0.00020812293
0.00021033516
0.00021399229
0.00021887055
0.00022400931
0.0002278629
0.0002302185
0.00022984666
0.00022755957
0.00022591091
0.0002247686
0.00022401226
0.00022354581
0.00022329669
0.00022321171
0.00022325257
0.000223392
0.00022361085
0.00022389592
0.0002242248
0.00021692183
0.0002169949
0.00021711089
0.00021724605
0.00021739846
0.00021757166
0.00021776945
0.00021799671
0.00021825733
0.00021855281
0.00021852315
0.00021813367
0.00021760116
0.00021691401
0.00021608472
0.00021529058
0.0002149771
0.00021536537
0.00021499569
0.00021359458
0.00021236917
0.00021132263
0.00021038915
0.00020956873
0.00020889436
0.00020837619
0.00020813538
0.00020820831
0.00020871202
0.00020988757
0.00021195287
0.00021505052
0.00021895086
0.00022294332
0.00022613906
0.00022830366
0.00022930036
0.00022779416
0.00022627867
0.000225179
0.00022441528
0.00022391581
0.000223622
0.00022348824
0.00022348004
0.00022357173
0.00022374459
0.0002239851
0.00022426992
0.00021677919
0.00021689218
0.00021701772
0.00021715341
0.00021730325
0.00021747032
0.0002176563
0.00021786306
0.00021809065
0.00021833591
0.000218249
0.00021790032
0.00021744811
0.00021689704
0.00021628717
0.00021577737
0.00021563492
0.0002159628
0.0002150485
0.00021385918
0.00021279597
0.00021186995
0.00021106077
0.00021037598
0.00020983846
0.00020948078
0.0002093782
0.0002095833
0.00021019747
0.00021137673
0.00021325697
0.00021588271
0.00021904243
0.00022223337
0.00022490805
0.00022685655
0.00022808999
0.00022785098
0.00022649051
0.00022546374
0.00022472195
0.00022421435
0.00022389569
0.00022372843
0.00022368264
0.00022373512
0.00022386822
0.00022406865
0.00022431264
0.00021670588
0.000216776
0.0002168824
0.00021700567
0.00021714332
0.00021729647
0.00021746529
0.00021765
0.0002178487
0.00021805591
0.00021796814
0.00021768297
0.00021732705
0.00021691349
0.00021649066
0.00021618344
0.00021615672
0.00021618159
0.00021514065
0.00021413962
0.00021322841
0.00021242678
0.00021173726
0.00021117317
0.00021075725
0.00021052504
0.00021053096
0.00021082761
0.00021149505
0.00021263495
0.00021432531
0.00021655983
0.00021915726
0.00022176446
0.00022402354
0.00022576023
0.00022694896
0.00022750551
0.00022658065
0.00022564459
0.00022494494
0.00022444814
0.00022412081
0.00022393315
0.00022386012
0.00022388136
0.00022398079
0.00022414578
0.00022435249
0.00021665261
0.00021674414
0.00021685095
0.00021696706
0.00021709405
0.00021723289
0.0002173827
0.00021754228
0.00021770829
0.00021787396
0.00021779679
0.00021755888
0.00021727648
0.00021696851
0.00021668268
0.00021651261
0.00021656361
0.00021610924
0.00021525401
0.00021441753
0.00021364662
0.00021296629
0.00021239037
0.00021193617
0.00021162714
0.0002114965
0.00021158713
0.00021194532
0.00021263121
0.0002137099
0.00021522091
0.0002171337
0.00021929932
0.00022146735
0.00022339225
0.00022493371
0.00022605187
0.00022677674
0.00022657921
0.00022574182
0.00022509711
0.00022462482
0.00022430148
0.00022410433
0.00022401305
0.00022401032
0.00022408185
0.00022421598
0.00022438911
0.00021662048
0.00021668715
0.0002167821
0.00021688945
0.000217007
0.00021713446
0.00021726996
0.00021741129
0.00021755411
0.00021769096
0.00021764802
0.00021746
0.00021724612
0.00021702747
0.00021684685
0.00021677386
0.00021670983
0.00021608845
0.00021538614
0.00021469259
0.00021404929
0.00021348308
0.00021301302
0.00021265862
0.00021244313
0.00021239611
0.00021255245
0.00021295024
0.00021363306
0.00021464107
0.00021598941
0.000217638
0.00021946698
0.00022129568
0.00022294915
0.00022431567
0.000225352
0.00022606775
0.00022637969
0.00022577298
0.00022519061
0.00022475224
0.00022444245
0.00022424459
0.00022414267
0.00022412236
0.00022417131
0.000224279
0.00022442233
0.00021659666
0.00021666908
0.00021675949
0.00021685804
0.00021696436
0.0002170781
0.00021719693
0.00021731821
0.00021743725
0.00021754669
0.0002175378
0.00021739143
0.00021723368
0.0002170855
0.00021698321
0.00021695147
0.00021664402
0.0002161097
0.0002155354
0.00021496621
0.00021443798
0.0002139771
0.00021360443
0.0002133401
0.00021320625
0.00021322861
0.00021343567
0.00021385746
0.00021452447
0.00021545989
0.00021666414
0.00021809536
0.0002196579
0.00022121877
0.00022264956
0.00022386149
0.00022481305
0.00022550246
0.00022595403
0.00022575333
0.00022523654
0.00022483802
0.00022454868
0.00022435692
0.00022425062
0.00022421826
0.00022424942
0.00022433483
0.00022445205
0.00021658578
0.0002166459
0.00021672852
0.00021681963
0.00021691729
0.00021702054
0.00021712662
0.00021723256
0.00021733358
0.00021742269
0.00021744895
0.00021733984
0.00021722934
0.00021713708
0.00021709323
0.0002169683
0.0002166005
0.00021616566
0.00021570008
0.00021523944
0.00021481438
0.00021444953
0.00021416561
0.00021398219
0.00021391962
0.00021399994
0.00021424618
0.00021468122
0.00021532558
0.00021619096
0.00021726939
0.00021852107
0.00021986966
0.00022121531
0.00022246153
0.00022353761
0.00022440594
0.00022505879
0.0002255099
0.00022566434
0.00022524461
0.00022488926
0.00022462506
0.00022444452
0.00022433886
0.0002242991
0.00022431668
0.00022438362
0.00022447828
0.00021658211
0.00021664079
0.0002167178
0.00021680113
0.00021688942
0.00021698168
0.00021707505
0.0002171665
0.00021725151
0.00021732373
0.0002173669
0.00021730086
0.00021722867
0.00021717974
0.0002171142
0.0002168999
0.00021659947
0.00021624934
0.00021587731
0.00021551193
0.00021517917
0.00021490132
0.00021469784
0.00021458696
0.00021458681
0.00021471599
0.00021499275
0.00021543401
0.00021605277
0.00021685312
0.00021782266
0.00021892528
0.00022009976
0.00022126979
0.00022236146
0.00022331824
0.00022410714
0.00022471775
0.00022515705
0.0002254432
0.0002252232
0.00022491239
0.00022467627
0.00022451063
0.00022440948
0.00022436611
0.00022437374
0.00022442567
0.00022450113
0.00021658695
0.00021663916
0.00021671036
0.00021678718
0.00021686777
0.00021695098
0.00021703389
0.00021711362
0.00021718599
0.00021724545
0.00021728492
0.00021726897
0.00021722795
0.00021717782
0.00021706199
0.00021687259
0.00021663155
0.0002163548
0.00021606422
0.00021578289
0.00021553279
0.00021533357
0.00021520288
0.0002151571
0.00021521198
0.00021538289
0.00021568397
0.00021612721
0.00021672005
0.00021746158
0.00021833746
0.00021931566
0.0002203468
0.00022137158
0.00022233252
0.00022318426
0.00022389848
0.00022446399
0.00022488364
0.00022517002
0.00022517963
0.00022491324
0.00022470671
0.0002245584
0.00022446464
0.00022442069
0.0002244214
0.00022446136
0.00022452074
0.00021659771
0.00021664666
0.00021671288
0.00021678343
0.00021685666
0.00021693142
0.00021700492
0.00021707451
0.00021713648
0.00021718613
0.00021721767
0.00021722445
0.00021719928
0.00021713535
0.0002170277
0.00021687682
0.00021668871
0.0002164764
0.00021625748
0.00021605082
0.00021587492
0.00021574684
0.00021568211
0.00021569503
0.00021579891
0.0002160061
0.00021632721
0.00021677022
0.00021733847
0.00021802785
0.00021882344
0.00021969721
0.00022060902
0.00022151213
0.00022236135
0.00022312015
0.00022376459
0.00022428388
0.0002246785
0.00022495722
0.00022509778
0.00022489673
0.00022472031
0.0002245908
0.00022450645
0.00022446423
0.00022446049
0.00022449112
0.00022453727
0.00021661387
0.00021665885
0.00021672058
0.00021678577
0.00021685267
0.00021692021
0.00021698577
0.000217047
0.00021710075
0.00021714315
0.00021716967
0.00021717527
0.00021715484
0.00021710398
0.00021702007
0.00021690502
0.00021676448
0.00021660938
0.00021645414
0.00021631428
0.00021620534
0.00021614189
0.00021613724
0.00021620351
0.00021635161
0.00021659113
0.0002169296
0.00021737174
0.00021791783
0.00021856175
0.00021928877
0.00022007448
0.00022088596
0.000221686
0.0002224387
0.00022311469
0.00022369401
0.00022416691
0.0002245327
0.00022479767