/*--------------------------------*- C++ -*----------------------------------*\
| =========                 |                                                 |
| \\      /  F ield         | foam-extend: Open Source CFD                    |
|  \\    /   O peration     | Version:     4.1                                |
|   \\  /    A nd           | Web:         http://www.foam-extend.org         |
|    \\/     M anipulation  |                                                 |
\*---------------------------------------------------------------------------*/
FoamFile
{
    version     2.0;
    format      ascii;
    class       volVectorField;
    location    "1.8";
    object      U;
}
// * * * * * * * * * * * * * * * * * * * * * * * * * * * * * * * * * * * * * //

dimensions      [0 1 -1 0 0 0 0];

internalField   nonuniform List<vector> 
4393
(
(146.04892 -0.1565015 0)
(146.59751 -0.1629355 0)
(147.0118 -0.16594965 0)
(147.45302 -0.1696004 0)
(147.90407 -0.17400828 0)
(148.36986 -0.17925877 0)
(148.85259 -0.18527369 0)
(149.35443 -0.19190679 0)
(149.87697 -0.19895241 0)
(150.42112 -0.20614753 0)
(150.98691 -0.21317195 0)
(151.57335 -0.21965148 0)
(152.17822 -0.22516677 0)
(152.79802 -0.22926914 0)
(153.42784 -0.23150366 0)
(154.06145 -0.23143704 0)
(154.69135 -0.22868523 0)
(155.30901 -0.22293485 0)
(155.90504 -0.21395429 0)
(156.46952 -0.20159384 0)
(156.99217 -0.18577877 0)
(157.46259 -0.16650151 0)
(157.87042 -0.14381934 0)
(158.2056 -0.11786273 0)
(158.45857 -0.088857916 0)
(158.62062 -0.057160439 0)
(158.68446 -0.023276963 0)
(158.64486 0.012125671 0)
(158.49851 0.047972357 0)
(158.24626 0.082847928 0)
(157.89309 0.11530623 0)
(157.44833 0.14393634 0)
(156.92536 0.16750986 0)
(156.34079 0.18513406 0)
(155.71332 0.19635042 0)
(155.06229 0.20115444 0)
(154.40645 0.19994167 0)
(153.76286 0.19340506 0)
(153.14622 0.18241389 0)
(152.56854 0.16790021 0)
(152.03911 0.15076861 0)
(151.56467 0.13183496 0)
(151.14977 0.11179326 0)
(150.79719 0.091217125 0)
(150.50827 0.070610713 0)
(150.28348 0.050432421 0)
(150.12222 0.030837436 0)
(150.02092 0.011723056 0)
(149.97389 -0.0031700308 0)
(149.47196 -0.39491034 0)
(149.94135 -0.40586199 0)
(150.28759 -0.41396178 0)
(150.65757 -0.42450393 0)
(151.03721 -0.43760373 0)
(151.43147 -0.45329703 0)
(151.84274 -0.47131365 0)
(152.27325 -0.49120816 0)
(152.72469 -0.5123682 0)
(153.19805 -0.53401276 0)
(153.69345 -0.55519008 0)
(154.20997 -0.5747856 0)
(154.74545 -0.59154667 0)
(155.29642 -0.60412902 0)
(155.85798 -0.61116541 0)
(156.42386 -0.61134984 0)
(156.98649 -0.60352183 0)
(157.53723 -0.58673246 0)
(158.06661 -0.56027878 0)
(158.56457 -0.52370485 0)
(159.02074 -0.4767812 0)
(159.42461 -0.41948194 0)
(159.76575 -0.35197971 0)
(160.03394 -0.27467466 0)
(160.21946 -0.18826836 0)
(160.31342 -0.093879737 0)
(160.30827 0.0068423992 0)
(160.19841 0.11165573 0)
(159.9817 0.21748263 0)
(159.65886 0.3205109 0)
(159.23464 0.41654546 0)
(158.71822 0.50139081 0)
(158.12298 0.57135639 0)
(157.46572 0.62373498 0)
(156.76534 0.65710774 0)
(156.04146 0.67140749 0)
(155.31301 0.66775891 0)
(154.59715 0.64817187 0)
(153.90861 0.61518015 0)
(153.25934 0.5715023 0)
(152.65849 0.51977148 0)
(152.11272 0.46234994 0)
(151.62645 0.4012256 0)
(151.20242 0.33800143 0)
(150.84201 0.27399593 0)
(150.54554 0.2102675 0)
(150.31218 0.14710519 0)
(150.14086 0.084344804 0)
(150.03531 0.028580534 0)
(149.73741 -0.62938631 0)
(150.1916 -0.63856334 0)
(150.52688 -0.65071317 0)
(150.88502 -0.66770408 0)
(151.25284 -0.68938483 0)
(151.63542 -0.71553322 0)
(152.03525 -0.74563967 0)
(152.45472 -0.77894542 0)
(152.89562 -0.81442834 0)
(153.35909 -0.85078695 0)
(153.84542 -0.88643141 0)
(154.35383 -0.9194935 0)
(154.88232 -0.94786584 0)
(155.42754 -0.96927931 0)
(155.98464 -0.98142046 0)
(156.54734 -0.98207788 0)
(157.10802 -0.96929042 0)
(157.65793 -0.94146284 0)
(158.1875 -0.89742383 0)
(158.68657 -0.83642279 0)
(159.14468 -0.75808687 0)
(159.55123 -0.66237345 0)
(159.89567 -0.54955495 0)
(160.16763 -0.42026517 0)
(160.3571 -0.27562645 0)
(160.45478 -0.11746092 0)
(160.45261 0.051458816 0)
(160.34435 0.22724858 0)
(160.12638 0.40485069 0)
(159.79876 0.57802499 0)
(159.36596 0.73967215 0)
(158.83739 0.88259527 0)
(158.2271 1.0004367 0)
(157.5529 1.088543 0)
(156.8349 1.1445087 0)
(156.09387 1.1682776 0)
(155.34966 1.1618456 0)
(154.62009 1.1287096 0)
(153.92019 1.0732305 0)
(153.26196 1.000045 0)
(152.6544 0.91360521 0)
(152.10385 0.81786886 0)
(151.61442 0.71613304 0)
(151.18849 0.61100822 0)
(150.82718 0.50451206 0)
(150.53034 0.39807261 0)
(150.29671 0.29220437 0)
(150.12702 0.18720521 0)
(150.02928 0.087413735 0)
(149.82995 -0.85839949 0)
(150.27621 -0.86817677 0)
(150.60689 -0.88442546 0)
(150.96021 -0.907967 0)
(151.32345 -0.93841299 0)
(151.70181 -0.97531282 0)
(152.09795 -1.0179237 0)
(152.51445 -1.0651888 0)
(152.95334 -1.115695 0)
(153.41599 -1.1676364 0)
(153.90291 -1.2187934 0)
(154.41355 -1.2665389 0)
(154.94608 -1.3078889 0)
(155.49724 -1.3396093 0)
(156.06218 -1.3583856 0)
(156.63448 -1.3610412 0)
(157.20627 -1.344762 0)
(157.7685 -1.3072722 0)
(158.31123 -1.2469179 0)
(158.82399 -1.162653 0)
(159.29602 -1.0539603 0)
(159.71648 -0.92076401 0)
(160.07452 -0.76339233 0)
(160.35944 -0.58263288 0)
(160.56073 -0.37991148 0)
(160.66843 -0.15760112 0)
(160.67361 0.080587874 0)
(160.56906 0.32929107 0)
(160.35011 0.58129226 0)
(160.01599 0.82757293 0)
(159.57082 1.0577898 0)
(159.02426 1.2613623 0)
(158.39143 1.4289065 0)
(157.69176 1.553585 0)
(156.94727 1.6319434 0)
(156.18052 1.6640434 0)
(155.41285 1.652975 0)
(154.66303 1.6039935 0)
(153.94657 1.5235498 0)
(153.2755 1.4184185 0)
(152.65854 1.2950339 0)
(152.10158 1.1590606 0)
(151.60818 1.0151816 0)
(151.1802 0.86707244 0)
(150.81825 0.71749205 0)
(150.52164 0.56832251 0)
(150.28881 0.42059218 0)
(150.12121 0.27534736 0)
(150.02715 0.13502552 0)
(149.93893 -1.0819372 0)
(150.37712 -1.0932595 0)
(150.70247 -1.113727 0)
(151.05042 -1.1439359 0)
(151.40864 -1.1833267 0)
(151.78247 -1.2312598 0)
(152.17478 -1.2867723 0)
(152.58841 -1.3485194 0)
(153.02567 -1.4147044 0)
(153.48823 -1.4830183 0)
(153.97693 -1.5506004 0)
(154.49151 -1.6140369 0)
(155.0304 -1.6694175 0)
(155.59046 -1.7124703 0)
(156.1668 -1.7387909 0)
(156.75282 -1.7441479 0)
(157.3403 -1.7248049 0)
(157.91972 -1.6777735 0)
(158.48067 -1.6009268 0)
(159.01221 -1.4929621 0)
(159.50323 -1.3532635 0)
(159.94255 -1.181752 0)
(160.31902 -0.97880653 0)
(160.62151 -0.7453201 0)
(160.83893 -0.48293392 0)
(160.96045 -0.19445987 0)
(160.97599 0.11556506 0)
(160.87698 0.44040056 0)
(160.65723 0.77074669 0)
(160.3147 1.094628 0)
(159.85286 1.3980292 0)
(159.28172 1.6664084 0)
(158.61785 1.8867964 0)
(157.88306 2.0498028 0)
(157.10208 2.1508348 0)
(156.30009 2.1902413 0)
(155.50046 2.1725422 0)
(154.72326 2.1051421 0)
(153.98459 1.9969388 0)
(153.29645 1.857114 0)
(152.66713 1.6942469 0)
(152.10183 1.5157714 0)
(151.60332 1.3277332 0)
(151.17272 1.1347775 0)
(150.80994 0.94026386 0)
(150.51371 0.74638633 0)
(150.28219 0.55444145 0)
(150.11706 0.36561698 0)
(150.02586 0.18119226 0)
(150.07651 -1.3029351 0)
(150.50473 -1.3162943 0)
(150.82325 -1.3411675 0)
(151.16438 -1.3782662 0)
(151.51625 -1.4269262 0)
(151.88432 -1.4863759 0)
(152.27175 -1.5554709 0)
(152.68165 -1.6326127 0)
(153.11672 -1.7156492 0)
(153.57901 -1.8017852 0)
(154.0698 -1.8875185 0)
(154.58923 -1.9686218 0)
(155.13604 -2.0401974 0)
(155.70729 -2.0968375 0)
(156.29811 -2.1329187 0)
(156.90162 -2.1430166 0)
(157.50911 -2.1223584 0)
(158.11046 -2.0671803 0)
(158.69458 -1.9748777 0)
(159.25 -1.8439259 0)
(159.76511 -1.6736521 0)
(160.22838 -1.4639855 0)
(160.62834 -1.21531 0)
(160.95339 -0.92850744 0)
(161.19175 -0.60524937 0)
(161.33152 -0.24855899 0)
(161.36111 0.13641441 0)
(161.27016 0.54164201 0)
(161.05036 0.95565201 0)
(160.69782 1.3632272 0)
(160.21492 1.746077 0)
(159.61205 2.084863 0)
(158.90777 2.362212 0)
(158.12712 2.565653 0)
(157.29868 2.6893588 0)
(156.45114 2.7342594 0)
(155.61058 2.7068384 0)
(154.79876 2.6172545 0)
(154.0324 2.4773985 0)
(153.32335 2.2992791 0)
(152.6792 2.093898 0)
(152.10416 1.870607 0)
(151.59994 1.6368616 0)
(151.16662 1.398251 0)
(150.80317 1.1586714 0)
(150.50754 0.92055094 0)
(150.27748 0.68523033 0)
(150.11443 0.453539 0)
(150.02513 0.22567267 0)
(150.24334 -1.5148939 0)
(150.66001 -1.5305855 0)
(150.9702 -1.5601323 0)
(151.30294 -1.6044553 0)
(151.64693 -1.6628162 0)
(152.00782 -1.7343551 0)
(152.38906 -1.8177859 0)
(152.79413 -1.9112943 0)
(153.22617 -2.0124064 0)
(153.68774 -2.1178632 0)
(154.18064 -2.2235231 0)
(154.70556 -2.3243157 0)
(155.26168 -2.4142841 0)
(155.84634 -2.4867629 0)
(156.4547 -2.5347439 0)
(157.07954 -2.5514303 0)
(157.71154 -2.5308694 0)
(158.33972 -2.4684582 0)
(158.95215 -2.3611423 0)
(159.53661 -2.207268 0)
(160.08099 -2.006211 0)
(160.57339 -1.7579751 0)
(161.002 -1.4629365 0)
(161.35482 -1.1218507 0)
(161.61932 -0.73619998 0)
(161.78233 -0.30891884 0)
(161.83042 0.1545497 0)
(161.75088 0.64514871 0)
(161.5325 1.1493422 0)
(161.1687 1.6483567 0)
(160.66019 2.1188249 0)
(160.0176 2.5354215 0)
(159.26209 2.8751653 0)
(158.42321 3.1217315 0)
(157.53469 3.2679271 0)
(156.62999 3.3156918 0)
(155.73868 3.2742187 0)
(154.88454 3.1572273 0)
(154.08491 2.9802945 0)
(153.35125 2.7587535 0)
(152.69012 2.506322 0)
(152.10436 2.2343959 0)
(151.59425 1.9518472 0)
(151.15854 1.6651474 0)
(150.79505 1.3786513 0)
(150.50078 1.0949553 0)
(150.27284 0.8153571 0)
(150.11214 0.54028859 0)
(150.02456 0.26916621 0)
(150.43877 -1.7254014 0)
(150.84136 -1.7434424 0)
(151.14159 -1.7776844 0)
(151.46428 -1.8293392 0)
(151.7988 -1.8976448 0)
(152.15098 -1.9817081 0)
(152.5246 -2.0801584 0)
(152.9236 -2.1910243 0)
(153.35161 -2.3115642 0)
(153.81184 -2.4380972 0)
(154.30673 -2.5658581 0)
(154.83767 -2.6889093 0)
(155.40445 -2.8001536 0)
(156.00482 -2.8915139 0)
(156.63399 -2.9543726 0)
(157.28437 -2.9803045 0)
(157.94579 -2.9619634 0)
(158.60616 -2.8938061 0)
(159.25242 -2.7723619 0)
(159.87146 -2.5959757 0)
(160.45054 -2.3642168 0)
(160.97745 -2.0772522 0)
(161.44019 -1.7354301 0)
(161.8264 -1.3392212 0)
(162.12283 -0.88961595 0)
(162.31492 -0.38904237 0)
(162.38698 0.15722429 0)
(162.32335 0.73945189 0)
(162.10894 1.3421637 0)
(161.73336 1.942717 0)
(161.19459 2.5116426 0)
(160.50328 3.0159633 0)
(159.68398 3.4253534 0)
(158.77234 3.7185449 0)
(157.80918 3.8868679 0)
(156.83421 3.9339703 0)
(155.88146 3.8728657 0)
(154.977 3.7219762 0)
(154.13869 3.5014975 0)
(153.37719 3.2307199 0)
(152.6975 2.9264208 0)
(152.10061 2.6021537 0)
(151.58495 2.2681636 0)
(151.14761 1.9316682 0)
(150.78497 1.5973052 0)
(150.49295 1.2676441 0)
(150.26784 0.94373442 0)
(150.10983 0.6255116 0)
(150.02402 0.31173425 0)
(150.6622 -1.9210203 0)
(151.0492 -1.9416485 0)
(151.33789 -1.9809909 0)
(151.64881 -2.040539 0)
(151.97211 -2.1195212 0)
(152.31384 -2.2170587 0)
(152.67818 -2.3317553 0)
(153.06954 -2.4615486 0)
(153.49219 -2.603495 0)
(153.95006 -2.7535451 0)
(154.44645 -2.9063348 0)
(154.98358 -3.0550374 0)
(155.56209 -3.1913217 0)
(156.18032 -3.3055075 0)
(156.83363 -3.3870705 0)
(157.51398 -3.4256039 0)
(158.21008 -3.4120692 0)
(158.90837 -3.3398551 0)
(159.5943 -3.205155 0)
(160.25361 -3.0065396 0)
(160.87294 -2.744028 0)
(161.43984 -2.4181265 0)
(161.9423 -2.0291812 0)
(162.36783 -1.5772115 0)
(162.7026 -1.062343 0)
(162.93054 -0.4859453 0)
(163.03334 0.14752097 0)
(162.99169 0.82825309 0)
(162.78535 1.5392428 0)
(162.39848 2.2537366 0)
(161.82484 2.9348838 0)
(161.07446 3.5397078 0)
(160.17632 4.0279727 0)
(159.17446 4.3718809 0)
(158.11935 4.5612016 0)
(157.05901 4.6023717 0)
(156.03298 4.5138262 0)
(155.0699 4.3202424 0)
(154.18777 4.0476298 0)
(153.39582 3.7199896 0)
(152.69681 3.3575255 0)
(152.08924 2.9760349 0)
(151.56919 2.5870495 0)
(151.13168 2.1983625 0)
(150.77141 1.8146967 0)
(150.483 1.4383928 0)
(150.2618 1.0700612 0)
(150.10717 0.70902232 0)
(150.02341 0.35333281 0)
(150.91342 -2.1185395 0)
(151.28151 -2.141632 0)
(151.5568 -2.1859237 0)
(151.85405 -2.253275 0)
(152.16426 -2.342968 0)
(152.49366 -2.4542057 0)
(152.84685 -2.5856477 0)
(153.2288 -2.7352338 0)
(153.64448 -2.8999172 0)
(154.0987 -3.0753689 0)
(154.59579 -3.2556875 0)
(155.13907 -3.4331643 0)
(155.73026 -3.5981564 0)
(156.36856 -3.7391708 0)
(157.04967 -3.8434066 0)
(157.76498 -3.8979988 0)
(158.50178 -3.8917999 0)
(159.24447 -3.8169569 0)
(159.97653 -3.6694656 0)
(160.68225 -3.4484735 0)
(161.34759 -3.1548303 0)
(161.96009 -2.7896357 0)
(162.50803 -2.3532766 0)
(162.97918 -1.8451082 0)
(163.35937 -1.2638957 0)
(163.6311 -0.60920491 0)
(163.77305 0.11622391 0)
(163.7615 0.903428 0)
(163.56947 1.7345267 0)
(163.17344 2.5786257 0)
(162.56055 3.3899857 0)
(161.73909 4.1123397 0)
(160.74373 4.6917195 0)
(159.63021 5.0914815 0)
(158.46231 5.299884 0)
(157.29902 5.3278809 0)
(156.18665 5.2016785 0)
(155.15644 4.9543307 0)
(154.22587 4.6191744 0)
(153.40177 4.2257812 0)
(152.6837 3.7981156 0)
(152.0669 3.3542047 0)
(151.54448 2.9066606 0)
(151.10898 2.4635683 0)
(150.75314 2.0294443 0)
(150.47013 1.6061351 0)
(150.25423 1.1935955 0)
(150.1039 0.79039376 0)
(150.02268 0.39378343 0)
(151.19052 -2.2908949 0)
(151.53868 -2.3165823 0)
(151.79896 -2.3662101 0)
(152.08069 -2.4419703 0)
(152.37584 -2.5432147 0)
(152.69087 -2.6692934 0)
(153.03083 -2.8190135 0)
(153.40127 -2.9904281 0)
(153.80796 -3.1805095 0)
(154.25676 -3.3847668 0)
(154.75322 -3.596847 0)
(155.30205 -3.8081847 0)
(155.90642 -4.0077454 0)
(156.56676 -4.1819684 0)
(157.27934 -4.3152733 0)
(158.035 -4.3916363 0)
(158.8191 -4.3971499 0)
(159.61328 -4.3224275 0)
(160.39834 -4.1634574 0)
(161.15672 -3.920492 0)
(161.87373 -3.5957897 0)
(162.53722 -3.1914466 0)
(163.13627 -2.7080234 0)
(163.65947 -2.1440269 0)
(164.0928 -1.4963033 0)
(164.41752 -0.76168335 0)
(164.60903 0.060015141 0)
(164.63841 0.96204151 0)
(164.46996 1.9268128 0)
(164.06947 2.9196521 0)
(163.41369 3.8843269 0)
(162.50703 4.7466576 0)
(161.39151 5.4331095 0)
(160.13941 5.8947099 0)
(158.83315 6.1185579 0)
(157.54626 6.1228888 0)
(156.33318 5.9451306 0)
(155.2274 5.6295904 0)
(154.2447 5.2188112 0)
(153.3881 4.7488681 0)
(152.6527 4.2477344 0)
(152.02945 3.7355072 0)
(151.50782 3.2255267 0)
(151.07742 2.7257646 0)
(150.72878 2.2401478 0)
(150.45347 1.7696994 0)
(150.24464 1.3134608 0)
(150.09983 0.86906719 0)
(150.02177 0.43282079 0)
(151.495 -2.4738109 0)
(151.8188 -2.5021724 0)
(152.06188 -2.5570971 0)
(152.32587 -2.64122 0)
(152.6037 -2.7540407 0)
(152.90199 -2.8951376 0)
(153.22621 -3.0635704 0)
(153.58256 -3.2576371 0)
(153.9777 -3.4744827 0)
(154.41869 -3.709614 0)
(154.91255 -3.9563623 0)
(155.46575 -4.2053797 0)
(156.08333 -4.4442068 0)
(156.76752 -4.6569691 0)
(157.51563 -4.8247066 0)
(158.31795 -4.9272995 0)
(159.15731 -4.9471733 0)
(160.01151 -4.8730459 0)
(160.85757 -4.7013031 0)
(161.67558 -4.4342236 0)
(162.45022 -4.076435 0)
(163.17013 -3.6316694 0)
(163.82594 -3.1008809 0)
(164.40785 -2.4815105 0)
(164.90277 -1.7677403 0)
(165.29119 -0.95235018 0)
(165.54519 -0.030526199 0)
(165.62893 0.99510453 0)
(165.49753 2.1089886 0)
(165.10112 3.2741168 0)
(164.40037 4.4222732 0)
(163.39184 5.4549262 0)
(162.12683 6.2698804 0)
(160.70162 6.8004424 0)
(159.22514 7.0336066 0)
(157.79022 6.999367 0)
(156.46075 6.751476 0)
(155.27147 6.3493574 0)
(154.23446 5.8470125 0)
(153.3469 5.2879257 0)
(152.59774 4.7041171 0)
(151.97246 4.1173411 0)
(151.4561 3.5410922 0)
(151.0349 2.9826574 0)
(150.69697 2.4448801 0)
(150.4322 1.927566 0)
(150.23259 1.4285514 0)
(150.09477 0.94433427 0)
(150.02066 0.47010117 0)
(151.82146 -2.6140996 0)
(152.12076 -2.6446955 0)
(152.34508 -2.7047376 0)
(152.58941 -2.797245 0)
(152.84781 -2.9218878 0)
(153.12704 -3.0785674 0)
(153.43302 -3.266737 0)
(153.77257 -3.4851254 0)
(154.15334 -3.7312764 0)
(154.58374 -4.0009456 0)
(155.07255 -4.2873857 0)
(155.62836 -4.5806427 0)
(156.25865 -4.8668935 0)
(156.96822 -5.1277555 0)
(157.75613 -5.3401639 0)
(158.61229 -5.4785537 0)
(159.51615 -5.5202254 0)
(160.44003 -5.4513005 0)
(161.35566 -5.269013 0)
(162.23998 -4.9788803 0)
(163.07727 -4.589109 0)
(163.85778 -4.1057633 0)
(164.57475 -3.5303601 0)
(165.22124 -2.8590328 0)
(165.78628 -2.0825153 0)
(166.25044 -1.1880151 0)
(166.58256 -0.16399682 0)
(166.73935 0.99328441 0)
(166.66423 2.2730196 0)
(166.2865 3.6387955 0)
(165.54186 5.0097434 0)
(164.41169 6.2541908 0)
(162.95881 7.2267668 0)
(161.31517 7.8343488 0)
(159.62818 8.0664387 0)
(158.01628 7.9720941 0)
(156.55373 7.6289757 0)
(155.2743 7.1167349 0)
(154.18321 6.503402 0)
(153.26888 5.8405738 0)
(152.51197 5.1639701 0)
(151.89107 4.4962125 0)
(151.38601 3.8500788 0)
(150.97926 3.2313948 0)
(150.65637 2.6412999 0)
(150.40553 2.0779192 0)
(150.21767 1.5375569 0)
(150.08855 1.0153532 0)
(150.01929 0.50521324 0)
(152.17466 -2.7815498 0)
(152.44372 -2.8152893 0)
(152.64675 -2.8811881 0)
(152.86888 -2.9827782 0)
(153.10515 -3.1199972 0)
(153.36234 -3.2931717 0)
(153.64672 -3.5022836 0)
(153.96576 -3.7466662 0)
(154.32812 -4.0244815 0)
(154.74371 -4.3319886 0)
(155.22339 -4.6626091 0)
(155.77832 -5.0059639 0)
(156.41917 -5.3469375 0)
(157.15433 -5.6644414 0)
(157.9859 -5.9303766 0)
(158.9039 -6.1117468 0)
(159.88337 -6.1784192 0)
(160.8888 -6.1128266 0)
(161.88428 -5.9139495 0)
(162.84253 -5.5928042 0)
(163.74785 -5.1635028 0)
(164.59326 -4.6359491 0)
(165.37595 -4.012944 0)
(166.09326 -3.2895026 0)
(166.73802 -2.4522772 0)
(167.2922 -1.4809346 0)
(167.72181 -0.35409641 0)
(167.97572 0.94194999 0)
(167.98396 2.405254 0)
(167.6486 4.0054321 0)
(166.86699 5.6507525 0)
(165.59198 7.1649708 0)
(163.89972 8.3359121 0)
(161.97665 9.0292178 0)
(160.02752 9.2429919 0)
(158.20442 9.0573492 0)
(156.59183 8.5851763 0)
(155.21815 7.932931 0)
(154.07683 7.1853478 0)
(153.14355 6.4023086 0)
(152.38796 5.6222327 0)
(151.78027 4.8672679 0)
(151.29427 4.1482179 0)
(150.90845 3.4684332 0)
(150.60573 2.8265984 0)
(150.37276 2.2186347 0)
(150.19952 1.6389684 0)
(150.08103 1.0811613 0)
(150.01763 0.53768729 0)
(152.54179 -2.8797615 0)
(152.7815 -2.914899 0)
(152.96175 -2.9850327 0)
(153.1597 -3.0940837 0)
(153.37158 -3.2422477 0)
(153.60414 -3.4303612 0)
(153.86395 -3.6590941 0)
(154.15908 -3.9286283 0)
(154.49923 -4.2380896 0)
(154.89596 -4.5846967 0)
(155.3625 -4.9625614 0)
(155.91311 -5.3613845 0)
(156.56242 -5.7652203 0)
(157.32386 -6.1505599 0)
(158.20443 -6.4836415 0)
(159.19535 -6.7216244 0)
(160.26577 -6.8236248 0)
(161.36861 -6.7667738 0)
(162.45653 -6.5532347 0)
(163.49637 -6.2028151 0)
(164.47311 -5.7384364 0)
(165.38447 -5.1748879 0)
(166.23357 -4.515846 0)
(167.02417 -3.754311 0)
(167.7555 -2.8713763 0)
(168.41346 -1.8363147 0)
(168.96243 -0.61396103 0)
(169.34326 0.8233223 0)
(169.47198 2.4868262 0)
(169.21627 4.3601245 0)
(168.41527 6.3471771 0)
(166.969 8.2137402 0)
(164.96626 9.6418551 0)
(162.67949 10.429047 0)
(160.40121 10.59593 0)
(158.32695 10.273408 0)
(156.5486 9.6265244 0)
(155.08116 8.7966157 0)
(153.89884 7.8873909 0)
(152.95927 6.9661088 0)
(152.21794 6.0718508 0)
(151.63504 5.2241893 0)
(151.17781 4.4302208 0)
(150.82062 3.6895461 0)
(150.54402 2.9975243 0)
(150.33333 2.3473101 0)
(150.17788 1.731107 0)
(150.07212 1.1406978 0)
(150.01568 0.56700768 0)
(152.93699 -3.031019 0)
(153.14049 -3.0701056 0)
(153.2954 -3.146817 0)
(153.46663 -3.2656416 0)
(153.65133 -3.4272071 0)
(153.85596 -3.6330643 0)
(154.08724 -3.8848255 0)
(154.35367 -4.183834 0)
(154.6659 -4.5305684 0)
(155.03717 -4.9236886 0)
(155.48336 -5.3585233 0)
(156.02234 -5.8252897 0)
(156.67357 -6.3075389 0)
(157.45733 -6.7795515 0)
(158.38861 -7.2009425 0)
(159.46218 -7.5149402 0)
(160.63976 -7.6635317 0)
(161.85718 -7.6146462 0)
(163.05012 -7.3750389 0)
(164.17745 -6.9781706 0)
(165.22672 -6.4605669 0)
(166.20367 -5.8442185 0)
(167.11995 -5.1345586 0)
(167.98787 -4.3240199 0)
(168.81601 -3.3897971 0)
(169.59715 -2.2901244 0)
(170.29524 -0.97235307 0)
(170.84292 0.61047083 0)
(171.14348 2.4900456 0)
(171.025 4.6786076 0)
(170.24134 7.0943951 0)
(168.59608 9.4335841 0)
(166.18202 11.207676 0)
(163.41156 12.093501 0)
(160.71649 12.166114 0)
(158.34554 11.639632 0)
(156.38986 10.75659 0)
(154.83681 9.7022049 0)
(153.63054 8.5999647 0)
(152.7037 7.5216262 0)
(151.99418 6.5033375 0)
(151.4508 5.5589991 0)
(151.034 4.6897244 0)
(150.71437 3.8898413 0)
(150.4705 3.1504297 0)
(150.2869 2.461315 0)
(150.1526 1.8121674 0)
(150.06175 1.1928351 0)
(150.01342 0.59262925 0)
(153.33169 -3.0767695 0)
(153.50077 -3.1159953 0)
(153.62881 -3.1953777 0)
(153.77113 -3.3197678 0)
(153.92598 -3.4901006 0)
(154.09945 -3.7085867 0)
(154.29826 -3.9777795 0)
(154.53125 -4.3002664 0)
(154.80991 -4.6781071 0)
(155.14926 -5.1118729 0)
(155.56813 -5.598853 0)
(156.08865 -6.130653 0)
(156.73607 -6.6913117 0)
(157.53975 -7.2543585 0)
(158.52738 -7.7735504 0)
(159.70187 -8.1743706 0)
(161.0158 -8.3732631 0)
(162.37891 -8.3244721 0)
(163.70025 -8.0441515 0)
(164.92682 -7.5894338 0)
(166.05121 -7.019421 0)
(167.09179 -6.3662935 0)
(168.07133 -5.6360298 0)
(169.0124 -4.8189479 0)
(169.93702 -3.8864669 0)
(170.85094 -2.7790992 0)
(171.72204 -1.4149529 0)
(172.47717 0.2839794 0)
(173.01212 2.3776149 0)
(173.11573 4.9213367 0)
(172.4203 7.8764024 0)
(170.55374 10.866606 0)
(167.58158 13.127268 0)
(164.15061 14.105397 0)
(160.92371 14.004705 0)
(158.20685 13.174866 0)
(156.07174 11.973494 0)
(154.45369 10.637655 0)
(153.25145 9.3079374 0)
(152.36449 8.0543931 0)
(151.70971 6.904433 0)
(151.22386 5.8619788 0)
(150.86106 4.9193356 0)
(150.58892 4.0638516 0)
(150.38491 3.2813663 0)
(150.23339 2.5578747 0)
(150.12367 1.8802818 0)
(150.04994 1.2364221 0)
(150.01084 0.61399898 0)
(153.75569 -3.2104714 0)
(153.88268 -3.2553752 0)
(153.98162 -3.3424049 0)
(154.09297 -3.476994 0)
(154.21568 -3.6606491 0)
(154.35513 -3.8966342 0)
(154.51778 -4.1889781 0)
(154.71245 -4.5422236 0)
(154.95114 -4.9609466 0)
(155.25025 -5.4488792 0)
(155.6316 -6.0068659 0)
(156.12187 -6.629519 0)
(156.75256 -7.3027055 0)
(157.56411 -8.0010318 0)
(158.60358 -8.6739196 0)
(159.89065 -9.2229657 0)
(161.36789 -9.5216444 0)
(162.90483 -9.4971767 0)
(164.36886 -9.1778228 0)
(165.69028 -8.6552115 0)
(166.87311 -8.0208682 0)
(167.95829 -7.3169504 0)
(168.9852 -6.5443048 0)
(169.98912 -5.6890645 0)
(171.01172 -4.7215978 0)
(172.08121 -3.5676285 0)
(173.17386 -2.1154982 0)
(174.20831 -0.25766572 0)
(175.06619 2.0891509 0)
(175.52434 5.0320568 0)
(175.04922 8.6559805 0)
(172.96251 12.558827 0)
(169.2155 15.541375 0)
(164.85468 16.579536 0)
(160.94682 16.174525 0)
(157.83668 14.893683 0)
(155.53883 13.265526 0)
(153.89572 11.581242 0)
(152.74048 9.9887605 0)
(151.93042 8.5449817 0)
(151.35921 7.2598573 0)
(150.95215 6.1217118 0)
(150.65849 5.1107839 0)
(150.44443 4.2057064 0)
(150.28758 3.3862368 0)
(150.17313 2.6341887 0)
(150.0913 1.9336059 0)
(150.03677 1.2703388 0)
(150.00798 0.63058271 0)
(154.13603 -3.1946262 0)
(154.2223 -3.2378275 0)
(154.29031 -3.3244415 0)
(154.36797 -3.4608115 0)
(154.45495 -3.6489941 0)
(154.55568 -3.8931993 0)
(154.67602 -4.1987153 0)
(154.82441 -4.5717342 0)
(155.0129 -5.0189793 0)
(155.25895 -5.5470622 0)
(155.58746 -6.1604654 0)
(156.03051 -6.8571485 0)
(156.62666 -7.6249913 0)
(157.42953 -8.4414383 0)
(158.51552 -9.2566006 0)
(159.93805 -9.9450775 0)
(161.63215 -10.313306 0)
(163.40413 -10.243847 0)
(165.05383 -9.7924507 0)
(166.48632 -9.1123725 0)
(167.72719 -8.3536927 0)
(168.85521 -7.5751016 0)
(169.93062 -6.7697472 0)
(170.99649 -5.9227862 0)
(172.11527 -5.0184119 0)
(173.34766 -3.9702857 0)
(174.68406 -2.6196038 0)
(176.03284 -0.79610299 0)
(177.28227 1.6460926 0)
(178.24497 4.9154653 0)
(178.215 9.327384 0)
(175.98298 14.53505 0)
(171.15291 18.674761 0)
(165.44355 19.685635 0)
(160.66921 18.753487 0)
(157.13224 16.799776 0)
(154.72271 14.604296 0)
(153.12358 12.497221 0)
(152.07795 10.610393 0)
(151.39325 8.9683293 0)
(150.94035 7.5513214 0)
(150.63596 6.3253521 0)
(150.42751 5.2552372 0)
(150.28221 4.3094099 0)
(150.1796 3.4610115 0)
(150.10684 2.6875879 0)
(150.05591 1.9704246 0)
(150.02242 1.293562 0)
(150.00486 0.64189665 0)
(154.44917 -3.3021823 0)
(154.4855 -3.3566162 0)
(154.51864 -3.4544985 0)
(154.55832 -3.6032528 0)
(154.60485 -3.8053832 0)
(154.66134 -4.0661822 0)
(154.73282 -4.3925099 0)
(154.82705 -4.7928678 0)
(154.95554 -5.2773411 0)
(155.13602 -5.8575623 0)
(155.39581 -6.5453959 0)
(155.77238 -7.3476502 0)
(156.31054 -8.2599951 0)
(157.07558 -9.2696995 0)
(158.18308 -10.341457 0)
(159.74866 -11.32772 0)
(161.70927 -11.924352 0)
(163.76876 -11.918971 0)
(165.61609 -11.407347 0)
(167.11975 -10.628236 0)
(168.34695 -9.8216402 0)
(169.44317 -9.0579135 0)
(170.49709 -8.2999188 0)
(171.5503 -7.5093691 0)
(172.69257 -6.68675 0)
(174.04806 -5.7211317 0)
(175.64974 -4.3715005 0)
(177.40805 -2.3762195 0)
(179.22604 0.47495231 0)
(181.00096 4.3266349 0)
(181.86787 9.7700813 0)
(179.76963 16.835875 0)
(173.45904 22.958824 0)
(165.74646 23.683926 0)
(159.90419 21.828232 0)
(155.95015 18.86959 0)
(153.54168 15.933048 0)
(152.09817 13.330037 0)
(151.24923 11.129244 0)
(150.75032 9.2935161 0)
(150.45538 7.7579904 0)
(150.27891 6.459223 0)
(150.17159 5.3438263 0)
(150.10503 4.3692392 0)
(150.06289 3.5020105 0)
(150.03575 2.715725 0)
(150.01815 1.9892756 0)
(150.00716 1.3052384 0)
(150.00155 0.64754209 0)
(154.3853 -3.2263545 0)
(154.36102 -3.27629 0)
(154.35207 -3.3655991 0)
(154.34546 -3.5056069 0)
(154.34206 -3.7001076 0)
(154.34311 -3.9560108 0)
(154.35199 -4.2821635 0)
(154.37462 -4.6897772 0)
(154.42046 -5.1926087 0)
(154.50525 -5.8073806 0)
(154.65643 -6.5533734 0)
(154.91612 -7.4463026 0)
(155.33496 -8.4869825 0)
(155.98628 -9.6663135 0)
(157.03623 -10.969622 0)
(158.718 -12.239066 0)
(161.00748 -12.990365 0)
(163.44203 -12.819299 0)
(165.5244 -11.932097 0)
(167.06685 -10.721765 0)
(168.21024 -9.6088226 0)
(169.2201 -8.6683221 0)
(170.23024 -7.7970126 0)
(171.25936 -6.8996437 0)
(172.42042 -6.0541451 0)
(173.93749 -5.1961319 0)
(175.9035 -4.0103047 0)
(178.21012 -2.1967966 0)
(180.68137 0.51384341 0)
(183.37351 4.01505 0)
(185.59558 9.8510139 0)
(184.21842 19.141165 0)
(175.99469 28.862655 0)
(165.32563 28.721154 0)
(158.34141 25.418829 0)
(154.09603 21.018259 0)
(151.90623 17.149367 0)
(150.78834 13.997854 0)
(150.25051 11.488956 0)
(150.0081 9.4845449 0)
(149.913 7.8576847 0)
(149.88886 6.5098642 0)
(149.8968 5.3684134 0)
(149.91719 4.3802672 0)
(149.94031 3.5062438 0)
(149.96157 2.7167906 0)
(149.97892 1.9890819 0)
(149.99135 1.3047616 0)
(149.99812 0.64724073 0)
(153.47559 -3.25608 0)
(153.37703 -3.3298026 0)
(153.30976 -3.4386166 0)
(153.2368 -3.5987322 0)
(153.16064 -3.8142376 0)
(153.08015 -4.0929417 0)
(152.99645 -4.444638 0)
(152.91276 -4.8819534 0)
(152.8354 -5.4208195 0)
(152.77654 -6.0815117 0)
(152.76197 -6.8903978 0)
(152.83883 -7.8763672 0)
(153.06512 -9.0553077 0)
(153.51254 -10.434017 0)
(154.39396 -12.056971 0)
(156.14047 -13.846215 0)
(158.84957 -15.09444 0)
(161.75857 -14.97819 0)
(164.04104 -13.952251 0)
(165.4345 -12.55902 0)
(166.22803 -11.4919 0)
(166.92101 -10.75587 0)
(167.71735 -10.149462 0)
(168.53752 -9.4730787 0)
(169.45585 -9.018248 0)
(170.86712 -8.8484267 0)
(172.96929 -8.2921588 0)
(175.65781 -7.042959 0)
(178.57218 -4.4765916 0)
(182.42928 -0.72732524 0)
(187.1584 7.2307369 0)
(188.24556 20.228442 0)
(177.92812 36.681 0)
(163.24698 34.96917 0)
(155.5947 29.536014 0)
(151.35119 23.102762 0)
(149.73667 18.092271 0)
(149.1848 14.388245 0)
(149.09723 11.621612 0)
(149.18648 9.5029348 0)
(149.33031 7.8291508 0)
(149.47858 6.4656227 0)
(149.61204 5.322607 0)
(149.72459 4.3389817 0)
(149.81557 3.4717837 0)
(149.88647 2.6897336 0)
(149.93934 1.9692811 0)
(149.97543 1.2918433 0)
(149.99467 0.64086736 0)
(150.27857 -3.1552084 0)
(150.03194 -3.2212835 0)
(149.8606 -3.3059456 0)
(149.6725 -3.4357689 0)
(149.47242 -3.6159702 0)
(149.25553 -3.8553774 0)
(149.01939 -4.1648515 0)
(148.76257 -4.5591636 0)
(148.48544 -5.0583445 0)
(148.19172 -5.6899628 0)
(147.89689 -6.4943544 0)
(147.64239 -7.5276977 0)
(147.48314 -8.8430949 0)
(147.45911 -10.471174 0)
(147.78381 -12.50741 0)
(149.20299 -15.035244 0)
(152.18249 -17.053486 0)
(155.43108 -16.589192 0)
(157.5859 -14.746137 0)
(158.33623 -12.183585 0)
(158.23467 -10.348778 0)
(158.16895 -9.190306 0)
(158.40392 -8.4352447 0)
(158.60255 -7.524931 0)
(158.71881 -7.0239073 0)
(159.6677 -7.0176781 0)
(161.78117 -5.9948769 0)
(164.94968 -4.8736606 0)
(168.68339 -1.956817 0)
(175.0621 4.1667367 0)
(184.04688 12.175411 0)
(189.65396 24.095415 0)
(176.92313 49.62928 0)
(157.54553 45.387746 0)
(150.91436 34.317483 0)
(147.40324 24.793035 0)
(146.95732 18.491081 0)
(147.31608 14.349926 0)
(147.83444 11.45215 0)
(148.32309 9.3129319 0)
(148.73401 7.6556583 0)
(149.06588 6.3187831 0)
(149.32881 5.202953 0)
(149.53445 4.2439402 0)
(149.69303 3.3981231 0)
(149.81295 2.6344602 0)
(149.90068 1.9299344 0)
(149.95989 1.2665714 0)
(149.99131 0.62847563 0)
(143.50981 -2.9197633 0)
(143.1098 -3.0121279 0)
(142.79963 -3.1136547 0)
(142.4514 -3.2632542 0)
(142.07682 -3.4658417 0)
(141.66666 -3.7315554 0)
(141.21287 -4.0727156 0)
(140.70605 -4.5064871 0)
(140.13582 -5.0566376 0)
(139.49023 -5.7558713 0)
(138.76262 -6.6518645 0)
(137.97551 -7.8156073 0)
(137.18232 -9.3206719 0)
(136.39287 -11.177983 0)
(135.76009 -13.444203 0)
(136.50391 -16.540512 0)
(140.14374 -19.656424 0)
(144.25766 -18.174059 0)
(146.43846 -15.446575 0)
(146.26438 -11.967273 0)
(144.63857 -10.768951 0)
(143.25528 -10.900804 0)
(142.63862 -11.37056 0)
(142.04323 -10.885205 0)
(141.16588 -10.369261 0)
(141.99192 -10.532129 9.2157443e-18)
(143.27244 -11.921922 -2.0394866e-19)
(145.57746 -13.589688 0)
(146.66494 -7.4755724 1.001607e-17)
(144.02835 -14.510089 -7.4990617e-18)
(161.53025 -10.135091 4.4273279e-18)
(180.41247 5.4383762 -9.8916344e-18)
(167.93163 72.289458 6.347152e-18)
(142.12824 58.029193 0)
(140.66652 37.126128 0)
(141.63428 24.706903 0)
(143.57067 17.830756 0)
(145.29833 13.692626 0)
(146.55469 10.912837 0)
(147.47727 8.8912966 0)
(148.16032 7.3301329 0)
(148.67269 6.0680636 0)
(149.06042 5.0101255 0)
(149.35481 4.0963408 0)
(149.57745 3.2864544 0)
(149.74366 2.5519713 0)
(149.86425 1.8717957 0)
(149.94526 1.2294446 0)
(149.98814 0.61031276 0)
(129.54779 -2.8692649 0)
(128.76391 -2.9446068 0)
(128.16022 -3.0084423 0)
(127.48596 -3.1099521 0)
(126.76107 -3.2510596 0)
(125.96649 -3.4389382 0)
(125.08406 -3.6815541 0)