/*--------------------------------*- C++ -*----------------------------------*\
| =========                 |                                                 |
| \\      /  F ield         | foam-extend: Open Source CFD                    |
|  \\    /   O peration     | Version:     4.1                                |
|   \\  /    A nd           | Web:         http://www.foam-extend.org         |
|    \\/     M anipulation  |                                                 |
\*---------------------------------------------------------------------------*/
FoamFile
{
    version     2.0;
    format      ascii;
    class       volScalarField;
    location    "0.8";
    object      p;
}
// * * * * * * * * * * * * * * * * * * * * * * * * * * * * * * * * * * * * * //

dimensions      [0 2 -2 0 0 0 0];

internalField   nonuniform List<scalar> 
4393
(
-46.420065
-92.98463
-146.75082
-201.5433
-258.53555
-318.03826
-380.43437
-446.03343
-515.0597
-587.62331
-663.6922
-743.06393
-825.34034
-909.9088
-995.93404
-1082.3634
-1167.9464
-1251.2655
-1330.7737
-1404.8336
-1471.754
-1529.8244
-1577.3504
-1612.6941
-1634.3281
-1640.9092
-1631.3834
-1605.1305
-1562.044
-1502.6239
-1428.0816
-1340.3226
-1241.8413
-1135.5381
-1024.4936
-911.74257
-800.08434
-691.95156
-589.34134
-493.80186
-406.46054
-328.07844
-259.11612
-199.79942
-150.18968
-110.25593
-79.778831
-57.847875
-43.643572
-45.167897
-92.3988
-146.03822
-200.67947
-257.5026
-316.85052
-379.11979
-444.63205
-513.62339
-586.21599
-662.38941
-741.95127
-824.51047
-909.45686
-995.95195
-1082.9341
-1169.1391
-1253.133
-1333.352
-1408.1428
-1475.7993
-1534.5968
-1582.8239
-1618.8212
-1641.0324
-1648.0807
-1638.8767
-1612.7255
-1569.4569
-1509.5641
-1434.2639
-1345.497
-1245.8233
-1138.2291
-1025.8849
-911.90543
-799.15009
-690.0882
-586.73131
-490.62421
-402.87865
-324.23312
-255.12553
-195.76891
-146.21613
-106.37582
-75.977169
-54.878221
-44.280044
-44.363651
-91.502041
-144.77993
-199.06039
-255.5327
-314.56938
-376.58911
-441.93582
-510.86873
-583.53372
-659.93317
-739.89435
-823.0395
-908.7623
-996.21633
-1084.32
-1171.7797
-1257.1269
-1338.7631
-1415.003
-1484.1122
-1544.3376
-1593.9358
-1631.2044
-1654.5262
-1662.4447
-1653.7818
-1627.7598
-1584.1164
-1523.2731
-1446.4412
-1355.6303
-1253.5371
-1143.3264
-1028.355
-911.90046
-796.94261
-686.02113
-581.17163
-483.92638
-395.35951
-316.15788
-246.70557
-187.17194
-137.56638
-97.703526
-67.273401
-46.718462
-37.935928
-43.572923
-90.206277
-142.87618
-196.57813
-252.5064
-311.06216
-372.69291
-437.77453
-506.60106
-579.35489
-656.07422
-736.61774
-820.62979
-907.51158
-996.40551
-1086.1997
-1175.5548
-1262.949
-1346.7307
-1425.1671
-1496.4828
-1558.8861
-1610.5892
-1649.8289
-1674.8999
-1684.2234
-1676.4751
-1650.7259
-1606.5656
-1544.3092
-1465.1545
-1371.2175
-1265.4117
-1151.1868
-1032.1956
-911.97259
-793.68341
-679.97357
-572.91143
-474.00545
-384.2685
-304.30672
-234.42038
-174.70364
-125.09083
-85.306985
-55.03778
-34.949817
-26.805688
-42.747786
-88.588837
-140.40576
-193.30338
-248.48362
-306.37848
-367.47094
-432.17839
-500.84148
-573.69248
-650.81941
-732.12551
-817.2874
-905.71828
-996.54581
-1088.6152
-1180.5221
-1270.6687
-1357.3295
-1438.708
-1512.977
-1578.2983
-1632.8317
-1674.7394
-1702.2033
-1713.4828
-1707.0518
-1681.7606
-1636.9735
-1572.8374
-1490.5165
-1392.2719
-1281.3293
-1161.552
-1037.0194
-911.62978
-788.80522
-671.3298
-561.30617
-460.19883
-368.92735
-287.98113
-217.54146
-157.59327
-107.96925
-68.312178
-38.31531
-18.69894
-10.942526
-41.739203
-86.539622
-137.25716
-189.11946
-243.3373
-300.37787
-360.76693
-424.97366
-493.39831
-566.3383
-643.94803
-726.19162
-812.79153
-903.18009
-996.46729
-1091.4409
-1186.6074
-1280.2658
-1370.5921
-1455.7094
-1533.7297
-1602.7656
-1660.9213
-1706.2757
-1736.8754
-1750.7745
-1746.1791
-1721.6366
-1676.1894
-1609.7293
-1523.3489
-1419.4953
-1301.8263
-1174.7829
-1043.0345
-910.97103
-782.34935
-660.12146
-546.41593
-442.62098
-349.51879
-267.43529
-196.38788
-136.21068
-86.602292
-47.106002
-17.38424
1.8798216
9.418648
-40.597266
-84.129871
-133.49521
-184.07546
-237.09474
-293.06135
-352.55156
-416.09715
-484.17209
-557.15615
-635.28958
-718.61764
-806.92664
-899.679
-995.96518
-1094.4979
-1193.6639
-1291.6239
-1386.4258
-1476.0945
-1558.6765
-1632.2392
-1694.8384
-1744.4704
-1779.0304
-1796.3252
-1794.2163
-1770.8463
-1724.8066
-1655.6054
-1564.1947
-1453.2499
-1327.0161
-1190.7287
-1049.8579
-909.44221
-773.65954
-645.65253
-527.55292
-420.62442
-325.45419
-242.14818
-170.50975
-110.18052
-60.695369
-21.476226
7.8885928
26.808168
34.175436
-39.187756
-81.208211
-128.9604
-178.00688
-229.58372
-284.24553
-342.62671
-405.33289
-472.92714
-545.89114
-624.57415
-709.12782
-799.42648
-894.97912
-994.85679
-1097.6751
-1201.6605
-1304.7883
-1404.9405
-1500.024
-1588.0201
-1666.965
-1734.8856
-1789.7085
-1829.1724
-1850.7965
-1852.0113
-1830.4315
-1784.0253
-1711.7282
-1614.2324
-1494.4808
-1357.5145
-1209.6598
-1057.4658
-906.81495
-762.39909
-627.56005
-504.38624
-393.94369
-296.54593
-212.00706
-139.85637
-79.496891
-30.268694
8.5501561
37.474666
56.028309
63.233068
-37.655182
-77.933542
-123.80074
-171.03801
-220.89678
-273.98356
-330.99841
-392.63251
-459.55496
-532.3719
-611.56953
-697.43816
-789.97341
-888.75662
-992.84412
-1100.7277
-1210.4186
-1319.6427
-1426.0659
-1527.456
-1621.7357
-1706.9383
-1781.0981
-1842.1047
-1887.5488
-1914.6289
-1920.2487
-1901.3442
-1855.0317
-1779.3947
-1674.6634
-1544.0752
-1393.7562
-1231.5406
-1065.4342
-902.40721
-747.76287
-605.02653
-476.16216
-361.93219
-262.27212
-176.61494
-104.14594
-43.978703
4.7758609
43.008194
71.359309
89.478642
96.501457
-35.750535
-74.007373
-117.69584
-162.83655
-210.68822
-261.91209
-317.2802
-377.58084
-443.60726
-516.11565
-595.76237
-683.01676
-778.04063
-880.52651
-989.52812
-1103.3795
-1219.7998
-1336.1738
-1449.8819
-1558.5268
-1659.9908
-1752.3508
-1833.7107
-1901.9808
-1954.6371
-1988.5368
-1999.9573
-1984.9757
-1939.5595
-1860.5308
-1747.3148
-1603.4388
-1436.524
-1256.5171
-1073.3989
-895.53463
-728.92926
-577.23344
-442.15346
-323.99649
-222.18279
-135.65501
-63.175023
-3.5135309
44.481087
81.888921
109.49203
127.07345
133.87716
-33.800328
-69.808704
-111.03152
-153.77276
-199.30097
-248.33492
-301.72373
-360.36347
-425.19032
-497.13921
-577.0758
-665.69882
-763.39728
-870.03473
-984.6894
-1105.4982
-1229.7807
-1354.4499
-1476.5043
-1593.3539
-1702.8757
-1803.2649
-1892.7874
-1969.4687
-2030.7336
-2073.0992
-2092.1254
-2082.8128
-2039.6044
-1957.4664
-1834.4412
-1674.2639
-1486.6505
-1284.5603
-1080.6733
-885.13174
-704.70623
-543.04299
-401.38055
-279.3577
-175.70134
-88.732022
-16.699287
42.02403
88.883022
125.16334
151.79583
168.70175
175.23451
-31.324398
-64.750729
-103.16745
-143.17174
-186.02383
-232.49776
-283.52233
-340.11109
-403.36289
-474.424
-554.41606
-644.32998
-744.86443
-856.1454
-977.32951
-1106.3115
-1239.8563
-1374.2081
-1505.8409
-1631.9356
-1750.4202
-1859.7153
-1958.3813
-2044.7004
-2116.1617
-2168.9806
-2197.9409
-2196.7101
-2157.7506
-2073.3426
-1939.1648
-1758.9057
-1545.2709
-1315.6174
-1086.3433
-869.83403
-673.62229
-501.10237
-352.72329
-227.16138
-122.22399
-35.455169
35.502888
92.727546
137.98197
172.7654
198.15761
214.21961
220.41714
-28.936984
-59.577278
-94.901369
-131.85126
-171.68084
-215.21716
-263.46819
-317.57094
-378.8043
-448.55937
-528.26547
-619.27879
-722.7132
-839.09188
-967.74844
-1106.2889
-1250.6987
-1396.2569
-1538.7061
-1674.964
-1803.1179
-1921.9823
-2030.6027
-2127.7293
-2211.106
-2276.7334
-2318.5569
-2328.689
-2297.1108
-2212.2085
-2065.6678
-1860.5008
-1613.7648
-1349.4223
-1089.0265
-847.75373
-633.75003
-449.72047
-294.84264
-166.43232
-61.09682
24.570591
93.630401
148.65392
191.73564
224.58519
248.42196
263.44361
269.2308
-25.835771
-53.295546
-85.136409
-118.63766
-155.01407
-195.13415
-240.07912
-291.11162
-349.70638
-417.53647
-496.40033
-588.10851
-694.32919
-816.18894
-953.38645
-1103.2166
-1260.5641
-1419.2923
-1574.0997
-1721.603
-1860.2176
-1989.3754
-2108.8314
-2218.0697
-2315.3717
-2396.6921
-2455.1163
-2481.0373
-2461.5137
-2379.4344
-2219.7733
-1983.4275
-1693.8998
-1385.4251
-1086.7196
-816.34772
-582.63132
-386.84857
-226.19889
-96.111118
8.343327
91.707365
157.82934
209.80075
250.04299
280.45766
302.38313
316.1442
321.43699
-22.98981
-47.107599
-75.197093
-104.93483
-137.4974
-173.78604
-214.94653
-262.36361
-317.71739
-382.99718
-460.43489
-552.38983
-661.24475
-789.01673
-936.08978
-1099.4646
-1272.432
-1446.7085
-1615.4487
-1774.9321
-1924.2048
-2063.6702
-2194.1104
-2316.1433
-2429.0797
-2529.1717
-2608.6864
-2656.1891
-2655.5302
-2582.1078
-2409.6918
-2133.9055
-1787.8929
-1422.5476
-1076.4652
-772.15338
-517.12153
-310.01747
-145.04797
-15.079802
86.733666
166.25034
228.16467
276.08466
312.72854
340.15186
359.77745
372.03982
376.74766
-19.235461
-39.567924
-63.486523
-89.032026
-117.28982
-149.16638
-185.84852
-228.82435
-279.97356
-341.62749
-416.52038
-507.66444
-618.34185
-751.87193
-909.90556
-1089.3306
-1281.1553
-1473.8276
-1658.2306
-1830.3471
-1990.425
-2140.372
-2282.3167
-2418.401
-2549.5637
-2672.7809
-2779.4983
-2856.4288
-2884.4493
-2829.5732
-2647.2594
-2321.1009
-1898.5368
-1458.8463
-1053.9004
-710.47286
-433.2403
-216.31202
-49.482054
77.774485
174.62298
248.37649
304.58211
347.31488
379.525
403.35977
420.27633
430.79219
434.82125
-15.910951
-32.36886
-51.891697
-72.949105
-96.531885
-123.53476
-155.16712
-193.00365
-239.11605
-296.20438
-367.58844
-457.04831
-568.94477
-708.42505
-879.37717
-1079.0561
-1295.1145
-1510.8056
-1713.4768
-1898.8247
-2069.2036
-2228.7465
-2381.1597
-2530.5064
-2680.4078
-2829.621
-2969.1903
-3084.3496
-3154.1098
-3134.0224
-2949.9723
-2559.1739
-2029.3116
-1490.9198
-1012.5491
-624.93938
-326.00649
-102.37836
62.487517
183.46148
272.38663
338.08081
386.86445
423.1651
450.05608
469.68654
483.48098
492.00344
495.26071
-11.485191
-23.592606
-38.296541
-54.441082
-72.851246
-94.367192
-120.17498
-151.88144
-191.68862
-242.62951
-308.64975
-394.37926
-505.35475
-649.13635
-833.45584
-1057.1674
-1303.0742
-1546.1002
-1768.1937
-1965.051
-2143.0372
-2309.9364
-2471.3466
-2633.639
-2804.7548
-2986.7844
-3170.3586
-3338.5068
-3469.9149
-3511.2684
-3344.1478
-2870.8111
-2184.1568
-1512.8843
-942.75967
-506.97649
-189.30955
35.48365
192.7685
302.73548
380.11055
435.09776
474.58243
503.14483
523.82109
538.64298
548.91945
555.21557
557.61388
-7.5471036
-15.400367
-25.215836
-36.274545
-49.210781
-64.771285
-84.073033
-108.70408
-140.93958
-184.11941
-242.91458
-322.99751
-431.16931
-577.99288
-777.62504
-1033.3428
-1320.9503
-1601.3696
-1847.9829
-2056.7646
-2241.3788
-2415.2911
-2585.4634
-2759.5494
-2951.4931
-3168.8044
-3401.848
-3630.6699
-3839.9389
-3979.4575
-3868.0318
-3294.1426
-2367.8834
-1515.4678
-830.308
-345.17453
-15.886932
201.08015
342.91138
435.87525
497.44308
538.81147
567.04466
586.57389
600.18355
609.64202
616.04728
619.91312
621.3767
-2.4949594
-5.6561453
-10.106278
-15.575127
-22.446711
-31.344639
-43.276784
-59.753178
-83.017947
-116.57403
-165.76493
-237.37648
-339.19756
-484.66582
-697.75463
-992.09436
-1333.8463
-1659.7077
-1930.2021
-2142.239
-2323.2012
-2495.668
-2666.8308
-2843.1904
-3049.0036
-3303.1795
-3599.0889
-3914.1972
-4241.408
-4553.2217
-4583.032
-3903.4907
-2589.3252
-1483.235
-653.44581
-124.3633
202.49237
397.83214
513.66844
582.38377
623.41812
648.16216
663.25332
672.56474
678.3671
682.00108
684.25265
685.52948
686.00002
2.9580864
3.9725512
4.5457319
4.3720849
3.3864086
1.1534321
-3.1218317
-10.726296
-23.655385
-45.265382
-81.380415
-140.14001
-230.28727
-367.40899
-589.91028
-934.96777
-1357.9466
-1750.8129
-2055.0116
-2267.034
-2439.9767
-2611.6302
-2788.6356
-2969.4237
-3193.9262
-3500.0144
-3883.2931
-4313.0856
-4763.899
-5291.5199
-5573.817
-4825.3705
-2837.3166
-1376.2573
-376.94104
174.89326
474.13404
627.81937
704.32504
740.60622
756.26524
761.56405
761.87602
760.01908
757.46214
754.95204
752.86701
751.45728
750.89975
8.2850542
13.265528
19.323716
25.158078
31.020628
36.677678
41.594701
44.762366
44.509271
37.798073
18.449267
-23.544348
-98.156058
-220.12122
-443.96712
-853.51852
-1397.3878
-1876.5611
-2210.8878
-2392.9984
-2530.5374
-2685.7648
-2862.8144
-3027.8087
-3238.6228
-3573.5294
-4023.7012
-4561.7289
-5089.7003
-5960.3559
-6823.7235
-6299.5291
-3074.0283
-1170.9682
36.490778
572.63939
804.99682
890.15854
911.78405
907.30217
893.24416
876.86024
861.24862
847.64602
836.44655
827.66024
821.18154
817.06294
815.47062
17.841464
25.860102
36.762252
47.720369
59.417377
71.802253
84.632562
97.25965
108.5236
116.23721
114.96788
93.71568
41.617245
-49.5447
-244.68746
-715.19517
-1442.0025
-2033.8022
-2413.5675
-2545.8537
-2643.159
-2787.3056
-2982.1686
-3113.6513
-3276.631
-3677.7018
-4224.3511
-4961.6752
-5679.2892
-7242.8437
-8882.0962
-9068.3695
-3578.1467
-1038.2392
635.17624
1099.0762
1197.3356
1178.9643
1129.5124
1077.2735
1030.5725
991.35151
959.42607
934.00921
914.22338
899.2534
888.46956
881.70503
879.10305
22.152489
30.896839
46.138478
62.240094
80.173582
100.11052
122.2946
146.75063
173.26609
201.24226
227.41977
240.71975
225.96663
180.34688
45.41155
-483.31023
-1555.3074
-2311.7607
-2773.9262
-2771.1229
-2749.7968
-2813.2518
-3022.6412
-3099.8636
-3207.0582
-3763.2933
-4232.9698
-5185.1793
-6470.8066
-7863.4273
-9589.142
-12103.559
-4823.3037
-72.537341
1722.8132
1811.9667
1641.1267
1478.745
1346.2145
1243.1884
1163.5421
1101.9414
1054.2962
1017.6066
989.67519
968.85921
954.01359
944.75538
941.20208
36.939625
46.534547
66.461591
87.315802
110.75028
137.08016
166.90998
200.72507
238.8674
281.66943
327.58359
365.36648
371.83818
347.27654
293.76405
-191.09005
-1818.2382
-2617.4447
-3115.8346
-2772.7996
-2627.0142
-2732.7805
-3131.8687
-3270.9469
-3302.2448
0
0
0
0
0
0
0
0
6202.3588
3402.4384
2582.4794
2068.2231
1755.8443
1545.1101
1396.0733
1286.9863
1205.4399
1143.7626
1096.9799
1061.7317
1035.6489
1017.1352
1005.6216
1001.2072
35.37114
42.185582
64.031712
87.078841
113.2092
142.74456
176.58476
215.68283
261.08197
314.43308
377.60092
446.00365
502.81618
560.84312
710.72223
552.88945
-1996.9675
-2777.3604
-3647.4886
-2968.7508
-3044.5324
-3012.4356
0
0
0
0
0
0
0
0
0
0
10129.568
6286.2361
4123.938
3000.3085
2361.2975
1969.1629
1709.0341
1527.5481
1396.2708
1299.0276
1225.9772
1170.8402
1129.4417
1098.8814
1077.2244
1063.7687
1058.6112
44.266848
54.952199
80.952649
106.98082
136.15828
169.0406
206.88109
251.11054
303.51377
367.08983
447.12911
546.10619
653.31058
754.41577
842.23134
568.52967
-3108.492
-3582.0141
-3205.5013
0
0
0
0
0
0
0
0
0
0
0
1780.6669
3364.5911
5756.1064
5236.0752
3961.3674
3100.1532
2507.1279
2107.725
1830.6392
1632.977
1488.4146
1380.7157
1299.5545
1238.1783
1192.0361
1157.9424
1133.7654
1118.7383
1112.9772
22.19193
42.169597
66.375497
91.290289
118.75848
149.55402
184.75067
225.51347
273.14137
329.83967
399.5111
478.03941
537.54119
536.24595
558.09459
702.51314
0
0
0
0
0
0
-1132.0961
-1103.5484
-1011.3279
-917.57624
-790.10285
-495.3144
-94.960176
697.07347
2026.4322
3361.9049
4750.9774
4489.8436
3714.7875
3058.6717
2552.6504
2182.2052
1911.4305
1711.6464
1562.3395
1449.5169
1363.6772
1298.3297
1248.9681
1212.3701
1186.3551
1170.1626
1163.9508
19.953154
50.02465
74.973949
100.54803
127.9664
158.06211
191.48554
228.67137
269.57902
313.42556
357.90782
396.57119
406.15659
338.08751
142
-338.13836
-1284.5087
-1227.5456
-1147.1563
-1100.5227
-1051.1185
-1021.645
-1010.3944
-803.31703
-838.70711
-583.20368
-362.36431
-204.63402
259.06877
904.84305
1960.2832
3049.3143
3956.5538
3851.8829
3404.2836
2933.5824
2528.4468
2206.0006
1956.689
1765.4073
1618.5136
1505.3657
1418.0902
1350.986
1299.9271
1261.868
1234.7131
1217.7731
1211.2686
20.663982
46.488011
72.123997
97.97635
125.2916
154.82091
187.14542
222.63176
261.26642
302.14194
342.04332
373.74432
384.82645
353.16236
205.21807
-227.92933
-792.35563
-921.01029
-962.59515
-966.19279
-887.8405
-842.35422
-818.57822
-691.82601
-620.96707
-417.56132
-179.16206
77.726342
510.87243
1096.4537
1896.1756
2721.5772
3334.8729
3356.8129
3105.6423
2777.1284
2463.3425
2193.7951
1973.5824
1797.6634
1658.4986
1548.9279
1463.0235
1396.1651
1344.8282
1306.3024
1278.6826
1261.4032
1254.7603
14.997494
36.232445
58.799646
81.294251
104.29446
128.03938
152.53453
177.42003
201.79394
223.69277
238.89985
240.18277
218.24754
159.20893
15.066716
-283.93085
-606.94263
-732.50696
-784.55904
-794.32381
-753.15962
-703.5059
-642.2635
-537.78803
-423.90989
-238.26442
-11.517773
269.86658
668.59301
1187.7084
1823.2296
2450.8839
2889.5072
2967.0446
2834.9575
2612.9863
2376.1665
2157.6611
1969.1733
1812.3704
1684.457
1581.3609
1499.0757
1434.1544
1383.7847
1345.6885
1318.2241
1300.9841
1294.3473
23.839543
46.446701
70.192441
93.659316
117.54786
141.96499
166.73022
191.21488
214.10017
232.81932
242.68792
236.67214
205.98816
135.39323
-7.268414
-236.56994
-460.1862
-579.84151
-635.41919
-644.57529
-615.86685
-568.32262
-497.30848
-394.48521
-264.37225
-82.954086
139.14165
416.09581
777.0105
1223.7573
1735.4964
2221.7318
2557.2161
2658.5458
2599.6079
2454.8313
2280.1628
2107.1077
1949.7345
1813.4537
1698.779
1604.0956
1527.0909
1465.4423
1417.0697
1380.1693
1353.4026
1336.538
1330.0358
12.025503
29.929293
50.034257
70.038129
90.043596
109.92988
129.38874
147.74929
163.76275
175.1841
178.3161
168.06038
137.63487
74.647463
-40.066471
-203.52649
-358.83403
-456.77825
-506.11089
-514.26496
-488.96015
-440.03397
-365.71571
-262.62546
-128.56135
46.943083
261.83499
525.17296
849.65766
1232.3219
1648.6215
2032.7913
2301.9343
2411.5685
2398.1127
2308.5204
2183.1444
2048.9358
1920.3716
1804.4501
1703.8158
1618.6598
1548.0488
1490.6508
1445.075
1409.9897
1384.3715
1368.166
1361.9079
21.40833
40.633663
60.855757
80.3697
99.455769
117.84572
135.02585
150.10369
161.63048
167.32441
163.945
147.54633
113.07636
52.265736
-43.569137
-165.63342
-279.02724
-356.15208
-395.71875
-400.48551
-375.21552
-324.75249
-248.69951
-145.30664
-11.796633
156.77147
361.03956
606.0037
895.93469
1224.3999
1567.851
1878.4926
2101.9821
2212.1725
2227.1315
2176.7454
2089.8284
1988.0524
1885.0846
1788.3745
1701.7259
1626.5543
1562.9755
1510.4756
1468.2712
1435.4705
1411.3545
1396.0354
1390.1095
11.865367
27.969887
45.961212
63.613187
80.822091
97.233395
112.31789
125.22287
134.61735
138.50901
134.22298
118.55546
87.496365
35.670828
-40.014887
-130.44903
-213.54648
-271.85538
-300.87523
-300.65313
-273.48837
-221.65943
-145.05641
-42.534404
87.972181
248.88783
440.99415
666.28201
924.55674
1207.7178
1495.161
1752.1468
1942.6128
2049.7486
2082.46
2059.9228
2002.6628
1927.6182
1846.834
1767.6762
1694.3939
1629.1729
1572.8784
1525.637
1487.1731
1456.9833
1434.6277
1420.3652
1414.8384
17.141277
33.238157
50.221005
66.365835
81.71535
95.887598
108.32983
118.22224
124.38267
125.18407
118.6094
102.35785
73.684255
29.615944
-30.001676
-97.398728
-158.15656
-200.48476
-219.40907
-213.55923
-183.58254
-130.36752
-53.787875
46.937689
173.08392
325.75605
505.15542
711.22781
941.40063
1187.1412
1431.215
1648.2954
1813.9164
1916.4783
1960.2031
1957.4824
1922.9456
1869.6797
1807.8212
1744.295
1683.4111
1627.7596
1578.7036
1536.8438
1502.3103
1474.9284
1454.502
1441.4123
1436.3309
11.966894
26.366551
42.105055
57.217384
71.536372
84.634088
95.95543
104.72717
109.89704
110.11107
103.79829
89.271262
64.750831
28.897411
-17.032452
-66.719599
-110.26889
-139.24991
-149.01704
-137.5746
-104.5713
-50.102843
26.04522
124.37681
245.52468
389.76514
556.62785
744.76902
950.45085
1165.4562
1375.6868
1562.5213
1708.9113
1806.434
1856.8733
1868.2834
1851.1155
1815.4278
1769.553
1719.7093
1670.0804
1623.3914
1581.3094
1544.7675
1514.2055
1489.716
1471.3084
1459.4587
1454.8504
13.673318
27.36012
41.872166
55.551121
68.315866
79.77099
89.414781
96.579854
100.40507
99.845824
93.759137
81.001128
60.551574
32.088237
-2.6021433
-38.491988
-68.51954
-86.427474
-88.131212
-71.453249
-35.511927
20.031768
95.457414
191.05235
306.98049
442.95344
597.94364
769.84709
954.46777
1144.2845
1327.8801
1491.3881
1622.5899
1715.1406
1769.5418
1791.0479
1787.1507
1765.5615
1733.0576
1695.0424
1655.4479
1616.9789
1581.4555
1550.0266
1523.3578
1501.7519
1485.3845
1474.7996
1470.6758
11.354563
24.028319
37.645467
50.500678
62.432176
73.046172
81.878892
88.350189
91.758008
91.308906
86.201059
75.726166
59.437653
37.640649
12.263385
-12.667331
-31.913927
-40.663935
-35.425167
-14.058781
24.554089
80.966905
155.4772
248.19764
358.95806
487.08035
631.14335
788.64341
955.33095
1124.5199
1286.9828
1432.2315
1551.2639
1639.1648
1695.7636
1724.4894
1730.7342
1720.4085
1698.9976
1671.1112
1640.3359
1609.2781
1579.8
1553.1777
1530.2323
1511.4258
1497.0643
1487.7337
1484.0922
11.408101
23.296293
35.923569
47.754151
58.665629
68.303999
76.26685
82.074395
85.17936
85.006113
81.027734
72.869352
60.480426
44.511523
26.834713
10.706591
0.14604558
-1.0462945
10.086184
35.533872
76.478227
133.55277
207.03437
296.89439
402.72665
523.58951
657.81629
802.7405
954.27906
1106.583
1252.1672
1382.9586
1492.1479
1575.8383
1633.5152
1667.4053
1681.4064
1680.0562
1667.7845
1648.4906
1625.3765
1600.9028
1576.9022
1554.7114
1535.2523
1519.1031
1506.669
1498.5548
1495.383
10.344359
21.515424
33.418418
44.560122
54.804821
63.828061
71.283739
76.784274
79.919209
80.296949
77.614698
71.755362
62.942183
52.008899
40.699313
31.690599
28.166175
33.189104
49.262803
78.185081
121.1023
178.6478
251.05245
338.17325
439.43925
553.73875
679.27418
813.36398
952.1973
1090.6937
1222.7341
1341.9862
1443.1684
1523.127
1581.1809
1618.7577
1638.6877
1644.467
1639.6745
1627.6009
1611.0671
1592.3556
1573.2358
1555.0565
1538.7974
1525.1194
1514.5009
1507.5454
1504.8238
9.9411938
20.47645
31.670073
42.129374
51.738953
60.21163
67.257378
72.572063
75.861249
76.881665
75.504158
71.799884
66.169226
59.527553
53.469198
50.236078
52.416354
62.527257
82.69736
114.52428
159.0703
216.92441
288.25843
372.8372
469.97661
578.46301
696.44887
821.32328
949.58403
1076.8208
1197.9752
1307.9812
1402.6416
1479.3534
1537.3651
1577.569
1602.0297
1613.4557
1614.7482
1608.6859
1597.7439
1584.0126
1569.1786
1554.5709
1541.1967
1529.7741
1520.837
1514.9716
1512.6779
9.3570394
19.364696
30.007958
39.955518
49.100542
57.189931
63.985662
69.258091
72.811638
74.523936
74.401478
72.653385
69.792483
66.759046
65.005848
66.4459
73.234429
87.479222
111.00382
145.21759
191.07959
249.11375
319.42922
401.71728
495.21788
598.6631
710.20774
827.35468
946.90568
1065.0142
1177.4397
1280.0433
1369.4083
1443.3434
1501.0776
1543.1419
1571.0505
1586.9185
1593.1134
1591.991
1585.7259
1576.2226
1565.0763
1553.5803
1542.7479
1533.3367
1525.928
1521.0804
1519.1949
8.9354312
18.485868
28.649599
38.159503
46.92132
54.713536
61.343701
66.64489
70.501752
72.88668
73.908461
73.873785
73.363626
73.31298
75.05
80.238561
90.715126
108.27852
134.50772
170.64566
217.54686
275.66448
345.04772
425.33003
515.70194
614.8729
721.03005
831.80495
944.2757
1055.0568
1160.5331
1257.2468
1342.3481
1413.954
1471.2999
1514.6721
1545.1896
1564.5235
1574.6267
1577.5131
1575.1042
1569.1369
1561.114
1552.2869
1543.6595
1536.014
1529.9799
1526.0918
1524.6105
8.5495671
17.743311
27.539107
36.719522
45.199477
52.785805
59.325742
64.70484
68.872335
71.87418
73.895332
75.310237
76.739372
79.098968
83.613562
91.759617
105.13866
125.31742
153.68262
191.33725
239.04053
297.17855
365.74743
444.33617
532.10445
627.75843
729.53118
835.17919
942.01721
1047.0257
1147.0617
1239.1654
1320.8977
1390.6057
1447.5416
1491.8262
1524.2956
1546.2924
1559.452
1565.5185
1566.2062
1563.1087
1557.6434
1551.0195
1544.2232
1538.0508
1533.1973
1530.2123
1529.1575
8.1802462
17.101902
26.61573
35.548191
43.819906
51.262423
57.755756
63.227134
67.675466
71.20166
74.045621
76.627646
79.590027
83.826727
90.480396
100.88911
116.4835
138.65901
168.65571
207.46469
255.76497
313.88481
381.77634
458.99538
544.68317
637.55249
735.88413
837.54398
940.03797
1040.6268
1136.515
1225.1016
1304.2413
1372.4491
1428.9973
1473.8956
1507.782
1531.7611
1547.2329
1555.736
1558.8228
1557.9716
1554.53
1549.6731
1544.3703
1539.421
1535.6012
1533.5526
1533.062
7.8079017
16.603046
25.939576
34.711217
42.845117
50.196795
56.673282
62.233878
66.914231
70.854755
74.333437
77.800388
81.908819
87.531664
95.749719
107.80287
125.00308
148.62537
179.80394
219.44642
268.17004
326.25776
393.6282
469.81379
553.94554
644.74643
740.53905
839.27617
938.60763
1035.997
1128.8935
1214.944
1292.2059
1359.3118
1415.5517
1460.8635
1495.7505
1521.1527
1538.3031
1548.5918
1553.4522
1554.2761
1552.3564
1548.8431
1544.6896
1540.6665
1537.5983
1536.3779
1536.6631
7.3045933
16.167454
25.423433
34.110083
42.163268
49.46296
55.936974
61.566781
66.412133
70.638489
74.547167
78.605352
83.470494
89.999787
99.234124
112.35342
130.59607
155.15845
187.10447
227.28634
276.27945
334.33593
401.3519
476.84488
559.94054
649.37083
743.48842
840.30567
937.56789
1032.87
1123.817
1208.2119
1284.2392
1350.6065
1406.6167
1452.1649
1487.6706
1513.9698
1532.1887
1543.6206
1549.6212
1551.5223
1550.5768
1547.9202
1544.4998
1541.0314
1538.3349
1537.9042
1540.0974
6.0818861
15.835218
25.142414
33.821473
41.843966
49.121899
55.597308
61.26386
66.193614
70.564558
74.689757
79.045148
84.291048
91.279483
101.03613
114.70474
133.47606
158.50957
190.83928
231.29049
280.41771
338.45742
405.29424
480.43813
563.01224
651.75333
745.02982
840.88459
937.11131
1031.3707
1121.3449
1204.914
1280.3252
1346.3237
1402.2197
1447.8878
1483.7074
1510.4635
1529.2303
1541.2543
1547.8475
1550.3112
1549.8863
1547.7117
1544.7446
1541.6603
1539.2446
1539.7676
1545.6098
-2227.8368
-2483.7609
-2699.7162
-2881.6933
-3024.2036
-3106.4705
-3108.492
-3029.4918
-2857.5418
-2664.2374
-3205.6118
-3205.5013
-3198.6658
-3187.692
-3173.5871
-3160.8376
-3149.0097
-3158.4634
-3159.0784
-3131.6843
-3183.2077
-3182.0844
-3167.3363
-3150.3724
-3133.4516
-3124.4456
-3106.1479
-3113.3809
-3100.2716
-3046.7646
-3138.0578
-3135.3971
-3126.7856
-3118.0777
-3109.2748
-3112.2775
-3101.1675
-3099.1492
-3085.7608
-3048.9092
-3078.378
-3076.9404
-3072.3909
-3066.4728
-3057.9759
-3058.407
-3058.0402
-3057.354
-3055.8646
-3059.5995
-3030.3293
-3029.5348
-3023.7642
-3013.586
-2998.3021
-2968.7508
-2990.9175
-3003.2299
-3009.8892
-3023.2525
-3013.5333
-3015.2244
-3018.4653
-3021.8369
-3032.7101
-3008.5421
-3008.2629
-3004.6718
-2989.7841
-2966.8201
-3028.0842
-3029.7188
-3035.816
-3044.5324
-3068.6076
-3076.2957
-3056.9091
-3030.8856
-3001.0439
-2965.6369
-3848.4541
-3860.7524
-3831.705
-3787.2912
-3749.7285
-3717.662
-3696.1582
-3682.4327
-3673.4945
-3675.2395
-2987.1553
-2985.9621
-2978.0488
-2961.0264
-2921.6719
-2947.0586
-2959.0839
-2961.2908
-2950.8146
-2923.7124
-3009.3582
-3012.4356
-3018.7927
-3037.9735
-3013.9351
-3005.2712
-3001.3764
-2994.0034
-2980.0416
-2964.9143
-3048.7617
-3051.2313
-3056.4556
-3081.0918
-3093.8349
-3069.7269
-3042.9644
-3022.6559
-3003.767
-2987.2633
-3000.0572
-2996.2287
-2977.3804
-2952.136
-2975.0819
-2992.5227
-3003.7025
-3011.0639
-3013.2758
-3020.2505
-3033.6171
-3036.06
-3035.218
-2998.3863
-3007.4876
-3021.0687
-3031.8307
-3039.0214
-3042.0304
-3051.559
-3156.94
-3164.7143
-3188.9274
-3187.497
-3159.6397
-3131.8687
-3111.1852
-3095.7954
-3080.3762
-3063.1399
-3141.8629
-3137.0201
-3129.528
-3149.6634
-3150.2889
-3144.5441
-3138.3646
-3132.9645
-3126.9929
-3128.913
-3162.566
-3161.8354
-3137.54
-3147.7136
-3159.1746
-3167.3377
-3171.7939
-3173.6344
-3172.9571
-3177.6828
-3276.9568
-3289.3592
-3285.2808
-3270.9469
-3255.6483
-3243.6329
-3234.9273
-3229.1593
-3222.3679
-3213.8281
-3282.4854
-3286.5732
-3294.0328
-3285.9283
-3276.2574
-3270.7402
-3270.4984
-3274.9414
-3279.9902
-3292.3046
-3186.2682
-3172.1626
-3189.4981
-3215.3711
-3244.8377
-3273.5294
-3300.5024
-3325.0793
-3345.2404
-3370.2163
-3325.862
-3302.2448
-3311.8652
-3332.1922
-3358.9766
-3384.2447
-3406.7285
-3425.1764
-3437.71
-3453.4386
-3701.5035
-3692.4767
-3661.7924
-3627.7406
-3602.6833
-3583.2193
-3571.148
-3564.0059
-3557.904
-3555.0486
-3016.9374
-3015.4145
-3010.0085
-2998.4152
-2992.9903
-3000.2209
-2999.8146
-2994.422
-2985.1589
-2984.1168
-3540.9314
-3549.5284
-3563.9534
-3611.2413
-3667.4242
-3719.2635
-3740.3551
-3722.2251
-3638.5213
-3466.662
-3269.0686
-3269.3044
-3272.2583
-3277.1402
-3278.2658
-3277.3838
-3275.4341
-3270.2781
-3266.1189
-3219.6357
-3179.7642
-3227.8197
-3289.9522
-3394.6799
-3506.03
-3592.8762
-3635.4435
-3595.5769
-3447.434
-3214.9883
-3480.6742
-3490.7211
-3511.651
-3548.3581
-3582.0141
-3610.6818
-3619.2568
-3618.7597
-3582.976
-3470.5752
-3367.705
-3372.0995
-3386.2845
-3410.256
-3431.2295
-3448.8978
-3457.0279
-3446.6125
-3433.99
-3382.2264
11318.714
10715.54
10129.568
9489.9324
8832.8389
8179.5316
7545.1724
6936.7754
6347.3352
5770.2947
8301.8516
8224.534
8101.2605
7839.6072
7501.7175
7111.282
6689.6025
6254.561
5816.3927
5359.9937
-3709.6333
-3728.0705
-3745.4531
-3751.3897
-3760.0509
-3763.2933
-3768.0718
-3771.4959
-3772.8136
-3776.3013
-3705.9246
-3709.7768
-3745.1156
-3776.3348
-3815.3785
-3842.5367
-3866.4512
-3882.4722
-3891.1132
-3895.2972
-3946.4886
-3939.2584
-3955.495
-3963.08
-3991.4623
-4009.8431
-4029.6688
-4042.6436
-4048.0614
-4043.6106
-4222.3871
-4212.033
-4226.3032
-4216.8951
-4232.9698
-4234.8561
-4241.3815
-4242.4325
-4238.8623
-4234.5031
-4544.8308
-4526.6931
-4538.4393
-4511.409
-4515.1977
-4497.3558
-4484.9013
-4464.8782
-4437.214
-4404.8566
-4901.0555
-4873.8354
-4883.4434
-4837.0269
-4828.5975
-4790.1134
-4757.2864
-4713.8686
-4659.2029
-4598.9957
-5281.7995
-5243.3512
-5251.9922
-5185.1793
-5165.6314
-5107.5473
-5056.1554
-4992.6906
-4916.4392
-4831.1312
-5682.8125
-5630.7395
-5639.5649
-5550.5479
-5519.7328
-5441.509
-5370.8459
-5288.4148
-5198.4445
-5115.8979
-6105.0002
-6035.8798
-6045.7293
-5931.7389
-5888.2697
-5787.8646
-5693.4999
-5583.4748
-5458.165
-5322.5679
-6548.4612
-6458.3756
-6470.8066
-6329.1653
-6271.9122
-6149.0308
-6030.8702
-5896.7611
-5747.158
-5585.4018
-7019.3075
-6902.1787
-6917.943
-6744.4636
-6670.3182
-6522.7302
-6376.831
-6214.6087
-6036.1199
-5850.2522
-7516.412
-7366.1828
-7388.3003
-7179.8641
-7085.7016
-6911.6437
-6733.8506
-6537.7704
-6319.1515
-6081.8737