/*--------------------------------*- C++ -*----------------------------------*\
| =========                 |                                                 |
| \\      /  F ield         | foam-extend: Open Source CFD                    |
|  \\    /   O peration     | Version:     4.1                                |
|   \\  /    A nd           | Web:         http://www.foam-extend.org         |
|    \\/     M anipulation  |                                                 |
\*---------------------------------------------------------------------------*/
FoamFile
{
    version     2.0;
    format      ascii;
    class       surfaceScalarField;
    location    "0.8";
    object      phi;
}
// * * * * * * * * * * * * * * * * * * * * * * * * * * * * * * * * * * * * * //

dimensions      [0 3 -1 0 0 0 0];

internalField   nonuniform List<scalar> 
8438
(
-0.59744013
0.0016736429
-0.59917907
0.0017389445
-0.60095294
0.0017738622
-0.60277072
0.0018177841
-0.60464219
0.0018714646
-0.60657777
0.0019355805
-0.60858687
0.0020091003
-0.6106771
0.0020902327
-0.61285358
0.0021764794
-0.61511823
0.0022646485
-0.61746908
0.00235085
-0.61989961
0.0024305315
-0.62239819
0.0024985809
-0.62494771
0.0025495182
-0.62752548
0.0025777728
-0.63010353
0.0025780469
-0.63264914
0.0025456156
-0.63512577
0.0024766267
-0.637494
0.0023682299
-0.63971257
0.0022185683
-0.64173927
0.0020267032
-0.64353179
0.0017925211
-0.64504851
0.0015167159
-0.64624942
0.0012009092
-0.64709738
0.00084796236
-0.64755987
0.00046249238
-0.64761113
5.125411e-05
-0.64723376
-0.00037736324
-0.64642279
-0.00081097029
-0.64518969
-0.0012330984
-0.64356335
-0.0016263401
-0.64158983
-0.0019735266
-0.63933019
-0.002259639
-0.63685648
-0.0024737098
-0.63424644
-0.0026100355
-0.63157802
-0.0026684186
-0.62892452
-0.0026535082
-0.62635096
-0.002573553
-0.62391203
-0.0024389312
-0.62165126
-0.0022607716
-0.61960141
-0.0020498538
-0.61778555
-0.0018158545
-0.61621864
-0.0015669136
-0.61490909
-0.0013095443
-0.61385999
-0.001049104
-0.61306953
-0.00079046048
-0.61253402
-0.00053551132
-0.6122586
-0.00027541954
-1.3648421e-05
-0.61123233
0.003139474
-0.61269155
0.0031981653
-0.61417793
0.0032602437
-0.61570473
0.0033445894
-0.61728441
0.0034511433
-0.61892817
0.0035793383
-0.62064586
0.0037267854
-0.62244543
0.0038898079
-0.62433235
0.0040633985
-0.62630887
0.0042411727
-0.62837336
0.0044153353
-0.63051956
0.0045767366
-0.63273605
0.0047150703
-0.63500579
0.0048192564
-0.63730603
0.0048780068
-0.63960855
0.0048805738
-0.64188032
0.0048173833
-0.64408435
0.0046806541
-0.64618078
0.0044646614
-0.64812792
0.0041657054
-0.64988314
0.0037819301
-0.65140373
0.0033131049
-0.65264758
0.0027605643
-0.65357411
0.0021274417
-0.65414543
0.0014192867
-0.65432801
0.00064507137
-0.65409514
-0.00018161445
-0.65343099
-0.0010415194
-0.65233241
-0.0019095452
-0.65081035
-0.0027551642
-0.64889285
-0.0035438392
-0.64662565
-0.0042407188
-0.64407018
-0.0048151158
-0.64129928
-0.0052446057
-0.63839173
-0.0055175875
-0.63542638
-0.0056337651
-0.63247716
-0.0056027352
-0.62960934
-0.0054413684
-0.62687751
-0.005170763
-0.62432486
-0.0048134199
-0.6219837
-0.0043910169
-0.61987665
-0.003922903
-0.61801829
-0.0034252688
-0.61641683
-0.0029110084
-0.61507557
-0.0023903641
-0.61399476
-0.0018712676
-0.6131739
-0.0013563685
-0.61260473
-0.00084459712
-0.00037357478
-0.61227789
0.0045551677
-0.61369185
0.0046121319
-0.61513066
0.0046990476
-0.61660926
0.0048231876
-0.61814095
0.004982835
-0.61973754
0.0051759271
-0.62140936
0.0053986057
-0.62316487
0.0056453225
-0.62501009
0.0059086208
-0.6269479
0.0061789838
-0.62897731
0.0064447408
-0.63109269
0.00669212
-0.63328315
0.006905524
-0.63553199
0.0070680988
-0.63781659
0.0071626082
-0.64010863
0.0071726103
-0.64237473
0.0070834829
-0.64457748
0.0068834051
-0.64667658
0.0065637619
-0.64862993
0.006119054
-0.65039454
0.0055465456
-0.65192729
0.0048458512
-0.6531855
0.0040187782
-0.65412771
0.0030696477
-0.65471466
0.0020062344
-0.65491094
0.00084135632
-0.65468742
-0.00040513486
-0.65402403
-0.0017049081
-0.65291333
-0.0030202508
-0.65136425
-0.0043042426
-0.6494047
-0.0055033872
-0.64708214
-0.0065632806
-0.6444614
-0.007435855
-0.64161989
-0.00808611
-0.63864121
-0.008496268
-0.63560853
-0.0086664518
-0.632599
-0.0086122658
-0.62967988
-0.0083604815
-0.62690651
-0.0079441394
-0.62432182
-0.0073981022
-0.62195721
-0.0067556274
-0.619834
-0.0060461163
-0.61796531
-0.0052939559
-0.61635795
-0.0045183686
-0.6150143
-0.0037340194
-0.6139345
-0.0029510663
-0.61311683
-0.0021740403
-0.61255277
-0.0014086534
-0.00068139611
-0.61263476
0.0059414768
-0.61402835
0.0060057304
-0.61544744
0.0061181287
-0.61690695
0.0062827045
-0.61842067
0.0064965564
-0.62000111
0.0067563606
-0.62165936
0.0070568575
-0.62340474
0.0073907003
-0.62524417
0.0077480518
-0.62718148
0.0081162996
-0.62921661
0.0084798696
-0.63134474
0.008820244
-0.6335555
0.009116289
-0.63583241
0.0093450057
-0.63815254
0.0094827448
-0.64048683
0.0095068921
-0.64280073
0.0093973902
-0.64505549
0.0091381656
-0.64720942
0.0087176914
-0.64921915
0.0081287775
-0.65104054
0.0073679385
-0.65262935
0.006434666
-0.65394166
0.0053310792
-0.65493429
0.004062285
-0.65556571
0.0026376552
-0.65579745
0.0010730902
-0.65559653
-0.00060605382
-0.65493884
-0.0023626
-0.65381321
-0.0041458764
-0.65222603
-0.0058914186
-0.6502049
-0.0075245227
-0.64779987
-0.0089683065
-0.6450812
-0.010154533
-0.6421335
-0.011033806
-0.63904802
-0.011581747
-0.63591469
-0.011799781
-0.6328157
-0.011711261
-0.62982126
-0.011354916
-0.62698774
-0.010777656
-0.62435762
-0.01002823
-0.62196074
-0.0091525029
-0.61981637
-0.0081904849
-0.61793539
-0.0071749395
-0.61632248
-0.0061312762
-0.61497832
-0.0050781752
-0.61390148
-0.0040279074
-0.61308836
-0.0029871658
-0.61253356
-0.0019634553
-0.00097000192
-0.61305927
0.0073007356
-0.61442965
0.0073761045
-0.61582646
0.0075149467
-0.61726487
0.0077211124
-0.61875913
0.0079908147
-0.62032253
0.0083197589
-0.62196712
0.0087014504
-0.62370331
0.0091268877
-0.62553923
0.0095839721
-0.62747999
0.010057062
-0.62952678
0.010526654
-0.63167586
0.010969325
-0.63391764
0.011358074
-0.63623587
0.01166324
-0.63860723
0.011854097
-0.6410015
0.011901169
-0.64338252
0.011778411
-0.64570957
0.011465215
-0.64793904
0.010947161
-0.65002586
0.010215596
-0.65192447
0.0092665462
-0.6535893
0.0080994957
-0.65497492
0.0067167037
-0.65603616
0.0051235266
-0.65672856
0.003330046
-0.65700958
0.0013541183
-0.65684113
-0.00077450588
-0.65619331
-0.0030104228
-0.65504936
-0.0052898297
-0.65341161
-0.007529161
-0.65130685
-0.0096292838
-0.64878866
-0.011486495
-0.64593501
-0.013008189
-0.64284095
-0.01412786
-0.63960872
-0.014813978
-0.63633782
-0.015070684
-0.63311735
-0.014931727
-0.63002145
-0.014450822
-0.62710761
-0.013691496
-0.62441734
-0.012718495
-0.62197819
-0.011591652
-0.6198064
-0.010362278
-0.61790968
-0.0090716596
-0.61628983
-0.0077511282
-0.61494508
-0.0064229192
-0.61387185
-0.0051011429
-0.61306518
-0.0037938323
-0.61252118
-0.002507461
-0.0012463778
-0.61359649
0.0086277576
-0.6149372
0.0087168179
-0.61630572
0.0088834646
-0.61771735
0.0091327429
-0.61918693
0.0094603933
-0.62072864
0.0098614726
-0.62235569
0.010328495
-0.62407982
0.010851024
-0.62591074
0.011414885
-0.6278552
0.012001527
-0.62991607
0.01258752
-0.6320911
0.013144358
-0.63437179
0.013638763
-0.63674228
0.014033732
-0.63917874
0.014290559
-0.64164951
0.014371937
-0.64411615
0.014245053
-0.64653533
0.013884392
-0.64886089
0.013272723
-0.65104562
0.012400325
-0.65304226
0.01126319
-0.65480381
0.0098610391
-0.6562832
0.0081961001
-0.65743296
0.0062732836
-0.65820508
0.0041021617
-0.65855191
0.0017009484
-0.65842857
-0.0008978399
-0.65779733
-0.0036416625
-0.65663347
-0.0064536943
-0.65493322
-0.0092294113
-0.6527216
-0.011840902
-0.65005667
-0.014151427
-0.64702699
-0.01603787
-0.64374214
-0.017412705
-0.64031952
-0.018236601
-0.63687156
-0.018518641
-0.63349642
-0.018306866
-0.63027298
-0.017674265
-0.62725974
-0.016704739
-0.62449644
-0.015481793
-0.62200716
-0.014080933
-0.61980389
-0.012565548
-0.61789001
-0.010985541
-0.61626334
-0.0093777953
-0.6149187
-0.0077675554
-0.61384965
-0.0061701962
-0.61304957
-0.0045939113
-0.61251419
-0.0030428383
-0.0015156214
-0.61424952
0.0099188013
-0.61555464
0.010021932
-0.61688845
0.010217284
-0.61826699
0.01051128
-0.61970587
0.010899269
-0.62122033
0.011375935
-0.62282492
0.011933089
-0.62453306
0.012559157
-0.62635633
0.013238159
-0.62830363
0.013948823
-0.63037995
0.014663844
-0.63258506
0.015349465
-0.63491195
0.015965651
-0.63734541
0.016467196
-0.63986105
0.016806202
-0.64242531
0.016936195
-0.64499676
0.016816502
-0.64752857
0.016416205
-0.64997131
0.015715458
-0.65227513
0.014704141
-0.65439091
0.013378971
-0.65627023
0.011740366
-0.65786454
0.0097904062
-0.65912396
0.0075326998
-0.65999649
0.0049746921
-0.66042828
0.0021327416
-0.66036585
-0.000960267
-0.65976101
-0.004246499
-0.65857794
-0.0076367737
-0.65680374
-0.01100361
-0.65446002
-0.014184619
-0.6516102
-0.017001244
-0.64835714
-0.019290929
-0.64483031
-0.020939538
-0.64116764
-0.021899272
-0.63749866
-0.022187625
-0.63393291
-0.021872607
-0.63055475
-0.021052429
-0.62742316
-0.019836334
-0.62457489
-0.018330057
-0.62202908
-0.01662675
-0.61979197
-0.01480265
-0.61786132
-0.012916197
-0.61622986
-0.011009257
-0.61488808
-0.0091093301
-0.61382607
-0.0072322104
-0.61303484
-0.0053851356
-0.61250836
-0.0035693173
-0.0017790358
-0.61501281
0.011165427
-0.61627507
0.011284195
-0.61756741
0.011509618
-0.61890624
0.011850116
-0.62030805
0.01230107
-0.62178925
0.012857138
-0.62336596
0.013509799
-0.62505352
0.014246723
-0.62686586
0.015050496
-0.62881447
0.015897428
-0.63090709
0.016756466
-0.63314609
0.017588468
-0.63552655
0.01834611
-0.63803428
0.018974928
-0.64064432
0.019416236
-0.64332066
0.019612536
-0.64601792
0.019513766
-0.64868466
0.019082941
-0.65126717
0.018297976
-0.65371248
0.01714945
-0.65596954
0.015636026
-0.65798879
0.013759617
-0.65972054
0.011522161
-0.66111279
0.008924944
-0.66210929
0.0059711928
-0.66264897
0.0026724181
-0.66266767
-0.00094156372
-0.66210361
-0.0048105608
-0.66090568
-0.0088347053
-0.65904751
-0.012861777
-0.65654445
-0.016687681
-0.65346602
-0.020079672
-0.64993425
-0.022822697
-0.64610578
-0.024768005
-0.64214623
-0.025858823
-0.63820735
-0.026126506
-0.63441268
-0.025667275
-0.63085236
-0.024612746
-0.62758474
-0.023103963
-0.6246417
-0.021273097
-0.62203535
-0.019233098
-0.61976434
-0.017073656
-0.61781918
-0.014861355
-0.61618631
-0.012642127
-0.61485102
-0.010444628
-0.61379931
-0.0082839194
-0.6130193
-0.0061651426
-0.61250256
-0.0040860515
-0.0020368007
-0.61588744
0.012364233
-0.61710087
0.012497623
-0.61834483
0.012753578
-0.61963688
0.013142165
-0.62099452
0.013658712
-0.62243554
0.014298155
-0.6239778
0.01505206
-0.6256389
0.015907831
-0.62743553
0.016847126
-0.62938237
0.017844267
-0.63149062
0.018864717
-0.63376605
0.019863897
-0.6362066
0.020786653
-0.63879967
0.021568001
-0.64151981
0.022136379
-0.64432798
0.022420706
-0.64717355
0.022359332
-0.6499989
0.021908294
-0.65274486
0.021043935
-0.65535469
0.01975928
-0.65777552
0.018056855
-0.65995727
0.015941371
-0.66184994
0.013414828
-0.66340003
0.010475036
-0.66454718
0.0071183406
-0.66522219
0.003347431
-0.66534799
-0.00081576793
-0.66484526
-0.005313288
-0.66364212
-0.010037849
-0.66169235
-0.014811547
-0.65900027
-0.019379754
-0.65564184
-0.023438102
-0.65176486
-0.026699682
-0.64756335
-0.028969511
-0.64324029
-0.030181887
-0.63897617
-0.030390629
-0.63491125
-0.029732192
-0.63114123
-0.028382767
-0.62772175
-0.026523441
-0.62467711
-0.024317739
-0.62200966
-0.021900547
-0.61970809
-0.019375228
-0.61775383
-0.016815613
-0.61612566
-0.014270292
-0.61480273
-0.011767563
-0.61376636
-0.0093202848
-0.61300126
-0.0069302453
-0.61249631
-0.0045910043
-0.0022881581
-0.61686679
0.013503299
-0.61802265
0.013653486
-0.61921049
0.013941415
-0.62044809
0.014379774
-0.62175391
0.014964528
-0.62314711
0.01569136
-0.62464752
0.016552462
-0.62627528
0.017535598
-0.62805032
0.018622161
-0.62999117
0.019785118
-0.63211334
0.020986891
-0.63442701
0.02217756
-0.63693401
0.023293653
-0.63962423
0.024258223
-0.64247199
0.024984137
-0.64543441
0.025383133
-0.64845387
0.025378784
-0.65146441
0.024918841
-0.65439966
0.023979182
-0.65719841
0.022558027
-0.65980628
0.020664732
-0.66217374
0.01830883
-0.66425184
0.015492928
-0.66598691
0.012210103
-0.66731508
0.0084465101
-0.66815845
0.0041908021
-0.66842468
-0.00054953867
-0.6680122
-0.0057257667
-0.66682118
-0.011228873
-0.66477641
-0.016856317
-0.6618633
-0.022292863
-0.65816349
-0.02713791
-0.65385973
-0.031003443
-0.64919816
-0.03363108
-0.64443244
-0.034947608
-0.63978004
-0.035043026
-0.63540061
-0.034111628
-0.63139402
-0.03238935
-0.62780983
-0.030107631
-0.62466076
-0.027466806
-0.62193582
-0.024625488
-0.61961085
-0.021700201
-0.61765613
-0.018770334
-0.61604136
-0.015885058
-0.61473866
-0.013070264
-0.61372415
-0.010334798
-0.61297875
-0.0076756476
-0.61248854
-0.0050812133
-0.0025317463
-0.61794985
0.01458191
-0.61904264
0.014746282
-0.62016711
0.015065886
-0.62134249
0.015555153
-0.62258834
0.016210373
-0.62392532
0.017028343
-0.62537534
0.018002478
-0.6269614
0.019121663
-0.62870715
0.020367906
-0.63063572
0.021713692
-0.63276795
0.023119115
-0.63511964
0.024529252
-0.63769798
0.025871992
-0.64049664
0.027056881
-0.64349028
0.027977782
-0.64663135
0.028524204
-0.64985278
0.028600209
-0.65307724
0.028143306
-0.65622877
0.027130709
-0.65924087
0.025570129
-0.6620584
0.023482257
-0.66463404
0.020884473
-0.66692208
0.017780967
-0.66887077
0.014158801
-0.67041418
0.0099899113
-0.67146547
0.0052420962
-0.67191499
-0.00010001534
-0.67163305
-0.0060077061
-0.6704827
-0.012379222
-0.66834676
-0.018992262
-0.6651787
-0.025460922
-0.66106289
-0.031253724
-0.65622998
-0.035836347
-0.6510001
-0.03886096
-0.64569634
-0.040251375
-0.64058351
-0.040155851
-0.63584271
-0.038852433
-0.63157481
-0.036657252
-0.6278178
-0.03386464
-0.62456726
-0.030717343
-0.62179416
-0.027398585
-0.61945805
-0.024036315
-0.61751571
-0.020712668
-0.61592636
-0.017474413
-0.61465426
-0.01434236
-0.61366992
-0.011319135
-0.61295032
-0.0083952529
-0.61247874
-0.0055527895
-0.0027656896
-0.6191333
0.015583123
-0.62015217
0.015765149
-0.6212042
0.016117917
-0.62230827
0.016659226
-0.62348469
0.017386789
-0.62475552
0.018299173
-0.62614482
0.019391783
-0.62767873
0.020655572
-0.62938512
0.022074291
-0.63129258
0.023621157
-0.63342848
0.025255016
-0.63581588
0.026916647
-0.63846921
0.028525323
-0.64138794
0.029975607
-0.64454825
0.031138098
-0.64789697
0.031872923
-0.65135419
0.032057427
-0.65482669
0.031615806
-0.65822539
0.03052941
-0.66147738
0.028822124
-0.6645279
0.026532774
-0.66733437
0.023690942
-0.66985736
0.020303953
-0.67205027
0.016351717
-0.67384769
0.011787327
-0.67515445
0.0065488564
-0.67584033
0.00058586621
-0.67574262
-0.006105419
-0.67467736
-0.013444478
-0.67246595
-0.021203669
-0.66900852
-0.028918355
-0.66438439
-0.03587785
-0.65889077
-0.041329972
-0.65295524
-0.044796485
-0.64699699
-0.046209624
-0.64134108
-0.045811763
-0.63619046
-0.044003058
-0.63164068
-0.041207027
-0.62770978
-0.037795541
-0.62436845
-0.034058673
-0.62156369
-0.030203343
-0.61923472
-0.026365289
-0.61732239
-0.022625002
-0.61577405
-0.019022752
-0.61454554
-0.015570864
-0.61360156
-0.012263122
-0.61291513
-0.0090816802
-0.61246693
-0.0060009887
-0.0029876701
-0.62040701
0.016510679
-0.62134755
0.016705694
-0.62231985
0.017090214
-0.62334436
0.017683737
-0.62444233
0.018484756
-0.62563719
0.019494034
-0.62695518
0.020709773
-0.62842572
0.022126117
-0.6300814
0.023729968
-0.63195714
0.0254969
-0.63408822
0.027386094
-0.63650683
0.029335255
-0.63923713
0.031255623
-0.64228724
0.033025721
-0.64563697
0.034487829
-0.6492266
0.035462547
-0.65295852
0.03578935
-0.65671687
0.035374153
-0.66039433
0.034206876
-0.66391031
0.032338096
-0.66721265
0.029835117
-0.67026755
0.02674584
-0.67304639
0.023082799
-0.67551256
0.018817878
-0.67760545
0.013880225
-0.67922365
0.0081670489
-0.68021479
0.0015770139
-0.6803764
-0.0059438132
-0.67946392
-0.014356959
-0.67721242
-0.02345517
-0.6734341
-0.032696668
-0.66818577
-0.041126183
-0.661858
-0.047657746
-0.65503918
-0.051615298
-0.64828286
-0.052965943
-0.64198979
-0.05210484
-0.63638158
-0.049611267
-0.63153708
-0.046051525
-0.62744168
-0.041890944
-0.62403072
-0.037469626
-0.62121993
-0.033014134
-0.61892368
-0.028661539
-0.61706447
-0.024484218
-0.61557673
-0.020510487
-0.61440759
-0.016740004
-0.61351602
-0.013154695
-0.6128714
-0.009726295
-0.61245211
-0.0064202804
-0.0031949816
-0.62177472
0.017341588
-0.62262375
0.017554721
-0.62350589
0.017972359
-0.62444023
0.018618079
-0.62544818
0.0194927
-0.62655417
0.020600027
-0.62778647
0.021942077
-0.62917787
0.023517516
-0.63076606
0.025318155
-0.63259325
0.027324086
-0.63470425
0.029497095
-0.63714278
0.031773787
-0.63994602
0.034058866
-0.64313512
0.036214814
-0.64669744
0.038050151
-0.65056655
0.03933166
-0.65462055
0.039843348
-0.65871087
0.039464474
-0.66270436
0.038200371
-0.66651105
0.03614478
-0.67008495
0.033409023
-0.67340647
0.030067355
-0.6764633
0.026139632
-0.67923469
0.021589264
-0.68167114
0.016316676
-0.68366897
0.01016488
-0.685053
0.0029610452
-0.68557449
-0.0054223172
-0.68491473
-0.015016728
-0.68268998
-0.025679918
-0.67856927
-0.036817373
-0.6725493
-0.047146156
-0.6651522
-0.055054847
-0.65721566
-0.059551833
-0.64948267
-0.060698935
-0.64244698
-0.059140529
-0.63633828
-0.055719972
-0.63119913
-0.05119067
-0.62696365
-0.046126429
-0.62351805
-0.040915222
-0.6207381
-0.03579409
-0.61850863
-0.030891005
-0.61673171
-0.026261138
-0.61532833
-0.021913872
-0.61423709
-0.017831242
-0.61341178
-0.013979997
-0.61281875
-0.010319334
-0.61243456
-0.0068044611
-0.0033845963
-0.62320307
0.018084826
-0.62395748
0.018309126
-0.62474217
0.018757054
-0.62557764
0.019453551
-0.62648564
0.020400698
-0.62749143
0.021605816
-0.6286251
0.023075751
-0.62992278
0.024815189
-0.63142756
0.026822935
-0.63318983
0.029086363
-0.63526577
0.031573031
-0.63771336
0.034221374
-0.64058676
0.036932269
-0.64392606
0.039554118
-0.64773275
0.041856837
-0.6519345
0.043533416
-0.65637511
0.044283951
-0.66085708
0.043946444
-0.66520903
0.042552327
-0.66932909
0.040264841
-0.67318351
0.037263442
-0.6767755
0.033659347
-0.68011706
0.029481188
-0.68321219
0.024684389
-0.68603329
0.019137779
-0.68848299
0.012614585
-0.69036459
0.004842637
-0.69137689
-0.0044100096
-0.69111345
-0.015280169
-0.68903206
-0.02776131
-0.68457182
-0.041277617
-0.67759134
-0.054126632
-0.66879568
-0.063850509
-0.65942587
-0.068921645
-0.65049293
-0.06963187
-0.64260024
-0.067033215
-0.63596049
-0.062359727
-0.63054762
-0.056603543
-0.62621773
-0.050456321
-0.62279039
-0.044342554
-0.62009173
-0.038492753
-0.61797271
-0.033010024
-0.61631371
-0.027920139
-0.61502258
-0.023205006
-0.61403036
-0.018823459
-0.61328674
-0.014723613
-0.61275596
-0.010850117
-0.6124136
-0.0071468164
-0.0035532508
-0.62472696
0.018711538
-0.62537223
0.018954403
-0.62604901
0.01943383
-0.62677484
0.020179384
-0.62757051
0.021196366
-0.6284613
0.022496603
-0.62947851
0.024092962
-0.63066113
0.025997808
-0.63205753
0.028219338
-0.63372685
0.030755682
-0.63573837
0.033584554
-0.63816753
0.036650532
-0.64109026
0.039854995
-0.64457379
0.043037654
-0.64864519
0.045928234
-0.65323106
0.048119289
-0.65812776
0.049180653
-0.66306472
0.048883394
-0.66781465
0.047302267
-0.67226227
0.044712461
-0.67639798
0.041399148
-0.68026149
0.037522861
-0.68389829
0.033117981
-0.68734572
0.028131822
-0.69061054
0.022402598
-0.69361245
0.015616492
-0.6961346
0.0073647959
-0.69781701
-0.0027275997
-0.69815506
-0.014942121
-0.69641111
-0.029505262
-0.69166688
-0.046021846
-0.68348584
-0.062307674
-0.67281375
-0.074522604
-0.66157742
-0.080157969
-0.65116523
-0.080044063
-0.64229931
-0.075899137
-0.63512305
-0.069535986
-0.62948977
-0.06223682
-0.62514048
-0.054805613
-0.62180695
-0.047676077
-0.61925591
-0.041043795
-0.61730139
-0.034964545
-0.61580238
-0.029419152
-0.6146552
-0.024352182
-0.61378528
-0.019693385
-0.61313991
-0.015368978
-0.61268265
-0.011307381
-0.61238911
-0.0074403508
-0.0036975634
-0.6262558
0.019235455
-0.62678971
0.019488308
-0.62735072
0.019994846
-0.62795694
0.0207856
-0.6286282
0.021867628
-0.62938936
0.023257764
-0.63027245
0.024976049
-0.63131896
0.027044315
-0.63258246
0.029482838
-0.63413148
0.032304708
-0.63605066
0.035503731
-0.63843696
0.039036829
-0.64139391
0.042811949
-0.64502655
0.046670297
-0.64940616
0.05030784
-0.65447023
0.053183363
-0.65994845
0.054658868
-0.66545587
0.054390815
-0.67067844
0.052524839
-0.67548223
0.049516251
-0.67989883
0.045815751
-0.68402243
0.041646454
-0.6879402
0.037035759
-0.6917308
0.031922417
-0.69545616
0.026127959
-0.69907856
0.019238887
-0.7023753
0.010661539
-0.70493097
-0.00017192566
-0.70613802
-0.013735075
-0.70504039
-0.030602888
-0.70017684
-0.050885395
-0.690503
-0.071981518
-0.67723159
-0.087794018
-0.66352233
-0.093867226
-0.65128401
-0.092282385
-0.64134309
-0.085840058
-0.63367114
-0.077207931
-0.62791972
-0.06798824
-0.62366549
-0.059059841
-0.62052901
-0.050812562
-0.61820963
-0.04336317
-0.61648422
-0.036689961
-0.61519313
-0.03071024
-0.61422464
-0.025320667
-0.61350167
-0.02041636
-0.61297166
-0.015898991
-0.6125993
-0.011679733
-0.61236157
-0.007678086
-0.0038141814
-0.6278824
0.019622403
-0.62829054
0.019896444
-0.62872699
0.020431299
-0.62920482
0.02126343
-0.62974118
0.022403988
-0.63035931
0.023875886
-0.63109075
0.025707489
-0.63197819
0.027931761
-0.63307902
0.030583669
-0.63447013
0.033695817
-0.63625211
0.037285706
-0.6385468
0.041331518
-0.64149053
0.04575568
-0.64523711
0.050416879
-0.6499302
0.055000926
-0.65554588
0.058799044
-0.66172247
0.060835464
-0.66789418
0.060562523
-0.67361495
0.058245613
-0.67873027
0.054631563
-0.68335114
0.050436626
-0.68766376
0.045959073
-0.69181323
0.041185229
-0.69592876
0.036037946
-0.70015904
0.030358241
-0.70454518
0.023625027
-0.70887043
0.014986787
-0.71262605
0.0035836946
-0.71510023
-0.011260893
-0.71514632
-0.030556797
-0.71054291
-0.055488805
-0.69906514
-0.083459289
-0.68205646
-0.1048027
-0.66501604
-0.11090765
-0.65053162
-0.1067668
-0.63946205
-0.096909635
-0.63141571
-0.085254271
-0.62572019
-0.073683758
-0.62172686
-0.063053168
-0.61892297
-0.053616457
-0.61693779
-0.045348355
-0.61551571
-0.038112035
-0.61448495
-0.031741005
-0.61373154
-0.026074075
-0.61318045
-0.020967447
-0.61278258
-0.016296863
-0.61250607
-0.01195624
-0.61233073
-0.0078534303
-0.0038999607
-0.62933609
0.019884363
-0.62961511
0.020175461
-0.62991739
0.020733579
-0.63025389
0.021599927
-0.63063841
0.022788509
-0.63109134
0.024328819
-0.63164231
0.026258458
-0.63233369
0.028623139
-0.63322525
0.031475228
-0.63440131
0.034871883
-0.63597981
0.038864209
-0.63811365
0.043465356
-0.6409809
0.048622923
-0.64479745
0.054233436
-0.64982281
0.060026287
-0.65613452
0.065110752
-0.66325245
0.06795339
-0.67031249
0.067622569
-0.67666216
0.064595279
-0.68211701
0.060086412
-0.68692921
0.05524883
-0.69142787
0.050457727
-0.69581847
0.045575836
-0.70025481
0.04047428
-0.70499495
0.035098384
-0.71020214
0.028832212
-0.71569705
0.020481702
-0.72088231
0.0087689514
-0.72496939
-0.0071738052
-0.72679991
-0.028726284
-0.72323202
-0.05905669
-0.70979755
-0.096893764
-0.68723422
-0.12736603
-0.66565434
-0.13248752
-0.64844086
-0.12398028
-0.63630042
-0.10905008
-0.62813513
-0.093419556
-0.62277147
-0.079047421
-0.61926877
-0.066555866
-0.61696817
-0.055917056
-0.61543682
-0.046879703
-0.61439936
-0.039149494
-0.61368324
-0.032457132
-0.61318089
-0.026576418
-0.61282538
-0.021322957
-0.61257507
-0.016547174
-0.61240418
-0.012127129
-0.61229701
-0.0079606059
-0.0039521697
-0.63049043
0.019983098
-0.63062005
0.020305088
-0.63077113
0.02088466
-0.63094802
0.021776814
-0.63115972
0.023000212
-0.63142279
0.024591888
-0.63176368
0.026599344
-0.63222276
0.029082219
-0.63285987
0.032112343
-0.63376341
0.035775415
-0.63506545
0.040166257
-0.63695176
0.045351661
-0.63964732
0.051318483
-0.64343173
0.058017847
-0.64872437
0.065318923
-0.65582403
0.072210411
-0.66411209
0.076241454
-0.6722081
0.075718584
-0.67914849
0.071535664
-0.68470526
0.065643179
-0.68939505
0.059938625
-0.69378018
0.05484286
-0.69813922
0.049934874
-0.70260126
0.044936322
-0.70761274
0.040109855
-0.71359424
0.034813712
-0.72050293
0.027390393
-0.72773231
0.015998339
-0.73427951
-0.00062661108
-0.73920336
-0.023802431
-0.73833197
-0.059928081
-0.72349572
-0.11173002
-0.6924833
-0.15837845
-0.66469664
-0.16027417
-0.64430101
-0.14437591
-0.63139135
-0.12195975
-0.62358305
-0.10122785
-0.61896665
-0.083663823
-0.61625852
-0.069263996
-0.61466564
-0.05750994
-0.61371996
-0.047825376
-0.61315048
-0.039718981
-0.61280129
-0.032806314
-0.61258279
-0.02679492
-0.61244339
-0.021462357
-0.61235344
-0.016637124
-0.61229599
-0.01218458
-0.61226149
-0.0079951099
-0.0039687067
-0.63007867
0.019881955
-0.6300282
0.020254619
-0.62999565
0.020852106
-0.62997665
0.021757816
-0.62997324
0.0229968
-0.62999534
0.024613991
-0.63006225
0.02666625
-0.6302069
0.029226875
-0.6304823
0.032387736
-0.63097197
0.036265091
-0.63181236
0.041006646
-0.63322073
0.046760027
-0.63548317
0.053580927
-0.63894808
0.061482753
-0.64424163
0.070612477
-0.65213753
0.080106307
-0.66195074
0.086054671
-0.67135351
0.085121353
-0.67893887
0.079121026
-0.68436901
0.071073318
-0.68865916
0.064228772
-0.69275342
0.058937125
-0.69705286
0.054234312
-0.7015148
0.04939826
-0.70683847
0.045433528
-0.71385914
0.041834382
-0.72259621
0.036127456
-0.73261909
0.026021216
-0.74190446
0.008658768
-0.7505299
-0.015176993
-0.75421884
-0.056239145
-0.74047685
-0.12547201
-0.69642071
-0.20243459
-0.66055583
-0.19613905
-0.63703504
-0.1678967
-0.62415368
-0.13484111
-0.61751703
-0.1078645
-0.61423905
-0.086941802
-0.6127046
-0.070798443
-0.61204777
-0.058166779
-0.61182143
-0.04805171
-0.61179738
-0.039743036
-0.61186
-0.032743688
-0.61195141
-0.02670351
-0.61204331
-0.021370456
-0.61212256
-0.016557876
-0.61218362
-0.012123524
-0.61222455
-0.0079541715
-0.0039483106
-0.6261841
0.01955059
-0.62589648
0.019967002
-0.62560471
0.020560338
-0.62530221
0.021455312
-0.62498367
0.02267826
-0.62465037
0.024280695
-0.62431118
0.026327061
-0.62398744
0.02890313
-0.6237207
0.032120997
-0.62358438
0.036128774
-0.623711
0.041133265
-0.62434594
0.047394964
-0.62585904
0.05509403
-0.62866758
0.064291285
-0.63356075
0.075505654
-0.64216438
0.088709934
-0.65404063
0.097930919
-0.66487783
0.095958558
-0.67276117
0.087004368
-0.6770742
0.075386343
-0.67991336
0.067067932
-0.68282427
0.061848034
-0.68643004
0.057840085
-0.69004532
0.053013538
-0.69450564
0.049893846
-0.70161394
0.048942683
-0.71115657
0.045670092
-0.7240981
0.038962737
-0.7355659
0.020126571
-0.74986044
-0.00088245742
-0.76244934
-0.043650238
-0.7591658
-0.12875555
-0.69459069
-0.26700971
-0.6507344
-0.23999533
-0.62530403
-0.19332707
-0.61396274
-0.1461824
-0.60976317
-0.11206406
-0.60860984
-0.088095134
-0.60868417
-0.070724117
-0.60919205
-0.057658899
-0.60980281
-0.047440943
-0.61038442
-0.039161433
-0.6108895
-0.032238601
-0.61130626
-0.026286754
-0.61163706
-0.021039659
-0.61188908
-0.016305854
-0.61207022
-0.011942388
-0.61218723
-0.0078371539
-0.0038907445
-0.61276719
0.018731419
-0.61203693
0.019236738
-0.61129048
0.019813889
-0.61050098
0.020665813
-0.60965071
0.021827998
-0.60872763
0.023357613
-0.60772343
0.025322855
-0.60663746
0.027817167
-0.60548424
0.030967772
-0.60430317
0.034947708
-0.60318112
0.040011216
-0.60232653
0.046540368
-0.60215394
0.054921448
-0.6031368
0.065274141
-0.60601335
0.078382201
-0.61372764
0.096424226
-0.62752965
0.11173293
-0.63869375
0.10712265
-0.64546056
0.093771187
-0.64634685
0.076272633
-0.64573879
0.066459865
-0.6456751
0.061784349
-0.64728024
0.059445223
-0.6483107
0.054043998
-0.64944315
0.051026297
-0.65616921
0.055668741
-0.66607419
0.05557507
-0.68383949
0.056728042
-0.69888745
0.035174529
-0.7278596
0.028089691
-0.75027168
-0.021238164
-0.77323458
-0.10579265
-0.67715864
-0.36308565
-0.63076773
-0.28638624
-0.60622336
-0.21787145
-0.59992087
-0.15248488
-0.6002662
-0.11171874
-0.60224903
-0.086112305
-0.60437342
-0.068599726
-0.60623188
-0.055800443
-0.60775545
-0.045917368
-0.60897156
-0.037945326
-0.60992819
-0.031281969
-0.61067129
-0.025543651
-0.611239
-0.020471954
-0.61166107
-0.015883781
-0.61195982
-0.011643644
-0.61215113
-0.0076458414
-0.0037969223
-0.58478116
0.017487853
-0.58351168
0.01796725
-0.58214293
0.018445148
-0.58067071
0.019193592
-0.57906879
0.020226074
-0.57730629
0.021595109
-0.57534657
0.023363144
-0.57314981
0.025620398
-0.57067839
0.028496356
-0.56790514
0.032174457
-0.56482875
0.036934828
-0.56155651
0.043268124
-0.55853244
0.051897377
-0.55652721
0.063268916
-0.55614804
0.078003034
-0.56153096
0.10180715
-0.58049385
0.13069581
-0.59265965
0.11928845
-0.5989138
0.10002534
-0.59405237
0.071411206
-0.58776348
0.060170969
-0.58244207
0.056462943
-0.58157222
0.058575367
-0.57952447
0.051996249
-0.57387131
0.04537314
-0.58519088
0.032528844
-0.59561551
0.037437252
-0.6046761
0.040311939
-0.60342168
0.020479997
-0.63524864
0.039877826
-0.71434466
0.019774248
-0.6691866
-0.054713932
-0.6068585
-0.22710776
-0.5737993
-0.31944544
-0.571508
-0.22016275
-0.58113686
-0.14285602
-0.58945236
-0.10340324
-0.59561861
-0.079946049
-0.60008653
-0.064131812
-0.60336087
-0.052526099
-0.60579623
-0.043482011
-0.60762934
-0.036112212
-0.60901858
-0.029892734
-0.61007177
-0.024490462
-0.61086356
-0.019680165
-0.61144608
-0.015301258
-0.61185565
-0.011234069
-0.61211694
-0.0073845559
-0.0036689564
-0.52687358
0.015077594
-0.52437651
0.015470179
-0.5217238
0.01579244
-0.51887325
0.016343044
-0.5157706
0.017123423
-0.51234804
0.018172545
-0.50851988
0.019534981
-0.50418097
0.021281488
-0.49920708
0.023522469
-0.49346028
0.026427659
-0.48679745
0.030272001
-0.47911404
0.035584711
-0.47060599
0.043389328
-0.46224138
0.054904303
-0.45437305
0.070134703
-0.44762192
0.095056024
-0.4708038
0.15387769
-0.47004507
0.11852972
-0.46090896
0.090889241
-0.42707698
0.037579225
-0.39541857
0.02851255
-0.36802216
0.029066539
-0.30346985
0.020761199
-0.16298084
0.013455109
-0.041134856
0.0077690112
0
0