/*--------------------------------*- C++ -*----------------------------------*\
| =========                 |                                                 |
| \\      /  F ield         | foam-extend: Open Source CFD                    |
|  \\    /   O peration     | Version:     4.1                                |
|   \\  /    A nd           | Web:         http://www.foam-extend.org         |
|    \\/     M anipulation  |                                                 |
\*---------------------------------------------------------------------------*/
FoamFile
{
    version     2.0;
    format      ascii;
    class       volScalarField;
    location    "0.8";
    object      rAU;
}
// * * * * * * * * * * * * * * * * * * * * * * * * * * * * * * * * * * * * * //

dimensions      [0 0 1 0 0 0 0];

internalField   nonuniform List<scalar> 
4393
(
0.00022764405
0.00022727023
0.00022690417
0.00022653027
0.00022614642
0.00022575119
0.0002253422
0.00022491826
0.00022447852
0.00022402278
0.00022355166
0.00022306664
0.00022257024
0.00022206598
0.00022155826
0.0002210532
0.00022055661
0.00022007547
0.00021961743
0.00021919006
0.00021880111
0.00021845824
0.00021816897
0.00021794047
0.00021777939
0.00021769167
0.00021768195
0.00021768195
0.00021775353
0.00021790752
0.00021814208
0.00021845222
0.00021882974
0.0002192636
0.00021974054
0.00022024603
0.00022076523
0.00022128396
0.00022178939
0.00022227052
0.00022271838
0.00022312601
0.00022348836
0.00022380198
0.00022406477
0.00022427573
0.00022443495
0.00022454295
0.00022458507
0.00022451162
0.00022419113
0.00022388556
0.00022357095
0.00022324452
0.00022290463
0.00022254905
0.00022217693
0.00022178784
0.00022138217
0.00022096117
0.00022052714
0.00022008344
0.00021963454
0.00021918577
0.00021874415
0.00021831627
0.00021790974
0.00021753263
0.00021719279
0.00021689807
0.00021665617
0.00021647449
0.00021636002
0.0002163191
0.00021635712
0.00021644379
0.0002164167
0.00021645992
0.00021658683
0.00021679894
0.0002170947
0.00021746897
0.00021791298
0.00021841476
0.00021896003
0.0002195333
0.00022011907
0.00022070276
0.00022127143
0.00022181422
0.0002223224
0.00022278937
0.0002232104
0.00022358223
0.00022390274
0.00022417103
0.00022438861
0.00022454271
0.00022400623
0.00022369756
0.00022339742
0.00022308572
0.00022275973
0.00022241797
0.0002220584
0.00022168048
0.00022128419
0.00022087042
0.00022044108
0.00021999923
0.00021954911
0.00021909618
0.00021864676
0.00021820886
0.00021778999
0.00021739846
0.0002170429
0.00021673148
0.00021647223
0.00021627291
0.00021614091
0.00021608314
0.00021610577
0.00021621385
0.00021630058
0.0002161815
0.00021614324
0.00021619281
0.00021633513
0.00021657187
0.00021690047
0.00021731379
0.00021780027
0.00021834501
0.00021893107
0.00021954095
0.0002201579
0.00022076681
0.00022135485
0.00022191167
0.00022242934
0.00022290213
0.00022332603
0.00022369842
0.00022401821
0.00022428551
0.00022448062
0.00022365086
0.00022334758
0.00022304736
0.00022273253
0.00022240062
0.00022205034
0.00022167983
0.00022128878
0.0002208775
0.00022044734
0.00022000079
0.00021954166
0.00021907509
0.00021860757
0.00021814657
0.00021770126
0.0002172802
0.00021689264
0.00021654788
0.0002162546
0.00021602114
0.00021585542
0.00021576498
0.00021575688
0.00021583736
0.00021601148
0.00021609296
0.00021588782
0.00021576523
0.00021573574
0.00021580803
0.00021598733
0.00021627378
0.00021666163
0.00021713935
0.0002176908
0.00021829695
0.0002189378
0.000219594
0.00022024808
0.00022088519
0.00022149336
0.00022206347
0.00022258893
0.00022306525
0.00022348959
0.00022386075
0.00022417775
0.00022442244
0.00022328896
0.00022298983
0.00022268993
0.00022237228
0.00022203459
0.00022167569
0.00022129386
0.00022088895
0.00022046154
0.00022001336
0.00021954745
0.00021906832
0.00021858203
0.00021809615
0.00021761941
0.00021716225
0.00021673448
0.0002163464
0.0002160081
0.00021572878
0.0002155171
0.00021538121
0.00021532887
0.00021536738
0.00021550336
0.00021574218
0.00021582921
0.00021553358
0.00021532271
0.00021521115
0.00021521201
0.0002153346
0.00021558202
0.00021594985
0.00021642603
0.0002169925
0.00021762734
0.00021830735
0.00021901012
0.00021971552
0.00022040657
0.00022106974
0.00022169484
0.00022227466
0.00022280438
0.00022328117
0.00022370371
0.00022407085
0.00022436675
0.00022291126
0.00022261682
0.00022231828
0.00022199877
0.00022165608
0.0002212891
0.00022089618
0.00022047724
0.00022003307
0.00021956569
0.00021907861
0.00021857699
0.00021806783
0.00021755986
0.00021706315
0.00021658966
0.00021615062
0.00021575751
0.00021542133
0.00021515181
0.00021495793
0.00021484806
0.00021483022
0.00021491214
0.00021510106
0.00021540314
0.00021551081
0.00021511888
0.0002148141
0.0002146157
0.00021454202
0.00021460732
0.00021481822
0.00021517151
0.00021565406
0.00021624487
0.00021691816
0.00021764667
0.00021840427
0.00021916783
0.00021991814
0.0002206402
0.00022132295
0.00022195877
0.00022254285
0.00022307254
0.00022354675
0.00022396477
0.00022431252
0.00022251824
0.00022222916
0.00022193302
0.00022161265
0.00022126581
0.00022089136
0.00022048761
0.00022005451
0.00021959291
0.00021910503
0.00021859477
0.00021806792
0.00021753236
0.00021699808
0.00021647671
0.00021598192
0.00021552661
0.0002151237
0.00021478514
0.00021452121
0.00021434114
0.00021425345
0.00021426643
0.00021438838
0.00021462747
0.00021499114
0.00021513979
0.00021464429
0.00021423813
0.00021394601
0.00021379275
0.00021379883
0.00021397519
0.00021431987
0.00021481784
0.00021544394
0.00021616718
0.0002169551
0.00021777712
0.0002186067
0.00021942231
0.00022020756
0.00022095076
0.00022164419
0.0002222833
0.00022286595
0.00022339158
0.00022386031
0.0002242595
0.0002221119
0.00022182955
0.00022153699
0.00022121677
0.00022086663
0.00022048529
0.00022007096
0.00021962347
0.00021914365
0.00021863379
0.00021809805
0.00021754277
0.00021697675
0.0002164113
0.00021585981
0.00021533801
0.00021486084
0.00021444287
0.00021409715
0.00021383444
0.00021366406
0.00021359454
0.00021363439
0.00021379257
0.00021407854
0.00021450162
0.00021471771
0.00021410971
0.00021359249
0.00021319727
0.00021295693
0.00021290004
0.0002130432
0.00021338578
0.00021390977
0.00021458411
0.00021537082
0.00021623083
0.00021712821
0.00021803259
0.00021892007
0.00021977307
0.00022057958
0.00022133216
0.00022202688
0.00022266239
0.00022323899
0.00022375787
0.00022420763
0.00022169395
0.00022141917
0.00022113127
0.00022081228
0.00022045976
0.00022007222
0.00021964765
0.00021918566
0.00021868687
0.00021815351
0.00021758987
0.00021700272
0.00021640173
0.00021579963
0.00021521188
0.00021465666
0.00021415144
0.00021371282
0.00021335501
0.00021308915
0.0002129244
0.00021286902
0.00021293156
0.00021312171
0.00021345056
0.00021393003
0.00021424749
0.00021351621
0.00021287571
0.00021236485
0.0002120268
0.00021190097
0.0002120116
0.00021235962
0.00021292247
0.00021366075
0.00021452711
0.00021547409
0.00021645935
0.00021744827
0.00021841463
0.00021933998
0.00022021245
0.00022102533
0.00022177575
0.00022246352
0.00022309014
0.00022365803
0.00022415708
0.00022126639
0.00022100106
0.00022071923
0.00022040266
0.00022004878
0.00021965582
0.00021922143
0.00021874485
0.00021822635
0.00021766789
0.00021707369
0.0002164508
0.00021580968
0.00021516461
0.00021453339
0.00021393728
0.00021339693
0.00021293145
0.00021255638
0.00021228299
0.00021211983
0.00021207447
0.00021215521
0.00021237242
0.00021273915
0.00021327069
0.00021373249
0.0002128652
0.00021208618
0.00021144327
0.00021099277
0.00021078895
0.00021086689
0.00021122942
0.00021184705
0.00021266863
0.00021363418
0.00021468562
0.00021577299
0.00021685712
0.0002179097
0.00021891193
0.00021985267
0.00022072654
0.00022153223
0.00022227113
0.00022294626
0.0002235615
0.00022410811
0.00022083186
0.00022057658
0.00022030193
0.00021998897
0.00021963482
0.00021923734
0.00021879372
0.00021830266
0.00021776386
0.00021717878
0.00021655132
0.00021588861
0.00021520175
0.00021450658
0.00021382368
0.00021317815
0.00021259477
0.00021209587
0.00021169844
0.00021141351
0.00021124833
0.0002112091
0.00021130337
0.00021154201
0.00021194032
0.0002125179
0.00021317804
0.00021215985
0.00021122355
0.00021042724
0.00020984402
0.00020954894
0.00020959292
0.0002099813
0.00021067405
0.00021160319
0.00021269175
0.00021386821
0.00021507378
0.0002162646
0.0002174108
0.00021849401
0.00021950467
0.00022043944
0.00022129919
0.00022208737
0.00022280884
0.00022346915
0.00022406111
0.00022039133
0.00022014866
0.00021988296
0.00021957512
0.0002192221
0.00021882133
0.0002183694
0.00021786431
0.00021730493
0.00021669191
0.00021602853
0.00021532166
0.00021458281
0.00021382933
0.00021308499
0.0002123798
0.00021174404
0.00021120429
0.00021077921
0.00021047893
0.00021030841
0.00021027148
0.00021037425
0.00021062768
0.00021104951
0.00021166466
0.00021248467
0.00021140475
0.00021028865
0.00020931148
0.00020856776
0.00020816203
0.00020816922
0.00020859825
0.00020939268
0.00021046027
0.00021170107
0.00021302674
0.0002143685
0.00021567808
0.00021692499
0.00021809252
0.00021917376
0.00022016834
0.00022107999
0.00022191471
0.00022267957
0.00022338201
0.00022401652
0.00021995001
0.00021972003
0.00021946434
0.00021916295
0.00021881243
0.00021840963
0.00021795044
0.00021743191
0.00021685183
0.00021620967
0.00021550767
0.00021475201
0.00021395422
0.000213133
0.00021231571
0.00021153869
0.00021083976
0.00021025132
0.00020979396
0.00020947589
0.00020929816
0.00020926082
0.00020936744
0.00020962844
0.00021006394
0.00021070518
0.0002115922
0.00021060792
0.00020928494
0.00020809173
0.00020714935
0.00020660454
0.00020656973
0.00020705946
0.00020799106
0.00020923697
0.00021066604
0.00021216924
0.00021366696
0.00021510749
0.0002164614
0.00021771528
0.00021886634
0.00021991828
0.00022087846
0.00022175595
0.00022256037
0.00022330124
0.0002239749
0.00021950659
0.00021929264
0.00021904916
0.00021875618
0.00021841012
0.00021800728
0.00021754268
0.00021701225
0.00021641235
0.00021574085
0.00021499836
0.0002141898
0.0002133261
0.0002124268
0.00021152317
0.00021065965
0.00020988461
0.00020923868
0.0002087447
0.00020840734
0.00020822137
0.00020818108
0.00020828627
0.00020854588
0.00020898208
0.00020963344
0.00021055298
0.00020978113
0.0002082194
0.0002067656
0.00020557211
0.00020484603
0.00020476015
0.00020533886
0.00020645612
0.00020793248
0.00020959437
0.00021130791
0.00021298274
0.00021456582
0.00021603139
0.0002173717
0.00021858989
0.00021969501
0.00022069888
0.00022161418
0.00022245334
0.00022322814
0.00022393684
0.00021907184
0.0002188734
0.00021864315
0.00021836017
0.00021802036
0.00021761936
0.00021715119
0.00021661039
0.00021599155
0.00021529035
0.00021450514
0.00021363879
0.00021270077
0.00021171053
0.00021070318
0.00020973372
0.00020886565
0.00020815173
0.00020761773
0.00020726224
0.00020707011
0.00020702717
0.00020712776
0.00020737789
0.00020780062
0.00020844233
0.00020937181
0.00020894094
0.00020710426
0.00020533449
0.00020381785
0.00020284694
0.00020269421
0.00020340342
0.00020477395
0.00020654966
0.00020849931
0.00021046056
0.00021233415
0.00021406961
0.00021564879
0.00021707278
0.00021835286
0.00021950485
0.00022054588
0.00022149267
0.0002223607
0.00022316407
0.000223903
0.00021863727
0.00021845833
0.00021824375
0.00021797298
0.00021764193
0.00021724557
0.00021677685
0.00021622876
0.00021559372
0.0002148647
0.00021403688
0.00021311009
0.00021209113
0.00021099779
0.00020986809
0.00020877029
0.00020779002
0.00020699828
0.00020642447
0.00020605679
0.00020586424
0.00020582025
0.00020591207
0.00020614127
0.00020653
0.00020713282
0.00020803809
0.00020811304
0.00020595998
0.00020380669
0.00020186852
0.00020055546
0.00020030743
0.00020121077
0.00020293069
0.00020509768
0.00020740238
0.00020965266
0.00021174542
0.00021363949
0.00021533003
0.00021683106
0.00021816455
0.00021935457
0.0002204243
0.00022139482
0.00022228473
0.00022311043
0.00022387405
0.00021822575
0.00021806513
0.00021786732
0.00021761087
0.00021729122
0.00021690263
0.00021643684
0.00021588499
0.00021523697
0.00021448226
0.00021361175
0.0002126208
0.00021151198
0.00021029887
0.00020901984
0.00020775927
0.00020663587
0.00020574938
0.00020513435
0.00020476221
0.00020457727
0.00020453586
0.00020461744
0.00020481795
0.00020515487
0.00020568913
0.00020653145
0.00020732603
0.00020481619
0.00020220265
0.00019971102
0.00019790447
0.000197507
0.00019870623
0.00020091459
0.00020359638
0.00020633722
0.0002089198
0.00021124797
0.0002133006
0.00021509411
0.00021666034
0.00021803479
0.00021925107
0.00022033893
0.00022132391
0.00022222763
0.0002230686
0.00022385066
0.00021781669
0.00021767863
0.00021749997
0.00021726009
0.00021695462
0.00021657721
0.00021611837
0.00021556733
0.00021491118
0.00021413532
0.00021322523
0.00021217019
0.00021096672
0.00020962091
0.00020816604
0.00020670416
0.00020540411
0.0002044121
0.00020376958
0.00020342013
0.00020326784
0.00020324415
0.00020332042
0.00020348562
0.00020374511
0.00020416176
0.00020487348
0.00020604002
0.00020373282
0.00020057003
0.00019735006
0.00019481268
0.00019415657
0.00019582032
0.00019872062
0.00020208355
0.00020535531
0.00020831096
0.00021088168
0.00021308274
0.00021496212
0.00021657518
0.00021797344
0.00021920101
0.00022029428
0.00022128299
0.00022219142
0.00022303983
0.00022383347
0.00021746777
0.00021735055
0.00021719241
0.00021697203
0.0002166849
0.00021632405
0.0002158788
0.00021533642
0.00021468091
0.00021389294
0.00021295089
0.00021183535
0.00021053406
0.000209041
0.00020737385
0.00020564874
0.00020411114
0.00020298578
0.00020232302
0.00020202194
0.00020192117
0.00020191773
0.00020198028
0.00020209641
0.00020225007
0.0002025002
0.00020301732
0.00020404805
0.0002027769
0.00019900105
0.00019484845
0.00019121026
0.00019006009
0.00019246933
0.00019635922
0.00020062679
0.00020453427
0.00020789242
0.00021069592
0.0002130199
0.00021495647
0.00021658995
0.00021798969
0.00021921027
0.00022029417
0.00022127457
0.00022217775
0.00022302518
0.000223823
0.0002172001
0.00021710812
0.00021697443
0.00021677808
0.00021651487
0.0002161773
0.00021575352
0.0002152288
0.00021458394
0.00021379449
0.00021283047
0.00021166099
0.00021026241
0.00020861334
0.0002067003
0.00020463814
0.0002027898
0.00020151985
0.00020088594
0.00020071685
0.00020074068
0.00020080617
0.00020089057
0.00020099391
0.00020105282
0.0002010989
0.00020133251
0.00020206238
0.00020232333
0.00019782279
0.00019245184
0.00018712472
0.00018495914
0.00018857277
0.00019388274
0.00019934637
0.00020399063
0.00020775218
0.00021074963
0.00021314887
0.00021509919
0.0002167176
0.00021809107
0.00021928332
0.00022034132
0.00022130041
0.00022218781
0.00022302541
0.00022381968
0.0002172592
0.00021719534
0.00021709213
0.00021692758
0.00021669789
0.00021639526
0.00021600725
0.00021551777
0.00021490512
0.00021414036
0.00021318471
0.00021199222
0.00021052255
0.00020873519
0.00020656192
0.00020406776
0.00020178655
0.00020034989
0.00019980484
0.00019987873
0.00020010511
0.00020026571
0.00020036343
0.00020044968
0.00020036975
0.0002000931
0.00019988284
0.00020010199
0.00020118342
0.0001974007
0.00019066078
0.00018291658
0.00017861436
0.00018416403
0.00019146806
0.00019845292
0.00020389566
0.00020800286
0.00021110918
0.00021350599
0.00021540924
0.00021696767
0.00021828232
0.00021942249
0.00022043694
0.0002213612
0.00022222208
0.00022304091
0.00022382377
0.00021801653
0.00021798768
0.00021792956
0.00021781498
0.00021764017
0.00021739728
0.00021707377
0.0002166528
0.00021611055
0.00021541363
0.00021451343
0.00021334349
0.00021183628
0.00020993028
0.00020748585
0.00020441448
0.0002014769
0.00019988079
0.00019958018
0.00020017725
0.00020082159
0.00020120654
0.00020138442
0.00020158274
0.00020150218
0.00020093364
0.00020031584
0.00019986161
0.0002008083
0.00019976197
0.00019129687
0.00018002123
0.00017094777
0.00017965775
0.0001894792
0.00019827176
0.00020448865
0.00020878065
0.00021184195
0.0002141213
0.00021589855
0.00021734403
0.000218564
0.00021962724
0.00022058033
0.00022145641
0.00022228026
0.00022307161
0.00022383531
0.00022066328
0.00022071145
0.0002207413
0.00022072074
0.0002206479
0.00022051583
0.00022031322
0.00022002417
0.00021962492
0.00021908066
0.0002183375
0.00021731087
0.0002158978
0.0002140155
0.00021146341
0.0002077855
0.00020388257
0.0002023649
0.00020272399
0.00020450437
0.0002060093
0.00020691053
0.000207323
0.00020797802
0.00020832255
0.00020732449
0.00020618993
0.00020432568
0.00020496052
0.00020348424
0.00019649996
0.00018118213
0.00016222059
0.00017630841
0.0001886975
0.00019949681
0.00020614898
0.00021024628
0.00021300396
0.00021500906
0.00021656671
0.00021784215
0.00021893128
0.00021989359
0.00022076855
0.0002215841
0.00022236122
0.00022311693
0.00022385413
0.00022642244
0.00022656563
0.00022672834
0.00022685602
0.00022694641
0.00022699462
0.00022699348
0.00022693214
0.00022679226
0.00022654416
0.00022613679
0.00022547226
0.00022438769
0.00022271832
0.00022021981
0.00021576592
0.00020956478
0.00020824523
0.00020948421
0.00021348575
0.0002164634
0.00021835421
0.00021896817
0.00022040683
0.00022210541
9.3008416e-05
9.5433519e-05
9.7691874e-05
9.9882436e-05
0.00010288269
9.4463849e-05
8.6204563e-05
0.00010657307
0.00017933351
0.00019343343
0.00020412693
0.00020945428
0.00021253448
0.00021460541
0.00021615194
0.00021739464
0.00021844681
0.00021937309
0.00022021384
0.00022099643
0.0002217409
0.0002224629
0.0002231758
0.00022387979
0.00023924469
0.00023969239
0.00024019344
0.00024067972
0.00024116035
0.00024163942
0.00024212173
0.00024261105
0.0002431062
0.00024359643
0.00024404902
0.00024437123
0.00024434226
0.00024362597
0.00024200587
0.00023807437
0.00022682241
0.00022935502
0.00023549317
0.00025021754
0.00026144804
0.00027024228
0.00012828213
0.00016689165
0.00032278239
0.00046160773
0.00049956686
0.00049956686
0.00049956686
0.00049956686
0.00049956686
0.00045031232
0.00033649822
6.8075258e-05
0.00021297372
0.0002134608
0.00021437871
0.00021549432
0.00021653639
0.00021748107
0.00021833982
0.00021913128
0.00021987228
0.00022057684
0.00022125672
0.00022192218
0.0002225825
0.00022324665
0.00022391165
0.00026426646
0.00026527513
0.00026642902
0.00026762572
0.00026888578
0.00027023381
0.00027170393
0.00027333915
0.00027519263
0.00027733188
0.00027984331
0.00028282435
0.0002863763
0.00029055117
0.00029518492
0.00030234519
0.00027346043
0.00030501723
0.00035660978
0.00037257394
0.00027821627
0.00031958413
0.00049956686
0.00049956686
0.00049956686
0.00049956686
0.00049956686
0.00049956686
0.00049956686
0.00049956686
0.00041263402
0.0004182695
0.00010203823
0.00026658999
0.00023113984
0.00022209691
0.0002192752
0.00021853478
0.00021855422
0.00021888175
0.00021934143
0.00021986047
0.00022040741
0.00022096901
0.00022154068
0.00022212236
0.00022271654
0.00022332754
0.00022394887
0.00030195025
0.00030409301
0.00030622343
0.00030842621
0.00031077585
0.00031334517
0.00031622014
0.00031951402
0.00032338624
0.00032808043
0.00033399277
0.000341699
0.00035173143
0.00036474641
0.00038492139
0.00040157427
0.00025702274
0.00025318612
0.00026335297
0.00048919117
0.00047849536
0.00048856124
0.00047869854
0.00047372164
0.00047746535
0.00045865805
0.00045171928
0.0004535162
0.0004409361
0.00043652052
0.00010691831
0.00010767079
0.00021977646
0.00025235691
0.00023694816
0.00022741054
0.00022311572
0.00022121897
0.00022044934
0.00022024467
0.00022033818
0.00022059791
0.00022095581
0.00022137582
0.00022183886
0.0002223353
0.00022286118
0.00022341624
0.00022399043
0.00028856523
0.0002890834
0.00028927308
0.00028945935
0.0002896443
0.00028985989
0.00029013212
0.00029049787
0.0002910101
0.00029174643
0.00029282899
0.00029387396
0.00029481236
0.00029557021
0.00029292764
0.0001029276
0.00037622689
0.00047082219
0.00047253053
0.00049383699
0.0004861383
0.00048245086
0.00012420993
0.00012127922
0.00010077011
0.00010005415
0.00010062903
0.00010197285
0.00010292728
0.00010452165
0.000201209
0.00020767826
0.00021808305
0.00023901589
0.00023962998
0.00023076132
0.00022595769
0.00022341692
0.00022210827
0.00022149276
0.00022128029
0.00022131147
0.00022149643
0.00022178331
0.00022214192
0.00022255481
0.00022301242
0.00022351037
0.00022403524
0.00022327568
0.00022310783
0.00022281938
0.0002225406
0.00022227928
0.00022205256
0.00022187643
0.00022177423
0.00022177827
0.00022193345
0.0002223047
0.00022209445
0.00022116304
0.00021941656
0.00021672817
0.0002131461
9.5858663e-05
9.9101533e-05
9.9869101e-05
9.9773916e-05
0.00010014966
0.00010017643
0.00021253994
0.00021081377
0.00020892994
0.00020554391
0.00020443546
0.00020387909
0.00020210811
0.0002021263
0.00020330673
0.0002090129
0.00021823636
0.00023217557
0.00023802126
0.00023248189
0.00022785735
0.00022508938
0.00022347606
0.00022257919
0.00022213277
0.00022197621
0.00022201174
0.00022217921
0.00022244132
0.00022277502
0.00022316636
0.00022360756
0.00022408215
0.0002192663
0.00021934619
0.00021947259
0.00021960796
0.00021976357
0.00021995154
0.00022018445
0.00022047837
0.00022085261
0.00022132999
0.00022186454
0.00022156903
0.00022081352
0.00021957746
0.00021780352
0.0002149894
0.00021250636
0.0002140287
0.00021587903
0.00021421472
0.00021238163
0.0002112158
0.00021005914
0.00020833731
0.00020730349
0.00020568604
0.00020477986
0.00020420545
0.00020347961
0.00020394838
0.00020593237
0.00021088862
0.0002185484
0.00022810805
0.00023383158
0.00023318203
0.00022902058
0.00022628595
0.00022454833
0.00022348493
0.00022287573
0.00022257531
0.00022248863
0.00022255364
0.00022272979
0.0002229907
0.00022331942
0.00022370553
0.00022413006
0.0002178894
0.000217969
0.00021809437
0.00021823315
0.00021838821
0.00021856711
0.00021877836
0.00021903307
0.00021934374
0.0002197241
0.00021997956
0.00021948745
0.00021872925
0.0002176548
0.00021622745
0.00021439175
0.00021326079
0.00021411243
0.00021527041
0.00021349531
0.00021190197
0.00021068279
0.00020952616
0.00020831114
0.00020735633
0.00020629734
0.00020564697
0.00020528637
0.00020521201
0.00020608773
0.00020833127
0.00021262032
0.00021875915
0.00022561462
0.0002303
0.00023231268
0.00022962734
0.00022708135
0.00022534758
0.00022421038
0.00022350163
0.0002230995
0.00022291846
0.00022289936
0.00022300159
0.0002231975
0.00022346845
0.00022380225
0.00022417791
0.00021721109
0.00021733208
0.00021747183
0.00021762291
0.00021779124
0.00021798326
0.00021820515
0.00021846441
0.00021876807
0.00021912152
0.00021921515
0.00021877198
0.00021812035
0.00021723026
0.00021608136
0.00021482203
0.0002141951
0.00021469875
0.0002150392
0.00021341172
0.00021201415
0.00021086217
0.00020980463
0.00020882307
0.00020800298
0.0002072674
0.00020684881
0.00020673399
0.00020703008
0.0002081231
0.00021033534
0.00021399247
0.00021887073
0.00022400949
0.00022786306
0.00023021865
0.0002298466
0.00022755952
0.00022591086
0.00022476856
0.00022401223
0.00022354578
0.00022329666
0.00022321169
0.00022325256
0.00022339199
0.00022361085
0.00022389592
0.0002242248
0.00021692183
0.00021699494
0.00021711096
0.00021724616
0.00021739861
0.00021757185
0.00021776968
0.00021799698
0.00021825764
0.00021855315
0.00021852345
0.00021813392
0.00021760135
0.00021691413
0.00021608478
0.00021529057
0.00021497703
0.00021536529
0.000214996
0.00021359484
0.00021236939
0.00021132282
0.00021038934
0.0002095689
0.00020889452
0.00020837635
0.00020813554
0.00020820847
0.00020871218
0.00020988773
0.00021195303
0.00021505069
0.00021895103
0.00022294348
0.00022613921
0.00022830379
0.00022930039
0.00022779411
0.00022627863
0.00022517896
0.00022441525
0.00022391578
0.00022362198
0.00022348823
0.00022348002
0.00022357172
0.00022374459
0.00022398509
0.00022426992
0.00021677918
0.0002168922
0.00021701778
0.0002171535
0.00021730338
0.00021747049
0.00021765651
0.0002178633
0.00021809094
0.00021833623
0.00021824927
0.00021790055
0.00021744829
0.00021689717
0.00021628724
0.00021577738
0.00021563488
0.00021596294
0.0002150488
0.00021385943
0.00021279619
0.00021187015
0.00021106095
0.00021037615
0.00020983863
0.00020948093
0.00020937835
0.00020958346
0.00021019762
0.00021137688
0.00021325713
0.00021588286
0.00021904258
0.00022223351
0.00022490819
0.00022685667
0.00022809009
0.00022785095
0.00022649048
0.00022546371
0.00022472192
0.00022421433
0.00022389567
0.00022372841
0.00022368263
0.00022373511
0.00022386821
0.00022406865
0.00022431264
0.00021670588
0.00021677603
0.00021688247
0.00021700577
0.00021714345
0.00021729664
0.00021746549
0.00021765024
0.00021784897
0.00021805621
0.0002179684
0.00021768319
0.00021732722
0.00021691362
0.00021649074
0.00021618347
0.00021615671
0.00021618192
0.00021514094
0.00021413987
0.00021322863
0.00021242698
0.00021173744
0.00021117334
0.00021075741
0.00021052519
0.00021053111
0.00021082776
0.0002114952
0.0002126351
0.00021432546
0.00021655997
0.0002191574
0.00022176459
0.00022402366
0.00022576034
0.00022694906
0.00022750553
0.00022658061
0.00022564456
0.00022494491
0.00022444812
0.00022412079
0.00022393314
0.00022386011
0.00022388136
0.00022398079
0.00022414578
0.00022435249
0.00021665261
0.00021674417
0.00021685101
0.00021696716
0.00021709418
0.00021723305
0.00021738289
0.0002175425
0.00021770854
0.00021787425
0.00021779702
0.00021755908
0.00021727665
0.00021696863
0.00021668276
0.00021651265
0.00021656363
0.00021610954
0.00021525428
0.00021441777
0.00021364683
0.00021296648
0.00021239054
0.00021193633
0.0002116273
0.00021149664
0.00021158727
0.00021194546
0.00021263134
0.00021371004
0.00021522105
0.00021713383
0.00021929945
0.00022146747
0.00022339235
0.00022493381
0.00022605196
0.00022677682
0.00022657918
0.0002257418
0.00022509709
0.0002246248
0.00022430146
0.00022410432
0.00022401304
0.00022401031
0.00022408184
0.00022421597
0.00022438911
0.00021662048
0.00021668718
0.00021678216
0.00021688954
0.00021700712
0.00021713462
0.00021727014
0.0002174115
0.00021755435
0.00021769122
0.00021764824
0.0002174602
0.00021724628
0.0002170276
0.00021684694
0.00021677392
0.00021670999
0.00021608873
0.0002153864
0.00021469282
0.0002140495
0.00021348327
0.0002130132
0.00021265878
0.00021244328
0.00021239625
0.00021255258
0.00021295038
0.00021363319
0.00021464119
0.00021598953
0.00021763811
0.0002194671
0.00022129579
0.00022294924
0.00022431576
0.00022535208
0.00022606782
0.0002263797
0.00022577296
0.0002251906
0.00022475222
0.00022444244
0.00022424458
0.00022414266
0.00022412235
0.00022417131
0.000224279
0.00022442233
0.00021659667
0.00021666912
0.00021675956
0.00021685813
0.00021696448
0.00021707824
0.00021719711
0.00021731841
0.00021743747
0.00021754693
0.00021753801
0.00021739161
0.00021723383
0.00021708562
0.0002169833
0.00021695164
0.0002166443
0.00021610996
0.00021553564
0.00021496643
0.00021443818
0.00021397728
0.00021360459
0.00021334025
0.00021320639
0.00021322875
0.0002134358
0.00021385758
0.00021452459
0.00021546001
0.00021666425
0.00021809547
0.00021965801
0.00022121887
0.00022264965
0.00022386157
0.00022481312
0.00022550252
0.00022595408
0.00022575332
0.00022523652
0.000224838
0.00022454867
0.00022435691
0.00022425062
0.00022421826
0.00022424942
0.00022433482
0.00022445204
0.00021658579
0.00021664594
0.00021672858
0.00021681972
0.00021691741
0.00021702068
0.00021712679
0.00021723274
0.00021733379
0.00021742292
0.00021744915
0.00021734002
0.00021722949
0.00021713721
0.00021709332
0.00021696857
0.00021660076
0.0002161659
0.0002157003
0.00021523965
0.00021481457
0.0002144497
0.00021416577
0.00021398234
0.00021391975
0.00021400007
0.0002142463
0.00021468134
0.00021532569
0.00021619107
0.00021726949
0.00021852117
0.00021986975
0.0002212154
0.00022246161
0.00022353768
0.000224406
0.00022505885
0.00022550995
0.00022566435
0.0002252446
0.00022488925
0.00022462505
0.00022444452
0.00022433886
0.00022429909
0.00022431667
0.00022438362
0.00022447828
0.00021658213
0.00021664083
0.00021671787
0.00021680122
0.00021688954
0.00021698182
0.0002170752
0.00021716668
0.00021725171
0.00021732394
0.00021736711
0.00021730103
0.00021722881
0.00021717986
0.00021711437
0.00021690014
0.0002165997
0.00021624956
0.00021587752
0.00021551212
0.00021517935
0.00021490149
0.00021469799
0.0002145871
0.00021458694
0.00021471611
0.00021499287
0.00021543412
0.00021605288
0.00021685322
0.00021782276
0.00021892537
0.00022009985
0.00022126987
0.00022236153
0.0002233183
0.0002241072
0.0002247178
0.0002251571
0.00022544323
0.00022522319
0.00022491238
0.00022467626
0.00022451062
0.00022440948
0.00022436611
0.00022437374
0.00022442567
0.00022450113
0.00021658697
0.00021663921
0.00021671043
0.00021678727
0.00021686789
0.00021695111
0.00021703404
0.00021711379
0.00021718618
0.00021724565
0.00021728514
0.00021726916
0.00021722813
0.000217178
0.00021706222
0.00021687282
0.00021663176
0.00021635501
0.00021606441
0.00021578307
0.00021553295
0.00021533372
0.00021520302
0.00021515723
0.00021521211
0.000215383
0.00021568408
0.00021612731
0.00021672015
0.00021746167
0.00021833755
0.00021931574
0.00022034688
0.00022137165
0.00022233258
0.00022318432
0.00022389853
0.00022446403
0.00022488368
0.00022517005
0.00022517962
0.00022491323
0.00022470671
0.0002245584
0.00022446464
0.00022442069
0.00022442139
0.00022446136
0.00022452074
0.00021659774
0.00021664671
0.00021671295
0.00021678353
0.00021685677
0.00021693155
0.00021700507
0.00021707467
0.00021713666
0.00021718632
0.00021721788
0.00021722466
0.0002171995
0.00021713556
0.00021702791
0.00021687703
0.00021668891
0.00021647659
0.00021625766
0.00021605099
0.00021587507
0.00021574699
0.00021568224
0.00021569515
0.00021579902
0.00021600621
0.00021632732
0.00021677032
0.00021733856
0.00021802793
0.00021882352
0.00021969729
0.00022060909
0.0002215122
0.0002223614
0.0002231202
0.00022376464
0.00022428392
0.00022467854
0.00022495724
0.00022509779
0.00022489672
0.0002247203
0.00022459079
0.00022450644
0.00022446422
0.00022446048
0.00022449112
0.00022453727
0.00021661391
0.0002166589
0.00021672066
0.00021678586
0.00021685278
0.00021692034
0.00021698591
0.00021704716
0.00021710092
0.00021714333
0.00021716986
0.00021717546
0.00021715505
0.00021710418
0.00021702027
0.00021690522
0.00021676467
0.00021660956
0.0002164543
0.00021631444
0.00021620549
0.00021614202
0.00021613736
0.00021620363
0.00021635172
0.00021659123
0.0002169297
0.00021737183
0.00021791792
0.00021856183
0.00021928885
0.00022007455
0.00022088603
0.00022168606
0.00022243876
0.00022311474
0.00022369405
0.00022416695
0.00022453273
0.00022479769