/*--------------------------------*- C++ -*----------------------------------*\
| =========                 |                                                 |
| \\      /  F ield         | foam-extend: Open Source CFD                    |
|  \\    /   O peration     | Version:     4.1                                |
|   \\  /    A nd           | Web:         http://www.foam-extend.org         |
|    \\/     M anipulation  |                                                 |
\*---------------------------------------------------------------------------*/
FoamFile
{
    version     2.0;
    format      ascii;
    class       volVectorField;
    location    "0.8";
    object      U;
}
// * * * * * * * * * * * * * * * * * * * * * * * * * * * * * * * * * * * * * //

dimensions      [0 1 -1 0 0 0 0];

internalField   nonuniform List<vector> 
4393
(
(146.04881 -0.15651042 0)
(146.59743 -0.16294428 0)
(147.01175 -0.16595829 0)
(147.45299 -0.16960892 0)
(147.90407 -0.17401667 0)
(148.36988 -0.17926702 0)
(148.85264 -0.18528178 0)
(149.3545 -0.19191468 0)
(149.87706 -0.19896006 0)
(150.42124 -0.20615487 0)
(150.98705 -0.21317891 0)
(151.57351 -0.21965797 0)
(152.1784 -0.22517269 0)
(152.79821 -0.22927437 0)
(153.42805 -0.23150808 0)
(154.06167 -0.23144053 0)
(154.69158 -0.22868769 0)
(155.30924 -0.22293621 0)
(155.90528 -0.21395451 0)
(156.46976 -0.20159293 0)
(156.9924 -0.18577678 0)
(157.46281 -0.16649855 0)
(157.87063 -0.14381556 0)
(158.2058 -0.1178583 0)
(158.45875 -0.088853002 0)
(158.6208 -0.057155219 0)
(158.68461 -0.023271593 0)
(158.645 0.01213107 0)
(158.49864 0.047977648 0)
(158.24637 0.082852988 0)
(157.89319 0.11531098 0)
(157.44841 0.14394073 0)
(156.92543 0.16751387 0)
(156.34085 0.18513766 0)
(155.71337 0.19635363 0)
(155.06233 0.20115725 0)
(154.40648 0.19994411 0)
(153.76288 0.19340714 0)
(153.14624 0.18241565 0)
(152.56856 0.16790167 0)
(152.03912 0.1507698 0)
(151.56467 0.13183591 0)
(151.14978 0.111794 0)
(150.79719 0.091217683 0)
(150.50828 0.070611117 0)
(150.28348 0.050432697 0)
(150.12222 0.030837612 0)
(150.02092 0.011723155 0)
(149.97389 -0.0031699902 0)
(149.47185 -0.39493656 0)
(149.94127 -0.40588788 0)
(150.28753 -0.41398733 0)
(150.65755 -0.42452913 0)
(151.0372 -0.43762857 0)
(151.43149 -0.45332146 0)
(151.84278 -0.47133762 0)
(152.27332 -0.49123157 0)
(152.72478 -0.51239091 0)
(153.19817 -0.5340346 0)
(153.69359 -0.55521083 0)
(154.21012 -0.57480499 0)
(154.74562 -0.59156439 0)
(155.29661 -0.60414471 0)
(155.85819 -0.61117871 0)
(156.42408 -0.61136039 0)
(156.98672 -0.60352931 0)
(157.53746 -0.58673665 0)
(158.06684 -0.56027956 0)
(158.5648 -0.52370225 0)
(159.02097 -0.47677538 0)
(159.42483 -0.41947323 0)
(159.76596 -0.35196854 0)
(160.03414 -0.27466152 0)
(160.21965 -0.18825379 0)
(160.31359 -0.093864291 0)
(160.30842 0.0068582318 0)
(160.19854 0.11167153 0)
(159.98182 0.21749803 0)
(159.65897 0.32052561 0)
(159.23474 0.41655927 0)
(158.7183 0.50140357 0)
(158.12305 0.57136803 0)
(157.46577 0.62374546 0)
(156.76539 0.65711706 0)
(156.0415 0.67141568 0)
(155.31304 0.66776603 0)
(154.59718 0.64817797 0)
(153.90863 0.6151853 0)
(153.25935 0.57150658 0)
(152.6585 0.51977498 0)
(152.11272 0.46235274 0)
(151.62646 0.40122778 0)
(151.20242 0.33800307 0)
(150.84201 0.27399712 0)
(150.54554 0.21026832 0)
(150.31218 0.14710571 0)
(150.14086 0.084345096 0)
(150.03531 0.028580655 0)
(149.73731 -0.62943 0)
(150.19153 -0.63860649 0)
(150.52684 -0.65075574 0)
(150.885 -0.66774607 0)
(151.25284 -0.68942621 0)
(151.63545 -0.71557393 0)
(152.03531 -0.74567961 0)
(152.45479 -0.77898443 0)
(152.89572 -0.81446622 0)
(153.35921 -0.85082339 0)
(153.84556 -0.88646606 0)
(154.35399 -0.91952589 0)
(154.8825 -0.94789546 0)
(155.42774 -0.96930556 0)
(155.98485 -0.98144271 0)
(156.54756 -0.98209553 0)
(157.10825 -0.96930292 0)
(157.65817 -0.94146979 0)
(158.18774 -0.89742504 0)
(158.68681 -0.83641829 0)
(159.14491 -0.75807697 0)
(159.55145 -0.66235867 0)
(159.89589 -0.54953603 0)
(160.16783 -0.42024297 0)
(160.35729 -0.27560189 0)
(160.45496 -0.11743491 0)
(160.45276 0.051485419 0)
(160.34449 0.22727505 0)
(160.12651 0.40487643 0)
(159.79886 0.57804954 0)
(159.36606 0.73969517 0)
(158.83747 0.88261654 0)
(158.22717 1.000456 0)
(157.55296 1.0885605 0)
(156.83495 1.1445242 0)
(156.09391 1.1682912 0)
(155.34969 1.1618574 0)
(154.62012 1.1287197 0)
(153.92021 1.073239 0)
(153.26197 1.0000521 0)
(152.65441 0.91361101 0)
(152.10386 0.8178735 0)
(151.61443 0.71613665 0)
(151.1885 0.61101094 0)
(150.82718 0.50451403 0)
(150.53034 0.39807395 0)
(150.29671 0.29220522 0)
(150.12702 0.18720568 0)
(150.02928 0.087413933 0)
(149.82985 -0.85845982 0)
(150.27615 -0.86823629 0)
(150.60685 -0.8844842 0)
(150.9602 -0.90802497 0)
(151.32346 -0.93847015 0)
(151.70184 -0.97536911 0)
(152.09801 -1.017979 0)
(152.51453 -1.0652429 0)
(152.95345 -1.1157475 0)
(153.41612 -1.1676871 0)
(153.90305 -1.2188416 0)
(154.41371 -1.2665841 0)
(154.94627 -1.3079304 0)
(155.49744 -1.3396461 0)
(156.0624 -1.3584168 0)
(156.63471 -1.361066 0)
(157.20651 -1.3447796 0)
(157.76874 -1.3072819 0)
(158.31148 -1.2469195 0)
(158.82424 -1.1626466 0)
(159.29627 -1.0539461 0)
(159.71671 -0.92074297 0)
(160.07474 -0.76336543 0)
(160.35964 -0.58260136 0)
(160.56092 -0.37987666 0)
(160.66861 -0.1575643 0)
(160.67377 0.080625495 0)
(160.5692 0.32932846 0)
(160.35023 0.58132857 0)
(160.0161 0.82760751 0)
(159.57091 1.0578221 0)
(159.02435 1.2613921 0)
(158.3915 1.4289337 0)
(157.69182 1.5536094 0)
(156.94732 1.6319651 0)
(156.18056 1.6640625 0)
(155.41288 1.6529915 0)
(154.66306 1.6040076 0)
(153.94659 1.5235617 0)
(153.27551 1.4184285 0)
(152.65855 1.295042 0)
(152.10159 1.159067 0)
(151.60819 1.0151867 0)
(151.1802 0.86707624 0)
(150.81825 0.71749479 0)
(150.52164 0.56832437 0)
(150.28881 0.42059337 0)
(150.12121 0.27534803 0)
(150.02715 0.1350258 0)
(149.93884 -1.0820147 0)
(150.37706 -1.093336 0)
(150.70243 -1.1138025 0)
(151.0504 -1.1440104 0)
(151.40866 -1.1834002 0)
(151.7825 -1.2313322 0)
(152.17484 -1.2868434 0)
(152.58849 -1.3485891 0)
(153.02577 -1.4147722 0)
(153.48836 -1.4830837 0)
(153.97708 -1.5506628 0)
(154.49169 -1.6140955 0)
(155.0306 -1.6694712 0)
(155.59066 -1.7125181 0)
(156.16703 -1.7388316 0)
(156.75306 -1.7441803 0)
(157.34055 -1.7248278 0)
(157.91998 -1.6777861 0)
(158.48092 -1.6009288 0)
(159.01247 -1.4929534 0)
(159.50348 -1.3532447 0)
(159.94279 -1.1817242 0)
(160.31925 -0.97877099 0)
(160.62172 -0.74527857 0)
(160.83913 -0.48288816 0)
(160.96063 -0.19441161 0)
(160.97615 0.11561423 0)
(160.87712 0.4404493 0)
(160.65736 0.77079392 0)
(160.31481 1.0946729 0)
(159.85295 1.3980711 0)
(159.2818 1.666447 0)
(158.61792 1.8868315 0)
(157.88311 2.0498343 0)
(157.10213 2.1508628 0)
(156.30013 2.1902658 0)
(155.50049 2.1725634 0)
(154.72329 2.1051603 0)
(153.98461 1.9969541 0)
(153.29647 1.8571267 0)
(152.66715 1.6942572 0)
(152.10183 1.5157797 0)
(151.60332 1.3277396 0)
(151.17272 1.1347824 0)
(150.80995 0.94026736 0)
(150.51371 0.74638871 0)
(150.28219 0.55444296 0)
(150.11706 0.36561782 0)
(150.02586 0.18119261 0)
(150.07642 -1.3030295 0)
(150.50467 -1.3163874 0)
(150.82321 -1.3412594 0)
(151.16437 -1.3783569 0)
(151.51627 -1.4270158 0)
(151.88436 -1.4864642 0)
(152.27181 -1.5555578 0)
(152.68174 -1.6326979 0)
(153.11683 -1.7157323 0)
(153.57915 -1.8018655 0)
(154.06996 -1.8875953 0)
(154.5894 -1.9686941 0)
(155.13624 -2.0402639 0)
(155.70751 -2.0968968 0)
(156.29834 -2.1329694 0)
(156.90186 -2.1430569 0)
(157.50937 -2.122387 0)
(158.11072 -2.0671961 0)
(158.69485 -1.97488 0)
(159.25026 -1.8439148 0)
(159.76537 -1.6736282 0)
(160.22863 -1.4639502 0)
(160.62857 -1.2152651 0)
(160.95361 -0.92845513 0)
(161.19196 -0.60519189 0)
(161.3317 -0.24849855 0)
(161.36128 0.13647581 0)
(161.27031 0.5417027 0)
(161.05049 0.95571063 0)
(160.69793 1.3632828 0)
(160.21502 1.7461287 0)
(159.61214 2.0849106 0)
(158.90784 2.3622551 0)
(158.12718 2.5656917 0)
(157.29873 2.6893931 0)
(156.45118 2.7342894 0)
(155.61061 2.7068644 0)
(154.79879 2.6172767 0)
(154.03242 2.4774172 0)
(153.32336 2.2992947 0)
(152.67921 2.0939107 0)
(152.10417 1.8706171 0)
(151.59995 1.6368694 0)
(151.16662 1.3982569 0)
(150.80317 1.1586757 0)
(150.50754 0.92055383 0)
(150.27748 0.68523216 0)
(150.11443 0.45354002 0)
(150.02513 0.22567309 0)
(150.24325 -1.5150057 0)
(150.65996 -1.5306956 0)
(150.97017 -1.5602411 0)
(151.30293 -1.6045627 0)
(151.64695 -1.6629223 0)
(152.00786 -1.7344598 0)
(152.38912 -1.817889 0)
(152.79422 -1.9113956 0)
(153.22628 -2.0125052 0)
(153.68788 -2.117959 0)
(154.18081 -2.2236149 0)
(154.70574 -2.3244023 0)
(155.26189 -2.4143641 0)
(155.84657 -2.4868345 0)
(156.45494 -2.5348052 0)
(157.0798 -2.5514793 0)
(157.71181 -2.5309042 0)
(158.34 -2.4684774 0)
(158.95243 -2.3611449 0)
(159.53689 -2.2072541 0)
(160.08126 -2.0061814 0)
(160.57365 -1.7579315 0)
(161.00225 -1.4628812 0)
(161.35505 -1.1217865 0)
(161.61954 -0.73612975 0)
(161.78252 -0.30884527 0)
(161.83059 0.15462415 0)
(161.75103 0.64522201 0)
(161.53263 1.1494128 0)
(161.16882 1.6484234 0)
(160.66029 2.1188868 0)
(160.01768 2.5354782 0)
(159.26216 2.8752166 0)
(158.42327 3.1217774 0)
(157.53474 3.2679677 0)
(156.63002 3.3157273 0)
(155.73871 3.2742494 0)
(154.88456 3.1572535 0)
(154.08493 2.9803166 0)
(153.35127 2.7587717 0)
(152.69013 2.5063369 0)
(152.10436 2.2344078 0)
(151.59425 1.9518564 0)
(151.15855 1.6651543 0)
(150.79505 1.3786563 0)
(150.50078 1.0949587 0)
(150.27284 0.81535924 0)
(150.11214 0.54028978 0)
(150.02456 0.2691667 0)
(150.43868 -1.72553 0)
(150.84131 -1.7435693 0)
(151.14156 -1.7778098 0)
(151.46428 -1.8294631 0)
(151.79883 -1.8977672 0)
(152.15103 -1.9818291 0)
(152.52468 -2.0802778 0)
(152.9237 -2.1911417 0)
(153.35174 -2.311679 0)
(153.81198 -2.4382089 0)
(154.30691 -2.5659654 0)
(154.83786 -2.689011 0)
(155.40467 -2.8002478 0)
(156.00506 -2.8915986 0)
(156.63425 -2.9544454 0)
(157.28465 -2.980363 0)
(157.94608 -2.9620051 0)
(158.60646 -2.893829 0)
(159.25273 -2.7723649 0)
(159.87175 -2.5959587 0)
(160.45083 -2.3641808 0)
(160.97773 -2.0771994 0)
(161.44045 -1.7353633 0)
(161.82664 -1.3391439 0)
(162.12305 -0.8895317 0)
(162.31511 -0.3889545 0)
(162.38715 0.15731281 0)
(162.3235 0.73953865 0)
(162.10907 1.3422468 0)
(161.73347 1.9427952 0)
(161.19469 2.511715 0)
(160.50336 3.0160294 0)
(159.68405 3.425413 0)
(158.7724 3.7185981 0)
(157.80923 3.8869149 0)
(156.83425 3.9340114 0)
(155.88149 3.8729011 0)
(154.97702 3.7220063 0)
(154.13871 3.5015229 0)
(153.37721 3.2307409 0)
(152.69751 2.9264379 0)
(152.10061 2.6021673 0)
(151.58496 2.2681742 0)
(151.14761 1.9316762 0)
(150.78498 1.5973109 0)
(150.49295 1.2676479 0)
(150.26784 0.94373686 0)
(150.10983 0.62551295 0)
(150.02402 0.31173481 0)
(150.66213 -1.9211665 0)
(151.04916 -1.9417927 0)
(151.33787 -1.9811334 0)
(151.64882 -2.0406799 0)
(151.97214 -2.1196606 0)
(152.3139 -2.2171966 0)
(152.67826 -2.3318915 0)
(153.06965 -2.4616827 0)
(153.49233 -2.6036266 0)
(153.95022 -2.7536733 0)
(154.44663 -2.9064584 0)
(154.98379 -3.0551549 0)
(155.56232 -3.1914311 0)
(156.18058 -3.3056064 0)
(156.83391 -3.387156 0)
(157.51427 -3.4256729 0)
(158.21039 -3.4121186 0)
(158.90869 -3.3398822 0)
(159.59463 -3.2051583 0)
(160.25393 -3.006519 0)
(160.87325 -2.7439846 0)
(161.44014 -2.418063 0)
(161.94257 -2.0291013 0)
(162.36809 -1.5771195 0)
(162.70283 -1.0622431 0)
(162.93074 -0.48584174 0)
(163.03352 0.14762475 0)
(162.99185 0.82835426 0)
(162.78549 1.5393392 0)
(162.3986 2.2538269 0)
(161.82494 2.934967 0)
(161.07454 3.5397835 0)
(160.17639 4.0280409 0)
(159.17452 4.3719416 0)
(158.1194 4.5612551 0)
(157.05905 4.6024182 0)
(156.03301 4.5138664 0)
(155.06992 4.3202766 0)
(154.18779 4.0476585 0)
(153.39584 3.7200133 0)
(152.69682 3.3575448 0)
(152.08924 2.9760502 0)
(151.56919 2.5870614 0)
(151.13168 2.1983714 0)
(150.77141 1.8147031 0)
(150.483 1.4383972 0)
(150.2618 1.0700639 0)
(150.10717 0.70902383 0)
(150.02341 0.35333342 0)
(150.91335 -2.1187025 0)
(151.28147 -2.1417929 0)
(151.55679 -2.1860828 0)
(151.85407 -2.2534324 0)
(152.16429 -2.3431239 0)
(152.49372 -2.4543601 0)
(152.84694 -2.5858005 0)
(153.22892 -2.7353847 0)
(153.64462 -2.9000656 0)
(154.09887 -3.075514 0)
(154.59598 -3.255828 0)
(155.13929 -3.4332986 0)
(155.7305 -3.5982821 0)
(156.36884 -3.7392852 0)
(157.04996 -3.8435061 0)
(157.76529 -3.8980796 0)
(158.50211 -3.8918579 0)
(159.24481 -3.8169889 0)
(159.97688 -3.6694693 0)
(160.68259 -3.4484487 0)
(161.34792 -3.1547784 0)
(161.96041 -2.7895599 0)
(162.50832 -2.3531817 0)
(162.97945 -1.8449995 0)
(163.35961 -1.2637785 0)
(163.63131 -0.60908401 0)
(163.77323 0.11634435 0)
(163.76166 0.90354469 0)
(163.5696 1.7346373 0)
(163.17356 2.5787287 0)
(162.56065 3.3900802 0)
(161.73917 4.1124254 0)
(160.7438 4.6917963 0)
(159.63026 5.0915497 0)
(158.46235 5.2999439 0)
(157.29905 5.327933 0)
(156.18668 5.2017234 0)
(155.15647 4.9543687 0)
(154.22589 4.6192063 0)
(153.40178 4.2258076 0)
(152.68371 3.7981371 0)
(152.06691 3.3542218 0)
(151.54448 2.9066738 0)
(151.10898 2.4635782 0)
(150.75314 2.0294514 0)
(150.47013 1.6061398 0)
(150.25423 1.1935985 0)
(150.1039 0.79039542 0)
(150.02268 0.39378411 0)
(151.19045 -2.2910759 0)
(151.53865 -2.3167608 0)
(151.79895 -2.3663867 0)
(152.08071 -2.4421452 0)
(152.37588 -2.5433881 0)
(152.69094 -2.6694653 0)
(153.03093 -2.8191838 0)
(153.40139 -2.9905966 0)
(153.80811 -3.1806757 0)
(154.25694 -3.3849298 0)
(154.75342 -3.5970056 0)
(155.30228 -3.8083369 0)
(155.90668 -4.0078889 0)
(156.56705 -4.1820998 0)
(157.27965 -4.3153886 0)
(158.03533 -4.3917306 0)
(158.81945 -4.3972182 0)
(159.61366 -4.3224652 0)
(160.39871 -4.1634618 0)
(161.15709 -3.9204623 0)
(161.87409 -3.5957278 0)
(162.53756 -3.1913566 0)
(163.13659 -2.7079111 0)
(163.65976 -2.143899 0)
(164.09305 -1.4961663 0)
(164.41774 -0.7615431 0)
(164.60922 0.060153924 0)
(164.63857 0.962175 0)
(164.4701 1.9269384 0)
(164.06959 2.9197683 0)
(163.41378 3.8844329 0)
(162.50712 4.7467534 0)
(161.39158 5.4331951 0)
(160.13947 5.8947857 0)
(158.8332 6.1186242 0)
(157.5463 6.1229464 0)
(156.33321 5.9451801 0)
(155.22742 5.6296324 0)
(154.24472 5.2188464 0)
(153.38811 4.7488971 0)
(152.65271 4.2477579 0)
(152.02946 3.7355259 0)
(151.50783 3.2255411 0)
(151.07742 2.7257754 0)
(150.72878 2.2401556 0)
(150.45347 1.7697046 0)
(150.24464 1.313464 0)
(150.09983 0.86906898 0)
(150.02177 0.43282152 0)
(151.49495 -2.4740085 0)
(151.81878 -2.5023675 0)
(152.06188 -2.5572902 0)
(152.3259 -2.6414114 0)
(152.60375 -2.7542306 0)
(152.90207 -2.8953263 0)
(153.22632 -3.0637577 0)
(153.58269 -3.257823 0)
(153.97786 -3.4746666 0)
(154.41887 -3.7097952 0)
(154.91277 -3.9565394 0)
(155.46599 -4.2055509 0)
(156.0836 -4.4443694 0)
(156.76782 -4.6571193 0)
(157.51596 -4.8248396 0)
(158.31831 -4.9274094 0)
(159.1577 -4.9472535 0)
(160.01191 -4.8730905 0)
(160.85798 -4.7013082 0)
(161.67598 -4.4341882 0)
(162.45061 -4.0763613 0)
(163.1705 -3.6315625 0)
(163.82627 -3.1007483 0)
(164.40815 -2.4813605 0)
(164.90303 -1.7675809 0)
(165.29142 -0.95218835 0)
(165.54538 -0.030367455 0)
(165.6291 0.9952559 0)
(165.49767 2.10913 0)
(165.10123 3.2742468 0)
(164.40047 4.4223912 0)
(163.39192 5.4550322 0)
(162.1269 6.2699748 0)
(160.70167 6.8005257 0)
(159.22519 7.0336794 0)
(157.79026 6.9994301 0)
(156.46077 6.75153 0)
(155.27149 6.3494031 0)
(154.23447 5.8470508 0)
(153.34691 5.2879573 0)
(152.59775 4.7041427 0)
(151.97247 4.1173613 0)
(151.4561 3.5411079 0)
(151.0349 2.9826691 0)
(150.69697 2.4448884 0)
(150.4322 1.9275716 0)
(150.23259 1.4285549 0)
(150.09477 0.94433618 0)
(150.02066 0.47010194 0)
(151.82141 -2.6143153 0)
(152.12075 -2.6449086 0)
(152.34509 -2.7049485 0)
(152.58945 -2.7974541 0)
(152.84787 -2.9220956 0)
(153.12713 -3.078774 0)
(153.43313 -3.2669425 0)
(153.77271 -3.4853296 0)
(154.15352 -3.7314791 0)
(154.58394 -4.0011461 0)
(155.07278 -4.2875827 0)
(155.62862 -4.5808344 0)
(156.25895 -4.867077 0)
(156.96854 -5.1279267 0)
(157.75649 -5.3403172 0)
(158.61268 -5.4786819 0)
(159.51657 -5.52032 0)
(160.44047 -5.4513537 0)
(161.35611 -5.2690193 0)
(162.24042 -4.9788384 0)
(163.0777 -4.5890214 0)
(163.85818 -4.1056366 0)
(164.57512 -3.5302037 0)
(165.22156 -2.8588572 0)
(165.78656 -2.0823304 0)
(166.25068 -1.1878293 0)
(166.58276 -0.16381635 0)
(166.73952 0.99345507 0)
(166.66437 2.2731778 0)
(166.28661 3.6389397 0)
(165.54196 5.0098735 0)
(164.41177 6.2543072 0)
(162.95888 7.2268701 0)
(161.31522 7.8344396 0)
(159.62822 8.0665179 0)
(158.01632 7.9721625 0)
(156.55376 7.6290342 0)
(155.27432 7.1167844 0)
(154.18322 6.5034433 0)
(153.26889 5.8406078 0)
(152.51198 5.1639976 0)
(151.89108 4.4962343 0)
(151.38601 3.8500955 0)
(150.97927 3.2314073 0)
(150.65637 2.6413088 0)
(150.40553 2.0779251 0)
(150.21767 1.5375606 0)
(150.08855 1.0153552 0)
(150.01929 0.50521405 0)
(152.17462 -2.781782 0)
(152.44371 -2.8155188 0)
(152.64677 -2.8814155 0)
(152.86892 -2.983004 0)
(153.10522 -3.1202218 0)
(153.36244 -3.2933954 0)
(153.64685 -3.5025066 0)
(153.96591 -3.7468886 0)
(154.3283 -4.0247031 0)
(154.74392 -4.3322089 0)
(155.22363 -4.6628269 0)
(155.77859 -5.0061774 0)
(156.41948 -5.3471439 0)
(157.15468 -5.6646363 0)
(157.98629 -5.9305537 0)
(158.90432 -6.1118971 0)
(159.88383 -6.1785319 0)
(160.88928 -6.1128908 0)
(161.88477 -5.9139579 0)
(162.84302 -5.5927547 0)
(163.74832 -5.1633986 0)
(164.59369 -4.6357984 0)
(165.37633 -4.0127589 0)
(166.0936 -3.2892967 0)
(166.73831 -2.4520628 0)
(167.29244 -1.4807214 0)
(167.72202 -0.35389151 0)
(167.97589 0.94214174 0)
(167.9841 2.4054299 0)
(167.64872 4.0055912 0)
(166.86708 5.6508949 0)
(165.59206 7.1650975 0)
(163.89978 8.3360241 0)
(161.9767 9.0293161 0)
(160.02756 9.2430774 0)
(158.20445 9.0574229 0)
(156.59186 8.5852392 0)
(155.21817 7.9329841 0)
(154.07684 7.185392 0)
(153.14356 6.4023449 0)
(152.38797 5.622262 0)
(151.78027 4.8672911 0)
(151.29428 4.1482358 0)
(150.90845 3.4684465 0)
(150.60573 2.8266079 0)
(150.37276 2.218641 0)
(150.19952 1.6389723 0)
(150.08103 1.0811634 0)
(150.01763 0.53768814 0)
(152.54176 -2.8800118 0)
(152.78151 -2.9151463 0)
(152.96179 -2.9852778 0)
(153.15976 -3.0943271 0)
(153.37166 -3.2424899 0)
(153.60425 -3.4306028 0)
(153.86409 -3.6593353 0)
(154.15924 -3.9288693 0)
(154.49942 -4.2383305 0)
(154.89619 -4.5849371 0)
(155.36275 -4.9628006 0)
(155.9134 -5.3616208 0)
(156.56275 -5.765451 0)
(157.32423 -6.1507805 0)
(158.20484 -6.4838451 0)
(159.1958 -6.7218003 0)
(160.26627 -6.8237588 0)
(161.36915 -6.7668512 0)
(162.45708 -6.5532452 0)
(163.49691 -6.2027559 0)
(164.47362 -5.7383117 0)
(165.38494 -5.174708 0)
(166.23399 -4.5156265 0)
(167.02453 -3.7540696 0)
(167.75581 -2.8711283 0)
(168.41371 -1.8360712 0)
(168.96264 -0.61372958 0)
(169.34342 0.82353656 0)
(169.47211 2.4870207 0)
(169.21638 4.3602985 0)
(168.41536 6.3473316 0)
(166.96908 8.213877 0)
(164.96632 9.6419757 0)
(162.67954 10.429152 0)
(160.40125 10.596022 0)
(158.32698 10.273487 0)
(156.54863 9.6265915 0)
(155.08118 8.7966723 0)
(153.89886 7.8874379 0)
(152.95928 6.9661474 0)
(152.21794 6.0718819 0)
(151.63504 5.2242139 0)
(151.17781 4.4302397 0)
(150.82062 3.6895601 0)
(150.54402 2.9975343 0)
(150.33333 2.3473167 0)
(150.17788 1.7311111 0)
(150.07212 1.1407 0)
(150.01568 0.56700856 0)
(152.93697 -3.031286 0)
(153.1405 -3.0703697 0)
(153.29544 -3.147079 0)
(153.46669 -3.2659024 0)
(153.65142 -3.4274671 0)
(153.85608 -3.6333242 0)
(154.08739 -3.8850857 0)
(154.35384 -4.1840948 0)
(154.6661 -4.5308302 0)
(155.03741 -4.9239513 0)
(155.48362 -5.3587865 0)
(156.02264 -5.8255523 0)
(156.67391 -6.3077984 0)
(157.45772 -6.7798035 0)
(158.38905 -7.2011797 0)
(159.46267 -7.5151503 0)
(160.6403 -7.6636959 0)
(161.85777 -7.6147439 0)
(163.05073 -7.3750556 0)
(164.17805 -6.9781024 0)
(165.22729 -6.460419 0)
(166.20419 -5.8440039 0)
(167.1204 -5.1342976 0)
(167.98825 -4.3237358 0)
(168.81632 -3.3895097 0)
(169.5974 -2.2898463 0)
(170.29545 -0.97209209 0)
(170.84308 0.61070941 0)
(171.14361 2.4902593 0)
(171.0251 4.6787965 0)
(170.24143 7.0945613 0)
(168.59615 9.4337306 0)
(166.18208 11.207805 0)
(163.4116 12.093613 0)
(160.71653 12.166211 0)
(158.34556 11.639715 0)
(156.38988 10.756661 0)
(154.83683 9.7022647 0)
(153.63055 8.6000144 0)
(152.70371 7.5216669 0)
(151.99419 6.5033703 0)
(151.4508 5.5590249 0)
(151.034 4.6897442 0)
(150.71437 3.8898559 0)
(150.4705 3.1504401 0)
(150.2869 2.4613219 0)
(150.1526 1.8121716 0)
(150.06175 1.1928374 0)
(150.01342 0.59263016 0)
(153.33168 -3.0770535 0)
(153.5008 -3.1162761 0)
(153.62886 -3.1956563 0)
(153.77121 -3.3200449 0)
(153.92608 -3.4903769 0)
(154.09958 -3.7088628 0)
(154.29842 -3.9780559 0)
(154.53143 -4.3005438 0)
(154.81013 -4.6783861 0)
(155.1495 -5.1121539 0)
(155.56841 -5.5991363 0)
(156.08897 -6.130938 0)
(156.73643 -6.6915964 0)
(157.54016 -7.2546394 0)
(158.52784 -7.7738204 0)
(159.7024 -8.1746158 0)
(161.0164 -8.373459 0)
(162.37957 -8.3245895 0)
(163.70093 -8.0441697 0)
(164.92749 -7.5893482 0)
(166.05185 -7.0192394 0)
(167.09236 -6.3660322 0)
(168.07182 -5.6357154 0)
(169.0128 -4.8186117 0)
(169.93734 -3.8861343 0)
(170.8512 -2.7787838 0)
(171.72224 -1.414661 0)
(172.47733 0.2842429 0)
(173.01224 2.377848 0)
(173.11583 4.92154 0)
(172.42038 7.8765795 0)
(170.5538 10.866761 0)
(167.58164 13.127405 0)
(164.15065 14.105516 0)
(160.92374 14.004808 0)
(158.20687 13.174954 0)
(156.07176 11.973569 0)
(154.45371 10.637718 0)
(153.25146 9.3079896 0)
(152.3645 8.0544358 0)
(151.70971 6.9044673 0)
(151.22387 5.8620058 0)
(150.86107 4.9193563 0)
(150.58892 4.0638668 0)
(150.38491 3.2813771 0)
(150.2334 2.5578818 0)
(150.12367 1.8802862 0)
(150.04994 1.2364245 0)
(150.01084 0.6139999 0)
(153.7557 -3.2107727 0)
(153.88272 -3.2556738 0)
(153.98168 -3.3427018 0)
(154.09306 -3.4772901 0)
(154.21579 -3.6609451 0)
(154.35527 -3.8969309 0)
(154.51794 -4.1892764 0)
(154.71265 -4.5425243 0)
(154.95136 -4.9612507 0)
(155.2505 -5.4491878 0)
(155.63188 -6.0071798 0)
(156.1222 -6.6298387 0)
(156.75293 -7.3030299 0)
(157.56453 -8.0013581 0)
(158.60406 -8.674242 0)
(159.89121 -9.2232697 0)
(161.36854 -9.5218981 0)
(162.90556 -9.4973373 0)
(164.36962 -9.1778594 0)
(165.69104 -8.6551192 0)
(166.87382 -8.0206584 0)
(167.95892 -7.3166419 0)
(168.98572 -6.5439314 0)
(169.98953 -5.688669 0)
(171.01203 -4.7212142 0)
(172.08145 -3.5672709 0)
(173.17404 -2.1151703 0)
(174.20845 -0.25737343 0)
(175.0663 2.0894039 0)
(175.52443 5.0322737 0)
(175.04929 8.6561669 0)
(172.96257 12.55899 0)
(169.21555 15.541519 0)
(164.85472 16.579661 0)
(160.94685 16.174634 0)
(157.83671 14.893775 0)
(155.53885 13.265604 0)
(153.89573 11.581308 0)
(152.74049 9.9888149 0)
(151.93042 8.5450261 0)
(151.35922 7.2598929 0)
(150.95215 6.1217398 0)
(150.6585 5.1108053 0)
(150.44443 4.2057222 0)
(150.28759 3.386248 0)
(150.17313 2.6341961 0)
(150.0913 1.9336104 0)
(150.03677 1.2703412 0)
(150.00798 0.63058364 0)
(154.13605 -3.1949421 0)
(154.22235 -3.2381407 0)
(154.29039 -3.3247528 0)
(154.36806 -3.4611216 0)
(154.45507 -3.6493037 0)
(154.55583 -3.8935091 0)
(154.67619 -4.1990259 0)
(154.82461 -4.5720467 0)
(155.01313 -5.0192949 0)
(155.2592 -5.5473823 0)
(155.58775 -6.1607917 0)
(156.03084 -6.8574827 0)
(156.62703 -7.6253337 0)
(157.42996 -8.4417877 0)
(158.51601 -9.2569542 0)
(159.93865 -9.9454226 0)
(161.63286 -10.313603 0)
(163.40495 -10.244033 0)
(165.0547 -9.7924786 0)
(166.48718 -9.1122392 0)
(167.72798 -8.353419 0)
(168.8559 -7.5747084 0)
(169.93118 -6.7692779 0)
(170.99691 -5.9223028 0)
(172.11558 -5.0179622 0)
(173.34789 -3.9698826 0)
(174.68423 -2.6192415 0)
(176.03296 -0.79578772 0)
(177.28235 1.6463603 0)
(178.24503 4.9156921 0)
(178.21505 9.3275769 0)
(175.98304 14.535219 0)
(171.15296 18.674912 0)
(165.44358 19.685766 0)
(160.66923 18.753601 0)
(157.13226 16.799873 0)
(154.72273 14.604378 0)
(153.12359 12.497289 0)
(152.07796 10.61045 0)
(151.39325 8.9683752 0)
(150.94036 7.5513582 0)
(150.63596 6.325381 0)
(150.42752 5.2552592 0)
(150.28222 4.3094261 0)
(150.1796 3.4610229 0)
(150.10684 2.6875954 0)
(150.05591 1.9704291 0)
(150.02242 1.2935644 0)
(150.00486 0.64189759 0)
(154.44919 -3.3025164 0)
(154.48556 -3.3569483 0)
(154.51872 -3.4548292 0)
(154.55843 -3.6035831 0)
(154.60497 -3.8057139 0)
(154.66149 -4.0665143 0)
(154.733 -4.3928447 0)
(154.82725 -4.7932067 0)
(154.95577 -5.2776862 0)
(155.13628 -5.857916 0)
(155.3961 -6.5457614 0)
(155.7727 -7.3480315 0)
(156.31091 -8.2603948 0)
(157.076 -9.2701192 0)
(158.18357 -10.341898 0)
(159.74927 -11.328177 0)
(161.71003 -11.924777 0)
(163.76967 -11.919266 0)
(165.61706 -11.407432 0)
(167.12071 -10.62811 0)
(168.34783 -9.821345 0)
(169.44393 -9.0574671 0)
(170.49767 -8.299372 0)
(171.5507 -7.5088106 0)
(172.69283 -6.6862478 0)
(174.04825 -5.7206965 0)
(175.64987 -4.3711026 0)
(177.40813 -2.3758714 0)
(179.22608 0.47524446 0)
(181.001 4.3268745 0)
(181.86791 9.7702776 0)
(179.76967 16.836045 0)
(173.45908 22.958981 0)
(165.74649 23.684064 0)
(159.90421 21.82835 0)
(155.95017 18.869691 0)
(153.54169 15.933133 0)
(152.09818 13.330107 0)
(151.24924 11.129302 0)
(150.75033 9.2935633 0)
(150.45538 7.7580282 0)
(150.27891 6.4592526 0)
(150.17159 5.3438488 0)
(150.10503 4.3692558 0)
(150.06289 3.5020221 0)
(150.03575 2.7157327 0)
(150.01815 1.9892802 0)
(150.00716 1.3052408 0)
(150.00155 0.64754303 0)
(154.38534 -3.2266969 0)
(154.36109 -3.2766321 0)
(154.35216 -3.3659407 0)
(154.34557 -3.5059484 0)
(154.3422 -3.7004494 0)
(154.34326 -3.9563534 0)
(154.35216 -4.2825076 0)
(154.37481 -4.6901239 0)
(154.42068 -5.1929596 0)
(154.50549 -5.807738 0)
(154.6567 -6.5537409 0)
(154.91642 -7.4466851 0)
(155.33529 -8.4873847 0)
(155.98666 -9.666738 0)
(157.03668 -10.970075 0)
(158.71858 -12.239554 0)
(161.00826 -12.990836 0)
(163.44303 -12.819606 0)
(165.5255 -11.932116 0)
(167.06791 -10.721511 0)
(168.2112 -9.6083942 0)
(169.2209 -8.6677178 0)
(170.23081 -7.7962781 0)
(171.25969 -6.8989163 0)
(172.42059 -6.0535283 0)
(173.9376 -5.1956415 0)
(175.90356 -4.0098517 0)
(178.21013 -2.1964151 0)
(180.68135 0.51413789 0)
(183.37349 4.0152771 0)
(185.59558 9.8511977 0)
(184.21844 19.141328 0)
(175.99472 28.862816 0)
(165.32566 28.721294 0)
(158.34143 25.418952 0)
(154.09604 21.018363 0)
(151.90624 17.149454 0)
(150.78835 13.997926 0)
(150.25052 11.489015 0)
(150.00811 9.4845932 0)
(149.913 7.8577232 0)
(149.88886 6.5098943 0)
(149.8968 5.3684363 0)
(149.91719 4.380284 0)
(149.94031 3.5062556 0)
(149.96157 2.7167982 0)
(149.97892 1.9890865 0)
(149.99135 1.304764 0)
(149.99812 0.64724166 0)
(153.47568 -3.2564429 0)
(153.37713 -3.3301659 0)
(153.30987 -3.4389784 0)
(153.23693 -3.5990928 0)
(153.16078 -3.8145976 0)
(153.08031 -4.093302 0)
(152.99663 -4.4450001 0)
(152.91295 -4.8823192 0)
(152.8356 -5.421192 0)
(152.77676 -6.0818947 0)
(152.7622 -6.8907973 0)
(152.83908 -7.8767921 0)
(153.06539 -9.0557685 0)
(153.51284 -10.434523 0)
(154.39431 -12.05754 0)
(156.14095 -13.846887 0)
(158.85032 -15.095186 0)
(161.75963 -14.97879 0)
(164.04222 -13.952474 0)
(165.43557 -12.55885 0)
(166.22896 -11.491535 0)
(166.92179 -10.75524 0)
(167.71784 -10.148606 0)
(168.53768 -9.4722534 0)
(169.45581 -9.017591 0)
(170.86707 -8.8479912 0)
(172.96923 -8.2917035 0)
(175.65768 -7.0425724 0)
(178.57205 -4.4763013 0)
(182.42917 -0.72708751 0)
(187.15834 7.2309106 0)
(188.24555 20.22859 0)
(177.92813 36.681157 0)
(163.24699 34.969312 0)
(155.59471 29.53614 0)
(151.3512 23.102868 0)
(149.73668 18.09236 0)
(149.18481 14.388319 0)
(149.09723 11.621673 0)
(149.18648 9.5029838 0)
(149.33031 7.8291898 0)
(149.47859 6.4656531 0)
(149.61204 5.3226301 0)
(149.72459 4.3389986 0)
(149.81557 3.4717956 0)
(149.88647 2.6897414 0)
(149.93934 1.9692858 0)
(149.97543 1.2918457 0)
(149.99467 0.64086827 0)
(150.27879 -3.1555566 0)
(150.03216 -3.2216376 0)
(149.86082 -3.3063015 0)
(149.67272 -3.4361266 0)
(149.47264 -3.6163298 0)
(149.25575 -3.8557392 0)
(149.0196 -4.1652162 0)
(148.76277 -4.5595323 0)
(148.48564 -5.0587189 0)
(148.19191 -5.6903456 0)
(147.89706 -6.4947505 0)
(147.64255 -7.5281162 0)
(147.48329 -8.8435502 0)
(147.45926 -10.471678 0)
(147.78394 -12.507981 0)
(149.2032 -15.035955 0)
(152.18303 -17.05435 0)
(155.43209 -16.589816 0)
(157.58712 -14.7461 0)
(158.33723 -12.182824 0)
(158.23547 -10.347951 0)
(158.16962 -9.1892942 0)
(158.40417 -8.43404 0)
(158.60232 -7.523868 0)
(158.71833 -7.0230359 0)
(159.66736 -7.0173003 0)
(161.78093 -5.9943293 0)
(164.94935 -4.8731858 0)
(168.68311 -1.9564812 0)
(175.06189 4.1669322 0)
(184.04674 12.175529 0)
(189.65393 24.09551 0)
(176.92315 49.629401 0)
(157.54552 45.387892 0)
(150.91437 34.317611 0)
(147.40324 24.793143 0)
(146.95732 18.491171 0)
(147.31608 14.350001 0)
(147.83444 11.452211 0)
(148.32309 9.3129813 0)
(148.73401 7.6556976 0)
(149.06588 6.3188137 0)
(149.32881 5.2029761 0)
(149.53445 4.2439572 0)
(149.69303 3.3981349 0)
(149.81295 2.6344679 0)
(149.90068 1.929939 0)
(149.95989 1.2665738 0)
(149.99131 0.62847653 0)
(143.5103 -2.9201365 0)
(143.11024 -3.0125061 0)
(142.80005 -3.1140291 0)
(142.45179 -3.2636238 0)
(142.07718 -3.4662063 0)
(141.66698 -3.7319154 0)
(141.21314 -4.0730716 0)
(140.70628 -4.5068407 0)
(140.13601 -5.0569913 0)
(139.49037 -5.7562293 0)
(138.7627 -6.6522336 0)
(137.97552 -7.8160002 0)
(137.18226 -9.3211113 0)
(136.39274 -11.178489 0)
(135.75983 -13.444789 0)
(136.50362 -16.541295 0)
(140.14389 -19.657606 0)
(144.25854 -18.175057 0)
(146.43966 -15.4469 0)
(146.26494 -11.966754 0)
(144.63856 -10.769023 0)
(143.25519 -10.90055 0)
(142.63801 -11.369494 0)
(142.04208 -10.883484 0)
(141.16436 -10.368374 0)
(141.99076 -10.532121 9.2158989e-18)
(143.27128 -11.921213 -2.0405221e-19)
(145.57629 -13.589134 0)
(146.66391 -7.4754177 1.0016048e-17)
(144.02744 -14.50985 -7.4990624e-18)
(161.52974 -10.134968 4.4273338e-18)
(180.41226 5.4384115 -9.8916314e-18)
(167.93173 72.289647 6.3473266e-18)
(142.12823 58.029336 0)
(140.66651 37.126251 0)
(141.63428 24.707011 0)
(143.57067 17.830846 0)
(145.29833 13.692701 0)
(146.55469 10.912898 0)
(147.47727 8.8913459 0)
(148.16032 7.3301721 0)
(148.67269 6.068094 0)
(149.06042 5.0101486 0)
(149.3548 4.0963577 0)
(149.57745 3.2864661 0)
(149.74366 2.5519789 0)
(149.86425 1.8718002 0)
(149.94526 1.2294469 0)
(149.98814 0.61031363 0)
(129.54894 -2.8695527 0)
(128.76494 -2.9449025 0)
(128.16114 -3.0087369 0)
(127.48677 -3.1102468 0)
(126.76175 -3.2513554 0)
(125.96705 -3.4392364 0)