/*--------------------------------*- C++ -*----------------------------------*\
| =========                 |                                                 |
| \\      /  F ield         | foam-extend: Open Source CFD                    |
|  \\    /   O peration     | Version:     4.1                                |
|   \\  /    A nd           | Web:         http://www.foam-extend.org         |
|    \\/     M anipulation  |                                                 |
\*---------------------------------------------------------------------------*/
FoamFile
{
    version     2.0;
    format      ascii;
    class       volScalarField;
    location    "0.03";
    object      rAU;
}
// * * * * * * * * * * * * * * * * * * * * * * * * * * * * * * * * * * * * * //

dimensions      [0 0 1 0 0 0 0];

internalField   nonuniform List<scalar> 
4393
(
4.462354e-05
4.4617973e-05
4.4612857e-05
4.4607466e-05
4.4601799e-05
4.4595795e-05
4.458937e-05
4.4582461e-05
4.4575005e-05
4.4566947e-05
4.4558244e-05
4.4548872e-05
4.4538834e-05
4.4528165e-05
4.4516933e-05
4.4505279e-05
4.4493351e-05
4.4481363e-05
4.446958e-05
4.4458292e-05
4.444781e-05
4.4438456e-05
4.4430539e-05
4.4424342e-05
4.4420102e-05
4.4417993e-05
4.4417993e-05
4.4418102e-05
4.4420436e-05
4.4424891e-05
4.4431255e-05
4.4439222e-05
4.4448413e-05
4.4458409e-05
4.4468787e-05
4.4479155e-05
4.4489169e-05
4.449856e-05
4.4507128e-05
4.4514744e-05
4.4521335e-05
4.4526882e-05
4.4531398e-05
4.4534922e-05
4.4537511e-05
4.4539229e-05
4.4540146e-05
4.4539965e-05
4.453827e-05
4.451027e-05
4.450628e-05
4.4503331e-05
4.4499988e-05
4.4496373e-05
4.4492348e-05
4.4487842e-05
4.4482784e-05
4.4477116e-05
4.4470789e-05
4.4463769e-05
4.4456051e-05
4.4447658e-05
4.4438655e-05
4.4429145e-05
4.4419315e-05
4.4409358e-05
4.4399535e-05
4.4390159e-05
4.4381555e-05
4.4374064e-05
4.436802e-05
4.4363731e-05
4.4361461e-05
4.4361408e-05
4.4363689e-05
4.4365684e-05
4.4365877e-05
4.4368417e-05
4.43733e-05
4.4380408e-05
4.4389504e-05
4.4400246e-05
4.4412213e-05
4.4424948e-05
4.4438e-05
4.4450958e-05
4.4463481e-05
4.4475302e-05
4.4486237e-05
4.4496169e-05
4.4505045e-05
4.4512855e-05
4.4519625e-05
4.4525399e-05
4.4530236e-05
4.4534182e-05
4.4536866e-05
4.4538114e-05
4.450317e-05
4.4499426e-05
4.449653e-05
4.4493181e-05
4.4489507e-05
4.4485356e-05
4.4480661e-05
4.4475346e-05
4.4469355e-05
4.4462641e-05
4.4455179e-05
4.4446974e-05
4.4438069e-05
4.4428554e-05
4.4418566e-05
4.4408332e-05
4.4398092e-05
4.4388158e-05
4.4378891e-05
4.4370658e-05
4.4363834e-05
4.4358774e-05
4.4355789e-05
4.4355133e-05
4.4356972e-05
4.4361373e-05
4.43608e-05
4.4358774e-05
4.4359287e-05
4.4362445e-05
4.4368217e-05
4.4376421e-05
4.438673e-05
4.4398698e-05
4.4411805e-05
4.4425526e-05
4.4439363e-05
4.4452899e-05
4.4465799e-05
4.4477828e-05
4.448883e-05
4.4498728e-05
4.4507498e-05
4.451516e-05
4.452176e-05
4.4527357e-05
4.4532006e-05
4.4535736e-05
4.4538155e-05
4.4500013e-05
4.4496498e-05
4.4493599e-05
4.4490154e-05
4.4486303e-05
4.4481893e-05
4.4476863e-05
4.4471133e-05
4.4464648e-05
4.4457362e-05
4.4449254e-05
4.4440339e-05
4.4430675e-05
4.4420377e-05
4.4409615e-05
4.4398659e-05
4.4387802e-05
4.4377413e-05
4.4367909e-05
4.4359715e-05
4.4353249e-05
4.4348897e-05
4.4346991e-05
4.4347781e-05
4.4351412e-05
4.4357909e-05
4.4354784e-05
4.4350453e-05
4.4348906e-05
4.4350364e-05
4.4354888e-05
4.4362347e-05
4.437242e-05
4.4384614e-05
4.4398322e-05
4.4412927e-05
4.4427826e-05
4.4442521e-05
4.4456603e-05
4.446979e-05
4.4481893e-05
4.4492816e-05
4.4502528e-05
4.4511048e-05
4.4518426e-05
4.4524728e-05
4.4530017e-05
4.4534339e-05
4.4537232e-05
4.4496484e-05
4.4493023e-05
4.4490101e-05
4.4486593e-05
4.4482623e-05
4.4478031e-05
4.4472748e-05
4.4466688e-05
4.445979e-05
4.4452001e-05
4.4443301e-05
4.4433705e-05
4.4423282e-05
4.4412165e-05
4.4400555e-05
4.4388766e-05
4.4377145e-05
4.4366128e-05
4.43562e-05
4.434785e-05
4.4341552e-05
4.433774e-05
4.433677e-05
4.4338908e-05
4.4344286e-05
4.4352896e-05
4.4347315e-05
4.43405e-05
4.4336772e-05
4.4336481e-05
4.4339794e-05
4.4346631e-05
4.4356663e-05
4.4369328e-05
4.4383895e-05
4.4399632e-05
4.4415808e-05
4.4431833e-05
4.4447225e-05
4.4461655e-05
4.4474908e-05
4.4486877e-05
4.4497533e-05
4.4506904e-05
4.4515053e-05
4.4522059e-05
4.4528003e-05
4.4532953e-05
4.4536431e-05
4.4493043e-05
4.4489814e-05
4.4486992e-05
4.4483464e-05
4.4479382e-05
4.4474586e-05
4.4469011e-05
4.4462565e-05
4.4455183e-05
4.4446805e-05
4.4437407e-05
4.4427005e-05
4.4415676e-05
4.4403569e-05
4.4390916e-05
4.4378078e-05
4.4365462e-05
4.4353581e-05
4.4342999e-05
4.4334283e-05
4.4327977e-05
4.432457e-05
4.4324458e-05
4.4327928e-05
4.4335111e-05
4.4345968e-05
4.4338158e-05
4.4328705e-05
4.4322695e-05
4.4320627e-05
4.4322795e-05
4.4329176e-05
4.4339425e-05
4.4352878e-05
4.4368637e-05
4.4385823e-05
4.4403544e-05
4.4421114e-05
4.4437966e-05
4.4453735e-05
4.4468185e-05
4.4481211e-05
4.4492794e-05
4.450298e-05
4.4511851e-05
4.4519511e-05
4.4526064e-05
4.4531611e-05
4.4535698e-05
4.4489157e-05
4.4485922e-05
4.448311e-05
4.4479574e-05
4.4475444e-05
4.4470545e-05
4.4464799e-05
4.44581e-05
4.445037e-05
4.4441533e-05
4.4431553e-05
4.4420435e-05
4.440825e-05
4.4395158e-05
4.4381413e-05
4.4367421e-05
4.4353657e-05
4.4340721e-05
4.4329271e-05
4.4319969e-05
4.4313441e-05
4.4310247e-05
4.4310834e-05
4.4315531e-05
4.4324476e-05
4.433762e-05
4.4327779e-05
4.4315345e-05
4.4306779e-05
4.4302771e-05
4.4303769e-05
4.4309815e-05
4.4320538e-05
4.433513e-05
4.4352451e-05
4.4371444e-05
4.4391012e-05
4.4410364e-05
4.4428842e-05
4.4446055e-05
4.4461754e-05
4.4475853e-05
4.4488352e-05
4.4499326e-05
4.4508885e-05
4.4517161e-05
4.4524287e-05
4.4530389e-05
4.4535042e-05
4.4485578e-05
4.4482679e-05
4.4480086e-05
4.4476623e-05
4.4472469e-05
4.4467445e-05
4.4461476e-05
4.4454446e-05
4.4446262e-05
4.4436836e-05
4.4426111e-05
4.4414082e-05
4.4400811e-05
4.4386464e-05
4.4371319e-05
4.4355834e-05
4.4340559e-05
4.4326205e-05
4.4313539e-05
4.4303341e-05
4.4296334e-05
4.4293166e-05
4.4294347e-05
4.4300265e-05
4.4311078e-05
4.4326729e-05
4.4315309e-05
4.4299631e-05
4.4288303e-05
4.4282242e-05
4.4282107e-05
4.4288021e-05
4.4299583e-05
4.4315796e-05
4.433517e-05
4.4356435e-05
4.4378227e-05
4.4399648e-05
4.4419943e-05
4.4438712e-05
4.445571e-05
4.4470881e-05
4.4484265e-05
4.4495976e-05
4.4506164e-05
4.4514996e-05
4.4522639e-05
4.4529254e-05
4.4534443e-05
4.4481488e-05
4.4478533e-05
4.4475958e-05
4.4472528e-05
4.446839e-05
4.4463342e-05
4.4457289e-05
4.4450095e-05
4.4441645e-05
4.4431822e-05
4.4420543e-05
4.440777e-05
4.4393543e-05
4.4378012e-05
4.436147e-05
4.4344415e-05
4.4327478e-05
4.43115e-05
4.4297382e-05
4.428604e-05
4.4278313e-05
4.4274955e-05
4.4276548e-05
4.4283562e-05
4.429619e-05
4.4314388e-05
4.4301784e-05
4.4282279e-05
4.4267691e-05
4.4259232e-05
4.4257847e-05
4.4263763e-05
4.4276545e-05
4.4294929e-05
4.431691e-05
4.4340972e-05
4.4365393e-05
4.4389185e-05
4.4411485e-05
4.4431911e-05
4.4450237e-05
4.4466465e-05
4.4480687e-05
4.4493072e-05
4.4503816e-05
4.4513129e-05
4.4521214e-05
4.4528267e-05
4.4533917e-05
4.4478014e-05
4.4475554e-05
4.4473341e-05
4.4470104e-05
4.4466059e-05
4.4460999e-05
4.4454833e-05
4.4447405e-05
4.4438578e-05
4.4428204e-05
4.4416164e-05
4.4402384e-05
4.4386871e-05
4.4369762e-05
4.4351355e-05
4.4332204e-05
4.4313034e-05
4.4294861e-05
4.4278744e-05
4.4265777e-05
4.4256927e-05
4.4253079e-05
4.4254894e-05
4.4262963e-05
4.4277526e-05
4.429857e-05
4.4285618e-05
4.4261876e-05
4.4243666e-05
4.4232561e-05
4.4229909e-05
4.4236094e-05
4.4250665e-05
4.4272016e-05
4.4297355e-05
4.4324912e-05
4.4352481e-05
4.4379014e-05
4.4403537e-05
4.4425726e-05
4.4445403e-05
4.4462657e-05
4.447765e-05
4.4490626e-05
4.4501838e-05
4.4511546e-05
4.4519995e-05
4.4527413e-05
4.453346e-05
4.4473912e-05
4.4471331e-05
4.4469118e-05
4.446594e-05
4.4461966e-05
4.4456956e-05
4.4450797e-05
4.4443306e-05
4.4434315e-05
4.4423638e-05
4.4411107e-05
4.439659e-05
4.438004e-05
4.4361541e-05
4.4341372e-05
4.432012e-05
4.4298598e-05
4.4278034e-05
4.4259679e-05
4.4244836e-05
4.4234619e-05
4.4230064e-05
4.4231906e-05
4.4240899e-05
4.4257331e-05
4.4281236e-05
4.4268701e-05
4.4239774e-05
4.4217071e-05
4.4202652e-05
4.4198457e-05
4.4205071e-05
4.4222049e-05
4.4247328e-05
4.4276877e-05
4.4308711e-05
4.4339953e-05
4.4369577e-05
4.4396491e-05
4.4420497e-05
4.4441492e-05
4.4459689e-05
4.4475347e-05
4.4488796e-05
4.4500358e-05
4.4510347e-05
4.4519052e-05
4.4526736e-05
4.4533086e-05
4.447078e-05
4.446888e-05
4.4467195e-05
4.4464362e-05
4.446064e-05
4.445579e-05
4.4449695e-05
4.4442149e-05
4.4432949e-05
4.4421856e-05
4.4408638e-05
4.4393091e-05
4.4375091e-05
4.4354661e-05
4.433205e-05
4.430789e-05
4.4283102e-05
4.4259231e-05
4.4237766e-05
4.4220283e-05
4.4208052e-05
4.420229e-05
4.4203779e-05
4.4213523e-05
4.4231883e-05
4.4258972e-05
4.4248368e-05
4.4213637e-05
4.4185838e-05
4.4167597e-05
4.4161721e-05
4.4169104e-05
4.4189421e-05
4.4220059e-05
4.4254992e-05
4.4292171e-05
4.4327768e-05
4.436093e-05
4.4390439e-05
4.4416319e-05
4.4438586e-05
4.4457628e-05
4.4473822e-05
4.4487609e-05
4.4499389e-05
4.4509538e-05
4.4518388e-05
4.4526237e-05
4.4532799e-05
4.4466897e-05
4.4464802e-05
4.4463081e-05
4.4460322e-05
4.445671e-05
4.4451974e-05
4.4445973e-05
4.4438471e-05
4.4429229e-05
4.441796e-05
4.4404364e-05
4.4388147e-05
4.4369081e-05
4.4347076e-05
4.4322295e-05
4.4295364e-05
4.4267259e-05
4.4239942e-05
4.421517e-05
4.4194852e-05
4.4180411e-05
4.4173282e-05
4.417424e-05
4.418465e-05
4.4204911e-05
4.4235173e-05
4.4227971e-05
4.4185925e-05
4.4151496e-05
4.4128127e-05
4.4119964e-05
4.4128289e-05
4.4153036e-05
4.4190914e-05
4.4232567e-05
4.4276266e-05
4.4316835e-05
4.4353866e-05
4.4386028e-05
4.4413702e-05
4.4437076e-05
4.4456764e-05
4.4473293e-05
4.4487227e-05
4.4499051e-05
4.4509203e-05
4.4518058e-05
4.452595e-05
4.4532611e-05
4.4464321e-05
4.4463084e-05
4.4462062e-05
4.4459825e-05
4.4456672e-05
4.4452335e-05
4.4446674e-05
4.4439425e-05
4.44303e-05
4.4418935e-05
4.4404929e-05
4.4387856e-05
4.4367336e-05
4.4343119e-05
4.431524e-05
4.428433e-05
4.4251421e-05
4.4219155e-05
4.4189657e-05
4.4165293e-05
4.4147619e-05
4.4138329e-05
4.4138024e-05
4.4148636e-05
4.4170616e-05
4.4204207e-05
4.4203074e-05
4.4152785e-05
4.4110757e-05
4.4081234e-05
4.4070351e-05
4.4079964e-05
4.4110693e-05
4.4158648e-05
4.4208835e-05
4.4260683e-05
4.4307049e-05
4.4348406e-05
4.4383324e-05
4.4412722e-05
4.4437029e-05
4.4457153e-05
4.4473801e-05
4.4487677e-05
4.4499361e-05
4.4509353e-05
4.4518073e-05
4.4525881e-05
4.4532529e-05
4.4460952e-05
4.4459469e-05
4.445838e-05
4.4456229e-05
4.4453217e-05
4.4449051e-05
4.4443562e-05
4.4436461e-05
4.4427425e-05
4.4416037e-05
4.4401814e-05
4.4384211e-05
4.4362681e-05
4.4336766e-05
4.430628e-05
4.4271756e-05
4.4234081e-05
4.4196861e-05
4.416259e-05
4.4134188e-05
4.4113241e-05
4.4101799e-05
4.4100045e-05
4.4110914e-05
4.4134825e-05
4.4171857e-05
4.4179664e-05
4.4118805e-05
4.4066421e-05
4.4028021e-05
4.4013047e-05
4.4024031e-05
4.4062766e-05
4.4124965e-05
4.4185766e-05
4.4247489e-05
4.4300191e-05
4.4345986e-05
4.4383401e-05
4.4414151e-05
4.4438981e-05
4.445916e-05
4.4475588e-05
4.4489122e-05
4.4500427e-05
4.4510061e-05
4.4518476e-05
4.4526055e-05
4.4532563e-05
4.4459073e-05
4.4458553e-05
4.4458294e-05
4.4456838e-05
4.4454514e-05
4.4451047e-05
4.4446278e-05
4.4439896e-05
4.4431529e-05
4.4420667e-05
4.4406687e-05
4.4388833e-05
4.4366278e-05
4.433821e-05
4.4304071e-05
4.4264253e-05
4.4219327e-05
4.4174625e-05
4.4133203e-05
4.4098822e-05
4.4073003e-05
4.4058307e-05
4.4053846e-05
4.4064071e-05
4.4089225e-05
4.4129122e-05
4.415032e-05
4.4077368e-05
4.4013137e-05
4.3963853e-05
4.3943735e-05
4.3956075e-05
4.4005297e-05
4.4088e-05
4.4162041e-05
4.4236001e-05
4.4295832e-05
4.4346352e-05
4.4386107e-05
4.4417897e-05
4.4442879e-05
4.446275e-05
4.4478636e-05
4.449155e-05
4.4502243e-05
4.4511323e-05
4.4519268e-05
4.4526476e-05
4.4532716e-05
4.4456645e-05
4.44559e-05
4.4455595e-05
4.4454262e-05
4.4452134e-05
4.4448907e-05
4.44444e-05
4.4438281e-05
4.4430145e-05
4.4419435e-05
4.4405439e-05
4.4387261e-05
4.4363848e-05
4.4334055e-05
4.4296853e-05
4.4252375e-05
4.4200183e-05
4.4148226e-05
4.4100014e-05
4.4060295e-05
4.4030044e-05
4.401254e-05
4.4004824e-05
4.4014466e-05
4.4041699e-05
4.4085374e-05
4.4125783e-05
4.4037684e-05
4.3956634e-05
4.3890273e-05
4.3861604e-05
4.3874754e-05
4.3938306e-05
4.4051948e-05
4.4142336e-05
4.4230724e-05
4.429759e-05
4.4352164e-05
4.4393272e-05
4.4425155e-05
4.4449474e-05
4.4468383e-05
4.4483218e-05
4.4495122e-05
4.4504902e-05
4.4513193e-05
4.452048e-05
4.4527159e-05
4.4532995e-05
4.4455428e-05
4.4455599e-05
4.445615e-05
4.4455614e-05
4.4454364e-05
4.4452131e-05
4.444877e-05
4.4443956e-05
4.4437269e-05
4.4428087e-05
4.4415557e-05
4.4398519e-05
4.437548e-05
4.434461e-05
4.4303906e-05
4.4252942e-05
4.4189241e-05
4.4125653e-05
4.4066537e-05
4.4018228e-05
4.3980832e-05
4.3959241e-05
4.3946348e-05
4.3954478e-05
4.3982971e-05
4.4027957e-05
4.4083118e-05
4.3987359e-05
4.3887142e-05
4.3800029e-05
4.3760992e-05
4.3773338e-05
4.3854424e-05
4.4014254e-05
4.4124014e-05
4.4229583e-05
4.4303765e-05
4.4362118e-05
4.440397e-05
4.4435283e-05
4.4458343e-05
4.4475781e-05
4.4489157e-05
4.4499724e-05
4.4508334e-05
4.451563e-05
4.452209e-05
4.4528096e-05
4.45334e-05
4.4455209e-05
4.4455298e-05
4.4455929e-05
4.4455634e-05
4.4454714e-05
4.4452876e-05
4.4449959e-05
4.4445618e-05
4.4439404e-05
4.4430648e-05
4.4418409e-05
4.4401363e-05
4.4377741e-05
4.4345241e-05
4.4300968e-05
4.4244148e-05
4.4167985e-05
4.4093185e-05
4.4024486e-05
4.3970129e-05
4.3927721e-05
4.3904314e-05
4.3884055e-05
4.3889321e-05
4.392012e-05
4.3969601e-05
4.4031959e-05
4.3947533e-05
4.3820422e-05
4.3697263e-05
4.3637741e-05
4.3645342e-05
4.3750805e-05
4.39857e-05
4.41192e-05
4.4242912e-05
4.4322106e-05
4.438137e-05
4.4421455e-05
4.4450211e-05
4.4470583e-05
4.4485543e-05
4.4496765e-05
4.4505512e-05
4.4512611e-05
4.4518665e-05
4.4524109e-05
4.452929e-05
4.4533929e-05
4.4457382e-05
4.4458117e-05
4.4459467e-05
4.445993e-05
4.4459946e-05
4.4459271e-05
4.4457821e-05
4.4455321e-05
4.44514e-05
4.4445439e-05
4.44365e-05
4.4423118e-05
4.4403085e-05
4.4373123e-05
4.4328136e-05
4.4265776e-05
4.416995e-05
4.4076379e-05
4.3991243e-05
4.3925405e-05
4.3872411e-05
4.3845384e-05
4.3814354e-05
4.3818017e-05
4.3855752e-05
4.3906183e-05
4.3953659e-05
4.3896363e-05
4.3735877e-05
4.3569892e-05
4.3490316e-05
4.3486052e-05
4.361486e-05
4.3963395e-05
4.4120697e-05
4.4262963e-05
4.4346327e-05
4.4405234e-05
4.4442594e-05
4.4467905e-05
4.4484929e-05
4.4496887e-05
4.4505563e-05
4.4512194e-05
4.4517558e-05
4.4522193e-05
4.452648e-05
4.4530712e-05
4.4534575e-05
4.4473673e-05
4.4474624e-05
4.447636e-05
4.4477346e-05
4.4478025e-05
4.447814e-05
4.4477607e-05
4.4476148e-05
4.4473377e-05
4.4468637e-05
4.4460898e-05
4.4448499e-05
4.4428838e-05
4.4397993e-05
4.4349099e-05
4.428037e-05
4.4159446e-05
4.4047216e-05
4.3948953e-05
4.3879395e-05
4.3823786e-05
4.3805345e-05
4.3758175e-05
4.37541e-05
4.3793671e-05
4.3847204e-05
4.3890826e-05
4.3893509e-05
4.3697716e-05
4.3452974e-05
4.3317088e-05
4.3277926e-05
4.3434618e-05
4.3977355e-05
4.4164821e-05
4.4315851e-05
4.439435e-05
4.4444377e-05
4.4473463e-05
4.4491623e-05
4.4503051e-05
4.4510626e-05
4.4515922e-05
4.451992e-05
4.4523222e-05
4.452622e-05
4.4529192e-05
4.4532352e-05
4.453533e-05
4.450633e-05
4.4507462e-05
4.4509658e-05
4.451124e-05
4.4512757e-05
4.4514001e-05
4.4515001e-05
4.4515623e-05
4.4515683e-05
4.4514805e-05
4.451232e-05
4.4506999e-05
4.4496558e-05
4.4477054e-05
4.4438338e-05
4.4375861e-05
4.4218338e-05
4.4074025e-05
4.3953675e-05
4.3873841e-05
4.3803829e-05
4.3785743e-05
4.3709779e-05
4.370032e-05
4.3778459e-05
4.3858904e-05
4.3841431e-05
4.3866681e-05
4.3642608e-05
4.3299135e-05
4.3146333e-05
4.3070447e-05
4.3219735e-05
4.4027863e-05
4.4218569e-05
4.4368966e-05
4.4443801e-05
4.4484313e-05
4.4505508e-05
4.4516379e-05
4.4522112e-05
4.4525141e-05
4.4526916e-05
4.4528155e-05
4.452929e-05
4.4530565e-05
4.4532144e-05
4.4534158e-05
4.4536174e-05
4.4554246e-05
4.4555829e-05
4.4558685e-05
4.4561076e-05
4.4563639e-05
4.4566179e-05
4.4568767e-05
4.4571318e-05
4.457371e-05
4.4575622e-05
4.4576398e-05
4.4574686e-05
4.4567599e-05
4.4550217e-05
4.4507429e-05
4.4439054e-05
4.4216009e-05
4.4033323e-05
4.3890447e-05
4.3810975e-05
4.3734755e-05
4.3772186e-05
3.5423682e-05
3.5319653e-05
3.5250048e-05
3.5166906e-05
3.4927169e-05
3.4833959e-05
3.4771882e-05
3.4970229e-05
3.5247958e-05
3.5743638e-05
4.2976143e-05
4.4228978e-05
4.4417664e-05
4.4502117e-05
4.4539417e-05
4.4548451e-05
4.4550175e-05
4.4547732e-05
4.4544661e-05
4.4541565e-05
4.4539001e-05
4.4537056e-05
4.4535793e-05
4.4535208e-05
4.4535308e-05
4.4536106e-05
4.4537094e-05
4.4649493e-05
4.4650206e-05
4.4652904e-05
4.4655338e-05
4.4658135e-05
4.4661151e-05
4.4664548e-05
4.4668399e-05
4.4672827e-05
4.4677916e-05
4.4683697e-05
4.4690083e-05
4.4696217e-05
4.4702606e-05
4.4698192e-05
4.46901e-05
3.6027348e-05
3.6061451e-05
3.6036923e-05
3.6209875e-05
3.6736853e-05
3.977684e-05
4.8052871e-05
4.9995665e-05
4.9995665e-05
4.9995665e-05
4.9995665e-05
4.9995665e-05
4.9981396e-05
4.9482852e-05
4.9229307e-05
4.9055743e-05
3.4930394e-05
4.4626847e-05
4.4502353e-05
4.4560334e-05
4.4608109e-05
4.4598234e-05
4.458841e-05
4.4575874e-05
4.4565683e-05
4.4557263e-05
4.4550768e-05
4.4545848e-05
4.4542295e-05
4.4539906e-05
4.4538545e-05
4.4538124e-05
4.4538061e-05
4.6066237e-05
4.6077208e-05
4.6092413e-05
4.6107522e-05
4.6123785e-05
4.6141205e-05
4.6160534e-05
4.6182613e-05
4.6208727e-05
4.6240683e-05
4.6281189e-05
4.6334447e-05
4.6407152e-05
4.6511509e-05
4.6663941e-05
3.5714204e-05
4.8511089e-05
4.9995665e-05
4.9995665e-05
4.9995665e-05
4.9995665e-05
4.9995665e-05
4.9995665e-05
4.9995665e-05
4.9995665e-05
4.9995665e-05
4.9995665e-05
4.9995665e-05
4.9995665e-05
4.9995665e-05
4.9995665e-05
4.9995665e-05
4.7255642e-05
3.0984393e-05
4.5063857e-05
4.4849406e-05
4.4746361e-05
4.4680821e-05
4.463851e-05
4.4608996e-05
4.4588552e-05
4.4573655e-05
4.4562757e-05
4.4554704e-05
4.4548819e-05
4.4544627e-05
4.4541816e-05
4.4540179e-05
4.4539056e-05
4.4666454e-05
4.4667212e-05
4.4669943e-05
4.467244e-05
4.4675314e-05
4.4678433e-05
4.4681958e-05
4.4685967e-05
4.469059e-05
4.469592e-05
4.4701999e-05
4.4708762e-05
4.4715388e-05
4.4722481e-05
4.4719241e-05
4.4713145e-05
3.6057066e-05
3.6091491e-05
3.6068896e-05
3.6240984e-05
3.677118e-05
3.9804547e-05
4.8059579e-05
4.9995665e-05
4.9995665e-05
4.9995665e-05
4.9995665e-05
4.9995665e-05
4.9978931e-05
4.9485404e-05
4.9234249e-05
4.906681e-05
3.4914348e-05
4.4502128e-05
4.4961794e-05
4.4812001e-05
4.4725801e-05
4.4673864e-05
4.4636325e-05
4.4609671e-05
4.4590294e-05
4.4575866e-05
4.4565015e-05
4.4556823e-05
4.4550681e-05
4.4546169e-05
4.4542999e-05
4.454098e-05
4.453946e-05
4.4570438e-05
4.4572094e-05
4.4575017e-05
4.45775e-05
4.4580171e-05
4.4582845e-05
4.4585593e-05
4.4588334e-05
4.4590952e-05
4.4593134e-05
4.459423e-05
4.4592899e-05
4.4586264e-05
4.4569409e-05
4.4527206e-05
4.4459756e-05
4.4235528e-05
4.4052406e-05
4.3909332e-05
4.3828818e-05
4.3752276e-05
4.3788144e-05
3.5444208e-05
3.5337983e-05
3.5266614e-05
3.518134e-05
3.4942295e-05
3.4846881e-05
3.478215e-05
3.4979786e-05
3.5259497e-05
3.5727591e-05
4.2875759e-05
4.4076568e-05
4.4557409e-05
4.4609128e-05
4.4624222e-05
4.4611082e-05
4.4596569e-05
4.4583138e-05
4.4571983e-05
4.4563033e-05
4.4555933e-05
4.4550401e-05
4.4546171e-05
4.4543064e-05
4.4540946e-05
4.4539741e-05
4.4538874e-05
4.4519299e-05
4.452052e-05
4.452281e-05
4.4524512e-05
4.4526168e-05
4.4527577e-05
4.4528773e-05
4.4529627e-05
4.4529962e-05
4.4529413e-05
4.4527324e-05
4.452248e-05
4.4512616e-05
4.4493804e-05
4.4455849e-05
4.4394233e-05
4.4236151e-05
4.4091869e-05
4.3971865e-05
4.3892206e-05
4.3822825e-05
4.3805093e-05
4.372955e-05
4.3721014e-05
4.3798803e-05
4.387946e-05
4.3863806e-05
4.3878948e-05
4.3640538e-05
4.3290761e-05
4.3125216e-05
4.3030443e-05
4.3119671e-05
4.3952152e-05
4.4342784e-05
4.4464631e-05
4.4523936e-05
4.4543781e-05
4.4550662e-05
4.4551035e-05
4.4549093e-05
4.4546394e-05
4.4543711e-05
4.4541385e-05
4.4539565e-05
4.4538321e-05
4.4537693e-05
4.4537721e-05
4.453791e-05
4.4477528e-05
4.4478557e-05
4.4480376e-05
4.4481467e-05
4.4482268e-05
4.4482525e-05
4.4482158e-05
4.4480891e-05
4.447834e-05
4.4473857e-05
4.4466413e-05
4.4454353e-05
4.443508e-05
4.4404671e-05
4.435623e-05
4.4288035e-05
4.4166994e-05
4.4054858e-05
4.3956721e-05
4.3887157e-05
4.3831746e-05
4.3813261e-05
4.376609e-05
4.3762553e-05
4.3802619e-05
4.3857432e-05
4.3903349e-05
4.3885831e-05
4.3686711e-05
4.3437695e-05
4.3294029e-05
4.3243394e-05
4.3367216e-05
4.3920935e-05
4.4218655e-05
4.4368098e-05
4.4450166e-05
4.449073e-05
4.4512127e-05
4.4522811e-05
4.4528213e-05
4.4530832e-05
4.4532086e-05
4.453273e-05
4.4533198e-05
4.4533754e-05
4.4534573e-05
4.4535797e-05
4.4537e-05
4.4456834e-05
4.4457641e-05
4.4459071e-05
4.4459635e-05
4.4459767e-05
4.4459227e-05
4.4457932e-05
4.4455612e-05
4.4451893e-05
4.4446163e-05
4.4437483e-05
4.4424387e-05
4.4404663e-05
4.4375015e-05
4.4330304e-05
4.4268176e-05
4.4172171e-05
4.4078537e-05
4.3993361e-05
4.3927457e-05
4.3874549e-05
4.3847557e-05
4.3816661e-05
4.382066e-05
4.3858648e-05
4.3909933e-05
4.3959121e-05
4.38805e-05
4.3716242e-05
4.3545523e-05
4.3459447e-05
4.3449077e-05
4.3566652e-05
4.3935215e-05
4.4161042e-05
4.4305484e-05
4.4393426e-05
4.4445658e-05
4.4477332e-05
4.4496488e-05
4.4508386e-05
4.4515935e-05
4.4520927e-05
4.452443e-05
4.4527114e-05
4.4529415e-05
4.4531634e-05
4.4534004e-05
4.4536165e-05
4.4452437e-05
4.4452602e-05
4.4453315e-05
4.4453119e-05
4.4452314e-05
4.4450607e-05
4.4447838e-05
4.4443665e-05
4.4437641e-05
4.4429096e-05
4.4417091e-05
4.4400301e-05
4.4376953e-05
4.4344735e-05
4.4300726e-05
4.4244144e-05
4.4167993e-05
4.4093238e-05
4.4024567e-05
4.397023e-05
4.3927946e-05
4.390469e-05
4.388477e-05
4.3890701e-05
4.3922396e-05
4.3973333e-05
4.4037824e-05
4.3932228e-05
4.3802337e-05
4.3675935e-05
4.3612361e-05
4.3616454e-05
4.3716799e-05
4.3965193e-05
4.4139172e-05
4.4269367e-05
4.4355747e-05
4.4412843e-05
4.4450282e-05
4.4474983e-05
4.4491567e-05
4.4502948e-05
4.4511011e-05
4.4516966e-05
4.4521609e-05
4.4525484e-05
4.452898e-05
4.4532397e-05
4.4535425e-05
4.4451562e-05
4.4451807e-05
4.4452438e-05
4.4451999e-05
4.445086e-05
4.4448753e-05
4.4445535e-05
4.444088e-05
4.443437e-05
4.442538e-05
4.4413059e-05
4.4396241e-05
4.4373426e-05
4.4342771e-05
4.4302252e-05
4.4251436e-05
4.4187748e-05
4.4124196e-05
4.4065115e-05
4.4016858e-05
4.3979596e-05
4.3958187e-05
4.3945613e-05
4.3954277e-05
4.3983533e-05
4.4029784e-05
4.4077506e-05
4.3970285e-05
4.3867875e-05
4.3778558e-05
4.3737525e-05
4.374945e-05
4.3831204e-05
4.4003216e-05
4.4138688e-05
4.4250668e-05
4.4330957e-05
4.4388505e-05
4.4428778e-05
4.44571e-05
4.4477166e-05
4.4491616e-05
4.4502259e-05
4.4510338e-05
4.4516714e-05
4.4521999e-05
4.4526643e-05
4.4530997e-05
4.4534792e-05
4.4452151e-05
4.4451489e-05
4.4451272e-05
4.4450042e-05
4.444803e-05
4.4444933e-05
4.4440573e-05
4.4434616e-05
4.442666e-05
4.4416147e-05
4.4402364e-05
4.4384414e-05
4.4361238e-05
4.4331683e-05
4.4294706e-05
4.425043e-05
4.4198368e-05
4.4146551e-05
4.4098489e-05
4.4058957e-05
4.4028986e-05
4.4011859e-05
4.4004699e-05
4.4015141e-05
4.4043438e-05
4.4088588e-05
4.4112508e-05
4.4022779e-05
4.3940031e-05
4.3872056e-05
4.3842131e-05
4.3855369e-05
4.3920545e-05
4.4043113e-05
4.415008e-05
4.4244871e-05
4.4317513e-05
4.4372836e-05
4.441361e-05
4.4443688e-05
4.446589e-05
4.4482468e-05
4.4495042e-05
4.4504799e-05
4.4512595e-05
4.4519065e-05
4.4524686e-05
4.4529839e-05
4.4534278e-05
4.44539e-05
4.4453458e-05
4.4453284e-05
4.4451926e-05
4.4449714e-05
4.4446371e-05
4.444174e-05
4.443551e-05
4.4427308e-05
4.4416626e-05
4.4402836e-05
4.4385181e-05
4.4362829e-05
4.4334961e-05
4.430101e-05
4.4261364e-05
4.4216573e-05
4.4172021e-05
4.4130764e-05
4.4096591e-05
4.4071059e-05
4.4056743e-05
4.4052818e-05
4.4063797e-05
4.4089978e-05
4.4131304e-05
4.413667e-05
4.4062562e-05
4.3997285e-05
4.3947251e-05
4.3926999e-05
4.3940541e-05
4.3992539e-05
4.4082489e-05
4.416774e-05
4.4247171e-05
4.431169e-05
4.4363352e-05
4.4403205e-05
4.4433823e-05
4.4457231e-05
4.4475242e-05
4.448924e-05
4.4500303e-05
4.4509243e-05
4.4516686e-05
4.4523116e-05
4.4528927e-05
4.4533886e-05
4.4455347e-05
4.4453953e-05
4.4452958e-05
4.4450912e-05
4.4448018e-05
4.4443982e-05
4.4438636e-05
4.4431693e-05
4.4422829e-05
4.4411628e-05
4.4397604e-05
4.4380211e-05
4.43589e-05
4.4333207e-05
4.4302941e-05
4.4268632e-05
4.4231158e-05
4.4194157e-05
4.4160134e-05
4.4132033e-05
4.4111475e-05
4.4100528e-05
4.4099427e-05
4.4111143e-05
4.4136136e-05
4.4174555e-05
4.4167246e-05
4.4105453e-05
4.4052277e-05
4.4013407e-05
4.3998568e-05
4.4010823e-05
4.4052239e-05
4.4120042e-05
4.4188743e-05
4.4255262e-05
4.4312025e-05
4.4359372e-05
4.4397339e-05
4.4427516e-05
4.445129e-05
4.4470061e-05
4.4484964e-05
4.4496938e-05
4.4506722e-05
4.4514906e-05
4.452196e-05
4.4528276e-05
4.4533621e-05
4.4458159e-05
4.4457004e-05
4.4456069e-05
4.4453934e-05
4.4450892e-05
4.4446678e-05
4.4441152e-05
4.4434051e-05
4.4425085e-05
4.4413892e-05
4.4400067e-05
4.4383186e-05
4.4362864e-05
4.4338848e-05
4.4311174e-05
4.428047e-05
4.4247768e-05
4.4215731e-05
4.4186495e-05
4.4162449e-05
4.4145175e-05
4.4136393e-05
4.4136745e-05
4.4148207e-05
4.4171272e-05
4.4206243e-05
4.4191012e-05
4.4140178e-05
4.4097804e-05
4.4068296e-05
4.4058018e-05
4.4069176e-05
4.4102564e-05
4.4155009e-05
4.4210927e-05
4.4266732e-05
4.4316398e-05
4.4359294e-05
4.4394884e-05
4.4424026e-05
4.4447603e-05
4.4466644e-05
4.448205e-05
4.4494611e-05
4.450498e-05
4.4513695e-05
4.4521202e-05
4.4527876e-05
4.4533477e-05
4.4460369e-05
4.4458368e-05
4.4456744e-05
4.4454093e-05
4.4450599e-05
4.4445991e-05
4.444013e-05
4.443278e-05
4.4423703e-05
4.441261e-05
4.4399202e-05
4.4383184e-05
4.4364327e-05
4.4342539e-05
4.4317981e-05
4.429128e-05
4.4263417e-05
4.4236368e-05
4.4211904e-05
4.4191951e-05
4.4177955e-05
4.4171373e-05
4.417301e-05
4.4184259e-05
4.420555e-05
4.4237068e-05
4.4216728e-05
4.4174286e-05
4.4139673e-05
4.4116469e-05
4.4109006e-05
4.4118812e-05
4.4145944e-05
4.4187434e-05
4.4233445e-05
4.4280501e-05
4.4323879e-05
4.4362457e-05
4.4395418e-05
4.4423108e-05
4.4446037e-05
4.4464929e-05
4.4480473e-05
4.4493316e-05
4.4504017e-05
4.4513057e-05
4.4520843e-05
4.4527726e-05
4.4533454e-05
4.4463805e-05
4.4461991e-05
4.4460396e-05
4.4457666e-05
4.4454055e-05
4.4449327e-05
4.4443365e-05
4.4435963e-05
4.4426918e-05
4.4415991e-05
4.440295e-05
4.438759e-05
4.4369788e-05
4.4349564e-05
4.4327172e-05
4.4303243e-05
4.4278704e-05
4.4255112e-05
4.4233968e-05
4.4216866e-05
4.4205097e-05
4.4199897e-05
4.4202078e-05
4.4212669e-05
4.4232056e-05
4.4260377e-05
4.4237778e-05
4.4202905e-05
4.4175172e-05
4.4157319e-05
4.4152287e-05
4.4161128e-05
4.4183582e-05
4.4217152e-05
4.4255442e-05
4.4295383e-05
4.4333293e-05
4.4367863e-05
4.439816e-05
4.4424189e-05
4.4446189e-05
4.4464637e-05
4.4480045e-05
4.4492927e-05
4.4503751e-05
4.4512935e-05
4.4520847e-05
4.4527807e-05
4.4533541e-05
4.4466632e-05
4.4464148e-05
4.4462035e-05
4.4458966e-05
4.4455107e-05
4.4450224e-05
4.44442e-05
4.4436855e-05
4.4428022e-05
4.4417513e-05
4.4405161e-05
4.4390835e-05
4.4374486e-05
4.43562e-05
4.4336258e-05
4.4315248e-05
4.4293989e-05
4.427372e-05
4.4255701e-05
4.4241251e-05
4.4231501e-05
4.4227502e-05
4.4230011e-05
4.42398e-05
4.4257175e-05
4.4282186e-05
4.4258737e-05
4.4229776e-05
4.4207244e-05
4.4193291e-05
4.4189956e-05
4.4197928e-05
4.4216791e-05
4.4244502e-05
4.4276746e-05
4.4310913e-05
4.4344123e-05
4.437505e-05
4.4402747e-05
4.4427007e-05
4.4447879e-05
4.4465654e-05
4.4480695e-05
4.4493401e-05
4.4504156e-05
4.4513317e-05
4.4521206e-05
4.452811e-05
4.4533735e-05
4.447038e-05
4.4468009e-05
4.4465889e-05
4.4462754e-05
4.445882e-05
4.4453882e-05
4.4447846e-05
4.4440558e-05
4.4431881e-05
4.4421669e-05
4.4409801e-05
4.4396205e-05
4.4380889e-05
4.4363989e-05
4.4345808e-05
4.4326901e-05
4.4308002e-05
4.4290132e-05
4.4274364e-05
4.4261802e-05
4.425343e-05
4.4250148e-05
4.4252633e-05
4.4261493e-05
4.4276977e-05
4.4299081e-05
4.4276376e-05
4.4252747e-05
4.4234833e-05
4.4224275e-05
4.4222493e-05
4.4229934e-05
4.4246152e-05
4.4269516e-05
4.4297023e-05
4.4326515e-05
4.4355727e-05
4.4383408e-05
4.4408653e-05
4.4431135e-05
4.4450774e-05
4.4467724e-05
4.448223e-05
4.4494594e-05
4.4505126e-05
4.4514124e-05
4.4521867e-05
4.4528607e-05
4.4534022e-05
4.4473603e-05
4.4470747e-05
4.4468273e-05
4.4464951e-05
4.4460927e-05
4.4456001e-05
4.445008e-05
4.4443026e-05
4.4434726e-05
4.4425064e-05
4.4413957e-05
4.4401366e-05
4.4387334e-05
4.4372012e-05
4.4355695e-05
4.4338885e-05
4.4322218e-05
4.4306543e-05
4.4292769e-05
4.4281824e-05
4.4274559e-05
4.427174e-05
4.4273963e-05
4.4281708e-05
4.4295177e-05
4.431433e-05
4.4293088e-05
4.4273774e-05
4.4259547e-05
4.425167e-05
4.4251136e-05
4.4258209e-05
4.4272445e-05
4.4292537e-05
4.4316318e-05
4.434202e-05
4.4367845e-05
4.4392659e-05
4.4415631e-05
4.4436371e-05
4.4454724e-05
4.4470742e-05
4.4484583e-05
4.4496468e-05
4.4506641e-05
4.4515349e-05
4.4522828e-05
4.4529295e-05
4.45344e-05
4.4477415e-05
4.4474607e-05
4.4472109e-05
4.4468749e-05
4.4464705e-05
4.44598e-05
4.4453958e-05
4.4447064e-05
4.4439026e-05
4.4429755e-05
4.4419198e-05
4.4407347e-05
4.4394268e-05
4.4380128e-05
4.4365209e-05
4.4349971e-05
4.433497e-05
4.4320923e-05
4.4308608e-05
4.4298811e-05
4.4292268e-05
4.4289637e-05
4.4291438e-05
4.4298066e-05
4.4309684e-05
4.4325854e-05
4.4307308e-05
4.4291903e-05
4.4280993e-05
4.4275533e-05
4.4276213e-05
4.4283177e-05
4.4296008e-05
4.431366e-05
4.4334526e-05
4.4357164e-05
4.4380135e-05
4.4402442e-05
4.4423335e-05
4.4442408e-05
4.4459464e-05
4.4474487e-05
4.4487568e-05
4.4498868e-05
4.4508576e-05
4.4516894e-05
4.4524017e-05
4.4530131e-05
4.4534853e-05
4.4480787e-05
4.4477652e-05
4.4474941e-05
4.4471511e-05
4.4467493e-05
4.4462712e-05
4.4457093e-05
4.4450529e-05
4.4442941e-05
4.4434257e-05
4.442444e-05
4.4413496e-05
4.4401499e-05
4.4388608e-05
4.4375082e-05
4.436133e-05
4.4347831e-05
4.4335192e-05
4.4324077e-05
4.4315159e-05
4.4309069e-05
4.4306378e-05
4.4307542e-05
4.4312894e-05
4.4322576e-05
4.4335523e-05
4.4320296e-05
4.430819e-05
4.4300081e-05
4.4296684e-05
4.4298467e-05
4.4305478e-05
4.4317326e-05
4.4333158e-05
4.4351744e-05
4.4371904e-05
4.4392479e-05
4.4412601e-05
4.443161e-05
4.444911e-05