/*--------------------------------*- C++ -*----------------------------------*\
| =========                 |                                                 |
| \\      /  F ield         | foam-extend: Open Source CFD                    |
|  \\    /   O peration     | Version:     4.1                                |
|   \\  /    A nd           | Web:         http://www.foam-extend.org         |
|    \\/     M anipulation  |                                                 |
\*---------------------------------------------------------------------------*/
FoamFile
{
    version     2.0;
    format      ascii;
    class       volVectorField;
    location    "1";
    object      U;
}
// * * * * * * * * * * * * * * * * * * * * * * * * * * * * * * * * * * * * * //

dimensions      [0 1 -1 0 0 0 0];

internalField   nonuniform List<vector> 
4242
(
(100.89611 95.917332 2.5447787e-15)
(152.91684 136.74231 7.6802412e-18)
(162.08238 138.80929 -1.2688942e-15)
(161.83188 136.16919 1.0170241e-15)
(161.21412 132.5525 1.3460865e-17)
(160.46182 128.56276 4.2299421e-18)
(159.62099 124.11335 0)
(158.67976 119.2067 2.9781292e-16)
(157.64328 113.84506 -4.7170616e-16)
(156.52939 108.03946 1.7728133e-16)
(155.37578 101.82115 -9.215001e-17)
(154.24019 95.247043 7.7904098e-17)
(153.21026 88.391012 1.6255197e-17)
(152.47061 81.317025 -7.239079e-18)
(152.28926 74.100705 5.9678011e-18)
(152.59403 67.515507 0)
(103.89726 75.689273 0)
(172.13458 119.16679 -1.6482098e-17)
(184.58159 121.45306 1.545944e-15)
(184.16046 119.64442 -1.2650387e-15)
(182.84713 116.82609 -2.1801216e-17)
(181.29188 113.67865 7.1430375e-16)
(179.60792 110.13612 -4.9244354e-17)
(177.8054 106.21195 -8.5886082e-16)
(175.8998 101.90201 7.9647969e-17)
(173.91399 97.217677 2.5105116e-16)
(171.88336 92.185556 0)
(169.85711 86.849795 -1.7597695e-17)
(167.90686 81.271471 -1.3119294e-17)
(166.18482 75.491174 -6.9967921e-17)
(164.9488 69.622521 8.8989786e-17)
(164.04258 63.910032 1.0598348e-17)
(110.56796 59.729444 -3.63403e-17)
(190.57301 100.01619 -5.1515402e-15)
(207.93912 102.6814 2.0621034e-15)
(207.44931 101.79212 -1.3882351e-17)
(205.24764 99.766274 -1.2435922e-15)
(202.73549 97.482111 1.0248243e-15)
(200.03642 94.888783 -1.3503988e-17)
(197.15794 91.998043 2.0847492e-17)
(194.12997 88.792946 -9.0116868e-18)
(190.99292 85.272277 -2.3934772e-17)
(187.80438 81.447316 2.3373905e-16)
(184.64044 77.340848 -1.7674847e-16)
(181.59815 72.991805 -2.4631969e-16)
(178.81431 68.43858 2.1554579e-16)
(176.4586 63.79774 -2.012535e-17)
(174.61594 59.318472 -4.7049641e-17)
(107.48744 40.327811 -9.7773291e-18)
(195.31583 73.841522 -5.9043814e-18)
(219.705 77.026535 -1.0930122e-15)
(221.7127 77.650561 9.4466932e-16)
(219.74184 76.915701 -1.1942015e-17)
(217.039 75.839422 6.0596515e-16)
(214.04781 74.551945 -4.7506323e-16)
(210.80876 73.086126 -7.5675064e-16)
(207.3524 71.410969 5.8180588e-17)
(203.69423 69.488896 9.6606912e-16)
(199.93658 67.321044 -3.7284611e-16)
(196.16529 64.891596 0)
(192.47678 62.193595 1.9964021e-17)
(189.02265 59.23052 -1.4457182e-16)
(185.93039 56.102729 7.3097367e-17)
(183.13955 53.180741 -1.2603927e-16)
(91.582223 21.144478 1.0542977e-17)
(184.39562 45.47507 -1.5219404e-15)
(217.92941 49.05078 1.1108012e-15)
(225.67327 51.244403 -6.5198263e-18)
(225.61626 52.20847 1.5692924e-17)
(223.41063 52.536579 -4.2114268e-18)
(220.54396 52.612001 -4.6105367e-16)
(217.36052 52.572997 1.4661017e-17)
(213.94931 52.419903 2.825618e-16)
(210.33148 52.116154 -2.149042e-16)
(206.59137 51.637736 1.8343872e-16)
(202.81196 50.937617 0)
(199.08341 49.972756 1.0453422e-16)
(195.54416 48.689214 -7.8431245e-17)
(192.33062 47.039484 2.3498254e-17)
(189.3482 45.365369 0)
(56.446814 5.8457817 -1.4545972e-15)
(144.89916 19.335822 3.6658545e-16)
(190.22135 22.675845 4.666224e-16)
(209.33468 26.033887 -3.4702291e-16)
(216.06062 28.976917 9.561611e-19)
(217.31581 31.157058 1.1633106e-16)
(216.26294 32.813996 9.3038816e-17)
(214.23552 34.196715 -4.3732864e-18)
(211.77091 35.407433 -4.075808e-18)
(209.06455 36.470208 -1.3829162e-16)
(206.22734 37.375774 1.473993e-16)
(203.32744 38.076628 -5.9017695e-18)
(200.42558 38.514627 -1.6034185e-17)
(197.62044 38.624999 -3.5399447e-17)
(195.03789 38.277218 -2.3490279e-20)
(192.58498 37.812571 1.6310514e-17)
(-20.97599 1.4546725 -6.4360342e-16)
(74.571309 3.5218487 -3.4605771e-16)
(131.42328 4.8686069 5.77145e-16)
(165.94256 7.5113408 -2.6191067e-16)
(185.94631 11.043688 1.0260796e-16)
(196.67762 14.611309 1.0576668e-20)
(201.81779 17.839612 1.2625193e-16)
(203.70505 20.652365 -5.7739211e-17)
(203.77824 23.077908 -6.9131638e-18)
(202.8817 25.159361 3.1409589e-17)
(201.4985 26.948621 -5.1668748e-17)
(199.88755 28.471405 4.3280155e-17)
(198.19157 29.718015 -1.1543674e-17)
(196.519 30.652668 -5.586101e-17)
(194.97367 31.12385 2.2724479e-17)
(193.50129 31.322226 3.0845075e-17)
(-50.836609 9.9935311 -1.1820092e-17)
(-44.144172 10.273132 1.5997006e-15)
(31.444212 3.1253027 -8.4934423e-16)
(88.185369 0.18288405 4.7663907e-16)
(126.15868 0.82135188 -3.2605019e-16)
(152.33987 3.250214 0)
(169.96003 6.4950967 1.8121039e-16)
(181.30052 10.031764 -1.4605467e-16)
(188.14249 13.504048 -2.5841807e-18)
(191.8775 16.684577 0)
(193.59195 19.459888 -1.50142e-17)
(194.10305 21.797933 7.7532696e-18)
(193.98879 23.703636 -5.9120513e-17)
(193.63813 25.185435 1.228408e-16)
(193.29168 26.14822 -9.1965952e-17)
(193.02119 26.776748 -2.8175913e-17)
(-43.2018 14.65035 7.1572768e-18)
(-68.838506 23.45154 -6.5171171e-18)
(-70.833167 23.965719 0)
(-26.201927 15.045718 1.7059146e-17)
(31.823839 5.6855646 6.2613342e-18)
(78.198819 0.74999115 2.665404e-16)
(112.1013 -0.06672379 -1.9172464e-16)
(137.33927 1.5186437 0)
(155.75241 4.3354025 9.9921971e-19)
(168.71769 7.8029099 -9.3930713e-18)
(177.42576 11.492213 8.9141598e-18)
(183.00616 15.068186 5.0723439e-18)
(186.47837 18.255864 1.1909058e-17)
(188.69173 20.848947 8.1249513e-17)
(190.25973 22.660662 -1.049859e-16)
(191.59724 23.826194 6.3650372e-17)
(-32.315966 16.097131 0)
(-52.193871 25.127618 2.4033211e-15)
(-57.489654 26.680003 -3.7903037e-15)
(-59.524584 27.541636 1.8625328e-15)
(-58.48457 27.870914 -1.4464094e-17)
(-19.518929 18.379016 -3.099371e-17)
(25.908677 8.852481 5.695515e-16)
(67.580891 2.4969998 -3.5463478e-16)
(99.439141 0.3808942 -2.0321391e-16)
(123.93617 1.3748179 1.6955807e-16)
(142.71452 4.2638927 0)
(157.01984 8.2422714 -1.0579747e-16)
(167.93184 12.535459 6.0272573e-17)
(176.20364 16.501261 0)
(182.41471 19.652731 0)
(187.24784 22.016379 0)
(-23.502519 14.186155 5.006473e-15)
(-34.87556 20.004418 -1.9041883e-15)
(-39.454397 20.996424 0)
(-44.003779 21.952221 -7.9340351e-18)
(-48.34072 22.890929 -8.3499767e-16)
(-50.797281 23.565088 8.3217327e-16)
(-50.760853 23.485739 9.0452348e-16)
(-16.342514 12.707545 1.2121575e-18)
(22.921224 3.0844916 -4.4828089e-16)
(61.105715 -2.5943912 1.5869955e-17)
(89.895458 -1.5047758 0)
(114.21168 2.954714 -1.7432773e-16)
(134.87591 8.4244607 1.4146586e-17)
(152.03269 13.124445 1.0913049e-16)
(165.68824 16.84029 0)
(176.74005 20.562133 2.1239653e-17)
(8.1462365 -8.1277535 -3.8587105e-19)
(0.93822201 -3.8579547 4.3863496e-15)
(-12.092438 4.8099302 -1.5140052e-15)
(-20.85235 9.8108552 -1.0944807e-15)
(-29.309035 14.549933 8.4283847e-16)
(-35.994749 18.012941 -7.0759605e-16)
(-40.208007 19.971296 5.9624259e-16)
(-41.680743 21.50212 5.2229212e-16)
(-39.59662 22.588559 -6.8436615e-16)
(-29.19986 21.97015 0)
(2.2044953 17.561412 0)
(39.271651 15.86664 0)
(77.624508 16.529716 2.5089409e-17)
(108.22071 18.172822 0)
(132.49823 19.445489 1.2660469e-16)
(153.29589 21.660234 -2.3749816e-16)
(86.915227 -105.53866 6.483335e-16)
(122.2399 -141.17815 -3.4975978e-19)
(127.90252 -142.0592 -2.8618649e-16)
(128.32989 -139.85528 2.3302437e-16)
(128.19714 -136.44842 -1.8849463e-18)
(128.07318 -132.44888 6.384382e-18)
(128.01551 -127.89286 0)
(128.05431 -122.74105 -1.7438686e-18)
(128.21393 -116.96525 3.9803347e-17)
(128.52467 -110.56745 -1.8634448e-17)
(129.0149 -103.58445 4.3692954e-17)
(129.70593 -96.088752 -3.6778958e-17)
(130.62456 -88.179606 -2.1991506e-17)
(131.82092 -79.908245 1.7788166e-17)
(133.22529 -71.498282 3.6741152e-17)
(134.25053 -63.726643 0)
(59.586232 -93.216254 0)
(85.793084 -127.69846 5.0770163e-18)
(90.67138 -128.67941 -5.6455687e-16)
(91.777589 -126.03999 4.5029093e-16)
(92.885346 -122.76078 6.952108e-18)
(94.245739 -119.04417 -3.4616271e-16)
(95.864431 -114.8689 -1.5562669e-17)
(97.757722 -110.20231 5.0136185e-16)
(99.937763 -105.026 -1.682336e-17)
(102.41049 -99.338485 -1.835797e-16)
(105.17169 -93.159682 0)
(108.20365 -86.535391 2.2947175e-17)
(111.48972 -79.527464 1.9128439e-17)
(114.99638 -72.183096 1.7448595e-16)
(118.67466 -64.633213 -2.3744524e-16)
(122.20666 -57.142908 -3.9545442e-17)
(39.532577 -81.964209 -8.1726408e-18)
(56.443079 -111.31983 3.8472376e-15)
(60.320523 -112.10789 -1.4877008e-15)
(62.053636 -109.62993 1.1439719e-17)
(63.945078 -106.64557 9.6102951e-16)
(66.194192 -103.29319 -7.6302059e-16)
(68.817457 -99.540439 1.2033137e-17)
(71.836301 -95.353837 -1.9633377e-17)
(75.266666 -90.714119 4.6595705e-18)
(79.113843 -85.61972 2.6233073e-17)
(83.367252 -80.091005 -2.9120291e-16)
(87.999118 -74.172797 2.1813306e-16)
(92.985515 -67.927061 4.1103068e-16)
(98.299339 -61.420399 -3.6442985e-16)
(103.87172 -54.806302 5.1541591e-17)
(109.30908 -48.322586 1.7692654e-16)
(21.899098 -63.311534 9.554328e-18)
(31.630254 -86.341998 7.0722674e-18)
(34.762671 -86.934256 1.2470969e-15)
(37.014993 -84.811687 -9.9170952e-16)
(39.586373 -82.336091 1.315069e-17)
(42.619316 -79.609909 -6.2623763e-16)
(46.139622 -76.597944 4.6132662e-16)
(50.171149 -73.271192 7.9516176e-16)
(54.72789 -69.613415 -1.2561924e-17)
(59.80623 -65.622712 -1.0632073e-15)
(65.378326 -61.313656 4.2352558e-16)
(71.393734 -56.717748 0)
(77.80051 -51.878878 -2.97809e-17)
(84.544068 -46.850154 2.5433083e-16)
(91.472117 -41.707808 -1.2807265e-16)
(98.051377 -36.710695 3.0996726e-16)
(9.182367 -39.999189 -1.120711e-17)
(14.113022 -55.866171 2.3571133e-15)
(16.775614 -56.030437 -1.7562383e-15)
(19.399325 -54.231859 9.6029145e-18)
(22.4808 -52.303181 -2.3243743e-17)
(26.107819 -50.302527 6.5308833e-18)
(30.313529 -48.186311 6.7307266e-16)
(35.126594 -45.925132 8.340596e-18)
(40.563867 -43.501998 -3.9230183e-16)
(46.62128 -40.909898 3.265163e-16)
(53.267752 -38.151234 -2.6836611e-16)
(60.449356 -35.236259 0)
(68.118706 -32.176081 -1.8403909e-16)
(76.192141 -28.950075 1.3509818e-16)
(84.413525 -25.651458 -4.7710543e-17)
(91.953651 -22.384794 0)
(118.01446 -63.511086 0)
(197.78554 -103.19305 3.1900035e-15)
(214.57988 -105.3697 -5.0223356e-15)
(214.06529 -104.28777 2.0646244e-15)
(212.10881 -102.1076 1.3918541e-17)
(209.82171 -99.618038 4.5979996e-18)
(207.30179 -96.760365 9.5009025e-16)
(204.54779 -93.540411 -8.0547824e-16)
(201.57784 -89.939552 -5.6895671e-16)
(198.41701 -85.949538 4.2714751e-16)
(195.10667 -81.573303 0)
(191.70721 -76.835146 -2.1248716e-16)
(188.3031 -71.788174 1.6817477e-16)
(185.01873 -66.490925 0)
(181.95063 -61.010264 0)
(179.05651 -55.495878 0)
(2.0671465 -17.660689 2.0208029e-15)
(4.6636071 -26.793625 -7.980372e-16)
(7.404085 -26.00656 -1.1271752e-15)
(10.481884 -24.043792 8.3084417e-16)
(14.033549 -22.306171 8.2691741e-18)
(18.109452 -20.760085 -2.51884e-16)
(22.743021 -19.321589 -2.0190787e-16)
(27.961955 -17.941192 1.903898e-18)
(33.78131 -16.586948 2.1274138e-18)
(40.196219 -15.235256 2.8731048e-16)
(47.176629 -13.867201 -3.0698071e-16)
(54.665154 -12.466528 4.5851038e-18)
(62.564772 -11.019886 2.8196758e-17)
(70.787453 -9.4997525 7.8388188e-17)
(79.128865 -7.8481435 5.8342609e-20)
(87.359377 -6.1639743 -4.4461747e-17)
(2.1130675 16.368859 9.852939e-16)
(4.7385658 25.424772 7.6968808e-16)
(7.5266016 25.201411 -1.6364481e-15)
(10.662933 23.802889 8.0651991e-16)
(14.252025 22.494075 -3.1720082e-16)
(18.340317 21.268607 -2.8984684e-20)
(22.961807 20.068817 -3.8539639e-16)
(28.144441 18.861638 1.6132583e-16)
(33.904787 17.627287 1.6739717e-17)
(40.242268 16.353128 -9.2206596e-17)
(47.13247 15.031679 1.362823e-16)
(54.526939 13.659494 -1.1972937e-16)
(62.352596 12.233478 2.839655e-17)
(70.505824 10.745147 1.5289557e-16)
(78.820332 9.2159547 -6.1819037e-17)
(86.960627 7.6473779 -9.0605988e-17)
(8.8390706 38.680533 1.7468082e-17)
(13.734441 54.448476 -2.3526096e-15)
(16.459024 54.97921 1.746301e-15)
(19.112067 53.515341 -1.3264284e-15)
(22.189067 51.844909 1.0510322e-15)
(25.78604 50.05173 0)
(29.940922 48.109892 -6.5694924e-16)
(34.686919 46.001343 5.1509467e-16)
(40.045861 43.717079 1.1155516e-17)
(46.019291 41.256323 0)
(52.582094 38.626436 4.853063e-17)
(59.690295 35.840902 -2.5250007e-17)
(67.297265 32.913941 1.8470046e-16)
(75.352742 29.881577 -3.6643752e-16)
(83.546625 26.699702 2.659269e-16)
(91.038825 23.58107 7.9860461e-17)
(21.172728 61.662222 -9.6847791e-18)
(30.877614 84.601759 7.1490302e-18)
(34.11256 85.534194 0)
(36.40906 83.716352 -2.1913505e-17)
(38.991363 81.489268 -1.0672466e-17)
(42.011991 78.98088 -6.4623262e-16)
(45.501563 76.170197 5.3812586e-16)
(49.487927 73.036585 0)
(53.988615 69.568972 -3.9723794e-18)
(59.002842 65.768537 2.9887848e-17)
(64.503762 61.652021 -2.9104105e-17)
(70.444567 57.251009 -1.6129147e-17)
(76.784836 52.603885 -3.7409613e-17)
(83.511931 47.743564 -2.4755655e-16)
(90.439829 42.785823 3.0641878e-16)
(96.844031 37.911079 -1.7919837e-16)
(38.147221 79.583205 0)
(55.064953 108.94058 -2.1089345e-15)
(59.096245 110.09348 3.2555085e-15)
(60.89217 107.9154 -1.2806481e-15)
(62.809535 105.18437 9.6996126e-18)
(65.059221 102.06703 2.6110027e-17)
(67.661679 98.543441 -7.1454904e-16)
(70.641419 94.586824 5.7348861e-16)
(74.016489 90.181877 4.3354232e-16)
(77.7935 85.329782 -3.9985843e-16)
(81.96151 80.054516 0)
(86.499031 74.403337 2.9931755e-16)
(91.404209 68.43749 -1.7252481e-16)
(96.754373 62.231286 0)
(102.46212 55.908055 0)
(107.69864 50.098824 0)
(57.330209 90.110355 -2.6023604e-15)
(83.589295 124.7624 9.3821428e-16)
(88.694084 126.14449 0)
(89.878193 123.80294 2.5811991e-18)
(91.022436 120.78296 5.3886941e-16)
(92.39239 117.31837 -4.5476044e-16)
(93.999802 113.39652 -3.8354764e-16)
(95.866435 108.98853 -1.9170918e-17)
(98.010122 104.07837 2.9785404e-16)
(100.44446 98.667223 -1.9203051e-17)
(103.17562 92.780589 0)
(106.20646 86.470973 3.4778403e-16)
(109.55579 79.810886 -4.3686413e-17)
(113.28122 72.919895 -2.4271766e-16)
(117.31841 65.930737 0)
(121.40594 59.138004 -3.2803592e-17)
(84.576211 102.89132 2.9019222e-17)
(119.57685 138.49795 1.2333153e-16)
(125.47908 139.71249 -3.2444482e-17)
(125.93391 137.74718 4.5775417e-17)
(125.78553 134.53664 -3.4981925e-17)
(125.63615 130.74265 9.6674026e-17)
(125.54743 126.40452 -8.8919389e-17)
(125.55181 121.48123 -1.022582e-16)
(125.67861 115.94676 8.7246949e-17)
(125.96663 109.81101 0)
(126.45648 103.12382 0)
(127.18583 95.975184 0)
(128.21178 88.476033 -9.2285612e-18)
(129.62957 80.777744 0)
(131.3383 73.085013 -1.3715102e-16)
(132.68063 65.910523 2.7117336e-16)
(-4.3062694 -5.1312591 8.6232294e-15)
(-27.052805 -28.456117 2.316814e-17)
(-38.038986 -39.828255 -4.3320312e-15)
(-39.972844 -43.838723 3.4771527e-15)
(-37.015635 -43.801978 4.5075881e-17)
(-31.222148 -41.370148 4.2064466e-17)
(-23.021051 -37.626986 0)
(-11.931359 -33.49112 2.0008753e-15)
(10.162512 -25.168666 -3.0302112e-15)
(52.283358 -10.726049 1.0116763e-15)
(93.182259 2.9471767 -6.6364813e-16)
(124.04801 14.94346 4.595293e-16)
(147.53404 24.463966 -7.6823791e-18)
(163.71485 30.41598 -6.3938472e-17)
(173.55055 33.026026 -2.0282794e-16)
(179.52906 30.834046 0)
(-4.4614066 -1.8501796 0)
(-22.625862 -15.360366 -6.7320036e-17)
(-35.797726 -24.977653 6.359456e-15)
(-40.787909 -28.624652 -5.1348947e-15)
(-39.692404 -29.137473 -1.021122e-16)
(-33.872999 -28.172144 3.6024769e-15)
(-9.6386497 -20.209712 -9.1394877e-18)
(35.8371 -5.2727846 -2.8507686e-15)
(80.703263 6.6332289 1.1928624e-16)
(115.53475 12.915263 5.8076366e-16)
(143.01279 16.437547 0)
(163.98246 18.62954 -3.9019866e-17)
(178.71593 20.011355 -6.7904133e-17)
(187.8284 20.758897 -3.3926028e-16)
(192.24799 20.815625 4.9753803e-16)
(193.39679 19.455272 6.1867698e-17)
(-16.007044 -6.4391056 -9.8739051e-19)
(-33.53204 -14.835414 -1.5578855e-14)
(-43.393734 -20.264981 6.3692114e-15)
(-45.725243 -22.117629 -4.9296223e-17)
(-16.087575 -13.476597 -3.9647813e-15)
(42.722233 2.2283817 2.135328e-15)
(90.260841 11.949535 -1.9668411e-17)
(123.29961 15.394607 2.5011976e-17)
(148.20134 15.71512 -1.8053019e-17)
(167.10734 14.645495 -2.7088662e-17)
(181.08384 13.102398 3.3927694e-16)
(190.8659 11.561561 -2.4725278e-16)
(197.05146 10.323701 -4.7570371e-16)
(200.18306 9.4991404 4.3088371e-16)
(200.84297 8.9754569 -7.8293775e-17)
(199.62667 8.5981395 -2.3619687e-16)
(-30.892982 -9.3877267 -1.8473539e-17)
(-47.40944 -14.970457 -1.8361885e-17)
(-25.097241 -10.705156 -3.0609862e-15)
(44.860315 2.5593905 1.6253406e-15)
(98.393224 10.575572 -1.4478157e-17)
(132.97751 13.110963 5.7567091e-16)
(157.86365 13.010073 -3.8287781e-16)
(175.85121 11.581478 -6.2786408e-16)
(188.50484 9.4654225 1.305565e-17)
(196.98395 7.0731706 8.4136048e-16)
(202.25298 4.7628582 -3.4264005e-16)
(205.09196 2.8099337 0)
(206.10285 1.358318 2.9270325e-17)
(205.72147 0.4376807 -2.3324097e-16)
(204.2715 -0.06338195 1.222975e-16)
(201.99366 -0.26398412 -2.9966338e-16)
(-30.392991 -4.3562503 1.8473539e-17)
(26.123582 1.144108 -3.2112226e-15)
(99.215452 7.438045 1.6397927e-15)
(141.876 9.4960013 -7.1255183e-18)
(170.14634 9.0209 1.543496e-17)
(188.86778 7.1627991 -4.14601e-18)
(200.79127 4.6801666 -4.1489686e-16)
(207.87413 2.0043533 -4.8292753e-19)
(211.6182 -0.58178359 2.5783092e-16)
(213.12674 -2.8922602 -2.1988968e-16)
(213.16668 -4.8364065 1.9057135e-16)
(212.2286 -6.3775719 0)
(210.60149 -7.5096862 1.3866742e-16)
(208.44758 -8.2320104 -1.0652258e-16)
(205.8565 -8.6229895 4.1374826e-17)
(202.83894 -8.5587383 0)
(24.047042 1.1988887 -2.3195368e-15)
(117.76487 -1.4491114 5.8289572e-16)
(170.43549 -0.77285878 6.7472936e-16)
(199.58059 -2.0244514 -4.7833498e-16)
(214.58581 -4.5393703 -6.8781562e-19)
(221.63665 -7.1766855 1.5280402e-16)
(224.2731 -9.5584302 1.2432065e-16)
(224.47786 -11.642493 -3.8537307e-18)
(223.35201 -13.438409 -3.6898378e-18)
(221.46479 -14.964338 -1.9857068e-16)
(219.08875 -16.227458 2.1861172e-16)
(216.34757 -17.213572 -5.9836004e-18)
(213.30426 -17.892784 -2.3194029e-17)
(210.01411 -18.219341 -5.8973446e-17)
(206.5127 -18.210221 -4.1852332e-20)
(202.76447 -17.596843 3.1954454e-17)
(81.995428 -7.9074613 -1.0052043e-15)
(174.20465 -20.559603 -5.2268809e-16)
(216.27374 -22.320824 1.0788518e-15)
(231.81243 -24.668905 -5.4287324e-16)
(236.21084 -26.695052 2.2672301e-16)
(236.21191 -28.085264 2.0912209e-20)
(234.43022 -29.077168 2.924649e-16)
(231.83517 -29.848336 -1.3474557e-16)
(228.79322 -30.461022 -1.7261011e-17)
(225.42276 -30.909163 7.0838768e-17)
(221.76724 -31.159486 -1.1507929e-16)
(217.8611 -31.161329 9.5750173e-17)
(213.75888 -30.863919 -2.6055995e-17)
(209.54659 -30.216273 -1.218668e-16)
(205.28597 -29.228606 4.9383979e-17)
(200.91503 -27.739031 6.5772164e-17)
(109.2706 -25.074523 -2.0342471e-17)
(203.60286 -48.751296 2.0666855e-15)
(234.61102 -51.054782 -1.5193448e-15)
(240.63696 -52.538167 1.1653417e-15)
(239.93219 -52.911179 -1.0005663e-15)
(237.49837 -52.749246 0)
(234.46182 -52.334802 6.4902377e-16)
(231.05075 -51.752434 -5.3965148e-16)
(227.33953 -51.001906 -1.1543008e-17)
(223.33545 -50.041917 0)
(219.06877 -48.831642 -4.9002748e-17)
(214.59606 -47.333783 2.4605795e-17)
(210.00537 -45.524104 -1.7243927e-16)
(205.41501 -43.384628 3.4088464e-16)
(200.90216 -40.936329 -2.444114e-16)
(196.30469 -38.076633 -6.8169624e-17)
(120.52385 -45.286897 1.2583239e-17)
(209.75632 -78.312687 -7.7852191e-18)
(232.78078 -80.645927 0)
(233.9661 -80.727236 -7.1225564e-18)
(231.74458 -79.5728 -1.4080266e-17)
(228.89153 -78.094377 7.7864958e-16)
(225.69001 -76.34629 -6.866855e-16)
(222.17384 -74.342553 0)
(218.40052 -72.07015 5.0511485e-17)
(214.37889 -69.492426 3.5565515e-17)
(210.15403 -66.590092 3.2727692e-17)
(205.79766 -63.359861 -6.5707941e-17)
(201.41055 -59.822363 3.7377635e-17)
(197.1178 -56.015508 2.1875093e-16)
(192.97513 -52.049746 -2.564551e-16)
(188.8605 -47.999267 1.4386539e-16)
(112.82935 -82.345117 7.8036493e-15)
(180.59381 -124.46145 -2.5806883e-15)
(192.07233 -126.11656 0)
(191.24479 -123.91782 -1.050774e-17)
(189.69746 -120.80376 -1.1481895e-15)
(187.97038 -117.3425 9.9065231e-16)
(186.12089 -113.44156 6.8208921e-16)
(184.14516 -109.09888 -2.8384291e-17)
(182.05663 -104.30675 -4.8032579e-16)
(179.86883 -99.071794 2.3885659e-17)
(177.60543 -93.418239 0)
(175.30262 -87.395178 -3.3469466e-16)
(173.02472 -81.074601 8.052858e-17)
(170.90244 -74.508648 2.0100571e-16)
(169.09147 -67.683891 0)
(167.52373 -61.048608 1.4228417e-17)
(103.00181 -97.83083 2.2948212e-17)
(155.6155 -138.806 4.1573047e-15)
(164.62646 -140.75773 -1.607939e-15)
(164.51499 -138.16331 -1.1766799e-15)
(164.05784 -134.56533 9.4590222e-16)
(163.46249 -130.52152 -7.1297337e-16)
(162.77766 -125.96406 5.8690607e-16)
(161.99401 -120.89696 3.87804e-16)
(161.10503 -115.30753 -3.4703958e-16)
(160.11181 -109.20058 0)
(159.0307 -102.60291 0)
(157.89613 -95.568586 0)
(156.77868 -88.178499 8.1642598e-18)
(155.84454 -80.482306 0)
(155.38532 -72.605878 5.6271446e-17)
(155.16809 -65.044582 -8.8505205e-17)
(18.316113 -21.792791 3.302562e-15)
(22.137158 -29.007487 1.6189601e-17)
(7.4807665 -12.444868 -3.3468937e-15)
(-6.6837376 5.9215554 2.1751449e-15)
(-17.01944 19.309139 2.4167169e-17)
(-23.649301 28.099557 1.5367269e-17)
(-27.134179 33.29463 0)
(-28.249595 36.044476 6.502177e-16)
(-27.582468 37.20841 -1.0581486e-15)
(-25.481202 37.471217 4.2742466e-16)
(-21.796674 36.984605 -3.1705949e-16)
(-17.971143 36.811522 2.6806754e-16)
(-10.446354 36.681778 1.1047185e-17)
(18.625589 32.616749 -3.8548986e-17)
(58.244321 27.495335 -9.875812e-17)
(98.138297 27.594345 0)
(11.403416 -16.67828 0)
(5.7642501 -6.7689132 -2.5634245e-17)
(-4.9583026 12.540376 2.1221184e-15)
(-12.845717 27.181639 -1.4668401e-15)
(-18.108647 37.302555 -2.5662668e-17)
(-21.474356 44.160843 8.7980193e-16)
(-23.34954 48.491697 -1.11423e-17)
(-24.097963 51.106446 -1.1989206e-15)
(-23.910807 52.623288 7.4002351e-17)
(-22.797264 53.437758 4.1150431e-16)
(-20.587854 53.744923 0)
(-16.92915 53.575168 -3.743349e-17)
(-11.050225 52.722196 -4.5686488e-17)
(-1.7643156 51.752776 -3.0458947e-16)
(14.004879 48.949395 4.0965343e-16)
(48.396007 42.119187 6.0249517e-17)
(1.1690969 -0.8545279 -2.3224921e-18)
(-7.0109824 19.321979 -6.0006579e-15)
(-13.049707 34.337551 2.0467426e-15)
(-16.805835 44.034709 -1.2721844e-17)
(-18.917392 50.163681 -1.2388429e-15)
(-20.100439 54.02152 1.0212842e-15)
(-20.805588 56.623408 -1.4197613e-17)
(-21.206333 58.609319 2.3802111e-17)
(-21.294443 60.310007 -1.4931066e-17)
(-20.949338 61.856958 -3.3034516e-17)
(-19.952634 63.265561 4.0864114e-16)
(-17.979057 64.472879 -2.9970816e-16)
(-14.573815 65.344147 -5.8785347e-16)
(-9.1245004 65.652132 5.1291366e-16)
(-0.79480183 65.075244 -8.2647283e-17)
(13.757599 61.908085 -3.2860355e-16)
(-3.764372 13.469501 -8.5078578e-18)
(-9.6449564 33.692262 -6.2997851e-18)
(-13.397082 44.823035 -1.2045059e-15)
(-15.404139 50.545974 1.0105165e-15)
(-16.565999 53.843561 -1.3154661e-17)
(-17.538502 56.238599 7.1966454e-16)
(-18.492999 58.376893 -5.5422147e-16)
(-19.430448 60.500574 -9.9698208e-16)
(-20.301143 62.700091 4.3570896e-18)
(-21.011206 64.996422 1.3885329e-15)
(-21.407993 67.37915 -5.5286983e-16)
(-21.258347 69.8037 0)
(-20.230021 72.177257 4.3043753e-17)
(-17.858839 74.337299 -3.7857227e-16)
(-13.439913 75.97517 1.8200468e-16)
(-6.4919175 75.63693 -5.402612e-16)
(-3.014721 17.351891 8.2696644e-18)
(-6.3845004 34.34614 -1.7836106e-15)
(-8.7538923 42.048211 1.4489914e-15)
(-10.402377 45.758351 -8.9710373e-18)
(-11.905 48.386206 2.1705819e-17)
(-13.531367 50.816459 -5.9039963e-18)
(-15.303794 53.273222 -6.3646751e-16)
(-17.217048 55.882943 -1.5860615e-17)
(-19.241502 58.722965 3.7756128e-16)
(-21.309088 61.83285 -3.3170723e-16)
(-23.305343 65.22961 2.7249807e-16)
(-25.057586 68.89148 0)
(-26.332289 72.736469 2.1990628e-16)
(-26.824732 76.607173 -1.6422276e-16)
(-26.064061 80.474617 7.0427201e-17)
(-23.853547 83.111946 0)
(-1.0728213 11.362483 -1.0649316e-15)
(-2.5786641 21.909643 4.3319373e-16)
(-4.3447033 27.159375 6.5911402e-16)
(-6.2569814 30.800982 -5.1100047e-16)
(-8.3625576 33.963333 -6.8662308e-18)
(-10.71457 37.068495 1.639657e-16)
(-13.324469 40.337176 1.3612943e-16)
(-16.193932 43.905912 8.7354828e-19)
(-19.284561 47.888643 8.7385364e-19)
(-22.526918 52.343353 -2.0857854e-16)
(-25.802252 57.299939 2.2988092e-16)
(-28.942913 62.730712 1.6902624e-18)
(-31.741294 68.501256 -1.8263467e-17)
(-33.908328 74.431444 -6.7584842e-17)
(-35.215387 80.010878 -5.7993742e-20)
(-35.468162 84.690348 5.0433798e-17)
(-1.4518038 -4.5056634 -5.8936736e-16)
(-2.8024255 -1.5762699 -4.7770354e-16)
(-4.5317341 3.1518168 1.0387342e-15)
(-6.6238943 7.5019638 -5.1911151e-16)
(-9.0259243 11.617942 2.0541796e-16)
(-11.718074 15.837585 1.851228e-20)
(-14.714045 20.358594 2.5737299e-16)
(-18.002385 25.368105 -1.0459795e-16)
(-21.520081 31.060814 -9.710095e-18)
(-25.161464 37.498366 6.8721815e-17)
(-28.762575 44.705785 -9.472336e-17)
(-32.0998 52.623874 9.304377e-17)
(-34.900705 60.978584 -1.9907365e-17)
(-36.970003 69.382853 -1.2810239e-16)
(-37.919289 77.422408 5.3404986e-17)
(-38.923023 83.532335 8.7984924e-17)
(-7.3319408 -30.059955 -1.6589257e-17)
(-10.156819 -34.463481 2.0863062e-15)
(-11.477382 -28.100079 -1.4927092e-15)
(-13.151309 -21.489768 1.1232053e-15)
(-15.258441 -15.217768 -8.8765885e-16)
(-17.735746 -9.0307133 0)
(-20.491593 -2.7413442 5.8947593e-16)
(-23.417912 3.8426397 -4.5257439e-16)
(-26.21855 11.514058 -1.5372551e-17)
(-28.812346 20.305881 0)
(-31.001998 30.222343 -5.0455218e-17)
(-32.463002 41.151997 2.94346e-17)
(-32.752719 52.586223 -2.0230097e-16)
(-31.706228 63.807349 3.8808767e-16)
(-29.685315 72.935167 -2.9812389e-16)
(-27.470561 79.570519 -9.204761e-17)
(-19.848932 -56.505858 9.8251274e-18)
(-26.692314 -71.139826 -7.5209191e-18)
(-27.301291 -65.28256 0)
(-27.609212 -57.570571 3.1045391e-17)
(-28.160804 -49.402053 1.7769119e-17)
(-28.825054 -40.543203 8.6531226e-16)
(-29.434661 -30.765487 -7.3822536e-16)
(-29.798314 -19.922354 0)
(-30.011977 -8.4913427 -6.4331899e-18)
(-29.826744 3.8060273 -5.9037517e-17)
(-28.673601 17.235937 3.9893191e-17)
(-25.94366 32.119216 4.71629e-17)
(-20.797721 47.617566 5.4007472e-17)
(-13.557783 61.74452 4.1072526e-16)
(-4.9421768 72.232355 -5.250837e-16)
(2.6666809 77.222567 3.0103406e-16)
(-28.682764 -61.984179 0)
(-41.980871 -86.93216 5.4928165e-15)
(-42.189791 -83.739619 -8.8145528e-15)
(-40.036842 -76.573137 3.5274195e-15)
(-37.660828 -68.305096 -2.0285746e-17)
(-35.087445 -58.85598 -7.2595735e-17)
(-32.246958 -48.124583 2.0084269e-15)
(-29.075472 -35.967207 -1.6738202e-15)
(-25.608969 -22.349 -1.3377384e-15)
(-21.740569 -6.672095 1.3100046e-15)
(-17.057406 10.822563 0)
(-8.3944496 28.599205 -1.0238319e-15)
(5.5316467 47.424199 5.4633159e-16)
(20.717087 63.260901 0)
(34.86168 73.041422 0)
(48.472399 75.573998 0)
(-31.529842 -52.259159 1.5325496e-14)
(-51.175371 -82.104818 -6.0231588e-15)
(-54.231341 -85.212451 0)
(-51.587411 -81.509838 -3.6980446e-17)
(-47.465138 -75.707132 -4.2251527e-15)
(-42.756679 -68.835184 4.1330191e-15)
(-37.305877 -60.753308 3.6021798e-15)
(-31.009381 -51.43454 1.2075629e-16)
(-23.795756 -40.321351 -3.2444381e-15)
(-15.312862 -24.906296 1.736609e-16)
(-2.3094663 -3.6510447 0)
(19.386099 16.062527 -3.6746056e-15)
(49.796317 41.149214 3.6895664e-16)
(70.820716 58.428659 1.3212051e-15)
(86.285123 66.911542 0)
(99.685377 66.798982 1.2036422e-16)
(-20.224835 -26.123121 8.6724639e-18)
(-44.248354 -55.560146 1.2802669e-14)
(-51.308825 -63.383324 -5.0923646e-15)
(-50.322872 -63.423928 -4.2549722e-15)
(-46.158583 -60.406862 3.6662855e-15)
(-40.517214 -55.906832 -3.2893676e-15)
(-33.742852 -50.327647 2.8627867e-15)
(-25.831581 -43.836171 2.4729204e-15)
(-16.683269 -36.385883 -2.4590366e-15)
(-7.5135732 -27.474224 0)
(5.929605 -14.879583 0)
(58.363644 9.8530383 0)
(92.358436 31.808651 1.4704527e-16)
(115.68023 45.754487 0)
(131.69457 52.497908 5.3119124e-16)
(145.27753 50.638632 -9.0999087e-16)
(119.05473 137.14208 0)
(125.54897 138.91474 0)
(126.59929 137.20041 0)
(127.1465 134.12504 1.0296133e-18)
(127.65471 130.54934 -7.734224e-18)
(128.24611 126.43612 8.0221016e-18)
(128.94654 121.77078 0)
(129.75897 116.5113 -3.6904876e-18)
(130.69073 110.64554 0)
(131.75116 104.20713 0)
(132.94754 97.272455 0)
(134.30027 89.953128 9.4002128e-18)
(135.88793 82.351838 0)
(137.78071 74.774084 -1.6914633e-17)
(139.60505 67.897644 0)
(123.31277 -142.02636 0)
(129.27168 -143.36217 0)
(130.05301 -141.34969 0)
(130.39066 -138.02363 1.6127714e-18)
(130.72619 -134.1799 -1.1244273e-17)
(131.17371 -129.75178 1.6587426e-17)
(131.76217 -124.71112 0)
(132.50447 -119.02233 3.826713e-18)
(133.40455 -112.67557 0)
(134.45464 -105.70367 0)
(135.63394 -98.182045 0)
(136.92947 -90.220676 -1.0261534e-17)
(138.3888 -81.935242 0)
(140.01783 -73.47232 -8.78213e-18)
(141.69548 -66.02765 0)
(-43.64629 -54.022562 0)
(-50.655401 -61.824639 0)
(-49.654981 -61.942298 0)
(-45.409551 -58.72253 1.4637568e-17)
(-39.513203 -53.942546 -1.1914496e-16)
(-32.192355 -48.100361 1.9927306e-16)
(-23.254068 -41.397848 0)
(-11.757338 -34.209623 5.2007473e-18)
(2.6881841 -25.22314 0)
(64.934477 -2.5579257 0)
(109.56663 14.518166 0)
(135.87119 26.575527 -3.8271599e-18)
(153.52459 34.216584 0)
(164.34847 38.175801 1.7187551e-16)
(171.23853 36.928944 0)
(1.4486296 -3.5127088 0)
(-8.33377 3.1275814 0)
(-6.6542927 6.0955647 0)
(-17.388007 19.017952 7.5692498e-18)
(-24.287204 27.588682 -4.3421515e-17)
(-27.916875 32.566035 5.3916394e-17)
(-29.198633 34.979254 0)
(-28.625253 35.763243 -2.0310223e-18)
(-26.379329 35.278487 0)
(-21.596836 34.892489 0)
(-15.228838 35.609338 0)
(34.44228 26.278069 3.0672658e-18)
(79.087136 22.450886 0)
(112.24268 21.85372 6.0201182e-17)
(140.28644 24.613377 0)
(83.448166 101.25105 7.322583e-20)
(88.581854 -107.2431 -7.1180607e-20)
(-19.680595 -25.145672 -8.4611409e-20)
(6.8306535 -6.9693691 9.6424296e-20)
(135.90064 11.3443 0)
(165.05391 -0.30268623 0)