/*--------------------------------*- C++ -*----------------------------------*\
| =========                 |                                                 |
| \\      /  F ield         | foam-extend: Open Source CFD                    |
|  \\    /   O peration     | Version:     4.1                                |
|   \\  /    A nd           | Web:         http://www.foam-extend.org         |
|    \\/     M anipulation  |                                                 |
\*---------------------------------------------------------------------------*/
FoamFile
{
    version     2.0;
    format      ascii;
    class       regIOobject;
    location    "0.8/uniform";
    object      profilingInfo;
}
// * * * * * * * * * * * * * * * * * * * * * * * * * * * * * * * * * * * * * //

profilingInfo
(

    {
        id              16;
        parentId        11;
        description     "Foam::Time::writeObject - outputTime";
        calls           8;
        totalTime       0.071897;
        childTime       0;
        onStack         1;
    }

    {
        id              11;
        parentId        1;
        description     "Foam::Time::writeObject";
        calls           1600;
        totalTime       0.076067;
        childTime       0.071897;
        onStack         1;
    }

    {
        id              1;
        description     "application::main";
        calls           1;
        totalTime       152.62206;
        childTime       143.51985;
        onStack         1;
    }

    {
        id              13;
        parentId        1;
        description     "FO::forceCoeffs::execute";
        calls           1599;
        totalTime       0.792608;
        childTime       0;
        onStack         0;
    }

    {
        id              12;
        parentId        1;
        description     "FO::forces::execute";
        calls           1599;
        totalTime       1.095099;
        childTime       0;
        onStack         0;
    }

    {
        id              14;
        parentId        1;
        description     "FO::pressureTools1::execute";
        calls           1599;
        totalTime       0.003868;
        childTime       0;
        onStack         0;
    }

    {
        id              15;
        parentId        1;
        description     "FO::probes::execute";
        calls           1599;
        totalTime       0.105796;
        childTime       0;
        onStack         0;
    }

    {
        id              2;
        parentId        1;
        description     "functionObjectList::read";
        calls           1;
        totalTime       0.002324;
        childTime       0;
        onStack         0;
    }

    {
        id              3;
        parentId        1;
        description     "fvMatrix::solve_U";
        calls           1600;
        totalTime       0.923543;
        childTime       0.705251;
        onStack         0;
    }

    {
        id              8;
        parentId        1;
        description     "fvMatrix::solve_p";
        calls           6400;
        totalTime       140.52055;
        childTime       139.87591;
        onStack         0;
    }

    {
        id              5;
        parentId        4;
        description     "lduMatrix::smoother_Ux";
        calls           1600;
        totalTime       0.233134;
        childTime       0;
        onStack         0;
    }

    {
        id              7;
        parentId        6;
        description     "lduMatrix::smoother_Uy";
        calls           1600;
        totalTime       0.222712;
        childTime       0;
        onStack         0;
    }

    {
        id              4;
        parentId        3;
        description     "lduMatrix::solver_Ux";
        calls           1600;
        totalTime       0.370095;
        childTime       0.233134;
        onStack         0;
    }

    {
        id              6;
        parentId        3;
        description     "lduMatrix::solver_Uy";
        calls           1600;
        totalTime       0.335156;
        childTime       0.222712;
        onStack         0;
    }

    {
        id              9;
        parentId        8;
        description     "lduMatrix::solver_p";
        calls           6400;
        totalTime       139.87591;
        childTime       3.202778;
        onStack         0;
    }

    {
        id              10;
        parentId        9;
        description     "lduMatrix::solver_topLevelCorr";
        calls           622726;
        totalTime       3.202778;
        childTime       0;
        onStack         0;
    }
);


// ************************************************************************* //
