/*--------------------------------*- C++ -*----------------------------------*\
| =========                 |                                                 |
| \\      /  F ield         | foam-extend: Open Source CFD                    |
|  \\    /   O peration     | Version:     4.1                                |
|   \\  /    A nd           | Web:         http://www.foam-extend.org         |
|    \\/     M anipulation  |                                                 |
\*---------------------------------------------------------------------------*/
FoamFile
{
    version     2.0;
    format      ascii;
    class       volScalarField;
    location    "0.3";
    object      p;
}
// * * * * * * * * * * * * * * * * * * * * * * * * * * * * * * * * * * * * * //

dimensions      [0 2 -2 0 0 0 0];

internalField   nonuniform List<scalar> 
4242
(
-11615.634
-11384.11
-11030.594
-10622.152
-10148.339
-9606.2026
-8991.6295
-8304.0619
-7547.4218
-6731.7733
-5874.2139
-4998.1336
-4132.7046
-3315.7972
-2580.9295
-1868.6463
-14633.848
-14354.92
-13903.852
-13392.185
-12816.077
-12176.532
-11473.51
-10709.777
-9890.2988
-9022.8212
-8118.3504
-7191.1512
-6259.1509
-5347.5714
-4489.4211
-3683.6512
-18244.12
-17950.431
-17446.44
-16875.53
-16229.076
-15505.907
-14705.092
-13829.791
-12886.438
-11885.168
-10839.649
-9766.3287
-8683.3676
-7610.8046
-6572.5216
-5605.417
-21909.793
-21613.161
-21061.292
-20427.345
-19707.457
-18898.194
-17998.059
-17009.525
-15938.337
-14794.718
-13593.571
-12353.99
-11098.028
-9848.9322
-8627.92
-7473.3511
-24080.495
-23810.094
-23257.987
-22608.56
-21872.566
-21043.508
-20118.511
-19098.392
-17987.334
-16794.572
-15534.164
-14224.482
-12887.206
-11545.878
-10220.344
-8918.6198
-24152.066
-23946.73
-23467.408
-22873.697
-22201.716
-21445.985
-20602.881
-19671.854
-18654.123
-17554.697
-16382.671
-15150.956
-13875.548
-12575.105
-11269.162
-9978.606
-22191.204
-22086.378
-21769.674
-21321.391
-20798.341
-20208.354
-19549.709
-18820.554
-18018.21
-17141.122
-16190.407
-15170.429
-14088.543
-12955.029
-11782.166
-10585.931
-19338.703
-19294.887
-19155.801
-18908.53
-18580.43
-18190.692
-17747.739
-17254.071
-16706.609
-16099.239
-15424.81
-14676.936
-13851.11
-12945.679
-11961.967
-10912.246
-17166.391
-17156.268
-17123.433
-17018.436
-16840.483
-16614.451
-16333.462
-15998.165
-15618.068
-15197.725
-14730.492
-14203.387
-13598.673
-12898.53
-12090.271
-11172.203
-16089.018
-16085.481
-16063.721
-16033.123
-15980.19
-15823.557
-15583.94
-15338.909
-15091.243
-14817.744
-14508.119
-14147.797
-13700.221
-13128.405
-12412.343
-11550.429
-15775.015
-15767.236
-15735.06
-15668.934
-15572.808
-15480.579
-15400.401
-15265.963
-15089.446
-14950.535
-14857.109
-14707.41
-14381.405
-13831.223
-13057.315
-12071.653
-16085.368
-16059.9
-16000.451
-15926.06
-15852.075
-15786.195
-15732.795
-15752.951
-15875.866
-16105.683
-16629.383
-16748.548
-16295.646
-15444.96
-14316.875
-12926.484
615.66653
759.0349
980.34678
1225.521
1495.8672
1789.8413
2103.2669
2429.9463
2761.5243
3087.5894
3396.1147
3673.8689
3905.3315
4073.6596
4182.5848
4289.9127
4912.356
5001.1143
5138.826
5290.017
5452.8239
5624.8554
5801.3613
5975.6708
6138.9757
6280.462
6387.8941
6448.4261
6448.7566
6374.8915
6219.8798
6012.4982
8894.9903
8939.5939
9008.8239
9081.3074
9152.9299
9219.6342
9275.2925
9311.9391
9319.7962
9287.6597
9203.7719
9056.7515
8835.5743
8529.7385
8141.605
7718.9358
11996.747
12008.828
12026.403
12038.22
12039.058
12023.384
11983.844
11911.333
11795.173
11623.694
11385.246
11068.936
10664.071
10161.711
9571.4158
8955.1876
13866.497
13862.803
13853.538
13832.099
13792.761
13728.926
13632.331
13493.094
13300.055
13041.526
12706.336
12284.238
11765.439
11145.386
10454.463
9797.484
-11670.178
-11427.886
-10995.382
-10503.818
-9950.6511
-9334.601
-8655.8518
-7918.2464
-7128.6346
-6297.3347
-5437.791
-4566.6266
-3702.241
-2865.2613
-2078.9992
-1369.112
14140.596
14132.159
14114.528
14083.142
14032.787
13957.088
13848.246
13697.082
13493.283
13225.978
12884.689
12460.448
11946.69
11341.78
10655.484
9922.0581
13951.796
13942.302
13922.847
13889.033
13835.574
13756.003
13642.502
13485.987
13276.422
13003.433
12657.237
12229.665
11715.205
11113.377
10436.424
9723.8152
13102.41
13102.093
13098.084
13081.892
13047.41
12987.949
12895.169
12759.196
12569.031
12313.363
11981.658
11564.545
11052.986
10443.814
9771.0268
9144.1823
10499.52
10520.896
10552.658
10579.969
10597.496
10599.753
10579.31
10526.977
10432.026
10282.871
10068.144
9776.9734
9396.7376
8914.7139
8349.95
7818.3379
6618.8846
6679.6495
6773.0163
6872.3604
6974.0506
7074.3346
7167.2352
7244.8679
7297.4423
7313.7056
7281.9123
7190.1646
7023.4095
6763.2698
6426.3302
6157.268
1819.7457
1931.6007
2103.0468
2292.1157
2498.2805
2719.8472
2952.6564
3190.5008
3424.7504
3644.3927
3836.6134
3987.4211
4080.6962
4098.3237
4035.4925
3920.6223
-3339.0061
-3164.0257
-2897.8125
-2601.4929
-2271.3531
-1908.0484
-1514.9638
-1097.8538
-665.36599
-228.93753
197.65842
598.87104
956.19936
1247.2725
1470.6622
1692.5184
-4022.4913
-4027.2195
-4031.5526
-4056.6703
-4078.0456
-4083.7874
-4058.156
-3972.4665
-3830.7196
-3715.9466
-3486.4544
-3071.3796
-2961.7078
-3003.0276
-2855.8651
-2536.2449
-4672.6383
-4674.961
-4679.2296
-4688.2797
-4702.6507
-4717.3993
-4737.7554
-4751.1458
-4679.4998
-4360.6964
-3967.9316
-3577.4382
-3356.1717
-3219.9909
-3083.8231
-2944.4909
-5692.9404
-5683.9931
-5667.527
-5647.6451
-5634.9754
-5632.9393
-5605.3872
-5474.4238
-5267.6735
-5003.1316
-4678.8582
-4339.9034
-4035.8691
-3787.8583
-3592.9569
-3447.0901
-6422.0622
-6402.6113
-6365.5865
-6323.7595
-6258.1233
-6120.8563
-5928.6495
-5724.3912
-5504.5652
-5265.2604
-5011.2572
-4748.6557
-4483.045
-4217.7301
-3953.5065
-3687.9902
-7552.6375
-7527.577
-7474.1538
-7358.6696
-7193.5503
-7006.7621
-6799.4383
-6572.3652
-6328.7289
-6066.789
-5781.0815
-5465.7274
-5117.768
-4738.0922
-4332.6371
-3907.6715
-9938.9406
-9881.9344
-9726.8292
-9494.1436
-9219.1926
-8913.6397
-8579.6715
-8216.5345
-7820.6528
-7386.9999
-6912.2861
-6396.3435
-5842.6941
-5258.6239
-4656.0492
-4041.1125
-12943.419
-12829.158
-12513.878
-12104.426
-11649.695
-11149.501
-10599.875
-9999.8685
-9349.6435
-8651.5932
-7911.7238
-7138.9899
-6344.5856
-5541.9848
-4747.2352
-3966.6267
-14524.047
-14330.601
-13902.972
-13393.205
-12825.274
-12192.836
-11493.562
-10729.112
-9903.9344
-9026.1846
-8108.2706
-7165.9217
-6217.0103
-5280.9267
-4374.6545
-3497.194
-13889.522
-13658.372
-13203.226
-12677.894
-12086.632
-11425
-10692.479
-9892.5541
-9032.1037
-8122.2418
-7178.0877
-6218.2771
-5262.8259
-4332.6537
-3447.751
-2629.5545
-9105.972
-8878.1464
-8494.0465
-8054.9102
-7559.9136
-7010.2607
-6406.2793
-5750.9213
-5049.5134
-4310.5186
-3545.8252
-2770.7556
-2004.4436
-1273.2782
-607.0515
4.635338
-6864.9046
-6670.7312
-6366.5335
-6012.2397
-5599.5679
-5125.7733
-4587.5609
-3985.2651
-3324.0068
-2615.2768
-1877.273
-1134.1131
-415.43408
242.08209
813.1062
1366.2466
-19375.625
-19323.046
-19218.794
-19100.195
-18986.135
-18887.356
-18817.226
-18792.07
-18829.335
-18946.404
-18944.571
-18753.333
-18154.782
-17107.672
-15686.357
-13997.032
-19681.107
-19608.174
-19491.046
-19375.038
-19271.429
-19187.405
-19134.588
-19126.345
-19175.179
-19289.919
-19466.45
-19582.341
-19222.161
-18149.893
-16470.995
-14385.592
-18346.075
-18277.196
-18180.487
-18092.123
-18019.177
-17969.05
-17950.879
-17973.433
-18045.063
-18171.813
-18320.278
-18328.44
-18009.194
-17120.943
-15647.238
-13665.457
-15434.753
-15394.482
-15341.056
-15297.436
-15269.707
-15263.984
-15287.065
-15344.685
-15439.596
-15568.742
-15710.104
-15798.928
-15656.768
-15082.995
-14013.257
-12479.319
-12094.747
-12081.212
-12065.859
-12061.106
-12071.786
-12102.561
-12158.518
-12243
-12355.653
-12490.729
-12634.057
-12747.097
-12743.403
-12505.614
-11932.324
-10975.248
-9500.4677
-9500.7533
-9505.0135
-9518.2225
-9543.0305
-9581.3741
-9633.9123
-9700.7692
-9782.0527
-9877.6375
-9984.8114
-10087.106
-10141.837
-10083.486
-9840.3767
-9374.4726
-7686.1409
-7689.0347
-7694.0498
-7702.1152
-7714.0854
-7730.8362
-7754.5961
-7789.227
-7837.5533
-7900.8434
-7976.3331
-8053.3609
-8111.6129
-8118.6579
-8035.1576
-7846.9324
-6396.5992
-6397.2509
-6398.5578
-6402.1577
-6408.8194
-6419.4419
-6435.4767
-6458.1187
-6487.6379
-6523.2047
-6562.2327
-6599.4949
-6626.8641
-6635.1433
-6611.4626
-6565.7516
-5501.3922
-5501.814
-5503.3803
-5506.2245
-5510.14
-5515.0154
-5520.6135
-5526.2912
-5530.8139
-5532.0717
-5526.8144
-5510.8616
-5480.7695
-5435.3349
-5379.8888
-5340.9927
-4854.0641
-4852.1742
-4850.6252
-4849.4983
-4846.8752
-4841.2027
-4830.8806
-4813.7036
-4786.5693
-4745.1931
-4683.9549
-4596.1784
-4475.9068
-4321.7684
-4154.018
-4019.155
-4423.8592
-4422.7272
-4420.8904
-4415.7892
-4403.2583
-4380.1828
-4343.9723
-4291.4744
-4218.0731
-4117.0724
-3979.3666
-3792.9837
-3542.14
-3208.1334
-2873.0533
-2615.3168
-4127.4962
-4131.6773
-4141.8665
-4136.386
-4120.1606
-4088.3566
-4036.4605
-3960.1281
-3853.8036
-3710.3289
-3520.851
-3290.1278
-2995.6559
-2653.9449
-2207.1214
-1815.0954
-7172.6224
-6860.4837
-6647.1481
-6247.7915
-5780.6335
-5262.6181
-4699.9569
-4098.7128
-3469.4749
-2828.0114
-2192.9371
-1587.191
-1042.459
-572.84952
-80.98515
-2930.1779
-2622.4146
-2435.3033
-2095.9435
-1699.7336
-1263.57
-792.39502
-291.438
228.05012
750.80502
1258.8285
1730.0787
2134.9817
2470.169
2811.5041
-4096.7376
-4143.9851
-4163.6987
-4159.6777
-4127.9603
-4065.4919
-3962.7738
-3817.2399
-3612.7022
-3264.8591
-3122.8221
-3004.7869
-2717.0656
-2221.6121
-1785.3099
-17590.886
-17336.212
-17265.081
-17226.05
-17198.343
-17199.296
-17259.175
-17387.176
-17813.768
-18295.468
-17795.04
-17001.618
-16028.558
-14800.988
-13236.585
-7653.1559
-3368.7891
-4082.6683
-17762.822
-5749.3681
-281.11827
4789.4909
-337.43694
-3598.3919
-1283.1532
2511.5286
1004.4991
2199.333
203.96288
2843.4986
-49.906736
2465.8965
-2318.3738
799.92848
-3762.5423
1269.084
-7381.8358
-8443.4402
303.46843
-3085.9192
2584.9261
2249.408
1230.5696
2736.7259
-1143.5135
-1098.099
-2162.7468
-661.49786
-3439.305
-1349.4627
2984.655
103.27209
-2105.7737
2926.693
-457.56857
-240.34785
2862.3661
1462.8909
-531.83048
-2374.2235
-329.87458
980.5961
-106.83966
2184.2364
4245.9491
-932.56424
2592.0898
859.55792
2101.7565
-8818.4226
6828.4433
2274.4586
2373.9384
-5438.9267
-2109.7503
-223.21761
672.51255
2331.736
-1112.7567
-1033.4222
847.75361
2089.4968
1481.3826
-3076.7697
-267.4858
610.8083
-1127.7153
-869.7374
-940.7843
-1571.1373
-3974.8987
11.115849
-30.482966
-160.36795
2260.5065
-4563.8862
-1553.3001
-1.5450338
234.6268
-2327.1466
-8564.351
-3523.7375
-1022.9256
1071.1259
-1511.4537
2445.4626
29.241335
-3020.8375
-145.0139
-1253.1815
457.18142
5051.1494
1227.8728
1775.4321
3449.4887
27.72757
5090.8457
-3086.8213
2225.4279
-13.48167
-494.14341
387.64511
-244.73749
-629.16257
-2429.5252
-1088.9074
-24.514995
-662.67262
-38.01875
-6137.2011
2669.3004
-904.31129
-1271.0756
82.404342
-5.9837888
3004.8841
390.1004
33.296614
3720.5748
2463.5983
2294.3333
-7703.9606
134.96253
-12082.105
-9577.4945
1583.2551
-11511.871
-5656.0111
2497.166
-497.29085
-2848.109
-479.60817
-368.09803
492.50217
-1012.97
3965.4026
74.837866
-3209.8705
-611.18972
2672.2847
-461.36856
-4122.9247
-5036.6971
-16.593368
-11.110115
-1177.5245
-4931.2142
-732.02124
760.0626
2032.301
-538.13508
-1680.722
3840.0144
-509.01328
2646.9604
-8271.8461
1697.7322
-378.54108
158.54279
-9695.5016
-3428.1018
1881.6898
3635.5837
3.8972192
-525.00672
-734.61025
2158.6142
-962.76062
-28.911513
-2792.8363
4932.8787
-1070.8365
243.48345
-484.62366
2787.7203
92.474804
-7.8564487
-1118.169
-1904.5465
851.63692
-748.7715
-556.36973
-1383.4055
-1174.2285
1028.5798
1714.0495
-2743.3731
-4107.2968
-1527.0865
-191.36394
-1031.6057
-2493.7663
-8694.6464
1379.2675
1286.042
223.23996
525.17638
632.24553
4841.585
830.34726
-1195.6284
-5442.9577
212.73228
3218.2526
1216.3156
2305.7981
-364.50122
4169.701
-91.898546
-1082.051
-929.23937
1724.4576
2010.3517
-168.0352
-236.94219
-16.301119
2595.5259
1916.9725
-3223.8312
-916.70099
-1012.9603
1693.6869
-69.742652
1738.2771
-7179.6225
3879.3562
-51.530903
355.53156
-2043.5925
-8288.7357
3251.9131
-342.10211
1703.437
-2607.8876
-1333.6864
-66.220729
1625.2989
-1314.6455
-171.72195
-1326.958
40.916025
119.17356
-1440.3613
4207.6995
-105.55999
-1997.5286
2357.3431
-275.32149
-1025.854
930.0593
4531.8331
-57.735537
-317.03674
-8549.2068
-98.672579
3450.4539
-1106.904
-13.484243
-1227.2836
-414.97381
-171.19629
-471.37787
-563.87278
-311.83811
-1187.5194
-1392.1936
-583.34898
8.7600501
1303.9676
461.5624
1468.8221
1607.4462
2384.0951
-2555.1366
-852.2661
4049.533
3029.5879
-887.16709
-147.71067
-7408.6817
-897.77037
-1269.2207
-3368.2054
-4685.4644
-2515.6055
-1157.79
-72.58028
-1528.6606
-914.6169
852.88852
-5727.1252
-178.29841
2.3843443
2922.3442
2017.1351
-1341.0584
2671.3413
137.5844
-129.75892
-2073.0859
186.75523
-1803.8861
4483.4569
4143.3928
-575.81568
27.027538
185.31739
-671.31796
1991.6294
-6253.639
-1421.0885
420.03833
-1250.1608
57.970689
-907.40472
-831.80367
-1130.9088
4904.449
-1712.206
1022.1648
2190.9624
30.184709
-112.51593
-234.91277
1809.838
-2232.1949
-180.92863
514.77321
-82.820047
6454.9138
-3353.7186
255.78477
2527.2668
-936.60569
-345.17069
1928.6036
92.547934
12.615827
-1382.9222
-2857.5094
489.89814
-1285.3216
4199.1466
68.706796
-79.010264
574.11977
-1730.324
520.29296
-22.648966
37.648288
-2852.606
-515.20957
755.67847
-3350.1807
-3621.7692
-163.23462
-2352.4099
-12719.609
2305.0663
-720.34761
2983.4815
-28.067672
-11974.105
3929.0658
2064.1759
-354.94972
-2505.2726
-41.457259
2576.7792
-416.56213
-3138.1115
4307.4214
493.25955
2020.3639
-744.92109
-8056.2151
-1197.5132
426.22679
-458.441
168.07221
3042.0831
2097.0274
-4592.1012
1190.8852
-74.388856
-5735.2533
-120.32057
2064.5332
-4921.1731
232.31501
-1342.9527
-979.32413
355.75574
-191.2139
-1244.8308
-600.26273
-403.3583
6363.8576
-1340.2311
-121.23831
-4489.5649
-1309.0407
-3053.5035
1430.5777
-5108.8804
-437.14812
-88.120489
2397.9075
-998.28059
1858.0929
2383.3931
-23.790481
-934.65204
1801.7142
2031.4974
755.42495
16.298683
-1325.4592
58.224944
-1983.8803
-629.85255
-1117.372
2279.8897
2947.1745
4345.1016
-1325.6958
189.75122
2866.1386
-1243.9828
809.02234
2075.2803
439.57549
-1134.6636
-8763.9993
1996.7505
571.90451
-2495.7885
434.57574
-388.63058
-5345.113
-3862.4176
-436.78099
-1037.9432
-2844.1175
-1430.4141
296.94227
-250.7919
-1145.0427
2520.2933
286.3993
-4657.5828
139.65856
-77.073645
761.41409
-912.76564
2604.0452
-12.306707
-157.01958
2090.8008
853.0245
3021.5535
-297.08464
990.24428
653.50271
2483.9988
1158.9334
2752.8862
2132.2514
-1865.5259
-9412.3781
-845.07127
3406.3599
-882.58652
-839.30168
-1112.8275
-281.50469
124.80754
6875.123
-861.90499
-1420.8632
-5357.9748
-1990.7925
-115.20802
-573.41683
-3827.6289
-1044.5815
2776.0451
1090.366
-5059.1652
-5476.9851
-132.19494
-1787.8657
-1347.6923
-385.71112
-5856.769
111.21381
-987.34039
15.026512
-1000.8862
-857.27329
1466.2349
5236.1401
721.40665
2058.2022
-1610.3626
-9026.4782
-1289.2699
-258.20455
-6028.4956
-9.0331271
67.447998
-775.73788
-1143.7257
-5748.4666
-3177.6929
-867.27377
2320.3573
2428.6873
1371.7357
-342.96138
1586.3443
-2652.8918
-29.467852
-1384.3068
-370.64726
-4985.3554
-2513.7113
-3122.5116
2741.2754
774.12282
-2880.2135
3128.5857
279.15133
-3160.0605
2405.7847
2137.6418
907.06802
2369.5528
2324.0338
-9389.6663
-467.05764
-2757.6187
352.79623
346.99582
-7628.6162
2461.6233
1356.7656
-981.85544
664.58426
-528.2848
352.11761
-74.150145
2914.1181
787.95925
977.02537
-1367.111
-3246.729
3578.3976
-11047.476
-1197.7087
2116.6381
-11085.486
-184.55911
57.155518
-3057.5921
-3669.3775
-3274.6113
2373.3645
1250.1625
-363.55784
-2158.1732
-5622.6153
2520.7248
4145.3662
3145.4915
2736.1471
-209.81972
2557.7314
2171.2934
3471.3982
1861.3817
4371.1445
-569.90831
2287.2994
3308.3335
-138.61596
-528.12956
37.221918
1556.2831
2493.1287
1151.4587
-2249.3851
1140.7431
-876.22689
6709.9053
1447.8762
-30.190421
6549.4475
2699.0198
-1822.097
-1061.7533
-5046.4312
7054.419
-2162.7481
-6135.6405
2138.3156
-945.87135
4039.3583
1974.7382
2835.279
-1.7403942
-35.550363
-6174.5088
2903.2584
7620.1861
2176.8723
-1052.1626
1162.1596
-1082.4967
-3954.2782
456.00323
-4505.5735
7005.2317
-4587.7436
-77.947822
-582.97645
4470.9873
4781.6624
-3718.3755
-2742.4436
-1387.1766
2824.9586
-3133.3308
-744.76029
-214.62322
-496.24857
773.55207
2043.6487
-673.11081
-2099.4798
-52.479935
-4326.1256
-1234.8165
-3470.9637
1515.0508
428.76282
-895.70665
487.56143
5357.9727
-1378.4585
2239.531
-56.08917
486.91442
1174.8631
-2408.7497
6803.2588
-486.96652
137.03728
1633.0173
82.947659
-3640.3689
-244.47463
-2026.9364
-25.384708
1086.8935
-3760.9809
-2634.4212
3075.0928
-3338.1051
1759.7694
2402.0223
1664.1945
4381.9285
18.549423
3715.7137
-2954.4665
7420.9425
-7656.5401
1201.9745
20.662511
6429.4261
-3215.3841
13.129355
-840.0539
786.28099
370.68147
-3268.1735
1351.4636
1186.6716
-6671.0523
-1969.1826
-807.67242
-7577.0724
-114.5153
-6530.4832
-3679.6475
-9.292786
480.89341
259.31104
-497.87404
2461.9212
203.53138
-2877.7517
2214.8158
-390.15712
91.772617
341.73354
-1470.7727
-333.67134
-7203.7111
1445.0057
-8241.87
-1056.4212
5074.7109
-5409.7823
-775.49343
-542.36545
-1325.0112
1298.5089
2767.4814
107.03725
-1760.8982
-201.68623
3997.6624
1991.4502
-2341.2648
2293.895
131.38297
-551.91765
-5476.7697
-6176.4638
1202.5362
-6990.2209
-8873.4196
-620.19497
-6936.4675
1725.7345
111.10415
-795.13983
-58.398774
-1005.9253
-1776.009
41.25926
-6092.6626
-1222.8674
270.61715
-1.7910845
-1442.5828
-1119.3353
-2576.8535
1740.5317
1552.3568
-3041.0843
-2042.6237
680.73055
-598.76821
-643.43242
3372.6453
659.02433
961.48197
-189.24167
1023.6972
-1881.5433
122.70098
-3809.5118
-6136.1854
314.48387
1531.7791
1555.371
1491.1638
-1048.6411
386.26371
-768.96181
2271.8403
-860.35621
-702.37969
3111.4675
2324.604
150.40774
4056.3596
-709.87098
9166.7932
-9803.8551
-2445.0052
-497.79956
-192.78659
-1454.4428
2869.6628
-1462.6362
-105.04321
251.93697
-160.87947
-5523.035
-1478.5319
-218.48368
-21.036538
-58.579044
4087.1393
-93.21598
2033.4444
2841.0534
3176.8726
2348.4492
1802.464
2398.3926
-375.57278
-14.084454
-3221.7158
-1000.7167
-37.849004
1774.1212
4068.4848
-1067.8998
-1332.9796
714.65198
2980.9571
-964.20383
3125.8981
1376.6868
1288.1843
5827.6788
387.44321
25.844438
-819.47107
139.05103
-38.59289
-193.07795
-379.42821
7140.9674
2202.0649
-309.62089
3076.1085
1886.6223
1914.1681
70.49798
206.03463
3680.4072
-596.4295
1522.9339
-756.17975
3347.3409
-1443.1024
2231.2246
-111.69661
-49.226156
-789.82259
-6653.9491
2200.9917
-2883.091
-2068.991
137.39395
-793.70943
-3165.7744
2593.5531
-467.01737
1277.8974
5952.3315
-1470.7245
7331.2606
-7789.1671
529.91709
565.6102
-428.29167
1261.6509
-462.04182
3917.8771
-1350.4866
2227.6695
-888.61319
-953.99754
-4405.8465
-4490.4135
946.60651
-12.3399
-1172.1419
2899.3856
774.87577
-7718.5111
-2122.395
1439.5872
2131.8891
3164.712
-1315.3542
729.08102
1529.7389
-582.80196
516.80761
8932.2899
-4372.8554
-1243.1307
339.85174
5170.5066
2715.3143
-7728.1279
803.72976
-144.71094
1215.7311
-1119.7125
-3987.8686
-1040.4252
1182.6537
-212.01772
2601.807
-9530.2389
263.65749
-121.33834
-1012.4617
-2035.4239
-958.16469
105.92294
2375.912
-175.22591
1793.3684
-243.7448
2535.6609
2901.7306
3626.0665
3150.6202
-2572.4335
-976.5369
-2787.6081
-998.21243
-317.63298
-1875.5561
-2143.171
1137.0074
-680.23316
732.91125
2725.5256
-3667.2679
220.25075
-1717.6982
41.224304
-7365.7014
-59.197641
151.25563
565.03993
-5952.9749
-1384.5534
-577.21763
-322.20216
1855.5001
2967.3013
927.22819
8201.8516
-527.5208
-16.776538
1838.6116
-901.8913
-2027.5858
-1827.6311
-3393.8745
-2327.5066
937.50117
3697.8101
4834.3378
-6425.823
87.5818
2670.783
-7086.4757
-1030.1411
-4994.0249
-2892.9545
-7463.2829
1526.0153
455.16542
1244.2211
-45.224813
-5022.9253
-1962.0572
2168.33
3762.1304
604.57606
2786.4094
4310.369
1782.0738
-2015.9635
-207.33967
3161.3615
-732.17872
-913.46831
471.25059
171.00853
1643.6371
-3366.1478
7437.5471
624.12204
-3597.038
-38.396242
913.00007
5738.1336
-1626.0678
-8761.3401
-50.874859
-1595.4417
-11.934187
521.04717
2153.2822
-1780.0503
484.80233
-2381.3276
-2160.9599
2038.7282
3606.7449
-423.76174
-4903.1055
2137.4732
2486.9018
456.98447
-724.11802
-2618.026
-2732.6383
-436.45879
60.467643
-1791.3979
-87.577586
1217.6747
3759.8331
2463.9293
-4113.6617
-32.846113
1502.2181
-1225.0104
649.01448
5440.5505
-7981.2526
-385.2058
2835.8027
-1227.2376
2705.0369
584.33692
1375.5203
1554.1724
6218.4201
-9324.8594
-3959.9044
70.876867
-2263.7754
190.29503
-3393.0129
11.0381
1653.6595
-4115.4916
-273.51212
2585.2205
-998.31562
-350.01945
-5726.8483
-2455.8989
-664.61212
-3123.912
597.31825
-870.15415
3455.1323
-2398.1851
-250.69857
-7755.6964
-95.111158
-3230.9567
-367.94995
-1731.5348
1678.2545
-2110.5646
1960.4806
649.16686
-3096.7114
-1241.2988
-3820.6038
-68.296018
-61.26438
-5410.3396
-1087.4374
193.76265
-387.05433
-777.36678
-6268.5625
-764.36892
6388.615
-1793.9202
3017.1759
1140.1982
17.627704
4140.8875
-860.7343
-683.90946
-8416.6261
-24.227409
7529.4675
1992.7035
-1635.8519
-3044.8641
1350.9872
-2975.0162
-3080.3728
2352.6377
5108.2503
-1757.56
-148.7747
33.034158
3155.5002
772.75592
-217.66801
-291.59185
-915.37842
-18.590124
2245.7701
-142.20707
-691.18922
520.12886
-391.14861
-1554.464
8995.8538
269.39179
-7527.5971
-4573.1328
-3352.7502
1042.0139
-3350.4013
6983.6622
20.864327
-5471.707
-7431.7284
-835.37687
-7850.6399
-4566.3561
-1299.1528
53.266841
-3892.5256
-123.56036
-158.92211
-994.18429
870.45992
-373.39538
-3148.6236
7788.3586
-3983.2997
2261.0859
-923.52178
3192.3005
1474.9239
-1618.1409
4355.3411
-7641.381
-3759.1599
3306.4979
-161.92533
-454.3707
2563.1
-1188.644
-229.52888
-6694.7546
-2074.1134
-323.07308
-586.59924
-715.12283
68.086851
-1848.796
-17.881395
-612.38053
-5016.1574
-1016.9881
279.66625
-1739.1936
-17.497079
-1160.2555
-1038.1329
-225.65441
-270.34726
2214.5299
-8674.1897
2816.0605
56.088124
-7833.8483
2358.4504
-1530.1804
-3185.0131
-877.25462
-510.5132
-3546.7477
1615.4414
-169.04756
-7524.4764
4.5060484
3948.2018
-2481.5083
630.01159
-25.71166
1183.7578
-2530.0626
-7536.0832
38.119807
-8798.4929
-73.675074
-1166.3754
-4142.7989
2115.9529
-7159.345
-441.91537
2726.394
-96.181002
-3472.6593
-753.44255
-1151.8246
-349.06682
-886.45367
138.4035
-1622.8545
8840.9945
-638.68493
5182.0848
-1307.5209
5980.0445
-3704.394
-3899.7923
-770.96244
1051.179
1065.6845
4616.2041
-1529.806
187.46828
3248.6734
1714.7069
-19.570925
-5958.6521
-498.67021
4237.4457
1420.8678
-69.327646
-1877.7138
-680.72383
-1107.8992
1491.1417
1161.7111
-6633.0407
-4764.7655
2207.9787
-9843.1337
2692.2755
-5017.6369
-450.72159
-1219.1092
2595.3738
-89.83675
6114.7135
2070.6253
-1388.3125
-189.43958
3745.1413
3929.3299
-8930.9373
-347.9328
-781.80397
-7212.2714
8372.0844
34.334468
512.24254
1527.6923
-114.53845
-173.79384
-699.76967
-11144.696
2674.7575
-113.60835
-424.73195
-3091.4521
1080.438
36.944715
-2034.5186
-283.26112
-214.50657
-671.77363
-1887.5199
-5913.1451
-5066.9113
706.82097
-175.63801
2293.5478
1241.1124
3309.5804
-7054.3558
-2862.8546
-6707.0817
-37.127022
1801.2503
1176.5818
-1072.7022
-6194.8506
71.153031
-6684.9607
-4754.143
-3078.0105
-5857.3989
-1092.318
1865.9399
2112.0769
-52.360134
-2986.7019
182.46859
-1016.9003
-6548.4157
3377.8078
-10695.459
2097.3485
3651.5837
-17.960918
4724.4399
7416.3716
1458.3396
617.75193
-2286.0165
-7134.8935
-1679.3802
3949.02
905.01609
-1703.5627
-1300.5398
3951.0391
4728.2426
-33.698729
-13.361313
-5181.7154
-60.289998
5010.8717
609.29396
645.6145
-1611.6587
-2857.5393
-137.63919
3213.1847
-10377.85
47.529848
1047.0157
1469.041
5507.9404
122.22413
-930.45555
191.31017
2762.272
-438.1937
109.06345
-6136.9509
16.293771
-267.43457
-1690.1806
307.64127
-6680.8984
91.129422
-10715.107
-251.78607
-140.00609
2420.146
-6724.0176
-397.7446
-62.913563
-1515.7872
175.25397
338.79329
2178.3076
-585.65867
990.18869
1445.0647
-1293.0276
-2049.1202
-3738.162
296.02586
-11.226141
-185.97273
-1607.2946
-197.8417
1255.1026
-216.01701
18.202427
-6077.5943
2841.2759
1859.4474
5067.335
-1251.9811
-21.83621
-10267.828
3513.7716
-10219.371
3120.9931
-25.011857
-645.43711
-1208.1761
-566.92669
-1258.2863
-3191.0841
-827.40117
1347.5464
44.617311
2316.5292
-123.72984
464.12841
-123.02794
-552.59725
4398.6873
-68.659065
-752.1362
-589.03088
2619.2719
0.79652983
-344.9539
9.4760346
-412.97077
-882.65116
6082.6954
-1520.4097
-25.063604
-986.07559
3298.3137
-2114.379
-282.58213
-4155.4692
2771.0169
-3457.0616
246.25236
-128.49009
3496.3849
158.27581
1125.2639
-4.2860609
-1800.777
-1848.0455
2552.3611
-1655.7866
6067.1768
-7463.282
-777.53194
-873.85934
-4898.2472
-855.05813
6073.7667
2843.6401
-5344.6984
-3603.6261
-858.64598
-292.83231
3741.2573
-13.28198
2791.274
4747.7898
-161.27186
-701.0941
3808.8945
-9046.6794
542.93314
-856.99755
1080.2328
-7132.464
-1302.9787
113.36844
1868.4483
509.84637
-4234.3107
-2060.6617
164.01295
-890.36523
-2821.8154
-1430.4961
-18.575257
-151.02542
-8102.0514
-2734.7623
12.737005
-1312.9113
457.8714
-503.99482
678.63242
-2429.085
-6498.1271
769.89489
7829.6888
3129.6183
641.84497
1958.5679
-4215.7135
256.57083
-447.17786
-1597.8535
-4180.0899
1021.2194
2210.8794
-7669.1177
-2992.9077
-1063.6286
2512.0027
-1418.8184
-3811.2179
6762.3968
5030.1546
1894.9063
8483.2992
-6729.9904
-635.86979
-5.1471183
-3289.8925
8048.4106
2534.2351
-2007.3219
-4543.5438
1832.4403
-142.99495
160.80207
2626.4603
6693.5128
-1034.5559
-2793.0956
-305.05091
-1020.8275
-813.89506
2480.5276
-5142.3923
-55.765533
-4026.9295
3242.5091
-456.87068
-4843.2618
-1433.0782
-113.08396
-260.67111
-797.44401
-5614.2274
755.18553
2585.0809
-8784.3641
2247.6565
-7204.4169
-1352.0197
-1718.8633
-1589.5571
58.291911
2886.4287
2449.7803
-1971.0313
2464.6167
8269.7651
-7952.5276
1009.4754
3082.3049
-381.65031
3048.1808
6068.0317
-849.18387
-3702.8687
-941.4505
-7493.8685
-2220.525
1856.8449
-857.23061
-20.077289
807.51745
-2610.8999
-695.17379
5400.3744
-10073.235
-2340.0317
214.35636
-2632.936
-606.44522
10.49348
1672.1704
-6667.5475
2940.6656
-375.38022
3646.4567
-2004.0135
-108.86669
4404.4636
-3582.0896
-10059.99
2589.2458
-2921.2317
-11798.186
-2592.6334
-7823.7243
-2735.1318
4182.1145
-4018.6682
-4440.5127
-1994.9956
-14.86796
678.9261
1474.0632
-832.97873
-5613.0396
211.99273
-2820.5259
688.10701
616.69372
-3991.2604
-842.06309
4393.6052
558.37283
2371.6104
2187.574
-463.4692
2588.3621
-952.46032
-10688.892
-9361.5423
-385.60448
-3474.7309
-862.60147
584.41526
-1359.365
-776.82204
486.6912
1855.1059
3467.4603
32.943103
-1475.1094
2563.9109
399.17288
-802.35858
-645.42517
-3295.4705
5541.3136
192.55842
-1475.4916
-486.74366
-654.14019
1.7375099
-775.75488
8470.2378
434.33559
-2813.5257
-6486.3251
5921.0774
-603.00341
-400.73476
1633.5603
2520.5533
3701.3553
-595.85855
975.8365
-3312.9642
2881.323
2409.8743
1873.4919
51.235708
-32.110656
3213.3188
-2918.6462
-1061.2918
-1656.1592
-1693.8207
-157.63991
1320.176
5675.2167
-281.44166
49.16755
-5263.4566
1281.2679
-7536.1278
-44.459076
-6948.002
-6903.6475
-930.85351
-2052.1613
-7965.1027
-2311.6084
80.662147
-3116.9574
7816.6417
-314.43172
-1033.2496
-416.60148
-107.63431
-880.40918
-156.51509
-3311.0751
3116.001
26.027905
-418.22294
2711.6187
-307.56836
2147.0296
-5250.8323
1887.0411
-1422.4605
-40.521158
3578.803
-10378.261
2926.844
-4935.3747
6.9452522
2446.572
47.368943
117.20169
1516.7726
155.04702
2381.6848
-2746.3387
-1506.673
972.55184
-287.79857
-7034.4923
240.42841
-460.71534
1227.3717
-1116.7556
-1532.962
1884.9415
-201.6916
-770.57312
3764.2836
-143.43889
-15.650191
6801.2758
4818.3677
-585.39201
-538.478
-263.35354
1075.8195
-1214.3704
3356.5853
-949.46448
-1203.1593
-147.77933
-660.52433
1249.6766
2344.5549
2323.3498
-3657.3771
2546.2227
-1423.1663
-492.93641
11.704028
-318.39768
-4084.9743
-387.45232
-4044.4706
-1987.0468
1998.3777
7651.6349
-164.36191
-48.994932
-232.49694
-9862.1635
-16.175193
-6128.6747
-230.05397
399.64539
-761.08937
-5373.9
-3452.2099
-1589.5845
296.77836
1243.1408
-256.57296
-3423.2758
5131.2471
-46.512026
2172.9657
2440.1656
3231.0269
2680.5123
1958.5781
-1194.2281
3321.5491
-1456.1353
-985.42912
-6061.0174
3991.5848
2463.8309
-6958.2771
85.790507
-11799.08
3177.2508
-462.04471
-139.17289
195.44524
2406.8233
-1116.1186
-26.877436
1813.1398
2753.7828
2791.2251
-187.4336
4.0027061
792.22331
2456.0617
-269.80742
-5.3981285
-1495.8881
-854.49468
-3279.2533
26.927615
-2070.2944
408.01374
0.46587151
1130.9291
-30.161991
5537.8529
3127.9433
-823.58627
-7572.1155
2619.147
4788.5395
-2328.5396
-1627.5799
-816.1983
-4016.502
-398.09554
-2199.5412
2069.9521
-3663.0074
-6788.9873
-241.51229
-300.94497
273.8846
130.56539
5421.0832
-9077.4455
-132.05088
-11359.056
57.266695
-633.30261
-1378.9514
-938.41208
6083.9679
2903.2047
-951.05059
-872.07205
-2737.5677
-209.9985
-880.09479
14.869065
107.91782
-385.48822
-932.66412
-62.237429
1153.9674
-1380.9866
2953.6232
2830.4069
521.98241
1876.2896
-38.978338
-3399.6505
-5282.0086
-8098.4153
3205.6649
272.15751
1703.9155
2032.0724
2838.583
1746.3083
-9.2865411
-1250.6658
-581.59968
-5534.559
-448.20332
-73.530715
-12458.968
-1018.7119
-7787.9918
-927.37269
-928.54103
-444.47385
-97.772821
-3078.7163
-589.45565
-303.71612
-1464.024
4695.5674
-2609.3253
-3051.952
6430.1412
-30.749703
-929.40775
1546.1693
-49.639386
-736.07803
2962.0358
-1839.7909
3462.1988
-11490.439
-3182.7758
-1252.2656
-773.89621
-728.73238
-373.41013
-990.41204
90.107105
-1591.0221
-2310.1314
305.87884
-935.24862
155.24776
-8074.4594
2199.3603
7446.7933
-220.76729
1544.2988
246.5297
-1571.8939
-445.73407
-1844.9845
-107.13336
-1376.1125
2200.9189
2501.6859
2277.1431
-6250.7424
-1254.9743
-263.19766
-1014.1513
-187.66061
-313.78419
-1754.8864
-11413.149
2680.2031
-263.94606
2712.7627
-1342.2485
-1597.0423
-477.46134
245.11642
2793.7295
3078.0414
-26.940238
-767.22499
-2990.102
-9146.535
408.96746
-75.702125
-1088.52
-1135.5734
-542.26275
-76.853893
5440.9813
-23.420394
-1571.2029
1174.8427