/*--------------------------------*- C++ -*----------------------------------*\
| =========                 |                                                 |
| \\      /  F ield         | foam-extend: Open Source CFD                    |
|  \\    /   O peration     | Version:     4.1                                |
|   \\  /    A nd           | Web:         http://www.foam-extend.org         |
|    \\/     M anipulation  |                                                 |
\*---------------------------------------------------------------------------*/
FoamFile
{
    version     2.0;
    format      ascii;
    class       surfaceScalarField;
    location    "0.3";
    object      phi;
}
// * * * * * * * * * * * * * * * * * * * * * * * * * * * * * * * * * * * * * //

dimensions      [0 3 -1 0 0 0 0];

internalField   nonuniform List<scalar> 
6703
(
0.00028989722
0.013887113
-0.01417701
-0.0022858385
0.025743961
-0.023168225
-0.0058993454
0.032276792
-0.028663285
-0.01006768
0.038478298
-0.034309964
-0.014848021
0.045597078
-0.040816737
-0.020297091
0.053922201
-0.04847313
-0.026472348
0.063645663
-0.057470407
-0.03343716
0.074978513
-0.068013701
-0.041265995
0.08815694
-0.080328105
-0.05005344
0.10344631
-0.094658865
-0.059920283
0.12115096
-0.11128412
-0.071018361
0.14162427
-0.13052619
-0.08353288
0.16529127
-0.15277675
-0.097688129
0.19268638
-0.17853113
-0.11380442
0.22454145
-0.20842516
0.26186201
-0.24377217
-0.13189425
-0.00036380153
0.014250914
-0.0020773435
0.027457502
-0.0046387428
0.034838191
-0.0076969904
0.041536546
-0.011329332
0.049229419
-0.015641563
0.058234432
-0.0207516
0.068755699
-0.026788211
0.081015125
-0.033895864
0.095264592
-0.042241254
0.1117917
-0.052022619
0.13093232
-0.063485395
0.15308704
-0.076939021
0.17874489
-0.092768521
0.20851588
-0.11135538
0.24312831
0.28346784
-0.13296121
0.00037028044
0.013880634
-8.7262203e-05
0.027915045
-0.0014701177
0.036221047
-0.0033604444
0.043426872
-0.0056765828
0.051545557
-0.0084694818
0.061027331
-0.011818354
0.072104571
-0.015834907
0.085031678
-0.020655778
0.10008546
-0.02644313
0.11757905
-0.033388095
0.13787729
-0.041716165
0.16141512
-0.051696182
0.18872491
-0.063653541
0.22047324
-0.077974693
0.25744946
0.30046403
-0.094970883
0.0011502903
0.012730344
0.0019673562
0.027097979
0.0019028337
0.036285569
0.0012884693
0.044041237
0.00038855236
0.052445474
-0.00075911578
0.062174999
-0.0022160969
0.073561552
-0.004080004
0.086895585
-0.0064587788
0.10246424
-0.0094859502
0.12060622
-0.013324707
0.14171605
-0.018169772
0.16626018
-0.024245602
0.19480074
-0.031798288
0.22802593
-0.041057977
0.26670915
0.31136322
-0.051957175
0.0022847869
0.010445557
0.0049962598
0.024386506
0.0068688954
0.034412934
0.0079715295
0.042938603
0.0086797513
0.051737252
0.0092003763
0.061654374
0.0096008014
0.073161127
0.0098693116
0.086627075
0.0099357135
0.10239784
0.0096933127
0.12084862
0.0090033796
0.14240598
0.0076968144
0.16756675
0.0055784334
0.19691912
0.0024333204
0.23117104
-0.0019795825
0.27112205
0.31752952
-0.0081458734
0.0041373045
0.0063082522
0.009463236
0.019060575
0.014185606
0.029690564
0.017913785
0.039210424
0.020915736
0.048735302
0.023513963
0.059056147
0.025936557
0.070738533
0.028310175
0.084253456
0.030670134
0.10003788
0.032982488
0.11853627
0.035159556
0.14022891
0.037071121
0.16565518
0.038554958
0.19543528
0.03942828
0.23029772
0.039508789
0.27104154
0.31836457
0.038673739
0.0064917657
-0.00018351349
0.015032053
0.010520288
0.023303599
0.021419017
0.030812468
0.031701555
0.037393094
0.042154675
0.043150661
0.053298579
0.048305388
0.065583807
0.053092547
0.079466297
0.057706974
0.095423451
0.062276272
0.11396697
0.066852
0.13565318
0.071414781
0.1610924
0.075891482
0.19095858
0.080183885
0.22600532
0.084187641
0.26703779
0.31484211
0.087710101
0.0036867615
-0.003870275
0.01533042
-0.0011233705
0.028879508
0.0078699294
0.041278148
0.019302914
0.052759191
0.030673633
0.063294364
0.042763406
0.072840317
0.056037854
0.081470429
0.070836185
0.089364873
0.087529007
0.096739945
0.1065919
0.10380626
0.12858687
0.11073073
0.15416793
0.11762282
0.1840665
0.12455076
0.21907738
0.13155994
0.26002861
0.30771174
0.1386903
-0.00055722
-0.003313055
0.0045743225
-0.006254913
0.017069001
-0.0046247486
0.036310817
6.1098078e-05
0.055089252
0.011895198
0.071890627
0.025962031
0.087661436
0.040267046
0.10244957
0.056048054
0.11617
0.073808571
0.12879172
0.093970182
0.14038906
0.11698953
0.15109648
0.14346051
0.1611282
0.17403478
0.17079494
0.20941063
0.1804844
0.25033915
0.29759057
0.19060558
-0.0016007763
-0.0017122787
-0.0032138706
-0.0046418187
-0.00018824883
-0.0076503704
0.0099656257
-0.010092776
0.028067537
-0.0062067129
0.053250761
0.000778807
0.079296057
0.01422175
0.10353834
0.031805772
0.12631397
0.051032939
0.14761261
0.072671547
0.16708708
0.09751506
0.18442827
0.12611931
0.19973314
0.15872991
0.21352563
0.19561815
0.22666363
0.23720114
0.28391759
0.24033661
-0.00089664848
-0.00081563019
-0.0013255749
-0.0042128922
-0.0011974398
-0.0077785054
-0.00060121369
-0.010689003
0.0059470689
-0.012754995
0.020765751
-0.014039875
0.044168931
-0.0091814301
0.075776286
0.00019841749
0.11050499
0.016304233
0.14411394
0.039062597
0.17447851
0.06715049
0.2007101
0.09988772
0.2232261
0.13621391
0.24281629
0.17602795
0.2605183
0.21949913
0.26637487
0.27806103
0.0013323906
-0.0021480208
0.0051960482
-0.0080765497
0.0095399631
-0.01212242
0.013831506
-0.014980545
0.01815926
-0.017082749
0.022646173
-0.018526789
0.032509712
-0.019044968
0.050852948
-0.018144819
0.081226599
-0.014069419
0.12487395
-0.00458475
0.15196315
0.040061282
0.17510409
0.076746788
0.19550337
0.11581463
0.21289734
0.15863398
0.22765084
0.20474563
0.25309761
0.24092809
-0.0016603423
-0.011061735
0.012722077
-0.0039307285
-0.018819841
0.021090227
-0.0067762194
-0.023233746
0.026079237
-0.010312711
-0.02767109
0.031207582
-0.014566882
-0.032821248
0.037075419
-0.019649319
-0.038858777
0.043941213
-0.025693105
-0.045920299
0.051964084
-0.032849927
-0.054153666
0.061310487
-0.041269569
-0.063724099
0.072143742
-0.05109642
-0.074817467
0.084644318
-0.062465916
-0.087645402
0.099014898
-0.075502079
-0.10245447
0.11549063
-0.090324694
-0.11954198
0.1343646
-0.10709284
-0.13928427
0.15605242
-0.12624665
-0.16206929
0.18122311
-0.18839396
0.2110266
-0.1488793
-0.0016824591
-0.0093792756
-0.0048543205
-0.01564798
-0.008862898
-0.019225168
-0.013676679
-0.022857309
-0.019416823
-0.027081104
-0.02623976
-0.032035839
-0.034328122
-0.037831937
-0.043891768
-0.04459002
-0.0551716
-0.052444267
-0.068444192
-0.061544875
-0.084027013
-0.072062581
-0.10228512
-0.084196365
-0.12364221
-0.098184894
-0.14859012
-0.11433636
-0.1776346
-0.13302481
-0.15481955
-0.21120901
-0.0020995089
-0.0072797667
-0.0057119677
-0.012035521
-0.010201251
-0.014735885
-0.015572879
-0.017485682
-0.021966493
-0.020687489
-0.029557705
-0.024444628
-0.038549816
-0.028839825
-0.049175892
-0.033963945
-0.061701945
-0.039918214
-0.076431083
-0.046815737
-0.093709371
-0.054784292
-0.11393456
-0.063971181
-0.13756862
-0.074550825
-0.16516008
-0.086744907
-0.19738464
-0.10080024
-0.11693124
-0.23527295
-0.0023678407
-0.004911926
-0.0062403545
-0.008163007
-0.011034585
-0.0099416539
-0.016790919
-0.011729348
-0.023662832
-0.013815576
-0.031838317
-0.016269143
-0.041534161
-0.019143981
-0.052997196
-0.022500909
-0.066506163
-0.026409248
-0.082373923
-0.030947977
-0.10095063
-0.036207587
-0.12262993
-0.042291883
-0.14786097
-0.049319778
-0.17715922
-0.057446658
-0.21106651
-0.066892958
-0.078126324
-0.24987143
-0.0027295164
-0.0021824096
-0.0068236062
-0.0040689172
-0.011837952
-0.0049273082
-0.017866654
-0.0057006465
-0.025078029
-0.0066042011
-0.033675508
-0.0076716636
-0.043895202
-0.008924287
-0.056006584
-0.010389527
-0.070314239
-0.012101593
-0.087160699
-0.014101517
-0.10693086
-0.016437425
-0.13005662
-0.01916612
-0.15702047
-0.022355935
-0.18837999
-0.02608714
-0.22494474
-0.030328208
-0.034712793
-0.26835827
0.00062741851
0.011681747
-0.012309165
0.00067248808
0.024653166
-0.024698236
-0.00015828172
0.03251572
-0.03168495
-0.0014776094
0.039189099
-0.037869771
-0.0031419777
0.046567734
-0.044903366
-0.005175876
0.055174891
-0.053140993
-0.0076553022
0.065262893
-0.062783467
-0.010678744
0.077070817
-0.074047375
-0.014368131
0.090866904
-0.087177518
-0.018872111
0.10696158
-0.1024576
-0.024347046
0.12569771
-0.12022277
-0.031013265
0.14754868
-0.14088246
-0.039152755
0.17310036
-0.16496087
-0.049126364
0.20314331
-0.1931697
-0.061357843
0.23875196
-0.22652048
0.28120272
-0.26621087
-0.076349691
-0.0026258929
0.00044348334
-0.0074241768
0.00072936675
-0.013247687
0.0008962017
-0.020020365
0.0010720316
-0.027901079
0.0012765132
-0.037088168
0.0015154257
-0.047805922
0.0017934669
-0.060310108
0.0021146583
-0.074893518
0.0024818171
-0.091890725
0.0028956903
-0.11168204
0.003353887
-0.13469791
0.0038497548
-0.16142496
0.0043711124
-0.19240672
0.0048946244
-0.22810799
0.0053730598
0.0057766246
-0.26859741
-0.002830123
0.0032736063
-0.0078701331
0.0057693769
-0.01393856
0.0069646288
-0.020959594
0.0080930649
-0.029092115
0.009409035
-0.038530977
0.010954288
-0.049493301
0.01275579
-0.062223832
0.01484519
-0.077000428
0.017258413
-0.094139224
0.020034486
-0.11399961
0.02321427
-0.13698944
0.026839593
-0.16357213
0.030953795
-0.19424825
0.03557075
-0.2294945
0.040619303
0.045805308
-0.26952318
-0.0028409132
0.0061145195
-0.0070826873
0.010011151
-0.012265012
0.012146954
-0.018476916
0.014304969
-0.025884325
0.016816444
-0.034686749
0.019756712
-0.045114512
0.023183553
-0.057429352
0.02716003
-0.071926134
0.031755195
-0.088935551
0.037043903
-0.10882824
0.043106959
-0.13202024
0.050031594
-0.15897829
0.057911839
-0.19025103
0.066843493
-0.22661014
0.076978419
0.088610164
-0.269415
-0.0024188248
0.0085333442
-0.0063683366
0.013960663
-0.011250008
0.017028625
-0.017104265
0.020159226
-0.024085052
0.023797231
-0.032380004
0.028051665
-0.042204377
0.033007925
-0.053801969
0.038757623
-0.067446684
0.04539991
-0.083444679
0.053041898
-0.10213799
0.061800273
-0.12391201
0.071805614
-0.14921307
0.083212893
-0.17858223
0.096212661
-0.21262931
0.1110255
0.12768189
-0.25170104
-0.0021576083
0.010690953
-0.0058410686
0.017644123
-0.010410116
0.021597671
-0.015874838
0.025623949
-0.022377341
0.030299734
-0.030095243
0.035769567
-0.039233745
0.042146427
-0.050027768
0.049551646
-0.062745423
0.058117564
-0.077693131
0.067989606
-0.095224119
0.079331261
-0.11575233
0.092333823
-0.13977011
0.10723067
-0.16785658
0.12429914
-0.20085484
0.14402375
0.16740588
-0.24057882
-0.0017913998
0.012482352
-0.0050806079
0.020933331
-0.009221434
0.025738498
-0.014196251
0.030598766
-0.020131045
0.036234528
-0.027186622
0.042825144
-0.035550737
0.050510542
-0.045439882
0.059440791
-0.057104637
0.069782319
-0.07083706
0.081722029
-0.08698011
0.095474311
-0.10594043
0.11129414
-0.12820934
0.12949958
-0.15438212
0.15047192
-0.18502357
0.1746652
0.20245422
-0.22007191
-0.0018739219
0.014356274
-0.0042864137
0.023345823
-0.0073132905
0.028765374
-0.011071181
0.034356656
-0.015581103
0.040744449
-0.020958512
0.048202554
-0.027340193
0.056892223
-0.034877724
0.066978322
-0.043730401
0.078634996
-0.054054231
0.092045859
-0.065999971
0.10742005
-0.079707848
0.12500202
-0.095303874
0.1450956
-0.11293205
0.1681001
-0.13277153
0.19450467
0.22521857
-0.15553588
-0.0019932114
0.002000465
-7.2535839e-06
-0.0068386236
0.0041455056
0.00069990654
-0.0093801216
0.0058509115
-0.0033094135
-0.015370294
0.0073856777
-0.0013955058
-0.020903126
0.0091893556
-0.0036565233
-0.026236901
0.011391706
-0.0060579304
-0.031347567
0.01369173
-0.0085810634
-0.034187202
0.01405177
-0.011212135
-0.028218085
0.0080060983
-0.013975216
-0.010752607
-0.00034655839
-0.01711892
0.028885218
-0.023729451
-0.015908374
0.084575558
-0.041736354
-0.013953986
0.13451563
-0.068200419
0.018260343
0.17689609
-0.098294575
0.055914122
0.21797405
-0.13247968
0.091401716
-0.17103024
0.13030468
0.25869962
-0.0012536312
0.0032540962
-0.0033518678
0.0062437422
-0.0057168189
0.0082158626
-0.0084711082
0.010139967
-0.011554365
0.012272612
-0.011807687
0.011645028
-0.0051115714
0.0069956135
0.011802271
-0.002862072
0.040339027
-0.020530657
0.079761225
-0.039768757
0.11604897
-0.060017195
0.15717822
-0.082865608
0.19804423
-0.10906642
0.23922612
-0.13947647
0.28159818
-0.17485175
-0.21612496
0.32669289
-0.00014549331
0.0033995896
-0.001003766
0.007102015
-0.002070314
0.0092824105
-0.00072146037
0.0087911134
0.0066607444
0.0048904077
0.021525076
-0.0032193032
0.044010484
-0.015489795
0.071867846
-0.030719434
0.098799022
-0.047461834
0.12518615
-0.066155888
0.15226557
-0.087096614
0.18002822
-0.11062825
0.20833218
-0.13737039
0.23711098
-0.16825527
0.26678023
-0.20452099
-0.24775816
0.29841344
-0.0006389809
0.0040385705
-0.00088179506
0.0073448291
0.0041442011
0.0042564143
0.015463396
-0.0025280817
0.033077681
-0.012723877
0.054603615
-0.024745237
0.076699686
-0.037585866
0.097682977
-0.051702725
0.11770286
-0.067481717
0.13676634
-0.085219368
0.15498991
-0.10532019
0.17268487
-0.12832321
0.19028015
-0.15496567
0.20825672
-0.18623184
0.22714447
-0.22340874
-0.2680343
0.24742061
0.00019777895
0.0038407915
0.007455255
8.7353045e-05
0.020792821
-0.0090811515
0.037516378
-0.019251639
0.054220557
-0.029428057
0.069639122
-0.040163802
0.083929674
-0.051876418
0.09711467
-0.06488772
0.1092219
-0.079588947
0.12043649
-0.096433958
0.13107116
-0.11595486
0.141536
-0.13878805
0.15226585
-0.16569552
0.16365002
-0.19761601
0.17598924
-0.23574796
-0.28147369
0.18942863
0.0045874384
-0.00074664687
0.016345821
-0.01167103
0.028584157
-0.021319487
0.039701272
-0.030368754
0.049750227
-0.039477011
0.058745578
-0.049159154
0.066766559
-0.059897399
0.074013367
-0.072134528
0.080742445
-0.086318026
0.087226719
-0.10291823
0.093710506
-0.12243865
0.10039455
-0.14547209
0.1074113
-0.17271227
0.11482431
-0.20502902
0.12263049
-0.24355414
-0.28952243
0.13067922
0.0061110608
-0.0068577077
0.01327386
-0.018833829
0.020246781
-0.028292409
0.026359065
-0.036481037
0.031571025
-0.044688971
0.036117115
-0.053705244
0.040261925
-0.064042209
0.044228649
-0.076101252
0.048170334
-0.090259711
0.052163804
-0.1069117
0.056207629
-0.12648247
0.060256132
-0.14952059
0.064217898
-0.17667404
0.067974486
-0.2087856
0.071392074
-0.24697173
-0.2925017
0.074371341
0.0031715271
-0.010029235
0.0073108066
-0.022973108
0.010711859
-0.031693461
0.013219646
-0.038988824
0.015186279
-0.046655605
0.016912212
-0.055431177
0.018560415
-0.065690412
0.020186254
-0.077727092
0.021770112
-0.091843569
0.023238209
-0.1083798
0.024477084
-0.12772135
0.025350032
-0.15039354
0.025669745
-0.17699375
0.025223014
-0.20833887
0.023755075
-0.24550379
-0.28961335
0.020866724
0.0016525118
0.0033325694
0.0041548282
0.0043551031
0.0042672324
0.0040109465
0.0035834284
0.0029271529
0.0019504884
0.00053226878
-0.0014913703
-0.0043362259
-0.0082296153
-0.013425177
-0.020177005
-0.028587635
-0.00013351855
-0.012175647
-0.0015544005
-0.023277354
-0.0038215103
-0.02941784
-0.0065618283
-0.035129453
-0.0097999656
-0.041665228
-0.013621747
-0.049319211
-0.018126028
-0.058279186
-0.0234221
-0.068751303
-0.029635028
-0.08096459
-0.036912855
-0.095179771
-0.045440015
-0.11169561
-0.055460208
-0.13086227
-0.067307518
-0.15311356
-0.08142405
-0.17905317
-0.098345848
-0.20959868
-0.24606381
-0.1184929
0.00038924709
-0.012564894
-0.0019569768
-0.02093113
-0.0053778097
-0.025997007
-0.0093232062
-0.031184056
-0.013819211
-0.037169223
-0.018911147
-0.044227275
-0.02464626
-0.052544074
-0.031075527
-0.062322036
-0.038267386
-0.073772731
-0.046313876
-0.087133281
-0.055338192
-0.1026713
-0.065503576
-0.12069688
-0.077024796
-0.14159234
-0.090206922
-0.16587105
-0.10541453
-0.19439108
-0.22863998
-0.12283836
0.0024361608
-0.0046396776
0.0022035168
0.0052688378
-0.011083035
0.0082503575
0.0082608157
-0.015340722
0.012348744
0.0113965
-0.018421985
0.0152863
0.014908188
-0.02101867
0.017506982
0.019061783
-0.023283515
0.019129919
0.024143618
-0.025038811
0.019956976
0.030450865
-0.025858276
0.019551029
0.038450024
-0.025037421
0.017038263
0.047358699
-0.021559128
0.012650452
0.079999252
-0.0058775972
-0.026762956
0.11362143
0.028778634
-0.062400815
0.14419931
0.069620395
-0.10019827
0.17099118
0.11435109
-0.14114297
0.19501141
0.16102316
-0.18504339
0.20834377
-0.23157723
0.21824487
0.0022730062
-0.0069126838
0.0048271985
-0.013637227
0.006896997
-0.01741052
0.0087082631
-0.020233251
0.010593641
-0.022904048
0.012788746
-0.02547862
0.015470788
-0.027720853
0.018774265
-0.029161752
0.02278398
-0.029047136
0.027576082
-0.02635123
0.042388129
-0.020689645
0.066644789
0.0045219746
0.096169106
0.040096078
0.12814787
0.082372333
0.16275076
0.12642027
0.16991169
0.20118284
0.001166767
-0.0080794508
0.0017901703
-0.01426063
0.0017088493
-0.017329199
0.0012340834
-0.019758485
0.00049318855
-0.022163153
-0.00047236592
-0.024513066
-0.0016396172
-0.026553602
-0.0029802745
-0.027821095
-0.0044721478
-0.027555262
-0.0062237433
-0.024599634
-0.0096378848
-0.017275503
-0.0016003612
-0.0035155488
0.016830341
0.021665375
0.042767876
0.056434798
0.073370015
0.095818128
0.1363956
0.10688611
-0.00045390933
-0.0076255415
-0.0020788672
-0.012635672
-0.0045664387
-0.014841627
-0.0076692761
-0.016655647
-0.011386227
-0.018446202
-0.015779534
-0.020119759
-0.020865761
-0.021467375
-0.026564334
-0.022122522
-0.032625538
-0.021494058
-0.038568136
-0.018657036
-0.043413867
-0.012429773
-0.045702173
-0.0012272418
-0.041091246
0.017054448
-0.02818115
0.043524703
-0.008767615
0.076404593
0.11308908
0.014538906
-0.0017676075
-0.0058579339
-0.0048019798
-0.0096012999
-0.0085369941
-0.011106613
-0.012914788
-0.012277854
-0.017983199
-0.01337779
-0.023810778
-0.014292179
-0.030500023
-0.01477813
-0.038024395
-0.01459815
-0.046157439
-0.013361015
-0.054400313
-0.010414162
-0.0620373
-0.004792785
-0.067974513
0.004709972
-0.070738369
0.019818303
-0.068901003
0.041687338
-0.062853306
0.070356896
0.10517832
-0.054942552
-0.0020165722
-0.0038413617
-0.0052362513
-0.0063816208
-0.0091514365
-0.0071914276
-0.013752696
-0.0076765939
-0.019061283
-0.0080692043
-0.025070902
-0.0082825601
-0.031729877
-0.0081191542
-0.039027753
-0.0073002739
-0.046915883
-0.0054728843
-0.055142115
-0.0021879294
-0.06330347
0.0033685694
-0.070920302
0.012326805
-0.077055772
0.025953773
-0.08093249
0.045564055
-0.082572524
0.07199693
0.10564452
-0.083038722
-0.0016498037
-0.0021915579
-0.0044837284
-0.0035476961
-0.0078193575
-0.0038557984
-0.011627312
-0.0038686391
-0.015968188
-0.0037283281
-0.020887952
-0.0033627961
-0.026339698
-0.0026674084
-0.032278527
-0.0013614443
-0.038663286
0.0009118745
-0.045447186
0.0045959712
-0.052404595
0.010325978
-0.059047801
0.018970011
-0.064695525
0.031601498
-0.06862876
0.04949729
-0.070611399
0.073979569
0.10601612
-0.070982994
-0.00096159552
-0.0012299624
-0.0027758373
-0.0017334543
-0.0050097136
-0.001621922
-0.0075914886
-0.001286864
-0.010541918
-0.00077789868
-0.013880961
-2.375251e-05
-0.017667739
0.0011193694
-0.021890268
0.0028610844
-0.026452186
0.005473793
-0.031180647
0.0093244327
-0.035767744
0.014913075
-0.039696584
0.022898851
-0.042204907
0.034109821
-0.042423031
0.049715415
-0.039034904
0.070591441
0.097304837
-0.030323624
-0.00015568191
-0.0010742805
-0.00062372073
-0.0012654154
-0.0014728038
-0.00077283891
-0.0027396542
-2.0013566e-05
-0.0044471847
0.00092963196
-0.0065498323
0.0020788952
-0.0089814334
0.0035509705
-0.011653346
0.0055329973
-0.014426229
0.0082466757
-0.017064622
0.011962826
-0.019166597
0.01701505
-0.020062667
0.023794921
-0.018673334
0.032720488
-0.013382598
0.044424679
-0.0017408083
0.058949652
0.075571466
0.019992562
0.0002159497
-0.0012902302
0.00075078537
-0.0018002511
0.0010691332
-0.0010911867
0.00095268684
9.643288e-05
0.00032147773
0.0015608411
-0.0008309269
0.0032312999
-0.0023954202
0.0051154639
-0.0041770796
0.0073146568
-0.0059165334
0.0099861296
-0.0072564622
0.013302755
-0.0076581494
0.017416737
-0.0062675816
0.022404353
-0.001698934
0.02815184
0.0085531859
0.034172559
0.027248345
0.040254492
0.038980062
0.06383975
9.5366729e-05
-0.0013855969
0.00034919842
-0.0020540827
0.00030894572
-0.001050934
-1.601833e-05
0.00042139699
-0.00078709561
0.0023319185
-0.0019497392
0.0043939436
-0.003422098
0.0065878228
-0.0050637011
0.0089562599
-0.0066583663
0.011580795
-0.0078682992
0.014512688
-0.0082088628
0.017757301
-0.0069890938
0.021184584
-0.002966639
0.024129386
0.012779414
0.018426506
0.049328214
0.003705692
-0.023069886
0.11137816
-0.0013799844
-5.6124235e-06
-0.0026745092
-0.00075955786
-0.0069018348
0.0031763916
-0.0078428658
0.001362428
-0.0090519437
0.0035409964
-0.010526561
0.0058685612
-0.012204336
0.0082655979
-0.013991654
0.010743577
-0.015697921
0.013287063
-0.017029385
0.015844151
-0.016064546
0.016792462
-0.015855147
0.020975186
0.0068792811
0.0013949579
0.054623571
-0.029317784
0.11872365
-0.060394391
-0.093783273
0.18943704
0.00035686218
-0.00017926407
0.00045895137
0.00050564405
0.00043335636
0.00016278025
-0.00041540379
-0.0014507827
-0.0031438916
-0.005756897
-0.0096209629
-0.015145133
-0.022826279
-0.033257311
-0.047177804
-0.065731406
0.00031628069
-0.00015718339
0.00039851001
0.00042203551
0.00032823099
4.2169535e-05
-0.0005378199
-0.0015493681
-0.0031783569
-0.0056673204
-0.0093237211
-0.014529972
-0.021757717
-0.031576347
-0.044744316
-0.062357699
-7.2517289e-05
1.2865982e-05
-0.0002055391
-0.00023861684
-0.00035414373
-0.00054351292
-0.00085897836
-0.001327536
-0.002015689
-0.0032904573
-0.0024063697
0.0046148295
0.024270131
0.050866468
0.081873794
0.1183952
0.00022930383
-5.5495981e-05
0.00045562721
0.00076138217
0.0011856154
0.0017887459
0.0027007537
0.0041069635
0.0070758077
0.01514151
0.028439836
0.04278581
0.058402171
0.075893185
0.095595432
0.11711581
0.36116096
-0.72195156
0.3607906
1.3462667
-1.3886375
0.042370769
0.1770462
-0.47016809
0.29312189
1.3462667
-0.24029729
0.17126861
0.069028681
-1.4277207
0.85073035
0.57699034
-0.17995348
0.65424339
-0.47428991
1.1663572
0.43938086
-1.6057381
1.2116166
0.30150973
-1.5131263
0.19485858
-0.26058999
-0.27640861
0.21405091
0.61806907
1.02171
-1.6397791
-0.55365304
-0.56567874
1.1193318
-1.1878111
0.50549954
0.68231157
-0.24136895
0.60531626
-0.36394731
0.68546904
-0.15714549
-0.52832355
1.1245966
-1.1390518
0.014455154
0.088853305
0.28160341
-0.37045671
0.24325891
-0.30098195
0.057723043
0.94009666
-0.31091844
-0.62917823
-0.20091893
-0.03937836
-1.1573757
0.6037227
-1.4217787
1.4086524
0.013126314
0.10635715
1.2799411
-1.3862983
0.0071089101
-0.84666975
0.83956084
0.76683717
0.27550615
-1.0423433
-0.62888667
-0.98241762
1.6113043
0.97000103
-0.30783927
-0.66216177
0.25083028
1.0285986
-1.2794288
-0.36813873
0.85467631
-0.48653758
1.1703328
-0.40349562
0.28814305
-0.21058515
-0.077557901
-0.012650129
1.3012614
-1.2886113
1.0085207
-0.013746579
-0.9947741
0.15402529
-0.91484648
0.76082119
1.4094521
-1.1844107
-0.2250414
1.0602065
-0.97004267
-0.090163804
-0.71959931
0.8736246
0.83453415
-0.50534604
-0.32918811
-1.309956
0.24498313
1.0649729
0.11879294
-0.072506133
-0.046286809
1.1575816
-0.39906063
-0.75852097
1.1663572
-0.38486815
0.84423727
-0.45936911
1.2116166
-0.11898928
0.55412999
-0.43514071
-0.28683277
1.0690384
-0.78220565
-1.4678117
0.62415303
0.84365864
-1.1663572
1.7539108
-0.58755359
-1.2116166
1.7644845
-0.55286794
0.54139412
-0.11611448
-0.42527964
-0.57679473
0.26585247
0.31094226
0.2102105
-0.40466782
0.19445732
0.13030727
0.18042368
-0.31073096
-0.5178958
0.89146921
-0.37357341
0.13279213
0.8422306
-0.97502273
0.13942917
-0.28977264
0.15034346
-0.83051864
0.53642272
0.29409593
-1.5782213
0.1722657
1.4059556
1.3605438
-0.4486324
-0.9119114
1.2986808
0.061863029
0.83766198
0.61113436
-1.4487963
0.7800271
0.6517631
-1.4317902
-0.34188872
0.75455422
-0.4126655
-0.024180917
-0.57636102
0.60054194
-1.0008185
1.0529188
-0.05210022
0.59426912
-0.98574988
0.39148076
0.71603026
0.36027532
-1.0763056
-0.17144352
0.95501848
-0.78357496
-1.4756165
1.1887838
-0.23426582
0.78401163
-0.54974581
0.40940293
0.27606611
-0.5411743
0.26431189
0.27686241
0.78385192
1.0220961
-1.8059481
1.3933415
-1.2950341
-0.098307408
0.078221262
-0.62641886
0.94725254
-0.32083368
0.86625564
-0.50500941
-0.36124623
1.577875
-1.4106658
-0.16720919
1.1660961
-1.0452083
-0.12088779
0.37182391
-0.58354779
0.21172387
-0.38396949
0.14950475
0.23446473
0.18317848
-0.55131721
-1.9206016
1.3676717
0.5529299
0.38043353
0.74416312
0.39285203
-1.4076154
1.0147634
-0.67849699
1.1349659
-0.45646895
-0.17066099
-0.95375082
1.1244118
0.45099805
-0.22427116
-0.22672689
0.074461709
1.3188798
0.9024124
-0.053604939
-0.84880746
-1.0871494
0.43170152
0.65544791
0.073355542
0.54429844
-0.61765399
0.45214854
0.38238561
0.65491779
0.37779408
-1.0327119
0.67694193
-0.26366275
-0.41327918
-0.67364352
-0.77116829
0.44568981
-0.26864361
-0.0055622508
-0.32901519
0.33457744
-0.44800529
0.8521235
-0.4041182
-0.50816886
1.2920208
-0.91642722
1.216694
-0.30026677
-0.89706478
-0.19008466
0.065883837
0.99432264
1.3277083
-1.2367446
-0.090963691
-0.77265587
-0.41515524
-1.7182719
1.1430186
0.57525321
-1.9195002
1.3940127
0.52548751
0.87315377
-0.38124288
-0.4919109
0.14988009
-0.53474825
0.28647932
-0.80437513
-0.005161932
0.64206028
-0.63689835
0.46465385
-0.63609737
0.0074617191
0.11133122
0.23732853
0.70276813
1.0523787
0.52549626
0.57501584
-0.58017777
0.50092437
0.8509685
-1.3518929
1.6234308
-0.96947311
-0.65395766
-0.325205
0.71209321
-0.38688822
-0.016401035
0.22661153
0.29179234
-0.16148507
-0.33052047
0.28783105
0.042689422
1.7103602
-1.7230103
0.16646528
0.074494037
-0.24095932
0.23872055
-0.2936631
-1.139315
1.2046227
-0.065307641
-0.37945532
0.25561182
0.1238435
0.82251911
-0.62536964
-0.19714947
-0.83857543
0.77429128
0.064284148
0.28728018
-0.147851
-0.36091683
0.55396907
-0.19305223
-0.84862817
1.4366263
-0.58799813
0.46777983
0.68980178
1.0338302
-0.43956111
0.50859147
0.36456231
-0.52687058
0.40788131
0.99965328
-1.1703143
-0.43150209
0.42593984
0.91327801
0.41443032
0.78655403
-1.6211211
0.83456707
0.49302486
0.30002528
-0.12875667
-0.55502464
0.9161856
1.2642876
-1.2642876
-0.35491241
-0.16197156
1.064384
0.048547537
-0.6749664
-0.06295291
1.0329165
-0.96996359
-0.61189741
1.4495594
-0.63803244
1.4180595
1.3506466
-0.78808008
-0.56256647
0.63198983
0.45366328
-0.77886828
1.0045735
-1.27289
0.26831647
0.88374971
-0.8766408
0.15742463
-0.091504699
-1.0189322
1.1104369
1.5578501
0.271725
-1.8295751
-0.58769303
1.0886174
-0.60491437
0.74360467
-0.53780244
0.72723107
-0.067970703
0.72288849
0.017365104
0.5404382
-0.55780331
-0.86818764
-0.05537244
0.92356008
0.52607385
-1.374702
-1.4463067
1.3833538
0.90863556
0.39645106
-1.3050866
-0.062179637
-0.59239302
0.65457265
-0.5730184
1.1910875
-1.0263283
0.327726
0.69860228
0.55967637
-0.48632083
0.34392473
-0.70471433
0.3607896
0.88023298
-1.0567846
0.17655161
0.90910701
0.44153954
-1.51246
0.79286074
0.063315569
1.1027805
1.0504124
0.78575998
-1.4146466
-0.17339994
0.54522386
-1.0650196
0.83267448
0.23234511
-1.1206749
1.0584953
0.64735898
0.7298601
-1.3772191
0.82423525
-0.040223618
-0.25146973
0.59539445
-0.32560663
-0.73941296
-0.1850193
-0.32797811
0.51299741
0.42348923
-0.86171072
0.43822149
0.0013674361
0.66154898
-0.66291641
-1.0420998
0.23299615
0.80910366
0.19055641
1.242822
-1.4333784
-1.0655044
-0.53963317
1.6051376
0.23324097
0.73676007
-0.19464069
0.24299294
-0.048352241
-0.97154839
-0.16750341
1.1989152
-1.0925581
1.053221
-0.17298806
-0.47160827
-0.36210523
0.83371349
-0.68009369
-0.31175496
0.99184865
-0.11013299
0.46885075
-0.35871776
-0.0669059
0.89958038
-0.28639522
-0.55043465
0.83682987
0.59476855
0.0026648812
-0.59743343
-0.79773822
0.74172352
0.056014702
-0.99401964
0.55804437
0.43597527
-0.89505167
0.56944503
0.58744236
-1.1531211
1.5578501
0.17681381
0.38135138
-0.55816519
1.5257991
-1.1339322
-0.39186682
-1.1348417
1.2780245
-0.56199424
-0.87411494
-0.26520007
0.037706182
-0.83415027
0.79644409
-1.1095288
1.3000852
0.55772485
-1.1199288
0.56220399
0.5774345
0.78484467
-1.3622792
-0.68125764
0.53214355
-0.71716285
0.096875624
-0.45779246
-1.1960981
-0.52217371
1.0594936
-0.10447513
1.0819925
-0.90538
-0.17661251
0.91202836
0.7426012
-1.6546296
0.17500478
-0.68035082
-0.36857132
0.12153663
0.24703468
-0.40199594
0.57880975
-0.52367642
1.4357048
-1.3895189
1.4215391
-0.032020195
0.22559247
0.3283766
-0.25414606
0.059505362
0.38237313
-0.38426967
0.0018965339
0.27119967
-1.4576047
1.1864051
-0.46182328
-0.013990397
0.47581367
-0.1606606
-0.70005481
0.86071541
0.56721989
0.25701536
0.24102421
1.1306883
-1.3717126
-0.62239565
0.29441755
1.0871849
0.22311254
-1.3102974
0.022208193
1.2206138
0.65308247
0.51725031
1.1499136
-0.32673443
-0.82317917
-0.29520806
-0.24596623
-1.1813579
0.37342376
0.80793412
0.11397712
-0.57945627
0.46547915
-0.81805223
0.8285738
-0.010521566
-0.17832057
1.1868413
1.1633866
-1.7313439
0.56795736
0.78189979
0.18487144
-0.96677124
-0.46082045
-0.030628041
0.49144849
-0.14316637
-0.35134887
0.49451523
0.443997
0.17203165
1.3537674
-0.48040567
1.0381305
0.40340155
-0.16014265
0.80583608
0.1980506
-1.0038867
0.4629619
-0.44559679
-0.7431554
0.45676018
1.5995306
-0.1470303
1.3418611
-1.1948308
0.12728901
-1.3116997
-1.4028099
0.73981122
0.66299864
1.5306474
-0.42954317
-0.84334681
-1.1060887
-0.20386731
-0.87670654
1.2369819
-0.66666172
-0.76105898
1.2719069
-1.0210766
-1.1605876
1.1092219
0.051365726
-0.86273393
0.87718909
-0.40611808
-0.39162014
0.098541944
0.98345056
-0.015853489
-0.82272194
-0.73354461
-0.29278367
-0.19909576
1.3956315
-1.1965357
-0.47446762
0.58844474
-0.88434362
0.9283251
-0.043981476
-0.036016897
-1.278408
1.3144249
0.84091446
-0.29920673
-0.54170773
0.63168552
-0.52440774
-0.10727778
1.1660552
-1.2605941
0.094538864
-0.041598061
1.0085007
-0.96690269
0.74662451
-0.60791524
-0.13870927
-0.14223558
0.27514111
-0.13290553
-0.02341559
-0.17750334
0.013579242
-1.0790837
-0.076900662
-0.92391787
-0.80190438
1.357967
-1.3939839
-0.57355292
-0.25696573
-0.057727412
0.072478964
-0.014751552
0.74252054
-0.57962447
-0.16289606
0.13321241
-0.85926345
0.72605104
0.010433391
0.37193974
-0.41460526