/*--------------------------------*- C++ -*----------------------------------*\
| =========                 |                                                 |
| \\      /  F ield         | foam-extend: Open Source CFD                    |
|  \\    /   O peration     | Version:     4.1                                |
|   \\  /    A nd           | Web:         http://www.foam-extend.org         |
|    \\/     M anipulation  |                                                 |
\*---------------------------------------------------------------------------*/
FoamFile
{
    version     2.0;
    format      ascii;
    class       volVectorField;
    location    "0.3";
    object      U;
}
// * * * * * * * * * * * * * * * * * * * * * * * * * * * * * * * * * * * * * //

dimensions      [0 1 -1 0 0 0 0];

internalField   nonuniform List<vector> 
4242
(
(106.9319 101.79546 3.40159e-15)
(161.10926 143.70825 1.0341055e-17)
(170.18214 145.52928 -1.7490827e-15)
(169.94818 142.82859 1.4022689e-15)
(169.38379 139.10336 1.8804584e-17)
(168.66575 134.93398 8.0488378e-18)
(167.84798 130.24277 0)
(166.92124 125.0278 4.6810699e-16)
(165.88209 119.28592 -7.5610922e-16)
(164.73982 113.02167 2.9568339e-16)
(163.52013 106.26738 -1.9013646e-16)
(162.26666 99.082425 1.6075409e-16)
(161.04693 91.55234 1.8657683e-17)
(160.00705 83.727009 -2.2468776e-17)
(159.39103 75.711248 -4.1031791e-17)
(159.03705 68.01781 0)
(116.79017 85.447127 0)
(186.31166 128.36807 -2.1953531e-17)
(197.86588 129.87374 2.0854813e-15)
(196.94712 127.62371 -1.7058425e-15)
(195.33009 124.4223 -3.0044621e-17)
(193.51389 120.86891 1.0050448e-15)
(191.56494 116.86583 -5.1265064e-17)
(189.47958 112.41024 -1.251828e-15)
(187.2732 107.49972 1.0180977e-16)
(184.96595 102.14264 3.8551068e-16)
(182.5871 96.367896 0)
(180.17616 90.226369 -3.0202254e-17)
(177.787 83.790129 -3.0669896e-17)
(175.51804 77.113424 -1.7789339e-16)
(173.5061 70.200087 2.4281627e-16)
(171.64125 63.467179 3.2768167e-17)
(122.83568 66.402881 -3.9086863e-17)
(204.81048 106.77589 -6.9128557e-15)
(221.52789 108.65176 2.7428168e-15)
(220.76398 107.47229 -1.8630713e-17)
(218.67075 105.17231 -1.67299e-15)
(216.235 102.56931 1.3747043e-15)
(213.55765 99.592699 -1.8680314e-17)
(210.63795 96.247783 2.9350474e-17)
(207.49784 92.517209 -1.3288169e-17)
(204.16864 88.394182 -3.5433113e-17)
(200.69582 83.886524 3.6836296e-16)
(197.13941 79.019765 -2.7699707e-16)
(193.57187 73.841982 -4.4038109e-16)
(190.08569 68.409435 3.8861204e-16)
(186.74314 62.80762 -4.838141e-17)
(183.51828 57.205256 -1.3962852e-16)
(125.86195 47.516486 -1.3391056e-17)
(217.63251 81.13386 -8.2950156e-18)
(240.50307 83.030882 -1.5367888e-15)
(241.24033 82.987755 1.3403484e-15)
(238.83351 81.695855 -1.7695312e-17)
(235.80268 80.104795 8.8760671e-16)
(232.42051 78.234411 -6.8279522e-16)
(228.75712 76.127685 -1.096868e-15)
(224.80954 73.735302 6.4815564e-17)
(220.60814 71.035859 1.3962911e-15)
(216.20348 68.017012 -5.4519905e-16)
(211.66609 64.676917 0)
(207.08386 61.03032 3.3025533e-17)
(202.55613 57.102741 -2.560318e-16)
(198.10313 53.035847 1.2908573e-16)
(193.61147 48.943342 -2.6904829e-16)
(115.75469 26.722795 1.4120659e-17)
(213.42595 50.889094 -2.177834e-15)
(244.17076 52.559783 1.6316942e-15)
(249.27639 53.811752 -9.5928975e-18)
(248.04982 53.959737 2.4063876e-17)
(245.28584 53.651921 -6.8712739e-18)
(241.97647 53.116815 -7.2918095e-16)
(238.33023 52.448483 1.5071497e-17)
(234.36597 51.606538 4.5508029e-16)
(230.10499 50.558781 -3.6007522e-16)
(225.5861 49.268291 3.0785275e-16)
(220.86748 47.698852 0)
(216.02548 45.823806 1.9332864e-16)
(211.15431 43.61122 -1.4516703e-16)
(206.28253 41.076452 4.7261781e-17)
(201.21567 38.204777 0)
(89.775573 8.6058344 -2.1202145e-15)
(187.22047 21.622419 5.7898903e-16)
(228.59114 22.595626 7.7170521e-16)
(242.42353 24.664651 -5.9061703e-16)
(245.5544 26.428906 2.2578237e-19)
(244.7438 27.621267 2.0340919e-16)
(242.42765 28.478834 1.6553977e-16)
(239.45674 29.18272 -6.3853841e-18)
(236.09532 29.757021 -6.0101626e-18)
(232.42521 30.187528 -2.5428143e-16)
(228.48166 30.434545 2.7447136e-16)
(224.29942 30.441667 -8.9046223e-18)
(219.92395 30.154631 -2.8406154e-17)
(215.41822 29.510307 -6.9725186e-17)
(210.80003 28.499249 -5.0421595e-20)
(205.94517 27.065357 3.5941949e-17)
(39.316762 -1.3775835 -1.2165062e-15)
(132.69144 1.1082222 -5.7396303e-16)
(185.76362 -0.31170612 1.0706168e-15)
(213.28607 0.77663406 -5.1325872e-16)
(226.36314 3.179345 2.0734227e-16)
(231.74942 5.6519913 2.0090386e-20)
(233.13311 7.8664399 2.647773e-16)
(232.47027 9.8265342 -1.209036e-16)
(230.74388 11.55424 -1.4812205e-17)
(228.41859 13.068238 6.7353739e-17)
(225.70012 14.366186 -1.0853682e-16)
(222.67319 15.419099 9.3309039e-17)
(219.37318 16.181639 -2.5192969e-17)
(215.82445 16.591704 -1.2259343e-16)
(212.01503 16.631426 5.0318306e-17)
(207.83122 16.141845 7.1964735e-17)
(-33.776792 5.1576022 -3.0166434e-17)
(48.519237 -3.2129017 3.0410673e-15)
(116.00882 -9.4880571 -1.5388839e-15)
(157.65578 -11.82647 9.4035965e-16)
(184.64265 -11.443684 -7.0176085e-16)
(201.67345 -9.582717 0)
(211.79034 -7.082222 4.28485e-16)
(217.26433 -4.4183778 -3.5069174e-16)
(219.72567 -1.8761966 -8.1441883e-18)
(220.29059 0.39486842 0)
(219.6737 2.3293564 -3.7526638e-17)
(218.29721 3.9004623 2.0492929e-17)
(216.37907 5.0964589 -1.4916788e-16)
(214.01047 5.9009155 3.0097915e-16)
(211.20052 6.3494942 -2.2908722e-16)
(207.87094 6.4331742 -6.9308787e-17)
(-39.234464 12.276891 1.92287e-17)
(-56.36456 17.808764 -1.8322411e-17)
(-0.86718399 5.924865 0)
(69.873577 -7.5936888 3.2176241e-17)
(115.93293 -13.522213 1.2018391e-17)
(148.11316 -15.551394 5.4930614e-16)
(171.25877 -15.428168 -4.3252868e-16)
(187.59591 -14.002777 0)
(198.61026 -11.839778 8.3283657e-19)
(205.6181 -9.4019808 -2.6216408e-17)
(209.67798 -7.0943944 2.2607108e-17)
(211.62613 -5.1742094 1.8048589e-17)
(212.04457 -3.7713986 3.094809e-17)
(211.3026 -2.907707 2.2208635e-16)
(209.61843 -2.4972936 -2.8925023e-16)
(207.12076 -2.2884602 1.7066631e-16)
(-24.525231 10.488034 0)
(-43.911433 19.645377 7.4516492e-15)
(-53.112341 25.093738 -1.3730428e-14)
(-54.505026 26.629512 6.0232281e-15)
(6.2126059 7.970678 -2.5302152e-17)
(67.477777 -8.5456764 -5.6461464e-17)
(108.01958 -15.31435 1.0656523e-15)
(138.11566 -17.545708 -7.2742108e-16)
(160.93562 -17.451347 -4.8380204e-16)
(178.09273 -16.227 4.2830174e-16)
(190.5404 -14.600795 0)
(199.08608 -13.052567 -3.1388528e-16)
(204.30752 -11.93024 1.786118e-16)
(206.75914 -11.332367 0)
(206.97838 -11.158857 0)
(205.52766 -10.955205 0)
(-7.5946555 3.2265944 2.0540682e-14)
(-25.44272 15.853716 -8.7664043e-15)
(-40.874817 27.031848 0)
(-47.858913 31.801317 -4.4488906e-17)
(-47.131121 33.150107 -4.5999966e-15)
(-40.766585 32.384853 3.5682915e-15)
(3.7420142 16.085687 1.8737752e-15)
(56.352372 -1.5092334 2.6155966e-17)
(97.698909 -10.753077 -7.9303074e-16)
(130.20006 -15.08065 3.1948596e-17)
(156.19707 -17.465033 0)
(175.8276 -19.065648 -6.0696913e-16)
(189.2686 -20.341114 7.5404245e-17)
(197.34717 -21.313439 4.1422406e-16)
(201.02033 -21.995349 0)
(201.81252 -21.262393 6.8372136e-17)
(3.1228137 -2.5726296 1.0696187e-17)
(-23.164906 24.443043 1.2291251e-14)
(-38.587735 39.902162 -4.231805e-15)
(-43.296892 46.479683 -3.2348303e-15)
(-41.654865 47.844217 2.6584456e-15)
(-36.163105 45.968776 -2.3343506e-15)
(-26.992883 42.504977 2.018201e-15)
(-14.190151 38.746428 1.666436e-15)
(19.096526 26.479761 -1.2399703e-15)
(65.37951 12.024374 0)
(106.2054 -0.92409608 0)
(137.67857 -13.146465 0)
(160.73755 -22.853323 8.5123435e-17)
(176.64812 -29.157516 0)
(186.23151 -32.633297 3.9081996e-16)
(191.13941 -32.648111 -7.1977348e-16)
(81.568953 -98.961902 -1.9335945e-16)
(115.3233 -133.40221 -2.4805206e-18)
(121.00615 -134.52682 1.9253793e-16)
(121.5271 -132.58425 -1.5684878e-16)
(121.4822 -129.47295 -6.3405759e-18)
(121.45321 -125.79694 2.2647754e-18)
(121.49933 -121.59597 0)
(121.64978 -116.82795 -1.6967177e-16)
(121.92941 -111.46433 3.1466866e-16)
(122.37057 -105.51057 -1.3249444e-16)
(123.00328 -99.006455 1.3428165e-16)
(123.85101 -92.027703 -1.1285221e-16)
(124.95121 -84.669296 -1.9619315e-17)
(126.37094 -77.0515 2.9358688e-17)
(128.04855 -69.352163 7.7915537e-17)
(129.41961 -62.265159 0)
(55.017157 -86.098069 0)
(80.114292 -119.31217 9.1442309e-18)
(85.036547 -120.60648 -9.6357292e-16)
(86.277367 -118.31129 7.6886174e-16)
(87.499465 -115.38325 1.3189355e-17)
(88.966962 -112.03505 -5.4921553e-16)
(90.689466 -108.25125 -1.3772328e-17)
(92.685884 -104.00217 7.6765813e-16)
(94.970323 -99.270599 -3.2054441e-17)
(97.550309 -94.055054 -2.7202263e-16)
(100.42296 -88.374906 0)
(103.57383 -82.273297 2.9375431e-17)
(106.98239 -75.81456 3.2226618e-17)
(110.64632 -69.08116 2.3931401e-16)
(114.50265 -62.144467 -3.3133407e-16)
(118.29292 -55.264619 -5.0687031e-17)
(36.261654 -75.152291 -7.3243149e-18)
(52.285857 -103.00749 4.6992157e-15)
(56.157594 -104.03458 -1.8154003e-15)
(57.984729 -101.88959 1.3171815e-17)
(59.961099 -99.242551 1.1620964e-15)
(62.291284 -96.240661 -9.237746e-16)
(64.994944 -92.858415 1.3792864e-17)
(68.095718 -89.066677 -2.2470723e-17)
(71.61107 -84.848608 8.5163676e-18)
(75.547462 -80.203406 2.995802e-17)
(79.895016 -75.150794 -3.4676386e-16)
(84.628096 -69.732795 2.5744448e-16)
(89.714825 -64.011205 4.8843398e-16)
(95.145872 -58.067077 -4.3172626e-16)
(100.83581 -52.009513 6.5544232e-17)
(106.43127 -46.085051 2.1837858e-16)
(19.760692 -56.931623 1.0290498e-17)
(28.843509 -78.358051 7.6367901e-18)
(31.935432 -79.123899 1.3799059e-15)
(34.216895 -77.301454 -1.0986497e-15)
(36.813631 -75.130309 1.4225893e-17)
(39.87046 -72.718892 -6.9348446e-16)
(43.416935 -70.037919 5.0987163e-16)
(47.480527 -67.062485 8.7962442e-16)
(52.079111 -63.779031 -1.2173278e-17)
(57.212912 -60.187045 -1.173842e-15)
(62.857474 -56.301474 4.6665934e-16)
(68.965199 -52.152772 0)
(75.483766 -47.782515 -3.3942778e-17)
(82.358671 -43.253009 2.8346457e-16)
(89.42895 -38.662463 -1.4271911e-16)
(96.199363 -34.156133 3.4725305e-16)
(8.0302015 -34.176751 -1.2009725e-17)
(12.557379 -48.474307 2.4742467e-15)
(15.145012 -48.726308 -1.8521803e-15)
(17.715127 -47.135914 1.0372868e-17)
(20.734899 -45.422566 -2.4861584e-17)
(24.298968 -43.649564 6.8403027e-18)
(28.445719 -41.778842 7.1621107e-16)
(33.209724 -39.786111 9.4917988e-18)
(38.614173 -37.659169 -4.1642381e-16)
(44.661335 -35.395406 3.4714476e-16)
(51.325634 -33.00089 -2.8478951e-16)
(58.561017 -30.487368 0)
(66.315068 -27.867806 -1.9503344e-16)
(74.534588 -25.166618 1.4307755e-16)
(82.920649 -22.393448 -5.1719012e-17)
(90.640526 -19.709901 0)
(106.21171 -57.128811 0)
(184.02284 -96.624354 2.2894952e-15)
(201.38523 -99.547927 -3.6278785e-15)
(201.1554 -98.748643 1.508684e-15)
(199.10974 -96.83365 9.9402306e-18)
(196.77014 -94.656648 3.3126006e-18)
(194.25393 -92.179023 6.5323669e-16)
(191.56471 -89.409951 -5.5438929e-16)
(188.72555 -86.326738 -3.6813421e-16)
(185.76907 -82.921375 2.7702786e-16)
(182.7438 -79.199888 0)
(179.71855 -75.186297 -1.1350413e-16)
(176.79616 -70.922535 9.3749247e-17)
(174.13659 -66.454487 0)
(171.93808 -61.879917 0)
(170.28394 -57.435368 0)
(1.7524184 -13.115032 2.0367133e-15)
(4.3250866 -21.503594 -7.9423787e-16)
(7.1005776 -20.838641 -1.1172162e-15)
(10.198816 -18.941268 8.2419835e-16)
(13.754202 -17.239255 8.3326653e-18)
(17.817124 -15.725611 -2.5169248e-16)
(22.421547 -14.326343 -2.0263875e-16)
(27.596549 -13.000117 1.9087336e-18)
(33.360618 -11.723004 2.1262939e-18)
(39.715384 -10.479261 2.912231e-16)
(46.638113 -9.2573223 -3.119836e-16)
(54.079064 -8.047645 4.5787537e-18)
(61.971251 -6.8375117 2.9083578e-17)
(70.197722 -5.6085354 8.0006888e-17)
(78.613984 -4.3508735 5.8613518e-20)
(86.90271 -3.064097 -4.5508361e-17)
(2.5207488 22.804333 9.6727342e-16)
(5.4081984 34.369202 7.4924594e-16)
(8.2974504 33.855172 -1.5891302e-15)
(11.505234 31.821713 7.8277512e-16)
(15.169582 29.949832 -3.0785313e-16)
(19.336704 28.242236 -2.8497633e-20)
(24.035926 26.619267 -3.7450886e-16)
(29.290039 25.031084 1.5701687e-16)
(35.109505 23.444316 1.6192789e-17)
(41.486572 21.833947 -8.9839244e-17)
(48.390936 20.180201 1.3338245e-16)
(55.767155 18.467198 -1.1699767e-16)
(63.536858 16.681558 2.7524857e-17)
(71.598025 14.799871 1.4988572e-16)
(79.763637 12.79902 -6.0735354e-17)
(87.725664 10.755448 -8.8375065e-17)
(10.209863 45.457876 1.6410848e-17)
(15.476591 63.024736 -2.2173337e-15)
(18.210362 63.197833 1.6537915e-15)
(20.805933 61.227297 -1.2619823e-15)
(23.84154 59.111334 1.0021636e-15)
(27.419467 56.9141 0)
(31.572831 54.59002 -6.2657963e-16)
(36.330097 52.108586 4.9172883e-16)
(41.707979 49.452415 9.9761119e-18)
(47.701864 46.614254 0)
(54.279461 43.595989 4.5838629e-17)
(61.386082 40.406361 -2.3526069e-17)
(68.973847 37.052502 1.7426051e-16)
(76.963306 33.515849 -3.4844959e-16)
(85.069253 29.847809 2.5144731e-16)
(92.420908 26.172174 7.5599687e-17)
(23.466068 68.650973 -8.9728915e-18)
(33.819511 93.333732 6.6154348e-18)
(37.048644 93.938604 0)
(39.23888 91.683534 -1.9524479e-17)
(41.734639 89.059043 -9.2698831e-18)
(44.688503 86.170984 -5.8659649e-16)
(48.123704 82.981882 4.8915418e-16)
(52.063528 79.460491 0)
(56.521426 75.588914 -4.770329e-18)
(61.492113 71.364174 2.6206257e-17)
(66.944007 66.800618 -2.7153089e-17)
(72.824332 61.92963 -1.2873905e-17)
(79.096283 56.788712 -3.4821922e-17)
(85.745466 51.417766 -2.2445846e-16)
(92.57927 45.876568 2.756761e-16)
(98.750592 40.493311 -1.6261273e-16)
(41.585448 86.843031 0)
(59.415259 117.76719 -1.6882769e-15)
(63.424851 118.57035 2.6171989e-15)
(65.079728 115.9909 -1.0322451e-15)
(66.883141 112.88337 8.3915629e-18)
(69.036473 109.39356 2.1153137e-17)
(71.552505 105.48699 -5.8780854e-16)
(74.451453 101.12741 4.7153049e-16)
(77.748332 96.293527 3.6028263e-16)
(81.447357 90.983143 -3.3413668e-16)
(85.535551 85.218964 0)
(89.987387 79.050051 2.5109661e-16)
(94.812037 72.534276 -1.467547e-16)
(100.07524 65.721434 0)
(105.69783 58.830684 0)
(110.73084 52.440249 0)
(62.09686 97.594065 -1.1694058e-15)
(89.476306 133.49572 4.2669604e-16)
(94.515622 134.48981 0)
(95.539814 131.77203 -1.906547e-19)
(96.560639 128.3857 2.9493236e-16)
(97.824342 124.54728 -2.4703201e-16)
(99.334564 120.23344 -2.2865158e-16)
(101.10805 115.40905 -1.6509479e-17)
(103.15891 110.05468 1.8512268e-16)
(105.49745 104.16986 -1.4465845e-17)
(108.12714 97.77941 0)
(111.04681 90.936781 2.36092e-16)
(114.27326 83.713489 -3.1076103e-17)
(117.83219 76.181479 -1.6737733e-16)
(121.66142 68.551317 0)
(125.44717 61.165219 -1.9305309e-17)
(90.020871 109.62813 3.0980579e-17)
(126.60838 146.39885 1.3154707e-15)
(132.49308 147.34719 -5.0745102e-16)
(132.8574 145.11868 -3.3299396e-16)
(132.63192 141.61385 2.7291202e-16)
(132.40359 137.50188 -1.5763104e-16)
(132.22963 132.81612 1.1716525e-16)
(132.14204 127.51756 5.8345573e-17)
(132.16835 121.57997 -5.9040058e-17)
(132.34339 115.00814 0)
(132.70405 107.84687 0)
(133.28385 100.18036 0)
(134.12648 92.120678 6.7919729e-18)
(135.29662 83.753186 0)
(136.70536 75.282013 -5.8588835e-17)
(137.64669 67.397029 1.2623456e-16)
(-6.243985 -4.4410239 2.5604288e-15)
(-16.481418 -10.937159 9.3214576e-18)
(-24.725981 -15.249637 -1.4727296e-15)
(-28.884848 -15.833844 1.0476338e-15)
(-32.655743 -15.477203 1.3338521e-17)
(-36.936968 -15.418594 1.0137808e-17)
(-40.541875 -15.103553 0)
(-42.069762 -14.39626 4.6901235e-16)
(-41.876022 -14.723494 -9.6593746e-16)
(-38.230249 -12.518349 6.1766864e-16)
(9.5811792 -2.1635133 -3.4774063e-16)
(38.432239 -2.4860329 1.7864406e-16)
(74.434374 -4.319414 1.2871981e-18)
(101.199 -7.7149762 -1.8097472e-17)
(121.89215 -10.932928 -4.7338053e-17)
(140.46943 -16.836393 0)
(-23.742406 -15.138428 0)
(-37.460899 -23.360756 -1.6158722e-17)
(-41.983185 -24.973317 1.5235195e-15)
(-44.256473 -24.809698 -1.1865486e-15)
(-46.107565 -24.257196 -2.2054705e-17)
(-46.841327 -23.52477 8.6410533e-16)
(-44.940316 -22.28018 3.4352207e-18)
(-25.944249 -16.137585 -1.9012619e-15)
(20.394139 -3.8548638 8.6110719e-17)
(59.536606 3.3577519 2.9557178e-16)
(86.936491 4.477146 0)
(109.47532 1.7060709 -1.3993132e-17)
(128.39436 -2.9297517 -1.6720102e-17)
(144.03472 -7.620557 -9.2835046e-17)
(156.36764 -12.066468 1.2860935e-16)
(166.16545 -16.982238 1.7903102e-17)
(-29.216173 -14.802763 -2.1500927e-18)
(-50.20132 -24.851729 -5.0176432e-15)
(-55.844001 -26.846985 2.0101359e-15)
(-57.202709 -27.415702 -1.5648487e-17)
(-56.228876 -27.709848 -1.6929986e-15)
(-30.577454 -21.567579 1.1030008e-15)
(13.317907 -12.120538 -1.0261291e-17)
(57.775696 -4.6500086 1.2593123e-17)
(91.505729 -1.2873825 -6.8223433e-18)
(117.26719 -0.94247349 -1.1327355e-17)
(136.93772 -2.6422696 1.2497674e-16)
(151.60426 -5.8078853 -8.9916831e-17)
(162.46213 -9.7411894 -1.5425566e-16)
(170.35315 -13.77608 1.3630632e-16)
(175.99667 -17.428385 -2.1706312e-17)
(180.18169 -20.615607 -7.3662071e-17)
(-36.726885 -12.385967 -6.8435281e-18)
(-62.567041 -21.28132 -5.9512597e-18)
(-67.043201 -22.609375 -1.2244638e-15)
(-38.330149 -16.848922 8.4455026e-16)
(15.545463 -8.2172642 -7.8241289e-18)
(65.621071 -2.2169723 2.8844479e-16)
(101.83628 -0.75927716 -1.7535964e-16)
(128.58745 -2.0086517 -2.6158294e-16)
(148.39023 -4.5419458 8.853025e-18)
(162.51633 -7.7228406 3.2091039e-16)
(172.10185 -11.15624 -1.2737197e-16)
(178.2049 -14.531387 0)
(181.84414 -17.613588 9.6005959e-18)
(183.91607 -20.232699 -7.9137696e-17)
(185.14226 -22.255477 4.0903506e-17)
(186.07563 -23.736286 -1.0251057e-16)
(-45.386264 -8.7632748 6.843528e-18)
(-59.140437 -12.324744 -1.6029127e-15)
(11.338646 -5.6532108 8.4374488e-16)
(73.116325 -1.8079812 -3.538842e-18)
(113.68372 -2.097204 7.2435883e-18)
(141.55639 -4.4452122 -1.9541324e-18)
(160.80376 -7.6116564 -1.7382086e-16)
(173.59438 -11.058744 8.6228819e-19)
(181.66092 -14.446137 1.0453114e-16)
(186.33474 -17.538215 -8.727153e-17)
(188.67841 -20.209453 7.5454508e-17)
(189.5219 -22.424804 0)
(189.48842 -24.204504 5.3959239e-17)
(189.03284 -25.58537 -4.1061053e-17)
(188.48553 -26.539269 1.4832035e-17)
(188.03557 -27.161998 0)
(-26.681349 -1.2814117 -1.1922042e-15)
(65.245494 -3.3946898 3.4163041e-16)
(120.24052 -5.3454715 3.5178046e-16)
(154.69861 -8.3341973 -2.3426597e-16)
(175.7688 -12.020275 3.0464613e-19)
(187.82194 -15.689791 7.120904e-17)
(194.18399 -18.988665 5.6851999e-17)
(197.03463 -21.835589 -2.0491606e-18)
(197.80915 -24.243333 -1.9529801e-18)
(197.40205 -26.254233 -8.9663403e-17)
(196.32846 -27.918611 9.8156722e-17)
(194.89416 -29.283354 -3.2527475e-18)
(193.27573 -30.36151 -1.0293005e-17)
(191.61281 -31.143168 -2.5545846e-17)
(190.05391 -31.53602 -1.8031898e-20)
(188.63774 -31.622876 1.2613214e-17)
(50.328722 -5.2942297 -6.6682731e-16)
(134.29137 -18.295778 -3.1945561e-16)
(179.48987 -22.138036 6.3533179e-16)
(199.8017 -25.728365 -3.1026501e-16)
(207.68361 -28.897159 1.2770246e-16)
(209.80436 -31.276494 1.0683603e-20)
(209.35184 -33.068444 1.5875651e-16)
(207.75962 -34.519258 -7.406855e-17)
(205.64546 -35.744973 -1.0291976e-17)
(203.25243 -36.788161 3.5957732e-17)
(200.65541 -37.633739 -5.9546648e-17)
(197.94444 -38.259264 4.7384605e-17)
(195.18827 -38.612382 -1.4193999e-17)
(192.49691 -38.645754 -5.7255396e-17)
(190.02868 -38.267436 2.2677056e-17)
(187.76939 -37.705494 2.733211e-17)
(86.371124 -19.838208 -1.4383473e-17)
(175.95416 -43.56608 1.4053909e-15)
(209.42929 -47.617248 -1.0075793e-15)
(217.92217 -50.018006 7.4927003e-16)
(218.38697 -51.178621 -6.3874968e-16)
(216.51495 -51.636267 0)
(213.91174 -51.79858 3.9773747e-16)
(210.98087 -51.825156 -3.3008375e-16)
(207.82687 -51.726041 -7.4738476e-18)
(204.48395 -51.475 0)
(200.95634 -51.010935 -2.731276e-17)
(197.36352 -50.318436 1.3396249e-17)
(193.79621 -49.350812 -8.8028744e-17)
(190.40504 -48.068026 1.6672804e-16)
(187.36134 -46.439998 -1.1547745e-16)
(184.61404 -44.719474 -2.8351973e-17)
(103.09774 -38.531368 8.9403265e-18)
(188.4714 -71.342578 -5.3931445e-18)
(212.82431 -74.869982 0)
(215.22041 -75.599227 -5.1010178e-18)
(213.43602 -74.979269 -9.5054189e-18)
(210.88437 -73.985175 5.1069765e-16)
(208.05149 -72.779359 -4.5289177e-16)
(204.98371 -71.397902 0)
(201.70572 -69.809304 3.2640602e-17)
(198.24753 -67.984226 2.2914782e-17)
(194.62053 -65.871192 2.0514748e-17)
(190.97702 -63.497614 -3.9118486e-17)
(187.40776 -60.850748 2.1355721e-17)
(184.07958 -57.940764 1.1194663e-16)
(181.15156 -54.865573 -1.2319068e-16)
(178.59513 -51.933245 6.4682473e-17)
(100.54657 -73.103433 5.6748892e-15)
(166.96954 -115.61206 -1.8637838e-15)
(179.31947 -118.03426 0)
(178.96042 -116.2537 -7.2735903e-18)
(177.69948 -113.50264 -7.8642875e-16)
(176.22513 -110.43352 6.7891342e-16)
(174.63908 -106.98133 4.4346751e-16)
(172.94639 -103.15583 -3.2554477e-17)
(171.15758 -98.947023 -3.007218e-16)
(169.2872 -94.362811 1.4323358e-17)
(167.36101 -89.423544 0)
(165.42097 -84.170093 -1.4701876e-16)
(163.5428 -78.663639 5.6247091e-17)
(161.90101 -72.944121 7.1314386e-17)
(160.7678 -67.098011 0)
(159.98663 -61.4683 -5.5705718e-18)
(97.012522 -92.049008 2.1756616e-17)
(147.48141 -131.89616 2.8856761e-15)
(156.6248 -134.12119 -1.1095335e-15)
(156.50529 -131.59398 -7.8477921e-16)
(156.01261 -128.11348 6.3136381e-16)
(155.40661 -124.26306 -4.4931776e-16)
(154.72667 -119.96195 3.7271584e-16)
(153.95892 -115.21537 2.1841924e-16)
(153.10329 -110.01596 -1.9219568e-16)
(152.16658 -104.37138 0)
(151.17385 -98.30593 0)
(150.16915 -91.869567 0)
(149.23637 -85.129812 -8.3144054e-18)
(148.57619 -78.142272 0)
(148.47574 -71.028329 -3.9804557e-17)
(148.79421 -64.501172 9.2296442e-17)
(-15.175214 19.661788 9.3470593e-15)
(-43.724812 55.920901 2.5141122e-17)
(-55.121831 69.177637 -4.811202e-15)
(-56.133779 72.03324 3.9629515e-15)
(-52.442007 70.373966 5.260631e-17)
(-46.366692 66.398161 4.1141643e-17)
(-38.551506 60.939051 0)
(-29.074774 54.336899 2.2184921e-15)
(-17.777102 46.568708 -4.0018204e-15)
(-8.2424582 36.518872 1.830219e-15)
(27.047897 15.43427 -1.3445366e-15)
(71.099069 -7.9056496 7.8703208e-16)
(106.70177 -27.77795 1.0083978e-17)
(133.08381 -41.849813 -9.5348381e-17)
(150.90212 -50.003716 -2.6940551e-16)
(162.45878 -52.636485 0)
(-31.359378 52.541907 0)
(-56.405031 92.290277 -4.5767213e-17)
(-62.996913 100.95057 4.771993e-15)
(-61.336287 99.675662 -4.1250303e-15)
(-57.0973 95.06304 -8.34043e-17)
(-51.807201 88.909294 3.2112625e-15)
(-45.536848 81.51142 -4.9305839e-18)
(-38.058258 72.731695 -5.2909076e-15)
(-29.184703 62.209727 2.9284061e-16)
(-19.210141 49.296398 2.3677217e-15)
(-7.7480932 31.589225 0)
(31.137079 1.6521936 -1.7563958e-16)
(64.139161 -28.114187 -1.9832048e-16)
(89.029691 -49.426229 -8.6336726e-16)
(107.79247 -61.998838 1.0540258e-15)
(121.49572 -66.942533 1.1223308e-16)
(-31.152069 69.992736 -1.2702662e-17)
(-50.202531 108.391 -1.1706436e-14)
(-53.436631 111.388 5.185718e-15)
(-51.191422 106.17042 -3.2831704e-17)
(-48.150436 99.307812 -3.8438086e-15)
(-44.771711 91.407107 3.278793e-15)
(-40.807762 82.154877 -4.1608511e-17)
(-35.923596 71.000608 7.3425275e-17)
(-29.846845 57.156794 -8.1017454e-17)
(-22.840435 39.465245 -1.2247538e-16)
(-14.856737 17.536386 1.9534509e-15)
(-1.9370421 -4.0083174 -1.5054155e-15)
(20.320019 -28.708019 -2.536078e-15)
(41.852634 -52.607938 1.9242797e-15)
(59.899479 -68.147832 -2.6652919e-16)
(75.078664 -74.534483 -6.0485949e-16)
(-24.293586 76.097115 -1.092291e-17)
(-36.179742 107.56042 -8.4209889e-18)
(-37.688267 105.57608 -1.9206955e-15)
(-36.970307 98.774527 1.6049487e-15)
(-36.157284 91.035352 -1.8018174e-17)
(-35.359832 82.427964 1.1112389e-15)
(-34.456029 72.691341 -8.5198105e-16)
(-33.269111 61.456426 -1.6060691e-15)
(-31.555678 48.365765 -1.7960948e-17)
(-29.140827 33.033577 2.634617e-15)
(-25.50543 15.10734 -1.2010111e-15)
(-19.708114 -5.3824718 0)
(-9.8118472 -27.161578 1.0353315e-16)
(2.7507877 -48.420434 -7.3505489e-16)
(15.923513 -64.975878 3.6927092e-16)
(28.599718 -74.972971 -8.1440252e-16)
(-13.374768 66.745605 1.1836963e-17)
(-19.678843 90.817637 -2.0487472e-15)
(-21.324798 87.779585 1.5988403e-15)
(-22.133356 81.025385 -1.1284628e-17)
(-23.050654 73.5602 2.5544758e-17)
(-24.145561 65.463386 -6.0026603e-18)
(-25.411484 56.633297 -7.6301713e-16)
(-26.768237 46.838825 -2.696906e-17)
(-28.014972 35.718969 5.0892639e-16)
(-28.840058 22.86219 -4.8458439e-16)
(-28.991302 8.359344 4.1454436e-16)
(-27.810496 -7.6502847 0)
(-24.678702 -25.451314 2.9493021e-16)
(-19.416547 -43.660743 -2.1391641e-16)
(-12.501788 -59.964103 8.9649875e-17)
(-5.1490988 -72.501876 0)
(-3.843015 48.003619 -1.233377e-15)
(-6.4349846 65.569995 5.0675889e-16)
(-8.2365273 62.500589 7.8596408e-16)
(-10.058135 56.794982 -6.2500103e-16)
(-12.150531 50.795488 -9.7833844e-18)
(-14.506052 44.279512 2.1614763e-16)
(-16.974549 36.73117 1.8525456e-16)
(-19.555287 28.439577 1.1131112e-18)
(-22.200728 19.548841 1.0499747e-18)
(-24.80901 9.9801118 -2.964252e-16)
(-27.081873 -0.87772715 3.1732024e-16)
(-28.690495 -13.42283 1.0819359e-18)
(-29.317137 -27.508111 -2.9072474e-17)
(-28.533673 -42.504299 -8.2894299e-17)
(-26.460358 -57.061099 -5.7895693e-20)
(-23.41858 -70.046224 4.9058588e-17)
(1.2728116 29.542104 -5.9831138e-16)
(0.74498878 40.903985 -5.6392516e-16)
(-1.0992136 37.518844 1.3005799e-15)
(-3.2730445 32.236175 -6.7765706e-16)
(-5.634619 27.191345 2.7611614e-16)
(-8.1879668 22.32993 2.9441162e-20)
(-10.976594 17.569503 3.5040779e-16)
(-13.901154 12.195808 -1.4059558e-16)
(-16.923836 5.8717939 -1.1380013e-17)
(-20.011393 -1.472333 8.6282521e-17)
(-23.048861 -9.9794781 -1.2077333e-16)
(-25.810358 -19.779342 1.1106218e-16)
(-28.036016 -30.843739 -1.9963156e-17)
(-29.319841 -42.980485 -1.4425885e-16)
(-29.421624 -55.603792 5.8310232e-17)
(-28.487983 -67.739008 8.7670159e-17)
(2.7873913 15.624072 -1.3156512e-17)
(2.9055236 19.840379 2.3576998e-15)
(1.1965179 17.553792 -1.8157702e-15)
(-0.74109891 14.258143 1.3866392e-15)
(-2.8067398 10.903837 -1.0886344e-15)
(-5.0577909 7.411988 0)
(-7.5241028 3.6437697 6.6929003e-16)
(-10.209696 -0.58879055 -5.1192873e-16)
(-13.083815 -5.4283943 -9.7098352e-18)
(-16.07256 -10.99563 0)
(-19.05386 -17.415446 -4.9221942e-17)
(-21.835495 -24.807539 2.4719499e-17)
(-24.134599 -33.224036 -1.9033487e-16)
(-25.695304 -42.601796 3.9300002e-16)
(-25.947344 -52.850471 -2.8420044e-16)
(-24.648385 -63.438793 -9.5348797e-17)
(3.2951423 9.5224165 8.2133913e-18)
(3.2400688 9.9773035 -8.4782847e-18)
(1.5517205 6.351524 0)
(-0.36740428 2.5244799 3.271857e-17)
(-2.3303028 -0.84369584 1.7211983e-17)
(-4.3435089 -3.8041435 9.5458739e-16)
(-6.5007238 -6.7557326 -7.705462e-16)
(-8.8349293 -9.9579087 0)
(-11.305092 -13.526915 4.3354879e-18)
(-13.829852 -17.551353 -4.170112e-17)
(-16.270557 -22.129705 3.9349973e-17)
(-18.412276 -27.349473 2.1354002e-17)
(-19.962382 -33.270783 5.225004e-17)
(-20.525248 -40.23109 3.3471479e-16)
(-19.4768 -47.790129 -3.7560221e-16)
(-16.246261 -55.462657 2.0504111e-16)
(5.1783429 9.9332963 0)
(4.826892 9.1525997 3.2120019e-15)
(2.1092387 3.3464341 -4.9758254e-15)
(-0.5281094 -2.2080846 1.906847e-15)
(-3.0216299 -6.8394724 -1.304372e-17)
(-5.3224537 -10.431511 -4.1190369e-17)
(-7.5162472 -13.294234 1.1134382e-15)
(-9.6884377 -15.830041 -9.1916677e-16)
(-11.837098 -18.329851 -6.8299771e-16)
(-13.877362 -20.967157 6.1907422e-16)
(-15.639836 -23.841027 0)
(-16.842 -27.005129 -4.1969452e-16)
(-17.072714 -30.452399 2.2309903e-16)
(-15.668922 -34.301104 0)
(-12.01516 -38.566252 0)
(-4.1576123 -43.033825 0)
(8.1147727 11.922273 5.5186357e-15)
(10.863785 16.255171 -2.8741353e-15)
(6.3769222 9.540454 0)
(0.79940636 0.99636786 -1.4410862e-17)
(-4.2911002 -6.158443 -1.4367988e-15)
(-8.4947354 -11.509381 1.2182484e-15)
(-11.787189 -15.180553 9.3298458e-16)
(-14.366434 -17.636999 1.2418625e-17)
(-16.438644 -19.367159 -7.004629e-16)
(-18.068513 -20.716059 3.514352e-17)
(-19.160371 -21.861839 0)
(-19.526987 -22.91086 -6.0796425e-16)
(-18.671221 -23.706071 1.0344237e-16)
(-15.029566 -24.98609 3.4949569e-16)
(-6.9494447 -26.487904 0)
(18.020696 -26.658951 2.8986565e-17)
(8.7265967 10.880313 -1.6520314e-18)
(9.0580048 12.94901 4.6850015e-15)
(0.19452762 5.241354 -2.1661936e-15)
(-6.6076588 -1.3758785 -2.0082031e-15)
(-13.214353 -8.3675829 1.5607392e-15)
(-17.914641 -12.7008 -1.2780164e-15)
(-21.153674 -15.116758 1.0354317e-15)
(-23.27926 -16.182077 8.0690262e-16)
(-24.574068 -16.359176 -7.5604884e-16)
(-25.058373 -15.852672 0)
(-23.838069 -14.439169 0)
(-24.117727 -15.42612 0)
(-23.085155 -17.114771 6.7171214e-17)
(4.4322642 -14.829091 0)
(40.591393 -12.041557 1.3352377e-16)
(80.589914 -17.636198 -2.1390657e-16)
(127.4516 146.92375 0)
(133.68486 148.35796 0)
(134.45932 146.32268 0)
(134.75483 142.89917 1.9495221e-18)
(135.02834 138.94851 -1.4727854e-17)
(135.39895 134.40629 1.8354261e-17)
(135.89824 129.2314 0)
(136.5393 123.40077 -3.8849191e-18)
(137.33155 116.90188 0)
(138.27684 109.77444 0)
(139.36818 102.10314 0)
(140.60455 94.009272 1.0402693e-17)
(142.02721 85.614597 0)
(143.63179 77.044419 1.4584021e-17)
(145.12791 69.249216 0)
(115.20876 -132.60949 0)
(121.40398 -134.25271 0)
(122.44268 -132.54462 0)
(123.0213 -129.55727 6.5983916e-19)
(123.58666 -126.08487 -4.0338845e-18)
(124.25449 -122.08539 5.8435335e-18)
(125.04624 -117.54827 0)
(125.96441 -112.4211 3.607221e-18)
(127.01051 -106.69308 0)
(128.18247 -100.39045 0)
(129.47072 -93.579264 0)
(130.87886 -86.358806 -9.2105437e-18)
(132.48327 -78.825567 0)
(134.34913 -71.293641 -3.9646622e-17)
(136.2838 -64.674786 0)
(3.2875069 5.5962034 0)
(-19.928489 -12.584737 0)
(-7.624247 -3.1752028 0)
(-14.420802 -9.6169319 1.0604517e-17)
(-19.407159 -13.987148 -5.9177306e-17)
(-22.947344 -16.435274 7.4390032e-17)
(-25.423082 -17.469844 0)
(-27.097727 -17.42831 5.8207877e-20)
(-28.75251 -16.517377 0)
(-26.821382 -15.433988 0)
(-24.025421 -16.986996 0)
(24.098755 -11.014272 -3.1040628e-19)
(70.659355 -9.3747441 0)
(99.907865 -10.750702 4.7914876e-17)
(124.4456 -16.904818 0)
(-42.99526 53.856807 0)
(-54.276366 66.814569 0)
(-55.255382 69.740493 0)
(-51.460438 67.836171 1.3120049e-17)
(-45.0977 63.483404 -1.0697224e-16)
(-36.601651 57.614736 1.7551587e-16)
(-25.900188 50.585552 0)
(-11.441907 43.217634 -6.675355e-18)
(5.3206044 34.901421 0)
(83.459826 4.8636789 0)
(123.26434 -12.700245 0)
(150.01928 -24.394221 4.0954986e-18)
(168.19395 -32.268675 0)
(179.13699 -37.19747 1.7423791e-16)
(184.77415 -38.700153 0)
(91.319386 110.88441 7.2164908e-20)