/*--------------------------------*- C++ -*----------------------------------*\
| =========                 |                                                 |
| \\      /  F ield         | foam-extend: Open Source CFD                    |
|  \\    /   O peration     | Version:     4.1                                |
|   \\  /    A nd           | Web:         http://www.foam-extend.org         |
|    \\/     M anipulation  |                                                 |
\*---------------------------------------------------------------------------*/
FoamFile
{
    version     2.0;
    format      ascii;
    class       surfaceScalarField;
    location    "0.95";
    object      phi;
}
// * * * * * * * * * * * * * * * * * * * * * * * * * * * * * * * * * * * * * //

dimensions      [0 3 -1 0 0 0 0];

internalField   nonuniform List<scalar> 
32976
(
-0.22649241
0.00039417943
-0.22691547
0.00042306235
-0.22733092
0.00041544767
-0.22773042
0.00039949604
-0.22810953
0.00037910751
-0.22846566
0.00035613101
-0.2287971
0.00033144742
-0.22910275
0.00030564244
-0.22938192
0.00027917599
-0.2296344
0.0002524751
-0.22986034
0.00022594008
-0.23006031
0.00019997278
-0.23023527
0.00017496081
-0.23038656
0.00015129226
-0.2305159
0.00012933776
-0.23062536
0.00010945826
-0.23071735
9.1990294e-05
-0.2307946
7.7251234e-05
-0.23086012
6.55214e-05
-0.23091719
5.7066134e-05
-0.2309693
5.2109959e-05
-0.23102012
5.0821277e-05
-0.23107345
5.3333639e-05
-0.23113319
5.9736881e-05
-0.23120326
7.0068891e-05
-0.23128758
8.432115e-05
-0.23139001
0.00010243147
-0.2315143
0.00012428847
-0.23166402
0.00014972442
-0.23184256
0.00017853048
-0.23205302
0.00021045971
-0.23229823
0.00024521412
-0.23258067
0.0002824421
-0.23290243
0.00032175551
-0.23326516
0.00036273739
-0.2336701
0.00040493104
-0.23411796
0.00044786531
-0.234609
0.00049103656
-0.23514294
0.00053394132
-0.23571899
0.00057605293
-0.23633585
0.00061686042
-0.23699169
0.00065584071
-0.23768419
0.00069249753
-0.23841053
0.0007263444
-0.23916746
0.00075692294
-0.23995126
0.0007838057
-0.24075787
0.00080660213
-0.24158283
0.00082496588
-0.24242143
0.00083859645
-0.24326867
0.00084724686
-0.2441194
0.00085072583
-0.2449683
0.00084890092
-0.24581
0.00084170029
-0.24663912
0.00082911565
-0.24745032
0.00081119884
-0.24823838
0.00078806449
-0.24899827
0.00075988644
-0.24972516
0.00072689514
-0.25041454
0.00068937353
-0.25106219
0.0006476537
-0.2516643
0.00060210843
-0.25221745
0.00055314763
-0.25271866
0.00050121044
-0.25316541
0.00044675796
-0.25355568
0.00039026583
-0.2538879
0.00033221895
-0.25416099
0.00027309415
-0.25437435
0.00021335701
-0.25452781
0.00015346442
-0.25462168
9.386926e-05
-0.2546567
3.5016121e-05
-0.254634
-2.2699978e-05
-0.25455477
-7.9229995e-05
-0.25441962
-0.00013515413
-0.25422937
-0.00019024878
-0.25398598
-0.00024338907
-0.25369214
-0.00029383873
-0.25335104
-0.00034109838
-0.25296625
-0.00038479422
-0.2525416
-0.00042464255
-0.25208118
-0.00046042431
-0.25158921
-0.00049196816
-0.25107007
-0.00051914366
-0.25052821
-0.00054185881
-0.24996815
-0.00056005961
-0.24939442
-0.00057373103
-0.24881152
-0.00058289783
-0.2482239
-0.00058762519
-0.24763588
-0.00058801874
-0.24705165
-0.00058422369
-0.24647523
-0.00057642415
-0.24591039
-0.00056483829
-0.24536067
-0.00054971731
-0.24482933
-0.00053133996
-0.24431933
-0.00051000792
-0.24383329
-0.0004860405
-0.24337352
-0.00045976886
-0.24294199
-0.00043153122
-0.24254032
-0.0004016654
-0.24216982
-0.00037050549
-0.24183144
-0.00033837593
-0.24152585
-0.00030558732
-0.24125342
-0.00027243261
-0.24101424
-0.0002391844
-0.24080814
-0.00020609141
-0.24063477
-0.00017337793
-0.24049352
-0.00014124197
-0.24038367
-0.00010985546
-0.2403043
-7.9363669e-05
-0.24025442
-4.9884271e-05
-0.24023291
-2.1509397e-05
-0.24023858
5.6676692e-06
-0.24027005
3.1472323e-05
-0.24032593
5.5878672e-05
-0.24040495
7.9016781e-05
-0.24050586
0.00010091449
-0.24062742
0.00012155741
-0.24076833
0.00014090879
-0.24092708
0.0001587484
-0.24110135
0.00017427585
-0.24128763
0.00018627338
-0.24148691
0.00019928312
-0.24170268
0.00021576679
0.00023277469
-0.25762876
0.00060157793
-0.25781868
0.00061297864
-0.25799768
0.00059445101
-0.25816191
0.00056372579
-0.2583085
0.00052569381
-0.25843525
0.00048288519
-0.25854055
0.00043674011
-0.2586232
0.000388293
-0.25868242
0.00033839468
-0.25871779
0.00028784516
-0.25872926
0.00023740905
-0.25871714
0.00018785403
-0.25868211
0.00013993163
-0.25862521
9.4391933e-05
-0.25854783
5.1960604e-05
-0.25845172
1.3344447e-05
-0.25833894
-2.0788486e-05
-0.25821188
-4.9805827e-05
-0.25807321
-7.3145098e-05
-0.2579258
-9.0343932e-05
-0.25777272
-0.00010097087
-0.25761728
-0.00010462044
-0.25746296
-0.00010098953
-0.25731336
-8.986537e-05
-0.25717216
-7.1123752e-05
-0.25704309
-4.4748368e-05
-0.25692984
-1.0818683e-05
-0.25683604
3.0481659e-05
-0.25676518
7.8866277e-05
-0.25672058
0.00013392725
-0.25670524
0.0001951206
-0.25672188
0.00026185462
-0.25677292
0.00033348483
-0.25686043
0.00040926711
-0.25698609
0.00048840068
-0.25715117
0.00057000562
-0.25735647
0.00065316424
-0.25760233
0.00073689915
-0.25788861
0.00082022153
-0.25821466
0.00090210093
-0.25857932
0.00098152617
-0.25898095
0.0010574658
-0.25941738
0.001128932
-0.259886
0.0011949557
-0.26038369
0.0012546192
-0.26090695
0.0013070629
-0.26145184
0.0013514974
-0.2620141
0.0013872179
-0.26258911
0.0014136089
-0.26317202
0.0014301589
-0.26375776
0.0014364655
-0.2643411
0.0014322425
-0.26491673
0.0014173241
-0.26547928
0.0013916702
-0.26602344
0.0013553619
-0.26654399
0.0013086062
-0.26703583
0.0012517295
-0.26749411
0.0011851734
-0.26791422
0.0011094866
-0.26829188
0.001025318
-0.26862318
0.00093340152
-0.26890458
0.00083454767
-0.269133
0.00072962876
-0.2693058
0.00061956419
-0.26942084
0.00050530579
-0.26947645
0.00038782894
-0.26947145
0.00026808803
-0.26940512
0.00014702764
-0.26927726
2.5607295e-05
-0.26908815
-9.5240078e-05
-0.26883849
-0.00021463979
-0.26852939
-0.00033180007
-0.26816267
-0.0004459582
-0.26774162
-0.00055620179
-0.26727005
-0.00066182188
-0.2667511
-0.00076233348
-0.26618778
-0.00085715754
-0.26558314
-0.00094573973
-0.26494036
-0.0010275807
-0.26426276
-0.0011022366
-0.26355386
-0.0011693282
-0.26281729
-0.0012285377
-0.26205682
-0.0012796122
-0.26127631
-0.0013223654
-0.26047969
-0.0013566804
-0.25967091
-0.0013825128
-0.25885392
-0.0013998931
-0.25803261
-0.0014089285
-0.25721083
-0.0014098033
-0.25639227
-0.0014027771
-0.25558051
-0.0013881847
-0.25477893
-0.0013664255
-0.25399068
-0.0013379631
-0.25321871
-0.001303314
-0.25246568
-0.0012630391
-0.25173398
-0.0012177338
-0.25102573
-0.0011680167
-0.25034275
-0.0011145211
-0.24968653
-0.00105788
-0.24905832
-0.00099872049
-0.24845904
-0.0009376523
-0.24788937
-0.00087525983
-0.2473497
-0.00081209477
-0.24684022
-0.00074867176
-0.24636085
-0.00068546028
-0.24591134
-0.00062288466
-0.24549126
-0.00056132011
-0.24510003
-0.00050109198
-0.24473691
-0.00044247631
-0.2444011
-0.00038569904
-0.24409167
-0.00033094147
-0.24380765
-0.00027834882
-0.24354819
-0.00022798949
-0.24331238
-0.00017992789
-0.24309913
-0.00013423852
-0.24290725
-9.0960011e-05
-0.24273558
-5.0118864e-05
-0.24258289
-1.1781346e-05
-0.24244782
2.3680379e-05
-0.24232873
5.5188499e-05
-0.24222432
8.1862093e-05
-0.24213727
0.00011223088
-0.24205498
0.00013347702
0.00011324604
-0.26115172
0.00070907817
-0.2612224
0.00068366145
-0.26127177
0.00064381466
-0.26130205
0.00059400771
-0.26131327
0.00053690924
-0.26130498
0.00047459703
-0.26127684
0.00040860524
-0.26122876
0.00034020853
-0.2611609
0.00027053807
-0.26107374
0.00020068321
-0.26096803
0.00013170146
-0.26084483
6.4649276e-05
-0.26070546
5.6400205e-07
-0.26055154
-5.9531115e-05
-0.26038493
-0.00011464386
-0.26020777
-0.00016381814
-0.2600224
-0.0002061629
-0.25983135
-0.00024085069
-0.25963737
-0.00026712149
-0.25944342
-0.00028430163
-0.25925257
-0.00029182105
-0.25906794
-0.00028924294
-0.2588927
-0.00027623113
-0.25872998
-0.00025258568
-0.25858287
-0.00021823043
-0.25845439
-0.00017323179
-0.25834742
-0.000117787
-0.2582647
-5.2240444e-05
-0.25820876
2.2926163e-05
-0.25818194
0.00010710913
-0.25818642
0.0001995948
-0.25822409
0.00029952845
-0.25829654
0.00040593533
-0.25840501
0.00051773587
-0.25855037
0.00063376452
-0.25873313
0.00075275926
-0.25895337
0.00087340741
-0.25921079
0.00099431978
-0.25950467
0.0011140953
-0.25983384
0.0012312805
-0.26019677
0.0013444516
-0.26059147
0.001452161
-0.26101556
0.0015530237
-0.26146629
0.001645684
-0.26194053
0.0017288594
-0.26243481
0.0018013502
-0.26294537
0.0018620564
-0.26346815
0.0019099977
-0.26399886
0.0019443201
-0.26453302
0.0019643166
-0.26506599
0.0019694351
-0.26559304
0.001959288
-0.26610937
0.0019336587
-0.26661021
0.0018925096
-0.26709082
0.0018359757
-0.26754659
0.0017643717
-0.26797304
0.0016781829
-0.26836593
0.0015780594
-0.26872125
0.0014648045
-0.26903529
0.001339365
-0.2693047
0.0012028092
-0.26952647
0.0010563152
-0.26969799
0.00090114888
-0.26981707
0.00073864283
-0.26988194
0.00057017656
-0.26989127
0.00039715967
-0.26984414
0.00022095936
-0.26974006
4.294782e-05
-0.26957898
-0.00013547228
-0.26936127
-0.00031295255
-0.26908772
-0.00048818595
-0.26875955
-0.00065997416
-0.26837832
-0.00082718549
-0.26794582
-0.00098870813
-0.26746408
-0.0011435601
-0.26693553
-0.0012908836
-0.26636284
-0.0014298463
-0.26574892
-0.0015596609
-0.26509689
-0.0016796113
-0.26441007
-0.0017890543
-0.26369196
-0.0018874336
-0.26294622
-0.0019742782
-0.26217663
-0.0020492082
-0.26138705
-0.0021119401
-0.26058144
-0.0021622908
-0.25976377
-0.0022001841
-0.25893801
-0.0022256539
-0.25810809
-0.0022388477
-0.25727787
-0.0022400275
-0.25645108
-0.0022295671
-0.25563131
-0.0022079526
-0.25482197
-0.0021757661
-0.25402625
-0.0021336853
-0.25324709
-0.0020824671
-0.2524872
-0.0020229351
-0.25174897
-0.0019559639
-0.25103452
-0.0018824633
-0.25034568
-0.0018033654
-0.24968396
-0.0017196017
-0.24905058
-0.0016320958
-0.24844649
-0.0015417457
-0.24787233
-0.0014494125
-0.24732852
-0.0013559089
-0.2468152
-0.0012619936
-0.2463323
-0.0011683587
-0.24587956
-0.0010756299
-0.24545651
-0.00098436101
-0.24506257
-0.00089503193
-0.244697
-0.00080804913
-0.24435895
-0.000723747
-0.2440475
-0.00064239112
-0.24376167
-0.00056418344
-0.2435004
-0.00048925736
-0.24326262
-0.00041771158
-0.24304724
-0.00034962105
-0.24285317
-0.00028502848
-0.24267933
-0.0002239596
-0.24252459
-0.00016651679
-0.24238777
-0.00011314102
-0.24226786
-6.4719016e-05
-0.24216461
-2.1393104e-05
-0.24207955
2.7176023e-05
-0.24200092
5.4846333e-05
4.7924483e-05
-0.26152728
0.0007874702
-0.26157731
0.0007336885
-0.26160543
0.00067193723
-0.26161358
0.0006021518
-0.26160228
0.00052561783
-0.26157161
0.00044392159
-0.26152156
0.00035855181
-0.26145227
0.00027091906
-0.26136409
0.00018236579
-0.26125763
9.4221632e-05
-0.26113373
7.8015798e-06
-0.2609935
-7.5580255e-05
-0.26083831
-0.00015462525
-0.26066979
-0.00022805638
-0.2604898
-0.00029463079
-0.26030045
-0.00035317047
-0.26010407
-0.00040254607
-0.25990318
-0.00044173777
-0.25970049
-0.00046980769
-0.25949885
-0.00048594394
-0.25930121
-0.00048945854
-0.25911063
-0.00047982646
-0.2589302
-0.00045665988
-0.25876304
-0.00041975097
-0.25861222
-0.00036904776
-0.25848076
-0.00030468746
-0.25837158
-0.00022697313
-0.25828742
-0.00013639585
-0.25823087
-3.3619963e-05
-0.25820429
8.0522299e-05
-0.25820975
0.00020505542
-0.25824906
0.00033884018
-0.25832372
0.00048059474
-0.25843488
0.00062889652
-0.25858333
0.00078221242
-0.25876946
0.00093889543
-0.25899329
0.0010972365
-0.25925441
0.0012554357
-0.259552
0.001411683
-0.25988482
0.0015641072
-0.26025125
0.00171088
-0.26064924
0.0018501477
-0.26107636
0.0019801406
-0.2615298
0.0020991297
-0.26200642
0.0022054824
-0.26250275
0.0022976741
-0.263015
0.0023743085
-0.26353915
0.0024341433
-0.26407092
0.0024760976
-0.26460589
0.0024992786
-0.26513944
0.0025029911
-0.2656669
0.0024867502
-0.26618353
0.0024502892
-0.2666846
0.0023935711
-0.2671654
0.0023167803
-0.26762136
0.0022203319
-0.26804804
0.0021048616
-0.2684412
0.0019712177
-0.26879684
0.0018204477
-0.26911126
0.0016537855
-0.26938108
0.0014726243
-0.26960326
0.0012785005
-0.26977518
0.001073067
-0.2698946
0.00085806329
-0.26995972
0.00063529695
-0.26996916
0.00040659853
-0.26992196
0.00017376117
-0.26981762
-6.1394173e-05
-0.26965606
-0.00029702816
-0.26943763
-0.00053138521
-0.26916305
-0.00076277244
-0.26883341
-0.00098961036
-0.2684502
-0.0012103977
-0.2680152
-0.0014237094
-0.26753051
-0.0016282463
-0.26699857
-0.001822824
-0.26642208
-0.0020063374
-0.26580398
-0.002177759
-0.26514744
-0.0023361549
-0.26445581
-0.0024806822
-0.26373263
-0.0026106079
-0.26298161
-0.0027253062
-0.26220655
-0.0028242685
-0.26141138
-0.0029071115
-0.26060008
-0.0029735835
-0.25977669
-0.0030235739
-0.25894523
-0.0030571187
-0.25810967
-0.0030744051
-0.25727393
-0.0030757727
-0.25644178
-0.0030617114
-0.25561687
-0.0030328612
-0.25480265
-0.0029899909
-0.25400234
-0.0029339974
-0.25321892
-0.0028658841
-0.25245511
-0.0027867431
-0.25171334
-0.0026977355
-0.25099573
-0.0026000688
-0.25030412
-0.0024949809
-0.24964001
-0.0023837082
-0.24900463
-0.0022674765
-0.2483989
-0.0021474775
-0.24782346
-0.002024853
-0.24727869
-0.0019006807
-0.24676472
-0.0017759662
-0.24628145
-0.0016516257
-0.24582859
-0.0015284879
-0.24540567
-0.0014072848
-0.24501205
-0.001288651
-0.24464697
-0.0011731228
-0.24430958
-0.0010611423
-0.24399891
-0.00095305676
-0.24371397
-0.00084912706
-0.24345369
-0.00074953361
-0.24321701
-0.0006543984
-0.24300283
-0.00056379693
-0.2428101
-0.00047776385
-0.24263774
-0.0003963172
-0.24248468
-0.00031957453
-0.24234989
-0.00024793466
-0.24223267
-0.00018193808
-0.24213262
-0.00012143584
-0.24205072
-5.4729248e-05
-0.24198046
-1.5409136e-05
2.9103312e-06
-0.26160328
0.00086085423
-0.26165344
0.00078385227
-0.26168236
0.00070085536
-0.26169097
0.00061076471
-0.26167964
0.00051428527
-0.26164845
0.00041272682
-0.26159745
0.00030755281
-0.26152682
0.00020028923
-0.26143692
9.2469493e-05
-0.26132835
-1.4348569e-05
-0.26120195
-0.00011860021
-0.26105881
-0.0002187165
-0.2609003
-0.00031313585
-0.26072803
-0.00040032343
-0.26054388
-0.00047878414
-0.26034996
-0.00054709598
-0.2601486
-0.00060390402
-0.25994236
-0.00064797962
-0.25973397
-0.0006781969
-0.25952632
-0.00069359317
-0.25932243
-0.00069334971
-0.2591254
-0.00067684954
-0.25893842
-0.0006436446
-0.25876466
-0.00059351226
-0.25860729
-0.00052641987
-0.2584694
-0.00044257151
-0.258354
-0.00034237323
-0.25826393
-0.0002264654
-0.25820186
-9.5693564e-05
-0.25817021
4.8874977e-05
-0.25817115
0.00020599937
-0.25820657
0.00037425048
-0.25827799
0.00055201767
-0.25838662
0.00073753249
-0.2585333
0.00092888747
-0.25871844
0.0011240407
-0.25894209
0.0013208788
-0.25920383
0.0015171813
-0.25950287
0.00171072
-0.25983796
0.0018991968
-0.26020745
0.0020803703
-0.26060927
0.0022519721
-0.26104097
0.0024118397
-0.26149971
0.0025578634
-0.26198228
0.0026880536
-0.26248516
0.0028005534
-0.26300451
0.0028936646
-0.26353625
0.0029658762
-0.26407602
0.003015875
-0.26461932
0.0030425769
-0.26516147
0.0030451387
-0.26569769
0.0030229735
-0.26622316
0.0029757611
-0.26673306
0.0029034621
-0.26722258
0.0028063085
-0.26768707
0.0026848155
-0.26812198
0.0025397702
-0.26852298
0.0023722222
-0.268886
0.0021834675
-0.26920725
0.0019750338
-0.26948327
0.0017486467
-0.26971098
0.0015062112
-0.26988769
0.0012497773
-0.27001113
0.00098150349
-0.27007948
0.00070363922
-0.27009132
0.00041843948
-0.27004571
0.00012815152
-0.26994216
-0.00016494224
-0.26978061
-0.00045857727
-0.26956143
-0.00075056629
-0.26928537
-0.0010388267
-0.2689536
-0.0013213839
-0.26856762
-0.0015963822
-0.26812925
-0.0018620722
-0.26764066
-0.0021168385
-0.26710429
-0.002359191
-0.26652288
-0.0025877503
-0.2658994
-0.0028012427
-0.26523704
-0.0029985115
-0.26453921
-0.0031785097
-0.2638095
-0.0033403231
-0.26305164
-0.0034831675
-0.2622695
-0.0036064014
-0.26146708
-0.0037095376
-0.26064841
-0.0037922521
-0.25981759
-0.0038543968
-0.2589787
-0.0038960074
-0.25813579
-0.0039173093
-0.25729285
-0.0039187209
-0.25645371
-0.0039008499
-0.25562208
-0.0038644941
-0.25480145
-0.0038106141
-0.25399512
-0.0037403329
-0.25320609
-0.0036549078
-0.25243713
-0.0035557085
-0.25169067
-0.0034441912
-0.25096887
-0.0033218705
-0.25027355
-0.0031902988
-0.24960623
-0.0030510261
-0.24896812
-0.0029055882
-0.24836012
-0.0027554769
-0.24778286
-0.0026021211
-0.24723667
-0.0024468678
-0.24672166
-0.002290973
-0.24623771
-0.0021355796
-0.24578448
-0.0019817203
-0.24536145
-0.001830306
-0.24496798
-0.0016821247
-0.24460326
-0.0015378412
-0.2442664
-0.0013980015
-0.24395643
-0.0012630314
-0.24367231
-0.0011332487
-0.24341297
-0.0010088708
-0.24317734
-0.00089003248
-0.24296433
-0.00077679879
-0.24277292
-0.00066917858
-0.24260208
-0.00056715891
-0.24245084
-0.00047081532
-0.24231838
-0.00038039578
-0.2422042
-0.00029611049
-0.24210782
-0.000217821
-0.24203081
-0.00013174159
-0.2419699
-7.6312137e-05
-3.1542712e-05
-0.26167487
0.00093339534
-0.26172735
0.00083633531
-0.26175932
0.00073282169
-0.2617708
0.0006222427
-0.26176182
0.000505304
-0.26173236
0.00038326639
-0.26168244
0.0002576399
-0.26161224
0.00013008384
-0.26152209
2.3269072e-06
-0.2614126
-0.00012384469
-0.26128458
-0.0002466154
-0.26113914
-0.0003641558
-0.26097764
-0.00047463634
-0.26080171
-0.00057625666
-0.26061324
-0.00066725692
-0.26041437
-0.00074596568
-0.26020748
-0.00081078948
-0.25999518
-0.00086028241
-0.25978025
-0.00089312163
-0.25956567
-0.00090818293
-0.25935451
-0.00090450889
-0.25914997
-0.00088138516
-0.25895532
-0.00083829764
-0.25877383
-0.00077500439
-0.25860876
-0.00069148876
-0.25846331
-0.00058801988
-0.25834058
-0.00046510591
-0.2582435
-0.00032353777
-0.25817485
-0.00016434395
-0.25813715
1.1170879e-05
-0.25813264
0.0002014945
-0.2581633
0.00040490304
-0.25823073
0.00061944936
-0.2583362
0.00084300839
-0.25848061
0.001073292
-0.25866442
0.0013078536
-0.25888771
0.0015441653
-0.2591501
0.0017795752
-0.25945081
0.0020114258
-0.25978859
0.0022369809
-0.2601618
0.0024535739
-0.26056833
0.0026585099
-0.26100572
0.0028492217
-0.26147106
0.0030232071
-0.26196111
0.0031781076
-0.26247228
0.0033117233
-0.26300066
0.0034220426
-0.26354206
0.003507276
-0.26409205
0.0035658686
-0.26464601
0.0035965363
-0.26519916
0.0035982808
-0.26574659
0.0035704075
-0.26628337
0.0035125385
-0.26680453
0.0034246292
-0.26730518
0.0033069587
-0.26778051
0.0031601444
-0.26822587
0.0029851282
-0.26863682
0.0027831668
-0.26900916
0.0025558133
-0.26933903
0.0023048988
-0.26962287
0.0020324937
-0.26985755
0.0017408845
-0.2700403
0.0014325328
-0.27016883
0.0011100308
-0.27024127
0.00077608268
-0.27025622
0.00043338743
-0.27021273
8.4660903e-05
-0.27011032
-0.00026734876
-0.26994896
-0.00061994418
-0.26972903
-0.0009704986
-0.26945132
-0.0013165283
-0.26911704
-0.0016556683
-0.26872772
-0.0019856987
-0.26828526
-0.0023045357
-0.26779185
-0.0026102463
-0.26725
-0.0029010422
-0.26666248
-0.0031752713
-0.26603231
-0.0034314116
-0.26536274
-0.003668081
-0.26465723
-0.0038840257
-0.2639194
-0.0040781464
-0.26315307
-0.0042494959
-0.26236218
-0.004397295
-0.26155077
-0.004520947
-0.26072297
-0.0046200505
-0.25988295
-0.0046944156
-0.25903489
-0.0047440743
-0.25818291
-0.0047692892
-0.25733107
-0.0047705575
-0.25648331
-0.0047486072
-0.25564341
-0.0047043989
-0.25481493
-0.0046390915
-0.25400122
-0.0045540427
-0.25320536
-0.0044507737
-0.25243012
-0.0043309426
-0.251678
-0.0041963123
-0.25095116
-0.0040487164
-0.25025142
-0.0038900331
-0.24958031
-0.0037221366
-0.24893902
-0.0035468825
-0.24832842
-0.0033660719
-0.24774911
-0.0031814277
-0.24720141
-0.0029945724
-0.24668537
-0.0028070169
-0.24620081
-0.0026201345
-0.24574737
-0.0024351633
-0.24532448
-0.0022531941
-0.24493144
-0.0020751682
-0.2445674
-0.0019018768
-0.24423144
-0.0017339676
-0.24392253
-0.0015719415
-0.2436396
-0.0014161689
-0.24338158
-0.0012668968
-0.24314735
-0.0011242653
-0.24293582
-0.00098832104
-0.24274597
-0.00085903625
-0.24257678
-0.00073634659
-0.24242736
-0.00062023741
-0.242297
-0.00051075581
-0.24218526
-0.00040784756
-0.24209168
-0.00031139619
-0.24201871
-0.00020471925
-0.2419643
-0.00013072038
-6.0391074e-05
-0.26176882
0.0010091469
-0.26182497
0.00089248213
-0.26186077
0.00076861881
-0.26187581
0.00063728715
-0.26186986
0.00049934984
-0.26184274
0.00035615228
-0.26179442
0.00020931785
-0.26172501
6.0669813e-05
-0.26163483
-8.7853175e-05
-0.26152444
-0.00023423164
-0.26139466
-0.00037639056
-0.26124658
-0.00051223687
-0.26108157
-0.00063964471
-0.26090128
-0.00075655105
-0.26070762
-0.00086091616
-0.26050278
-0.00095080532
-0.2602892
-0.001024375
-0.26006953
-0.001079952
-0.25984664
-0.0011160046
-0.25962359
-0.0011312359
-0.25940356
-0.0011245402
-0.25918985
-0.0010950978
-0.25898582
-0.0010423215
-0.25879488
-0.00096594475
-0.25862041
-0.00086596277
-0.25846572
-0.00074270761
-0.25833404
-0.000596789
-0.25822843
-0.00042914964
-0.25815176
-0.00024100594
-0.25810669
-3.3901239e-05
-0.25809557
0.00019037303
-0.25812045
0.00042978771
-0.25818306
0.00068205485
-0.25828473
0.00094467789
-0.25842642
0.00121498
-0.25860866
0.0014900962
-0.25883157
0.001767072
-0.2590948
0.0020428115
-0.25939759
0.0023142137
-0.2597387
0.0025780904
-0.26011646
0.0028313355
-0.26052877
0.0030708134
-0.26097308
0.0032935382
-0.26144648
0.0034966007
-0.26194563
0.0036772598
-0.26246686
0.0038329593
-0.26300618
0.0039613611
-0.26355929
0.0040603856
-0.26412165
0.0041282245
-0.2646885
0.0041633845
-0.26525492
0.004164703
-0.26581588
0.004131371
-0.26636629
0.0040629477
-0.26690104
0.0039593807
-0.26741508
0.0038209956
-0.26790345
0.0036485135
-0.26836136
0.0034430358
-0.26878422
0.0032060338
-0.26916774
0.0029393271
-0.2695079
0.0026450628
-0.26980108
0.0023256702
-0.27004403
0.0019838337
-0.27023394
0.0016224441
-0.27036845
0.0012445459
-0.27044569
0.00085331382
-0.27046421
0.00045191699
-0.27042311
4.3553492e-05
-0.2703219
-0.00036855422
-0.27016059
-0.00078125528
-0.26993961
-0.0011914835
-0.26965979
-0.00159634
-0.26932239
-0.0019930695
-0.26892901
-0.0023790854
-0.26848158
-0.0027519659
-0.26798236
-0.003109462
-0.26743391
-0.0034494903
-0.26683906
-0.0037701269
-0.26620087
-0.0040696003
-0.26552265
-0.0043463001
-0.26480791
-0.0045987613
-0.26406037
-0.004825695
-0.26328388
-0.0050259851
-0.26248246
-0.0051987075
-0.26166026
-0.0053431495
-0.26082149
-0.0054588255
-0.2599704
-0.005545498
-0.25911129
-0.0056031912
-0.25824837
-0.0056322025
-0.25738582
-0.0056331082
-0.25652767
-0.00560676
-0.25567778
-0.0055542864
-0.25483982
-0.0054770534
-0.2540172
-0.0053766633
-0.25321306
-0.0052549134
-0.25243024
-0.0051137637
-0.25167125
-0.0049552981
-0.25093829
-0.0047816828
-0.25023319
-0.0045951361
-0.24955745
-0.004397869
-0.24891227
-0.0041920691
-0.24829848
-0.0039798566
-0.24771665
-0.0037632573
-0.24716705
-0.0035441762
-0.24664968
-0.0033243843
-0.24616433
-0.0031054883
-0.24571056
-0.0028889342
-0.24528776
-0.0026759928
-0.24489517
-0.0024677575
-0.2445319
-0.0022651441
-0.24419697
-0.0020688983
-0.24388932
-0.0018795919
-0.24360785
-0.0016976419
-0.24335143
-0.0015233174
-0.24311894
-0.0013567554
-0.24290928
-0.0011979753
-0.24272142
-0.0010469024
-0.24255436
-0.00090340251
-0.24240726
-0.00076734206
-0.24227944
-0.00063856746
-0.24217047
-0.00051682152
-0.24207995
-0.00040191879
-0.24201081
-0.00027385878
-0.2419611
-0.00018042966
-8.5889988e-05
-0.26188513
0.0010883577
-0.26194522
0.00095257579
-0.26198496
0.00080836257
-0.26200361
0.00065593054
-0.26200067
0.00049641419
-0.26197585
0.00033133009
-0.261929
0.00016246855
-0.26186018
-8.1504937e-06
-0.26176967
-0.00017836293
-0.261658
-0.00034590259
-0.26152597
-0.0005084205
-0.26137466
-0.00066354382
-0.26120545
-0.0008088605
-0.26101999
-0.00094200989
-0.26082024
-0.0010606653
-0.26060843
-0.0011626175
-0.26038705
-0.0012457547
-0.26015883
-0.0013081649
-0.25992674
-0.0013480941
-0.25969392
-0.0013640598
-0.25946366
-0.0013547973
-0.25923939
-0.0013193724
-0.25902459
-0.0012571163
-0.25882281
-0.0011677318
-0.25863755
-0.0010512213
-0.25847228
-0.0009079775
-0.25833036
-0.00073871103
-0.25821499
-0.00054451784
-0.25812919
-0.00032680775
-0.25807572
-8.7363725e-05
-0.25805708
0.00017173348
-0.25807543
0.00044813656
-0.25813259
0.00073921148
-0.25822999
0.0010420766
-0.25836866
0.0013536553
-0.25854922
0.0016706493
-0.25877181
0.0019896631
-0.25903614
0.0023071419
-0.25934145
0.0026195261
-0.25968652
0.002923159
-0.26006966
0.003214479
-0.26048874
0.0034898932
-0.26094118
0.0037459804
-0.26142399
0.0039794088
-0.26193377
0.0041870386
-0.26246675
0.0043659413
-0.26301883
0.0045134383
-0.26358559
0.0046271453
-0.26416235
0.0047049879
-0.26474422
0.0047452516
-0.26532612
0.0047465998
-0.26590285
0.0047081007
-0.26646914
0.0046292444
-0.26701973
0.0045099672
-0.26754938
0.0043506402
-0.26805295
0.00415209
-0.2685255
0.0039155829
-0.26896228
0.0036428125
-0.26935883
0.0033358762
-0.26971102
0.0029972515
-0.27001509
0.0026297433
-0.27026771
0.0022364528
-0.27046598
0.0018207202
-0.2706075
0.0013860644
-0.27069034
0.00093615033
-0.27071307
0.00047464311
-0.27067475
5.2414162e-06
-0.27057496
-0.00046834709
-0.27041372
-0.000942499
-0.2701915
-0.0014137016
-0.26990921
-0.0018786269
-0.26956816
-0.0023341248
-0.26917
-0.0027772409
-0.26871675
-0.0032052126
-0.26821074
-0.0036154756
-0.26765458
-0.0040056545
-0.26705115
-0.0043735554
-0.26640359
-0.0047171568
-0.26571527
-0.0050346179
-0.26498978
-0.0053242587
-0.26423088
-0.0055845949
-0.26344253
-0.0058143342
-0.26262884
-0.0060123995
-0.26179403
-0.0061779533
-0.26094244
-0.0063104171
-0.26007844
-0.0064094984
-0.25920642
-0.0064752082
-0.25833075
-0.0065078759
-0.2574557
-0.006508157
-0.25658543
-0.00647703
-0.25572392
-0.0064157987
-0.25487493
-0.0063260454
-0.25404196
-0.0062096301
-0.25322823
-0.0060686411
-0.25243664
-0.0059053561
-0.25166974
-0.0057221971
-0.25092974
-0.0055216805
-0.2502185
-0.0053063808
-0.24953751
-0.0050788621
-0.24888792
-0.0048416575
-0.24827056
-0.004597219
-0.24768593
-0.0043478858
-0.24713425
-0.0040958532
-0.24661548
-0.0038431589
-0.24612932
-0.0035916471
-0.24567528
-0.0033429738
-0.24525268
-0.0030985902
-0.2448607
-0.0028597409
-0.24449838
-0.0026274635
-0.24416468
-0.0024025979
-0.24385849
-0.0021857817
-0.24357866
-0.0019774718
-0.24332402
-0.0017779514
-0.24309343
-0.0015873454
-0.24288577
-0.001405636
-0.24269999
-0.001232689
-0.24253511
-0.0010682809
-0.24239031
-0.00091214046
-0.24226495
-0.00076392305
-0.24215859
-0.00062319068
-0.24207091
-0.00048959364
-0.24200506
-0.00033970534
-0.24195877
-0.00022672021
-0.00010921333
-0.26202411
0.0011728579
-0.26208908
0.0010175433
-0.26213337
0.00085264941
-0.26215606
0.00067862402
-0.2621565
0.00049685685
-0.26213425
0.00030907312
-0.26208904
0.00011726699
-0.26202088
-7.63156e-05
-0.26192997
-0.00026927004
-0.26181681
-0.00045906611
-0.26168216
-0.00064307224
-0.2615271
-0.00081860409
-0.261353
-0.00098295599
-0.26116155
-0.0011334583
-0.26095474
-0.0012674759
-0.26073485
-0.0013825106
-0.26050444
-0.0014761665
-0.26026633
-0.0015462759
-0.26002357
-0.0015908476
-0.25977943
-0.0016081997
-0.25953733
-0.0015968949
-0.25930083
-0.0015558735
-0.25907357
-0.0014843758
-0.25885924
-0.0013820667
-0.25866151
-0.0012489506
-0.25848401
-0.0010854782
-0.25833026
-0.00089246058
-0.25820363
-0.00067114885
-0.25810728
-0.00042315215
-0.25804415
-0.00015049513
-0.25801686
0.00014444087
-0.2580277
0.00045897477
-0.25807861
0.00079012045
-0.25817112
0.0011345932
-0.25830637
0.0014889043
-0.25848503
0.0018493055
-0.25870731
0.002211943
-0.25897295
0.0025727864
-0.25928123
0.0029277987
-0.2596309
0.003272837
-0.26002029
0.0036038656
-0.26044721
0.0039168157
-0.26090905
0.0042078127
-0.26140272
0.0044730832
-0.26192475
0.0047090711
-0.26247127
0.0049124585
-0.26303804
0.0050802089
-0.26362051
0.0052096178
-0.26421385
0.0052983299
-0.264813
0.0053443959
-0.26541269
0.0053462938
-0.26600755
0.0053029592
-0.26659211
0.0052138059
-0.2671609
0.0050787544
-0.26770848
0.0048982198
-0.26822953
0.0046731364
-0.26871888
0.0044049406
-0.26917163
0.0040955578
-0.26958313
0.0037473761
-0.2699491
0.0033632196
-0.27026564
0.0029462885
-0.27052931
0.0025001231
-0.27073713
0.0020285373
-0.27088662
0.0015355499
-0.27097581
0.0010253411
-0.27100326
0.00050209966
-0.27096807
-2.9951832e-05
-0.27086981
-0.0005666055
-0.27070856
-0.0011037474
-0.27048486
-0.0016374053
-0.27019967
-0.0021638143
-0.26985437
-0.0026794227
-0.26945071
-0.0031809059
-0.26899076
-0.0036651599
-0.26847693
-0.0041293071
-0.2679119
-0.0045706829
-0.26729863
-0.0049868254
-0.26664033
-0.0053754635
-0.26594042
-0.0057345241
-0.26520257
-0.006062108
-0.26443064
-0.0063565286
-0.26362866
-0.0066163086
-0.26280085
-0.0068402079
-0.26195155
-0.0070272528
-0.26108521
-0.0071767616
-0.26020633
-0.0072883773
-0.25931945
-0.0073620905
-0.25842907
-0.0073982586
-0.25753961
-0.0073976163
-0.25665536
-0.0073612728
-0.25578045
-0.0072907146
-0.25491874
-0.0071877525
-0.25407385
-0.0070545188
-0.25324908
-0.0068934102
-0.2524474
-0.0067070416
-0.2516714
-0.0064981931
-0.25092333
-0.0062697513
-0.25020505
-0.0060246668
-0.24951803
-0.0057658746
-0.24886342
-0.0054962699
-0.24824199
-0.0052186508
-0.24765419
-0.0049356814
-0.24710019
-0.0046498573
-0.24657986
-0.0043634892
-0.24609284
-0.0040786636
-0.24563857
-0.0037972491
-0.24521628
-0.0035208775
-0.24482508
-0.0032509435
-0.24446394
-0.0029886037
-0.24413175
-0.002734788
-0.24382733
-0.0024901947
-0.24354949
-0.0022553141
-0.24329701
-0.002030436
-0.24306869
-0.0018156653
-0.24286339
-0.0016109387
-0.24268002
-0.0014160513
-0.24251763
-0.0012306767
-0.24237537
-0.001054398
-0.2422526
-0.00088668848
-0.24214887
-0.00072692738
-0.24206392
-0.00057453851
-0.24200092
-0.00040270475
-0.24195724
-0.00027040631
-0.00013100064
-0.26218446
0.0012629666
-0.26225482
0.0010878981
-0.26230406
0.0009018948
-0.26233111
0.00070567188
-0.26233514
0.00050088914
-0.26231557
0.00028950449
-0.26227205
7.3742773e-05
-0.26220447
-0.00014389891
-0.26211298
-0.00036075962
-0.26199802
-0.00057402569
-0.26186033
-0.00078076363
-0.26170096
-0.00097796817
-0.2615213
-0.0011626144
-0.26132305
-0.0013317096
-0.26110824
-0.0014822914
-0.2608792
-0.0016115526