/*--------------------------------*- C++ -*----------------------------------*\
| =========                 |                                                 |
| \\      /  F ield         | foam-extend: Open Source CFD                    |
|  \\    /   O peration     | Version:     4.1                                |
|   \\  /    A nd           | Web:         http://www.foam-extend.org         |
|    \\/     M anipulation  |                                                 |
\*---------------------------------------------------------------------------*/
FoamFile
{
    version     2.0;
    format      ascii;
    class       volScalarField;
    location    "0.95";
    object      rAU;
}
// * * * * * * * * * * * * * * * * * * * * * * * * * * * * * * * * * * * * * //

dimensions      [0 0 1 0 0 0 0];

internalField   nonuniform List<scalar> 
16796
(
0.00012823212
0.00012800233
0.00012780144
0.00012760656
0.00012741812
0.000127239
0.00012706857
0.00012690914
0.00012675973
0.00012662231
0.00012649557
0.00012638119
0.00012627757
0.00012618604
0.00012610471
0.00012603461
0.00012597353
0.00012592221
0.00012587813
0.00012584177
0.00012581036
0.00012578415
0.00012576016
0.00012573845
0.0001257159
0.00012569247
0.00012566497
0.00012563333
0.00012559439
0.00012554813
0.00012549152
0.0001254243
0.00012534519
0.00012525184
0.00012514482
0.00012502172
0.00012488344
0.000124728
0.0001245567
0.00012436798
0.00012416359
0.00012394255
0.0001237065
0.00012345588
0.00012319185
0.00012291566
0.00012262871
0.0001223327
0.00012202924
0.00012172021
0.00012140753
0.00012109319
0.00012077919
0.00012046767
0.00012016055
0.00011985988
0.00011956758
0.00011928552
0.00011901544
0.00011875911
0.00011851793
0.00011829333
0.00011808656
0.00011789868
0.00011773062
0.00011758309
0.00011745676
0.00011735195
0.00011726894
0.00011720783
0.00011716855
0.00011715085
0.00011715089
0.00011715446
0.00011717882
0.00011722372
0.00011728891
0.00011737376
0.00011747751
0.0001175989
0.00011773677
0.00011788975
0.00011805637
0.00011823511
0.00011842437
0.00011862252
0.00011882788
0.00011903878
0.0001192535
0.00011947033
0.00011968774
0.000119904
0.0001201176
0.00012032707
0.00012053102
0.00012072817
0.0001209173
0.00012109747
0.00012126764
0.00012142703
0.00012157498
0.00012171094
0.00012183447
0.00012194539
0.00012204341
0.00012212851
0.00012220072
0.00012226019
0.00012230709
0.00012234183
0.00012236465
0.00012237599
0.00012236614
0.00012234604
0.00012231654
0.00012227831
0.00012223179
0.00012217758
0.00012211636
0.0001220491
0.00012197721
0.00012190065
0.00012181804
0.000121704
0.00011620261
0.00011608591
0.00011600657
0.00011593459
0.0001158683
0.00011580951
0.00011575725
0.00011571343
0.00011567699
0.00011564967
0.00011563019
0.00011562008
0.0001156178
0.00011562465
0.00011563885
0.00011566143
0.00011569038
0.00011572649
0.00011576751
0.00011580482
0.00011584475
0.00011589016
0.00011593859
0.00011599047
0.0001160432
0.00011609703
0.00011614923
0.00011619996
0.00011624642
0.00011628451
0.00011630418
0.0001163143
0.00011631384
0.00011630079
0.00011627586
0.00011623694
0.00011618504
0.0001161184
0.00011603837
0.00011594356
0.00011583569
0.00011571387
0.00011557969
0.00011543355
0.00011527655
0.00011510982
0.00011493465
0.00011475258
0.00011456506
0.00011437376
0.00011418043
0.00011398684
0.00011379476
0.00011360612
0.00011342264
0.00011324614
0.00011307833
0.0001129209
0.00011277538
0.00011264337
0.0001125261
0.00011242487
0.00011234077
0.00011227477
0.00011222768
0.00011220013
0.00011219273
0.00011220573
0.0001122394
0.0001122938
0.0001123499
0.00011240494
0.00011247728
0.00011255402
0.00011265087
0.00011276697
0.00011290149
0.00011305369
0.00011322293
0.00011340828
0.00011360892
0.00011382388
0.00011405207
0.00011429237
0.00011454355
0.00011480434
0.00011507341
0.00011534939
0.00011563088
0.00011591643
0.00011620472
0.00011649426
0.00011678368
0.00011707167
0.00011735692
0.00011763823
0.00011791441
0.00011818451
0.00011844747
0.00011870245
0.00011894871
0.00011918558
0.0001194125
0.00011962913
0.00011983505
0.00012003004
0.00012021398
0.00012038682
0.00012054855
0.0001206994
0.00012083942
0.00012096887
0.00012107805
0.00012117738
0.00012126746
0.00012134877
0.00012142165
0.00012148659
0.00012153411
0.00012157247
0.00012160656
0.00012163414
0.00012165875
0.00012167232
0.00011483411
0.00011476198
0.00011472739
0.00011470346
0.00011468743
0.00011468036
0.00011468073
0.00011468997
0.00011470657
0.00011473184
0.00011476412
0.00011480453
0.00011485116
0.00011490495
0.00011496379
0.00011502602
0.00011507336
0.00011512652
0.00011518338
0.00011523555
0.00011528938
0.00011534789
0.00011540879
0.0001154726
0.00011553691
0.00011560214
0.00011566576
0.00011572814
0.00011578669
0.00011583756
0.00011587093
0.00011587304
0.00011585767
0.00011582824
0.00011578586
0.00011572884
0.00011565862
0.00011557384
0.00011547628
0.00011536494
0.00011524193
0.00011510668
0.00011496111
0.00011480591
0.00011464237
0.00011447186
0.00011429579
0.0001141158
0.00011393339
0.00011375028
0.00011356814
0.0001133887
0.00011321362
0.0001130447
0.00011288348
0.00011273158
0.00011259052
0.00011246172
0.00011234648
0.00011224613
0.00011216166
0.00011209406
0.00011204417
0.00011201268
0.00011200013
0.00011200691
0.00011203336
0.00011207952
0.00011214545
0.00011220749
0.00011223368
0.0001122577
0.00011230141
0.00011236467
0.00011244744
0.00011254952
0.00011267052
0.00011280993
0.00011296726
0.00011314167
0.00011333245
0.00011353868
0.00011375934
0.00011399336
0.00011423956
0.0001144967
0.00011476346
0.00011503848
0.00011532034
0.00011560759
0.00011589886
0.00011619261
0.00011648742
0.0001167819
0.00011707466
0.00011736441
0.00011764987
0.00011792999
0.00011820359
0.00011846975
0.00011872759
0.00011897637
0.00011921541
0.0001194443
0.00011966249
0.00011986971
0.00012006574
0.00012025049
0.00012042386
0.00012058605
0.00012073705
0.0001208771
0.00012100645
0.00012112539
0.00012123423
0.00012133342
0.00012142323
0.00012150409
0.00012156628
0.00012161759
0.00012166232
0.00012168846
0.00012171005
0.00012171741
0.00011463791
0.00011458315
0.00011456152
0.00011455045
0.00011454775
0.00011455449
0.000114569
0.00011459256
0.0001146235
0.000114663
0.00011470923
0.00011476318
0.00011482285
0.00011488903
0.00011493189
0.00011497736
0.00011500908
0.0001150481
0.00011509263
0.00011514367
0.00011519921
0.00011526006
0.000115324
0.00011539168
0.00011546068
0.0001155315
0.0001156016
0.00011567132
0.00011573807
0.00011580212
0.00011586083
0.000115884
0.0001158581
0.00011581719
0.00011576252
0.00011569257
0.00011560892
0.00011551042
0.00011539899
0.00011527385
0.00011513727
0.00011498887
0.00011483075
0.00011466376
0.00011448937
0.00011430907
0.00011412441
0.00011393715
0.00011374889
0.00011356141
0.00011337646
0.00011319581
0.00011302114
0.00011285426
0.0001126967
0.00011255006
0.00011241581
0.00011229533
0.00011218986
0.00011210064
0.00011202858
0.00011197458
0.00011193939
0.00011192359
0.00011192761
0.00011195172
0.00011199616
0.00011206084
0.00011214571
0.00011215836
0.00011214388
0.00011214908
0.00011217436
0.00011221979
0.0001122854
0.0001123711
0.0001124766
0.00011260147
0.00011274532
0.00011290738
0.00011308698
0.00011328327
0.00011349528
0.00011372199
0.00011396222
0.00011421477
0.00011447833
0.00011475153
0.00011503294
0.00011532105
0.00011561448
0.00011591162
0.00011621098
0.00011651109
0.0001168105
0.00011710779
0.0001174016
0.00011769078
0.00011797404
0.00011825036
0.00011851876
0.0001187784
0.00011902849
0.00011926854
0.00011949792
0.00011971627
0.00011992333
0.00012011889
0.00012030286
0.00012047534
0.0001206363
0.00012078596
0.00012092451
0.00012105225
0.00012116944
0.00012127653
0.00012137376
0.00012146152
0.00012154005
0.00012160943
0.00012166987
0.00012171283
0.00012174327
0.00012174195
0.00011456777
0.00011452111
0.00011450553
0.00011450016
0.00011450334
0.00011451629
0.00011453735
0.00011456775
0.00011460576
0.00011465249
0.00011470604
0.00011476732
0.00011482999
0.00011486654
0.00011488113
0.0001149025
0.00011493071
0.00011496706
0.00011500982
0.00011506008
0.00011511589
0.00011517811
0.00011524459
0.00011531595
0.00011538984
0.00011546671
0.00011554401
0.00011562207
0.0001156982
0.00011577262
0.00011584259
0.00011590059
0.00011587553
0.00011582458
0.00011575906
0.00011567756
0.00011558181
0.00011547076
0.00011534652
0.00011520842
0.00011505889
0.00011489773
0.00011472717
0.00011454823
0.00011436252
0.00011417167
0.00011397738
0.00011378151
0.0001135858
0.00011339212
0.00011320231
0.00011301822
0.00011284158
0.00011267426
0.00011251782
0.00011237387
0.0001122439
0.00011212926
0.00011203117
0.00011195084
0.00011188911
0.00011184683
0.00011182465
0.00011182307
0.00011184243
0.00011188286
0.0001119445
0.00011202716
0.0001121155
0.00011207238
0.00011203856
0.00011202484
0.00011203173
0.0001120594
0.000112108
0.00011217751
0.00011226775
0.00011237838
0.00011250907
0.00011265914
0.00011282798
0.00011301478
0.00011321863
0.00011343853
0.00011367335
0.00011392188
0.00011418282
0.0001144548
0.00011473634
0.00011502592
0.0001153221
0.0001156232
0.00011592769
0.00011623398
0.00011654053
0.00011684586
0.00011714848
0.00011744714
0.00011774045
0.00011802728
0.00011830655
0.00011857732
0.00011883871
0.00011909013
0.00011933088
0.00011956052
0.00011977872
0.00011998522
0.00012017986
0.00012036271
0.0001205337
0.00012069301
0.00012084083
0.0001209774
0.00012110298
0.00012121801
0.00012132271
0.00012141743
0.00012150237
0.00012157766
0.00012164351
0.0001217041
0.000121747
0.00012174814
0.00011450306
0.00011446199
0.00011445132
0.00011445078
0.000114459
0.00011447734
0.00011450416
0.00011454068
0.00011458513
0.00011463856
0.00011469899
0.00011476728
0.00011479616
0.00011479643
0.00011480418
0.00011482101
0.00011484551
0.00011487905
0.00011492
0.0001149695
0.00011502568
0.00011508943
0.00011515863
0.00011523394
0.000115313
0.00011539627
0.00011548116
0.00011556795
0.00011565391
0.00011573918
0.00011582092
0.00011589883
0.00011589431
0.0001158334
0.00011575706
0.000115664
0.00011555605
0.00011543233
0.00011529505
0.00011514371
0.00011498091
0.00011480658
0.00011462312
0.00011443169
0.00011423408
0.00011403204
0.00011382742
0.00011362222
0.00011341828
0.00011321759
0.00011302209
0.00011283371
0.00011265427
0.00011248568
0.00011232954
0.00011218749
0.00011206104
0.00011195155
0.0001118602
0.00011178817
0.00011173626
0.00011170525
0.00011169572
0.00011170807
0.00011174254
0.00011179917
0.00011187796
0.0001119786
0.00011204578
0.00011197239
0.00011191894
0.00011188608
0.00011187446
0.00011188434
0.00011191598
0.00011196942
0.0001120446
0.00011214124
0.00011225911
0.00011239755
0.00011255604
0.00011273382
0.00011293
0.00011314362
0.00011337358
0.00011361867
0.00011387759
0.00011414893
0.00011443123
0.00011472289
0.00011502242
0.00011532808
0.00011563824
0.00011595125
0.00011626548
0.00011657931
0.00011689118
0.00011719971
0.00011750342
0.00011780105
0.00011809145
0.00011837355
0.00011864639
0.0001189093
0.00011916148
0.00011940244
0.00011963177
0.00011984916
0.00012005441
0.00012024753
0.00012042844
0.00012059728
0.00012075422
0.00012089951
0.00012103338
0.00012115628
0.00012126842
0.00012137014
0.00012146168
0.00012154321
0.00012161494
0.00012168165
0.00012172896
0.00012173964
0.00011443198
0.00011439497
0.00011438856
0.00011439251
0.00011440554
0.00011442908
0.00011446153
0.00011450408
0.00011455494
0.0001146151
0.00011468252
0.00011473201
0.00011472066
0.00011471479
0.00011471711
0.00011472932
0.00011475007
0.00011478086
0.0001148201
0.00011486902
0.0001149258
0.00011499138
0.00011506367
0.00011514335
0.00011522806
0.00011531824
0.00011541129
0.00011550742
0.00011560384
0.00011570061
0.00011579479
0.00011588597
0.00011591451
0.00011584377
0.00011575667
0.000115652
0.00011553174
0.00011539511
0.00011524451
0.00011507956
0.00011490302
0.000114715
0.00011451805
0.0001143135
0.00011410328
0.00011388931
0.00011367358
0.00011345822
0.00011324522
0.00011303668
0.00011283465
0.00011264113
0.00011245805
0.00011228736
0.00011213074
0.00011198986
0.00011186623
0.00011176123
0.00011167603
0.00011161178
0.00011156924
0.00011154913
0.00011155195
0.00011157803
0.0001116275
0.00011170028
0.00011179627
0.00011191503
0.00011195242
0.00011185869
0.00011178536
0.0001117332
0.00011170298
0.00011169504
0.00011170976
0.00011174727
0.00011180757
0.00011189047
0.0001119958
0.00011212298
0.00011227152
0.00011244072
0.00011262973
0.00011283761
0.00011306326
0.00011330551
0.00011356302
0.00011383439
0.00011411809
0.0001144125
0.00011471605
0.00011502693
0.00011534343
0.00011566381
0.00011598631
0.00011630924
0.00011663091
0.00011694983
0.00011726441
0.00011757329
0.00011787519
0.00011816897
0.00011845357
0.00011872821
0.00011899204
0.00011924448
0.00011948506
0.00011971344
0.00011992933
0.00012013275
0.00012032356
0.00012050189
0.0001206679
0.0001208218
0.00012096385
0.00012109449
0.00012121393
0.00012132253
0.00012142057
0.00012150831
0.00012158594
0.00012165913
0.00012171187
0.00012173023
0.0001143524
0.00011431905
0.00011431666
0.00011432501
0.00011434286
0.00011437168
0.00011440988
0.00011445864
0.00011451613
0.00011458329
0.00011465802
0.00011465918
0.0001146371
0.00011462496
0.00011462173
0.00011462923
0.00011464622
0.00011467425
0.00011471185
0.00011476031
0.00011481785
0.00011488547
0.00011496111
0.00011504548
0.00011513621
0.00011523373
0.0001153354
0.00011544138
0.00011554881
0.00011565766
0.00011576488
0.00011586994
0.00011593748
0.00011585692
0.00011575896
0.00011564253
0.0001155097
0.00011535985
0.00011519551
0.00011501649
0.00011482567
0.00011462336
0.00011441226
0.00011419387
0.00011397029
0.00011374361
0.00011351595
0.00011328961
0.0001130667
0.00011284944
0.00011264001
0.00011244052
0.00011225297
0.00011207939
0.00011192152
0.00011178107
0.00011165959
0.00011155845
0.00011147884
0.00011142188
0.00011138828
0.00011137872
0.00011139364
0.00011143326
0.00011149763
0.00011158655
0.00011169981
0.00011183682
0.00011184628
0.00011173178
0.00011163823
0.00011156652
0.00011151752
0.0001114917
0.00011148949
0.00011151113
0.0001115567
0.00011162608
0.00011171915
0.00011183539
0.00011197436
0.00011213541
0.00011231771
0.00011252036
0.00011274226
0.00011298224
0.00011323897
0.00011351099
0.00011379675
0.00011409456
0.00011440279
0.00011471955
0.00011504305
0.00011537141
0.00011570281
0.00011603541
0.00011636741
0.00011669722
0.00011702312
0.00011734364
0.00011765741
0.00011796317
0.00011825977
0.00011854636
0.000118822
0.00011908604
0.00011933797
0.00011957737
0.00011980395
0.00012001766
0.00012021836
0.00012040615
0.00012058118
0.00012074367
0.00012089388
0.00012103224
0.00012115899
0.00012127452
0.00012137915
0.0001214732
0.00012155688
0.00012163694
0.00012169562
0.00012172164
0.0001142645
0.00011423424
0.0001142355
0.00011424805
0.00011427062
0.0001143047
0.00011434868
0.00011440374
0.00011446801
0.00011454239
0.00011460707
0.00011457372
0.00011454444
0.00011452578
0.00011451684
0.0001145195
0.00011453265
0.00011455793
0.00011459393
0.00011464203
0.00011470052
0.00011477043
0.00011484975
0.00011493919
0.00011503638
0.00011514174
0.00011525258
0.00011536902
0.00011548811
0.00011560973
0.00011573073
0.00011585043
0.00011595697
0.00011587344
0.00011576455
0.00011563618
0.00011549051
0.00011532709
0.00011514857
0.00011495493
0.00011474924
0.00011453196
0.00011430598
0.00011407297
0.00011383521
0.00011359494
0.00011335446
0.00011311623
0.00011288248
0.00011265559
0.00011243785
0.00011223148
0.00011203858
0.00011186127
0.00011170134
0.00011156057
0.00011144054
0.00011134265
0.00011126807
0.00011121791
0.00011119287
0.00011119355
0.00011122034
0.00011127337
0.0001113526
0.00011145771
0.00011158838
0.00011174387
0.0001117276
0.00011159186
0.00011147771
0.00011138616
0.00011131819
0.00011127436
0.00011125521
0.00011126103
0.00011129199
0.00011134802
0.00011142908
0.00011153469
0.00011166446
0.00011181777
0.00011199384
0.00011219176
0.00011241048
0.00011264879
0.00011290536
0.0001131787
0.00011346721
0.00011376913
0.00011408277
0.00011440614
0.00011473734
0.00011507441
0.00011541537
0.0001157583
0.00011610126
0.00011644254
0.0001167803
0.00011711296
0.00011743903
0.00011775715
0.00011806609
0.00011836489
0.00011865255
0.00011892837
0.00011919176
0.00011944227
0.00011967955
0.00011990355
0.0001201141
0.00012031128
0.00012049525
0.00012066622
0.00012082447
0.00012097044
0.00012110441
0.00012122679
0.00012133797
0.00012143834
0.00012152816
0.00012161527
0.00012168013
0.00012171364
0.00011416791
0.00011414052
0.00011414525
0.00011416188
0.00011418914
0.00011422851
0.00011427839
0.00011433992
0.00011441121
0.00011449311
0.00011452616
0.00011448026
0.00011444349
0.00011441805
0.00011440315
0.00011440081
0.00011440999
0.00011443245
0.00011446686
0.00011451467
0.00011457423
0.00011464663
0.00011472989
0.00011482472
0.00011492878
0.00011504244
0.00011516299
0.00011529047
0.00011542188
0.00011555696
0.00011569246
0.00011582756
0.00011596029
0.00011589429
0.00011577433
0.00011563376
0.00011547492
0.00011529748
0.00011510426
0.0001148954
0.00011467415
0.00011444116
0.00011419949
0.00011395101
0.00011369816
0.00011344338
0.00011318913
0.00011293803
0.00011269247
0.00011245498
0.00011222797
0.00011201378
0.00011181461
0.0001116327
0.00011146989
0.00011132803
0.00011120874
0.00011111345
0.00011104334
0.00011099951
0.00011098262
0.00011099326
0.00011103171
0.00011109804
0.00011119212
0.00011131351
0.00011146176
0.00011163599
0.00011159645
0.00011143894
0.00011130376
0.00011119204
0.00011110486
0.00011104288
0.00011100672
0.00011099674
0.00011101318
0.00011105603
0.0001111253
0.00011122056
0.00011134147
0.00011148744
0.00011165772
0.00011185143
0.0001120675
0.00011230474
0.00011256179
0.00011283711
0.00011312906
0.00011343582
0.0001137556
0.00011408632
0.00011442596
0.00011477245
0.00011512369
0.00011547762
0.00011583219
0.00011618553
0.0001165357
0.000116881
0.00011721981
0.00011755069
0.00011787229
0.00011818359
0.00011848352
0.00011877129
0.00011904628
0.00011930798
0.00011955604
0.00011979035
0.00012001074
0.00012021729
0.00012041015
0.00012058955
0.00012075577
0.00012090929
0.00012105041
0.00012117959
0.0001212973
0.00012140396
0.00012149996
0.00012159422
0.00012166529
0.00012170608
0.00011406261
0.00011403775
0.00011404569
0.00011406624
0.00011409811
0.00011414277
0.00011419861
0.00011426676
0.00011434528
0.00011443498
0.00011443266
0.00011437826
0.00011433362
0.00011430108
0.00011427996
0.00011427239
0.00011427746
0.000114297
0.00011432979
0.00011437735
0.00011443811
0.00011451321
0.00011460068
0.00011470127
0.00011481263
0.0001149351
0.00011506594
0.00011520513
0.00011534955
0.00011549887
0.0001156497
0.00011580106
0.00011595083
0.00011592014
0.00011578893
0.00011563589
0.00011546349
0.00011527153
0.00011506302
0.00011483828
0.00011460072
0.00011435119
0.00011409295
0.00011382807
0.00011355916
0.00011328886
0.00011301981
0.0001127548
0.00011249639
0.00011224726
0.00011200996
0.00011178696
0.00011158059
0.00011139316
0.00011122662
0.00011108288
0.00011096361
0.00011087028
0.00011080409
0.00011076612
0.00011075703
0.00011077735
0.0001108273
0.00011090689
0.00011101585
0.00011115367
0.00011131973
0.00011151304
0.000111453
0.00011127313
0.00011111644
0.00011098417
0.0001108775
0.00011079719
0.00011074391
0.00011071812
0.0001107201
0.0001107499
0.00011080758
0.00011089276
0.00011100514
0.00011114415
0.00011130909
0.00011149907
0.00011171306
0.00011194983
0.000112208
0.000112486
0.00011278213
0.00011309448
0.00011342118
0.00011376003
0.00011410891
0.00011446561
0.0001148279
0.00011519358
0.00011556044
0.00011592651
0.0001162897
0.00011664818
0.00011700023
0.00011734429
0.00011767893
0.00011800305
0.00011831548
0.0001186154
0.00011890211
0.00011917511
0.00011943397
0.0001196786
0.0001199088
0.00012012466
0.00012032633
0.00012051406
0.00012068815
0.00012084912
0.00012099729
0.0001211332
0.00012125735
0.00012137027
0.00012147242
0.00012157383
0.00012165105
0.00012169889
0.00011394839
0.00011392585
0.00011393682
0.00011396116
0.00011399759
0.00011404757
0.00011410948
0.00011418442
0.00011427044
0.00011436828
0.00011433139
0.00011426805
0.00011421513
0.00011417511
0.00011414744
0.00011413437
0.00011413511
0.00011415158
0.00011418269
0.00011423001
0.00011429205
0.00011437
0.00011446193
0.00011456862
0.0001146877
0.00011481949
0.00011496121
0.00011511275
0.00011527093
0.00011543529
0.0001156023
0.00011577084
0.00011593859
0.00011595188
0.0001158092
0.00011564334
0.00011545691
0.00011524988
0.00011502542
0.00011478403
0.00011452933
0.00011426236
0.00011398659
0.00011370428
0.00011341826
0.00011313136
0.00011284641
0.00011256638
0.00011229402
0.00011203215
0.00011178349
0.00011155064
0.00011133606
0.00011114216
0.000110971
0.00011082456
0.00011070458
0.00011061255
0.00011054971
0.00011051715
0.0001105155
0.00011054524
0.00011060656
0.00011069936
0.00011082329
0.00011097772
0.00011116189
0.00011137466
0.00011129714
0.00011109429
0.00011091556
0.00011076232
0.00011063585
0.00011053698
0.00011046647
0.00011042483
0.00011041239
0.00011042926
0.00011047553
0.00011055088
0.00011065503
0.00011078746
0.00011094747
0.00011113423
0.00011134667
0.00011158357
0.00011184353
0.00011212492
0.00011242597
0.0001127447
0.00011307913
0.00011342695
0.0001137859
0.00011415363
0.00011452777
0.00011490597
0.00011528588
0.00011566537
0.00011604222
0.00011641447
0.00011678029
0.000117138
0.00011748607
0.00011782333
0.00011814853
0.00011846081
0.00011875942
0.00011904381
0.00011931354
0.0001195685
0.0001198085
0.00012003362
0.00012024403
0.00012044
0.00012062186
0.00012079016
0.00012094528
0.0001210878
0.0001212183
0.00012133739
0.00012144564
0.0001215541
0.00012163735
0.00012169201
0.00011382509
0.00011380459
0.00011381837
0.00011384636
0.00011388729
0.0001139426
0.00011401068
0.0001140926
0.00011418637
0.00011429269
0.00011422213
0.00011414932
0.00011408765
0.00011403972
0.00011400513
0.00011398624
0.00011398239
0.00011399562
0.00011402493
0.00011407199
0.00011413538
0.00011421633
0.00011431299
0.00011442611
0.00011455335
0.00011469499
0.0001148482
0.00011501282
0.00011518555
0.00011536581
0.00011554994
0.00011573664
0.00011592342
0.00011599035
0.00011583593
0.00011565686
0.00011545589
0.00011523315
0.000114992
0.00011473313
0.00011446038
0.00011417498
0.00011388062
0.00011357978
0.00011327551
0.00011297084
0.00011266881
0.00011237258
0.00011208508
0.00011180932
0.00011154816
0.00011130437
0.00011108052
0.00011087917
0.00011070247
0.00011055248
0.00011043103
0.00011033965
0.0001102796
0.00011025199
0.00011025743
0.00011029638
0.00011036896
0.000110475
0.00011061404
0.00011078531
0.00011098795
0.00011122064
0.00011112895
0.0001109024
0.00011070106
0.00011052639
0.00011037977
0.0001102621
0.0001101742
0.00011011665
0.0001100898
0.00011009382
0.00011012884
0.00011019458
0.00011029079
0.00011041699
0.0001105725
0.00011075651
0.00011096795
0.00011120561
0.00011146802
0.00011175353
0.00011206029
0.00011238623
0.00011272924
0.0001130869
0.00011345681
0.00011383645
0.00011422331
0.00011461487
0.00011500862
0.00011540228
0.00011579348
0.00011618014
0.00011656027
0.00011693212
0.00011729405
0.00011764479
0.00011798306
0.00011830791
0.00011861856
0.00011891444
0.00011919509
0.0001194604
0.00011971016
0.00011994448
0.00012016354
0.00012036764
0.00012055715
0.00012073265
0.00012089458
0.00012104359
0.00012118032
0.00012130546
0.00012141967
0.00012153506
0.00012162417
0.00012168541
0.00011369254
0.00011367383
0.00011369022
0.00011372174
0.00011376711
0.00011382779
0.00011390214
0.00011399123
0.00011409304
0.00011419871
0.000114105
0.00011402216
0.0001139512
0.00011389488
0.00011385293
0.00011382784
0.00011381909
0.00011382885
0.00011385621
0.00011390294
0.0001139677
0.0001140518
0.00011415339
0.00011427328
0.00011440911
0.00011456114
0.00011472649
0.00011490491
0.00011509303
0.00011529011
0.00011549235
0.00011569828
0.00011590521
0.00011603646
0.00011586999
0.00011567725
0.00011546116
0.00011522201
0.00011496335
0.00011468609
0.00011439427
0.00011408936
0.00011377528
0.00011345472
0.00011313097
0.00011280729
0.00011248691
0.00011217322
0.00011186933
0.00011157844
0.00011130358
0.00011104769
0.00011081349
0.00011060364
0.00011042043
0.00011026603
0.0001101423
0.00011005088
0.00010999305
0.00010996994
0.00010998215
0.0001100301
0.00011011386
0.00011023318
0.0001103875
0.00011057593
0.00011079743
0.00011105055
0.00011094827
0.00011069728
0.0001104727
0.0001102761
0.00011010894
0.0001099722
0.00010986675
0.00010979319
0.00010975194
0.00010974318
0.0001097671
0.00010982343
0.00010991198
0.00011003228
0.0001101837
0.00011036544
0.00011057644
0.00011081545
0.00011108101
0.0001113714
0.00011168467
0.00011201868
0.00011237118
0.00011273961
0.00011312141
0.00011351391
0.00011391441
0.00011432021
0.00011472865
0.00011513728
0.00011554357
0.00011594529
0.00011634034
0.00011672685
0.00011710308
0.00011746768
0.0001178193
0.00011815695
0.00011847982
0.0001187873
0.00011907892
0.00011935457
0.00011961406
0.0001198575
0.00012008511
0.00012029722
0.00012049424
0.00012067679
0.00012084539
0.00012100072
0.00012114352
0.00012127456
0.0001213946
0.00012151673
0.00012161151
0.00012167909
0.0001135505
0.00011353332
0.00011355211
0.00011358701
0.00011363677
0.00011370283
0.00011378358
0.00011388005
0.00011399021
0.00011408601
0.00011397992
0.00011388642
0.00011380558
0.0001137403
0.00011369049
0.00011365878
0.00011364477
0.00011365077
0.00011367599
0.0001137223
0.00011378844
0.00011387578
0.00011398254
0.00011410953
0.0001142544
0.00011441738
0.00011459554
0.00011478855
0.00011499293
0.00011520782
0.00011542924
0.00011565555
0.00011588384
0.00011608568
0.00011591237
0.00011570545
0.00011547357
0.00011521723
0.00011494016
0.0001146435
0.00011433152
0.00011400592
0.00011367087
0.00011332931
0.00011298476
0.00011264072
0.00011230064
0.00011196813
0.00011164652
0.00011133919
0.00011104937
0.00011078016
0.00011053443
0.00011031501
0.00011012429
0.00010996454
0.00010983775
0.00010974559
0.0001096894
0.00010967033
0.00010968899
0.00010974576
0.00010984066
0.00010997336
0.00011014319
0.00011034912
0.00011058997
0.00011086411
0.00011075506
0.00011047882
0.00011023033
0.00011001126
0.00010982316
0.00010966704
0.00010954382
0.00010945416
0.00010939848
0.000109377
0.00010938993
0.00010943704
0.00010951817
0.00010963291
0.00010978064
0.00010996056
0.00011017166
0.00011041267
0.00011068208
0.00011097812
0.00011129876
0.00011164173
0.00011200468
0.00011238486
0.00011277955
0.0001131859
0.00011360102
0.00011402203
0.00011444606
0.00011487051
0.00011529267
0.00011571016
0.00011612077
0.00011652248
0.00011691348
0.00011729233
0.00011765761
0.0001180083
0.00011834354
0.00011866272
0.00011896535
0.00011925134
0.0001195205
0.00011977298
0.00012000903
0.00012022901
0.00012043337
0.00012062281
0.00012079788
0.00012095936
0.00012110805
0.0001212448
0.00012137047
0.00012149913
0.00012159936
0.00012167303
0.00011339882
0.00011338288
0.00011340386
0.000113442
0.00011349608
0.00011356756
0.00011365481
0.00011375889
0.00011387772
0.00011396505
0.00011384696
0.00011374208
0.00011365069
0.00011357585
0.00011351761
0.00011347877
0.00011345909
0.000113461
0.00011348384
0.00011352958
0.00011359707
0.00011368774
0.00011379987
0.00011393428
0.00011408863
0.00011426313
0.0001144548
0.00011466322
0.00011488479
0.00011511853
0.00011536028
0.0001156082
0.00011585916
0.00011610872
0.00011596407
0.00011574239
0.000115494
0.0001152196
0.00011492313
0.00011460597
0.00011427262
0.00011392507
0.00011356771
0.00011320376
0.00011283699
0.00011247114
0.00011210992
0.00011175716
0.0001114164
0.00011109125
0.00011078513
0.0001105013
0.00011024283
0.00011001269
0.0001098134
0.00010964736
0.00010951665
0.00010942303
0.00010936789
0.00010935241
0.0001093772
0.00010944263
0.00010954865
0.00010969486
0.00010988047
0.00011010433
0.00011036507
0.00011066088
0.00011054913
0.00011024677
0.00010997366
0.00010973156
0.00010952206
0.00010934625
0.00010920507
0.00010909917
0.00010902903
0.00010899486
0.00010899691
0.00010903497
0.00010910893
0.0001092184
0.00010936281
0.00010954139
0.00010975313
0.00010999677
0.00011027075
0.00011057325
0.00011090214
0.00011125504
0.00011162943
0.00011202241
0.00011243106
0.00011285233
0.00011328312
0.00011372034
0.00011416094
0.00011460211
0.00011504098
0.000115475
0.00011590183
0.00011631932
0.00011672557
0.00011711907
0.00011749834
0.0001178623
0.00011821008
0.00011854104
0.00011885473
0.00011915103
0.00011942981
0.00011969122
0.00011993556
0.00012016324
0.00012037477
0.0001205709
0.00012075225
0.00012091966
0.00012107402
0.00012121627
0.00012134736
0.00012148231
0.00012158775
0.00012166724
0.00011323724
0.00011322226
0.00011324518
0.00011328641
0.00011334474
0.00011342166
0.00011351556
0.00011362747
0.0001137553
0.00011383698
0.00011370607
0.00011358906
0.00011348638
0.00011340128
0.00011333399
0.00011328747
0.00011326164
0.00011325906
0.00011327923
0.00011332423
0.00011339301
0.00011348707
0.00011360475
0.0001137469
0.0001139112
0.00011409781
0.00011430371
0.0001145284
0.00011476816
0.00011502186
0.00011528516
0.00011555602
0.00011583106
0.00011610558
0.00011602623
0.00011578915
0.00011552345
0.00011523003
0.00011491308
0.0001145742
0.00011421819
0.00011384728
0.00011346617
0.00011307833
0.00011268781
0.00011229861
0.0001119147
0.00011154015
0.00011117875
0.0001108343
0.00011051045
0.00011021065
0.00010993815
0.00010969608
0.00010948712
0.00010931379
0.00010917828
0.00010908245
0.00010902775
0.0001090154
0.00010904603
0.00010911997
0.00010923714
0.00010939704
0.00010959877
0.00010984103
0.00011012229
0.00011044051
0.00011033034
0.00011000095
0.00010970245
0.00010943671
0.00010920536
0.00010900952
0.00010885014
0.00010872789
0.00010864322
0.00010859639
0.00010858764
0.0001086168
0.00010868379
0.00010878828
0.00010892973
0.00010910742
0.00010932035
0.00010956725
0.00010984655
0.00011015634
0.00011049442
0.00011085824
0.00011124514
0.00011165203
0.00011207578
0.0001125131
0.00011296069
0.00011341522
0.00011387342
0.00011433228
0.00011478874
0.00011524009
0.00011568383
0.00011611772
0.00011653974
0.0001169483
0.00011734187
0.00011771934
0.00011807982
0.00011842266
0.00011874741
0.000119054
0.00011934229
0.00011961251
0.00011986499
0.00012010019
0.00012031869