/*--------------------------------*- C++ -*----------------------------------*\
| =========                 |                                                 |
| \\      /  F ield         | foam-extend: Open Source CFD                    |
|  \\    /   O peration     | Version:     4.1                                |
|   \\  /    A nd           | Web:         http://www.foam-extend.org         |
|    \\/     M anipulation  |                                                 |
\*---------------------------------------------------------------------------*/
FoamFile
{
    version     2.0;
    format      ascii;
    class       volVectorField;
    location    "0.95";
    object      U;
}
// * * * * * * * * * * * * * * * * * * * * * * * * * * * * * * * * * * * * * //

dimensions      [0 1 -1 0 0 0 0];

internalField   nonuniform List<vector> 
16796
(
(140.23153 -0.11718089 0)
(140.56206 -0.12429666 0)
(140.81858 -0.12250463 0)
(141.07214 -0.11879906 0)
(141.31388 -0.11414254 0)
(141.54208 -0.10897123 0)
(141.75542 -0.10348882 0)
(141.95304 -0.097825418 0)
(142.13439 -0.092083291 0)
(142.29919 -0.086353638 0)
(142.44744 -0.080722497 0)
(142.57935 -0.07527327 0)
(142.69539 -0.070086722 0)
(142.79629 -0.065241177 0)
(142.88298 -0.060811988 0)
(142.95666 -0.056871467 0)
(143.0187 -0.053488852 0)
(143.07072 -0.050728899 0)
(143.11449 -0.048648831 0)
(143.15196 -0.047297393 0)
(143.18525 -0.046710247 0)
(143.21658 -0.046913328 0)
(143.24828 -0.047924931 0)
(143.28272 -0.049752958 0)
(143.32236 -0.052396479 0)
(143.36962 -0.05584603 0)
(143.42693 -0.060083532 0)
(143.49665 -0.065084167 0)
(143.58106 -0.070815753 0)
(143.68232 -0.077237306 0)
(143.80246 -0.084297977 0)
(143.94331 -0.091934185 0)
(144.10654 -0.1000731 0)
(144.29356 -0.10863384 0)
(144.50554 -0.11752762 0)
(144.74338 -0.12665992 0)
(145.00768 -0.13593074 0)
(145.29875 -0.1452364 0)
(145.61659 -0.15447047 0)
(145.96086 -0.16352539 0)
(146.33092 -0.17229348 0)
(146.72579 -0.18066852 0)
(147.14419 -0.18854687 0)
(147.58452 -0.1958291 0)
(148.04489 -0.20242116 0)
(148.52313 -0.20823574 0)
(149.01683 -0.21319349 0)
(149.52334 -0.21722424 0)
(150.03981 -0.22026798 0)
(150.56322 -0.22227575 0)
(151.09042 -0.22321039 0)
(151.61814 -0.22304712 0)
(152.14307 -0.22177387 0)
(152.66186 -0.21939142 0)
(153.17118 -0.21591337 0)
(153.66774 -0.2113658 0)
(154.14837 -0.20578678 0)
(154.60999 -0.19922565 0)
(155.0497 -0.19174204 0)
(155.46479 -0.1834048 0)
(155.85276 -0.17429067 0)
(156.21137 -0.16448284 0)
(156.53863 -0.15406948 0)
(156.83283 -0.14314206 0)
(157.09257 -0.13179371 0)
(157.31672 -0.12011784 0)
(157.50447 -0.10820479 0)
(157.6553 -0.096140218 0)
(157.76898 -0.084003366 0)
(157.84556 -0.071865051 0)
(157.88534 -0.059759602 0)
(157.8889 -0.047674497 0)
(157.85705 -0.035524513 0)
(157.79064 -0.023193461 0)
(157.68949 -0.010835169 0)
(157.55466 0.0012258656 0)
(157.38763 0.012751885 0)
(157.19025 0.02358218 0)
(156.96462 0.033604646 0)
(156.71305 0.042742281 0)
(156.43802 0.050940726 0)
(156.14209 0.058160657 0)
(155.82794 0.06437409 0)
(155.49833 0.069562866 0)
(155.15602 0.073718162 0)
(154.80384 0.076840444 0)
(154.44459 0.078939519 0)
(154.08105 0.080034562 0)
(153.71595 0.080154002 0)
(153.35193 0.079335252 0)
(152.99154 0.077624214 0)
(152.6372 0.075074634 0)
(152.29118 0.071747247 0)
(151.95559 0.067708747 0)
(151.63236 0.063030653 0)
(151.32323 0.057788074 0)
(151.02973 0.052058435 0)
(150.75317 0.045920188 0)
(150.49468 0.039451579 0)
(150.25516 0.032729504 0)
(150.0353 0.025828441 0)
(149.83562 0.01881954 0)
(149.65642 0.01176987 0)
(149.49784 0.0047418064 0)
(149.35987 -0.002207374 0)
(149.24232 -0.009025702 0)
(149.1449 -0.015666523 0)
(149.0672 -0.022088101 0)
(149.0087 -0.028253664 0)
(148.96881 -0.034129335 0)
(148.94686 -0.03968358 0)
(148.94214 -0.044882507 0)
(148.9539 -0.049687889 0)
(148.98118 -0.054108861 0)
(149.0232 -0.058164109 0)
(149.0792 -0.061835034 0)
(149.1484 -0.06507862 0)
(149.22992 -0.067823869 0)
(149.32276 -0.069915523 0)
(149.42664 -0.071032049 0)
(149.54125 -0.07084375 0)
(149.66573 -0.070207974 0)
(149.78319 -0.067382209 0)
(149.87158 -0.053251697 0)
(159.63297 -0.2185495 0)
(159.79231 -0.22798724 0)
(159.90511 -0.22293112 0)
(160.01212 -0.21334879 0)
(160.10882 -0.2012063 0)
(160.19383 -0.18745364 0)
(160.26596 -0.17259197 0)
(160.32436 -0.15696251 0)
(160.36843 -0.1408449 0)
(160.39778 -0.12449602 0)
(160.41227 -0.10816415 0)
(160.41198 -0.092094931 0)
(160.39723 -0.076531077 0)
(160.36854 -0.061713502 0)
(160.32666 -0.047877802 0)
(160.27258 -0.035251032 0)
(160.20747 -0.024046861 0)
(160.13273 -0.014461831 0)
(160.04992 -0.0066734289 0)
(159.96078 -0.00083660326 0)
(159.86713 0.0029003366 0)
(159.77096 0.0044097617 0)
(159.67439 0.0035936456 0)
(159.57961 0.00038075342 0)
(159.48889 -0.0052685234 0)
(159.40454 -0.013360359 0)
(159.32886 -0.023868097 0)
(159.26412 -0.036730125 0)
(159.21255 -0.051849618 0)
(159.17627 -0.069093329 0)
(159.15726 -0.088296086 0)
(159.15727 -0.10927171 0)
(159.17791 -0.13181013 0)
(159.22058 -0.15567607 0)
(159.28645 -0.18061225 0)
(159.37642 -0.20634166 0)
(159.49116 -0.23257035 0)
(159.63102 -0.25899171 0)
(159.79605 -0.28528912 0)
(159.98603 -0.31114078 0)
(160.20038 -0.33622287 0)
(160.43824 -0.36021458 0)
(160.69842 -0.3828014 0)
(160.97944 -0.40368007 0)
(161.27952 -0.42256216 0)
(161.59661 -0.43917818 0)
(161.92839 -0.45328132 0)
(162.2723 -0.46465098 0)
(162.6256 -0.47309594 0)
(162.98534 -0.47845717 0)
(163.34843 -0.48061027 0)
(163.71167 -0.47946739 0)
(164.07179 -0.47497862 0)
(164.42546 -0.46713283 0)
(164.76936 -0.45595794 0)
(165.10022 -0.44152045 0)
(165.41483 -0.42392447 0)
(165.71009 -0.40331002 0)
(165.98308 -0.37985072 0)
(166.23101 -0.35375097 0)
(166.45135 -0.3252425 0)
(166.64179 -0.29458049 0)
(166.80025 -0.26203958 0)
(166.92499 -0.22790919 0)
(167.01449 -0.1924889 0)
(167.06759 -0.15608546 0)
(167.0834 -0.11900078 0)
(167.06134 -0.081531763 0)
(167.0011 -0.04397458 0)
(166.90274 -0.0066214304 0)
(166.76655 0.030264096 0)
(166.59313 0.066455567 0)
(166.38326 0.10179627 0)
(166.1383 0.13621046 0)
(165.86106 0.16950307 0)
(165.55352 0.20133743 0)
(165.21753 0.23143288 0)
(164.85496 0.25956601 0)
(164.46773 0.28555288 0)
(164.05786 0.30924228 0)
(163.62747 0.33050976 0)
(163.17878 0.34925426 0)
(162.71409 0.36539663 0)
(162.23577 0.37887942 0)
(161.74624 0.38966738 0)
(161.24795 0.39774821 0)
(160.74335 0.40313328 0)
(160.23488 0.40585815 0)
(159.72494 0.40598265 0)
(159.21588 0.40359049 0)
(158.70996 0.39878836 0)
(158.20933 0.39170442 0)
(157.71603 0.38248627 0)
(157.23195 0.37129846 0)
(156.75883 0.35831957 0)
(156.29824 0.34373901 0)
(155.85159 0.32775373 0)
(155.42007 0.31056471 0)
(155.00473 0.29237365 0)
(154.60641 0.27337977 0)
(154.22579 0.25377684 0)
(153.86336 0.23375048 0)
(153.51944 0.21347592 0)
(153.19421 0.19311602 0)
(152.88771 0.17281974 0)
(152.59983 0.15272107 0)
(152.33035 0.13293826 0)
(152.07895 0.11357366 0)
(151.84523 0.094713606 0)
(151.62871 0.076428347 0)
(151.42884 0.058775778 0)
(151.24503 0.041808789 0)
(151.07666 0.025575495 0)
(150.92329 0.010093429 0)
(150.78427 -0.004655014 0)
(150.65889 -0.01867266 0)
(150.54639 -0.031952155 0)
(150.44596 -0.044456645 0)
(150.35677 -0.056000934 0)
(150.27864 -0.066121911 0)
(150.21089 -0.074484389 0)
(150.15266 -0.083849573 0)
(150.09403 -0.089365239 0)
(150.03102 -0.07552117 0)
(161.86708 -0.28038284 0)
(161.94048 -0.27821099 0)
(161.97588 -0.26665285 0)
(162.00072 -0.25025545 0)
(162.01366 -0.2306587 0)
(162.01464 -0.20885001 0)
(162.00338 -0.1854679 0)
(161.97974 -0.16099829 0)
(161.94374 -0.13586204 0)
(161.89558 -0.11045507 0)
(161.83564 -0.085163574 0)
(161.76449 -0.060371371 0)
(161.68286 -0.036459326 0)
(161.59166 -0.013804627 0)
(161.49198 0.0072275953 0)
(161.38506 0.026289339 0)
(161.2723 0.043049652 0)
(161.15519 0.057185182 0)
(161.0354 0.0684134 0)
(160.91466 0.076483764 0)
(160.79489 0.081180481 0)
(160.67801 0.082317818 0)
(160.56596 0.079753677 0)
(160.46071 0.073390612 0)
(160.3642 0.063177171 0)
(160.27831 0.049112238 0)
(160.20489 0.031244323 0)
(160.14568 0.0096747147 0)
(160.10233 -0.015442421 0)
(160.07634 -0.043901161 0)
(160.06909 -0.075444101 0)
(160.0819 -0.10977317 0)
(160.11583 -0.14655101 0)
(160.17176 -0.18539874 0)
(160.25035 -0.22590298 0)
(160.35203 -0.26761836 0)
(160.47698 -0.31007267 0)
(160.62515 -0.35277333 0)
(160.79621 -0.39521148 0)
(160.98958 -0.43686981 0)
(161.20442 -0.47722731 0)
(161.43963 -0.51576734 0)
(161.69386 -0.55198293 0)
(161.96553 -0.58538449 0)
(162.25279 -0.61550578 0)
(162.55361 -0.6419105 0)
(162.86574 -0.66419844 0)
(163.18673 -0.68201123 0)
(163.51401 -0.69503765 0)
(163.84483 -0.70301828 0)
(164.17638 -0.70574966 0)
(164.50573 -0.70308747 0)
(164.82993 -0.694949 0)
(165.146 -0.68131465 0)
(165.45097 -0.66222841 0)
(165.74196 -0.63779727 0)
(166.01612 -0.60818966 0)
(166.27075 -0.57363271 0)
(166.50328 -0.53440857 0)
(166.71132 -0.49084967 0)
(166.89267 -0.44333318 0)
(167.04535 -0.3922746 0)
(167.16763 -0.33812119 0)
(167.258 -0.28134425 0)
(167.31524 -0.22243183 0)
(167.3384 -0.16188456 0)
(167.32677 -0.10018954 0)
(167.27991 -0.037832641 0)
(167.19765 0.024687146 0)
(167.08011 0.086884453 0)
(166.92764 0.14827588 0)
(166.74087 0.20838814 0)
(166.52067 0.26679833 0)
(166.26809 0.32310083 0)
(165.9843 0.3769843 0)
(165.67069 0.42820427 0)
(165.32885 0.47650098 0)
(164.96051 0.52161705 0)
(164.56754 0.56331134 0)
(164.15194 0.60136502 0)
(163.71584 0.63558615 0)
(163.26146 0.66581272 0)
(162.79109 0.69191445 0)
(162.30713 0.71379449 0)
(161.812 0.73139121 0)
(161.30816 0.74467978 0)
(160.79808 0.75367363 0)
(160.28422 0.75842536 0)
(159.76899 0.75902695 0)
(159.25476 0.75560918 0)
(158.7438 0.74834012 0)
(158.23828 0.73742269 0)
(157.74026 0.72309134 0)
(157.25163 0.70560799 0)
(156.77416 0.68525733 0)
(156.30941 0.66234158 0)
(155.8588 0.63717515 0)
(155.42355 0.61007905 0)
(155.00469 0.58137553 0)
(154.60307 0.55138296 0)
(154.21935 0.52041107 0)
(153.85404 0.48875674 0)
(153.50745 0.45670031 0)
(153.17975 0.42450257 0)
(152.87096 0.39240224 0)
(152.58099 0.36061424 0)
(152.30959 0.32932837 0)
(152.05644 0.29870846 0)
(151.82112 0.26889254 0)
(151.60314 0.23999106 0)
(151.40195 0.21208979 0)
(151.21696 0.18525194 0)
(151.04753 0.159518 0)
(150.89299 0.13492292 0)
(150.75268 0.11149353 0)
(150.62594 0.089232882 0)
(150.51205 0.068127012 0)
(150.4103 0.048179168 0)
(150.32003 0.029520689 0)
(150.24108 0.012479874 0)
(150.17226 -0.0029379762 0)
(150.11296 -0.020788856 0)
(150.05941 -0.032986159 0)
(150.01646 -0.032000991 0)
(162.11249 -0.30529742 0)
(162.16691 -0.28853487 0)
(162.18959 -0.26745566 0)
(162.20089 -0.24273202 0)
(162.19992 -0.21514875 0)
(162.18693 -0.18545903 0)
(162.16189 -0.15429623 0)
(162.12486 -0.12221639 0)
(162.07596 -0.089734998 0)
(162.01551 -0.057350188 0)
(161.94394 -0.025551958 0)
(161.86186 0.0051721127 0)
(161.77004 0.034342025 0)
(161.66941 0.061489298 0)
(161.56106 0.086167844 0)
(161.44622 0.1079281 0)
(161.32626 0.12635797 0)
(161.2027 0.14108994 0)
(161.07716 0.15177886 0)
(160.95136 0.15812528 0)
(160.82712 0.15988198 0)
(160.7063 0.15685572 0)
(160.5908 0.14890866 0)
(160.48257 0.13596316 0)
(160.38353 0.11800386 0)
(160.29557 0.095078227 0)
(160.22053 0.06729757 0)
(160.16019 0.034836462 0)
(160.11619 -0.0020670327 0)
(160.09009 -0.043118652 0)
(160.08324 -0.087970208 0)
(160.09687 -0.13620874 0)
(160.13201 -0.18737342 0)
(160.18947 -0.24095461 0)
(160.26987 -0.29639647 0)
(160.37357 -0.35310854 0)
(160.5007 -0.41046747 0)
(160.65114 -0.46782715 0)
(160.82451 -0.5245236 0)
(161.02017 -0.57988471 0)
(161.23724 -0.63323607 0)
(161.47457 -0.68391094 0)
(161.73077 -0.73125672 0)
(162.00422 -0.77464456 0)
(162.29307 -0.81347677 0)
(162.59526 -0.84719511 0)
(162.90854 -0.87528852 0)
(163.23048 -0.89730042 0)
(163.5585 -0.91283557 0)
(163.8899 -0.92156613 0)
(164.22187 -0.923237 0)
(164.55153 -0.91767015 0)
(164.87594 -0.90476797 0)
(165.19216 -0.88451532 0)
(165.49726 -0.85698032 0)
(165.78836 -0.82231382 0)
(166.06264 -0.78074738 0)
(166.31743 -0.73258985 0)
(166.55014 -0.67822257 0)
(166.7584 -0.61809315 0)
(166.94 -0.55270813 0)
(167.09294 -0.48262446 0)
(167.21547 -0.40844065 0)
(167.30608 -0.33078611 0)
(167.36351 -0.25031286 0)
(167.38679 -0.16768463 0)
(167.37517 -0.083544456 0)
(167.32821 0.0014577166 0)
(167.24573 0.086659874 0)
(167.12783 0.17144136 0)
(166.97483 0.25518592 0)
(166.78729 0.33734402 0)
(166.56603 0.41736705 0)
(166.31205 0.4947172 0)
(166.02657 0.56890667 0)
(165.71099 0.63949932 0)
(165.36692 0.70608367 0)
(164.9961 0.768278 0)
(164.60043 0.82573644 0)
(164.18194 0.87815151 0)
(163.74277 0.92525545 0)
(163.28516 0.96682187 0)
(162.81146 1.0026675 0)
(162.32406 1.0326549 0)
(161.82542 1.0566947 0)
(161.31804 1.0747486 0)
(160.80441 1.0868315 0)
(160.28703 1.0930127 0)
(159.76833 1.093417 0)
(159.25072 1.0882234 0)
(158.7365 1.0776636 0)
(158.22787 1.0620182 0)
(157.7269 1.0416124 0)
(157.23553 1.0168103 0)
(156.75551 0.98800805 0)
(156.28846 0.95562691 0)
(155.83577 0.92010535 0)
(155.39868 0.88189148 0)
(154.97822 0.8414354 0)
(154.57524 0.79918209 0)
(154.1904 0.75556473 0)
(153.82418 0.71099887 0)
(153.4769 0.66587732 0)
(153.1487 0.620566 0)
(152.83961 0.57540062 0)
(152.54948 0.53068435 0)
(152.27809 0.48668633 0)
(152.02508 0.44364093 0)
(151.79002 0.40174804 0)
(151.5724 0.36117376 0)
(151.37166 0.32205147 0)
(151.18719 0.28448225 0)
(151.01834 0.24853733 0)
(150.86445 0.21427119 0)
(150.72485 0.18172867 0)
(150.59889 0.1509444 0)
(150.48585 0.12195355 0)
(150.38508 0.094836562 0)
(150.29602 0.069803197 0)
(150.21845 0.047171094 0)
(150.15085 0.027012548 0)
(150.09319 0.0049554556 0)
(150.04471 -0.0071640721 0)
(150.01109 -0.010162021 0)
(162.16115 -0.34363766 0)
(162.21397 -0.31653707 0)
(162.23709 -0.28667334 0)
(162.2488 -0.25369176 0)
(162.24796 -0.21797181 0)
(162.23479 -0.18009774 0)
(162.2093 -0.1406813 0)
(162.17155 -0.10032759 0)
(162.12171 -0.059634185 0)
(162.06007 -0.019197908 0)
(161.98707 0.020382695 0)
(161.90332 0.058509161 0)
(161.80957 0.094589707 0)
(161.70676 0.12804593 0)
(161.59595 0.15829162 0)
(161.47839 0.18479504 0)
(161.35547 0.20704355 0)
(161.2287 0.22456121 0)
(161.09973 0.23692356 0)
(160.9703 0.24375537 0)
(160.84224 0.24474427 0)
(160.71747 0.23964623 0)
(160.59794 0.22828793 0)
(160.48562 0.21057228 0)
(160.38248 0.18648143 0)
(160.29049 0.15607916 0)
(160.21152 0.11951209 0)
(160.1474 0.077010096 0)
(160.09985 0.028886486 0)
(160.07045 -0.024467625 0)
(160.06062 -0.082595725 0)
(160.07164 -0.14496686 0)
(160.10455 -0.21098183 0)
(160.16022 -0.27997918 0)
(160.23928 -0.3512401 0)
(160.34212 -0.42400399 0)
(160.46888 -0.49747055 0)
(160.61946 -0.57081311 0)
(160.79347 -0.64318468 0)
(160.99029 -0.71373043 0)
(161.20901 -0.78159501 0)
(161.44848 -0.84593508 0)
(161.7073 -0.90592713 0)
(161.98382 -0.96077939 0)
(162.27616 -1.0097408 0)
(162.58223 -1.052111 0)
(162.89975 -1.0872496 0)
(163.22626 -1.1145855 0)
(163.55913 -1.1336243 0)
(163.89561 -1.1439567 0)
(164.23284 -1.1452643 0)
(164.56789 -1.1373254 0)
(164.89777 -1.1200192 0)
(165.21948 -1.0933285 0)
(165.53004 -1.0573411 0)
(165.82649 -1.0122489 0)
(166.10599 -0.95834654 0)
(166.36577 -0.89602686 0)
(166.60322 -0.8257754 0)
(166.81589 -0.74816295 0)
(167.00154 -0.66383655 0)
(167.15813 -0.57350894 0)
(167.28386 -0.47794766 0)
(167.37721 -0.37796111 0)
(167.43689 -0.27439116 0)
(167.46191 -0.16808638 0)
(167.45152 -0.059885174 0)
(167.4053 0.049358506 0)
(167.32306 0.15879123 0)
(167.20493 0.26759163 0)
(167.05123 0.37498025 0)
(166.86257 0.48022478 0)
(166.63978 0.58263865 0)
(166.3839 0.68157451 0)
(166.09616 0.77643651 0)
(165.778 0.86667831 0)
(165.43102 0.95179093 0)
(165.05699 1.0313023 0)
(164.65785 1.104781 0)
(164.23563 1.1718393 0)
(163.7925 1.2321363 0)
(163.33074 1.2853814 0)
(162.85271 1.3313373 0)
(162.36086 1.369824 0)
(161.85768 1.400723 0)
(161.3457 1.4239806 0)
(160.82745 1.4396112 0)
(160.30548 1.4476998 0)
(159.78226 1.4484023 0)
(159.26024 1.4419448 0)
(158.74176 1.4286215 0)
(158.22905 1.4087898 0)
(157.72423 1.3828647 0)
(157.22924 1.3513111 0)
(156.74589 1.3146356 0)
(156.27578 1.2733765 0)
(155.82034 1.2280942 0)
(155.3808 1.1793613 0)
(154.9582 1.1277523 0)
(154.55338 1.0738348 0)
(154.16699 1.0181605 0)
(153.79951 0.96125802 0)
(153.45123 0.90362602 0)
(153.12228 0.84572798 0)
(152.81265 0.78798778 0)
(152.52221 0.73078674 0)
(152.25067 0.67446144 0)
(151.99768 0.6193027 0)
(151.76278 0.56555566 0)
(151.54544 0.51342051 0)
(151.34509 0.46305464 0)
(151.16108 0.41457485 0)
(150.99278 0.36806022 0)
(150.83951 0.32355998 0)
(150.7006 0.28109931 0)
(150.57539 0.24068407 0)
(150.46321 0.20231697 0)
(150.36348 0.16604423 0)
(150.2757 0.13200514 0)
(150.19964 0.10037179 0)
(150.13381 0.071198757 0)
(150.07902 0.039433418 0)
(150.03585 0.019791568 0)
(150.00837 0.0061196093 0)
(162.20536 -0.36835396 0)
(162.25901 -0.33225761 0)
(162.2839 -0.29369876 0)
(162.29748 -0.25227788 0)
(162.29827 -0.20826848 0)
(162.28637 -0.16218806 0)
(162.26176 -0.11465036 0)
(162.22448 -0.066309487 0)
(162.1747 -0.017839405 0)
(162.11269 0.030070826 0)
(162.03891 0.076724819 0)
(161.95394 0.12142292 0)
(161.85856 0.16347553 0)
(161.75367 0.20218072 0)
(161.64039 0.23688635 0)
(161.51995 0.26695083 0)
(161.39378 0.2917721 0)
(161.26341 0.31079884 0)
(161.13052 0.32353332 0)
(160.9969 0.32954322 0)
(160.86443 0.32847093 0)
(160.73506 0.32003952 0)
(160.61081 0.30405901 0)
(160.4937 0.28043131 0)
(160.38577 0.24915365 0)
(160.28902 0.21032161 0)
(160.20542 0.16412942 0)
(160.13685 0.11087062 0)
(160.08507 0.050934934 0)
(160.05173 -0.015188503 0)
(160.03833 -0.086931014 0)
(160.04617 -0.16364198 0)
(160.07636 -0.2445859 0)
(160.1298 -0.32896743 0)
(160.20717 -0.4159194 0)
(160.30889 -0.504525 0)
(160.43512 -0.59382242 0)
(160.58579 -0.68281851 0)
(160.76052 -0.7704976 0)
(160.95869 -0.85583571 0)
(161.1794 -0.9378092 0)
(161.42148 -1.0154097 0)
(161.68353 -1.0876533 0)
(161.96387 -1.1535944 0)
(162.26059 -1.2123366 0)
(162.57156 -1.2630442 0)
(162.89446 -1.3049532 0)
(163.22678 -1.337382 0)
(163.56583 -1.359741 0)
(163.90879 -1.3715419 0)
(164.25276 -1.3724048 0)
(164.59471 -1.3620657 0)
(164.93159 -1.3403812 0)
(165.26032 -1.307332 0)
(165.57784 -1.263025 0)
(165.88112 -1.2076925 0)
(166.16724 -1.1416904 0)
(166.43336 -1.0654931 0)
(166.67679 -0.97968718 0)
(166.89504 -0.88496242 0)
(167.0858 -0.78210079 0)
(167.24698 -0.67196387 0)
(167.37676 -0.55547943 0)
(167.47356 -0.43362413 0)
(167.53609 -0.30741668 0)
(167.56334 -0.17787459 0)
(167.55457 -0.046018266 0)
(167.50936 0.087117157 0)
(167.42753 0.22051366 0)
(167.30921 0.35317279 0)
(167.15477 0.48414729 0)
(166.96482 0.61253495 0)
(166.74021 0.73748901 0)
(166.48201 0.85821388 0)
(166.1915 0.97397233 0)
(165.87014 1.0840843 0)
(165.51955 1.1879217 0)
(165.14156 1.2849067 0)
(164.73809 1.3745127 0)
(164.31124 1.4562668 0)
(163.86321 1.5297523 0)
(163.3963 1.5946124 0)
(162.91292 1.6505545 0)
(162.41556 1.6973554 0)
(161.90675 1.7348662 0)
(161.38907 1.7630177 0)
(160.86512 1.7818247 0)
(160.33747 1.7913885 0)
(159.80867 1.7918989 0)
(159.28121 1.7836329 0)
(158.75748 1.7669517 0)
(158.23977 1.7422957 0)
(157.73021 1.7101766 0)
(157.23082 1.6711686 0)
(156.74339 1.6258973 0)
(156.26958 1.5750281 0)
(155.81082 1.5192536 0)
(155.36835 1.4592814 0)
(154.94321 1.3958212 0)
(154.53623 1.329574 0)
(154.14806 1.2612213 0)
(153.77914 1.1914155 0)
(153.42976 1.120772 0)
(153.10003 1.0498628 0)
(152.7899 0.97921075 0)
(152.49921 0.90928654 0)
(152.22766 0.84050567 0)
(151.97485 0.77322738 0)
(151.7403 0.70775456 0)
(151.52346 0.6443346 0)
(151.32372 0.58316121 0)
(151.14042 0.52437739 0)
(150.9729 0.46807989 0)
(150.82047 0.41432548 0)
(150.68245 0.36313606 0)
(150.55818 0.31450456 0)
(150.44699 0.26841073 0)
(150.34834 0.22485659 0)
(150.26175 0.18388004 0)
(150.18696 0.14548782 0)
(150.12262 0.10963354 0)
(150.0702 0.070011072 0)
(150.03079 0.043255376 0)
(150.00695 0.019109871 0)
(162.26186 -0.4024871 0)
(162.31833 -0.35831208 0)
(162.34555 -0.31133811 0)
(162.36147 -0.26136922 0)
(162.36432 -0.20872275 0)
(162.3541 -0.15392619 0)
(162.33071 -0.097626563 0)
(162.29418 -0.040539903 0)
(162.24463 0.016575285 0)
(162.18234 0.072931846 0)
(162.10774 0.12772653 0)
(162.02141 0.1801472 0)
(161.92411 0.22937369 0)
(161.81678 0.27460782 0)
(161.70053 0.31506513 0)
(161.57664 0.3499944 0)
(161.44652 0.37869069 0)
(161.31178 0.40050178 0)
(161.17413 0.41484355 0)
(161.0354 0.42120825 0)
(160.89754 0.41917547 0)
(160.76257 0.4084205 0)
(160.63254 0.38872176 0)
(160.50958 0.35996679 0)
(160.39579 0.32215648 0)
(160.29324 0.27540863 0)
(160.20399 0.21995832 0)
(160.12997 0.15615895 0)
(160.07304 0.08447649 0)
(160.03492 0.0054971108 0)
(160.01717 -0.08009691 0)
(160.02115 -0.1715312 0)
(160.04805 -0.26792959 0)
(160.0988 -0.36833972 0)
(160.17414 -0.47172678 0)
(160.27452 -0.57699874 0)
(160.40015 -0.68301234 0)
(160.55095 -0.7885889 0)
(160.72658 -0.89252534 0)
(160.92643 -0.9936106 0)
(161.14959 -1.0906359 0)
(161.39488 -1.1824119 0)
(161.66087 -1.2677796 0)
(161.94586 -1.3456262 0)
(162.24791 -1.4148977 0)
(162.56484 -1.4746118 0)
(162.89427 -1.5238712 0)
(163.23362 -1.5618754 0)
(163.58015 -1.5879323 0)
(163.93097 -1.6014683 0)
(164.28306 -1.6020378 0)
(164.63335 -1.5893309 0)
(164.97867 -1.5631801 0)
(165.31587 -1.523564 0)
(165.64177 -1.4706104 0)
(165.95327 -1.4045956 0)
(166.24734 -1.3259426 0)
(166.52106 -1.2352155 0)
(166.77168 -1.1331121 0)
(166.9966 -1.0204535 0)
(167.19345 -0.89817134 0)
(167.3601 -0.76729293 0)
(167.49467 -0.62892483 0)
(167.59555 -0.48423245 0)
(167.66143 -0.33443156 0)
(167.69127 -0.1807351 0)
(167.68435 -0.024366013 0)
(167.64024 0.13344021 0)
(167.5588 0.29147621 0)
(167.44016 0.44856815 0)
(167.28473 0.60361304 0)
(167.09315 0.75555771 0)
(166.86631 0.90341129 0)
(166.6053 1.0462458 0)
(166.31144 1.1831981 0)
(165.98622 1.313469 0)
(165.63131 1.43632 0)
(165.24855 1.5510714 0)
(164.83991 1.6571032 0)
(164.40751 1.7538564 0)
(163.95359 1.8408364 0)
(163.4805 1.9176175 0)
(162.9907 1.9838485 0)
(162.48672 2.0392587 0)
(161.97114 2.0836655 0)
(161.44662 2.1169804 0)
(160.91579 2.1392148 0)
(160.38131 2.1504839 0)
(159.84579 2.1510088 0)
(159.31177 2.1411155 0)
(158.78171 2.1212315 0)
(158.25795 2.091879 0)
(157.74268 2.0536668 0)
(157.23795 2.0072782 0)
(156.74561 1.9534581 0)
(156.26731 1.8929988 0)
(155.80453 1.8267249 0)
(155.3585 1.7554781 0)
(154.93026 1.6801021 0)
(154.52065 1.6014294 0)
(154.13028 1.5202681 0)
(153.75961 1.437391 0)
(153.40886 1.3535258 0)
(153.07814 1.2693477 0)
(152.76736 1.1854732 0)
(152.47633 1.1024556 0)
(152.20471 1.0207826 0)
(151.95208 0.94087503 0)
(151.71792 0.86308651 0)
(151.50164 0.78770515 0)
(151.30262 0.71495563 0)
(151.12016 0.64500291 0)
(150.95359 0.57795728 0)
(150.8022 0.51388066 0)
(150.6653 0.45279294 0)
(150.54222 0.39468056 0)
(150.43231 0.33951303 0)
(150.33504 0.28726898 0)
(150.24994 0.2379334 0)
(150.17672 0.19145397 0)
(150.11417 0.1477842 0)
(150.06409 0.099300965 0)
(150.02758 0.064615003 0)
(150.00611 0.03030007 0)
(162.33228 -0.43208837 0)
(162.39182 -0.37992218 0)
(162.42149 -0.32456513 0)
(162.43978 -0.26599796 0)
(162.4447 -0.20463272 0)
(162.43614 -0.14105199 0)
(162.41393 -0.075960527 0)
(162.37804 -0.010147903 0)
(162.32858 0.055538848 0)
(162.2658 0.12021631 0)
(162.1901 0.18297416 0)
(162.10207 0.24289306 0)
(162.00246 0.29903572 0)
(161.89223 0.35049075 0)
(161.77248 0.39636388 0)
(161.64453 0.43579483 0)
(161.50983 0.46797639 0)
(161.37001 0.49216307 0)
(161.22684 0.50768625 0)
(161.08221 0.5139658 0)
(160.93814 0.51052247 0)
(160.7967 0.49698728 0)
(160.66004 0.47311066 0)
(160.53035 0.43876952 0)
(160.40983 0.39397206 0)
(160.30064 0.33886202 0)
(160.20491 0.27371886 0)
(160.12467 0.19895914 0)
(160.06187 0.11512933 0)
(160.01829 0.022914482 0)
(159.99559 -0.076884975 0)
(159.9952 -0.18336614 0)
(160.01837 -0.29551073 0)
(160.0661 -0.41221478 0)
(160.13916 -0.53228779 0)
(160.23808 -0.65446745 0)
(160.36307 -0.77743563 0)
(160.51411 -0.89983338 0)
(160.69087 -1.0202738 0)
(160.89273 -1.1373613 0)
(161.11879 -1.2497033 0)
(161.36786 -1.35593 0)
(161.63847 -1.4547063 0)
(161.92891 -1.5447509 0)
(162.23719 -1.6248495 0)
(162.56107 -1.6938705 0)
(162.89811 -1.7507796 0)
(163.24567 -1.7946538 0)
(163.60092 -1.8246943 0)
(163.96089 -1.8402383 0)
(164.32246 -1.8407705 0)
(164.68246 -1.8259315 0)
(165.03762 -1.7955259 0)
(165.38467 -1.7495272 0)
(165.72035 -1.6880812 0)
(166.04143 -1.6115058 0)
(166.34478 -1.5202888 0)
(166.62738 -1.4150823 0)
(166.88637 -1.2966936 0)
(167.11907 -1.166074 0)
(167.32305 -1.0243031 0)
(167.49609 -0.8725724 0)
(167.63626 -0.71216539 0)
(167.74191 -0.5444343 0)
(167.8117 -0.37078847 0)
(167.84458 -0.19263613 0)
(167.83983 -0.011398589 0)
(167.79701 0.1714942 0)
(167.71603 0.35464607 0)
(167.59702 0.53669241 0)
(167.44043 0.71634012 0)
(167.24694 0.89236627 0)
(167.01747 1.063623 0)
(166.75318 1.229039 0)
(166.4554 1.3876187 0)
(166.12567 1.5384402 0)
(165.7657 1.6806528 0)
(165.37736 1.8134735 0)
(164.96268 1.9361873 0)
(164.5238 2.0481482 0)
(164.06301 2.1487824 0)
(163.58271 2.2375936 0)
(163.08541 2.3141699 0)
(162.57369 2.3781917 0)
(162.05022 2.4294409 0)
(161.5177 2.4678086 0)
(160.97885 2.493303 0)
(160.4364 2.5060542 0)
(159.89303 2.5063173 0)
(159.35136 2.4944711 0)
(158.81392 2.471015 0)
(158.28312 2.4365607 0)
(157.76122 2.3918218 0)
(157.2503 2.3376002 0)
(156.75226 2.2747707 0)
(156.26879 2.2042634 0)
(155.80137 2.1270458 0)
(155.35126 2.0441047 0)
(154.91949 1.9564289 0)
(154.50688 1.8649922 0)
(154.11405 1.7707391 0)
(153.74141 1.6745711 0)
(153.38916 1.577336 0)
(153.05737 1.4798187 0)
(152.74592 1.3827338 0)
(152.45456 1.2867217 0)
(152.18294 1.1923444 0)
(151.93056 1.1000844 0)
(151.69689 1.0103451 0)
(151.4813 0.92345199 0)
(151.28311 0.83965483 0)
(151.10163 0.75913222 0)
(150.93612 0.68199633 0)
(150.78588 0.60829901 0)
(150.65018 0.53803841 0)
(150.52836 0.47116852 0)
(150.41977 0.40761398 0)
(150.32389 0.34728826 0)
(150.24024 0.29008725 0)
(150.16856 0.23587455 0)
(150.10772 0.18454817 0)
(150.0597 0.1271056 0)
(150.02541 0.084360964 0)
(150.00557 0.040367625 0)
(162.41595 -0.46729238 0)
(162.47962 -0.40715739 0)
(162.51216 -0.34330901 0)
(162.53314 -0.27588089 0)
(162.5404 -0.20539787 0)
(162.53369 -0.13252315 0)
(162.5128 -0.058039313 0)
(162.47763 0.017175449 0)
(162.42826 0.092177009 0)
(162.36489 0.16597449 0)
(162.28792 0.23754191 0)
(162.19792 0.30582854 0)
(162.09563 0.36978472 0)
(161.98202 0.42836464 0)
(161.85823 0.4805501 0)
(161.72557 0.52536209 0)
(161.58555 0.56187789 0)
(161.43985 0.58924646 0)
(161.29029 0.60670435 0)
(161.13883 0.61358865 0)
(160.98755 0.60935185 0)
(160.83863 0.59357255 0)
(160.69429 0.56596598 0)
(160.55683 0.52639225 0)
(160.42852 0.47486194 0)
(160.31165 0.41154093 0)
(160.20844 0.3367506 0)
(160.12102 0.25096924 0)
(160.05143 0.15482456 0)
(160.00156 0.049099294 0)
(159.97316 -0.065284111 0)
(159.96774 -0.18728913 0)
(159.98663 -0.31575388 0)
(160.03089 -0.44941016 0)
(160.10137 -0.58689216 0)
(160.19863 -0.72675239 0)
(160.32293 -0.86748189 0)
(160.47428 -1.0075266 0)
(160.65236 -1.1453017 0)
(160.85656 -1.279214 0)
(161.08599 -1.4076746 0)
(161.33943 -1.5291217 0)
(161.6154 -1.642034 0)
(161.91214 -1.7449513 0)
(162.22759 -1.8364904 0)
(162.55949 -1.915362 0)
(162.9053 -1.9803878 0)
(163.26231 -2.0305151 0)
(163.6276 -2.064833 0)
(163.99808 -2.0825847 0)
(164.37056 -2.0831811 0)
(164.74172 -2.0662109 0)
(165.1082 -2.0314494 0)
(165.46659 -1.9788655 0)
(165.8135 -1.9086246 0)
(166.14559 -1.8210903 0)
(166.45959 -1.7168212 0)
(166.75238 -1.596565 0)
(167.02097 -1.4612487 0)
(167.26261 -1.3119655 0)
(167.47474 -1.1499572 0)
(167.65509 -0.97659474 0)
(167.80166 -0.79335527 0)
(167.91274 -0.60179517 0)
(167.98698 -0.40353436 0)
(168.02329 -0.20019436 0)
(168.02097 0.0065894088 0)
(167.97958 0.21518171 0)
(167.89907 0.42398625 0)
(167.77959 0.63146153 0)
(167.62163 0.836148 0)
(167.42591 1.0366644 0)
(167.19341 1.2317132 0)
(166.92532 1.4200838 0)
(166.62303 1.6006511 0)
(166.28812 1.7723732 0)
(165.92234 1.9342878 0)
(165.52761 2.0855087 0)
(165.10598 2.2252241 0)
(164.65967 2.3526986 0)
(164.19099 2.4672754 0)
(163.70241 2.5683832 0)
(163.19649 2.6555444 0)
(162.67589 2.7283852 0)
(162.14333 2.7866463 0)
(161.6016 2.8301937 0)
(161.05351 2.8590277 0)
(160.50186 2.8732903 0)
(159.94944 2.873268 0)
(159.39895 2.859392 0)
(158.85301 2.8322339 0)
(158.3141 2.7924961 0)
(157.78455 2.7410002 0)
(157.2665 2.6786703 0)
(156.7619 2.6065149 0)
(156.27248 2.5256061 0)
(155.79973 2.4370587 0)
(155.34494 2.3420093 0)
(154.90913 2.2415947 0)
(154.49311 2.1369341 0)
(154.09747 2.0291108 0)
(153.72259 1.9191575 0)
(153.36865 1.8080438 0)
(153.03566 1.6966658 0)
(152.72348 1.5858381 0)
(152.43179 1.476289 0)
(152.1602 1.3686566 0)
(151.90818 1.2634876 0)
(151.67513 1.1612378 0)
(151.46038 1.0622733 0)
(151.26322 0.96687406 0)
(151.0829 0.87523783 0)
(150.91869 0.78748552 0)
(150.76982 0.7036672 0)
(150.63556 0.62376882 0)
(150.51523 0.54772156 0)
(150.40816 0.47541343 0)
(150.31383 0.40670087 0)
(150.23176 0.34140213 0)
(150.16168 0.27929858 0)
(150.10255 0.22019352 0)
(150.05637 0.15367606 0)
(150.02384 0.10290205 0)
(150.0052 0.049678052 0)
(162.51268 -0.50246117 0)
(162.58084 -0.4342365 0)
(162.61655 -0.36179577 0)
(162.64044 -0.28537409 0)
(162.65018 -0.20560594 0)
(162.64543 -0.12324624 0)
(162.62591 -0.039167173 0)
(162.59146 0.045654952 0)
(162.54209 0.13017547 0)
(162.47799 0.21329122 0)
(162.39953 0.29385753 0)
(162.30724 0.37069592 0)
(162.2019 0.4426318 0)
(162.08445 0.50849033 0)
(161.95606 0.56712511 0)
(161.81807 0.61743346 0)
(161.67203 0.65837501 0)
(161.51968 0.6889888 0)
(161.36289 0.70841248 0)
(161.20371 0.71589684 0)
(161.0443 0.71082261 0)
(160.88692 0.69271305 0)
(160.73392 0.66124602 0)
(160.58767 0.61626341 0)
(160.45058 0.55777769 0)
(160.32504 0.48597735 0)
(160.21338 0.40122721 0)
(160.11786 0.30406972 0)
(160.04063 0.1952179 0)
(159.98367 0.075555302 0)
(159.94885 -0.053868096 0)
(159.93777 -0.19187411 0)
(159.95184 -0.33715304 0)
(159.99222 -0.48826511 0)
(160.0598 -0.64367869 0)
(160.15521 -0.80176053 0)
(160.27876 -0.96081036 0)
(160.43048 -1.1190781 0)