/*--------------------------------*- C++ -*----------------------------------*\
| =========                 |                                                 |
| \\      /  F ield         | foam-extend: Open Source CFD                    |
|  \\    /   O peration     | Version:     4.1                                |
|   \\  /    A nd           | Web:         http://www.foam-extend.org         |
|    \\/     M anipulation  |                                                 |
\*---------------------------------------------------------------------------*/
FoamFile
{
    version     2.0;
    format      ascii;
    class       volScalarField;
    location    "0.7";
    object      p;
}
// * * * * * * * * * * * * * * * * * * * * * * * * * * * * * * * * * * * * * //

dimensions      [0 2 -2 0 0 0 0];

internalField   nonuniform List<scalar> 
16126
(
-5.8814744
-6.793856
-9.0833896
-11.605955
-14.283115
-17.065247
-19.933914
-22.882672
-25.910867
-29.020815
-32.216471
-35.502731
-38.885075
-42.369364
-45.961754
-49.66865
-53.496702
-57.452827
-61.544242
-65.778499
-70.163535
-74.707711
-79.419847
-84.309255
-89.385756
-94.659681
-100.14186
-105.84359
-111.77657
-117.95284
-124.38464
-131.08435
-138.06421
-145.33623
-152.91192
-160.80203
-169.01629
-177.56308
-186.44909
-195.67898
-205.25495
-215.17638
-225.43937
-236.03636
-246.95563
-258.18094
-269.69104
-281.45929
-293.45326
-305.63437
-317.95755
-330.37099
-342.81592
-355.22647
-367.52959
-379.6451
-391.48582
-402.95786
-413.96095
-424.38903
-434.13083
-443.07078
-451.08994
-458.06712
-463.8802
-468.40753
-471.52948
-473.13012
-473.09903
-471.33305
-467.73822
-462.23161
-454.74317
-445.21741
-433.61498
-419.91393
-404.11083
-386.2218
-366.28314
-344.35133
-320.50181
-294.82768
-267.44019
-238.47731
-208.09319
-176.44274
-143.68965
-110.00856
-75.579971
-40.587109
-5.2131651
30.361286
65.960623
101.41629
136.56859
171.26819
205.3773
238.7705
271.33532
302.97244
333.59571
363.13186
391.52028
418.71281
444.67225
469.36755
492.77768
514.89454
535.71715
555.25054
573.50565
590.49906
606.2527
620.79342
634.15217
646.36609
657.48971
667.61134
676.81812
685.05586
692.17592
699.1303
709.89546
726.67578
-4.1904252
-6.4277001
-8.9243636
-11.522624
-14.22676
-17.019619
-19.892362
-22.842135
-25.869789
-28.978344
-32.172102
-35.456141
-38.836036
-42.317695
-45.907293
-49.611234
-53.436162
-57.388979
-61.476882
-65.707406
-70.088471
-74.628422
-79.33607
-84.220724
-89.292206
-94.560861
-100.03754
-105.73357
-111.66069
-117.83099
-124.2568
-130.95056
-137.92461
-145.19106
-152.76155
-160.64695
-168.85715
-177.40067
-186.28439
-195.51311
-205.08924
-215.01233
-225.27868
-235.88091
-246.80752
-258.04243
-269.56457
-281.34748
-293.35888
-305.56031
-317.90683
-330.3467
-342.82122
-355.26451
-367.6035
-379.75795
-391.64055
-403.15723
-414.20748
-424.68492
-434.47796
-443.47059
-451.54337
-458.57458
-464.44147
-469.02173
-472.19504
-473.84472
-473.85957
-472.13565
-468.57822
-463.10358
-455.64096
-446.13421
-434.54331
-420.84588
-405.03843
-387.13749
-367.1798
-345.22175
-321.33995
-295.63078
-268.20896
-239.20147
-208.75114
-177.02063
-144.18211
-110.41289
-75.895143
-40.813497
-5.3523706
30.306536
65.986598
101.51837
136.74143
171.50585
205.67337
239.11827
271.72788
303.4028
334.05686
363.61683
392.02193
419.22318
445.18266
469.87478
493.28254
515.39481
536.20887
555.72937
573.96701
590.93793
606.66327
621.16843
634.48224
646.63915
657.68872
667.70245
676.7342
684.72744
691.64817
698.32666
706.78174
715.76551
-3.1668125
-5.9485761
-8.6641875
-11.363339
-14.110917
-16.921736
-19.800817
-22.751509
-25.777572
-28.883466
-32.074228
-35.355311
-38.732466
-42.211665
-45.799065
-49.501012
-53.324051
-57.274969
-61.360831
-65.589035
-69.967361
-74.504024
-79.20771
-84.087623
-89.153501
-94.415628
-99.884827
-105.57243
-111.49022
-117.65038
-124.06535
-130.74774
-137.71011
-144.96484
-152.52386
-160.39839
-168.5987
-177.13373
-186.01081
-195.23523
-204.80987
-214.73481
-225.00687
-235.61916
-246.56069
-257.81586
-269.36406
-281.17921
-293.22941
-305.47648
-317.87571
-330.37552
-342.91721
-355.43489
-367.85531
-380.09794
-392.07508
-403.6921
-414.84785
-425.43513
-435.34141
-444.44962
-452.6391
-459.78684
-465.76866
-470.46075
-473.74117
-475.49162
-475.59923
-473.95838
-470.47269
-465.05687
-457.63867
-448.16059
-436.58159
-422.87874
-407.04832
-389.10596
-369.08762
-347.04986
-323.07018
-297.2464
-269.69567
-240.54979
-209.95469
-178.07163
-145.0728
-111.13775
-76.451115
-41.199896
-5.5707903
30.252395
66.091136
101.77434
137.14018
172.03763
206.32762
239.88392
272.59361
304.35728
335.08901
364.71605
393.17824
420.42708
446.4251
471.14629
494.5743
516.70034
537.5232
557.04856
575.28808
592.25885
607.98273
622.48569
635.79714
647.95252
658.99998
668.99736
677.97371
685.90133
692.88585
699.5499
706.28283
710.81837
-2.7068306
-5.6087734
-8.4239278
-11.187986
-13.969584
-16.795755
-19.679726
-22.629578
-25.651687
-28.751957
-31.936229
-35.210401
-38.580458
-42.052476
-45.632637
-49.327255
-53.142809
-57.085996
-61.163775
-65.383433
-69.752639
-74.2795
-78.972613
-83.841106
-88.894665
-94.143553
-99.598603
-105.27119
-111.17321
-117.31694
-123.71503
-130.38031
-137.32563
-144.56369
-152.1068
-159.96663
-168.15389
-176.67807
-185.54704
-194.76668
-204.3405
-214.26922
-224.55028
-235.1775
-246.1405
-257.42432
-269.00895
-280.8689
-292.97274
-305.28278
-317.75462
-330.33696
-342.97127
-355.59165
-368.12476
-380.48979
-392.5986
-404.35596
-415.65991
-426.40227
-436.46932
-445.74262
-454.09995
-461.41654
-467.56629
-472.42333
-475.86351
-477.76623
-478.01623
-476.5055
-473.13524
-467.81784
-460.47882
-451.05871
-439.51516
-425.82413
-409.98018
-391.99791
-371.91298
-349.78236
-325.68395
-299.71614
-271.99665
-242.66015
-211.85686
-179.75123
-146.51861
-112.34213
-77.410029
-41.912885
-6.0407994
30.019243
66.085839
101.98537
137.55387
172.6386
207.0992
240.80855
273.65322
305.53371
336.36429
366.07273
394.59964
421.8977
447.93086
472.67379
496.11061
518.23359
539.04249
558.54378
576.74973
593.67774
609.34963
623.79084
637.03015
649.10219
660.0504
669.91829
678.7207
686.46316
693.31306
699.66164
705.21852
708.14988
-2.46938
-5.3621437
-8.2099159
-11.006274
-13.807443
-16.642146
-19.527223
-22.473676
-25.489832
-28.582805
-31.759158
-35.025197
-38.387111
-41.851048
-45.423174
-49.109721
-52.917047
-56.851694
-60.920457
-65.130448
-69.489161
-74.004546
-78.685056
-83.539704
-88.578095
-93.810453
-99.247618
-104.90103
-110.78269
-116.90509
-123.2811
-129.92387
-136.84665
-144.06258
-151.58451
-159.42469
-167.59451
-176.10414
-184.96222
-194.17545
-203.74818
-213.68198
-223.97519
-234.6225
-245.6144
-256.93678
-268.57042
-280.49057
-292.66647
-305.06098
-317.63017
-330.32304
-343.08124
-355.83886
-368.52236
-381.05053
-393.33461
-405.2785
-416.77914
-427.72701
-438.00675
-447.49806
-456.0766
-463.61524
-469.98529
-475.05809
-478.70653
-480.80692
-481.24082
-479.897
-476.67344
-471.47937
-464.23735
-454.88546
-443.3796
-429.69345
-413.81972
-395.7725
-375.58731
-353.32155
-329.05432
-302.88574
-274.93555
-245.34141
-214.25724
-181.85123
-148.30292
-113.80003
-78.53557
-42.704814
-6.5023967
29.88047
66.258557
102.45489
138.30271
173.64699
208.3457
242.27057
275.30759
307.35711
338.33372
368.16582
396.79499
424.17516
450.27188
475.06134
498.52917
520.66927
541.48292
560.97788
579.16742
596.06953
611.70604
626.1017
639.28395
651.28464
662.13971
671.87784
680.50437
688.03901
694.62186
700.42013
704.9655
707.08713
-2.3317173
-5.1794464
-8.023424
-10.82782
-13.634688
-16.469806
-19.350616
-22.289467
-25.295892
-28.377884
-31.542586
-34.796654
-38.146461
-41.598222
-45.158082
-48.832193
-52.626787
-56.548255
-60.603217
-64.798608
-69.141749
-73.640424
-78.302946
-83.138217
-88.155768
-93.365796
-98.77917
-104.40742
-110.2627
-116.35772
-122.70566
-129.32006
-136.21462
-143.40305
-150.8988
-158.71483
-166.86331
-175.35528
-184.20028
-193.40598
-202.97774
-212.9182
-223.22676
-233.89919
-244.92705
-256.29727
-267.99165
-279.98635
-292.25146
-304.75058
-317.44038
-330.27032
-343.1823
-356.11047
-368.98111
-381.71259
-394.21546
-406.39261
-418.1397
-429.34558
-439.89295
-449.65924
-458.51753
-466.33777
-472.9881
-478.33637
-482.25182
-484.60686
-485.27907
-484.15313
-481.12295
-476.09371
-468.98423
-459.72968
-448.28284
-434.61403
-418.71439
-400.59668
-380.29594
-357.86991
-333.39889
-306.98509
-278.75129
-248.83918
-217.40743
-184.62934
-150.68994
-115.78285
-80.107052
-43.863803
-7.2534619
29.527414
66.288758
102.84937
139.03894
174.69961
209.68724
243.87219
277.13973
309.39013
340.53842
370.51393
399.25954
426.73084
452.89518
477.73065
501.22488
523.37387
544.18094
563.65573
581.81323
598.67283
614.25737
628.59218
641.70489
653.62607
664.38672
674.0079
682.49521
689.87528
696.23881
701.60192
705.4972
707.19933
-2.2357139
-5.0310687
-7.8518867
-10.64708
-13.447579
-16.2751
-19.146196
-22.073514
-25.067168
-28.135686
-31.286595
-34.526792
-37.862756
-41.300711
-44.846725
-48.506819
-52.287046
-56.193589
-60.232843
-64.411513
-68.736693
-73.21596
-77.857446
-82.669909
-87.662785
-92.846233
-98.231148
-103.82916
-109.65262
-115.71449
-122.02833
-128.60813
-135.46816
-142.62278
-150.08619
-157.87221
-165.99395
-174.46347
-183.29142
-192.48663
-202.0557
-212.00251
-222.32777
-233.02853
-244.09764
-255.5233
-267.28849
-279.37051
-291.74046
-304.36282
-317.19501
-330.18701
-343.28104
-356.41135
-369.50401
-382.4769
-395.23972
-407.69422
-419.73449
-431.24745
-442.1135
-452.20734
-461.39897
-469.55485
-476.53929
-482.21599
-486.44975
-489.10832
-490.06446
-489.19793
-486.39771
-481.56409
-474.61137
-465.47107
-454.09203
-440.44132
-424.50766
-406.30222
-385.8594
-363.23727
-338.51755
-311.80487
-283.2256
-252.92609
-221.07058
-187.83863
-153.42205
-118.02164
-81.84375
-45.096899
-7.9884471
29.27852
66.508037
103.51376
140.12105
176.16864
211.50983
246.01331
279.56349
312.06053
343.42003
373.57244
402.46223
430.04695
456.29613
481.19016
504.719
526.881
547.68171
567.13277
585.25088
602.05674
617.574
631.82836
644.84718
656.65928
667.29136
676.76029
685.07426
692.26072
698.37106
703.35327
706.8072
708.26598
-2.1630008
-4.9070812
-7.6946934
-10.468978
-13.253254
-16.065537
-18.920958
-21.831875
-24.808557
-27.85979
-30.993328
-34.216205
-37.534952
-40.955756
-44.484582
-48.127288
-51.889723
-55.777834
-59.797766
-63.955964
-68.259273
-72.715038
-77.331189
-82.116327
-87.079783
-92.231675
-97.582935
-103.14531
-108.93136
-114.95438
-121.22833
-127.76772
-134.58748
-141.70272
-149.12852
-156.87967
-164.97038
-173.41389
-182.22212
-191.40528
-200.97136
-210.92574
-221.27062
-232.00458
-243.12198
-254.6125
-266.46053
-278.64471
-291.13736
-303.90404
-316.90304
-330.08503
-343.39265
-356.76027
-370.11381
-383.37058
-396.4394
-409.22066
-421.6067
-433.48223
-444.72498
-455.20648
-464.79313
-473.34733
-480.72889
-486.79664
-491.41013
-494.4316
-495.7281
-495.17355
-492.65102
-488.05498
-481.29428
-472.29585
-461.00361
-447.38087
-431.41342
-413.11042
-392.50542
-369.65688
-344.64816
-317.58687
-288.60366
-257.85042
-225.49803
-191.73351
-156.75683
-120.77737
-84.010274
-46.672729
-8.9804283
28.85579
66.632977
104.15871
141.25331
177.7515
213.50368
248.37665
282.25397
315.03579
346.63851
376.99405
406.04892
433.7631
460.10888
485.06957
508.63814
530.81592
551.61134
571.03872
589.11713
605.86919
621.32001
635.4962
648.4252
660.1344
670.64733
679.97831
688.13624
695.14319
701.02221
705.6994
708.84944
710.15571
-2.0958898
-4.7893599
-7.5373909
-10.28226
-13.04232
-15.83268
-18.667023
-21.557151
-24.513214
-27.544044
-30.657466
-33.860545
-37.159777
-40.561245
-44.070749
-47.693927
-51.436367
-55.303725
-59.301837
-63.436839
-67.715272
-72.144204
-76.73132
-81.48503
-86.414533
-91.529893
-96.842071
-102.36295
-108.10531
-114.08281
-120.30989
-126.80165
-133.57377
-140.6422
-148.02303
-155.73219
-163.78511
-172.19641
-180.97948
-190.14607
-199.70583
-209.66583
-220.03001
-230.79869
-241.96799
-253.5293
-265.46867
-277.76628
-290.39589
-303.3243
-316.51086
-329.90706
-343.45606
-357.09244
-370.74195
-384.32134
-397.73842
-410.89211
-423.67278
-435.96263
-447.63635
-458.56191
-468.60157
-477.61309
-485.45114
-491.96893
-497.01999
-500.46021
-502.15
-501.95652
-499.75596
-495.43606
-488.89927
-480.06692
-468.87739
-455.28937
-439.28504
-420.8711
-400.07995
-376.97035
-351.62748
-324.16237
-294.71064
-263.43062
-230.50093
-196.11741
-160.48964
-123.83715
-86.385407
-48.361826
-9.9918982
28.504435
66.916039
105.04341
142.70095
179.7188
215.944
251.24125
285.49312
318.59985
350.47885
381.0638
410.30359
438.16109
464.61178
489.64237
513.24929
535.43736
556.21834
575.6097
593.63333
610.31432
625.67983
639.75803
652.57722
664.16458
674.54255
683.72531
691.72263
698.55132
704.21831
708.64986
711.5817
712.78511
-2.0369249
-4.6814232
-7.3858271
-10.094964
-12.824196
-15.586572
-18.394538
-21.259281
-24.190699
-27.19754
-30.287593
-33.467869
-36.744766
-40.12421
-43.611786
-47.212867
-50.932735
-54.776709
-58.750272
-62.859202
-67.109697
-71.508503
-76.063027
-80.781452
-85.672825
-90.747138
-96.01538
-101.48957
-107.18275
-113.10895
-119.28315
-125.72113
-132.43936
-139.45479
-146.78461
-154.44601
-162.45584
-170.83024
-179.58427
-188.73145
-198.28327
-208.24873
-218.63374
-229.44063
-240.66752
-252.30774
-264.34925
-276.77401
-289.55744
-302.6678
-316.06569
-329.70355
-343.5252
-357.46552
-371.45011
-385.39517
-399.2074
-412.78414
-426.01354
-438.77504
-450.93992
-462.37213
-472.92928
-482.46386
-490.82471
-497.85864
-503.4123
-507.3343
-509.47748
-509.70115
-507.87362
-503.87479
-497.59973
-488.96302
-477.89662
-464.35398
-448.31295
-429.77726
-408.77786
-385.37373
-359.65208
-331.7278
-301.7422
-269.86105
-236.27192
-201.18089
-164.80872
-127.38675
-89.152452
-50.34512
-11.201594
28.047669
67.182118
105.99413
144.29142
181.89892
218.65998
254.43703
289.1117
322.58452
354.77423
385.61672
415.06377
443.08171
469.64983
494.75882
518.40922
540.60989
561.37648
580.73007
598.69584
615.30174
630.57732
644.55264
657.2572
668.71853
678.95909
687.99385
695.83344
702.49136
707.96813
712.19967
714.9679
716.09735
-1.9730572
-4.5672523
-7.2241157
-9.8921375
-12.584766
-15.313654
-18.09028
-20.925261
-23.828188
-26.807639
-29.87128
-33.025991
-36.278001
-39.633011
-43.096331
-46.673004
-50.367944
-54.186072
-58.132454
-62.21245
-66.431853
-70.797032
-75.315065
-79.993869
-84.842298
-89.870253
-95.088735
-100.5099
-106.14707
-112.01469
-118.12832
-124.50447
-131.16054
-138.11453
-145.3849
-152.99024
-160.94897
-169.27897
-177.99714
-187.11898
-196.65808
-206.6256
-217.02969
-227.87493
-239.1617
-250.88555
-263.0366
-275.59887
-288.54966
-301.85892
-315.48871
-329.39261
-343.51525
-357.79188
-372.14805
-386.49938
-400.75146
-414.79987
-428.53039
-441.81942
-454.53448
-466.53506
-477.6736
-487.79673
-496.74673
-504.36325
-510.48521
-514.953
-517.61086
-518.30925
-516.90746
-513.27645
-507.30279
-498.89309
-487.97194
-474.4866
-458.4098
-439.74164
-418.51122
-394.77762
-368.63022
-340.18823
-309.59946
-277.03818
-242.70224
-206.80954
-169.59378
-131.29993
-92.179378
-52.485103
-12.467027
27.632308
67.58157
107.16389
146.17941
184.44726
221.80667
258.11765
293.26098
327.13769
359.66818
390.79102
420.4615
448.64999
475.34024
500.52763
524.21749
546.42338
567.1655
586.46923
604.36366
620.88025
636.05161
649.91029
662.48771
673.81263
683.90856
692.79193
700.4745
706.96852
712.27379
716.33844
718.97822
720.05129
-1.9133317
-4.4572112
-7.063425
-9.6858304
-12.336863
-15.027335
-17.768033
-20.569105
-23.43984
-26.388612
-29.422912
-32.549433
-35.774177
-39.102567
-42.539579
-46.089871
-49.757927
-53.54821
-57.465306
-61.514096
-65.699904
-70.028668
-74.507079
-79.142739
-83.944274
-88.921458
-94.085291
-99.448062
-105.02337
-110.82613
-116.8725
-123.17981
-129.76644
-136.65159
-143.85508
-151.39706
-159.29768
-167.57674
-176.25321
-185.34478
-194.86736
-204.83455
-215.25697
-226.14174
-237.49177
-249.30513
-261.57437
-274.28582
-287.41893
-300.94562
-314.82961
-329.02582
-343.47984
-358.12747
-372.89425
-387.69527
-402.43493
-417.00698
-431.29464
-445.17098
-458.49942
-471.13455
-482.92309
-493.70516
-503.31577
-511.58657
-518.34783
-523.43071
-526.66978
-527.9055
-526.98699
-523.77498
-518.14616
-509.99813
-499.24718
-485.83325
-469.72304
-450.91235
-429.42796
-405.32882
-378.70663
-349.6854
-318.42021
-285.09499
-249.91936
-213.12474
-174.9597
-135.68485
-95.567529
-54.876436
-13.876434
27.176171
68.037823
108.48123
148.29808
187.30107
225.32501
262.22742
297.88831
332.20952
365.11361
396.54241
426.4553
454.82741
481.64765
506.9168
530.64563
552.85307
573.5645
592.81014
610.62355
627.04024
642.09637
655.82756
668.26771
679.4476
689.39266
698.12146
705.64746
711.98362
717.1323
721.05343
723.58767
724.61538
-1.844482
-4.3348835
-6.8865591
-9.4588218
-12.063403
-14.710634
-17.410844
-20.173823
-23.008592
-25.923302
-28.925234
-32.020844
-35.21585
-38.515338
-41.923884
-45.445696
-49.08476
-52.845003
-56.730461
-60.74546
-64.894786
-69.183871
-73.61896
-78.207279
-82.957179
-87.878272
-92.981527
-98.27936
-103.78566
-109.51582
-115.48666
-121.71639
-128.22446
-135.03137
-142.15843
-149.62752
-157.4607
-165.67987
-174.30628
-183.36007
-192.85973
-202.82152
-213.25886
-224.18167
-235.59571
-247.50185
-259.89537
-272.76521
-286.09329
-299.85373
-314.01216
-328.52511
-343.33932
-358.39125
-373.60659
-388.89992
-404.17445
-419.322
-434.22309
-448.7472
-462.75332
-476.09069
-488.59978
-500.11356
-510.45903
-519.459
-526.93414
-532.70535
-536.59642
-538.4366
-538.06359
-535.32656
-530.09085
-522.24379
-511.69214
-498.36728
-482.22884
-463.26748
-441.50706
-417.00617
-389.85887
-360.19444
-328.17614
-293.9988
-257.88545
-220.08296
-180.85687
-140.48575
-99.255192
-57.451821
-15.357539
26.755725
68.630613
110.02814
150.73062
190.54367
229.29742
266.84683
303.07137
337.87412
371.18036
402.93584
433.10485
461.66804
488.62035
513.96876
537.7303
559.93004
580.59925
599.77368
617.49202
633.7944
648.7211
662.31135
674.60212
685.62686
695.41356
703.98334
711.35204
717.53464
722.53757
726.33118
728.77481
729.76417
-1.7778567
-4.213479
-6.7072298
-9.2252263
-11.778941
-14.378537
-17.03409
-19.755148
-22.550511
-25.42812
-28.395022
-31.457402
-34.620648
-37.889452
-41.267931
-44.759773
-48.368392
-52.097108
-55.949326
-59.928735
-64.039503
-68.286481
-72.675392
-77.213022
-81.907386
-86.767887
-91.805434
-97.032547
-102.46341
-108.11389
-114.00154
-120.14549
-126.56634
-133.28599
-140.32741
-147.71432
-155.47089
-163.62131
-172.18935
-181.19781
-190.66804
-200.61926
-211.06795
-222.02717
-233.5058
-245.50785
-258.03165
-271.0691
-284.60484
-298.61553
-313.06902
-327.92366
-343.12757
-358.61809
-374.32115
-390.15091
-406.00943
-421.78653
-437.35984
-452.59505
-467.34636
-481.45723
-494.76131
-507.08379
-518.24286
-528.0516
-536.3201
-542.85789
-547.47675
-549.99347
-550.23295
-548.03135
-543.24106
-535.73779
-525.41745
-512.20153
-496.04144
-476.92169
-454.86249
-429.92167
-402.1957
-371.81961
-338.96574
-303.84121
-266.68424
-227.75929
-187.3513
-145.7593
-103.2897
-60.249568
-16.940129
26.349024
69.345019
111.79584
153.47342
194.17576
233.72798
271.98255
308.81872
344.14131
377.87898
409.98222
440.42104
469.18256
496.26858
521.69321
545.48055
567.66261
588.2773
607.36659
624.97493
641.1477
655.92988
669.36485
681.49325
692.35179
701.97154
710.37668
717.58592
723.61718
728.48148
732.15804
734.52061
735.47604
-1.7003491
-4.0769193
-6.5084062
-8.9676638
-11.465923
-14.013369
-16.619975
-19.295153
-22.047536
-24.884867
-27.813949
-30.840661
-33.970016
-37.206253
-40.552966
-44.013247
-47.58986
-51.285429
-55.10264
-59.044458
-63.11434
-67.316468
-71.65596
-76.139086
-80.773459
-85.568217
-90.534166
-95.683909
-101.03191
-106.59456
-112.39013
-118.43874
-124.76227
-131.38411
-138.32898
-145.62267
-153.2916
-161.36248
-169.86182
-178.81537
-188.24759
-198.18096
-208.63533
-219.62722
-231.16898
-243.26811
-255.92632
-269.1388
-282.8933
-297.1693
-311.9372
-327.15745
-342.77985
-358.74278
-374.97262
-391.38322
-407.8755
-424.33727
-440.64315
-456.65482
-472.22136
-487.18
-501.35708
-514.56927
-526.62521
-537.32734
-546.47411
-553.86256
-559.29118
-562.56294
-563.48848
-561.8894
-557.60343
-550.49302
-540.44165
-527.35945
-511.18821
-491.9051
-469.52584
-444.10698
-415.74736
-384.58818
-350.81188
-314.63939
-276.32613
-236.15653
-194.43764
-151.49184
-107.64927
-63.2402
-18.587772
25.998505
70.22838
113.83536
156.58001
198.25209
238.67156
277.68855
315.1825
351.06063
385.25583
417.72426
448.44266
477.40563
504.62288
530.11659
553.91891
576.06963
596.6141
615.60125
633.08195
649.10742
663.72791
676.9915
688.94298
699.62283
709.06566
717.29908
724.34508
730.22502
734.95455
738.52036
740.80766
741.73186
-1.6231389
-3.9382762
-6.3035016
-8.6996882
-11.138091
-13.629098
-16.182727
-18.808343
-21.514472
-24.308679
-27.197519
-30.18654
-33.280336
-36.48264
-39.796451
-43.22419
-46.767884
-50.429371
-54.210519
-58.113465
-62.140858
-66.296112
-70.583642
-75.009115
-79.57966
-84.304086
-89.193043
-94.259178
-99.517227
-104.98408
-110.6788
-116.62255
-122.83851
-129.35172
-136.18879
-143.3777
-150.94734
-158.92717
-167.34667
-176.2348
-185.61941
-195.52658
-205.97984
-216.99951
-228.6018
-240.79801
-253.59366
-266.98758
-280.97098
-295.52658
-310.62762
-326.23702
-342.30652
-358.77583
-375.57198
-392.60863
-409.78567
-426.98887
-444.08976
-460.94578
-477.4006
-493.2848
-508.4168
-522.60414
-535.64503
-547.33033
-557.4458
-565.77473
-572.10099
-576.21226
-577.90333
-576.97958
-573.26232
-566.59877
-556.85826
-543.93803
-527.76859
-508.31841
-485.59759
-459.66079
-430.60901
-398.59011
-363.79764
-326.46802
-286.87609
-245.32902
-202.15897
-157.71496
-112.35412
-66.433093
-20.299814
25.713791
71.29805
116.17045
160.07915
202.80513
244.16304
284.00095
322.19907
358.66783
393.34532
426.19447
457.19988
486.36482
513.70801
539.26081
563.0644
585.16731
605.62314
624.48859
641.82161
657.6799
672.11954
685.19382
696.95217
707.43928
716.69369
724.74671
731.62396
737.35045
741.94626
745.40437
747.61952
748.51397
-1.5345072
-3.7832607
-6.0773482
-8.4057292
-10.779622
-13.209726
-15.706209
-18.278479
-20.935003
-23.683193
-26.529351
-29.47867
-32.535282
-35.702354
-38.982218
-42.37654
-45.886516
-49.513094
-53.257217
-57.120085
-61.103426
-65.20977
-69.442728
-73.807259
-78.309921
-82.959114
-87.765271
-92.74104
-97.901404
-103.26377
-108.84798
-114.67631
-120.77336
-127.16587
-133.88252
-140.95363
-148.41078
-156.28637
-164.61314
-173.42353
-182.74911
-192.61984
-203.06333
-214.10404
-225.76241
-238.05396
-250.98838
-264.56858
-278.78964
-293.63786
-309.08978
-325.11112
-341.65589
-358.66545
-376.06769
-393.77633
-411.6903
-429.69336
-447.65389
-465.42493
-482.84442
-499.73589
-515.9093
-531.16232
-545.28194
-558.04647
-569.22782
-578.59426
-585.91365
-590.95678
-593.50088
-593.33336
-590.25738
-584.10233
-574.72138
-561.99735
-545.84751
-526.22996
-503.14785
-476.65306
-446.84854
-413.88913
-377.98064
-339.37683
-298.37446
-255.30651
-210.5338
-164.43564
-117.39992
-69.813223
-22.051522
25.528063
72.594203
118.84672
164.0203
207.88664
250.25509
290.97206
329.91929
367.01141
402.19293
435.43477
466.73078
496.09414
523.5539
549.15174
572.939
594.97391
615.31927
634.04028
651.20271
666.87136
681.10867
693.97363
705.52075
715.79933
724.85211
732.71439
739.41559
744.98446
749.44518
752.79613
754.94024
755.80552
-1.4438814
-3.6228322
-5.8410404
-8.0968077
-10.4015
-12.766258
-15.201506
-17.716771
-20.320514
-23.02002
-25.821338
-28.729281
-31.747478
-34.878467
-38.123839
-41.484414
-44.960453
-48.551904
-52.258666
-56.08088
-60.01922
-64.075215
-68.251542
-72.552343
-76.983498
-81.552903
-86.270699
-91.149481
-96.204439
-101.45348
-106.91728
-112.61923
-118.58543
-124.84445
-131.42716
-138.36642
-145.69668
-153.45355
-161.67324
-170.39202
-179.64546
-189.46779
-199.89103
-210.94419
-222.65233
-235.03564
-248.1084
-261.87802
-276.3439
-291.4964
-307.31571
-323.77082
-340.81838
-358.40173
-376.44996
-394.87703
-413.58109
-432.44399
-451.33089
-470.09027
-488.55412
-506.53845
-523.84423
-540.25856
-555.55636
-569.50233
-581.8534
-592.36148
-600.77689
-606.85188
-610.34431
-611.02166
-608.66673
-603.0887
-594.12254
-581.6344
-565.5262
-545.74364
-522.28136
-495.18734
-464.56599
-430.5795
-393.4471
-353.44191
-310.88548
-266.14009
-219.59922
-171.67675
-122.79559
-73.376322
-23.826629
25.468075
74.15235
121.90659
168.45095
213.54741
257.00015
298.6545
338.3947
376.14084
411.84519
445.48822
477.07448
506.62859
534.1913
559.81594
583.56518
605.50804
625.71743
644.2679
661.23377
676.68752
690.69851
703.33188
714.64763
724.69998
733.53615
741.1956
747.71168
753.11683
757.43903
760.68132
762.75395
763.58998
-1.3417533
-3.4454221
-5.5822654
-7.7602339
-9.990784
-12.285584
-14.655403
-17.109958
-19.657756
-22.305974
-25.060411
-27.925477
-30.904249
-33.998573
-37.209214
-40.536048
-43.978293
-47.534772
-51.204209
-54.985545
-58.878268
-62.882757
-67.000626
-71.235065
-75.591157
-80.076193
-84.699929
-89.474839
-94.416281
-99.542647
-104.87543
-110.43922
-116.26167
-122.37329
-128.8073
-135.59925
-142.7867
-150.40868
-158.50522
-167.11666
-176.28296
-186.04295
-196.43347
-207.4885
-219.23814
-231.70769
-244.91651
-258.87695
-273.59324
-289.06024
-305.26232
-322.17214
-339.74945
-357.93999
-376.67434
-395.86704
-415.41566
-435.20023
-455.08273
-474.90696
-494.49868
-513.66604
-532.20041
-549.87767
-566.45974
-581.69673
-595.3293
-607.09165
-616.71495
-623.9312
-628.47692
-630.09755
-628.55305
-623.62975
-615.14214
-602.93714
-586.89875
-566.95799
-543.09897
-515.36438
-483.8594
-448.7538
-410.28146
-368.73712
-324.47035
-277.87675
-229.38705
-179.45462
-128.54231
-77.109348
-25.599265
25.570756
76.018476
125.403
173.42887
219.84803
264.4598
307.10925
347.68435
386.11213
422.35431
456.40261
488.27404
518.00629
545.65339
571.28175
594.96665
616.78904
636.83292
655.18305
671.92299
687.13355
700.89151
713.2686
724.33065
734.13708
742.73979
750.18256
756.50269
761.73623
765.91466
769.04512
771.04459
771.85077
-1.2351173
-3.2590253
-5.3089175
-7.4036395
-9.5548824
-11.774957
-14.075065
-16.46519
-18.953932
-21.54839
-24.254107
-27.075066
-30.013747
-33.071234
-36.247377
-39.541003
-42.950161
-46.472417
-50.105174
-53.846022
-57.693104
-61.645496
-65.70359
-69.869478
-74.147309
-78.543644
-83.067754
-87.731904
-92.551562
-97.545577
-102.73626
-108.14944
-113.81438
-119.76367
-126.03297
-132.66076
-139.68789
-147.15712
-155.11252
-163.59888
-172.66089
-182.34239
-192.68543
-203.7294
-215.50992
-228.05787
-241.39817
-255.54867
-270.51889
-286.30877
-302.90734
-320.29147
-338.4245
-357.25498
-376.71548
-396.72139
-417.17
-437.93967
-458.88926
-479.85783
-500.66467
-521.10968
-540.97415
-560.02193
-578.00113
-594.64612
-609.68009
-622.81803
-633.77032
-642.24682
-647.96071
-650.63307
-649.99837
-645.81708
-637.88067
-626.01396
-610.08007
-589.99252
-565.72251
-537.30559
-504.84679
-468.52352
-428.58556
-385.3518
-339.20347
-290.57417
-239.93718
-187.79104
-134.6442
-80.999896
-27.342205
25.876026
78.242813
129.394
179.01749
226.85498
272.70148
316.40293
357.85253
396.98607
433.77667
468.22932
500.37546
530.26773
557.97516
583.57882
607.16797
628.83668
648.68112
666.79707
683.2781
698.21393
711.68925
723.78276
734.56647
744.10519
752.45569
759.66612
765.77777
770.83015
774.85797
777.87201
779.79567
780.57096
-1.1167924
-3.0548742
-5.0115896
-7.0172546
-9.0837716
-11.224183
-13.450212
-15.772178
-18.198823
-20.737193
-23.392575
-26.168498
-29.066792
-32.087704
-35.230076
-38.491563
-41.868917
-45.358298
-48.955628
-52.656977
-56.458967
-60.359199
-64.35667
-68.452209
-72.648875
-76.952359
-81.371324
-85.917733
-90.60709
-95.458659
-100.49558
-105.74491
-111.23764
-117.00849
-123.09578
-129.54105
-136.38869
-143.68545
-151.47979
-159.82126
-168.75965
-178.34423
-188.62272
-199.64035
-211.43878
-224.05497
-237.51993
-251.85756
-267.08325
-283.20256
-300.20979
-318.08656
-336.80037
-356.30312
-376.52979
-397.39708
-418.80231
-440.62242
-462.71323
-484.90904
-507.02249
-528.84488
-550.14685
-570.67958
-590.17639
-608.35483
-624.91931
-639.56408
-651.97703
-661.84388
-668.85232
-672.69664
-673.08295
-669.74252
-662.44083
-650.97735
-635.1909
-614.97417
-590.28249
-561.14196
-527.65611
-490.00986
-448.47022
-403.38299
-355.16525
-304.29393
-251.2911
-196.70708
-141.10249
-85.030716
-29.021759
26.43151
80.88413
133.94661
185.28925
234.64354
281.80095
326.60977
368.97033
408.82935
446.17368
481.0239
513.4281
543.456
571.19353
596.73812
620.19447
641.6711
661.27734
679.12095
695.30618
709.93226
723.09226
734.87219
745.35047
754.59755
762.67514
769.63581
775.52478
780.38491
784.25383
787.14566
788.98998
789.73301
-0.99143212
-2.8380907
-4.6950706
-6.6054351
-8.5814252
-10.636933
-12.784298
-15.034253
-17.395733
-19.875755
-22.479351
-25.209566
-28.067527
-31.052562
-34.162396
-37.393393
-40.740857
-44.199378
-47.763221
-51.426751
-55.184877
-59.033525
-62.970106
-66.993997
-71.106993
-75.313753
-79.622192
-84.043853
-88.594191
-93.292831
-98.163709
-103.23517
-108.53995
-114.11504
-120.00153
-126.24426
-132.89138
-139.99391
-147.60502
-155.77938
-164.57232
-174.03892
-184.23305
-195.20631
-207.00689
-219.67837
-233.25846
-247.77765
-263.25784
-279.71083
-297.13682
-315.52284
-334.84112
-355.04754
-376.08003
-397.8571
-420.27649
-443.21401
-466.52263
-490.03189
-513.54766
-536.85228
-559.70527
-581.84436
-602.98718
-622.83335
-641.06711
-657.36045
-671.3769
-682.77605
-691.21779
-696.36701
-697.89843
-695.51036
-688.93896
-677.95468
-662.36807
-642.047
-616.92729
-587.02271
-552.4334
-513.35139
-470.06222
-422.94167
-372.44747
-319.10613
-263.49576
-206.22616
-147.91782
-89.181366
-30.598872
27.291863
84.009375
139.1367
192.32568
243.29786
291.84239
337.81176
381.11578
421.71472
459.61186
494.84606
527.48462
557.61667
585.34716
610.7917
634.07207
655.31251
674.63664
692.16507
708.01347
722.29112
735.09986
746.53336
756.67666
765.60595
773.38796
780.07968
785.73019
790.38552
794.08599
796.84876
798.60952
799.31858
-0.85367825
-2.6020692
-4.3521595
-6.1605965
-8.0399756
-10.005147
-12.069166
-14.243253
-16.536595
-18.956206
-21.506861
-24.191091
-27.009257
-29.959683