/*--------------------------------*- C++ -*----------------------------------*\
| =========                 |                                                 |
| \\      /  F ield         | foam-extend: Open Source CFD                    |
|  \\    /   O peration     | Version:     4.1                                |
|   \\  /    A nd           | Web:         http://www.foam-extend.org         |
|    \\/     M anipulation  |                                                 |
\*---------------------------------------------------------------------------*/
FoamFile
{
    version     2.0;
    format      ascii;
    class       surfaceScalarField;
    location    "0.7";
    object      phi;
}
// * * * * * * * * * * * * * * * * * * * * * * * * * * * * * * * * * * * * * //

dimensions      [0 3 -1 0 0 0 0];

internalField   nonuniform List<scalar> 
31929
(
-0.042646201
4.9645743e-05
-0.042703733
5.7532202e-05
-0.042763302
5.9568661e-05
-0.042824
6.0697894e-05
-0.042885497
6.1497038e-05
-0.042947686
6.218919e-05
-0.043010532
6.2846041e-05
-0.043074027
6.3495073e-05
-0.043138171
6.4143676e-05
-0.043202964
6.4793499e-05
-0.043268404
6.5440369e-05
-0.043334485
6.608044e-05
-0.043401192
6.67069e-05
-0.043468507
6.7314893e-05
-0.043536404
6.7897533e-05
-0.043604855
6.8450612e-05
-0.043673823
6.8968361e-05
-0.043743271
6.9448132e-05
-0.043813157
6.9886009e-05
-0.043883439
7.0281494e-05
-0.043954072
7.0632997e-05
-0.044025014
7.0942526e-05
-0.044096225
7.1211053e-05
-0.044167669
7.1443197e-05
-0.044239311
7.1642483e-05
-0.044311127
7.1815995e-05
-0.044383097
7.1969535e-05
-0.044455209
7.2112241e-05
-0.04452746
7.2251662e-05
-0.044599859
7.2398335e-05
-0.04467242
7.2560785e-05
-0.044745169
7.2749725e-05
-0.044818144
7.2974988e-05
-0.044891389
7.3244971e-05
-0.044964959
7.3569578e-05
-0.045038914
7.3955342e-05
-0.045113324
7.4410002e-05
-0.045188262
7.4937369e-05
-0.045263803
7.554197e-05
-0.045340027
7.6223898e-05
-0.045417011
7.6983576e-05
-0.045494828
7.7816702e-05
-0.045573546
7.8718456e-05
-0.045653226
7.9680385e-05
-0.045733918
8.0691827e-05
-0.045815658
8.173952e-05
-0.045898465
8.2807663e-05
-0.045982344
8.3878229e-05
-0.046067274
8.4930783e-05
-0.046153218
8.5943039e-05
-0.046240108
8.6890974e-05
-0.046327858
8.7749183e-05
-0.046416349
8.84912e-05
-0.046505439
8.9090099e-05
-0.046594958
8.9518561e-05
-0.046684707
8.9749696e-05
-0.046774465
8.9757357e-05
-0.046863981
8.9516677e-05
-0.046952986
8.9004519e-05
-0.047041186
8.8200177e-05
-0.047128271
8.7085473e-05
-0.047213917
8.5645585e-05
-0.047297786
8.386929e-05
-0.047379536
8.1749383e-05
-0.047458819
7.9283008e-05
-0.047535291
7.647189e-05
-0.047608613
7.3322719e-05
-0.04767846
6.9846949e-05
-0.047744521
6.6061169e-05
-0.047806508
6.1986921e-05
-0.047864159
5.765062e-05
-0.047917242
5.3083336e-05
-0.047965563
4.8320591e-05
-0.048008964
4.3401678e-05
-0.048047334
3.8369309e-05
-0.048080603
3.3268916e-05
-0.048108751
2.8148036e-05
-0.048131807
2.3055818e-05
-0.048149849
1.8042124e-05
-0.048163005
1.3156674e-05
-0.048171452
8.4471165e-06
-0.048175413
3.9601648e-06
-0.048175145
-2.6778847e-07
-0.048170902
-4.2426174e-06
-0.048162951
-7.9507999e-06
-0.048151638
-1.1313309e-05
-0.048137373
-1.4265356e-05
-0.048120594
-1.6778283e-05
-0.048101758
-1.8836389e-05
-0.048081325
-2.0432485e-05
-0.048059759
-2.1566495e-05
-0.048037514
-2.2244674e-05
-0.048015035
-2.2479115e-05
-0.047992748
-2.2287083e-05
-0.047971058
-2.1690345e-05
-0.047950343
-2.0714441e-05
-0.047930955
-1.9387921e-05
-0.047913214
-1.7741593e-05
-0.047897406
-1.5807718e-05
-0.047883787
-1.3619389e-05
-0.047872577
-1.1209902e-05
-0.047863965
-8.61212e-06
-0.047858107
-5.8578966e-06
-0.047855129
-2.9775234e-06
-0.047855126
-2.8278021e-09
-0.047858147
3.0208528e-06
-0.047864211
6.0643012e-06
-0.047873336
9.124188e-06
-0.047885526
1.219019e-05
-0.047900772
1.5246263e-05
-0.047919049
1.8276565e-05
-0.047940315
2.126617e-05
-0.047964516
2.4200901e-05
-0.047991582
2.7066561e-05
-0.04802143
2.9847542e-05
-0.048053955
3.2525314e-05
-0.048089035
3.5080348e-05
-0.048126523
3.7487548e-05
-0.048166208
3.9684625e-05
-0.048207699
4.1491201e-05
-0.048250342
4.2643563e-05
-0.048293734
4.3391905e-05
-0.048339366
4.5631655e-05
4.7724059e-05
-0.049028043
6.7058563e-05
-0.049042695
7.2184035e-05
-0.049057916
7.4789999e-05
-0.049073721
7.6502257e-05
-0.049090047
7.7823395e-05
-0.049106853
7.8995406e-05
-0.049124126
8.0118948e-05
-0.049141868
8.1236944e-05
-0.049160087
8.2362146e-05
-0.04917879
8.3496719e-05
-0.049197983
8.463343e-05
-0.049217667
8.5764354e-05
-0.049237837
8.6877145e-05
-0.049258484
8.7961726e-05
-0.049279592
8.9005359e-05
-0.04930114
8.9998941e-05
-0.049323103
9.0931628e-05
-0.049345452
9.1797077e-05
-0.049368154
9.2587795e-05
-0.049391174
9.3301397e-05
-0.049414476
9.3934721e-05
-0.049438023
9.4490088e-05
-0.049461781
9.4969208e-05
-0.049485717
9.5379407e-05
-0.049509802
9.5727328e-05
-0.049534011
9.6025105e-05
-0.049558326
9.6283875e-05
-0.049582733
9.6519871e-05
-0.049607229
9.674777e-05
-0.049631818
9.6986703e-05
-0.049656511
9.7253447e-05
-0.049681329
9.7567965e-05
-0.049706303
9.7948988e-05
-0.049731471
9.8413327e-05
-0.049756881
9.8979491e-05
-0.049782587
9.9661015e-05
-0.049808649
0.00010047244
-0.049835134
0.00010142221
-0.049862111
0.0001025188
-0.04988965
0.00010376355
-0.049917824
0.00010515703
-0.049946699
0.00010669201
-0.04997634
0.00010835913
-0.050006802
0.00011014252
-0.050038132
0.00011202173
-0.050070364
0.00011397119
-0.050103516
0.00011596028
-0.050137592
0.00011795381
-0.050172573
0.00011991186
-0.05020842
0.00012179065
-0.050245072
0.00012354286
-0.050282441
0.00012511828
-0.050320415
0.00012646449
-0.050358852
0.0001275279
-0.050397588
0.0001282541
-0.050436428
0.00012858932
-0.050475151
0.00012848115
-0.050513514
0.00012787956
-0.050551248
0.00012673792
-0.050588062
0.00012501419
-0.050623648
0.00012267145
-0.050657681
0.00011967932
-0.050689827
0.00011601458
-0.050719739
0.000111662
-0.050747071
0.00010661506
-0.050771476
0.00010087642
-0.050792612
9.445864e-05
-0.050810149
8.7383994e-05
-0.050823773
7.9685045e-05
-0.05083319
7.1404375e-05
-0.050838134
6.2594436e-05
-0.050838368
5.3317166e-05
-0.050833691
4.3643443e-05
-0.050823941
3.3652006e-05
-0.050809
2.3428509e-05
-0.050788795
1.306427e-05
-0.050763303
2.6552281e-06
-0.050732546
-7.7003719e-06
-0.0506966
-1.7903915e-05
-0.050655589
-2.7854272e-05
-0.05060969
-3.745188e-05
-0.050559127
-4.6603585e-05
-0.05050417
-5.5224438e-05
-0.050445185
-6.3227079e-05
-0.050382603
-7.0533583e-05
-0.050316827
-7.7089304e-05
-0.050248245
-8.2846694e-05
-0.050177259
-8.7765038e-05
-0.050104278
-9.1816812e-05
-0.050029723
-9.4987706e-05
-0.049954013
-9.7276286e-05
-0.049877565
-9.8692878e-05
-0.049800785
-9.9259039e-05
-0.049724066
-9.9006253e-05
-0.049647781
-9.797471e-05
-0.049572284
-9.6211928e-05
-0.0494979
-9.3771263e-05
-0.049424931
-9.0710644e-05
-0.049353648
-8.709075e-05
-0.049284294
-8.2974068e-05
-0.04921708
-7.8423462e-05
-0.049152191
-7.350108e-05
-0.049089782
-6.8267417e-05
-0.049029978
-6.2780962e-05
-0.048972883
-5.7097783e-05
-0.048918597
-5.1265795e-05
-0.048867201
-4.5330858e-05
-0.048818737
-3.9339694e-05
-0.048773215
-3.3332456e-05
-0.048730624
-2.7344492e-05
-0.04869094
-2.1407938e-05
-0.048654121
-1.5552357e-05
-0.048620115
-9.8054285e-06
-0.048588854
-4.1943999e-06
-0.048560258
1.2517783e-06
-0.048534234
6.5011557e-06
-0.048510672
1.1518726e-05
-0.048489442
1.6257581e-05
-0.048470363
2.0605912e-05
-0.048453181
2.4308648e-05
-0.048437686
2.7148946e-05
-0.048423809
2.9514996e-05
-0.048409827
3.164919e-05
2.4987195e-05
-0.049699498
7.6427076e-05
-0.04970674
7.9425504e-05
-0.049713738
8.1788e-05
-0.049720962
8.3726364e-05
-0.049728555
8.5416073e-05
-0.049736554
8.6994914e-05
-0.04974497
8.8534821e-05
-0.049753804
9.0070576e-05
-0.049763053
9.1611243e-05
-0.049772712
9.3156199e-05
-0.049782774
9.4694881e-05
-0.049793225
9.6216104e-05
-0.049804052
9.7703882e-05
-0.049815235
9.9144977e-05
-0.049826754
0.00010052347
-0.049838582
0.0001018279
-0.049850696
0.00010304531
-0.049863067
0.00010416833
-0.049875668
0.00010518883
-0.049888472
0.00010610506
-0.049901452
0.00010691499
-0.049914586
0.00010762342
-0.049927852
0.00010823503
-0.049941234
0.00010876147
-0.04995472
0.00010921415
-0.049968306
0.00010961118
-0.049981993
0.00010996994
-0.049995787
0.00011031395
-0.050009704
0.00011066516
-0.050023768
0.0001110507
-0.05003801
0.00011149503
-0.050052468
0.00011202608
-0.050067189
0.00011267007
-0.050082226
0.00011345062
-0.050097639
0.00011439273
-0.050113493
0.00011551499
-0.050129857
0.0001168363
-0.050146802
0.00011836757
-0.050164402
0.00012011869
-0.050182729
0.00012209012
-0.050201852
0.00012428021
-0.050221837
0.00012667687
-0.050242742
0.0001292643
-0.050264617
0.00013201763
-0.050287501
0.00013490538
-0.050311418
0.00013788869
-0.05033638
0.00014092152
-0.050362377
0.0001439513
-0.050389384
0.00014691876
-0.050417353
0.00014975915
-0.050446212
0.0001524027
-0.05047587
0.00015477559
-0.050506206
0.00015680092
-0.050537078
0.00015840015
-0.050568318
0.00015949373
-0.050599732
0.00016000309
-0.050631102
0.0001598517
-0.050662189
0.00015896659
-0.050692731
0.00015727975
-0.050722447
0.0001547299
-0.050751039
0.00015126327
-0.050778195
0.00014683561
-0.050803593
0.00014141313
-0.050826905
0.00013497373
-0.050847798
0.00012750799
-0.050865942
0.00011901997
-0.050881011
0.00010952813
-0.050892692
9.9065237e-05
-0.050900686
8.767909e-05
-0.050904714
7.5432213e-05
-0.050904521
6.2401641e-05
-0.050899883
4.8678466e-05
-0.050890606
3.4366967e-05
-0.050876537
1.9583011e-05
-0.050857561
4.452746e-06
-0.050833608
-1.0888926e-05
-0.050804653
-2.6300034e-05
-0.050770719
-4.1634281e-05
-0.05073188
-5.6742693e-05
-0.050688257
-7.1477927e-05
-0.050640013
-8.5695037e-05
-0.050587362
-9.925502e-05
-0.050530559
-0.00011202716
-0.050469898
-0.00012388833
-0.050405702
-0.00013472975
-0.050338329
-0.00014446199
-0.050268165
-0.0001530106
-0.050195614
-0.00016031655
-0.050121091
-0.00016633939
-0.050045021
-0.00017105763
-0.049967829
-0.00017446865
-0.049889934
-0.0001765871
-0.049811749
-0.00017744438
-0.049733669
-0.00017708661
-0.049656071
-0.00017557289
-0.049579309
-0.00017297324
-0.049503714
-0.00016936635
-0.049429587
-0.00016483782
-0.0493572
-0.00015947727
-0.049286797
-0.00015337708
-0.049218591
-0.00014663014
-0.049152763
-0.0001393283
-0.04908947
-0.0001315609
-0.049028837
-0.00012341409
-0.048970966
-0.00011496898
-0.048915931
-0.00010630021
-0.048863784
-9.7477807e-05
-0.048814557
-8.8567399e-05
-0.048768261
-7.9627876e-05
-0.048724893
-7.0712176e-05
-0.048684433
-6.1868046e-05
-0.048646846
-5.3139206e-05
-0.048612085
-4.4566391e-05
-0.048580091
-3.6189303e-05
-0.04855079
-2.8049067e-05
-0.048524099
-2.0189641e-05
-0.04849992
-1.266013e-05
-0.048478133
-5.5293471e-06
-0.048458587
1.0599921e-06
-0.048441152
6.8736396e-06
-0.048425825
1.1821593e-05
-0.048412305
1.5994832e-05
-0.048399029
1.8373093e-05
1.3078662e-05
-0.049750621
8.361497e-05
-0.049756939
8.5743972e-05
-0.049763092
8.7940653e-05
-0.049769404
9.0038657e-05
-0.049776027
9.2038697e-05
-0.049783023
9.3991006e-05
-0.049790418
9.5929856e-05
-0.049798221
9.787354e-05
-0.049806432
9.98225e-05
-0.049815047
0.00010177074
-0.049824055
0.00010370319
-0.049833444
0.00010560494
-0.049843196
0.00010745632
-0.049853292
0.0001092411
-0.049863709
0.00011094053
-0.049874423
0.00011254117
-0.049885406
0.0001140284
-0.049896632
0.00011539424
-0.049908073
0.00011663043
-0.049919704
0.00011773625
-0.049931501
0.00011871123
-0.04994344
0.000119563
-0.049955505
0.00012029956
-0.049967681
0.00012093717
-0.049979959
0.00012149221
-0.049992336
0.00012198895
-0.050004818
0.00012245116
-0.050017413
0.00012290969
-0.050030142
0.0001233938
-0.05004303
0.0001239386
-0.050056111
0.00012457616
-0.050069427
0.00012534229
-0.050083028
0.00012627057
-0.050096968
0.00012739132
-0.050111311
0.00012873587
-0.050126124
0.0001303277
-0.050141478
0.00013218991
-0.050157446
0.00013433573
-0.050174104
0.00013677631
-0.050191525
0.00013951111
-0.05020978
0.00014253608
-0.050228938
0.00014583424
-0.050249057
0.00014938317
-0.050270188
0.00015314896
-0.050292372
0.00015708897
-0.050315634
0.00016115099
-0.050339986
0.0001652735
-0.050365421
0.00016938641
-0.050391913
0.00017341102
-0.050419416
0.00017726149
-0.050447858
0.00018084546
-0.050477148
0.00018406533
-0.050507167
0.00018681949
-0.050537771
0.00018900424
-0.050568792
0.0001905146
-0.050600035
0.00019124686
-0.050631284
0.00019109999
-0.050662295
0.00018997765
-0.050692805
0.00018779001
-0.050722531
0.00018445602
-0.050751172
0.00017990455
-0.050778414
0.00017407692
-0.050803929
0.00016692824
-0.050827384
0.00015842895
-0.050848442
0.00014856624
-0.050866767
0.00013734505
-0.050882028
0.00012478932
-0.050893905
0.00011094196
-0.050902092
9.5865752e-05
-0.050906303
7.9643009e-05
-0.050906276
6.237538e-05
-0.050901781
4.4183308e-05
-0.050892619
2.5204725e-05
-0.050878629
5.5929307e-06
-0.050859691
-1.4484703e-05
-0.050835731
-3.4849266e-05
-0.050806718
-5.5312747e-05
-0.050772672
-7.5680294e-05
-0.050733661
-9.5753903e-05
-0.050689803
-0.00011533627
-0.050641264
-0.00013423406
-0.050588257
-0.0001522612
-0.050531043
-0.00016924179
-0.050469918
-0.00018501316
-0.050405217
-0.00019943113
-0.050337305
-0.00021237339
-0.050266577
-0.00022373924
-0.050193442
-0.00023345059
-0.050118328
-0.0002414539
-0.050041665
-0.00024772067
-0.049963886
-0.00025224744
-0.049885419
-0.0002550538
-0.049806682
-0.00025618162
-0.049728076
-0.00025569249
-0.049649984
-0.0002536653
-0.049572764
-0.0002501935
-0.049496748
-0.0002453821
-0.04942224
-0.00023934526
-0.049349515
-0.00023220244
-0.049278816
-0.00022407672
-0.049210354
-0.0002150918
-0.049144312
-0.00020536992
-0.049080843
-0.0001950299
-0.049020071
-0.00018418602
-0.048962095
-0.00017294552
-0.048906986
-0.00016140854
-0.048854796
-0.00014966816
-0.048805553
-0.0001378102
-0.048759269
-0.0001259123
-0.048715936
-0.00011404455
-0.048675535
-0.0001022699
-0.048638028
-9.0645684e-05
-0.04860337
-7.922499e-05
-0.0485715
-6.805888e-05
-0.04854235
-5.7198871e-05
-0.048515841
-4.6698802e-05
-0.048491882
-3.6619331e-05
-0.048470363
-2.7048352e-05
-0.048451165
-1.8137843e-05
-0.048434219
-1.0072642e-05
-0.048419492
-2.904626e-06
-0.048406571
3.0731958e-06
-0.048394948
6.750261e-06
5.2207179e-06
-0.04975175
8.9945712e-05
-0.049757852
9.1845702e-05
-0.049763941
9.4029844e-05
-0.049770205
9.6302382e-05
-0.049776762
9.8596068e-05
-0.049783678
0.00010090687
-0.049790986
0.00010323723
-0.0497987
0.00010558778
-0.049806826
0.00010794821
-0.04981536
0.00011030543
-0.049824296
0.00011263868
-0.049833619
0.0001149285
-0.049843314
0.00011715103
-0.04985336
0.00011928662
-0.049863732
0.00012131338
-0.049874407
0.00012321564
-0.049885355
0.00012497693
-0.04989655
0.00012658853
-0.049907961
0.00012804189
-0.049919562
0.00012933725
-0.049931327
0.00013047564
-0.049943231
0.0001314675
-0.049955256
0.00013232419
-0.049967385
0.0001330666
-0.049979609
0.00013371621
-0.049991924
0.00013430358
-0.050004332
0.00013485905
-0.050016843
0.00013542102
-0.050029475
0.00013602632
-0.050042255
0.00013671834
-0.050055216
0.00013753709
-0.0500684
0.0001385266
-0.050081858
0.00013972822
-0.050095646
0.00014117934
-0.050109828
0.00014291802
-0.050124474
0.00014497304
-0.050139656
0.00014737208
-0.050155451
0.0001501311
-0.050171938
0.00015326283
-0.050189193
0.00015676603
-0.050207291
0.00016063456
-0.050226303
0.0001648467
-0.050246294
0.00016937359
-0.050267317
0.00017417236
-0.050289418
0.00017918921
-0.050312625
0.0001843585
-0.050336955
0.00018960303
-0.050362403
0.000194835
-0.050388948
0.00019995592
-0.050416545
0.00020485844
-0.050445127
0.00020942711
-0.050474601
0.00021353997
-0.050504852
0.00021707007
-0.050535735
0.00021988782
-0.050567083
0.00022186203
-0.050598699
0.00022286305
-0.050630364
0.00022276453
-0.050661832
0.0002214459
-0.050692836
0.00021879464
-0.05072309
0.0002147091
-0.050752285
0.00020909998
-0.050780101
0.00020189342
-0.050806206
0.0001930327
-0.050830257
0.00018248023
-0.05085191
0.00017021926
-0.05087082
0.00015625524
-0.050886648
0.00014061729
-0.050899065
0.00012335832
-0.050907755
0.00010455612
-0.050912425
8.4312904e-05
-0.050912805
6.2755386e-05
-0.050908655
4.0033773e-05
-0.050899771
1.6320146e-05
-0.050885984
-8.1934904e-06
-0.050867171
-3.329847e-05
-0.05084325
-5.8770149e-05
-0.05081419
-8.4372578e-05
-0.050780009
-0.00010986107
-0.050740776
-0.00013498702
-0.05069661
-0.00015950191
-0.050647682
-0.00018316215
-0.05059421
-0.00020573312
-0.050536459
-0.00022699335
-0.050474733
-0.00024673892
-0.050409376
-0.00026478837
-0.050340763
-0.00028098636
-0.050269297
-0.00029520536
-0.0501954
-0.00030734737
-0.050119508
-0.00031734548
-0.050042065
-0.00032516428
-0.049963512
-0.00033079998
-0.049884288
-0.00033427776
-0.049804819
-0.00033565093
-0.049725514
-0.00033499763
-0.049646761
-0.00033241773
-0.049568925
-0.00032802937
-0.049492342
-0.00032196512
-0.049417318
-0.00031436898
-0.049344129
-0.00030539141
-0.049273019
-0.00029518728
-0.049204199
-0.00028391205
-0.049137849
-0.00027171915
-0.049074122
-0.00025875755
-0.049013137
-0.00024517027
-0.048954991
-0.00023109151
-0.048899753
-0.00021664681
-0.048847469
-0.00020195224
-0.048798165
-0.00018711409
-0.048751849
-0.00017222854
-0.048708511
-0.00015738234
-0.048668128
-0.00014265296
-0.048630663
-0.00012811058
-0.048596069
-0.00011381937
-0.048564288
-9.9839983e-05
-0.048535255
-8.6231778e-05
-0.048508898
-7.3055363e-05
-0.048485139
-6.0378996e-05
-0.048463889
-4.8298231e-05
-0.048445074
-3.6952579e-05
-0.048428666
-2.6480417e-05
-0.048414615
-1.6955963e-05
-0.048402631
-8.9104863e-06
-0.04839285
-3.0307441e-06
-5.3935233e-07
-0.049751807
9.5824704e-05
-0.049757732
9.7770678e-05
-0.049763766
0.00010006347
-0.049770014
0.0001025498
-0.049776561
0.00010514401
-0.049783467
0.0001078127
-0.049790765
0.00011053512
-0.049798474
0.00011329613
-0.0498066
0.00011607435
-0.049815143
0.00011884879
-0.049824096
0.00012159216
-0.049833448
0.00012427979
-0.04984318
0.00012688302
-0.049853272
0.00012937839
-0.049863699
0.00013174044
-0.049874434
0.00013395098
-0.049885448
0.0001359914
-0.049896712
0.00013785201
-0.049908194
0.00013952377
-0.049919864
0.00014100777
-0.049931695
0.00014230645
-0.049943661
0.00014343301
-0.049955739
0.00014440219
-0.049967912
0.00014523958
-0.049980167
0.00014597191
-0.0499925
0.00014663619
-0.05000491
0.0001472696
-0.050017408
0.00014791837
-0.050030009
0.00014862729
-0.050042739
0.0001494484
-0.050055632
0.00015043012
-0.05006873
0.00015162517
-0.050082085
0.00015308318
-0.050095755
0.00015484914
-0.050109806
0.00015696836
-0.050124308
0.00015947547
-0.050139339
0.00016240322
-0.050154979
0.00016577077
-0.050171309
0.0001695929
-0.050188411
0.00017386806
-0.050206365
0.00017858833
-0.050225245
0.00018372753
-0.050245122
0.00018925053
-0.050266056
0.00019510559
-0.050288094
0.00020122774
-0.050311273
0.00020753779
-0.050335613
0.00021394269
-0.050361115
0.00022033657
-0.050387759
0.00022660075
-0.050415507
0.00023260582
-0.050444292
0.00023821264
-0.050474027
0.00024327416
-0.050504594
0.00024763729
-0.050535852
0.00025114563
-0.05056763
0.00025364088
-0.050599734
0.00025496643
-0.050631939
0.00025496957
-0.050663997
0.00025350445
-0.050695638
0.0002504348
-0.050726566
0.00024563737
-0.050756469
0.00023900365
-0.05078502
0.0002304437
-0.050811875
0.00021988811
-0.050836685
0.0002072905
-0.050859096
0.00019262953
-0.050878751
0.00017591066
-0.050895302
0.00015716784
-0.050908407
0.00013646379
-0.050917742
0.0001138913
-0.050923002
8.9572655e-05
-0.050923907
6.3660102e-05
-0.050920207
3.633405e-05
-0.050911688
7.8013133e-06
-0.050898175
-2.1706726e-05
-0.050879535
-5.1937903e-05
-0.050855684
-8.2621182e-05
-0.050826586
-0.0001134706
-0.050792257
-0.00014419006
-0.050752766
-0.00017447839
-0.050708234
-0.00020403397
-0.050658835
-0.00023256096
-0.050604794
-0.00025977419
-0.050546383
-0.0002854047
-0.050483916
-0.00030920521
-0.050417749
-0.00033095535
-0.05034827
-0.00035046599
-0.050275893
-0.00036758212
-0.050201055
-0.00038218517
-0.050124206
-0.00039419461
-0.050045802
-0.00040356836
-0.049966299
-0.00041030286
-0.049886147
-0.00041442977
-0.049805783
-0.00041601505
-0.049725626
-0.00041515475
-0.049646072
-0.00041197125
-0.049567493
-0.00040660898
-0.049490228
-0.00039922974
-0.049414588
-0.00039000894
-0.04934085
-0.00037912955
-0.049269258
-0.00036677961
-0.049200022
-0.00035314757
-0.049133322
-0.00033841913
-0.049069305
-0.00032277425
-0.04900809
-0.00030638539
-0.048949768
-0.00028941427
-0.048894402
-0.00027201201
-0.048842037
-0.00025431782
-0.048792692
-0.00023645871
-0.048746371
-0.00021854929
-0.048703061
-0.0002006927
-0.048662733
-0.00018298053
-0.048625349
-0.00016549513
-0.048590857
-0.00014831098
-0.0485592
-0.00013149699
-0.048530313
-0.0001151188
-0.048504127
-9.9241852e-05
-0.048480567
-8.3938409e-05
-0.048459563
-6.9302328e-05
-0.048441065
-5.5451015e-05
-0.048425056
-4.248965e-05
-0.048411494
-3.051728e-05
-0.048400265
-2.0139805e-05
-0.048391747
-1.1548966e-05
-5.1960736e-06
-0.049753928
0.00010139098
-0.049759669
0.00010351165
-0.049765604
0.00010599793
-0.049771795
0.00010874071
-0.049778305
0.00011165466
-0.049785184
0.00011469159
-0.049792464
0.00011781466
-0.049800163
0.00012099564
-0.049808292
0.00012420262
-0.049816849
0.00012740641
-0.04982583
0.0001305727
-0.049835221
0.00013367103
-0.049845005
0.00013666744
-0.049855161
0.00013953414
-0.049865662
0.0001422417
-0.04987648
0.00014476906
-0.049887584
0.00014709513
-0.049898941
0.00014920896
-0.049910518
0.00015110083
-0.049922283
0.0001527725
-0.049934204
0.00015422769
-0.049946253
0.00015548233
-0.049958406
0.00015655456
-0.049970641
0.00015747477
-0.049982944
0.00015827508
-0.049995307
0.00015899923
-0.050007729
0.00015969149
-0.050020217
0.00016040634
-0.050032787
0.00016119695
-0.050045463
0.00016212451
-0.050058279
0.00016324639
-0.050071279
0.00016462462
-0.050084513
0.00016631771
-0.050098043
0.0001683789
-0.050111936
0.00017086141
-0.050126267
0.00017380633
-0.050141116
0.00017725216
-0.050156567
0.00018122182
-0.050172707
0.00018573267
-0.050189622
0.00019078334
-0.050207398
0.00019636455
-0.050226116
0.00020244596
-0.050245852
0.0002089864
-0.050266672
0.00021592533
-0.050288631
0.00022318664
-0.050311771
0.00023067746
-0.050336117
0.0002382886
-0.050361676
0.00024589576
-0.050388434
0.00025335955
-0.050416357
0.00026052788
-0.050445381
0.00026723713
-0.050475421
0.00027331429
-0.050506363
0.00027857915
-0.050538065
0.00028284748
-0.050570357
0.00028593266
-0.05060304
0.00028764993
-0.05063589
0.00028781899
-0.050668653
0.00028626741
-0.050701052
0.00028283393
-0.050732787
0.0002773724
-0.050763537
0.00026975397
-0.050792965
0.00025987141
-0.050820718
0.00024764164
-0.050846436
0.00023300852
-0.050869752
0.00021594541
-0.050890299
0.00019645712
-0.050907713
0.00017458203
-0.050921641
0.00015039241
-0.050931746
0.000123996
-0.050937709
9.5535455e-05
-0.050939238
6.5188922e-05
-0.050936071
3.3167673e-05
-0.050927984
-2.8574076e-07
-0.050914791
-3.4899485e-05
-0.050896353
-7.0376028e-05
-0.050872578
-0.00010639633
-0.050843426
-0.0001426229
-0.05080891
-0.00017870596
-0.050769099
-0.00021428939
-0.050724117
-0.00024901616
-0.050674142
-0.00028253575
-0.050619406
-0.00031451017
-0.05056019
-0.00034462063
-0.050496821
-0.00037257417
-0.050429667
-0.00039810956
-0.05035913
-0.00042100251
-0.050285643
-0.00044106953
-0.050209657
-0.00045817077
-0.05013164
-0.00047221187
-0.050052064
-0.0004831443
-0.049971401
-0.00049096544
-0.049890117
-0.0004957146
-0.04980866
-0.00049747177
-0.049727462
-0.00049635263
-0.049646929
-0.00049250394
-0.04956744
-0.00048609842
-0.04948934
-0.00047732901
-0.049412945
-0.0004664045
-0.049338532
-0.00045354219
-0.049266347
-0.00043896495
-0.049196599
-0.00042289571
-0.049129464
-0.0004055537
-0.049065088
-0.0003871509
-0.049003583
-0.00036789007
-0.048945036
-0.00034796098
-0.048889508
-0.0003275406
-0.048837034
-0.0003067914
-0.048787632
-0.00028586111
-0.048741298
-0.00026488257
-0.048698016
-0.00024397483
-0.048657754
-0.00022324299
-0.048620468
-0.00020278076
-0.048586107
-0.00018267179
-0.048554612
-0.00016299198
-0.048525919
-0.00014381172
-0.048499962
-0.00012519951
-0.048476672
-0.0001072283
-0.048455989
-8.9984831e-05
-0.048437875
-7.3564768e-05
-0.048422312
-5.8052647e-05
-0.048409275
-4.3554457e-05
-0.04839875
-3.06648e-05
-0.048391129
-1.9170709e-05
-9.2045858e-06
-0.049757732
0.00010671612
-0.049763294
0.00010907423
-0.049769109
0.00011181241
-0.049775219
0.00011485088
-0.049781673
0.00011810894
-0.049788512
0.00012153092
-0.049795767
0.00012506879
-0.049803455
0.00012868353
-0.049811585
0.00013233354
-0.04982016
0.00013598146
-0.049829173
0.00013958563
-0.049838612
0.00014310936
-0.049848457
0.00014651293
-0.049858687
0.00014976375
-0.049869273
0.00015282801
-0.049880185
0.00015568135
-0.04989139
0.00015829988
-0.049902852
0.00016067109
-0.049914536
0.00016278435
-0.049926405
0.00016464186
-0.049938426
0.00016624855
-0.049950567
0.00016762303
-0.049962799
0.00016878685
-0.0499751
0.00016977531
-0.049987451
0.00017062613
-0.049999841
0.00017139002
-0.050012269
0.00017211875
-0.050024738
0.00017287545
-0.050037263
0.00017372215
-0.050049868
0.00017472983
-0.050062587
0.00017596541
-0.050075464
0.0001775009
-0.05008855
0.00017940443
-0.05010191
0.00018173825
-0.050115612
0.00018456421
-0.050129737
0.00018793064
-0.050144367
0.00019188249
-0.050159592
0.00019644713
-0.050175505
0.00020164514
-0.050192197
0.00020747588
-0.050209762
0.00021392917
-0.050228287
0.0002209709
-0.050247855
0.00022855408
-0.050268539
0.00023660954
-0.050290402
0.00024505
-0.050313494
0.00025376876
-0.050337845
0.00026264022
-0.050363471
0.00027152118
-0.050390362
0.00028025096
-0.050418488
0.00028865404
-0.050447792
0.00029654145
-0.050478191
0.0003037132
-0.050509573
0.00030996084
-0.050541797
0.00031507102
-0.050574691
0.00031882751
-0.050608057
0.00032101598
-0.050641666
0.00032142704
-0.050675258
0.00031986023
-0.050708552
0.00031612776
-0.050741239
0.00031005915
-0.050772989
0.00030150372
-0.050803453
0.0002903357
-0.050832268
0.00027645703
-0.050859061
0.00025980078
-0.050883449
0.00024033402
-0.050905052
0.00021806019
-0.050923492
0.00019302154
-0.050938399
0.00016529963
-0.05094942
0.00013501708
-0.050956222
0.00010233713
-0.050958497
6.7464307e-05
-0.050955971
3.0641503e-05
-0.050948405
-7.8518632e-06
-0.050935602
-4.7701918e-05
-0.050917414
-8.8564734e-05
-0.050893739
-0.00013007048
-0.050864534
-0.0001718281
-0.050829809
-0.00021343162
-0.050789631
-0.00025446728
-0.050744127
-0.00029451975
-0.050693482
-0.00033318099
-0.050637935
-0.00037005724
-0.050577778
-0.00040477713
-0.050513353
-0.00043699936
-0.050445043
-0.0004664196
-0.050373269
-0.00049277671
-0.050298481
-0.0005158574
-0.050221152
-0.00053549978
-0.050141768
-0.00055159542
-0.050060823
-0.00056408968
-0.049978807
-0.0005729818
-0.049896201
-0.00057832005
-0.049813473
-0.00058020025
-0.049731066
-0.00057875977
-0.049649397
-0.00057417203
-0.049568855
-0.00056664038
-0.049489793
-0.00055639136
-0.049412528
-0.00054366941
-0.049337342
-0.00052872836
-0.049264479
-0.00051182792
-0.049194148
-0.00049322723
-0.049126521
-0.00047318055
-0.049061738
-0.00045193313
-0.04899991
-0.00042971902
-0.048941114
-0.0004067567
-0.048885405
-0.00038324939
-0.048832813
-0.00035938304
-0.048783348
-0.0003353261
-0.048737002
-0.00031122942
-0.048693749
-0.00028722752
-0.048653553
-0.00026343833
-0.048616368
-0.00023996604
-0.048582138
-0.00021690233
-0.048550801
-0.00019432868
-0.048522294
-0.00017231861
-0.048496552
-0.00015094153
-0.048473513
-0.00013026767
-0.048453124
-0.00011037323
-0.048435355
-9.1334387e-05
-0.048420188
-7.3219795e-05
-0.048407618
-5.612363e-05
-0.048397677
-4.0605693e-05
-0.048390689
-2.6159462e-05
-1.2803295e-05
-0.049763238
0.00011181022
-0.049768615
0.00011445136
-0.049774289
0.00011748629
-0.049780295
0.00012085629
-0.049786671
0.00012448561
-0.049793455
0.00012831439
-0.049800672
0.00013228632
-0.049808342
0.00013635331
-0.049816473
0.00014046478
-0.049825067
0.00014457531
-0.049834117
0.00014863564
-0.04984361
0.00015260248
-0.049853527
0.00015642985
-0.049863844
0.00016007993
-0.04987453
0.00016351406
-0.049885552
0.00016670415
-0.049896876
0.00016962311
-0.049908461
0.00017225657
-0.049920269
0.00017459267
-0.049932261
0.00017663389
-0.049944399
0.0001783862
-0.049956647
0.00017987085
-0.049968973
0.00018111283
-0.04998135
0.0001821525
-0.049993757
0.00018303337
-0.050006181
0.00018381346
-0.050018614
0.00018455241
-0.050031061
0.00018532255
-0.050043535
0.00018619537
-0.050056057
0.00018725224
-0.050068662
0.00018857043
-0.050081394
0.0001902327
-0.050094307
0.00019231764
-0.050107466
0.00019489735
-0.050120945
0.00019804323
-0.050134826
0.0002018117
-0.050149199
0.00020625498
-0.050164157
0.00021140572
-0.050179801
0.00021728844
-0.050196229
0.0002239039
-0.050213541
0.00023124153
-0.050231834
0.0002392639
-0.050251198
0.00024791852
-0.050271717
0.00025712773
-0.05029346
0.00026679307
-0.050316485
0.00027679386
-0.050340832
0.00028698775
-0.050366523
0.00029721213
-0.050393557
0.00030728436
-0.050421907
0.00031700463
-0.050451523
0.00032615761
-0.050482325
0.00033451519
-0.050514204
0.00034183931
-0.050547019
0.00034788612
-0.0505806
0.0003524082
-0.050614744
0.00035516003
-0.050649218
0.00035590143
-0.05068376
0.00035440217
-0.050718078
0.00035044622
-0.050751856
0.00034383703
-0.050784753
0.00033440049
-0.050816408
0.00032199066
-0.050846444
0.00030649312
-0.050874472
0.00028782885
-0.050900096
0.00026595755
-0.050922916
0.00024088042
-0.050942537
0.00021264296
-0.050958573
0.00018133561
-0.050970652
0.00014709583
-0.050978423
0.0001101077
-0.050981561
7.0602637e-05
-0.050979775
2.8855999e-05
-0.050972813
-1.4814456e-05
-0.050960463
-6.0051612e-05
-0.050942565
-0.00010646317
-0.050919009
-0.00015362613
-0.050889744
-0.0002010932
-0.050854776
-0.00024839931
-0.050814174
-0.00029506985
-0.050768065
-0.0003406279
-0.050716642
-0.00038460441
-0.050660153
-0.00042654647
-0.050598903
-0.00046602677
-0.05053325
-0.0005026526
-0.050463596
-0.00053607387
-0.050390382
-0.00056599043
-0.050314082