/*--------------------------------*- C++ -*----------------------------------*\
| =========                 |                                                 |
| \\      /  F ield         | foam-extend: Open Source CFD                    |
|  \\    /   O peration     | Version:     4.1                                |
|   \\  /    A nd           | Web:         http://www.foam-extend.org         |
|    \\/     M anipulation  |                                                 |
\*---------------------------------------------------------------------------*/
FoamFile
{
    version     2.0;
    format      ascii;
    class       volScalarField;
    location    "0.7";
    object      rAU;
}
// * * * * * * * * * * * * * * * * * * * * * * * * * * * * * * * * * * * * * //

dimensions      [0 0 1 0 0 0 0];

internalField   nonuniform List<scalar> 
16126
(
0.00013372093
0.0001335611
0.00013342681
0.0001332912
0.0001331534
0.00013301522
0.00013287511
0.00013273466
0.00013259223
0.00013244939
0.00013230449
0.00013215913
0.0001320117
0.00013186382
0.0001317139
0.00013156358
0.00013141134
0.00013125884
0.00013110456
0.0001309502
0.00013079426
0.00013063843
0.00013048123
0.00013032437
0.00013016635
0.00013000885
0.00012985038
0.0001296926
0.00012953397
0.00012937614
0.00012921753
0.00012905935
0.00012890158
0.00012874301
0.00012858515
0.00012842635
0.00012826811
0.00012810875
0.00012794971
0.0001277893
0.00012762896
0.00012746711
0.00012730463
0.00012714097
0.0001269761
0.00012680994
0.00012664238
0.00012647351
0.0001263032
0.00012613153
0.00012595859
0.0001257845
0.0001256094
0.00012543363
0.00012525735
0.00012508094
0.00012490479
0.00012472931
0.00012455495
0.00012438235
0.00012421196
0.00012404439
0.00012388028
0.00012372024
0.00012356493
0.00012341494
0.00012327103
0.0001231337
0.00012300357
0.00012288119
0.00012276707
0.00012266161
0.00012256531
0.00012247837
0.00012240105
0.00012233351
0.0001222758
0.00012222786
0.00012218968
0.00012216088
0.00012214125
0.00012213036
0.00012212774
0.00012212774
0.00012213286
0.00012214526
0.00012216432
0.00012218931
0.00012221939
0.00012225367
0.00012229139
0.00012233156
0.00012237332
0.00012241584
0.00012245826
0.00012249981
0.0001225397
0.00012257735
0.000122612
0.00012264311
0.00012267017
0.00012269273
0.00012271036
0.00012272286
0.00012272983
0.00012272661
0.00012271624
0.00012269997
0.00012267775
0.00012264969
0.00012261574
0.000122576
0.00012253057
0.0001224796
0.00012242322
0.00012236173
0.00012229527
0.00012222417
0.00012214884
0.00012207004
0.00012198898
0.00012190659
0.00012181992
0.000121704
0.00012050618
0.00012044128
0.00012041037
0.00012038094
0.00012035052
0.00012032023
0.00012028845
0.00012025658
0.00012022307
0.00012018938
0.00012015395
0.00012011829
0.00012008086
0.00012004318
0.00012000376
0.00011996412
0.00011992281
0.00011988138
0.00011983837
0.00011979537
0.00011975092
0.00011970662
0.00011966103
0.00011961572
0.00011956928
0.00011952325
0.00011947621
0.00011942969
0.00011938224
0.00011933537
0.0001192876
0.00011924004
0.00011919267
0.00011914432
0.00011909645
0.00011904747
0.00011899881
0.00011894888
0.00011889907
0.00011884777
0.00011879637
0.00011874338
0.00011868967
0.00011863472
0.00011857854
0.00011852107
0.00011846222
0.00011840211
0.00011834064
0.00011827792
0.00011821404
0.00011814915
0.00011808341
0.00011801716
0.00011795057
0.00011788403
0.0001178179
0.00011775262
0.00011768862
0.00011762651
0.00011756673
0.00011750988
0.00011745656
0.00011740736
0.0001173629
0.00011732375
0.00011729062
0.00011726398
0.00011724441
0.00011723242
0.00011722847
0.00011723293
0.00011724627
0.00011726863
0.00011730025
0.00011734125
0.00011739165
0.0001174448
0.00011749563
0.00011755567
0.00011762485
0.00011770292
0.00011778954
0.00011787953
0.00011797512
0.00011807815
0.00011818805
0.00011830421
0.000118426
0.00011855268
0.00011868365
0.00011881804
0.00011895514
0.00011909417
0.0001192344
0.00011937508
0.00011951547
0.000119655
0.00011979294
0.00011992871
0.00012006179
0.00012019169
0.00012031791
0.0001204402
0.00012055811
0.000120667
0.00012076962
0.00012086704
0.00012095908
0.00012104581
0.00012112709
0.00012120298
0.00012127351
0.00012133876
0.00012139838
0.00012144333
0.00012148374
0.00012151993
0.00012155235
0.00012158182
0.00012160918
0.00012163426
0.00012165658
0.00012167044
0.00011924413
0.00011919942
0.00011918339
0.00011916935
0.00011915458
0.00011914004
0.00011912399
0.00011910784
0.00011909002
0.00011907203
0.00011905235
0.00011903252
0.00011901105
0.00011898949
0.00011896639
0.0001189433
0.00011891878
0.00011889441
0.00011886875
0.00011884337
0.00011881685
0.00011879074
0.00011876362
0.00011873702
0.0001187095
0.00011868258
0.0001186548
0.00011862764
0.00011859961
0.00011857217
0.0001185438
0.00011851555
0.00011848735
0.000118458
0.00011842887
0.00011839838
0.00011836789
0.00011833578
0.00011830341
0.00011826916
0.00011823439
0.00011819761
0.00011815968
0.00011812011
0.0001180789
0.00011803602
0.00011799141
0.00011794521
0.00011789739
0.00011784808
0.00011779742
0.00011774562
0.00011769288
0.00011763961
0.00011758602
0.00011753255
0.00011747962
0.0001174277
0.00011737726
0.00011732895
0.00011728323
0.00011724073
0.00011720204
0.00011716778
0.00011713854
0.00011711488
0.0001170975
0.00011708682
0.0001170834
0.00011708768
0.00011710009
0.00011712093
0.00011715058
0.00011718913
0.00011723675
0.00011728478
0.00011732344
0.00011736437
0.00011740267
0.00011745004
0.00011750658
0.00011757223
0.00011764682
0.00011773013
0.00011782183
0.00011792153
0.00011802872
0.00011814285
0.00011826328
0.00011838931
0.00011852032
0.00011865545
0.00011879397
0.00011893508
0.000119078
0.00011922196
0.00011936617
0.00011951003
0.00011965272
0.00011979365
0.00011993222
0.00012006789
0.00012020013
0.00012032862
0.00012045287
0.00012057258
0.00012068749
0.00012079737
0.00012090201
0.00012100138
0.00012109529
0.0001211837
0.0001212666
0.00012134398
0.00012141544
0.00012147182
0.00012152319
0.00012156975
0.00012161144
0.0001216377
0.00012166145
0.00012168271
0.00012170381
0.00012171366
0.00011913625
0.00011909735
0.00011908346
0.00011907077
0.00011905716
0.00011904373
0.00011902877
0.00011901368
0.00011899689
0.00011897991
0.00011896124
0.00011894241
0.00011892197
0.00011890146
0.00011887944
0.00011885749
0.00011883418
0.00011881108
0.00011878677
0.00011876281
0.00011873779
0.00011871326
0.00011868779
0.00011866291
0.00011863717
0.00011861208
0.00011858617
0.0001185609
0.00011853477
0.00011850921
0.0001184827
0.00011845625
0.00011842979
0.00011840208
0.0001183745
0.00011834543
0.00011831621
0.00011828523
0.00011825382
0.00011822035
0.00011818619
0.00011814984
0.00011811216
0.00011807265
0.00011803135
0.00011798822
0.00011794323
0.00011789655
0.00011784816
0.00011779822
0.00011774693
0.00011769451
0.00011764121
0.00011758748
0.00011753359
0.00011748
0.0001174272
0.00011737569
0.00011732599
0.00011727879
0.0001172346
0.00011719407
0.00011715784
0.00011712654
0.0001171008
0.0001170812
0.00011706842
0.0001170629
0.00011706518
0.00011707572
0.00011709489
0.00011712297
0.00011716032
0.00011720696
0.00011725128
0.00011727241
0.00011728397
0.00011730439
0.00011733408
0.00011737309
0.00011742162
0.00011747969
0.00011754721
0.00011762402
0.00011770985
0.00011780434
0.00011790703
0.0001180174
0.00011813482
0.0001182586
0.00011838813
0.00011852251
0.000118661
0.00011880277
0.000118947
0.00011909289
0.00011923958
0.00011938643
0.00011953258
0.00011967737
0.00011982017
0.00011996036
0.00012009738
0.00012023086
0.00012036025
0.00012048523
0.00012060549
0.00012072077
0.00012083081
0.00012093556
0.0001210348
0.00012112847
0.00012121653
0.00012129895
0.00012137569
0.00012144687
0.00012151242
0.00012157237
0.00012162638
0.00012166335
0.00012169593
0.00012171944
0.00012173686
0.00012173634
0.00011912245
0.00011908567
0.00011907228
0.00011905946
0.00011904545
0.00011903152
0.00011901599
0.00011900029
0.00011898287
0.00011896523
0.00011894588
0.00011892635
0.00011890521
0.000118884
0.0001188613
0.00011883868
0.00011881473
0.00011879101
0.00011876613
0.00011874165
0.00011871616
0.00011869121
0.00011866536
0.00011864017
0.00011861416
0.00011858885
0.00011856275
0.00011853733
0.00011851107
0.0001184854
0.00011845877
0.0001184322
0.00011840558
0.00011837769
0.00011834986
0.00011832047
0.00011829086
0.00011825939
0.00011822738
0.00011819321
0.00011815821
0.0001181209
0.00011808213
0.00011804141
0.00011799877
0.0001179542
0.00011790767
0.00011785937
0.0001178093
0.00011775766
0.00011770466
0.00011765058
0.00011759569
0.00011754048
0.00011748527
0.00011743056
0.00011737689
0.00011732481
0.00011727489
0.00011722787
0.00011718428
0.00011714484
0.0001171102
0.00011708105
0.00011705803
0.00011704174
0.00011703288
0.00011703191
0.00011703935
0.00011705565
0.00011708117
0.00011711616
0.00011716092
0.00011721546
0.00011722687
0.00011722083
0.00011722335
0.00011723486
0.00011725586
0.00011728648
0.00011732703
0.00011737758
0.00011743812
0.00011750855
0.00011758867
0.00011767815
0.00011777659
0.00011788347
0.00011799818
0.00011812004
0.0001182484
0.00011838238
0.00011852119
0.00011866398
0.00011880988
0.00011895803
0.00011910754
0.0001192577
0.00011940761
0.00011955656
0.00011970383
0.00011984879
0.00011999082
0.00012012948
0.0001202642
0.00012039461
0.00012052036
0.00012064116
0.00012075672
0.00012086697
0.00012097165
0.00012107069
0.00012116401
0.00012125156
0.00012133329
0.00012140929
0.00012147943
0.0001215437
0.00012160195
0.00012165394
0.00012169956
0.00012173353
0.00012175654
0.00012174995
0.00011911207
0.00011907617
0.00011906301
0.00011904998
0.00011903552
0.00011902099
0.00011900479
0.00011898835
0.00011897015
0.00011895169
0.0001189315
0.00011891111
0.00011888909
0.00011886701
0.00011884345
0.00011881997
0.0001187952
0.00011877069
0.00011874506
0.00011871987
0.00011869373
0.00011866817
0.00011864179
0.00011861611
0.00011858968
0.000118564
0.00011853757
0.00011851187
0.00011848537
0.00011845948
0.00011843264
0.00011840586
0.00011837902
0.00011835087
0.00011832275
0.000118293
0.00011826296
0.00011823096
0.00011819833
0.00011816342
0.00011812756
0.00011808926
0.00011804936
0.00011800738
0.00011796335
0.00011791726
0.00011786911
0.00011781909
0.00011776723
0.00011771375
0.00011765889
0.00011760296
0.00011754627
0.00011748937
0.0001174326
0.00011737652
0.00011732171
0.00011726877
0.00011721833
0.00011717117
0.00011712787
0.00011708918
0.00011705583
0.00011702851
0.0001170079
0.00011699464
0.00011698944
0.00011699276
0.00011700515
0.00011702702
0.00011705874
0.00011710053
0.00011715265
0.00011719726
0.00011717624
0.00011716087
0.00011715415
0.00011715657
0.00011716875
0.00011719091
0.00011722342
0.00011726645
0.00011732006
0.00011738423
0.00011745878
0.00011754345
0.00011763785
0.0001177415
0.00011785379
0.00011797402
0.00011810155
0.00011823546
0.00011837493
0.00011851906
0.00011866695
0.00011881767
0.0001189703
0.00011912406
0.00011927798
0.0001194313
0.00011958327
0.00011973317
0.00011988034
0.00012002431
0.00012016445
0.00012030036
0.00012043164
0.00012055798
0.00012067907
0.00012079479
0.00012090488
0.00012100924
0.00012110778
0.00012120044
0.00012128713
0.00012136795
0.00012144273
0.00012151144
0.00012157392
0.00012162996
0.0001216794
0.00012172127
0.0001217545
0.00012175065
0.00011909878
0.00011906327
0.00011905022
0.00011903701
0.00011902216
0.00011900708
0.00011899024
0.00011897308
0.0001189541
0.00011893482
0.00011891376
0.00011889249
0.00011886956
0.00011884657
0.00011882209
0.00011879772
0.00011877207
0.00011874672
0.00011872028
0.00011869434
0.00011866749
0.00011864129
0.00011861432
0.00011858813
0.00011856124
0.00011853517
0.00011850841
0.00011848243
0.00011845568
0.00011842959
0.00011840257
0.00011837561
0.00011834859
0.00011832024
0.00011829188
0.00011826184
0.00011823143
0.00011819898
0.00011816579
0.0001181302
0.00011809354
0.00011805429
0.00011801331
0.0001179701
0.00011792469
0.00011787708
0.00011782728
0.0001177755
0.00011772177
0.00011766636
0.00011760952
0.0001175516
0.00011749296
0.00011743417
0.00011737562
0.00011731794
0.00011726173
0.00011720767
0.00011715642
0.00011710882
0.00011706551
0.00011702729
0.00011699491
0.00011696913
0.00011695067
0.00011694017
0.00011693839
0.00011694579
0.00011696294
0.00011699025
0.00011702807
0.0001170766
0.00011713608
0.00011715135
0.00011711839
0.00011709347
0.00011707729
0.00011707047
0.0001170737
0.0001170873
0.00011711174
0.00011714727
0.00011719402
0.00011725203
0.00011732118
0.00011740124
0.00011749187
0.00011759257
0.00011770276
0.00011782173
0.00011794881
0.00011808305
0.00011822358
0.00011836948
0.00011851976
0.00011867348
0.00011882961
0.00011898733
0.00011914562
0.00011930365
0.00011946061
0.00011961573
0.0001197683
0.00011991779
0.00012006355
0.00012020511
0.00012034207
0.00012047406
0.00012060076
0.00012072203
0.00012083756
0.00012094727
0.00012105103
0.00012114877
0.00012124039
0.00012132597
0.00012140533
0.00012147843
0.00012154513
0.00012160525
0.00012165858
0.00012170397
0.00012174109
0.00012174297
0.00011908292
0.00011904758
0.00011903454
0.00011902113
0.00011900589
0.0001189903
0.00011897282
0.00011895494
0.00011893518
0.00011891505
0.00011889311
0.00011887092
0.00011884705
0.0001188231
0.00011879768
0.00011877237
0.0001187458
0.00011871956
0.00011869229
0.00011866555
0.00011863797
0.00011861111
0.00011858354
0.00011855682
0.00011852948
0.00011850302
0.00011847595
0.00011844971
0.00011842277
0.00011839652
0.00011836937
0.0001183423
0.00011831518
0.0001182867
0.00011825818
0.00011822793
0.00011819724
0.00011816442
0.00011813075
0.00011809456
0.00011805716
0.00011801703
0.000117975
0.00011793058
0.0001178838
0.00011783465
0.00011778316
0.00011772955
0.00011767387
0.00011761641
0.00011755745
0.00011749737
0.00011743657
0.00011737566
0.0001173151
0.00011725553
0.00011719764
0.00011714214
0.00011708976
0.00011704139
0.00011699772
0.00011695962
0.00011692788
0.00011690331
0.00011688667
0.00011687863
0.00011688
0.00011689125
0.00011691295
0.00011694554
0.00011698934
0.00011704453
0.00011711134
0.00011709651
0.00011705366
0.00011701887
0.00011699297
0.00011697666
0.00011697075
0.00011697565
0.00011699193
0.00011701991
0.00011705982
0.00011711173
0.0001171756
0.00011725123
0.00011733829
0.00011743632
0.00011754471
0.00011766275
0.00011778973
0.00011792467
0.00011806666
0.00011821471
0.00011836779
0.00011852486
0.00011868487
0.00011884691
0.0001190099
0.00011917294
0.00011933517
0.00011949576
0.00011965395
0.00011980916
0.00011996069
0.00012010806
0.00012025081
0.00012038855
0.00012052093
0.00012064781
0.00012076885
0.00012088395
0.00012099298
0.00012109585
0.00012119247
0.00012128288
0.00012136692
0.00012144455
0.00012151562
0.00012158002
0.00012163748
0.00012168683
0.00012172844
0.00012173606
0.00011906445
0.00011902921
0.00011901612
0.0001190025
0.0001189869
0.0001189708
0.00011895271
0.00011893412
0.00011891356
0.00011889258
0.00011886972
0.00011884658
0.00011882174
0.0001187968
0.00011877037
0.00011874408
0.00011871654
0.00011868938
0.00011866121
0.00011863364
0.00011860529
0.00011857773
0.00011854954
0.00011852227
0.00011849446
0.00011846762
0.00011844024
0.00011841377
0.00011838666
0.00011836029
0.00011833307
0.00011830596
0.00011827879
0.00011825027
0.00011822168
0.00011819131
0.00011816043
0.00011812733
0.00011809327
0.00011805656
0.0001180185
0.00011797754
0.00011793451
0.00011788891
0.00011784077
0.00011779008
0.00011773687
0.00011768136
0.00011762365
0.00011756401
0.00011750279
0.00011744038
0.00011737722
0.00011731397
0.00011725112
0.00011718939
0.00011712951
0.00011707226
0.00011701841
0.00011696893
0.00011692457
0.00011688623
0.0001168548
0.0001168311
0.00011681596
0.00011681011
0.00011681436
0.00011682923
0.00011685531
0.00011689302
0.0001169427
0.00011700453
0.00011707869
0.0001170357
0.00011698259
0.0001169376
0.00011690167
0.00011687562
0.00011686035
0.00011685639
0.00011686439
0.00011688478
0.00011691784
0.00011696373
0.00011702244
0.00011709381
0.00011717755
0.00011727319
0.00011738012
0.00011749759
0.00011762488
0.00011776096
0.00011790484
0.00011805549
0.00011821181
0.00011837269
0.00011853701
0.00011870377
0.00011887185
0.00011904026
0.00011920808
0.00011937444
0.0001195385
0.00011969966
0.00011985717
0.00012001049
0.00012015916
0.00012030275
0.00012044089
0.00012057342
0.00012069999
0.00012082048
0.00012093476
0.00012104274
0.00012114432
0.00012123955
0.00012132826
0.00012141041
0.00012148592
0.00012155467
0.00012161643
0.00012167003
0.00012171642
0.00012172968
0.00011904386
0.00011900865
0.00011899547
0.00011898164
0.00011896566
0.00011894906
0.00011893035
0.00011891103
0.00011888967
0.0001188678
0.00011884401
0.00011881987
0.00011879401
0.00011876803
0.00011874056
0.00011871322
0.00011868467
0.00011865652
0.00011862742
0.00011859897
0.00011856981
0.00011854151
0.00011851267
0.00011848484
0.00011845657
0.00011842935
0.00011840168
0.00011837501
0.00011834776
0.00011832134
0.0001182941
0.00011826702
0.0001182399
0.00011821142
0.00011818285
0.00011815245
0.00011812148
0.0001180882
0.00011805384
0.0001180167
0.00011797804
0.00011793631
0.00011789233
0.00011784558
0.00011779608
0.00011774382
0.00011768884
0.00011763137
0.0001175715
0.00011750956
0.0001174459
0.00011738095
0.0001173152
0.00011724934
0.00011718392
0.00011711972
0.00011705751
0.00011699814
0.00011694245
0.00011689148
0.00011684603
0.00011680708
0.00011677556
0.00011675238
0.0001167384
0.00011673441
0.00011674125
0.00011675949
0.00011678973
0.00011683241
0.00011688788
0.0001169563
0.00011703535
0.00011696891
0.00011690514
0.00011684957
0.00011680326
0.00011676715
0.00011674225
0.00011672921
0.00011672878
0.00011674147
0.00011676764
0.00011680754
0.00011686118
0.00011692847
0.00011700911
0.00011710263
0.00011720843
0.00011732571
0.00011745371
0.00011759134
0.00011773757
0.00011789128
0.0001180513
0.00011821645
0.00011838551
0.00011855743
0.00011873098
0.00011890514
0.0001190789
0.00011925134
0.00011942156
0.00011958891
0.0001197526
0.00011991207
0.00012006681
0.00012021638
0.00012036039
0.00012049864
0.00012063081
0.00012075675
0.00012087633
0.00012098945
0.00012109601
0.00012119608
0.0001212895
0.00012137624
0.00012145624
0.00012152943
0.00012159561
0.00012165364
0.00012170492
0.00012172368
0.00011902112
0.00011898594
0.00011897268
0.00011895861
0.00011894227
0.00011892516
0.00011890582
0.00011888577
0.00011886358
0.0001188408
0.00011881603
0.00011879086
0.00011876393
0.00011873685
0.00011870828
0.00011867984
0.00011865021
0.00011862102
0.00011859093
0.00011856156
0.00011853154
0.00011850247
0.00011847295
0.00011844454
0.00011841579
0.0001183882
0.00011836026
0.00011833341
0.00011830608
0.00011827964
0.00011825247
0.00011822549
0.0001181985
0.00011817017
0.00011814172
0.00011811141
0.00011808046
0.0001180471
0.00011801255
0.00011797508
0.00011793592
0.0001178935
0.00011784862
0.00011780075
0.0001177499
0.00011769606
0.00011763926
0.00011757975
0.00011751763
0.00011745324
0.00011738697
0.00011731928
0.00011725069
0.00011718194
0.00011711365
0.00011704664
0.00011698175
0.00011691989
0.00011686197
0.0001168091
0.00011676216
0.00011672219
0.0001166902
0.00011666716
0.00011665398
0.00011665152
0.00011666067
0.00011668203
0.00011671622
0.00011676373
0.0001168249
0.00011689988
0.00011697858
0.00011689659
0.00011682169
0.00011675511
0.00011669801
0.00011665148
0.00011661665
0.00011659428
0.00011658521
0.00011659008
0.00011660932
0.00011664324
0.00011669191
0.00011675527
0.00011683304
0.00011692474
0.00011702974
0.00011714723
0.00011727638
0.00011741604
0.00011756511
0.00011772238
0.0001178866
0.0001180565
0.00011823079
0.00011840832
0.00011858779
0.00011876809
0.00011894816
0.000119127
0.00011930367
0.00011947746
0.00011964756
0.00011981335
0.00011997431
0.00012012997
0.00012027992
0.00012042397
0.00012056177
0.00012069317
0.00012081805
0.00012093631
0.00012104786
0.00012115276
0.00012125089
0.00012134223
0.00012142676
0.00012150443
0.00012157512
0.00012163767
0.00012169386
0.00012171797
0.00011899657
0.0001189614
0.00011894804
0.00011893373
0.00011891701
0.00011889939
0.00011887941
0.0001188586
0.00011883555
0.00011881182
0.00011878603
0.00011875978
0.00011873172
0.00011870349
0.00011867375
0.00011864415
0.00011861338
0.00011858308
0.00011855194
0.00011852158
0.00011849065
0.00011846077
0.00011843055
0.00011840154
0.0001183723
0.00011834434
0.00011831615
0.00011828915
0.00011826179
0.0001182354
0.00011820836
0.00011818157
0.00011815481
0.00011812673
0.00011809852
0.00011806842
0.0001180376
0.00011800429
0.00011796966
0.00011793195
0.00011789238
0.00011784935
0.00011780363
0.00011775467
0.00011770248
0.00011764704
0.00011758837
0.00011752673
0.00011746223
0.00011739523
0.00011732615
0.00011725548
0.00011718378
0.00011711185
0.00011704035
0.00011697016
0.00011690219
0.00011683743
0.00011677686
0.00011672165
0.00011667278
0.00011663136
0.00011659846
0.00011657514
0.00011656238
0.0001165611
0.00011657223
0.00011659644
0.00011663438
0.00011668655
0.00011675332
0.00011683484
0.00011691229
0.00011681867
0.00011673213
0.00011665405
0.00011658572
0.00011652836
0.00011648324
0.00011645122
0.0001164333
0.00011643018
0.0001164424
0.00011647033
0.00011651411
0.00011657369
0.00011664881
0.00011673899
0.00011684356
0.00011696167
0.00011709243
0.00011723461
0.00011738704
0.0001175484
0.00011771736
0.00011789255
0.00011807257
0.00011825621
0.00011844206
0.00011862894
0.00011881571
0.00011900131
0.00011918475
0.00011936527
0.00011954201
0.00011971433
0.00011988167
0.00012004356
0.00012019956
0.00012034948
0.00012049297
0.00012062987
0.00012076007
0.00012088348
0.00012100001
0.00012110975
0.00012121258
0.00012130854
0.0001213976
0.00012147978
0.00012155501
0.00012162211
0.00012168318
0.0001217125
0.00011897021
0.00011893509
0.00011892163
0.00011890708
0.00011888998
0.00011887184
0.0001188512
0.00011882961
0.00011880567
0.00011878095
0.00011875408
0.0001187267
0.00011869745
0.00011866799
0.00011863701
0.00011860618
0.00011857419
0.00011854272
0.00011851046
0.00011847905
0.00011844717
0.00011841643
0.00011838546
0.00011835583
0.0001183261
0.00011829777
0.00011826935
0.00011824225
0.00011821489
0.00011818863
0.0001181618
0.0001181353
0.00011810888
0.00011808117
0.00011805332
0.00011802356
0.00011799302
0.00011795988
0.0001179253
0.00011788748
0.00011784761
0.00011780405
0.00011775756
0.00011770757
0.00011765406
0.000117597
0.00011753641
0.00011747255
0.00011740555
0.00011733578
0.00011726368
0.00011718979
0.0001171147
0.00011703926
0.00011696419
0.00011689043
0.00011681898
0.00011675088
0.0001166872
0.00011662919
0.00011657791
0.00011653457
0.00011650032
0.00011647628
0.00011646353
0.00011646305
0.00011647584
0.00011650261
0.00011654407
0.00011660075
0.00011667304
0.00011676109
0.00011684128
0.00011673545
0.00011663671
0.00011654658
0.00011646651
0.00011639786
0.00011634202
0.00011630002
0.00011627296
0.00011626165
0.00011626673
0.00011628865
0.00011632759
0.00011638355
0.00011645625
0.00011654521
0.00011664974
0.00011676891
0.00011690177
0.00011704701
0.00011720334
0.00011736937
0.00011754364
0.00011772468
0.000117911
0.00011810126
0.00011829398
0.0001184879
0.00011868179
0.00011887453
0.00011906507
0.0001192526
0.00011943622
0.00011961527
0.00011978916
0.0001199574
0.00012011956
0.00012027542
0.00012042463
0.00012056706
0.00012070259
0.00012083114
0.00012095264
0.00012106721
0.00012117473
0.00012127528
0.00012136887
0.00012145556
0.00012153532
0.00012160696
0.00012167283
0.00012170723
0.00011894229
0.00011890722
0.00011889366
0.00011887887
0.00011886138
0.0001188427
0.00011882138
0.00011879898
0.0001187741
0.00011874835
0.00011872035
0.00011869176
0.00011866125
0.0001186305
0.0001185982
0.00011856605
0.00011853277
0.00011850004
0.00011846658
0.00011843406
0.00011840116
0.00011836951
0.00011833776
0.00011830748
0.00011827724
0.00011824855
0.00011821991
0.00011819274
0.00011816546
0.00011813939
0.00011811286
0.00011808675
0.00011806079
0.00011803357
0.00011800624
0.00011797695
0.00011794683
0.00011791402
0.00011787963
0.00011784182
0.00011780176
0.00011775778
0.00011771059
0.00011765961
0.00011760479
0.0001175461
0.00011748354
0.00011741737
0.00011734773
0.00011727502
0.00011719968
0.00011712229
0.0001170435
0.0001169642
0.00011688518
0.00011680744
0.00011673204
0.00011666013
0.00011659285
0.00011653154
0.00011647735
0.00011643158
0.00011639548
0.00011637025
0.00011635707
0.00011635698
0.00011637107
0.0001164001
0.00011644484
0.00011650587
0.00011658358
0.00011667815
0.00011676559
0.00011664691
0.00011653535
0.00011643257
0.00011634019
0.00011625971
0.0001161927
0.00011614031
0.00011610379
0.00011608406
0.00011608186
0.00011609771
0.00011613187
0.00011618434
0.00011625486
0.00011634294
0.00011644783
0.00011656853
0.00011670402
0.00011685288
0.00011701372
0.00011718503
0.00011736523
0.00011755274
0.00011774594
0.0001179434
0.00011814353
0.00011834498
0.00011854643
0.00011874671
0.0001189447
0.00011913955
0.00011933032
0.00011951631
0.00011969693
0.00011987166
0.00012004006
0.00012020193
0.00012035692
0.0001205049
0.00012064576
0.00012077944
0.0001209059
0.00012102526
0.00012113745
0.00012124256
0.00012134065
0.00012143182
0.00012151608
0.00012159222
0.00012166281
0.00012170213
0.00011891287
0.00011887788
0.00011886424
0.00011884922
0.00011883133
0.00011881209
0.00011879006
0.00011876682
0.00011874097
0.00011871412
0.00011868493
0.00011865506
0.00011862321
0.00011859108
0.00011855737
0.00011852382
0.00011848915
0.00011845508
0.00011842034
0.00011838663
0.00011835264
0.00011832003
0.00011828745
0.00011825649
0.00011822573
0.00011819669
0.00011816786
0.00011814066
0.0001181135
0.00011808771
0.00011806158
0.00011803598
0.00011801061
0.00011798403
0.00011795735
0.00011792871
0.00011789917
0.00011786685
0.0001178328
0.00011779517
0.00011775505
0.00011771076
0.00011766297
0.00011761106
0.00011755497
0.00011749463
0.00011743005
0.00011736148
0.00011728906
0.00011721321
0.0001171344
0.00011705324
0.00011697042
0.0001168869
0.0001168035
0.00011672133
0.00011664151
0.00011656528
0.00011649386
0.00011642871
0.00011637107
0.00011632233
0.00011628385
0.00011625694
0.00011624284
0.00011624271
0.00011625771
0.00011628869
0.00011633645
0.00011640164
0.00011648468
0.00011658576
0.00011668548
0.00011655325
0.00011642817
0.00011631208
0.00011620674
0.00011611386
0.00011603514
0.00011597191
0.00011592555
0.00011589711
0.00011588746
0.00011589717
0.00011592658
0.0001159757
0.0001160443
0.00011613183
0.00011623751
0.00011636025
0.00011649894
0.00011665204
0.00011681803
0.00011699529
0.00011718209
0.00011737672
0.00011757744
0.0001177827
0.0001179908
0.00011820029
0.00011840979
0.00011861803
0.00011882384
0.00011902632
0.0001192245
0.00011941766
0.00011960517
0.00011978653
0.00011996128
0.00012012923
0.00012029003
0.00012044357
0.00012058975
0.00012072855
0.00012085993
0.00012098404
0.00012110085
0.00012121047
0.00012131302
0.00012140861
0.00012149732
0.00012157788
0.00012165308
0.0001216972
0.00011888215
0.00011884725
0.00011883354
0.00011881827
0.00011879997
0.00011878016
0.0001187574
0.00011873327
0.00011870639
0.00011867839
0.00011864793
0.00011861671
0.00011858344
0.00011854982
0.00011851462
0.00011847955
0.0001184434
0.00011840789
0.00011837179
0.00011833679
0.00011830164
0.000118268
0.00011823454
0.00011820286
0.00011817157
0.00011814217
0.00011811318
0.00011808599
0.00011805903
0.00011803359
0.00011800797
0.000117983
0.00011795837
0.00011793258
0.00011790673
0.00011787891
0.00011785013
0.00011781847
0.00011778495
0.00011774765
0.00011770763
0.00011766315
0.00011761486
0.00011756209
0.00011750475
0.00011744277
0.00011737612
0.00011730505
0.00011722971
0.00011715052
0.00011706799
0.00011698276
0.00011689557
0.00011680741
0.00011671921
0.00011663212
0.00011654736
0.00011646625
0.00011639014
0.00011632056
0.00011625888
0.00011620659
0.00011616516
0.000116136
0.00011612049
0.00011611985
0.00011613535
0.00011616792
0.00011621843
0.00011628759
0.00011637585
0.00011648345
0.00011660105
0.00011645451
0.00011631515
0.00011618499
0.00011606601
0.00011596005
0.00011586904
0.00011579445
0.00011573782
0.00011570037
0.00011568303
0.00011568652
0.00011571119
0.00011575712
0.00011582405
0.00011591141
0.00011601833
0.00011614366
0.00011628616
0.00011644417
0.00011661602
0.00011679994
0.00011699407
0.00011719653
0.00011740546
0.00011761917
0.00011783585
0.00011805394
0.00011827198
0.00011848862
0.00011870263
0.00011891309
0.00011911895
0.0001193195
0.00011951409
0.00011970221
0.00011988341
0.00012005749
0.00012022413
0.00012038323
0.00012053473
0.00012067861
0.00012081486
0.00012094367
0.00012106504
0.00012117911
0.00012128604
0.00012138598
0.00012147906
0.00012156394
0.00012164365
0.00012169242
0.00011885021
0.00011881545
0.00011880168
0.00011878619
0.00011876747
0.00011874706
0.00011872354
0.00011869847
0.0001186705
0.00011864128
0.00011860948
0.00011857682
0.00011854202
0.00011850682
0.00011847001
0.00011843333
0.00011839558
0.00011835853
0.00011832094
0.00011828458
0.00011824818
0.00011821343
0.00011817904
0.00011814661
0.00011811476
0.00011808501
0.00011805587
0.00011802875
0.00011800205
0.00011797706
0.00011795206
0.00011792786
0.00011790411
0.0001178793
0.00011785446
0.00011782765
0.00011779984
0.00011776905
0.00011773624
0.00011769946
0.00011765971
0.00011761519
0.00011756652
0.00011751298
0.00011745445
0.00011739081
0.00011732205
0.00011724839
0.00011716998
0.00011708725
0.00011700074
0.00011691112
0.00011681917
0.00011672597
0.00011663248
0.00011653995
0.0001164497
0.00011636313
0.00011628171
0.00011620707
0.00011614071
0.00011608424
0.00011603924
0.00011600726
0.00011598977
0.00011598812
0.00011600368
0.00011603745
0.00011609042
0.00011616333
0.00011625671
0.0001163708
0.00011650428
0.00011635083
0.00011619636
0.00011605132
0.00011591789
0.00011579813
0.00011569415
0.00011560763
0.00011554025
0.00011549339
0.00011546814
0.00011546527
0.00011548522
0.0001155281
0.00011559363
0.0001156812
0.00011578987
0.00011591839
0.00011606537
0.000116229
0.00011640749
0.00011659885
0.00011680108
0.00011701214
0.00011723001
0.00011745286
0.00011767876
0.00011790605
0.00011813316
0.00011835867
0.0001185813
0.00011880006
0.0001190139
0.00011922206
0.00011942391
0.00011961891
0.00011980664
0.00011998691
0.00012015941
0.00012032408
0.00012048086