/*--------------------------------*- C++ -*----------------------------------*\
| =========                 |                                                 |
| \\      /  F ield         | foam-extend: Open Source CFD                    |
|  \\    /   O peration     | Version:     4.1                                |
|   \\  /    A nd           | Web:         http://www.foam-extend.org         |
|    \\/     M anipulation  |                                                 |
\*---------------------------------------------------------------------------*/
FoamFile
{
    version     2.0;
    format      ascii;
    class       volVectorField;
    location    "0.7";
    object      U;
}
// * * * * * * * * * * * * * * * * * * * * * * * * * * * * * * * * * * * * * //

dimensions      [0 1 -1 0 0 0 0];

internalField   nonuniform List<vector> 
16126
(
(132.07933 -0.086193962 0)
(132.29337 -0.096228551 0)
(132.47297 -0.098799743 0)
(132.65975 -0.10022615 0)
(132.84922 -0.10124899 0)
(133.04095 -0.10213823 0)
(133.23476 -0.1029791 0)
(133.43058 -0.10380182 0)
(133.62842 -0.10461594 0)
(133.82827 -0.10542226 0)
(134.03013 -0.1062176 0)
(134.234 -0.10699691 0)
(134.43983 -0.1077544 0)
(134.64758 -0.10848415 0)
(134.85718 -0.10918056 0)
(135.06855 -0.10983864 0)
(135.28157 -0.11045423 0)
(135.49615 -0.11102418 0)
(135.71215 -0.1115465 0)
(135.92944 -0.11202046 0)
(136.14789 -0.11244667 0)
(136.36737 -0.11282712 0)
(136.58773 -0.11316518 0)
(136.80887 -0.11346559 0)
(137.03068 -0.11373439 0)
(137.25306 -0.11397884 0)
(137.47594 -0.11420727 0)
(137.69927 -0.11442894 0)
(137.92303 -0.11465386 0)
(138.14723 -0.11489254 0)
(138.3719 -0.11515577 0)
(138.59711 -0.11545433 0)
(138.82295 -0.11579885 0)
(139.04955 -0.11619929 0)
(139.27707 -0.11666482 0)
(139.50569 -0.11720349 0)
(139.7356 -0.11782196 0)
(139.96703 -0.11852519 0)
(140.20022 -0.11931623 0)
(140.4354 -0.120196 0)
(140.67281 -0.12116306 0)
(140.9127 -0.12221351 0)
(141.15529 -0.1233408 0)
(141.40077 -0.12453578 0)
(141.64932 -0.12578655 0)
(141.90107 -0.12707858 0)
(142.15612 -0.12839474 0)
(142.41449 -0.1297155 0)
(142.67618 -0.13101904 0)
(142.94108 -0.13228156 0)
(143.20904 -0.13347753 0)
(143.47982 -0.13458006 0)
(143.75311 -0.13556127 0)
(144.02849 -0.13639271 0)
(144.30548 -0.13704581 0)
(144.58352 -0.13749238 0)
(144.86195 -0.13770509 0)
(145.14003 -0.13765796 0)
(145.41696 -0.13732694 0)
(145.69187 -0.13669033 0)
(145.96382 -0.13572934 0)
(146.23181 -0.13442847 0)
(146.49482 -0.13277602 0)
(146.7518 -0.13076442 0)
(147.00167 -0.12839058 0)
(147.24335 -0.12565612 0)
(147.47578 -0.12256763 0)
(147.69794 -0.11913677 0)
(147.90882 -0.11538029 0)
(148.10749 -0.11132001 0)
(148.29311 -0.1069827 0)
(148.46489 -0.10239989 0)
(148.62219 -0.097607455 0)
(148.76444 -0.092645259 0)
(148.89123 -0.087556794 0)
(149.00228 -0.082388677 0)
(149.09745 -0.077189454 0)
(149.17675 -0.072007369 0)
(149.24035 -0.06688727 0)
(149.28856 -0.061871213 0)
(149.32187 -0.05699786 0)
(149.34089 -0.052300839 0)
(149.34636 -0.047798793 0)
(149.33919 -0.043487225 0)
(149.32005 -0.039419722 0)
(149.28987 -0.035716669 0)
(149.24988 -0.032462591 0)
(149.20141 -0.02969096 0)
(149.14585 -0.027417845 0)
(149.08463 -0.025649173 0)
(149.01918 -0.024382809 0)
(148.95093 -0.023609501 0)
(148.88128 -0.023313579 0)
(148.81158 -0.023473685 0)
(148.74312 -0.024063535 0)
(148.67713 -0.025052736 0)
(148.61472 -0.026407619 0)
(148.55695 -0.028092074 0)
(148.50476 -0.030068312 0)
(148.45898 -0.032297538 0)
(148.42035 -0.034740464 0)
(148.38951 -0.037357898 0)
(148.36699 -0.040110438 0)
(148.35322 -0.042958213 0)
(148.34854 -0.045857618 0)
(148.35323 -0.048760787 0)
(148.36731 -0.051651427 0)
(148.39084 -0.054532319 0)
(148.42389 -0.057390564 0)
(148.46644 -0.060203509 0)
(148.51843 -0.062946706 0)
(148.57977 -0.065594482 0)
(148.6503 -0.068119158 0)
(148.72982 -0.070489078 0)
(148.81812 -0.072665516 0)
(148.91492 -0.074599179 0)
(149.01987 -0.07622752 0)
(149.13242 -0.077463176 0)
(149.25193 -0.078134751 0)
(149.37822 -0.077904229 0)
(149.51195 -0.07642277 0)
(149.65023 -0.073867634 0)
(149.77651 -0.069946184 0)
(149.87025 -0.054460546 0)
(151.94828 -0.12851218 0)
(152.00969 -0.14266495 0)
(152.05546 -0.14769809 0)
(152.10366 -0.15071883 0)
(152.1535 -0.15294995 0)
(152.20486 -0.1549031 0)
(152.25768 -0.15676979 0)
(152.31194 -0.15862399 0)
(152.36767 -0.16049003 0)
(152.4249 -0.16236942 0)
(152.48363 -0.16425248 0)
(152.54389 -0.16612389 0)
(152.60567 -0.1679657 0)
(152.66895 -0.16975906 0)
(152.73368 -0.17148549 0)
(152.79981 -0.17312773 0)
(152.86728 -0.17467047 0)
(152.93599 -0.17610087 0)
(153.00584 -0.17740913 0)
(153.07674 -0.17858878 0)
(153.14856 -0.17963706 0)
(153.22121 -0.18055507 0)
(153.29456 -0.18134792 0)
(153.36851 -0.18202473 0)
(153.44296 -0.18259858 0)
(153.51783 -0.18308628 0)
(153.59305 -0.18350811 0)
(153.66858 -0.18388746 0)
(153.74438 -0.18425027 0)
(153.82046 -0.18462453 0)
(153.89683 -0.18503955 0)
(153.97355 -0.18552526 0)
(154.0507 -0.18611158 0)
(154.12839 -0.18682722 0)
(154.20675 -0.18769914 0)
(154.28593 -0.18875158 0)
(154.36613 -0.19000514 0)
(154.44752 -0.19147604 0)
(154.53034 -0.19317525 0)
(154.61479 -0.1951078 0)
(154.70109 -0.19727216 0)
(154.78947 -0.19965968 0)
(154.88013 -0.20225411 0)
(154.97325 -0.20503148 0)
(155.069 -0.20795978 0)
(155.16751 -0.21099908 0)
(155.26885 -0.21410165 0)
(155.37307 -0.21721233 0)
(155.48014 -0.22026905 0)
(155.58997 -0.22320345 0)
(155.70241 -0.22594175 0)
(155.81723 -0.22840575 0)
(155.93411 -0.2305139 0)
(156.05268 -0.23218263 0)
(156.17245 -0.23332765 0)
(156.29286 -0.23386544 0)
(156.41327 -0.23371474 0)
(156.53296 -0.23279812 0)
(156.65113 -0.23104356 0)
(156.76692 -0.22838604 0)
(156.87939 -0.22476899 0)
(156.98756 -0.22014578 0)
(157.0904 -0.21448107 0)
(157.18686 -0.20775199 0)
(157.27586 -0.19994921 0)
(157.35632 -0.19107782 0)
(157.42716 -0.18115797 0)
(157.48735 -0.17022533 0)
(157.53587 -0.15833124 0)
(157.57179 -0.14554263 0)
(157.59423 -0.13194173 0)
(157.60241 -0.11762541 0)
(157.59565 -0.10270422 0)
(157.57338 -0.087301121 0)
(157.53516 -0.071549963 0)
(157.4807 -0.055593245 0)
(157.40984 -0.039578306 0)
(157.32259 -0.02365334 0)
(157.2191 -0.0079733269 0)
(157.09968 0.0072965554 0)
(156.96479 0.022003749 0)
(156.81506 0.036008008 0)
(156.65126 0.049194694 0)
(156.47429 0.061484183 0)
(156.28551 0.072778707 0)
(156.08625 0.082934826 0)
(155.87769 0.091832044 0)
(155.66104 0.099397141 0)
(155.43756 0.10558501 0)
(155.20856 0.11037339 0)
(154.97532 0.11376061 0)
(154.73917 0.11576401 0)
(154.50136 0.11641843 0)
(154.26315 0.11577432 0)
(154.02573 0.11389578 0)
(153.79022 0.11085836 0)
(153.55767 0.10674677 0)
(153.32907 0.10165257 0)
(153.1053 0.095671872 0)
(152.88715 0.088903343 0)
(152.67533 0.081446272 0)
(152.47046 0.07339875 0)
(152.27305 0.064856524 0)
(152.08354 0.055913056 0)
(151.9023 0.046663213 0)
(151.72958 0.037203809 0)
(151.56573 0.027611107 0)
(151.41095 0.017933289 0)
(151.26528 0.008219041 0)
(151.12872 -0.0014815297 0)
(151.00123 -0.011121869 0)
(150.88269 -0.02065926 0)
(150.77296 -0.03005379 0)
(150.67186 -0.039265619 0)
(150.57916 -0.048250717 0)
(150.4946 -0.056958068 0)
(150.41787 -0.065337012 0)
(150.34848 -0.07329573 0)
(150.28596 -0.080590409 0)
(150.23025 -0.086687645 0)
(150.1816 -0.09118609 0)
(150.13717 -0.094805803 0)
(150.08735 -0.097044545 0)
(150.0297 -0.079144726 0)
(154.04808 -0.14825393 0)
(154.08007 -0.1566317 0)
(154.10145 -0.16188568 0)
(154.12342 -0.16571391 0)
(154.14636 -0.16884852 0)
(154.17052 -0.17170169 0)
(154.19596 -0.17446652 0)
(154.2227 -0.17722582 0)
(154.25073 -0.18000715 0)
(154.28004 -0.18280967 0)
(154.31061 -0.18561761 0)
(154.34242 -0.18840734 0)
(154.37541 -0.19115151 0)
(154.40955 -0.19382152 0)
(154.44475 -0.19638944 0)
(154.48096 -0.19882922 0)
(154.51809 -0.2011179 0)
(154.55606 -0.20323637 0)
(154.59479 -0.20517025 0)
(154.63419 -0.20691038 0)
(154.67417 -0.20845336 0)
(154.71466 -0.20980182 0)
(154.7556 -0.21096468 0)
(154.79691 -0.21195712 0)
(154.83856 -0.21280048 0)
(154.88053 -0.21352196 0)
(154.9228 -0.21415417 0)
(154.96538 -0.21473454 0)
(155.00832 -0.21530451 0)
(155.05167 -0.21590865 0)
(155.09551 -0.2165936 0)
(155.13997 -0.21740688 0)
(155.18516 -0.21839574 0)
(155.23124 -0.21960566 0)
(155.27839 -0.2210791 0)
(155.3268 -0.22285404 0)
(155.37669 -0.22496262 0)
(155.42826 -0.22742978 0)
(155.48175 -0.23027198 0)
(155.53739 -0.23349606 0)
(155.59538 -0.23709813 0)
(155.65596 -0.24106279 0)
(155.7193 -0.24536234 0)
(155.78558 -0.24995641 0)
(155.85494 -0.25479162 0)
(155.92747 -0.25980165 0)
(156.00324 -0.26490748 0)
(156.08224 -0.27001791 0)
(156.16444 -0.27503043 0)
(156.2497 -0.27983223 0)
(156.33786 -0.28430158 0)
(156.42865 -0.28830941 0)
(156.52175 -0.29172117 0)
(156.61675 -0.29439883 0)
(156.71318 -0.29620314 0)
(156.81046 -0.29699598 0)
(156.90796 -0.29664288 0)
(157.00497 -0.29501555 0)
(157.10071 -0.29199451 0)
(157.19434 -0.28747166 0)
(157.28496 -0.28135277 0)
(157.37162 -0.27355992 0)
(157.45333 -0.26403369 0)
(157.52909 -0.25273523 0)
(157.59787 -0.23964798 0)
(157.65862 -0.22477917 0)
(157.71035 -0.20816095 0)
(157.75204 -0.18985107 0)
(157.78275 -0.16993332 0)
(157.80158 -0.14851733 0)
(157.8077 -0.12573809 0)
(157.80036 -0.10175499 0)
(157.7789 -0.076750306 0)
(157.7428 -0.050927005 0)
(157.69163 -0.024505552 0)
(157.62511 0.0022812102 0)
(157.54308 0.029188813 0)
(157.44554 0.055954588 0)
(157.33264 0.082319768 0)
(157.20468 0.10803163 0)
(157.06212 0.13283177 0)
(156.90553 0.15647187 0)
(156.73565 0.17871815 0)
(156.55332 0.19935408 0)
(156.35951 0.21820385 0)
(156.15528 0.23513486 0)
(155.94178 0.25002889 0)
(155.72025 0.26278444 0)
(155.49195 0.27333128 0)
(155.25821 0.2816321 0)
(155.02033 0.28768181 0)
(154.77963 0.29150588 0)
(154.5374 0.2931581 0)
(154.2949 0.29271779 0)
(154.05333 0.2902866 0)
(153.81382 0.28598496 0)
(153.57744 0.27994837 0)
(153.34516 0.27232368 0)
(153.11788 0.26326533 0)
(152.8964 0.25293191 0)
(152.68142 0.24148283 0)
(152.47355 0.22907537 0)
(152.27332 0.2158617 0)
(152.08116 0.2019871 0)
(151.89742 0.18758839 0)
(151.72238 0.17279272 0)
(151.55622 0.15772539 0)
(151.39909 0.14250639 0)
(151.25103 0.12723878 0)
(151.11207 0.11201236 0)
(150.98216 0.096907523 0)
(150.86123 0.08199636 0)
(150.74914 0.067344265 0)
(150.64572 0.053012627 0)
(150.55078 0.039062198 0)
(150.46409 0.025553734 0)
(150.38533 0.012554934 0)
(150.31411 0.00015352122 0)
(150.2501 -0.011424277 0)
(150.19326 -0.021758289 0)
(150.14331 -0.030741738 0)
(150.09764 -0.039024935 0)
(150.0528 -0.045766593 0)
(150.01515 -0.038029695 0)
(154.21085 -0.16638364 0)
(154.23707 -0.17148886 0)
(154.2559 -0.17619537 0)
(154.27514 -0.1803902 0)
(154.29514 -0.18422264 0)
(154.31623 -0.18787833 0)
(154.33853 -0.19147133 0)
(154.36209 -0.19505535 0)
(154.38691 -0.19864502 0)
(154.413 -0.20223151 0)
(154.44032 -0.20579267 0)
(154.46885 -0.20929911 0)
(154.49853 -0.21271831 0)
(154.52931 -0.21601723 0)
(154.56113 -0.21916443 0)
(154.5939 -0.2221315 0)
(154.62755 -0.22489441 0)
(154.66199 -0.22743447 0)
(154.69715 -0.22973925 0)
(154.73293 -0.23180319 0)
(154.76926 -0.23362817 0)
(154.80607 -0.23522381 0)
(154.84328 -0.23660761 0)
(154.88087 -0.2378049 0)
(154.91877 -0.23884864 0)
(154.95699 -0.23977888 0)
(154.99551 -0.24064217 0)
(155.03437 -0.24149068 0)
(155.07361 -0.24238114 0)
(155.11329 -0.24337362 0)
(155.15351 -0.24453013 0)
(155.19439 -0.24591306 0)
(155.23607 -0.24758361 0)
(155.27871 -0.24959996 0)
(155.3225 -0.2520155 0)
(155.36764 -0.25487712 0)
(155.41435 -0.25822328 0)
(155.46284 -0.26208244 0)
(155.51335 -0.26647133 0)
(155.56612 -0.27139357 0)
(155.62137 -0.27683824 0)
(155.67932 -0.28277898 0)
(155.74016 -0.28917293 0)
(155.80406 -0.29596038 0)
(155.87118 -0.30306435 0)
(155.94161 -0.31039076 0)
(156.01542 -0.31782876 0)
(156.09261 -0.32525153 0)
(156.17313 -0.33251734 0)
(156.25688 -0.33947104 0)
(156.34367 -0.34594585 0)
(156.43324 -0.35176544 0)
(156.52528 -0.35674642 0)
(156.61938 -0.36070104 0)
(156.71504 -0.3634401 0)
(156.81172 -0.36477615 0)
(156.90877 -0.36452677 0)
(157.00548 -0.36251801 0)
(157.10106 -0.35858784 0)
(157.19465 -0.35258964 0)
(157.28537 -0.34439548 0)
(157.37224 -0.33389946 0)
(157.45427 -0.32102067 0)
(157.53044 -0.30570596 0)
(157.59969 -0.28793235 0)
(157.66099 -0.26770905 0)
(157.7133 -0.24507908 0)
(157.7556 -0.22012028 0)
(157.78692 -0.19294589 0)
(157.80633 -0.16370442 0)
(157.813 -0.13257901 0)
(157.80614 -0.09978669 0)
(157.78509 -0.065575945 0)
(157.74929 -0.030223304 0)
(157.69831 0.0059711294 0)
(157.63184 0.042685179 0)
(157.54971 0.079571043 0)
(157.45191 0.11628403 0)
(157.33857 0.152468 0)
(157.20999 0.18776816 0)
(157.0666 0.22183881 0)
(156.909 0.25434639 0)
(156.73792 0.28497257 0)
(156.55423 0.31341715 0)
(156.35891 0.3394128 0)
(156.15305 0.36273727 0)
(155.93784 0.38320874 0)
(155.71452 0.40068583 0)
(155.4844 0.41507183 0)
(155.24881 0.42631553 0)
(155.0091 0.43441041 0)
(154.7666 0.43939261 0)
(154.52262 0.44133789 0)
(154.27845 0.44035779 0)
(154.03529 0.4365952 0)
(153.7943 0.43021936 0)
(153.55656 0.42142074 0)
(153.32304 0.41040582 0)
(153.09465 0.39739195 0)
(152.87218 0.38260256 0)
(152.65634 0.36626272 0)
(152.44775 0.34859517 0)
(152.24691 0.32981707 0)
(152.05427 0.31013675 0)
(151.87015 0.28974994 0)
(151.69483 0.26883691 0)
(151.5285 0.24756634 0)
(151.37127 0.22609656 0)
(151.22321 0.20457205 0)
(151.08432 0.18312414 0)
(150.95456 0.16187316 0)
(150.83384 0.14093081 0)
(150.72203 0.12040346 0)
(150.61897 0.10039714 0)
(150.52446 0.081023073 0)
(150.43826 0.062401483 0)
(150.3601 0.044669646 0)
(150.28964 0.028024777 0)
(150.22666 0.012808465 0)
(150.17102 -0.00052038728 0)
(150.12216 -0.011738353 0)
(150.07801 -0.020453911 0)
(150.03816 -0.024980763 0)
(150.00979 -0.0185666 0)
(154.21586 -0.17877224 0)
(154.24011 -0.18281082 0)
(154.25863 -0.18729808 0)
(154.27771 -0.19180428 0)
(154.29753 -0.19624237 0)
(154.31839 -0.20064985 0)
(154.34043 -0.20506651 0)
(154.36371 -0.20950865 0)
(154.38826 -0.21396981 0)
(154.41409 -0.21842692 0)
(154.44117 -0.22284649 0)
(154.46949 -0.22718916 0)
(154.49898 -0.23141339 0)
(154.52959 -0.23547797 0)
(154.56126 -0.2393443 0)
(154.59391 -0.24297797 0)
(154.62744 -0.24635037 0)
(154.66179 -0.24943974 0)
(154.69685 -0.25223236 0)
(154.73254 -0.25472315 0)
(154.76877 -0.25691647 0)
(154.80548 -0.25882636 0)
(154.84258 -0.26047678 0)
(154.88003 -0.26190146 0)
(154.91778 -0.26314361 0)
(154.95581 -0.2642553 0)
(154.99413 -0.26529663 0)
(155.03274 -0.26633463 0)
(155.0717 -0.26744192 0)
(155.11106 -0.26869512 0)
(155.15093 -0.27017317 0)
(155.19142 -0.27195525 0)
(155.23267 -0.27411885 0)
(155.27486 -0.27673742 0)
(155.31816 -0.27987822 0)
(155.36279 -0.2836 0)
(155.40897 -0.2879507 0)
(155.45692 -0.2929654 0)
(155.5069 -0.29866408 0)
(155.55914 -0.30504998 0)
(155.61389 -0.3121077 0)
(155.67136 -0.31980207 0)
(155.73178 -0.32807685 0)
(155.79531 -0.33685422 0)
(155.86213 -0.34603433 0)
(155.93235 -0.35549543 0)
(156.00603 -0.36509436 0)
(156.08321 -0.37466752 0)
(156.16383 -0.38403229 0)
(156.2478 -0.39298887 0)
(156.33495 -0.40132255 0)
(156.42502 -0.40880647 0)
(156.51771 -0.41520468 0)
(156.6126 -0.42027566 0)
(156.7092 -0.42377603 0)
(156.80697 -0.42546461 0)
(156.90524 -0.42510671 0)
(157.00331 -0.42247844 0)
(157.10036 -0.41737122 0)
(157.19555 -0.4095962 0)
(157.28794 -0.39898857 0)
(157.37657 -0.38541179 0)
(157.46041 -0.36876145 0)
(157.53842 -0.34896888 0)
(157.60953 -0.32600425 0)
(157.67267 -0.29987925 0)
(157.72676 -0.27064917 0)
(157.77079 -0.23841424 0)
(157.80373 -0.20332053 0)
(157.82464 -0.16555959 0)
(157.83265 -0.12536825 0)
(157.82697 -0.083027224 0)
(157.80689 -0.038857723 0)
(157.77184 0.0067827854 0)
(157.72137 0.053507489 0)
(157.65515 0.10089719 0)
(157.57301 0.14852084 0)
(157.47493 0.19592318 0)
(157.36104 0.24264311 0)
(157.23163 0.288221 0)
(157.08716 0.33220604 0)
(156.92823 0.37416557 0)
(156.75559 0.41369252 0)
(156.57013 0.45041126 0)
(156.37285 0.48398724 0)
(156.16488 0.51413432 0)
(155.94743 0.5406168 0)
(155.72178 0.56325254 0)
(155.48927 0.58191656 0)
(155.25125 0.59654223 0)
(155.00912 0.60712032 0)
(154.76424 0.61369653 0)
(154.51795 0.6163676 0)
(154.27156 0.61527633 0)
(154.02629 0.61060576 0)
(153.78332 0.60257273 0)
(153.54374 0.59142113 0)
(153.30854 0.57741509 0)
(153.07863 0.5608323 0)
(152.8548 0.54195777 0)
(152.63778 0.52107801 0)
(152.42815 0.49847597 0)
(152.22644 0.47442679 0)
(152.03307 0.44919426 0)
(151.84836 0.42302736 0)
(151.67259 0.39615763 0)
(151.50591 0.36879903 0)
(151.34844 0.34114744 0)
(151.20024 0.3133795 0)
(151.0613 0.28565342 0)
(150.93156 0.2581107 0)
(150.81093 0.2308786 0)
(150.69928 0.20407359 0)
(150.59645 0.17780629 0)
(150.50225 0.15218684 0)
(150.41646 0.12733026 0)
(150.33882 0.1033707 0)
(150.26909 0.080503219 0)
(150.20711 0.059033508 0)
(150.15274 0.039311686 0)
(150.10545 0.021580868 0)
(150.06403 0.00690839 0)
(150.02938 -0.0030200166 0)
(150.00709 -0.0046375824 0)
(154.21687 -0.19278944 0)
(154.23992 -0.19670794 0)
(154.25815 -0.201313 0)
(154.27714 -0.20622426 0)
(154.29693 -0.21127506 0)
(154.31775 -0.21641758 0)
(154.33976 -0.22163457 0)
(154.36301 -0.22690725 0)
(154.38755 -0.23220706 0)
(154.41339 -0.23749566 0)
(154.44052 -0.24272797 0)
(154.46891 -0.24785511 0)
(154.4985 -0.2528275 0)
(154.52924 -0.25759713 0)
(154.56107 -0.26211986 0)
(154.59389 -0.26635705 0)
(154.62763 -0.27027733 0)
(154.66218 -0.27385774 0)
(154.69746 -0.27708508 0)
(154.73337 -0.27995657 0)
(154.76982 -0.28248071 0)
(154.80672 -0.28467757 0)
(154.844 -0.28657898 0)
(154.8816 -0.28822835 0)
(154.91947 -0.28968028 0)
(154.95758 -0.29099977 0)
(154.99593 -0.29226122 0)
(155.03453 -0.29354707 0)
(155.07341 -0.29494617 0)
(155.11265 -0.29655193 0)
(155.15234 -0.29846015 0)
(155.19259 -0.3007667 0)
(155.23355 -0.303565 0)
(155.27539 -0.30694342 0)
(155.3183 -0.31098249 0)
(155.3625 -0.31575224 0)
(155.40822 -0.32130946 0)
(155.4557 -0.3276951 0)
(155.50519 -0.33493179 0)
(155.55695 -0.34302168 0)
(155.61123 -0.3519443 0)
(155.66827 -0.36165514 0)
(155.7283 -0.37208413 0)
(155.79152 -0.383135 0)
(155.8581 -0.39468473 0)
(155.92817 -0.40658377 0)
(156.00183 -0.41865656 0)
(156.07909 -0.43070273 0)
(156.15995 -0.44249882 0)
(156.24431 -0.45380043 0)
(156.332 -0.46434504 0)
(156.4228 -0.47385528 0)
(156.51637 -0.48204263 0)
(156.61233 -0.48861163 0)
(156.71019 -0.49326445 0)
(156.80938 -0.49570575 0)
(156.90925 -0.49564786 0)
(157.00907 -0.49281606 0)
(157.10803 -0.48695404 0)
(157.20525 -0.47782927 0)
(157.2998 -0.46523832 0)
(157.39066 -0.44901198 0)
(157.47682 -0.42902003 0)
(157.55717 -0.40517564 0)
(157.63064 -0.37743928 0)
(157.69611 -0.345822 0)
(157.7525 -0.310388 0)
(157.79871 -0.27125646 0)
(157.83373 -0.22860262 0)
(157.85657 -0.18265737 0)
(157.86632 -0.13370773 0)
(157.86215 -0.082093993 0)
(157.84334 -0.028205979 0)
(157.80929 0.027521297 0)
(157.75951 0.084610346 0)
(157.69367 0.14254647 0)
(157.61158 0.20078988 0)
(157.51321 0.25878289 0)
(157.39869 0.31595786 0)
(157.26831 0.37174751 0)
(157.12254 0.42559456 0)
(156.96199 0.47696213 0)
(156.78744 0.52534369 0)
(156.5998 0.57027343 0)
(156.40011 0.61133681 0)
(156.18953 0.64817855 0)
(155.96932 0.68050745 0)
(155.74078 0.7081004 0)
(155.50531 0.73080562 0)
(155.26432 0.74854364 0)
(155.01922 0.76130616 0)
(154.77142 0.76915295 0)
(154.5223 0.77220698 0)
(154.27318 0.7706482 0)
(154.02535 0.7647063 0)
(153.77999 0.75465259 0)
(153.53819 0.74079164 0)
(153.30098 0.72345272 0)
(153.06926 0.70298157 0)
(152.84384 0.67973253 0)
(152.62542 0.65406142 0)
(152.41461 0.62631918 0)
(152.21191 0.59684652 0)
(152.01774 0.56596937 0)
(151.83241 0.53399527 0)
(151.65616 0.50121108 0)
(151.48916 0.46788207 0)
(151.33151 0.43425099 0)
(151.18324 0.40053764 0)
(151.04434 0.36693961 0)
(150.91473 0.33363391 0)
(150.79431 0.30077954 0)
(150.68295 0.26852092 0)
(150.58047 0.23699218 0)
(150.48669 0.20632151 0)
(150.40137 0.17663633 0)
(150.3243 0.14807773 0)
(150.25527 0.12083128 0)
(150.19413 0.095139678 0)
(150.14074 0.071229196 0)
(150.09469 0.049285008 0)
(150.05544 0.030473389 0)
(150.02442 0.015522702 0)
(150.00569 0.006034701 0)
(154.22397 -0.20321896 0)
(154.24605 -0.20737334 0)
(154.26388 -0.21228125 0)
(154.28264 -0.2176655 0)
(154.30229 -0.22334739 0)
(154.32302 -0.22923503 0)
(154.34495 -0.23527067 0)
(154.36816 -0.24140478 0)
(154.39269 -0.24758596 0)
(154.41855 -0.25375817 0)
(154.44575 -0.25986187 0)
(154.47423 -0.26583581 0)
(154.50397 -0.27161956 0)
(154.5349 -0.27715563 0)
(154.56694 -0.28239175 0)
(154.60001 -0.28728262 0)
(154.63401 -0.29179181 0)
(154.66885 -0.29589307 0)
(154.70442 -0.29957179 0)
(154.74063 -0.30282581 0)
(154.77736 -0.30566637 0)
(154.81454 -0.3081184 0)
(154.85207 -0.31022081 0)
(154.88988 -0.3120262 0)
(154.92792 -0.31360037 0)
(154.96616 -0.31502145 0)
(155.00457 -0.31637866 0)
(155.04317 -0.31777069 0)
(155.08199 -0.31930384 0)
(155.1211 -0.32108969 0)
(155.16058 -0.32324269 0)
(155.20056 -0.32587727 0)
(155.24118 -0.32910497 0)
(155.28262 -0.33303124 0)
(155.32507 -0.33775222 0)
(155.36875 -0.34335156 0)
(155.41392 -0.34989712 0)
(155.46082 -0.35743797 0)
(155.50972 -0.36600133 0)
(155.56089 -0.37559009 0)
(155.6146 -0.38618024 0)
(155.67111 -0.39771915 0)
(155.73067 -0.41012377 0)
(155.79349 -0.42327986 0)
(155.85976 -0.43704136 0)
(155.92964 -0.45123057 0)
(156.00324 -0.46563883 0)
(156.0806 -0.48002789 0)
(156.16172 -0.49413193 0)
(156.24652 -0.50766015 0)
(156.33486 -0.52030007 0)
(156.4265 -0.53172141 0)
(156.52113 -0.54158048 0)
(156.61835 -0.54952518 0)
(156.7177 -0.55520043 0)
(156.81858 -0.55825393 0)
(156.92035 -0.55834234 0)
(157.02227 -0.55513759 0)
(157.1235 -0.54833332 0)
(157.22316 -0.53765138 0)
(157.32027 -0.5228481 0)
(157.41382 -0.50372047 0)
(157.50273 -0.48011187 0)
(157.5859 -0.45191731 0)
(157.66218 -0.41908815 0)
(157.73045 -0.38163603 0)
(157.78957 -0.33963606 0)
(157.83841 -0.29322896 0)
(157.87591 -0.24262247 0)
(157.90104 -0.1880909 0)
(157.91285 -0.12997609 0)
(157.91048 -0.068683136 0)
(157.89318 -0.0046763958 0)
(157.8603 0.061524808 0)
(157.81134 0.12935479 0)
(157.74593 0.19821009 0)
(157.66388 0.26744776 0)
(157.56513 0.33640217 0)
(157.44982 0.4043953 0)
(157.31825 0.47074892 0)
(157.17088 0.53479651 0)
(157.00835 0.59589582 0)
(156.83146 0.65344098 0)
(156.64117 0.70687473 0)
(156.43854 0.75570014 0)
(156.22478 0.79949028 0)
(156.00119 0.83789536 0)
(155.76915 0.87064813 0)
(155.53007 0.89756732 0)
(155.28544 0.91855874 0)
(155.03671 0.9336137 0)
(154.78535 0.94280527 0)
(154.53277 0.94628226 0)
(154.28034 0.94426171 0)
(154.02937 0.93701995 0)
(153.78108 0.92488278 0)
(153.53658 0.90821532 0)
(153.2969 0.88741164 0)
(153.06296 0.86288478 0)
(152.83558 0.83505742 0)
(152.61545 0.80435324 0)
(152.40317 0.77118941 0)
(152.19925 0.73597014 0)
(152.00407 0.69908132 0)
(151.81795 0.66088627 0)
(151.6411 0.62172307 0)
(151.47369 0.58190305 0)
(151.31579 0.54170994 0)
(151.16741 0.50139991 0)
(151.02853 0.46120261 0)
(150.89907 0.42132322 0)
(150.77891 0.38194549 0)
(150.66791 0.34323584 0)
(150.56588 0.30534808 0)
(150.47264 0.26842846 0)
(150.38798 0.23262264 0)
(150.31168 0.19809052 0)
(150.24356 0.16502759 0)
(150.1835 0.1336607 0)
(150.13131 0.10419773 0)
(150.08675 0.076866309 0)
(150.04961 0.052865948 0)
(150.02132 0.032038985 0)
(150.00488 0.014946353 0)
(154.23637 -0.21579928 0)
(154.2576 -0.22040698 0)
(154.275 -0.22579104 0)
(154.29346 -0.23175362 0)
(154.3129 -0.23812483 0)
(154.33348 -0.24479141 0)
(154.35531 -0.25166853 0)
(154.37846 -0.25868219 0)
(154.40298 -0.26576068 0)
(154.42888 -0.27283122 0)
(154.45615 -0.27982012 0)
(154.48476 -0.28665393 0)
(154.51466 -0.29326162 0)
(154.5458 -0.29957648 0)
(154.57809 -0.3055385 0)
(154.61144 -0.31109613 0)
(154.64574 -0.31620834 0)
(154.6809 -0.32084607 0)
(154.71681 -0.32499379 0)
(154.75334 -0.3286505 0)
(154.7904 -0.33183067 0)
(154.82787 -0.33456468 0)
(154.86567 -0.33689901 0)
(154.90371 -0.338896 0)
(154.94193 -0.34063325 0)
(154.98028 -0.34220258 0)
(155.01875 -0.34370859 0)
(155.05733 -0.34526687 0)
(155.09606 -0.34700172 0)
(155.13498 -0.34904358 0)
(155.17421 -0.35152613 0)
(155.21384 -0.35458303 0)
(155.25404 -0.35834456 0)
(155.29498 -0.3629339 0)
(155.33687 -0.36846344 0)
(155.37994 -0.37503105 0)
(155.42444 -0.38271626 0)
(155.47065 -0.39157677 0)
(155.51884 -0.40164493 0)
(155.56931 -0.41292481 0)
(155.62234 -0.42538919 0)
(155.67822 -0.43897762 0)
(155.73721 -0.45359422 0)
(155.79955 -0.46910685 0)
(155.86546 -0.48534631 0)
(155.93512 -0.50210648 0)
(156.00864 -0.51914516 0)
(156.08611 -0.53618559 0)
(156.16753 -0.55291875 0)
(156.25285 -0.56900635 0)
(156.34194 -0.58408462 0)
(156.43456 -0.59776877 0)
(156.53043 -0.60965811 0)
(156.62915 -0.61934177 0)
(156.73024 -0.62640502 0)
(156.83312 -0.63043598 0)
(156.93712 -0.63103271 0)
(157.04151 -0.62781064 0)
(157.14542 -0.62041006 0)
(157.24794 -0.60850363 0)
(157.34809 -0.59180383 0)
(157.4448 -0.57007008 0)
(157.53698 -0.54311554 0)
(157.62347 -0.51081324 0)
(157.70309 -0.47310165 0)
(157.77467 -0.4299894 0)
(157.83703 -0.38155897 0)
(157.88899 -0.32796942 0)
(157.92944 -0.26945802 0)
(157.9573 -0.20634002 0)
(157.97158 -0.13900996 0)
(157.97137 -0.067936043 0)
(157.95587 0.0063436763 0)
(157.92442 0.083225897 0)
(157.87645 0.16204363 0)
(157.81159 0.24208383 0)
(157.72961 0.32259483 0)
(157.63046 0.40279716 0)
(157.51425 0.48189612 0)
(157.3813 0.55909587 0)
(157.23207 0.63361373 0)
(157.06724 0.70469528 0)
(156.88763 0.77162908 0)
(156.69423 0.83376121 0)
(156.48816 0.8905087 0)
(156.27067 0.94137105 0)
(156.04313 0.9859391 0)
(155.80697 1.0239017 0)
(155.56369 1.0550498 0)
(155.3148 1.079277 0)
(155.06184 1.0965785 0)
(154.80631 1.1070455 0)
(154.54971 1.1108587 0)
(154.29343 1.1082788 0)
(154.03882 1.0996359 0)
(153.78712 1.0853176 0)
(153.5395 1.0657571 0)
(153.29698 1.0414205 0)
(153.06049 1.0127952 0)
(152.83086 0.98037869 0)
(152.60878 0.94466859 0)
(152.39484 0.9061536 0)
(152.18953 0.86530614 0)
(151.99322 0.8225761 0)
(151.80621 0.77838609 0)
(151.62871 0.73312821 0)
(151.46084 0.68716205 0)
(151.30266 0.64081371 0)
(151.15417 0.59437584 0)
(151.01532 0.54810871 0)
(150.88602 0.50224225 0)
(150.76612 0.45697908 0)
(150.65547 0.41249846 0)
(150.55389 0.36896076 0)
(150.46118 0.32651242 0)
(150.37714 0.28529339 0)
(150.30156 0.24544996 0)
(150.23428 0.20714761 0)
(150.17519 0.17056271 0)
(150.12411 0.13586068 0)
(150.08091 0.10325683 0)
(150.04555 0.073917611 0)
(150.01929 0.047040252 0)
(150.00437 0.022784326 0)
(154.25396 -0.22530428 0)
(154.27434 -0.23044518 0)
(154.29126 -0.23638944 0)
(154.30934 -0.242992 0)
(154.3285 -0.25009454 0)
(154.34887 -0.25757238 0)
(154.37056 -0.26532091 0)
(154.39363 -0.27324526 0)
(154.41812 -0.28125431 0)
(154.44404 -0.28925784 0)
(154.4714 -0.29716662 0)
(154.50015 -0.30489323 0)
(154.53026 -0.31235415 0)
(154.56164 -0.31947162 0)
(154.59422 -0.32617607 0)
(154.62789 -0.33240804 0)
(154.66256 -0.33812036 0)
(154.6981 -0.3432798 0)
(154.73439 -0.34786876 0)
(154.77131 -0.35188643 0)
(154.80874 -0.35534984 0)
(154.84656 -0.35829433 0)
(154.88467 -0.36077383 0)
(154.92298 -0.36286052 0)
(154.96141 -0.3646442 0)
(154.9999 -0.36623107 0)
(155.03843 -0.36774214 0)
(155.07699 -0.3693111 0)
(155.1156 -0.3710818 0)
(155.15432 -0.37320524 0)
(155.19324 -0.37583633 0)
(155.23247 -0.37913004 0)
(155.27218 -0.38323761 0)
(155.31253 -0.38830229 0)
(155.35376 -0.39445502 0)
(155.3961 -0.40181023 0)
(155.43983 -0.41046135 0)
(155.48522 -0.42047687 0)
(155.53257 -0.43189617 0)
(155.58221 -0.44472622 0)
(155.63443 -0.45893807 0)
(155.68955 -0.47446457 0)
(155.74786 -0.49119784 0)
(155.80962 -0.50898826 0)
(155.87508 -0.52764353 0)
(155.94444 -0.54692882 0)
(156.01785 -0.56656765 0)
(156.09541 -0.58624362 0)
(156.17716 -0.60560303 0)
(156.26304 -0.62425827 0)
(156.35295 -0.64179211 0)
(156.44668 -0.65776285 0)
(156.54394 -0.6717101 0)
(156.64435 -0.6831614 0)
(156.74742 -0.69163941 0)
(156.85257 -0.69666961 0)
(156.95913 -0.69778851 0)
(157.06633 -0.69455212 0)
(157.17331 -0.68654458 0)
(157.27912 -0.67338689 0)
(157.38275 -0.65474543 0)
(157.4831 -0.63034025 0)
(157.57902 -0.59995289 0)
(157.66933 -0.56343353 0)
(157.7528 -0.52070746 0)
(157.82819 -0.47178051 0)
(157.89428 -0.41674348 0)
(157.94984 -0.35577528 0)
(157.99369 -0.28914488 0)
(158.0247 -0.21721135 0)
(158.04184 -0.14042525 0)
(158.04412 -0.059321878 0)
(158.03072 0.025482286 0)
(158.00091 0.11329529 0)
(157.9541 0.20336148 0)
(157.88988 0.29486477 0)
(157.808 0.38694058 0)
(157.70838 0.47869089 0)
(157.59114 0.56919893 0)
(157.45658 0.65754549 0)
(157.3052 0.74282559 0)
(157.13769 0.82416624 0)
(156.95492 0.90074381 0)
(156.7579 0.97180108 0)
(156.54782 1.036663 0)
(156.32601 1.0947501 0)
(156.09387 1.1455897 0)
(155.85293 1.1888234 0)
(155.60474 1.2242119 0)
(155.35091 1.251636 0)
(155.09303 1.2710945 0)
(154.83269 1.2826982 0)
(154.57141 1.2866614 0)
(154.31067 1.2832912 0)
(154.05184 1.2729744 0)
(153.79623 1.2561642 0)
(153.54499 1.2333648 0)
(153.2992 1.2051182 0)
(153.05979 1.1719893 0)
(152.82758 1.1345534 0)
(152.60327 1.0933849 0)
(152.38744 1.0490463 0)
(152.18055 1.0020803 0)
(151.98298 0.95300261 0)
(151.79499 0.90229667 0)
(151.61677 0.85041006 0)
(151.44841 0.79775229 0)
(151.28996 0.74469387 0)
(151.14139 0.69156653 0)
(151.00263 0.63866455 0)
(150.87355 0.5862469 0)
(150.75401 0.53454061 0)
(150.64384 0.48374455 0)
(150.54283 0.43403375 0)
(150.45078 0.38556428 0)
(150.36748 0.33847994 0)
(150.29273 0.29292165 0)
(150.22638 0.24903321 0)
(150.1683 0.20695233 0)
(150.11834 0.16680434 0)
(150.07643 0.12875355 0)
(150.04259 0.093900178 0)
(150.01788 0.060949152 0)
(150.00403 0.029921368 0)
(154.27591 -0.23679739 0)
(154.29549 -0.24256034 0)
(154.31189 -0.24916292 0)
(154.32954 -0.25649111 0)
(154.34838 -0.26439495 0)
(154.36851 -0.27274267 0)
(154.39002 -0.28141489 0)
(154.41298 -0.29029932 0)
(154.43744 -0.29928737 0)
(154.4634 -0.30827228 0)
(154.49085 -0.31714949 0)
(154.51977 -0.32581748 0)
(154.5501 -0.33417999 0)
(154.58176 -0.34214786 0)
(154.61467 -0.34964161 0)
(154.64872 -0.35659349 0)
(154.68379 -0.36294991 0)
(154.71976 -0.36867317 0)
(154.75649 -0.3737434 0)
(154.79385 -0.37815984 0)
(154.8317 -0.38194201 0)
(154.86992 -0.38513027 0)