/*--------------------------------*- C++ -*----------------------------------*\
| =========                 |                                                 |
| \\      /  F ield         | foam-extend: Open Source CFD                    |
|  \\    /   O peration     | Version:     4.1                                |
|   \\  /    A nd           | Web:         http://www.foam-extend.org         |
|    \\/     M anipulation  |                                                 |
\*---------------------------------------------------------------------------*/
FoamFile
{
    version     2.0;
    format      ascii;
    class       volScalarField;
    location    "0.5";
    object      p;
}
// * * * * * * * * * * * * * * * * * * * * * * * * * * * * * * * * * * * * * //

dimensions      [0 2 -2 0 0 0 0];

internalField   nonuniform List<scalar> 
4393
(
-46.426151
-93.034417
-146.8399
-201.67404
-258.71028
-318.26028
-380.70779
-446.3632
-515.4515
-588.0836
-664.22807
-743.68304
-826.05075
-910.71875
-996.85161
-1083.3962
-1169.1009
-1252.5465
-1332.1838
-1406.3724
-1473.4176
-1531.6055
-1579.2376
-1614.6727
-1636.3802
-1643.0147
-1633.5201
-1607.2758
-1564.1752
-1504.7199
-1430.1229
-1342.2921
-1243.7251
-1137.3258
-1026.1781
-913.32018
-801.55441
-693.31611
-590.60464
-494.96994
-407.5408
-329.0793
-260.0467
-200.66934
-151.00884
-111.0342
-80.526328
-58.575364
-44.363373
-45.173993
-92.44823
-146.12659
-200.80914
-257.67592
-317.07081
-379.39118
-444.95947
-514.01259
-586.67346
-662.9223
-742.56731
-825.21782
-910.26389
-996.86692
-1083.9648
-1170.2922
-1254.4137
-1334.763
-1409.6839
-1477.4669
-1536.3833
-1584.718
-1620.8079
-1643.0936
-1650.1957
-1641.0231
-1614.8805
-1571.5976
-1511.6688
-1436.3129
-1347.4731
-1247.7124
-1140.0207
-1027.572
-913.48431
-800.62026
-691.45184
-587.99281
-491.78978
-403.95582
-325.23045
-256.05225
-196.63472
-147.031
-107.14969
-76.720189
-55.601192
-44.995312
-44.369642
-91.550204
-144.8663
-199.18741
-255.70275
-314.78582
-376.85612
-442.25838
-511.25264
-583.98556
-660.46023
-740.5045
-823.7411
-909.56399
-997.1267
-1085.3473
-1172.931
-1258.4079
-1340.1769
-1416.5499
-1485.7885
-1546.1358
-1595.8445
-1633.208
-1656.6061
-1664.5796
-1655.9486
-1629.9346
-1586.276
-1525.3953
-1448.5055
-1357.6193
-1255.4365
-1145.1255
-1030.0467
-913.48146
-798.41259
-687.38254
-582.42921
-485.08665
-396.43029
-317.14798
-247.62444
-188.02945
-138.37264
-98.468569
-68.007461
-47.432397
-38.642131
-43.578465
-90.252954
-142.96005
-196.70165
-252.672
-311.27323
-372.95368
-438.09006
-506.97725
-579.79843
-656.59257
-737.21901
-821.32264
-908.30503
-997.30867
-1087.2214
-1176.7029
-1264.2299
-1348.1483
-1426.7221
-1498.1719
-1560.7017
-1612.5195
-1651.8578
-1677.008
-1686.3882
-1678.6724
-1652.9309
-1608.754
-1546.4577
-1467.2421
-1373.2261
-1267.3266
-1152.9971
-1033.8945
-913.55673
-795.15298
-681.33151
-574.16299
-475.15761
-385.32956
-305.28586
-235.32737
-175.54862
-125.88412
-86.058749
-55.758369
-35.650172
-27.498271
-42.75226
-88.63325
-140.48606
-193.42208
-248.64317
-306.58232
-367.72335
-432.48453
-501.20736
-574.12496
-651.32617
-732.71495
-817.96857
-906.5007
-997.43925
-1089.6293
-1181.6658
-1271.9494
-1358.7521
-1440.274
-1514.6835
-1580.1377
-1634.7916
-1676.8028
-1704.3497
-1715.6884
-1709.2907
-1684.0066
-1639.201
-1575.0218
-1492.6358
-1394.307
-1283.265
-1163.3773
-1038.7276
-913.21786
-790.27394
-672.68279
-562.54935
-461.33988
-369.97517
-288.94543
-218.43245
-158.42142
-108.74513
-69.046164
-39.017884
-19.381148
-11.616913
-41.742429
-86.581387
-137.3332
-189.23231
-243.48944
-300.57279
-361.00897
-425.26808
-493.75127
-566.75685
-644.44011
-726.76598
-813.45768
-903.94817
-997.3479
-1092.4448
-1187.7448
-1281.5455
-1372.0204
-1457.2889
-1535.458
-1604.6351
-1662.9189
-1708.3834
-1739.0708
-1753.0323
-1748.4714
-1723.9352
-1678.4669
-1611.9597
-1525.5086
-1421.5643
-1303.7886
-1176.6271
-1044.7541
-912.56373
-783.8166
-661.46777
-547.64816
-443.74768
-350.54966
-268.38068
-197.25856
-137.01755
-87.356243
-47.817641
-18.064205
1.2203641
8.7670635
-40.598791
-84.168265
-133.56596
-184.18114
-237.23784
-293.24541
-352.78102
-416.37736
-484.50938
-557.55777
-635.76377
-719.17355
-807.5743
-900.42926
-996.82962
-1095.4885
-1194.7927
-1292.9016
-1387.8604
-1477.69
-1560.4313
-1634.1458
-1696.8828
-1746.6328
-1781.2867
-1798.6478
-1796.5747
-1773.2101
-1727.1463
-1657.8928
-1566.4045
-1455.3606
-1329.0108
-1192.5959
-1051.5911
-911.04003
-775.1244
-646.99011
-528.77129
-421.73324
-326.4641
-243.0704
-171.35567
-110.96155
-61.422774
-22.160881
7.2358762
26.176098
33.551289
-39.187443
-81.242852
-129.02517
-178.10437
-229.71643
-284.41704
-342.84153
-405.5965
-473.24603
-546.27281
-625.02713
-709.6617
-800.05186
-895.70762
-995.70109
-1098.6488
-1202.7777
-1306.0622
-1406.3814
-1501.6379
-1589.8064
-1668.9162
-1736.9865
-1791.9375
-1831.5028
-1853.1978
-1854.45
-1832.8744
-1786.4403
-1714.0845
-1616.5027
-1496.6417
-1359.548
-1211.554
-1059.2148
-908.41808
-763.86024
-628.88644
-505.5874
-395.03067
-297.53057
-212.90153
-140.67283
-80.247339
-30.964809
7.8972119
36.853898
55.428306
62.64103
-37.652495
-77.963559
-123.8583
-171.12573
-221.01718
-274.14027
-331.19603
-392.87665
-459.85228
-532.73013
-611.99755
-697.946
-790.57227
-889.45889
-993.66367
-1101.68
-1211.5202
-1320.91
-1427.5126
-1529.0903
-1623.5586
-1708.9422
-1783.2665
-1844.4134
-1889.9678
-1917.1243
-1922.7835
-1903.8817
-1857.5366
-1781.8335
-1677.0058
-1546.2957
-1395.8353
-1233.4662
-1067.2007
-904.0155
-749.21854
-606.33871
-477.34227
-362.99293
-263.22676
-177.47677
-104.92802
-44.693655
4.1159019
42.391764
70.775238
88.91541
95.946217
-35.74552
-74.032627
-117.74576
-162.91378
-210.79526
-262.05259
-317.45886
-377.80338
-443.88051
-516.44756
-596.16213
-683.49484
-778.60881
-881.19797
-990.31786
-1104.3051
-1220.8809
-1337.431
-1451.3328
-1560.1833
-1661.8557
-1754.4167
-1835.959
-1904.3842
-1957.1614
-1991.1438
-2002.606
-1987.6254
-1942.171
-1863.0672
-1749.7425
-1605.7293
-1438.6563
-1258.4784
-1075.1846
-897.1474
-730.37701
-578.52774
-443.30802
-325.02604
-223.10224
-136.47896
-63.917504
-4.1878674
43.862291
81.313902
108.94946
126.55173
133.36343
-33.792149
-69.827899
-111.07206
-153.83731
-199.39203
-248.45621
-301.88003
-360.56064
-425.43537
-497.44031
-577.44245
-666.14197
-763.92925
-870.66935
-985.44273
-1106.3899
-1230.8344
-1355.6913
-1477.9568
-1595.0338
-1704.7884
-1805.4029
-1895.13
-1971.9839
-2033.3821
-2075.8374
-2094.908
-2085.5942
-2042.3411
-1960.1176
-1836.9691
-1676.6364
-1488.8442
-1286.5619
-1082.4796
-886.74768
-706.14282
-544.31488
-402.5043
-280.35042
-176.57988
-89.512438
-17.396662
41.395631
88.310524
124.6347
151.29959
168.22628
174.767
-31.313496
-64.764268
-103.19885
-143.22362
-186.09868
-232.59933
-283.65545
-340.28177
-403.57826
-474.6924
-554.74723
-644.73527
-745.35665
-856.73878
-978.04073
-1107.1622
-1240.8748
-1375.4271
-1507.2913
-1633.6396
-1752.3868
-1861.9373
-1960.8347
-2047.3475
-2118.9561
-2171.8725
-2200.8807
-2199.6463
-2160.6341
-2076.1283
-1941.8102
-1761.3739
-1547.5352
-1317.664
-1088.1709
-871.45093
-675.04342
-502.3463
-353.81002
-228.11087
-123.05528
-36.185926
34.856453
92.150625
137.46103
172.28817
197.71256
213.79513
220.00054
-28.922048
-59.583205
-94.921003
-131.88723
-171.73562
-215.29452
-263.57309
-317.70952
-378.98387
-448.78844
-528.55401
-619.63856
-723.15753
-839.63514
-968.4073
-1107.0866
-1251.669
-1397.4419
-1540.1469
-1676.6909
-1805.1446
-1924.3018
-2033.1868
-2130.5324
-2214.0726
-2279.8058
-2321.6787
-2331.8037
-2300.1653
-2215.152
-2068.4513
-1863.081
-1616.1104
-1351.519
-1090.8756
-849.36822
-635.15009
-450.92961
-295.88507
-167.33132
-61.873861
23.896084
93.041057
148.13421
191.27164
224.16444
248.03294
263.07482
268.86975
-25.817617
-53.294904
-85.145366
-118.65881
-155.04983
-195.18833
-240.15679
-291.21906
-349.85106
-417.72696
-496.64668
-588.4228
-694.7252
-816.68072
-953.98931
-1103.9539
-1261.4757
-1420.4329
-1575.5245
-1723.3533
-1862.3129
-1991.8095
-2111.5706
-2221.0574
-2318.5409
-2399.9756
-2458.4505
-2484.3601
-2464.7675
-2382.5628
-2222.7196
-1986.1392
-1696.3391
-1387.5769
-1088.5893
-817.95486
-584.00299
-388.01454
-227.18843
-96.951314
7.6282684
91.096206
157.30357
209.34417
249.64137
280.09849
302.05495
315.83573
321.13606
-22.967081
-47.098118
-75.192163
-104.93696
-137.50895
-173.81085
-214.98976
-262.43172
-317.81802
-383.13895
-460.62781
-552.64638
-661.57941
-789.44305
-936.61988
-1100.1195
-1273.258
-1447.778
-1616.8381
-1776.697
-1926.3722
-2066.2354
-2197.032
-2319.3493
-2432.4866
-2532.7004
-2612.2663
-2659.753
-2659.0159
-2585.4535
-2412.8314
-2136.7731
-1790.4408
-1424.7598
-1078.3532
-773.74615
-518.45534
-311.12998
-145.97452
-15.851811
86.089082
165.71011
227.70921
275.69727
312.3948
339.85929
359.51483
371.79619
376.51128
-19.208686
-39.550531
-63.468876
-89.016561
-117.27887
-149.1639
-185.85985
-228.85627
-280.03402
-341.72518
-416.66509
-507.86888
-618.62166
-752.23998
-910.36779
-1089.9004
-1281.8836
-1474.812
-1659.5781
-1832.1315
-1992.6817
-2143.099
-2285.4624
-2421.8718
-2553.2529
-2676.5954
-2783.3618
-2860.2708
-2888.2044
-2833.175
-2650.6304
-2324.1561
-1901.2117
-1461.1242
-1055.8025
-712.04139
-434.52399
-217.35848
-50.333788
77.08126
174.05815
247.91524
304.20398
347.00282
379.2646
403.13877
420.08387
430.61777
434.65372
-15.880246
-32.342728
-51.859307
-72.912674
-96.493687
-123.4988
-155.13885
-192.99008
-239.12541
-296.24523
-367.66978
-457.18276
-569.15007
-708.71449
-879.74701
-1079.5032
-1295.6904
-1511.6439
-1714.7342
-1900.6002
-2071.5403
-2231.6487
-2384.5647
-2534.2887
-2684.4259
-2833.7633
-2973.3776
-3088.5109
-3158.177
-3137.9268
-2953.6244
-2562.4593
-2032.1374
-1493.2688
-1014.4578
-626.46996
-327.22431
-103.34346
61.72434
182.85888
271.91155
337.70697
386.57078
422.93449
449.87439
469.54191
483.36308
491.90237
495.16608
-11.448873
-23.556042
-38.247882
-54.382466
-72.784999
-94.29749
-120.10754
-151.82374
-191.64969
-242.61838
-308.67474
-394.45292
-505.499
-649.36809
-833.75728
-1057.5025
-1303.4826
-1546.7668
-1769.3563
-1966.841
-2145.4943
-2313.0772
-2475.095
-2637.8217
-2809.1773
-2991.3114
-3174.9182
-3343.0341
-3474.344
-3515.5314
-3348.146
-2874.3864
-2187.1654
-1515.3095
-944.66292
-508.45019
-190.44127
34.618455
192.10971
302.23656
379.73589
434.82004
474.38042
503.00173
523.7233
538.5793
548.88026
555.19176
557.59594
-7.5108473
-15.358445
-25.154592
-36.195684
-49.116724
-64.666516
-83.963652
-108.59816
-140.84714
-184.04994
-242.87423
-322.99601
-431.23336
-578.14867
-777.83752
-1033.5177
-1321.0901
-1601.7318
-1848.9494
-2058.514
-2243.9168
-2418.6659
-2589.5935
-2764.1925
-2956.3713
-3173.7486
-3406.8147
-3635.5999
-3844.7737
-3984.1415
-3872.4628
-3298.0975
-2371.1224
-1517.9757
-832.18733
-346.56523
-16.906741
200.33706
342.37492
435.49415
497.17991
538.63862
566.94135
586.52407
600.17454
609.66354
616.09061
619.97011
621.43891
-2.4511783
-5.5987094
-10.021657
-15.465431
-22.314935
-31.19574
-43.117086
-59.590941
-82.864072
-116.43901
-165.65261
-237.29239
-339.17836
-484.76551
-697.92826
-992.14977
-1333.6913
-1659.684
-1930.9459
-2144.0123
-2325.8819
-2499.3823
-2671.5093
-2848.4774
-3054.4844
-3308.6216
-3604.5334
-3919.6002
-4246.7163
-4558.4088
-4588.0176
-3907.9672
-2592.8689
-1485.8289
-655.27033
-125.63439
201.61734
397.23736
513.27423
582.1354
623.27766
648.10275
663.2554
672.61362
678.45137
682.11165
684.38194
685.67045
686.14545
2.9878499
4.0243415
4.6335986
4.4946304
3.5404593
1.3338198
-2.9216823
-10.515324
-23.447034
-45.07466
-81.21129
-139.98982
-230.20025
-367.48518
-590.10201
-934.90948
-1357.3395
-1750.0914
-2055.2992
-2268.8236
-2442.7449
-2615.6758
-2793.9493
-2975.4653
-3200.084
-3505.9111
-3889.1953
-4318.9711
-4769.6973
-5297.2485
-5579.4778
-4830.5768
-2841.2568
-1378.9244
-378.66002
173.79171
473.44458
627.40297
704.0944
740.50567
756.25833
761.62609
761.98959
760.17145
757.6436
755.15498
753.08518
751.68493
751.13101
8.3181974
13.342566
19.450456
25.33084
31.233775
36.923959
41.865776
45.047963
44.793685
38.062174
18.692705
-23.293773
-97.932071
-220.1068
-444.18506
-853.38092
-1396.2435
-1874.9085
-2210.6029
-2395.1552
-2533.398
-2690.115
-2868.9522
-3034.8546
-3245.7158
-3579.8664
-4030.1214
-4568.198
-5096.0547
-5966.6905
-6830.2448
-6305.8558
-3078.5173
-1173.7705
34.931954
571.77174
804.54231
889.95379
911.73867
907.3638
893.38065
877.05074
861.4789
847.90591
836.72847
827.9583
821.49101
817.37947
815.78983
17.822852
25.908948
36.869201
47.881268
59.625859
72.051912
84.917101
97.572263
108.85115
116.55679
115.27593
94.063526
41.980906
-49.52205
-245.27265
-715.45345
-1440.4459
-2030.7278
-2411.71
-2548.5551
-2645.7491
-2791.9243
-2989.7522
-3122.1264
-3285.0653
-3684.1949
-4231.1821
-4968.6542
-5686.095
-7249.7659
-8889.5629
-9076.3438
-3583.6203
-1041.3622
633.88939
1098.5523
1197.179
1179.0063
1129.6724
1077.5096
1030.8604
991.67602
959.77709
934.3797
914.6082
899.64863
888.8721
882.11206
879.51179
22.106233
30.978073
46.301732
62.478414
80.478137
100.47364
122.70807
147.20471
173.74081
201.69459
227.81727
241.13106
226.44025
180.39197
44.395834
-483.86407
-1552.331
-2306.0415
-2768.8527
-2777.1982
-2753.0956
-2818.2763
-3031.4438
-3108.7238
-3217.0252
-3769.2212
-4239.8551
-5192.664
-6478.3182
-7870.966
-9597.0735
-12112.832
-4831.4054
-74.941966
1722.2423
1811.9617
1641.3352
1479.0632
1346.5951
1243.6076
1163.9868
1102.4035
1054.7706
1018.0896
990.16448
969.35291
954.51034
945.25395
941.70136
36.789642
46.571078
66.578273
87.503651
110.99744
137.37802
167.24967
201.09819
239.25898
282.03902
327.90038
365.77622
372.63355
347.98134
292.74573
-192.51251
-1814.848
-2612.4696
-3106.9934
-2785.4351
-2626.0672
-2733.9083
-3139.9125
-3285.7555
-3315.0619
0
0
0
0
0
0
0
0
6202.7343
3402.9523
2583.0536
2068.8195
1756.4488
1545.7165
1396.6788
1287.5898
1206.0409
1144.3612
1097.5762
1062.326
1036.2415
1017.7266
1006.2121
1001.7974
35.169829
42.234796
64.17316
87.312605
113.53039
143.15421
177.08538
216.28127
261.78554
315.2183
378.41633
446.98673
504.43954
562.50129
708.34966
547.94479
-1993.2683
-2770.6237
-3621.4724
-2980.5113
-3048.4252
-3018.385
0
0
0
0
0
0
0
0
0
0
10133.184
6288.4438
4125.3117
3001.4168
2362.2633
1970.0455
1709.8619
1528.3373
1397.0314
1299.7666
1226.6994
1171.5493
1130.1408
1099.5727
1077.9102
1064.4509
1059.2921
44.085209
54.962886
81.029784
107.14069
136.40287
169.37427
207.30622
251.63125
304.13158
367.74844
447.67415
546.67063
654.74876
756.31223
839.19058
571.47254
-3093.9842
-3580.3075
-3206.7215
0
0
0
0
0
0
0
0
0
0
0
1786.3408
3370.2838
5760.2737
5238.7262
3963.3326
3101.6849
2508.4169
2108.8627
1831.6758
1633.9423
1489.3277
1381.5893
1300.398
1238.9985
1192.8385
1158.7312
1134.5447
1119.5114
1113.748
22.185585
42.102276
66.361386
91.352645
118.91644
149.82411
185.15096
226.06879
273.87878
330.7284
400.4781
479.74408
540.93418
541.85623
564.02819
701.06432
0
0
0
0
0
0
-1127.4261
-1098.9536
-1006.7497
-912.95562
-785.39062
-490.49358
-89.99071
702.14764
2031.7511
3367.0131
4754.896
4492.737
3717.0533
3060.508
2554.2031
2183.5664
1912.6576
1712.7764
1563.3974
1450.5199
1364.6381
1299.2581
1249.8715
1213.2547
1187.2263
1171.0252
1164.8102
19.930578
49.973523
74.979877
100.64698
128.18298
158.41757
192.00184
229.3766
270.50856
314.61446
359.40086
398.30675
408.46415
341.85131
147.76242
-331.33812
-1276.4788
-1220.979
-1141.3588
-1095.2084
-1046.1333
-1016.8757
-1005.6504
-798.58578
-834.02748
-578.62241
-357.77694
-199.95216
263.81727
909.65755
1965.0428
3053.8169
3960.2778
3854.8947
3406.747
2935.6477
2530.2122
2207.553
1958.086
1766.6885
1619.707
1506.4915
1419.1636
1352.0187
1300.9284
1262.8458
1235.6739
1218.7232
1212.2145
20.624202
46.460663
72.149948
98.087457
125.51255
155.17416
187.65418
223.3221
262.16831
303.30441
343.57214
375.72624
387.23305
356.06814
208.61246
-223.41718
-786.61344
-915.42204
-957.24263
-961.08148
-882.92879
-837.58494
-814.00127
-687.29546
-616.47657
-413.11907
-174.72938
82.191
515.3684
1100.9816
1900.6514
2725.7737
3338.5003
3359.8812
3108.2263
2779.3473
2465.2745
2195.5079
1975.1283
1799.0812
1659.8171
1550.1689
1464.2037
1397.2976
1345.9239
1307.3702
1279.7303
1262.4381
1255.7904
15.059216
36.35728
59.0116
81.619364
104.75746
128.66471
153.348
178.44991
203.07209
225.26406
240.83541
242.58102
221.24541
162.85134
19.225651
-279.11308
-601.63824
-727.27396
-779.48833
-789.42878
-748.40587
-698.85172
-637.71206
-533.29707
-419.47043
-233.86778
-7.1408576
274.23795
672.95232
1192.0377
1827.4595
2454.85
2893.0392
2970.1284
2837.6293
2615.3213
2378.2325
2159.5079
1970.8484
1813.9102
1685.8897
1582.7087
1500.356
1435.3815
1384.9704
1346.8427
1319.3554
1302.101
1295.4587
23.817105
46.476298
70.299386
93.867953
117.88035
142.44429
167.38166
192.06798
215.19214
234.19944
244.40534
238.77484
208.56018
138.51337
-3.5843698
-232.25936
-455.45131
-575.01571
-630.6319
-639.88027
-611.26934
-563.81075
-492.87195
-390.10092
-260.03452
-78.655016
143.41409
420.34559
781.22721
1227.9139
1739.5283
2225.5237
2560.6619
2661.6228
2602.3326
2457.2487
2282.3293
2109.0647
1951.5205
1815.1015
1700.3151
1605.5416
1528.4647
1466.7585
1418.3407
1381.4057
1354.614
1337.7335
1331.2252
12.137593
30.14401
50.362532
70.496044
90.649937
110.7046
130.35306
148.92681
165.18205
176.88032
180.3256
170.42982
140.4052
77.848647
-36.428308
-199.43762
-354.43199
-452.25328
-501.56651
-509.75445
-484.50296
-435.63527
-361.37343
-258.32994
-124.30952
51.155335
266.01159
529.3115
853.7454
1236.3307
1652.4962
2036.4495
2305.3056
2414.6298
2400.8706
2311.0027
2185.3917
2050.9851
1922.2528
1806.1929
1705.4447
1620.1956
1549.509
1492.0502
1446.4264
1411.3041
1385.6589
1369.4364
1363.1717
21.427081
40.740647
61.07165
80.712904
99.94526
118.50238
135.87287
151.16751
162.94228
168.91989
165.85852
149.8129
115.72854
55.324858
-40.105123
-161.78579
-274.90283
-351.8808
-391.39105
-396.15405
-370.90581
-320.47685
-244.46214
-141.10676
-7.6350653
160.89442
365.12203
610.03864
899.907
1228.2822
1571.5976
1882.0438
2105.2884
2215.213
2229.9074
2179.2746
2092.1386
1990.1758
1887.0468
1790.2004
1703.4379
1628.1718
1564.5152
1511.9523
1469.6978
1436.8582
1412.7139
1397.3767
1391.4438
11.987014
28.212784
46.33431
64.12694
81.490534
98.072437
113.34518
126.45839
136.08424
140.23309
136.22991
120.87395
90.149442
38.673216
-36.666328
-126.78021
-209.63341
-267.79002
-296.73157
-296.47834
-269.3116
-217.49785
-140.91927
-38.42665
92.046136
252.9239
444.98659
670.22094
928.4259
1211.4916
1498.8019
1755.6106
1945.863
2052.7672
2085.2456
2062.4868
2005.025
1929.8035
1848.8658
1769.5749
1696.1798
1630.8641
1574.4909
1527.185
1488.6695
1458.4396
1436.0545
1421.7731
1416.2391
17.207092
33.421341
50.538837
66.831106
82.342556
96.692971
109.33127
119.43946
125.83728
126.8984
120.60357
104.65057
76.289478
32.539558
-26.768815
-93.885452
-154.42127
-196.59673
-215.42759
-209.52755
-179.53046
-126.31492
-49.747767
50.956241
177.07326
329.7089
509.06314
715.07862
945.17789
1190.8215
1434.7674
1651.6862
1817.1178
1919.475
1962.9922
1960.0714
1925.3488
1871.9159
1809.9112
1746.2568
1685.2625
1629.517
1580.3821
1538.4572
1503.8712
1476.4483
1455.9917
1442.8826
1437.7938
12.086924
26.620079
42.502674
57.766919
72.248935
85.522656
97.034614
106.01323
111.40781
111.86494
105.81178
91.559529
67.323906
31.757529
-13.895793
-63.332894
-106.67744
-135.50884
-145.17477
-133.66957
-100.6325
-46.151452
29.993764
128.31062
249.43355
393.63933
560.45668
748.53949
954.14638
1169.0556
1379.1644
1565.8505
1712.0702
1809.4099
1859.6626
1870.8909
1853.5517
1817.7074
1771.6931
1721.7263
1671.9896
1625.208
1583.0477
1546.4406
1515.8257
1491.2947
1472.8563
1460.9869
1456.371
13.772967
27.596347
42.259567
56.097952
69.032525
80.669277
90.507678
97.881343
101.92982
101.60817
95.771043
83.272464
63.087855
34.888005
0.44947452
-35.212479
-65.049923
-82.812071
-84.410063
-67.660751
-31.675746
23.889966
99.320638
194.90673
310.81386
446.75423
601.69973
773.54473
958.09078
1147.8136
1331.2937
1494.6646
1625.7118
1718.0969
1772.3288
1793.6685
1789.613
1767.877
1735.24
1697.1067
1657.4078
1618.8482
1583.2474
1551.7537
1525.0321
1503.3844
1486.986
1476.3812
1472.2497
11.476508
24.294372
38.067616
51.084817
63.18692
73.981542
83.006022
89.681035
93.304929
93.083666
88.212885
77.982034
61.940542
40.38701
15.24141
-9.4792197
-28.54787
-37.155485
-31.808872
-10.365503
28.298207
84.740258
159.26191
251.97852
362.72152
490.81348
634.83302
792.27552
958.8898
1127.988
1290.3415
1435.4629
1554.3536
1642.1032
1698.5472
1727.1197
1733.2175
1722.754
1701.2166
1673.2167
1642.3405
1611.1941
1581.64
1554.9535
1531.9555
1513.1073
1498.7147
1489.3641
1485.7149
11.526694
23.563276
36.352148
48.349599
59.435411
69.256648
77.411712
83.421293
86.738145
86.785805
83.035025
75.108308
62.951686
47.210138
29.748834
13.816278
3.424563
2.3708319
13.611808
39.140104
80.140433
137.2497
210.74772
300.6081
406.42614
527.26096
661.44591
806.31403
957.78136
1109.998
1255.4786
1386.1512
1495.2094
1578.7605
1636.2945
1670.0425
1683.9063
1682.4264
1670.0345
1650.6314
1627.4198
1602.8599
1578.7847
1556.5307
1537.0194
1520.8287
1508.3636
1500.2294
1497.0499
10.471455
21.795103
33.863127
45.173967
55.594171
64.800217
72.446655
78.146167
81.488067
82.079793
79.616547
73.978268
65.384891
54.665665
43.558467
34.733895
31.370533
36.528373
52.710329
81.715443
124.69227
182.27665
254.70173
341.82639
443.08101
557.35468
682.85012
816.88564
955.65009
1094.0628
1226.0049
1345.1454
1446.2055
1526.0346
1583.9557
1621.4
1641.2011
1646.8577
1641.9508
1629.7723
1613.144
1594.3486
1575.1558
1556.9143
1540.6036
1526.8844
1516.2351
1509.2597
1506.5304
10.069764
20.760915
32.123089
42.7543
52.541184
61.197285
68.433048
73.944422
77.436557
78.665126
77.499158
74.007197
68.586286
62.147733
56.280994
53.223112
55.55806
65.800464
86.078089
117.98912
162.59729
220.49338
291.85099
376.43651
473.56701
582.02965
699.97739
824.79948
952.99381
1080.1503
1201.2112
1311.112
1405.6577
1482.2482
1540.1354
1580.2147
1604.5538
1615.8633
1617.0464
1610.8831
1599.8497
1586.0368
1571.1312
1556.4623
1543.0372
1531.5738
1522.6062
1516.721
1514.4196
9.4892895
19.655523
30.4698
40.591022
49.914311
58.187142
65.171821
70.638641
74.391482
76.306856
76.389499
74.846148
72.186617
69.347543
67.777562
69.385638
76.323558
90.696811
114.32797
148.62652
194.55241
252.63086
322.97238
405.26955
498.76336
602.18673
713.69504
830.79161
950.27858
1068.31
1180.6462
1283.1498
1372.4064
1446.227
1503.8438
1545.7902
1573.5832
1589.34
1595.4299
1594.2101
1587.8561
1578.2732
1567.0569
1555.5007
1544.6181
1535.1666
1527.7276
1522.8603
1520.9672
9.0695161
18.780721
29.117619
38.80277
47.743746
55.719469
62.537699
68.031348
72.084451
74.668267
75.889892
76.053782
75.738157
75.874784
77.788285
83.139098
93.760742
111.44997
137.78469
174.00767
220.97394
279.13755
348.54875
428.84206
519.20897
618.35975
724.48223
835.20856
947.61749
1058.3243
1163.7149
1260.3332
1345.3311
1416.8281
1474.0622
1517.322
1547.7289
1566.9562
1576.9582
1579.7502
1577.2549
1571.2098
1563.1182
1554.2319
1545.555
1537.8697
1531.8055
1527.8979
1526.4091
8.6855361
18.041767
28.012346
37.369158
46.028871
53.798638
60.525812
66.095695
70.45686
73.65413
75.870836
77.479329
79.097546
81.638814
86.324577
94.628327
108.14899
128.45139
156.92113
194.66084
242.42997
300.61521
369.2135
447.81474
535.5795
631.21472
732.95424
838.5553
945.33343
1050.2701
1150.2234
1242.2352
1323.8684
1393.472
1450.3006
1494.4773
1526.8402
1548.734
1561.7955
1567.7703
1568.3736
1565.1998
1559.667
1552.9848
1546.1396
1539.9277
1535.0444
1532.0401
1530.9778
8.3174633
17.402925
27.092772
36.202499
44.654395
52.280241
58.960096
64.620887
69.260835
72.979723
76.01589
78.787658
81.934959
86.349092
93.169903
103.73284
119.4662
141.7636
171.86398
210.75796
259.1246
317.29253
385.21456
462.44725
548.13266
640.98438
739.28399
840.89822
943.33392
1043.8528
1139.6609
1228.1584
1307.2022
1375.3091
1431.7535
1476.5474
1510.3306
1534.2095
1549.5858
1557.9991
1561.0032
1560.0771
1556.569
1551.6545
1546.3033
1541.3149
1537.4655
1535.3977
1534.8997
7.9459557
16.905948
26.419414
35.368978
43.683389
51.218335
57.880846
63.62988
68.500354
72.631573
76.300012
79.953886
84.244169
90.041265
98.423392
110.62816
127.96537
151.70823
182.98981
222.71718
271.50746
329.64388
397.04557
473.24565
557.37587
648.16003
743.92154
842.61408
941.88848
1039.2094
1132.0275
1217.9911
1295.1595
1362.1671
1418.3058
1463.5158
1498.3019
1523.6061
1540.6628
1550.8633
1555.6423
1556.3922
1554.4068
1550.8365
1546.6349
1542.573
1539.4754
1538.236
1538.5138
7.4433608
16.471857
25.90523
34.770187
43.004032
50.486868
57.146475
62.963958
67.998329
72.413954
76.51067
80.753826
85.798724
92.500176
101.89667
115.16619
133.54482
158.2269
190.27548
230.54214
279.60209
337.70766
404.75537
480.26338
563.3581
652.77223
746.85936
843.63273
940.83871
1036.0734
1126.9432
1211.2526
1287.1879
1353.4586
1409.3694
1454.8173
1490.2239
1516.4265
1534.5528
1545.8977
1551.8177
1553.6456
1552.6348
1549.9215
1546.4534
1542.9463
1540.2206
1539.7709
1541.9567
6.220111
16.13947
25.624887
34.482544
42.685824
50.14688
56.807709
62.661601
67.779901
72.339499
76.651993
81.191519
86.616331
93.776272
103.69466
117.51226
136.41811
161.57077
194.00278
234.53873
283.73291
341.8219
408.69071
483.84992
566.42335
655.14858
748.3949
844.20614
940.37703
1034.5695
1124.4671
1207.9514
1283.2714
1349.1741
1404.9716
1450.5404
1486.2616
1512.9218
1531.5968
1543.5342
1550.0472
1552.438
1551.9481
1549.7169
1546.7023
1543.5794
1541.1345
1541.6385
1547.4734
-2221.279
-2477.1708
-2692.6613
-2873.7722
-3014.903
-3094.9527
-3093.9842
-3012.1998
-2838.783
-2646.6549
-3206.8408
-3206.7215
-3200.6655
-3190.6446
-3177.4574
-3165.7024
-3154.0788
-3164.0158
-3163.5363
-3134.618
-3186.0583
-3185.1195
-3170.801
-3154.4272
-3138.2448
-3130.2943
-3112.7034
-3119.3187
-3105.4035
-3050.851
-3143.0412
-3140.3517
-3131.3584
-3122.3131
-3113.1871
-3115.9755
-3105.3272
-3103.0432
-3089.5455
-3052.3511
-3081.7812
-3080.4617
-3075.9403
-3069.7472
-3060.4556
-3058.6154
-3060.3502
-3060.6412
-3059.7961
-3063.4669
-3037.2996
-3036.5347
-3031.6386
-3022.7649
-3009.7302
-2980.5113
-3002.0313
-3013.0662
-3018.3285
-3030.155
-3023.4348
-3025.0613
-3028.7733
-3032.7722
-3045.7006
-3024.3196
-3022.1481
-3016.2979
-2999.2773
-2974.4506
-3035.5306
-3036.7036
-3041.5878
-3048.4252
-3070.2354
-3078.2117
-3060.0175
-3035.1395
-3005.8662
-2970.5565
-3855.371
-3868.0855
-3839.3403
-3795.0929
-3757.6317
-3725.6067
-3704.1043
-3690.3358
-3681.3196
-3682.9305
-2990.0828
-2989.16
-2982.3553
-2967.3614
-2927.1934
-2952.0573
-2963.6123
-2965.5723
-2955.0117
-2927.8985
-3015.0976
-3018.385
-3025.2926
-3046.8045
-3025.0948
-3014.4931
-3008.7683
-2999.9953
-2985.0488
-2969.3261
-3051.1912
-3053.253
-3057.2477
-3080.6785
-3094.4013
-3071.1678
-3045.091
-3025.2759
-3006.747
-2990.5125
-2998.0953
-2994.2596
-2974.1932
-2947.6162
-2970.5761
-2989.4664
-3002.4898
-3011.5323
-3015.0947
-3023.0622
-3034.2594
-3037.2472
-3035.9947
-2997.5795
-3007.2858
-3021.6449
-3033.3653
-3041.561
-3045.4551
-3055.6934
-3166.8941
-3175.2725
-3200.0983
-3197.8588
-3168.6616
-3139.9125
-3118.5389
-3102.6782
-3086.9314
-3069.4011
-3155.4552
-3150.8231
-3143.288
-3164.3016
-3164.3074
-3157.3674
-3149.9291
-3143.3568
-3136.3636
-3137.436
-3178.5307
-3178.1836
-3154.3793
-3163.7946
-3174.6246
-3181.8298
-3185.0472
-3185.5941
-3183.7216
-3187.4322
-3290.8874
-3303.2467
-3300.2334
-3285.7555
-3269.7157
-3256.8527
-3247.2661
-3240.6049
-3232.944
-3223.6015
-3290.3216
-3293.853
-3301.0147
-3293.8973
-3285.3048
-3280.481
-3280.5468
-3284.9741
-3289.7624
-3301.6487
-3195.3357
-3181.0734
-3198.482
-3224.4998
-3254.2443
-3283.2061
-3310.3065
-3334.8199
-3354.7456
-3379.3469
-3338.7763
-3315.0619
-3324.345
-3344.1558
-3370.3728
-3395.0985
-3417.0842
-3435.0599
-3447.1398
-3462.4133
-3713.957
-3705.1394
-3674.0297
-3639.3919
-3613.6724
-3593.557
-3580.9118
-3573.2778
-3566.7588
-3563.5325
-3019.0828
-3017.4428
-3011.1417
-2997.9513
-2989.8715
-2997.8689
-2999.0198
-2995.4233
-2987.5897
-2987.3321
-3538.9405
-3547.5531
-3561.9381
-3609.3772
-3665.7419
-3716.966
-3737.2459
-3717.8081
-3631.4784
-3457.3304
-3271.7801
-3271.7913
-3274.4121
-3279.1181
-3280.0759
-3278.9872
-3276.5323
-3272.5198
-3267.5301
-3219.7791
-3171.6694
-3221.07
-3284.3464
-3389.8488
-3501.3297
-3587.4356
-3630.9608
-3588.497
-3436.1714
-3201.6648
-3480.8835
-3490.8229
-3511.2521
-3547.3446
-3580.3075
-3607.9459
-3615.226
-3615.1675
-3578.3373
-3464.363
-3369.1033
-3373.5075
-3387.3732
-3410.9768
-3431.6237
-3448.9745
-3456.7943
-3445.9118
-3432.2848
-3379.1362
11322.211
10719.185
10133.184
9493.4904
8836.3157
8182.9149
7548.4598
6939.973
6350.4493
5773.3049
8308.3037
8230.7347
8107.0955
7845.1249
7506.937
7116.2252
6694.2906
6259.0149
5820.6319
5364.0415
-3712.6303
-3730.9882
-3749.0647
-3755.8679
-3765.3338
-3769.2212
-3774.4931
-3778.2511
-3779.7706
-3783.3332
-3710.372
-3714.2061
-3749.7151
-3781.2564
-3820.7438
-3848.3103
-3872.5883
-3888.8837
-3897.714
-3901.994
-3953.1805
-3945.8688
-3961.9597
-3969.4103
-3997.7948
-4016.2081
-4036.1179
-4049.1689
-4054.6484
-4050.2262
-4229.4696
-4219.1217
-4233.3581
-4223.8419
-4239.8551
-4241.6569
-4248.1404
-4249.1475
-4245.5386
-4241.1271
-4552.242
-4534.0917
-4545.7992
-4518.6669
-4522.3848
-4504.4227
-4491.8763
-4471.7503
-4443.9891
-4411.526
-4908.6262
-4881.4034
-4890.9668
-4844.4479
-4835.944
-4797.3275
-4764.3887
-4720.8411
-4666.0464
-4605.6984
-5289.4205
-5250.9775
-5259.5729
-5192.664
-5173.0443
-5114.8279
-5063.3193
-4999.7154
-4923.3201
-4837.8545
-5690.4227
-5638.3639
-5647.1439
-5558.0387
-5527.1565
-5448.8056
-5378.0266
-5295.4568
-5205.3414
-5122.6384
-6112.5701
-6043.4731
-6053.278
-5939.2066
-5895.6742
-5795.1482
-5700.6686
-5590.5051
-5465.0447
-5329.283
-6555.9839
-6465.9302
-6478.3182
-6336.6014
-6279.2875
-6156.291
-6038.0157
-5903.7688
-5754.012
-5592.0865
-7026.7926
-6909.7036
-6925.4273
-6751.8752
-6677.6692
-6529.9701
-6383.9545
-6221.5945
-6042.951
-5856.9148
-7523.8828
-7373.6985
-7395.7792
-7187.2697
-7093.0439
-6918.8763
-6740.9614
-6544.7385
-6325.957
-6088.5028
-8065.5836
-7870.966
-7899.8851