/*--------------------------------*- C++ -*----------------------------------*\
| =========                 |                                                 |
| \\      /  F ield         | foam-extend: Open Source CFD                    |
|  \\    /   O peration     | Version:     4.1                                |
|   \\  /    A nd           | Web:         http://www.foam-extend.org         |
|    \\/     M anipulation  |                                                 |
\*---------------------------------------------------------------------------*/
FoamFile
{
    version     2.0;
    format      ascii;
    class       volScalarField;
    location    "0.5";
    object      rAU;
}
// * * * * * * * * * * * * * * * * * * * * * * * * * * * * * * * * * * * * * //

dimensions      [0 0 1 0 0 0 0];

internalField   nonuniform List<scalar> 
4393
(
0.00022765558
0.00022728193
0.00022691596
0.00022654208
0.00022615816
0.00022576278
0.00022535356
0.00022492929
0.00022448914
0.0002240329
0.00022356118
0.00022307548
0.0002225783
0.0002220732
0.00022156455
0.0002210585
0.00022056088
0.00022007868
0.00021961956
0.00021919111
0.00021880111
0.00021845724
0.00021816703
0.00021793769
0.00021777588
0.00021768754
0.00021767732
0.00021767732
0.00021774853
0.00021790227
0.00021813671
0.00021844685
0.00021882448
0.00021925855
0.00021973576
0.0002202416
0.00022076119
0.00022128035
0.00022178622
0.0002222678
0.00022271609
0.00022312415
0.00022348689
0.00022380086
0.00022406396
0.00022427519
0.00022443463
0.00022454278
0.00022458502
0.000224523
0.00022420261
0.00022389708
0.00022358241
0.00022325586
0.00022291575
0.00022255987
0.00022218736
0.00022179779
0.00022139154
0.00022096988
0.0002205351
0.00022009057
0.00021964077
0.00021919103
0.00021874838
0.00021831944
0.00021791182
0.00021753363
0.00021719273
0.00021689699
0.00021665414
0.0002164716
0.00021635638
0.00021631483
0.00021635235
0.00021643963
0.00021641242
0.00021645515
0.0002165817
0.00021679358
0.00021708924
0.00021746353
0.00021790767
0.00021840967
0.00021895523
0.00021952887
0.00022011504
0.00022069916
0.00022126829
0.00022181153
0.00022232016
0.00022278755
0.00022320897
0.00022358116
0.00022390198
0.00022417054
0.00022438834
0.0002245426
0.00022401794
0.00022370929
0.00022340909
0.00022309725
0.00022277105
0.00022242897
0.00022206901
0.00022169059
0.00022129372
0.00022087928
0.00022044919
0.0002200065
0.00021955547
0.00021910155
0.00021865108
0.0002182121
0.00021779211
0.00021739946
0.00021704278
0.00021673029
0.00021647005
0.00021626981
0.00021613701
0.00021607857
0.00021610066
0.00021620835
0.00021629729
0.00021617746
0.00021613858
0.00021618767
0.00021632965
0.00021656619
0.00021689474
0.00021730811
0.00021779476
0.00021833977
0.00021892617
0.00021953645
0.00022015383
0.00022076321
0.00022135174
0.00022190903
0.00022242717
0.00022290039
0.00022332469
0.00022369745
0.00022401756
0.00022428513
0.00022448046
0.00022366295
0.00022335963
0.00022305928
0.00022274424
0.00022241204
0.00022206137
0.00022169039
0.00022129876
0.00022088681
0.00022045589
0.0002200085
0.00021954844
0.00021908087
0.00021861228
0.00021815015
0.00021770367
0.00021728142
0.00021689267
0.00021654676
0.00021625238
0.0002160179
0.00021585128
0.00021576008
0.00021575135
0.00021583138
0.0002160052
0.00021609
0.00021588397
0.00021576063
0.00021573053
0.00021580238
0.00021598139
0.0002162677
0.00021665555
0.00021713339
0.00021768507
0.00021829155
0.0002189328
0.00021958945
0.00022024402
0.00022088164
0.00022149032
0.00022206093
0.00022258688
0.00022306364
0.0002234884
0.00022385994
0.00022417725
0.00022442222
0.00022330147
0.00022300225
0.00022270217
0.00022238424
0.00022204619
0.00022168683
0.00022130444
0.00022089887
0.00022047071
0.00022002169
0.00021955484
0.00021907469
0.0002185873
0.00021810026
0.00021762229
0.00021716387
0.00021673483
0.00021634548
0.00021600596
0.00021572549
0.00021551277
0.00021537598
0.00021532289
0.00021536085
0.00021549644
0.00021573507
0.00021582653
0.00021552987
0.0002153181
0.00021520582
0.00021520612
0.00021532832
0.00021557553
0.00021594329
0.00021641956
0.00021698624
0.0002176214
0.00021830182
0.00021900507
0.00021971098
0.00022040257
0.00022106628
0.00022169194
0.00022227228
0.0002228025
0.00022327976
0.00022370273
0.00022407025
0.00022436648
0.00022292425
0.00022262966
0.00022233089
0.00022201104
0.00022166792
0.00022130041
0.00022090685
0.00022048717
0.00022004216
0.00021957385
0.00021908573
0.000218583
0.00021807264
0.0002175634
0.00021706538
0.00021659053
0.00021615011
0.00021575565
0.00021541817
0.00021514743
0.00021495247
0.00021484168
0.00021482311
0.00021490452
0.00021509313
0.0002153951
0.00021550837
0.00021511525
0.00021480943
0.00021461016
0.00021453581
0.00021460064
0.00021481125
0.00021516443
0.00021564704
0.00021623805
0.00021691166
0.00021764058
0.00021839868
0.00021916278
0.00021991368
0.00022063633
0.00022131967
0.00022195607
0.0002225407
0.00022307091
0.00022354561
0.00022396406
0.0002243122
0.00022253178
0.0002222425
0.00022194607
0.0002216253
0.00022127796
0.0002209029
0.00022049844
0.00022006451
0.00021960198
0.00021911308
0.00021860169
0.00021807362
0.00021753676
0.00021700111
0.00021647832
0.00021598206
0.00021552527
0.0002151209
0.00021478093
0.00021451571
0.0002143345
0.00021424586
0.00021425812
0.00021437958
0.00021461843
0.0002149821
0.00021513755
0.00021464067
0.00021423331
0.0002139402
0.00021378616
0.00021379167
0.00021396767
0.00021431219
0.0002148102
0.0002154365
0.00021616007
0.00021694843
0.00021777097
0.00021860114
0.00021941737
0.00022020326
0.0002209471
0.00022164115
0.00022228087
0.0002228641
0.00022339027
0.00022385949
0.00022425912
0.00022212605
0.00022184344
0.00022155053
0.00022122986
0.00022087915
0.00022049714
0.00022008201
0.00021963362
0.00021915278
0.00021864179
0.00021810483
0.00021754823
0.0002169808
0.00021641386
0.00021586084
0.00021533744
0.00021485866
0.00021443911
0.00021409187
0.00021382776
0.00021365616
0.00021358566
0.00021362477
0.0002137825
0.0002140683
0.00021449148
0.00021471561
0.00021410604
0.00021358746
0.0002131911
0.00021294986
0.00021289232
0.00021303505
0.00021337744
0.00021390145
0.00021457599
0.00021536305
0.00021622353
0.00021712148
0.00021802649
0.00021891464
0.00021976833
0.00022057554
0.00022132879
0.00022202417
0.00022266032
0.00022323752
0.00022375693
0.0002242072
0.00022170876
0.00022143369
0.00022114539
0.00022082588
0.00022047273
0.00022008444
0.000219659
0.00021919601
0.00021869611
0.00021816153
0.00021759657
0.00021700799
0.00021640548
0.00021580178
0.00021521236
0.00021465542
0.00021414845
0.00021370809
0.00021334862
0.00021308124
0.00021291517
0.00021285874
0.00021292053
0.00021311027
0.00021343902
0.00021391869
0.00021424547
0.00021351243
0.00021287039
0.00021235824
0.00021201917
0.00021189259
0.00021200275
0.00021235055
0.00021291341
0.0002136519
0.00021451865
0.00021546614
0.00021645201
0.00021744161
0.0002184087
0.0002193348
0.00022020801
0.00022102163
0.00022177276
0.00022246122
0.0002230885
0.00022365698
0.00022415659
0.00022128193
0.00022101626
0.00022073399
0.00022041684
0.00022006226
0.00021966848
0.00021923314
0.00021875549
0.00021823578
0.000217676
0.00021708036
0.00021645594
0.00021581319
0.00021516639
0.00021453337
0.0002139354
0.00021339314
0.00021292575
0.00021254885
0.00021227377
0.00021210917
0.00021206268
0.00021214265
0.00021235947
0.00021272618
0.00021325804
0.00021373051
0.00021286122
0.00021208047
0.00021143611
0.00021098447
0.00021077982
0.00021085723
0.00021121952
0.00021183717
0.00021265899
0.00021362498
0.00021467698
0.00021576502
0.0002168499
0.00021790326
0.0002189063
0.00021984785
0.0002207225
0.00022152896
0.00022226861
0.00022294445
0.00022356033
0.00022410757
0.0002208482
0.00022059254
0.00022031739
0.0002200038
0.00021964889
0.00021925052
0.00021880587
0.00021831364
0.00021777355
0.00021718704
0.00021655804
0.00021589368
0.00021520507
0.00021450805
0.00021382321
0.00021317566
0.00021259019
0.00021208919
0.00021168973
0.00021140291
0.00021123613
0.00021119566
0.00021128912
0.0002115274
0.00021192577
0.00021250381
0.00021317602
0.0002121556
0.00021121736
0.00021041944
0.00020983495
0.00020953895
0.00020958236
0.00020997049
0.00021066328
0.0002115927
0.00021268175
0.00021385885
0.00021506516
0.00021625679
0.00021740384
0.00021848792
0.00021949944
0.00022043507
0.00022129565
0.00022208463
0.00022280686
0.00022346787
0.0002240605
0.00022040851
0.00022016541
0.00021989916
0.00021959064
0.0002192368
0.00021883506
0.00021838202
0.00021787567
0.0002173149
0.00021670035
0.00021603532
0.00021532668
0.00021458595
0.00021383049
0.00021308407
0.0002123767
0.00021173865
0.00021119657
0.00021076921
0.00021046681
0.00021029449
0.00021025619
0.00021035809
0.00021061119
0.00021103319
0.00021164895
0.00021247589
0.0002114001
0.00021028187
0.00020930292
0.0002085578
0.00020815107
0.00020815764
0.00020858643
0.00020938094
0.00021044887
0.00021169023
0.00021301662
0.0002143592
0.00021566967
0.00021691751
0.00021808597
0.00021916814
0.00022016364
0.00022107617
0.00022191175
0.00022267743
0.00022338062
0.00022401586
0.00021996811
0.00021973766
0.00021948139
0.00021917928
0.00021882787
0.00021842403
0.00021796364
0.00021744377
0.0002168622
0.00021621842
0.00021551466
0.00021475711
0.00021395732
0.00021313398
0.00021231448
0.00021153511
0.00021083368
0.00021024264
0.0002097827
0.00020946222
0.00020928245
0.00020924357
0.00020934926
0.00020960997
0.00021004576
0.00021068779
0.00021157601
0.00021060279
0.00020927744
0.00020808228
0.00020713838
0.00020659248
0.00020655701
0.00020704652
0.00020797825
0.00020922459
0.00021065432
0.00021215834
0.00021365697
0.00021509848
0.0002164534
0.00021770829
0.00021886034
0.00021991326
0.00022087437
0.00022175278
0.00022255807
0.00022329975
0.00022397418
0.00021952571
0.00021931127
0.00021906716
0.0002187734
0.00021842639
0.00021802243
0.00021755656
0.00021702469
0.0002164232
0.00021574996
0.00021500559
0.00021419502
0.0002133292
0.00021242765
0.00021152166
0.00021065564
0.00020987787
0.00020922902
0.00020873209
0.00020839196
0.00020820364
0.00020816162
0.00020826579
0.00020852516
0.0002089618
0.00020961418
0.00021053516
0.0002097754
0.00020821106
0.00020675513
0.00020555998
0.00020483273
0.00020474617
0.00020532468
0.00020644215
0.00020791906
0.00020958172
0.00021129619
0.00021297205
0.00021455621
0.00021602287
0.00021736427
0.00021858352
0.00021968967
0.00022069454
0.0002216108
0.00022245089
0.00022322654
0.00022393607
0.00021909202
0.00021889306
0.00021866215
0.00021837834
0.00021803753
0.00021763535
0.00021716582
0.00021662349
0.00021600295
0.00021529991
0.00021451271
0.00021364422
0.00021270394
0.00021171133
0.00021070151
0.00020972939
0.00020885837
0.00020814117
0.00020760375
0.00020724503
0.00020705018
0.00020700523
0.0002071047
0.00020735466
0.00020777804
0.00020842103
0.00020935224
0.00020893447
0.00020709493
0.00020532286
0.00020380442
0.00020283225
0.00020267882
0.00020338788
0.00020475873
0.00020653513
0.0002084857
0.00021044802
0.00021232276
0.0002140594
0.00021563977
0.00021706492
0.00021834613
0.00021949922
0.0002205413
0.0002214891
0.00022235811
0.00022316237
0.00022390218
0.00021865861
0.00021847912
0.00021826385
0.00021799221
0.00021766009
0.00021726248
0.00021679232
0.00021624259
0.00021560575
0.00021487476
0.00021404483
0.00021311578
0.00021209443
0.00021099859
0.0002098663
0.00020876572
0.00020778227
0.00020698682
0.00020640901
0.00020603753
0.00020584179
0.00020579547
0.00020588605
0.0002061152
0.00020650487
0.00020710932
0.00020801665
0.00020810567
0.00020594952
0.00020379373
0.00020185364
0.00020053924
0.00020029048
0.00020119374
0.00020291413
0.00020508198
0.00020738778
0.00020963929
0.00021173334
0.00021362871
0.00021532054
0.0002168228
0.00021815749
0.00021934866
0.00022041948
0.00022139106
0.000222282
0.00022310864
0.00022387319
0.00021824827
0.00021808709
0.00021788856
0.00021763119
0.00021731042
0.00021692051
0.00021645319
0.00021589962
0.00021524969
0.00021449289
0.00021362015
0.00021262683
0.00021151549
0.00021029977
0.00020901808
0.0002077547
0.00020662794
0.00020573725
0.00020511748
0.0002047408
0.00020455208
0.00020450792
0.0002045881
0.0002047887
0.00020512696
0.00020566329
0.00020650807
0.00020731759
0.00020480442
0.00020218822
0.00019969455
0.00019788655
0.00019748831
0.00019868756
0.00020089659
0.00020357946
0.00020632162
0.00020890562
0.00021123523
0.00021328929
0.00021508417
0.00021665172
0.00021802743
0.00021924491
0.00022033391
0.00022131999
0.00022222477
0.00022306672
0.00022384976
0.00021784043
0.0002177018
0.00021752239
0.00021728156
0.00021697492
0.00021659612
0.00021613566
0.00021558279
0.0002149246
0.00021414654
0.00021323408
0.00021217654
0.0002109704
0.00020962183
0.00020816425
0.0002066996
0.0002053961
0.00020439933
0.00020375103
0.00020339603
0.00020323926
0.0002032123
0.00020328698
0.00020345253
0.00020371395
0.00020413332
0.00020484798
0.00020602384
0.00020371951
0.00020055397
0.00019733188
0.00019479294
0.00019413598
0.00019579984
0.00019870107
0.00020206538
0.00020533872
0.00020829599
0.00021086833
0.00021307094
0.00021495179
0.00021656624
0.00021796582
0.00021919463
0.00022028908
0.00022127892
0.00022218844
0.00022303787
0.00022383252
0.0002174927
0.0002173749
0.00021721599
0.00021699463
0.00021670628
0.00021634396
0.000215897
0.00021535267
0.000214695
0.00021390469
0.00021296016
0.000211842
0.00021053793
0.00020904199
0.00020737215
0.00020564454
0.00020410366
0.000202973
0.00020230307
0.00020199509
0.00020188909
0.00020188175
0.00020194245
0.00020205929
0.00020221571
0.00020246942
0.00020298999
0.00020402427
0.00020276201
0.00019898329
0.00019482852
0.00019118866
0.00019003746
0.00019244688
0.00019633802
0.00020060735
0.00020451671
0.00020787674
0.00021068203
0.00021300768
0.00021494581
0.00021658075
0.00021798184
0.00021920371
0.00022028882
0.00022127038
0.00022217469
0.00022302315
0.00022382201
0.00021722611
0.00021713358
0.00021699912
0.00021680175
0.00021653726
0.00021619813
0.00021577254
0.00021524576
0.00021459861
0.00021380668
0.00021284005
0.00021166785
0.00021026635
0.0002086142
0.00020669846
0.00020463426
0.00020278315
0.00020150736
0.00020086421
0.00020068617
0.00020070406
0.00020076484
0.00020084696
0.00020095156
0.00020101455
0.00020106565
0.00020130331
0.0002020372
0.00020230676
0.00019780336
0.00019243032
0.00018710144
0.00018493448
0.0001885482
0.00019385983
0.0001993257
0.0002039722
0.00020773588
0.0002107353
0.00021313632
0.00021508828
0.0002167082
0.00021808306
0.00021927662
0.00022033585
0.00022129611
0.00022218466
0.00022302333
0.00022381867
0.00021728585
0.00021722139
0.00021711734
0.00021695169
0.0002167206
0.00021641629
0.00021602632
0.0002155346
0.00021491948
0.00021415205
0.00021319359
0.00021199823
0.00021052547
0.00020873474
0.00020655874
0.0002040635
0.00020178093
0.00020033838
0.00019978122
0.00019984269
0.00020006304
0.00020021804
0.00020031285
0.00020040138
0.00020032756
0.00020005838
0.00019985269
0.00020007626
0.00020116426
0.00019738008
0.00019063826
0.00018289227
0.00017858805
0.00018413733
0.00019144346
0.0001984311
0.00020387649
0.00020798608
0.00021109453
0.00021349324
0.00021539818
0.00021695815
0.00021827421
0.00021941569
0.00022043139
0.00022135683
0.00022221887
0.00022303878
0.00022382273
0.0002180427
0.00021801325
0.00021795416
0.00021783829
0.00021766187
0.00021741704
0.0002170913
0.00021666782
0.0002161228
0.00021542291
0.00021451968
0.00021334677
0.00021183645
0.00020992682
0.00020747952
0.0002044086
0.00020147222
0.0001998706
0.00019955359
0.00020013119
0.00020077171
0.00020115041
0.00020132404
0.00020152646
0.0002014548
0.0002008986
0.00020028535
0.00019983591
0.00020078799
0.00019974063
0.00019127416
0.00017999692
0.0001709205
0.00017962913
0.00018945303
0.00019824898
0.00020446897
0.00020876361
0.00021182718
0.00021410848
0.00021588744
0.00021733447
0.00021855585
0.00021962041
0.00022057473
0.000221452
0.00022227702
0.00022306945
0.00022383425
0.00022068723
0.00022073432
0.00022076257
0.00022074003
0.00022066486
0.00022053013
0.00022032457
0.00022003232
0.00021962966
0.00021908181
0.00021833506
0.00021730505
0.00021588857
0.00021400163
0.00021144514
0.00020776935
0.00020387282
0.00020235148
0.00020269068
0.00020443505
0.00020594509
0.00020683898
0.00020724245
0.000207907
0.00020826492
0.00020729177
0.00020616019
0.00020430145
0.00020494365
0.00020346936
0.00019647901
0.00018115985
0.0001621932
0.0001762779
0.00018867038
0.00019947365
0.00020612922
0.00021022929
0.00021298928
0.00021499633
0.00021655569
0.00021783265
0.00021892317
0.00021988678
0.00022076296
0.00022157968
0.00022235795
0.00022311476
0.00022385305
0.00022643824
0.00022657942
0.00022673922
0.00022686351
0.00022695013
0.00022699423
0.00022698869
0.00022692272
0.000226778
0.00022652489
0.00022611243
0.00022544321
0.00022435431
0.00022267869
0.00022017296
0.00021572524
0.00020954596
0.00020822443
0.00020944515
0.00021335481
0.00021636428
0.0002182473
0.00021884214
0.000220309
0.00022202398
9.2977087e-05
9.5429351e-05
9.7685821e-05
9.9877379e-05
0.00010288262
9.4461459e-05
8.6196225e-05
0.00010658025
0.00017930039
0.00019340733
0.00020410452
0.00020943505
0.00021251792
0.00021459107
0.00021613948
0.00021738382
0.00021843746
0.00021936509
0.00022020709
0.00022099088
0.00022173649
0.00022245964
0.00022317362
0.00022387871
0.00023923385
0.00023967543
0.00024016864
0.00024064642
0.00024111797
0.0002415875
0.00024205987
0.00024253888
0.00024302339
0.00024350262
0.000243944
0.0002442556
0.00024421714
0.00024348824
0.00024184714
0.00023791429
0.00022671926
0.00022920482
0.00023533705
0.00024972279
0.00026113458
0.00026989004
0.00012822442
0.00016660808
0.00032217079
0.00046135743
0.00049956686
0.00049956686
0.00049956686
0.00049956686
0.00049956686
0.00045030844
0.00033648273
6.8071668e-05
0.00021294738
0.00021343915
0.00021436037
0.0002154785
0.00021652261
0.00021746904
0.00021832932
0.00021912217
0.00021986446
0.00022057022
0.00022125125
0.00022191783
0.00022257926
0.00022324449
0.00022391058
0.00026422729
0.00026521927
0.00026635402
0.00026753046
0.00026876927
0.00027009514
0.00027154226
0.00027315369
0.00027498252
0.00027709597
0.00027958003
0.00028253226
0.00028605157
0.00029017478
0.00029468143
0.00030172145
0.00027311628
0.00030426824
0.00035569327
0.0003725637
0.00027766418
0.0003227871
0.00049956686
0.00049956686
0.00049956686
0.00049956686
0.00049956686
0.00049956686
0.00049956686
0.00049956686
0.00041265114
0.00041829831
0.0001020451
0.00026655758
0.00023111563
0.00022207721
0.00021925829
0.00021852001
0.00021854122
0.0002188703
0.00021933138
0.00021985169
0.00022039983
0.00022096257
0.00022153533
0.00022211809
0.00022271335
0.0002233254
0.0002239478
0.00030194731
0.0003040644
0.00030617072
0.00030834944
0.00031067528
0.00031322147
0.00031607462
0.0003193489
0.00032320467
0.00032788639
0.00033379187
0.00034150654
0.00035161938
0.00036466284
0.00038490001
0.00040221276
0.00025485482
0.00025428098
0.00026216477
0.00049039728
0.00047803655
0.0004883328
0.0004787001
0.00047372345
0.0004774664
0.00045866202
0.00045172437
0.00045352148
0.00044094519
0.00043653445
0.0001069303
0.0001076819
0.00021982023
0.00025237246
0.00023693035
0.00022739393
0.00022310072
0.00022120551
0.00022043729
0.00022023392
0.00022032865
0.00022058952
0.00022094852
0.0002213696
0.00022183367
0.00022233114
0.00022285806
0.00022341414
0.00022398938
0.0002887498
0.00028927327
0.00028947431
0.00028967271
0.00028987019
0.00029009821
0.00029038233
0.00029075878
0.00029127974
0.00029202217
0.0002931068
0.00029420759
0.00029517002
0.00029588796
0.00029321315
0.00010297854
0.00037633073
0.00047104155
0.00047235353
0.00049383122
0.00048613629
0.00048245044
0.0001242162
0.00012128463
0.00010077568
0.000100061
0.00010063665
0.00010198105
0.00010293553
0.00010453032
0.00020122764
0.00020770295
0.00021811839
0.00023905684
0.00023961642
0.00023074759
0.00022594468
0.00022340488
0.00022209726
0.0002214828
0.00022127135
0.00022130354
0.00022148948
0.00022177734
0.00022213692
0.00022255078
0.00022300939
0.00022350832
0.00022403421
0.00022329399
0.00022312521
0.0002228355
0.00022255479
0.00022229055
0.00022205971
0.00022187808
0.00022176886
0.00022176427
0.00022190919
0.00022226841
0.00022212957
0.00022120496
0.0002194684
0.00021678869
0.00021321257
9.5895262e-05
9.9122698e-05
9.9874366e-05
9.977952e-05
0.0001001552
0.00010018211
0.00021254631
0.00021081967
0.00020893552
0.00020554995
0.00020444244
0.00020388755
0.00020211883
0.00020213989
0.0002033243
0.00020903616
0.00021826645
0.00023220887
0.00023803069
0.00023247095
0.0002278463
0.00022507878
0.00022346615
0.00022257006
0.00022212448
0.00022196878
0.00022200518
0.00022217353
0.00022243654
0.00022277114
0.00022316344
0.00022360557
0.00022408115
0.0002192378
0.0002193155
0.00021943915
0.00021957165
0.00021972429
0.00021990927
0.00022013927
0.00022043048
0.00022080237
0.00022127791
0.00022184817
0.00022159912
0.00022084947
0.00021961943
0.00021784722
0.00021503624
0.00021255388
0.00021406798
0.0002159122
0.00021421513
0.00021238364
0.00021121874
0.00021006336
0.00020834174
0.00020730876
0.0002056924
0.00020478738
0.00020421446
0.0002034906
0.0002039619
0.00020594923
0.00021090994
0.00021857419
0.00022813583
0.00023385878
0.00023317321
0.00022901129
0.00022627675
0.0002245395
0.00022347665
0.0002228681
0.0002225684
0.00022248248
0.00022254827
0.00022272525
0.000222987
0.00022331662
0.00022370362
0.00022412909
0.00021785526
0.00021793333
0.00021805679
0.00021819356
0.00021834661
0.00021852354
0.00021873296
0.00021898603
0.00021929535
0.00021967469
0.00021999956
0.00021951335
0.00021876113
0.00021769252
0.00021626788
0.00021443419
0.0002133019
0.00021414811
0.00021528285
0.00021349302
0.00021190184
0.00021068419
0.00020952895
0.00020831492
0.00020736131
0.00020630356
0.00020565448
0.00020529541
0.00020522293
0.00020610096
0.00020834736
0.00021263985
0.00021878181
0.00022563876
0.00023032393
0.00023231957
0.00022961969
0.00022707344
0.0002253398
0.00022420295
0.00022349468
0.00022309313
0.00022291274
0.00022289433
0.0002229973
0.00022319398
0.00022346577
0.00022380041
0.00022417698
0.00021717732
0.00021729654
0.00021743446
0.00021758365
0.00021775009
0.00021794028
0.00021816047
0.00021841828
0.00021872082
0.00021907359
0.00021923076
0.00021879264
0.00021814587
0.00021726037
0.00021611444
0.00021485723
0.00021422975
0.00021473033
0.00021503105
0.00021340739
0.00021201242
0.00021086238
0.00020980644
0.00020882623
0.00020800751
0.00020727327
0.00020685608
0.00020674282
0.00020704071
0.00020813581
0.00021035048
0.00021401026
0.00021889077
0.00022403064
0.00022788412
0.00023023869
0.00022984028
0.00022755278
0.00022590406
0.00022476194
0.00022400595
0.00022353995
0.00022329137
0.00022320701
0.00022324854
0.00022338868
0.00022360831
0.00022389417
0.00022422391
0.0002168879
0.00021695999
0.00021707471
0.00021720848
0.00021735952
0.00021753142
0.00021772804
0.00021795436
0.00021821433
0.00021850956
0.00021853785
0.00021815275
0.00021762432
0.00021694075
0.00021611384
0.00021532111
0.00021500718
0.00021539349
0.00021498666
0.00021358925
0.0002123666
0.00021132222
0.00021039052
0.00020957162
0.0002088987
0.00020838194
0.00020814257
0.00020821704
0.00020872244
0.00020989987
0.00021196723
0.00021506698
0.00021896901
0.00022296234
0.00022615807
0.00022832193
0.00022930568
0.00022778846
0.00022627275
0.00022517312
0.00022440962
0.00022391049
0.00022361712
0.00022348389
0.00022347628
0.00022356862
0.0002237422
0.00022398344
0.00022426908
0.00021674632
0.00021685803
0.00021698233
0.00021711677
0.0002172654
0.00021743136
0.0002176164
0.00021782247
0.00021804971
0.00021829505
0.0002182611
0.00021791639
0.00021746784
0.00021691996
0.00021631235
0.00021580386
0.00021566132
0.00021596921
0.00021503898
0.00021385318
0.00021279275
0.00021186898
0.00021106167
0.00021037852
0.00020984252
0.00020948627
0.00020938513
0.00020959172
0.00021020746
0.00021138838
0.00021327036
0.00021589776
0.00021905878
0.0002222504
0.00022492511
0.00022687304
0.00022810547
0.00022784622
0.00022648544
0.0002254586
0.00022471692
0.00022420956
0.00022389126
0.00022372444
0.00022367917
0.00022373223
0.00022386598
0.0002240671
0.00022431185
0.00021667374
0.00021674318
0.00021684872
0.00021697106
0.00021710781
0.00021726014
0.0002174283
0.00021761257
0.00021781111
0.00021801855
0.00021797882
0.00021769707
0.0002173443
0.00021693345
0.0002165126
0.00021620655
0.00021617997
0.00021616799
0.00021513106
0.00021413333
0.00021322484
0.00021242547
0.00021173786
0.00021117545
0.00021076106
0.00021053029
0.00021053762
0.00021083568
0.00021150457
0.00021264595
0.00021433779
0.00021657365
0.00021917212
0.00022177987
0.00022403898
0.00022577523
0.00022696315
0.00022750967
0.00022657636
0.00022564014
0.0002249405
0.00022444386
0.0002241168
0.00022392952
0.00022385693
0.00022387869
0.00022397871
0.00022414433
0.00022435174
0.00021662161
0.00021671233
0.00021681837
0.00021693373
0.00021706002
0.00021719826
0.00021734763
0.00021750701
0.0002176731
0.00021783923
0.00021780568
0.00021757087
0.0002172913
0.00021698575
0.00021670174
0.00021653278
0.00021658412
0.00021609628
0.00021524461
0.0002144112
0.0002136429
0.00021296478
0.00021239076
0.00021193823
0.00021163073
0.00021150151
0.0002115935
0.00021195303
0.00021264024
0.00021372025
0.00021523252
0.00021714641
0.00021931286
0.00022148132
0.00022340624
0.00022494735
0.00022606482
0.00022678879
0.00022657562
0.00022573801
0.00022509324
0.00022462104
0.0002242979
0.00022410105
0.00022401015
0.00022400787
0.00022407993
0.00022421463
0.00022438842
0.00021659044
0.00021665666
0.00021675109
0.00021685789
0.00021697494
0.000217102
0.00021723725
0.00021737853
0.00021752158
0.00021765898
0.00021765542
0.00021747017
0.0002172588
0.00021704232
0.00021686336
0.00021679145
0.00021671191
0.00021607625
0.00021537712
0.0002146864
0.00021404556
0.00021348149
0.00021301329
0.00021266053
0.00021244654
0.0002124009
0.00021255854
0.00021295759
0.00021364162
0.00021465079
0.00021600021
0.00021764972
0.00021947938
0.00022130843
0.00022296191
0.00022432812
0.00022536387
0.00022607884
0.00022638295
0.00022576977
0.00022518729
0.00022474893
0.00022443928
0.00022424165
0.00022414005
0.00022412013
0.00022416956
0.00022427776
0.00022442169
0.00021656771
0.00021663969
0.0002167297
0.00021682786
0.00021693387
0.00021704739
0.00021716616
0.00021728757
0.00021740698
0.00021751709
0.00021754367
0.00021739981
0.00021724434
0.00021709813
0.00021699739
0.00021695127
0.00021662956
0.0002160983
0.00021552688
0.00021496029
0.00021443437
0.00021397552
0.00021360464
0.00021334191
0.00021320951
0.0002132332
0.0002134415
0.00021386445
0.00021453257
0.00021546902
0.00021667419
0.00021810619
0.00021966927
0.00022123043
0.0002226612
0.00022387286
0.00022482391
0.00022551263
0.00022596338
0.00022575068
0.00022523372
0.00022483517
0.00022454591
0.00022435432
0.00022424829
0.00022421626
0.00022424784
0.0002243337
0.00022445146
0.00021655782
0.00021661772
0.00021670008
0.00021679097
0.00021688846
0.00021699165
0.00021709781
0.000217204
0.0002173055
0.00021739537
0.00021744674
0.00021734655
0.00021723813
0.00021714768
0.00021710528
0.00021695227
0.00021658723
0.00021615512
0.00021569214
0.00021523389
0.00021481098
0.00021444806
0.00021416585
0.00021398396
0.00021392277
0.00021400436
0.00021425176
0.00021468788
0.00021533324
0.00021619954
0.00021727877
0.0002185311
0.00021988013
0.000221226
0.00022247219
0.00022354802
0.0002244159
0.00022506813
0.00022551851
0.00022566688
0.00022524229
0.00022488685
0.00022462268
0.00022444226
0.0002243368
0.00022429731
0.00022431525
0.0002243826
0.00022447775
0.00021655518
0.0002166137
0.00021669059
0.00021677383
0.00021686211
0.00021695445
0.00021704802
0.00021713986
0.00021722545
0.00021729849
0.00021735056
0.00021730598
0.00021723571
0.00021718846
0.00021711164
0.00021688531
0.00021658735
0.00021623969
0.00021587002
0.00021550683
0.00021517607
0.00021490003
0.00021469817
0.00021458873
0.0002145899
0.00021472026
0.00021499812
0.00021544037
0.00021606004
0.00021686119
0.00021783142
0.00021893457
0.00022010942
0.00022127961
0.00022237123
0.00022332777
0.00022411625
0.0002247263
0.00022516494
0.00022545034
0.00022522133
0.00022491041
0.00022467427
0.00022450869
0.00022440769
0.00022436455
0.00022437248
0.00022442476
0.00022450066
0.00021656099
0.00021661319
0.00021668438
0.00021676123
0.00021684193
0.00021692534
0.00021700858
0.00021708879
0.00021716183
0.00021722216
0.00021726274
0.0002172612
0.00021722188
0.00021717345
0.00021704661
0.00021685938
0.00021662057
0.00021634606
0.00021605762
0.00021577831
0.00021553006
0.00021533252
0.00021520335
0.00021515893
0.00021521505
0.00021538707
0.00021568916
0.0002161333
0.00021672695
0.00021746919
0.00021834565
0.0002193243
0.00022035573
0.00022138062
0.00022234149
0.000223193
0.00022390682
0.00022447182
0.00022489086
0.00022517656
0.00022517821
0.00022491166
0.00022470507
0.00022455678
0.00022446312
0.00022441934
0.0002244203
0.00022446056
0.00022452032
0.00021657272
0.00021662174
0.00021668807
0.00021675877
0.00021683221
0.00021690729
0.00021698123
0.00021705139
0.0002171141
0.00021716467
0.00021719734
0.00021720545
0.00021718181
0.00021711959
0.00021701382
0.00021686493
0.00021667886
0.00021646858
0.00021625162
0.0002160468
0.00021587261
0.0002157461
0.00021568278
0.00021569697
0.000215802
0.00021601022
0.00021633226
0.00021677609
0.00021734506
0.00021803505
0.00021883113
0.00021970527
0.00022061729
0.00022152048
0.00022236959
0.00022312816
0.00022377223
0.00022429104
0.00022468509
0.00022496318
0.00022509971
0.00022489554
0.00022471902
0.00022458949
0.00022450519
0.00022446309
0.00022445955
0.00022449043
0.0002245369
0.0002165898
0.00021663495
0.00021669689
0.00021676233
0.00021682956
0.00021689752
0.0002169636
0.00021702549
0.00021708004
0.00021712341
0.00021715106
0.00021715797
0.00021713902
0.00021708979
0.00021700763
0.00021689441
0.00021675574
0.0002166025
0.00021644904
0.00021631088
0.00021620352
0.00021614151
0.00021613817
0.00021620562
0.00021635478
0.00021659524
0.00021693455
0.00021737742
0.00021792414
0.00021856858
0.00021929602
0.00022008201
0.00022089365
0.0002216937
0.00022244629
0.00022312203
0.00022370099
0.00022417344
0.0002245387
0.00022480308
0.00022497755