/*--------------------------------*- C++ -*----------------------------------*\
| =========                 |                                                 |
| \\      /  F ield         | foam-extend: Open Source CFD                    |
|  \\    /   O peration     | Version:     4.1                                |
|   \\  /    A nd           | Web:         http://www.foam-extend.org         |
|    \\/     M anipulation  |                                                 |
\*---------------------------------------------------------------------------*/
FoamFile
{
    version     2.0;
    format      ascii;
    class       volScalarField;
    location    "0.09";
    object      p;
}
// * * * * * * * * * * * * * * * * * * * * * * * * * * * * * * * * * * * * * //

dimensions      [0 2 -2 0 0 0 0];

internalField   nonuniform List<scalar> 
4393
(
-20.287072
-19.298667
-36.571781
-47.782716
-63.28627
-79.180035
-97.548378
-117.97087
-141.0667
-166.97639
-195.97268
-228.16466
-263.57888
-302.07622
-343.33798
-386.82787
-431.77785
-477.18286
-521.82304
-564.29838
-603.08955
-636.62575
-663.37294
-681.91998
-691.08321
-689.99318
-678.184
-655.7004
-623.09762
-581.41029
-532.15705
-477.19304
-418.56548
-358.32183
-298.32895
-240.19659
-185.16243
-134.13595
-87.674283
-46.071557
-9.3874026
22.472453
49.717601
72.620822
91.483453
106.67319
118.52826
126.53725
138.15465
-17.847526
-19.005846
-35.783846
-47.093237
-62.448588
-78.259897
-96.524375
-116.86162
-139.88536
-165.74946
-194.73566
-226.96646
-262.48193
-301.15651
-342.68261
-386.53045
-431.93201
-477.8733
-523.118
-566.24141
-605.69419
-639.87026
-667.19846
-686.22819
-695.73958
-694.83183
-683.03547
-660.33969
-627.27488
-584.93115
-534.8743
-479.02488
-419.50462
-358.43174
-297.71932
-239.01281
-183.55364
-132.24865
-85.633711
-43.981862
-7.326942
24.446459
51.565649
74.312801
92.993346
107.92756
119.39847
127.58345
133.07526
-17.166022
-18.81273
-35.103947
-46.219989
-61.193489
-76.660937
-94.552451
-114.53869
-137.23972
-162.83893
-191.64389
-223.80944
-259.40794
-298.34496
-340.33775
-384.87051
-431.17453
-478.21558
-524.72115
-569.21305
-610.07766
-645.63329
-674.22886
-694.32672
-704.6242
-704.13961
-692.34247
-669.20909
-635.27963
-591.66989
-540.04225
-482.44614
-421.15831
-358.44421
-296.30915
-236.47193
-180.17755
-128.3265
-81.408438
-39.652406
-3.0374513
28.597747
55.52281
78.051447
96.51732
111.2408
122.47131
130.75475
134.94366
-15.52103
-17.712276
-33.18228
-44.09451
-58.656503
-73.820368
-91.395022
-111.11204
-133.5895
-159.04424
-187.81335
-220.09227
-255.99602
-295.4732
-338.27708
-383.91341
-431.61466
-480.31777
-528.6987
-575.20125
-618.11914
-655.66121
-686.06307
-707.6625
-719.04127
-719.10605
-707.24151
-683.36562
-648.01698
-602.37699
-548.25777
-487.91021
-423.85558
-358.59412
-294.26721
-232.70951
-175.1613
-122.51214
-75.174343
-33.309067
3.1893906
34.549643
61.101433
83.1993
101.20458
115.43699
126.12765
133.87126
137.03676
-15.058053
-17.386184
-32.102932
-42.517857
-56.341988
-70.797579
-87.612531
-106.59545
-128.38242
-153.24631
-181.57838
-213.64222
-249.62385
-289.54233
-333.21012
-380.1695
-429.65901
-480.57516
-531.52171
-580.83114
-626.66703
-667.08263
-700.15354
-724.03496
-737.13777
-738.19928
-726.47421
-701.78618
-664.65956
-616.34883
-558.88131
-494.79602
-426.9734
-358.26256
-290.98292
-227.13906
-167.94397
-114.2709
-66.411637
-24.431327
11.898313
42.900336
68.991154
90.587031
108.09553
121.85625
132.10754
139.44395
142.02877
-13.06754
-15.395659
-28.893516
-38.781896
-51.903228
-65.796824
-82.050266
-100.54402
-121.9177
-146.49605
-174.72214
-206.93051
-243.38504
-284.18606
-329.21759
-378.06795
-429.9867
-483.81735
-538.07414
-590.94701
-640.43805
-684.40473
-720.72894
-747.33696
-762.43402
-764.55067
-752.77692
-726.81767
-687.17785
-635.19384
-573.17717
-504.04659
-431.17691
-357.91215
-286.77566
-220.01159
-158.75549
-103.85774
-55.42776
-13.402827
22.612783
53.063349
78.477209
99.348569
116.14524
129.24472
138.91757
145.77632
148.10011
-12.836252
-15.121433
-27.677643
-36.788387
-48.836116
-61.647051
-76.726133
-94.046151
-114.27661
-137.82307
-165.21493
-196.8987
-233.26187
-274.53384
-320.71457
-371.47124
-426.08477
-483.33167
-541.61505
-598.93849
-653.10177
-701.71137
-742.41133
-772.82394
-790.88247
-794.82705
-783.50717
-756.40443
-713.95488
-657.56581
-589.93549
-514.48998
-435.29189
-356.39893
-280.53997
-210.30354
-146.65519
-90.42103
-41.440923
0.50900783
36.045835
65.761793
90.323347
110.31602
126.27646
138.62309
147.65556
153.97001
155.99577
-10.05722
-12.065057
-22.891562
-31.134079
-42.129738
-54.060695
-68.265975
-84.801394
-104.34581
-127.3756
-154.49737
-186.2654
-223.19143
-265.64114
-313.74289
-367.25262
-425.49443
-487.14996
-550.48984
-613.2834
-673.09387
-727.22111
-773.04272
-807.80313
-829.12627
-834.91858
-823.75111
-794.85144
-748.57943
-686.37504
-611.42764
-527.78935
-440.44458
-354.47764
-272.75258
-198.36102
-131.92743
-74.259519
-24.796499
16.885163
51.695366
80.404759
103.8503
122.72566
137.65189
149.10189
157.41929
163.19708
165.04807
-10.173669
-12.097588
-21.881684
-29.141632
-38.777671
-49.276129
-61.884564
-76.757146
-94.606904
-116.00993
-141.69159
-172.37075
-208.75562
-251.43267
-300.74695
-356.61499
-418.46723
-484.86639
-553.93122
-623.12706
-689.73851
-750.68412
-803.05914
-843.6262
-869.63827
-878.5545
-868.55024
-838.35687
-788.12056
-719.21472
-635.50588
-541.85941
-444.53907
-350.17345
-261.56334
-182.56739
-113.17255
-54.201189
-4.5062935
36.564877
70.29721
97.660612
119.68873
137.1881
150.86663
161.24811
168.71491
173.8442
175.45491
-6.3722904
-7.7819433
-15.219045
-21.208498
-29.349476
-38.544373
-49.841711
-63.491581
-80.222701
-100.70345
-125.76773
-156.29011
-193.16825
-237.20913
-288.98316
-348.56854
-415.5327
-488.23725
-564.62038
-641.75451
-716.62088
-785.67001
-845.72802
-892.92045
-924.07908
-936.15207
-926.88959
-894.47141
-838.85635
-761.17548
-666.15918
-559.6024
-449.47265
-344.76208
-247.73106
-163.45686
-90.778624
-30.614067
19.049545
59.121302
91.374924
117.00379
137.27436
153.11421
165.32619
174.48621
181.01539
185.46814
186.87153
-6.9869292
-8.3715741
-14.789394
-19.705746
-26.305858
-33.804848
-43.137035
-54.639925
-69.061692
-87.170942
-109.93986
-138.45996
-173.91782
-217.48148
-270.11968
-332.22534
-403.69159
-482.61677
-566.75999
-652.6659
-736.97947
-815.5417
-884.99673
-940.65101
-978.92717
-996.17213
-989.59332
-956.25713
-895.57002
-808.01434
-699.58411
-577.24861
-451.35812
-334.71982
-228.04633
-138.40622
-62.618765
-1.8721748
47.110151
85.483914
115.63791
138.98688
157.05184
170.86972
181.3312
189.05188
194.48258
198.14239
199.28483
-2.0928
-2.7038312
-6.0872098
-9.240893
-13.774774
-19.380285
-26.756103
-36.347303
-48.924845
-65.375378
-86.821314
-114.57815
-150.12018
-194.97349
-250.51036
-317.40035
-395.96071
-483.75758
-578.32592
-675.47768
-771.55564
-861.63781
-942.41757
-1008.0083
-1054.3279
-1076.9638
-1072.572
-1036.9478
-969.21341
-868.6383
-742.90059
-600.05422
-453.54896
-322.4765
-203.97726
-108.52243
-29.470986
31.357623
79.093738
115.09722
142.55015
163.08479
178.51163
189.96683
198.42526
204.53016
208.75204
211.5592
212.43823
-3.2570491
-3.9760379
-6.4900193
-8.6290033
-11.611059
-15.433634
-20.642161
-27.732705
-37.447962
-50.734617
-68.830278
-93.286915
-125.95331
-168.90463
-224.23124
-293.17894
-377.06147
-472.71129
-577.54274
-686.34934
-795.21661
-898.07189
-992.05433
-1069.5556
-1126.2262
-1157.0889
-1158.4998
-1123.7109
-1050.5831
-935.6834
-789.37865
-621.01041
-448.34436
-301.33668
-169.54999
-69.235236
12.147047
71.513643
116.68189
149.06891
172.83168
189.75478
201.94002
210.57751
216.69985
220.9493
223.79695
225.64044
226.21238
2.5357358
2.8595558
4.0386387
4.2284986
4.0131606
2.8832506
0.56963977
-3.5301624
-10.18143
-20.472958
-35.84547
-58.176381
-89.761412
-133.27743
-191.58693
-266.35599
-360.275
-468.55125
-588.39334
-713.0063
-838.43196
-957.05509
-1067.6089
-1159.8864
-1229.1349
-1269.3468
-1276.4268
-1240.2712
-1158.9093
-1024.6898
-851.95218
-650.10736
-442.00696
-276.5616
-128.16435
-23.346345
60.225669
116.97961
158.62488
186.3829
205.65259
218.30088
226.74657
232.19533
235.71911
237.93404
239.29418
240.10711
240.35882
1.0266077
1.079792
2.9229209
3.9240389
5.0678423
5.5513249
5.3084796
3.7441913
0.20728218
-6.349005
-17.37016
-34.887214
-61.558215
-100.76868
-156.61586
-231.62948
-331.64487
-449.53073
-582.77105
-722.36692
-864.83434
-999.84721
-1129.1548
-1237.8196
-1321.1356
-1373.2091
-1392.0493
-1361.8074
-1278.1118
-1123.5693
-919.13529
-674.12593
-418.12518
-234.47523
-67.841667
37.787944
120.97496
171.79976
207.48274
228.55466
241.86454
249.15917
253.11928
254.86193
255.43822
255.386
255.10907
254.79726
254.69406
7.1219337
8.4153659
14.382998
18.241922
22.882788
27.010024
30.89133
33.869754
35.314517
34.05421
28.411276
15.906919
-6.810854
-44.177869
-101.94318
-183.06702
-298.11602
-434.68257
-590.39588
-752.39181
-918.26081
-1073.2935
-1226.6124
-1356.6799
-1459.2108
-1527.9662
-1561.6385
-1533.4736
-1442.5167
-1258.4177
-1014.2157
-712.92747
-389.05151
-187.87986
2.5536022
106.56256
188.93477
231.83282
260.29594
273.43462
279.9167
281.19055
280.207
277.92595
275.34624
272.89359
270.89987
269.41798
268.95087
5.8622757
6.7750638
13.320802
17.739462
23.420199
28.763166
34.280426
39.370627
43.610221
46.014854
45.116382
38.545336
22.875648
-6.885746
-58.410059
-134.97812
-257.39254
-405.45492
-578.56248
-758.43649
-946.48695
-1120.3442
-1302.4029
-1455.8822
-1576.0055
-1657.431
-1712.1724
-1701.6773
-1623.3433
-1412.9252
-1120.4508
-742.13618
-316.97791
-106.12861
108.87282
200.84581
276.11058
304.49718
321.43278
323.44139
321.04684
314.95386
308.19107
301.3697
295.32399
290.28792
286.47274
283.76168
282.90815
11.20283
13.330505
23.906464
31.42007
41.071813
50.86691
61.745575
73.183021
84.942893
96.095497
105.09499
109.15053
103.93517
82.741813
33.967563
-45.138945
-192.37469
-369.91025
-578.88907
-791.53621
-1014.6092
-1209.967
-1426.4421
-1608.4144
-1752.6914
-1863.6886
-1961.3678
-1964.8457
-1887.0093
-1624.4027
-1275.5337
-802.26245
-228.3133
-24.609302
225.93487
299.42635
367.88913
379.47032
384.0568
374.04081
362.2838
348.48164
335.74776
324.27859
314.71741
307.08121
301.44496
297.51182
296.27883
11.18738
12.967427
24.410883
32.401862
42.909276
53.565991
65.568334
78.429138
92.136856
106.02157
118.93946
128.56547
131.14192
120.40771
82.086522
19.093059
-139.99323
-331.62575
-563.89878
-793.35314
-1043.2156
-1249.5244
-1517.668
-1739.2426
-1909.5472
-2020.7758
-2144.2311
-2182.3068
-2167.9782
-1888.8875
-1472.7683
-854.36436
-28.588612
136.32118
413.93029
443.23017
489.17587
471.62944
456.31371
429.59487
405.7597
382.72979
363.20609
346.67528
333.40388
323.08865
315.60664
310.44909
308.83174
14.422026
16.992448
31.541356
42.204932
56.412214
71.557593
89.383151
109.72639
133.12841
159.49871
188.31802
217.62345
243.43421
258.06089
237.9756
192.56212
-13.196021
-255.8014
-548.33772
-827.59976
-1138.751
-1361.9499
-1680.8888
-1939.1352
-2103.8877
-2250.5259
-2514.5843
-2616.4584
-2644.3409
-2224.1982
-1738.4202
-975.61913
215.82603
259.51027
596.31687
571.41832
602.09451
556.31223
523.34802
481.05706
446.06649
414.42336
388.55795
367.29344
350.55486
337.74044
328.54033
322.24585
320.27661
16.843201
19.1917
35.4769
46.94264
62.341482
78.557331
97.601671
119.25994
144.19343
172.42733
203.71518
236.50603
267.64076
291.70444
279.33774
275.99582
40.148065
-221.25815
-552.27092
-833.44766
-1175.7192
-1339.7235
-1775.5077
-2100.1059
-2354.2514
-2481.1751
-2717.6092
-2833.0709
-3026.2849
-2734.9179
-2206.9891
-1151.0735
759.14692
610.54116
923.34008
788.85425
760.54723
665.17352
600.93828
536.72774
487.12923
445.38389
412.52641
386.34283
366.13853
350.90182
340.06911
332.70943
330.4057
16.738335
19.060851
36.584504
49.381304
66.986698
86.189389
109.5561
137.39912
171.32482
212.70638
263.33287
324.43827
396.21096
479.00149
528.2831
630.60134
296.08376
-72.415823
-496.97519
-852.48037
-1306.6
-1513.6874
-2007.3497
-2473.914
-2498.1044
-2468.4588
-3217.96
-3568.7273
-4175.4253
-3233.7726
-2580.8746
-1427.6481
1383.1258
683.97289
1156.6648
916.21386
872.66765
742.70738
659.73371
580.08943
520.01583
470.62087
432.313
402.19979
379.18032
361.95531
349.77385
341.53131
338.95569
22.637848
24.40771
45.020478
59.287807
79.070847
100.42964
126.34035
157.0538
194.29152
239.42747
294.21996
359.69636
435.06352
524.57337
550.59776
738.87695
296.91243
-73.889516
-608.71456
-891.66928
-1492.6519
-1176.28
-2117.9491
-2449.5952
-2860.8658
-3178.7664
-3477.5271
-3777.8438
-4055.0203
-4260.5526
-4105.9837
-2266.8919
2846.0779
1706.6907
1671.1617
1244.8451
1051.1002
855.71316
728.88751
626.31097
551.59095
493.40466
449.32742
415.43224
389.84614
370.88887
357.56335
348.58635
345.77919
18.112435
19.691978
38.959146
52.629265
71.980057
93.189074
119.42391
151.28011
191.18101
241.80093
307.39145
394.23092
509.6229
684.3314
847.59569
1501.2745
882.23768
139.49569
-420.66905
-916.47958
-1349.0176
-1760.9442
0
0
0
0
0
0
0
0
0
0
4071.4959
827.58836
1801.9796
1262.6567
1107.2077
893.68751
759.62123
649.4647
569.33312
507.18593
460.2036
424.22503
397.13393
377.11777
363.07338
353.62714
350.67717
29.966828
27.080532
50.970767
66.46209
89.126562
113.85166
144.61385
182.14501
229.47591
290.00932
369.04186
475.30845
611.70039
841.70766
964.74467
1630.9929
0
0
0
0
0
0
0
0
0
0
0
0
0
0
0
0
0
4397.4545
2247.372
1711.4932
1231.5415
976.5656
796.69837
672.89792
583.36624
516.88535
467.16222
429.59791
401.47787
380.80624
366.34006
356.62952
353.59418
18.143
19.738215
39.049319
52.746641
72.137582
93.387927
119.67389
151.5915
191.57058
242.29404
308.03137
395.09559
510.89874
686.45948
850.58065
1517.5826
882.46388
141.61001
-418.65876
-916.35877
-1351.4769
-1766.4867
0
0
0
0
0
0
0
0
0
0
4173.7148
3646.1464
2069.3042
1569.8543
1177.8207
947.62508
783.6263
666.72007
580.64043
515.90901
467.04275
429.93945
402.05571
381.51566
367.12001
357.44922
354.42925
22.757837
24.535828
45.263973
59.599677
79.47898
100.93257
126.95396
157.79172
195.17531
240.48481
295.49113
361.23569
436.96543
527.1364
553.2266
746.42125
305.24632
-66.666914
-599.74433
-887.60361
-1486.2123
-1177.2241
-2129.7926
-2465.9298
-2880.6614
-3202.9673
-3507.029
-3812.2805
-4096.2544
-4304.0215
-4138.6118
-2277.5255
2348.4924
2182.7331
1801.8014
1431.4425
1127.8124
920.77397
766.91769
655.55012
572.48675
509.98297
462.62355
426.64635
399.56432
379.59959
365.59354
356.1789
353.23522
16.905974
19.227013
36.909478
49.810198
67.561777
86.916431
110.4652
138.52145
172.70743
214.41262
265.45366
327.09884
399.59191
483.42194
533.57121
638.9972
300.96636
-68.02534
-493.27256
-851.14366
-1305.9821
-1515.3751
-2011.4131
-2479.4761
-2516.3439
-2497.8329
-3247.7402
-3606.4126
-4222.3029
-3315.1412
-2697.6851
-1732.5433
1469.3062
1484.7186
1404.0224
1182.5951
991.02603
836.34337
715.58889
622.37361
550.45819
494.78041
451.78944
418.68096
393.51467
374.83739
361.67369
352.79784
350.0242
17.083293
19.448918
35.948164
47.552179
63.135762
79.53721
98.795414
120.69377
145.90714
174.47198
206.16167
239.44836
271.21733
296.13906
284.59624
283.63935
47.340102
-214.53756
-546.28811
-829.75277
-1173.5071
-1341.1441
-1781.4427
-2107.9324
-2365.7471
-2496.5529
-2734.2896
-2851.1324
-3045.145
-2756.1694
-2219.1467
-1230.6907
733.78852
922.91422
1069.7232
969.6296
864.49145
754.15106
661.48403
584.95393
523.8642
475.33718
437.22685
407.51509
384.72712
367.70579
355.65349
347.50065
344.94918
14.669347
17.261968
32.053038
42.882125
57.310142
72.680936
90.766462
111.40153
135.14088
161.90299
191.18189
221.02308
247.45534
262.78883
243.26592
198.86101
-7.7983138
-250.83538
-544.16665
-824.88546
-1137.2187
-1362.5115
-1684.3195
-1945.702
-2115.9248
-2267.2881
-2534.0722
-2639.2738
-2670.102
-2253.5675
-1757.1406
-994.26576
315.51078
566.70183
771.83575
757.50243
718.94941
653.79655
592.39459
536.30141
489.02108
449.79153
418.07298
392.7953
373.10248
358.22565
347.60915
340.38849
338.12939
11.50572
13.324913
25.05825
33.242084
43.99976
54.906099
67.190384
80.36094
94.419575
108.70437
122.08454
132.2457
135.44413
125.4216
87.788227
25.738401
-133.5267
-325.44948
-558.41613
-789.10612
-1040.1736
-1248.2825
-1518.3103
-1741.1345
-1913.2504
-2025.8571
-2149.3615
-2187.26
-2171.7684
-1890.9139
-1466.9746
-851.30115
31.550689
311.32741
540.32198
584.12472
591.53801
561.40489
525.21946
486.85006
452.13804
421.83155
396.51065
375.83802
359.45471
346.92286
337.90171
331.72835
329.79338
11.512498
13.68272
24.566977
32.291819
42.217886
52.286499
63.471279
75.239678
87.365472
98.920845
108.36345
112.89921
108.19386
87.515671
39.171745
-39.478857
-186.90823
-364.67278
-574.18055
-787.68762
-1011.7138
-1208.4781
-1426.6671
-1610.3692
-1756.685
-1869.0579
-1966.6624
-1968.6562
-1887.4092
-1618.0569
-1253.9238
-764.04585
-139.60978
132.39151
353.20528
431.64451
470.26438
469.04008
455.32963
434.04192
411.96464
390.93859
372.41375
356.70828
343.93287
333.97706
326.71866
321.70757
320.1369
6.2494677
7.217348
14.11936
18.775902
24.76129
30.404403
36.254978
41.703208
46.337008
49.174692
48.7531
42.701956
27.589686
-1.5991193
-52.600634
-128.68076
-251.0442
-399.18871
-572.62398
-753.04236
-941.677
-1116.276
-1299.0277
-1452.9555
-1573.4782
-1654.7723
-1708.4864
-1696.1984
-1614.5252
-1398.6406
-1095.8037
-705.24241
-247.69204
5.5348225
211.33397
309.23677
367.42704
387.07078
390.60538
383.36033
372.18168
359.53701
347.37508
336.46543
327.25859
319.89897
314.4412
310.62871
309.4304
7.4860416
8.8333592
15.164812
19.270269
24.227802
28.664657
32.885934
36.222712
38.052866
37.203312
31.996526
19.947829
-2.3047801
-39.218605
-96.584986
-177.36442
-292.32797
-428.90723
-584.81301
-747.15822
-913.44757
-1069.0238
-1222.8647
-1353.237
-1455.7634
-1523.7225
-1555.36
-1523.7731
-1427.427
-1235.2576
-978.6862
-662.80584
-314.24448
-86.672046
99.855203
206.40772
276.41501
311.48684
328.8959
333.76026
332.40877
327.59922
321.54284
315.33122
309.67564
304.93142
301.30456
298.7196
297.90661
1.4745843
1.5938709
3.8504922
5.1258265
6.6185519
7.4411715
7.5696882
6.396401
3.2800293
-2.8275386
-13.371228
-30.387535
-56.54465
-95.2488
-150.63247
-225.24354
-325.03429
-442.78459
-576.00672
-715.66144
-858.19014
-993.25924
-1122.5051
-1230.8767
-1313.6089
-1364.5193
-1381.397
-1348.12
-1259.859
-1098.714
-884.61431
-627.77206
-353.88246
-151.99359
15.872483
124.45523
200.57343
245.94701
273.50032
287.88117
294.65512
296.60843
296.00336
294.10486
291.7818
289.5339
287.67602
286.28735
285.84668
2.9462761
3.330811
4.9208536
5.3858164
5.5226314
4.7324224
2.7878655
-0.92867873
-7.1738237
-17.039444
-31.966681
-53.83831
-84.958158
-128.01766
-185.90105
-260.28767
-353.92953
-461.987
-581.68221
-706.18513
-831.47902
-949.90869
-1060.0892
-1151.6709
-1219.7617
-1258.0838
-1262.318
-1222.196
-1135.4182
-994.03983
-811.97387
-599.43497
-377.86326
-200.06433
-49.59981
56.982565
135.65033
187.87957
223.02167
245.06308
258.70474
266.59057
270.90556
272.98927
273.79907
273.93191
273.78033
273.55621
273.48245
-2.7586573
-3.4040019
-5.4573103
-7.293915
-9.8923002
-13.34653
-18.155857
-24.832363
-34.109275
-46.93654
-64.55214
-88.513396
-120.67691
-163.13074
-217.98224
-286.48926
-369.99765
-465.30931
-569.83526
-678.33411
-786.84279
-889.24716
-982.60166
-1059.2008
-1114.5876
-1143.5873
-1142.3979
-1104.0424
-1026.1372
-905.03833
-750.87935
-573.51909
-390.31622
-233.89009
-98.917231
3.3811912
82.082929
138.30488
178.67095
206.482
225.60197
238.42834
246.97881
252.5815
256.21676
258.5303
259.95886
260.82131
261.08546
-1.6424442
-2.1877816
-5.1198582
-7.9744225
-12.125483
-17.364879
-24.345053
-33.528634
-45.677141
-61.680604
-82.660979
-109.93735
-144.98868
-189.34875
-244.39927
-310.81614
-388.93087
-476.28801
-570.41081
-667.07512
-762.57373
-851.92861
-931.74441
-996.03254
-1040.6004
-1060.8796
-1053.4165
-1013.8925
-941.27672
-834.76148
-702.00235
-551.51305
-396.81995
-258.77393
-137.31939
-40.333297
36.987746
95.348745
139.31516
171.51831
195.05657
212.0303
224.24629
232.96859
239.15836
243.47588
246.37676
248.26452
248.85476
-6.4493456
-7.7555455
-13.675295
-18.268003
-24.457588
-31.566217
-40.478027
-51.549051
-65.517437
-83.155433
-105.43466
-133.44998
-168.39179
-211.43393
-263.55122
-325.13971
-396.097
-474.50407
-558.10487
-643.41258
-727.03085
-804.75272
-873.15279
-927.45602
-963.9906
-978.97263
-969.51459
-932.55772
-867.4098
-774.52555
-659.94686
-531.01606
-398.34979
-275.97267
-166.23958
-74.962485
0.053236628
59.13105
105.33198
140.68869
167.6357
187.9612
203.24075
214.63652
223.05729
229.1492
233.36538
236.17395
237.04905
-5.8871293
-7.2269879
-14.178336
-19.848346
-27.580101
-36.385757
-47.263441
-60.482615
-76.761426
-96.771367
-121.34445
-151.3567
-187.70685
-231.20399
-282.41992
-341.43163
-407.80366
-479.8804
-555.58031
-631.94288
-705.90714
-773.8737
-832.60444
-878.15413
-907.27967
-916.83886
-904.53264
-868.48174
-808.59341
-726.02358
-625.60278
-513.44109
-397.80684
-288.51046
-188.77224
-103.06278
-30.737495
28.199882
75.718799
113.33333
142.91783
165.95921
183.80475
197.49819
207.87865
215.56033
220.97842
224.64751
225.80455
-9.6076857
-11.450473
-20.707869
-27.628326
-36.833095
-46.924125
-59.095121
-73.520513
-90.902232
-111.81964
-136.99598
-167.15111
-202.99345
-245.11007
-293.84537
-349.11264
-410.33625
-476.06321
-544.3928
-612.76119
-678.41618
-738.23225
-789.24954
-828.16882
-852.17624
-858.65228
-845.72839
-812.08789
-757.85998
-684.46975
-595.90435
-497.3003
-395.21935
-296.87214
-205.66397
-125.19374
-55.722906
2.4827646
50.612263
89.747578
121.30142
146.48277
166.42234
182.03709
194.08488
203.13451
209.592
214.00486
215.39037
-9.5414948
-11.476127
-21.788051
-29.694405
-40.258891
-51.781216
-65.546291
-81.630672
-100.70143
-123.23753
-149.84225
-181.06925
-217.42843
-259.28352
-306.75928
-359.60551
-417.13684
-478.01823
-540.49919
-602.32042
-661.0105
-713.8294
-758.1088
-791.04521
-810.21575
-813.4753
-799.38058
-767.1426
-717.12253
-650.82606
-571.56494
-483.61667
-392.22253
-302.87508
-218.82466
-143.06544
-76.365841
-19.190204
29.096139
69.223817
102.2327
129.08742
150.72509
167.9415
181.41428
191.6647
199.06619
204.19004
205.83531
-12.251506
-14.454457
-26.462926
-35.222575
-46.823107
-59.213166
-73.840664
-90.699849
-110.44794
-133.49317
-160.36124
-191.4977
-227.28741
-267.95683
-313.50114
-363.58025
-417.46449
-473.91419
-531.312
-587.63485
-640.6506
-687.92907
-727.07284
-755.66111
-771.5856
-773.04486
-758.87786
-728.56251
-682.55791
-622.3478
-550.75386
-471.39814
-388.56773
-306.62302
-228.55869
-156.94807
-92.83414
-36.826892
11.317593
52.050508
86.114658
114.26454
137.26674
155.80259
170.46973
181.73743
189.93978
195.65811
197.49633
-12.525421
-14.777762
-27.737865
-37.277155
-49.950155
-63.420035
-79.21708
-97.243525
-118.12606
-142.19155
-169.8784
-201.51901
-237.37323
-277.53683
-321.88728
-370.00403
-421.1246
-474.07603
-527.35232
-579.11859
-627.34849
-669.86828
-704.52681
-729.21838
-742.11994
-741.73891
-727.16777
-698.1196
-655.13087
-599.61352
-533.99303
-461.35314
-385.25552
-309.26949
-236.1065
-168.03048
-106.21966
-51.38573
-3.5579472
37.497494
72.291372
101.40441
125.46061
145.04311
160.68185
172.80598
181.7232
188.03649
190.18858
-14.462934
-16.709037
-30.863623
-40.919434
-54.28461
-68.309056
-84.661071
-103.17159
-124.46333
-148.8113
-176.60182
-208.09601
-243.47536
-282.75371
-325.73627
-371.95578
-420.63818
-470.66355
-520.61568
-568.80306
-613.3621
-652.31663
-683.71181
-705.67425
-716.59086
-715.18354
-700.71268
-673.02003
-632.67266
-581.00351
-520.14933
-452.79474
-381.98103
-310.73415
-241.51563
-176.36508
-116.52039
-62.762269
-15.308729
25.909238
61.225109
91.080105
115.98188
136.43033
152.89554
165.76918
175.32862
182.1631
184.58989
-14.956742
-17.070864
-31.985577
-42.539748
-56.641239
-71.370976
-88.477983
-107.71639
-129.69047
-154.61876
-182.8328
-214.52482
-249.80441
-288.61405
-330.69886
-375.55428
-422.39976
-470.15606
-517.48003
-562.79344
-604.36588
-640.38111
-669.05015
-688.68918
-697.86397
-695.47397
-680.9153
-654.12936
-615.70016
-566.88378
-509.59313
-446.20623
-379.38204
-311.76287
-245.60181
-182.77324
-124.53353
-71.708305
-24.644166
16.605933
52.242965
82.599456
108.09131
129.15181
146.20409
159.61968
169.66963
176.94645
179.96494
-16.568085
-18.13419
-33.854797
-44.607124
-59.113973
-74.143374
-91.5639
-111.06919
-133.26516
-158.33696
-186.58637
-218.16484
-253.13903
-291.40801
-332.68046
-376.4299
-421.87429
-467.96309
-513.4047
-556.69918
-596.20936
-630.22935
-657.085
-675.21917
-683.31623
-680.39182
-665.93095
-639.93824
-603.00239
-556.315
-501.63494
-441.12801
-377.19377
-312.21824
-248.30003
-187.19835
-130.16967
-78.067093
-31.320772
9.9320447
45.800299
76.539675
102.5021
124.07658
141.6579
155.61796
166.24671
174.09015
178.14043
-17.264841
-18.346805
-34.557418
-45.503716
-60.391339
-75.762822
-93.553519
-113.40619
-135.92017
-161.25084
-189.67384
-221.30795
-256.18709
-294.17877
-334.9665
-378.00954
-422.52645
-467.48725
-511.63716
-553.53093
-591.59742
-624.20871
-649.77352
-666.82523
-674.13503
-670.80438
-656.37317
-630.86344
-594.86155
-549.52716
-496.51808
-437.8625
-375.79437
-312.53888
-250.09127
-190.13683
-133.9264
-82.329123
-35.8261
5.3910675
41.371173
72.317603
98.536981
120.38426
138.22524
152.43136
163.32636
171.08923
176.44809
-19.696214
-18.627368
-35.327013
-46.17321
-61.206741
-76.65948
-94.552896
-114.49007
-137.07557
-162.45151
-190.88443
-222.47965
-257.25747
-295.07176
-335.59476
-378.2791
-422.34325
-466.76608
-510.30928
-551.55235
-588.95431
-620.9228
-645.90405
-662.47141
-669.4327
-665.91674
-651.4839
-626.21114
-590.69608
-546.05065
-493.88338
-436.15408
-375.01745
-312.62169
-250.91069
-191.53333
-135.73575
-84.393894
-38.012415
3.1912759
39.237568
70.305682
96.683051
118.71402
136.75992
151.23944
162.53172
170.12746
181.61452
841.34018
864.75375
911.90565
931.83224
915.726
882.23768
823.937
763.14974
688.81382
619.25043
-450.6926
-441.29236
-435.74251
-420.66905
-419.59533
-403.50264
-407.50814
-393.0603
-401.87956
-395.71373
-614.96358
-605.78287
-600.95996
-584.76379
-583.36746
-564.02862
-566.48075
-545.95393
-551.03144
-533.61484
-781.65905
-770.75804
-764.41451
-745.25332
-742.54367
-719.65709
-721.21492
-696.4924
-702.94043
-682.39227
-933.50362
-922.33004
-916.47958
-895.89432
-893.05229
-867.04451
-867.42889
-837.00613
-839.57676
-800.80352
-1089.1631
-1075.7479
-1068.2796
-1044.6306
-1041.0054
-1012.0472
-1013.02
-981.2177
-988.20974
-960.23975
-1228.7146
-1214.556
-1207.289
-1181.8327
-1178.1553
-1145.6766
-1145.3388
-1107.0766
-1108.7393
-1063.3389
-1363.1465
-1349.0176
-1342.8248
-1316.0553
-1313.0396
-1277.7761
-1277.7992
-1235.6448
-1236.1629
-1188.5452
-3232.3723
-3168.6448
-3164.1509
-3068.1072
-3076.1487
-2956.3924
-2967.9626
-2830.1369
-2836.5121
-2676.5067
-1623.8047
-1607.7796
-1602.4846
-1571.8615
-1570.2244
-1528.9409
-1530.3375
-1479.9498
-1482.2204
-1423.0841
-1760.9442
-1741.7848
-1734.9525
-1700.2841
-1698.0144
-1652.4408
-1654.0887
-1599.421
-1603.0263
-1542.5789
-1892.2729
-1870.1562
-1862.3533
-1824.0087
-1821.6278
-1771.5743
-1773.1779
-1712.7452
-1715.4344
-1644.9363
-2011.8522
-1989.4078
-1983.3056
-1943.2782
-1942.765
-1889.6137
-1892.9712
-1828.2585
-1830.3677
-1750.7579
-2134.5679
-2110.6955
-2105.5906
-2062.8969
-2063.9182
-2007.5326
-2014.0476
-1948.1022
-1959.639
-1901.3637
-2264.4503
-2236.2462
-2229.5366
-2181.3926
-2181.3566
-2117.9491
-2122.0962
-2044.3674
-2047.5585
-1952.2188
-2385.5375
-2355.2394
-2349.4683
-2297.9968
-2299.5866
-2231.9095
-2238.2402
-2156.0591
-2161.1371
-2061.0128
-2505.8209
-2473.2759
-2468.6027
-2413.4128
-2416.7223
-2344.6899
-2354.353
-2270.1003
-2285.5229
-2204.8427
-2632.3357
-2594.7118
-2588.747
-2527.1412
-2529.7475
-2449.5952
-2457.0777
-2360.333
-2367.0679
-2249.1127
-2751.1508
-2710.2742
-2705.135
-2638.7085
-2643
-2557.0082
-2566.4936
-2463.9994
-2471.6839
-2350.2659
-2866.4096
-2822.5398
-2818.9216
-2747.5817
-2754.1568
-2662.4752
-2675.3056
-2568.9955
-2584.6434
-2476.2367
-2982.6767
-2934.1611
-2931.2485
-2853.2869
-2860.8658
-2760.8559
-2773.3183
-2655.8721
-2667.092
-2534.8518
-3099.0341
-3045.9376
-3044.4765
-2959.3658
-2968.0925
-2859.2163
-2871.8327
-2744.9531
-2755.6927
-2612.9735
-1506.5785
-1488.9218
-1480.4419
-1449.7816
-1446.0915
-1407.3199
-1408.134
-1363.1214
-1367.5528
-1322.1239
353.95706
358.09629
359.84403
366.06571
360.212
357.97716
339.48498
324.82868
293.56225
264.37212
-266.74484
-258.8541
-254.95492
-242.88236
-243.51742
-231.25032
-236.74599
-226.71635
-235.682
-230.41186
542.4608
550.14271
575.12889
594.98371
594.88775
587.99097
559.78244
529.42339
483.43349
433.91639
122.67293
129.72159
133.4383
142.33785
139.49569
143.92475
132.73456
129.80429
111.79811
104.65797
-77.737233
-70.217886
-66.706048
-56.826663
-59.313085
-51.99174
-61.810517
-61.491796
-80.875991
-100.28677
2692.5288
4097.6326
4164.5987
4173.7148
3954.7934
3669.0594
3332.7743
2984.8426
2625.1392
2206.9859
-3160.7143
-1393.9601
-1104.0014
-395.6596
-86.487239
190.38586
330.70055
407.52513
429.52317
396.45789
-3332.7139
-3267.8335
-3268.5236
-3166.6666
-3178.7664
-3050.585
-3064.2843
-2918.7631
-2925.4522
-2764.0765
-3459.3937
-3385
-3385.6568
-3272.6496
-3285.7101
-3145.8359
-3159.4516
-3003.0362
-3004.4786
-2833.5837
-3582.7171
-3499.1246
-3500.9181
-3376.5555
-3391.5507
-3239.701
-3254.5326
-3088.0695
-3088.9086
-2920.6133
-3704.584
-3611.3114
-3614.557
-3477.5271
-3494.2582
-3328.545
-3342.9354
-3162.2766
-3158.727
-2976.4804
-3823.9918
-3720.8862
-3726.8516
-3576.2835
-3595.2913
-3414.7633
-3428.2613
-3232.6499
-3224.7404
-3021.0033
-3951.2434
-3835.2025
-3843.3342
-3676.8619
-3697.9077
-3501.2079
-3513.2111
-3302.7594
-3288.3081
-3065.1171
-4080.517
-3950.2271
-3961.4347
-3777.8438
-3802.0753
-3589.1831
-3601.0912
-3378.3888
-3358.8036
-3126.203
-4208.2895
-4062.6862
-4078.2704
-3875.9576
-3904.0934
-3674.3098
-3686.7692
-3454.2025
-3435.7596
-3215.6321
-4339.5153
-4174.3487
-4193.6019
-3968.741
-3999.3005
-3748.8931
-3756.8494
-3506.922
-3472.9552
-3215.0943
-4465.4734
-4279.3571
-4304.3543
-4055.0203
-4089.1988
-3818.2275
-3823.5253
-3562.6019
-3520.6016
-3277.0113