/*--------------------------------*- C++ -*----------------------------------*\
| =========                 |                                                 |
| \\      /  F ield         | foam-extend: Open Source CFD                    |
|  \\    /   O peration     | Version:     4.1                                |
|   \\  /    A nd           | Web:         http://www.foam-extend.org         |
|    \\/     M anipulation  |                                                 |
\*---------------------------------------------------------------------------*/
FoamFile
{
    version     2.0;
    format      ascii;
    class       surfaceScalarField;
    location    "0.09";
    object      phi;
}
// * * * * * * * * * * * * * * * * * * * * * * * * * * * * * * * * * * * * * //

dimensions      [0 3 -1 0 0 0 0];

internalField   nonuniform List<scalar> 
8438
(
-0.60177528
0.00052837531
-0.60239561
0.00062033052
-0.6030272
0.00063159187
-0.60369415
0.00066695472
-0.60439587
0.00070171249
-0.60514283
0.00074696566
-0.60594276
0.00079993121
-0.60680451
0.00086174837
-0.60773599
0.00093147765
-0.60874426
0.0010082756
-0.6098347
0.0010904396
-0.61101032
0.0011756109
-0.61227086
0.0012605434
-0.61361197
0.0013411081
-0.61502428
0.0014123132
-0.61649277
0.0014684907
-0.61799635
0.00150358
-0.61950792
0.0015115646
-0.62099494
0.0014870253
-0.62242053
0.0014255914
-0.62374497
0.0013244357
-0.62492755
0.0011825811
-0.62592876
0.0010012122
-0.62671255
0.00078378627
-0.62724875
0.00053620136
-0.6275154
0.00026664794
-0.62750089
-1.4509793e-05
-0.62720481
-0.00029607519
-0.62664008
-0.000564734
-0.62583375
-0.00080633066
-0.62482483
-0.0010089146
-0.62366141
-0.0011634255
-0.62239664
-0.0012647649
-0.62108419
-0.0013124553
-0.61977379
-0.0013103957
-0.61850849
-0.0012652968
-0.61732245
-0.0011860461
-0.61624076
-0.0010816906
-0.61527968
-0.00096107523
-0.614448
-0.00083167995
-0.61374835
-0.00069965699
-0.61317882
-0.00056952904
-0.61273435
-0.00044446656
-0.6124079
-0.0003264463
-0.61219123
-0.00021667
-0.61207557
-0.00011566517
-0.61205012
-2.5446386e-05
-0.61209807
4.7945592e-05
0.00014688277
-0.6156356
0.00087378134
-0.6159695
0.00095423844
-0.61632026
0.0009823486
-0.61669754
0.0010442307
-0.61710958
0.0011137522
-0.61756586
0.0012032491
-0.61807498
0.0013090555
-0.61864582
0.0014325843
-0.61928654
0.0015722021
-0.62000445
0.0017261856
-0.62080523
0.0018912158
-0.62169223
0.0020626143
-0.62266561
0.0022339196
-0.62372136
0.0023968613
-0.62485044
0.0025413934
-0.62603801
0.0026560545
-0.62726297
0.0027285464
-0.62849802
0.0027466141
-0.6297102
0.0026992017
-0.63086197
0.0025773603
-0.6319128
0.0023752719
-0.63282108
0.0020908513
-0.63354625
0.0017263916
-0.63405124
0.0012887697
-0.63430489
0.00078985005
-0.63428442
0.0002461812
-0.63397774
-0.00032119446
-0.63338608
-0.00088772593
-0.63252412
-0.0014266988
-0.631419
-0.0019114509
-0.63011014
-0.002317778
-0.62864622
-0.0026273392
-0.62708129
-0.0028296987
-0.62546982
-0.0029239222
-0.62386209
-0.002918124
-0.6223014
-0.0028259903
-0.62082175
-0.002665698
-0.61944791
-0.002455526
-0.61819565
-0.0022133352
-0.61707325
-0.0019540856
-0.61608286
-0.0016900423
-0.61522226
-0.0014301293
-0.61448619
-0.0011805367
-0.61386764
-0.00094499802
-0.61335876
-0.00072554944
-0.61295149
-0.00052293192
-0.61263838
-0.00033856061
-0.61241443
-0.00017600452
-2.2745977e-05
-0.61616886
0.0012009858
-0.61648434
0.0012697132
-0.61681291
0.0013109251
-0.61716576
0.0013970819
-0.61755198
0.0014999679
-0.61798136
0.0016326297
-0.61846291
0.0017906045
-0.61900583
0.0019755074
-0.61961876
0.0021851307
-0.62030955
0.00241698
-0.6210846
0.0026662607
-0.62194808
0.0029260932
-0.62290104
0.0031868791
-0.62394039
0.0034362087
-0.62505787
0.0036588831
-0.62623925
0.0038374312
-0.6274637
0.0039529965
-0.62870376
0.0039866758
-0.62992594
0.0039213814
-0.63109178
0.0037432008
-0.63215952
0.0034430114
-0.63308601
0.0030173373
-0.63382899
0.0024693699
-0.63434943
0.0018092117
-0.63461422
0.0010546363
-0.63459864
0.00023060158
-0.63428891
-0.00063091667
-0.63368417
-0.0014924712
-0.63279788
-0.0023129834
-0.6316582
-0.0030511375
-0.63030687
-0.0036691056
-0.62879599
-0.004138222
-0.62718351
-0.0044421804
-0.62552762
-0.0045798109
-0.62388126
-0.0045644839
-0.62228944
-0.0044178095
-0.6207866
-0.0041685382
-0.61939719
-0.0038449351
-0.61813596
-0.0034745616
-0.61700994
-0.0030801047
-0.61601993
-0.0026800552
-0.61516242
-0.002287638
-0.61443106
-0.001911901
-0.61381795
-0.0015581065
-0.61331464
-0.0012288551
-0.61291279
-0.00092478129
-0.61260508
-0.00064627036
-0.61238684
-0.0003942529
-0.00016463136
-0.61622781
0.0014996901
-0.61652736
0.0015692621
-0.61684419
0.0016277539
-0.61718593
0.0017388205
-0.61756194
0.0018759773
-0.61798152
0.0020522129
-0.61845394
0.0022630241
-0.61898865
0.0025102124
-0.61959477
0.002791257
-0.62028086
0.0031030637
-0.62105416
0.003439564
-0.6219199
0.0037918367
-0.62288026
0.0041472396
-0.62393325
0.0044891987
-0.62507154
0.0047971725
-0.62628141
0.0050472986
-0.62754202
0.005213608
-0.62882519
0.0052698436
-0.63009604
0.0051922298
-0.63131411
0.004961272
-0.63243518
0.004564086
-0.63341328
0.0039954357
-0.63420312
0.0032592096
-0.63476249
0.0023685806
-0.63505519
0.0013473372
-0.63505368
0.00022909174
-0.63474183
-0.00094276732
-0.63411725
-0.0021170555
-0.63319339
-0.0032368367
-0.63200021
-0.0042443206
-0.63058326
-0.0050860598
-0.62899993
-0.005721547
-0.62731439
-0.0061277202
-0.62559069
-0.0063035129
-0.62388584
-0.0062693287
-0.6222475
-0.0060561584
-0.62071061
-0.0057054198
-0.61929907
-0.0052564833
-0.61802596
-0.0047476662
-0.61689637
-0.0042096993
-0.615909
-0.0036674257
-0.61505848
-0.0031381536
-0.61433691
-0.002633475
-0.61373526
-0.0021597542
-0.61324442
-0.0017196917
-0.61285594
-0.0013132588
-0.61256294
-0.00093927305
-0.61236117
-0.00059602629
-0.00028085019
-0.61636005
0.0017900779
-0.61665255
0.0018617701
-0.61695576
0.0019309631
-0.6172815
0.0020645561
-0.61763937
0.0022338478
-0.61803962
0.0024524684
-0.61849224
0.0027156349
-0.61900749
0.0030254686
-0.61959556
0.0033793251
-0.62026625
0.0037737508
-0.62102835
0.0042016628
-0.62188882
0.0046523125
-0.62285171
0.0051101253
-0.62391681
0.005554298
-0.62507827
0.0059586392
-0.62632328
0.0062923029
-0.62763104
0.0065213714
-0.62897236
0.0066111674
-0.63031042
0.0065302847
-0.63160191
0.0062527636
-0.63279916
0.005761334
-0.63385219
0.0050484688
-0.63471143
0.0041184504
-0.63533005
0.0029871998
-0.63566731
0.0016845954
-0.6356914
0.0002531811
-0.63538261
-0.0012515542
-0.63473615
-0.0027635152
-0.63376515
-0.0042078356
-0.63250178
-0.0055076987
-0.63099692
-0.0065909151
-0.62931565
-0.0074028208
-0.62753116
-0.0079122099
-0.62571605
-0.0081186166
-0.62393299
-0.0080523914
-0.62223321
-0.0077559417
-0.6206521
-0.0072865255
-0.6192125
-0.0066960847
-0.61792499
-0.0060351719
-0.61679179
-0.0053429017
-0.61580861
-0.0046506053
-0.61496743
-0.0039793372
-0.61425809
-0.0033428175
-0.61366986
-0.0027479835
-0.61319244
-0.002197112
-0.61281676
-0.0016889396
-0.61253586
-0.0012201716
-0.61234584
-0.00078604071
-0.00038189356
-0.61649263
0.0020438239
-0.61675528
0.0021244113
-0.61703632
0.0022120098
-0.61734274
0.0023709787
-0.61768332
0.0025744237
-0.6180675
0.002836646
-0.61850528
0.0031534184
-0.61900731
0.0035274967
-0.61958451
0.0039565286
-0.62024782
0.0044370619
-0.62100753
0.0049613734
-0.62187244
0.0055172131
-0.6228486
0.0060862945
-0.62393791
0.0066436055
-0.62513629
0.0071570204
-0.62643203
0.0075880399
-0.62780444
0.0078937837
-0.62922303
0.0080297518
-0.63064846
0.007955721
-0.63203383
0.0076381349
-0.6333271
0.0070545979
-0.63447328
0.0061946498
-0.6354175
0.0050626743
-0.63610722
0.003676921
-0.63649617
0.002073539
-0.63654732
0.00030433508
-0.63623663
-0.0015622441
-0.63555634
-0.0034438032
-0.63451904
-0.0052451416
-0.6331595
-0.0068672327
-0.63153559
-0.0082148323
-0.62972255
-0.0092158609
-0.62780597
-0.0098287853
-0.62587028
-0.010054309
-0.62398532
-0.0099373481
-0.62220696
-0.0095343057
-0.62057057
-0.0089229116
-0.61909725
-0.0081694041
-0.6177939
-0.0073385288
-0.61665877
-0.0064780282
-0.61568357
-0.0056258004
-0.61485682
-0.0048060919
-0.61416548
-0.0040341622
-0.61359662
-0.0033168381
-0.61313835
-0.0026553872
-0.61278047
-0.0020468191
-0.61251512
-0.0014855145
-0.61233738
-0.00096378509
-0.00047432223
-0.61671408
0.0022926258
-0.6169687
0.0023790317
-0.61723076
0.0024740724
-0.61751407
0.0026542841
-0.61782778
0.002888139
-0.61818278
0.0031916418
-0.61858991
0.0035605518
-0.61906096
0.00399854
-0.61960827
0.0045038439
-0.62024468
0.0050734732
-0.62098288
0.0056995704
-0.62183453
0.0063688649
-0.62280893
0.0070606973
-0.62391123
0.0077459056
-0.62514027
0.0083860516
-0.62648627
0.0089340432
-0.6279291
0.0093366183
-0.62943677
0.0095374148
-0.63096685
0.0094858096
-0.63246787
0.0091391464
-0.6338823
0.0084690365
-0.63514892
0.0074612674
-0.63620623
0.0061199816
-0.63699425
0.0044649367
-0.6374593
0.0025385916
-0.63755708
0.00040211519
-0.6372568
-0.0018625235
-0.63654522
-0.004155383
-0.63543304
-0.0063573236
-0.63395784
-0.008342427
-0.63218672
-0.0099859527
-0.63020881
-0.011193776
-0.62812686
-0.01191073
-0.62604179
-0.012139383
-0.62403235
-0.011946787
-0.62216022
-0.011406437
-0.62045983
-0.0106233
-0.61894951
-0.0096797274
-0.61763086
-0.0086571763
-0.61649689
-0.0076119929
-0.61553411
-0.0065885889
-0.61472667
-0.0056135291
-0.61405804
-0.0047027882
-0.61351271
-0.0038621666
-0.61307695
-0.003091155
-0.61273939
-0.0023843771
-0.61249145
-0.0017334532
-0.61232756
-0.0011276758
-0.00055693182
-0.61690602
0.002489208
-0.61711429
0.0025872988
-0.6173425
0.0027022831
-0.617596
0.00290779
-0.61788294
0.0031750792
-0.61821284
0.0035215388
-0.61859648
0.0039441886
-0.61904604
0.0044481071
-0.61957494
0.0050327395
-0.6201976
0.0056961312
-0.62092893
0.0064309048
-0.62178343
0.0072233605
-0.62277367
0.0080509411
-0.6239083
0.0088805362
-0.62518936
0.0096671082
-0.62660929
0.010353978
-0.62814858
0.010875899
-0.62977315
0.011161985
-0.6314367
0.011149365
-0.63308199
0.010784439
-0.63464489
0.010031931
-0.63605652
0.0088728971
-0.63724757
0.0073110342
-0.63814907
0.0053664337
-0.63869869
0.0030882147
-0.63884377
0.00054719852
-0.63854619
-0.0021601108
-0.63778671
-0.0049148565
-0.63657359
-0.0075704457
-0.63494694
-0.0099690724
-0.63298512
-0.011947782
-0.63079484
-0.01338405
-0.62850178
-0.014203787
-0.62622941
-0.014411761
-0.62406671
-0.014109479
-0.62208246
-0.013390696
-0.6203083
-0.012397459
-0.61875824
-0.011229788
-0.61742637
-0.0099890384
-0.61629875
-0.0087396174
-0.61535516
-0.0075321738
-0.61457442
-0.0063942733
-0.61393571
-0.0053415003
-0.61342039
-0.0043774812
-0.6130125
-0.003499046
-0.61269914
-0.0026977442
-0.61247057
-0.0019620198
-0.61232032
-0.0012779207
-0.00063245552
-0.61720914
0.0026868916
-0.61741248
0.0027906385
-0.61761903
0.0029088401
-0.6178444
0.0031331599
-0.61809728
0.0034279531
-0.61838896
0.0038132238
-0.61873108
0.0042863099
-0.61913703
0.0048540526
-0.61962182
0.0055175354
-0.62020228
0.0062765857
-0.62089658
0.0071252072
-0.62172346
0.0080502414
-0.62270061
0.0090280892
-0.62384226
0.010022183
-0.62515581
0.010980665
-0.6266378
0.011835966
-0.62827058
0.012508674
-0.63001794
0.012909351
-0.63182903
0.012960447
-0.63363955
0.012594967
-0.63537755
0.011769923
-0.63696518
0.010460526
-0.63832432
0.0086701757
-0.63937512
0.0064172312
-0.64004457
0.0037576695
-0.64026888
0.00077151143
-0.63999837
-0.0024306199
-0.63920212
-0.0057111152
-0.6378821
-0.0088904628
-0.63607982
-0.011771351
-0.63388842
-0.014139182
-0.63143837
-0.015834096
-0.62888721
-0.01675495
-0.62639051
-0.016908461
-0.62404843
-0.01645156
-0.62193833
-0.015500798
-0.62008594
-0.014249841
-0.61849877
-0.01281696
-0.61716044
-0.011327366
-0.61604805
-0.0098520097
-0.61513312
-0.0084471029
-0.61438815
-0.0071392487
-0.6137875
-0.0059421498
-0.61330919
-0.0048557899
-0.61293497
-0.0038732632
-0.61265048
-0.0029822362
-0.61244501
-0.0021674926
-0.61231128
-0.0014116441
-0.00069878902
-0.61743999
0.0028126618
-0.61757773
0.002928377
-0.61773683
0.0030679371
-0.61791963
0.0033159627
-0.6181336
0.0036419245
-0.61838798
0.0040676012
-0.61869421
0.0045925453
-0.61906616
0.005226002
-0.61952019
0.0059715627
-0.62007528
0.0068316729
-0.62075274
0.0078026723
-0.62157545
0.0088729541
-0.62256618
0.010018819
-0.62374488
0.01120088
-0.6251246
0.012360379
-0.62670612
0.013417487
-0.62847378
0.014276339
-0.63038789
0.014823464
-0.63239152
0.01496407
-0.63441143
0.014614881
-0.63636627
0.013724766
-0.63816744
0.012261696
-0.63972672
0.010229452
-0.64095058
0.0076410976
-0.64175325
0.0045603381
-0.64205832
0.0010765815
-0.64180439
-0.0026845512
-0.64094853
-0.0065669746
-0.63948554
-0.010353454
-0.63745618
-0.01380071
-0.63497091
-0.016624458
-0.63218937
-0.018615632
-0.62931167
-0.019632652
-0.62653895
-0.019681178
-0.62398144
-0.019009077
-0.6217269
-0.01775533
-0.61978996
-0.016186783
-0.61816852
-0.014438406
-0.61683171
-0.01266417
-0.61574514
-0.010938576
-0.61487008
-0.0093221713
-0.61417152
-0.0078378004
-0.61361834
-0.006495335
-0.61318483
-0.0052892935
-0.61285033
-0.0042077699
-0.61259894
-0.0032336283
-0.612419
-0.002347428
-0.61230264
-0.0015280075
-0.00075647637
-0.61781339
0.0029487496
-0.61795337
0.0030683557
-0.61809141
0.0032059776
-0.61824432
0.0034688677
-0.61842002
0.0038176252
-0.61862969
0.0042772783
-0.61888528
0.0048481328
-0.61920146
0.0055421807
-0.61959593
0.0063660375
-0.62009009
0.007325824
-0.62070907
0.0084216615
-0.6214814
0.0096452804
-0.62243736
0.010974773
-0.62360602
0.012369543
-0.62501018
0.013764542
-0.6266589
0.015066202
-0.62854193
0.016159371
-0.63061615
0.01689769
-0.63281778
0.017165692
-0.6350626
0.016859705
-0.63725843
0.015920597
-0.63930422
0.014307486
-0.64110185
0.012027076
-0.64254227
0.0090815239
-0.6435259
0.005543963
-0.64396162
0.0015123037
-0.64377012
-0.0028760488
-0.6428838
-0.0074532975
-0.64127993
-0.011957323
-0.63899262
-0.016088016
-0.63615533
-0.019461756
-0.63296744
-0.021803519
-0.62968972
-0.02291037
-0.62659175
-0.022779147
-0.6237894
-0.021811428
-0.6213829
-0.02016183
-0.61936698
-0.018202707
-0.61772554
-0.016079845
-0.61640793
-0.013981779
-0.61536542
-0.011981088
-0.61454706
-0.010140527
-0.6139096
-0.0084752646
-0.61341609
-0.0069888432
-0.61303726
-0.0056681279
-0.61275023
-0.0044947993
-0.6125379
-0.0034459591
-0.61238792
-0.0024974068
-0.61229197
-0.0016239587
-0.00080364256
-0.61806429
0.0029918513
-0.61811781
0.0031218768
-0.61819293
0.0032811032
-0.61828781
0.0035637412
-0.61840879
0.0039386043
-0.61856412
0.0044326096
-0.61876538
0.0050493936
-0.61902771
0.0058045079
-0.61937045
0.0067087789
-0.61981783
0.0077732072
-0.62039934
0.0090031729
-0.62114952
0.010395454
-0.62210648
0.01193174
-0.62330875
0.013571807
-0.62478916
0.015244954
-0.62656501
0.016842053
-0.62863174
0.018226104
-0.6309389
0.019204849
-0.6334125
0.019639293
-0.63595363
0.01940083
-0.63845756
0.018424532
-0.64080876
0.016658689
-0.64289952
0.01411783
-0.64459982
0.010781822
-0.64579147
0.0067356151
-0.64636529
0.0020861268
-0.64622426
-0.0030170806
-0.64527622
-0.0084013328
-0.64348124
-0.013752303
-0.64086022
-0.018709042
-0.63757255
-0.022749425
-0.63386386
-0.025512209
-0.6300762
-0.026698031
-0.62658207
-0.026273272
-0.6234906
-0.024902903
-0.62091758
-0.022734847
-0.61882473
-0.020295554
-0.61717644
-0.017728136
-0.61589551
-0.015262711
-0.61491549
-0.012961111
-0.61417094
-0.01088508
-0.61360932
-0.0090368785
-0.61318757
-0.0074105944
-0.61287285
-0.005982848
-0.61264033
-0.0047273163
-0.61247198
-0.0036143085
-0.61235508
-0.0026143131
-0.61228118
-0.0016978612
-0.00083986778
-0.61849019
0.0030557648
-0.61855558
0.0031872609
-0.61861352
0.0033390462
-0.61868083
0.0036310493
-0.61876399
0.0040217607
-0.61887303
0.0045416527
-0.61901921
0.0051955702
-0.61921747
0.0060027708
-0.61948738
0.0069786882
-0.61985457
0.0081404016
-0.62035192
0.0095005152
-0.62102019
0.011063729
-0.62190744
0.012818988
-0.62306613
0.014730502
-0.62454632
0.016725138
-0.62638177
0.018677511
-0.62858294
0.020427271
-0.63109228
0.02171419
-0.63382491
0.022371924
-0.63666376
0.022239671
-0.63948992
0.021250701
-0.64216995
0.01933871
-0.64458918
0.016537064
-0.64659308
0.012785718
-0.64804732
0.0081898547
-0.64882962
0.0028684282
-0.64882205
-0.0030246498
-0.64788134
-0.0093420367
-0.64592219
-0.015711455
-0.64292974
-0.021701493
-0.63909837
-0.026580794
-0.63473814
-0.029872436
-0.63031094
-0.031125238
-0.62635498
-0.030229226
-0.6229457
-0.028312189
-0.62021667
-0.025463875
-0.61807462
-0.022437609
-0.61645582
-0.019346932
-0.61524774
-0.016470789
-0.61436266
-0.013846188
-0.61371894
-0.011528803
-0.6132547
-0.0095011208
-0.61292129
-0.0077440038
-0.61268316
-0.0062209767
-0.61251435
-0.0048961261
-0.6123966
-0.0037320579
-0.61231736
-0.0026935533
-0.61226846
-0.0017467634
-0.00086352577
-0.61874526
0.0030091185
-0.61870563
0.0031476311
-0.61868519
0.0033186062
-0.61867726
0.0036231239
-0.61868617
0.0040306673
-0.61871798
0.0045734647
-0.61878308
0.0052606688
-0.61889654
0.0061162273
-0.61907959
0.0071617381
-0.6193613
0.0084221165
-0.61978033
0.0099195457
-0.62038626
0.011669658
-0.62123947
0.013672196
-0.6224085
0.015899536
-0.62396224
0.018278877
-0.62595085
0.020666117
-0.62840153
0.022877955
-0.63123788
0.024550536
-0.63435529
0.025489339
-0.63760947
0.025493847
-0.64086555
0.024506778
-0.6439704
0.02244356
-0.64681239
0.019379058
-0.64920358
0.015176912
-0.65098316
0.0099694277
-0.65200561
0.0038908756
-0.65212763
-0.0029026254
-0.65115118
-0.010318489
-0.64895576
-0.017906873
-0.64547665
-0.0251806
-0.64094849
-0.031108953
-0.63574607
-0.035074858
-0.63048907
-0.036382243
-0.62598055
-0.034737743
-0.62220567
-0.032087071
-0.61932177
-0.028347775
-0.61715076
-0.024608619
-0.6155919
-0.02090579
-0.61448772
-0.017574971
-0.61372565
-0.014608252
-0.61320614
-0.01204832
-0.61285777
-0.0098494843
-0.6126268
-0.0079749762
-0.61247564
-0.0063721379
-0.61237792
-0.0049938467
-0.6123158
-0.0037941776
-0.61227744
-0.0027319167
-0.61225535
-0.001768853
-0.00087392147
-0.61919244
0.0029902173
-0.61917254
0.003127732
-0.61914048
0.0032865546
-0.6191109
0.0035935377
-0.61908777
0.0040075346
-0.6190785
0.004564204
-0.61909208
0.0052742439
-0.61914182
0.0061659715
-0.61924709
0.0072670059
-0.61943584
0.0086108686
-0.61974752
0.010231217
-0.62023611
0.01215825
-0.62097226
0.014408345
-0.62204314
0.016970424
-0.62354617
0.019781902
-0.62556308
0.022683024
-0.62816334
0.025478216
-0.63125144
0.027638644
-0.63470349
0.028941384
-0.63834306
0.029133423
-0.64202088
0.02818459
-0.64555563
0.025978313
-0.64884672
0.022670143
-0.65165363
0.017983826
-0.65379232
0.012108115
-0.6551243
0.005222856
-0.65551152
-0.0025154013
-0.65465708
-0.011172929
-0.65233003
-0.020233922
-0.64833322
-0.029177413
-0.64295109
-0.036491077
-0.63665347
-0.041372486
-0.6303028
-0.042732915
-0.625159
-0.03988154
-0.62100715
-0.036238924
-0.61802536
-0.031329559
-0.61590078
-0.026733201
-0.61447902
-0.022327554
-0.6135455
-0.018508485
-0.61295974
-0.015194012
-0.61260466
-0.012403397
-0.61240139
-0.010052755
-0.61229352
-0.0080828485
-0.61224364
-0.006422023
-0.61222675
-0.0050107359
-0.61222676
-0.0037941637
-0.61223349
-0.0027251915
-0.61224076
-0.0017615832
-0.00086972773
-0.61944608
0.0028543615
-0.61931213
0.0029937851
-0.61919067
0.003165088
-0.61907068
0.0034735465
-0.61895296
0.0038898216
-0.61883967
0.0044509121
-0.6187375
0.0051720778
-0.61865847
0.0060869353
-0.61862233
0.0072308694
-0.61865985
0.00864839
-0.61881697
0.01038833
-0.61915964
0.012500922
-0.61977783
0.01502654
-0.6207872
0.017979792
-0.62232318
0.021317884
-0.62450219
0.024862031
-0.62744757
0.028423591
-0.63100924
0.031200316
-0.63501937
0.032951515
-0.63924464
0.033358693
-0.64351545
0.032455403
-0.64761496
0.030077818
-0.65149897
0.026554152
-0.65487004
0.021354902
-0.65751066
0.014748735
-0.6592719
0.0069840955
-0.65998307
-0.0018042325
-0.65919677
-0.01195923
-0.6566191
-0.022811593
-0.65190862
-0.033887895
-0.6454314
-0.042968296
-0.63771192
-0.049091966
-0.62990981
-0.050535024
-0.62404767
-0.045743679
-0.61949396
-0.040792633
-0.61645737
-0.034366147
-0.61443363
-0.028756938
-0.61320313
-0.023558053
-0.61248592
-0.019225703
-0.61211202
-0.015567911
-0.61194791
-0.012567507
-0.61190875
-0.010091913
-0.61193728
-0.0080543218
-0.6119977
-0.0063616005
-0.61206761
-0.0049408245
-0.61213356
-0.0037282136
-0.61218767
-0.0026710824
-0.61222554
-0.0017237079
-0.00085047137
-0.61985825
0.0027421578
-0.61974313
0.0028786643
-0.61961325
0.0030352048
-0.61947769
0.0033379918
-0.61933661
0.0037487422
-0.61919296
0.0043072578
-0.61905129
0.0050304126
-0.61892057
0.0059562121
-0.61881642
0.007126721
-0.61876491
0.0085968809
-0.61880764
0.01043106
-0.61900873
0.012702014
-0.61946261
0.015480419
-0.62030231
0.018819486
-0.6217039
0.022719483
-0.62383716
0.026995288
-0.62694917
0.031535599
-0.63083025
0.035081397
-0.63527089
0.037392156
-0.6399751
0.038062897
-0.64477759
0.037257899
-0.64941448
0.034714707
-0.65393537
0.03107504
-0.6578917
0.025311232
-0.66098785
0.017844888
-0.66313157
0.0091278131
-0.66430708
-0.00062872129
-0.66391916
-0.012347156
-0.66143999
-0.025290755
-0.6560824
-0.039245495
-0.64825223
-0.050798457
-0.6385712
-0.058773005
-0.62868967
-0.060416547
-0.62202283
-0.05241052
-0.61713372
-0.045681748
-0.61421171
-0.037288154
-0.6124662
-0.030502446
-0.61157836
-0.0244459
-0.61119384
-0.019610218
-0.61111439
-0.015647362
-0.61119742
-0.012484481
-0.61135904
-0.0099302928
-0.6115473
-0.0078660599
-0.6117325
-0.0061763937
-0.61189801
-0.0047753141
-0.61203513
-0.0035911012
-0.61213964
-0.0025665672
-0.61220978
-0.001653566
-0.00081530525
-0.62012872
0.002526885
-0.6199097
0.0026596432
-0.61969115
0.0028166576
-0.61945987
0.0031067065
-0.61921132
0.0035001907
-0.61894158
0.0040375213
-0.61864999
0.0047388193
-0.61834027
0.0056464946
-0.61802368
0.0068101301
-0.61772389
0.0082970959
-0.61748461
0.010191778
-0.61738076
0.012598165
-0.61753242
0.015632078
-0.61812097
0.01940803
-0.61940418
0.024002699
-0.62163162
0.029222722
-0.6252375
0.035141479
-0.62984521
0.039689108
-0.63513572
0.042682667
-0.64069191
0.043619084
-0.64632676
0.042892759
-0.65166286
0.040050801
-0.65697215
0.036384334
-0.66168539
0.030024467
-0.66546935
0.021628853
-0.66838171
0.012040166
-0.6704127
0.0014022688
-0.6704436
-0.012316254
-0.66781548
-0.027918873
-0.66135388
-0.045707095
-0.6517704
-0.060381941
-0.63957182
-0.07097158
-0.62688444
-0.073103926
-0.61948744
-0.05980752
-0.61435985
-0.050809343
-0.61168161
-0.039966391
-0.61031544
-0.031868612
-0.60983866
-0.024922685
-0.60983291
-0.019615965
-0.61007646
-0.015403814
-0.61042458
-0.012136356
-0.61079768
-0.0095571964
-0.6111519
-0.0075118397
-0.61146523
-0.0058630614
-0.61172795
-0.0045126008
-0.61193681
-0.0033822347
-0.6120918
-0.002411577
-0.61219407
-0.0015513002
-0.00076442366
-0.6203322
0.0023122251
-0.62011428
0.002441718
-0.61988172
0.0025840989
-0.61963399
0.0028589743
-0.61936572
0.0032319283
-0.61907328
0.0037450753
-0.61875421
0.0044197502
-0.61840946
0.0053017434
-0.61804584
0.0064465154
-0.61768058
0.0079318306
-0.61734847
0.0098596708
-0.61711369
0.01236339
-0.61708656
0.015604939
-0.6174474
0.01976887
-0.61849215
0.025047448
-0.62052534
0.031255917
-0.62435283
0.038968964
-0.62940784
0.044744125
-0.63526241
0.04853723
-0.64134667
0.049703349
-0.64756251
0.049108595
-0.65343978
0.045928072
-0.65973585
0.042680403
-0.66541383
0.035702452
-0.66981741
0.026032434
-0.67300369
0.015226446
-0.67559273
0.0039913039
-0.67648638
-0.011422604
-0.67477353
-0.029631727
-0.66790176
-0.052578858
-0.65631733
-0.071966374
-0.64038453
-0.086904377
-0.62317734
-0.090311117
-0.61498121
-0.068003647
-0.60998189
-0.05580867
-0.60798308
-0.041965201
-0.60739618
-0.032455509
-0.60761845
-0.024700417
-0.60818835
-0.019046069
-0.6088778
-0.014714359
-0.60956494
-0.011449219
-0.61019172
-0.0089304174
-0.61073502
-0.0069685367
-0.61118845
-0.0054096305
-0.61155412
-0.0041469322
-0.61183719
-0.003099164
-0.6120435
-0.0022052661
-0.61217809
-0.001416715
-0.00069770934
-0.62028819
0.0020342752
-0.62000265
0.0021561814
-0.6197009
0.0022823502
-0.61937128
0.0025293471
-0.61900242
0.0028630747
-0.61858267
0.0033253275
-0.61810007
0.003937148
-0.61754346
0.0047451306
-0.61690468
0.0058077354
-0.61618345
0.0072106013
-0.61539677
0.00907299
-0.61459693
0.011563548
-0.6139026
0.014910612
-0.61354758
0.019413851
-0.61399146
0.025491331
-0.61573374
0.032998199
-0.62027452
0.043509744
-0.62651466
0.050984256
-0.63369819
0.055720762
-0.64105001
0.057055175
-0.64851964
0.056578219
-0.65521374
0.05262218
-0.66249994
0.0499666
-0.66900261
0.042205117
-0.67376641
0.03079624
-0.67802809
0.019488125
-0.68311578
0.0090789914
-0.68579879
-0.0087395947
-0.68462217
-0.030808347
-0.67573267
-0.061468356
-0.66136179
-0.086337256
-0.64098611
-0.10728005
-0.61786879
-0.11342844
-0.60979366
-0.07607878
-0.60542724
-0.060175091
-0.60431851
-0.043073932
-0.60459372
-0.0321803
-0.60551337
-0.023780761
-0.60664141
-0.017918035
-0.60775324
-0.013602528
-0.60876005
-0.010442409
-0.60962507
-0.0080653941
-0.61034584
-0.006247773
-0.61093056
-0.0048249042
-0.61139257
-0.0036849254
-0.61174493
-0.0027468074
-0.61199904
-0.0019511523
-0.61216364
-0.001252112
-0.00061640183
-0.61844849
0.0017088861
-0.61812199
0.0018296797
-0.61778265
0.0019430084
-0.61741613
0.0021628301
-0.61700963
0.0024565687
-0.61655016
0.0028658581
-0.61602464
0.0034116263
-0.61542047
0.0041409678
-0.61472746
0.0051147194
-0.61394192
0.006425063
-0.61307489
0.0082059629
-0.61216794
0.010656594
-0.61132296
0.014065629
-0.61074007
0.01883096
-0.61087814
0.025629406
-0.61212902
0.034249077
-0.61707899
0.048459716
-0.62402835
0.057933619
-0.63198107
0.063673478
-0.63966405
0.064738151
-0.64737062
0.064284798
-0.6537299
0.058981454
-0.66253738
0.058774076
-0.67083227
0.050500007
-0.67708144
0.037045411
-0.68142345
0.02383014
-0.68616859
0.013824135
-0.68961201
-0.0052961834
-0.69116626
-0.029254094
-0.68434274
-0.068291872
-0.66862613
-0.10205387
-0.64165169
-0.13425449
-0.60799587
-0.14708426
-0.59977357
-0.084301077
-0.59758373
-0.062364936
-0.59849981
-0.042157849
-0.60055795
-0.03012216
-0.60273914
-0.021599575
-0.6047577
-0.015899475
-0.60647272
-0.011887504
-0.60789173
-0.0090233955
-0.60903931
-0.0069178225
-0.60995633
-0.0053307492
-0.6106786
-0.0041026375
-0.61123739
-0.0031261275
-0.61165727
-0.0023269287
-0.61195699
-0.0016514315
-0.61214987
-0.0010592364
-0.00052132031
-0.61468049
0.0013807428
-0.61434221
0.0014913959
-0.61396902
0.0015698182
-0.61355418
0.0017479965
-0.61307944
0.0019818285
-0.61252506
0.0023114722
-0.61186593
0.0027524965
-0.61107131
0.0033463486
-0.61010336
0.0041467671
-0.60891687
0.0052385811
-0.60746188
0.0067509719
-0.60569432
0.0088890323
-0.60361378
0.011985086
-0.60132139
0.016538574
-0.59942615
0.023734165
-0.59873513
0.033558049
-0.60459214
0.05431673
-0.61362711
0.066968585
-0.62341628
0.073462648
-0.63270084
0.074022716
-0.64226083
0.073844786
-0.64992317
0.066643791
-0.66005195
0.068902859
-0.669565
0.060013056
-0.67281393
0.040294342
-0.67556007
0.026576284
-0.6878381
0.026102162
-0.69838582
0.0052515416
-0.70477518
-0.022864738
-0.69145818
-0.081608877
-0.66947059
-0.12404145
-0.63660832
-0.16711676
-0.59326285
-0.19042973
-0.59071079
-0.086853147
-0.5917514
-0.06132432
-0.59429546
-0.039613791
-0.59769159
-0.02672603
-0.60071192
-0.018579248
-0.60334908
-0.013262307
-0.60548753
-0.0097490621
-0.60720893
-0.0073019967
-0.60857025
-0.0055565003
-0.60964036
-0.0042606318
-0.61047231
-0.0032706919
-0.61110958
-0.0024888548
-0.61158481
-0.0018517062
-0.61192215
-0.0013140825
-0.61213842
-0.00084297306
-0.00041493822
-0.60889954
0.00094234069
-0.60847736
0.0010692112
-0.6080443
0.0011367628
-0.60756887
0.0012725702
-0.60703097
0.001443923
-0.60640594
0.0016864481
-0.60566651
0.0020130623
-0.60477943
0.0024592692
-0.6037051
0.0030724325
-0.60239785
0.0039313385
-0.6008108
0.0051639186
-0.59890835
0.0069865783
-0.59672176
0.0097985031
-0.59437204
0.014188848
-0.59258191
0.021944037
-0.59141439
0.032390535
-0.59903135
0.061933689
-0.60983183
0.077769061
-0.62181609
0.085446913
-0.63158816
0.08379478
-0.6417095
0.083966124
-0.64402704
0.068961333
-0.65511078
0.038652733
-0.66330694
0.035304794
-0.67098791
0.018377243
-0.68258022
0.0097963152
-0.69423342
0.021722129
-0.70185298
0.01193857
-0.70208652
-0.0014271698
-0.69550517
-0.051803968
-0.66919211
-0.077816246
-0.626046
-0.095781424
-0.56491389
-0.25156184
-0.56642689
-0.085340151
-0.57744654
-0.050304668
-0.58562152
-0.031438813
-0.5926242
-0.019723341
-0.59771928
-0.013484175
-0.60153666
-0.0094449204
-0.6043676
-0.0069181288
-0.60650069
-0.0051689078
-0.60811762
-0.0039395678
-0.60935088
-0.0030273688
-0.61029037
-0.0023311996
-0.61099982
-0.0017794096
-0.61152372
-0.0013278011
-0.61189318
-0.00094462581
-0.61212905
-0.00060710232
-0.00029904
-0.59741989
0.00059972768
-0.59708913
0.00073845758
-0.59670862
0.00075624385
-0.59627826
0.00084221038
-0.59577528
0.00094094287
-0.59517454
0.0010857154
-0.59444212
0.0012806361
-0.59353247
0.0015496206
-0.59238276
0.0019227204
-0.59090326
0.0024518412
-0.58896223
0.0032228947
-0.58635418
0.00437852
-0.5827872
0.0062315256
-0.57760903
0.0090106813
-0.57041454
0.014749543
-0.56099708
0.022973077
-0.57315798
0.038016404
-0.58994819
0.04310767
-0.5954129
0.047121631
-0.58118027
0.042625397
-0.48614132
0.04380745
-0.20207763
0.024238845
0
0
0
0
0
0
0
0
0
0
0
0
0
0
0
0
0
0
-0.25087132
0
-0.51606859
-0.14664002
-0.56674543
-0.034663316
-0.57828502
-0.038765075
-0.58398319
-0.025740643
-0.59145657
-0.012249962
-0.59672596
-0.0082147858
-0.60082551
-0.0053453686
-0.60385402
-0.0038896205
-0.60614079
-0.0028821357
-0.60786866
-0.0022116947
-0.60918275
-0.0017132863
-0.61018054
-0.0013334059
-0.61093181
-0.001028135
-0.61148523
-0.00077438332
-0.61187473
-0.00055512588
-0.61212304
-0.00035879656
-0.00017717279
-0.42161752
-0.00039723769
-0.42034547
-0.00053359221
-0.41904129
-0.00054793083
-0.41757219
-0.00062689678
-0.41591477
-0.00071647151
-0.41398004
-0.0008490201
-0.41167071
-0.0010286889
-0.40884225
-0.0012788361
-0.40529051
-0.0016290284
-0.40070828
-0.0021303846
-0.39461764
-0.0028677405
-0.38625714