/*--------------------------------*- C++ -*----------------------------------*\
| =========                 |                                                 |
| \\      /  F ield         | foam-extend: Open Source CFD                    |
|  \\    /   O peration     | Version:     4.1                                |
|   \\  /    A nd           | Web:         http://www.foam-extend.org         |
|    \\/     M anipulation  |                                                 |
\*---------------------------------------------------------------------------*/
FoamFile
{
    version     2.0;
    format      ascii;
    class       volScalarField;
    location    "0.09";
    object      rAU;
}
// * * * * * * * * * * * * * * * * * * * * * * * * * * * * * * * * * * * * * //

dimensions      [0 0 1 0 0 0 0];

internalField   nonuniform List<scalar> 
4393
(
4.4622596e-05
4.4617122e-05
4.4612092e-05
4.460678e-05
4.4601186e-05
4.4595249e-05
4.4588883e-05
4.4582028e-05
4.4574621e-05
4.4566606e-05
4.4557941e-05
4.4548602e-05
4.4538594e-05
4.4527951e-05
4.451674e-05
4.4505105e-05
4.4493193e-05
4.4481219e-05
4.4469448e-05
4.445817e-05
4.4447697e-05
4.443835e-05
4.4430439e-05
4.4424249e-05
4.4420014e-05
4.4417909e-05
4.4417909e-05
4.4418024e-05
4.4420361e-05
4.4424821e-05
4.443119e-05
4.4439162e-05
4.4448358e-05
4.4458359e-05
4.4468742e-05
4.4479114e-05
4.4489133e-05
4.4498529e-05
4.4507102e-05
4.4514722e-05
4.4521318e-05
4.4526868e-05
4.4531387e-05
4.4534914e-05
4.4537505e-05
4.4539225e-05
4.4540143e-05
4.4539965e-05
4.453827e-05
4.4509428e-05
4.4505524e-05
4.4502655e-05
4.4499384e-05
4.4495836e-05
4.4491871e-05
4.4487419e-05
4.4482409e-05
4.4476784e-05
4.4470494e-05
4.4463508e-05
4.4455818e-05
4.444745e-05
4.4438469e-05
4.4428977e-05
4.4419163e-05
4.4409219e-05
4.4399408e-05
4.4390041e-05
4.4381445e-05
4.4373961e-05
4.4367923e-05
4.436364e-05
4.4361375e-05
4.4361327e-05
4.4363611e-05
4.4365597e-05
4.4365795e-05
4.4368339e-05
4.4373227e-05
4.4380339e-05
4.438944e-05
4.4400186e-05
4.4412158e-05
4.4424897e-05
4.4437955e-05
4.4450918e-05
4.4463446e-05
4.4475272e-05
4.4486211e-05
4.4496148e-05
4.4505027e-05
4.4512841e-05
4.4519614e-05
4.4525391e-05
4.453023e-05
4.4534178e-05
4.4536865e-05
4.4538114e-05
4.4502465e-05
4.4498799e-05
4.4495972e-05
4.4492687e-05
4.4489069e-05
4.4484968e-05
4.4480317e-05
4.4475041e-05
4.4469085e-05
4.4462401e-05
4.4454965e-05
4.4446783e-05
4.4437897e-05
4.4428398e-05
4.4418424e-05
4.4408202e-05
4.4397972e-05
4.4388046e-05
4.4378786e-05
4.437056e-05
4.4363741e-05
4.4358685e-05
4.4355704e-05
4.4355052e-05
4.4356895e-05
4.4361299e-05
4.4360708e-05
4.4358686e-05
4.4359204e-05
4.4362366e-05
4.4368142e-05
4.4376351e-05
4.4386664e-05
4.4398637e-05
4.4411749e-05
4.4425475e-05
4.4439317e-05
4.4452859e-05
4.4465764e-05
4.4477798e-05
4.4488805e-05
4.4498707e-05
4.4507481e-05
4.4515147e-05
4.452175e-05
4.452735e-05
4.4532002e-05
4.4535734e-05
4.4538153e-05
4.4499404e-05
4.4495958e-05
4.4493122e-05
4.4489732e-05
4.4485931e-05
4.4481566e-05
4.4476576e-05
4.447088e-05
4.4464425e-05
4.4457164e-05
4.4449078e-05
4.4440181e-05
4.4430532e-05
4.4420246e-05
4.4409495e-05
4.4398548e-05
4.4387698e-05
4.4377314e-05
4.4367816e-05
4.4359626e-05
4.4353163e-05
4.4348815e-05
4.4346911e-05
4.4347704e-05
4.4351339e-05
4.4357839e-05
4.4354687e-05
4.435036e-05
4.4348818e-05
4.4350279e-05
4.4354807e-05
4.4362271e-05
4.4372348e-05
4.4384547e-05
4.4398261e-05
4.4412871e-05
4.4427775e-05
4.4442475e-05
4.4456564e-05
4.4469756e-05
4.4481864e-05
4.4492792e-05
4.4502508e-05
4.4511032e-05
4.4518414e-05
4.4524719e-05
4.4530011e-05
4.4534336e-05
4.4537231e-05
4.4495989e-05
4.4492592e-05
4.4489727e-05
4.4486267e-05
4.4482339e-05
4.4477783e-05
4.4472532e-05
4.4466498e-05
4.4459623e-05
4.4451853e-05
4.4443168e-05
4.4433584e-05
4.4423171e-05
4.4412062e-05
4.4400459e-05
4.4388675e-05
4.4377058e-05
4.4366044e-05
4.4356118e-05
4.434777e-05
4.4341474e-05
4.4337663e-05
4.4336696e-05
4.4338836e-05
4.4344216e-05
4.4352829e-05
4.4347211e-05
4.4340401e-05
4.4336677e-05
4.433639e-05
4.4339707e-05
4.4346548e-05
4.4356585e-05
4.4369254e-05
4.4383827e-05
4.4399569e-05
4.4415751e-05
4.4431782e-05
4.444718e-05
4.4461616e-05
4.4474874e-05
4.4486849e-05
4.449751e-05
4.4506886e-05
4.4515039e-05
4.4522049e-05
4.4527996e-05
4.4532949e-05
4.4536429e-05
4.4492639e-05
4.4489463e-05
4.4486689e-05
4.4483204e-05
4.4479159e-05
4.4474395e-05
4.4468848e-05
4.4462425e-05
4.445506e-05
4.4446697e-05
4.443731e-05
4.4426917e-05
4.4415594e-05
4.4403492e-05
4.4390842e-05
4.4378005e-05
4.436539e-05
4.4353509e-05
4.4342927e-05
4.4334212e-05
4.4327906e-05
4.4324499e-05
4.4324387e-05
4.4327859e-05
4.4335043e-05
4.4345904e-05
4.4338048e-05
4.43286e-05
4.4322593e-05
4.4320529e-05
4.4322701e-05
4.4329086e-05
4.4339339e-05
4.4352798e-05
4.4368562e-05
4.4385753e-05
4.4403481e-05
4.4421057e-05
4.4437916e-05
4.4453692e-05
4.4468147e-05
4.4481179e-05
4.4492768e-05
4.4502959e-05
4.4511835e-05
4.4519499e-05
4.4526056e-05
4.4531606e-05
4.4535695e-05
4.4488875e-05
4.4485692e-05
4.4482923e-05
4.4479422e-05
4.447532e-05
4.4470443e-05
4.4464714e-05
4.4458029e-05
4.4450308e-05
4.4441479e-05
4.4431503e-05
4.4420386e-05
4.4408202e-05
4.4395109e-05
4.4381363e-05
4.4367369e-05
4.4353602e-05
4.4340663e-05
4.432921e-05
4.4319906e-05
4.4313376e-05
4.4310181e-05
4.4310767e-05
4.4315464e-05
4.4324411e-05
4.4337556e-05
4.4327663e-05
4.4315233e-05
4.4306671e-05
4.4302665e-05
4.4303667e-05
4.4309717e-05
4.4320444e-05
4.4335041e-05
4.4352368e-05
4.4371367e-05
4.4390942e-05
4.4410301e-05
4.4428786e-05
4.4446006e-05
4.4461712e-05
4.4475818e-05
4.4488323e-05
4.4499303e-05
4.4508867e-05
4.4517148e-05
4.4524277e-05
4.4530384e-05
4.453504e-05
4.4485383e-05
4.4482522e-05
4.4479962e-05
4.4476529e-05
4.4472399e-05
4.4467394e-05
4.446144e-05
4.445442e-05
4.4446243e-05
4.443682e-05
4.4426097e-05
4.4414065e-05
4.4400791e-05
4.4386439e-05
4.4371289e-05
4.4355799e-05
4.4340518e-05
4.4326158e-05
4.4313488e-05
4.4303286e-05
4.4296274e-05
4.4293104e-05
4.4294283e-05
4.43002e-05
4.4311014e-05
4.4326667e-05
4.4315187e-05
4.4299512e-05
4.4288188e-05
4.4282129e-05
4.4281997e-05
4.4287914e-05
4.4299481e-05
4.4315699e-05
4.4335079e-05
4.435635e-05
4.4378149e-05
4.4399578e-05
4.4419882e-05
4.4438658e-05
4.4455663e-05
4.4470842e-05
4.4484232e-05
4.449595e-05
4.4506143e-05
4.4514981e-05
4.4522628e-05
4.4529248e-05
4.453444e-05
4.4481428e-05
4.4478513e-05
4.4475968e-05
4.4472557e-05
4.4468433e-05
4.4463392e-05
4.4457342e-05
4.4450147e-05
4.4441693e-05
4.4431865e-05
4.4420578e-05
4.4407795e-05
4.4393558e-05
4.4378017e-05
4.4361464e-05
4.4344399e-05
4.4327453e-05
4.4311466e-05
4.429734e-05
4.4285991e-05
4.4278258e-05
4.4274896e-05
4.4276486e-05
4.4283499e-05
4.4296127e-05
4.4314325e-05
4.4301654e-05
4.4282152e-05
4.4267567e-05
4.425911e-05
4.4257727e-05
4.4263647e-05
4.4276433e-05
4.4294823e-05
4.4316809e-05
4.4340878e-05
4.4365308e-05
4.4389108e-05
4.4411417e-05
4.4431851e-05
4.4450185e-05
4.4466422e-05
4.4480651e-05
4.4493043e-05
4.4503793e-05
4.4513112e-05
4.4521203e-05
4.452826e-05
4.4533914e-05
4.4478035e-05
4.4475595e-05
4.4473401e-05
4.4470179e-05
4.4466145e-05
4.4461092e-05
4.4454928e-05
4.4447498e-05
4.4438665e-05
4.4428283e-05
4.4416232e-05
4.4402439e-05
4.4386913e-05
4.4369789e-05
4.4351368e-05
4.4332203e-05
4.4313021e-05
4.4294836e-05
4.427871e-05
4.4265733e-05
4.4256876e-05
4.4253022e-05
4.4254833e-05
4.42629e-05
4.4277462e-05
4.4298506e-05
4.4285482e-05
4.4261742e-05
4.4243534e-05
4.423243e-05
4.422978e-05
4.4235968e-05
4.4250543e-05
4.4271899e-05
4.4297244e-05
4.432481e-05
4.4352387e-05
4.437893e-05
4.4403462e-05
4.4425661e-05
4.4445347e-05
4.4462609e-05
4.4477611e-05
4.4490594e-05
4.4501813e-05
4.4511527e-05
4.4519982e-05
4.4527405e-05
4.4533456e-05
4.4474082e-05
4.4471531e-05
4.4469334e-05
4.4466162e-05
4.4462185e-05
4.4457167e-05
4.4450995e-05
4.4443487e-05
4.4434478e-05
4.4423781e-05
4.4411228e-05
4.4396689e-05
4.4380117e-05
4.4361597e-05
4.4341409e-05
4.4320139e-05
4.4298599e-05
4.4278021e-05
4.4259653e-05
4.4244798e-05
4.4234572e-05
4.4230009e-05
4.4231846e-05
4.4240835e-05
4.4257266e-05
4.428117e-05
4.4268557e-05
4.4239631e-05
4.4216929e-05
4.4202512e-05
4.4198318e-05
4.4204933e-05
4.4221915e-05
4.42472e-05
4.4276756e-05
4.4308599e-05
4.433985e-05
4.4369485e-05
4.439641e-05
4.4420426e-05
4.444143e-05
4.4459637e-05
4.4475304e-05
4.4488761e-05
4.450033e-05
4.4510327e-05
4.4519037e-05
4.4526727e-05
4.4533082e-05
4.4471021e-05
4.4469123e-05
4.446744e-05
4.4464609e-05
4.4460885e-05
4.4456029e-05
4.4449923e-05
4.4442363e-05
4.4433144e-05
4.442203e-05
4.4408788e-05
4.4393217e-05
4.4375192e-05
4.4354737e-05
4.4332104e-05
4.4307922e-05
4.4283114e-05
4.4259225e-05
4.4237744e-05
4.4220247e-05
4.4208006e-05
4.4202235e-05
4.4203717e-05
4.4213456e-05
4.4231814e-05
4.4258903e-05
4.4248216e-05
4.4213486e-05
4.4185686e-05
4.4167446e-05
4.416157e-05
4.4168954e-05
4.4189275e-05
4.4219919e-05
4.4254859e-05
4.4292048e-05
4.4327655e-05
4.4360829e-05
4.439035e-05
4.4416242e-05
4.443852e-05
4.4457572e-05
4.4473776e-05
4.4487572e-05
4.449936e-05
4.4509516e-05
4.4518372e-05
4.4526228e-05
4.4532794e-05
4.4467308e-05
4.4465234e-05
4.4463516e-05
4.4460748e-05
4.4457117e-05
4.4452356e-05
4.4446324e-05
4.4438789e-05
4.4429512e-05
4.4418206e-05
4.4404572e-05
4.438832e-05
4.436922e-05
4.4347182e-05
4.4322372e-05
4.4295412e-05
4.4267283e-05
4.4239944e-05
4.4215154e-05
4.419482e-05
4.4180366e-05
4.4173227e-05
4.4174176e-05
4.4184581e-05
4.4204839e-05
4.42351e-05
4.4227811e-05
4.4185765e-05
4.4151335e-05
4.4127964e-05
4.41198e-05
4.4128126e-05
4.4152875e-05
4.4190759e-05
4.4232421e-05
4.4276131e-05
4.4316712e-05
4.4353756e-05
4.4385931e-05
4.4413618e-05
4.4437004e-05
4.4456703e-05
4.4473243e-05
4.4487187e-05
4.4499019e-05
4.4509179e-05
4.4518041e-05
4.4525939e-05
4.4532606e-05
4.4464785e-05
4.4463531e-05
4.4462492e-05
4.4460245e-05
4.4457076e-05
4.4452721e-05
4.4447036e-05
4.4439759e-05
4.4430602e-05
4.4419202e-05
4.4405159e-05
4.438805e-05
4.4367493e-05
4.4343241e-05
4.4315329e-05
4.4284388e-05
4.4251452e-05
4.4219162e-05
4.4189643e-05
4.4165261e-05
4.4147572e-05
4.413827e-05
4.4137956e-05
4.4148562e-05
4.4170538e-05
4.4204128e-05
4.4202907e-05
4.4152615e-05
4.4110585e-05
4.4081059e-05
4.4070174e-05
4.4079786e-05
4.4110517e-05
4.4158478e-05
4.4208674e-05
4.4260534e-05
4.4306914e-05
4.4348287e-05
4.4383219e-05
4.4412632e-05
4.4436952e-05
4.4457089e-05
4.4473747e-05
4.4487634e-05
4.4499327e-05
4.4509328e-05
4.4518055e-05
4.4525869e-05
4.4532524e-05
4.4461617e-05
4.4460151e-05
4.4459052e-05
4.4456878e-05
4.445383e-05
4.4449619e-05
4.4444079e-05
4.4436924e-05
4.4427833e-05
4.441639e-05
4.4402112e-05
4.4384457e-05
4.4362878e-05
4.4336918e-05
4.4306391e-05
4.4271829e-05
4.4234121e-05
4.4196874e-05
4.4162578e-05
4.4134156e-05
4.4113193e-05
4.4101737e-05
4.4099973e-05
4.4110834e-05
4.4134741e-05
4.4171771e-05
4.4179489e-05
4.4118626e-05
4.4066238e-05
4.4027832e-05
4.4012855e-05
4.4023836e-05
4.4062572e-05
4.4124776e-05
4.4185588e-05
4.4247326e-05
4.4300044e-05
4.4345856e-05
4.4383288e-05
4.4414054e-05
4.4438899e-05
4.4459091e-05
4.4475531e-05
4.4489077e-05
4.4500391e-05
4.4510034e-05
4.4518457e-05
4.4526043e-05
4.4532557e-05
4.4459759e-05
4.4459203e-05
4.4458908e-05
4.4457429e-05
4.4455077e-05
4.4451579e-05
4.4446773e-05
4.444035e-05
4.4431935e-05
4.4421025e-05
4.4406994e-05
4.4389091e-05
4.4366486e-05
4.4338372e-05
4.430419e-05
4.4264331e-05
4.421937e-05
4.4174638e-05
4.413319e-05
4.4098787e-05
4.407295e-05
4.4058239e-05
4.4053767e-05
4.4063984e-05
4.4089133e-05
4.4129028e-05
4.4150136e-05
4.407718e-05
4.4012942e-05
4.3963651e-05
4.3943526e-05
4.3955861e-05
4.4005082e-05
4.4087791e-05
4.4161845e-05
4.4235822e-05
4.4295673e-05
4.4346212e-05
4.4385986e-05
4.4417793e-05
4.4442791e-05
4.4462677e-05
4.4478576e-05
4.4491502e-05
4.4502205e-05
4.4511295e-05
4.4519248e-05
4.4526463e-05
4.453271e-05
4.4457574e-05
4.4456855e-05
4.4456527e-05
4.445516e-05
4.4452976e-05
4.4449683e-05
4.4445102e-05
4.4438904e-05
4.4430689e-05
4.44199e-05
4.4405829e-05
4.438758e-05
4.4364101e-05
4.4334248e-05
4.4296992e-05
4.4252465e-05
4.4200232e-05
4.414824e-05
4.41e-05
4.4060256e-05
4.4029986e-05
4.4012466e-05
4.4004737e-05
4.4014371e-05
4.4041597e-05
4.408527e-05
4.4125592e-05
4.4037487e-05
4.3956428e-05
4.3890056e-05
4.3861377e-05
4.3874519e-05
4.3938069e-05
4.4051716e-05
4.4142119e-05
4.4230528e-05
4.4297416e-05
4.4352013e-05
4.4393143e-05
4.4425045e-05
4.4449382e-05
4.4468306e-05
4.4483155e-05
4.4495071e-05
4.4504862e-05
4.4513163e-05
4.4520459e-05
4.4527146e-05
4.4532989e-05
4.4456323e-05
4.4456448e-05
4.4456938e-05
4.4456373e-05
4.4455082e-05
4.4452806e-05
4.4449394e-05
4.4444524e-05
4.4437775e-05
4.4428528e-05
4.4415934e-05
4.4398833e-05
4.4375731e-05
4.4344803e-05
4.4304045e-05
4.4253031e-05
4.4189287e-05
4.4125664e-05
4.4066518e-05
4.4018184e-05
4.3980766e-05
4.3959159e-05
4.3946252e-05
4.3954372e-05
4.3982859e-05
4.4027841e-05
4.408296e-05
4.3987152e-05
4.3886923e-05
4.3799797e-05
4.3760746e-05
4.3773079e-05
4.385416e-05
4.4013996e-05
4.4123774e-05
4.4229368e-05
4.4303578e-05
4.4361957e-05
4.4403833e-05
4.4435168e-05
4.4458246e-05
4.4475701e-05
4.4489092e-05
4.4499672e-05
4.4508293e-05
4.4515599e-05
4.4522068e-05
4.4528082e-05
4.4533393e-05
4.4456415e-05
4.4456561e-05
4.4457158e-05
4.4456824e-05
4.4455825e-05
4.4453897e-05
4.4450874e-05
4.4446424e-05
4.44401e-05
4.4431237e-05
4.4418897e-05
4.4401758e-05
4.4378049e-05
4.4345471e-05
4.4301128e-05
4.4244246e-05
4.4168033e-05
4.4093193e-05
4.4024461e-05
4.3970077e-05
4.3927648e-05
4.3904222e-05
4.3883948e-05
4.3889204e-05
4.3919996e-05
4.3969473e-05
4.4031831e-05
4.3947318e-05
4.3820193e-05
4.3697016e-05
4.3637475e-05
4.3645057e-05
4.3750508e-05
4.3985408e-05
4.4118932e-05
4.4242677e-05
4.4321904e-05
4.4381199e-05
4.4421311e-05
4.445009e-05
4.4470482e-05
4.448546e-05
4.4496697e-05
4.4505458e-05
4.4512569e-05
4.4518633e-05
4.4524087e-05
4.4529275e-05
4.4533922e-05
4.4458462e-05
4.4459169e-05
4.4460429e-05
4.4460862e-05
4.4460822e-05
4.4460091e-05
4.4458572e-05
4.4455998e-05
4.4451997e-05
4.4445956e-05
4.4436937e-05
4.4423477e-05
4.4403371e-05
4.4373339e-05
4.4328288e-05
4.4265865e-05
4.4169992e-05
4.4076382e-05
4.3991213e-05
4.3925347e-05
4.3872331e-05
4.3845285e-05
4.3814239e-05
4.381789e-05
4.3855618e-05
4.3906044e-05
4.3953518e-05
4.3896143e-05
4.3735639e-05
4.3569631e-05
4.3490029e-05
4.3485738e-05
4.3614525e-05
4.3963065e-05
4.41204e-05
4.4262707e-05
4.4346112e-05
4.4405054e-05
4.4442444e-05
4.446778e-05
4.4484825e-05
4.4496802e-05
4.4505494e-05
4.4512139e-05
4.4517515e-05
4.4522161e-05
4.4526457e-05
4.4530697e-05
4.4534568e-05
4.4475218e-05
4.4476309e-05
4.4477997e-05
4.4478943e-05
4.4479511e-05
4.4479497e-05
4.4478814e-05
4.4477201e-05
4.4474275e-05
4.4469389e-05
4.4461514e-05
4.444899e-05
4.4429217e-05
4.4398272e-05
4.4349288e-05
4.4280474e-05
4.4159492e-05
4.4047218e-05
4.3948921e-05
4.3879333e-05
4.3823701e-05
4.380524e-05
4.3758051e-05
4.3753965e-05
4.3793527e-05
4.3847056e-05
4.3890675e-05
4.3893292e-05
4.3697478e-05
4.3452706e-05
4.3316787e-05
4.3277582e-05
4.3434236e-05
4.3976974e-05
4.4164484e-05
4.431557e-05
4.439412e-05
4.4444189e-05
4.4473309e-05
4.4491496e-05
4.4502946e-05
4.451054e-05
4.4515853e-05
4.4519864e-05
4.4523178e-05
4.4526187e-05
4.4529168e-05
4.4532337e-05
4.4535322e-05
4.4507641e-05
4.4508837e-05
4.4510897e-05
4.4512443e-05
4.451387e-05
4.4515029e-05
4.4515928e-05
4.4516445e-05
4.4516399e-05
4.4515417e-05
4.4512833e-05
4.4507418e-05
4.4496889e-05
4.4477304e-05
4.4438515e-05
4.4375956e-05
4.4218383e-05
4.4074033e-05
4.3953651e-05
4.3873787e-05
4.3803752e-05
4.3785647e-05
4.3709662e-05
4.3700192e-05
4.3778322e-05
4.3858762e-05
4.384128e-05
4.3866495e-05
4.3642381e-05
4.329887e-05
4.3146027e-05
4.307008e-05
4.32193e-05
4.4027418e-05
4.4218193e-05
4.4368667e-05
4.4443564e-05
4.4484122e-05
4.4505352e-05
4.4516252e-05
4.4522007e-05
4.4525055e-05
4.4526846e-05
4.4528099e-05
4.4529246e-05
4.4530531e-05
4.453212e-05
4.4534143e-05
4.4536167e-05
4.4556122e-05
4.4558067e-05
4.4560885e-05
4.4563247e-05
4.4565656e-05
4.4568011e-05
4.4570384e-05
4.4572715e-05
4.4574892e-05
4.4576605e-05
4.4577199e-05
4.4575326e-05
4.4568095e-05
4.4550586e-05
4.4507687e-05
4.4439181e-05
4.4216067e-05
4.4033342e-05
4.3890435e-05
4.3810932e-05
4.3734692e-05
4.3772102e-05
3.5423406e-05
3.5319365e-05
3.5249749e-05
3.5166593e-05
3.4926846e-05
3.4833609e-05
3.4771494e-05
3.4969777e-05
3.5247408e-05
3.5743386e-05
4.2975637e-05
4.4228436e-05
4.4417231e-05
4.4501795e-05
4.4539175e-05
4.4548259e-05
4.4550021e-05
4.4547606e-05
4.4544558e-05
4.454148e-05
4.4538931e-05
4.4537e-05
4.4535749e-05
4.4535175e-05
4.4535284e-05
4.453609e-05
4.4537087e-05
4.4651004e-05
4.4652099e-05
4.4654596e-05
4.4656946e-05
4.4659585e-05
4.4662452e-05
4.4665692e-05
4.4669392e-05
4.4673676e-05
4.4678633e-05
4.4684293e-05
4.4690569e-05
4.4696605e-05
4.4702904e-05
4.4698413e-05
4.4690195e-05
3.6027247e-05
3.6061244e-05
3.60368e-05
3.6209856e-05
3.6736997e-05
3.9777119e-05
4.805294e-05
4.9995665e-05
4.9995665e-05
4.9995665e-05
4.9995665e-05
4.9995665e-05
4.9981394e-05
4.9482815e-05
4.9229245e-05
4.9055632e-05
3.4930168e-05
4.4626179e-05
4.4501876e-05
4.4560012e-05
4.4607875e-05
4.459805e-05
4.4588261e-05
4.4575752e-05
4.4565582e-05
4.455718e-05
4.45507e-05
4.4545793e-05
4.4542252e-05
4.4539873e-05
4.4538521e-05
4.4538109e-05
4.4538054e-05
4.6098607e-05
4.610652e-05
4.6117343e-05
4.6128446e-05
4.6140952e-05
4.6155083e-05
4.6171582e-05
4.6191291e-05
4.6215453e-05
4.624583e-05
4.6285079e-05
4.6337352e-05
4.6409298e-05
4.6513083e-05
4.6665101e-05
3.5716684e-05
4.8511451e-05
4.9995665e-05
4.9995665e-05
4.9995665e-05
4.9995665e-05
4.9995665e-05
4.9995665e-05
4.9995665e-05
4.9995665e-05
4.9995665e-05
4.9995665e-05
4.9995665e-05
4.9995665e-05
4.9995665e-05
4.9995665e-05
4.9995665e-05
4.7255652e-05
3.0984526e-05
4.5063929e-05
4.4849437e-05
4.4746378e-05
4.4680655e-05
4.4638371e-05
4.4608881e-05
4.4588456e-05
4.4573575e-05
4.4562691e-05
4.455465e-05
4.4548777e-05
4.4544594e-05
4.4541792e-05
4.4540164e-05
4.4539049e-05
4.4668404e-05
4.4669518e-05
4.4672035e-05
4.4674434e-05
4.467714e-05
4.46801e-05
4.468346e-05
4.4687313e-05
4.4691789e-05
4.4696984e-05
4.4702941e-05
4.4709596e-05
4.4716127e-05
4.4723137e-05
4.4719833e-05
4.4713631e-05
3.6057906e-05
3.6092153e-05
3.6069673e-05
3.6241874e-05
3.6772312e-05
3.9805559e-05
4.8059823e-05
4.9995665e-05
4.9995665e-05
4.9995665e-05
4.9995665e-05
4.9995665e-05
4.997889e-05
4.9485473e-05
4.9234342e-05
4.9066929e-05
3.4914591e-05
4.4502676e-05
4.4962239e-05
4.4812315e-05
4.4726045e-05
4.4673881e-05
4.4636337e-05
4.460968e-05
4.45903e-05
4.457587e-05
4.4565017e-05
4.4556825e-05
4.4550683e-05
4.454617e-05
4.4542999e-05
4.454098e-05
4.453946e-05
4.4572768e-05
4.4574765e-05
4.4577633e-05
4.4580072e-05
4.4582576e-05
4.4585053e-05
4.4587574e-05
4.4590087e-05
4.4592485e-05
4.4594463e-05
4.4595375e-05
4.4593882e-05
4.4587106e-05
4.4570129e-05
4.4527824e-05
4.4460256e-05
4.4235972e-05
4.405283e-05
4.3909746e-05
4.3829201e-05
4.3752656e-05
4.378849e-05
3.544471e-05
3.5338473e-05
3.5267104e-05
3.5181819e-05
3.4942842e-05
3.4847431e-05
3.4782716e-05
3.4980344e-05
3.5260056e-05
3.5727925e-05
4.2876243e-05
4.4076958e-05
4.455777e-05
4.4609425e-05
4.4624463e-05
4.4611276e-05
4.4596726e-05
4.4583266e-05
4.4572088e-05
4.4563119e-05
4.4556003e-05
4.4550457e-05
4.4546216e-05
4.4543097e-05
4.454097e-05
4.4539756e-05
4.4538881e-05
4.4521076e-05
4.4522338e-05
4.4524473e-05
4.452612e-05
4.4527671e-05
4.4528981e-05
4.4530065e-05
4.4530805e-05
4.4531027e-05
4.4530369e-05
4.4528177e-05
4.4523239e-05
4.451329e-05
4.4494402e-05
4.4456381e-05
4.4394695e-05
4.4236574e-05
4.4092268e-05
4.3972245e-05
4.3892558e-05
4.3823163e-05
4.3805405e-05
4.3729844e-05
4.3721296e-05
4.3799047e-05
4.3879679e-05
4.3864042e-05
4.387919e-05
4.3640795e-05
4.3291072e-05
4.3125537e-05
4.3030789e-05
4.3120054e-05
4.3952485e-05
4.4343099e-05
4.4464897e-05
4.4524158e-05
4.4543965e-05
4.4550814e-05
4.4551161e-05
4.4549196e-05
4.454648e-05
4.454378e-05
4.4541441e-05
4.4539609e-05
4.4538354e-05
4.4537717e-05
4.4537736e-05
4.4537917e-05
4.447952e-05
4.4480674e-05
4.448243e-05
4.4483466e-05
4.4484142e-05
4.4484258e-05
4.448373e-05
4.4482299e-05
4.4479588e-05
4.4474954e-05
4.4467371e-05
4.4455186e-05
4.4435802e-05
4.4405296e-05
4.4356772e-05
4.42885e-05
4.416741e-05
4.4055241e-05
4.3957079e-05
4.3887489e-05
4.3832061e-05
4.381355e-05
4.3766358e-05
4.3762804e-05
4.3802845e-05
4.3857643e-05
4.3903557e-05
4.388603e-05
4.368693e-05
4.3437953e-05
4.3294308e-05
4.3243697e-05
4.3367539e-05
4.3921226e-05
4.4218934e-05
4.4368341e-05
4.4450376e-05
4.4490906e-05
4.4512274e-05
4.4522933e-05
4.4528315e-05
4.4530915e-05
4.4532153e-05
4.4532784e-05
4.453324e-05
4.4533786e-05
4.4534596e-05
4.4535812e-05
4.4537007e-05
4.4458322e-05
4.4459088e-05
4.4460415e-05
4.4460936e-05
4.4461e-05
4.4460395e-05
4.4459024e-05
4.4456622e-05
4.4452819e-05
4.4447005e-05
4.4438243e-05
4.442507e-05
4.4405274e-05
4.4375561e-05
4.4330791e-05
4.4268609e-05
4.4172564e-05
4.4078899e-05
4.3993698e-05
4.3927769e-05
4.3874842e-05
4.384783e-05
4.3816914e-05
4.3820896e-05
4.3858862e-05
4.3910132e-05
4.3959315e-05
4.388069e-05
4.3716452e-05
4.3545759e-05
4.3459698e-05
4.3449345e-05
4.3566931e-05
4.3935474e-05
4.416129e-05
4.4305703e-05
4.4393618e-05
4.4445822e-05
4.4477471e-05
4.4496605e-05
4.4508484e-05
4.4516015e-05
4.4520992e-05
4.4524483e-05
4.4527156e-05
4.4529446e-05
4.4531657e-05
4.4534018e-05
4.4536172e-05
4.4454034e-05
4.4454246e-05
4.4454914e-05
4.4454669e-05
4.4453774e-05
4.4451967e-05
4.4449086e-05
4.4444797e-05
4.4438658e-05
4.4430003e-05
4.4417895e-05
4.4401011e-05
4.4377578e-05
4.4345285e-05
4.4301211e-05
4.4244573e-05
4.4168379e-05
4.409359e-05
4.4024892e-05
4.397053e-05
4.3928226e-05
4.3904949e-05
4.3885009e-05
4.3890924e-05
4.3922599e-05
4.3973521e-05
4.4038e-05
4.39324e-05
4.3802525e-05
4.3676146e-05
4.3612586e-05
4.3616692e-05
4.3717043e-05
4.3965424e-05
4.4139393e-05
4.4269566e-05
4.4355924e-05
4.4412997e-05
4.4450413e-05
4.4475094e-05
4.449166e-05
4.4503025e-05
4.4511075e-05
4.4517017e-05
4.4521649e-05
4.4525514e-05
4.4529002e-05
4.4532411e-05
4.4535431e-05
4.4452815e-05
4.4453004e-05
4.4453563e-05
4.4453086e-05
4.4451897e-05
4.4449741e-05
4.4446465e-05
4.4441749e-05
4.4435173e-05
4.4426118e-05
4.4413731e-05
4.439685e-05
4.4373975e-05
4.4343266e-05
4.4302697e-05
4.4251836e-05
4.4188112e-05
4.4124529e-05
4.4065422e-05
4.4017143e-05
4.3979861e-05
4.3958433e-05
4.3945841e-05
4.3954489e-05
4.3983727e-05
4.4029964e-05
4.4077663e-05
4.3970446e-05
4.386805e-05
4.3778749e-05
4.3737727e-05
4.3749661e-05
4.3831419e-05
4.4003423e-05
4.4138885e-05
4.4250848e-05
4.4331118e-05
4.4388646e-05
4.44289e-05
4.4457204e-05
4.4477254e-05
4.449169e-05
4.4502319e-05
4.4510386e-05
4.4516752e-05
4.4522028e-05
4.4526664e-05
4.453101e-05
4.4534798e-05
4.4453419e-05
4.4452775e-05
4.4452526e-05
4.4451254e-05
4.4449178e-05
4.4446009e-05
4.4441568e-05
4.4435529e-05
4.4427489e-05
4.4416896e-05
4.4403037e-05
4.4385016e-05
4.4361776e-05
4.4332163e-05
4.4295135e-05
4.4250814e-05
4.4198716e-05
4.4146868e-05
4.4098781e-05
4.4059227e-05
4.4029235e-05
4.401209e-05
4.4004913e-05
4.4015339e-05
4.4043619e-05
4.4088754e-05
4.4112639e-05
4.4022923e-05
4.3940188e-05
4.3872227e-05
4.3842312e-05
4.3855557e-05
4.3920736e-05
4.4043298e-05
4.4150257e-05
4.4245033e-05
4.431766e-05
4.4372967e-05
4.4413723e-05
4.4443785e-05
4.4465973e-05
4.4482537e-05
4.4495099e-05
4.4504845e-05
4.4512632e-05
4.4519092e-05
4.4524705e-05
4.4529851e-05
4.4534284e-05
4.4454895e-05
4.445441e-05
4.445419e-05
4.4452803e-05
4.4450556e-05
4.4447178e-05
4.4442505e-05
4.443623e-05
4.442798e-05
4.4417247e-05
4.4403406e-05
4.4385703e-05
4.4363303e-05
4.4335392e-05
4.4301401e-05
4.4261718e-05
4.4216897e-05
4.4172317e-05
4.4131037e-05
4.4096844e-05
4.4071293e-05
4.405696e-05
4.405302e-05
4.4063983e-05
4.409015e-05
4.4131462e-05
4.413679e-05
4.4062694e-05
4.3997428e-05
4.3947405e-05
4.3927161e-05
4.3940709e-05
4.3992709e-05
4.4082654e-05
4.4167898e-05
4.4247318e-05
4.4311823e-05
4.4363471e-05
4.440331e-05
4.4433914e-05
4.4457308e-05
4.4475307e-05
4.4489294e-05
4.4500346e-05
4.4509278e-05
4.4516712e-05
4.4523135e-05
4.4528939e-05
4.4533892e-05
4.44563e-05
4.4454918e-05
4.4453905e-05
4.4451831e-05
4.4448894e-05
4.4444809e-05
4.4439409e-05
4.4432409e-05
4.4423487e-05
4.4412229e-05
4.4398151e-05
4.4380707e-05
4.4359348e-05
4.4333612e-05
4.4303308e-05
4.4268964e-05
4.423146e-05
4.4194434e-05
4.4160389e-05
4.4132269e-05
4.4111693e-05
4.410073e-05
4.4099614e-05
4.4111316e-05
4.4136295e-05
4.41747e-05
4.4167351e-05
4.410557e-05
4.4052405e-05
4.4013544e-05
4.3998713e-05
4.4010973e-05
4.405239e-05
4.412019e-05
4.4188885e-05
4.4255394e-05
4.4312146e-05
4.435948e-05
4.4397435e-05
4.44276e-05
4.4451362e-05
4.4470121e-05
4.4485014e-05
4.4496979e-05
4.4506754e-05
4.451493e-05
4.4521978e-05
4.4528287e-05
4.4533626e-05
4.4458885e-05
4.4457708e-05
4.4456749e-05
4.4454598e-05
4.4451536e-05
4.4447301e-05
4.4441749e-05
4.4434617e-05
4.4425618e-05
4.4414389e-05
4.4400529e-05
4.4383612e-05
4.4363255e-05
4.4339207e-05
4.4311503e-05
4.4280771e-05
4.4248044e-05
4.4215985e-05
4.418673e-05
4.4162667e-05
4.4145377e-05
4.4136581e-05
4.4136919e-05
4.4148368e-05
4.417142e-05
4.4206379e-05
4.4191106e-05
4.4140283e-05
4.4097918e-05
4.4068419e-05
4.4058147e-05
4.4069309e-05
4.4102698e-05
4.415514e-05
4.4211054e-05
4.4266851e-05
4.4316508e-05
4.4359393e-05
4.4394972e-05
4.4424103e-05
4.4447669e-05
4.44667e-05
4.4482096e-05
4.4494649e-05
4.450501e-05
4.4513718e-05
4.4521218e-05
4.4527886e-05
4.4533482e-05
4.4461021e-05
4.4459038e-05
4.4457412e-05
4.4454747e-05
4.4451229e-05
4.4446594e-05
4.4440699e-05
4.4433314e-05
4.4424201e-05
4.4413071e-05
4.4399627e-05
4.4383574e-05
4.4364684e-05
4.4342865e-05
4.431828e-05
4.4291554e-05
4.4263669e-05
4.4236601e-05
4.4212119e-05
4.419215e-05
4.417814e-05
4.4171545e-05
4.4173169e-05
4.4184407e-05
4.4205686e-05
4.4237192e-05
4.421681e-05
4.4174379e-05
4.4139775e-05
4.4116579e-05
4.4109121e-05
4.4118931e-05
4.4146064e-05
4.4187552e-05
4.4233558e-05
4.4280608e-05
4.4323978e-05
4.4362547e-05
4.4395498e-05
4.4423179e-05
4.4446098e-05
4.446498e-05
4.4480516e-05
4.4493351e-05
4.4504045e-05
4.4513078e-05
4.4520858e-05
4.4527736e-05
4.4533458e-05
4.4464263e-05
4.4462448e-05
4.446085e-05
4.4458118e-05
4.4454503e-05
4.4449767e-05
4.4443792e-05
4.4436375e-05
4.4427311e-05
4.4416363e-05
4.4403299e-05
4.4387917e-05
4.4370092e-05
4.4349846e-05
4.4327433e-05
4.4303485e-05
4.4278928e-05
4.425532e-05
4.4234162e-05
4.4217047e-05
4.4205265e-05
4.4200054e-05
4.4202225e-05
4.4212804e-05
4.4232182e-05
4.4260492e-05
4.4237851e-05
4.4202988e-05
4.4175263e-05
4.4157416e-05
4.415239e-05
4.4161233e-05
4.4183688e-05
4.4217257e-05
4.4255544e-05
4.4295479e-05
4.4333383e-05
4.4367944e-05
4.4398233e-05
4.4424254e-05
4.4446244e-05
4.4464685e-05
4.4480084e-05
4.4492959e-05
4.4503776e-05
4.4512955e-05
4.452086e-05
4.4527815e-05
4.4533545e-05
4.4467e-05
4.4464544e-05
4.4462443e-05
4.4459376e-05
4.4455513e-05
4.445062e-05
4.4444582e-05
4.443722e-05
4.4428368e-05
4.4417839e-05
4.4405467e-05
4.439112e-05
4.4374752e-05
4.4356447e-05
4.4336488e-05
4.4315461e-05
4.4294187e-05
4.4273905e-05
4.4255874e-05
4.4241413e-05
4.4231652e-05
4.4227644e-05
4.4230144e-05
4.4239923e-05
4.425729e-05
4.428229e-05
4.4258801e-05
4.4229849e-05
4.4207324e-05
4.4193377e-05
4.4190048e-05
4.4198022e-05
4.4216886e-05
4.4244596e-05
4.4276837e-05
4.4310999e-05
4.4344204e-05
4.4375124e-05
4.4402813e-05
4.4427066e-05
4.444793e-05
4.4465698e-05
4.4480731e-05
4.449343e-05
4.4504179e-05
4.4513335e-05
4.4521218e-05
4.4528118e-05
4.4533738e-05
4.4470579e-05
4.4468226e-05
4.4466121e-05
4.4463e-05
4.4459076e-05
4.4454143e-05
4.4448109e-05
4.4440819e-05
4.4432137e-05
4.4421917e-05
4.441004e-05
4.4396433e-05
4.4381105e-05
4.4364193e-05
4.4346e-05
4.4327083e-05
4.4308173e-05
4.4290293e-05
4.4274515e-05
4.4261945e-05
4.4253565e-05
4.4250275e-05
4.4252753e-05
4.4261605e-05
4.4277081e-05
4.4299176e-05
4.4276432e-05
4.4252811e-05
4.4234905e-05
4.4224352e-05
4.4222575e-05
4.4230019e-05
4.4246237e-05
4.42696e-05
4.4297104e-05
4.4326592e-05
4.4355799e-05
4.4383474e-05
4.4408713e-05
4.4431187e-05
4.445082e-05
4.4467763e-05
4.4482263e-05
4.4494621e-05
4.4505147e-05
4.451414e-05
4.4521878e-05
4.4528614e-05
4.4534025e-05
4.4473703e-05
4.4470886e-05
4.4468439e-05
4.4465136e-05
4.4461124e-05
4.4456205e-05
4.4450287e-05
4.4443233e-05
4.443493e-05
4.4425263e-05
4.4414149e-05
4.4401551e-05
4.438751e-05
4.4372181e-05
4.4355855e-05
4.4339037e-05
4.4322363e-05
4.4306681e-05
4.42929e-05
4.4281949e-05
4.4274677e-05
4.4271852e-05
4.4274069e-05
4.4281808e-05
4.4295271e-05
4.4314416e-05
4.4293137e-05
4.4273832e-05
4.4259611e-05
4.4251739e-05
4.4251209e-05
4.4258285e-05
4.4272521e-05
4.4292612e-05
4.4316391e-05
4.434209e-05
4.436791e-05
4.4392719e-05
4.4415684e-05
4.4436418e-05
4.4454765e-05
4.4470778e-05
4.4484613e-05
4.4496492e-05
4.450666e-05
4.4515364e-05
4.4522838e-05
4.4529301e-05
4.4534403e-05
4.4477364e-05
4.4474592e-05
4.4472126e-05
4.4468796e-05
4.4464775e-05
4.445989e-05
4.4454063e-05
4.444718e-05
4.4439149e-05
4.4429884e-05
4.4419329e-05
4.4407478e-05
4.4394398e-05
4.4380256e-05
4.4365334e-05
4.4350092e-05
4.4335088e-05
4.4321037e-05
4.4308718e-05
4.4298918e-05
4.429237e-05
4.4289735e-05
4.4291531e-05
4.4298155e-05
4.4309767e-05
4.4325911e-05
4.4307352e-05
4.4291955e-05
4.4281051e-05
4.4275595e-05
4.4276279e-05
4.4283244e-05
4.4296076e-05
4.4313727e-05
4.4334591e-05
4.4357226e-05
4.4380193e-05
4.4402496e-05
4.4423383e-05
4.4442451e-05
4.4459501e-05
4.4474519e-05
4.4487595e-05
4.4498889e-05
4.4508593e-05
4.4516907e-05
4.4524026e-05
4.4530136e-05
4.4534856e-05
4.4480634e-05
4.4477551e-05
4.4474882e-05
4.4471486e-05
4.4467496e-05
4.4462738e-05
4.4457137e-05
4.4450587e-05
4.444301e-05
4.4434335e-05
4.4424524e-05
4.4413584e-05
4.4401589e-05
4.43887e-05
4.4375175e-05
4.4361423e-05
4.4347923e-05
4.4335283e-05
4.4324168e-05
4.4315247e-05
4.4309155e-05
4.4306462e-05
4.4307623e-05
4.4312972e-05
4.4322651e-05
4.4335554e-05
4.4320335e-05
4.4308236e-05
4.4300133e-05
4.429674e-05
4.4298526e-05
4.4305539e-05
4.4317387e-05
4.4333219e-05
4.4351802e-05
4.437196e-05
4.4392531e-05
4.4412649e-05
4.4431653e-05
4.4449148e-05
4.4464918e-05