/*--------------------------------*- C++ -*----------------------------------*\
| =========                 |                                                 |
| \\      /  F ield         | foam-extend: Open Source CFD                    |
|  \\    /   O peration     | Version:     4.1                                |
|   \\  /    A nd           | Web:         http://www.foam-extend.org         |
|    \\/     M anipulation  |                                                 |
\*---------------------------------------------------------------------------*/
FoamFile
{
    version     2.0;
    format      ascii;
    class       volVectorField;
    location    "0.09";
    object      U;
}
// * * * * * * * * * * * * * * * * * * * * * * * * * * * * * * * * * * * * * //

dimensions      [0 1 -1 0 0 0 0];

internalField   nonuniform List<vector> 
4393
(
(147.32062 -0.076933922 0)
(147.52744 -0.089375605 0)
(147.65525 -0.090903367 0)
(147.82428 -0.09494199 0)
(147.98725 -0.098478428 0)
(148.16594 -0.10276196 0)
(148.35418 -0.10745797 0)
(148.55753 -0.11267289 0)
(148.77661 -0.11831068 0)
(149.0139 -0.12430287 0)
(149.27072 -0.13051419 0)
(149.54825 -0.13676461 0)
(149.84683 -0.14280782 0)
(150.16598 -0.14833157 0)
(150.50405 -0.15295806 0)
(150.8581 -0.15625712 0)
(151.2237 -0.15776965 0)
(151.59493 -0.15704035 0)
(151.96443 -0.15366155 0)
(152.32362 -0.14730956 0)
(152.66299 -0.13778349 0)
(152.97258 -0.12502936 0)
(153.24241 -0.10916378 0)
(153.46309 -0.090481013 0)
(153.62635 -0.069462915 0)
(153.72568 -0.046762769 0)
(153.75682 -0.023182281 0)
(153.71838 0.00046078299 0)
(153.61157 0.023036004 0)
(153.44149 0.043295662 0)
(153.21635 0.060268397 0)
(152.94705 0.073222473 0)
(152.64627 0.08175748 0)
(152.32738 0.085848755 0)
(152.00326 0.085826875 0)
(151.68542 0.082253238 0)
(151.38338 0.075864869 0)
(151.10439 0.067413867 0)
(150.85345 0.057634632 0)
(150.63355 0.047151354 0)
(150.44598 0.03647986 0)
(150.29076 0.026005078 0)
(150.16694 0.01600534 0)
(150.07298 0.0066703015 0)
(150.007 -0.0018568965 0)
(149.9668 -0.0094528173 0)
(149.95002 -0.015756011 0)
(149.95723 -0.020128007 0)
(149.96526 -0.025376168 0)
(150.75867 -0.097960726 0)
(150.88458 -0.11348006 0)
(150.94819 -0.11590611 0)
(151.04533 -0.12320642 0)
(151.13781 -0.13097814 0)
(151.2452 -0.14137947 0)
(151.36226 -0.15389557 0)
(151.49431 -0.16877597 0)
(151.64213 -0.1858192 0)
(151.80822 -0.20481976 0)
(151.99397 -0.22536098 0)
(152.20063 -0.24685535 0)
(152.42866 -0.26849164 0)
(152.67765 -0.28923546 0)
(152.94606 -0.30783612 0)
(153.23099 -0.32287049 0)
(153.52805 -0.33281951 0)
(153.8313 -0.3361718 0)
(154.1333 -0.33156219 0)
(154.42531 -0.31788464 0)
(154.69768 -0.29441423 0)
(154.94021 -0.26088306 0)
(155.14269 -0.21755845 0)
(155.29546 -0.16527108 0)
(155.39002 -0.10546022 0)
(155.4196 -0.040138185 0)
(155.37982 0.028140436 0)
(155.26912 0.096482447 0)
(155.08971 0.16163651 0)
(154.84659 0.22027258 0)
(154.54807 0.26945694 0)
(154.20517 0.30696274 0)
(153.83076 0.33152175 0)
(153.43843 0.34299946 0)
(153.04123 0.34233928 0)
(152.65079 0.33117076 0)
(152.27662 0.3116624 0)
(151.92589 0.28601793 0)
(151.60353 0.25639431 0)
(151.31237 0.22461179 0)
(151.05361 0.19216598 0)
(150.82713 0.16015135 0)
(150.63193 0.12932899 0)
(150.46646 0.10016193 0)
(150.32885 0.072910532 0)
(150.21709 0.047675468 0)
(150.12925 0.024795321 0)
(150.06382 0.0050543717 0)
(150.01828 -0.016043586 0)
(150.89307 -0.18599067 0)
(151.01244 -0.19768883 0)
(151.07206 -0.20425864 0)
(151.16296 -0.21732656 0)
(151.24946 -0.23237703 0)
(151.35028 -0.25137523 0)
(151.46068 -0.27359978 0)
(151.5859 -0.2992615 0)
(151.72687 -0.32801732 0)
(151.88619 -0.35950304 0)
(152.06541 -0.39304402 0)
(152.26599 -0.42769366 0)
(152.48858 -0.46214784 0)
(152.73301 -0.49473621 0)
(152.99794 -0.52342777 0)
(153.28067 -0.54589763 0)
(153.57691 -0.55965239 0)
(153.88074 -0.56220183 0)
(154.18462 -0.55130029 0)
(154.47965 -0.52513347 0)
(154.7559 -0.48252895 0)
(155.00283 -0.42307706 0)
(155.20984 -0.34726464 0)
(155.36681 -0.25651293 0)
(155.46474 -0.15326595 0)
(155.49639 -0.040927305 0)
(155.45692 0.076165756 0)
(155.34442 0.19293404 0)
(155.16039 0.30392704 0)
(154.90995 0.40372731 0)
(154.6018 0.48735986 0)
(154.24771 0.55105518 0)
(153.86147 0.59266775 0)
(153.45769 0.61202074 0)
(153.05019 0.6108227 0)
(152.65115 0.59191212 0)
(152.27033 0.55906285 0)
(151.9149 0.51604265 0)
(151.58961 0.4665325 0)
(151.29699 0.41359957 0)
(151.03791 0.35975537 0)
(150.81193 0.30681873 0)
(150.61775 0.25604702 0)
(150.45356 0.20818971 0)
(150.31732 0.16363819 0)
(150.20692 0.12250749 0)
(150.12052 0.084917829 0)
(150.05553 0.051251133 0)
(150.01396 0.01980587 0)
(150.9131 -0.2075009 0)
(151.02319 -0.21800076 0)
(151.08167 -0.22511276 0)
(151.16897 -0.24003507 0)
(151.25322 -0.25843307 0)
(151.35145 -0.28252768 0)
(151.45957 -0.31163632 0)
(151.58262 -0.34607835 0)
(151.72172 -0.38549113 0)
(151.87957 -0.42943426 0)
(152.05795 -0.47702744 0)
(152.25852 -0.52698053 0)
(152.48222 -0.57747193 0)
(152.72917 -0.62612663 0)
(152.99828 -0.67001903 0)
(153.28703 -0.70576496 0)
(153.59122 -0.72970491 0)
(153.90482 -0.73815243 0)
(154.22006 -0.72776597 0)
(154.52759 -0.69581112 0)
(154.81694 -0.64047529 0)
(155.07691 -0.56102599 0)
(155.29617 -0.45801172 0)
(155.46384 -0.33330028 0)
(155.57015 -0.19024152 0)
(155.60709 -0.033569914 0)
(155.56921 0.13061783 0)
(155.45406 0.29516292 0)
(155.26293 0.45209762 0)
(155.00115 0.59336046 0)
(154.67812 0.71156264 0)
(154.30674 0.80110179 0)
(153.90229 0.85878333 0)
(153.48096 0.88438737 0)
(153.05779 0.88057408 0)
(152.6458 0.85155789 0)
(152.25513 0.80296465 0)
(151.8929 0.74026032 0)
(151.56356 0.66877381 0)
(151.26917 0.59285134 0)
(151.0101 0.51602598 0)
(150.7854 0.44080223 0)
(150.59336 0.36888317 0)
(150.43183 0.30124459 0)
(150.29854 0.23835514 0)
(150.19129 0.18031863 0)
(150.10831 0.12714633 0)
(150.04691 0.078908011 0)
(150.01055 0.035432707 0)
(150.94719 -0.2809208 0)
(151.05468 -0.2932955 0)
(151.11118 -0.30500008 0)
(151.19439 -0.32650369 0)
(151.2746 -0.35310833 0)
(151.36811 -0.38688333 0)
(151.47142 -0.42698905 0)
(151.58959 -0.47368191 0)
(151.72403 -0.52648239 0)
(151.8777 -0.58480541 0)
(152.05271 -0.64753421 0)
(152.25116 -0.71303124 0)
(152.47441 -0.77897653 0)
(152.72304 -0.84232188 0)
(152.99641 -0.89927945 0)
(153.29227 -0.9454277 0)
(153.60658 -0.97594986 0)
(153.93318 -0.98595484 0)
(154.26393 -0.97101632 0)
(154.58889 -0.92750279 0)
(154.8968 -0.85302142 0)
(155.17554 -0.74659746 0)
(155.41276 -0.6089598 0)
(155.59647 -0.4425501 0)
(155.71576 -0.25180066 0)
(155.76154 -0.042967804 0)
(155.72736 0.17586669 0)
(155.60998 0.39513428 0)
(155.41033 0.60419937 0)
(155.13391 0.79224454 0)
(154.79109 0.94919725 0)
(154.39641 1.0674247 0)
(153.96728 1.1425772 0)
(153.5222 1.1745086 0)
(153.07799 1.1672328 0)
(152.64879 1.1266503 0)
(152.24522 1.0606804 0)
(151.87426 0.97671844 0)
(151.53989 0.88196276 0)
(151.24348 0.78210788 0)
(150.98466 0.68173989 0)
(150.76176 0.58400813 0)
(150.57248 0.49099554 0)
(150.41418 0.4038028 0)
(150.28422 0.32284089 0)
(150.18021 0.24799533 0)
(150.10027 0.17886818 0)
(150.04168 0.11486836 0)
(150.00862 0.055318954 0)
(150.98717 -0.30562933 0)
(151.08149 -0.31672518 0)
(151.13394 -0.32802839 0)
(151.21135 -0.35004409 0)
(151.28746 -0.37852125 0)
(151.37676 -0.41579753 0)
(151.47633 -0.46121752 0)
(151.591 -0.51523056 0)
(151.72244 -0.57747463 0)
(151.87379 -0.64742471 0)
(152.0475 -0.72390393 0)
(152.24607 -0.80505947 0)
(152.47136 -0.88814478 0)
(152.72447 -0.96943248 0)
(153.00523 -1.0441751 0)
(153.3118 -1.1067208 0)
(153.64029 -1.1508235 0)
(153.9844 -1.1700455 0)
(154.33551 -1.1585477 0)
(154.68293 -1.1114759 0)
(155.0144 -1.0255759 0)
(155.31662 -0.89935577 0)
(155.57601 -0.7334796 0)
(155.77919 -0.53069121 0)
(155.91385 -0.29630155 0)
(155.96957 -0.037926698 0)
(155.93869 0.23441036 0)
(155.81704 0.50873127 0)
(155.60505 0.77123921 0)
(155.30841 1.0076689 0)
(154.93866 1.2044927 0)
(154.51253 1.3514669 0)
(154.05028 1.4427161 0)
(153.5737 1.4781944 0)
(153.10189 1.4638159 0)
(152.65048 1.4075136 0)
(152.2306 1.320096 0)
(151.84891 1.2111324 0)
(151.50874 1.0899521 0)
(151.21039 0.96363873 0)
(150.95254 0.8378461 0)
(150.73258 0.71630261 0)
(150.54742 0.60140768 0)
(150.39381 0.49432538 0)
(150.26865 0.39538547 0)
(150.16921 0.30428154 0)
(150.09341 0.22032002 0)
(150.03835 0.1425059 0)
(150.00775 0.069839358 0)
(151.04248 -0.35967235 0)
(151.13517 -0.37479756 0)
(151.18445 -0.39152948 0)
(151.25628 -0.42153132 0)
(151.32638 -0.45972828 0)
(151.40866 -0.50850427 0)
(151.50089 -0.56706108 0)
(151.6079 -0.63583201 0)
(151.73179 -0.71438499 0)
(151.87604 -0.8020961 0)
(152.04366 -0.89759542 0)
(152.23778 -0.99870945 0)
(152.46103 -1.1021865 0)
(152.71532 -1.2035614 0)
(153.00128 -1.2970736 0)
(153.31769 -1.3757746 0)
(153.661 -1.4319088 0)
(154.02481 -1.45737 0)
(154.3999 -1.4448535 0)
(154.77463 -1.3882513 0)
(155.13547 -1.2835055 0)
(155.46769 -1.1286909 0)
(155.75612 -0.92458383 0)
(155.98566 -0.67440282 0)
(156.14213 -0.38466129 0)
(156.21331 -0.064688198 0)
(156.18982 0.27316142 0)
(156.06583 0.61390818 0)
(155.84079 0.94022671 0)
(155.52039 1.2340484 0)
(155.11768 1.477787 0)
(154.65232 1.6581451 0)
(154.14851 1.767409 0)
(153.63264 1.8058029 0)
(153.12687 1.7821253 0)
(152.64861 1.7068377 0)
(152.20958 1.5945667 0)
(151.81577 1.4573767 0)
(151.46954 1.3071124 0)
(151.16978 1.1522887 0)
(150.91389 0.99964166 0)
(150.69804 0.85336531 0)
(150.51822 0.71604833 0)
(150.3704 0.58875865 0)
(150.25096 0.47158441 0)
(150.15683 0.36386091 0)
(150.08567 0.26445592 0)
(150.03455 0.17187889 0)
(150.00675 0.084741644 0)
(151.10041 -0.39221832 0)
(151.1738 -0.40555197 0)
(151.21639 -0.42067041 0)
(151.27954 -0.44952446 0)
(151.34321 -0.48754199 0)
(151.419 -0.53749686 0)
(151.50532 -0.59889269 0)
(151.60675 -0.67250724 0)
(151.72568 -0.75822168 0)
(151.86587 -0.85570443 0)
(152.0308 -0.96378624 0)
(152.22424 -1.0803389 0)
(152.44956 -1.2019045 0)
(152.70954 -1.3234639 0)
(153.00566 -1.4382669 0)
(153.33742 -1.5378987 0)
(153.70167 -1.6127555 0)
(154.09181 -1.6525344 0)
(154.49789 -1.6479984 0)
(154.90703 -1.5913109 0)
(155.30417 -1.4772519 0)
(155.67282 -1.3030933 0)
(155.99592 -1.0694189 0)
(156.2563 -0.77944812 0)
(156.43755 -0.44052467 0)
(156.52537 -0.063263074 0)
(156.5084 0.33795612 0)
(156.37915 0.74558175 0)
(156.13587 1.1380909 0)
(155.78408 1.4924516 0)
(155.3385 1.7854572 0)
(154.82245 1.9996201 0)
(154.26523 2.124567 0)
(153.69965 2.1608007 0)
(153.15168 2.1214964 0)
(152.64083 2.0201431 0)
(152.17933 1.8764717 0)
(151.77199 1.7053047 0)
(151.41975 1.521436 0)
(151.11955 1.3347522 0)
(150.86716 1.1530312 0)
(150.65722 0.9807515 0)
(150.48455 0.82053938 0)
(150.34422 0.67321519 0)
(150.23199 0.5385173 0)
(150.14431 0.41534474 0)
(150.07853 0.30208146 0)
(150.03159 0.19670611 0)
(150.00617 0.097297372 0)
(151.17449 -0.41721014 0)
(151.24842 -0.43557983 0)
(151.28744 -0.45693789 0)
(151.34408 -0.49512193 0)
(151.4002 -0.54451479 0)
(151.46698 -0.6081068 0)
(151.54353 -0.68532663 0)
(151.63442 -0.77704401 0)
(151.74249 -0.88317289 0)
(151.87192 -1.0033863 0)
(152.02691 -1.1364154 0)
(152.21213 -1.279877 0)
(152.43213 -1.4298173 0)
(152.69102 -1.580393 0)
(152.99169 -1.7236039 0)
(153.33484 -1.8492958 0)
(153.71818 -1.9457546 0)
(154.13506 -2.0000965 0)
(154.57462 -2.0010099 0)
(155.02255 -1.9388139 0)
(155.46192 -1.807215 0)
(155.87411 -1.6027466 0)
(156.23997 -1.3260485 0)
(156.53991 -0.98043669 0)
(156.75479 -0.57461925 0)
(156.86768 -0.12114293 0)
(156.8645 0.3628047 0)
(156.73462 0.8558432 0)
(156.47389 1.3315182 0)
(156.08691 1.7613532 0)
(155.59041 2.1153231 0)
(155.01262 2.3709292 0)
(154.38976 2.5143074 0)
(153.76393 2.5463483 0)
(153.16599 2.4871875 0)
(152.61772 2.3538599 0)
(152.13174 2.1731535 0)
(151.71076 1.962892 0)
(151.35384 1.7414427 0)
(151.05521 1.5199569 0)
(150.80866 1.3072193 0)
(150.60692 1.107758 0)
(150.44354 0.92404315 0)
(150.31257 0.75644083 0)
(150.2091 0.60418026 0)
(150.12915 0.46560451 0)
(150.06977 0.33855757 0)
(150.02783 0.2205062 0)
(150.00537 0.10911667 0)
(151.24609 -0.46504854 0)
(151.29317 -0.48107027 0)
(151.3226 -0.49975857 0)
(151.36711 -0.53511623 0)
(151.41388 -0.5820725 0)
(151.47118 -0.64404906 0)
(151.53882 -0.72085796 0)
(151.62106 -0.8138593 0)
(151.72109 -0.92350528 0)
(151.84347 -1.0500751 0)
(151.99307 -1.1929008 0)
(152.17542 -1.3501056 0)
(152.39623 -1.5179925 0)
(152.66097 -1.6905362 0)
(152.97397 -1.8588919 0)
(153.33721 -2.0112058 0)
(153.74935 -2.1333524 0)
(154.20352 -2.20901 0)
(154.68758 -2.2241657 0)
(155.18533 -2.1665928 0)
(155.67753 -2.0285367 0)
(156.14306 -1.8053366 0)
(156.56036 -1.4975031 0)
(156.90685 -1.1077032 0)
(157.16001 -0.64554908 0)
(157.29987 -0.12461963 0)
(157.30933 0.43617833 0)
(157.1748 1.0135527 0)
(156.88954 1.5755303 0)
(156.45664 2.0862569 0)
(155.89477 2.5055393 0)
(155.23807 2.803586 0)
(154.53145 2.9610837 0)
(153.83042 2.9789928 0)
(153.1718 2.88873 0)
(152.5795 2.7111579 0)
(152.06632 2.4829494 0)
(151.63146 2.2248652 0)
(151.27142 1.9595037 0)
(150.97674 1.6988719 0)
(150.73879 1.4525538 0)
(150.54798 1.2246974 0)
(150.39638 1.0173013 0)
(150.27688 0.82998315 0)
(150.18388 0.66124955 0)
(150.11291 0.50872112 0)
(150.06074 0.36957826 0)
(150.02419 0.24067097 0)
(150.00468 0.11914727 0)
(151.33554 -0.44834684 0)
(151.38667 -0.46945133 0)
(151.4129 -0.49453186 0)
(151.45078 -0.5397133 0)
(151.48926 -0.59897936 0)
(151.53625 -0.67616233 0)
(151.59222 -0.77119725 0)
(151.66134 -0.88575779 0)
(151.74714 -1.0205645 0)
(151.85456 -1.1761422 0)
(151.98923 -1.3519531 0)
(152.15783 -1.5460526 0)
(152.36768 -1.7543408 0)
(152.62632 -1.969898 0)
(152.94054 -2.18229 0)
(153.31454 -2.3771691 0)
(153.74905 -2.5373139 0)
(154.23735 -2.6418675 0)
(154.76586 -2.6738451 0)
(155.31611 -2.6182357 0)
(155.86612 -2.4661279 0)
(156.39178 -2.2117137 0)
(156.86904 -1.8557966 0)
(157.27221 -1.3998732 0)
(157.57488 -0.8550833 0)
(157.75388 -0.2370165 0)
(157.78843 0.43214783 0)
(157.65919 1.1244887 0)
(157.35374 1.8006677 0)
(156.87131 2.4171539 0)
(156.23261 2.9212632 0)
(155.47981 3.2746736 0)
(154.66966 3.4504315 0)
(153.8781 3.4488736 0)
(153.14935 3.3201041 0)
(152.50865 3.0883146 0)
(151.96859 2.8043095 0)
(151.52246 2.4913177 0)
(151.16351 2.1771417 0)
(150.87728 1.8740938 0)
(150.65233 1.5923969 0)
(150.47633 1.3353646 0)
(150.3398 1.1042304 0)
(150.23446 0.89758681 0)
(150.15407 0.71303977 0)
(150.09375 0.54737117 0)
(150.05005 0.39704944 0)
(150.0198 0.25831026 0)
(150.00381 0.12782836 0)
(151.41648 -0.52121286 0)
(151.43269 -0.54006742 0)
(151.4461 -0.56222019 0)
(151.46783 -0.60369855 0)
(151.49328 -0.65892738 0)
(151.52675 -0.73206231 0)
(151.56949 -0.82338531 0)
(151.62524 -0.93509649 0)
(151.69798 -1.0686069 0)
(151.7931 -1.22535 0)
(151.91713 -1.4058783 0)
(152.07799 -1.6094385 0)
(152.2847 -1.8330227 0)
(152.54696 -2.0703949 0)
(152.87406 -2.3109166 0)
(153.27249 -2.5385318 0)
(153.74522 -2.7331215 0)
(154.2852 -2.8677696 0)
(154.87635 -2.9218115 0)
(155.49707 -2.8763501 0)
(156.12196 -2.7209854 0)
(156.72341 -2.4480425 0)
(157.27498 -2.0589975 0)
(157.74723 -1.5529743 0)
(158.10825 -0.94290454 0)
(158.33076 -0.24537392 0)
(158.38973 0.51675777 0)
(158.26044 1.3172115 0)
(157.92514 2.1103792 0)
(157.37787 2.8422548 0)
(156.6407 3.4398889 0)
(155.76497 3.8516035 0)
(154.82141 4.0377914 0)
(153.91693 3.9959406 0)
(153.10447 3.8082001 0)
(152.40829 3.5003622 0)
(151.84063 3.1437983 0)
(151.38532 2.7627563 0)
(151.03161 2.3911536 0)
(150.75832 2.0403309 0)
(150.55083 1.720567 0)
(150.39356 1.4334708 0)
(150.2754 1.1789476 0)
(150.18684 0.95409532 0)
(150.12107 0.75531119 0)
(150.07284 0.5783242 0)
(150.03857 0.4187555 0)
(150.0152 0.27214028 0)
(150.00293 0.13462976 0)
(151.51657 -0.449035 0)
(151.54092 -0.47154868 0)
(151.55215 -0.49869284 0)
(151.56808 -0.5484204 0)
(151.58557 -0.61470812 0)
(151.60863 -0.70239193 0)
(151.63902 -0.81227221 0)
(151.68017 -0.94728786 0)
(151.7361 -1.1096198 0)
(151.81232 -1.3015041 0)
(151.91591 -1.5242123 0)
(152.05591 -1.7774862 0)
(152.24328 -2.0583431 0)
(152.49065 -2.3598034 0)
(152.81135 -2.669275 0)
(153.21592 -2.9668929 0)
(153.71235 -3.2279394 0)
(154.29428 -3.4161537 0)
(154.94287 -3.5066841 0)
(155.6328 -3.4762683 0)
(156.33468 -3.314189 0)
(157.01647 -3.0112294 0)
(157.6496 -2.5710669 0)
(158.20072 -1.9878136 0)
(158.63174 -1.2760869 0)
(158.91282 -0.45386763 0)
(159.01618 0.45308366 0)
(158.90743 1.4143843 0)
(158.5557 2.3716422 0)
(157.94248 3.260968 0)
(157.08978 3.984601 0)
(156.06207 4.476983 0)
(154.94887 4.6801749 0)
(153.9073 4.5838101 0)
(153.00081 4.3249035 0)
(152.24715 3.924833 0)
(151.65795 3.4849905 0)
(151.20149 3.027556 0)
(150.86242 2.5939854 0)
(150.61053 2.193079 0)
(150.42787 1.8347738 0)
(150.29522 1.5181971 0)
(150.20006 1.2415248 0)
(150.13179 1.0000257 0)
(150.08324 0.78870787 0)
(150.04901 0.60214529 0)
(150.02552 0.43507722 0)
(150.00994 0.28234218 0)
(150.00191 0.13959151 0)
(151.60228 -0.55694831 0)
(151.58491 -0.57873198 0)
(151.58016 -0.60435849 0)
(151.57577 -0.6515602 0)
(151.57588 -0.71433412 0)
(151.58022 -0.79756108 0)
(151.59134 -0.90213654 0)
(151.61206 -1.0313181 0)
(151.64682 -1.1878645 0)
(151.70163 -1.3749741 0)
(151.7847 -1.5953374 0)
(151.9068 -1.8506069 0)
(152.08147 -2.14007 0)
(152.32481 -2.4590464 0)
(152.65473 -2.796471 0)
(153.08577 -3.1315503 0)
(153.63185 -3.4373988 0)
(154.28588 -3.6653669 0)
(155.02311 -3.7862594 0)
(155.81239 -3.7707872 0)
(156.61897 -3.6080309 0)
(157.40558 -3.2851264 0)
(158.14357 -2.8094415 0)
(158.79619 -2.1665699 0)
(159.31571 -1.3765714 0)
(159.6675 -0.46119385 0)
(159.81887 0.55355324 0)
(159.72433 1.6507849 0)
(159.34246 2.769469 0)
(158.64066 3.8347268 0)
(157.63948 4.7046689 0)
(156.41703 5.2884885 0)
(155.0809 5.4962702 0)
(153.86794 5.2984669 0)
(152.85292 4.9302305 0)
(152.03588 4.3980515 0)
(151.42973 3.8479982 0)
(150.97834 3.2946386 0)
(150.6621 2.7878642 0)
(150.43881 2.3308337 0)
(150.28741 1.9317655 0)
(150.18445 1.5857398 0)
(150.11627 1.2882855 0)
(150.07123 1.0321828 0)
(150.04204 0.81066888 0)
(150.02328 0.61693998 0)
(150.01154 0.44474342 0)
(150.00437 0.28817888 0)
(150.00084 0.14239348 0)
(151.70604 -0.41791111 0)
(151.69961 -0.43983688 0)
(151.69396 -0.46652801 0)
(151.68521 -0.51686162 0)
(151.67881 -0.58529094 0)
(151.67415 -0.67768399 0)
(151.67408 -0.79603087 0)
(151.68078 -0.94499452 0)
(151.69831 -1.1289972 0)
(151.73221 -1.3531705 0)
(151.79059 -1.6223018 0)
(151.88471 -1.940098 0)
(152.02974 -2.3074128 0)
(152.24516 -2.7200276 0)
(152.55504 -3.1652077 0)
(152.98045 -3.616164 0)
(153.54801 -4.0398272 0)
(154.25291 -4.3647837 0)
(155.06352 -4.5563415 0)
(155.94242 -4.5777325 0)
(156.84938 -4.4212125 0)
(157.7402 -4.0717516 0)
(158.58742 -3.5480255 0)
(159.34914 -2.8200417 0)
(159.96324 -1.9109213 0)
(160.3957 -0.84191124 0)
(160.6209 0.3641832 0)
(160.58127 1.6955198 0)
(160.20691 3.0615857 0)
(159.42722 4.3768676 0)
(158.25267 5.4450366 0)
(156.7827 6.1585834 0)
(155.14748 6.3819181 0)
(153.72076 6.0422686 0)
(152.59124 5.5467432 0)
(151.71614 4.8580971 0)
(151.11266 4.1878532 0)
(150.68492 3.532336 0)
(150.40996 2.9516839 0)
(150.22979 2.4400258 0)
(150.12109 2.0031747 0)
(150.05614 1.6311381 0)
(150.02092 1.3164097 0)
(150.00326 1.0490273 0)
(149.99629 0.82037586 0)
(149.99494 0.62226696 0)
(149.99622 0.44749633 0)
(149.99825 0.28948668 0)
(149.99965 0.14294175 0)
(151.7929 -0.56704058 0)
(151.74213 -0.59174175 0)
(151.7184 -0.6207486 0)
(151.68612 -0.67306162 0)
(151.65808 -0.7423748 0)
(151.62901 -0.83425099 0)
(151.60224 -0.95032071 0)
(151.57896 -1.0950671 0)
(151.56331 -1.272937 0)
(151.56107 -1.4894886 0)
(151.58141 -1.7505647 0)
(151.63774 -2.0618612 0)
(151.74893 -2.4273579 0)
(151.94018 -2.8472048 0)
(152.24453 -3.3136286 0)
(152.69007 -3.8013829 0)
(153.32055 -4.2818084 0)
(154.12967 -4.6537999 0)
(155.06955 -4.8801574 0)
(156.09086 -4.9150591 0)
(157.14436 -4.7575446 0)
(158.17498 -4.3836903 0)
(159.16415 -3.8264614 0)
(160.07194 -3.0219483 0)
(160.81668 -2.0079931 0)
(161.36408 -0.82300968 0)
(161.68886 0.49702715 0)
(161.7032 1.983266 0)
(161.31414 3.5637088 0)
(160.41737 5.1632326 0)
(159.01681 6.484418 0)
(157.23225 7.3695654 0)
(155.19444 7.5978778 0)
(153.50165 7.0022506 0)
(152.25446 6.3052878 0)
(151.32099 5.3859071 0)
(150.73671 4.5515063 0)
(150.34487 3.7653614 0)
(150.12439 3.0967966 0)
(149.9969 2.5246675 0)
(149.93856 2.0492755 0)
(149.91703 1.6530663 0)
(149.91865 1.3240863 0)
(149.93102 1.0488239 0)
(149.94805 0.81639954 0)
(149.96525 0.61706776 0)
(149.98026 0.44262717 0)
(149.99192 0.28585061 0)
(149.99844 0.14104869 0)
(151.88882 -0.35778372 0)
(151.84766 -0.376876 0)
(151.82363 -0.40001671 0)
(151.78807 -0.44583506 0)
(151.75539 -0.50957368 0)
(151.71971 -0.59790196 0)
(151.6846 -0.71403223 0)
(151.65036 -0.86451369 0)
(151.62034 -1.056572 0)
(151.59915 -1.2994317 0)
(151.59477 -1.6035993 0)
(151.6197 -1.9803806 0)
(151.69274 -2.4397716 0)
(151.84114 -2.9872878 0)
(152.10579 -3.6176731 0)
(152.52159 -4.2973231 0)
(153.1659 -4.9939684 0)
(154.03939 -5.5426683 0)
(155.074 -5.901093 0)
(156.20821 -6.0096711 0)
(157.38761 -5.8796781 0)
(158.54534 -5.4789293 0)
(159.68095 -4.8855967 0)
(160.74907 -3.9933518 0)
(161.61976 -2.8537331 0)
(162.25995 -1.5136057 0)
(162.6884 0.028719133 0)
(162.82293 1.8703168 0)
(162.52044 3.8523259 0)
(161.56712 5.8867707 0)
(159.91456 7.531651 0)
(157.71505 8.6453606 0)
(155.09113 8.8959804 0)
(153.04518 7.9215727 0)
(151.70014 7.0066812 0)
(150.73367 5.8288731 0)
(150.21912 4.8344973 0)
(149.90211 3.9246617 0)
(149.77 3.1798826 0)
(149.71877 2.558383 0)
(149.72751 2.0544925 0)
(149.7603 1.6425536 0)
(149.80582 1.3062709 0)
(149.85263 1.0288004 0)
(149.89636 0.79724656 0)
(149.93372 0.60054938 0)
(149.96342 0.42971768 0)
(149.98525 0.27705466 0)
(149.99715 0.13661535 0)
(151.9769 -0.54449901 0)
(151.89657 -0.57171866 0)
(151.85498 -0.60331692 0)
(151.79555 -0.65921482 0)
(151.73903 -0.73294874 0)
(151.67483 -0.83078317 0)
(151.60633 -0.95521727 0)
(151.53205 -1.1121468 0)
(151.45432 -1.3080548 0)
(151.3767 -1.5514791 0)
(151.30697 -1.8525206 0)
(151.2589 -2.2228666 0)
(151.25522 -2.6743583 0)
(151.33144 -3.2170597 0)
(151.54682 -3.8545607 0)
(151.94755 -4.5576504 0)
(152.6656 -5.3276484 0)
(153.70035 -5.9191901 0)
(154.93379 -6.2988406 0)
(156.28026 -6.3927375 0)
(157.67245 -6.2484272 0)
(159.01011 -5.8112951 0)
(160.32463 -5.2219092 0)
(161.59284 -4.2345435 0)
(162.63139 -2.9326017 0)
(163.4414 -1.4001554 0)
(164.09473 0.26581399 0)
(164.40276 2.2389462 0)
(164.15159 4.4446244 0)
(163.0426 6.9356134 0)
(161.03438 9.0661612 0)
(158.32462 10.57474 0)
(154.89696 10.890824 0)
(152.42583 9.2421384 0)
(151.04235 7.9485555 0)
(150.05593 6.3740979 0)
(149.64927 5.143152 0)
(149.42332 4.069084 0)
(149.39484 3.2305531 0)
(149.42793 2.5554628 0)
(149.5094 2.0249325 0)
(149.59975 1.6018628 0)
(149.69116 1.263488 0)
(149.77348 0.98883383 0)
(149.84446 0.7626225 0)
(149.90223 0.5724429 0)
(149.94667 0.40857978 0)
(149.97865 0.26299058 0)
(149.99589 0.12959158 0)
(152.02653 -0.27626319 0)
(151.94728 -0.29094053 0)
(151.904 -0.30769235 0)
(151.84026 -0.34392283 0)
(151.77958 -0.39548379 0)
(151.71011 -0.46924585 0)
(151.63567 -0.56903728 0)
(151.55393 -0.70263768 0)
(151.46651 -0.87960442 0)
(151.37559 -1.113347 0)
(151.2871 -1.4214739 0)
(151.21234 -1.8268114 0)
(151.17115 -2.3565899 0)
(151.19614 -3.0403525 0)
(151.35419 -3.9038267 0)
(151.68121 -4.9153498 0)
(152.39924 -6.1047903 0)
(153.5308 -7.0271224 0)
(154.89474 -7.6521241 0)
(156.37555 -7.8904992 0)
(157.90732 -7.8205124 0)
(159.36056 -7.3381168 0)
(160.86384 -6.7200072 0)
(162.40846 -5.6222671 0)
(163.64718 -4.1636763 0)
(164.53782 -2.5986233 0)
(165.26913 -0.86083895 0)
(165.75946 1.6430782 0)
(165.79486 4.579956 0)
(164.79838 7.9858996 0)
(162.49673 10.644629 0)
(159.10064 12.568032 0)
(154.37779 12.954079 0)
(151.25576 10.231832 0)
(149.95513 8.607792 0)
(149.03152 6.6486241 0)
(148.85124 5.2467032 0)
(148.79673 4.0589225 0)
(148.93141 3.1692471 0)
(149.08611 2.4715246 0)
(149.26331 1.9366647 0)
(149.42454 1.5183701 0)
(149.56926 1.1892851 0)
(149.69104 0.92574248 0)
(149.79124 0.71104194 0)
(149.87029 0.53210965 0)
(149.9298 0.37897434 0)
(149.972 0.24358874 0)
(149.99461 0.11996179 0)
(152.02915 -0.48127657 0)
(151.92592 -0.51007135 0)
(151.86959 -0.54179516 0)
(151.78652 -0.59757151 0)
(151.70443 -0.67075883 0)
(151.60736 -0.7684595 0)
(151.49806 -0.89412772 0)
(151.37114 -1.0553012 0)
(151.22509 -1.2609522 0)
(151.05799 -1.5234986 0)
(150.87117 -1.8589542 0)
(150.67178 -2.2879643 0)
(150.4779 -2.8351915 0)
(150.32583 -3.5283306 0)
(150.31587 -4.3990279 0)
(150.49112 -5.4029427 0)
(151.26306 -6.7050704 0)
(152.66675 -7.6318578 0)
(154.34815 -8.2141842 0)
(156.14773 -8.3131796 0)
(158.0097 -8.1541371 0)
(159.6991 -7.553541 0)
(161.41161 -7.1467345 0)
(163.22508 -5.9825098 0)
(164.5592 -4.3501835 0)
(165.53772 -2.3366943 0)
(166.79634 -0.25176205 0)
(167.89867 2.3219389 0)
(168.2762 5.2552144 0)
(167.05196 9.1341523 0)
(164.13205 12.792855 0)
(159.98903 15.82883 0)
(153.5331 16.6833 0)
(149.73664 12.125732 0)
(148.82666 9.704245 0)
(147.98308 7.1168631 0)
(148.08518 5.3847091 0)
(148.19805 4.0270974 0)
(148.49544 3.0610576 0)
(148.76486 2.3396866 0)
(149.03277 1.8055518 0)
(149.26052 1.3998921 0)
(149.45532 1.0874976 0)
(149.61409 0.84151771 0)
(149.74164 0.64360512 0)
(149.84058 0.48021035 0)
(149.91415 0.34131605 0)
(149.96587 0.2190997 0)
(149.99343 0.10784326 0)
(151.58821 -0.18418642 0)
(151.46797 -0.19455628 0)
(151.40496 -0.20357318 0)
(151.31169 -0.22717558 0)
(151.22106 -0.26108829 0)
(151.11436 -0.31148286 0)
(150.99511 -0.3814775 0)
(150.85718 -0.47823365 0)
(150.69884 -0.61119183 0)
(150.5175 -0.79498776 0)
(150.31345 -1.051419 0)
(150.09207 -1.4136745 0)
(149.86823 -1.9308933 0)
(149.66935 -2.6734204 0)
(149.60973 -3.7531862 0)
(149.63318 -5.1805516 0)
(150.38487 -7.3587664 0)
(151.96798 -8.9390365 0)
(153.84881 -9.9455387 0)
(155.78211 -10.347212 0)
(157.73894 -10.409973 0)
(159.31161 -9.8139717 0)
(161.15297 -9.2860649 0)
(163.47575 -7.9394648 0)
(165.25235 -5.622686 0)
(166.43281 -3.8982251 0)
(167.54723 -2.963997 0)
(168.60412 0.1369324 0)
(169.50653 4.3475838 0)
(169.07592 11.045447 0)
(166.35482 15.568995 0)
(161.38711 19.191248 0)
(151.98996 20.253206 0)
(146.824 12.454418 0)
(146.73799 9.8240875 0)
(146.27776 6.8566636 0)
(146.92438 5.0775894 0)
(147.38461 3.7110765 0)
(147.94625 2.776181 0)
(148.3903 2.0948049 0)
(148.77885 1.6007659 0)
(149.08845 1.2320821 0)
(149.33998 0.95191534 0)
(149.53834 0.733732 0)
(149.69378 0.55960552 0)
(149.81231 0.41674318 0)
(149.89939 0.29583168 0)
(149.96009 0.18975521 0)
(149.99232 0.093371001 0)
(150.66582 -0.36939966 0)
(150.54452 -0.39888281 0)
(150.47596 -0.42560608 0)
(150.37237 -0.47402407 0)
(150.26806 -0.5366359 0)
(150.14185 -0.62143828 0)
(149.99559 -0.73238861 0)
(149.81934 -0.87834452 0)
(149.60614 -1.0706404 0)
(149.3452 -1.3261582 0)
(149.02457 -1.6689462 0)
(148.63187 -2.1337953 0)
(148.15852 -2.7695825 0)
(147.5961 -3.6388128 0)
(147.08285 -4.8552455 0)
(146.45846 -6.2884777 0)
(147.06784 -8.7191749 0)
(149.17445 -10.128775 0)
(151.54785 -10.976288 0)
(153.86606 -10.80433 0)
(156.28111 -10.568916 0)
(158.2359 -9.0737384 0)
(160.33865 -9.7749915 0)
(163.23506 -8.2299978 0)
(164.71321 -6.6533537 0)
(164.66734 -4.4054641 0)
(166.77898 -1.2627124 0)
(170.0273 2.155184 0)
(172.82535 6.2981525 0)
(171.86058 10.976898 0)
(167.23238 17.109895 0)
(161.21499 24.421955 0)
(148.90125 28.195585 0)
(143.45779 15.745465 0)
(145.31167 10.751455 0)
(144.97544 7.0731942 0)
(146.12667 4.8236154 0)
(146.79069 3.3811703 0)
(147.54234 2.4335342 0)
(148.10467 1.7967146 0)
(148.58104 1.3506187 0)
(148.95153 1.0295227 0)
(149.24688 0.79023111 0)
(149.47654 0.60677239 0)
(149.65447 0.46168647 0)
(149.78901 0.3433802 0)
(149.8872 0.24358613 0)
(149.95534 0.1561937 0)
(149.99141 0.076846535 0)
(149.27195 -0.090606629 0)
(149.11148 -0.096785539 0)
(149.03323 -0.099110588 0)
(148.91277 -0.11010287 0)
(148.79452 -0.12528688 0)
(148.65171 -0.14897359 0)
(148.48727 -0.18233412 0)
(148.28993 -0.22950649 0)
(148.05247 -0.29593798 0)
(147.76364 -0.39101317 0)
(147.41166 -0.53037843 0)
(146.98532 -0.74163091 0)
(146.48129 -1.0771463 0)
(145.8841 -1.624252 0)
(145.44024 -2.6247923 0)
(144.63716 -4.1838192 0)
(145.41029 -8.5695029 0)
(148.03037 -11.550576 0)
(150.93647 -12.770392 0)
(153.54932 -13.357875 0)
(156.37028 -13.347481 0)
(157.28998 -13.465276 0)
(159.18688 -12.746828 7.8592448e-18)
(161.41058 -11.687145 4.600257e-18)
(163.2115 -6.2016825 4.9668374e-18)
(165.17755 -3.4543207 -2.6461555e-20)
(168.90897 -7.4253726 -3.9193404e-18)
(170.90801 -4.3413511 0)
(172.69983 -0.13327165 -4.8564674e-18)
(171.20855 16.230056 7.0710863e-18)
(169.99196 24.503249 0)
(159.71816 30.486918 8.3242251e-19)
(143.22937 33.442226 0)
(136.1715 11.084175 0)
(140.83718 8.9200895 0)
(142.33788 5.5884738 0)
(144.53152 3.8040438 0)
(145.87986 2.627775 0)
(146.98644 1.8722048 0)
(147.76781 1.3738311 0)
(148.36817 1.0278672 0)
(148.81626 0.78202668 0)
(149.15992 0.59973832 0)
(149.42131 0.46066303 0)
(149.62034 0.35079256 0)
(149.76918 0.26119137 0)
(149.87695 0.18548203 0)
(149.95135 0.11904249 0)
(149.99064 0.058591354 0)
(146.43918 -0.20257521 0)
(146.31565 -0.24037664 0)
(146.24953 -0.25443194 0)
(146.1418 -0.28535072 0)
(146.03315 -0.32266741 0)
(145.89789 -0.37493884 0)
(145.73785 -0.44475866 0)
(145.53966 -0.53992171 0)
(145.29222 -0.67082466 0)
(144.97688 -0.85484241 0)
(144.568 -1.1202909 0)
(144.02615 -1.5147755 0)
(143.29862 -2.1281248 0)
(142.24127 -3.0743917 0)
(140.97035 -4.7918435 0)
(137.88925 -7.0995411 0)
(137.38822 -12.13828 0)
(142.53526 -14.036566 -1.3050797e-18)
(145.85468 -15.40152 1.5129401e-19)
(145.30555 -13.970147 0)
(138.93359 -14.353061 -8.0638698e-18)
(98.745325 -7.96471 1.1866654e-17)
(0 0 0)
(0 0 0)
(0 0 0)
(0 0 0)
(0 0 0)
(0 0 0)
(0 0 0)
(0 0 0)
(0 0 0)
(0 0 0)
(126.84656 50.935019 1.1912555e-16)
(133.28404 20.256131 0)
(142.33374 7.8930233 0)
(141.71575 5.0862601 0)
(144.27516 2.7429373 0)
(145.58865 1.8425336 0)
(146.78684 1.237568 0)
(147.61988 0.89883191 0)
(148.2642 0.66616605 0)
(148.74376 0.50758291 0)
(149.11037 0.3904132 0)
(149.3884 0.30141815 0)