/*--------------------------------*- C++ -*----------------------------------*\
| =========                 |                                                 |
| \\      /  F ield         | foam-extend: Open Source CFD                    |
|  \\    /   O peration     | Version:     4.1                                |
|   \\  /    A nd           | Web:         http://www.foam-extend.org         |
|    \\/     M anipulation  |                                                 |
\*---------------------------------------------------------------------------*/
FoamFile
{
    version     2.0;
    format      ascii;
    class       volScalarField;
    location    "0.5";
    object      p;
}
// * * * * * * * * * * * * * * * * * * * * * * * * * * * * * * * * * * * * * //

dimensions      [0 2 -2 0 0 0 0];

internalField   nonuniform List<scalar> 
4242
(
-0.20062241
-0.20185904
-0.20256479
-0.20231083
-0.2004442
-0.19587939
-0.18734161
-0.17365097
-0.15419167
-0.12913353
-0.099396111
-0.066448226
-0.032123418
0.0013355553
0.032123651
0.063444673
-0.38170222
-0.38138683
-0.3803631
-0.37760796
-0.37163497
-0.36064363
-0.34297877
-0.31788849
-0.28596144
-0.24901194
-0.20929045
-0.16874019
-0.12864183
-0.090036325
-0.054037838
-0.02001952
-0.55430134
-0.55371863
-0.5525095
-0.54976905
-0.54403562
-0.53335484
-0.51555183
-0.48886925
-0.45282223
-0.40875996
-0.35938685
-0.3076459
-0.255813
-0.20543186
-0.15766679
-0.11391813
-0.69866774
-0.69758613
-0.69590586
-0.69284764
-0.68703478
-0.67660054
-0.65933334
-0.63313959
-0.59681656
-0.55080468
-0.49730029
-0.43926858
-0.3794694
-0.32010017
-0.26260591
-0.20874569
-0.79189853
-0.79042847
-0.78841907
-0.78524926
-0.77967602
-0.76996611
-0.75395205
-0.72937778
-0.69459549
-0.6493855
-0.59535255
-0.5353248
-0.47224974
-0.40846388
-0.34529823
-0.28318052
-0.8292471
-0.8275485
-0.82539659
-0.82236167
-0.81742639
-0.80911622
-0.79545585
-0.77417048
-0.74325757
-0.70181694
-0.65070289
-0.59236273
-0.5298487
-0.46579241
-0.4019256
-0.33940269
-0.81488456
-0.81312075
-0.81099469
-0.80826722
-0.80420361
-0.79769798
-0.78714514
-0.77048432
-0.74558011
-0.71094433
-0.66652859
-0.61399619
-0.55610212
-0.49560214
-0.43448417
-0.37393092
-0.76015247
-0.75849233
-0.75654478
-0.75421743
-0.75105131
-0.74634252
-0.73897157
-0.72731567
-0.70941133
-0.68345761
-0.6485759
-0.60539475
-0.55591373
-0.50263051
-0.44759737
-0.39238384
-0.68119871
-0.67979604
-0.67815704
-0.67626936
-0.67388997
-0.67066181
-0.66595304
-0.65871322
-0.64744489
-0.63042669
-0.60626327
-0.57456589
-0.53625305
-0.49311817
-0.44694689
-0.39920251
-0.59656438
-0.59554788
-0.59432451
-0.59288483
-0.59110169
-0.58884592
-0.58590598
-0.58183672
-0.57577708
-0.56638513
-0.55224593
-0.53231824
-0.50636525
-0.47494721
-0.43903869
-0.40008333
-0.52207098
-0.5215906
-0.52092254
-0.51998464
-0.51865797
-0.51686049
-0.51450329
-0.51142959
-0.50744539
-0.50244408
-0.49607083
-0.48705222
-0.47367006
-0.45407831
-0.42651578
-0.39009692
-0.47071487
-0.47075041
-0.4706274
-0.47025967
-0.46952385
-0.46824494
-0.46626662
-0.46368158
-0.46113286
-0.45981768
-0.46118529
-0.46541079
-0.46540756
-0.45590008
-0.43417763
-0.39752995
0.05630414
0.05723833
0.058484503
0.060938496
0.065697081
0.073755958
0.085750086
0.10164456
0.12059769
0.14109548
0.16142663
0.18014533
0.19615265
0.20852127
0.21737145
0.22630536
0.2726499
0.27128372
0.27017777
0.26995224
0.27116352
0.27442057
0.28013398
0.28824002
0.29808315
0.30853623
0.31829505
0.32615013
0.33106385
0.33208617
0.32865709
0.32219949
0.46893643
0.46733646
0.46580395
0.46472438
0.46432419
0.46484228
0.46635239
0.46858613
0.47088493
0.47231161
0.47186365
0.46865202
0.46192162
0.45098849
0.43574434
0.41843712
0.61710755
0.61522581
0.61328915
0.61154997
0.61000825
0.60865446
0.60734274
0.60567101
0.60295991
0.5983356
0.59088208
0.57977208
0.56427492
0.54376579
0.51844555
0.4911043
0.71986
0.71782317
0.71564935
0.71349926
0.71123615
0.70868447
0.70551851
0.70117211
0.69485678
0.68568046
0.67281209
0.65558017
0.63342779
0.60602878
0.57466058
0.54456753
-0.555676
-0.55509219
-0.55388293
-0.55114225
-0.54540643
-0.53471822
-0.51689731
-0.49018254
-0.45408613
-0.40995427
-0.36049915
-0.30867714
-0.25677737
-0.20638239
-0.15880276
-0.11542022
0.74556674
0.74367813
0.74160143
0.73943711
0.73699652
0.73404382
0.73020426
0.72491034
0.71744931
0.70707258
0.69311132
0.67505394
0.65257352
0.6255615
0.59434616
0.56033982
0.74594333
0.74404537
0.74195911
0.73978557
0.73733511
0.73437042
0.73051463
0.72519768
0.71770534
0.70729046
0.69328972
0.67519933
0.65270355
0.62573882
0.59479814
0.56157594
0.71997381
0.71793191
0.71575366
0.71359999
0.71133315
0.70877621
0.70560153
0.70124076
0.69490419
0.68570141
0.67280711
0.65555748
0.63340786
0.60608917
0.57503894
0.54552732
0.61642892
0.61456297
0.61264422
0.61092344
0.60940037
0.60806416
0.60676617
0.60510031
0.60238327
0.59774032
0.59026146
0.57912098
0.56353223
0.5427452
0.51722016
0.49141534
0.46805091
0.4664751
0.46496969
0.46391818
0.46354828
0.4641003
0.46564899
0.46792599
0.47027093
0.47174516
0.47135141
0.46819844
0.46142228
0.45005563
0.4344045
0.42029
0.27282732
0.27147277
0.27038072
0.27017001
0.27139833
0.27467837
0.28042678
0.28858713
0.2985098
0.30907119
0.31897137
0.32700418
0.33210774
0.33329575
0.33015584
0.3237994
0.057433304
0.05836452
0.059607475
0.062055214
0.066801812
0.074842605
0.086815294
0.10269003
0.12163033
0.14212268
0.16245121
0.18115901
0.19711426
0.20931248
0.21782112
0.22652856
-0.46888536
-0.46892061
-0.46879697
-0.46842917
-0.46769476
-0.46641894
-0.46444302
-0.46185682
-0.45930533
-0.45796993
-0.45927683
-0.46358491
-0.46356235
-0.45363578
-0.43045251
-0.39128987
-0.52044254
-0.519963
-0.51929491
-0.51835517
-0.51702391
-0.51522002
-0.51285836
-0.50978666
-0.50581645
-0.50086099
-0.49459618
-0.48578094
-0.47271685
-0.45359884
-0.42696136
-0.39292475
-0.59461271
-0.59359702
-0.59237361
-0.59093326
-0.58914977
-0.58689587
-0.58396546
-0.57992404
-0.57392641
-0.56464044
-0.55066298
-0.53096379
-0.50531714
-0.47429819
-0.43896161
-0.40095854
-0.67941183
-0.678009
-0.67636904
-0.67448046
-0.67210241
-0.66888153
-0.66419098
-0.6569879
-0.64578381
-0.62886516
-0.60484088
-0.5733229
-0.53522952
-0.49235342
-0.44649363
-0.39927293
-0.75861441
-0.75695349
-0.75500504
-0.75267826
-0.749517
-0.74482156
-0.73747788
-0.72586881
-0.70803476
-0.68217493
-0.64740683
-0.60435451
-0.55501678
-0.5018917
-0.4470339
-0.39214153
-0.81382544
-0.81206047
-0.80993369
-0.8072078
-0.80315094
-0.79666089
-0.78613628
-0.76951887
-0.7446728
-0.71010567
-0.6657632
-0.61330691
-0.55549747
-0.49509953
-0.4341169
-0.37389811
-0.82881191
-0.8271118
-0.82495933
-0.82192659
-0.81699834
-0.8087024
-0.79506495
-0.77381064
-0.74293344
-0.70152716
-0.65044181
-0.59212869
-0.52965057
-0.46565175
-0.40188945
-0.33966706
-0.79215984
-0.79068816
-0.78867837
-0.78551044
-0.77994213
-0.77024063
-0.75423765
-0.72967451
-0.69489891
-0.64968605
-0.59564046
-0.53560113
-0.47252712
-0.40877206
-0.34572059
-0.28393918
-0.69957259
-0.69848962
-0.69680918
-0.69375186
-0.68794012
-0.67750582
-0.6602348
-0.63403
-0.59768478
-0.55163648
-0.49808324
-0.44000544
-0.38017142
-0.32080045
-0.26344042
-0.20989623
-0.38329084
-0.3829751
-0.38195128
-0.37919375
-0.3732124
-0.36220202
-0.34450187
-0.31935759
-0.28735815
-0.2503205
-0.21049859
-0.16983513
-0.12962704
-0.09097468
-0.055035258
-0.020713879
-0.2018512
-0.20308871
-0.20379417
-0.20353739
-0.2016633
-0.19708399
-0.18852459
-0.17480258
-0.1552998
-0.13018389
-0.10037121
-0.06733415
-0.032933538
0.00054822014
0.031398512
0.063042383
-0.45870695
-0.45831137
-0.45785103
-0.45725334
-0.45638185
-0.45506397
-0.45306765
-0.45012369
-0.44601416
-0.44073938
-0.43469398
-0.42832043
-0.42356529
-0.41877013
-0.40956761
-0.39122544
-0.45164178
-0.45109739
-0.4504733
-0.44975676
-0.44884372
-0.44762476
-0.44600231
-0.44394282
-0.44157248
-0.43928679
-0.43786284
-0.43854411
-0.44250054
-0.44623735
-0.44233096
-0.42297432
-0.43085331
-0.43024857
-0.42958559
-0.42887784
-0.42805777
-0.42709702
-0.42604674
-0.42509614
-0.42464178
-0.42530558
-0.42784602
-0.43289099
-0.44015635
-0.44651215
-0.44213438
-0.41474575
-0.37894598
-0.37882747
-0.37870422
-0.37857307
-0.37843099
-0.37833021
-0.37843252
-0.37906439
-0.38072891
-0.38401222
-0.38936872
-0.39682674
-0.40533767
-0.41073567
-0.4044282
-0.37802393
-0.29920403
-0.30005204
-0.30096931
-0.30190399
-0.30295246
-0.30427693
-0.30617232
-0.30909392
-0.31356326
-0.31994844
-0.32819004
-0.33757685
-0.34648261
-0.35138713
-0.34445345
-0.31422464
-0.24169814
-0.24361074
-0.24568685
-0.24780914
-0.25014223
-0.25287399
-0.25627881
-0.26072435
-0.26654843
-0.27384144
-0.28220725
-0.29058048
-0.29704958
-0.29833291
-0.28888248
-0.26252505
-0.2384429
-0.24039351
-0.24250871
-0.24466806
-0.24703816
-0.24980968
-0.25326186
-0.25776789
-0.26366622
-0.27103581
-0.27944827
-0.28774964
-0.29380579
-0.29409598
-0.28367342
-0.25855968
-0.29402866
-0.2949244
-0.2958915
-0.29687427
-0.29797085
-0.29934096
-0.30127428
-0.30421344
-0.30865575
-0.31493288
-0.32293725
-0.33183936
-0.33964039
-0.3423971
-0.33381139
-0.30772856
-0.37264502
-0.37257431
-0.37250213
-0.37242291
-0.37233777
-0.37230155
-0.37247696
-0.37318732
-0.37492241
-0.37823775
-0.38353259
-0.39072676
-0.39853616
-0.40247915
-0.39374608
-0.36521936
-0.42618647
-0.42561166
-0.42498098
-0.42430626
-0.42352333
-0.42260829
-0.42161617
-0.42074082
-0.42037974
-0.42114399
-0.42375804
-0.42875896
-0.43559751
-0.44060939
-0.43371969
-0.40275797
-0.44928028
-0.44873107
-0.44810371
-0.44738775
-0.44648202
-0.44528338
-0.44370531
-0.44173113
-0.43950899
-0.43745635
-0.43635337
-0.43737494
-0.44147281
-0.44484356
-0.43983498
-0.41794423
-0.45765738
-0.45724297
-0.45676441
-0.45615119
-0.45526717
-0.45394236
-0.45195105
-0.44903675
-0.44500555
-0.43989534
-0.4341108
-0.42789586
-0.42317026
-0.41810801
-0.40808819
-0.38806805
-0.084353202
-0.085199379
-0.083195479
-0.078229368
-0.070045414
-0.058146175
-0.041816099
-0.021146036
0.002950638
0.029032143
0.055571959
0.081134216
0.10406276
0.12368637
0.14440293
-0.085559082
-0.086396944
-0.084372021
-0.079373464
-0.071149943
-0.059213083
-0.042845699
-0.022137613
0.0020031466
0.028142896
0.054755266
0.080397368
0.10345356
0.12347436
0.14398334
-0.46418124
-0.46406888
-0.46355367
-0.46247372
-0.46065373
-0.45797756
-0.45456092
-0.4510186
-0.44856293
-0.44793736
-0.44634606
-0.44016538
-0.42877717
-0.41064701
-0.37833936
-0.46561186
-0.4655069
-0.46500021
-0.46392844
-0.46211451
-0.45943909
-0.45601435
-0.45245706
-0.44998075
-0.44914485
-0.44730742
-0.4411427
-0.43006347
-0.41271798
-0.38370175
-0.080367795
-0.08156858
-0.46397037
-0.46539861
-0.040493304
0.038871889
0.28141223
0.032095797
-0.31258296
0.039991923
0.16231622
0.20933271
0.2075688
0.15222912
0.14481551
0.018190376
0.23212079
-0.0056305425
0.16735689
-0.14458519
0.10300757
-0.23711813
-0.28421381
0.026964372
-0.33883439
0.23531309
0.21528716
0.20363748
0.2055561
0.043942853
0.026601162
0.025105162
0.021721791
-0.027591796
0.044496555
0.15825751
0.046596644
0.010274627
0.22183409
0.034653632
0.016107154
0.21736336
0.097861383
0.10158745
0.097389483
0.011107993
0.2054007
-0.02306396
0.20415335
0.30993393
0.028064531
0.20282847
0.17893074
0.17870425
-0.28443801
0.41871894
0.24155026
0.13090179
-0.13355817
-0.0056536722
0.12889703
0.15986911
0.20319984
0.026023992
0.027421583
0.18210335
0.17993505
0.11039138
-0.26684596
0.11571126
0.035433046
0.033327753
0.085503638
0.028222705
0.04764475
-0.11948238
0.054430034
0.013094857
0.012307168
0.21345174
-0.056001256
0.050289295
0.020630748
0.14038024
-0.062412096
-0.27805627
-0.028090768
0.025683869
0.09207655
0.042140058
0.18135187
0.0056821335
-0.21593574
0.010996874
0.016405245
0.038919683
0.32772668
0.082326457
0.20728987
0.21964203
0.0012677318
0.29613986
-0.32675395
0.22587073
0.011681589
0.034500085
0.041581288
0.014276926
0.029139515
-0.0067388058
0.061734197
0.0089360226
0.098977463
-0.023061934
-0.16357609
0.24648957
0.084626048
0.095769414
0.012923464
0.022794755
0.26076989
0.013136571
0.01936979
0.25082048
0.25162851
0.12346288
-0.11966965
0.049311172
-0.36313005
-0.25819359
0.12089367
-0.3551628
-0.1248849
0.23559538
0.11597733
0.10311235
0.027903727
0.008861935
0.033584758
0.082585359
0.29889741
0.005967722
-0.3022605
0.030386756
0.2101518
0.038513901
-0.2900731
-0.038637268
-0.0048513181
-0.0034278328
0.021602845
-0.081086934
0.023305485
0.17411609
0.17273676
0.030996817
0.047322502
0.25935425
0.02721998
0.20057983
-0.26539
0.12284675
0.0279675
0.012682878
-0.33268223
-0.33030427
0.21175945
0.23682783
0.1291452
0.028004595
0.023891421
0.16346296
-0.021246479
0.01726495
-0.074047499
0.31793428
0.057790583
0.028245716
0.031459683
0.21347756
0.1329448
0.017851827
0.030392328
-0.046372018
0.16854073
-0.0090052661
0.012397143
0.046141978
0.059041169
0.1765284
0.20723091
0.041875732
0.054480071
0.008321956
0.017486833
0.037921637
0.0092346483
0.0047342966
0.11141518
0.2033281
0.027375949
0.039744176
0.15986152
0.33620895
0.16770048
0.054519734
-0.15643535
0.14037559
0.24010288
0.18442899
0.22653416
0.035932143
0.25904565
0.021310807
0.010268426
0.032959065
0.13065591
0.15567484
0.016931447
0.010958635
0.01310286
0.20530563
0.21565645
0.10223265
0.07188193
0.077474825
0.13678721
0.011270348
0.11277216
0.043530865
0.24169137
0.0097871513
0.050607519
0.097033419
-0.017525649
0.27996217
0.022602087
0.092836219
0.0079275268
0.042946893
0.032537646
0.20302104
0.024257514
0.016515623
0.043120621
0.0098779772
0.056446766
0.058970373
0.27262547
0.12507413
0.012529716
0.19741876
0.02644405
0.088829533
0.17531535
0.3239166
0.01973797
0.010355932
-0.2936024
0.0055574696
0.2266795
0.054043398
0.010686039
0.024107214
0.033883502
0.0019472204
0.02672698
0.02860601
0.11250834
0.037245751
0.041054722
0.02481571
0.02026088
0.10231488
0.1512739
0.11132113
0.12919854
0.23050394
-0.079364565
0.033915543
0.26264351
0.24296422
0.031844734
0.026894078
-0.094110874
0.040132765
0.037841402
-0.026092525
-0.070480838
-0.36781692
0.040036002
0.12498146
0.056506384
0.03415838
0.16790109
0.11270248
-0.021420177
0.0028513878
0.26609653
0.11312373
0.041875017
0.21119671
0.051566224
0.040745065
0.052445679
0.011340439
0.04213476
0.28128413
0.3246531
0.10997321
0.048883122
0.13755013
0.028344354
0.21556144
-0.19306638
0.026206867
0.03790985
0.059722938
0.13193394
0.035874221
0.052883172
0.036700274
0.3590188
0.0033416189
0.041441706
0.2234884
0.0026440395
0.015694142
0.037357168
0.12296783
0.036576541
0.02570779
0.036138015
0.0093473796
0.41687225
-0.11220513
0.15050663
0.20260462
0.013115291
-0.01362433
0.12127395
0.017320869
0.019219431
0.038216186
0.0071429594
0.059424571
0.037253803
0.25197579
0.012309416
0.024934321
0.012254667
0.053185249
0.042428661
0.0080905473
0.014052276
-0.35533906
0.086235697
0.16485177
-0.0037016223
-0.039691796
0.038633107
0.040726208
-0.37880244
0.18729921
0.058173708
0.19021975
0.017445465
-0.3732764
0.29108404
0.21894863
0.057796801
-0.13809218
0.021920621
0.23414873
-0.034567627
-0.0030257329
0.33586082
0.16047928
0.16252177
0.061517533
0.043328366
0.075370703
0.00063002922
0.056933086
0.043514813
0.23737492
0.21987127
-0.15905692
0.076232088
0.12471566
-0.082573299
0.008745526
0.15763359
-0.095678994
0.025321273
0.054554362
-0.090844183
0.031353925
0.055194026
0.025871437
0.037575054
0.071408952
0.39705326
0.056147092
0.0044501608
-0.13890921
0.036540674
-0.018466178
0.19351999
-0.1396251
0.029277969
0.031536546
0.19674217
0.038197404
0.12896801
0.19999956
-0.0012522442
0.030752129
0.13119347
0.16783749
0.1705914
0.011694803
0.023521383
0.016046663
-0.014869114
0.040510619
0.027435473
0.19716534
0.24093801
0.28269132
-0.058811978
0.024635571
0.22709634
0.041177445
0.17202734
0.16866307
0.061175609
0.066104864
-0.21160615
0.15682068
0.035726706
0.016422655
0.019741738
0.10612878
-0.13305162
-0.1765396
0.10945793
0.037331958
-0.0016672522
0.046105109
0.028657401
0.0036795944
0.028069243
0.20382641
0.034046076
-0.13017324
0.0021621438
0.017639417
0.059409623
0.051797479
0.13435714
0.13139493
0.014722118
0.17497453
0.17781204
0.25070981
0.047723594
0.089180483
0.16146158
0.18972945
0.20180363
0.21381907
0.22663825
0.0023461975
-0.27091264
0.034134304
0.27156926
0.033661307
0.030571767
0.062803142
0.020816189
0.024368352
0.42570165
0.037022356
0.0318611
-0.15726779
0.00011977998
0.0010643264
-0.0017732426
-0.047235414
0.041587462
0.20161174
0.20150748
-0.11063364
-0.12024666
0.0053559251
0.034188368
0.026589868
-0.042041826
-0.13920429
0.13387687
0.066344915
0.01911753
0.02783759
0.06861106
0.13011455
0.28523892
0.16651181
0.16290277
0.041711624
-0.29889708
0.023112999
0.007264034
0.10680828
0.015157771
0.025129525
0.019286054
0.026190344
-0.17456485
-0.29636355
0.033082012
0.2048429
0.15074606
0.20077177
0.022238571
0.1086685
0.066380882
0.026390499
-0.10436564
0.033417206
-0.13462346
0.060873581
-0.20580412
0.2409962
0.16791741
-0.19232664
0.23749025
0.042528913
-0.30289567
0.23252367
0.17857344
0.17844554
0.20277567
0.19151377
-0.3148248
0.018923007
0.0055000987
0.032137477
0.0095608824
-0.095925506
0.1988264
0.19039243
0.060797095
0.06434088
0.10259121
0.042391618
0.012245733
0.23132294
0.037320849
0.08428082
0.0374092
-0.3119319
0.27955334
-0.35311594
0.070323849
0.13854672
-0.3553717
0.00032913085
0.024412844
-0.26494236
-0.048133792
0.01040135
0.18684717
0.19127996
0.11424255
0.033302493
-0.15475651
0.23486974
0.27494438
0.26782199
0.17442435
0.037172137
0.18879674
0.22444771
0.28151876
0.21125733
0.32397914
0.029018682
0.20254581
0.2089043
0.014750806
0.030353944
0.044776414
0.19865529
0.24024647
0.19645536
-0.17734233
0.18087718
0.031095536
0.42527317
0.20060831
0.010493265
0.41465659
0.23730939
0.0084857777
0.065283204
-0.026014749
0.41239877
0.028637476
-0.058443939
0.22089091
0.037208748
0.31025003
0.21956046
0.22829945
0.045599463
0.0011292902
-0.020829817
0.22936783
0.42460698
0.17538343
0.039339606
0.18569239
-0.00034880055
-0.31434619
0.062004847
-0.077685474
0.42325425
-0.039269291
0.010991591
0.097826206
0.28403039
0.26786647
-0.19055756
-0.0048636599
0.039662923
0.22319929
-0.31514098
-0.072025721
0.029551618
-0.0039139237
0.18194472
0.18189401
0.033240124
-0.05005706
0.13282378
-0.13521261
0.025879734
-0.075168041
0.19769154
0.060356644
0.02864105
0.016318714
0.37965372
0.076706175
0.16585831
0.012314691
0.044459735
0.18679948
0.0012937151
0.40949835
0.036678643
0.0062791295
0.20220238
0.022650716
-0.029281606
0.019772724
-0.0066245064
0.021866985
0.096396415
0.047919135
0.011825944
0.27816442
-0.3489915
0.14581238
0.17568259
0.083691623
0.25254363
0.020572836
0.28086453
-0.088178728
0.47001519
-0.082752469
0.1047587
-0.025636038
0.35372581
-0.31501884
0.005520673
0.034034859
0.18021389
0.14735079
-0.27707449
0.19099503
0.18902244
-0.20475535
-0.16613386
0.033896413
0.064764305
0.0048329295
-0.16664846
-0.088568956
0.013718661
0.030876007
0.032548281
0.030368409
0.23027238
0.048049334
-0.23793862
0.18082854
0.10716271
0.002299231
0.14535707
0.024420554
0.025826214
0.05881512
0.13081135
-0.11361753
0.026396797
0.27937261
-0.11982043
0.035557624
0.031237689
-0.11419286
0.20096947
0.23161896
0.0023653517
-0.0043962122
0.018421159
0.22902097
0.21590807
-0.0136163
0.16340935
0.013484398
0.10374177
-0.15124969
0.036927635
0.20568913
-0.075591367
0.009770447
0.030688985
-0.20146267
0.20678489
0.13367863
-0.0034790798
0.026306804
0.027094557
-0.0047298979
0.023024213
-0.21636788
0.06420728
0.046789898
0.013033965
0.072792336
0.064117368
-0.0083173096
0.10991873
0.12174497
-0.33487009
0.036465442
0.038886954
0.083563308
-0.0090425861
0.28925577
0.039739052
0.17905772
0.043261724
0.18050116
-0.097704047
0.05225209
-0.10975184
-0.17657451
0.056176047
0.12669791
0.078978488
0.10351376
0.028390358
0.14776219
0.022125752
0.22296841
0.032735239
0.032428649
0.18783812
0.22523961
0.043984985
0.2801055
0.0041143908
0.52483405
0.030333938
-0.013708988
0.030527925
0.012907394
0.077273632
0.24465676
0.022605106
0.023439025
0.032177007
0.042521268
0.08087693
0.033738626
0.024881595
0.021200872
0.0083288107
0.27606863
0.011385516
0.21699698
0.24223687
0.22917935
0.22545726
0.20898511
0.1804496
0.0081501298
0.082769794
-0.025227199
0.027377248
0.0021644909
0.14896093
0.28323049
0.0042072013
-0.052408344
0.061466355
0.23351809
0.0440165
0.23979269
0.19583978
0.097630794
0.3169524
0.14957412
0.12922717
0.02217824
0.0091222275
0.0043285446
0.027869894
0.031241225
0.4215141
0.14224359
0.11155995
0.20317137
0.15076341
0.15480762
0.019943695
0.030218981
0.23354845
0.099009477
0.11225652
0.039551018
0.1983023
0.041606301
0.17002737
0.12177182
0.014960235
0.032869803
0.051119904
0.2213338
0.090160118
-0.010471173
0.011809511
0.047931539
-0.098116585
0.17513882
0.03553395
0.10963372
0.40580681
0.045454005
0.40289603
-0.25492173
0.055815528
0.15823133
0.038072167
0.18615353
0.027202238
0.25655732
0.048903589
0.22260318
0.030449436
0.0086851169
-0.11975641
-0.069606176
0.17258212
0.021818599
0.021714689
0.23236106
0.072864136
0.079456423
-0.032393647
0.11929373
0.21989342
0.18739819
0.044881685
0.16364242
0.12994021
-0.065614599
0.15475775
0.51831299
-0.076840201
0.066099028
0.045951682
0.37207672
0.18300544
-0.23782012
0.078495378
0.023363801
0.10597943
0.068916491
-0.044812588
0.026818446
0.19014961
-0.041487346
0.13498077
0.048221939
0.045903067
0.019973
0.028446776
0.046116707
-0.0098360474
0.0078392845
0.18986161
0.032444906
0.14330105
0.11735972
0.24003239
0.20805535
0.2835293
0.22495047
-0.10671327
-0.070394735
-0.080199098
-0.0014107142
0.040081076
-0.1435568
-0.06384976
0.088784928
0.093431018
0.055719491
0.23157724
-0.034637578
0.0094660185
0.007128188
0.1319972
-0.14839338
0.12773314
0.032514868
0.039309085
-0.15257408
0.023410137
0.030608369
0.02492767
0.14529317
0.19192579
0.17493778
0.48457565
0.048478264
0.020656232
0.14030318
0.031058869
-0.14884749
-0.076061318
-0.052554105
-0.037092313
0.07188159
0.27736833
0.35337209
-0.18060488
0.020893841
0.24451355
-0.20991774
0.029673282
0.075952664
0.013012227
-0.23099848
0.19829256
0.15038914
0.18834665
0.011009889
-0.012023398
0.021364443
0.22610183
0.31465401
0.014851551
0.16571134
0.32829243
0.13864989
0.083187719
0.027195717
0.26194308
0.022155999
0.025514495
0.037075147
0.022927787
0.12962028
-0.33600799
0.45868687
0.017184787
-0.27234583
0.024285872
0.037489255
0.3520228
-0.064866893
-0.22045033
0.036375777
0.067358156
0.018295299
0.058414488
0.16952379
0.028823292
0.045153366
-0.13990158
0.085901304
0.21726108
0.30132611
0.0081394455
-0.14820516
0.2323325
0.14108706
0.15132234
0.028222773
-0.20953081
0.012258107
0.033432295
0.1395138
0.0068009754
0.019635488
0.18596716
0.24128194
0.1912251
-0.06655035
0.016417533
0.074025583
-0.01859098
0.037612268
0.30516723
-0.19057707
0.0064704727
0.23045685
0.020492032
0.24366841
0.048031334
0.11322801
0.1998706
0.34712829
-0.31237293
0.092600209
0.026371413
0.032581336
0.008045046
-0.31033719
0.015821764
0.20654368
-0.10990467
0.023842088
0.19498658
0.029043146
0.060460423
-0.15130152
-0.20315235
0.026291504
0.035940361
0.15861981
0.030272983
0.27750634
-0.1168293
-0.011494858
-0.14275911
0.019215255
-0.32540126
0.028592895
0.095758324
0.20435151
0.047279789
0.16646989
0.16790947
-0.012068411
0.029486998
-0.093104724
0.011513337
0.02379752
-0.128634
0.055699008
0.03674693
0.030468037
0.026862845
-0.16003159
0.027723229
0.38874981
-0.15582917
0.27976911
0.049245806
0.023683104
0.24602569
0.036369601
0.026894901
-0.2659498
0.043591098
0.45689317
0.15030914
-0.12114968
-0.016230271
0.2039148
-0.26347159
0.084663121
0.14835132
0.29273019
0.04404433
0.059619681
0.022969223
0.25491691
0.07706475
0.022501657
0.034769461
-0.060429108
0.0020617315
0.17368436
0.043098598
0.092484732
0.15383003
0.026573704
0.082859783
0.52696974
0.14100425
0.0010432515
-0.13927611
0.064528498
0.18478372
0.07156912
0.39563323
0.032983063
0.061780995
-0.033966377
0.0039378103
-0.050889083
-0.083112358
0.05077656
0.0022762604
0.066812701
0.022197284
0.0040555717
0.027430545
0.17707286
0.061988942
-0.12137551
0.48237079
-0.083624423
0.22458399
-0.076939345
0.21107323
0.19811305
0.033585076
0.31244212
-0.22013022
0.080283942
0.20082649
0.024402746
0.025066941
0.1712288
0.025949177
0.032151707
-0.17738055
-0.17528846
0.040069874
0.029892022
0.026127069
0.018335688
-0.014905061
0.020469925
0.027082897
-0.13095638
0.038189254
0.056189568
0.028150329
0.0012416911
0.057576769
0.087565164
0.12150668
0.025311861
0.18604989
-0.27770473
0.24714187
0.020785787
-0.27849774
0.23617931
0.056259287
-0.27595216
0.034344069
0.049273964
-0.075195098
0.20351822
0.031896349
-0.22298441
0.00066668055
0.27978951
-0.012866879
0.16323637
0.0076770803
0.10968443
-0.21867646
-0.12200759
0.020925843
-0.29606094
0.01254699
0.065500532
-0.064138025
0.21915918
0.10662561
0.024633244
0.20101966
0.0356232
-0.065173138
-0.05824689
0.039332843
0.029613082
0.082061807
0.029949597
0.042781416
0.50499015
0.030019414
0.35203671
0.053335379
0.37520552
-0.073541795
-0.16089195
0.038898944
0.19013552
0.20263534
0.26021205
-0.00087551314
0.0076711131
0.26967528
0.2058446
0.019159606
-0.21002573
0.025453435
0.2471761
0.19531967
0.0050499432
0.057288334
0.026415254
-0.0015448154
0.12167962
0.19037152
-0.17763813
-0.27143132
0.15921749
-0.31529562
0.19240965
0.11993187
0.052868906
0.027250347
0.15642452
0.012947042
0.39517464
0.13171107
0.023444436
0.014251718
0.24917768
0.30782247
-0.29434004
0.11340864
-0.0028173511
-0.060517875
0.46484268
0.040968048
0.15300182
0.20177213
0.033980445
0.0069008297
0.048682803
-0.36260178
0.23540675
0.007231462
0.029611825
-0.06922406
0.18371308
0.0095589051
-0.029289105
0.03400688
0.017129209
0.030503511
0.042555936
-0.19673339
-0.10260063
0.044340791
0.0079139209
0.1479254
0.10623837
0.24558228
0.09707979
0.102356
-0.21393435
0.0010831146
0.21587425
0.061481689
-0.097044319
0.11659228
0.0046178191
-0.22919374
0.035415323
-0.23734805
-0.14424982
0.033761535
0.21774626
0.21943896
0.026309121
-0.14956699
0.0055936775
0.025355421
-0.17599906
0.26105265
-0.34934423
0.22085231
0.26208019
0.0091317694
0.34088581
0.46464375
0.19946837
0.041658104
0.036837441
-0.11964521
0.057871056
0.27382158
0.173423
0.062653948
0.082140295
0.31969969
0.28173759
0.015532521
0.0024419561
-0.11313505
0.040249172
0.27863634
0.15752481
0.16135249
-0.13833124
0.053710916
0.071440231
0.28579729
-0.34690632
0.027892169
0.041634109
0.068884138
0.34363686
0.010365625
0.040084656
0.048611638
0.2177337
0.045694423
0.0081241729
-0.15049727
0.018677207
0.041243091
-0.14743888
0.046606779
-0.18278867
0.034296233
-0.33063624
0.11535821
0.015993127
0.18447699
-0.061878381
0.035946429
0.0055031077
0.01803655
0.032198036
0.055194031
0.18084312
0.011442678
0.18444276
0.20031835
-0.10670915
-0.17772898
-0.050094162
0.0091466899
0.012493809
0.0053987689
0.045063581
0.01589422
0.18706825
0.057877304
0.017696113
0.11646068
0.25853157
0.11105746
0.31726845
0.025099713
0.025682375
-0.33355246
0.21217843
-0.35488063
0.25038781
0.013071202
0.014727068
0.072918758
0.10763773
0.050668903
-0.34096352
0.031609226
0.19819746
0.024541205
0.22566702
0.014686006
0.044393848
0.017737535
0.029410291
0.26523962
0.12436301
0.088340855
0.09706361
0.19484146
0.041366511
0.030362342
0.015419216
0.024230283
0.031137895
0.40176145
0.0097871213
0.0052266631
0.019855554
0.23673676
-0.025866919
-0.0015829051
0.11828554
0.20938479
-0.35433055
0.027921072
0.017611638
0.21706125
0.029019189
0.18780457
0.024142218
0.0016947538
0.040989586
0.23154618
0.091072369
0.41394933
-0.23257455
0.05149184
0.070558983
-0.083962685
-0.0840579
0.40657988
0.22671578
-0.32167735
-0.077864538
0.031940429
0.020739445
0.25735057
0.0033134055
0.23094806
0.3012148
0.0056035089
-0.044177893
0.28029479
-0.31109347
0.15779527
0.035173767
0.20723267
-0.19469819
0.0037912464
0.017014465
0.16002533
0.16003797
-0.10513203
-0.12159581
0.0087859066
0.039470843
-0.15870149
0.01668637
0.0050868316
0.024053676
-0.15818719
-0.0065352
0.020131449
-0.0056483416
0.03156706
0.026383028
0.1607961
-0.028377993
-0.17538057
0.049907973
0.48009683
0.24803371
0.16430126
0.16205911
0.052764699
0.011588095
-0.053983824
0.050204445
-0.058843818
0.20046372
0.19804581
-0.24565551
-0.058271138
0.01099345
0.20575795
-0.096173517
-0.34911564
0.39575237
0.33470153
0.12572392
0.50791965
-0.20752726
-0.0692128
0.01391298
-0.3430272
0.45923412
0.1655875
-0.16914836
-0.073463403
0.13562058
0.0074616921
0.03966167
0.24215399
0.43902412
0.011405513
-0.055020362
0.054960534
0.085263194
0.10428506
0.17850787
-0.17666502
0.048008156
-0.028903083
0.16635038
0.03034317
-0.10319913
0.073074947
0.13737995
0.025776963
0.030966112
-0.12328212
0.17505461
0.12986554
-0.28387169
0.20524645
-0.22319998
-0.12175778
0.037679225
0.031860492
0.0024765929
0.24092086
0.2290532
-0.052714103
0.20401398
0.47681488
0.1120199
0.09514477
0.1834139
0.023498406
0.20924913
0.3757225
0.035659528
0.014641974
0.073426193
-0.22668472
-0.011250332
0.21084663
0.032903468
0.010117521
0.17772584
-0.026373133
0.070817966
0.35103363
-0.32194044
-0.0017250253
0.14001065
0.07819425
0.029838246
0.017201048
0.13694995
-0.17759351
0.23612488
0.092080937
0.26503449
-0.17335481
0.025638525
0.26962301
-0.25563545
-0.32512145
0.18474631
-0.124112
-0.37681728
-0.22438701
-0.23646341
-0.23506155
0.30417894
0.032766039
-0.088845967
0.023984303
0.01139646
0.054626152
0.10463596
0.035694914
-0.17390974
0.025781552
-0.015725124
0.070548226
0.037545942
-0.082099248
0.052884459
0.25835939
0.064087529
0.24980559
0.11312917
0.11041893
0.24532838
0.0072741837
-0.36787046
0.077045995
0.1081145
-0.14366577
0.033749885
0.066491965
0.059455974
0.031223339
0.15514817
0.15220111
0.2623808
0.020584195
0.0075651712
0.17919249
0.043734783
0.029409516
0.029391301
-0.025647641
0.31525322
0.13894002
0.064374325
0.1061396
0.031002928
0.0072542166
0.02982455
0.47493059
0.015154249
-0.38955283
-0.17615626
0.37903553
0.017000758
0.03927814
0.13697227
0.1983
0.30106666
0.027841082
0.057500813
-0.048306166
0.23568162
0.17172412
0.21097524
0.035678437
0.0035244775
0.24495787
0.021585674
0.026474302
0.055409903
0.059994678
0.014088763
0.064944887
0.38642269
0.027080407
0.021062373
-0.23842445
0.1194686