/*--------------------------------*- C++ -*----------------------------------*\
| =========                 |                                                 |
| \\      /  F ield         | foam-extend: Open Source CFD                    |
|  \\    /   O peration     | Version:     4.1                                |
|   \\  /    A nd           | Web:         http://www.foam-extend.org         |
|    \\/     M anipulation  |                                                 |
\*---------------------------------------------------------------------------*/
FoamFile
{
    version     2.0;
    format      ascii;
    class       volVectorField;
    location    "0.5";
    object      U;
}
// * * * * * * * * * * * * * * * * * * * * * * * * * * * * * * * * * * * * * //

dimensions      [0 1 -1 0 0 0 0];

internalField   nonuniform List<vector> 
4242
(
(0.057493265 0.052263755 1.4879116e-19)
(0.17380031 0.15779169 1.0122499e-21)
(0.30017695 0.2710925 -1.700449e-19)
(0.43356528 0.38906443 1.5580873e-19)
(0.56896549 0.50634895 3.0612377e-21)
(0.69944882 0.61511955 7.241651e-22)
(0.81666911 0.70565934 0)
(0.91037023 0.76682912 7.1950361e-20)
(0.97548824 0.79305994 -1.1671517e-19)
(1.0133185 0.78622565 4.3454169e-20)
(1.0307468 0.75472385 -2.1241414e-20)
(1.0362879 0.70871489 1.7459573e-20)
(1.0365791 0.65576597 5.6774053e-21)
(1.0358602 0.59960878 -1.4074388e-21)
(1.0369226 0.54186434 5.0779577e-21)
(1.038325 0.48736977 0)
(0.06315206 0.042192802 0)
(0.19227802 0.12855867 -2.6281056e-21)
(0.33355589 0.22319633 3.1615672e-19)
(0.48403715 0.32398147 -2.8818953e-19)
(0.63850217 0.42712657 -5.4155076e-21)
(0.7891689 0.52683211 2.0613353e-19)
(0.92551884 0.61487941 -1.0457442e-20)
(1.0362138 0.68155939 -2.649246e-19)
(1.113129 0.71881941 2.451824e-20)
(1.1553676 0.7243395 7.643853e-20)
(1.1700232 0.7032705 0)
(1.1681171 0.66503596 -5.5598606e-21)
(1.15911 0.61811583 -2.894655e-21)
(1.1486846 0.56743768 -1.6376224e-20)
(1.1396937 0.51519415 1.9212408e-20)
(1.1314474 0.46463406 2.4669066e-21)
(0.066562226 0.032897492 -1.9644964e-22)
(0.20338892 0.1007392 -9.7992953e-19)
(0.35409716 0.17601876 4.6127719e-19)
(0.51613413 0.25751322 -3.6887746e-21)
(0.68465697 0.34276204 -3.6090376e-19)
(0.85193776 0.42770296 3.0936707e-19)
(1.0072686 0.50639125 -4.5622732e-21)
(1.1381866 0.57126495 7.3120363e-21)
(1.2337858 0.61470774 -2.3143291e-21)
(1.2893246 0.63190044 -8.5265241e-21)
(1.308022 0.62350043 7.7792984e-20)
(1.3022444 0.59653103 -5.7277836e-20)
(1.284659 0.55900205 -7.5866996e-20)
(1.2637052 0.51649797 6.3464065e-20)
(1.2433489 0.47220123 -4.9849239e-21)
(1.2247745 0.4286314 -1.1107732e-20)
(0.064756682 0.022161506 -1.081194e-21)
(0.19932123 0.068645504 -1.2883577e-21)
(0.34950787 0.12171882 -2.8958545e-19)
(0.51366828 0.18107751 2.6973567e-19)
(0.68792184 0.24552794 -3.8582978e-21)
(0.86535377 0.31265322 2.0057358e-19)
(1.0356396 0.37843421 -1.5586426e-19)
(1.1857846 0.43720373 -2.5938488e-19)
(1.3027703 0.48241806 1.5336845e-20)
(1.3779708 0.50856027 3.2101303e-19)
(1.4110326 0.51358222 -1.2171209e-19)
(1.4112238 0.50055894 0)
(1.3917415 0.47520663 5.9641151e-21)
(1.3640707 0.44307548 -4.3033598e-20)
(1.3352137 0.40891678 2.0595788e-20)
(1.3065856 0.37513991 -3.4011826e-20)
(0.057404915 0.011666563 1.0812877e-21)
(0.17876356 0.036940428 -3.4881246e-19)
(0.31712687 0.067455565 3.2934144e-19)
(0.47229286 0.10366172 -2.1945088e-21)
(0.64205861 0.14550144 5.9605085e-21)
(0.82114039 0.19214475 -1.7988063e-21)
(1.000354 0.24152354 -1.925904e-19)
(1.1667929 0.29001363 1.6395943e-21)
(1.3058832 0.33263028 1.1580314e-19)
(1.4055151 0.36409746 -8.8255653e-20)
(1.4607547 0.38069079 7.1914858e-20)
(1.4764493 0.38208358 0)
(1.4643547 0.37103102 3.7852121e-20)
(1.4375415 0.35158343 -2.6439491e-20)
(1.4056306 0.32766736 7.1635753e-21)
(1.3719336 0.30158669 0)
(0.045910398 0.0032930354 -1.538732e-19)
(0.14532877 0.011142828 9.2097308e-20)
(0.26207214 0.022373999 1.7227581e-19)
(0.39760695 0.03778995 -1.5639811e-19)
(0.55193112 0.058056304 -1.5588059e-21)
(0.72228175 0.083582108 6.1177352e-20)
(0.90177713 0.11408907 5.1726292e-20)
(1.0787915 0.14813308 -1.3207745e-21)
(1.238174 0.18283144 -1.5396252e-21)
(1.364893 0.21416272 -7.3345046e-20)
(1.4491025 0.23803437 7.4741218e-20)
(1.4900312 0.25182156 -2.7777649e-21)
(1.4956346 0.25517125 -7.016957e-21)
(1.478381 0.24965821 -1.4871383e-20)
(1.4498626 0.2379261 -9.5878609e-24)
(1.4165716 0.22234231 5.7595002e-21)
(0.032069246 -0.0018115047 -7.5039613e-20)
(0.10407756 -0.0051190045 -8.9916752e-20)
(0.19232746 -0.0070435451 2.5433432e-19)
(0.29978193 -0.0068948805 -1.5399156e-19)
(0.42871248 -0.003880244 7.017721e-20)
(0.57940373 0.0029769152 7.1739101e-24)
(0.74838504 0.014606877 9.9847483e-20)
(0.92688896 0.031485194 -4.4032601e-20)
(1.1008506 0.05309995 -5.160445e-21)
(1.2535954 0.077577881 2.2954963e-20)
(1.3708227 0.10187408 -3.4858774e-20)
(1.4455307 0.12264265 2.7180748e-20)
(1.4798817 0.13728136 -7.3509154e-21)
(1.483069 0.14460808 -2.9489989e-20)
(1.4666484 0.14498011 1.0961132e-20)
(1.4396886 0.13920988 1.340105e-20)
(0.0179649 -0.003305794 -1.6175458e-21)
(0.061124887 -0.010526906 3.3779199e-19)
(0.11800894 -0.018033471 -3.1706319e-19)
(0.1925509 -0.025607515 2.8535795e-19)
(0.28885584 -0.032889019 -2.5713703e-19)
(0.41016998 -0.039129284 0)
(0.55704334 -0.04312624 1.8551883e-19)
(0.72506149 -0.043303478 -1.5065492e-19)
(0.90338486 -0.038133564 -3.3910843e-21)
(1.0758363 -0.02690432 0)
(1.2251255 -0.010389509 -1.3696255e-20)
(1.338375 0.0090910136 6.8171535e-21)
(1.4108379 0.028291442 -4.4381531e-20)
(1.4460372 0.044052568 8.0443348e-20)
(1.4527902 0.054388449 -5.5029231e-20)
(1.4410422 0.058750096 -1.4260777e-20)
(0.0056842828 -0.0017118954 1.0461741e-21)
(0.022823267 -0.0063380597 -1.2487045e-21)
(0.050051624 -0.012159036 0)
(0.091513145 -0.019548449 5.9340626e-21)
(0.15225308 -0.028892978 3.3595791e-21)
(0.23767775 -0.040308733 2.02886e-19)
(0.35211127 -0.053341216 -1.7798063e-19)
(0.49634639 -0.066593209 0)
(0.66489745 -0.077625395 7.2356347e-22)
(0.84492134 -0.083552652 -1.0597692e-20)
(1.0187057 -0.082268537 9.0121374e-21)
(1.1690344 -0.073549931 5.9808621e-21)
(1.2843186 -0.059350262 1.0116092e-20)
(1.3608991 -0.043137535 6.3023146e-20)
(1.4022073 -0.028442139 -7.3219982e-20)
(1.4162455 -0.017154078 3.8315761e-20)
(-0.0033160049 0.00178036 0)
(-0.0061495881 0.0040746226 5.3106873e-19)
(-0.003030295 0.0052199915 -9.9712777e-19)
(0.0096805261 0.0043857734 4.5147069e-19)
(0.036982018 0.00048609127 -3.3699976e-21)
(0.085112161 -0.0075839179 -1.0945015e-20)
(0.16066895 -0.020615813 2.9941278e-19)
(0.26922096 -0.038740339 -2.4660275e-19)
(0.411934 -0.060531383 -1.8091519e-19)
(0.58241503 -0.082588422 1.6412018e-19)
(0.7662414 -0.10047371 0)
(0.9446644 -0.11066988 -1.0961217e-19)
(1.1004784 -0.1121005 5.9134513e-20)
(1.2223688 -0.10632148 0)
(1.3063927 -0.096224609 0)
(1.3560518 -0.083302089 0)
(-0.0080793979 0.0054377062 7.7735145e-19)
(-0.022497924 0.015494244 -4.6601958e-19)
(-0.034946842 0.02524515 0)
(-0.043083341 0.033858818 -2.9674067e-21)
(-0.043284383 0.040123766 -3.4846473e-19)
(-0.029970943 0.042257838 3.1732475e-19)
(0.0049977574 0.037796067 2.5215912e-19)
(0.071353194 0.024318489 4.9876715e-21)
(0.17697451 0.0012062594 -1.9121381e-19)
(0.32124787 -0.028531113 9.6056846e-21)
(0.49699558 -0.061801589 0)
(0.68804604 -0.094074402 -1.7992981e-19)
(0.87385875 -0.1204709 2.3109105e-20)
(1.0361468 -0.13825057 1.1003247e-19)
(1.1631611 -0.14685389 0)
(1.2541817 -0.14086041 1.4386604e-20)
(-0.0077902864 0.0071925881 -1.0191914e-22)
(-0.023356468 0.021732056 8.4064094e-19)
(-0.039775555 0.037414641 -3.9819681e-19)
(-0.056081795 0.053905113 -3.6244448e-19)
(-0.070540965 0.070633496 3.2188672e-19)
(-0.08017633 0.086698936 -2.8985051e-19)
(-0.08000747 0.10068209 2.459617e-19)
(-0.061908797 0.1100799 1.9942395e-19)
(-0.012662037 0.10976307 -1.83596e-19)
(0.085788716 0.091635283 0)
(0.23923749 0.052933675 0)
(0.42508179 0.00066753052 0)
(0.62373202 -0.057930116 1.8925776e-20)
(0.81496325 -0.11188374 0)
(0.98092456 -0.15382271 9.2324436e-20)
(1.1136327 -0.1736009 -1.5950429e-19)
(0.053021487 -0.058198374 -4.2058166e-20)
(0.15909175 -0.17421237 -5.6959472e-22)
(0.27120169 -0.29651438 5.0040188e-20)
(0.3854806 -0.41979457 -4.5824655e-20)
(0.49656698 -0.53699996 -1.7930783e-21)
(0.59807093 -0.63980911 5.8907211e-22)
(0.68372462 -0.71971389 0)
(0.74909446 -0.76998095 -4.8023015e-20)
(0.79336673 -0.78817408 9.264067e-20)
(0.81997811 -0.77752028 -3.9527099e-20)
(0.83517567 -0.74541337 4.2764691e-20)
(0.84521645 -0.69987927 -3.5165549e-20)
(0.85437746 -0.64681575 -6.5308975e-21)
(0.86495769 -0.58947509 9.1457869e-21)
(0.87736381 -0.53000344 2.3241483e-20)
(0.88773329 -0.47395597 0)
(0.037069104 -0.054990889 0)
(0.11174056 -0.16451532 1.8469126e-21)
(0.19255573 -0.27951813 -2.2521766e-19)
(0.27713999 -0.39516909 2.0522145e-19)
(0.36174115 -0.50460467 3.6964161e-21)
(0.44159822 -0.59930944 -1.6169844e-19)
(0.51184531 -0.67063758 -3.3753042e-21)
(0.56905812 -0.71239037 2.4019512e-19)
(0.61273943 -0.72343139 -9.2706352e-21)
(0.64558525 -0.7083833 -8.5931941e-20)
(0.67206057 -0.67528356 0)
(0.6962841 -0.63182335 9.2785595e-21)
(0.72079619 -0.58304941 9.7119704e-21)
(0.7466983 -0.53138847 7.0888501e-20)
(0.77403231 -0.4778904 -9.2841566e-20)
(0.80097758 -0.42419735 -1.3652388e-20)
(0.024356928 -0.048685697 5.3949075e-22)
(0.073651739 -0.14551533 8.2799534e-19)
(0.12778723 -0.24695076 -3.8952405e-19)
(0.18551332 -0.34859479 3.1993859e-21)
(0.24471869 -0.44424898 3.1160324e-19)
(0.30268506 -0.52630135 -2.6689336e-19)
(0.35658806 -0.58715894 4.1771057e-21)
(0.40442346 -0.62160333 -7.0118524e-21)
(0.44592834 -0.62904015 2.5118613e-21)
(0.48273763 -0.61387154 9.5180394e-21)
(0.51747956 -0.58323493 -1.0897612e-19)
(0.55247338 -0.54376552 7.8748652e-20)
(0.58905014 -0.49979377 1.46787e-19)
(0.62774835 -0.45352457 -1.239841e-19)
(0.66834258 -0.40621509 1.8015159e-20)
(0.70838284 -0.35960432 5.7611409e-20)
(0.013187641 -0.037772997 9.7003748e-22)
(0.040382013 -0.11292552 1.1554772e-21)
(0.071611899 -0.1916541 2.5591571e-19)
(0.10666751 -0.27053009 -2.3860371e-19)
(0.14483944 -0.34469826 3.4906207e-21)
(0.18506818 -0.40817796 -1.8324368e-19)
(0.22609823 -0.45501155 1.4251347e-19)
(0.26690317 -0.48114459 2.5601129e-19)
(0.30719776 -0.48618977 -2.458131e-21)
(0.34760268 -0.47367501 -3.5075825e-19)
(0.38923346 -0.4492311 1.3822659e-19)
(0.43302915 -0.41805158 0)
(0.47942281 -0.38350068 -9.6492009e-21)
(0.52845228 -0.34730637 7.8598396e-20)
(0.57935266 -0.31055777 -3.7385859e-20)
(0.62893398 -0.27458133 8.7816759e-20)
(0.0049050715 -0.022667709 -9.702017e-22)
(0.01570191 -0.068234659 3.1720052e-19)
(0.029906222 -0.11659181 -2.9991166e-19)
(0.048099567 -0.16583424 1.9766192e-21)
(0.070653248 -0.2130598 -5.4184577e-21)
(0.097778193 -0.25442223 1.6582692e-21)
(0.12941224 -0.2857577 1.8428141e-19)
(0.16527756 -0.30384389 3.1935837e-21)
(0.20510781 -0.30782106 -1.1473027e-19)
(0.24882922 -0.2997139 9.7373068e-20)
(0.29649491 -0.28336994 -7.9265123e-20)
(0.34805543 -0.26256592 0)
(0.40330589 -0.23976708 -5.2927571e-20)
(0.46192315 -0.21608966 3.7268887e-20)
(0.52228862 -0.19204907 -1.2939869e-20)
(0.57850963 -0.16869579 0)
(0.066563571 -0.032896859 0)
(0.20340798 -0.10075116 4.9323061e-19)
(0.35415575 -0.17606347 -9.2325059e-19)
(0.51626084 -0.25761562 4.2366689e-19)
(0.68488455 -0.34295013 3.2461638e-21)
(0.85229858 -0.4280047 1.4385146e-21)
(1.0077916 -0.5068345 2.4632572e-19)
(1.1388789 -0.57186649 -2.1053089e-19)
(1.2346261 -0.61546871 -1.4792193e-19)
(1.2902811 -0.63281853 1.0903012e-19)
(1.3089913 -0.62451881 0)
(1.303027 -0.59755376 -4.4603633e-20)
(1.2850539 -0.55993483 3.5535431e-20)
(1.2635938 -0.51727525 0)
(1.2428656 -0.47269966 0)
(1.2242493 -0.42866797 0)
(0.00082079075 -0.0077344713 1.383713e-19)
(0.0034368584 -0.023778438 -8.2965439e-20)
(0.0089086956 -0.041533097 -1.5538744e-19)
(0.018248173 -0.060599851 1.4152698e-19)
(0.032528948 -0.080103035 1.6970734e-21)
(0.052902769 -0.098491225 -5.5979532e-20)
(0.080297238 -0.11355326 -4.8616682e-20)
(0.11507709 -0.1229463 3.2192832e-22)
(0.15684499 -0.12528419 3.9200859e-22)
(0.20455817 -0.12105471 7.6004751e-20)
(0.25693638 -0.11233091 -8.107997e-20)
(0.31283387 -0.10142069 9.312528e-22)
(0.37133026 -0.089770305 7.0121494e-21)
(0.43160612 -0.077816339 1.9274017e-20)
(0.49265135 -0.065382494 1.3787609e-23)
(0.55272813 -0.052450676 -1.0141622e-20)
(0.00082045042 0.0076947572 6.8688216e-20)
(0.0034398034 0.023665464 8.2346493e-20)
(0.0089266872 0.041348934 -2.3330305e-19)
(0.018296197 0.060349591 1.4159145e-19)
(0.032624541 0.079793992 -6.4739463e-20)
(0.053065368 0.098130753 -6.6177464e-24)
(0.080546476 0.11314595 -9.4444835e-20)
(0.11543025 0.12249281 4.1145912e-20)
(0.15731377 0.12478373 4.2441001e-21)
(0.2051442 0.12050936 -2.4764596e-20)
(0.25762604 0.11174795 3.6016494e-20)
(0.31359719 0.10081315 -3.1400679e-20)
(0.37212476 0.089159258 7.0119455e-21)
(0.43235365 0.077240527 3.7691545e-20)
(0.4931178 0.064946487 -1.454195e-20)
(0.55234795 0.052473542 -2.0462375e-20)
(0.0049248917 0.02276376 1.5016759e-21)
(0.015762771 0.068509119 -3.1955845e-19)
(0.03001558 0.11703559 2.9995301e-19)
(0.048263791 0.16642303 -2.7013836e-19)
(0.070876524 0.21375052 2.4353848e-19)
(0.098062186 0.25515254 0)
(0.12975606 0.28645115 -1.7866799e-19)
(0.1656778 0.30442096 1.4564562e-19)
(0.20555711 0.30821084 3.2211894e-21)
(0.24931098 0.29985826 0)
(0.29697543 0.28321697 1.4180522e-20)
(0.34848181 0.26205854 -7.2654209e-21)
(0.40360994 0.23883146 5.2088033e-20)
(0.46197798 0.21461106 -9.971599e-20)
(0.52175706 0.18981348 6.9007805e-20)
(0.57688849 0.16537686 1.9863661e-20)
(0.013209899 0.037851838 -9.6962549e-22)
(0.040441883 0.11314977 1.1549955e-21)
(0.071692543 0.19202035 0)
(0.10674489 0.27102636 -5.172063e-21)
(0.14488382 0.34530209 -2.834688e-21)
(0.18504552 0.40885443 -1.8307134e-19)
(0.22597175 0.45571007 1.6098826e-19)
(0.26663333 0.4817958 0)
(0.30673889 0.48670677 -1.2195878e-21)
(0.34689496 0.47396258 9.5368691e-21)
(0.38818868 0.44920011 -9.170866e-21)
(0.43152638 0.41762767 -5.0439982e-21)
(0.47737692 0.38260025 -1.125599e-20)
(0.52595355 0.34574029 -7.2186558e-20)
(0.57640182 0.30795771 8.5070711e-20)
(0.62398809 0.27092856 -4.7003435e-20)
(0.024317413 0.048620633 0)
(0.073534682 0.14533239 -4.1447021e-19)
(0.12757586 0.24666787 7.7656062e-19)
(0.18519015 0.34824318 -3.5029411e-19)
(0.24426659 0.44387011 2.8288875e-21)
(0.302084 0.52593682 8.2781408e-21)
(0.35580816 0.58683046 -2.3658563e-19)
(0.40341602 0.62128822 1.9497004e-19)
(0.44462013 0.62865824 1.4901991e-19)
(0.48103269 0.61330018 -1.3655657e-19)
(0.51526126 0.58235216 0)
(0.54961705 0.54249141 9.932758e-20)
(0.58556018 0.49805944 -5.4927436e-20)
(0.62410438 0.45114678 0)
(0.66521469 0.40315271 0)
(0.7035138 0.35768642 0)
(0.036963291 0.054839369 -4.0531262e-19)
(0.11143799 0.16408097 2.426198e-19)
(0.19205747 0.2788162 0)
(0.27645667 0.3942364 9.8147393e-22)
(0.36089248 0.50349804 1.8205903e-19)
(0.44060655 0.59809579 -1.6424898e-19)
(0.5107231 0.6693723 -1.3831323e-19)
(0.56779422 0.71108828 -6.2500462e-21)
(0.61129563 0.72204691 1.0956652e-19)
(0.64391508 0.70682289 -6.9249835e-21)
(0.67015032 0.67345641 0)
(0.69421621 0.6297008 1.230281e-19)
(0.71887225 0.58068768 -1.3859033e-20)
(0.74557684 0.52899013 -7.9310127e-20)
(0.77451088 0.476221 0)
(0.80398866 0.42466492 -9.9667873e-21)
(0.052925391 0.058091866 1.0244275e-21)
(0.15880648 0.17389171 -1.0384441e-19)
(0.27072283 0.29596802 4.9473849e-20)
(0.38481333 0.41902422 4.8371104e-20)
(0.4957286 0.5360242 -4.2230515e-20)
(0.59708976 0.63866271 4.9677617e-20)
(0.68263172 0.7184392 -4.4936903e-20)
(0.74791106 0.76861112 -4.5823198e-20)
(0.79209557 0.78671516 4.0530116e-20)
(0.81861631 0.77595396 0)
(0.83375506 0.74373442 0)
(0.84385759 0.69815265 0)
(0.85334494 0.64521426 -4.4700481e-21)
(0.86467138 0.58829633 0)
(0.8781624 0.52964759 -4.9296822e-20)
(0.8890151 0.47437102 9.2439059e-20)
(-0.0078110629 -0.0072137727 3.4736569e-19)
(-0.023435968 -0.021810485 1.7244895e-21)
(-0.039941848 -0.037575259 -3.9648277e-19)
(-0.056372314 -0.054179643 3.6449023e-19)
(-0.071005958 -0.071058764 5.3556305e-21)
(-0.080884788 -0.087313456 4.3959896e-21)
(-0.081057929 -0.10152457 0)
(-0.063457478 -0.1112001 2.0548625e-19)
(-0.015012339 -0.11126301 -3.4480518e-19)
(0.082622655 -0.093438784 1.4254792e-19)
(0.23569579 -0.054883938 -1.1811799e-19)
(0.42140684 -0.0026575547 9.6429106e-20)
(0.61990672 0.056110766 9.6445721e-22)
(0.81079884 0.11035832 -1.5586339e-20)
(0.97632572 0.15208561 -4.6788854e-20)
(1.1106563 0.1665439 0)
(-0.0081622913 -0.0054941494 0)
(-0.022767112 -0.015672877 -3.6514851e-21)
(-0.035446539 -0.025568463 4.3534929e-19)
(-0.043870756 -0.034355894 -3.9819245e-19)
(-0.04443537 -0.040834341 -8.2038111e-21)
(-0.031590217 -0.043236726 3.0543689e-19)
(0.0028303513 -0.039083112 -1.3588631e-21)
(0.068613077 -0.025920881 -4.3335937e-19)
(0.17384023 -0.0030348805 2.4023072e-20)
(0.31782477 0.02647145 1.4483662e-19)
(0.49347112 0.059526992 0)
(0.68466113 0.091629287 -1.1885942e-20)
(0.87080574 0.11784237 -1.7456144e-20)
(1.033557 0.13522491 -9.1114284e-20)
(1.1610929 0.14295489 1.2258317e-19)
(1.2513491 0.13879435 1.4492082e-20)
(-0.0034117893 -0.0018278432 -3.4267498e-22)
(-0.0064595693 -0.0042254935 -1.0538413e-18)
(-0.0036013743 -0.0054930815 4.9748329e-19)
(0.0087950535 -0.0048025611 -3.7907128e-21)
(0.035729609 -0.0010679716 -3.9815784e-19)
(0.083462456 0.0068228489 3.4256563e-19)
(0.15859295 0.019654428 -4.9168167e-21)
(0.26673899 0.037571657 8.1606875e-21)
(0.40914027 0.059175516 -5.1232435e-21)
(0.57948239 0.081088775 -1.0636458e-20)
(0.76339212 0.098875739 1.2518213e-19)
(0.94211325 0.10900438 -8.8880037e-20)
(1.0983802 0.11037593 -1.5562963e-19)
(1.2208102 0.10451402 1.3020427e-19)
(1.3054235 0.094373351 -2.015902e-20)
(1.3548613 0.083404339 -5.5891896e-20)
(0.005549641 0.0016654415 -1.0437641e-21)
(0.0224052 0.0061967533 -1.2458281e-21)
(0.04931169 0.011913204 -2.8309555e-19)
(0.090415041 0.019188698 2.6448792e-19)
(0.1507697 0.028411722 -3.7756944e-21)
(0.23580315 0.03970305 2.0235577e-19)
(0.34987757 0.05261545 -1.5676105e-19)
(0.49384059 0.065759658 -2.7706098e-19)
(0.66226531 0.076701991 5.5029806e-21)
(0.84234594 0.082556611 3.6652405e-19)
(1.0163648 0.081209831 -1.4203652e-19)
(1.1670532 0.07242977 0)
(1.2827366 0.05816749 9.6379756e-21)
(1.3596671 0.041893502 -6.9856991e-20)
(1.4012375 0.027151503 3.3537331e-20)
(1.4150759 0.016880408 -6.991938e-20)
(0.017815037 0.0032753706 1.0436144e-21)
(0.060668417 0.010435847 -3.3461783e-19)
(0.11721729 0.017877143 3.1642362e-19)
(0.19140486 0.025382057 -2.1291154e-21)
(0.2873546 0.032592216 5.8187123e-21)
(0.40834324 0.038761423 -1.7678252e-21)
(0.55496315 0.042690137 -1.9108978e-19)
(0.72284657 0.042802803 -1.4992891e-21)
(0.90118813 0.037569455 1.1647243e-19)
(1.0738133 0.02627212 -9.4044677e-20)
(1.2233921 0.0096785293 7.6370742e-20)
(1.3369694 -0.0098921999 0)
(1.4097021 -0.029184685 4.4496563e-20)
(1.4450286 -0.045024517 -3.133941e-20)
(1.4517598 -0.055424165 1.042259e-20)
(1.4397615 -0.05895975 0)
(0.031913542 0.0018008559 -1.510255e-19)
(0.10361398 0.0050875971 9.0441781e-20)
(0.19154257 0.0069894189 1.6925319e-19)
(0.29867839 0.0068154 -1.537927e-19)
(0.42731769 0.0037716572 -1.6136718e-21)
(0.57777826 -0.0031203558 6.0290922e-20)
(0.74662624 -0.014794254 5.1340277e-20)
(0.92512371 -0.03173024 -1.0474315e-21)
(1.0992136 -0.053421186 -1.2644002e-21)
(1.2521966 -0.077996887 -7.4276155e-20)
(1.3697104 -0.10241036 7.6290144e-20)
(1.4446647 -0.12330426 -2.5232545e-21)
(1.4791306 -0.13805766 -7.3402938e-21)
(1.4822378 -0.1454717 -1.5626426e-20)
(1.4655958 -0.14592333 -9.5498102e-24)
(1.4384151 -0.13943298 6.3608576e-21)
(0.045770315 -0.0032839916 -7.6308214e-20)
(0.14492108 -0.011117949 -9.1415642e-20)
(0.26139868 -0.022337102 2.5841244e-19)
(0.39668892 -0.037748287 -1.563173e-19)
(0.55081527 -0.058021835 7.120636e-20)
(0.72104367 -0.083572776 7.1512573e-24)
(0.9005174 -0.11412919 1.0040373e-19)
(1.0776216 -0.14825183 -4.4544088e-20)
(1.2371929 -0.18305896 -5.3824019e-21)
(1.3641599 -0.21452549 2.2287998e-20)
(1.4486044 -0.23854577 -3.4445157e-20)
(1.4896659 -0.25247041 2.6138374e-20)
(1.4952265 -0.25592463 -7.0153157e-21)
(1.4777141 -0.25046688 -2.7836118e-20)
(1.4488445 -0.2387636 1.0267982e-20)
(1.4154072 -0.22245435 1.1500367e-20)
(0.057300056 -0.01164543 -1.6700758e-21)
(0.17846722 -0.036883898 3.5150714e-19)
(0.3166533 -0.067372574 -3.2945097e-19)
(0.47167478 -0.10356721 2.9540097e-19)
(0.64135006 -0.14541758 -2.6581169e-19)
(0.82041511 -0.19210126 0)
(0.99969687 -0.24155574 1.8666342e-19)
(1.1662842 -0.29015764 -1.5185402e-19)
(1.3055793 -0.33291647 -3.0832935e-21)
(1.4054305 -0.36454658 0)
(1.4608273 -0.38129841 -1.2345833e-20)
(1.4765345 -0.38281048 5.6764885e-21)
(1.464261 -0.3718269 -3.6474965e-20)
(1.4370496 -0.35237992 6.6372292e-20)
(1.4047254 -0.32842315 -4.3039749e-20)
(1.3709636 -0.30169762 -1.0321948e-20)
(0.064702245 -0.022142213 1.0820383e-21)
(0.19917677 -0.068598993 -1.289363e-21)
(0.34929436 -0.12166021 0)
(0.51342056 -0.18102882 -1.4996278e-21)
(0.68768826 -0.2455183 -3.2443627e-21)
(0.86519166 -0.31271739 1.8979411e-19)
(1.0356061 -0.37860878 -1.6703398e-19)
(1.1859224 -0.43752006 0)
(1.3030947 -0.48289556 1.2632714e-20)
(1.3784667 -0.50920755 8.5161637e-21)
(1.4116046 -0.51436868 7.8986206e-21)
(1.4117003 -0.50141581 -1.4455549e-20)
(1.3919394 -0.47608092 8.0051913e-21)
(1.3637698 -0.4438637 4.0724227e-20)
(1.3345049 -0.40954049 -4.3245499e-20)
(1.3058266 -0.37520751 2.2251013e-20)
(0.063211208 -0.04223077 5.7010036e-19)
(0.19245936 -0.12868168 -3.4127934e-19)
(0.33387269 -0.22342165 0)
(0.48450044 -0.3243256 -1.7263826e-21)
(0.63911676 -0.42760244 -2.4525094e-19)
(0.78992762 -0.52744498 2.2187732e-19)
(0.92645478 -0.61566214 1.6158718e-19)
(1.0373061 -0.68250695 -8.5815603e-21)
(1.1143384 -0.7199114 -1.1343545e-19)
(1.1566306 -0.72553853 5.8576533e-21)
(1.1712353 -0.70451523 0)
(1.169112 -0.66623642 -5.6658627e-20)
(1.1596876 -0.61915589 1.9056222e-20)
(1.1487435 -0.56817272 2.6740967e-20)
(1.1393748 -0.51544138 0)
(1.1307424 -0.46437639 -9.3129156e-22)
(0.057575325 -0.052336507 -1.0279597e-21)
(0.17404522 -0.15801328 3.608837e-19)
(0.30059528 -0.27147792 -1.7083257e-19)
(0.43416133 -0.38962488 -1.5421754e-19)
(0.56973306 -0.50708729 1.3616896e-19)
(0.70036695 -0.61602575 -1.1862999e-19)
(0.81773919 -0.70673619 1.0276202e-19)
(0.91156277 -0.76804511 6.9064684e-20)
(0.97677319 -0.79438386 -6.1516036e-20)
(1.0146546 -0.78763037 0)
(1.0320524 -0.75617182 0)
(1.0374047 -0.71012615 0)
(1.0372907 -0.65699612 -2.3765596e-21)
(1.0360132 -0.60047891 0)
(1.0364887 -0.54236585 -1.0137764e-20)
(1.0371346 -0.48765428 2.354156e-20)
(-0.0075721615 0.0082082125 3.3979219e-19)
(-0.023545528 0.025762979 1.5861935e-21)
(-0.04144989 0.046144409 -3.8719971e-19)
(-0.06101848 0.069374356 3.5603032e-19)
(-0.081551776 0.095159854 4.9286124e-21)
(-0.10161908 0.12262717 4.4048689e-21)
(-0.11876304 0.15003472 0)
(-0.12902379 0.17435692 2.0009419e-19)
(-0.12626457 0.19089315 -3.3425169e-19)
(-0.10085849 0.19290795 1.3856132e-19)
(-0.036690416 0.17112321 -1.1157527e-19)
(0.095297868 0.11429457 9.1488955e-20)
(0.28888376 0.032857238 -2.1411417e-22)
(0.49872184 -0.051570796 -1.5001016e-20)
(0.69965527 -0.13060044 -4.6744684e-20)
(0.87760448 -0.19061835 0)
(-0.0078600348 0.011931381 0)
(-0.02433856 0.037392046 -3.1092356e-21)
(-0.042618946 0.066924947 3.7739085e-19)
(-0.06240634 0.10060375 -3.4498926e-19)
(-0.083036267 0.1380151 -7.1569098e-21)
(-0.10323629 0.17795095 2.648634e-19)
(-0.12091842 0.21800964 -9.2032217e-22)
(-0.13300959 0.25427228 -3.7737601e-19)
(-0.13534269 0.28127075 2.0161801e-20)
(-0.12245828 0.29239872 1.2774589e-19)
(-0.086900526 0.28050139 0)
(-0.017459442 0.23750906 -1.0398721e-20)
(0.10492797 0.15161326 -1.6532023e-20)
(0.2886525 0.029305218 -9.4656933e-20)
(0.47838007 -0.089552587 1.2569468e-19)
(0.65681309 -0.18369058 1.5505976e-20)
(-0.0086520749 0.017820501 -2.0399794e-22)
(-0.02636965 0.054880724 -7.6327265e-19)
(-0.045450455 0.09646294 3.6030319e-19)
(-0.065429557 0.14207651 -2.415782e-21)
(-0.08555025 0.19050744 -2.8897055e-19)
(-0.10464241 0.23956032 2.4951961e-19)
(-0.12110777 0.28583308 -3.1762529e-21)
(-0.132986 0.32472511 5.3384502e-21)
(-0.13808412 0.35084696 -5.1118626e-21)
(-0.13404732 0.35883465 -7.3395183e-21)
(-0.11812335 0.34414186 1.0175317e-19)
(-0.086323914 0.30282816 -7.1863486e-20)
(-0.030672403 0.2295636 -1.4410873e-19)
(0.069668153 0.11584822 1.212886e-19)
(0.22578355 -0.029824402 -2.1224653e-20)
(0.38168327 -0.15683087 -6.0055803e-20)
(-0.0076431136 0.022653495 -4.9216181e-22)
(-0.023080505 0.068440463 -5.892314e-22)
(-0.039680151 0.11784732 -1.5868597e-19)
(-0.057076161 0.16954589 1.4851959e-19)
(-0.074734763 0.2213946 -1.8151271e-21)
(-0.09195471 0.27032268 1.1595411e-19)
(-0.10788526 0.31223837 -8.9908226e-20)
(-0.12167284 0.34244256 -1.6477723e-19)
(-0.13257797 0.35634123 -1.4609751e-21)
(-0.13997754 0.35051963 2.3079374e-19)
(-0.14308361 0.32351475 -9.1530923e-20)
(-0.1404938 0.2753239 0)
(-0.12935972 0.20546487 8.1186495e-21)
(-0.099815613 0.11153402 -6.3056298e-20)
(-0.013966424 -0.011542271 3.0410201e-20)
(0.11545054 -0.14082042 -6.8697847e-20)
(-0.0043135348 0.020907612 4.921618e-22)
(-0.013308869 0.062517597 -1.3292555e-19)
(-0.023978142 0.10635825 1.2587913e-19)
(-0.036461538 0.1507654 -1.0176159e-21)
(-0.050814971 0.19329099 2.5475913e-21)
(-0.067077223 0.23067875 -6.4385119e-22)
(-0.085272452 0.25909473 -8.1401202e-20)
(-0.10543 0.2747381 -3.0474694e-21)
(-0.1275357 0.27484206 5.0932672e-20)
(-0.15128314 0.25864739 -4.6802427e-20)
(-0.17565936 0.22750806 3.8121695e-20)
(-0.19862661 0.18372506 0)
(-0.21694412 0.12893993 2.9692356e-20)
(-0.22498506 0.063610237 -2.1199076e-20)
(-0.2100858 -0.010859029 8.9989325e-21)
(-0.14439257 -0.088699609 0)
(-0.0010242174 0.010343718 -4.5069818e-20)
(-0.0039755306 0.031089663 2.6730565e-20)
(-0.0097049595 0.053135662 5.1454008e-20)
(-0.019125312 0.075619918 -4.7418211e-20)
(-0.033160371 0.097070597 -9.4872424e-22)
(-0.052759078 0.11527529 1.9206889e-20)
(-0.078590646 0.12747083 1.7365077e-20)
(-0.11067757 0.13112512 2.7118038e-22)
(-0.14809388 0.12519315 2.8151502e-22)
(-0.18888847 0.11090029 -2.9709858e-20)
(-0.23030991 0.091049083 3.3056355e-20)
(-0.26915509 0.068313168 3.6269503e-22)
(-0.30189306 0.044052131 -2.9015569e-21)
(-0.32399018 0.018311821 -9.011135e-21)
(-0.32785495 -0.0093174319 -6.6892258e-24)
(-0.30209477 -0.037599795 4.5730806e-21)
(-0.00096277733 -0.0092582953 -2.204092e-20)
(-0.0038066756 -0.027872147 -2.7041765e-20)
(-0.0094677239 -0.047683813 7.6070387e-20)
(-0.018876488 -0.067890205 -4.6816834e-20)
(-0.032975146 -0.087086477 2.1623453e-20)
(-0.052732417 -0.10311962 2.2659734e-24)
(-0.078835132 -0.11326266 3.3230313e-20)
(-0.11131763 -0.11500302 -1.4151577e-20)
(-0.149255 -0.10734997 -1.2775468e-21)
(-0.19068062 -0.091698411 1.0177642e-20)
(-0.2328059 -0.071185658 -1.3910095e-20)
(-0.27232306 -0.048978175 1.3760721e-20)
(-0.30536479 -0.027100516 -2.8790791e-21)
(-0.32679844 -0.0066104405 -1.7661025e-20)
(-0.32927947 0.011451597 6.9311422e-21)
(-0.30475584 0.025690924 9.8438508e-21)
(-0.0042081644 -0.020337919 -6.7705658e-22)
(-0.013014429 -0.060785293 1.3182742e-19)
(-0.02354202 -0.10334336 -1.2374225e-19)
(-0.035953164 -0.14635608 1.1284402e-19)
(-0.050323745 -0.18738527 -1.0195314e-19)
(-0.066709678 -0.22318108 0)
(-0.085144398 -0.24990954 7.7918991e-20)
(-0.10565649 -0.26376447 -6.3223804e-20)
(-0.12821805 -0.26198107 -2.1854406e-21)
(-0.15249853 -0.24383675 0)
(-0.17746978 -0.21080032 -7.4173327e-21)
(-0.20102525 -0.16545009 4.2983697e-21)
(-0.21934196 -0.11004756 -3.0048686e-20)
(-0.22532519 -0.046157594 5.6231262e-20)
(-0.20714349 0.02384044 -4.1288886e-20)
(-0.14882265 0.094374256 -1.1659533e-20)
(-0.0075874455 -0.022460813 4.8383669e-22)
(-0.022918454 -0.067807659 -5.793696e-22)
(-0.039441673 -0.11665897 0)
(-0.056805819 -0.16766649 3.3870513e-21)
(-0.074488664 -0.21865834 2.1200684e-21)
(-0.091788358 -0.26648929 1.1411466e-19)
(-0.10788042 -0.30707112 -1.0007345e-19)
(-0.12192575 -0.33567882 0)
(-0.13319818 -0.34769932 -6.1718806e-22)
(-0.1410886 -0.33970735 -7.2602458e-21)
(-0.1448437 -0.31024183 5.2281157e-21)
(-0.14311591 -0.25938049 5.4820514e-21)
(-0.13293622 -0.18711452 7.0866624e-21)
(-0.10437927 -0.09261128 5.4480165e-20)
(-0.023230459 0.024586365 -6.6613874e-20)
(0.10951585 0.14745336 3.5092135e-20)
(-0.0087432821 -0.01799445 0)
(-0.026623508 -0.055326986 3.7953206e-19)
(-0.045869042 -0.097085378 -7.1232702e-19)
(-0.066007103 -0.14272675 3.2289638e-19)
(-0.086273457 -0.19098065 -2.1179691e-21)
(-0.10549765 -0.2395969 -7.6943369e-21)
(-0.12209285 -0.28513349 2.1604999e-19)
(-0.13412389 -0.32297209 -1.7901007e-19)
(-0.13943957 -0.34772855 -1.3465206e-19)
(-0.13574765 -0.35405956 1.216092e-19)
(-0.12040337 -0.33743759 0)
(-0.089628915 -0.29393644 -9.2463023e-20)
(-0.035665767 -0.21843494 4.9487713e-20)
(0.062702609 -0.10364484 0)
(0.21419877 0.039472938 0)
(0.36980922 0.15941711 0)
(-0.0080324977 -0.012193224 6.6894718e-19)
(-0.024830094 -0.038139332 -4.0068464e-19)
(-0.04341317 -0.068137307 0)
(-0.063465577 -0.10222127 -2.7050531e-21)
(-0.084299826 -0.13992662 -2.9919791e-19)
(-0.10462349 -0.17998717 2.7247452e-19)
(-0.12234037 -0.21994674 2.1684638e-19)
(-0.13439103 -0.25585125 5.0300328e-21)
(-0.13665321 -0.28223177 -1.6499464e-19)
(-0.12375349 -0.29251901 7.7811798e-21)
(-0.088375304 -0.27962083 0)
(-0.019480497 -0.23558807 -1.677513e-19)
(0.10180407 -0.14916698 1.5616838e-20)
(0.28360584 -0.027344126 1.0739387e-19)
(0.47083983 0.090775266 0)
(0.64919568 0.18008076 1.487302e-20)
(-0.007652714 -0.008303593 1.7040095e-22)
(-0.023786033 -0.026058375 8.1661167e-19)
(-0.041849826 -0.046672169 -3.8669405e-19)
(-0.061569534 -0.070162688 -3.5179963e-19)
(-0.082229789 -0.096217876 3.1259497e-19)
(-0.10238521 -0.12393979 -2.8080195e-19)
(-0.11956122 -0.15154795 2.3788447e-19)
(-0.12979127 -0.17597237 1.933009e-19)
(-0.12696848 -0.19247648 -1.781264e-19)
(-0.10159646 -0.194307 0)
(-0.037900731 -0.17220385 0)
(0.092984431 -0.11505806 0)
(0.28581582 -0.033043385 1.8782707e-20)
(0.49482262 0.05203216 0)