/*--------------------------------*- C++ -*----------------------------------*\
| =========                 |                                                 |
| \\      /  F ield         | foam-extend: Open Source CFD                    |
|  \\    /   O peration     | Version:     4.1                                |
|   \\  /    A nd           | Web:         http://www.foam-extend.org         |
|    \\/     M anipulation  |                                                 |
\*---------------------------------------------------------------------------*/
FoamFile
{
    version     2.0;
    format      ascii;
    class       volScalarField;
    location    "1.6";
    object      p;
}
// * * * * * * * * * * * * * * * * * * * * * * * * * * * * * * * * * * * * * //

dimensions      [0 2 -2 0 0 0 0];

internalField   nonuniform List<scalar> 
16126
(
-9.7880242e-05
0.00022392082
5.1156505e-05
0.00030247352
0.00018113902
0.00034448125
0.00026101956
0.00034581587
0.00027483968
0.00029253461
0.00021105907
0.00016824841
5.831137e-05
-4.3443583e-05
-0.00019571563
-0.00035848063
-0.00056419846
-0.00079224364
-0.0010607016
-0.0013593931
-0.0016985448
-0.002073423
-0.0024898864
-0.0029458888
-0.0034447249
-0.0039854513
-0.0045697297
-0.0051967929
-0.005867147
-0.0065797217
-0.0073343797
-0.0081279765
-0.0089598791
-0.0098257096
-0.010725286
-0.011656844
-0.012614417
-0.013595503
-0.014595395
-0.015612144
-0.016640488
-0.017674696
-0.018709318
-0.019738099
-0.020754834
-0.021752757
-0.022725123
-0.023664851
-0.0245649
-0.025418088
-0.026217338
-0.026955595
-0.02762599
-0.028221813
-0.028736611
-0.029164185
-0.029498648
-0.029734417
-0.029866239
-0.029889182
-0.029798626
-0.029590254
-0.029260031
-0.028804191
-0.028219207
-0.027501799
-0.026648901
-0.025657684
-0.024525545
-0.023250157
-0.021829478
-0.020261853
-0.018546052
-0.016681438
-0.014668057
-0.012506866
-0.010199854
-0.0077503246
-0.0051629649
-0.0024440997
0.00039837697
0.0033548922
0.0064144958
0.0095649189
0.012793097
0.016085327
0.019427853
0.022807018
0.026209727
0.029623559
0.033036966
0.03643946
0.039821399
0.043174534
0.046491084
0.049765187
0.052990565
0.056163959
0.059279892
0.062338348
0.065333398
0.068270118
0.071140038
0.073958277
0.07671046
0.079434352
0.082103999
0.084810119
0.0875033
0.090395574
0.093379839
0.096934612
0.10078024
0.10596182
0.11165299
0.12013106
0.12889669
0.1432463
0.15568871
0.18047921
0.19406077
0.24438665
0.24055157
0.40958086
-0.00010228154
0.0002265865
4.6441654e-05
0.00029976304
0.00017606539
0.00033859686
0.00025431855
0.00033752169
0.00026597152
0.00028204616
0.00019991848
0.00015564786
4.4920823e-05
-5.815034e-05
-0.00021132385
-0.00037529968
-0.00058196834
-0.00081111179
-0.0010804594
-0.0013800276
-0.0017198406
-0.0020952703
-0.0025120414
-0.0029682162
-0.0034670002
-0.0040076708
-0.004592041
-0.0052190336
-0.0058892069
-0.0066005205
-0.0073526636
-0.0081428598
-0.008972414
-0.0098389662
-0.010737649
-0.011658917
-0.012602797
-0.013578922
-0.014576516
-0.015587261
-0.016608519
-0.01763514
-0.018661728
-0.019682055
-0.020689933
-0.021678645
-0.0226415
-0.023571492
-0.02446166
-0.025304919
-0.026094299
-0.026822863
-0.027483873
-0.028070755
-0.028577199
-0.028997156
-0.029324885
-0.029554946
-0.02968222
-0.029701891
-0.029609438
-0.029400617
-0.029071429
-0.028618115
-0.028037114
-0.02732507
-0.026478799
-0.025495314
-0.024371816
-0.023105744
-0.021694795
-0.02013703
-0.018430923
-0.016575539
-0.014570635
-0.012416909
-0.010116129
-0.0076714308
-0.0050873956
-0.0023703061
0.00047192937
0.0034296821
0.0064919273
0.0096463208
0.012879755
0.016178521
0.019528919
0.022917389
0.02633099
0.029757482
0.033185542
0.036604927
0.040006285
0.043381674
0.046723698
0.050026896
0.053285556
0.056496997
0.059656621
0.062765264
0.065818387
0.068822244
0.071770524
0.074679731
0.077538696
0.080386111
0.083200484
0.086071033
0.088954322
0.092053898
0.09527176
0.099062012
0.1031651
0.10856854
0.11450398
0.12311468
0.13207689
0.14631124
0.15891828
0.18253372
0.1967494
0.23694466
0.24492545
0.30486544
-0.00012892644
0.00023877581
3.6372856e-05
0.00030337048
0.00017476738
0.00034060125
0.00025747192
0.00034109882
0.00027210769
0.00028824262
0.00020856747
0.00016464042
5.6051514e-05
-4.6268091e-05
-0.00019750564
-0.00036034674
-0.00056514716
-0.00079285287
-0.0010603726
-0.0013584536
-0.0016966632
-0.0020707537
-0.0024862396
-0.0029412772
-0.0034389621
-0.003978238
-0.0045602637
-0.0051847019
-0.005851134
-0.0065604119
-0.0073132435
-0.0081059585
-0.0089357661
-0.009790752
-0.010676226
-0.011606201
-0.012567127
-0.013546983
-0.014544432
-0.015556902
-0.016580293
-0.017609337
-0.018638621
-0.019661944
-0.020673121
-0.021665443
-0.022632209
-0.023566405
-0.024461059
-0.025309075
-0.026103466
-0.026837286
-0.027503777
-0.028096355
-0.028608694
-0.02903473
-0.029368703
-0.029605154
-0.02973894
-0.029765214
-0.029679417
-0.029477261
-0.029154692
-0.028707888
-0.028133212
-0.027427227
-0.026586658
-0.025608418
-0.024489602
-0.02322754
-0.021819817
-0.020264378
-0.018559581
-0.016704379
-0.014698421
-0.012542307
-0.010237718
-0.0077877302
-0.0051968894
-0.0024714856
0.00038052856
0.0033494236
0.0064240426
0.0095918665
0.012839605
0.016153337
0.019519166
0.022923334
0.026352742
0.02979499
0.033238653
0.036673345
0.040089641
0.043479454
0.04683534
0.050151671
0.053422734
0.056645607
0.05981582
0.062933875
0.065995768
0.069007399
0.071964112
0.074882255
0.077755015
0.080621395
0.083469922
0.086389875
0.089357915
0.092571818
0.095968408
0.099969768
0.10437032
0.11004597
0.11632231
0.12503571
0.13412124
0.14771222
0.15990513
0.18098897
0.19487047
0.22802276
0.24108251
0.28480077
-0.00018562014
0.00025454185
1.132016e-05
0.00030265609
0.0001636818
0.00033577157
0.0002516346
0.00033590722
0.00026825878
0.0002839029
0.00020600099
0.00016182309
5.4907416e-05
-4.7197861e-05
-0.00019690916
-0.00035912353
-0.00056244537
-0.00078914465
-0.0010549926
-0.0013513636
-0.0016871853
-0.0020585679
-0.0024705413
-0.0029216381
-0.0034143785
-0.0039489042
-0.0045277048
-0.0051493624
-0.005815121
-0.0065208783
-0.0072645962
-0.0080394586
-0.0088538648
-0.0097202437
-0.01062202
-0.011545573
-0.012492258
-0.013464622
-0.014457449
-0.015465312
-0.016484138
-0.017508708
-0.018533747
-0.019553186
-0.020560921
-0.021550344
-0.022514836
-0.023447483
-0.024341398
-0.025189586
-0.025985147
-0.026721227
-0.027391152
-0.02798841
-0.028506737
-0.02894011
-0.029282791
-0.029529312
-0.029674489
-0.029713402
-0.029641374
-0.029453962
-0.029146912
-0.028716164
-0.028157805
-0.027468088
-0.0266434
-0.025680299
-0.024575516
-0.023326018
-0.02192903
-0.02038217
-0.018683496
-0.016831707
-0.014826249
-0.012667586
-0.010357327
-0.0078985464
-0.0052958462
-0.0025556324
0.00031399856
0.0033031481
0.0064005035
0.0095933604
0.012868299
0.016211256
0.01960827
0.023045494
0.02650982
0.029988811
0.033471097
0.036946363
0.040405388
0.043840311
0.047244127
0.05061161
0.053937831
0.057220568
0.060456731
0.063647915
0.066792445
0.069897727
0.072962911
0.076005918
0.07902585
0.082061917
0.085111225
0.088257737
0.091489738
0.094984324
0.098694565
0.10298629
0.10768478
0.11353457
0.11994885
0.12846643
0.13731167
0.14985607
0.16119811
0.17915922
0.19148078
0.21514442
0.22619531
0.24426181
-0.00027775607
0.00027824048
-2.4768466e-05
0.00030499297
0.00014945119
0.00033360848
0.00024812387
0.00033655003
0.00027208004
0.00028991474
0.00021593511
0.00017380626
7.0874612e-05
-2.8652865e-05
-0.00017424166
-0.00033308368
-0.00053187899
-0.00075425199
-0.0010149842
-0.0013065349
-0.0016372508
-0.0020037623
-0.0024109944
-0.0028575563
-0.0033465033
-0.00387641
-0.0044472483
-0.0050593379
-0.0057074373
-0.0063983721
-0.0071383375
-0.007926435
-0.0087518386
-0.0096030065
-0.010487224
-0.011405602
-0.012353222
-0.013324108
-0.014314895
-0.015321635
-0.016340204
-0.017365587
-0.018392598
-0.019415326
-0.020427786
-0.021423501
-0.022395949
-0.023338318
-0.024243793
-0.025105441
-0.025916399
-0.026669824
-0.027359021
-0.027977427
-0.028518678
-0.028976614
-0.029345304
-0.029619044
-0.029792359
-0.029859988
-0.029816866
-0.029658122
-0.029379042
-0.028975079
-0.028441822
-0.027775028
-0.026970602
-0.026024647
-0.024933481
-0.023693714
-0.022302287
-0.020756608
-0.019054615
-0.017194984
-0.015177218
-0.013001939
-0.010670967
-0.0081876612
-0.0055569195
-0.0027854769
0.00011827687
0.0031441243
0.0062804943
0.009514429
0.012832316
0.016219839
0.019662811
0.023147096
0.026659353
0.030186865
0.033718088
0.037242409
0.040750464
0.04423414
0.047686379
0.051101842
0.054475793
0.05780598
0.061089834
0.064329031
0.067523072
0.070679558
0.073800071
0.07690276
0.079991461
0.083104939
0.086248817
0.089503122
0.092870004
0.09651065
0.10039899
0.10485234
0.10973063
0.11565454
0.122123
0.13038761
0.1389609
0.150529
0.16118886
0.1768873
0.18859345
0.20789234
0.21919412
0.23150344
-0.00039789972
0.00030753541
-7.353743e-05
0.0003051593
0.00012999603
0.00033017223
0.00024114594
0.00033473464
0.00027165927
0.00029185967
0.00022113877
0.00018130327
8.2221074e-05
-1.4478672e-05
-0.00015594796
-0.00031138123
-0.00050584669
-0.00072437015
-0.00098047851
-0.0012669828
-0.0015915328
-0.0019510711
-0.0023497199
-0.0027864959
-0.0032615526
-0.0037770613
-0.0043382602
-0.0049424604
-0.0055956723
-0.0062894982
-0.0070176253
-0.0077831321
-0.008587057
-0.0094319647
-0.010311405
-0.01121997
-0.012155422
-0.013116171
-0.014098375
-0.015097799
-0.016110283
-0.017130927
-0.018154721
-0.019175995
-0.020188968
-0.021187403
-0.022164976
-0.023115083
-0.024031079
-0.024906189
-0.025733663
-0.026506735
-0.027218731
-0.02786305
-0.028433221
-0.028922903
-0.029325904
-0.029636173
-0.02984781
-0.029955045
-0.029952235
-0.029833864
-0.029594525
-0.029228943
-0.028731958
-0.028098584
-0.027324001
-0.026403634
-0.025333182
-0.024108727
-0.022726773
-0.021184422
-0.019479419
-0.0176104
-0.015576944
-0.013379892
-0.011021369
-0.0085051427
-0.0058365436
-0.0030227785
-7.267917e-05
0.0030031361
0.0061927837
0.0094829094
0.012859634
0.016308304
0.019814543
0.02336392
0.026942897
0.030538441
0.034138777
0.037733087
0.041311967
0.044867318
0.048392348
0.051881862
0.055331671
0.058739977
0.062105303
0.065430057
0.068715503
0.071970108
0.075198077
0.078417913
0.08163701
0.084892249
0.088193565
0.091612853
0.095157108
0.098964954
0.10301739
0.10757927
0.11253052
0.1183789
0.12469596
0.13248504
0.14050709
0.15083649
0.16036688
0.17336293
0.18323398
0.19716125
0.20573493
0.21190322
-0.00053383104
0.00034227435
-0.00012402181
0.00031160628
0.00010929682
0.00032954614
0.00023655726
0.00033909433
0.00027957101
0.00030524813
0.00023950661
0.00020428369
0.00011084217
1.9188819e-05
-0.00011597727
-0.00026529028
-0.00045240165
-0.00066295335
-0.00090978215
-0.0011871966
-0.0015024475
-0.0018528062
-0.0022427758
-0.0026713162
-0.0031433341
-0.0036558791
-0.0042069769
-0.0047984761
-0.005429798
-0.0061034193
-0.0068201469
-0.0075792484
-0.0083763641
-0.0092071873
-0.01007235
-0.01097019
-0.011897787
-0.012851344
-0.013827538
-0.014822533
-0.015832392
-0.016852518
-0.017878141
-0.018903884
-0.019924222
-0.020933183
-0.021924671
-0.022892292
-0.023829564
-0.024729832
-0.025586404
-0.026392506
-0.027141375
-0.027826235
-0.028440344
-0.028976991
-0.029429513
-0.029791291
-0.030055759
-0.030216407
-0.030266774
-0.030200479
-0.030011212
-0.029692788
-0.029239148
-0.028644441
-0.027903041
-0.027009655
-0.025959359
-0.024747747
-0.023370965
-0.02182592
-0.02011031
-0.018222894
-0.016163513
-0.013933416
-0.011535222
-0.0089732935
-0.0062535595
-0.0033838809
-0.00037364699
0.0027658568
0.0060221785
0.0093814556
0.012829428
0.016350955
0.019931177
0.023555096
0.027208702
0.030878469
0.034552359
0.038218997
0.041868691
0.04549283
0.049084362
0.052637908
0.056149437
0.059617095
0.06303982
0.066420141
0.069760285
0.073068878
0.076351878
0.079627705
0.082906643
0.086224215
0.089594767
0.093084703
0.096707317
0.10058488
0.10470809
0.10930057
0.11426402
0.12001256
0.12618729
0.13358523
0.14119968
0.15062543
0.15946435
0.17079459
0.17989284
0.19128236
0.19907646
0.2032258
-0.00066964559
0.00037722646
-0.00017580224
0.00032037353
9.3437756e-05
0.00033615037
0.0002377111
0.00034905288
0.00029029394
0.00032122335
0.00025995974
0.00022985347
0.00014223133
5.6220696e-05
-7.2405662e-05
-0.00021548171
-0.00039567362
-0.00060014811
-0.00084084043
-0.0011112209
-0.0014179216
-0.0017587214
-0.0021374191
-0.0025533301
-0.0030084288
-0.0035035624
-0.0040410839
-0.00462016
-0.0052426339
-0.0059055383
-0.0066069564
-0.007347404
-0.0081262893
-0.0089434007
-0.0097956676
-0.01068025
-0.011594694
-0.012536632
-0.013502886
-0.014489918
-0.015493975
-0.016510749
-0.017535755
-0.018563957
-0.019590146
-0.020608679
-0.021613748
-0.022599228
-0.023558846
-0.024486109
-0.025374404
-0.026216957
-0.027006905
-0.02773727
-0.028400989
-0.02899092
-0.029499847
-0.029920486
-0.030245502
-0.030467524
-0.03057915
-0.030573008
-0.030441755
-0.030178168
-0.029775158
-0.02922589
-0.028523814
-0.027662809
-0.02663723
-0.025442092
-0.024073102
-0.022526911
-0.020801112
-0.018894556
-0.016807312
-0.014541046
-0.012098873
-0.0094858013
-0.0067084075
-0.0037752744
-0.00069653836
0.0025159096
0.0058491578
0.0092885299
0.012819188
0.016425215
0.020091366
0.023802017
0.027542789
0.031299469
0.035059404
0.03881076
0.042543566
0.04624916
0.049920739
0.053552782
0.057141509
0.060685282
0.064183831
0.067640046
0.071057233
0.074444346
0.077808711
0.0811683
0.084534864
0.087941212
0.091402864
0.094978257
0.098681436
0.10261581
0.10677433
0.11134035
0.11622878
0.12177037
0.12766132
0.13451957
0.14152275
0.14985301
0.15765224
0.16703806
0.17466144
0.18320488
0.18924805
0.19181715
-0.00079176651
0.00041283406
-0.00022291256
0.00033192449
7.8903876e-05
0.00034520642
0.00024229685
0.00036560109
0.000310532
0.00034940187
0.0002939001
0.00027055038
0.00018980198
0.00011084046
-9.9440573e-06
-0.00014492521
-0.00031600775
-0.00051050407
-0.00074003565
-0.00099932775
-0.001294734
-0.0016242224
-0.0019916596
-0.0023963819
-0.0028411868
-0.0033250969
-0.0038484878
-0.0044119529
-0.0050158634
-0.0056610266
-0.0063473325
-0.0070742671
-0.0078398365
-0.0086421279
-0.0094802316
-0.010352364
-0.011256343
-0.012189436
-0.013148829
-0.014131277
-0.015133355
-0.016151118
-0.01718042
-0.018216594
-0.019254765
-0.020289622
-0.021315638
-0.022326934
-0.023317409
-0.024280678
-0.025210136
-0.026098927
-0.026939987
-0.027726023
-0.02844953
-0.029102804
-0.029677941
-0.030166864
-0.030561339
-0.030853011
-0.031033432
-0.031094136
-0.031026672
-0.03082271
-0.030474089
-0.029972961
-0.029311842
-0.028483791
-0.027482462
-0.026302331
-0.02493871
-0.023388049
-0.021647894
-0.019717257
-0.017596494
-0.01528775
-0.012794702
-0.010123056
-0.0072801013
-0.0042752639
-0.0011192751
0.002174917
0.0055933436
0.0091205697
0.012741217
0.016438681
0.020196803
0.023999019
0.0278301
0.03167519
0.035521584
0.039356614
0.043170068
0.046952448
0.050696338
0.05439614
0.058048409
0.061651433
0.065205168
0.068712652
0.072177935
0.075609979
0.079017219
0.082417271
0.085823315
0.089266413
0.092763838
0.09636858
0.1000969
0.10403835
0.10819026
0.11270464
0.11751105
0.1228737
0.12854135
0.1349911
0.14156662
0.14914089
0.15630564
0.16450592
0.17139069
0.17845548
0.1837225
0.18549894
-0.00089533289
0.00044652056
-0.00026321808
0.0003466896
7.0778761e-05
0.00036046783
0.00025314431
0.00038798162
0.00033534152
0.00038201219
0.00033216303
0.00031605385
0.00024250182
0.00017117554
5.8537017e-05
-6.8161888e-05
-0.00023038564
-0.00041600519
-0.00063599462
-0.00088499803
-0.0011690574
-0.0014862765
-0.0018401915
-0.0022303979
-0.0026590976
-0.0031267109
-0.0036348034
-0.0041832696
-0.004772969
-0.0054029805
-0.0060727641
-0.0067822767
-0.0075308548
-0.0083178593
-0.0091415854
-0.010000272
-0.010891971
-0.011814602
-0.01276565
-0.013742278
-0.014741375
-0.015759377
-0.016792496
-0.01783645
-0.018886722
-0.019938351
-0.020986111
-0.02202438
-0.023047242
-0.024048415
-0.025021305
-0.025958959
-0.026854098
-0.027699089
-0.028485963
-0.029206421
-0.029851844
-0.030413321
-0.030881685
-0.031247561
-0.031501413
-0.031633642
-0.031634638
-0.031494921
-0.031205199
-0.030756559
-0.030140515
-0.029349246
-0.028375629
-0.027213529
-0.025857786
-0.024304579
-0.022551324
-0.020597131
-0.018442572
-0.016090244
-0.013544318
-0.010811249
-0.0078990108
-0.0048178581
-0.0015797453
0.0018017723
0.005312544
0.0089357304
0.012655013
0.016452264
0.020310983
0.024213661
0.028144835
0.032088547
0.036030771
0.039958209
0.04386002
0.047726914
0.051552279
0.055329916
0.059056135
0.062729284
0.066350138
0.069921754
0.073448736
0.076940114
0.080404862
0.083859754
0.087318272
0.090808623
0.094347707
0.097981569
0.10172544
0.10565402
0.10976483
0.11418012
0.11883849
0.12394523
0.12928944
0.13522807
0.1412335
0.14792638
0.15423896
0.16111653
0.16693785
0.17247435
0.17671399
0.1780311
-0.00097725355
0.00047784331
-0.00029453469
0.00036418111
6.7994709e-05
0.00038027808
0.00027009173
0.00041776774
0.00036933073
0.00042546338
0.00038247995
0.00037495909
0.00030967212
0.00024726498
0.0001440198
2.7188697e-05
-0.00012442816
-0.00029885535
-0.00050694363
-0.00074380128
-0.0010152941
-0.0013197239
-0.0016605697
-0.0020374532
-0.0024526023
-0.0029058845
-0.0033983629
-0.0039304575
-0.0045028432
-0.0051159326
-0.0057697396
-0.0064640632
-0.0071980042
-0.0079706541
-0.0087811065
-0.0096280704
-0.01050998
-0.011424909
-0.012370713
-0.013344888
-0.014344699
-0.01536697
-0.016408291
-0.017464765
-0.018532229
-0.019606052
-0.020681284
-0.021752526
-0.022814003
-0.023859494
-0.024882358
-0.025875486
-0.026831323
-0.027741838
-0.02859853
-0.029392448
-0.030114198
-0.030753988
-0.031301664
-0.031746793
-0.032078707
-0.032286646
-0.032359809
-0.032287545
-0.03205941
-0.031665408
-0.03109604
-0.030342594
-0.029397164
-0.028253002
-0.026904469
-0.025347473
-0.023579298
-0.021599155
-0.019407833
-0.017008373
-0.014405492
-0.011606323
-0.0086196182
-0.0054566812
-0.0021294627
0.0013469115
0.0049560405
0.008680252
0.012502846
0.016405368
0.0203696
0.024376619
0.028409274
0.032450949
0.036488597
0.040507579
0.044497313
0.048447012
0.052348168
0.056194975
0.059984948
0.063716243
0.06738929
0.071007396
0.074575902
0.078103505
0.081599905
0.085081319
0.088561696
0.092067415
0.095615637
0.099247513
0.1029785
0.10687222
0.11092803
0.11524524
0.11977255
0.1246695
0.12976299
0.13531839
0.14091925
0.14700072
0.15276404
0.15880292
0.16400578
0.16865462
0.17230568
0.17326223
-0.0010392599
0.00050577447
-0.00031689262
0.00038408922
7.1799531e-05
0.00040504327
0.00029304631
0.0004530339
0.00040871846
0.00047420087
0.00043814201
0.0004394438
0.0003826087
0.00032940632
0.00023567317
0.00012876864
-1.2402545e-05
-0.00017600781
-0.00037258888
-0.00059729571
-0.00085581619
-0.0011465405
-0.0014728198
-0.0018344649
-0.002233635
-0.0026707374
-0.0031471863
-0.0036632762
-0.0042198022
-0.0048167267
-0.0054541296
-0.0061320836
-0.0068502812
-0.0076083465
-0.0084053896
-0.0092403915
-0.010112067
-0.01101894
-0.01195922
-0.012930819
-0.013931375
-0.014958114
-0.016008012
-0.017077561
-0.018162954
-0.019259896
-0.020363713
-0.021469231
-0.022570818
-0.02366231
-0.02473702
-0.025787686
-0.026806476
-0.02778496
-0.028714112
-0.02958433
-0.030385445
-0.031106782
-0.0317372
-0.032265194
-0.032678951
-0.032966525
-0.033115893
-0.033115188
-0.032952762
-0.032617477
-0.032098748
-0.031386897
-0.030473146
-0.029350054
-0.028011405
-0.026452759
-0.024671172
-0.022665895
-0.02043784
-0.017990504
-0.01532899
-0.012461349
-0.00939684
-0.0061474432
-0.0027279513
0.00084620644
0.0045602981
0.0083940227
0.012328498
0.016343191
0.02042041
0.024540077
0.028685661
0.032837553
0.036980502
0.041099189
0.045181281
0.049217093
0.053201429
0.057126685
0.060988387
0.064784717
0.068517932
0.072190837
0.075808678
0.079380386
0.082915636
0.086429617
0.089936101
0.093458706
0.097013633
0.10063626
0.10434041
0.10817842
0.1121491
0.11633051
0.12067778
0.12531077
0.13008531
0.13519131
0.14029843
0.14569884
0.15079806
0.1559476
0.16040819
0.16419928
0.1672378
0.16803299
-0.0010829316
0.00053044666
-0.00033003592
0.00040619793
8.1962701e-05
0.00043449567
0.00032261739
0.000495288
0.00045652639
0.00053235415
0.00050432395
0.00051549162
0.00046810867
0.00042518542
0.00034203857
0.00024627257
0.00011679275
-3.4619367e-05
-0.00021845622
-0.00043005125
-0.00067500493
-0.00095182734
-0.001263812
-0.0016108082
-0.0019949242
-0.0024164561
-0.0028767376
-0.0033763275
-0.003916122
-0.0044966269
-0.0051182022
-0.0057810324
-0.006484921
-0.0072296174
-0.008014668
-0.0088394084
-0.0097029287
-0.010604061
-0.011541393
-0.012513211
-0.013517541
-0.014552011
-0.015613981
-0.016700327
-0.017807587
-0.018931786
-0.020068508
-0.021212781
-0.022359091
-0.023501307
-0.024632671
-0.025745741
-0.026832384
-0.027883749
-0.02889026
-0.029841645
-0.03072694
-0.031534567
-0.032252371
-0.032867754
-0.03336773
-0.033739132
-0.033968679
-0.034043252
-0.033949953
-0.03367646
-0.03321105
-0.032543039
-0.031662725
-0.030561936
-0.029233833
-0.027673596
-0.025878014
-0.023846354
-0.021579649
-0.019081778
-0.016358433
-0.013418153
-0.01027134
-0.0069318758
-0.003411769
0.00026898799
0.0040922241
0.008038539
0.012089
0.01622137
0.020416158
0.024651498
0.028909438
0.033170698
0.037420148
0.041641372
0.04582335
0.049950987
0.054015013
0.058009694
0.061935523
0.065790087
0.06957296
0.073287704
0.076941169
0.080540999
0.084097588
0.087625579
0.091138509
0.09465844
0.09820105
0.10179765
0.10546149
0.10923641
0.11312201
0.11718014
0.12137303
0.12579039
0.13031422
0.13507808
0.13982283
0.14473657
0.1493794
0.15393194
0.15790697
0.16114296
0.1637647
0.16437211
-0.0011116572
0.00055179743
-0.00033501398
0.0004300338
9.819731e-05
0.00046799317
0.00035776342
0.00054252243
0.00050978635
0.00059587718
0.00057613862
0.00059734416
0.00055964698
0.00052723255
0.00045484815
0.00037037494
0.00025266948
0.00011352159
-5.7441344e-05
-0.00025559217
-0.00048644444
-0.00074858446
-0.0010452705
-0.0013764904
-0.0017443905
-0.0021495145
-0.0025933424
-0.0030764826
-0.0035999256
-0.0041641528
-0.0047696969
-0.0054169767
-0.0061061628
-0.0068373523
-0.007610331
-0.0084247596
-0.0092800559
-0.010175452
-0.011109917
-0.012082147
-0.013090569
-0.014133221
-0.015207854
-0.016311736
-0.017441758
-0.018594268
-0.019765118
-0.020949546
-0.022142165
-0.023336891
-0.024526905
-0.025704601
-0.02686156
-0.027988526
-0.029075387
-0.030111211
-0.031084247
-0.03198201
-0.032791327
-0.033498485
-0.034089294
-0.034549328
-0.03486399
-0.035018843
-0.034999659
-0.034792849
-0.034385452
-0.033765684
-0.032922807
-0.031847827
-0.030533166
-0.028973546
-0.027165382
-0.025107918
-0.022802173
-0.020252555
-0.017464869
-0.014449286
-0.011215665
-0.0077788723
-0.0041556261
-0.0003638841
0.0035779915
0.0076473207
0.011823688
0.016082952
0.020405003
0.024766006
0.029147405
0.033527125
0.037889339
0.042216142
0.046496164
0.050717104
0.054872748
0.058952101
0.062949223
0.066863315
0.070700689
0.074463151
0.07815533
0.081786604
0.085366869
0.088909453
0.092428006
0.09594186
0.099465821
0.10302657
0.10663581
0.11032914
0.11410555
0.11801238
0.12201662
0.12618266
0.13041279
0.13479619
0.13912932
0.14352473
0.14766076
0.15160921
0.1550667
0.15779334
0.16003322
0.16056874
-0.0011277129
0.00057042132
-0.00033215378
0.00045581441
0.00012062481
0.00050593545
0.00039936587
0.00059619678
0.00057078231
0.00066776687
0.00065732669
0.00068938438
0.00066228004
0.00064125722
0.00058054311
0.00050829504
0.00040328506
0.00027731048
0.00012001209
-6.4063355e-05
-0.00028039049
-0.00052763146
-0.00080901762
-0.0011245903
-0.0014764871
-0.0018652886
-0.0022925221
-0.0027589827
-0.0032658164
-0.0038138038
-0.0044037032
-0.0050361317
-0.0057114794
-0.0064300837
-0.0071920777
-0.0079974619
-0.0088460235
-0.0097373543
-0.010670815
-0.011645498
-0.012660235
-0.013713475
-0.014803367
-0.015927565
-0.017083318
-0.018267292
-0.019475608
-0.020703708
-0.021946334
-0.023197444
-0.024450158
-0.025696706
-0.026928382
-0.028135521
-0.029307472
-0.030432633
-0.031498451
-0.032491518
-0.033397612
-0.034201873
-0.034888856
-0.035442827
-0.035847807
-0.036087975
-0.036147693
-0.036012029
-0.035666699
-0.035098744
-0.034296307
-0.033249503
-0.03194994
-0.030391839
-0.028571174
-0.026487133
-0.024140742
-0.021536706
-0.018681754
-0.015585294
-0.012260143
-0.0087222987
-0.0049873035
-0.0010766933
0.0029899158
0.0071882502
0.011497034
0.015889839
0.020345347
0.02483742
0.029346626
0.03384934
0.038329438
0.042767112
0.047150591
0.051464568
0.055701891
0.059855273
0.063923991
0.067901118
0.071785916
0.075584075
0.079306562
0.082958062
0.086549594
0.090094812
0.093606024
0.097101894
0.10059624
0.10411267
0.10766216
0.11127409
0.1149479
0.11871997
0.12256236
0.12652052
0.13051446
0.13460062
0.13861979
0.14263003
0.14639619
0.14991392
0.15300085
0.15536515
0.15731342
0.15774049
-0.0011338589
0.00058656319
-0.00032270727
0.00048306923
0.00014842636
0.00054742941
0.00044616032
0.000654535
0.00063716167
0.00074501635
0.00074429448
0.00078739996
0.00077122015
0.00076185993
0.00071310892
0.00065336602
0.0005613342
0.00044884356
0.00030557835
0.00013605189
-6.5174957e-05
-0.0002968328
-0.00056215851
-0.00086130206
-0.0011964606
-0.0015683673
-0.0019786559
-0.0024282306
-0.0029183585
-0.0034499381
-0.004023928
-0.0046411798
-0.0053023845
-0.0060081869
-0.0067590237
-0.0075552378
-0.0083969736
-0.0092842179
-0.010216731
-0.011194025
-0.012215352
-0.013279586
-0.014385289
-0.015530518
-0.016712891
-0.017929418
-0.019176504
-0.020449819
-0.021744258
-0.023053843
-0.024371665
-0.025689809
-0.026999307
-0.028290106
-0.029551029
-0.030769815
-0.031933104
-0.033026556
-0.034034869
-0.034941998
-0.035731191
-0.036385334
-0.036886979
-0.037218831
-0.037363727
-0.037305284
-0.037027765
-0.036516921
-0.035759639
-0.034745042
-0.033463792
-0.031909524
-0.030077653
-0.027967286
-0.025579263
-0.022918988
-0.019992556
-0.016812665
-0.013390544
-0.0097444492
-0.0058913246
-0.0018539344
0.0023471806
0.0066849166
0.011136833
0.015673748
0.020273487
0.0249071
0.029554497
0.034189203
0.038794762
0.043349388
0.047841505
0.052255255
0.056584113
0.060817597
0.064953521
0.068990308
0.072931877
0.076774729
0.08052562
0.084197315
0.087800208
0.091344824
0.094845572
0.098317739
0.10177496
0.10523726
0.10871438
0.11223009
0.11578336
0.11940123
0.12305937
0.12678798
0.13052116
0.13429089
0.13797307
0.14158886
0.14496982
0.14806817
0.15078926
0.15283285
0.15453114
0.15491815
-0.0011317224
0.00060089411
-0.00030701962
0.00051222836
0.0001818475
0.00059310062
0.0004990165
0.00071882352
0.00071067927
0.00082985447
0.00083976742
0.00089457978
0.00089013912
0.00089317701
0.00085716875
0.00081068391
0.00073237069
0.00063406227
0.00050545398
0.00035100786
0.00016530239
-5.0454371e-05
-0.00029949901
-0.00058204748
-0.00090032731
-0.0012551584
-0.0016482649
-0.0020807141
-0.0025539379
-0.0030690617
-0.0036272626
-0.0042296219
-0.0048770878
-0.0055705856
-0.006310884
-0.0070986732
-0.0079344732
-0.0088186581
-0.0097513973
-0.010732624
-0.011762019
-0.012838891
-0.013962226
-0.015130497
-0.016341708
-0.017593222
-0.018881748
-0.020203201
-0.021552645
-0.02292419
-0.024310908
-0.025704761
-0.027096531
-0.028475785
-0.029830822
-0.031148716
-0.032415284
-0.033615224
-0.034732114
-0.035748672
-0.036646768
-0.03740783
-0.038012847
-0.038442951
-0.03867934
-0.038704075
-0.038499842
-0.038051003
-0.037343067
-0.036364086
-0.035103662
-0.033554799
-0.03171226
-0.029575043
-0.0271438
-0.024424313
-0.021423298
-0.018154323
-0.01462967
-0.010868786
-0.0068892835
-0.0027167253
0.001627335
0.0061129939
0.010716864
0.015406521
0.020158906
0.024941768
0.029734493
0.034507701
0.039244835
0.043921458
0.048526099
0.053040632
0.057459072
0.061770857
0.065975384
0.070067746
0.074051224
0.077931175
0.081711802
0.085396865
0.089000312
0.092537842
0.096018849
0.09946022
0.10287412
0.10627843
0.10968252
0.11310566
0.1165474
0.12002765
0.12352584
0.12706093
0.13057887
0.13409394
0.13750916
0.14081958
0.14390429
0.14668626
0.14912678
0.15092397
0.15241628
0.15273584
-0.0011230882
0.00061363055
-0.00028619748
0.00054284213
0.00021996183
0.00064206107
0.00055671327
0.00078756924
0.00078945933
0.00092000782
0.0009410716
0.0010078366
0.0010155529
0.0010313195
0.0010084462
0.00097559551
0.00091141046
0.00082771834
0.0007142481
0.00057541874
0.00040582462
0.00020660707
-2.5492311e-05
-0.00029078376
-0.00059156057
-0.00092876583
-0.0013042288
-0.0017191499
-0.0021751039
-0.0026733849
-0.0032153817
-0.0038024177
-0.0044357259
-0.0051165365
-0.0058459455
-0.0066249994
-0.0074545973
-0.0083355203
-0.0092683607
-0.010253494
-0.011291049
-0.012380789
-0.013522151
-0.014714046
-0.015954895
-0.017242445
-0.018573743
-0.019944985
-0.021351443
-0.02278735
-0.024245799
-0.025718665
-0.027196507
-0.028668541
-0.030122552
-0.031544956
-0.032920735
-0.034233601
-0.035465971
-0.036599264
-0.037613888
-0.038489724
-0.039206078
-0.039742385
-0.040078057
-0.040193464
-0.040069545
-0.039689141
-0.039036212
-0.038097626
-0.036861759
-0.035320907
-0.033469035
-0.031304991
-0.028829166
-0.026047442
-0.022968784
-0.019605581
-0.01597154
-0.012087864
-0.0079731465
-0.0036554606
0.00084273079
0.0054879954
0.010256049
0.015110541
0.020027788
0.024971486
0.029920764
0.034842418
0.039720116
0.044526393
0.049250482
0.053872217
0.058386498
0.062780772
0.067055221
0.07120536
0.075236259
0.079148232
0.082951323
0.086653386
0.090259852
0.093782668
0.097240629
0.10064459
0.1040077
0.10734548
0.11066608
0.11398559
0.11730313
0.12063313
0.12395775
0.12728749
0.13057796
0.13383112
0.13697183
0.1399792
0.14276922
0.14525188
0.14742831
0.14901206
0.15033311
0.15062645
-0.0011088998
0.00062533294
-0.00026045681
0.00057536954
0.00026303567
0.00069493397
0.00061998674
0.00086181564
0.00087481397
0.0010171064
0.0010501527
0.0011294299
0.0011500372
0.0011791651
0.0011701165
0.0011515455
0.001102135
0.0010336662
0.00093590413
0.00081321043
0.00066019444
0.00047793485
0.000263159
1.5481469e-05
-0.00026744343
-0.00058666278
-0.00094411248
-0.0013411489
-0.0017795136
-0.002260708
-0.0027863414
-0.0033579814
-0.0039771348
-0.0046453319
-0.0053640057
-0.0061345644
-0.0069582978
-0.007836399
-0.0087698952