/*--------------------------------*- C++ -*----------------------------------*\
| =========                 |                                                 |
| \\      /  F ield         | foam-extend: Open Source CFD                    |
|  \\    /   O peration     | Version:     4.1                                |
|   \\  /    A nd           | Web:         http://www.foam-extend.org         |
|    \\/     M anipulation  |                                                 |
\*---------------------------------------------------------------------------*/
FoamFile
{
    version     2.0;
    format      ascii;
    class       surfaceScalarField;
    location    "1.6";
    object      phi;
}
// * * * * * * * * * * * * * * * * * * * * * * * * * * * * * * * * * * * * * //

dimensions      [0 3 -1 0 0 0 0];

internalField   nonuniform List<scalar> 
31929
(
-3.9114312e-05
7.6150156e-09
-3.9101174e-05
-1.3137465e-08
-3.9093809e-05
-7.3650905e-09
-3.9077347e-05
-1.6461526e-08
-3.9059397e-05
-1.7950373e-08
-3.9036796e-05
-2.2600997e-08
-3.9010335e-05
-2.6461373e-08
-3.8980479e-05
-2.9855604e-08
-3.8946246e-05
-3.4233215e-08
-3.890873e-05
-3.751549e-08
-3.8866851e-05
-4.1878908e-08
-3.8821514e-05
-4.5337614e-08
-3.8771932e-05
-4.9582099e-08
-3.8718717e-05
-5.3214539e-08
-3.8661393e-05
-5.7323699e-08
-3.8600366e-05
-6.1027763e-08
-3.8535405e-05
-6.4960584e-08
-3.8466819e-05
-6.8586553e-08
-3.8394578e-05
-7.2240522e-08
-3.8318986e-05
-7.5591637e-08
-3.8240193e-05
-7.8793165e-08
-3.8158567e-05
-8.1626583e-08
-3.8074435e-05
-8.4132096e-08
-3.7988292e-05
-8.6142559e-08
-3.7900661e-05
-8.7630824e-08
-3.7812214e-05
-8.8446924e-08
-3.7723688e-05
-8.8526301e-08
-3.7635936e-05
-8.7751824e-08
-3.7549887e-05
-8.6049151e-08
-3.746675e-05
-8.3137212e-08
-3.7387875e-05
-7.887438e-08
-3.7314524e-05
-7.3351534e-08
-3.7248166e-05
-6.6357364e-08
-3.7189936e-05
-5.8229879e-08
-3.7141473e-05
-4.8463829e-08
-3.7105398e-05
-3.6074636e-08
-3.7083601e-05
-2.1797216e-08
-3.70789e-05
-4.7006714e-09
-3.7094427e-05
1.552713e-08
-3.7130265e-05
3.5837772e-08
-3.7186125e-05
5.5860221e-08
-3.7263076e-05
7.6951383e-08
-3.7362297e-05
9.9220253e-08
-3.7485036e-05
1.2273971e-07
-3.7632421e-05
1.4738494e-07
-3.780545e-05
1.7302867e-07
-3.8004943e-05
1.9949287e-07
-3.8231527e-05
2.2658402e-07
-3.8485601e-05
2.5407456e-07
-3.8767318e-05
2.8171703e-07
-3.9076555e-05
3.0923701e-07
-3.9412897e-05
3.3634146e-07
-3.9775615e-05
3.6271853e-07
-4.016366e-05
3.8804484e-07
-4.0575648e-05
4.1198796e-07
-4.1009864e-05
4.3421612e-07
-4.1464268e-05
4.5440352e-07
-4.1936508e-05
4.7223987e-07
-4.2423947e-05
4.8743921e-07
-4.2923697e-05
4.9975014e-07
-4.3432661e-05
5.0896366e-07
-4.3947586e-05
5.1492519e-07
-4.4465127e-05
5.1754145e-07
-4.4981916e-05
5.1678875e-07
-4.5494634e-05
5.1271845e-07
-4.6000095e-05
5.054611e-07
-4.6495323e-05
4.9522761e-07
-4.6977628e-05
4.8230554e-07
-4.7444684e-05
4.6705583e-07
-4.7894586e-05
4.4990182e-07
-4.8325902e-05
4.313158e-07
-4.8737704e-05
4.1180189e-07
-4.9129578e-05
3.9187457e-07
-4.9501612e-05
3.7203382e-07
-4.9854353e-05
3.5274118e-07
-5.0188749e-05
3.3439597e-07
-5.0506064e-05
3.1731527e-07
-5.080779e-05
3.0172538e-07
-5.1095551e-05
2.8776131e-07
-5.1371034e-05
2.7548347e-07
-5.163594e-05
2.6490547e-07
-5.1891975e-05
2.5603511e-07
-5.2140888e-05
2.4891293e-07
-5.2384542e-05
2.436544e-07
-5.2625008e-05
2.4046549e-07
-5.2864664e-05
2.3965624e-07
-5.3106281e-05
2.4161682e-07
-5.3353086e-05
2.4680506e-07
-5.360879e-05
2.5570422e-07
-5.3877602e-05
2.6881233e-07
-5.4164209e-05
2.866063e-07
-5.4473764e-05
3.0955535e-07
-5.4811862e-05
3.3809766e-07
-5.5184549e-05
3.7268773e-07
-5.5598323e-05
4.1377407e-07
-5.6060212e-05
4.6188886e-07
-5.6577814e-05
5.1760223e-07
-5.7159507e-05
5.8169314e-07
-5.7814554e-05
6.5504617e-07
-5.8553555e-05
7.3900151e-07
-5.9388695e-05
8.3514009e-07
-6.0334714e-05
9.4601897e-07
-6.1409427e-05
1.0747132e-06
-6.2635797e-05
1.2263699e-06
-6.4042949e-05
1.4071514e-06
-6.5670401e-05
1.6274522e-06
-6.7569701e-05
1.8993007e-06
-6.9812516e-05
2.2428142e-06
-7.2492094e-05
2.6795789e-06
-7.5737449e-05
3.2453549e-06
-7.9710814e-05
3.9733644e-06
-8.4630338e-05
4.9195239e-06
-9.0752495e-05
6.1221573e-06
-9.8407347e-05
7.6548524e-06
-0.00010794171
9.534367e-06
-0.00011978257
1.184086e-05
-0.00013429327
1.4510697e-05
-0.0001519265
1.763323e-05
-0.000172867
2.0940499e-05
-0.00019751294
2.4645939e-05
-0.00022529591
2.7782973e-05
-0.00025683761
3.1541702e-05
-0.00028729946
3.0461841e-05
3.5281145e-05
-0.00011375017
1.3217046e-08
-0.00011373291
-3.0395121e-08
-0.00011371641
-2.3859679e-08
-0.00011368775
-4.5123339e-08
-0.00011365439
-5.1307825e-08
-0.00011361278
-6.4212245e-08
-0.00011356474
-7.4501776e-08
-0.00011350972
-8.4873384e-08
-0.00011344781
-9.6142932e-08
-0.00011337925
-1.0607758e-07
-0.00011330375
-1.1738225e-07
-0.00011322166
-1.274255e-07
-0.00011313275
-1.3849558e-07
-0.00011303735
-1.486167e-07
-0.00011293538
-1.5929302e-07
-0.00011282718
-1.6922041e-07
-0.00011271289
-1.7925851e-07
-0.0001125929
-1.8856987e-07
-0.00011246757
-1.9757012e-07
-0.00011233747
-2.0569411e-07
-0.00011220319
-2.1307225e-07
-0.00011206554
-2.1928099e-07
-0.00011192541
-2.2426087e-07
-0.00011178392
-2.2763124e-07
-0.00011164235
-2.2919624e-07
-0.00011150229
-2.2850673e-07
-0.00011136556
-2.2526427e-07
-0.00011123418
-2.1912653e-07
-0.0001111104
-2.0983118e-07
-0.00011099663
-1.9690674e-07
-0.00011089541
-1.8009407e-07
-0.0001108096
-1.5915841e-07
-0.00011074354
-1.3242548e-07
-0.00011070246
-9.9307771e-08
-0.00011069072
-6.0202781e-08
-0.00011071361
-1.3179089e-08
-0.00011077465
3.9242367e-08
-0.00011087221
9.2852326e-08
-0.00011100614
1.4946094e-07
-0.00011118039
2.1008901e-07
-0.00011139884
2.7430534e-07
-0.00011166436
3.4247547e-07
-0.00011197963
4.1448631e-07
-0.00011234702
4.9013205e-07
-0.00011276865
5.6901753e-07
-0.00011324629
6.5067202e-07
-0.00011378131
7.3451129e-07
-0.0001143746
8.1987509e-07
-0.00011502653
9.060051e-07
-0.00011573689
9.9206748e-07
-0.00011650479
1.0771457e-06
-0.00011732871
1.1602579e-06
-0.00011820635
1.2403629e-06
-0.00011913469
1.3163825e-06
-0.00012010992
1.3872137e-06
-0.00012112746
1.4517608e-06
-0.00012218202
1.5089586e-06
-0.00012326758
1.5578062e-06
-0.00012437754
1.5973998e-06
-0.00012550477
1.6269714e-06
-0.00012664172
1.6459174e-06
-0.00012778063
1.6538396e-06
-0.00012891366
1.6505703e-06
-0.00013003307
1.6361979e-06
-0.00013113144
1.6110834e-06
-0.00013220184
1.5758683e-06
-0.00013323809
1.5314745e-06
-0.00013423487
1.4790846e-06
-0.00013518794
1.4201233e-06
-0.00013609425
1.3562151e-06
-0.00013695207
1.2891343e-06
-0.00013776101
1.2207431e-06
-0.00013852206
1.1529199e-06
-0.0001392375
1.0874768e-06
-0.00013991084
1.0260819e-06
-0.00014054663
9.701837e-07
-0.00014115026
9.2094916e-07
-0.00014172777
8.7923377e-07
-0.00014228559
8.4558024e-07
-0.00014283037
8.2026226e-07
-0.00014336882
8.0336402e-07
-0.00014390768
7.9489221e-07
-0.00014445366
7.9488702e-07
-0.00014501354
8.0353889e-07
-0.00014559432
8.2124725e-07
-0.00014620334
8.4866973e-07
-0.00014684841
8.8669065e-07
-0.00014753801
9.3640157e-07
-0.00014828132
9.9902069e-07
-0.00014908837
1.0758645e-06
-0.00014997005
1.1682791e-06
-0.00015093814
1.2776529e-06
-0.00015200543
1.4053829e-06
-0.0001531857
1.5529543e-06
-0.00015449385
1.721926e-06
-0.00015594604
1.9140827e-06
-0.00015755984
2.1314005e-06
-0.00015935446
2.3763175e-06
-0.00016135104
2.6516236e-06
-0.000163573
2.9609587e-06
-0.0001660464
3.3085434e-06
-0.00016880051
3.7001294e-06
-0.00017186815
4.1423546e-06
-0.00017528642
4.6446325e-06
-0.00017909684
5.2175799e-06
-0.00018334616
5.8767665e-06
-0.00018808577
6.6389152e-06
-0.00019337221
7.5292483e-06
-0.0001992649
8.5722678e-06
-0.00020582576
9.8062176e-06
-0.00021311343
1.1261034e-05
-0.00022118143
1.2987523e-05
-0.00023006564
1.5006372e-05
-0.00023978148
1.737069e-05
-0.00025029831
2.0051194e-05
-0.0002615398
2.3082359e-05
-0.00027332914
2.630003e-05
-0.00028541169
2.9715778e-05
-0.00029732011
3.2848922e-05
-0.00030849706
3.5822887e-05
-0.00031794668
3.7232599e-05
-0.00032461399
3.8209009e-05
-0.00032737792
3.3225769e-05
3.0483827e-05
-0.00017923479
2.0785105e-08
-0.00017921955
-4.5628298e-08
-0.0001792033
-4.0117132e-08
-0.00017917512
-7.329959e-08
-0.00017914199
-8.4442431e-08
-0.00017910027
-1.0593221e-07
-0.00017905242
-1.2234651e-07
-0.00017899725
-1.4004051e-07
-0.00017893569
-1.5770292e-07
-0.00017886743
-1.7434679e-07
-0.00017879288
-1.9192826e-07
-0.0001787121
-2.0820445e-07
-0.0001786254
-2.2519136e-07
-0.00017853304
-2.409846e-07
-0.00017843537
-2.5695933e-07
-0.00017833283
-2.7175994e-07
-0.00017822595
-2.8614097e-07
-0.00017811536
-2.9915429e-07
-0.00017800185
-3.110855e-07
-0.00017788633
-3.2121617e-07
-0.00017776988
-3.295201e-07
-0.00017765377
-3.3538691e-07
-0.00017753947
-3.3855938e-07
-0.00017742867
-3.3843528e-07
-0.00017732327
-3.3459347e-07
-0.00017722541
-3.2637112e-07
-0.00017713746
-3.1321109e-07
-0.00017706208
-2.945098e-07
-0.00017700227
-2.6963918e-07
-0.00017696196
-2.3721231e-07
-0.00017694573
-1.9632445e-07
-0.00017695815
-1.4674767e-07
-0.00017700316
-8.7407805e-08
-0.00017708567
-1.6804848e-08
-0.00017720772
6.1852376e-08
-0.00017736664
1.4573815e-07
-0.00017756381
2.364164e-07
-0.00017780513
3.3416833e-07
-0.00017809543
4.3976447e-07
-0.00017843889
5.5354333e-07
-0.00017883942
6.748382e-07
-0.00017930023
8.0328262e-07
-0.00017982418
9.3844265e-07
-0.0001804138
1.0797452e-06
-0.00018107117
1.2263948e-06
-0.00018179794
1.3774409e-06
-0.00018259517
1.5317408e-06
-0.00018346329
1.6879977e-06
-0.00018440203
1.8447381e-06
-0.0001854103
2.0003424e-06
-0.0001864862
2.1530431e-06
-0.00018762689
2.3009543e-06
-0.00018882862
2.4420922e-06
-0.00019008666
2.5744192e-06
-0.00019139532
2.6958749e-06
-0.000192748
2.8044402e-06
-0.00019413723
2.8981894e-06
-0.00019555478
2.9753564e-06
-0.00019699178
3.0344005e-06
-0.00019843889
3.0740804e-06
-0.00019988648
3.093506e-06
-0.00020132485
3.0922099e-06
-0.00020274447
3.0701885e-06
-0.00020413621
3.0279387e-06
-0.0002054916
2.9664763e-06
-0.00020680307
2.8873364e-06
-0.00020806415
2.7925584e-06
-0.00020926971
2.6846352e-06
-0.00021041604
2.5664627e-06
-0.00021150108
2.4412529e-06
-0.00021252438
2.3124318e-06
-0.00021348716
2.1835226e-06
-0.00021439226
2.0580161e-06
-0.00021524401
1.9392276e-06
-0.00021604809
1.830169e-06
-0.00021681134
1.7334294e-06
-0.00021754147
1.6510839e-06
-0.0002182469
1.5846563e-06
-0.00021893644
1.5351292e-06
-0.0002196192
1.5030208e-06
-0.00022030435
1.4885134e-06
-0.00022100109
1.4916249e-06
-0.00022171857
1.512373e-06
-0.00022246598
1.5509497e-06
-0.00022325255
1.607811e-06
-0.00022408764
1.683759e-06
-0.00022498085
1.7799075e-06
-0.00022594212
1.8976654e-06
-0.00022698173
2.0386306e-06
-0.00022811041
2.2045486e-06
-0.00022933935
2.3972153e-06
-0.00023068017
2.6184747e-06
-0.00023214495
2.8701613e-06
-0.00023374617
3.1541758e-06
-0.0002354967
3.4724575e-06
-0.00023740976
3.8271398e-06
-0.00023949887
4.2205121e-06
-0.00024177785
4.6552966e-06
-0.00024426075
5.1345243e-06
-0.00024696181
5.6620239e-06
-0.0002498954
6.2421347e-06
-0.00025307587
6.8805934e-06
-0.00025651736
7.5838484e-06
-0.00026023352
8.3607871e-06
-0.000264237
9.2210688e-06
-0.00026853873
1.0178491e-05
-0.00027314687
1.1247053e-05
-0.00027806509
1.2447467e-05
-0.00028329065
1.3797827e-05
-0.0002888109
1.5326471e-05
-0.00029460003
1.7050167e-05
-0.00030061303
1.9000519e-05
-0.00030678111
2.1174457e-05
-0.00031300294
2.3592521e-05
-0.00031913967
2.6187925e-05
-0.00032500512
2.8947805e-05
-0.00033036096
3.165587e-05
-0.00033491292
3.4267743e-05
-0.00033830232
3.6238318e-05
-0.00034012275
3.7643318e-05
-0.00033994121
3.7051058e-05
-0.00033718565
3.5453449e-05
-0.0003322747
2.8314822e-05
2.0789923e-05
-0.0002322046
3.7232923e-08
-0.00023220139
-4.8832526e-08
-0.00023219783
-4.3676379e-08
-0.00023218472
-8.6411191e-08
-0.00023216804
-1.0112445e-07
-0.00023214475
-1.2921934e-07
-0.0002321174
-1.4970093e-07
-0.00023208478
-1.7266192e-07
-0.00023204818
-1.9430618e-07
-0.00023200722
-2.15298e-07
-0.00023196274
-2.3641366e-07
-0.0002319148
-2.5614211e-07
-0.0002318641
-2.7589471e-07
-0.00023181101
-2.9406734e-07
-0.00023175629
-3.1168829e-07
-0.00023170056
-3.274854e-07
-0.00023164473
-3.4197521e-07
-0.0002315897
-3.5417703e-07
-0.00023153661
-3.6418073e-07
-0.00023148666
-3.7116416e-07
-0.00023144127
-3.7490731e-07
-0.00023140201
-3.7465341e-07
-0.00023137062
-3.6994398e-07
-0.00023134906
-3.599996e-07
-0.00023133948
-3.4417036e-07
-0.00023134449
-3.2136247e-07
-0.00023136703
-2.9067229e-07
-0.00023141024
-2.5130185e-07
-0.00023147744
-2.0243227e-07
-0.00023157185
-1.4280214e-07
-0.00023169671
-7.1468437e-08
-0.00023185558
1.2127556e-08
-0.00023204816
1.0516824e-07
-0.0002322721
2.0713536e-07
-0.0002325304
3.2014897e-07
-0.00023282878
4.4411835e-07
-0.00023317241
5.8005227e-07
-0.00023356638
7.2814036e-07
-0.0002340147
8.8808411e-07
-0.00023452051
1.0593513e-06
-0.00023508698
1.2413033e-06
-0.00023571701
1.4333167e-06
-0.00023641316
1.6345924e-06
-0.00023717755
1.844131e-06
-0.00023801181
2.0606574e-06
-0.00023891703
2.2826595e-06
-0.00023989364
2.5083514e-06
-0.00024094135
2.735709e-06
-0.00024205906
2.96245e-06
-0.00024324479
3.1860753e-06
-0.00024449563
3.4038805e-06
-0.00024580768
3.6130022e-06
-0.00024717605
3.8104613e-06
-0.00024859487
3.9932368e-06
-0.00025005731
4.1583217e-06
-0.0002515557
4.3028262e-06
-0.00025308157
4.4240603e-06
-0.00025462585
4.5196344e-06
-0.000256179
4.587555e-06
-0.00025773125
4.626328e-06
-0.00025927277
4.6350244e-06
-0.00026079393
4.6133712e-06
-0.00026228553
4.5617931e-06
-0.00026373904
4.4814462e-06
-0.00026514679
4.374223e-06
-0.00026650218
4.2427303e-06
-0.00026779987
4.0902488e-06
-0.00026903588
3.9206406e-06
-0.00027020768
3.7382638e-06
-0.00027131427
3.547839e-06
-0.00027235613
3.354301e-06
-0.00027333525
3.1626374e-06
-0.00027425495
2.9777171e-06
-0.00027511983
2.8041076e-06
-0.00027593558
2.6459194e-06
-0.00027670882
2.5066689e-06
-0.00027744691
2.3891756e-06
-0.00027815779
2.2955324e-06
-0.00027884979
2.2271263e-06
-0.0002795315
2.1847361e-06
-0.00028021167
2.1686856e-06
-0.00028089909
2.1790414e-06
-0.00028160252
2.2157996e-06
-0.00028233065
2.2790882e-06
-0.00028309211
2.3692657e-06
-0.00028389538
2.4870295e-06
-0.00028474885
2.6333812e-06
-0.00028566081
2.8096252e-06
-0.00028663943
3.0172489e-06
-0.00028769276
3.2578822e-06
-0.00028882873
3.5331777e-06
-0.00029005505
3.8447951e-06
-0.00029137921
4.194321e-06
-0.00029280837
4.5833349e-06
-0.00029434927
5.0133653e-06
-0.00029600817
5.4860339e-06
-0.00029779066
6.0030045e-06
-0.00029970161
6.5662436e-06
-0.00030174497
7.1778914e-06
-0.00030392366
7.8407069e-06
-0.00030623932
8.5577939e-06
-0.00030869209
9.3333642e-06
-0.00031128033
1.0172096e-05
-0.00031400014
1.1080588e-05
-0.00031684486
1.206579e-05
-0.00031980414
1.3137778e-05
-0.00032286318
1.430609e-05
-0.00032600073
1.5585021e-05
-0.00032918793
1.6985022e-05
-0.0003323847
1.8523247e-05
-0.00033553829
2.0203752e-05
-0.00033857751
2.2039739e-05
-0.00034141235
2.40093e-05
-0.00034392642
2.6106586e-05
-0.00034598154
2.824305e-05
-0.00034741019
3.0376448e-05
-0.00034803327
3.2278957e-05
-0.00034765385
3.388832e-05
-0.0003461107
3.4695166e-05
-0.00034324892
3.4781544e-05
-0.00033915169
3.2953827e-05
-0.00033377653
3.0078289e-05
-0.00032844697
2.2985258e-05
1.4923556e-05
-0.00027181898
7.0624979e-08
-0.00027183912
-2.8693517e-08
-0.00027186021
-2.2587352e-08
-0.00027187589
-7.0726201e-08
-0.00027189073
-8.628735e-08
-0.00027190228
-1.1766755e-07
-0.00027191274
-1.3924576e-07
-0.00027192119
-1.6421057e-07
-0.00027192899
-1.8650991e-07
-0.00027193595
-2.0833507e-07
-0.0002719431
-2.2925951e-07
-0.0002719507
-2.4854869e-07
-0.00027195963
-2.6695545e-07
-0.00027197047
-2.8323145e-07
-0.00027198415
-2.9801377e-07
-0.00027200147
-3.1016114e-07
-0.00027202351
-3.1993197e-07
-0.00027205134
-3.2635065e-07
-0.00027208623
-3.2928738e-07
-0.00027212956
-3.2783684e-07
-0.00027218286
-3.2160732e-07
-0.00027224779
-3.0972507e-07
-0.00027232618
-2.9155659e-07
-0.00027242
-2.6617312e-07
-0.0002725314
-2.3277276e-07
-0.00027266247
-1.9029142e-07
-0.00027281549
-1.376552e-07
-0.0002729928
-7.3987263e-08
-0.00027319696
1.7306262e-09
-0.00027342819
8.8421613e-08
-0.00027368574
1.8608524e-07
-0.00027397018
2.9656937e-07
-0.00027428526
4.2024434e-07
-0.00027463597
5.578454e-07
-0.00027502627
7.1044816e-07
-0.00027546082
8.7866896e-07
-0.00027594299
1.0622181e-06
-0.00027647547
1.2606292e-06
-0.0002770611
1.4737111e-06
-0.00027770275
1.7009988e-06
-0.00027840314
1.9416935e-06
-0.00027916466
2.1948344e-06
-0.00027998931
2.4592447e-06
-0.00028087864
2.7334604e-06
-0.00028183366
3.0156807e-06
-0.00028285478
3.3037799e-06
-0.00028394171
3.5952753e-06
-0.00028509336
3.8873637e-06
-0.00028630782
4.1769098e-06
-0.00028758225
4.4605046e-06
-0.00028891287
4.7344963e-06
-0.00029029492
4.995061e-06
-0.00029172274
5.2382747e-06
-0.00029318972
5.4602213e-06
-0.00029468848
5.6570759e-06
-0.0002962109
5.8252452e-06
-0.00029774831
5.9614777e-06
-0.00029929167
6.0629903e-06
-0.0003008317
6.1275829e-06
-0.00030235913
6.1537582e-06
-0.00030386489
6.1407856e-06
-0.00030534031
6.0887952e-06
-0.00030677732
5.9988058e-06
-0.00030816862
5.8727414e-06
-0.00030950781
5.7134117e-06
-0.00031078954
5.5244617e-06
-0.00031200959
5.3103018e-06
-0.00031316493
5.0759772e-06
-0.00031425372
4.8270539e-06
-0.00031527533
4.5694505e-06
-0.00031623029
4.3092608e-06
-0.00031712022
4.0525664e-06
-0.00031794775
3.8052455e-06
-0.00031871641
3.5727738e-06
-0.00031943056
3.3600621e-06
-0.00032009521
3.171318e-06
-0.00032071597
3.0099442e-06
-0.00032129896
2.8785175e-06
-0.00032185065
2.7788152e-06
-0.00032237783
2.7119195e-06
-0.00032288752
2.6783724e-06
-0.00032338686
2.6783788e-06
-0.00032388304
2.711983e-06
-0.00032438323
2.7792788e-06
-0.00032489447
2.8805033e-06
-0.0003254236
3.0161656e-06
-0.00032597723
3.1870039e-06
-0.00032656161
3.3940052e-06
-0.00032718263
3.6382781e-06
-0.00032784578
3.9210269e-06
-0.00032855603
4.2434255e-06
-0.00032931784
4.6066091e-06
-0.00033013509
5.0115709e-06
-0.00033101099
5.4592301e-06
-0.00033194799
5.9503719e-06
-0.00033294774
6.4857831e-06
-0.00033401094
7.066201e-06
-0.00033513725
7.6925593e-06
-0.00033632522
8.3658588e-06
-0.00033757208
9.0875631e-06
-0.00033887363
9.8593511e-06
-0.00034022402
1.0683751e-05
-0.00034161549
1.156356e-05
-0.00034303791
1.2503013e-05
-0.00034447848
1.3506361e-05
-0.00034592076
1.4580058e-05
-0.00034734415
1.5729479e-05
-0.00034872221
1.6963084e-05
-0.00035002203
1.828484e-05
-0.00035120151
1.9702722e-05
-0.0003522093
2.1211545e-05
-0.00035298119
2.2811635e-05
-0.00035344275
2.4470854e-05
-0.00035350542
2.6169257e-05
-0.00035307635
2.7813986e-05
-0.00035205463
2.9354721e-05
-0.00035035609
3.0580417e-05
-0.00034790286
3.1435096e-05
-0.00034468558
3.1477878e-05
-0.00034069706
3.0793028e-05
-0.00033616233
2.8419099e-05
-0.00033112153
2.5037483e-05
-0.00032664741
1.8511143e-05
1.0856744e-05
-0.00029928827
1.2761763e-07
-0.00029934064
2.3675199e-08
-0.00029939415
3.0924542e-08
-0.00029944679
-1.808354e-08
-0.00029950159
-3.1487653e-08
-0.00029955682
-6.2438038e-08
-0.00029961422
-8.1841148e-08
-0.00029967322
-1.0521028e-07
-0.00029973511
-1.2462042e-07
-0.00029979987
-1.4357383e-07
-0.00029986855
-1.6058842e-07
-0.00029994148
-1.7561091e-07
-0.00030001967
-1.8877159e-07
-0.00030010374
-1.9915948e-07
-0.00030019471
-2.0704048e-07
-0.00030029346
-2.1141409e-07
-0.00030040109
-2.1230046e-07
-0.00030051868
-2.0875766e-07
-0.00030064746
-2.0050643e-07
-0.00030078868
-1.8661682e-07
-0.00030094374
-1.6654988e-07
-0.00030111409
-1.3937373e-07
-0.00030130131
-1.0434194e-07
-0.00030150694
-6.0540969e-08
-0.00030173268
-7.0362347e-09
-0.00030197935
5.6385173e-08
-0.00030224726
1.3025428e-07
-0.00030253723
2.1597738e-07
-0.00030284982
3.143224e-07
-0.00030318762
4.2622693e-07
-0.00030355408
5.525385e-07
-0.00030395169
6.9418109e-07
-0.00030438397
8.5252333e-07
-0.00030485432
1.0281933e-06
-0.00030536506
1.2211909e-06
-0.00030591815
1.4317644e-06
-0.00030651603
1.6600918e-06
-0.00030716139
1.9059946e-06
-0.00030785675
2.1690701e-06
-0.00030860433
2.4485802e-06
-0.0003094062
2.7435591e-06
-0.0003102641
3.0527308e-06
-0.00031117938
3.3745304e-06
-0.00031215292
3.7070012e-06
-0.00031318501
4.0477728e-06
-0.0003142753
4.3940614e-06
-0.00031542267
4.7426473e-06
-0.00031662522
5.08992e-06
-0.00031788019
5.4318801e-06
-0.00031918391
5.7642222e-06
-0.00032053181
6.0823912e-06
-0.00032191843
6.3816813e-06
-0.00032333749
6.6573402e-06
-0.00032478198
6.9047109e-06
-0.00032624425
7.1193391e-06
-0.00032771615
7.297145e-06
-0.00032918922
7.4345519e-06
-0.00033065486
7.5286264e-06
-0.00033210447
7.5771987e-06
-0.0003335297
7.5789839e-06
-0.00033492254
7.5336299e-06
-0.00033627555
7.4418017e-06
-0.00033758193
7.3051848e-06
-0.00033883566
7.1264763e-06
-0.00034003159
6.9093379e-06
-0.00034116544
6.658317e-06
-0.00034223389
6.3787509e-06
-0.00034323452
6.0766075e-06
-0.00034416582
5.7583527e-06
-0.00034502713
5.4307641e-06
-0.00034581861
5.1007396e-06
-0.00034654115
4.7751044e-06
-0.00034719632
4.4604172e-06
-0.00034778632
4.1627728e-06
-0.00034831391
3.8876475e-06
-0.00034878236
3.6397705e-06
-0.00034919544
3.4230276e-06
-0.00034955738
3.2404503e-06
-0.0003498728
3.0942376e-06
-0.00035014674
2.985859e-06
-0.00035038456
2.9161921e-06
-0.00035059189
2.8857102e-06
-0.00035077455
2.8946392e-06
-0.00035093843
2.943163e-06
-0.00035108941
3.0314839e-06
-0.00035123321
3.15997e-06
-0.00035137531
3.3290981e-06
-0.00035152081
3.5395056e-06
-0.00035167439
3.7918568e-06
-0.00035184021
4.0868496e-06
-0.00035202186
4.4250791e-06
-0.0003522223
4.8070453e-06
-0.00035244377
5.2330382e-06
-0.00035268776
5.7032205e-06
-0.00035295495
6.2175682e-06
-0.00035324518
6.7760078e-06
-0.00035355733
7.3783488e-06
-0.00035388929
8.0245183e-06
-0.00035423787
8.7144394e-06
-0.00035459869
9.448387e-06
-0.0003549661
1.022676e-05
-0.00035533295
1.1050605e-05
-0.0003556905
1.1921103e-05
-0.00035602798
1.2840497e-05
-0.00035633245
1.381083e-05
-0.00035658805
1.4835656e-05
-0.00035677573
1.5917165e-05
-0.00035687209
1.7059446e-05
-0.0003568492
1.8261949e-05
-0.00035667283
1.952635e-05
-0.00035630321
2.0841922e-05
-0.00035569281
2.2201231e-05
-0.00035478992
2.3567969e-05
-0.00035353641
2.4915747e-05
-0.00035187795
2.6155524e-05
-0.00034976061
2.7237386e-05
-0.00034715552
2.7975321e-05
-0.00034404398
2.8323561e-05
-0.00034048187
2.791576e-05
-0.0003365203
2.6831464e-05
-0.00033243158
2.4330382e-05
-0.00032832139
2.0927284e-05
-0.00032501595
1.5205706e-05
8.421396e-06
-0.00031699528
2.1134464e-07
-0.00031708394
1.1233565e-07
-0.00031717416
1.2114715e-07
-0.00031726694
7.4695952e-08
-0.00031736301
6.4578079e-08
-0.00031746255
3.7103348e-08
-0.00031756689
2.2506282e-08
-0.000317676
3.8984667e-09
-0.00031779107
-9.5560909e-09
-0.0003179122
-2.2440671e-08
-0.00031804034
-3.2450533e-08
-0.00031817589
-4.0063668e-08
-0.00031831977
-4.4883184e-08
-0.00031847265
-4.6283615e-08
-0.00031863548
-4.4215449e-08
-0.00031880908
-3.7812489e-08
-0.00031899447
-2.6911549e-08
-0.00031919261
-1.0615202e-08
-0.00031940449
1.1375473e-08
-0.00031963097
3.9863669e-08
-0.00031987297
7.5449723e-08
-0.00032013139
1.190432e-07
-0.0003204071
1.7137388e-07
-0.00032070101
2.3337083e-07
-0.0003210139
3.0584615e-07
-0.00032134729
3.89779e-07
-0.00032170317
4.8613289e-07
-0.00032208309
5.9590032e-07
-0.00032248883
7.200587e-07
-0.00032292264
8.6004225e-07
-0.00032338696
1.0168531e-06
-0.00032388382
1.1910411e-06
-0.00032441475
1.3834593e-06
-0.00032498132
1.5947558e-06
-0.00032558566
1.8255318e-06
-0.00032623003
2.0761392e-06
-0.00032691648
2.3465444e-06
-0.00032764689
2.6363963e-06
-0.00032842305
2.9452303e-06
-0.00032924664
3.2721744e-06
-0.00033011913
3.6160463e-06
-0.00033104161
3.9752128e-06
-0.00033201476
4.3476826e-06
-0.00033303872
4.7309637e-06
-0.00033411303
5.1220749e-06
-0.0003352365
5.5175396e-06
-0.00033640724
5.9133786e-06
-0.00033762249
6.3051708e-06
-0.00033887868
6.6880746e-06
-0.0003401714
7.0569399e-06
-0.0003414954
7.4063923e-06
-0.00034284468
7.7309636e-06
-0.00034421257
8.0252257e-06
-0.00034559182
8.283963e-06
-0.00034697478
8.5022975e-06
-0.00034835352
8.6758837e-06
-0.00034972001
8.8010434e-06
-0.00035106629
8.874909e-06
-0.00035238463
8.8955366e-06
-0.00035366766
8.8620163e-06
-0.00035490853
8.7744951e-06
-0.00035610097
8.6342424e-06
-0.0003572394
8.4436227e-06
-0.00035831899
8.2060608e-06
-0.00035933562
7.9259666e-06
-0.00036028593
7.608632e-06
-0.0003611673
7.2601172e-06
-0.00036197776
6.8870713e-06
-0.000362716
6.4965936e-06
-0.00036338128
6.0960424e-06
-0.00036397339
5.6928429e-06
-0.00036449258
5.2943028e-06
-0.00036493959
4.9074277e-06
-0.00036531556
4.5387375e-06
-0.00036562204
4.1941251e-06
-0.00036586101
3.8787441e-06
-0.0003660349
3.5969163e-06
-0.00036614658
3.3521303e-06
-0.00036619939
3.1470513e-06
-0.00036619715
2.9836177e-06
-0.00036614411
2.8631494e-06
-0.00036604492
2.7865221e-06
-0.00036590456
2.7542752e-06
-0.00036572819
2.7667996e-06
-0.00036552108
2.8243728e-06
-0.00036528844
2.9273276e-06
-0.00036503531
3.0759645e-06
-0.00036476643
3.2706312e-06
-0.00036448615
3.511578e-06
-0.0003641983
3.7989996e-06
-0.00036390613
4.1329095e-06
-0.00036361229
4.5131989e-06
-0.00036331873
4.9394836e-06
-0.00036302674
5.4112256e-06
-0.00036273682
5.9276561e-06
-0.00036244873
6.4879147e-06
-0.00036216138
7.0909953e-06
-0.00036187284
7.7359846e-06
-0.00036158033
8.4219297e-06
-0.0003612801
9.1481578e-06
-0.00036096742
9.9140702e-06
-0.00036063639
1.071958e-05
-0.00036027993
1.1564644e-05
-0.00035988944
1.2450002e-05
-0.00035945466
1.337605e-05
-0.00035896318
1.434418e-05
-0.00035840029
1.5354275e-05
-0.00035774812
1.6407272e-05
-0.00035698574
1.7499576e-05
-0.00035608805
1.8628659e-05
-0.00035502681
1.978068e-05
-0.00035376936
2.0943786e-05
-0.00035228232
2.2080923e-05
-0.00035052999
2.3163418e-05
-0.00034848365
2.4109183e-05
-0.00034611737
2.4871108e-05
-0.00034342935
2.5287299e-05
-0.00034042325
2.5317458e-05
-0.0003371652
2.4657716e-05
-0.00033370343
2.3369693e-05
-0.00033026238
2.0889333e-05
-0.00032692819
1.7593092e-05
-0.0003243127
1.2590218e-05
6.6894954e-06
-0.00032762785
3.1903502e-07
-0.00032774811
2.3259806e-07
-0.00032787116
2.441939e-07
-0.00032800054
2.040791e-07
-0.000328135
1.9903136e-07
-0.00032827542
1.7753071e-07
-0.00032842235
1.6943234e-07
-0.000328576
1.5754892e-07
-0.0003287372
1.516412e-07
-0.00032890632
1.4667951e-07
-0.00032908431
1.4554477e-07
-0.00032927168
1.4730548e-07
-0.00032946929
1.5272512e-07
-0.00032967773
1.6216198e-07
-0.00032989784
1.7588935e-07
-0.00033013028
1.9462647e-07
-0.00033037586
2.1867114e-07
-0.00033063531
2.4883393e-07
-0.00033090951
2.855722e-07
-0.0003311994
3.2975534e-07
-0.00033150596
3.8201519e-07
-0.00033183018
4.4325958e-07
-0.00033217308
5.1426914e-07
-0.00033253572
5.9601177e-07
-0.00033291926
6.893912e-07
-0.00033332511
7.9563197e-07
-0.00033375477
9.1578558e-07
-0.00033420968
1.0508134e-06
-0.00033469134
1.2017137e-06
-0.00033520091
1.3696206e-06
-0.00033573959
1.5555318e-06
-0.00033630892
1.7603737e-06
-0.00033691064
1.985172e-06
-0.00033754645
2.2305729e-06
-0.0003382179
2.4969808e-06
-0.0003389264
2.7846346e-06
-0.00033967344
3.0935885e-06
-0.00034046054
3.4234898e-06
-0.00034128903
3.7737255e-06
-0.00034216003
4.1431773e-06
-0.00034307439
4.5303966e-06
-0.00034403253
4.9333555e-06
-0.00034503445
5.3496041e-06
-0.00034607957
5.7760869e-06
-0.00034716669
6.2091891e-06
-0.00034829388
6.6447309e-06
-0.00034945848
7.0779812e-06
-0.00035065705
7.5037387e-06
-0.00035188535
7.9163765e-06
-0.0003531384
8.3099853e-06
-0.00035441049
8.6784867e-06
-0.00035569532
9.0157924e-06
-0.00035698606
9.315965e-06
-0.00035827551
9.5734143e-06
-0.00035955625
9.7830333e-06
-0.00036082077
9.9404058e-06
-0.00036206166
1.0041939e-05
-0.00036327175
1.0084999e-05
-0.00036444422
1.0068007e-05
-0.00036557274
9.9905319e-06
-0.00036665153
9.8532825e-06
-0.00036767543
9.6581481e-06
-0.00036863995
9.4081423e-06
-0.00036954123
9.1073412e-06
-0.00037037605
8.7607854e-06
-0.00037114178
8.3743594e-06
-0.00037183633
7.9546651e-06
-0.00037245809
7.5088354e-06
-0.00037300589
7.0443964e-06
-0.00037347893
6.5690823e-06
-0.00037387674
6.0906532e-06
-0.00037419917
5.6167268e-06
-0.00037444635
5.1546101e-06
-0.00037461875
4.7111365e-06
-0.00037471716
4.2925376e-06
-0.00037474277
3.9043503e-06
-0.00037469717
3.5513248e-06
-0.00037458247
3.2374308e-06
-0.00037440127
2.9658477e-06
-0.00037415671
2.7390569e-06
-0.00037385247
2.558908e-06
-0.0003734927
2.4267579e-06
-0.00037308199
2.3435575e-06
-0.00037262522
2.3100334e-06
-0.00037212749
2.3266444e-06
-0.00037159394
2.3937775e-06
-0.0003710296
2.5116245e-06
-0.00037043929
2.680314e-06
-0.00036982745
2.8997467e-06
-0.00036919816
3.1697019e-06
-0.00036855494
3.4896898e-06
-0.00036790078
3.859039e-06
-0.00036723802
4.2767254e-06
-0.00036656833
4.7415401e-06
-0.00036589271
5.2520342e-06
-0.00036521148
5.8066861e-06
-0.00036452428
6.4037918e-06
-0.00036383
7.0417081e-06
-0.0003631268
7.7187312e-06
-0.00036241205
8.4334063e-06
-0.00036168229
9.1843127e-06
-0.00036093315
9.9704363e-06
-0.00036015925
1.0790743e-05
-0.00035935401
1.1644765e-05
-0.00035850956
1.25316e-05
-0.00035761633
1.3450952e-05
-0.00035666301
1.4400952e-05
-0.00035563592
1.5380178e-05
-0.00035451922
1.6382878e-05
-0.00035329411
1.7403554e-05
-0.00035193992
1.8426482e-05
-0.00035043311
1.9436978e-05
-0.00034875062
2.0398439e-05
-0.00034686849
2.1281279e-05
-0.00034476995
2.2010644e-05
-0.00034244125
2.2542407e-05
-0.00033989118
2.2737227e-05
-0.00033713307
2.2559353e-05
-0.00033423764
2.1762287e-05
-0.00033126113
2.0393185e-05
-0.00032840558
1.8033784e-05
-0.00032576853
1.4956034e-05
-0.00032377915
1.0600839e-05
5.4909478e-06
-0.00033360268
4.4596667e-07
-0.0003337462
3.7612102e-07
-0.00033389305
3.9104067e-07
-0.00033404895
3.5998237e-07
-0.00033421125
3.613301e-07
-0.00033438141
3.4769657e-07
-0.00033455941
3.4742689e-07
-0.0003347458
3.4394386e-07
-0.00033494121
3.4704515e-07
-0.00033514607
3.5154393e-07
-0.00033536117
3.6063892e-07
-0.000335587
3.7314036e-07
-0.00033582435
3.9007128e-07
-0.0003360738
4.1161209e-07
-0.00033633612
4.3821454e-07
-0.000336612
4.7049942e-07
-0.0003369022
5.0887923e-07
-0.0003372075