/*--------------------------------*- C++ -*----------------------------------*\
| =========                 |                                                 |
| \\      /  F ield         | foam-extend: Open Source CFD                    |
|  \\    /   O peration     | Version:     4.1                                |
|   \\  /    A nd           | Web:         http://www.foam-extend.org         |
|    \\/     M anipulation  |                                                 |
\*---------------------------------------------------------------------------*/
FoamFile
{
    version     2.0;
    format      ascii;
    class       volScalarField;
    location    "1.6";
    object      rAU;
}
// * * * * * * * * * * * * * * * * * * * * * * * * * * * * * * * * * * * * * //

dimensions      [0 0 1 0 0 0 0];

internalField   nonuniform List<scalar> 
16126
(
0.00049547799
0.00049505893
0.00049505933
0.00049505957
0.00049506008
0.00049506065
0.00049506135
0.00049506219
0.00049506312
0.0004950642
0.00049506537
0.00049506669
0.00049506811
0.00049506967
0.00049507133
0.00049507314
0.00049507505
0.00049507709
0.00049507924
0.00049508151
0.00049508388
0.00049508636
0.00049508891
0.00049509156
0.00049509426
0.00049509702
0.00049509978
0.00049510257
0.00049510532
0.00049510803
0.00049511063
0.00049511311
0.00049511542
0.0004951175
0.00049511933
0.00049512085
0.00049512199
0.00049512267
0.00049512234
0.00049512121
0.00049511947
0.00049511705
0.00049511394
0.00049511009
0.00049510547
0.00049510004
0.00049509377
0.00049508666
0.00049507869
0.00049506985
0.00049506014
0.00049504959
0.0004950382
0.00049502602
0.00049501309
0.00049499946
0.0004949852
0.00049497038
0.00049495508
0.00049493939
0.00049492342
0.00049490726
0.00049489102
0.00049487481
0.00049485872
0.00049484286
0.00049482732
0.00049481219
0.00049479754
0.00049478343
0.0004947699
0.00049475699
0.00049474471
0.00049473304
0.00049472199
0.00049471151
0.00049470156
0.00049469211
0.00049468309
0.00049467446
0.00049466617
0.00049465815
0.00049465035
0.00049464272
0.00049463518
0.00049462767
0.0004946201
0.00049461237
0.00049460436
0.00049459593
0.00049458695
0.00049457725
0.00049456665
0.00049455498
0.00049454201
0.00049452754
0.00049451132
0.00049449309
0.00049447257
0.00049444942
0.00049442326
0.00049439363
0.00049435997
0.00049432157
0.00049427752
0.00049422658
0.00049416714
0.00049409697
0.00049401317
0.0004939117
0.00049378754
0.00049363389
0.00049344281
0.0004932041
0.00049290711
0.00049253877
0.00049208812
0.00049154162
0.00049089418
0.00049013436
0.00048928064
0.00048831502
0.00048738608
0.00048591085
0.00049407729
0.00049366043
0.00049366113
0.00049366138
0.00049366221
0.00049366312
0.00049366428
0.00049366569
0.00049366725
0.0004936691
0.00049367108
0.00049367335
0.00049367576
0.00049367844
0.00049368127
0.00049368435
0.00049368759
0.00049369106
0.00049369467
0.00049369849
0.00049370244
0.00049370656
0.00049371076
0.00049371508
0.00049371944
0.00049372385
0.0004937282
0.00049373251
0.00049373665
0.00049374062
0.00049374429
0.00049374762
0.00049375054
0.00049375284
0.00049375444
0.00049375518
0.00049375371
0.00049375065
0.00049374601
0.00049373992
0.0004937325
0.00049372355
0.00049371302
0.00049370082
0.00049368689
0.00049367119
0.00049365366
0.00049363431
0.00049361311
0.00049359008
0.00049356527
0.00049353872
0.00049351051
0.00049348077
0.00049344961
0.00049341718
0.00049338366
0.00049334926
0.00049331418
0.00049327865
0.00049324293
0.00049320725
0.00049317185
0.000493137
0.0004931029
0.00049306978
0.00049303783
0.00049300719
0.00049297799
0.00049295031
0.00049292418
0.00049289961
0.00049287656
0.00049285492
0.00049283457
0.00049281537
0.00049279714
0.00049277967
0.00049276277
0.00049274622
0.00049272982
0.00049271335
0.0004926966
0.00049267937
0.00049266142
0.00049264252
0.00049262241
0.00049260082
0.00049257744
0.00049255195
0.000492524
0.0004924932
0.00049245915
0.00049242141
0.00049237949
0.0004923329
0.00049228105
0.00049222334
0.00049215909
0.00049208754
0.00049200783
0.00049191898
0.00049181989
0.00049170927
0.00049158566
0.0004914473
0.00049129226
0.0004911182
0.00049092266
0.00049070269
0.00049045551
0.00049017783
0.00048986748
0.00048952185
0.00048914152
0.00048872653
0.0004882844
0.00048782033
0.00048735682
0.00048690432
0.00048652226
0.00048620625
0.00048615525
0.00048575113
0.00049203708
0.00049162331
0.00049162395
0.00049162382
0.00049162448
0.00049162513
0.00049162607
0.00049162726
0.00049162859
0.00049163021
0.00049163195
0.00049163397
0.0004916361
0.00049163849
0.00049164099
0.00049164373
0.00049164657
0.00049164961
0.00049165273
0.00049165602
0.00049165934
0.00049166277
0.00049166618
0.00049166964
0.000491673
0.00049167631
0.00049167941
0.00049168235
0.00049168494
0.00049168722
0.00049168896
0.00049169011
0.00049169058
0.00049169019
0.00049168696
0.00049168202
0.00049167473
0.00049166558
0.00049165487
0.00049164234
0.00049162799
0.0004916116
0.00049159316
0.00049157258
0.0004915498
0.00049152479
0.00049149753
0.00049146804
0.00049143634
0.0004914025
0.0004913666
0.00049132876
0.00049128913
0.00049124789
0.00049120526
0.00049116146
0.00049111677
0.00049107146
0.00049102585
0.00049098024
0.00049093496
0.0004908903
0.00049084658
0.00049080406
0.00049076301
0.00049072363
0.00049068609
0.00049065053
0.00049061699
0.00049058551
0.00049055603
0.00049052846
0.00049050267
0.00049047845
0.00049045557
0.00049043379
0.00049041283
0.0004903924
0.00049037222
0.00049035198
0.00049033142
0.00049031024
0.00049028816
0.00049026489
0.00049024014
0.00049021359
0.00049018493
0.00049015382
0.0004901199
0.00049008281
0.00049004216
0.00048999755
0.00048994857
0.00048989479
0.00048983577
0.00048977106
0.00048970018
0.00048962265
0.00048953794
0.00048944552
0.00048934482
0.00048923525
0.00048911617
0.00048898689
0.00048884672
0.00048869487
0.00048853059
0.00048835302
0.00048816154
0.00048795539
0.00048773449
0.0004874987
0.00048724952
0.00048698846
0.00048672067
0.00048645077
0.00048619096
0.00048594975
0.00048575247
0.00048560756
0.00048557044
0.00048562421
0.00048592337
0.00048589622
0.00049039907
0.00048998783
0.00048998806
0.00048998718
0.00048998721
0.00048998709
0.00048998727
0.0004899876
0.00048998802
0.00048998867
0.00048998935
0.00048999025
0.00048999116
0.00048999227
0.00048999337
0.00048999463
0.00048999587
0.00048999721
0.0004899985
0.00048999986
0.0004900011
0.00049000235
0.00049000342
0.00049000442
0.00049000517
0.00049000574
0.00049000596
0.00049000587
0.00049000527
0.00049000424
0.00049000255
0.00048999987
0.00048999398
0.00048998707
0.00048997726
0.00048996548
0.00048995216
0.00048993702
0.00048992003
0.00048990095
0.00048987985
0.00048985652
0.00048983099
0.00048980317
0.00048977304
0.00048974059
0.00048970586
0.00048966889
0.00048962976
0.00048958858
0.0004895455
0.00048950069
0.00048945437
0.00048940678
0.00048935819
0.0004893089
0.00048925923
0.00048920952
0.00048916009
0.00048911129
0.00048906346
0.00048901689
0.00048897186
0.00048892863
0.0004888874
0.00048884832
0.0004888115
0.00048877697
0.00048874472
0.0004887147
0.00048868677
0.00048866076
0.00048863648
0.00048861368
0.00048859208
0.00048857141
0.00048855137
0.00048853168
0.00048851206
0.00048849222
0.00048847189
0.0004884508
0.00048842868
0.00048840526
0.00048838026
0.0004883534
0.0004883244
0.00048829295
0.00048825875
0.00048822152
0.00048818095
0.00048813676
0.00048808865
0.00048803637
0.00048797964
0.00048791821
0.00048785185
0.00048778033
0.00048770344
0.00048762098
0.00048753277
0.00048743864
0.00048733845
0.00048723207
0.00048711939
0.00048700034
0.00048687494
0.00048674321
0.0004866055
0.00048646218
0.00048631433
0.00048616318
0.00048601153
0.0004858623
0.00048572167
0.00048559509
0.00048549446
0.00048542705
0.00048541414
0.00048545813
0.00048559977
0.00048581055
0.0004861879
0.00048618965
0.00048918097
0.00048877217
0.00048877167
0.00048876975
0.00048876879
0.00048876751
0.00048876649
0.0004887655
0.00048876454
0.0004887637
0.0004887628
0.00048876201
0.00048876114
0.00048876034
0.00048875943
0.00048875856
0.00048875755
0.00048875654
0.00048875534
0.00048875409
0.00048875261
0.00048875103
0.00048874914
0.00048874708
0.00048874466
0.00048874198
0.00048873887
0.00048873543
0.00048873141
0.00048872437
0.00048871645
0.00048870738
0.00048869494
0.00048868106
0.00048866571
0.00048864859
0.00048862973
0.00048860889
0.00048858614
0.00048856125
0.00048853433
0.00048850516
0.00048847382
0.00048844025
0.00048840446
0.00048836649
0.0004883264
0.0004882843
0.0004882403
0.00048819457
0.00048814731
0.00048809875
0.00048804915
0.00048799883
0.00048794808
0.00048789724
0.00048784666
0.0004877967
0.00048774768
0.00048769995
0.0004876538
0.0004876095
0.0004875673
0.00048752737
0.00048748985
0.00048745483
0.00048742233
0.00048739233
0.00048736475
0.00048733946
0.0004873163
0.00048729506
0.00048727553
0.00048725744
0.00048724055
0.00048722459
0.00048720929
0.00048719442
0.00048717975
0.00048716502
0.00048715002
0.00048713454
0.00048711834
0.00048710122
0.00048708294
0.00048706329
0.00048704202
0.0004870189
0.00048699372
0.00048696626
0.00048693632
0.00048690372
0.00048686828
0.00048682986
0.00048678835
0.00048674365
0.00048669568
0.00048664441
0.00048658981
0.00048653188
0.00048647066
0.0004864062
0.0004863386
0.00048626797
0.00048619449
0.00048611834
0.00048603988
0.00048595947
0.00048587778
0.00048579559
0.00048571431
0.00048563549
0.00048556204
0.00048549679
0.00048544523
0.00048541167
0.00048540551
0.00048543099
0.00048550378
0.00048562166
0.00048581399
0.00048605351
0.00048640392
0.0004863674
0.00048833929
0.0004879328
0.00048793113
0.00048792902
0.0004879269
0.00048792431
0.00048792193
0.00048791945
0.00048791693
0.00048791442
0.00048791176
0.00048790912
0.00048790629
0.00048790345
0.0004879004
0.00048789729
0.00048789394
0.0004878905
0.00048788678
0.00048788294
0.00048787878
0.00048787445
0.00048786977
0.00048786488
0.00048785958
0.00048785231
0.0004878441
0.0004878353
0.00048782568
0.00048781278
0.0004877986
0.00048778312
0.00048776622
0.00048774766
0.00048772749
0.00048770548
0.00048768172
0.00048765599
0.00048762837
0.00048759864
0.00048756695
0.0004875331
0.00048749721
0.00048745924
0.00048741925
0.00048737732
0.00048733355
0.0004872881
0.00048724114
0.00048719288
0.00048714357
0.00048709351
0.00048704299
0.00048699236
0.00048694196
0.00048689214
0.00048684326
0.00048679568
0.0004867497
0.00048670564
0.00048666376
0.00048662427
0.00048658736
0.00048655315
0.0004865217
0.00048649304
0.00048646714
0.0004864439
0.00048642322
0.00048640492
0.00048638883
0.00048637471
0.00048636236
0.00048635154
0.00048634201
0.00048633354
0.00048632592
0.00048631894
0.00048631242
0.00048630615
0.00048629997
0.00048629369
0.00048628714
0.00048628014
0.0004862725
0.00048626403
0.00048625455
0.00048624387
0.00048623181
0.00048621822
0.00048620296
0.00048618588
0.00048616691
0.00048614596
0.000486123
0.000486098
0.00048607097
0.00048604196
0.00048601103
0.00048597827
0.00048594379
0.00048590775
0.00048587032
0.0004858317
0.00048579215
0.00048575195
0.00048571153
0.00048567133
0.00048563207
0.00048559456
0.00048556014
0.00048553025
0.0004855074
0.00048549396
0.00048549437
0.00048551179
0.00048555346
0.00048562165
0.00048572801
0.00048586852
0.00048606408
0.00048629098
0.00048658908
0.00048649069
0.00048779727
0.00048739159
0.00048738858
0.00048738675
0.00048738378
0.0004873808
0.00048737758
0.0004873743
0.00048737047
0.00048736644
0.00048736219
0.00048735788
0.00048735331
0.00048734866
0.00048734373
0.00048733868
0.00048733333
0.00048732784
0.00048732166
0.00048731481
0.00048730741
0.00048729959
0.00048729116
0.00048728226
0.0004872727
0.00048726089
0.00048724777
0.00048723366
0.00048721829
0.00048720174
0.00048718375
0.00048716434
0.00048714344
0.00048712084
0.00048709666
0.00048707064
0.0004870429
0.0004870132
0.00048698168
0.00048694814
0.00048691275
0.00048687533
0.00048683603
0.00048679487
0.00048675193
0.00048670734
0.00048666125
0.00048661386
0.0004865654
0.00048651612
0.00048646634
0.00048641637
0.00048636655
0.00048631726
0.00048626885
0.0004862217
0.00048617614
0.00048613251
0.00048609111
0.00048605221
0.00048601601
0.00048598269
0.00048595237
0.0004859251
0.00048590091
0.00048587974
0.00048586154
0.00048584616
0.00048583346
0.00048582325
0.00048581533
0.00048580947
0.00048580548
0.00048580312
0.00048580218
0.00048580245
0.00048580375
0.0004858059
0.00048580873
0.00048581207
0.00048581578
0.0004858197
0.00048582367
0.00048582754
0.00048583112
0.00048583427
0.0004858368
0.00048583856
0.0004858394
0.00048583918
0.00048583778
0.00048583511
0.00048583111
0.00048582571
0.00048581892
0.00048581074
0.00048580121
0.0004857904
0.00048577838
0.00048576526
0.00048575118
0.00048573628
0.00048572073
0.00048570475
0.00048568856
0.00048567244
0.00048565676
0.00048564195
0.00048562864
0.00048561757
0.00048560988
0.0004856068
0.00048561044
0.00048562266
0.00048564703
0.00048568585
0.0004857448
0.00048582517
0.00048593606
0.00048607365
0.0004862536
0.00048645781
0.00048671073
0.00048656456
0.00048747092
0.00048706467
0.00048706062
0.00048705815
0.00048705432
0.00048705093
0.00048704687
0.00048704281
0.00048703799
0.0004870329
0.00048702745
0.0004870218
0.00048701575
0.00048700946
0.00048700273
0.00048699571
0.00048698821
0.00048698037
0.00048697164
0.00048696201
0.00048695157
0.00048694045
0.0004869284
0.00048691555
0.00048690166
0.00048688683
0.00048687082
0.00048685372
0.00048683528
0.00048681562
0.00048679446
0.0004867719
0.00048674785
0.00048672211
0.00048669479
0.00048666565
0.00048663484
0.00048660214
0.00048656771
0.00048653135
0.00048649326
0.00048645331
0.00048641167
0.0004863684
0.00048632362
0.00048627751
0.00048623025
0.0004861821
0.00048613332
0.00048608423
0.00048603515
0.00048598644
0.00048593848
0.00048589164
0.00048584629
0.00048580279
0.00048576148
0.00048572264
0.00048568656
0.00048565345
0.00048562348
0.00048559677
0.00048557337
0.00048555331
0.00048553654
0.00048552298
0.00048551253
0.00048550501
0.00048550025
0.00048549806
0.00048549823
0.00048550052
0.00048550475
0.00048551068
0.00048551812
0.00048552687
0.00048553676
0.00048554761
0.00048555928
0.0004855716
0.00048558443
0.00048559761
0.00048561098
0.0004856244
0.00048563769
0.00048565069
0.00048566324
0.00048567519
0.00048568639
0.00048569671
0.00048570606
0.00048571433
0.00048572148
0.00048572745
0.00048573226
0.00048573591
0.00048573845
0.00048573994
0.00048574046
0.00048574011
0.00048573901
0.00048573731
0.00048573515
0.00048573273
0.00048573026
0.000485728
0.00048572628
0.0004857255
0.00048572623
0.00048572913
0.00048573525
0.00048574564
0.00048576212
0.0004857863
0.00048582116
0.00048586855
0.0004859331
0.00048601566
0.00048612328
0.00048625245
0.00048641415
0.0004865941
0.00048680633
0.0004866171
0.00048728591
0.00048687889
0.00048687404
0.00048687056
0.00048686574
0.00048686128
0.00048685607
0.00048685082
0.00048684502
0.000486839
0.00048683246
0.00048682559
0.00048681818
0.00048681036
0.00048680194
0.00048679304
0.00048678346
0.00048677332
0.00048676241
0.00048675086
0.00048673843
0.00048672526
0.00048671111
0.00048669611
0.00048668
0.00048666292
0.00048664461
0.0004866252
0.00048660443
0.00048658243
0.00048655894
0.00048653403
0.00048650764
0.00048647957
0.00048644997
0.00048641859
0.00048638561
0.00048635079
0.00048631434
0.00048627608
0.00048623623
0.00048619468
0.00048615166
0.00048610723
0.00048606157
0.00048601489
0.00048596741
0.00048591944
0.00048587126
0.00048582323
0.00048577569
0.00048572902
0.00048568361
0.00048563984
0.00048559806
0.00048555863
0.00048552184
0.00048548797
0.00048545724
0.00048542984
0.00048540589
0.00048538545
0.00048536854
0.00048535515
0.00048534518
0.00048533853
0.00048533507
0.00048533461
0.00048533695
0.00048534189
0.00048534923
0.00048535873
0.00048537019
0.0004853834
0.00048539816
0.00048541428
0.00048543158
0.00048544988
0.00048546904
0.00048548887
0.00048550923
0.00048552994
0.00048555085
0.00048557179
0.00048559259
0.00048561308
0.0004856331
0.00048565248
0.00048567109
0.00048568879
0.0004857055
0.00048572111
0.00048573558
0.00048574887
0.00048576098
0.00048577192
0.00048578172
0.00048579045
0.00048579819
0.00048580503
0.00048581107
0.00048581646
0.00048582132
0.00048582584
0.00048583023
0.00048583472
0.00048583965
0.00048584539
0.00048585249
0.00048586159
0.00048587363
0.00048588961
0.00048591115
0.00048593965
0.00048597769
0.00048602682
0.00048609086
0.00048617044
0.00048627111
0.00048638993
0.00048653458
0.00048669406
0.0004868755
0.00048665347
0.00048718616
0.00048677831
0.00048677285
0.00048676856
0.00048676298
0.00048675766
0.00048675158
0.0004867454
0.00048673863
0.00048673158
0.00048672396
0.00048671598
0.00048670739
0.00048669837
0.00048668868
0.00048667847
0.00048666753
0.000486656
0.00048664365
0.00048663061
0.00048661667
0.00048660194
0.00048658621
0.00048656959
0.00048655186
0.00048653312
0.00048651315
0.00048649206
0.0004864696
0.00048644591
0.00048642073
0.00048639416
0.00048636613
0.00048633646
0.00048630529
0.0004862724
0.00048623796
0.00048620178
0.00048616406
0.00048612465
0.0004860838
0.00048604143
0.00048599777
0.00048595295
0.00048590716
0.00048586064
0.00048581366
0.00048576653
0.00048571957
0.00048567315
0.00048562764
0.00048558341
0.00048554086
0.00048550035
0.00048546223
0.00048542681
0.00048539437
0.00048536516
0.00048533935
0.0004853171
0.00048529848
0.00048528352
0.00048527223
0.00048526452
0.00048526032
0.00048525948
0.00048526186
0.00048526726
0.00048527549
0.00048528634
0.00048529959
0.00048531503
0.00048533246
0.00048535164
0.0004853724
0.00048539452
0.00048541782
0.00048544211
0.00048546723
0.00048549298
0.0004855192
0.00048554569
0.00048557229
0.00048559881
0.00048562506
0.00048565088
0.00048567608
0.00048570051
0.00048572403
0.0004857465
0.00048576783
0.00048578793
0.00048580675
0.00048582425
0.00048584043
0.00048585532
0.00048586896
0.00048588141
0.00048589274
0.00048590307
0.0004859125
0.00048592116
0.00048592922
0.00048593687
0.00048594432
0.00048595182
0.00048595972
0.00048596841
0.00048597843
0.00048599043
0.0004860053
0.00048602398
0.00048604794
0.00048607843
0.00048611768
0.00048616698
0.00048622943
0.00048630542
0.00048639907
0.00048650774
0.0004866364
0.00048677646
0.00048693101
0.00048668109
0.00048713414
0.00048672551
0.00048671962
0.00048671466
0.0004867085
0.00048670253
0.00048669578
0.00048668889
0.00048668137
0.00048667355
0.00048666512
0.0004866563
0.00048664683
0.0004866369
0.00048662626
0.00048661508
0.00048660314
0.00048659058
0.00048657716
0.00048656305
0.000486548
0.00048653215
0.00048651527
0.00048649749
0.00048647858
0.00048645866
0.0004864375
0.00048641522
0.00048639159
0.00048636674
0.00048634041
0.00048631271
0.00048628358
0.00048625284
0.00048622065
0.0004861868
0.00048615147
0.00048611449
0.00048607607
0.00048603608
0.00048599479
0.00048595215
0.00048590841
0.00048586373
0.00048581831
0.00048577243
0.00048572637
0.00048568046
0.00048563504
0.00048559048
0.00048554716
0.00048550544
0.0004854657
0.00048542831
0.00048539357
0.00048536178
0.00048533319
0.00048530802
0.0004852864
0.00048526847
0.00048525426
0.0004852438
0.00048523704
0.00048523392
0.00048523432
0.0004852381
0.00048524512
0.00048525518
0.00048526808
0.00048528363
0.00048530161
0.00048532181
0.00048534402
0.00048536801
0.00048539359
0.00048542055
0.00048544867
0.00048547776
0.00048550762
0.00048553805
0.00048556884
0.0004855998
0.00048563072
0.00048566064
0.00048568722
0.00048571519
0.00048574438
0.00048577462
0.00048580465
0.00048583016
0.00048585435
0.00048587712
0.00048589843
0.00048591825
0.0004859366
0.00048595348
0.00048596896
0.00048598312
0.00048599603
0.00048600781
0.0004860186
0.00048602853
0.00048603779
0.00048604658
0.00048605512
0.00048606371
0.00048607269
0.00048608247
0.00048609361
0.00048610673
0.00048612268
0.00048614235
0.00048616705
0.00048619792
0.00048623683
0.00048628489
0.00048634459
0.00048641618
0.0004865027
0.00048660193
0.00048671693
0.000486841
0.00048697458
0.00048670244
0.0004871071
0.00048669779
0.0004866916
0.0004866861
0.00048667952
0.00048667303
0.00048666579
0.00048665835
0.00048665028
0.00048664187
0.00048663284
0.00048662338
0.00048661326
0.00048660264
0.00048659131
0.00048657941
0.00048656672
0.00048655339
0.0004865392
0.00048652429
0.00048650842
0.00048649176
0.00048647405
0.00048645543
0.00048643568
0.00048641493
0.00048639293
0.00048636982
0.00048634537
0.0004863197
0.00048629258
0.00048626411
0.00048623425
0.00048620282
0.00048616998
0.00048613555
0.00048609972
0.00048606231
0.00048602356
0.00048598337
0.00048594201
0.00048589944
0.00048585596
0.00048581172
0.00048576696
0.00048572196
0.00048567701
0.00048563246
0.00048558865
0.00048554594
0.00048550472
0.00048546533
0.00048542815
0.0004853935
0.00048536169
0.00048533298
0.0004853076
0.00048528574
0.00048526751
0.00048525303
0.00048524231
0.00048523536
0.00048523214
0.00048523257
0.00048523654
0.00048524391
0.00048525454
0.00048526824
0.00048528483
0.00048530411
0.00048532587
0.00048534989
0.00048537599
0.00048540391
0.00048543346
0.0004854644
0.00048549652
0.00048552958
0.00048556339
0.00048559769
0.00048563104
0.00048565429
0.00048567938
0.00048570541
0.00048573007
0.00048575812
0.00048578938
0.00048582366
0.00048585967
0.00048589304
0.00048592694
0.0004859612
0.00048599262
0.00048601373
0.00048603319
0.00048605104
0.00048606734
0.0004860822
0.0004860957
0.00048610798
0.0004861192
0.00048612952
0.00048613914
0.00048614829
0.00048615723
0.00048616625
0.00048617573
0.00048618609
0.00048619788
0.0004862117
0.00048622837
0.00048624869
0.00048627385
0.00048630483
0.0004863432
0.00048638985
0.00048644673
0.00048651391
0.00048659352
0.00048668361
0.00048678585
0.00048689503
0.0004870103
0.00048671947
0.00048709235
0.00048668247
0.00048667607
0.00048667013
0.00048666322
0.00048665632
0.0004866487
0.00048664084
0.00048663234
0.00048662348
0.00048661398
0.00048660404
0.00048659341
0.00048658228
0.00048657041
0.00048655796
0.00048654471
0.0004865308
0.00048651603
0.00048650052
0.00048648405
0.00048646677
0.00048644844
0.00048642921
0.00048640884
0.00048638747
0.00048636485
0.00048634114
0.0004863161
0.00048628986
0.00048626219
0.00048623319
0.00048620284
0.00048617096
0.00048613773
0.00048610295
0.00048606684
0.00048602924
0.0004859904
0.00048595021
0.00048590898
0.00048586668
0.00048582362
0.00048577995
0.00048573594
0.00048569187
0.00048564804
0.0004856048
0.00048556248
0.00048552145
0.00048548207
0.0004854447
0.00048540966
0.0004853773
0.00048534787
0.00048532162
0.00048529878
0.0004852795
0.00048526389
0.00048525205
0.00048524399
0.00048523972
0.0004852392
0.00048524234
0.00048524906
0.00048525922
0.00048527268
0.00048528928
0.00048530884
0.00048533117
0.00048535606
0.00048538331
0.0004854127
0.000485444
0.00048547698
0.0004855114
0.00048554701
0.00048558358
0.00048562086
0.00048564813
0.00048566944
0.00048568261
0.00048569971
0.00048572064
0.00048574528
0.00048577349
0.00048580508
0.00048583985
0.00048587758
0.00048591804
0.00048596102
0.00048600624
0.00048605041
0.00048608594
0.00048612139
0.00048614324
0.00048615992
0.00048617505
0.00048618873
0.0004862011
0.00048621236
0.00048622268
0.00048623228
0.00048624142
0.00048625036
0.00048625944
0.00048626902
0.00048627953
0.00048629151
0.00048630555
0.00048632239
0.00048634279
0.00048636777
0.0004863982
0.00048643538
0.00048648005
0.00048653371
0.00048659636
0.00048666945
0.0004867513
0.00048684267
0.00048693941
0.00048703984
0.00048673352
0.00048708334
0.00048667299
0.00048666643
0.00048666012
0.00048665296
0.00048664573
0.00048663779
0.0004866296
0.00048662075
0.00048661153
0.00048660165
0.00048659131
0.00048658029
0.00048656873
0.00048655643
0.00048654355
0.00048652984
0.00048651548
0.00048650024
0.00048648425
0.00048646731
0.00048644955
0.00048643074
0.00048641102
0.00048639017
0.00048636832
0.00048634523
0.00048632106
0.00048629557
0.0004862689
0.00048624082
0.00048621144
0.00048618074
0.00048614855
0.00048611505
0.00048608007
0.00048604382
0.00048600615
0.00048596732
0.00048592724
0.00048588622
0.00048584425
0.00048580164
0.00048575856
0.00048571527
0.00048567206
0.00048562923
0.00048558713
0.00048554609
0.00048550647
0.00048546861
0.00048543286
0.00048539954
0.00048536895
0.00048534137
0.00048531701
0.00048529609
0.00048527875
0.00048526511
0.00048525524
0.00048524919
0.00048524694
0.00048524847
0.00048525371
0.00048526259
0.00048527498
0.00048529076
0.00048530977
0.00048533185
0.00048535681
0.00048538446
0.00048541458
0.00048544695
0.00048548133
0.00048551748
0.00048555512
0.00048559401
0.00048563385
0.0004856599
0.00048567085
0.00048567908
0.00048569149
0.00048570801
0.00048572859
0.00048575308
0.00048578133
0.00048581314
0.00048584831
0.0004858866
0.00048592775
0.00048597151
0.00048601761
0.00048606578
0.00048611578
0.00048616735
0.00048620679
0.00048624244
0.00048626105
0.00048627473
0.00048628705
0.0004862982
0.0004863084
0.00048631787
0.0004863269
0.00048633578
0.00048634483
0.00048635444
0.00048636505
0.00048637715
0.00048639132
0.00048640824
0.00048642858
0.00048645325
0.00048648297
0.00048651883
0.00048656138
0.00048661176
0.00048666985
0.0004867366
0.00048681053
0.00048689177
0.00048697708
0.00048706453
0.00048674512
0.0004870769
0.00048666616
0.00048665947
0.00048665285
0.00048664548
0.00048663795
0.00048662976
0.00048662126
0.00048661213
0.00048660259
0.00048659239
0.00048658173
0.00048657036
0.00048655845
0.00048654579
0.00048653253
0.00048651845
0.0004865037
0.00048648807
0.00048647169
0.00048645435
0.00048643618
0.00048641697
0.00048639685
0.0004863756
0.00048635336
0.00048632989
0.00048630535
0.00048627949
0.00048625248
0.00048622408
0.00048619441
0.00048616344
0.00048613102
0.00048609734
0.00048606222
0.00048602589
0.0004859882
0.00048594943
0.00048590948
0.00048586869
0.00048582703
0.00048578483
0.00048574226
0.00048569959
0.0004856571
0.0004856151
0.00048557392
0.00048553389
0.00048549536
0.00048545867
0.00048542414
0.0004853921
0.00048536283
0.00048533659
0.0004853136
0.00048529406
0.00048527812
0.0004852659
0.00048525749
0.00048525291
0.00048525219
0.00048525531
0.00048526222
0.00048527285
0.0004852871
0.00048530487
0.00048532601
0.00048535036
0.00048537775
0.00048540797
0.00048544081
0.00048547604
0.00048551341
0.00048555264
0.00048559346
0.00048563558
0.00048566572
0.00048567115
0.00048567395
0.00048568113
0.0004856927
0.00048570862
0.00048572882
0.00048575315
0.00048578145
0.00048581352
0.00048584914
0.00048588804
0.00048592995
0.00048597459
0.00048602166
0.00048607087
0.00048612194
0.00048617458
0.00048622853
0.00048628356
0.00048632276
0.00048635496
0.00048636712
0.00048637806
0.00048638802
0.00048639724
0.00048640603
0.00048641467
0.00048642351
0.00048643294
0.00048644338
0.00048645532
0.00048646929
0.00048648591
0.00048650579
0.00048652972
0.00048655832
0.00048659247
0.00048663261
0.00048667959
0.00048673325
0.00048679414
0.00048686098
0.00048693351
0.00048700908
0.00048708564
0.00048675507
0.0004870716
0.00048666053
0.00048665373
0.00048664683
0.00048663928
0.00048663149
0.00048662307
0.00048661431
0.00048660491
0.0004865951
0.00048658462
0.00048657365
0.00048656198
0.00048654976
0.00048653678
0.00048652319
0.00048650878
0.00048649369
0.00048647771
0.00048646098
0.00048644329
0.00048642477
0.00048640521
0.00048638474
0.00048636315
0.00048634056
0.00048631676
0.0004862919
0.00048626573
0.00048623843
0.00048620976
0.00048617984
0.00048614865
0.00048611604
0.00048608221
0.00048604699
0.00048601059
0.0004859729
0.00048593418
0.00048589435
0.00048585374
0.00048581234
0.00048577047
0.0004857283
0.00048568611
0.00048564417
0.00048560278
0.00048556229
0.00048552299
0.00048548525
0.00048544938
0.00048541571
0.00048538453
0.00048535616
0.00048533083
0.00048530877
0.00048529017
0.00048527519
0.00048526396
0.00048525657
0.00048525309
0.00048525353
0.0004852579
0.00048526617
0.00048527829
0.00048529419
0.00048531376
0.00048533687
0.00048536337
0.00048539309
0.00048542583
0.00048546135
0.00048549944
0.0004855398
0.00048558216
0.00048562621
0.00048566619
0.00048567138
0.00048566829
0.00048566975
0.00048567583
0.00048568654
0.00048570185
0.00048572169
0.0004857459
0.00048577433
0.00048580675
0.00048584291
0.00048588254
0.00048592533
0.00048597097
0.00048601914
0.00048606952
0.00048612178
0.00048617563
0.00048623077
0.00048628693
0.00048634389
0.00048639828
0.00048643347
0.00048645295
0.0004864626
0.00048647151
0.00048647998
0.00048648833
0.00048649689
0.00048650606
0.00048651625
0.00048652793
0.00048654158
0.00048655778
0.00048657706
0.0004866001
0.00048662742
0.00048665973
0.00048669735
0.00048674089
0.00048679014
0.00048684537
0.00048690547
0.00048696993
0.00048703663
0.00048710362
0.00048676349
0.00048706682
0.00048665548
0.00048664857
0.00048664143
0.0004866337
0.00048662568
0.00048661705
0.00048660805
0.00048659841
0.00048658834
0.0004865776
0.00048656636
0.00048655441
0.0004865419
0.00048652863
0.00048651474
0.00048650002
0.00048648462
0.00048646833
0.00048645129
0.00048643327
0.00048641444
0.00048639456
0.00048637378
0.00048635187
0.00048632898
0.00048630489
0.00048627974
0.0004862533
0.00048622573
0.00048619682
0.00048616668
0.0004861353
0.00048610252
0.00048606856
0.00048603323
0.00048599678
0.00048595906
0.00048592037
0.00048588062
0.00048584013
0.00048579891
0.00048575726
0.00048571538
0.00048567351
0.00048563194
0.00048559096
0.0004855509
0.00048551207
0.00048547481
0.00048543944
0.00048540628
0.00048537563
0.00048534778
0.00048532298
0.00048530145
0.00048528342
0.00048526903
0.00048525843
0.00048525175
0.00048524904
0.00048525036
0.00048525573
0.00048526515
0.00048527859
0.00048529597
0.00048531723
0.00048534224
0.00048537084
0.00048540288
0.00048543815
0.0004854764
0.00048551741
0.00048556085
0.00048560644
0.00048565383
0.00048567291
0.00048566352
0.00048565881
0.00048565888
0.00048566383
0.00048567369
0.00048568842
0.00048570795
0.00048573212
0.00048576077
0.00048579364
0.00048583048
0.00048587097
0.0004859148
0.0004859616
0.00048601104
0.00048606274
0.00048611637
0.00048617158
0.00048622805
0.00048628549
0.00048634363
0.00048640222
0.00048646104
0.00048650475
0.00048653308
0.00048654154
0.00048654955
0.00048655743
0.00048656554
0.00048657424
0.00048658395
0.00048659511
0.00048660817
0.00048662364
0.00048664202
0.00048666388