/*--------------------------------*- C++ -*----------------------------------*\
| =========                 |                                                 |
| \\      /  F ield         | foam-extend: Open Source CFD                    |
|  \\    /   O peration     | Version:     4.1                                |
|   \\  /    A nd           | Web:         http://www.foam-extend.org         |
|    \\/     M anipulation  |                                                 |
\*---------------------------------------------------------------------------*/
FoamFile
{
    version     2.0;
    format      ascii;
    class       volVectorField;
    location    "1.6";
    object      U;
}
// * * * * * * * * * * * * * * * * * * * * * * * * * * * * * * * * * * * * * //

dimensions      [0 1 -1 0 0 0 0];

internalField   nonuniform List<vector> 
16126
(
(0.12123608 -9.8124897e-06 0)
(0.12126233 1.0814747e-05 0)
(0.12117438 1.4032635e-06 0)
(0.12119912 8.809835e-06 0)
(0.1210872 8.2347683e-06 0)
(0.12107566 1.064414e-05 0)
(0.12095676 1.2742796e-05 0)
(0.12090404 1.3742654e-05 0)
(0.12077747 1.6275803e-05 0)
(0.12068737 1.717981e-05 0)
(0.1205482 1.9589445e-05 0)
(0.12042523 2.0746937e-05 0)
(0.12026896 2.2973136e-05 0)
(0.12011644 2.4390797e-05 0)
(0.11994005 2.6477329e-05 0)
(0.1197603 2.8084374e-05 0)
(0.11956222 3.0089988e-05 0)
(0.11935714 3.1835192e-05 0)
(0.11913727 3.3824317e-05 0)
(0.11890904 3.5683613e-05 0)
(0.11866876 3.7673474e-05 0)
(0.11842041 3.9555745e-05 0)
(0.11816275 4.1421054e-05 0)
(0.11789874 4.3035125e-05 0)
(0.11762871 4.4344001e-05 0)
(0.1173554 4.5042307e-05 0)
(0.11708037 4.5065961e-05 0)
(0.11680652 4.4712101e-05 0)
(0.11653632 4.4167439e-05 0)
(0.11627301 4.4331948e-05 0)
(0.11602091 4.5029011e-05 0)
(0.11578396 4.547858e-05 0)
(0.11556616 4.2564372e-05 0)
(0.1153725 3.5284355e-05 0)
(0.11520515 2.9876491e-05 0)
(0.11507207 3.382475e-05 0)
(0.11498145 4.2456034e-05 0)
(0.11493695 4.0168215e-05 0)
(0.11495228 2.7378047e-05 0)
(0.11503325 1.6755584e-05 0)
(0.11517448 9.8549262e-06 0)
(0.11537958 3.2116616e-06 0)
(0.11565159 -3.5365301e-06 0)
(0.11599475 -1.0754986e-05 0)
(0.11641258 -1.8378177e-05 0)
(0.11690853 -2.6397895e-05 0)
(0.11748536 -3.4749533e-05 0)
(0.11814539 -4.3384306e-05 0)
(0.11889018 -5.2235129e-05 0)
(0.11972065 -6.1237297e-05 0)
(0.12063683 -7.0316563e-05 0)
(0.12163792 -7.9398367e-05 0)
(0.12272215 -8.8404406e-05 0)
(0.12388677 -9.7256721e-05 0)
(0.12512802 -0.00010587721 0)
(0.12644109 -0.00011419136 0)
(0.12782016 -0.00012212751 0)
(0.12925839 -0.00012961926 0)
(0.13074804 -0.00013660643 0)
(0.13228051 -0.00014303498 0)
(0.13384649 -0.00014885772 0)
(0.13543609 -0.00015403541 0)
(0.13703902 -0.0001585356 0)
(0.13864484 -0.0001623336 0)
(0.14024311 -0.00016541199 0)
(0.14182369 -0.00016776174 0)
(0.14337697 -0.0001693811 0)
(0.1448941 -0.00017027605 0)
(0.14636726 -0.00017046016 0)
(0.14778984 -0.00016995214 0)
(0.14915665 -0.00016877316 0)
(0.150464 -0.00016694339 0)
(0.15170981 -0.00016447507 0)
(0.15289361 -0.00016136735 0)
(0.15401641 -0.00015759998 0)
(0.1550806 -0.00015313015 0)
(0.15608966 -0.00014789136 0)
(0.15704794 -0.00014180136 0)
(0.15796034 -0.00013477071 0)
(0.15883204 -0.00012672282 0)
(0.15966832 -0.00011761113 0)
(0.16047444 -0.00010744106 0)
(0.16125572 -9.6283091e-05 0)
(0.16201769 -8.4284667e-05 0)
(0.16276637 -7.1653758e-05 0)
(0.16350858 -5.8650789e-05 0)
(0.16425224 -4.5550646e-05 0)
(0.16500661 -3.2629087e-05 0)
(0.16578244 -2.0120074e-05 0)
(0.16659199 -8.2108996e-06 0)
(0.16744909 3.0017399e-06 0)
(0.16836895 1.3500112e-05 0)
(0.16936835 2.3385295e-05 0)
(0.17046516 3.2832337e-05 0)
(0.17167903 4.2148998e-05 0)
(0.17303056 5.1686856e-05 0)
(0.17454277 6.1966918e-05 0)
(0.17623967 7.3491365e-05 0)
(0.17814932 8.6968921e-05 0)
(0.1803009 0.00010286639 0)
(0.18273125 0.00012181393 0)
(0.18547863 0.00014354697 0)
(0.18859681 0.00016764791 0)
(0.19214155 0.00019112123 0)
(0.19620083 0.00020991468 0)
(0.20086524 0.00021359114 0)
(0.20629223 0.0001889305 0)
(0.21263947 0.00010880975 0)
(0.22020035 -5.8385643e-05 0)
(0.22924961 -0.00037103101 0)
(0.24032752 -0.00088922823 0)
(0.25387674 -0.0017189023 0)
(0.27084209 -0.0029483579 0)
(0.29181503 -0.0047389168 0)
(0.3183338 -0.0071754904 0)
(0.35087947 -0.010467457 0)
(0.39182646 -0.014611839 0)
(0.44071578 -0.019873424 0)
(0.50137331 -0.025971502 0)
(0.57016343 -0.033383316 0)
(0.65490204 -0.040702286 0)
(0.74101469 -0.04985422 0)
(0.85366652 -0.05131833 0)
(0.92415173 -0.062803876 0)
(0.35261364 -2.1936059e-05 0)
(0.35262684 4.3591494e-05 0)
(0.3525269 2.9029596e-05 0)
(0.35250669 5.9369276e-05 0)
(0.35236423 6.60959e-05 0)
(0.35228767 8.2984147e-05 0)
(0.35211591 9.6884744e-05 0)
(0.3519823 0.00010996921 0)
(0.35178056 0.00012558749 0)
(0.35159409 0.00013830019 0)
(0.35135876 0.00015398422 0)
(0.35112352 0.00016717198 0)
(0.35085164 0.00018254739 0)
(0.35057091 0.00019619479 0)
(0.35026113 0.00021115099 0)
(0.34993797 0.00022490755 0)
(0.34959087 0.00023921641 0)
(0.34922894 0.00025251307 0)
(0.34884726 0.00026568347 0)
(0.34845169 0.00027772383 0)
(0.34804078 0.00028901309 0)
(0.34761905 0.00029887831 0)
(0.3471874 0.00030739965 0)
(0.3467502 0.00031411673 0)
(0.34631021 0.00031897607 0)
(0.34587246 0.00032166912 0)
(0.34544187 0.00032201377 0)
(0.34502467 0.0003192019 0)
(0.34462738 0.00031276206 0)
(0.3442572 0.0003005526 0)
(0.34392203 0.0002821496 0)
(0.3436296 0.00025872943 0)
(0.34339007 0.00023265734 0)
(0.34322 0.00020654399 0)
(0.34313543 0.0001717594 0)
(0.34314712 0.00011615447 0)
(0.34327728 4.7828708e-05 0)
(0.34352577 -2.0758183e-05 0)
(0.34388209 -9.1644348e-05 0)
(0.3443561 -0.00016518343 0)
(0.34496247 -0.0002412913 0)
(0.34571046 -0.00032209525 0)
(0.34660873 -0.00040767899 0)
(0.34766511 -0.00049797926 0)
(0.34888657 -0.00059254496 0)
(0.35027923 -0.00069085689 0)
(0.35184796 -0.0007922422 0)
(0.35359635 -0.00089594655 0)
(0.35552637 -0.0010010947 0)
(0.35763832 -0.0011067251 0)
(0.35993054 -0.0012117741 0)
(0.36239935 -0.0013151013 0)
(0.36503882 -0.0014154924 0)
(0.36784074 -0.0015116825 0)
(0.37079451 -0.0016023728 0)
(0.37388714 -0.0016862611 0)
(0.37710329 -0.0017620678 0)
(0.38042538 -0.0018285719 0)
(0.3838338 -0.0018846481 0)
(0.38730713 -0.0019293047 0)
(0.39082256 -0.001961724 0)
(0.39435625 -0.0019813027 0)
(0.39788383 -0.0019876854 0)
(0.40138102 -0.001980798 0)
(0.40482417 -0.00196087 0)
(0.40819088 -0.0019284521 0)
(0.41146069 -0.0018844172 0)
(0.41461561 -0.0018299541 0)
(0.41764072 -0.0017665445 0)
(0.42052463 -0.0016959251 0)
(0.42325986 -0.0016200329 0)
(0.4258431 -0.0015409393 0)
(0.42827529 -0.0014607636 0)
(0.43056157 -0.001381583 0)
(0.43271103 -0.0013053316 0)
(0.43473628 -0.0012337094 0)
(0.4366529 -0.0011680988 0)
(0.43847879 -0.0011095223 0)
(0.44023343 -0.0010586283 0)
(0.44193725 -0.0010157466 0)
(0.44361105 -0.000980979 0)
(0.44527568 -0.00095435245 0)
(0.44695195 -0.00093596386 0)
(0.44866071 -0.0009261433 0)
(0.45042322 -0.00092553572 0)
(0.45226156 -0.00093516521 0)
(0.45419911 -0.00095637421 0)
(0.45626102 -0.00099078542 0)
(0.45847462 -0.0010401695 0)
(0.46086959 -0.001106406 0)
(0.46347835 -0.0011913766 0)
(0.46633598 -0.0012970141 0)
(0.46948057 -0.0014252401 0)
(0.47295315 -0.0015781199 0)
(0.47679824 -0.0017578276 0)
(0.48106369 -0.0019669294 0)
(0.48580188 -0.0022083207 0)
(0.49106922 -0.0024857422 0)
(0.4969286 -0.0028035865 0)
(0.50344795 -0.0031678899 0)
(0.51070485 -0.0035858513 0)
(0.51878292 -0.0040678166 0)
(0.52778057 -0.0046261208 0)
(0.53780203 -0.0052790823 0)
(0.5489743 -0.0060481559 0)
(0.56142608 -0.0069658904 0)
(0.57532118 -0.0080687662 0)
(0.59081034 -0.009412764 0)
(0.60809958 -0.011055373 0)
(0.62734197 -0.01308584 0)
(0.64878252 -0.015581144 0)
(0.67251829 -0.018666216 0)
(0.69881675 -0.022410952 0)
(0.72758265 -0.02695813 0)
(0.75908439 -0.032292462 0)
(0.79274184 -0.038536417 0)
(0.82885483 -0.045431412 0)
(0.86571645 -0.053082454 0)
(0.90396353 -0.060665584 0)
(0.93921594 -0.068572101 0)
(0.97382188 -0.074243712 0)
(0.99686291 -0.080427792 0)
(1.0165898 -0.074780523 0)
(1.0120298 -0.080172797 0)
(0.55561048 -3.2812158e-05 0)
(0.55563252 8.1950183e-05 0)
(0.55553875 6.9444194e-05 0)
(0.55551238 0.0001269776 0)
(0.55537985 0.00014576995 0)
(0.55529441 0.00018220105 0)
(0.55513093 0.00021076875 0)
(0.5549903 0.00024052476 0)
(0.55479456 0.00027142233 0)
(0.55460438 0.000299737 0)
(0.55437447 0.000330723 0)
(0.55413983 0.00035900857 0)
(0.55387538 0.00038933988 0)
(0.55360104 0.00041748415 0)
(0.55330364 0.0004466097 0)
(0.55299482 0.00047383992 0)
(0.5526684 0.00050097576 0)
(0.55233178 0.00052611749 0)
(0.55198304 0.00055010748 0)
(0.55162779 0.00057161003 0)
(0.55126695 0.00059079796 0)
(0.55090571 0.00060658374 0)
(0.55054717 0.00061865925 0)
(0.55019701 0.00062589187 0)
(0.54986023 0.00062754767 0)
(0.54954353 0.00062203139 0)
(0.54925348 0.00060826456 0)
(0.54899826 0.00058566872 0)
(0.5487861 0.00055359017 0)
(0.54862745 0.0005123859 0)
(0.54853625 0.00046149818 0)
(0.54852681 0.00039878523 0)
(0.54861329 0.00031463712 0)
(0.54880574 0.00020332787 0)
(0.54912472 7.5838793e-05 0)
(0.54956276 -6.2398865e-05 0)
(0.55010999 -0.00020980088 0)
(0.55078513 -0.00036249885 0)
(0.55160616 -0.00052549175 0)
(0.55258502 -0.000702337 0)
(0.55373559 -0.00089140936 0)
(0.55506832 -0.0010921205 0)
(0.55659261 -0.0013039104 0)
(0.55831685 -0.0015259993 0)
(0.56024821 -0.0017572048 0)
(0.56239259 -0.0019961029 0)
(0.56475418 -0.002240955 0)
(0.56733541 -0.0024897856 0)
(0.57013654 -0.0027403423 0)
(0.57315555 -0.0029901421 0)
(0.57638784 -0.0032364639 0)
(0.57982611 -0.0034763929 0)
(0.58346015 -0.0037068463 0)
(0.58727682 -0.0039246292 0)
(0.59125997 -0.0041264918 0)
(0.59539051 -0.0043092081 0)
(0.59964658 -0.0044696586 0)
(0.60400374 -0.0046049292 0)
(0.60843538 -0.0047124148 0)
(0.61291314 -0.0047899261 0)
(0.61740745 -0.0048357949 0)
(0.62188818 -0.0048489759 0)
(0.62632534 -0.0048291304 0)
(0.6306898 -0.0047766969 0)
(0.63495412 -0.0046929348 0)
(0.63909323 -0.0045799448 0)
(0.64308522 -0.0044406517 0)
(0.64691195 -0.0042787589 0)
(0.65055963 -0.0040986645 0)
(0.65401925 -0.0039053415 0)
(0.65728685 -0.0037041802 0)
(0.66036368 -0.0035008027 0)
(0.66325608 -0.0033008419 0)
(0.66597527 -0.003109712 0)
(0.66853692 -0.002932367 0)
(0.67096059 -0.0027730916 0)
(0.67326903 -0.0026353246 0)
(0.67548741 -0.0025215805 0)
(0.67764263 -0.0024334493 0)
(0.6797626 -0.0023717396 0)
(0.68187571 -0.0023366951 0)
(0.68401051 -0.0023283176 0)
(0.68619544 -0.0023466761 0)
(0.68845891 -0.0023922259 0)
(0.69082938 -0.0024659705 0)
(0.6933356 -0.0025695995 0)
(0.69600693 -0.0027054197 0)
(0.69887355 -0.0028763142 0)
(0.70196677 -0.0030855408 0)
(0.70531914 -0.0033366558 0)
(0.70896462 -0.003633329 0)
(0.71293855 -0.0039793621 0)
(0.71727772 -0.0043785968 0)
(0.72202018 -0.0048350938 0)
(0.72720531 -0.0053531087 0)
(0.73287346 -0.0059374343 0)
(0.73906629 -0.0065933269 0)
(0.74582594 -0.0073270856 0)
(0.753196 -0.0081458296 0)
(0.76121987 -0.0090585244 0)
(0.76994269 -0.010075376 0)
(0.77940802 -0.011209762 0)
(0.78966177 -0.01247675 0)
(0.80074504 -0.01389686 0)
(0.81270238 -0.015492537 0)
(0.82556615 -0.017295572 0)
(0.83937408 -0.019338713 0)
(0.85413545 -0.021670337 0)
(0.86986925 -0.02433459 0)
(0.88653127 -0.027400521 0)
(0.90409969 -0.030915606 0)
(0.92241755 -0.034965145 0)
(0.94139114 -0.039565613 0)
(0.96064405 -0.044793222 0)
(0.97999173 -0.050542899 0)
(0.99865253 -0.0568318 0)
(1.0164198 -0.063240911 0)
(1.0317579 -0.069706407 0)
(1.0448046 -0.075071463 0)
(1.0525073 -0.079445789 0)
(1.0565184 -0.079604935 0)
(1.050721 -0.077540025 0)
(1.0403385 -0.062595175 0)
(1.0190167 -0.047410097 0)
(0.71979159 -5.3180242e-05 0)
(0.71986198 0.00010671235 0)
(0.7197992 9.6434336e-05 0)
(0.71981781 0.00017610559 0)
(0.71973519 0.00020336084 0)
(0.71970112 0.00025579577 0)
(0.71960085 0.00029510351 0)
(0.71952398 0.00033853034 0)
(0.71940423 0.00038068636 0)
(0.71929287 0.00042121262 0)
(0.71915341 0.00046294283 0)
(0.71901479 0.00050197276 0)
(0.71885786 0.00054189987 0)
(0.71869922 0.00057907444 0)
(0.71852963 0.00061602771 0)
(0.71835925 0.00065001828 0)
(0.7181846 0.000682381 0)
(0.71801274 0.00071107966 0)
(0.71784371 0.00073646525 0)
(0.71768337 0.0007568746 0)
(0.71753416 0.00077204445 0)
(0.71740188 0.00078051447 0)
(0.71729078 0.00078154235 0)
(0.71720725 0.00077375728 0)
(0.7171571 0.00075615164 0)
(0.71714785 0.00072762345 0)
(0.71718819 0.0006870595 0)
(0.71728757 0.00063245116 0)
(0.71745614 0.00056204074 0)
(0.71770423 0.00046935869 0)
(0.71804153 0.00035101615 0)
(0.71847818 0.00020802863 0)
(0.71902651 4.626371e-05 0)
(0.71967245 -0.00013349761 0)
(0.72041492 -0.0003301605 0)
(0.72127373 -0.00053890203 0)
(0.72226487 -0.00076700752 0)
(0.72340435 -0.0010186181 0)
(0.7247075 -0.00129219 0)
(0.72618391 -0.0015857886 0)
(0.72784353 -0.0018982253 0)
(0.72969599 -0.0022286116 0)
(0.73174975 -0.0025756805 0)
(0.73401212 -0.0029378558 0)
(0.73648895 -0.0033130285 0)
(0.73918455 -0.0036986931 0)
(0.74210131 -0.0040918656 0)
(0.74523953 -0.0044891529 0)
(0.74859712 -0.0048867228 0)
(0.75216935 -0.0052803584 0)
(0.75594866 -0.0056654736 0)
(0.75992454 -0.0060371852 0)
(0.76408336 -0.0063903774 0)
(0.76840843 -0.0067198068 0)
(0.77288002 -0.007020216 0)
(0.77747559 -0.007286478 0)
(0.78217002 -0.0075137487 0)
(0.78693599 -0.0076976386 0)
(0.79174454 -0.0078343864 0)
(0.79656555 -0.0079210318 0)
(0.80136847 -0.0079555761 0)
(0.80612296 -0.0079371256 0)
(0.81079967 -0.007866002 0)
(0.81537091 -0.00774382 0)
(0.81981142 -0.0075735185 0)
(0.82409894 -0.0073593471 0)
(0.82821486 -0.0071067975 0)
(0.83214462 -0.006822487 0)
(0.83587809 -0.0065139863 0)
(0.83940978 -0.0061896022 0)
(0.84273892 -0.0058581103 0)
(0.84586937 -0.0055284595 0)
(0.84880943 -0.00520944 0)
(0.85157151 -0.004909358 0)
(0.85417168 -0.0046357095 0)
(0.85662915 -0.0043949174 0)
(0.85896575 -0.0041921234 0)
(0.8612053 -0.0040311175 0)
(0.86337316 -0.003914365 0)
(0.86549567 -0.0038432115 0)
(0.86759978 -0.0038181611 0)
(0.86971272 -0.0038392884 0)
(0.87186175 -0.0039066001 0)
(0.87407396 -0.0040204337 0)
(0.8763762 -0.0041816735 0)
(0.87879498 -0.0043919472 0)
(0.88135648 -0.0046535557 0)
(0.88408652 -0.0049694453 0)
(0.88701064 -0.0053429682 0)
(0.89015397 -0.0057777914 0)
(0.89354132 -0.0062776637 0)
(0.89719695 -0.0068464244 0)
(0.90114452 -0.0074878207 0)
(0.90540675 -0.0082056609 0)
(0.91000532 -0.0090037194 0)
(0.91496038 -0.0098860387 0)
(0.92029049 -0.010856852 0)
(0.92601183 -0.011921118 0)
(0.93213841 -0.013084296 0)
(0.93868067 -0.014353278 0)
(0.94564634 -0.015735837 0)
(0.95303768 -0.017242355 0)
(0.96085371 -0.018884483 0)
(0.96908463 -0.020678445 0)
(0.97771688 -0.022641798 0)
(0.98672148 -0.024799779 0)
(0.99606533 -0.027177479 0)
(1.0056865 -0.029812032 0)
(1.0155201 -0.032733935 0)
(1.0254449 -0.035990907 0)
(1.0353442 -0.039604499 0)
(1.0449917 -0.043619532 0)
(1.0541966 -0.048006439 0)
(1.0625544 -0.052773498 0)
(1.0698052 -0.057749713 0)
(1.0752629 -0.062864609 0)
(1.0787144 -0.067643809 0)
(1.079043 -0.071966914 0)
(1.0764896 -0.07473778 0)
(1.069274 -0.076148946 0)
(1.05904 -0.07350919 0)
(1.0434603 -0.068856598 0)
(1.0261516 -0.054154196 0)
(1.0099679 -0.037794479 0)
(0.84254668 -0.00010060207 0)
(0.84271132 9.5092625e-05 0)
(0.84270652 8.407056e-05 0)
(0.84281571 0.00018098066 0)
(0.8428234 0.00021458965 0)
(0.84289321 0.00027824989 0)
(0.84290565 0.00032357369 0)
(0.84295025 0.00037501152 0)
(0.84296373 0.00042226668 0)
(0.84299446 0.00046846502 0)
(0.84300991 0.00051397404 0)
(0.84303663 0.00055645289 0)
(0.84305857 0.00059813729 0)
(0.8430909 0.00063603927 0)
(0.84312658 0.00067188493 0)
(0.84317508 0.00070314247 0)
(0.84323443 0.00073062741 0)
(0.84331144 0.00075229933 0)
(0.84340718 0.00076820874 0)
(0.84352761 0.00077661414 0)
(0.84367592 0.00077689712 0)
(0.84385799 0.00076737022 0)
(0.84407854 0.00074692261 0)
(0.84434395 0.00071366856 0)
(0.84466031 0.00066602314 0)
(0.8450346 0.00060042319 0)
(0.84547295 0.00051409308 0)
(0.84598337 0.0004058371 0)
(0.84657217 0.00027365415 0)
(0.84724919 0.00011942199 0)
(0.84800583 -5.6875638e-05 0)
(0.84884612 -0.00025840392 0)
(0.84976938 -0.00048031313 0)
(0.8507994 -0.0007225583 0)
(0.85194385 -0.00099372174 0)
(0.85321931 -0.0012973043 0)
(0.85463808 -0.0016306212 0)
(0.8562087 -0.0019908967 0)
(0.85793952 -0.0023782735 0)
(0.85983959 -0.0027924494 0)
(0.86191775 -0.0032319074 0)
(0.864182 -0.0036950275 0)
(0.86663918 -0.0041797206 0)
(0.86929485 -0.0046834574 0)
(0.87215302 -0.0052030726 0)
(0.87521599 -0.0057348231 0)
(0.87848397 -0.0062743168 0)
(0.88195492 -0.0068165689 0)
(0.88562423 -0.0073559928 0)
(0.88948457 -0.0078864736 0)
(0.89352569 -0.0084014212 0)
(0.89773439 -0.0088938854 0)
(0.90209446 -0.0093566771 0)
(0.90658683 -0.0097825355 0)
(0.91118976 -0.010164311 0)
(0.91587911 -0.010495182 0)
(0.92062876 -0.010768876 0)
(0.92541109 -0.010979907 0)
(0.93019756 -0.011123806 0)
(0.93495927 -0.011197335 0)
(0.93966763 -0.01119868 0)
(0.94429499 -0.011127596 0)
(0.94881526 -0.01098552 0)
(0.95320447 -0.010775615 0)
(0.95744129 -0.010502763 0)
(0.96150743 -0.010173496 0)
(0.96538802 -0.0097958606 0)
(0.96907176 -0.0093792214 0)
(0.97255111 -0.008934012 0)
(0.97582226 -0.008471434 0)
(0.97888509 -0.0080031068 0)
(0.981743 -0.0075406981 0)
(0.98440265 -0.007095523 0)
(0.98687367 -0.0066781663 0)
(0.98916837 -0.0062981135 0)
(0.99130134 -0.0059634719 0)
(0.99328918 -0.0056807518 0)
(0.99515009 -0.0054548145 0)
(0.99690367 -0.0052889136 0)
(0.99857055 -0.0051849377 0)
(1.0001722 -0.0051437111 0)
(1.0017306 -0.0051654362 0)
(1.0032681 -0.00525009 0)
(1.0048069 -0.0053978638 0)
(1.0063692 -0.0056093565 0)
(1.0079766 -0.0058858219 0)
(1.0096499 -0.0062290955 0)
(1.0114091 -0.0066416206 0)
(1.013273 -0.0071261891 0)
(1.0152595 -0.0076858728 0)
(1.0173846 -0.0083237347 0)
(1.019663 -0.0090428049 0)
(1.0221078 -0.0098458823 0)
(1.02473 -0.010735675 0)
(1.0275384 -0.011714716 0)
(1.0305394 -0.012785652 0)
(1.0337369 -0.013951124 0)
(1.0371312 -0.015214253 0)
(1.0407201 -0.016578434 0)
(1.0444966 -0.018048144 0)
(1.0484506 -0.019628413 0)
(1.0525662 -0.021326238 0)
(1.0568232 -0.023149298 0)
(1.0611931 -0.025108571 0)
(1.0656426 -0.027215271 0)
(1.0701243 -0.029485814 0)
(1.0745855 -0.031934592 0)
(1.0789486 -0.034583636 0)
(1.0831311 -0.03744585 0)
(1.0870056 -0.040544504 0)
(1.0904473 -0.043875174 0)
(1.0932493 -0.047447749 0)
(1.0952406 -0.051201529 0)
(1.0960997 -0.055104008 0)
(1.0956468 -0.058960395 0)
(1.093412 -0.062665991 0)
(1.0893539 -0.065754224 0)
(1.0828149 -0.068088162 0)
(1.0742428 -0.068661531 0)
(1.0627175 -0.06762696 0)
(1.0497209 -0.062744803 0)
(1.0343293 -0.055604139 0)
(1.0187149 -0.041067766 0)
(1.0063654 -0.024411412 0)
(0.92763223 -0.00019112937 0)
(0.92792918 2.3504542e-05 0)
(0.92800164 9.4568683e-06 0)
(0.92822909 0.00011148157 0)
(0.92835064 0.00014212579 0)
(0.92855277 0.00020817009 0)
(0.92870452 0.00025206526 0)
(0.9289005 0.00030385472 0)
(0.92907616 0.00034883281 0)
(0.92928004 0.00039288615 0)
(0.92948067 0.00043390461 0)
(0.92970367 0.00047118166 0)
(0.92993441 0.00050561209 0)
(0.93018731 0.00053500928 0)
(0.93045644 0.00056030191 0)
(0.93075078 0.00057928876 0)
(0.93106908 0.00059224403 0)
(0.93141781 0.00059716669 0)
(0.93179836 0.00059347923 0)
(0.93221611 0.00057913035 0)
(0.93267403 0.00055313557 0)
(0.93317739 0.00051354532 0)
(0.93373026 0.0004588449 0)
(0.93433812 0.00038707286 0)
(0.93500515 0.00029635059 0)
(0.93573765 0.00018603632 0)
(0.93653463 5.4787788e-05 0)
(0.93739861 -0.00010002064 0)
(0.93833255 -0.00028005098 0)
(0.93933666 -0.00048352317 0)
(0.94042684 -0.00071103334 0)
(0.94160869 -0.00096696127 0)
(0.94289202 -0.0012569496 0)
(0.94428891 -0.0015832099 0)
(0.94580818 -0.0019424564 0)
(0.94745548 -0.0023342565 0)
(0.94923737 -0.0027598565 0)
(0.95116231 -0.0032198755 0)
(0.95323865 -0.003713352 0)
(0.95547353 -0.0042387963 0)
(0.95787367 -0.0047943191 0)
(0.96044509 -0.0053776866 0)
(0.96319264 -0.0059860367 0)
(0.96611986 -0.006615886 0)
(0.9692286 -0.0072629483 0)
(0.97251883 -0.0079221798 0)
(0.97598834 -0.0085877153 0)
(0.97963254 -0.0092529334 0)
(0.9834442 -0.0099104778 0)
(0.98741336 -0.010552365 0)
(0.99152725 -0.01117009 0)
(0.9957703 -0.011754793 0)
(1.0001243 -0.012297452 0)
(1.0045685 -0.012789113 0)
(1.0090801 -0.013221138 0)
(1.0136345 -0.013585488 0)
(1.0182059 -0.013874992 0)
(1.0227676 -0.014083632 0)
(1.0272928 -0.014206791 0)
(1.0317552 -0.014241485 0)
(1.0361292 -0.014186542 0)
(1.0403909 -0.014042731 0)
(1.0445179 -0.013812829 0)
(1.0484904 -0.013501625 0)
(1.052291 -0.013115852 0)
(1.0559051 -0.012664055 0)
(1.0593209 -0.012156392 0)
(1.0625295 -0.011604383 0)
(1.0655248 -0.011020594 0)
(1.0683036 -0.01041829 0)
(1.070865 -0.0098110423 0)
(1.0732107 -0.0092123308 0)
(1.0753447 -0.0086351203 0)
(1.0772728 -0.0080914815 0)
(1.0790027 -0.0075922227 0)
(1.0805438 -0.0071466299 0)
(1.0819071 -0.0067622589 0)
(1.0831049 -0.0064449049 0)
(1.0841511 -0.0061986447 0)
(1.0850605 -0.0060260834 0)
(1.0858495 -0.0059286254 0)
(1.086535 -0.0059069199 0)
(1.0871349 -0.005961177 0)
(1.0876674 -0.0060915919 0)
(1.088151 -0.0062985471 0)
(1.0886035 -0.0065828929 0)
(1.0890426 -0.00694585 0)
(1.0894845 -0.0073890595 0)
(1.0899447 -0.0079143166 0)
(1.0904367 -0.0085235358 0)
(1.0909728 -0.0092184854 0)
(1.091563 -0.010000854 0)
(1.0922155 -0.010871948 0)
(1.0929361 -0.011832869 0)
(1.0937283 -0.012884343 0)
(1.0945927 -0.014026983 0)
(1.0955277 -0.015261221 0)
(1.096528 -0.016587772 0)
(1.0975859 -0.018007434 0)
(1.0986892 -0.019521786 0)
(1.099823 -0.021132757 0)
(1.1009671 -0.022843824 0)
(1.1020977 -0.024658899 0)
(1.1031838 -0.026584467 0)
(1.1041904 -0.028626925 0)
(1.1050712 -0.030796492 0)
(1.1057757 -0.033100929 0)
(1.1062342 -0.035553065 0)
(1.1063745 -0.038156266 0)
(1.1060907 -0.040919942 0)
(1.1052838 -0.043826933 0)
(1.1037952 -0.046868431 0)
(1.1015056 -0.049972059 0)
(1.0981879 -0.053087758 0)
(1.0937482 -0.056026401 0)
(1.0878829 -0.058684508 0)
(1.080654 -0.060656124 0)
(1.0716794 -0.061845868 0)
(1.0614364 -0.061436006 0)
(1.0494852 -0.059617628 0)
(1.037013 -0.054653202 0)
(1.0239685 -0.047758548 0)
(1.011654 -0.035244992 0)
(1.0034074 -0.020195242 0)
(0.98244493 -0.00033611714 0)
(0.98289173 -0.00012144099 0)
(0.98305035 -0.00013727224 0)
(0.98341299 -3.6796414e-05 0)
(0.98365177 -1.1884665e-05 0)
(0.98399051 4.9973268e-05 0)
(0.98428146 8.6262737e-05 0)
(0.98462874 0.00013100466 0)
(0.98496403 0.00016618234 0)
(0.98533787 0.00020041703 0)
(0.98571806 0.00022969453 0)
(0.9861302 0.00025448007 0)
(0.98655995 0.00027442586 0)
(0.98702125 0.00028793739 0)
(0.98750853 0.00029519356 0)
(0.98803023 0.00029424149 0)
(0.98858524 0.00028490116 0)
(0.98917937 0.00026524037 0)
(0.9898139 0.00023470834 0)
(0.99049291 0.00019155133 0)
(0.99121818 0.00013454709 0)
(0.99199324 6.1778991e-05 0)
(0.99282041 -2.8278856e-05 0)
(0.99370262 -0.00013746242 0)
(0.99464274 -0.00026751867 0)
(0.99564248 -0.00041895463 0)
(0.99670974 -0.00059298784 0)
(0.99784896 -0.00079257554 0)
(0.99906523 -0.0010196478 0)
(1.0003645 -0.0012792005 0)
(1.0017549 -0.0015737208 0)
(1.0032433 -0.0019028204 0)
(1.0048354 -0.0022669058 0)
(1.0065351 -0.0026668879 0)
(1.0083481 -0.0031055103 0)
(1.010282 -0.0035840788 0)
(1.0123433 -0.0041020605 0)
(1.014538 -0.0046583588 0)
(1.0168718 -0.0052521278 0)
(1.0193502 -0.0058819343 0)
(1.0219781 -0.0065455131 0)
(1.0247596 -0.0072399823 0)
(1.0276975 -0.0079616139 0)
(1.0307931 -0.0087058573 0)
(1.034046 -0.009467191 0)
(1.0374538 -0.010239154 0)
(1.0410116 -0.01101431 0)
(1.0447123 -0.011784335 0)
(1.0485462 -0.012540079 0)
(1.0525007 -0.013271724 0)
(1.056561 -0.013968948 0)
(1.0607095 -0.01462116 0)
(1.0649266 -0.015217753 0)
(1.0691904 -0.015748401 0)
(1.0734779 -0.016203364 0)
(1.0777648 -0.016573811 0)
(1.0820261 -0.01685213 0)
(1.086237 -0.017032217 0)
(1.090373 -0.017109734 0)
(1.0944107 -0.017082317 0)
(1.0983278 -0.016949724 0)
(1.102104 -0.016713925 0)
(1.105721 -0.016379107 0)
(1.1091624 -0.015951633 0)
(1.1124144 -0.015439904 0)
(1.1154654 -0.014854183 0)
(1.1183063 -0.014206336 0)
(1.1209299 -0.013509546 0)
(1.1233312 -0.01277796 0)
(1.125507 -0.012026323 0)
(1.1274559 -0.011269574 0)
(1.129178 -0.010522449 0)
(1.1306749 -0.009799065 0)
(1.1319495 -0.0091125651 0)
(1.1330059 -0.0084747643 0)
(1.1338496 -0.0078959219 0)
(1.1344875 -0.0073845403 0)
(1.1349277 -0.0069473578 0)
(1.1351799 -0.0065893667 0)
(1.1352551 -0.0063140574 0)
(1.135166 -0.0061236407 0)
(1.1349263 -0.0060194211 0)
(1.134551 -0.0060021185 0)
(1.134056 -0.0060722989 0)
(1.1334575 -0.0062304189 0)
(1.1327719 -0.00647715 0)
(1.1320152 -0.0068132367 0)
(1.1312025 -0.0072396698 0)
(1.1303481 -0.0077573947 0)
(1.1294648 -0.0083673883 0)
(1.1285635 -0.0090703255 0)
(1.1276534 -0.0098665991 0)
(1.1267416 -0.01075609 0)
(1.1258333 -0.011738355 0)
(1.1249313 -0.012812553 0)
(1.1240359 -0.013977761 0)
(1.1231451 -0.015232765 0)
(1.1222543 -0.0165765 0)
(1.1213563 -0.018007872 0)
(1.1204408 -0.019526413 0)
(1.1194949 -0.021131825 0)
(1.1185021 -0.022824952 0)
(1.1174427 -0.024606768 0)
(1.1162919 -0.026480006 0)
(1.1150219 -0.028446775 0)
(1.1135961 -0.030511559 0)
(1.1119752 -0.032675705 0)
(1.1101056 -0.034943355 0)
(1.1079329 -0.037309007 0)
(1.1053776 -0.03977022 0)
(1.1023695 -0.042300053 0)
(1.0987947 -0.044876721 0)
(1.0945785 -0.047422674 0)
(1.0895672 -0.049879037 0)
(1.0837257 -0.052067116 0)
(1.0768618 -0.053884166 0)
(1.0690809 -0.05496791 0)
(1.060156 -0.055225491 0)
(1.050498 -0.053961616 0)
(1.0398778 -0.05131805 0)
(1.0291279 -0.045971316 0)
(1.0184387 -0.038847185 0)
(1.0085146 -0.027755663 0)
(1.0022181 -0.014819116 0)
(1.0153367 -0.00053723722 0)
(1.0159161 -0.00034287197 0)
(1.0161491 -0.00036338014 0)
(1.0166345 -0.00027193915 0)
(1.0169811 -0.00025509164 0)
(1.017448 -0.00020340559 0)
(1.0178655 -0.00017932375 0)
(1.0183495 -0.0001471033 0)
(1.0188246 -0.00012658247 0)
(1.0193445 -0.00010751719 0)
(1.0198762 -9.5393167e-05 0)
(1.020446 -8.8694556e-05 0)
(1.0210393 -8.8705739e-05 0)
(1.0216701 -9.641737e-05 0)
(1.0223324 -0.00011220509 0)
(1.0230342 -0.000137693 0)
(1.0237739 -0.00017336971 0)
(1.0245566 -0.00022097996 0)
(1.0253827 -0.00028121938 0)
(1.0262565 -0.00035572087 0)
(1.0271801 -0.00044575389 0)
(1.0281571 -0.00055314979 0)
(1.0291903 -0.00067943388 0)
(1.0302831 -0.00082658903 0)
(1.0314387 -0.00099641168 0)
(1.032661 -0.0011922038 0)
(1.033955 -0.001416485 0)
(1.0353249 -0.001670541 0)
(1.0367755 -0.0019563243 0)
(1.0383111 -0.0022751074 0)
(1.0399348 -0.0026288165 0)
(1.0416509 -0.0030199581 0)
(1.0434647 -0.0034514259 0)
(1.0453816 -0.0039248057 0)
(1.0474068 -0.0044399882 0)
(1.0495446 -0.0049973472 0)
(1.0517994 -0.0055971229 0)
(1.0541762 -0.0062390303 0)
(1.0566794 -0.006921833 0)
(1.0593129 -0.0076435529 0)
(1.0620797 -0.0084013578 0)
(1.0649819 -0.009191596 0)
(1.0680202 -0.010009604 0)
(1.0711938 -0.010849702 0)
(1.0744999 -0.011705076 0)
(1.0779339 -0.012567817 0)
(1.0814885 -0.013428921 0)
(1.0851544 -0.014278408 0)
(1.0889197 -0.015105445 0)
(1.0927699 -0.015898551 0)
(1.0966885 -0.016645833 0)
(1.1006569 -0.017335278 0)
(1.1046545 -0.017955069 0)
(1.1086595 -0.018493933 0)
(1.1126491 -0.018941487 0)
(1.1166 -0.019288585 0)
(1.1204891 -0.019527637 0)
(1.1242936 -0.019652893 0)
(1.1279917 -0.019660669 0)
(1.1315629 -0.019549525 0)
(1.1349885 -0.019320354 0)
(1.1382514 -0.018976422 0)
(1.1413367 -0.018523312 0)
(1.1442314 -0.017968821 0)
(1.1469246 -0.017322773 0)
(1.1494073 -0.016596797 0)
(1.1516721 -0.015804034 0)
(1.1537135 -0.014958829 0)
(1.1555271 -0.014076365 0)
(1.1571098 -0.013172314 0)
(1.1584599 -0.012262429 0)
(1.1595763 -0.011362191 0)
(1.1604589 -0.010486413 0)
(1.1611088 -0.0096489307 0)
(1.1615278 -0.0088622777 0)
(1.1617189 -0.0081374975 0)
(1.1616865 -0.0074839525 0)
(1.1614362 -0.0069093285 0)
(1.1609753 -0.0064196321 0)
(1.1603128 -0.0060194078 0)
(1.1594591 -0.0057118833 0)
(1.1584264 -0.0054993834 0)
(1.1572285 -0.0053834294 0)
(1.15588 -0.0053650641 0)
(1.1543965 -0.0054449763 0)
(1.1527941 -0.0056238626 0)
(1.1510885 -0.0059022302 0)
(1.1492952 -0.0062805296 0)
(1.1474286 -0.0067588599 0)
(1.1455019 -0.0073370506 0)
(1.1435269 -0.0080144495 0)
(1.1415139 -0.0087902411 0)
(1.1394711 -0.009662949 0)
(1.1374048 -0.010630812 0)
(1.1353191 -0.011691514 0)
(1.133216 -0.012842421 0)
(1.1310955 -0.0140806 0)
(1.1289553 -0.015403315 0)
(1.126791 -0.016807771 0)
(1.1245955 -0.01829165 0)
(1.1223596 -0.01985278 0)
(1.120071 -0.02148997 0)
(1.117715 -0.023202081 0)
(1.1152727 -0.02498937 0)
(1.1127228 -0.026851408 0)
(1.110037 -0.028789409 0)
(1.1071852 -0.030801487 0)
(1.1041259 -0.032887293 0)
(1.1008181 -0.035037394 0)
(1.0972013 -0.037243579 0)
(1.0932244 -0.039475533 0)
(1.0888026 -0.041705889 0)
(1.0838863 -0.043858896 0)
(1.0783648 -0.045874811 0)
(1.0722263 -0.047592897 0)
(1.0653394 -0.048920881 0)
(1.0578085 -0.049551562 0)
(1.0494984 -0.049410635 0)
(1.0407482 -0.047936221 0)
(1.0314918 -0.045240316 0)
(1.0223545 -0.040313235 0)
(1.0137261 -0.033787568 0)
(1.0060293 -0.024171139 0)
(1.0014108 -0.012712811 0)
(1.033803 -0.00078137017 0)
(1.0344873 -0.0006185702 0)
(1.03477 -0.00064592448 0)
(1.0353471 -0.0005715795 0)
(1.03577 -0.00056749626 0)
(1.0363311 -0.00053032982 0)
(1.03684 -0.0005209553 0)
(1.0374246 -0.00050410898 0)
(1.0380024 -0.00050027706 0)
(1.0386314 -0.00049887417 0)
(1.0392758 -0.00050633149 0)
(1.0399629 -0.00052032264 0)
(1.0406774 -0.00054272626 0)
(1.0414334 -0.00057403 0)
(1.0422247 -0.00061500002 0)
(1.0430593 -0.00066698093 0)
(1.0439355 -0.00073072921 0)
(1.0448583 -0.00080786332 0)
(1.0458285 -0.00089958027 0)
(1.0468498 -0.0010077704 0)
(1.0479242 -0.0011337915 0)
(1.0490549 -0.0012795439 0)
(1.0502446 -0.0014467399 0)
(1.0514965 -0.0016373728 0)
(1.0528138 -0.0018533417 0)
(1.0541996 -0.0020964954 0)
(1.0556566 -0.0023688546 0)
(1.057188 -0.0026729539 0)
(1.0587971 -0.0030111236 0)
(1.0604879 -0.0033864787 0)
(1.0622641 -0.003801203 0)
(1.06413 -0.0042566064 0)
(1.066089 -0.0047541432 0)
(1.0681443 -0.0052951327 0)
(1.0702996 -0.0058810785 0)
(1.0725591 -0.0065127065 0)
(1.0749263 -0.0071898219 0)
(1.0774045 -0.0079114959 0)
(1.0799967 -0.0086762037 0)
(1.0827049 -0.009481549 0)