/*--------------------------------*- C++ -*----------------------------------*\
| =========                 |                                                 |
| \\      /  F ield         | foam-extend: Open Source CFD                    |
|  \\    /   O peration     | Version:     4.1                                |
|   \\  /    A nd           | Web:         http://www.foam-extend.org         |
|    \\/     M anipulation  |                                                 |
\*---------------------------------------------------------------------------*/
FoamFile
{
    version     2.0;
    format      ascii;
    class       surfaceScalarField;
    location    "0.75";
    object      phi;
}
// * * * * * * * * * * * * * * * * * * * * * * * * * * * * * * * * * * * * * //

dimensions      [0 3 -1 0 0 0 0];

internalField   nonuniform List<scalar> 
8438
(
-0.59744164
0.001673634
-0.59918057
0.0017389291
-0.60095441
0.0017738397
-0.60277217
0.0018177541
-0.60464359
0.0018714267
-0.60657913
0.0019355342
-0.60858817
0.0020090454
-0.61067834
0.0020901688
-0.61285475
0.0021764064
-0.61511932
0.0022645663
-0.61747007
0.0023507588
-0.61990051
0.0024304316
-0.62239898
0.0024984727
-0.62494838
0.0025494024
-0.62752603
0.0025776503
-0.63010395
0.002577919
-0.63264943
0.0025454839
-0.63512593
0.0024764929
-0.63749402
0.0023680963
-0.63971246
0.0022184373
-0.64173904
0.0020265773
-0.64353144
0.001792403
-0.64504805
0.0015166081
-0.64624886
0.001200814
-0.64709674
0.0008478816
-0.64755917
0.00046242744
-0.64761038
5.1205836e-05
-0.64723298
-0.00037739472
-0.646422
-0.00081098521
-0.6451889
-0.0012330974
-0.64356258
-0.0016263244
-0.64158908
-0.0019734979
-0.63932948
-0.0022595992
-0.63685582
-0.002473661
-0.63424584
-0.0026099801
-0.63157748
-0.0026683586
-0.62892403
-0.0026534457
-0.62635054
-0.0025734899
-0.62391167
-0.0024388693
-0.62165096
-0.0022607121
-0.61960116
-0.0020497978
-0.61778536
-0.001815803
-0.61621849
-0.0015668673
-0.61490899
-0.0013095038
-0.61385992
-0.0010490697
-0.61306949
-0.00079043268
-0.612534
-0.00053549026
-0.61225859
-0.00027540536
-1.3641264e-05
-0.61123383
0.0031394565
-0.61269304
0.0031981351
-0.61417939
0.0032601995
-0.61570617
0.0033445302
-0.61728581
0.0034510682
-0.61892953
0.0035792465
-0.62064716
0.0037266762
-0.62244667
0.0038896808
-0.62433351
0.0040632532
-0.62630996
0.004241009
-0.62837435
0.0044151535
-0.63052046
0.0045765371
-0.63273684
0.0047148542
-0.63500646
0.004819025
-0.63730657
0.004877762
-0.63960897
0.004880318
-0.64188061
0.0048171196
-0.6440845
0.0046803862
-0.6461808
0.0044643936
-0.6481278
0.0041654426
-0.64988291
0.0037816776
-0.65140337
0.0033128679
-0.65264711
0.0027603481
-0.65357355
0.0021272508
-0.65414479
0.0014191248
-0.6543273
0.00064494139
-0.65409439
-0.00018171085
-0.6534302
-0.0010415818
-0.65233161
-0.001909574
-0.65080955
-0.0027551611
-0.64889207
-0.0035438069
-0.6466249
-0.0042406605
-0.64406947
-0.0048150354
-0.64129862
-0.0052445075
-0.63839112
-0.005517476
-0.63542584
-0.0056336446
-0.63247667
-0.0056026099
-0.62960892
-0.0054412421
-0.62687715
-0.0051706388
-0.62432456
-0.0048133007
-0.62198345
-0.004390905
-0.61987646
-0.0039228
-0.61801815
-0.0034251763
-0.61641672
-0.0029109274
-0.6150755
-0.0023902956
-0.61399472
-0.001871212
-0.61317388
-0.0013563264
-0.61260472
-0.00084456876
-0.00037356048
-0.61227939
0.0045551403
-0.61369334
0.0046120852
-0.61513212
0.0046989801
-0.61661069
0.0048230979
-0.61814234
0.0049827216
-0.61973888
0.0051757889
-0.62141065
0.0053984417
-0.6231661
0.0056451317
-0.62501125
0.0059084029
-0.62694898
0.0061787384
-0.62897829
0.0064444683
-0.63109358
0.0066918211
-0.63328392
0.0069052
-0.63553265
0.0070677518
-0.63781713
0.0071622409
-0.64010904
0.0071722263
-0.642375
0.0070830869
-0.64457762
0.0068830024
-0.64667659
0.0065633592
-0.6486298
0.0061186585
-0.65039429
0.0055461654
-0.65192692
0.0048454944
-0.65318502
0.0040184526
-0.65412713
0.0030693602
-0.654714
0.0020059909
-0.65491022
0.00084116105
-0.65468665
-0.00040527933
-0.65402323
-0.0017050011
-0.65291251
-0.0030202931
-0.65136343
-0.0043042367
-0.6494039
-0.005503337
-0.64708137
-0.0065631912
-0.64446068
-0.0074357323
-0.64161922
-0.0080859607
-0.6386406
-0.0084960988
-0.63560798
-0.0086662693
-0.63259851
-0.0086120763
-0.62967946
-0.0083602906
-0.62690615
-0.007943952
-0.62432152
-0.0073979224
-0.62195697
-0.0067554587
-0.61983381
-0.0060459613
-0.61796517
-0.0052938167
-0.61635785
-0.0045182469
-0.61501423
-0.0037339164
-0.61393446
-0.0029509828
-0.61311681
-0.0021739771
-0.61255276
-0.0014086108
-0.00068137465
-0.61263627
0.0059414395
-0.61402986
0.0060056673
-0.61544891
0.0061180379
-0.6169084
0.0062825843
-0.61842208
0.0064964048
-0.62000247
0.006756176
-0.62166067
0.0070566386
-0.62340598
0.0073904458
-0.62524534
0.007747761
-0.62718257
0.0081159721
-0.62921761
0.0084795057
-0.63134563
0.0088198447
-0.63355629
0.0091158559
-0.63583308
0.0093445415
-0.63815309
0.0094822531
-0.64048724
0.0095063775
-0.64280102
0.0093968588
-0.64505564
0.0091376248
-0.64720943
0.00871715
-0.64921902
0.0081282454
-0.65104028
0.0073674266
-0.65262897
0.0064341853
-0.65394116
0.0053306406
-0.65493369
0.0040618979
-0.65556503
0.0026373276
-0.6557967
0.0010728279
-0.65559573
-0.00060624731
-0.65493801
-0.0023627237
-0.65381237
-0.0041459316
-0.6522252
-0.0058914087
-0.65020408
-0.007524453
-0.64779909
-0.0089681838
-0.64508045
-0.010154366
-0.64213281
-0.011033603
-0.63904739
-0.011581518
-0.63591413
-0.011799534
-0.6328152
-0.011711005
-0.62982083
-0.011354659
-0.62698738
-0.010777404
-0.62435731
-0.010027989
-0.62196049
-0.0091522765
-0.61981618
-0.0081902771
-0.61793524
-0.0071747532
-0.61632238
-0.0061311134
-0.61497825
-0.0050780374
-0.61390144
-0.0040277958
-0.61308834
-0.0029870813
-0.61253355
-0.0019633985
-0.00096997326
-0.61306082
0.0073006886
-0.61443117
0.0073760253
-0.61582797
0.007514833
-0.61726635
0.0077209618
-0.61876057
0.0079906251
-0.62032392
0.008319528
-0.62196846
0.0087011764
-0.62370458
0.0091265691
-0.62554043
0.0095836078
-0.62748111
0.010056651
-0.6295278
0.010526197
-0.63167678
0.010968824
-0.63391845
0.01135753
-0.63623656
0.011662656
-0.63860779
0.011853478
-0.64100193
0.01190052
-0.64338281
0.01177774
-0.64570972
0.011464531
-0.64793905
0.010946476
-0.65002572
0.010214922
-0.65192419
0.0092658968
-0.65358889
0.0080988857
-0.6549744
0.006716147
-0.65603554
0.0051230357
-0.65672784
0.003329631
-0.6570088
0.0013537867
-0.6568403
-0.0007747496
-0.65619244
-0.0030105775
-0.65504848
-0.005289897
-0.65341074
-0.0075291454
-0.651306
-0.0096291921
-0.64878785
-0.011486336
-0.64593424
-0.013007974
-0.64284024
-0.0141276
-0.63960808
-0.014813684
-0.63633724
-0.015070369
-0.63311685
-0.014931402
-0.63002101
-0.014450496
-0.62710724
-0.013691177
-0.62441703
-0.01271819
-0.62197794
-0.011591367
-0.6198062
-0.010362016
-0.61790953
-0.0090714254
-0.61628972
-0.0077509237
-0.61494501
-0.0064227463
-0.61387181
-0.0051010029
-0.61306516
-0.0037937264
-0.61252117
-0.0025073898
-0.0012463419
-0.61359806
0.0086277013
-0.61493876
0.0087167231
-0.61630726
0.0088833284
-0.61771886
0.0091325624
-0.6191884
0.0094601658
-0.62073007
0.0098611954
-0.62235705
0.010328165
-0.62408113
0.01085064
-0.62591196
0.011414447
-0.62785635
0.012001033
-0.62991712
0.012586969
-0.63209205
0.013143753
-0.63437262
0.013638105
-0.63674299
0.014033026
-0.63917932
0.014289809
-0.64164995
0.01437115
-0.64411645
0.014244238
-0.64653548
0.013883559
-0.64886089
0.013271887
-0.65104547
0.012399501
-0.65304197
0.011262396
-0.65480338
0.0098602927
-0.65628265
0.008195419
-0.6574323
0.0062726833
-0.65820432
0.0041016551
-0.65855108
0.0017005447
-0.65842769
-0.00089813539
-0.65779642
-0.0036418483
-0.65663255
-0.0064537727
-0.6549323
-0.0092293878
-0.65272071
-0.011840785
-0.65005582
-0.014151228
-0.64702619
-0.016037602
-0.64374141
-0.017412382
-0.64031885
-0.018236239
-0.63687097
-0.018518253
-0.6334959
-0.018306467
-0.63027253
-0.017673866
-0.62725936
-0.01670435
-0.62449613
-0.015481423
-0.62200691
-0.014080587
-0.61980369
-0.012565232
-0.61788986
-0.010985258
-0.61626323
-0.0093775486
-0.61491863
-0.007767347
-0.61384961
-0.0061700276
-0.61304955
-0.0045937839
-0.61251419
-0.0030427526
-0.0015155782
-0.61425113
0.0099187364
-0.61555623
0.010021822
-0.61689003
0.010217125
-0.61826854
0.01051107
-0.61970738
0.010899004
-0.62122179
0.011375611
-0.62282633
0.011932705
-0.6245344
0.012558709
-0.6263576
0.013237645
-0.62830481
0.013948244
-0.63038104
0.014663198
-0.63258604
0.015348754
-0.63491281
0.015964877
-0.63734615
0.016466364
-0.63986166
0.016805317
-0.64242577
0.016935264
-0.64499707
0.016815536
-0.64752873
0.016415217
-0.64997131
0.015714463
-0.65227496
0.014703159
-0.65439059
0.013378023
-0.65626977
0.011739474
-0.65786395
0.0097895925
-0.65912325
0.0075319834
-0.65999568
0.0049740886
-0.6604274
0.0021322622
-0.66036492
-0.00096061607
-0.65976005
-0.0042467162
-0.65857696
-0.0076368618
-0.65680277
-0.011003575
-0.65445908
-0.014184473
-0.65160931
-0.017001
-0.64835631
-0.019290603
-0.64482954
-0.020939147
-0.64116695
-0.021898835
-0.63749804
-0.02218716
-0.63393238
-0.02187213
-0.63055429
-0.021051953
-0.62742277
-0.019835872
-0.62457457
-0.018329618
-0.62202882
-0.016626341
-0.61979177
-0.014802277
-0.61786117
-0.012915864
-0.61622975
-0.011008967
-0.61488801
-0.0091090859
-0.61382602
-0.007232013
-0.61303482
-0.0053849866
-0.61250836
-0.0035692172
-0.0017789853
-0.61501447
0.011165354
-0.61627672
0.011284071
-0.61756903
0.011509438
-0.61890784
0.011849877
-0.6203096
0.012300768
-0.62179076
0.012856769
-0.62336741
0.013509359
-0.62505491
0.01424621
-0.62686718
0.015049907
-0.62881569
0.015896762
-0.63090822
0.016755722
-0.63314711
0.017587648
-0.63552745
0.018345217
-0.63803505
0.018973966
-0.64064495
0.01941521
-0.64332114
0.019611456
-0.64601825
0.019512643
-0.64868482
0.019081789
-0.65126717
0.018296813
-0.65371231
0.017148299
-0.6559692
0.015634913
-0.65798829
0.01375857
-0.6597199
0.011521205
-0.66111202
0.0089241033
-0.66210842
0.0059704861
-0.66264802
0.0026718587
-0.66266667
-0.00094196844
-0.66210257
-0.0048108094
-0.66090463
-0.0088348013
-0.65904648
-0.012861729
-0.65654345
-0.016687501
-0.65346508
-0.020079376
-0.64993337
-0.022822306
-0.64610498
-0.02476754
-0.64214551
-0.025858306
-0.63820671
-0.026125957
-0.63441213
-0.025666714
-0.63085189
-0.024612189
-0.62758434
-0.023103424
-0.62464137
-0.021272587
-0.62203509
-0.019232624
-0.61976414
-0.017073225
-0.61781903
-0.014860972
-0.6161862
-0.012641793
-0.61485094
-0.010444348
-0.61379926
-0.008283693
-0.61301928
-0.0061649718
-0.61250256
-0.0040859368
-0.0020367429
-0.61588915
0.012364153
-0.61710256
0.012497485
-0.6183465
0.012753378
-0.61963852
0.013141898
-0.62099613
0.013658373
-0.6224371
0.01429774
-0.6239793
0.015051565
-0.62564035
0.015907252
-0.6274369
0.01684646
-0.62938365
0.017843513
-0.6314918
0.018863874
-0.63376712
0.019862966
-0.63620754
0.020785637
-0.63880048
0.021566904
-0.64152048
0.022135208
-0.64432849
0.02241947
-0.64717389
0.022358042
-0.64999907
0.021906967
-0.65274485
0.021042593
-0.6553545
0.019757948
-0.65777515
0.018055564
-0.65995673
0.015940154
-0.66184925
0.013413717
-0.6633992
0.01047406
-0.66454624
0.0071175234
-0.66522117
0.0033467869
-0.66534691
-0.00081623062
-0.66484415
-0.005313568
-0.663641
-0.01003795
-0.66169125
-0.01481148
-0.65899921
-0.019379534
-0.65564084
-0.023437748
-0.65176393
-0.026699217
-0.64756251
-0.028968962
-0.64323953
-0.03018128
-0.6389755
-0.030389989
-0.63491068
-0.029731541
-0.63114074
-0.028382124
-0.62772134
-0.026522822
-0.62467678
-0.024317154
-0.62200939
-0.021900006
-0.61970788
-0.019374738
-0.61775367
-0.016815178
-0.61612555
-0.014269914
-0.61480266
-0.011767246
-0.61376632
-0.0093200292
-0.61300124
-0.0069300527
-0.6124963
-0.004590875
-0.002288093
-0.61686855
0.013503213
-0.6180244
0.013653335
-0.61921222
0.013941194
-0.6204498
0.014379479
-0.62175558
0.014964153
-0.62314874
0.0156909
-0.62464909
0.016551912
-0.62627679
0.017534953
-0.62805174
0.018621418
-0.62999251
0.019784275
-0.63211458
0.020985947
-0.63442813
0.022176515
-0.636935
0.02329251
-0.63962508
0.024256987
-0.64247269
0.024982815
-0.64543496
0.025381733
-0.64845423
0.02537732
-0.65146459
0.024917328
-0.65439965
0.023977645
-0.6571982
0.022556498
-0.65980588
0.020663246
-0.66217315
0.018307428
-0.66425108
0.015491649
-0.66598601
0.012208982
-0.66731406
0.0084455737
-0.66815734
0.004190068
-0.66842351
-0.00055006184
-0.668011
-0.0057260776
-0.66681997
-0.011228977
-0.66477522
-0.016856227
-0.66186216
-0.022292596
-0.65816242
-0.027137488
-0.65385874
-0.031002895
-0.64919727
-0.033630436
-0.64443165
-0.034946901
-0.63977935
-0.035042286
-0.63540001
-0.034110879
-0.63139352
-0.032388615
-0.62780942
-0.030106926
-0.62466043
-0.027466143
-0.62193556
-0.024624878
-0.61961064
-0.021699649
-0.61765598
-0.018769846
-0.61604125
-0.015884635
-0.61473859
-0.01306991
-0.61372411
-0.010334513
-0.61297873
-0.0076754331
-0.61248853
-0.0050810695
-0.0025316739
-0.61795167
0.014581819
-0.61904446
0.014746119
-0.62016891
0.015065647
-0.62134426
0.015554832
-0.62259008
0.016209963
-0.62392701
0.017027839
-0.62537697
0.018001873
-0.62696297
0.019120952
-0.62870864
0.020367085
-0.63063713
0.021712758
-0.63276925
0.023118067
-0.63512082
0.024528089
-0.63769903
0.025870718
-0.64049754
0.0270555
-0.64349103
0.027976302
-0.64663193
0.028522634
-0.64985317
0.028598559
-0.65307744
0.028141596
-0.65622875
0.027128963
-0.65924064
0.025568385
-0.66205795
0.023480558
-0.66463339
0.020882866
-0.66692124
0.017779502
-0.66886978
0.01415752
-0.67041305
0.0099888458
-0.67146425
0.0052412661
-0.67191371
-0.00010060167
-0.67163174
-0.0060080476
-0.67048139
-0.012379326
-0.66834548
-0.018992142
-0.66517748
-0.025460599
-0.66106174
-0.031253223
-0.65622893
-0.035835703
-0.65099916
-0.038860209
-0.6456955
-0.040250556
-0.64058279
-0.040154999
-0.63584209
-0.038851578
-0.63157429
-0.036656417
-0.62781737
-0.033863843
-0.62456692
-0.030716599
-0.62179389
-0.027397903
-0.61945784
-0.024035701
-0.61751556
-0.020712126
-0.61592625
-0.017473945
-0.61465419
-0.014341969
-0.61366988
-0.011318821
-0.6129503
-0.0083950167
-0.61247874
-0.0055526312
-0.00276561
-0.6191352
0.015583027
-0.62015405
0.015764976
-0.62120607
0.016117661
-0.62231011
0.016658879
-0.6234865
0.017386345
-0.62475728
0.018298625
-0.62614653
0.019391123
-0.62768038
0.020654796
-0.62938668
0.022073392
-0.63129406
0.023620131
-0.63342985
0.025253862
-0.63581712
0.026915364
-0.63847032
0.028523913
-0.6413889
0.029974076
-0.64454905
0.031136453
-0.64789759
0.031871173
-0.65135461
0.032055582
-0.6548269
0.031613883
-0.65822537
0.030527438
-0.66147713
0.028820144
-0.66452741
0.026530837
-0.66733365
0.023689109
-0.66985643
0.020302282
-0.67204917
0.01635026
-0.67384645
0.011786121
-0.67515311
0.0065479244
-0.67583892
0.00058521669
-0.67574118
-0.0061057876
-0.67467593
-0.013444576
-0.67246456
-0.021203512
-0.6690072
-0.028917965
-0.66438316
-0.035877258
-0.65888965
-0.041329217
-0.65295424
-0.044795613
-0.64699612
-0.046208679
-0.64134033
-0.045810788
-0.63618982
-0.044002086
-0.63164016
-0.041206085
-0.62770935
-0.037794649
-0.62436811
-0.034057844
-0.62156342
-0.030202586
-0.61923451
-0.026364611
-0.61732223
-0.022624406
-0.61577394
-0.019022239
-0.61454547
-0.015570436
-0.61360151
-0.012262779
-0.61291511
-0.0090814224
-0.61246692
-0.0060008162
-0.0029875833
-0.62040898
0.016510582
-0.62134951
0.016705512
-0.62232179
0.017089942
-0.62334628
0.017683367
-0.62444422
0.01848428
-0.62563903
0.019493443
-0.62695697
0.02070906
-0.62842745
0.022125274
-0.63008305
0.02372899
-0.6319587
0.025495782
-0.63408967
0.027384831
-0.63650815
0.029333848
-0.63923831
0.031254073
-0.64228827
0.033024035
-0.64563783
0.034486014
-0.64922727
0.03546061
-0.65295899
0.035787299
-0.65671711
0.035372003
-0.66039432
0.034204657
-0.66391004
0.032335856
-0.66721212
0.029832917
-0.67026676
0.026743752
-0.67304537
0.023080897
-0.67551134
0.018816226
-0.67760409
0.013878867
-0.67922217
0.0081660082
-0.68021325
0.0015762978
-0.68037483
-0.0059442089
-0.67946236
-0.014357047
-0.6772109
-0.023454968
-0.67343267
-0.032696201
-0.66818444
-0.041125484
-0.66185679
-0.047656862
-0.65503812
-0.051614285
-0.64828195
-0.052964856
-0.64198901
-0.052103727
-0.63638092
-0.049610167
-0.63153654
-0.046050468
-0.62744124
-0.04188995
-0.62403037
-0.037468709
-0.62121966
-0.033013301
-0.61892347
-0.028660795
-0.61706431
-0.024483567
-0.61557662
-0.020509929
-0.61440752
-0.016739539
-0.61351598
-0.013154323
-0.61287138
-0.0097260161
-0.6124521
-0.0064200939
-0.0031948878
-0.62177677
0.017341489
-0.62262579
0.017554533
-0.62350792
0.017972073
-0.62444224
0.018617687
-0.62545015
0.019492192
-0.6265561
0.020599395
-0.62778836
0.021941312
-0.62917969
0.023516608
-0.6307678
0.025317098
-0.63259489
0.027322874
-0.63470578
0.029495723
-0.63714419
0.031772253
-0.63994728
0.034057172
-0.64313622
0.036212966
-0.64669836
0.038048159
-0.65056728
0.039329529
-0.65462106
0.039841081
-0.65871114
0.039462081
-0.66270436
0.038197881
-0.66651076
0.036142249
-0.67008437
0.033406525
-0.67340559
0.030064978
-0.67646216
0.026137469
-0.67923333
0.021587394
-0.68166962
0.016315152
-0.68366733
0.010163724
-0.6850513
0.0029602617
-0.68557277
-0.0054227368
-0.68491302
-0.0150168
-0.68268832
-0.025679662
-0.67856771
-0.036816815
-0.67254786
-0.047145332
-0.66515091
-0.055053813
-0.65721454
-0.059550656
-0.64948171
-0.060697684
-0.64244618
-0.059139262
-0.63633761
-0.055718733
-0.63119859
-0.05118949
-0.62696321
-0.046125328
-0.6235177
-0.040914213
-0.62073783
-0.03579318
-0.61850843
-0.030890196
-0.61673156
-0.026260432
-0.61532822
-0.021913269
-0.61423702
-0.017830741
-0.61341174
-0.013979597
-0.61281872
-0.010319034
-0.61243456
-0.006804261
-0.0033844957
-0.62320521
0.018084728
-0.62395961
0.018308933
-0.62474429
0.018756756
-0.62557974
0.019453139
-0.62648771
0.020400161
-0.62749346
0.021605145
-0.62862708
0.023074935
-0.62992469
0.024814218
-0.6314294
0.0268218
-0.63319158
0.029085056
-0.6352674
0.031571547
-0.63771486
0.03421971
-0.64058811
0.036930425
-0.64392725
0.039552102
-0.64773375
0.041854661
-0.65193531
0.043531086
-0.65637569
0.04428146
-0.6608574
0.04394379
-0.66520905
0.04254954
-0.66932879
0.040261986
-0.67318287
0.037260607
-0.67677453
0.033656638
-0.68011579
0.029478727
-0.68321067
0.024682276
-0.68603159
0.019136074
-0.68848118
0.01261331
-0.69036271
0.0048417867
-0.69137499
-0.0044104489
-0.69111158
-0.015280218
-0.68903025
-0.02776099
-0.68457011
-0.041276953
-0.67758978
-0.054125662
-0.66879429
-0.063849297
-0.65942467
-0.068920277
-0.65049193
-0.069630432
-0.64259941
-0.067031776
-0.63595981
-0.062358335
-0.63054707
-0.056602231
-0.62621729
-0.050455108
-0.62279005
-0.04434145
-0.62009147
-0.038491763
-0.61797251
-0.03300915
-0.61631357
-0.027919379
-0.61502247
-0.02320436
-0.61403029
-0.018822923
-0.6132867
-0.014723186
-0.61275594
-0.010849798
-0.6124136
-0.0071466033
-0.0035531437
-0.62472919
0.018711443
-0.62537446
0.018954206
-0.62605123
0.019433522
-0.62677704
0.020178954
-0.62757268
0.021195803
-0.62846343
0.022495895
-0.6294806
0.024092096
-0.63066315
0.025996774
-0.63205948
0.028218125
-0.6337287
0.03075428
-0.63574011
0.033582956
-0.63816913
0.036648734
-0.6410917
0.039852996
-0.64457507
0.043035463
-0.64864627
0.045925868
-0.65323194
0.048116755
-0.65812842
0.049177933
-0.66306509
0.048880466
-0.6678147
0.047299152
-0.67226196
0.044709241
-0.67639728
0.041395928
-0.68026041
0.03751977
-0.68389686
0.033115176
-0.68734402
0.028129435
-0.69060864
0.022400699
-0.69361043
0.015615094
-0.69613252
0.0073638823
-0.69781492
-0.0027280525
-0.698153
-0.014942139
-0.69640912
-0.029504867
-0.69166501
-0.046021061
-0.68348414
-0.062306533
-0.67281226
-0.07452118
-0.66157616
-0.080156375
-0.65116418
-0.080042408
-0.64229846
-0.075897504
-0.63512236
-0.069534429
-0.62948922
-0.062235369
-0.62514005
-0.054804285
-0.62180662
-0.047674878
-0.61925566
-0.041042727
-0.6173012
-0.034963607
-0.61580224
-0.02941834
-0.61465511
-0.024351493
-0.61378521
-0.019692816
-0.61313987
-0.015368525
-0.61268263
-0.011307043
-0.61238911
-0.0074401254
-0.0036974502
-0.62625813
0.019235365
-0.62679203
0.019488111
-0.62735304
0.019994532
-0.62795924
0.020785156
-0.62863048
0.021867041
-0.62939161
0.023257022
-0.63027465
0.024975137
-0.63132109
0.027043221
-0.63258452
0.029481549
-0.63413345
0.032303212
-0.63605251
0.03550202
-0.63843868
0.039034895
-0.64139547
0.042809789
-0.64502793
0.046667922
-0.64940734
0.050305277
-0.65447121
0.053180627
-0.6599492
0.054655922
-0.66545633
0.054387599
-0.67067854
0.052521361
-0.67548192
0.049512616
-0.67989808
0.045812089
-0.68402122
0.041642913
-0.6879386
0.037032549
-0.69172888
0.031919719
-0.69545403
0.026125853
-0.69907631
0.019237368
-0.70237299
0.010660569
-0.70492866
-0.00017238418
-0.70613575
-0.013735052
-0.70503821
-0.030602408
-0.70017479
-0.050884475
-0.69050115
-0.07198018
-0.67722999
-0.087792339
-0.663521
-0.093865361
-0.65128293
-0.092280478
-0.64134223
-0.085838208
-0.63367046
-0.077206193
-0.62791919
-0.067986642
-0.62366508
-0.059058394
-0.62052869
-0.050811268
-0.61820939
-0.043362026
-0.61648404
-0.03668896
-0.615193
-0.030709378
-0.61422455
-0.025319939
-0.61350161
-0.02041576
-0.61297162
-0.015898514
-0.61259929
-0.011679378
-0.61236156
-0.0076778491
-0.0038140625
-0.62788482
0.019622321
-0.62829296
0.01989625
-0.62872941
0.020430981
-0.62920723
0.021262975
-0.62974357
0.022403382
-0.63036166
0.023875114
-0.63109306
0.025706534
-0.63198045
0.02793061
-0.6330812
0.030582305
-0.63447222
0.033694227
-0.63625408
0.037283881
-0.63854863
0.041329446
-0.64149219
0.045753353
-0.64523858
0.050414309
-0.64993146
0.054998156
-0.65554694
0.058796109
-0.66172332
0.060832305
-0.66789474
0.060559014
-0.6736151
0.058241725
-0.67872994
0.054627451
-0.6833503
0.050432456
-0.68766239
0.045954998
-0.69181138
0.041181539
-0.69592656
0.036034897
-0.70015663
0.030355922
-0.70454266
0.023623402
-0.70886787
0.014985777
-0.7126235
0.0035832471
-0.71509774
-0.011260815
-0.71514392
-0.030556224
-0.71054066
-0.055487739
-0.69906311
-0.083457725
-0.68205474
-0.10480071
-0.66501465
-0.11090545
-0.65053053
-0.10676459
-0.6394612
-0.096907542
-0.63141505
-0.085252339
-0.62571968
-0.073682009
-0.62172647
-0.063051603
-0.61892267
-0.053615069
-0.61693756
-0.045347136
-0.61551555
-0.038110976
-0.61448483
-0.031740097
-0.61373146
-0.02607331
-0.6131804
-0.020966817
-0.61278255
-0.016296364
-0.61250606
-0.011955868
-0.61233072
-0.0078531831
-0.0038998366
-0.62933859
0.019884286
-0.62961762
0.020175271
-0.6299199
0.020733261
-0.63025639
0.021599466
-0.63064089
0.022787887
-0.6310938
0.024328021
-0.63164473
0.026257465
-0.63233605
0.028621934
-0.63322754
0.031473793
-0.63440352
0.034870203
-0.6359819
0.038862269
-0.6381156
0.043463145
-0.64098268
0.048620425
-0.64479903
0.054230659
-0.64982417
0.060023302
-0.65613569
0.065107632
-0.66325345
0.067950058
-0.67031322
0.067618785
-0.67666243
0.06459093
-0.68211672
0.060081743
-0.68692835
0.05524409
-0.69142636
0.05045301
-0.69581638
0.045571557
-0.70025232
0.040470831
-0.70499225
0.035095854
-0.71019935
0.028830508
-0.71569425
0.02048067
-0.72087953
0.0087685265
-0.72496667
-0.0071736675
-0.72679728
-0.028725614
-0.72322954
-0.059055479
-0.70979531
-0.096891955
-0.68723236
-0.12736366
-0.6656529
-0.13248492
-0.64843977
-0.12397773
-0.63629959
-0.10904772
-0.62813451
-0.093417422
-0.622771
-0.079045519
-0.61926841
-0.066554185
-0.6169679
-0.055915581
-0.61543662
-0.046878417
-0.61439922
-0.039148382
-0.61368313
-0.032456182
-0.61318082
-0.02657562
-0.61282534
-0.021322301
-0.61257505
-0.016546655
-0.61240417
-0.012126744
-0.612297
-0.0079603495
-0.0039520411
-0.63049299
0.019983035
-0.63062263
0.020304908
-0.63077371
0.020884346
-0.6309506
0.02177635
-0.63116229
0.02299958
-0.63142534
0.024591069
-0.63176619
0.026598318
-0.63222522
0.029080967
-0.63286227
0.032110844
-0.63376572
0.035773648
-0.63506766
0.040164208
-0.63695383
0.045349315
-0.63964921
0.051315811
-0.6434334
0.058014844
-0.64872579
0.065315695
-0.65582528
0.072207118
-0.66411323
0.076238015
-0.67220903
0.075714579
-0.67914888
0.071530784
-0.68470497
0.065637825
-0.68939415
0.059933271
-0.6937785
0.054837362
-0.69813679
0.049929851
-0.70259839
0.044932427
-0.70760968
0.040107147
-0.71359117
0.034812001
-0.72049989
0.027389384
-0.72772932
0.015997962
-0.73427659
-0.00062639689
-0.73920055
-0.023801659
-0.73832929
-0.05992674
-0.72349327
-0.11172797
-0.69248131
-0.15837563
-0.66469517
-0.16027106
-0.64429995
-0.14437295
-0.63139057
-0.12195709
-0.62358248
-0.10122551
-0.61896623
-0.083661773
-0.61625821
-0.069262208
-0.6146654
-0.057508385
-0.61371979
-0.047824029
-0.61315035
-0.039717822
-0.6128012
-0.032805328
-0.61258273
-0.026794093
-0.61244335
-0.02146168
-0.61235342
-0.016636589
-0.61229598
-0.012184183
-0.61226148
-0.0079948458
-0.0039685742
-0.6300812
0.019881888
-0.63003073
0.020254445
-0.62999818
0.020851798
-0.62997919
0.021757353
-0.62997577
0.022996161
-0.62999786
0.024613157
-0.63006474
0.026665198
-0.63020935
0.029225583
-0.63048469
0.032386178
-0.63097428
0.036263245
-0.63181457
0.041004492
-0.6332228
0.046757547
-0.63548507
0.053578079
-0.63894972
0.061479499
-0.64424299
0.070608967
-0.65213874
0.080102869
-0.661952
0.086051267
-0.6713547
0.08511728
-0.67893947
0.079115552
-0.68436868
0.071067042
-0.68865827
0.064222854
-0.6927516
0.058930694
-0.69705006
0.054228316
-0.70151155
0.049393907
-0.70683512
0.04543072
-0.71385593
0.041832809
-0.72259307
0.036126531
-0.73261603
0.026020917
-0.7419015
0.0086590733
-0.75052704
-0.015176121
-0.75421605
-0.056237725
-0.74047422
-0.1254698
-0.69641862
-0.20243123
-0.66055437
-0.19613531
-0.63703405
-0.16789327
-0.62415299
-0.13483815
-0.61751655
-0.10786196
-0.6142387
-0.086939618
-0.61270435
-0.070796561
-0.61204758
-0.058165157
-0.61182129
-0.048050313
-0.61179727
-0.03974184
-0.61185993
-0.032742673
-0.61195136
-0.02670266
-0.61204328
-0.021369761
-0.61212254
-0.016557328
-0.61218361
-0.012123118
-0.61222455
-0.0079539013
-0.0039481751
-0.62618637
0.019550522
-0.62589876
0.019966834
-0.62560699
0.020560034
-0.62530449
0.021454849
-0.62498594
0.022677615
-0.62465263
0.024279846
-0.62431342
0.026325984
-0.62398963
0.028901801
-0.62372284
0.032119388
-0.62358645
0.036126855
-0.62371298
0.041131014
-0.6243478
0.047392367
-0.62586075
0.055091032
-0.62866903
0.06428778
-0.63356187
0.075501806
-0.64216537
0.088706372
-0.65404186
0.097927753
-0.66487925
0.095954672
-0.672762
0.086998301
-0.67707357
0.075378611
-0.67991253
0.067061814
-0.68282239
0.061840553
-0.68642676
0.057832687
-0.69004163
0.05300878
-0.69450199
0.049891078
-0.70161073
0.048941548
-0.71115355
0.045669346
-0.72409519
0.038962558
-0.73556311
0.020126993
-0.74985775
-0.00088148047
-0.76244666
-0.043648817
-0.75916307
-0.12875338
-0.69458861
-0.26700569
-0.65073305
-0.23999088
-0.62530318
-0.19332314
-0.61396219
-0.14617914
-0.6097628
-0.11206135
-0.60860958
-0.088092841
-0.60868398
-0.070722163
-0.60919191
-0.057657226
-0.60980271
-0.047439509
-0.61038434
-0.039160209
-0.61088945
-0.032237564
-0.61130622
-0.026285887
-0.61163703
-0.021038952
-0.61188907
-0.016305296
-0.61207021
-0.011941975
-0.61218723
-0.0078368793
-0.0038906068
-0.61276871
0.01873128
-0.61203841
0.019236532
-0.61129192
0.019813548
-0.61050238
0.020665314
-0.60965209
0.021827316
-0.60872896
0.023356724
-0.60772472
0.025321736
-0.60663871
0.027815791
-0.60548543
0.03096611
-0.6043043
0.034945723
-0.60318216
0.040008878
-0.60232746
0.046537663
-0.60215473
0.054918309
-0.60313729
0.065270331
-0.60601328
0.078377802
-0.61372733
0.09642042
-0.62752992
0.11173034
-0.63869465
0.1071194
-0.64546146
0.093765109
-0.64634489
0.076262041
-0.64573764
0.066454569
-0.64567283
0.061775744
-0.64727566
0.059435516
-0.64830625
0.054039371
-0.64943918
0.051024002
-0.65616641
0.05566878
-0.66607172
0.055574659
-0.68383723
0.056728066
-0.69888536
0.035175119
-0.72785761
0.028090771
-0.75026957
-0.021236862
-0.77323189
-0.10579106
-0.6771567
-0.36308087
-0.63076668
-0.2863809
-0.6062228
-0.21786702
-0.59992054
-0.1524814
-0.60026598
-0.11171591
-0.60224888
-0.086109946
-0.60437331
-0.06859773
-0.60623179
-0.055798741
-0.60775539
-0.045915913
-0.60897151
-0.037944086
-0.60992816
-0.03128092
-0.61067127
-0.025542775
-0.61123898
-0.020471239
-0.61166106
-0.015883218
-0.61195981
-0.011643226
-0.61215113
-0.0076455641
-0.0037967832
-0.58478087
0.017487574
-0.58351127
0.017966932
-0.58214242
0.018444696
-0.58067009
0.019192986
-0.57906807
0.020225291
-0.57730547
0.021594127
-0.57534567
0.023361936
-0.57314881
0.025618937
-0.57067731
0.028494606
-0.56790396
0.032172371
-0.56482744
0.036932361
-0.56155504
0.043265258
-0.55853079
0.051894061
-0.55652522
0.063264764
-0.55614528
0.077997859
-0.56152787
0.10180301
-0.58049243
0.1306949
-0.5926592
0.11928617
-0.59891526
0.10002117
-0.59404602
0.071392794
-0.58776084
0.060169393
-0.58243906
0.056453962
-0.5815652
0.058561657
-0.57951906
0.051993225
-0.57386687
0.045371817
-0.58518792
0.032528611
-0.59561332
0.037436583
-0.60467507
0.040311587
-0.60342204
0.020479944
-0.63524937
0.039877993
-0.71434413
0.019774311
-0.66918533
-0.054713776
-0.60685714
-0.2271044
-0.57379916
-0.31943888
-0.57150795
-0.22015823
-0.58113682
-0.14285254
-0.58945232
-0.10340041
-0.59561858
-0.079943683
-0.6000865
-0.06412981
-0.60336085
-0.052524392
-0.60579621
-0.043480552
-0.60762933
-0.036110968
-0.60901857
-0.029891682
-0.61007176
-0.024489583
-0.61086355
-0.019679448
-0.61144608
-0.015300693
-0.61185565
-0.01123365
-0.61211694
-0.0073842778
-0.0036688169
-0.52686835
0.0150769
-0.52437085
0.015469437
-0.52171772
0.015791566
-0.51886676
0.01634203
-0.51576372
0.01712225
-0.51234079
0.018171191
-0.50851227
0.019533419
-0.50417302
0.021279685
-0.4991988
0.023520384
-0.49345166
0.026425237
-0.48678849
0.030269183
-0.47910471
0.03558148
-0.47059631
0.043385668
-0.46223122
0.054899671
-0.45436136
0.070128001
-0.44760821
0.095049859
-0.47079266
0.15387935
-0.47003075
0.11852426
-0.46090124
0.090891667
-0.42704924
0.037540788
-0.39540749
0.028527646
-0.36800939
0.029055858
-0.30346228
0.020755368
-0.16298132
0.01345893
-0.041132705
0.0077688415
0
0
0
0
0
0
0
0
0
0
0
0
0
0
-0.21954758