/*--------------------------------*- C++ -*----------------------------------*\
| =========                 |                                                 |
| \\      /  F ield         | foam-extend: Open Source CFD                    |
|  \\    /   O peration     | Version:     4.1                                |
|   \\  /    A nd           | Web:         http://www.foam-extend.org         |
|    \\/     M anipulation  |                                                 |
\*---------------------------------------------------------------------------*/
FoamFile
{
    version     2.0;
    format      ascii;
    class       volScalarField;
    location    "0.75";
    object      rAU;
}
// * * * * * * * * * * * * * * * * * * * * * * * * * * * * * * * * * * * * * //

dimensions      [0 0 1 0 0 0 0];

internalField   nonuniform List<scalar> 
4393
(
0.00022764374
0.00022726992
0.00022690387
0.00022652998
0.00022614613
0.00022575091
0.00022534193
0.000224918
0.00022447828
0.00022402256
0.00022355145
0.00022306646
0.00022257007
0.00022206584
0.00022155814
0.0002210531
0.00022055654
0.00022007543
0.00021961741
0.00021919007
0.00021880114
0.00021845829
0.00021816904
0.00021794056
0.0002177795
0.0002176918
0.00021768209
0.00021768209
0.00021775367
0.00021790766
0.00021814222
0.00021845236
0.00021882988
0.00021926373
0.00021974066
0.00022024614
0.00022076533
0.00022128405
0.00022178947
0.00022227059
0.00022271843
0.00022312606
0.0002234884
0.00022380201
0.00022406479
0.00022427575
0.00022443496
0.00022454295
0.00022458507
0.00022451133
0.00022419084
0.00022388528
0.00022357067
0.00022324424
0.00022290436
0.0002225488
0.00022217669
0.00022178762
0.00022138196
0.00022096099
0.00022052698
0.0002200833
0.00021963443
0.00021918568
0.00021874408
0.00021831623
0.00021790972
0.00021753264
0.00021719282
0.00021689813
0.00021665625
0.00021647458
0.00021636013
0.00021631923
0.00021635726
0.00021644391
0.00021641683
0.00021646006
0.00021658697
0.00021679908
0.00021709484
0.00021746911
0.00021791312
0.00021841489
0.00021896015
0.00021953341
0.00022011917
0.00022070285
0.00022127151
0.00022181428
0.00022232245
0.00022278942
0.00022321043
0.00022358226
0.00022390276
0.00022417104
0.00022438862
0.00022454271
0.00022400593
0.00022369727
0.00022339714
0.00022308544
0.00022275947
0.00022241772
0.00022205817
0.00022168026
0.00022128398
0.00022087023
0.00022044091
0.00021999908
0.00021954899
0.00021909608
0.00021864669
0.00021820882
0.00021778997
0.00021739847
0.00021704293
0.00021673154
0.00021647231
0.00021627301
0.00021614103
0.00021608327
0.00021610591
0.000216214
0.00021630069
0.00021618163
0.00021614338
0.00021619295
0.00021633528
0.00021657202
0.00021690063
0.00021731394
0.00021780041
0.00021834515
0.0002189312
0.00021954107
0.000220158
0.0002207669
0.00022135493
0.00022191174
0.0002224294
0.00022290217
0.00022332606
0.00022369844
0.00022401823
0.00022428552
0.00022448062
0.00022365057
0.00022334729
0.00022304708
0.00022273225
0.00022240036
0.00022205009
0.0002216796
0.00022128856
0.0002208773
0.00022044716
0.00022000064
0.00021954153
0.00021907499
0.0002186075
0.00021814653
0.00021770124
0.0002172802
0.00021689267
0.00021654794
0.00021625469
0.00021602124
0.00021585554
0.00021576513
0.00021575703
0.00021583752
0.00021601165
0.00021609306
0.00021588794
0.00021576537
0.00021573588
0.00021580819
0.00021598749
0.00021627394
0.0002166618
0.00021713951
0.00021769095
0.00021829709
0.00021893793
0.00021959412
0.00022024819
0.00022088528
0.00022149344
0.00022206353
0.00022258899
0.00022306529
0.00022348962
0.00022386077
0.00022417776
0.00022442244
0.00022328866
0.00022298954
0.00022268965
0.00022237201
0.00022203433
0.00022167545
0.00022129363
0.00022088874
0.00022046135
0.0002200132
0.00021954731
0.00021906821
0.00021858194
0.0002180961
0.00021761938
0.00021716225
0.00021673451
0.00021634646
0.00021600819
0.00021572889
0.00021551723
0.00021538136
0.00021532903
0.00021536756
0.00021550355
0.00021574237
0.0002158293
0.0002155337
0.00021532285
0.00021521131
0.00021521218
0.00021533477
0.0002155822
0.00021595002
0.0002164262
0.00021699266
0.00021762749
0.00021830749
0.00021901025
0.00021971564
0.00022040667
0.00022106982
0.00022169492
0.00022227472
0.00022280443
0.0002232812
0.00022370373
0.00022407087
0.00022436676
0.00022291095
0.00022261652
0.000222318
0.00022199849
0.00022165582
0.00022128886
0.00022089595
0.00022047704
0.00022003289
0.00021956554
0.00021907848
0.00021857689
0.00021806776
0.00021755981
0.00021706314
0.00021658969
0.00021615067
0.0002157576
0.00021542144
0.00021515195
0.00021495809
0.00021484824
0.00021483041
0.00021491235
0.00021510127
0.00021540334
0.0002155109
0.000215119
0.00021481425
0.00021461586
0.00021454219
0.0002146075
0.00021481841
0.0002151717
0.00021565425
0.00021624505
0.00021691833
0.00021764682
0.00021840441
0.00021916795
0.00021991826
0.0002206403
0.00022132303
0.00022195884
0.0002225429
0.00022307259
0.00022354678
0.00022396479
0.00022431253
0.00022251792
0.00022222886
0.00022193274
0.00022161237
0.00022126555
0.00022089112
0.00022048739
0.00022005431
0.00021959273
0.00021910488
0.00021859465
0.00021806783
0.0002175323
0.00021699806
0.00021647672
0.00021598196
0.00021552669
0.00021512381
0.00021478528
0.00021452138
0.00021434133
0.00021425366
0.00021426665
0.00021438861
0.0002146277
0.00021499137
0.00021513988
0.00021464441
0.00021423828
0.00021394618
0.00021379294
0.00021379903
0.00021397539
0.00021432007
0.00021481804
0.00021544414
0.00021616737
0.00021695527
0.00021777727
0.00021860684
0.00021942244
0.00022020767
0.00022095085
0.00022164426
0.00022228336
0.000222866
0.00022339161
0.00022386033
0.00022425951
0.00022211158
0.00022182924
0.00022153669
0.00022121649
0.00022086636
0.00022048505
0.00022007074
0.00021962328
0.00021914348
0.00021863365
0.00021809794
0.0002175427
0.00021697671
0.00021641129
0.00021585984
0.00021533807
0.00021486093
0.000214443
0.00021409731
0.00021383463
0.00021366428
0.00021359478
0.00021363464
0.00021379283
0.0002140788
0.00021450188
0.00021471781
0.00021410983
0.00021359265
0.00021319745
0.00021295713
0.00021290026
0.00021304342
0.000213386
0.00021390998
0.00021458432
0.00021537102
0.00021623101
0.00021712838
0.00021803275
0.00021892021
0.00021977319
0.00022057968
0.00022133224
0.00022202694
0.00022266244
0.00022323903
0.00022375789
0.00022420765
0.00022169362
0.00022141885
0.00022113097
0.00022081199
0.00022045949
0.00022007198
0.00021964743
0.00021918546
0.0002186867
0.00021815337
0.00021758977
0.00021700265
0.00021640169
0.00021579964
0.00021521192
0.00021465674
0.00021415156
0.00021371298
0.0002133552
0.00021308938
0.00021292465
0.00021286929
0.00021293184
0.00021312201
0.00021345086
0.00021393031
0.00021424758
0.00021351634
0.00021287588
0.00021236505
0.00021202702
0.0002119012
0.00021201184
0.00021235987
0.0002129227
0.00021366098
0.00021452733
0.0002154743
0.00021645953
0.00021744843
0.00021841478
0.00021934011
0.00022021256
0.00022102542
0.00022177582
0.00022246358
0.00022309018
0.00022365805
0.0002241571
0.00022126605
0.00022100073
0.00022071892
0.00022040237
0.00022004851
0.00021965557
0.00021922121
0.00021874466
0.00021822619
0.00021766776
0.00021707359
0.00021645074
0.00021580966
0.00021516463
0.00021453345
0.00021393738
0.00021339707
0.00021293163
0.0002125566
0.00021228324
0.00021212012
0.00021207478
0.00021215554
0.00021237275
0.00021273948
0.00021327101
0.00021373259
0.00021286534
0.00021208636
0.00021144348
0.000210993
0.0002107892
0.00021086715
0.00021122968
0.00021184731
0.00021266888
0.00021363442
0.00021468584
0.00021577319
0.00021685731
0.00021790986
0.00021891208
0.0002198528
0.00022072664
0.00022153231
0.0002222712
0.0002229463
0.00022356153
0.00022410813
0.00022083151
0.00022057625
0.00022030161
0.00021998867
0.00021963454
0.00021923709
0.0002187935
0.00021830247
0.0002177637
0.00021717865
0.00021655123
0.00021588856
0.00021520174
0.00021450662
0.00021382376
0.00021317827
0.00021259494
0.00021209608
0.0002116987
0.0002114138
0.00021124866
0.00021120945
0.00021130374
0.00021154238
0.00021194068
0.00021251825
0.00021317814
0.00021216
0.00021122375
0.00021042747
0.00020984428
0.00020954921
0.0002095932
0.00020998159
0.00021067434
0.00021160346
0.00021269201
0.00021386845
0.000215074
0.0002162648
0.00021741097
0.00021849416
0.0002195048
0.00022043955
0.00022129928
0.00022208744
0.00022280889
0.00022346918
0.00022406112
0.00022039097
0.00022014831
0.00021988263
0.00021957481
0.00021922181
0.00021882107
0.00021836917
0.00021786411
0.00021730477
0.00021669179
0.00021602845
0.00021532162
0.00021458281
0.00021382938
0.00021308509
0.00021237994
0.00021174423
0.00021120453
0.0002107795
0.00021047927
0.00021030878
0.00021027188
0.00021037466
0.00021062809
0.00021104992
0.00021166504
0.00021248492
0.00021140492
0.00021028887
0.00020931174
0.00020856804
0.00020816233
0.00020816953
0.00020859857
0.00020939299
0.00021046056
0.00021170135
0.000213027
0.00021436874
0.00021567829
0.00021692518
0.00021809268
0.0002191739
0.00022016846
0.00022108008
0.00022191479
0.00022267962
0.00022338204
0.00022401654
0.00021994964
0.00021971967
0.00021946399
0.00021916264
0.00021881213
0.00021840937
0.0002179502
0.0002174317
0.00021685166
0.00021620955
0.00021550759
0.00021475198
0.00021395423
0.00021313305
0.00021231582
0.00021153885
0.00021083997
0.00021025159
0.00020979428
0.00020947626
0.00020929857
0.00020926126
0.0002093679
0.0002096289
0.00021006439
0.00021070561
0.0002115926
0.00021060811
0.00020928518
0.00020809201
0.00020714966
0.00020660487
0.00020657007
0.00020705981
0.0002079914
0.00020923729
0.00021066635
0.00021216952
0.00021366722
0.00021510772
0.0002164616
0.00021771546
0.00021886649
0.00021991841
0.00022087856
0.00022175603
0.00022256043
0.00022330128
0.00022397491
0.0002195062
0.00021929227
0.0002190488
0.00021875585
0.00021840981
0.000218007
0.00021754243
0.00021701204
0.00021641218
0.00021574072
0.00021499828
0.00021418976
0.00021332612
0.00021242687
0.00021152329
0.00021065983
0.00020988485
0.00020923897
0.00020874506
0.00020840775
0.00020822183
0.00020818158
0.00020828679
0.0002085464
0.00020898258
0.00020963391
0.00021055341
0.00020978133
0.00020821966
0.00020676591
0.00020557245
0.00020484639
0.00020476053
0.00020533924
0.00020645648
0.00020793283
0.0002095947
0.00021130821
0.00021298301
0.00021456607
0.0002160316
0.00021737189
0.00021859005
0.00021969514
0.00022069899
0.00022161426
0.0002224534
0.00022322818
0.00022393686
0.00021907143
0.00021887301
0.00021864278
0.00021835982
0.00021802004
0.00021761908
0.00021715094
0.00021661018
0.00021599137
0.00021529022
0.00021450506
0.00021363876
0.00021270079
0.00021171061
0.00021070332
0.00020973392
0.00020886591
0.00020815206
0.00020761813
0.0002072627
0.00020707063
0.00020702773
0.00020712834
0.00020737847
0.00020780118
0.00020844284
0.00020937228
0.00020894117
0.00020710455
0.00020533483
0.00020381822
0.00020284734
0.00020269462
0.00020340383
0.00020477434
0.00020655004
0.00020849966
0.00021046089
0.00021233444
0.00021406987
0.00021564902
0.00021707298
0.00021835303
0.00021950499
0.00022054599
0.00022149276
0.00022236077
0.00022316411
0.00022390302
0.00021863685
0.00021845792
0.00021824336
0.00021797262
0.00021764159
0.00021724527
0.00021677659
0.00021622853
0.00021559354
0.00021486456
0.0002140368
0.00021311006
0.00021209116
0.00021099788
0.00020986824
0.0002087705
0.00020779029
0.00020699863
0.0002064249
0.0002060573
0.00020586482
0.00020582088
0.00020591272
0.00020614192
0.00020653061
0.00020713339
0.0002080386
0.0002081133
0.0002059603
0.00020380706
0.00020186893
0.0002005559
0.00020030788
0.00020121122
0.00020293112
0.00020509808
0.00020740276
0.000209653
0.00021174573
0.00021363976
0.00021533027
0.00021683126
0.00021816473
0.00021935472
0.00022042442
0.00022139491
0.0002222848
0.00022311048
0.00022387407
0.0002182253
0.0002180647
0.00021786692
0.00021761049
0.00021729087
0.00021690231
0.00021643656
0.00021588475
0.00021523678
0.00021448212
0.00021361166
0.00021262078
0.00021151201
0.00021029897
0.00020902
0.00020775949
0.00020663616
0.00020574975
0.00020513482
0.00020476278
0.00020457791
0.00020453657
0.00020461817
0.00020481867
0.00020515556
0.00020568975
0.00020653201
0.00020732632
0.00020481655
0.00020220307
0.00019971147
0.00019790495
0.00019750749
0.00019870672
0.00020091506
0.00020359681
0.00020633763
0.00020892016
0.00021124829
0.00021330089
0.00021509436
0.00021666056
0.00021803498
0.00021925123
0.00022033906
0.00022132401
0.0002222277
0.00022306865
0.00022385069
0.00021781623
0.00021767818
0.00021749955
0.00021725969
0.00021695426
0.00021657688
0.00021611808
0.00021556708
0.00021491098
0.00021413518
0.00021322514
0.00021217017
0.00021096677
0.00020962102
0.00020816621
0.00020670439
0.00020540441
0.0002044125
0.00020377009
0.00020342075
0.00020326856
0.00020324494
0.00020332125
0.00020348643
0.00020374586
0.00020416244
0.00020487408
0.00020604044
0.00020373322
0.00020057049
0.00019735056
0.00019481321
0.00019415711
0.00019582086
0.00019872113
0.00020208402
0.00020535574
0.00020831134
0.00021088202
0.00021308304
0.00021496238
0.0002165754
0.00021797364
0.00021920117
0.00022029441
0.00022128309
0.00022219149
0.00022303988
0.00022383349
0.00021746729
0.00021735009
0.00021719197
0.00021697162
0.00021668452
0.00021632371
0.0002158785
0.00021533616
0.0002146807
0.00021389279
0.0002129508
0.00021183533
0.00021053411
0.00020904113
0.00020737404
0.00020564898
0.00020411144
0.00020298618
0.00020232357
0.00020202262
0.00020192197
0.00020191863
0.00020198122
0.00020209732
0.00020225091
0.00020250093
0.00020301796
0.00020404861
0.00020277735
0.00019900155
0.00019484899
0.00019121084
0.00019006068
0.00019246992
0.00019635977
0.00020062729
0.00020453472
0.00020789282
0.00021069627
0.00021302021
0.00021495674
0.00021659018
0.00021798988
0.00021921043
0.0002202943
0.00022127468
0.00022217783
0.00022302523
0.00022382302
0.0002171996
0.00021710765
0.00021697398
0.00021677765
0.00021651448
0.00021617694
0.0002157532
0.00021522853
0.00021458372
0.00021379433
0.00021283038
0.00021166097
0.00021026247
0.00020861348
0.00020670051
0.00020463839
0.00020279009
0.00020152025
0.00020088652
0.00020071761
0.00020074156
0.00020080719
0.00020089166
0.00020099494
0.00020105374
0.00020109969
0.00020133319
0.00020206296
0.00020232382
0.00019782333
0.00019245242
0.00018712534
0.00018495978
0.0001885734
0.00019388333
0.0001993469
0.00020399111
0.0002077526
0.00021075
0.00021314919
0.00021509947
0.00021671783
0.00021809127
0.00021928349
0.00022034145
0.00022130052
0.00022218789
0.00022302546
0.00022381971
0.00021725871
0.00021719487
0.00021709168
0.00021692716
0.0002166975
0.00021639491
0.00021600695
0.00021551751
0.00021490491
0.00021414022
0.00021318463
0.00021199223
0.00021052263
0.00020873537
0.00020656218
0.00020406804
0.00020178683
0.00020035026
0.00019980547
0.0001998796
0.00020010609
0.00020026688
0.0002003647
0.00020045085
0.00020037075
0.00020009391
0.00019988353
0.00020010256
0.0002011839
0.00019740126
0.00019066138
0.00018291721
0.00017861504
0.00018416472
0.0001914687
0.00019845348
0.00020389615
0.00020800329
0.00021110955
0.00021350632
0.00021540952
0.00021696791
0.00021828252
0.00021942266
0.00022043708
0.00022136131
0.00022222216
0.00022304096
0.0002238238
0.00021801608
0.00021798725
0.00021792915
0.0002178146
0.00021763982
0.00021739697
0.00021707352
0.00021665259
0.0002161104
0.00021541354
0.00021451342
0.00021334356
0.00021183643
0.00020993055
0.0002074862
0.00020441482
0.00020147717
0.00019988112
0.00019958086
0.00020017832
0.00020082266
0.00020120788
0.00020138595
0.00020158409
0.00020150327
0.00020093444
0.00020031651
0.00019986215
0.00020080873
0.00019976254
0.00019129746
0.00018002185
0.00017094847
0.00017965848
0.00018947987
0.00019827235
0.00020448915
0.00020878108
0.00021184233
0.00021412163
0.00021589883
0.00021734427
0.0002185642
0.00021962741
0.00022058047
0.00022145652
0.00022228035
0.00022307166
0.00022383534
0.00022066296
0.00022071116
0.00022074104
0.00022072051
0.00022064772
0.00022051569
0.00022031314
0.00022002414
0.00021962496
0.00021908077
0.00021833769
0.00021731114
0.00021589816
0.000214016
0.00021146405
0.0002077861
0.00020388295
0.00020236529
0.00020272476
0.00020450597
0.00020601053
0.00020691222
0.00020732511
0.00020797969
0.0002083238
0.0002073252
0.00020619052
0.00020432613
0.00020496084
0.00020348457
0.00019650048
0.00018118268
0.00016222128
0.00017630919
0.00018869819
0.00019949741
0.00020614949
0.00021024671
0.00021300434
0.00021500939
0.00021656699
0.00021784239
0.00021893148
0.00021989376
0.00022076869
0.00022158421
0.0002223613
0.00022311699
0.00022385415
0.00022642247
0.00022656569
0.00022672847
0.00022685619
0.00022694665
0.00022699492
0.00022699384
0.00022693258
0.00022679278
0.00022654477
0.00022613749
0.00022547307
0.00022438862
0.00022271943
0.00022022115
0.00021576714
0.00020956538
0.00020824575
0.00020948494
0.00021348886
0.00021646492
0.0002183565
0.00021897153
0.00022040893
0.00022210689
9.3009034e-05
9.5433651e-05
9.769199e-05
9.9882486e-05
0.00010288259
9.446386e-05
8.6204758e-05
0.00010657285
0.00017933435
0.0001934341
0.0002041275
0.00020945477
0.0002125349
0.00021460578
0.00021615226
0.00021739492
0.00021844705
0.00021937329
0.00022021401
0.00022099657
0.00022174101
0.00022246299
0.00022317586
0.00022387982
0.00023924584
0.00023969366
0.00024019484
0.00024068128
0.00024116205
0.00024164126
0.00024212374
0.00024261321
0.00024310853
0.00024359894
0.00024405172
0.00024437413
0.00024434537
0.00024362939
0.00024200986
0.00023807847
0.00022682486
0.00022935848
0.00023549589
0.00025022957
0.00026145199
0.00027024923
0.00012828331
0.00016689755
0.00032278801
0.00046161049
0.00049956686
0.00049956686
0.00049956686
0.00049956686
0.00049956686
0.00045031243
0.00033649862
6.8075346e-05
0.0002129744
0.00021346136
0.00021437919
0.00021549473
0.00021653674
0.00021748137
0.00021834008
0.00021913151
0.00021987248
0.00022057701
0.00022125686
0.00022192229
0.00022258258
0.00022324671
0.00022391168
0.00026426947
0.00026527847
0.00026643272
0.00026762977
0.00026889019
0.00027023857
0.00027170905
0.00027334463
0.00027519849
0.00027733814
0.00027985003
0.00028283159
0.0002863842
0.00029056026
0.00029519718
0.00030236097
0.00027346849
0.00030503553
0.00035663233
0.00037259039
0.00027826232
0.0003195957
0.00049956686
0.00049956686
0.00049956686
0.00049956686
0.00049956686
0.00049956686
0.00049956686
0.00049956686
0.00041263356
0.00041826874
0.00010203804
0.00026659087
0.00023114048
0.00022209743
0.00021927564
0.00021853516
0.00021855455
0.00021888204
0.00021934169
0.00021986069
0.0002204076
0.00022096917
0.00022154081
0.00022212246
0.00022271662
0.0002233276
0.0002239489
0.00030195347
0.00030409672
0.00030622754
0.00030843068
0.00031078064
0.00031335023
0.00031622542
0.00031951947
0.00032339179
0.00032808601
0.00033399828
0.00034170415
0.00035173498
0.00036474897
0.00038492188
0.00040155847
0.00025707482
0.00025315908
0.00026338591
0.00048915351
0.0004785191
0.00048855362
0.0004786985
0.00047372159
0.00047746532
0.00045865794
0.00045171914
0.00045351605
0.00044093586
0.00043652015
0.00010691799
0.00010767049
0.00021977531
0.00025235651
0.00023694863
0.00022741098
0.00022311611
0.00022121932
0.00022044965
0.00022024494
0.00022033842
0.00022059812
0.00022095599
0.00022137598
0.00022183899
0.00022233541
0.00022286126
0.00022341629
0.00022399046
0.00028855995
0.00028907797
0.00028926744
0.00028945353
0.00028963832
0.0002898538
0.00029012596
0.00029049169
0.00029100393
0.00029174032
0.00029282301
0.00029386712
0.00029480525
0.00029556386
0.00029292151
0.00010292669
0.00037622477
0.00047081598
0.00047253618
0.0004938371
0.00048613833
0.00048245085
0.00012420978
0.0001212791
0.00010076996
0.00010005396
0.00010062882
0.00010197262
0.00010292705
0.00010452141
0.00020120848
0.00020767759
0.00021808212
0.00023901482
0.00023963035
0.00023076169
0.00022595803
0.00022341723
0.00022210855
0.00022149302
0.00022128051
0.00022131167
0.0002214966
0.00022178346
0.00022214204
0.00022255491
0.00022301249
0.00022351042
0.00022403526
0.00022327442
0.00022310666
0.00022281834
0.00022253971
0.00022227854
0.00022205199
0.00022187605
0.00022177405
0.00022177831
0.00022193371
0.00022230521
0.00022209366
0.00022116214
0.00021941551
0.00021672692
0.00021314483
9.5857809e-05
9.9101035e-05
9.9868951e-05
9.9773755e-05
0.0001001495
0.00010017626
0.00021253974
0.00021081358
0.00020892975
0.00020554371
0.00020443524
0.00020387883
0.00020210779
0.00020212592
0.00020330625
0.00020901228
0.00021823556
0.00023217469
0.00023802101
0.00023248218
0.00022785764
0.00022508965
0.00022347631
0.00022257942
0.00022213298
0.0002219764
0.00022201191
0.00022217935
0.00022244144
0.00022277511
0.00022316644
0.00022360761
0.00022408218
0.00021926701
0.00021934694
0.00021947336
0.00021960877
0.0002197644
0.00021995238
0.00022018531
0.00022047925
0.0002208535
0.00022133089
0.00022186471
0.00022156835
0.00022081277
0.00021957664
0.0002178027
0.00021498854
0.00021250533
0.00021402781
0.00021587826
0.00021421467
0.00021238154
0.00021121568
0.00021005899
0.00020833715
0.00020730331
0.00020568583
0.00020477962
0.00020420517
0.0002034793
0.000203948
0.0002059319
0.00021088805
0.00021854771
0.00022810731
0.00023383087
0.00023318226
0.00022902082
0.00022628619
0.00022454855
0.00022348514
0.00022287592
0.00022257548
0.00022248879
0.00022255377
0.0002227299
0.00022299079
0.00022331949
0.00022370558
0.00022413008
0.0002178903
0.0002179699
0.00021809527
0.00021823406
0.00021838912
0.00021856801
0.00021877926
0.00021903396
0.00021934463
0.00021972498
0.00021997905
0.00021948685
0.00021872857
0.00021765403
0.00021622665
0.00021439091
0.0002132599
0.00021411163
0.0002152701
0.00021349531
0.00021190192
0.00021068271
0.00020952604
0.00020831099
0.00020735615
0.00020629714
0.00020564674
0.00020528609
0.00020521169
0.00020608735
0.00020833082
0.00021261979
0.00021875854
0.00022561398
0.00023029938
0.00023231251
0.00022962754
0.00022708155
0.00022534778
0.00022421057
0.00022350181
0.00022309966
0.00022291861
0.00022289948
0.0002230017
0.00022319758
0.00022346852
0.00022380229
0.00022417794
0.00021721199
0.000217333
0.00021747275
0.00021762382
0.00021779216
0.00021798417
0.00021820605
0.00021846531
0.00021876896
0.00021912239
0.00021921473
0.00021877149
0.00021811979
0.00021722963
0.00021608068
0.00021482131
0.00021419435
0.00021469805
0.00021503932
0.00021341176
0.00021201413
0.00021086211
0.00020980453
0.00020882294
0.00020800282
0.00020726721
0.00020684858
0.00020673373
0.00020702978
0.00020812274
0.00021033492
0.00021399199
0.0002188702
0.00022400894
0.00022786251
0.00023021813
0.00022984676
0.00022755969
0.00022591103
0.00022476873
0.00022401239
0.00022354593
0.00022329679
0.00022321181
0.00022325266
0.00022339207
0.00022361091
0.00022389596
0.00022422482
0.00021692273
0.00021699583
0.00021711185
0.00021724704
0.00021739948
0.00021757271
0.00021777053
0.00021799781
0.00021825846
0.00021855396
0.00021852305
0.00021813346
0.00021760083
0.00021691356
0.00021608417
0.00021528992
0.00021497637
0.00021536466
0.00021499615
0.0002135949
0.00021236939
0.00021132278
0.00021038925
0.00020956878
0.00020889437
0.00020837616
0.00020813532
0.00020820821
0.00020871188
0.00020988739
0.00021195264
0.00021505025
0.00021895055
0.00022294298
0.00022613872
0.00022830332
0.00022930025
0.00022779426
0.00022627878
0.00022517911
0.00022441539
0.00022391592
0.0002236221
0.00022348833
0.00022348012
0.0002235718
0.00022374465
0.00022398513
0.00022426994
0.00021678005
0.00021689307
0.00021701864
0.00021715436
0.00021730424
0.00021747133
0.00021765734
0.00021786412
0.00021809173
0.000218337
0.00021824894
0.00021790016
0.00021744784
0.00021689667
0.0002162867
0.00021577681
0.0002156343
0.00021596276
0.00021504895
0.00021385951
0.0002127962
0.00021187012
0.00021106087
0.00021037604
0.00020983848
0.00020948075
0.00020937814
0.00020958321
0.00021019734
0.00021137656
0.00021325676
0.00021588246
0.00021904215
0.00022223307
0.00022490775
0.00022685625
0.00022808969
0.00022785107
0.0002264906
0.00022546384
0.00022472205
0.00022421445
0.00022389578
0.00022372851
0.00022368271
0.00022373518
0.00022386827
0.00022406868
0.00022431266
0.00021670672
0.00021677686
0.00021688329
0.00021700658
0.00021714425
0.00021729742
0.00021746626
0.00021765099
0.0002178497
0.00021805692
0.00021796809
0.00021768283
0.00021732682
0.00021691317
0.00021649025
0.00021618296
0.0002161562
0.00021618215
0.00021514109
0.00021413995
0.00021322865
0.00021242695
0.00021173737
0.00021117323
0.00021075727
0.00021052502
0.0002105309
0.00021082752
0.00021149493
0.00021263479
0.00021432512
0.0002165596
0.00021915701
0.00022176419
0.00022402326
0.00022575995
0.0002269487
0.00022750543
0.00022658072
0.00022564468
0.00022494502
0.00022444823
0.00022412089
0.00022393323
0.00022386019
0.00022388142
0.00022398084
0.00022414581
0.0002243525
0.00021665342
0.00021674497
0.0002168518
0.00021696793
0.00021709494
0.0002172338
0.00021738362
0.00021754322
0.00021770923
0.00021787491
0.00021779676
0.00021755877
0.00021727629
0.00021696823
0.00021668233
0.0002165122
0.00021656317
0.00021610976
0.00021525443
0.00021441785
0.00021364686
0.00021296646
0.00021239048
0.00021193623
0.00021162716
0.00021149648
0.00021158707
0.00021194524
0.00021263109
0.00021370975
0.00021522073
0.00021713349
0.00021929909
0.0002214671
0.00022339199
0.00022493346
0.00022605163
0.00022677651
0.00022657928
0.00022574189
0.00022509718
0.00022462489
0.00022430155
0.0002241044
0.00022401311
0.00022401037
0.00022408189
0.00022421601
0.00022438913
0.00021662126
0.00021668794
0.00021678291
0.00021689027
0.00021700784
0.00021713532
0.00021727082
0.00021741216
0.00021755499
0.00021769184
0.00021764801
0.00021745992
0.00021724596
0.00021702725
0.00021684656
0.00021677352
0.0002167099
0.00021608893
0.00021538653
0.0002146929
0.00021404952
0.00021348325
0.00021301314
0.00021265868
0.00021244315
0.00021239609
0.0002125524
0.00021295016
0.00021363294
0.00021464093
0.00021598924
0.0002176378
0.00021946677
0.00022129546
0.00022294891
0.00022431544
0.00022535177
0.00022606754
0.00022637962
0.00022577304
0.00022519068
0.0002247523
0.00022444252
0.00022424465
0.00022414272
0.00022412241
0.00022417135
0.00022427903
0.00022442234
0.00021659741
0.00021666984
0.00021676027
0.00021685883
0.00021696516
0.00021707891
0.00021719775
0.00021731903
0.00021743807
0.0002175475
0.00021753781
0.00021739138
0.00021723356
0.00021708532
0.00021698297
0.0002169516
0.00021664454
0.00021611014
0.00021553576
0.0002149665
0.0002144382
0.00021397726
0.00021360454
0.00021334016
0.00021320627
0.0002132286
0.00021343562
0.00021385738
0.00021452436
0.00021545976
0.00021666398
0.00021809518
0.00021965771
0.00022121857
0.00022264934
0.00022386128
0.00022481284
0.00022550226
0.00022595385
0.00022575338
0.00022523659
0.00022483807
0.00022454873
0.00022435697
0.00022425067
0.00022421831
0.00022424946
0.00022433485
0.00022445206
0.0002165865
0.00021664664
0.00021672926
0.00021682038
0.00021691805
0.00021702131
0.00021712739
0.00021723333
0.00021733434
0.00021742345
0.00021744899
0.00021733982
0.00021722925
0.00021713694
0.00021709303
0.00021696885
0.00021660098
0.00021616607
0.00021570041
0.00021523971
0.00021481459
0.00021444968
0.00021416571
0.00021398225
0.00021391964
0.00021399993
0.00021424613
0.00021468114
0.00021532547
0.00021619083
0.00021726924
0.00021852091
0.00021986948
0.00022121512
0.00022246133
0.00022353741
0.00022440575
0.00022505861
0.00022550973
0.00022566428
0.00022524466
0.00022488931
0.00022462511
0.00022444457
0.00022433891
0.00022429913
0.00022431671
0.00022438364
0.0002244783
0.00021658281
0.00021664149
0.00021671851
0.00021680185
0.00021689015
0.00021698241
0.00021707577
0.00021716723
0.00021725222
0.00021732443
0.00021736725
0.00021730086
0.00021722862
0.00021717963
0.00021711438
0.00021690039
0.0002165999
0.00021624971
0.00021587762
0.00021551218
0.00021517937
0.00021490146
0.00021469794
0.00021458701
0.00021458682
0.00021471597
0.0002149927
0.00021543394
0.00021605267
0.00021685299
0.00021782252
0.00021892512
0.0002200996
0.00022126962
0.00022236128
0.00022331806
0.00022410696
0.00022471758
0.0002251569
0.00022544306
0.00022522323
0.00022491243
0.00022467631
0.00022451067
0.00022440952
0.00022436615
0.00022437377
0.00022442569
0.00022450114
0.00021658762
0.00021663984
0.00021671104
0.00021678786
0.00021686846
0.00021695167
0.00021703458
0.0002171143
0.00021718666
0.0002172461
0.00021728556
0.00021726927
0.00021722821
0.00021717804
0.00021706249
0.00021687305
0.00021663194
0.00021635514
0.0002160645
0.00021578312
0.00021553296
0.0002153337
0.00021520296
0.00021515714
0.000215212
0.00021538287
0.00021568393
0.00021612714
0.00021671995
0.00021746147
0.00021833733
0.00021931551
0.00022034664
0.00022137141
0.00022233235
0.0002231841
0.00022389832
0.00022446383
0.0002248835
0.00022516989
0.00022517966
0.00022491327
0.00022470675
0.00022455844
0.00022446467
0.00022442072
0.00022442142
0.00022446138
0.00022452075
0.00021659836
0.00021664731
0.00021671353
0.00021678409
0.00021685731
0.00021693207
0.00021700556
0.00021707514
0.00021713711
0.00021718673
0.00021721826
0.00021722501
0.00021719982
0.00021713584
0.00021702815
0.00021687723
0.00021668907
0.00021647671
0.00021625773
0.00021605102
0.00021587508
0.00021574696
0.00021568218
0.00021569506
0.00021579891
0.00021600607
0.00021632716
0.00021677015
0.00021733838
0.00021802774
0.00021882331
0.00021969708
0.00022060887
0.00022151198
0.00022236119
0.00022312
0.00022376444
0.00022428374
0.00022467837
0.0002249571
0.00022509774
0.00022489675
0.00022472033
0.00022459083
0.00022450647
0.00022446425
0.00022446051
0.00022449113
0.00022453728
0.00021661449
0.00021665947
0.00021672121
0.00021678639
0.00021685329
0.00021692083
0.00021698637
0.00021704759
0.00021710133
0.00021714371
0.00021717021
0.00021717578
0.00021715533
0.00021710443
0.00021702049
0.00021690539
0.00021676481
0.00021660966
0.00021645437
0.00021631446
0.00021620548
0.00021614199
0.0002161373
0.00021620354
0.00021635161
0.0002165911
0.00021692955
0.00021737166
0.00021791774
0.00021856164
0.00021928865
0.00022007435
0.00022088582
0.00022168586
0.00022243856
0.00022311455
0.00022369387
0.00022416678
0.00022453258