/*--------------------------------*- C++ -*----------------------------------*\
| =========                 |                                                 |
| \\      /  F ield         | foam-extend: Open Source CFD                    |
|  \\    /   O peration     | Version:     4.1                                |
|   \\  /    A nd           | Web:         http://www.foam-extend.org         |
|    \\/     M anipulation  |                                                 |
\*---------------------------------------------------------------------------*/
FoamFile
{
    version     2.0;
    format      ascii;
    class       volVectorField;
    location    "0.75";
    object      U;
}
// * * * * * * * * * * * * * * * * * * * * * * * * * * * * * * * * * * * * * //

dimensions      [0 1 -1 0 0 0 0];

internalField   nonuniform List<vector> 
4393
(
(146.04918 -0.15650958 0)
(146.5978 -0.16294289 0)
(147.01212 -0.16595632 0)
(147.45335 -0.16960633 0)
(147.90442 -0.17401343 0)
(148.37022 -0.17926309 0)
(148.85297 -0.18527714 0)
(149.35481 -0.1919093 0)
(149.87736 -0.19895394 0)
(150.42151 -0.20614801 0)
(150.98731 -0.2131713 0)
(151.57374 -0.21964965 0)
(152.17861 -0.22516369 0)
(152.79839 -0.22926476 0)
(153.4282 -0.23149794 0)
(154.06179 -0.23142995 0)
(154.69167 -0.2286768 0)
(155.3093 -0.22292517 0)
(155.9053 -0.2139435 0)
(156.46975 -0.20158214 0)
(156.99236 -0.18576643 0)
(157.46274 -0.16648885 0)
(157.87053 -0.14380671 0)
(158.20568 -0.11785048 0)
(158.45861 -0.088846367 0)
(158.62063 -0.057149877 0)
(158.68444 -0.023267608 0)
(158.64481 0.012133687 0)
(158.49844 0.047978901 0)
(158.24617 0.08285292 0)
(157.89299 0.1153097 0)
(157.44823 0.14393836 0)
(156.92525 0.16751058 0)
(156.34068 0.18513363 0)
(155.71321 0.19634904 0)
(155.06219 0.2011523 0)
(154.40636 0.19993895 0)
(153.76277 0.19340194 0)
(153.14614 0.18241054 0)
(152.56848 0.16789677 0)
(152.03905 0.1507652 0)
(151.56462 0.13183169 0)
(151.14974 0.11179021 0)
(150.79716 0.091214366 0)
(150.50826 0.070608309 0)
(150.28347 0.050430421 0)
(150.12221 0.03083589 0)
(150.02091 0.011721996 0)
(149.97389 -0.0031705745 0)
(149.47222 -0.39493448 0)
(149.94164 -0.40588424 0)
(150.2879 -0.41398197 0)
(150.6579 -0.42452193 0)
(151.03755 -0.43761942 0)
(151.43183 -0.45331028 0)
(151.84311 -0.4713243 0)
(152.27363 -0.49121606 0)
(152.72508 -0.51237317 0)
(153.19844 -0.53401462 0)
(153.69384 -0.55518863 0)
(154.21035 -0.57478063 0)
(154.74583 -0.59153799 0)
(155.29679 -0.60411645 0)
(155.85834 -0.61114881 0)
(156.4242 -0.61132915 0)
(156.9868 -0.60349711 0)
(157.53752 -0.58670394 0)
(158.06686 -0.56024688 0)
(158.56479 -0.52367017 0)
(159.02092 -0.47674456 0)
(159.42476 -0.4194443 0)
(159.76586 -0.35194213 0)
(160.03401 -0.27463819 0)
(160.2195 -0.188234 0)
(160.31343 -0.093848379 0)
(160.30824 0.0068700612 0)
(160.19835 0.11167922 0)
(159.98163 0.21750165 0)
(159.65878 0.32052533 0)
(159.23454 0.41655541 0)
(158.71811 0.50139653 0)
(158.12287 0.57135829 0)
(157.4656 0.62373354 0)
(156.76523 0.65710349 0)
(156.04136 0.67140101 0)
(155.31292 0.66775075 0)
(154.59707 0.64816255 0)
(153.90854 0.61517014 0)
(153.25927 0.57149201 0)
(152.65844 0.51976128 0)
(152.11267 0.46234015 0)
(151.62642 0.40121646 0)
(151.20239 0.33799316 0)
(150.84199 0.27398872 0)
(150.54552 0.2102615 0)
(150.31218 0.14710055 0)
(150.14086 0.084341622 0)
(150.03531 0.028578903 0)
(149.73768 -0.62942637 0)
(150.1919 -0.63860024 0)
(150.5272 -0.65074663 0)
(150.88535 -0.6677339 0)
(151.25319 -0.6894108 0)
(151.63578 -0.71555512 0)
(152.03563 -0.74565725 0)
(152.4551 -0.77895843 0)
(152.89601 -0.81443649 0)
(153.35949 -0.85078992 0)
(153.84581 -0.88642889 0)
(154.35422 -0.91948513 0)
(154.88271 -0.94785129 0)
(155.42791 -0.96925827 0)
(155.985 -0.98139269 0)
(156.54768 -0.98204326 0)
(157.10833 -0.96924903 0)
(157.65822 -0.94141504 0)
(158.18776 -0.89737031 0)
(158.6868 -0.83636459 0)
(159.14486 -0.75802535 0)
(159.55138 -0.66231025 0)
(159.89578 -0.54949184 0)
(160.1677 -0.42020396 0)
(160.35714 -0.27556883 0)
(160.45479 -0.11740838 0)
(160.45258 0.051505069 0)
(160.3443 0.22728772 0)
(160.12631 0.40488225 0)
(159.79866 0.57804885 0)
(159.36586 0.73968849 0)
(158.83728 0.88260454 0)
(158.22699 1.0004395 0)
(157.55279 1.0885403 0)
(156.83479 1.1445014 0)
(156.09377 1.1682665 0)
(155.34957 1.1618318 0)
(154.62001 1.1286939 0)
(153.92012 1.0732137 0)
(153.26189 1.0000277 0)
(152.65434 0.91358813 0)
(152.10381 0.81785246 0)
(151.61439 0.71611776 0)
(151.18847 0.61099441 0)
(150.82716 0.50450003 0)
(150.53033 0.39806259 0)
(150.2967 0.29219662 0)
(150.12701 0.18719989 0)
(150.02928 0.087411013 0)
(149.83023 -0.85845453 0)
(150.27652 -0.86822732 0)
(150.60722 -0.88447128 0)
(150.96055 -0.90800783 0)
(151.32381 -0.93844855 0)
(151.70218 -0.9753428 0)
(152.09833 -1.0179477 0)
(152.51485 -1.0652066 0)
(152.95374 -1.1157061 0)
(153.41639 -1.1676404 0)
(153.90331 -1.2187898 0)
(154.41394 -1.2665272 0)
(154.94647 -1.3078687 0)
(155.49762 -1.33958 0)
(156.06255 -1.3583468 0)
(156.63483 -1.3609928 0)
(157.2066 -1.3447041 0)
(157.76879 -1.3072051 0)
(158.3115 -1.2468427 0)
(158.82422 -1.1625711 0)
(159.29622 -1.0538735 0)
(159.71663 -0.92067479 0)
(160.07463 -0.7633032 0)
(160.35951 -0.58254642 0)
(160.56077 -0.37983012 0)
(160.66843 -0.15752699 0)
(160.67358 0.080653081 0)
(160.569 0.32934617 0)
(160.35003 0.58133658 0)
(160.01589 0.8276063 0)
(159.57071 1.0578125 0)
(159.02415 1.2613749 0)
(158.39131 1.4289101 0)
(157.69165 1.5535808 0)
(156.94716 1.6319327 0)
(156.18042 1.6640275 0)
(155.41275 1.6529553 0)
(154.66295 1.6039711 0)
(153.94649 1.5235259 0)
(153.27543 1.4183941 0)
(152.65849 1.2950098 0)
(152.10154 1.1590375 0)
(151.60815 1.0151601 0)
(151.18017 0.86705302 0)
(150.81823 0.71747513 0)
(150.52163 0.56830844 0)
(150.2888 0.42058131 0)
(150.1212 0.27533991 0)
(150.02715 0.1350217 0)
(149.93922 -1.0820078 0)
(150.37744 -1.0933243 0)
(150.7028 -1.1137857 0)
(151.05077 -1.1439883 0)
(151.40901 -1.1833723 0)
(151.78285 -1.2312983 0)
(152.17518 -1.2868031 0)
(152.58881 -1.3485422 0)
(153.02607 -1.4147187 0)
(153.48864 -1.4830234 0)
(153.97734 -1.5505958 0)
(154.49192 -1.614022 0)
(155.03081 -1.6693915 0)
(155.59085 -1.7124326 0)
(156.16718 -1.738741 0)
(156.75318 -1.7440854 0)
(157.34064 -1.7247298 0)
(157.92003 -1.6776863 0)
(158.48094 -1.6008288 0)
(159.01245 -1.4928551 0)
(159.50343 -1.35315 0)
(159.9427 -1.1816353 0)
(160.31913 -0.97868991 0)
(160.62158 -0.74520704 0)
(160.83897 -0.48282765 0)
(160.96045 -0.1943632 0)
(160.97596 0.1156499 0)
(160.87692 0.44047205 0)
(160.65714 0.77080398 0)
(160.3146 1.0946709 0)
(159.85274 1.3980581 0)
(159.28159 1.6664241 0)
(158.61773 1.8868004 0)
(157.88293 2.0497966 0)
(157.10197 2.1508202 0)
(156.29998 2.1902201 0)
(155.50036 2.172516 0)
(154.72317 2.1051127 0)
(153.98451 1.9969075 0)
(153.29638 1.8570821 0)
(152.66708 1.6942155 0)
(152.10178 1.5157414 0)
(151.60328 1.3277053 0)
(151.17269 1.1347524 0)
(150.80993 0.94024201 0)
(150.5137 0.74636817 0)
(150.28218 0.55442742 0)
(150.11705 0.36560737 0)
(150.02586 0.18118734 0)
(150.07681 -1.3030211 0)
(150.50505 -1.3163732 0)
(150.82359 -1.341239 0)
(151.16474 -1.3783299 0)
(151.51663 -1.4269818 0)
(151.88472 -1.4864228 0)
(152.27215 -1.5555086 0)
(152.68207 -1.6326407 0)
(153.11714 -1.7156668 0)
(153.57944 -1.8017917 0)
(154.07023 -1.8875132 0)
(154.58965 -1.9686039 0)
(155.13646 -2.0401659 0)
(155.7077 -2.0967916 0)
(156.2985 -2.1328578 0)
(156.90199 -2.14294 0)
(157.50946 -2.1222659 0)
(158.11078 -2.0670726 0)
(158.69487 -1.9747561 0)
(159.25024 -1.8437928 0)
(159.76531 -1.6735107 0)
(160.22854 -1.4638397 0)
(160.62845 -1.2151643 0)
(160.95346 -0.92836624 0)
(161.19178 -0.60511679 0)
(161.3315 -0.24843859 0)
(161.36107 0.13651982 0)
(161.27009 0.54173054 0)
(161.05027 0.95572261 0)
(160.6977 1.3632797 0)
(160.2148 1.7461119 0)
(159.61192 2.0848816 0)
(158.90763 2.3622158 0)
(158.12699 2.5656443 0)
(157.29856 2.6893397 0)
(156.45102 2.7342322 0)
(155.61048 2.7068054 0)
(154.79867 2.6172176 0)
(154.03232 2.4773594 0)
(153.32328 2.2992395 0)
(152.67915 2.0938591 0)
(152.10412 1.8705699 0)
(151.5999 1.6368272 0)
(151.16659 1.3982201 0)
(150.80315 1.1586446 0)
(150.50753 0.92052864 0)
(150.27747 0.68521312 0)
(150.11443 0.45352722 0)
(150.02513 0.22566664 0)
(150.24365 -1.5149957 0)
(150.66035 -1.5306788 0)
(150.97056 -1.560217 0)
(151.30332 -1.6045307 0)
(151.64733 -1.662882 0)
(152.00823 -1.7344107 0)
(152.38948 -1.8178307 0)
(152.79456 -1.9113277 0)
(153.2266 -2.0124275 0)
(153.68818 -2.1178713 0)
(154.18109 -2.2235172 0)
(154.706 -2.3242949 0)
(155.26211 -2.4142473 0)
(155.84677 -2.486709 0)
(156.45511 -2.5346719 0)
(157.07993 -2.5513393 0)
(157.71191 -2.5307591 0)
(158.34005 -2.468329 0)
(158.95245 -2.3609958 0)
(159.53687 -2.207107 0)
(160.0812 -2.0060395 0)
(160.57355 -1.7577981 0)
(161.00212 -1.4627595 0)
(161.35489 -1.1216793 0)
(161.61935 -0.73603928 0)
(161.78231 -0.30877326 0)
(161.83037 0.15467675 0)
(161.75079 0.64525496 0)
(161.53239 1.1494265 0)
(161.16858 1.6484188 0)
(160.66005 2.1188655 0)
(160.01746 2.5354422 0)
(159.26195 2.8751683 0)
(158.42307 3.1217194 0)
(157.53456 3.2679027 0)
(156.62986 3.315658 0)
(155.73857 3.2741781 0)
(154.88444 3.1571823 0)
(154.08482 2.9802472 0)
(153.35118 2.7587057 0)
(152.69006 2.5062753 0)
(152.10431 2.2343515 0)
(151.59421 1.9518062 0)
(151.15851 1.6651105 0)
(150.79503 1.3786193 0)
(150.50077 1.0949288 0)
(150.27284 0.81533667 0)
(150.11214 0.54027461 0)
(150.02456 0.26915905 0)
(150.43909 -1.7255189 0)
(150.84172 -1.7435502 0)
(151.14196 -1.7777822 0)
(151.46468 -1.8294265 0)
(151.79922 -1.897721 0)
(152.1514 -1.9817726 0)
(152.52504 -2.0802106 0)
(152.92405 -2.1910633 0)
(153.35207 -2.3115891 0)
(153.8123 -2.4381073 0)
(154.3072 -2.5658521 0)
(154.83813 -2.6888861 0)
(155.4049 -2.8001119 0)
(156.00526 -2.8914523 0)
(156.63442 -2.9542896 0)
(157.28479 -2.9801991 0)
(157.94618 -2.9618348 0)
(158.60652 -2.8936546 0)
(159.25275 -2.7721891 0)
(159.87173 -2.595785 0)
(160.45077 -2.364013 0)
(160.97763 -2.0770415 0)
(161.44031 -1.7352192 0)
(161.82646 -1.339017 0)
(162.12285 -0.88942493 0)
(162.31489 -0.38886979 0)
(162.38691 0.15737434 0)
(162.32325 0.73957674 0)
(162.10882 1.342262 0)
(161.73322 1.9427886 0)
(161.19444 2.5116886 0)
(160.50312 3.0159856 0)
(159.68383 3.4253548 0)
(158.77219 3.7185285 0)
(157.80904 3.8868373 0)
(156.83408 3.9339289 0)
(155.88134 3.8728166 0)
(154.9769 3.7219223 0)
(154.1386 3.5014413 0)
(153.37712 3.2306635 0)
(152.69744 2.9263659 0)
(152.10056 2.6021017 0)
(151.58491 2.2681157 0)
(151.14758 1.9316253 0)
(150.78495 1.597268 0)
(150.49294 1.2676134 0)
(150.26783 0.94371074 0)
(150.10983 0.62549541 0)
(150.02402 0.31172597 0)
(150.66255 -1.9211537 0)
(151.04958 -1.941771 0)
(151.33828 -1.9811021 0)
(151.64922 -2.0406383 0)
(151.97254 -2.119608 0)
(152.31429 -2.2171323 0)
(152.67864 -2.331815 0)
(153.07001 -2.4615934 0)
(153.49267 -2.603524 0)
(153.95054 -2.7535572 0)
(154.44693 -2.9063289 0)
(154.98407 -3.0550119 0)
(155.56257 -3.1912752 0)
(156.18079 -3.3054383 0)
(156.83409 -3.3869768 0)
(157.51442 -3.425484 0)
(158.2105 -3.4119218 0)
(158.90875 -3.3396801 0)
(159.59465 -3.2049542 0)
(160.25391 -3.0063168 0)
(160.87318 -2.7437889 0)
(161.44003 -2.4178786 0)
(161.94242 -2.028933 0)
(162.3679 -1.5769716 0)
(162.70261 -1.062119 0)
(162.9305 -0.4857436 0)
(163.03326 0.14769556 0)
(162.99158 0.82839749 0)
(162.78522 1.5393555 0)
(162.39833 2.2538177 0)
(161.82467 2.9349347 0)
(161.07429 3.5397308 0)
(160.17615 4.0279714 0)
(159.1743 4.3718592 0)
(158.1192 4.5611636 0)
(157.05887 4.6023215 0)
(156.03286 4.5137677 0)
(155.06979 4.3201789 0)
(154.18768 4.0475641 0)
(153.39575 3.719924 0)
(152.69674 3.357462 0)
(152.08919 2.975975 0)
(151.56915 2.5869945 0)
(151.13165 2.1983134 0)
(150.77139 1.8146543 0)
(150.48299 1.4383578 0)
(150.26179 1.0700342 0)
(150.10716 0.70900391 0)
(150.02341 0.35332339 0)
(150.91379 -2.1186892 0)
(151.2819 -2.1417696 0)
(151.55721 -2.1860487 0)
(151.85449 -2.2533868 0)
(152.16471 -2.3430659 0)
(152.49413 -2.4542889 0)
(152.84733 -2.5857154 0)
(153.22929 -2.735285 0)
(153.64498 -2.8999509 0)
(154.09921 -3.0753839 0)
(154.59629 -3.2556824 0)
(155.13958 -3.4331375 0)
(155.73076 -3.5981061 0)
(156.36906 -3.739095 0)
(157.05015 -3.8433029 0)
(157.76545 -3.8978647 0)
(158.50222 -3.8916335 0)
(159.24488 -3.8167576 0)
(159.9769 -3.6692348 0)
(160.68256 -3.4482157 0)
(161.34785 -3.1545523 0)
(161.96029 -2.7893467 0)
(162.50816 -2.3529871 0)
(162.97925 -1.8448288 0)
(163.35938 -1.2636356 0)
(163.63105 -0.60897163 0)
(163.77295 0.11642482 0)
(163.76136 0.90359303 0)
(163.56931 1.7346543 0)
(163.17327 2.5787161 0)
(162.56036 3.3900407 0)
(161.7389 4.1123624 0)
(160.74355 4.691714 0)
(159.63003 5.0914527 0)
(158.46215 5.299837 0)
(157.29887 5.3278206 0)
(156.18653 5.2016093 0)
(155.15633 4.9542564 0)
(154.22578 4.6190983 0)
(153.40169 4.2257059 0)
(152.68364 3.7980431 0)
(152.06685 3.3541367 0)
(151.54444 2.9065984 0)
(151.10895 2.4635129 0)
(150.75312 2.0293966 0)
(150.47012 1.6060957 0)
(150.25422 1.1935652 0)
(150.1039 0.79037311 0)
(150.02268 0.39377288 0)
(151.1909 -2.2910607 0)
(151.5391 -2.3167346 0)
(151.7994 -2.3663486 0)
(152.08114 -2.4420943 0)
(152.37631 -2.5433234 0)
(152.69136 -2.6693859 0)
(153.03134 -2.8190889 0)
(153.40178 -2.9904854 0)
(153.80849 -3.1805476 0)
(154.25729 -3.3847843 0)
(154.75375 -3.5968425 0)
(155.30259 -3.8081564 0)
(155.90695 -4.0076913 0)
(156.56729 -4.1818861 0)
(157.27986 -4.3151597 0)
(158.0355 -4.3914882 0)
(158.81957 -4.3969642 0)
(159.61373 -4.3222025 0)
(160.39874 -4.1631944 0)
(161.15706 -3.9201958 0)
(161.87401 -3.5954685 0)
(162.53743 -3.1911117 0)
(163.1364 -2.7076877 0)
(163.65953 -2.1437033 0)
(164.09279 -1.4960032 0)
(164.41745 -0.76141548 0)
(164.60891 0.060244546 0)
(164.63825 0.96222843 0)
(164.46978 1.9269556 0)
(164.06927 2.9197515 0)
(163.41347 3.8843851 0)
(162.50682 4.7466786 0)
(161.39131 5.4330983 0)
(160.13922 5.8946724 0)
(158.83298 6.1185002 0)
(157.54611 6.1228168 0)
(156.33304 5.9450494 0)
(155.22729 5.6295044 0)
(154.2446 5.2187239 0)
(153.38802 4.7487823 0)
(152.65263 4.2476524 0)
(152.0294 3.7354307 0)
(151.50778 3.225457 0)
(151.07739 2.7257028 0)
(150.72876 2.2400947 0)
(150.45346 1.7696556 0)
(150.24463 1.3134272 0)
(150.09983 0.86904431 0)
(150.02177 0.4328091 0)
(151.49541 -2.473994 0)
(151.81924 -2.5023409 0)
(152.06234 -2.5572505 0)
(152.32635 -2.6413577 0)
(152.6042 -2.7541617 0)
(152.90251 -2.8952411 0)
(153.22674 -3.0636553 0)
(153.5831 -3.2577023 0)
(153.97825 -3.474527 0)
(154.41925 -3.709636 0)
(154.91311 -3.9563604 0)
(155.46632 -4.205352 0)
(156.08389 -4.4441509 0)
(156.76808 -4.6568823 0)
(157.51618 -4.8245852 0)
(158.31848 -4.927139 0)
(159.15783 -4.9469689 0)
(160.01199 -4.8727947 0)
(160.858 -4.7010056 0)
(161.67595 -4.4338852 0)
(162.45052 -4.0760654 0)
(163.17035 -3.6312826 0)
(163.82607 -3.100493 0)
(164.4079 -2.4811374 0)
(164.90274 -1.7673958 0)
(165.2911 -0.95204456 0)
(165.54504 -0.030266472 0)
(165.62875 0.99531404 0)
(165.49732 2.1091468 0)
(165.10089 3.2742246 0)
(164.40014 4.4223335 0)
(163.39161 5.4549437 0)
(162.12661 6.2698612 0)
(160.70141 6.8003938 0)
(159.22496 7.033536 0)
(157.79006 6.9992813 0)
(156.4606 6.7513812 0)
(155.27135 6.3492583 0)
(154.23436 5.8469131 0)
(153.34682 5.2878289 0)
(152.59767 4.7040252 0)
(151.97241 4.1172558 0)
(151.45606 3.5410149 0)
(151.03487 2.982589 0)
(150.69695 2.4448215 0)
(150.43219 1.9275179 0)
(150.23258 1.4285145 0)
(150.09477 0.94430916 0)
(150.02065 0.47008835 0)
(151.82189 -2.6142983 0)
(152.12123 -2.6448783 0)
(152.34557 -2.704904 0)
(152.58992 -2.7973942 0)
(152.84834 -2.922019 0)
(153.12759 -3.0786795 0)
(153.43358 -3.266829 0)
(153.77314 -3.485196 0)
(154.15393 -3.7313245 0)
(154.58433 -4.0009697 0)
(155.07315 -4.2873842 0)
(155.62896 -4.5806136 0)
(156.25925 -4.8668344 0)
(156.96881 -5.1276632 0)
(157.75672 -5.340034 0)
(158.61287 -5.4783804 0)
(159.51671 -5.5200017 0)
(160.44056 -5.4510212 0)
(161.35614 -5.2686776 0)
(162.24039 -4.9784945 0)
(163.0776 -4.5886846 0)
(163.85802 -4.1053174 0)
(164.57489 -3.5299128 0)
(165.22128 -2.858604 0)
(165.78624 -2.0821215 0)
(166.25033 -1.1876684 0)
(166.58239 -0.16370488 0)
(166.73913 0.99351765 0)
(166.66399 2.2731933 0)
(166.28623 3.6389109 0)
(165.54159 5.0098041 0)
(164.41143 6.2542025 0)
(162.95857 7.2267371 0)
(161.31494 7.8342864 0)
(159.62798 8.0663526 0)
(158.01611 7.9719925 0)
(156.55358 7.6288655 0)
(155.27418 7.1166215 0)
(154.18311 6.5032894 0)
(153.2688 5.8404652 0)
(152.5119 5.1638678 0)
(151.89102 4.4961182 0)
(151.38597 3.8499936 0)
(150.97923 3.2313198 0)
(150.65635 2.6412359 0)
(150.40552 2.0778667 0)
(150.21766 1.5375168 0)
(150.08855 1.0153258 0)
(150.01928 0.5051993 0)
(152.17513 -2.7817673 0)
(152.44422 -2.8154901 0)
(152.64727 -2.8813715 0)
(152.86942 -2.9829434 0)
(153.10571 -3.1201432 0)
(153.36292 -3.2932974 0)
(153.64732 -3.5023878 0)
(153.96636 -3.7467478 0)
(154.32874 -4.024539 0)
(154.74434 -4.3320207 0)
(155.22402 -4.662614 0)
(155.77896 -5.0059394 0)
(156.41981 -5.3468811 0)
(157.15497 -5.6643497 0)
(157.98653 -5.9302447 0)
(158.90453 -6.1115668 0)
(159.88398 -6.1781812 0)
(160.88938 -6.1125218 0)
(161.8848 -5.9135755 0)
(162.84298 -5.5923672 0)
(163.74821 -5.1630169 0)
(164.59351 -4.6354355 0)
(165.37609 -4.0124283 0)
(166.09329 -3.28901 0)
(166.73796 -2.4518278 0)
(167.29205 -1.4805421 0)
(167.72161 -0.35376893 0)
(167.97547 0.94220857 0)
(167.98368 2.4054433 0)
(167.6483 4.0055543 0)
(166.86668 5.6508119 0)
(165.59169 7.1649741 0)
(163.89945 8.3358685 0)
(161.97641 9.0291382 0)
(160.0273 9.2428872 0)
(158.20424 9.0572292 0)
(156.59168 8.5850487 0)
(155.21803 7.9328017 0)
(154.07673 7.1852211 0)
(153.14346 6.4021876 0)
(152.3879 5.6221197 0)
(151.78021 4.8671644 0)
(151.29424 4.1481249 0)
(150.90842 3.4683516 0)
(150.60571 2.826529 0)
(150.37275 2.2185779 0)
(150.19951 1.6389251 0)
(150.08103 1.0811318 0)
(150.01763 0.53767227 0)
(152.54228 -2.8799939 0)
(152.78203 -2.915113 0)
(152.96231 -2.9852279 0)
(153.16028 -3.094259 0)
(153.37218 -3.2424021 0)
(153.60475 -3.4304936 0)
(153.86458 -3.6592033 0)
(154.15972 -3.9287129 0)
(154.49988 -4.2381485 0)
(154.89663 -4.5847283 0)
(155.36317 -4.9625643 0)
(155.91378 -5.3613566 0)
(156.5631 -5.7651591 0)
(157.32454 -6.150462 0)
(158.20511 -6.4835018 0)
(159.19603 -6.7214333 0)
(160.26645 -6.823368 0)
(161.36926 -6.7664375 0)
(162.45712 -6.5528136 0)
(163.49687 -6.2023161 0)
(164.47351 -5.7378767 0)
(165.38475 -5.1742936 0)
(166.23371 -4.5152497 0)
(167.02418 -3.7537448 0)
(167.75541 -2.8708648 0)
(168.41327 -1.8358726 0)
(168.96218 -0.61359597 0)
(169.34296 0.823607 0)
(169.47165 2.4870309 0)
(169.21593 4.360252 0)
(168.41492 6.3472326 0)
(166.96868 8.2137317 0)
(164.96596 9.6417936 0)
(162.67922 10.428946 0)
(160.40099 10.595803 0)
(158.32676 10.273266 0)
(156.54844 9.6263771 0)
(155.08103 8.7964691 0)
(153.89874 7.8872491 0)
(152.95918 6.9659749 0)
(152.21787 6.0717267 0)
(151.63499 5.2240764 0)
(151.17777 4.43012 0)
(150.82059 3.689458 0)
(150.544 2.9974495 0)
(150.33332 2.3472491 0)
(150.17787 1.7310605 0)
(150.07212 1.1406662 0)
(150.01568 0.56699159 0)
(152.93752 -3.0312721 0)
(153.14105 -3.0703399 0)
(153.29598 -3.1470319 0)
(153.46724 -3.2658362 0)
(153.65196 -3.4273802 0)
(153.85661 -3.6332147 0)
(154.0879 -3.8849518 0)
(154.35435 -4.1839348 0)
(154.66659 -4.5306424 0)
(155.03787 -4.9237345 0)
(155.48407 -5.3585395 0)
(156.02305 -5.8252744 0)
(156.67429 -6.3074896 0)
(157.45805 -6.779465 0)
(158.38934 -7.2008138 0)
(159.46291 -7.514758 0)
(160.64049 -7.6632754 0)
(161.8579 -7.6142934 0)
(163.05078 -7.3745793 0)
(164.17802 -6.9776118 0)
(165.22716 -6.4599296 0)
(166.20397 -5.8435347 0)
(167.12008 -5.1338707 0)
(167.98786 -4.3233702 0)
(168.81588 -3.3892162 0)
(169.59692 -2.2896281 0)
(170.29494 -0.97194789 0)
(170.84257 0.61078259 0)
(171.1431 2.4902651 0)
(171.0246 4.6787387 0)
(170.24095 7.094444 0)
(168.59572 9.4335597 0)
(166.18169 11.207591 0)
(163.41127 12.093373 0)
(160.71625 12.16596 0)
(158.34533 11.639465 0)
(156.38969 10.756421 0)
(154.83668 9.7020393 0)
(153.63043 8.5998069 0)
(152.70362 7.5214789 0)
(151.99411 6.5032022 0)
(151.45075 5.5588768 0)
(151.03396 4.6896158 0)
(150.71434 3.8897468 0)
(150.47048 3.1503498 0)
(150.28689 2.46125 0)
(150.15259 1.8121179 0)
(150.06175 1.1928015 0)
(150.01342 0.59261216 0)
(153.33225 -3.0770366 0)
(153.50137 -3.1162418 0)
(153.62943 -3.1956029 0)
(153.77178 -3.3199707 0)
(153.92664 -3.4902798 0)
(154.10013 -3.7087407 0)
(154.29896 -3.9779068 0)
(154.53196 -4.3003656 0)
(154.81064 -4.6781768 0)
(155.15 -5.111912 0)
(155.56887 -5.5988604 0)
(156.08941 -6.1306271 0)
(156.73683 -6.6912503 0)
(157.54052 -7.2542596 0)
(158.52816 -7.7734105 0)
(159.70266 -8.1741775 0)
(161.01662 -8.3729886 0)
(162.37972 -8.324081 0)
(163.701 -8.0436259 0)
(164.92747 -7.5887841 0)
(166.05171 -7.0186743 0)
(167.09212 -6.3654888 0)
(168.07147 -5.6352227 0)
(169.01237 -4.8181949 0)
(169.93684 -3.8858057 0)
(170.85066 -2.7785443 0)
(171.72168 -1.4145062 0)
(172.47676 0.28431794 0)
(173.01168 2.3778481 0)
(173.11528 4.9214691 0)
(172.41986 7.8764412 0)
(170.55332 10.86656 0)
(167.58121 13.127154 0)
(164.1503 14.105236 0)
(160.92345 14.004519 0)
(158.20664 13.174671 0)
(156.07157 11.9733 0)
(154.45356 10.637469 0)
(153.25135 9.3077629 0)
(152.36441 8.0542321 0)
(151.70964 6.9042865 0)
(151.22382 5.8618473 0)
(150.86103 4.9192195 0)
(150.58889 4.063751 0)
(150.3849 3.2812814 0)
(150.23338 2.5578058 0)
(150.12367 1.8802295 0)
(150.04994 1.2363867 0)
(150.01084 0.61398093 0)
(153.75629 -3.2107594 0)
(153.88331 -3.255643 0)
(153.98227 -3.3426518 0)
(154.09365 -3.4772188 0)
(154.21638 -3.6608503 0)
(154.35585 -3.8968103 0)
(154.51852 -4.1891276 0)
(154.71321 -4.5423451 0)
(154.95191 -4.9610389 0)
(155.25103 -5.4489414 0)
(155.63238 -6.0068974 0)
(156.12267 -6.6295189 0)
(156.75336 -7.3026721 0)
(157.56491 -8.000964 0)
(158.60439 -8.6738168 0)
(159.8915 -9.2228168 0)
(161.36878 -9.5214104 0)
(162.90573 -9.4968006 0)
(164.36971 -9.1772718 0)
(165.69102 -8.6545005 0)
(166.87368 -8.0200325 0)
(167.95864 -7.3160328 0)
(168.98532 -6.543378 0)
(169.98903 -5.6882062 0)
(171.01146 -4.7208563 0)
(172.08084 -3.5670159 0)
(173.17342 -2.1150094 0)
(174.20782 -0.25729962 0)
(175.06568 2.0893957 0)
(175.52383 5.0321879 0)
(175.04871 8.6560056 0)
(172.96204 12.558755 0)
(169.21509 15.541223 0)
(164.85434 16.579332 0)
(160.94655 16.1743 0)
(157.83647 14.893454 0)
(155.53866 13.265305 0)
(153.89559 11.581035 0)
(152.74038 9.9885688 0)
(151.93034 8.544807 0)
(151.35916 7.2596998 0)
(150.95211 6.1215714 0)
(150.65846 5.1106606 0)
(150.4444 4.2056 0)
(150.28757 3.3861474 0)
(150.17312 2.6341163 0)
(150.0913 1.933551 0)
(150.03677 1.2703017 0)
(150.00798 0.63056378 0)
(154.13666 -3.1949299 0)
(154.22296 -3.2381095 0)
(154.291 -3.3247006 0)
(154.36868 -3.4610458 0)
(154.45569 -3.6492019 0)
(154.55644 -3.8933785 0)
(154.67679 -4.1988641 0)
(154.8252 -4.5718509 0)
(155.0137 -5.0190624 0)
(155.25976 -5.5471107 0)
(155.58827 -6.1604789 0)
(156.03134 -6.8571264 0)
(156.62749 -7.6249319 0)
(157.43037 -8.4413415 0)
(158.51637 -9.256472 0)
(159.93896 -9.9449127 0)
(161.63314 -10.313055 0)
(163.40517 -10.243421 0)
(165.05482 -9.7917926 0)
(166.48718 -9.1115087 0)
(167.72784 -8.3526788 0)
(168.85561 -7.57398 0)
(169.93073 -6.7686171 0)
(170.99633 -5.9217619 0)
(172.11493 -5.0175568 0)
(173.34721 -3.9696034 0)
(174.68354 -2.6190699 0)
(176.03228 -0.79571332 0)
(177.28167 1.6463448 0)
(178.24437 4.9155915 0)
(178.21442 9.3273915 0)
(175.98245 14.534945 0)
(171.15245 18.67456 0)
(165.44318 19.685378 0)
(160.66893 18.753214 0)
(157.13203 16.79951 0)
(154.72255 14.604046 0)
(153.12346 12.496991 0)
(152.07786 10.610184 0)
(151.39318 8.9681412 0)
(150.9403 7.5511534 0)
(150.63592 6.3252035 0)
(150.42749 5.2551073 0)
(150.28219 4.3092982 0)
(150.17959 3.4609178 0)
(150.10683 2.6875122 0)
(150.0559 1.9703673 0)
(150.02242 1.2935232 0)
(150.00486 0.64187694 0)
(154.44982 -3.302501 0)
(154.48619 -3.3569144 0)
(154.51935 -3.4547745 0)
(154.55906 -3.6035051 0)
(154.6056 -3.8056098 0)
(154.66212 -4.0663812 0)
(154.73362 -4.3926795 0)
(154.82786 -4.7930064 0)
(154.95637 -5.2774474 0)
(155.13685 -5.8576357 0)
(155.39665 -6.5454375 0)
(155.77323 -7.3476617 0)
(156.31139 -8.2599768 0)
(157.07643 -9.2696543 0)
(158.18394 -10.341401 0)
(159.74959 -11.327665 0)
(161.71033 -11.924238 0)
(163.76994 -11.918649 0)
(165.61723 -11.406704 0)
(167.12072 -10.627315 0)
(168.34769 -9.8205449 0)
(169.4436 -9.0566613 0)
(170.49715 -8.2986377 0)
(171.55003 -7.5082294 0)
(172.6921 -6.6858323 0)
(174.0475 -5.7204265 0)
(175.64912 -4.3709435 0)
(177.40739 -2.375812 0)
(179.22536 0.4752108 0)
(181.00029 4.3267522 0)
(181.86723 9.7700661 0)
(179.76903 16.83573 0)
(173.45854 22.95856 0)
(165.74608 23.683601 0)
(159.9039 21.827902 0)
(155.94995 18.869282 0)
(153.54153 15.932767 0)
(152.09806 13.329784 0)
(151.24915 11.129018 0)
(150.75026 9.2933154 0)
(150.45533 7.7578128 0)
(150.27887 6.4590668 0)
(150.17156 5.3436904 0)
(150.10501 4.3691229 0)
(150.06288 3.5019131 0)
(150.03574 2.7156465 0)
(150.01814 1.9892162 0)
(150.00716 1.3051983 0)
(150.00155 0.64752169 0)
(154.38596 -3.2266954 0)
(154.36171 -3.276612 0)
(154.35278 -3.3658982 0)
(154.34619 -3.5058803 0)
(154.34282 -3.7003523 0)
(154.34388 -3.9562239 0)
(154.35278 -4.2823425 0)
(154.37542 -4.6899197 0)
(154.42127 -5.192713 0)
(154.50606 -5.8074461 0)
(154.65725 -6.5534014 0)
(154.91695 -7.4462958 0)
(155.33578 -8.4869403 0)
(155.98709 -9.6662343 0)
(157.03703 -10.969528 0)
(158.71889 -12.238996 0)
(161.00858 -12.990255 0)
(163.44335 -12.818921 0)
(165.52572 -11.931255 0)
(167.06794 -10.720545 0)
(168.21106 -9.6074581 0)
(169.22056 -8.6667353 0)
(170.23022 -7.7953614 0)
(171.25893 -6.898216 0)
(172.41977 -6.0530486 0)
(173.93679 -5.1953481 0)
(175.90278 -4.009675 0)
(178.20937 -2.1963455 0)
(180.68061 0.5141066 0)
(183.37277 4.015151 0)
(185.59487 9.8509749 0)
(184.21776 19.140981 0)
(175.99413 28.862316 0)
(165.32523 28.720746 0)
(158.34114 25.418433 0)
(154.09585 21.017905 0)
(151.9061 17.149055 0)
(150.78825 13.99758 0)
(150.25044 11.488715 0)
(150.00805 9.4843331 0)
(149.91296 7.8574987 0)
(149.88883 6.5097016 0)
(149.89678 5.3682725 0)
(149.91718 4.3801468 0)
(149.94031 3.5061434 0)
(149.96156 2.7167097 0)
(149.97892 1.9890208 0)
(149.99135 1.3047204 0)
(149.99812 0.64721976 0)
(153.47623 -3.2564164 0)
(153.37769 -3.3301219 0)
(153.31043 -3.4389121 0)
(153.23749 -3.5990012 0)
(153.16134 -3.8144774 0)
(153.08087 -4.09315 0)
(152.99718 -4.4448131 0)
(152.91349 -4.8820934 0)
(152.83613 -5.4209229 0)
(152.77727 -6.0815773 0)
(152.7627 -6.8904269 0)
(152.83955 -7.8763637 0)
(153.06583 -9.055272 0)
(153.51323 -10.433946 0)
(154.39461 -12.056908 0)
(156.14119 -13.846277 0)
(158.85061 -15.09462 0)
(161.76 -14.978137 0)
(164.0425 -13.951576 0)
(165.43559 -12.557733 0)
(166.22881 -11.490539 0)
(166.92146 -10.754103 0)
(167.71717 -10.147515 0)
(168.53679 -9.4715181 0)
(169.4549 -9.0171523 0)
(170.86624 -8.847787 0)
(172.96847 -8.2915912 0)
(175.65696 -7.0425579 0)
(178.57135 -4.4763828 0)
(182.4285 -0.72725855 0)
(187.15767 7.2306585 0)
(188.24487 20.228214 0)
(177.92753 36.68057 0)
(163.24659 34.968646 0)
(155.59445 29.535536 0)
(151.35104 23.102358 0)
(149.73657 18.091929 0)
(149.18473 14.387952 0)
(149.09718 11.621359 0)
(149.18644 9.502714 0)
(149.33028 7.8289581 0)
(149.47856 6.465455 0)
(149.61203 5.3224621 0)
(149.72458 4.3388583 0)
(149.81556 3.4716809 0)
(149.88646 2.6896509 0)
(149.93934 1.9692187 0)
(149.97543 1.2918012 0)
(149.99467 0.64084594 0)
(150.27918 -3.1555678 0)
(150.03252 -3.2216366 0)
(149.86117 -3.3062797 0)
(149.67307 -3.4360795 0)
(149.47298 -3.6162529 0)
(149.25608 -3.855628 0)
(149.01992 -4.165066 0)
(148.76308 -4.559338 0)
(148.48594 -5.058475 0)
(148.19219 -5.6900465 0)
(147.89733 -6.4943926 0)
(147.6428 -7.5276999 0)
(147.48351 -8.8430725 0)
(147.45942 -10.471126 0)
(147.78396 -12.507389 0)
(149.20311 -15.035457 0)
(152.18304 -17.053985 0)
(155.43232 -16.589287 0)
(157.58735 -14.74512 0)
(158.33706 -12.181282 0)
(158.23514 -10.346985 0)
(158.16921 -9.1880886 0)
(158.40324 -8.4327988 0)
(158.60115 -7.5231599 0)
(158.71729 -7.0225979 0)
(159.66656 -7.017147 0)
(161.7803 -5.9942023 0)
(164.94878 -4.8731308 0)
(168.68259 -1.9565222 0)
(175.06141 4.1667982 0)
(184.04624 12.175302 0)
(189.65331 24.095137 0)
(176.92253 49.628734 0)
(157.54521 45.387044 0)
(150.91418 34.316912 0)
(147.40313 24.792586 0)
(146.95725 18.490715 0)
(147.31604 14.349619 0)
(147.8344 11.451888 0)
(148.32306 9.3127049 0)
(148.734 7.6554611 0)
(149.06587 6.3186119 0)
(149.32881 5.2028054 0)
(149.53444 4.2438147 0)
(149.69303 3.3980186 0)
(149.81294 2.6343762 0)
(149.90067 1.929871 0)
(149.95989 1.2665287 0)
(149.99131 0.62845391 0)
(143.51026 -2.920071 0)
(143.11016 -3.0124279 0)
(142.79993 -3.1139251 0)
(142.45165 -3.2634905 0)
(142.07701 -3.4660403 0)
(141.66679 -3.7317139 0)
(141.21293 -4.0728318 0)
(140.70605 -4.5065598 0)
(140.13576 -5.0566663 0)
(139.49009 -5.7558566 0)
(138.76239 -6.6518106 0)
(137.97518 -7.8155268 0)
(137.1819 -9.3205763 0)
(136.3923 -11.177835 0)
(135.75919 -13.443971 0)
(136.50281 -16.540481 0)
(140.14335 -19.656957 0)
(144.25851 -18.174141 0)
(146.43983 -15.445743 0)
(146.26416 -11.964668 0)
(144.63754 -10.768564 0)
(143.25455 -10.898964 0)
(142.63663 -11.36732 0)
(142.04049 -10.882139 0)
(141.16308 -10.367997 0)
(141.98987 -10.532132 9.2155777e-18)
(143.27063 -11.920988 -2.0406794e-19)
(145.57588 -13.589004 0)
(146.66381 -7.4753869 1.0015767e-17)
(144.02772 -14.509915 -7.4988839e-18)
(161.52985 -10.134996 4.42725e-18)
(180.41203 5.4384242 -9.8915883e-18)
(167.93095 72.288781 6.3466851e-18)
(142.12811 58.028427 0)
(140.66648 37.125509 0)
(141.63426 24.706436 0)
(143.57066 17.83038 0)
(145.29832 13.692313 0)
(146.55468 10.912571 0)
(147.47726 8.8910666 0)
(148.16032 7.3299335 0)
(148.67268 6.0678907 0)
(149.06042 5.0099766 0)
(149.3548 4.0962142 0)
(149.57745 3.286349 0)
(149.74366 2.5518866 0)
(149.86425 1.8717319 0)
(149.94526 1.2294015 0)
(149.98814 0.61029087 0)
(129.54774 -2.8695372 0)
(128.7636 -2.9448888 0)
(128.15971 -3.0087091 0)
(127.48523 -3.1102022 0)
(126.76012 -3.2512904 0)
(125.96532 -3.439147 0)
(125.08265 -3.6817372 0)