/*--------------------------------*- C++ -*----------------------------------*\
| =========                 |                                                 |
| \\      /  F ield         | foam-extend: Open Source CFD                    |
|  \\    /   O peration     | Version:     4.1                                |
|   \\  /    A nd           | Web:         http://www.foam-extend.org         |
|    \\/     M anipulation  |                                                 |
\*---------------------------------------------------------------------------*/
FoamFile
{
    version     2.0;
    format      ascii;
    class       volScalarField;
    location    "0.2";
    object      p;
}
// * * * * * * * * * * * * * * * * * * * * * * * * * * * * * * * * * * * * * //

dimensions      [0 2 -2 0 0 0 0];

internalField   nonuniform List<scalar> 
16126
(
0.00050215486
0.0016509972
0.002694046
0.0038148594
0.0048808424
0.0059851365
0.0070623753
0.0081575748
0.0092394581
0.010329265
0.011412238
0.012498235
0.013580325
0.014663006
0.015743007
0.016822325
0.017899382
0.018975016
0.020048426
0.021119914
0.022189029
0.023255825
0.024320009
0.02538152
0.026440136
0.027495742
0.02854815
0.029597224
0.030642798
0.03168473
0.032722879
0.033757109
0.034787313
0.035813385
0.036835251
0.037852856
0.038866186
0.039875257
0.040880138
0.041880949
0.042877874
0.043871174
0.044861188
0.045848362
0.046833246
0.04781652
0.048799001
0.049781668
0.050765672
0.05175236
0.052743285
0.053740233
0.054745236
0.055760589
0.056788866
0.057832932
0.058895954
0.059981406
0.061093073
0.062235041
0.063411694
0.064627685
0.065887917
0.067197502
0.068561714
0.069985932
0.071475566
0.073035991
0.074672437
0.076389914
0.078193083
0.080086175
0.082072854
0.084156149
0.086338318
0.088620816
0.091004167
0.093488009
0.096070926
0.098750668
0.10152384
0.10438647
0.10733332
0.11035904
0.1134564
0.1166189
0.11984034
0.12310602
0.12640422
0.12972777
0.13306735
0.13641399
0.13975886
0.14309341
0.14640951
0.14969965
0.15295651
0.15617386
0.15934489
0.16246469
0.1655258
0.16852464
0.17145014
0.17430066
0.1770548
0.17971521
0.18223227
0.18461798
0.18675521
0.18871771
0.19027687
0.19167732
0.19258545
0.19398508
0.19532317
0.19929953
0.20410112
0.21560479
0.22656451
0.251057
0.26501349
0.31591287
0.31262179
0.48179647
0.00049990023
0.0016525358
0.0026955002
0.0038162841
0.004882886
0.0059869764
0.0070647477
0.0081599197
0.0092422158
0.010332141
0.011415469
0.012501683
0.013584117
0.014667088
0.015747451
0.01682712
0.017904578
0.018980624
0.020054486
0.021126449
0.022196077
0.023263418
0.024328188
0.025390323
0.026449606
0.027505922
0.028559089
0.02960897
0.030655404
0.03169825
0.03273737
0.03377263
0.034803926
0.035831153
0.036854239
0.037873132
0.038887816
0.039898311
0.040904684
0.041907056
0.042905609
0.043900603
0.044892374
0.045881364
0.046868117
0.047853307
0.048837744
0.049822396
0.050808405
0.051797101
0.052790025
0.053788946
0.054795874
0.055813085
0.056843127
0.057888842
0.058953367
0.060040149
0.06115294
0.062295796
0.063473067
0.064689376
0.065949594
0.067258804
0.068622251
0.070045291
0.071533316
0.073091684
0.074725619
0.076440129
0.078239886
0.080129134
0.082111567
0.084190251
0.086367498
0.088644824
0.09102283
0.093501235
0.096078716
0.098753124
0.10152116
0.10437904
0.10732158
0.11034469
0.11344165
0.11659913
0.11980781
0.12306346
0.12635723
0.12967767
0.13301544
0.13636112
0.13970581
0.1430409
0.14635822
0.14965021
0.15290956
0.15612994
0.15930459
0.16242848
0.16549428
0.16849823
0.17142974
0.17428685
0.17704986
0.17972112
0.18225791
0.18467777
0.18686896
0.18885994
0.19046143
0.19193445
0.19295683
0.1944657
0.19598887
0.20010778
0.20524838
0.21692518
0.22849835
0.25229085
0.2672959
0.30831323
0.31698895
0.37710193
0.00049561723
0.0016523532
0.0026953333
0.0038164587
0.0048837404
0.0059877296
0.0070660312
0.0081611688
0.0092438405
0.010333831
0.011417448
0.012503797
0.013586484
0.014669639
0.015750249
0.016830139
0.017907854
0.018984152
0.020058291
0.021130538
0.02220047
0.023268126
0.02433323
0.025395713
0.026455361
0.02751206
0.028565625
0.029615921
0.030662785
0.031706076
0.032745654
0.033781385
0.034813161
0.035840876
0.036864453
0.037883837
0.038899007
0.039909977
0.040916809
0.041919614
0.042918566
0.043913915
0.044905984
0.045895203
0.046882102
0.047867337
0.0488517
0.049836141
0.050821779
0.051809922
0.052802087
0.053800016
0.054805696
0.055821373
0.056849572
0.057893107
0.058955093
0.060038956
0.06114843
0.062287559
0.063460686
0.064672437
0.06592769
0.06723155
0.068589294
0.070006321
0.07148808
0.073040002
0.074667396
0.076375371
0.07816871
0.080051785
0.082028424
0.084101831
0.086274455
0.088547945
0.090923021
0.093399493
0.095976121
0.098650741
0.10142012
0.10428003
0.107226
0.11025027
0.1133433
0.11650327
0.11972367
0.12299066
0.1262944
0.12962517
0.13297347
0.13632994
0.13968557
0.14303165
0.14635998
0.14966291
0.15293319
0.15616448
0.15935023
0.1624855
0.16556347
0.16858069
0.1715278
0.17440356
0.17719073
0.17989463
0.18247524
0.18493746
0.18721005
0.18936476
0.19124005
0.19308918
0.19468323
0.19687723
0.1992717
0.2040586
0.20976549
0.22093795
0.23187823
0.25264559
0.26677204
0.30029932
0.31373486
0.35752943
0.00049316781
0.0016536096
0.0026965265
0.0038183731
0.0048863481
0.0059905293
0.0070695088
0.00816486
0.0092481185
0.010338424
0.011422582
0.012509341
0.01359257
0.014676217
0.015757403
0.016837864
0.01791621
0.018993159
0.020068002
0.021140985
0.022211704
0.023280191
0.024346176
0.025409591
0.026470225
0.027527964
0.028582626
0.029634077
0.030682155
0.031726719
0.032767629
0.03380475
0.034837974
0.03586719
0.03689232
0.037913303
0.038930114
0.039942757
0.040951286
0.041955801
0.042956463
0.043953506
0.044947235
0.04593806
0.046926485
0.047913141
0.04889879
0.049884347
0.050870896
0.051859704
0.052852246
0.053850218
0.054855558
0.055870464
0.056897409
0.057939158
0.058998777
0.060079643
0.06118545
0.062320205
0.063488224
0.064694114
0.06594275
0.067239244
0.068588901
0.069997164
0.071469547
0.073011569
0.074628647
0.076326022
0.078108632
0.079981023
0.081947217
0.084010627
0.086173919
0.088438959
0.09080668
0.093277085
0.095849094
0.098520688
0.1012886
0.10414884
0.10709558
0.11012266
0.11322456
0.11639246
0.11961687
0.12288951
0.12620082
0.12954048
0.13289882
0.13626608
0.13963307
0.14299088
0.14633119
0.14964622
0.15292869
0.1561722
0.15937029
0.16251805
0.16560908
0.16864005
0.17160278
0.17449608
0.17730643
0.18003562
0.18265647
0.18519296
0.18758188
0.18989092
0.19201692
0.1942167
0.19631992
0.1990814
0.20214664
0.20733162
0.21331627
0.22377588
0.23397565
0.2515511
0.2639643
0.28785493
0.2991556
0.31728606
0.00049112251
0.0016542086
0.0026968779
0.003819441
0.0048879501
0.0059923857
0.0070719309
0.0081675034
0.0092512562
0.010341837
0.011426443
0.012513539
0.013597205
0.014681243
0.015762881
0.016843784
0.017922615
0.019000058
0.020075428
0.021148958
0.022220257
0.023289346
0.024355966
0.025420041
0.026481366
0.027539823
0.028595232
0.029647456
0.030696331
0.031741715
0.032783464
0.033821439
0.034855526
0.035885608
0.036911601
0.037933432
0.038951067
0.039964497
0.040973761
0.041978942
0.042980182
0.043977694
0.044971757
0.045962753
0.046951158
0.047937567
0.048922707
0.049907453
0.050892846
0.051880109
0.05287067
0.053866178
0.054868521
0.055879849
0.056902588
0.05793946
0.05899349
0.060068025
0.061166734
0.06229361
0.063452972
0.06464944
0.065887925
0.067173595
0.06851183
0.069908177
0.071368275
0.072897796
0.074502335
0.076187335
0.077957954
0.079818981
0.081774687
0.08382874
0.085984056
0.088242737
0.090605928
0.093073799
0.09564541
0.098318774
0.10109069
0.10395694
0.10691185
0.10994918
0.11306187
0.11624299
0.11948403
0.12277419
0.1261036
0.12946191
0.13283923
0.13622564
0.13961178
0.14298856
0.14634759
0.14968101
0.15298159
0.156243
0.1594591
0.16262524
0.16573577
0.168788
0.17177535
0.17469804
0.17754536
0.18032376
0.18301354
0.18563785
0.18815975
0.19066123
0.19307081
0.19563224
0.19822472
0.20149693
0.20513271
0.21058929
0.2166966
0.22634382
0.23575536
0.25077777
0.26222717
0.28146751
0.29280648
0.30512067
0.00049048923
0.0016553863
0.0026982598
0.003821569
0.0048907223
0.005995573
0.0070757928
0.0081717599
0.009256148
0.010347185
0.011432409
0.012520034
0.013604335
0.014688977
0.015771293
0.016852878
0.017932448
0.019010656
0.020086842
0.021161225
0.022233427
0.023303465
0.024371085
0.025436209
0.026498637
0.027558248
0.028614864
0.029668347
0.030718533
0.031765276
0.032808431
0.033847854
0.034883426
0.035915024
0.036942554
0.037965934
0.038985118
0.040000082
0.041010847
0.042017478
0.043020092
0.044018876
0.045014079
0.046006049
0.046995224
0.047982159
0.048967533
0.049952172
0.050937062
0.051923372
0.052912466
0.053905931
0.054905593
0.055913536
0.056932124
0.057964017
0.059012186
0.060079929
0.061170877
0.062288998
0.063438598
0.064624309
0.065851069
0.067124101
0.068448867
0.069831024
0.071276354
0.072790701
0.074379863
0.076049517
0.077805083
0.079651633
0.081593735
0.083635367
0.085779754
0.088029292
0.090385399
0.092848481
0.095417789
0.09809147
0.10086638
0.10373834
0.10670171
0.10975016
0.11287667
0.11607253
0.11932862
0.12263526
0.12598244
0.12935955
0.13275645
0.13616283
0.13956908
0.14296583
0.14634449
0.14969704
0.15301619
0.15629558
0.15952919
0.16271251
0.16584039
0.1689105
0.17191755
0.17486253
0.17773796
0.18055179
0.18329146
0.18598537
0.18860741
0.1912378
0.19383271
0.19661584
0.1994957
0.20301938
0.206907
0.21232345
0.21826349
0.22695182
0.23537498
0.24772682
0.25730153
0.2711203
0.27967674
0.2858549
0.00049015603
0.001656064
0.0026991959
0.0038230545
0.0048927962
0.0059980222
0.0070788517
0.0081751885
0.009260148
0.0103516
0.011437373
0.012525468
0.013610325
0.014695493
0.015778392
0.016860559
0.017940757
0.019019607
0.020096475
0.021171565
0.022244509
0.02331532
0.024383747
0.025449712
0.026513013
0.027573529
0.028631081
0.029685526
0.0307367
0.031784451
0.032828629
0.033869083
0.034905687
0.035938306
0.036966837
0.037991183
0.039011281
0.040027089
0.041038608
0.042045875
0.043048981
0.04404808
0.045043388
0.046035213
0.047023948
0.048010102
0.048994302
0.04997732
0.050960083
0.051943696
0.052929463
0.053918903
0.054913777
0.055916104
0.056928188
0.057952633
0.05899236
0.06005063
0.061131047
0.062237572
0.063374519
0.064546556
0.06575868
0.067016203
0.068324708
0.069690008
0.071118075
0.07261498
0.074186778
0.07583944
0.0775787
0.07940997
0.081338166
0.083367621
0.085501898
0.087743713
0.090094768
0.092555696
0.095125931
0.097803695
0.10058591
0.10346829
0.10644518
0.10950994
0.11265506
0.11587212
0.11915179
0.12248347
0.12585677
0.12926065
0.13268465
0.1361181
0.13955114
0.14297413
0.14637834
0.14975564
0.15309879
0.15640149
0.15965808
0.16286439
0.16601605
0.16911148
0.17214694
0.17512478
0.17804056
0.18090456
0.18371022
0.18648732
0.18922341
0.19199852
0.19478574
0.19778474
0.20092578
0.20466253
0.20875029
0.2141079
0.21989525
0.2278178
0.23555178
0.24614488
0.25480505
0.26595912
0.2736263
0.27774844
0.00049065083
0.0016570185
0.0027009278
0.0038252733
0.0048957889
0.0060014732
0.0070830343
0.0081798635
0.0092655179
0.010357524
0.011443986
0.012532704
0.013618274
0.014704138
0.015787799
0.016870739
0.017951765
0.019031471
0.020109246
0.021185282
0.022259224
0.023331077
0.024400597
0.025467703
0.026532196
0.027593953
0.028652795
0.029708576
0.03076113
0.0318103
0.032855932
0.033897866
0.034935969
0.035970096
0.03700013
0.03802596
0.039047504
0.040064699
0.041077522
0.042085983
0.04309014
0.044090111
0.045086071
0.046078282
0.047067087
0.04805294
0.049036406
0.050018192
0.050999156
0.051980329
0.052962936
0.05394842
0.054938459
0.055934994
0.056940251
0.057956762
0.058987386
0.060035331
0.061104162
0.062197821
0.063320625
0.064477269
0.065672812
0.066912658
0.068202521
0.069548387
0.070956436
0.072432997
0.073984418
0.075617006
0.077336858
0.079149782
0.081061099
0.083075561
0.085197133
0.087428917
0.089772963
0.092230192
0.094800268
0.097481552
0.10027103
0.10316438
0.10615583
0.10923845
0.11240443
0.11564449
0.11894896
0.12230709
0.12570814
0.12914066
0.13259377
0.13605632
0.13951812
0.14296909
0.14640031
0.14980335
0.15317093
0.15649665
0.15977501
0.16300193
0.16617357
0.1692887
0.17234472
0.17534467
0.17828655
0.18118155
0.18402736
0.18685442
0.18965691
0.19250918
0.19539613
0.19849124
0.20173884
0.20550936
0.20959047
0.21469729
0.22013207
0.22716201
0.23398268
0.24269432
0.24989161
0.25819689
0.26409801
0.26665067
0.00049133253
0.0016576257
0.0027024323
0.0038270537
0.0048983508
0.0060044212
0.0070866892
0.0081839765
0.0092702917
0.01036282
0.01144993
0.012539232
0.013625465
0.014711974
0.015796336
0.016879985
0.017961765
0.019042249
0.020120843
0.021197729
0.02227256
0.023345338
0.024415822
0.025483929
0.02654946
0.027612289
0.028672236
0.029729151
0.030782863
0.03183321
0.032880031
0.033923157
0.034962442
0.035997732
0.037028891
0.038055791
0.03907833
0.04009642
0.041110009
0.042119076
0.043123642
0.044123785
0.045119633
0.046111399
0.047099368
0.048083934
0.049065596
0.05004499
0.051022897
0.052000271
0.052978253
0.053958201
0.05494171
0.055930639
0.056927136
0.057933659
0.058953006
0.059988336
0.061043183
0.062121479
0.063227557
0.064366158
0.065542421
0.066761873
0.068030388
0.069354159
0.070739622
0.072193407
0.073722207
0.075332718
0.077031459
0.078824689
0.080718193
0.082717191
0.084826101
0.08704845
0.089386663
0.091841967
0.094414267
0.097102038
0.099902348
0.10281072
0.10582129
0.10892679
0.11211903
0.11538841
0.11872475
0.12211661
0.12555271
0.12902099
0.13251009
0.13600833
0.13950514
0.14299004
0.14645392
0.14988813
0.15328543
0.15663944
0.15994499
0.1631983
0.16639626
0.16953827
0.17262306
0.17565462
0.17863324
0.1815711
0.18446983
0.18735974
0.19024154
0.19318392
0.1961795
0.19937689
0.20273143
0.20654225
0.21062885
0.2155437
0.22072297
0.22710704
0.23333138
0.24084172
0.24724808
0.25402002
0.25908963
0.26082509
0.00049253448
0.0016584018
0.0027045409
0.0038293711
0.0049016425
0.0060081456
0.0070912422
0.0081890771
0.009276163
0.010369322
0.011457197
0.012547206
0.013634233
0.014721524
0.015806732
0.016891244
0.017973942
0.019055375
0.02013497
0.021212898
0.022288823
0.023362742
0.024434419
0.025503767
0.02657059
0.027634759
0.028696093
0.029754438
0.030809618
0.031861467
0.032909814
0.033954484
0.034995318
0.036032147
0.03706482
0.03809319
0.039117131
0.040136528
0.041151299
0.042161387
0.043166773
0.044167489
0.045163613
0.046155299
0.04714277
0.048126351
0.049106465
0.050083667
0.05105865
0.052032276
0.053005591
0.053979855
0.054956561
0.055937472
0.056924639
0.057920433
0.058927574
0.059949158
0.060988672
0.062050029
0.063137568
0.064256076
0.06541077
0.066607304
0.067851727
0.069150462
0.070510224
0.071937984
0.073440821
0.075025879
0.076700153
0.078470426
0.080343015
0.082323691
0.084417397
0.086628163
0.088958859
0.091411083
0.093985026
0.09667932
0.099491107
0.1024158
0.10544734
0.10857804
0.11179932
0.11510084
0.11847196
0.12190058
0.12537493
0.12888219
0.13241051
0.13594748
0.13948212
0.14300335
0.14650179
0.14996841
0.15339587
0.15677763
0.16010863
0.16338518
0.16660456
0.16976647
0.17287044
0.17592092
0.17891972
0.18187923
0.18480313
0.18772026
0.19063451
0.19360696
0.19663478
0.19984244
0.20319269
0.20692294
0.21087939
0.21548005
0.22026792
0.22591755
0.2313928
0.23764545
0.24301934
0.24827978
0.25232707
0.2536153
0.00049387303
0.0016589399
0.0027065368
0.003831398
0.0049046794
0.0060115425
0.0070954676
0.0081938173
0.0092816604
0.010375429
0.011464048
0.012554739
0.013642532
0.014730576
0.015816597
0.016901934
0.017985506
0.019067841
0.020148384
0.021227297
0.022304251
0.023379239
0.02445203
0.025522532
0.02659055
0.027655953
0.028718556
0.029778202
0.030834709
0.031887904
0.032937607
0.033983631
0.035025807
0.036063947
0.037097884
0.038127446
0.039152484
0.040172853
0.041188436
0.042199138
0.043204895
0.04420569
0.045201543
0.046192549
0.047178863
0.048160731
0.049138497
0.050112628
0.051083724
0.052052547
0.053020041
0.05398736
0.054955893
0.055927296
0.056903519
0.057886843
0.058879905
0.059885736
0.060907779
0.061949928
0.063016537
0.064112443
0.065242961
0.06641389
0.067631476
0.068902404
0.070233703
0.07163273
0.073106999
0.074664155
0.076311732
0.078057102
0.079907177
0.081868348
0.083946145
0.086145163
0.088468767
0.090918964
0.093496267
0.096199469
0.0990258
0.10197051
0.10502736
0.10818822
0.11144404
0.11478385
0.11819636
0.12166861
0.12518814
0.12874124
0.13231548
0.13589762
0.13947626
0.14303969
0.1465783
0.15008267
0.1535455
0.15696016
0.16032188
0.16362719
0.16687396
0.17006236
0.17319291
0.17627062
0.17929872
0.18228976
0.18524935
0.18820511
0.19116352
0.19417858
0.19725049
0.20048258
0.20384399
0.20752158
0.21138714
0.21575481
0.22026235
0.22538991
0.23036429
0.23579371
0.24053869
0.24489246
0.24832665
0.24923822
0.00049556897
0.0016595959
0.0027089928
0.003833831
0.0049082953
0.0060155484
0.0071004137
0.0081993456
0.0092880422
0.010382506
0.011471967
0.012563442
0.013652108
0.014741017
0.015827969
0.016914257
0.017998836
0.019082214
0.020163854
0.021243908
0.022322058
0.023398291
0.02447238
0.025544232
0.026613653
0.027680507
0.028744608
0.029805795
0.03086388
0.031918683
0.032970016
0.03401768
0.035061491
0.036101247
0.03713676
0.038167835
0.039194296
0.040215965
0.041232691
0.042244333
0.043250782
0.044251966
0.045247844
0.046238441
0.047223838
0.048204198
0.049179774
0.050150932
0.05111817
0.052082136
0.053043657
0.054003767
0.05496373
0.05592508
0.05688965
0.057859608
0.05883749
0.059826246
0.060829257
0.061850386
0.062893991
0.063964954
0.065068684
0.066211133
0.067398759
0.06863853
0.069937822
0.071304421
0.072746329
0.074271759
0.075888854
0.077605662
0.079429781
0.081368314
0.083427475
0.085612518
0.087927385
0.090374571
0.092954962
0.095667546
0.098509655
0.10147636
0.10456116
0.10775539
0.11104949
0.11443159
0.11788978
0.12141007
0.12497932
0.12858273
0.13220721
0.13583854
0.13946478
0.14307344
0.14665456
0.1501982
0.15369693
0.15714386
0.16053434
0.16386483
0.16713358
0.17034086
0.17348778
0.17657948
0.17961997
0.18262175
0.18559088
0.18855244
0.19151423
0.19452265
0.1975792
0.20076793
0.20406237
0.20760665
0.21129313
0.21535192
0.21949479
0.2240512
0.22844512
0.23304469
0.23708435
0.24060431
0.24344056
0.24420233
0.00049737981
0.0016600886
0.0027114028
0.0038360778
0.0049117716
0.0060193532
0.0071051727
0.0082046605
0.009294211
0.010389357
0.011479654
0.0125719
0.013661429
0.014751189
0.015839057
0.016926278
0.018011845
0.019096242
0.020178953
0.021260119
0.02233943
0.023416871
0.024492217
0.025565372
0.026636143
0.02770439
0.028769925
0.029832581
0.030892165
0.031948488
0.033001352
0.034050546
0.035095872
0.036137108
0.037174047
0.038206467
0.039234163
0.040256925
0.041274558
0.04228688
0.043293729
0.044294975
0.045290511
0.046280291
0.047264312
0.04824265
0.04921546
0.050183004
0.051145665
0.052103973
0.053058629
0.054010537
0.054960829
0.055910908
0.056862478
0.057817587
0.058778664
0.059748568
0.060730613
0.061728628
0.06274697
0.063790572
0.064864941
0.065976195
0.067131018
0.068336687
0.069600957
0.070932081
0.0723386
0.073829351
0.075413154
0.077098805
0.078894664
0.080808638
0.082847701
0.085017852
0.087323688
0.089768253
0.092352867
0.09507674
0.097937332
0.10092951
0.10404652
0.10727909
0.1106171
0.11404772
0.11755828
0.12113353
0.12475955
0.12842027
0.13210189
0.13578901
0.1394692
0.14312905
0.14675836
0.1503466
0.15388638
0.15737055
0.16079476
0.16415554
0.16745166
0.17068364
0.17385332
0.17696605
0.18002662
0.1830472
0.18603469
0.18901195
0.19198769
0.19500168
0.19805625
0.20121928
0.20446838
0.20791373
0.21146656
0.21529337
0.21916818
0.22331127
0.22729749
0.23132721
0.23489036
0.23785388
0.24026598
0.2408296
0.00049945606
0.0016606683
0.0027141688
0.0038386384
0.0049157089
0.0060236404
0.0071105121
0.008210608
0.0093010956
0.010396992
0.011488209
0.012581307
0.013671788
0.014762492
0.015851375
0.016939632
0.018026296
0.019111829
0.020195733
0.021278141
0.022358752
0.023437546
0.024514303
0.025588923
0.026661216
0.027731037
0.028798196
0.029862521
0.030923813
0.031981875
0.0330365
0.034087464
0.035134553
0.036177528
0.037216157
0.038250196
0.039279405
0.040303539
0.041322364
0.042335647
0.043343172
0.044344747
0.045340195
0.046329389
0.04731224
0.048288725
0.049258894
0.05022289
0.051180973
0.052133537
0.053081143
0.054024546
0.054964727
0.055902938
0.056840731
0.057780013
0.05872308
0.05967268
0.060632038
0.061604929
0.062595695
0.063609308
0.064651369
0.065728166
0.06684662
0.068014342
0.069239498
0.070530865
0.071897575
0.073349177
0.074895249
0.076545449
0.078309005
0.080194754
0.082210549
0.084363258
0.086658237
0.089099178
0.091687906
0.094423891
0.097304745
0.10032508
0.10347785
0.10675301
0.11013986
0.11362432
0.11719294
0.120829
0.12451772
0.12824148
0.13198573
0.13573366
0.13947227
0.14318703
0.14686741
0.15050212
0.1540837
0.15760457
0.16106055
0.16444801
0.16776603
0.17101514
0.17419759
0.17731864
0.18038352
0.18340374
0.18638665
0.18935181
0.19230835
0.19528957
0.19829787
0.20138701
0.20453749
0.20783164
0.21119574
0.2147465
0.21830659
0.22201597
0.22556355
0.2290411
0.23212349
0.23460284
0.23665123
0.23715314
0.00050163718
0.0016611348
0.0027169304
0.0038410852
0.0049195822
0.0060278155
0.0071157611
0.0082164465
0.0093078804
0.010404522
0.011496661
0.01259061
0.013682043
0.014773689
0.015863585
0.016952875
0.018040632
0.019127296
0.020212386
0.021296027
0.022377928
0.023458064
0.024536217
0.025612288
0.026686083
0.027757457
0.028826216
0.029892182
0.030955152
0.032014918
0.033071264
0.034123951
0.03517275
0.036217403
0.037257654
0.03829323
0.039323861
0.040349264
0.041369158
0.042383263
0.043391304
0.044393022
0.045388167
0.046376528
0.047357924
0.048332228
0.049299376
0.05025939
0.051212394
0.052158641
0.05309854
0.054032689
0.054961907
0.05588728
0.0568102
0.057732417
0.058656083
0.05958382
0.060518753
0.061464592
0.062425653
0.063406943
0.064414151
0.065453737
0.06653287
0.067659511
0.068842261
0.070090457
0.071413872
0.072822825
0.074327724
0.075939176
0.077667366
0.07952217
0.081512422
0.083645975
0.085929045
0.088366072
0.090959469
0.093709018
0.096612538
0.099664354
0.10285715
0.10618002
0.10962162
0.11316648
0.11680024
0.12050447
0.12426345
0.12805773
0.13187198
0.13568775
0.13949148
0.14326737
0.14700467
0.15069122
0.15431965
0.15788197
0.16137432
0.16479301
0.16813762
0.17140878
0.1746093
0.17774443
0.1808199
0.18384641
0.18683207
0.18979366
0.1927402
0.19570002
0.19867536
0.20170849
0.20478269
0.20795857
0.21117559
0.21451328
0.21783348
0.22121835
0.22444108
0.227518
0.23024718
0.23237121
0.23412967
0.23451664
0.00050402723
0.0016616662
0.0027199723
0.0038437778
0.0049238241
0.0060323752
0.0071214785
0.008222795
0.0093152461
0.010412688
0.01150582
0.012600686
0.013693147
0.014785811
0.015876802
0.016967212
0.018056153
0.019144044
0.020230424
0.021315408
0.022398714
0.023480313
0.024559994
0.025637652
0.026713096
0.027786177
0.0288567
0.02992448
0.030989309
0.032050971
0.033109238
0.03416386
0.03521459
0.036261151
0.037303263
0.038340625
0.039372934
0.040399866
0.041421097
0.042436292
0.043445115
0.044447239
0.045442333
0.046430099
0.047410254
0.048382562
0.049346833
0.050302956
0.051250906
0.052190779
0.053122813
0.054047429
0.054965261
0.055877207
0.056784468
0.057688611
0.058591614
0.059495944
0.060404597
0.061321189
0.062249989
0.063196018
0.064165044
0.065163697
0.066199398
0.067280484
0.068416027
0.069615978
0.070890821
0.072251747
0.073710094
0.075277559
0.07696542
0.078784759
0.080745542
0.08285678
0.085125688
0.087557586
0.090155581
0.092919815
0.095848351
0.098935167
0.10217262
0.10554874
0.10905148
0.11266363
0.11636993
0.1201498
0.12398656
0.12785858
0.1317497
0.13563947
0.13951383
0.14335536
0.14715311
0.15089384
0.15457025
0.15817372
0.1617007
0.16514721
0.16851323
0.17179931
0.17500866
0.17814631
0.18121828
0.18423447
0.18720309
0.19013907
0.19304986
0.19595961
0.19887014
0.20181412
0.20477697
0.20780207
0.21083958
0.21394107
0.21699931
0.22005642
0.22294984
0.22565173
0.22804899
0.22987603
0.23140295
0.23175848
0.00050651596
0.0016621183
0.0027230357
0.003846406
0.0049280512
0.0060368838
0.00712717
0.0082291056
0.0093225885
0.010420831
0.011514966
0.012610754
0.01370425
0.014797938
0.015890032
0.016981568
0.018071702
0.019160827
0.020248504
0.021334838
0.022419557
0.023502627
0.024583842
0.025663095
0.026740195
0.02781499
0.028887282
0.029956883
0.031023577
0.032087141
0.033147334
0.034203894
0.035256557
0.036305026
0.037348996
0.038388138
0.039422113
0.040450557
0.041473098
0.042489347
0.043498905
0.044501372
0.045496335
0.046483404
0.047462189
0.04843234
0.049393536
0.050345525
0.051288127
0.05222127
0.053145014
0.05405959
0.054965435
0.055863242
0.056754009
0.057639104
0.058520311
0.059399925
0.06028079
0.061166413
0.062060997
0.062969558
0.063897929
0.064852903
0.06584215
0.066874391
0.06795918
0.069107121
0.070329443
0.071638275
0.07304596
0.074565385
0.076209022
0.077989298
0.079917433
0.082003747
0.084256591
0.086682302
0.0892848
0.092064667
0.095020308
0.098145311
0.10143177
0.10486649
0.10843673
0.11212328
0.1159099
0.1197735
0.12369643
0.1276544
0.13163052
0.13560193
0.13955416
0.14346791
0.14733221
0.15113253
0.15486188
0.15851096
0.16207672
0.16555497
0.16894631
0.17225126
0.17547361
0.17861829
0.18169168
0.18470307
0.18766049
0.19057775
0.19346083
0.19633039
0.19918824
0.20205924
0.20493085
0.20783324
0.21072554
0.21363873
0.2164896
0.21929183
0.22192909
0.22434381
0.22648055
0.22807175
0.2293988
0.22968299
0.00050917535
0.0016626181
0.0027263228
0.0038492276
0.0049325738
0.0060416999
0.0071332397
0.0082358279
0.0093304023
0.010429491
0.011524688
0.012621452
0.013716047
0.014810823
0.015904088
0.016996823
0.018088226
0.019178668
0.020267729
0.021355505
0.022441736
0.023526382
0.024609243
0.025690211
0.026769094
0.027845739
0.028919946
0.029991522
0.031060245
0.032125883
0.033188187
0.034246881
0.035301685
0.03635228
0.037398339
0.038439502
0.039475395
0.040505613
0.041529737
0.04254732
0.043557898
0.044560994
0.045556111
0.046542758
0.047520437
0.048488669
0.049446997
0.050395011
0.051332364
0.052258797
0.05317417
0.054078502
0.054972004
0.055855137
0.056728661
0.057593707
0.05845183
0.059305112
0.060156208
0.061008477
0.061866017
0.062733815
0.063617744
0.064524748
0.065462744
0.066440856
0.067469154
0.068558958
0.06972232
0.070972426
0.072322748
0.073787544
0.075380652
0.077116068
0.079006468
0.081063721
0.083297505
0.085715371
0.088322197
0.091119082
0.09410484
0.09727257
0.10061406
0.10411458
0.10776063
0.1115305
0.11540696
0.11936381
0.12338249
0.12743545
0.13150513
0.13556579
0.13960263
0.14359409
0.14752927
0.15139211
0.15517598
0.15887071
0.16247384
0.16598075
0.16939269
0.17271003
0.17593709
0.17907861
0.18214127
0.18513374
0.18806392
0.1909445
0.19378106
0.19658946
0.19937238
0.20214832
0.20490647
0.20766697
0.21039642
0.2131111
0.21574709
0.21829985
0.2206886
0.22284154
0.22474428
0.22614328
0.22731622
0.22758129
0.00051192749
0.0016630614
0.0027296465
0.0038520173
0.0049371118
0.0060465042
0.0071393238
0.008242558
0.0093382412
0.01043818
0.011534453
0.012632202
0.013727908
0.014823784
0.015918235
0.017012182
0.01810487
0.019196643
0.020287106
0.021376342
0.022464103
0.023550347
0.024634877
0.025717582
0.026798275
0.027876798
0.02895295
0.030026533
0.031097319
0.032165071
0.033229527
0.034290398
0.035347388
0.036400158
0.037448357
0.038491594
0.039529461
0.04056151
0.041587273
0.042606244
0.043617894
0.044621667
0.045616979
0.046603235
0.047579824
0.048546137
0.049501574
0.050445563
0.051377579
0.052297172
0.053203991
0.05409783
0.054978663
0.055846702
0.056702453
0.05754679
0.058381016
0.059206976
0.060027109
0.060844598
0.061663407
0.062488466
0.063325657
0.064182058
0.065065811
0.065986441
0.066954531
0.067982143
0.069082179
0.07026895
0.071557124
0.072962448
0.074500236
0.076186222
0.078034683
0.080059239
0.082271061
0.084679105
0.087289376
0.090103602
0.093121162
0.096334609
0.099735555
0.10330751
0.10703634
0.11089734
0.11487241
0.11893159
0.1230555
0.12721267
0.13138505
0.13554336
0.13967278
0.14374897
0.14776141
0.15169221
0.15553544
0.15927992
0.16292404
0.16646282
0.16989838
0.17323102
0.17646581
0.1796074
0.18266295
0.1856406
0.18854837
0.1913973
0.1941939
0.1969496
0.19966782
0.20236224
0.20502365
0.20766461
0.21025781
0.2128089
0.21526855
0.2176197
0.21980661
0.22174911
0.22345851
0.2246951
0.22572774
0.22594633
0.00051482154
0.0016635391
0.0027331497
0.0038549589
0.0049418864
0.0060515536
0.0071457121
0.008249619
0.0093464609
0.010447287
0.011544684
0.012643465
0.013740335
0.014837363
0.015933058
0.017028278
0.018122316
0.019215491
0.020307429
0.021398206
0.022487584
0.023575517
0.024661814
0.025746364
0.02682898
0.027909503
0.028987731
0.030063463
0.031136466
0.032206494
0.033273278
0.034336515
0.035395894
0.036451058
0.037501629
0.038547189
0.039587293
0.040621454
0.041649151
0.042669822
0.043682867
0.044687652
0.045683498
0.046669708
0.047645546
0.048610266
0.049563113
0.050503341
0.051430232
0.05234312
0.053241423
0.054124681
0.054992596
0.055845099
0.056682396
0.057505061
0.058314096
0.059111057
0.059898114
0.060678222
0.061455158
0.06223375
0.063019851
0.063820643
0.064644482
0.065501302
0.066402224
0.067360119
0.068388823
0.069503915
0.070721408
0.072058774
0.073533015
0.075161919
0.076961626
0.078947854
0.081133535
0.083529325
0.08614257
0.088975751
0.092028931
0.09529397
0.098762281
0.1024151
0.10623761
0.11020137
0.11428744
0.11846119
0.12270261
0.12697537
0.13126124
0.13552658
0.13975689
0.14392445
0.14801949
0.15202181
0.15592653
0.15972114
0.16340519
0.16697308
0.17042802
0.1737701
0.17700528
0.18013805
0.18317613
0.18612726
0.18899963
0.1918031
0.19454465
0.19723362
0.19987165
0.20247027
0.20502142
0.20753227
0.20998072
0.21236543
0.21464895
0.21680733
0.21880419
0.22055818
0.22209834
0.22320411
0.22412979
0.22433515
0.00051780108
0.0016639759
0.0027366965
0.0038578887
0.0049466927
0.0060566145
0.007152137
0.0082567138
0.0093547324
0.010456452
0.01155499
0.012654812
0.013752862
0.014851057
0.015948013
0.017044524
0.018139931
0.019234529
0.020327967
0.021420309
0.02251133
0.023600982
0.024689079
0.025775508
0.026860087
0.027942654