/*--------------------------------*- C++ -*----------------------------------*\
| =========                 |                                                 |
| \\      /  F ield         | foam-extend: Open Source CFD                    |
|  \\    /   O peration     | Version:     4.1                                |
|   \\  /    A nd           | Web:         http://www.foam-extend.org         |
|    \\/     M anipulation  |                                                 |
\*---------------------------------------------------------------------------*/
FoamFile
{
    version     2.0;
    format      ascii;
    class       surfaceScalarField;
    location    "0.2";
    object      phi;
}
// * * * * * * * * * * * * * * * * * * * * * * * * * * * * * * * * * * * * * //

dimensions      [0 3 -1 0 0 0 0];

internalField   nonuniform List<scalar> 
31929
(
-0.00011943917
5.1982941e-09
-0.00011944228
3.1061926e-09
-0.00011944548
3.2061485e-09
-0.0001194488
3.3134128e-09
-0.00011945214
3.3419693e-09
-0.00011945584
3.7041126e-09
-0.0001194597
3.8575391e-09
-0.00011946395
4.2501779e-09
-0.00011946848
4.523421e-09
-0.00011947342
4.9410773e-09
-0.00011947873
5.3127024e-09
-0.0001194845
5.7750954e-09
-0.00011949074
6.2351544e-09
-0.0001194975
6.7611528e-09
-0.00011950481
7.3101215e-09
-0.00011951273
7.9163573e-09
-0.00011952129
8.5615976e-09
-0.00011953055
9.264075e-09
-0.00011954057
1.0017549e-08
-0.0001195514
1.0833001e-08
-0.00011956311
1.1710124e-08
-0.00011957577
1.2656878e-08
-0.00011958945
1.367604e-08
-0.00011960422
1.4774558e-08
-0.00011962018
1.5956984e-08
-0.00011963741
1.7230204e-08
-0.00011965601
1.8599959e-08
-0.00011967608
2.007352e-08
-0.00011969774
2.1657539e-08
-0.0001197211
2.3359889e-08
-0.00011974629
2.5187918e-08
-0.00011977344
2.7150241e-08
-0.00011980269
2.925504e-08
-0.0001198342
3.1510917e-08
-0.00011986813
3.3927193e-08
-0.00011990464
3.651258e-08
-0.00011994392
3.9276837e-08
-0.00011998615
4.2228737e-08
-0.00012003153
4.5378092e-08
-0.00012008026
4.8733311e-08
-0.00012013256
5.2303796e-08
-0.00012018866
5.6096904e-08
-0.00012024878
6.0120754e-08
-0.00012031316
6.4381342e-08
-0.00012038205
6.8883925e-08
-0.00012045568
7.3631943e-08
-0.00012053431
7.8626876e-08
-0.00012061817
8.3867824e-08
-0.00012070752
8.9350768e-08
-0.00012080259
9.5068402e-08
-0.0001209036
1.0100931e-07
-0.00012101076
1.0715739e-07
-0.00012112425
1.1349124e-07
-0.00012124423
1.1998355e-07
-0.00012137083
1.2660006e-07
-0.00012150413
1.3329936e-07
-0.00012164416
1.4003198e-07
-0.0001217909
1.4673988e-07
-0.00012194426
1.5335605e-07
-0.00012210407
1.5980439e-07
-0.00012227006
1.6599916e-07
-0.00012244191
1.7184578e-07
-0.00012261915
1.7724099e-07
-0.00012280122
1.8207379e-07
-0.00012298745
1.8622672e-07
-0.00012317703
1.8957749e-07
-0.00012336903
1.9200151e-07
-0.0001235624
1.9337374e-07
-0.00012375598
1.9357312e-07
-0.00012394846
1.9248589e-07
-0.00012413847
1.9001093e-07
-0.00012432454
1.8606519e-07
-0.00012450513
1.8059059e-07
-0.00012467869
1.7355941e-07
-0.00012484367
1.649808e-07
-0.00012499857
1.5490454e-07
-0.000125142
1.4342233e-07
-0.00012527267
1.306689e-07
-0.00012538948
1.1681607e-07
-0.00012549155
1.0207253e-07
-0.00012557822
8.6665828e-08
-0.00012564907
7.0849118e-08
-0.00012570391
5.4845793e-08
-0.00012574288
3.896696e-08
-0.00012576646
2.3576923e-08
-0.00012577565
9.1869607e-09
-0.00012577039
-5.2533194e-09
-0.00012574926
-2.1134506e-08
-0.00012571174
-3.7518708e-08
-0.00012565844
-5.330278e-08
-0.00012559034
-6.8100195e-08
-0.00012550873
-8.1601941e-08
-0.00012541512
-9.3609952e-08
-0.00012531116
-1.0396572e-07
-0.0001251986
-1.1255686e-07
-0.0001250793
-1.1929652e-07
-0.00012495516
-1.2414181e-07
-0.0001248281
-1.2706692e-07
-0.00012469999
-1.281084e-07
-0.00012457268
-1.2730512e-07
-0.00012444788
-1.2480079e-07
-0.00012432721
-1.2067251e-07
-0.00012421205
-1.1515665e-07
-0.00012410385
-1.0819978e-07
-0.00012400376
-1.0009319e-07
-0.00012391325
-9.0507163e-08
-0.00012383337
-7.9877407e-08
-0.00012376739
-6.598858e-08
-0.00012372279
-4.4599394e-08
-0.00012372804
5.2517343e-09
-0.00012384509
1.1705616e-07
-0.00012421627
3.7117685e-07
-0.00012510003
8.8375769e-07
-0.00012694678
1.8467522e-06
-0.00013038906
3.4422753e-06
-0.00013628628
5.8972209e-06
-0.00014550308
9.2167989e-06
-0.0001589007
1.3397622e-05
-0.00017683071
1.7930009e-05
-0.00019957569
2.2744985e-05
-0.00022627214
2.6696451e-05
-0.00025723565
3.0963508e-05
-0.00028741181
3.0176163e-05
3.5168787e-05
-0.00026244361
1.1848499e-08
-0.00026245053
1.0030275e-08
-0.00026245793
1.0598554e-08
-0.00026246576
1.1146849e-08
-0.00026247422
1.1796756e-08
-0.00026248334
1.2829647e-08
-0.00026249323
1.3747574e-08
-0.00026250395
1.4973117e-08
-0.00026251558
1.6150454e-08
-0.00026252819
1.7548827e-08
-0.00026254185
1.8974697e-08
-0.00026255665
2.0575626e-08
-0.00026257267
2.2257955e-08
-0.00026259001
2.4100408e-08
-0.00026260877
2.6062754e-08
-0.00026262904
2.818905e-08
-0.00026265094
3.0466335e-08
-0.0002626746
3.2922481e-08
-0.00026270014
3.5558419e-08
-0.0002627277
3.839517e-08
-0.00026275744
4.1441029e-08
-0.00026278949
4.4714723e-08
-0.00026282405
4.8228801e-08
-0.00026286127
5.2001869e-08
-0.00026290137
5.6049251e-08
-0.00026294453
6.0390417e-08
-0.00026299097
6.5042719e-08
-0.00026304092
7.0026873e-08
-0.00026309463
7.5361765e-08
-0.00026315234
8.1069407e-08
-0.00026321432
8.7169688e-08
-0.00026328085
9.3685471e-08
-0.00026335224
1.0063847e-07
-0.00026342877
1.0804972e-07
-0.00026351079
1.1594264e-07
-0.00026359861
1.2433703e-07
-0.00026369259
1.3325552e-07
-0.00026379308
1.4271589e-07
-0.00026390044
1.5273857e-07
-0.00026401505
1.6333763e-07
-0.00026413727
1.7452941e-07
-0.0002642675
1.8632213e-07
-0.0002644061
1.9872469e-07
-0.00026455346
2.1173842e-07
-0.00026470993
2.2536037e-07
-0.00026487588
2.3958079e-07
-0.00026505164
2.5438237e-07
-0.00026523751
2.6973943e-07
-0.00026543377
2.8561571e-07
-0.00026564067
3.0196413e-07
-0.00026585839
3.1872482e-07
-0.00026608705
3.3582388e-07
-0.00026632673
3.5317186e-07
-0.00026657741
3.7066301e-07
-0.00026683898
3.8817268e-07
-0.00026711124
4.0555768e-07
-0.00026739387
4.226546e-07
-0.0002676864
4.3927942e-07
-0.00026798828
4.5522728e-07
-0.00026829875
4.7027357e-07
-0.00026861692
4.8417321e-07
-0.00026894174
4.9666416e-07
-0.00026927197
5.0746893e-07
-0.00026960619
5.1629807e-07
-0.00026994282
5.2285454e-07
-0.00027028008
5.2683849e-07
-0.00027061603
5.2795464e-07
-0.00027094857
5.2591693e-07
-0.00027127546
5.2045947e-07
-0.00027159432
5.1134435e-07
-0.00027190268
4.9837353e-07
-0.00027219802
4.8140053e-07
-0.00027247777
4.6034557e-07
-0.00027273942
4.352066e-07
-0.00027298051
4.0607417e-07
-0.00027319875
3.7313935e-07
-0.00027339202
3.3669789e-07
-0.00027355851
2.9715117e-07
-0.00027369668
2.549955e-07
-0.00027380543
2.1081719e-07
-0.00027388402
1.6525569e-07
-0.00027393218
1.1901443e-07
-0.00027395003
7.2694249e-08
-0.00027393806
2.6995387e-08
-0.00027389622
-1.8263553e-08
-0.00027382364
-6.339652e-08
-0.00027372131
-1.0758093e-07
-0.00027359249
-1.4995707e-07
-0.00027344023
-1.8977154e-07
-0.0002732672
-2.263328e-07
-0.00027307622
-2.590845e-07
-0.00027287026
-2.8755983e-07
-0.00027265249
-3.1138402e-07
-0.0002724262
-3.3024821e-07
-0.00027219485
-3.4391611e-07
-0.00027196195
-3.5219664e-07
-0.00027173112
-3.5496344e-07
-0.00027150607
-3.5211583e-07
-0.00027129056
-3.4362601e-07
-0.0002710884
-3.2946008e-07
-0.00027090352
-3.0967887e-07
-0.00027073998
-2.8421751e-07
-0.00027060204
-2.5309919e-07
-0.00027049435
-2.1588757e-07
-0.00027042214
-1.7230653e-07
-0.00027039164
-1.2100043e-07
-0.00027041084
-6.0676123e-08
-0.00027049124
1.440402e-08
-0.0002706496
1.1376632e-07
-0.00027091718
2.7283383e-07
-0.00027135635
5.5622708e-07
-0.00027207694
1.0917618e-06
-0.00027324671
2.0535292e-06
-0.00027510734
3.7073832e-06
-0.00027794819
6.2831243e-06
-0.00028206815
1.0017182e-05
-0.000287653
1.480165e-05
-0.00029471187
2.045649e-05
-0.00030287985
2.6097992e-05
-0.00031151947
3.1384602e-05
-0.0003194111
3.458808e-05
-0.0003252139
3.6766305e-05
-0.00032755243
3.2514699e-05
3.0196952e-05
-0.00031248705
1.9238502e-08
-0.0003124956
1.8580199e-08
-0.00031250493
1.9930565e-08
-0.000312515
2.1214482e-08
-0.00031252598
2.2779995e-08
-0.00031253786
2.4707957e-08
-0.00031255078
2.6669101e-08
-0.00031256479
2.8974935e-08
-0.00031257998
3.1348299e-08
-0.00031259645
3.4014518e-08
-0.00031261429
3.6816452e-08
-0.0003126336
3.9888224e-08
-0.0003126545
4.3155578e-08
-0.0003126771
4.6696973e-08
-0.00031270152
5.0485265e-08
-0.0003127279
5.4570282e-08
-0.00031275639
5.895017e-08
-0.00031278713
6.3661734e-08
-0.00031282028
6.8716795e-08
-0.00031285604
7.4147303e-08
-0.00031289457
7.9972931e-08
-0.00031293608
8.6224831e-08
-0.00031298078
9.292766e-08
-0.00031302889
1.0011368e-07
-0.00031308065
1.0781107e-07
-0.00031313631
1.1605398e-07
-0.00031319614
1.2487319e-07
-0.00031326042
1.3430488e-07
-0.00031332944
1.4438162e-07
-0.00031340351
1.5514129e-07
-0.00031348296
1.6661732e-07
-0.00031356812
1.7884785e-07
-0.00031365935
1.9186878e-07
-0.00031375702
2.0571337e-07
-0.00031386149
2.2041903e-07
-0.00031397317
2.3601519e-07
-0.00031409245
2.5253597e-07
-0.00031421974
2.7000511e-07
-0.00031435545
2.8845052e-07
-0.0003145
3.0788682e-07
-0.00031465381
3.2833202e-07
-0.00031481727
3.497876e-07
-0.0003149908
3.7225502e-07
-0.00031517478
3.9572078e-07
-0.00031536959
4.2016196e-07
-0.00031557555
4.4554216e-07
-0.00031579297
4.718099e-07
-0.00031602213
4.9889754e-07
-0.00031626323
5.267174e-07
-0.00031651643
5.5516155e-07
-0.00031678181
5.8409874e-07
-0.00031705935
6.1337257e-07
-0.00031734898
6.4279927e-07
-0.00031765049
6.7216715e-07
-0.00031796355
7.0123254e-07
-0.00031828771
7.2972132e-07
-0.00031862238
7.5732691e-07
-0.00031896681
7.8371059e-07
-0.00031932009
8.0850204e-07
-0.00031968112
8.3130263e-07
-0.00032004863
8.5168509e-07
-0.00032042116
8.6920075e-07
-0.00032079708
8.8338342e-07
-0.00032117454
8.937563e-07
-0.00032155152
8.9984038e-07
-0.00032192585
9.0116343e-07
-0.00032229517
8.9727306e-07
-0.00032265699
8.877447e-07
-0.00032300873
8.7219957e-07
-0.00032334771
8.5031666e-07
-0.00032367118
8.2185018e-07
-0.00032397643
7.8664546e-07
-0.00032426074
7.4465939e-07
-0.00032452151
6.9597319e-07
-0.00032475625
6.4081152e-07
-0.00032496266
5.7955049e-07
-0.00032513868
5.1272233e-07
-0.00032528254
4.4101357e-07
-0.0003253928
3.6525213e-07
-0.00032546837
2.8639056e-07
-0.00032550859
2.0547176e-07
-0.00032551316
1.2358067e-07
-0.00032548227
4.1809254e-08
-0.0003254162
-3.9077624e-08
-0.00032531599
-1.1847335e-07
-0.00032518432
-1.9506464e-07
-0.00032502428
-2.6761705e-07
-0.00032483894
-3.3530165e-07
-0.00032463141
-3.9729675e-07
-0.00032440488
-4.5286294e-07
-0.00032416272
-5.0124492e-07
-0.00032390849
-5.4178945e-07
-0.00032364592
-5.7395337e-07
-0.00032337889
-5.9727731e-07
-0.00032311142
-6.1138983e-07
-0.00032284765
-6.1596338e-07
-0.00032259189
-6.1072363e-07
-0.00032234862
-5.953884e-07
-0.00032212256
-5.696912e-07
-0.00032191875
-5.3326892e-07
-0.00032174272
-4.8570745e-07
-0.00032160069
-4.2624906e-07
-0.00032149992
-3.5386412e-07
-0.00032144931
-2.6649695e-07
-0.00032146025
-1.6137026e-07
-0.00032154817
-3.3076469e-08
-0.00032173367
1.2482027e-07
-0.00032204506
3.2579612e-07
-0.000322524
5.9271024e-07
-0.00032322362
9.7244936e-07
-0.00032420397
1.5365745e-06
-0.00032552449
2.4122819e-06
-0.00032722867
3.7577121e-06
-0.00032932191
5.8006206e-06
-0.00033175021
8.7114237e-06
-0.00033438336
1.2650331e-05
-0.00033701253
1.7430826e-05
-0.00033935614
2.2800099e-05
-0.00034105441
2.7796256e-05
-0.00034167319
3.2003388e-05
-0.00034071432
3.3629205e-05
-0.00033750629
3.3558284e-05
-0.00033236606
2.7374469e-05
2.0411688e-05
-0.00032472529
2.7016167e-08
-0.00032473444
2.7731648e-08
-0.00032474451
2.999288e-08
-0.0003247555
3.2209334e-08
-0.00032476752
3.4794965e-08
-0.00032478055
3.7743424e-08
-0.00032479473
4.0850446e-08
-0.00032481011
4.4348172e-08
-0.00032482679
4.8028963e-08
-0.00032484485
5.2081682e-08
-0.00032486442
5.6384784e-08
-0.00032488559
6.1060692e-08
-0.00032490849
6.6055358e-08
-0.00032493324
7.1447616e-08
-0.00032495998
7.7224352e-08
-0.00032498886
8.3441715e-08
-0.00032502001
9.0109822e-08
-0.00032505363
9.7275041e-08
-0.00032508987
1.0496087e-07
-0.00032512894
1.1321089e-07
-0.00032517102
1.2205689e-07
-0.00032521634
1.3154319e-07
-0.00032526512
1.4170723e-07
-0.0003253176
1.5259568e-07
-0.00032537404
1.6425016e-07
-0.0003254347
1.7672018e-07
-0.00032549988
1.9005046e-07
-0.00032556987
2.0429315e-07
-0.00032564498
2.1949488e-07
-0.00032572555
2.3570969e-07
-0.00032581192
2.5298459e-07
-0.00032590444
2.7137304e-07
-0.0003260035
2.9092487e-07
-0.00032610947
3.1168497e-07
-0.00032622276
3.3370412e-07
-0.00032634376
3.5702015e-07
-0.0003264729
3.8167736e-07
-0.0003266106
4.0770345e-07
-0.00032675728
4.3513166e-07
-0.00032691337
4.6397419e-07
-0.00032707929
4.9424748e-07
-0.00032725544
5.2594217e-07
-0.00032744223
5.5904773e-07
-0.00032764004
5.9353042e-07
-0.00032784922
6.2934131e-07
-0.00032807009
6.6641046e-07
-0.00032830292
7.046446e-07
-0.00032854795
7.4392569e-07
-0.00032880534
7.8410535e-07
-0.00032907518
8.2500482e-07
-0.0003293575
8.6641081e-07
-0.0003296522
9.080731e-07
-0.0003299591
9.497018e-07
-0.0003302779
9.9096716e-07
-0.00033060816
1.0314942e-06
-0.00033094931
1.0708657e-06
-0.0003313006
1.1086202e-06
-0.00033166114
1.1442529e-06
-0.00033202986
1.1772181e-06
-0.00033240549
1.2069345e-06
-0.00033278659
1.2327857e-06
-0.00033317152
1.2541319e-06
-0.00033355845
1.2703164e-06
-0.00033394537
1.2806766e-06
-0.00033433009
1.2845566e-06
-0.00033471025
1.2813212e-06
-0.00033508335
1.2703751e-06
-0.00033544678
1.2511746e-06
-0.00033579783
1.2232531e-06
-0.00033613375
1.1862376e-06
-0.00033645177
1.1398708e-06
-0.00033674916
1.0840313e-06
-0.00033702326
1.0187568e-06
-0.00033727154
9.4425735e-07
-0.00033749167
8.6093513e-07
-0.00033768151
7.6939044e-07
-0.00033783921
6.7042401e-07
-0.00033796322
5.6503091e-07
-0.00033805235
4.543826e-07
-0.00033810577
3.3980539e-07
-0.00033812303
2.2273548e-07
-0.00033810414
1.0469023e-07
-0.00033804952
-1.2808414e-08
-0.00033796027
-1.2832869e-07
-0.00033783853
-2.4021254e-07
-0.00033768689
-3.4671113e-07
-0.00033750784
-4.4666137e-07
-0.00033730412
-5.3902038e-07
-0.00033707879
-6.2263061e-07
-0.00033683522
-6.9643396e-07
-0.00033657699
-7.5947567e-07
-0.00033630785
-8.1092736e-07
-0.00033603171
-8.5009665e-07
-0.0003357526
-8.7638723e-07
-0.00033547469
-8.8930007e-07
-0.00033520228
-8.8836876e-07
-0.00033493985
-8.7315563e-07
-0.00033469208
-8.4316065e-07
-0.00033446396
-7.9781132e-07
-0.00033426092
-7.3630372e-07
-0.00033408906
-6.5757498e-07
-0.00033395538
-5.5992883e-07
-0.0003338683
-4.4093825e-07
-0.00033383827
-2.9653244e-07
-0.00033387882
-1.2081499e-07
-0.00033400784
9.5941494e-08
-0.00033425034
3.6731858e-07
-0.00033464109
7.1654893e-07
-0.00033522497
1.1765912e-06
-0.00033605361
1.8010854e-06
-0.00033717734
2.6603114e-06
-0.00033862748
3.8624212e-06
-0.00034039129
5.5215201e-06
-0.00034237694
7.7862657e-06
-0.00034439137
1.0725856e-05
-0.00034613128
1.4390238e-05
-0.00034722783
1.8527385e-05
-0.00034730023
2.2872495e-05
-0.00034606869
2.6564716e-05
-0.00034335072
2.9285422e-05
-0.0003392726
2.9551083e-05
-0.00033385552
2.8141201e-05
-0.00032847556
2.1994507e-05
1.4516732e-05
-0.00032701811
3.5031741e-08
-0.00032702745
3.7077664e-08
-0.00032703767
4.0208392e-08
-0.0003270489
4.3437607e-08
-0.00032706115
4.705361e-08
-0.00032707449
5.1074477e-08
-0.00032708899
5.5350925e-08
-0.00032710472
6.0077384e-08
-0.00032712178
6.509369e-08
-0.00032714027
7.0566408e-08
-0.00032716028
7.6402581e-08
-0.00032718194
8.2717889e-08
-0.00032720536
8.9476234e-08
-0.00032723067
9.6758704e-08
-0.00032725801
1.0456554e-07
-0.00032728753
1.1296004e-07
-0.00032731939
1.2196416e-07
-0.00032735375
1.3163428e-07
-0.00032739079
1.4200567e-07
-0.00032743071
1.5313386e-07
-0.00032747372
1.650629e-07
-0.00032752003
1.7785057e-07
-0.00032756987
1.9154727e-07
-0.00032762348
2.0621434e-07
-0.00032768114
2.2190704e-07
-0.00032774311
2.386905e-07
-0.00032780969
2.5662352e-07
-0.00032788117
2.757745e-07
-0.00032795788
2.9620423e-07
-0.00032804015
3.1798313e-07
-0.00032812834
3.411719e-07
-0.0003282228
3.6583943e-07
-0.00032832393
3.9204952e-07
-0.0003284321
4.1985869e-07
-0.00032854773
4.4933105e-07
-0.00032867122
4.8051267e-07
-0.000328803
5.1345788e-07
-0.0003289435
5.4819796e-07
-0.00032909314
5.8477111e-07
-0.00032925235
6.2318652e-07
-0.00032942156
6.6345843e-07
-0.00032960118
7.0556573e-07
-0.00032979162
7.4948491e-07
-0.00032999325
7.9516079e-07
-0.00033020642
8.4251699e-07
-0.00033043146
8.914484e-07
-0.00033066864
9.4181805e-07
-0.00033091817
9.934554e-07
-0.00033118021
1.0461489e-06
-0.00033145485
1.0996465e-06
-0.00033174209
1.1536497e-06
-0.00033204183
1.2078114e-06
-0.00033235386
1.2617321e-06
-0.00033267785
1.3149604e-06
-0.00033301334
1.3669861e-06
-0.00033335972
1.4172449e-06
-0.00033371622
1.4651159e-06
-0.00033408189
1.5099247e-06
-0.00033445562
1.5509456e-06
-0.00033483609
1.5874106e-06
-0.00033522182
1.6185104e-06
-0.0003356111
1.6434107e-06
-0.00033600204
1.6612612e-06
-0.00033639258
1.6712109e-06
-0.00033678045
1.6724259e-06
-0.00033716323
1.6641073e-06
-0.00033753837
1.6455178e-06
-0.0003379032
1.6159968e-06
-0.00033825494
1.5749941e-06
-0.00033859079
1.52209e-06
-0.00033890794
1.4570245e-06
-0.00033920363
1.3797193e-06
-0.00033947518
1.2903069e-06
-0.00033972007
1.1891415e-06
-0.00033993595
1.0768223e-06
-0.00034012076
9.5419572e-07
-0.00034027269
8.2235559e-07
-0.00034039029
6.8263215e-07
-0.00034047248
5.3656998e-07
-0.00034051857
3.8589916e-07
-0.00034052833
2.3248889e-07
-0.00034050195
7.8318404e-08
-0.00034044015
-7.4608622e-08
-0.00034034431
-2.2417616e-07
-0.0003402162
-3.683195e-07
-0.00034005775
-5.0515765e-07
-0.00033987139
-6.330215e-07
-0.00033966006
-7.5035583e-07
-0.00033942696
-8.5572242e-07
-0.00033917557
-9.478264e-07
-0.00033890954
-1.0255127e-06
-0.00033863269
-1.087777e-06
-0.000338349
-1.1337808e-06
-0.00033806259
-1.1627947e-06
-0.0003377777
-1.1741976e-06
-0.00033749868
-1.1673868e-06
-0.00033723007
-1.1417597e-06
-0.00033697665
-1.0965876e-06
-0.00033674349
-1.0309697e-06
-0.00033653617
-9.4362092e-07
-0.00033636097
-8.327721e-07
-0.00033622519
-6.9571446e-07
-0.00033613756
-5.285652e-07
-0.00033610886
-3.2523325e-07
-0.0003361527
-7.6978983e-08
-0.00033628654
2.2978064e-07
-0.00033653336
6.1414313e-07
-0.00033692184
1.1050249e-06
-0.00033748504
1.739791e-06
-0.00033825663
2.5726756e-06
-0.00033926256
3.6662421e-06
-0.00034050371
5.1035725e-06
-0.00034193523
6.9530369e-06
-0.00034343957
9.2906139e-06
-0.00034481515
1.2101431e-05
-0.00034577542
1.5350513e-05
-0.00034600273
1.8754691e-05
-0.00034519951
2.2069276e-05
-0.00034321534
2.458055e-05
-0.00034001761
2.6087687e-05
-0.00033590789
2.544136e-05
-0.00033105014
2.3283455e-05
-0.00032663336
1.7577727e-05
1.0463972e-05
-0.00032736517
4.3083474e-08
-0.00032737445
4.6355469e-08
-0.00032738458
5.0338329e-08
-0.00032739575
5.4610073e-08
-0.00032740795
5.9248212e-08
-0.00032742123
6.4361913e-08
-0.00032743569
6.9804502e-08
-0.00032745138
7.5767318e-08
-0.0003274684
8.2116827e-08
-0.00032748685
8.9010941e-08
-0.00032750682
9.6377682e-08
-0.00032752843
1.0433107e-07
-0.00032755181
1.1285022e-07
-0.00032757707
1.2202038e-07
-0.00032760436
1.3185414e-07
-0.00032763382
1.4242271e-07
-0.00032766562
1.5375952e-07
-0.00032769991
1.6593131e-07
-0.00032773689
1.7898497e-07
-0.00032777675
1.9298818e-07
-0.00032781968
2.0799725e-07
-0.00032786591
2.2408352e-07
-0.00032791568
2.4131044e-07
-0.00032796922
2.5975411e-07
-0.00032802679
2.7948355e-07
-0.00032808868
3.0057965e-07
-0.00032815517
3.2311545e-07
-0.00032822658
3.4717576e-07
-0.00032830321
3.7283575e-07
-0.00032838541
4.0018244e-07
-0.00032847353
4.2929046e-07
-0.00032856793
4.6024444e-07
-0.000328669
4.9312248e-07
-0.00032877714
5.2799308e-07
-0.00032889274
5.6493409e-07
-0.00032901623
6.0400028e-07
-0.00032914803
6.4525646e-07
-0.00032928857
6.8873804e-07
-0.00032943828
7.3448876e-07
-0.00032959761
7.825154e-07
-0.00032976699
8.3283066e-07
-0.00032994682
8.8540235e-07
-0.00033013753
9.4019474e-07
-0.0003303395
9.9713189e-07
-0.0003305531
1.0561107e-06
-0.00033077864
1.1169917e-06
-0.00033101642
1.1795949e-06
-0.00033126666
1.2436978e-06
-0.00033152954
1.3090265e-06
-0.00033180515
1.3752557e-06
-0.0003320935
1.4420024e-06
-0.00033239451
1.5088226e-06
-0.00033270798
1.5752071e-06
-0.00033303361
1.6405822e-06
-0.00033337092
1.7043018e-06
-0.00033371933
1.7656532e-06
-0.00033407807
1.8238548e-06
-0.0003344462
1.8780595e-06
-0.00033482262
1.9273592e-06
-0.000335206
1.9707955e-06
-0.00033559485
2.0073619e-06
-0.00033598747
2.0360245e-06
-0.00033638194
2.0557338e-06
-0.00033677617
2.0654442e-06
-0.00033716788
2.0641365e-06
-0.00033755462
2.0508412e-06
-0.00033793377
2.0246714e-06
-0.00033830262
1.9848422e-06
-0.00033865834
1.9307125e-06
-0.00033899805
1.8618099e-06
-0.0003393189
1.7778657e-06
-0.00033961802
1.6788415e-06
-0.00033989267
1.5649617e-06
-0.00034014026
1.4367258e-06
-0.00034035837
1.2949332e-06
-0.00034054486
1.140683e-06
-0.00034069787
9.7537325e-07
-0.00034081593
8.0068442e-07
-0.00034089791
6.1855312e-07
-0.00034094315
4.311365e-07
-0.00034095142
2.407585e-07
-0.00034092297
4.9875153e-08
-0.00034085857
-1.390065e-07
-0.00034075945
-3.2330337e-07
-0.00034062725
-5.0051518e-07
-0.00034046411
-6.6830203e-07
-0.00034027255
-8.2457993e-07
-0.00034005548
-9.6742801e-07
-0.00033981612
-1.0950779e-06
-0.000339558
-1.2059499e-06
-0.00033928483
-1.2986805e-06
-0.00033900052
-1.3720907e-06
-0.00033870908
-1.4252119e-06
-0.00033841468
-1.4572015e-06
-0.00033812153
-1.4673453e-06
-0.00033783398
-1.4549373e-06
-0.00033755648
-1.4192542e-06
-0.00033729368
-1.3593928e-06
-0.00033705045
-1.2741973e-06
-0.00033683207
-1.1620021e-06
-0.00033664437
-1.0204772e-06
-0.00033649396
-8.4611591e-07
-0.00033638862
-6.3390804e-07
-0.0003363376
-3.7625475e-07
-0.00033635218
-6.2400642e-08
-0.00033644615
3.237498e-07
-0.00033663612
8.0411469e-07
-0.00033694106
1.4099692e-06
-0.00033738111
2.1798358e-06
-0.00033797295
3.1645134e-06
-0.00033872229
4.4155842e-06
-0.00033961052
5.9918064e-06
-0.00034058059
7.9231053e-06
-0.00034151879
1.0228813e-05
-0.00034225196
1.2834599e-05
-0.0003425503
1.5648857e-05
-0.00034217819
1.8382575e-05
-0.00034093078
2.0821869e-05
-0.00033875224
2.2402016e-05
-0.00033568789
2.3023336e-05
-0.00033209736
2.185083e-05
-0.00032821731
1.9403396e-05
-0.0003249947
1.4355121e-05
8.0498731e-06
-0.00032740812
5.1119573e-08
-0.00032741729
5.551951e-08
-0.00032742728
6.0326424e-08
-0.0003274383
6.5637639e-08
-0.00032745033
7.127793e-08
-0.00032746346
7.7486262e-08
-0.00032747773
8.4081112e-08
-0.00032749324
9.1275088e-08
-0.00032751007
9.8944468e-08
-0.00032752831
1.0724921e-07
-0.00032754806
1.1613172e-07
-0.00032756944
1.2570863e-07
-0.00032759256
1.3597173e-07
-0.00032761755
1.470121e-07
-0.00032764455
1.5885373e-07
-0.00032767371
1.7157635e-07
-0.00032770517
1.8522453e-07
-0.00032773912
1.9987559e-07
-0.00032777572
2.1558794e-07
-0.00032781517
2.324415e-07
-0.00032785768
2.5050484e-07
-0.00032790346
2.6986294e-07
-0.00032795274
2.9059234e-07
-0.00032800577
3.1278404e-07
-0.00032806281
3.365209e-07
-0.00032812413
3.6189971e-07
-0.00032819002
3.8900797e-07
-0.00032826079
4.1794711e-07
-0.00032833676
4.4880694e-07
-0.00032841827
4.8169142e-07
-0.00032850567
5.1668951e-07
-0.00032859933
5.5390202e-07
-0.00032869963
5.9342186e-07
-0.00032880696
6.3533011e-07
-0.00032892175
6.7971905e-07
-0.0003290444
7.2665292e-07
-0.00032917535
7.7620789e-07
-0.00032931504
8.2842448e-07
-0.0003294639
8.8335304e-07
-0.00032962239
9.4099916e-07
-0.00032979093
1.0013753e-06
-0.00032996997
1.0644395e-06
-0.00033015992
1.1301455e-06
-0.00033036119
1.1983981e-06
-0.00033057415
1.2690692e-06
-0.00033079914
1.3419867e-06
-0.00033103647
1.4169293e-06
-0.0003312864
1.4936245e-06
-0.00033154911
1.5717376e-06
-0.00033182473
1.6508718e-06
-0.00033211329
1.730561e-06
-0.00033241473
1.8102654e-06
-0.00033272889
1.8893671e-06
-0.00033305548
1.9671708e-06
-0.00033339407
2.0428942e-06
-0.00033374409
2.1156755e-06
-0.00033410481
2.1845707e-06
-0.00033447531
2.2485581e-06
-0.00033485449
2.3065434e-06
-0.00033524107
2.3573735e-06
-0.00033563355
2.399839e-06
-0.00033603022
2.4326993e-06
-0.00033642919
2.4546973e-06
-0.00033682832
2.4645833e-06
-0.00033722533
2.4611424e-06
-0.00033761771
2.4432223e-06
-0.00033800281
2.409774e-06
-0.00033837785
2.3598752e-06
-0.00033873991
2.2927803e-06
-0.00033908606
2.2079511e-06
-0.00033941329
2.1050984e-06
-0.00033971866
1.9842121e-06
-0.0003399993
1.8456013e-06
-0.00034025248
1.6899049e-06
-0.00034047567
1.518122e-06
-0.00034066659
1.3316085e-06
-0.00034082329
1.1320756e-06
-0.00034094418
9.2156822e-07
-0.00034102806
7.0243409e-07
-0.0003410742
4.7727995e-07
-0.00034108235
2.4891019e-07
-0.00034105276
2.0282983e-08
-0.00034098618
-2.0558637e-07
-0.00034088385
-4.2563412e-07
-0.00034074745
-6.3691536e-07
-0.00034057911
-8.3664224e-07
-0.00034038143
-1.0222602e-06
-0.00034015744
-1.1914212e-06
-0.00033991048
-1.3420394e-06
-0.00033964416
-1.4722637e-06
-0.00033936231
-1.5805285e-06
-0.00033906892
-1.6654872e-06
-0.00033876807
-1.7260549e-06
-0.00033846398
-1.7612927e-06
-0.00033816091
-1.7704176e-06
-0.0003378632
-1.7526492e-06
-0.00033757527
-1.7071813e-06
-0.00033730168
-1.6329837e-06
-0.00033704717
-1.5287123e-06
-0.00033681675
-1.3924149e-06
-0.00033661589
-1.2213444e-06
-0.00033645058
-1.0114165e-06
-0.00033632765
-7.5684374e-07
-0.00033625484
-4.4906801e-07
-0.00033624105
-7.618626e-08
-0.00033629632
3.790245e-07
-0.00033643157
9.3936152e-07
-0.00033665748
1.6358826e-06
-0.00033698264
2.504991e-06
-0.00033740934
3.5912148e-06
-0.00033792799
4.9342347e-06
-0.00033850761
6.5714202e-06
-0.00033908799
8.5034867e-06
-0.00033956966
1.071049e-05
-0.00033981796
1.30829e-05
-0.0003396676
1.5498497e-05
-0.00033896557
1.7680542e-05
-0.00033758903
1.9445328e-05
-0.00033553767
2.035066e-05
-0.00033287154
2.0357198e-05
-0.00032989215
1.8871445e-05
-0.00032679169
1.630294e-05
-0.00032427689
1.1840314e-05
6.3537849e-06
-0.00032741085
5.9061942e-08
-0.00032741985
6.4513096e-08
-0.00032742966
7.0137072e-08
-0.0003274405
7.647561e-08
-0.00032745232
8.310304e-08
-0.00032746524
9.0400659e-08
-0.00032747929
9.8132193e-08
-0.00032749456
1.0654694e-07
-0.00032751113
1.1551914e-07
-0.0003275291
1.2521896e-07
-0.00032754857
1.3559785e-07
-0.00032756964
1.4677862e-07
-0.00032759243
1.5876354e-07
-0.00032761707
1.7165099e-07
-0.00032764369
1.8547545e-07
-0.00032767244
2.0032575e-07
-0.00032770347
2.1625723e-07
-0.00032773696
2.3335804e-07
-0.00032777307
2.5169797e-07
-0.00032781199
2.7136928e-07
-0.00032785394
2.9245278e-07
-0.00032789913
3.1504718e-07
-0.00032794778
3.3924217e-07
-0.00032800014
3.6514371e-07
-0.00032805646
3.9284869e-07
-0.00032811703
4.2246996e-07
-0.00032818214
4.5410968e-07
-0.00032825208
4.8788616e-07
-0.00032832717
5.2390422e-07
-0.00032840777
5.6228509e-07
-0.00032849421
6.0313256e-07
-0.00032858687
6.4656414e-07
-0.00032868614
6.9268817e-07
-0.00032879241
7.415991e-07
-0.00032890609
7.9340443e-07
-0.00032902762
8.4817885e-07
-0.00032915742
9.0601093e-07
-0.00032929594
9.6694756e-07
-0.00032944364
1.031047e-06
-0.00032960095
1.0983152e-06
-0.00032976834
1.1687658e-06
-0.00032994625
1.2423493e-06
-0.00033013512
1.3190103e-06
-0.00033033536
1.3986366e-06
-0.00033054737
1.4810773e-06
-0.00033077151
1.5661296e-06
-0.00033100811
1.6535335e-06
-0.00033125746
1.7429686e-06
-0.00033151976
1.8340416e-06
-0.00033179517
1.9262865e-06
-0.00033208377
2.0191558e-06
-0.00033238552
2.1120158e-06
-0.00033270029
2.204141e-06
-0.00033302784
2.294715e-06
-0.00033336776
2.3828198e-06
-0.00033371953
2.4674436e-06
-0.00033408244
2.5474785e-06
-0.00033445561
2.6217253e-06
-0.00033483796
2.6888998e-06
-0.00033522824
2.7476483e-06
-0.00033562495
2.7965519e-06
-0.00033602641
2.8341546e-06
-0.00033643069
2.8589819e-06
-0.00033683568
2.8695682e-06
-0.00033723902
2.8644892e-06
-0.0003376382
2.8423959e-06
-0.00033803048
2.8020613e-06
-0.00033841302
2.7424093e-06
-0.00033878281
2.662574e-06
-0.00033913679
2.561935e-06
-0.00033947186
2.4401677e-06
-0.00033978493
2.2972777e-06
-0.00034007298
2.1336479e-06
-0.00034033312
1.9500505e-06
-0.00034056268
1.7476817e-06
-0.00034075923
1.5281568e-06
-0.00034092066
1.2935082e-06
-0.00034104525
1.0461592e-06
-0.00034113171
7.8888741e-07
-0.0003411792
5.2477296e-07
-0.00034118742
2.5712585e-07
-0.00034115657
-1.0566102e-08
-0.0003410874
-2.7475703e-07
-0.00034098116
-5.3186982e-07
-0.00034083962
-7.784504e-07
-0.00034066505
-1.0112134e-06
-0.00034046015
-1.2271629e-06
-0.00034022802
-1.4235492e-06
-0.00033997211
-1.5979546e-06
-0.00033969612
-1.7482466e-06
-0.00033940399
-1.8726595e-06
-0.00033909979
-1.9696895e-06
-0.00033878769
-2.0381588e-06
-0.00033847192
-2.0770621e-06
-0.00033815674
-2.0855904e-06
-0.00033784645
-2.0629399e-06
-0.00033754535
-2.008289e-06
-0.00033725777
-1.9205637e-06
-0.00033698813
-1.7983441e-06
-0.00033674101
-1.6395383e-06
-0.00033652117
-1.4411871e-06
-0.00033633368
-1.1989094e-06
-0.00033618398
-9.0653437e-07
-0.00033607796
-5.5509129e-07
-0.00033602186
-1.32283e-07
-0.00033602206
3.7922363e-07
-0.0003360845
1.0017961e-06
-0.00033621343
1.7648178e-06
-0.00033640967
2.7012276e-06
-0.00033666693
3.8484719e-06
-0.00033696771
5.2350132e-06
-0.00033727679
6.8805079e-06
-0.00033753743
8.7641246e-06
-0.00033766595
1.083901e-05
-0.00033755914
1.2976088e-05
-0.00033709888
1.5038235e-05
-0.00033618853
1.6770193e-05
-0.00033475994
1.8016739e-05
-0.00033284823
1.8438952e-05
-0.00033052912
1.8038084e-05
-0.00032806706
1.6409392e-05
-0.00032563959
1.387547e-05
-0.0003237459
9.9466237e-06
5.1884824e-06
-0.00032740888
6.6890199e-08
-0.0003274177
7.3331661e-08
-0.00032742732
7.975874e-08
-0.00032743795
8.7102439e-08
-0.00032744955
9.4697253e-08
-0.00032746222
1.0307025e-07
-0.000327476
1.1191875e-07
-0.00032749099
1.2153811e-07
-0.00032750727
1.3179206e-07
-0.00032752491
1.4286668e-07
-0.00032754403
1.5471829e-07
-0.00032756473
1.6747861e-07
-0.00032758713
1.8115856e-07
-0.00032761134
1.9586493e-07
-0.00032763751
2.1164197e-07
-0.00032766577
2.2858806e-07
-0.00032769628
2.4676901e-07