/*--------------------------------*- C++ -*----------------------------------*\
| =========                 |                                                 |
| \\      /  F ield         | foam-extend: Open Source CFD                    |
|  \\    /   O peration     | Version:     4.1                                |
|   \\  /    A nd           | Web:         http://www.foam-extend.org         |
|    \\/     M anipulation  |                                                 |
\*---------------------------------------------------------------------------*/
FoamFile
{
    version     2.0;
    format      ascii;
    class       volScalarField;
    location    "0.2";
    object      rAU;
}
// * * * * * * * * * * * * * * * * * * * * * * * * * * * * * * * * * * * * * //

dimensions      [0 0 1 0 0 0 0];

internalField   nonuniform List<scalar> 
16126
(
0.00049295875
0.00049254385
0.00049254374
0.00049254365
0.00049254353
0.00049254343
0.00049254329
0.00049254318
0.00049254302
0.00049254288
0.0004925427
0.00049254254
0.00049254233
0.00049254214
0.00049254189
0.00049254166
0.00049254138
0.00049254111
0.00049254078
0.00049254046
0.00049254007
0.0004925397
0.00049253925
0.00049253881
0.0004925383
0.00049253778
0.00049253718
0.00049253658
0.00049253588
0.00049253517
0.00049253437
0.00049253352
0.00049253263
0.00049253163
0.0004925306
0.00049252944
0.00049252824
0.0004925269
0.00049252551
0.00049252398
0.00049252237
0.00049252061
0.00049251874
0.00049251674
0.0004925146
0.0004925123
0.00049250986
0.00049250725
0.00049250447
0.00049250151
0.00049249837
0.00049249504
0.00049249151
0.00049248778
0.00049248384
0.0004924797
0.00049247534
0.00049247078
0.00049246601
0.00049246105
0.00049245589
0.00049245055
0.00049244504
0.00049243938
0.0004924336
0.0004924277
0.00049242174
0.00049241573
0.00049240972
0.00049240374
0.00049239784
0.00049239206
0.00049238646
0.00049238107
0.00049237595
0.00049237114
0.00049236668
0.00049236263
0.00049235901
0.00049235584
0.00049235315
0.00049235095
0.00049234925
0.00049234805
0.00049234732
0.00049234703
0.00049234703
0.0004923472
0.00049234786
0.00049234903
0.00049235069
0.00049235281
0.00049235534
0.00049235825
0.00049236149
0.00049236498
0.00049236869
0.00049237255
0.00049237649
0.00049238047
0.00049238443
0.0004923883
0.00049239205
0.00049239562
0.00049239898
0.00049240208
0.00049240488
0.00049240734
0.00049240936
0.00049241054
0.00049240691
0.00049239545
0.00049236819
0.0004923112
0.00049220491
0.00049202271
0.0004917379
0.00049132406
0.00049077083
0.00049007039
0.0004892505
0.0004883028
0.00048738264
0.00048591085
0.00048946502
0.00048905595
0.00048905568
0.00048905548
0.00048905518
0.00048905492
0.00048905458
0.00048905428
0.00048905388
0.00048905351
0.00048905305
0.00048905261
0.00048905207
0.00048905156
0.00048905093
0.00048905033
0.0004890496
0.00048904889
0.00048904805
0.00048904722
0.00048904624
0.00048904527
0.00048904414
0.000489043
0.0004890417
0.00048904038
0.00048903887
0.00048903733
0.0004890356
0.00048903382
0.00048903183
0.00048902973
0.00048902751
0.00048902506
0.00048902251
0.0004890197
0.00048901678
0.00048901357
0.00048901022
0.00048900657
0.00048900275
0.00048899862
0.00048899426
0.00048898961
0.00048898468
0.00048897945
0.00048897391
0.00048896806
0.00048896188
0.00048895537
0.00048894852
0.00048894133
0.00048893379
0.00048892592
0.00048891771
0.00048890916
0.0004889003
0.00048889114
0.00048888169
0.000488872
0.00048886207
0.00048885195
0.00048884167
0.0004888313
0.00048882087
0.00048881044
0.00048880009
0.00048878988
0.00048877987
0.00048877015
0.00048876079
0.00048875188
0.00048874349
0.00048873571
0.0004887286
0.00048872223
0.00048871667
0.00048871197
0.00048870818
0.0004887053
0.00048870337
0.00048870239
0.00048870233
0.00048870319
0.00048870438
0.00048870566
0.00048870773
0.00048871037
0.00048871382
0.00048871799
0.00048872284
0.00048872827
0.00048873421
0.00048874056
0.00048874722
0.0004887541
0.00048876108
0.00048876806
0.00048877492
0.00048878154
0.0004887878
0.00048879359
0.00048879877
0.00048880321
0.00048880675
0.00048880926
0.00048881053
0.00048880991
0.00048880507
0.00048879673
0.00048877995
0.0004887503
0.00048869915
0.00048861327
0.00048847829
0.00048827819
0.00048800716
0.00048766512
0.00048727889
0.00048687014
0.00048651079
0.00048620561
0.00048615863
0.00048575455
0.00048793665
0.00048753007
0.00048752973
0.00048752945
0.00048752905
0.0004875287
0.00048752824
0.00048752782
0.00048752728
0.00048752678
0.00048752615
0.00048752555
0.00048752482
0.00048752412
0.00048752328
0.00048752245
0.00048752147
0.0004875205
0.00048751937
0.00048751824
0.00048751693
0.00048751561
0.0004875141
0.00048751256
0.00048751082
0.00048750904
0.00048750703
0.00048750497
0.00048750266
0.00048750028
0.00048749763
0.00048749484
0.0004874919
0.00048748866
0.00048748528
0.00048748158
0.00048747772
0.00048747352
0.00048746913
0.00048746436
0.00048745939
0.00048745402
0.00048744837
0.00048744238
0.00048743604
0.00048742934
0.00048742227
0.00048741483
0.00048740702
0.00048739882
0.00048739024
0.00048738127
0.00048737193
0.00048736223
0.00048735218
0.00048734179
0.0004873311
0.00048732012
0.00048730888
0.00048729745
0.00048728586
0.00048727415
0.0004872624
0.00048725065
0.00048723899
0.00048722749
0.00048721624
0.0004872053
0.00048719478
0.00048718475
0.00048717532
0.00048716655
0.00048715856
0.0004871514
0.00048714515
0.00048713988
0.00048713564
0.00048713247
0.00048713041
0.00048712945
0.00048712962
0.00048713088
0.00048713323
0.00048713543
0.00048713688
0.00048713855
0.00048714121
0.00048714479
0.00048714921
0.0004871544
0.0004871603
0.0004871668
0.0004871738
0.00048718121
0.00048718891
0.0004871968
0.00048720473
0.0004872126
0.00048722026
0.00048722757
0.00048723438
0.00048724052
0.00048724579
0.00048725001
0.0004872529
0.00048725415
0.00048724958
0.00048723971
0.0004872222
0.00048719621
0.00048715797
0.0004871018
0.00048702112
0.00048690771
0.00048675623
0.00048656346
0.00048633898
0.00048609678
0.00048587451
0.00048569566
0.0004856275
0.00048565838
0.00048594224
0.00048590494
0.00048756499
0.00048715898
0.00048715859
0.00048715826
0.00048715781
0.0004871574
0.00048715686
0.00048715637
0.00048715574
0.00048715516
0.00048715444
0.00048715374
0.0004871529
0.00048715209
0.00048715112
0.00048715016
0.00048714904
0.00048714792
0.00048714662
0.00048714531
0.00048714381
0.00048714229
0.00048714056
0.00048713879
0.0004871368
0.00048713475
0.00048713245
0.00048713009
0.00048712745
0.00048712472
0.00048712171
0.00048711852
0.00048711517
0.00048711148
0.00048710764
0.00048710344
0.00048709906
0.00048709431
0.00048708934
0.00048708396
0.00048707834
0.00048707231
0.00048706596
0.00048705924
0.00048705215
0.00048704467
0.0004870368
0.00048702854
0.00048701988
0.00048701082
0.00048700137
0.00048699153
0.00048698132
0.00048697075
0.00048695984
0.00048694862
0.00048693712
0.00048692538
0.00048691343
0.00048690134
0.00048688915
0.00048687694
0.00048686476
0.00048685271
0.00048684085
0.00048682927
0.00048681807
0.00048680733
0.00048679715
0.00048678762
0.00048677884
0.00048677088
0.00048676384
0.00048675778
0.00048675278
0.00048674887
0.00048674612
0.00048674452
0.00048674412
0.00048674489
0.00048674682
0.00048674987
0.00048675362
0.00048675408
0.00048675437
0.00048675574
0.00048675814
0.00048676152
0.00048676581
0.00048677096
0.00048677689
0.00048678349
0.00048679068
0.00048679836
0.0004868064
0.0004868147
0.00048682312
0.00048683157
0.00048683987
0.00048684791
0.00048685553
0.00048686257
0.00048686883
0.00048687416
0.00048687829
0.00048687814
0.00048686708
0.00048684922
0.00048682352
0.00048678703
0.00048673605
0.00048666579
0.00048657183
0.00048645005
0.0004863011
0.00048612929
0.00048595138
0.00048578652
0.00048567223
0.00048562667
0.00048570027
0.00048586585
0.00048621567
0.00048620116
0.00048749539
0.00048708945
0.00048708903
0.00048708867
0.00048708817
0.00048708772
0.00048708714
0.0004870866
0.00048708593
0.00048708529
0.00048708451
0.00048708375
0.00048708284
0.00048708196
0.00048708091
0.00048707986
0.00048707865
0.00048707743
0.00048707603
0.00048707461
0.00048707299
0.00048707134
0.00048706948
0.00048706756
0.00048706541
0.0004870632
0.00048706073
0.00048705817
0.00048705533
0.00048705239
0.00048704914
0.00048704571
0.00048704209
0.00048703813
0.000487034
0.0004870295
0.00048702479
0.00048701969
0.00048701436
0.00048700861
0.0004870026
0.00048699615
0.00048698937
0.0004869822
0.00048697465
0.00048696669
0.00048695832
0.00048694956
0.00048694039
0.00048693081
0.00048692084
0.00048691048
0.00048689974
0.00048688866
0.00048687725
0.00048686554
0.00048685358
0.0004868414
0.00048682906
0.00048681662
0.00048680413
0.00048679167
0.00048677932
0.00048676716
0.00048675527
0.00048674375
0.00048673271
0.00048672223
0.0004867124
0.00048670334
0.00048669512
0.00048668784
0.00048668159
0.00048667642
0.00048667239
0.00048666956
0.00048666795
0.00048666758
0.00048666844
0.00048667051
0.00048667376
0.00048667814
0.00048668092
0.00048667928
0.00048667879
0.00048667944
0.00048668122
0.00048668406
0.00048668793
0.00048669276
0.00048669847
0.00048670498
0.00048671219
0.00048672
0.0004867283
0.00048673697
0.0004867459
0.00048675497
0.00048676404
0.00048677299
0.00048678168
0.00048678997
0.00048679771
0.00048680478
0.000486811
0.00048680658
0.00048679095
0.00048676868
0.00048673778
0.00048669563
0.0004866393
0.00048656548
0.00048647207
0.0004863581
0.00048622755
0.00048608756
0.00048595531
0.00048584781
0.00048579564
0.00048580951
0.00048592529
0.00048611466
0.00048643453
0.00048637978
0.00048748468
0.00048707872
0.00048707827
0.00048707788
0.00048707735
0.00048707687
0.00048707626
0.00048707568
0.00048707497
0.00048707429
0.00048707346
0.00048707266
0.0004870717
0.00048707075
0.00048706964
0.00048706854
0.00048706726
0.00048706596
0.00048706448
0.00048706298
0.00048706127
0.00048705952
0.00048705755
0.00048705552
0.00048705325
0.00048705091
0.0004870483
0.0004870456
0.00048704261
0.00048703949
0.00048703607
0.00048703245
0.00048702863
0.00048702446
0.0004870201
0.00048701536
0.00048701041
0.00048700504
0.00048699943
0.00048699338
0.00048698706
0.00048698029
0.00048697318
0.00048696566
0.00048695774
0.00048694941
0.00048694066
0.0004869315
0.00048692193
0.00048691194
0.00048690155
0.00048689077
0.00048687962
0.00048686812
0.00048685631
0.00048684421
0.00048683188
0.00048681935
0.00048680668
0.00048679395
0.00048678121
0.00048676854
0.00048675603
0.00048674377
0.00048673185
0.00048672037
0.00048670943
0.00048669914
0.00048668959
0.00048668089
0.00048667313
0.0004866664
0.00048666078
0.00048665634
0.00048665313
0.00048665119
0.00048665054
0.00048665119
0.00048665313
0.00048665632
0.00048666072
0.00048666626
0.00048666637
0.00048666378
0.00048666241
0.00048666226
0.00048666333
0.00048666558
0.00048666896
0.00048667342
0.00048667889
0.00048668529
0.00048669252
0.00048670047
0.00048670906
0.00048671816
0.00048672766
0.00048673745
0.00048674742
0.00048675746
0.00048676745
0.00048677732
0.00048678696
0.00048679634
0.00048680543
0.00048679781
0.00048678048
0.00048675645
0.000486724
0.00048668097
0.00048662529
0.000486555
0.00048646974
0.00048637063
0.00048626332
0.00048615581
0.00048606379
0.00048600084
0.00048599031
0.00048603698
0.00048616488
0.00048634755
0.00048661816
0.00048650265
0.00048748315
0.00048707716
0.00048707669
0.00048707627
0.00048707572
0.00048707521
0.00048707457
0.00048707396
0.00048707321
0.00048707249
0.00048707162
0.00048707078
0.00048706977
0.00048706878
0.00048706762
0.00048706645
0.00048706511
0.00048706375
0.0004870622
0.00048706062
0.00048705883
0.000487057
0.00048705494
0.00048705281
0.00048705043
0.00048704798
0.00048704525
0.00048704241
0.00048703928
0.00048703602
0.00048703244
0.00048702866
0.00048702466
0.0004870203
0.00048701574
0.00048701078
0.0004870056
0.00048699999
0.00048699413
0.00048698782
0.00048698122
0.00048697416
0.00048696674
0.0004869589
0.00048695064
0.00048694197
0.00048693286
0.00048692333
0.00048691338
0.000486903
0.00048689222
0.00048688105
0.00048686949
0.00048685761
0.0004868454
0.00048683292
0.00048682021
0.00048680732
0.00048679432
0.00048678128
0.00048676826
0.00048675536
0.00048674266
0.00048673025
0.00048671825
0.00048670675
0.00048669586
0.0004866857
0.00048667636
0.00048666794
0.00048666056
0.0004866543
0.00048664924
0.00048664545
0.00048664298
0.00048664186
0.00048664212
0.00048664374
0.00048664672
0.000486651
0.00048665652
0.0004866632
0.00048666051
0.00048665693
0.00048665465
0.0004866537
0.00048665406
0.00048665572
0.00048665863
0.00048666275
0.00048666802
0.00048667434
0.00048668162
0.00048668977
0.00048669869
0.00048670826
0.00048671837
0.00048672892
0.00048673981
0.00048675094
0.00048676223
0.00048677361
0.00048678507
0.00048679663
0.00048680836
0.00048679955
0.00048678097
0.00048675585
0.00048672277
0.00048668013
0.00048662663
0.00048656143
0.00048648543
0.00048640102
0.00048631451
0.00048623368
0.00048617188
0.00048613935
0.00048615324
0.00048621481
0.00048634033
0.00048650835
0.00048673773
0.00048657587
0.00048748281
0.0004870768
0.00048707631
0.00048707586
0.00048707529
0.00048707475
0.00048707408
0.00048707344
0.00048707266
0.00048707191
0.000487071
0.00048707012
0.00048706907
0.00048706803
0.00048706682
0.0004870656
0.0004870642
0.00048706278
0.00048706117
0.00048705952
0.00048705765
0.00048705574
0.00048705358
0.00048705137
0.00048704889
0.00048704633
0.00048704348
0.00048704052
0.00048703726
0.00048703386
0.00048703013
0.00048702619
0.00048702202
0.00048701748
0.00048701272
0.00048700756
0.00048700216
0.00048699633
0.00048699022
0.00048698365
0.00048697678
0.00048696944
0.00048696172
0.00048695357
0.00048694499
0.00048693597
0.00048692651
0.00048691662
0.00048690629
0.00048689553
0.00048688436
0.00048687278
0.00048686082
0.00048684853
0.00048683592
0.00048682304
0.00048680994
0.00048679667
0.00048678331
0.00048676993
0.00048675661
0.00048674344
0.0004867305
0.00048671792
0.00048670579
0.00048669422
0.00048668334
0.00048667325
0.00048666407
0.0004866559
0.00048664886
0.00048664302
0.00048663849
0.00048663532
0.00048663356
0.00048663325
0.0004866344
0.000486637
0.00048664102
0.0004866464
0.00048665307
0.00048666063
0.00048665534
0.00048665076
0.00048664756
0.00048664579
0.00048664545
0.00048664653
0.000486649
0.0004866528
0.00048665789
0.00048666416
0.00048667155
0.00048667994
0.00048668924
0.00048669934
0.00048671012
0.00048672151
0.0004867334
0.00048674571
0.0004867584
0.00048677144
0.00048678485
0.00048679873
0.00048681325
0.0004868062
0.0004867874
0.00048676247
0.00048673027
0.00048668967
0.00048663996
0.00048658107
0.00048651468
0.00048644389
0.00048637514
0.00048631571
0.00048627691
0.0004862664
0.00048629657
0.00048636637
0.00048648585
0.00048663728
0.00048683017
0.00048662731
0.00048748263
0.00048707659
0.00048707608
0.00048707561
0.00048707501
0.00048707445
0.00048707375
0.00048707309
0.00048707228
0.00048707149
0.00048707055
0.00048706963
0.00048706854
0.00048706746
0.0004870662
0.00048706493
0.00048706348
0.000487062
0.00048706032
0.00048705861
0.00048705667
0.00048705468
0.00048705245
0.00048705014
0.00048704757
0.0004870449
0.00048704195
0.00048703888
0.00048703549
0.00048703196
0.00048702808
0.00048702399
0.00048701966
0.00048701494
0.00048701
0.00048700464
0.00048699904
0.00048699298
0.00048698664
0.00048697982
0.00048697269
0.00048696506
0.00048695705
0.00048694859
0.00048693969
0.00048693034
0.00048692053
0.00048691027
0.00048689956
0.00048688842
0.00048687684
0.00048686485
0.00048685248
0.00048683977
0.00048682673
0.00048681343
0.00048679991
0.00048678624
0.00048677248
0.00048675873
0.00048674506
0.00048673157
0.00048671836
0.00048670554
0.00048669323
0.00048668154
0.00048667061
0.00048666054
0.00048665147
0.0004866435
0.00048663674
0.00048663129
0.00048662725
0.00048662467
0.00048662361
0.0004866241
0.00048662615
0.00048662973
0.00048663481
0.00048664133
0.00048664919
0.0004866567
0.00048664967
0.00048664405
0.00048663993
0.00048663734
0.00048663631
0.00048663682
0.00048663886
0.00048664238
0.00048664733
0.00048665361
0.00048666113
0.00048666981
0.00048667953
0.00048669019
0.00048670168
0.00048671391
0.00048672679
0.00048674026
0.00048675428
0.00048676885
0.00048678403
0.00048679997
0.00048681688
0.0004868141
0.00048679524
0.0004867707
0.00048673962
0.00048670124
0.00048665535
0.00048660242
0.00048654461
0.00048648537
0.00048643089
0.00048638778
0.00048636547
0.0004863697
0.00048640932
0.00048648221
0.00048659425
0.00048673123
0.00048689666
0.00048666267
0.00048748248
0.00048707641
0.00048707588
0.00048707539
0.00048707477
0.00048707418
0.00048707346
0.00048707277
0.00048707193
0.00048707111
0.00048707014
0.00048706918
0.00048706805
0.00048706693
0.00048706563
0.00048706432
0.00048706281
0.00048706128
0.00048705955
0.00048705777
0.00048705576
0.0004870537
0.00048705139
0.000487049
0.00048704634
0.00048704358
0.00048704052
0.00048703733
0.00048703383
0.00048703017
0.00048702616
0.00048702192
0.00048701743
0.00048701255
0.00048700743
0.00048700188
0.00048699607
0.0004869898
0.00048698323
0.00048697617
0.00048696878
0.00048696088
0.00048695258
0.00048694382
0.0004869346
0.00048692491
0.00048691475
0.00048690412
0.00048689303
0.00048688149
0.0004868695
0.0004868571
0.0004868443
0.00048683114
0.00048681766
0.00048680392
0.00048678996
0.00048677585
0.00048676167
0.0004867475
0.00048673344
0.00048671959
0.00048670606
0.00048669296
0.00048668042
0.00048666856
0.00048665752
0.00048664743
0.00048663841
0.00048663059
0.00048662408
0.00048661899
0.00048661541
0.0004866134
0.00048661303
0.00048661431
0.00048661726
0.00048662184
0.00048662803
0.00048663572
0.00048664482
0.0004866516
0.00048664341
0.00048663675
0.00048663167
0.00048662826
0.00048662653
0.00048662649
0.00048662812
0.00048663138
0.00048663621
0.00048664253
0.00048665025
0.00048665926
0.00048666946
0.00048668074
0.00048669299
0.00048670613
0.00048672007
0.00048673476
0.00048675018
0.00048676636
0.00048678337
0.0004868014
0.00048682072
0.0004868252
0.00048680695
0.00048678353
0.00048675433
0.00048671889
0.00048667731
0.00048663042
0.00048658061
0.00048653142
0.00048648868
0.00048645834
0.00048644826
0.00048646274
0.00048650793
0.00048658098
0.00048668463
0.00048680724
0.00048694897
0.00048668904
0.00048748234
0.00048707625
0.00048707571
0.00048707519
0.00048707455
0.00048707394
0.0004870732
0.00048707248
0.00048707161
0.00048707077
0.00048706977
0.00048706877
0.00048706761
0.00048706645
0.00048706511
0.00048706375
0.0004870622
0.00048706062
0.00048705883
0.00048705699
0.00048705493
0.00048705279
0.00048705041
0.00048704794
0.0004870452
0.00048704235
0.00048703919
0.0004870359
0.00048703229
0.0004870285
0.00048702436
0.00048701998
0.00048701535
0.00048701031
0.00048700502
0.00048699929
0.00048699328
0.0004869868
0.00048698001
0.00048697271
0.00048696507
0.0004869569
0.00048694832
0.00048693926
0.00048692972
0.0004869197
0.00048690919
0.0004868982
0.00048688672
0.00048687477
0.00048686237
0.00048684953
0.00048683628
0.00048682267
0.00048680873
0.00048679451
0.00048678008
0.0004867655
0.00048675085
0.00048673623
0.00048672174
0.00048670748
0.00048669356
0.00048668013
0.00048666729
0.0004866552
0.00048664401
0.00048663383
0.00048662481
0.00048661708
0.00048661078
0.00048660599
0.00048660284
0.00048660139
0.00048660169
0.00048660376
0.00048660762
0.00048661323
0.00048662054
0.00048662945
0.00048663985
0.00048664585
0.00048663646
0.0004866287
0.00048662266
0.0004866184
0.00048661597
0.00048661539
0.00048661663
0.00048661966
0.00048662442
0.00048663082
0.00048663877
0.00048664816
0.00048665887
0.0004866708
0.00048668384
0.00048669789
0.00048671288
0.00048672875
0.00048674549
0.00048676314
0.00048678179
0.00048680164
0.00048682298
0.0004868373
0.0004868197
0.00048679745
0.00048677012
0.00048673749
0.00048669991
0.00048665844
0.00048661554
0.00048657471
0.00048654131
0.00048652067
0.00048651933
0.00048654055
0.0004865885
0.00048666009
0.00048675597
0.00048686655
0.00048698985
0.00048670929
0.00048748222
0.00048707611
0.00048707555
0.00048707502
0.00048707436
0.00048707373
0.00048707296
0.00048707222
0.00048707133
0.00048707046
0.00048706942
0.0004870684
0.00048706721
0.00048706601
0.00048706463
0.00048706324
0.00048706164
0.00048706002
0.00048705817
0.00048705628
0.00048705415
0.00048705196
0.00048704951
0.00048704697
0.00048704414
0.00048704121
0.00048703796
0.00048703457
0.00048703085
0.00048702696
0.00048702269
0.00048701818
0.0004870134
0.00048700821
0.00048700276
0.00048699685
0.00048699066
0.00048698398
0.00048697697
0.00048696944
0.00048696155
0.00048695313
0.00048694426
0.00048693491
0.00048692505
0.0004869147
0.00048690383
0.00048689247
0.0004868806
0.00048686825
0.00048685542
0.00048684214
0.00048682843
0.00048681434
0.00048679991
0.0004867852
0.00048677026
0.00048675517
0.00048674002
0.00048672491
0.00048670993
0.00048669521
0.00048668086
0.00048666703
0.00048665385
0.00048664147
0.00048663005
0.00048661972
0.00048661065
0.00048660297
0.00048659682
0.0004865923
0.00048658955
0.00048658862
0.00048658958
0.00048659245
0.00048659724
0.0004866039
0.00048661237
0.00048662255
0.00048663431
0.00048663946
0.00048662882
0.00048661992
0.00048661287
0.00048660776
0.00048660463
0.0004866035
0.00048660437
0.0004866072
0.00048661192
0.00048661844
0.00048662667
0.00048663649
0.00048664778
0.00048666042
0.0004866743
0.00048668933
0.00048670542
0.00048672252
0.00048674063
0.00048675978
0.00048678009
0.00048680175
0.00048682507
0.00048684825
0.00048683547
0.00048681478
0.00048678966
0.00048676008
0.00048672652
0.00048669016
0.00048665343
0.00048661969
0.00048659384
0.00048658061
0.00048658549
0.00048661092
0.00048665958
0.00048672826
0.00048681612
0.00048691522
0.00048702264
0.0004867251
0.00048748212
0.00048707599
0.00048707542
0.00048707486
0.00048707419
0.00048707354
0.00048707275
0.00048707198
0.00048707107
0.00048707017
0.00048706912
0.00048706807
0.00048706684
0.00048706562
0.0004870642
0.00048706277
0.00048706113
0.00048705946
0.00048705757
0.00048705563
0.00048705345
0.0004870512
0.00048704869
0.00048704608
0.00048704318
0.00048704017
0.00048703684
0.00048703336
0.00048702953
0.00048702553
0.00048702115
0.00048701652
0.00048701161
0.00048700627
0.00048700066
0.00048699459
0.00048698822
0.00048698134
0.00048697412
0.00048696637
0.00048695825
0.00048694956
0.00048694043
0.00048693078
0.00048692061
0.00048690993
0.00048689871
0.00048688697
0.00048687471
0.00048686194
0.00048684867
0.00048683493
0.00048682075
0.00048680616
0.00048679122
0.00048677598
0.0004867605
0.00048674487
0.00048672917
0.00048671352
0.000486698
0.00048668276
0.00048666792
0.00048665363
0.00048664004
0.0004866273
0.00048661559
0.00048660505
0.00048659586
0.00048658816
0.00048658211
0.00048657782
0.00048657543
0.000486575
0.00048657661
0.00048658028
0.000486586
0.00048659374
0.00048660343
0.00048661494
0.00048662812
0.00048663234
0.00048662039
0.00048661031
0.00048660221
0.00048659622
0.00048659238
0.00048659072
0.00048659123
0.00048659388
0.0004865986
0.00048660529
0.00048661385
0.00048662414
0.00048663605
0.00048664944
0.00048666419
0.0004866802
0.00048669737
0.00048671567
0.00048673507
0.00048675561
0.0004867774
0.00048680064
0.00048682561
0.00048685275
0.00048685205
0.00048683283
0.00048680979
0.000486783
0.00048675304
0.00048672114
0.00048668965
0.00048666173
0.00048664183
0.00048663419
0.0004866434
0.00048667134
0.00048671961
0.00048678502
0.00048686578
0.00048695518
0.00048704972
0.0004867381
0.00048748203
0.00048707589
0.0004870753
0.00048707473
0.00048707404
0.00048707337
0.00048707256
0.00048707178
0.00048707084
0.00048706993
0.00048706885
0.00048706777
0.00048706652
0.00048706526
0.00048706382
0.00048706235
0.00048706068
0.00048705897
0.00048705704
0.00048705505
0.00048705282
0.00048705052
0.00048704795
0.00048704527
0.00048704231
0.00048703922
0.00048703581
0.00048703225
0.00048702834
0.00048702423
0.00048701975
0.00048701499
0.00048700996
0.00048700448
0.00048699873
0.0004869925
0.00048698595
0.00048697889
0.00048697147
0.00048696351
0.00048695515
0.00048694622
0.00048693681
0.00048692687
0.0004869164
0.00048690538
0.00048689381
0.0004868817
0.00048686904
0.00048685585
0.00048684213
0.00048682792
0.00048681324
0.00048679814
0.00048678266
0.00048676686
0.00048675082
0.0004867346
0.00048671831
0.00048670206
0.00048668596
0.00048667014
0.00048665475
0.00048663993
0.00048662586
0.00048661269
0.00048660062
0.0004865898
0.00048658042
0.00048657265
0.00048656663
0.00048656252
0.00048656045
0.0004865605
0.00048656274
0.00048656721
0.00048657389
0.00048658275
0.0004865937
0.0004866066
0.00048662129
0.00048662448
0.00048661115
0.00048659982
0.00048659065
0.00048658374
0.00048657918
0.00048657699
0.00048657716
0.00048657966
0.00048658442
0.00048659133
0.00048660027
0.00048661111
0.00048662369
0.0004866379
0.00048665358
0.00048667063
0.00048668895
0.00048670848
0.0004867292
0.00048675115
0.00048677441
0.00048679919
0.00048682575
0.00048685449
0.0004868709
0.00048685332
0.00048683244
0.00048680842
0.00048678187
0.000486754
0.00048672703
0.00048670392
0.00048668869
0.00048668515
0.00048669714
0.00048672613
0.0004867729
0.00048683435
0.00048690811
0.00048698848
0.00048707188
0.00048674861
0.00048748196
0.0004870758
0.0004870752
0.00048707462
0.00048707391
0.00048707323
0.0004870724
0.0004870716
0.00048707065
0.00048706971
0.00048706861
0.00048706751
0.00048706624
0.00048706496
0.00048706348
0.00048706199
0.00048706028
0.00048705854
0.00048705657
0.00048705454
0.00048705227
0.00048704992
0.00048704729
0.00048704456
0.00048704154
0.00048703838
0.0004870349
0.00048703126
0.00048702726
0.00048702307
0.00048701848
0.00048701362
0.00048700847
0.00048700286
0.00048699697
0.00048699059
0.00048698388
0.00048697664
0.00048696904
0.00048696086
0.00048695228
0.0004869431
0.00048693343
0.00048692321
0.00048691243
0.00048690109
0.00048688917
0.00048687668
0.00048686361
0.00048684999
0.00048683582
0.00048682112
0.00048680593
0.00048679029
0.00048677425
0.00048675786
0.0004867412
0.00048672436
0.00048670743
0.00048669054
0.00048667379
0.00048665733
0.00048664131
0.0004866259
0.00048661127
0.00048659759
0.00048658508
0.0004865739
0.00048656426
0.00048655634
0.0004865503
0.00048654632
0.00048654452
0.00048654502
0.00048654788
0.00048655315
0.00048656081
0.00048657082
0.00048658309
0.00048659746
0.00048661376
0.00048661581
0.00048660102
0.00048658838
0.00048657807
0.00048657022
0.00048656492
0.0004865622
0.00048656205
0.00048656444
0.00048656928
0.00048657646
0.00048658583
0.00048659727
0.00048661059
0.00048662565
0.0004866423
0.00048666041
0.00048667987
0.00048670061
0.0004867226
0.00048674585
0.00048677045
0.00048679658
0.00048682448
0.00048685451
0.00048688387
0.00048687426
0.00048685534
0.00048683378
0.0004868102
0.00048678578
0.00048676259
0.00048674337
0.00048673178
0.00048673121
0.00048674498
0.0004867742
0.0004868191
0.00048687671
0.00048694427
0.00048701685
0.00048709088
0.00048675762
0.00048748191
0.00048707574
0.00048707513
0.00048707453
0.00048707381
0.00048707311
0.00048707228
0.00048707146
0.00048707049
0.00048706954
0.00048706841
0.0004870673
0.000487066
0.0004870647
0.0004870632
0.00048706167
0.00048705994
0.00048705817
0.00048705617
0.0004870541
0.00048705179
0.00048704939
0.00048704672
0.00048704394
0.00048704087
0.00048703765
0.00048703411
0.00048703039
0.00048702632
0.00048702204
0.00048701736
0.0004870124
0.00048700714
0.00048700141
0.00048699539
0.00048698887
0.000486982
0.0004869746
0.00048696681
0.00048695843
0.00048694963
0.00048694022
0.0004869303
0.0004869198
0.00048690872
0.00048689704
0.00048688477
0.0004868719
0.00048685843
0.00048684437
0.00048682973
0.00048681453
0.00048679881
0.00048678261
0.00048676598
0.00048674897
0.00048673167
0.00048671416
0.00048669654
0.00048667895
0.00048666149
0.00048664433
0.00048662761
0.00048661153
0.00048659626
0.00048658199
0.00048656895
0.00048655734
0.00048654735
0.0004865392
0.00048653308
0.00048652916
0.00048652759
0.0004865285
0.00048653197
0.00048653804
0.00048654671
0.00048655791
0.00048657157
0.00048658749
0.00048660548
0.00048660629
0.00048658994
0.00048657592
0.00048656442
0.00048655559
0.00048654953
0.00048654628
0.00048654583
0.00048654814
0.00048655311
0.00048656062
0.00048657051
0.00048658261
0.00048659674
0.00048661274
0.00048663043
0.00048664967
0.00048667032
0.00048669231
0.00048671559
0.00048674017
0.0004867661
0.00048679355
0.00048682271
0.00048685393
0.00048688763
0.00048689687
0.00048687985
0.0004868606
0.00048683972
0.00048681831
0.00048679829
0.00048678218
0.0004867733
0.00048677474
0.00048678932
0.00048681793
0.00048686039
0.00048691388
0.00048697548
0.00048704089
0.00048710675
0.00048676511
0.00048748188
0.00048707569
0.00048707507
0.00048707446
0.00048707373
0.00048707302
0.00048707217
0.00048707134
0.00048707036
0.00048706939
0.00048706825
0.00048706712
0.00048706581
0.00048706448
0.00048706296
0.00048706142
0.00048705966
0.00048705786
0.00048705583
0.00048705373
0.00048705138
0.00048704895
0.00048704624
0.00048704342
0.00048704029
0.00048703702
0.00048703342
0.00048702964
0.0004870255
0.00048702114
0.00048701638
0.00048701133
0.00048700597
0.00048700013
0.00048699399
0.00048698734
0.00048698033
0.00048697276
0.0004869648
0.00048695623
0.00048694722
0.00048693758
0.00048692741
0.00048691664
0.00048690526
0.00048689327
0.00048688064
0.0004868674
0.00048685351
0.00048683901
0.00048682389
0.00048680818
0.00048679191
0.00048677513
0.00048675787
0.00048674021
0.00048672223
0.000486704
0.00048668564
0.00048666729
0.00048664906
0.00048663111
0.00048661362
0.00048659678
0.00048658078
0.00048656584
0.00048655218
0.00048654003
0.00048652961
0.00048652116
0.00048651487
0.00048651094
0.00048650956
0.00048651085
0.0004865149
0.00048652178
0.00048653147
0.00048654393
0.00048655903
0.00048657659
0.0004865964
0.00048659584
0.00048657783
0.00048656234
0.00048654958
0.00048653973
0.00048653289
0.00048652912
0.00048652839
0.00048653066
0.00048653582
0.00048654372
0.00048655418
0.00048656702
0.00048658204
0.00048659904
0.00048661781
0.00048663821
0.00048666008
0.00048668332
0.00048670786
0.00048673369
0.00048676084
0.00048678946
0.00048681972
0.00048685192
0.00048688642
0.00048691559
0.00048690437
0.00048688712
0.00048686855
0.00048684966
0.00048683223
0.00048681858
0.00048681174