/*--------------------------------*- C++ -*----------------------------------*\
| =========                 |                                                 |
| \\      /  F ield         | foam-extend: Open Source CFD                    |
|  \\    /   O peration     | Version:     4.1                                |
|   \\  /    A nd           | Web:         http://www.foam-extend.org         |
|    \\/     M anipulation  |                                                 |
\*---------------------------------------------------------------------------*/
FoamFile
{
    version     2.0;
    format      ascii;
    class       volVectorField;
    location    "0.2";
    object      U;
}
// * * * * * * * * * * * * * * * * * * * * * * * * * * * * * * * * * * * * * //

dimensions      [0 1 -1 0 0 0 0];

internalField   nonuniform List<vector> 
16126
(
(0.37024684 -4.6693974e-06 0)
(0.37027358 -8.349941e-07 0)
(0.37027052 -7.3576117e-07 0)
(0.37029024 -6.7264577e-07 0)
(0.37029336 -3.2431888e-07 0)
(0.37030935 -5.3712174e-07 0)
(0.37031745 -3.0319608e-07 0)
(0.37033249 -4.5213573e-07 0)
(0.37034434 -3.3479819e-07 0)
(0.37036017 -4.2510896e-07 0)
(0.37037522 -3.8124862e-07 0)
(0.37039293 -4.4330587e-07 0)
(0.37041114 -4.4351799e-07 0)
(0.37043151 -4.9809795e-07 0)
(0.37045312 -5.2755479e-07 0)
(0.3704768 -5.8707626e-07 0)
(0.37050222 -6.3999193e-07 0)
(0.37052986 -7.1248547e-07 0)
(0.37055967 -7.8825669e-07 0)
(0.37059196 -8.8005594e-07 0)
(0.37062684 -9.8124592e-07 0)
(0.37066456 -1.0985497e-06 0)
(0.37070531 -1.2300075e-06 0)
(0.37074935 -1.3798097e-06 0)
(0.37079692 -1.5484133e-06 0)
(0.37084829 -1.7391375e-06 0)
(0.37090374 -1.9538797e-06 0)
(0.37096361 -2.1959075e-06 0)
(0.3710282 -2.4681765e-06 0)
(0.37109788 -2.7743706e-06 0)
(0.37117303 -3.118284e-06 0)
(0.37125405 -3.5046402e-06 0)
(0.37134136 -3.9377732e-06 0)
(0.37143543 -4.4234158e-06 0)
(0.37153673 -4.9672068e-06 0)
(0.37164578 -5.5757172e-06 0)
(0.37176311 -6.2558316e-06 0)
(0.3718893 -7.0153105e-06 0)
(0.37202493 -7.8622725e-06 0)
(0.37217064 -8.8057522e-06 0)
(0.37232708 -9.8551856e-06 0)
(0.37249492 -1.1020611e-05 0)
(0.37267488 -1.2313006e-05 0)
(0.37286767 -1.3743245e-05 0)
(0.37307405 -1.5323073e-05 0)
(0.37329475 -1.7064243e-05 0)
(0.37353056 -1.897873e-05 0)
(0.37378224 -2.1078263e-05 0)
(0.37405055 -2.3374132e-05 0)
(0.37433622 -2.587696e-05 0)
(0.37463997 -2.8596115e-05 0)
(0.37496248 -3.1539325e-05 0)
(0.37530435 -3.4712227e-05 0)
(0.37566613 -3.8117544e-05 0)
(0.37604825 -4.1754532e-05 0)
(0.37645105 -4.561837e-05 0)
(0.37687471 -4.9699194e-05 0)
(0.37731925 -5.3981387e-05 0)
(0.3777845 -5.8442966e-05 0)
(0.37827006 -6.3054548e-05 0)
(0.37877529 -6.7778897e-05 0)
(0.37929926 -7.2570519e-05 0)
(0.37984074 -7.737513e-05 0)
(0.38039816 -8.2129682e-05 0)
(0.3809696 -8.6762552e-05 0)
(0.38155276 -9.1194218e-05 0)
(0.38214498 -9.5338087e-05 0)
(0.38274317 -9.9101966e-05 0)
(0.38334389 -0.00010239059 0)
(0.38394332 -0.0001051079 0)
(0.3845373 -0.0001071612 0)
(0.38512138 -0.00010846528 0)
(0.3856909 -0.0001089474 0)
(0.38624104 -0.00010855181 0)
(0.38676696 -0.00010724351 0)
(0.38726391 -0.00010501027 0)
(0.38772736 -0.00010186189 0)
(0.38815312 -9.7831028e-05 0)
(0.3885375 -9.296792e-05 0)
(0.38887736 -8.7339986e-05 0)
(0.38917034 -8.1025693e-05 0)
(0.38941468 -7.407111e-05 0)
(0.3896096 -6.6615239e-05 0)
(0.3897547 -5.8578979e-05 0)
(0.38985121 -5.2168129e-05 0)
(0.38990088 -5.0615046e-05 0)
(0.38990808 -4.9066554e-05 0)
(0.38986834 -4.1995086e-05 0)
(0.38977709 -3.161807e-05 0)
(0.38963571 -2.0345453e-05 0)
(0.38944662 -8.8150211e-06 0)
(0.38921348 2.5122696e-06 0)
(0.38894069 1.3395642e-05 0)
(0.38863311 2.3645917e-05 0)
(0.38829611 3.3127783e-05 0)
(0.38793526 4.172227e-05 0)
(0.38755648 4.9353304e-05 0)
(0.38716557 5.5939857e-05 0)
(0.38676868 6.1468957e-05 0)
(0.38637127 6.5888244e-05 0)
(0.38597943 6.9282537e-05 0)
(0.38559743 7.1572739e-05 0)
(0.38523136 7.2898484e-05 0)
(0.38488326 7.2756011e-05 0)
(0.38456076 7.10853e-05 0)
(0.38426215 6.642201e-05 0)
(0.38400024 5.9875298e-05 0)
(0.3837656 4.8814873e-05 0)
(0.38359306 2.7333459e-05 0)
(0.383486 -2.3767463e-05 0)
(0.38363043 -0.00012346409 0)
(0.38420587 -0.00035426454 0)
(0.38594514 -0.00084207039 0)
(0.38966952 -0.0018357026 0)
(0.39742809 -0.0036042628 0)
(0.41096573 -0.0065747728 0)
(0.43406903 -0.010925672 0)
(0.46797654 -0.016907159 0)
(0.51735071 -0.023986497 0)
(0.57875586 -0.032287866 0)
(0.65909383 -0.040182724 0)
(0.74287326 -0.049617111 0)
(0.85427204 -0.051205279 0)
(0.9242454 -0.062765862 0)
(0.81355624 -1.681325e-05 0)
(0.81359172 -1.2053496e-05 0)
(0.81360372 -1.2563126e-05 0)
(0.81363433 -1.3063471e-05 0)
(0.81365454 -1.3538415e-05 0)
(0.81368517 -1.4817743e-05 0)
(0.81371221 -1.5694064e-05 0)
(0.81374574 -1.7167648e-05 0)
(0.8137792 -1.8421331e-05 0)
(0.81381748 -2.0059882e-05 0)
(0.81385761 -2.1646269e-05 0)
(0.81390202 -2.3499909e-05 0)
(0.81394949 -2.540799e-05 0)
(0.81400129 -2.7533461e-05 0)
(0.81405704 -2.978049e-05 0)
(0.81411752 -3.2233968e-05 0)
(0.81418275 -3.4856477e-05 0)
(0.81425331 -3.7696103e-05 0)
(0.81432945 -4.0744393e-05 0)
(0.81441166 -4.4033116e-05 0)
(0.81450034 -4.7568581e-05 0)
(0.81459599 -5.1376137e-05 0)
(0.8146991 -5.5470191e-05 0)
(0.81481022 -5.9874381e-05 0)
(0.81492991 -6.4608144e-05 0)
(0.81505879 -6.9695621e-05 0)
(0.8151975 -7.5159866e-05 0)
(0.81534673 -8.1026511e-05 0)
(0.81550721 -8.732151e-05 0)
(0.8156797 -9.4072381e-05 0)
(0.81586501 -0.00010130733 0)
(0.81606399 -0.00010905613 0)
(0.81627753 -0.00011734829 0)
(0.81650656 -0.00012621521 0)
(0.81675207 -0.00013568782 0)
(0.81701506 -0.00014579789 0)
(0.81729658 -0.00015657659 0)
(0.81759773 -0.0001680551 0)
(0.8179196 -0.00018026319 0)
(0.81826336 -0.00019322968 0)
(0.81863015 -0.00020698088 0)
(0.81902116 -0.00022154044 0)
(0.81943755 -0.00023692869 0)
(0.8198805 -0.00025316064 0)
(0.82035117 -0.00027024615 0)
(0.82085066 -0.00028818774 0)
(0.82138005 -0.00030697971 0)
(0.82194034 -0.00032660623 0)
(0.82253246 -0.00034703977 0)
(0.82315719 -0.00036823934 0)
(0.82381521 -0.00039014824 0)
(0.82450703 -0.00041269211 0)
(0.82523295 -0.00043577681 0)
(0.82599305 -0.00045928594 0)
(0.82678716 -0.00048307883 0)
(0.8276148 -0.00050698861 0)
(0.82847517 -0.00053082014 0)
(0.82936707 -0.00055434856 0)
(0.83028892 -0.00057731852 0)
(0.83123867 -0.0005994433 0)
(0.83221383 -0.00062040557 0)
(0.83321135 -0.00063985871 0)
(0.8342277 -0.00065742906 0)
(0.83525877 -0.00067271968 0)
(0.83629989 -0.00068531538 0)
(0.83734586 -0.00069478914 0)
(0.83839091 -0.00070071015 0)
(0.83942877 -0.00070265324 0)
(0.84045268 -0.00070021144 0)
(0.84145546 -0.000693009 0)
(0.8424296 -0.00068071921 0)
(0.8433673 -0.00066308297 0)
(0.84426067 -0.00063993081 0)
(0.84510178 -0.00061120388 0)
(0.84588287 -0.00057697423 0)
(0.84659655 -0.00053745971 0)
(0.84723592 -0.00049303009 0)
(0.84779484 -0.00044421089 0)
(0.8482681 -0.00039166296 0)
(0.84865155 -0.00033618564 0)
(0.84894232 -0.00027864221 0)
(0.84913879 -0.00022004616 0)
(0.84924095 -0.00016117172 0)
(0.84924942 -0.0001034785 0)
(0.84916666 -4.6324675e-05 0)
(0.84899005 1.1791527e-05 0)
(0.84871669 7.049517e-05 0)
(0.84835557 0.00012954237 0)
(0.84791797 0.00018717238 0)
(0.84741163 0.00024139224 0)
(0.84684518 0.00029123862 0)
(0.84622753 0.00033591134 0)
(0.84556824 0.00037483204 0)
(0.84487733 0.00040753595 0)
(0.8441653 0.00043369371 0)
(0.84344291 0.00045306593 0)
(0.84272133 0.00046555248 0)
(0.84201181 0.00047112917 0)
(0.84132604 0.00046996302 0)
(0.84067558 0.00046227162 0)
(0.84007271 0.00044856811 0)
(0.83952926 0.00042925998 0)
(0.83905882 0.00040518911 0)
(0.83867384 0.00037665821 0)
(0.83839138 0.00034491829 0)
(0.83822566 0.00031012346 0)
(0.83820293 0.0002727977 0)
(0.8383434 0.00022605453 0)
(0.83870278 0.00015871934 0)
(0.83932307 5.3833328e-06 0)
(0.84036634 -0.00035418421 0)
(0.84204004 -0.0011702578 0)
(0.84484668 -0.0027959352 0)
(0.84927839 -0.0057756266 0)
(0.85641342 -0.01059434 0)
(0.86684971 -0.017765165 0)
(0.88202869 -0.027136937 0)
(0.90135321 -0.038449082 0)
(0.92598474 -0.050131779 0)
(0.95165914 -0.061756744 0)
(0.98011181 -0.070239585 0)
(0.99965078 -0.078256586 0)
(1.0175175 -0.073703694 0)
(1.0121877 -0.079739606 0)
(0.96868816 -3.2102137e-05 0)
(0.96872782 -2.9357051e-05 0)
(0.96874591 -3.1199192e-05 0)
(0.96878242 -3.2964833e-05 0)
(0.96881057 -3.5177085e-05 0)
(0.96884897 -3.8163958e-05 0)
(0.96888528 -4.1079696e-05 0)
(0.96892836 -4.4667589e-05 0)
(0.96897258 -4.8276743e-05 0)
(0.96902225 -5.2413239e-05 0)
(0.9690749 -5.6715979e-05 0)
(0.96913271 -6.1473782e-05 0)
(0.96919474 -6.6513963e-05 0)
(0.96926221 -7.1997288e-05 0)
(0.96933489 -7.7854998e-05 0)
(0.96941359 -8.4182459e-05 0)
(0.96949848 -9.0965406e-05 0)
(0.96959018 -9.8268868e-05 0)
(0.96968907 -0.0001061073 0)
(0.96979575 -0.00011453343 0)
(0.96991074 -0.00012357771 0)
(0.97003465 -0.00013328942 0)
(0.9701681 -0.00014370891 0)
(0.97031178 -0.00015488623 0)
(0.97046639 -0.00016686863 0)
(0.9706327 -0.00017970871 0)
(0.97081151 -0.00019345904 0)
(0.97100365 -0.00020817528 0)
(0.97121003 -0.00022391406 0)
(0.97143158 -0.00024073382 0)
(0.97166927 -0.00025869385 0)
(0.97192415 -0.00027785461 0)
(0.97219728 -0.00029827598 0)
(0.97248978 -0.00032001858 0)
(0.9728028 -0.00034314104 0)
(0.97313753 -0.00036770099 0)
(0.9734952 -0.00039375259 0)
(0.97387707 -0.00042134684 0)
(0.9742844 -0.00045052892 0)
(0.97471848 -0.00048133814 0)
(0.9751806 -0.00051380499 0)
(0.97567206 -0.00054795026 0)
(0.97619409 -0.00058378262 0)
(0.97674794 -0.00062129595 0)
(0.97733478 -0.00066046751 0)
(0.97795571 -0.00070125451 0)
(0.97861174 -0.00074359156 0)
(0.97930377 -0.0007873871 0)
(0.98003253 -0.00083252016 0)
(0.9807986 -0.00087883684 0)
(0.98160235 -0.00092614652 0)
(0.98244392 -0.00097421825 0)
(0.98332315 -0.0010227773 0)
(0.98423961 -0.0010715014 0)
(0.98519248 -0.0011200182 0)
(0.98618058 -0.0011679025 0)
(0.9872023 -0.0012146745 0)
(0.98825555 -0.0012597988 0)
(0.98933777 -0.0013026854 0)
(0.99044586 -0.0013426911 0)
(0.99157615 -0.0013791231 0)
(0.99272443 -0.001411245 0)
(0.99388588 -0.0014382843 0)
(0.9950551 -0.0014594426 0)
(0.99622612 -0.0014739082 0)
(0.99739242 -0.0014808706 0)
(0.99854694 -0.0014795386 0)
(0.99968219 -0.0014691587 0)
(1.0007903 -0.001449039 0)
(1.001863 -0.0014185729 0)
(1.0028919 -0.0013772697 0)
(1.0038685 -0.0013247845 0)
(1.0047844 -0.0012609555 0)
(1.0056313 -0.0011858358 0)
(1.0064011 -0.0010997271 0)
(1.0070866 -0.001003201 0)
(1.0076809 -0.00089710937 0)
(1.008178 -0.00078258482 0)
(1.0085728 -0.00066101495 0)
(1.0088615 -0.00053402166 0)
(1.0090414 -0.00040338508 0)
(1.0091109 -0.00027097855 0)
(1.0090696 -0.0001385538 0)
(1.0089194 -7.3905347e-06 0)
(1.0086601 0.00012277283 0)
(1.008298 0.00025117418 0)
(1.0078437 0.00037461216 0)
(1.0073058 0.00049031042 0)
(1.0066945 0.00059699264 0)
(1.0060192 0.00069366732 0)
(1.00529 0.00077899992 0)
(1.0045178 0.00085184718 0)
(1.0037138 0.00091123789 0)
(1.0028899 0.00095635851 0)
(1.0020582 0.00098656128 0)
(1.0012315 0.0010012949 0)
(1.0004229 0.0010001361 0)
(0.99964582 0.00098268892 0)
(0.99891462 0.00094866939 0)
(0.9982442 0.00089771462 0)
(0.99765104 0.00082955543 0)
(0.99715276 0.00074350687 0)
(0.99677053 0.00063881082 0)
(0.99652786 0.00051333411 0)
(0.99645697 0.00036469203 0)
(0.99659521 0.00018698084 0)
(0.99700256 -2.5452764e-05 0)
(0.99774452 -0.00028868392 0)
(0.99893462 -0.00063193435 0)
(1.0007116 -0.0011382687 0)
(1.0032764 -0.0019539154 0)
(1.0067849 -0.0033563688 0)
(1.0114745 -0.0057138681 0)
(1.0173382 -0.0095806017 0)
(1.0244787 -0.015421702 0)
(1.0323568 -0.023696978 0)
(1.0408647 -0.034108764 0)
(1.0485547 -0.046162814 0)
(1.0555533 -0.057781075 0)
(1.0588176 -0.067974824 0)
(1.0598165 -0.072716589 0)
(1.0522149 -0.073771257 0)
(1.0408297 -0.060746127 0)
(1.0190942 -0.046667611 0)
(1.0066262 -4.7438787e-05 0)
(1.006668 -4.7472608e-05 0)
(1.0066878 -5.12139e-05 0)
(1.006727 -5.476058e-05 0)
(1.0067583 -5.9022096e-05 0)
(1.0068 -6.4007213e-05 0)
(1.0068401 -6.9201901e-05 0)
(1.0068872 -7.5147942e-05 0)
(1.0069359 -8.1353795e-05 0)
(1.0069903 -8.82415e-05 0)
(1.0070481 -9.552589e-05 0)
(1.0071115 -0.00010346936 0)
(1.0071795 -0.00011194088 0)
(1.0072534 -0.00012110076 0)
(1.007333 -0.00013090897 0)
(1.0074192 -0.0001414726 0)
(1.007512 -0.00015280201 0)
(1.0076123 -0.00016498037 0)
(1.0077204 -0.00017804639 0)
(1.007837 -0.00019207486 0)
(1.0079626 -0.00020712161 0)
(1.008098 -0.00022326088 0)
(1.0082436 -0.00024055996 0)
(1.0084004 -0.00025909613 0)
(1.008569 -0.0002789452 0)
(1.0087503 -0.00030018871 0)
(1.0089451 -0.00032290902 0)
(1.0091544 -0.00034719181 0)
(1.0093791 -0.00037312407 0)
(1.0096201 -0.0004007944 0)
(1.0098786 -0.00043029199 0)
(1.0101556 -0.00046170619 0)
(1.0104522 -0.00049512494 0)
(1.0107697 -0.00053063496 0)
(1.0111093 -0.00056831871 0)
(1.0114721 -0.00060825486 0)
(1.0118595 -0.00065051474 0)
(1.0122728 -0.0006951622 0)
(1.0127132 -0.00074224962 0)
(1.0131822 -0.00079181724 0)
(1.013681 -0.00084388864 0)
(1.0142109 -0.00089846918 0)
(1.0147731 -0.00095554155 0)
(1.015369 -0.0010150624 0)
(1.0159996 -0.0010769586 0)
(1.0166659 -0.0011411224 0)
(1.0173689 -0.0012074071 0)
(1.0181095 -0.0012756221 0)
(1.0188881 -0.0013455284 0)
(1.0197053 -0.0014168325 0)
(1.0205612 -0.0014891827 0)
(1.0214556 -0.0015621629 0)
(1.0223883 -0.0016352891 0)
(1.0233584 -0.0017080049 0)
(1.0243649 -0.0017796785 0)
(1.0254061 -0.0018496004 0)
(1.02648 -0.0019169828 0)
(1.0275841 -0.0019809601 0)
(1.0287153 -0.0020405926 0)
(1.0298701 -0.0020948711 0)
(1.0310442 -0.0021427255 0)
(1.0322329 -0.0021830357 0)
(1.0334308 -0.0022146464 0)
(1.0346319 -0.0022363844 0)
(1.0358297 -0.0022470806 0)
(1.0370172 -0.0022455943 0)
(1.0381867 -0.0022308415 0)
(1.0393304 -0.0022018246 0)
(1.04044 -0.0021576676 0)
(1.0415069 -0.0020976497 0)
(1.0425227 -0.0020212454 0)
(1.0434787 -0.0019281612 0)
(1.0443665 -0.0018183769 0)
(1.0451781 -0.0016921794 0)
(1.0459058 -0.0015501949 0)
(1.0465428 -0.0013934076 0)
(1.0470828 -0.0012231667 0)
(1.0475205 -0.0010411801 0)
(1.0478517 -0.00084948123 0)
(1.0480731 -0.00065039245 0)
(1.0481829 -0.00044643934 0)
(1.0481802 -0.00024025168 0)
(1.0480658 -3.4535965e-05 0)
(1.0478415 0.00016872033 0)
(1.0475124 0.00036656156 0)
(1.0470867 0.0005547355 0)
(1.0465722 0.0007314875 0)
(1.0459767 0.00089581714 0)
(1.0453091 0.0010455762 0)
(1.0445796 0.0011787448 0)
(1.043799 0.0012935329 0)
(1.0429786 0.0013883958 0)
(1.0421303 0.0014620604 0)
(1.0412665 0.0015134437 0)
(1.0403998 0.0015416597 0)
(1.0395434 0.0015459076 0)
(1.0387109 0.0015254801 0)
(1.0379164 0.001479607 0)
(1.0371748 0.0014074779 0)
(1.036502 0.0013079592 0)
(1.035916 0.0011796151 0)
(1.0354364 0.0010200085 0)
(1.0350872 0.00082564976 0)
(1.0348964 0.00059020356 0)
(1.0349012 0.00030454553 0)
(1.0351475 -4.7552379e-05 0)
(1.0357016 -0.00048727191 0)
(1.0366502 -0.0010550179 0)
(1.0381256 -0.0018152902 0)
(1.0402685 -0.0028778257 0)
(1.0432667 -0.0043930518 0)
(1.0472314 -0.0066096385 0)
(1.0522669 -0.0098126079 0)
(1.0581558 -0.014388976 0)
(1.0645997 -0.020577697 0)
(1.0706138 -0.028581061 0)
(1.0754373 -0.037926645 0)
(1.077328 -0.048063949 0)
(1.0760104 -0.057095577 0)
(1.06949 -0.064279185 0)
(1.0594518 -0.066233671 0)
(1.043797 -0.064778379 0)
(1.0263026 -0.052107017 0)
(1.0099953 -0.036966132 0)
(1.0137332 -6.4213028e-05 0)
(1.0137763 -6.7132628e-05 0)
(1.0137962 -7.2728649e-05 0)
(1.0138362 -7.834226e-05 0)
(1.0138681 -8.4764523e-05 0)
(1.0139107 -9.1964264e-05 0)
(1.0139518 -9.9609262e-05 0)
(1.0139999 -0.00010811726 0)
(1.0140498 -0.00011712261 0)
(1.0141054 -0.00012698197 0)
(1.0141646 -0.0001374807 0)
(1.0142294 -0.00014885926 0)
(1.014299 -0.00016102891 0)
(1.0143745 -0.00017415105 0)
(1.0144559 -0.00018821606 0)
(1.014544 -0.00020334391 0)
(1.014639 -0.00021957144 0)
(1.0147415 -0.00023700123 0)
(1.014852 -0.00025569805 0)
(1.0149712 -0.00027576032 0)
(1.0150995 -0.00029727099 0)
(1.0152378 -0.00032033095 0)
(1.0153866 -0.00034503628 0)
(1.0155468 -0.00037149323 0)
(1.0157191 -0.00039980803 0)
(1.0159043 -0.00043009295 0)
(1.0161033 -0.00046246197 0)
(1.016317 -0.00049703251 0)
(1.0165465 -0.00053392363 0)
(1.0167926 -0.00057325564 0)
(1.0170566 -0.00061514913 0)
(1.0173394 -0.0006597236 0)
(1.0176423 -0.00070709609 0)
(1.0179664 -0.00075738024 0)
(1.0183129 -0.0008106828 0)
(1.0186833 -0.00086710354 0)
(1.0190786 -0.00092673058 0)
(1.0195003 -0.00098963969 0)
(1.0199497 -0.0010558889 0)
(1.0204281 -0.0011255172 0)
(1.0209368 -0.0011985381 0)
(1.0214772 -0.0012749377 0)
(1.0220505 -0.0013546676 0)
(1.0226579 -0.0014376414 0)
(1.0233006 -0.0015237283 0)
(1.0239796 -0.0016127468 0)
(1.0246958 -0.0017044595 0)
(1.02545 -0.0017985653 0)
(1.0262429 -0.0018946939 0)
(1.0270747 -0.0019923986 0)
(1.0279457 -0.0020911499 0)
(1.0288556 -0.0021903296 0)
(1.029804 -0.0022892254 0)
(1.0307902 -0.0023870261 0)
(1.0318128 -0.0024828191 0)
(1.0328702 -0.0025755877 0)
(1.0339604 -0.0026642125 0)
(1.0350805 -0.0027474737 0)
(1.0362275 -0.0028240577 0)
(1.0373976 -0.0028925651 0)
(1.0385865 -0.0029515254 0)
(1.0397891 -0.0029994127 0)
(1.041 -0.0030346686 0)
(1.042213 -0.0030557278 0)
(1.0434213 -0.0030610495 0)
(1.0446178 -0.0030491517 0)
(1.0457946 -0.0030186519 0)
(1.0469437 -0.002968308 0)
(1.0480565 -0.0028970657 0)
(1.0491245 -0.002804104 0)
(1.0501388 -0.0026888863 0)
(1.0510908 -0.0025512056 0)
(1.051972 -0.0023912334 0)
(1.0527744 -0.0022095556 0)
(1.0534903 -0.0020072067 0)
(1.0541129 -0.0017856829 0)
(1.0546361 -0.0015469437 0)
(1.0550549 -0.0012933938 0)
(1.0553652 -0.0010278376 0)
(1.0555644 -0.00075343524 0)
(1.055651 -0.00047359747 0)
(1.0556249 -0.00019195479 0)
(1.0554875 8.7883054e-05 0)
(1.0552417 0.00036201169 0)
(1.0548932 0.00062664058 0)
(1.0544474 0.00087860379 0)
(1.0539108 0.0011147653 0)
(1.053292 0.0013319912 0)
(1.0526005 0.0015276572 0)
(1.0518468 0.0016993989 0)
(1.0510419 0.001845056 0)
(1.0501974 0.0019627463 0)
(1.0493254 0.0020508785 0)
(1.0484386 0.0021080683 0)
(1.0475497 0.0021331374 0)
(1.0466722 0.0021249563 0)
(1.0458198 0.002082422 0)
(1.0450069 0.0020042294 0)
(1.0442486 0.001888822 0)
(1.0435613 0.0017340023 0)
(1.0429633 0.0015368046 0)
(1.042475 0.0012926426 0)
(1.0421215 0.00099496417 0)
(1.0419316 0.00063324641 0)
(1.0419437 0.00019226346 0)
(1.0422031 -0.00035213415 0)
(1.0427739 -0.0010348264 0)
(1.0437328 -0.0019110451 0)
(1.0451837 -0.0030530293 0)
(1.0472231 -0.0045732678 0)
(1.0499707 -0.006611486 0)
(1.0534562 -0.0093658949 0)
(1.0576736 -0.013023276 0)
(1.0623219 -0.017810906 0)
(1.0670183 -0.023775798 0)
(1.0708241 -0.030921313 0)
(1.0730128 -0.038677958 0)
(1.0721665 -0.046501143 0)
(1.0681295 -0.052732988 0)
(1.0597137 -0.056806352 0)
(1.0485098 -0.055974997 0)
(1.0339617 -0.051689481 0)
(1.0186386 -0.039029904 0)
(1.0063549 -0.023566609 0)
(1.0148091 -8.0601927e-05 0)
(1.0148522 -8.6137678e-05 0)
(1.0148717 -9.3488659e-05 0)
(1.0149116 -0.00010122518 0)
(1.0149432 -0.00010975234 0)
(1.0149857 -0.00011917437 0)
(1.0150266 -0.00012920889 0)
(1.0150746 -0.00014023892 0)
(1.0151244 -0.0001519718 0)
(1.0151799 -0.00016473518 0)
(1.0152389 -0.00017836415 0)
(1.0153036 -0.00019309133 0)
(1.015373 -0.0002088618 0)
(1.0154484 -0.00022584338 0)
(1.0155297 -0.00024405315 0)
(1.0156176 -0.00026362584 0)
(1.0157124 -0.00028462287 0)
(1.0158147 -0.0003071667 0)
(1.015925 -0.00033134699 0)
(1.016044 -0.00035728555 0)
(1.0161721 -0.00038509165 0)
(1.0163102 -0.0004148923 0)
(1.0164588 -0.0004468116 0)
(1.0166187 -0.00048098416 0)
(1.0167907 -0.00051754583 0)
(1.0169757 -0.00055663895 0)
(1.0171744 -0.00059840835 0)
(1.0173879 -0.00064300247 0)
(1.0176171 -0.00069057172 0)
(1.017863 -0.00074126738 0)
(1.0181268 -0.00079524076 0)
(1.0184094 -0.00085264087 0)
(1.0187121 -0.0009136132 0)
(1.019036 -0.00097829778 0)
(1.0193825 -0.0010468252 0)
(1.0197528 -0.0011193158 0)
(1.0201481 -0.0011958743 0)
(1.0205699 -0.0012765883 0)
(1.0210195 -0.0013615213 0)
(1.0214982 -0.0014507111 0)
(1.0220073 -0.0015441617 0)
(1.0225483 -0.0016418403 0)
(1.0231223 -0.0017436683 0)
(1.0237307 -0.0018495171 0)
(1.0243745 -0.0019591994 0)
(1.025055 -0.0020724621 0)
(1.0257729 -0.002188978 0)
(1.0265292 -0.0023083384 0)
(1.0273244 -0.0024300442 0)
(1.028159 -0.0025534978 0)
(1.0290332 -0.0026779956 0)
(1.0299468 -0.0028027206 0)
(1.0308995 -0.0029267358 0)
(1.0318904 -0.0030489797 0)
(1.0329183 -0.0031682627 0)
(1.0339817 -0.0032832659 0)
(1.0350785 -0.003392543 0)
(1.0362059 -0.0034945248 0)
(1.0373609 -0.0035875284 0)
(1.0385397 -0.0036697697 0)
(1.0397379 -0.0037393824 0)
(1.0409506 -0.00379444 0)
(1.0421721 -0.0038329863 0)
(1.0433963 -0.0038530686 0)
(1.0446163 -0.0038527799 0)
(1.0458249 -0.003830303 0)
(1.0470141 -0.0037839634 0)
(1.0481756 -0.0037122813 0)
(1.0493009 -0.0036140327 0)
(1.0503811 -0.0034883043 0)
(1.0514072 -0.0033345571 0)
(1.0523703 -0.0031526774 0)
(1.0532617 -0.0029430334 0)
(1.0540732 -0.002706511 0)
(1.0547968 -0.0024445505 0)
(1.0554254 -0.0021591542 0)
(1.055953 -0.001852885 0)
(1.0563741 -0.0015288388 0)
(1.0566849 -0.0011905926 0)
(1.0568824 -0.00084214391 0)
(1.0569653 -0.00048780543 0)
(1.0569337 -0.00013213448 0)
(1.056789 0.00022019823 0)
(1.0565344 0.00056434689 0)
(1.0561744 0.00089553691 0)
(1.0557148 0.0012092461 0)
(1.0551629 0.001501741 0)
(1.0545271 0.0017696416 0)
(1.053817 0.0020096219 0)
(1.0530431 0.0022186957 0)
(1.0522167 0.0023942449 0)
(1.0513495 0.0025340083 0)
(1.0504539 0.0026361115 0)
(1.0495426 0.0026989257 0)
(1.0486286 0.0027210644 0)
(1.0477251 0.0027011675 0)
(1.0468458 0.0026378533 0)
(1.0460046 0.0025294125 0)
(1.0452164 0.0023736887 0)
(1.0444966 0.0021675727 0)
(1.0438625 0.001906725 0)
(1.0433328 0.0015845453 0)
(1.0429301 0.0011915471 0)
(1.0426796 0.00071309181 0)
(1.0426139 0.00012827586 0)
(1.0427698 -0.00059483608 0)
(1.0431969 -0.0015003118 0)
(1.0439471 -0.0026525913 0)
(1.0450886 -0.0041336045 0)
(1.0466741 -0.0060547558 0)
(1.0487607 -0.0085350257 0)
(1.0513168 -0.01171956 0)
(1.0542742 -0.015703983 0)
(1.057323 -0.020575011 0)
(1.0601055 -0.026224162 0)
(1.0618468 -0.032503756 0)
(1.0619877 -0.03881313 0)
(1.0594871 -0.044685118 0)
(1.0543262 -0.048825686 0)
(1.0458707 -0.050966313 0)
(1.0354651 -0.049098018 0)
(1.0234433 -0.044410933 0)
(1.0115332 -0.033415656 0)
(1.003396 -0.019409116 0)
(1.0149417 -9.7468817e-05 0)
(1.0149846 -0.0001054528 0)
(1.0150036 -0.00011455811 0)
(1.0150432 -0.00012447521 0)
(1.0150743 -0.00013511635 0)
(1.0151162 -0.00014682804 0)
(1.0151566 -0.00015928788 0)
(1.0152041 -0.00017290068 0)
(1.0152532 -0.00018741096 0)
(1.0153081 -0.00020313907 0)
(1.0153665 -0.00021995775 0)
(1.0154304 -0.00023809965 0)
(1.0154991 -0.00025753994 0)
(1.0155737 -0.0002784559 0)
(1.0156541 -0.00030089043 0)
(1.0157411 -0.00032499442 0)
(1.0158349 -0.00035085402 0)
(1.0159362 -0.00037861245 0)
(1.0160454 -0.00040838481 0)
(1.0161631 -0.00044031714 0)
(1.01629 -0.00047454569 0)
(1.0164267 -0.00051122452 0)
(1.0165738 -0.0005505066 0)
(1.0167322 -0.00059255589 0)
(1.0169026 -0.00063753893 0)
(1.0170858 -0.00068562921 0)
(1.0172828 -0.00073700364 0)
(1.0174944 -0.00079184299 0)
(1.0177216 -0.00085033037 0)
(1.0179654 -0.00091264956 0)
(1.0182269 -0.00097898414 0)
(1.0185073 -0.0010495143 0)
(1.0188076 -0.0011244159 0)
(1.0191291 -0.001203857 0)
(1.0194731 -0.0012879941 0)
(1.0198408 -0.0013769704 0)
(1.0202335 -0.0014709092 0)
(1.0206527 -0.0015699119 0)
(1.0210996 -0.00167405 0)
(1.0215756 -0.0017833626 0)
(1.0220822 -0.0018978461 0)
(1.0226206 -0.0020174512 0)
(1.0231922 -0.0021420715 0)
(1.0237983 -0.0022715379 0)
(1.0244401 -0.0024056089 0)
(1.0251187 -0.0025439607 0)
(1.025835 -0.0026861786 0)
(1.0265901 -0.0028317462 0)
(1.0273846 -0.0029800362 0)
(1.0282189 -0.0031302998 0)
(1.0290934 -0.0032816579 0)
(1.030008 -0.003433092 0)
(1.0309624 -0.0035834375 0)
(1.0319558 -0.0037313771 0)
(1.0329872 -0.003875438 0)
(1.0340551 -0.0040139905 0)
(1.0351573 -0.0041452509 0)
(1.0362915 -0.0042672877 0)
(1.0374544 -0.0043780337 0)
(1.0386425 -0.0044753019 0)
(1.0398512 -0.0045568095 0)
(1.0410758 -0.0046202058 0)
(1.0423106 -0.0046631101 0)
(1.0435494 -0.0046831534 0)
(1.0447853 -0.0046780307 0)
(1.0460108 -0.0046455561 0)
(1.047218 -0.0045837276 0)
(1.0483985 -0.004490792 0)
(1.0495432 -0.0043653199 0)
(1.0506433 -0.0042062724 0)
(1.0516893 -0.0040130784 0)
(1.0526721 -0.0037856949 0)
(1.0535826 -0.0035246735 0)
(1.0544121 -0.0032312002 0)
(1.0551523 -0.0029071361 0)
(1.0557958 -0.0025550213 0)
(1.056336 -0.0021780704 0)
(1.0567674 -0.0017801338 0)
(1.0570855 -0.0013656341 0)
(1.0572874 -0.00093949321 0)
(1.0573716 -0.0005070017 0)
(1.0573379 -7.3750781e-05 0)
(1.0571881 0.00035456648 0)
(1.0569251 0.00077212373 0)
(1.0565536 0.001173371 0)
(1.0560795 0.0015531102 0)
(1.0555099 0.0019064535 0)
(1.0548538 0.0022288834 0)
(1.0541211 0.0025164216 0)
(1.0533227 0.002765529 0)
(1.05247 0.002973181 0)
(1.0515752 0.00313677 0)
(1.0506509 0.0032541629 0)
(1.04971 0.0033235042 0)
(1.0487656 0.0033432255 0)
(1.047831 0.0033117666 0)
(1.0469198 0.0032275179 0)
(1.0460458 0.0030884439 0)
(1.0452235 0.0028919256 0)
(1.0444678 0.0026341778 0)
(1.043795 0.0023099013 0)
(1.0432224 0.001911191 0)
(1.0427702 0.001426814 0)
(1.0424602 0.00083997989 0)
(1.0423189 0.00012713239 0)
(1.0423745 -0.00074635562 0)
(1.042662 -0.0018270213 0)
(1.0432126 -0.0031796463 0)
(1.0440636 -0.0048816805 0)
(1.0452275 -0.0070317832 0)
(1.0467114 -0.0097241065 0)
(1.0484404 -0.013056341 0)
(1.0503103 -0.017056555 0)
(1.0520318 -0.021717907 0)
(1.0533083 -0.026841697 0)
(1.0535536 -0.032196954 0)
(1.0524017 -0.037190176 0)
(1.0491605 -0.041405421 0)
(1.0439211 -0.043804014 0)
(1.0363633 -0.0442471 0)
(1.0274837 -0.041291824 0)
(1.0177865 -0.035907181 0)
(1.0083204 -0.026078107 0)
(1.0021895 -0.01407711 0)
(1.014951 -0.00011383552 0)
(1.0149935 -0.00012403677 0)
(1.0150119 -0.00013480706 0)
(1.0150509 -0.00014684413 0)
(1.0150814 -0.00015952005 0)
(1.0151227 -0.00017347054 0)
(1.0151624 -0.000188273 0)
(1.0152092 -0.00020439617 0)
(1.0152576 -0.00022159001 0)
(1.0153116 -0.00024018898 0)
(1.0153692 -0.00026008929 0)
(1.0154322 -0.00028153281 0)
(1.0154999 -0.00030451868 0)
(1.0155734 -0.00032923718 0)
(1.0156527 -0.00035575426 0)
(1.0157385 -0.00038423812 0)
(1.015831 -0.00041479817 0)
(1.0159309 -0.00044759856 0)
(1.0160386 -0.00048277889 0)
(1.0161547 -0.00052050919 0)
(1.0162799 -0.000560952 0)
(1.0164148 -0.00060428802 0)
(1.0165601 -0.00065069853 0)
(1.0167164 -0.00070037641 0)
(1.0168847 -0.00075351842 0)
(1.0170657 -0.00081032888 0)
(1.0172602 -0.00087101645 0)
(1.0174693 -0.000935794 0)
(1.0176938 -0.0010048773 0)
(1.0179349 -0.0010784825 0)
(1.0181935 -0.0011568257 0)
(1.0184709 -0.0012401186 0)
(1.018768 -0.0013285678 0)
(1.0190863 -0.0014223704 0)
(1.0194269 -0.0015217096 0)
(1.0197911 -0.0016267527 0)
(1.0201804 -0.0017376432 0)
(1.0205959 -0.0018544984 0)
(1.0210392 -0.0019774001 0)
(1.0215116 -0.002106391 0)
(1.0220146 -0.0022414635 0)
(1.0225494 -0.0023825552 0)
(1.0231176 -0.0025295357 0)
(1.0237204 -0.0026822006 0)
(1.0243591 -0.0028402584 0)
(1.0250349 -0.0030033208 0)
(1.0257488 -0.0031708908 0)
(1.0265018 -0.003342351 0)
(1.0272947 -0.0035169522 0)
(1.0281281 -0.003693801 0)
(1.0290023 -0.0038718497 0)
(1.0299174 -0.0040498853 0)
(1.0308731 -0.0042265216 0)
(1.031869 -0.0044001919 0)
(1.0329039 -0.0045691453 0)
(1.0339765 -0.0047314457 0)
(1.0350849 -0.0048849749 0)
(1.0362266 -0.005027441 0)
(1.0373985 -0.0051563921 0)
(1.0385972 -0.0052692361 0)
(1.0398182 -0.0053632691 0)
(1.0410568 -0.0054357091 0)
(1.0423073 -0.0054837414 0)
(1.0435634 -0.0055045687 0)
(1.0448182 -0.0054954735 0)
(1.0460641 -0.005453884 0)
(1.0472931 -0.0053774526 0)
(1.0484963 -0.0052641324 0)
(1.0496648 -0.0051122674 0)
(1.050789 -0.0049206715 0)
(1.0518595 -0.0046887197 0)
(1.0528664 -0.0044164176 0)
(1.0538005 -0.0041044799 0)
(1.0546523 -0.0037543728 0)
(1.0554134 -0.0033683614 0)
(1.0560756 -0.0029495101 0)
(1.0566319 -0.0025016779 0)
(1.0570765 -0.0020294687 0)
(1.0574044 -0.0015381598 0)
(1.0576125 -0.0010336109 0)
(1.0576988 -0.00052211966 0)
(1.0576634 -1.0325385e-05 0)
(1.0575076 0.000495004 0)
(1.0572345 0.00098702939 0)
(1.0568489 0.0014591257 0)
(1.056357 0.0019049922 0)
(1.0557665 0.0023189584 0)
(1.0550866 0.0026958155 0)
(1.0543273 0.0030309179 0)
(1.0534999 0.0033201529 0)
(1.0526162 0.0035600658 0)
(1.0516887 0.0037477081 0)
(1.0507302 0.0038807266 0)
(1.0497537 0.0039570982 0)
(1.0487724 0.0039751567 0)
(1.0477996 0.0039332396 0)
(1.0468486 0.0038296305 0)
(1.0459328 0.0036621021 0)
(1.0450656 0.0034277327 0)
(1.044261 0.0031222405 0)
(1.0435335 0.002739579 0)
(1.042898 0.0022707805 0)
(1.0423711 0.0017031675 0)
(1.0419699 0.0010181661 0)
(1.0417139 0.00019014474 0)
(1.0416219 -0.00081743684 0)
(1.0417155 -0.0020522477 0)
(1.0420087 -0.003577881 0)
(1.0425157 -0.0054672515 0)
(1.0432244 -0.0078056555 0)
(1.0441125 -0.01066295 0)
(1.045087 -0.01409585 0)
(1.0460332 -0.018079174 0)
(1.0466971 -0.0225373 0)
(1.0468393 -0.027216198 0)
(1.0460206 -0.031841609 0)
(1.0440054 -0.035863033 0)
(1.0403456 -0.038936608 0)
(1.0351874 -0.040271893 0)
(1.0284377 -0.039843721 0)
(1.0208695 -0.036639503 0)
(1.0131112 -0.031384987 0)
(1.005845 -0.022741168 0)
(1.0013879 -0.012060546 0)
(1.0149453 -0.00013028262 0)
(1.014987 -0.000142609 0)
(1.015005 -0.00015508086 0)
(1.0150433 -0.00016923965 0)
(1.0150732 -0.00018395568 0)
(1.0151137 -0.0002001654 0)
(1.0151527 -0.00021731934 0)
(1.0151985 -0.00023597352 0)
(1.0152461 -0.0002558645 0)
(1.0152992 -0.00027735392 0)
(1.0153557 -0.00030035286 0)
(1.0154176 -0.0003251183 0)
(1.0154841 -0.00035167005 0)
(1.0155564 -0.00038021396 0)
(1.0156343 -0.00041083793 0)
(1.0157186 -0.00044372872 0)
(1.0158095 -0.00047901882 0)
(1.0159077 -0.00051689409 0)
(1.0160137 -0.00055751888 0)
(1.0161279 -0.00060108781 0)
(1.0162511 -0.00064779025 0)
(1.0163838 -0.00069783416 0)
(1.0165268 -0.00075142982 0)
(1.0166807 -0.00080879985 0)
(1.0168464 -0.00087017207 0)
(1.0170247 -0.00093578262 0)
(1.0172163 -0.001005873 0)
(1.0174224 -0.0010806893 0)
(1.0176437 -0.0011604813 0)
(1.0178814 -0.0012454992 0)
(1.0181366 -0.001335993 0)
(1.0184102 -0.0014322079 0)
(1.0187036 -0.0015343831 0)
(1.019018 -0.0016427469 0)
(1.0193545 -0.0017575117 0)