/*--------------------------------*- C++ -*----------------------------------*\
| =========                 |                                                 |
| \\      /  F ield         | foam-extend: Open Source CFD                    |
|  \\    /   O peration     | Version:     4.1                                |
|   \\  /    A nd           | Web:         http://www.foam-extend.org         |
|    \\/     M anipulation  |                                                 |
\*---------------------------------------------------------------------------*/
FoamFile
{
    version     2.0;
    format      ascii;
    class       volScalarField;
    location    "2";
    object      p;
}
// * * * * * * * * * * * * * * * * * * * * * * * * * * * * * * * * * * * * * //

dimensions      [0 2 -2 0 0 0 0];

internalField   nonuniform List<scalar> 
4393
(
-46.418265
-92.981786
-146.74656
-201.53762
-258.52839
-318.02955
-380.42406
-446.02146
-515.04601
-587.60787
-663.67498
-743.04493
-825.31962
-909.88645
-995.91018
-1082.3383
-1167.9202
-1251.2384
-1330.7461
-1404.8058
-1471.7263
-1529.7971
-1577.3236
-1612.6681
-1634.303
-1640.8852
-1631.3603
-1605.1085
-1562.0228
-1502.6037
-1428.0622
-1340.3038
-1241.823
-1135.5203
-1024.4763
-911.72558
-800.06761
-691.93503
-589.32497
-493.78562
-406.44438
-328.06236
-259.10009
-199.78342
-150.17372
-110.23999
-79.762904
-57.831961
-43.627664
-45.1661
-92.395966
-146.03398
-200.67381
-257.49546
-316.84183
-379.1095
-444.62009
-513.6097
-586.20054
-662.37218
-741.93225
-824.48971
-909.43444
-995.928
-1082.9088
-1169.1127
-1253.1058
-1333.3243
-1408.1148
-1475.7715
-1534.5693
-1582.7971
-1618.7952
-1641.0073
-1648.0566
-1638.8536
-1612.7035
-1569.4358
-1509.5438
-1434.2445
-1345.4782
-1245.8051
-1138.2114
-1025.8677
-911.88846
-799.13338
-690.07169
-586.71496
-490.60798
-402.8625
-324.21704
-255.10951
-195.75292
-146.20016
-106.35988
-75.961245
-54.86231
-44.264139
-44.361862
-91.499213
-144.7757
-199.05475
-255.52557
-314.56071
-376.57884
-441.92387
-510.85504
-583.51824
-659.91589
-739.87525
-823.01862
-908.73973
-996.19219
-1084.2945
-1171.753
-1257.0994
-1338.7351
-1414.9748
-1484.0841
-1544.3099
-1593.9089
-1631.1782
-1654.501
-1662.4206
-1653.7588
-1627.7378
-1584.0953
-1523.253
-1446.4218
-1355.6116
-1253.519
-1143.3088
-1028.3377
-911.88352
-796.92594
-686.00464
-581.1553
-483.91016
-395.34338
-316.14182
-246.68955
-187.15595
-137.55042
-97.687591
-67.257482
-46.702557
-37.920028
-43.571142
-90.203467
-142.87198
-196.57251
-252.49931
-311.05353
-372.68267
-437.76261
-506.58738
-579.33939
-656.05688
-736.59853
-820.60875
-907.48878
-996.38109
-1086.1738
-1175.5277
-1262.9211
-1346.7023
-1425.1385
-1496.4544
-1558.8581
-1610.562
-1649.8026
-1674.8747
-1684.1993
-1676.452
-1650.7039
-1606.5447
-1544.2891
-1465.1352
-1371.1989
-1265.3937
-1151.1692
-1032.1785
-911.95572
-793.66679
-679.95713
-572.89514
-473.98926
-384.25239
-304.29067
-234.40438
-174.68767
-125.07489
-85.291059
-55.021871
-34.93392
-26.789796
-42.746008
-88.586046
-140.40158
-193.29781
-248.47658
-306.3699
-367.46074
-432.1665
-500.8278
-573.67696
-650.80199
-732.10616
-817.26615
-905.69519
-996.521
-1088.5889
-1180.4945
-1270.6402
-1357.3004
-1438.6789
-1512.948
-1578.2699
-1632.8041
-1674.7129
-1702.178
-1713.4586
-1707.0289
-1681.7388
-1636.9527
-1572.8174
-1490.4974
-1392.2534
-1281.3114
-1161.5345
-1037.0024
-911.61299
-788.78866
-671.31342
-561.28991
-460.18268
-368.91127
-287.96511
-217.52548
-157.57732
-107.95333
-68.296265
-38.299412
-18.683053
-10.926644
-41.737431
-86.536857
-137.25303
-189.11394
-243.33033
-300.36936
-360.7568
-424.96182
-493.38466
-566.32276
-643.93053
-726.17211
-812.77002
-903.15663
-996.442
-1091.414
-1186.5791
-1280.2366
-1370.5623
-1455.6795
-1533.7001
-1602.7366
-1660.8933
-1706.2489
-1736.8499
-1750.7503
-1746.1562
-1721.6149
-1676.1687
-1609.7095
-1523.3299
-1419.477
-1301.8086
-1174.7656
-1043.0175
-910.95434
-782.33287
-660.10515
-546.39973
-442.60487
-349.50276
-267.4193
-196.37192
-136.19475
-86.58638
-47.090105
-17.368355
1.8956956
9.4345181
-40.5955
-84.127141
-133.49114
-184.07002
-237.08786
-293.05294
-352.54152
-416.08538
-484.15849
-557.1406
-635.272
-718.59795
-806.90483
-899.65509
-995.9393
-1094.4702
-1193.6348
-1291.5938
-1386.3951
-1476.0637
-1558.6461
-1632.2096
-1694.81
-1744.4433
-1779.0047
-1796.301
-1794.1934
-1770.8247
-1724.7861
-1655.5859
-1564.176
-1453.2318
-1326.9985
-1190.7116
-1049.841
-909.42563
-773.64316
-645.63629
-527.53679
-420.60837
-325.43819
-242.13223
-170.49383
-110.16461
-60.679479
-21.460347
7.9044612
26.824028
34.191292
-39.185998
-81.20552
-128.9564
-178.00154
-229.57695
-284.23725
-342.6168
-405.32122
-472.9136
-545.8756
-624.55649
-709.10794
-799.40433
-894.9547
-994.83021
-1097.6466
-1201.6304
-1304.757
-1404.9086
-1499.9921
-1587.9887
-1666.9346
-1734.8565
-1789.681
-1829.1465
-1850.7723
-1851.9885
-1830.4101
-1784.0051
-1711.7089
-1614.2139
-1494.463
-1357.4971
-1209.6428
-1057.4491
-906.79851
-762.38282
-627.54391
-504.37018
-393.9277
-296.52998
-211.99115
-139.84047
-79.481012
-30.252826
8.5660157
37.490517
56.044153
63.248909
-37.653439
-77.930907
-123.79682
-171.03279
-220.89015
-273.97543
-330.98865
-392.62099
-459.54153
-532.3564
-611.55181
-697.41809
-789.9509
-888.73162
-992.81672
-1100.6981
-1210.3872
-1319.61
-1426.0326
-1527.4227
-1621.7031
-1706.9069
-1781.0684
-1842.0768
-1887.5228
-1914.6047
-1920.2261
-1901.3231
-1855.0118
-1779.3758
-1674.6453
-1544.0577
-1393.7391
-1231.5239
-1065.4177
-902.39092
-747.74672
-605.01048
-476.14618
-361.91626
-262.25622
-176.59906
-104.13008
-43.962853
4.7917042
43.024032
71.375141
89.494468
96.51728
-35.748805
-74.004797
-117.69202
-162.83147
-210.68177
-261.90415
-317.27065
-377.56951
-443.59398
-516.10024
-595.74464
-682.99652
-778.01773
-880.50088
-989.49978
-1103.3487
-1219.7669
-1336.1395
-1449.8469
-1558.4919
-1659.9567
-1752.3183
-1833.6801
-1901.9525
-1954.6109
-1988.5127
-1999.9351
-1984.955
-1939.54
-1860.5123
-1747.2971
-1603.4216
-1436.5072
-1256.5006
-1073.3826
-895.5185
-728.91324
-577.2175
-442.13757
-323.98063
-222.16695
-135.63918
-63.1592
-3.4977112
44.496905
81.904737
109.50785
127.08926
133.89297
-33.798624
-69.80621
-111.02784
-153.76785
-199.29473
-248.32723
-301.71444
-360.35239
-425.17727
-497.12396
-577.0581
-665.67844
-763.374
-870.00841
-984.66001
-1105.466
-1229.746
-1354.4135
-1476.4671
-1593.317
-1702.8399
-1803.231
-1892.756
-1969.4398
-2030.7074
-2073.0753
-2092.1035
-2082.7926
-2039.5854
-1957.4485
-1834.424
-1674.2471
-1486.634
-1284.5441
-1080.6572
-885.11579
-704.69035
-543.02716
-401.36475
-279.34191
-175.68556
-88.716239
-16.683502
42.039818
88.898813
125.17913
151.81162
168.71754
175.2503
-31.322719
-64.748323
-103.16392
-143.16704
-186.01785
-232.49036
-283.51335
-340.10033
-403.35014
-474.40898
-554.39847
-644.30953
-744.84082
-856.11837
-977.29895
-1106.2775
-1239.8195
-1374.1692
-1505.8012
-1631.8962
-1750.3823
-1859.6799
-1958.3488
-2044.6711
-2116.1354
-2168.9571
-2197.9196
-2196.6906
-2157.7324
-2073.3252
-1939.1481
-1758.8894
-1545.2548
-1315.6014
-1086.3274
-869.81826
-673.60656
-501.08665
-352.70757
-227.14565
-122.20826
-35.439431
35.518637
92.743303
137.99773
172.78117
198.17338
214.23538
220.43291
-28.935342
-59.574985
-94.89802
-131.8468
-171.67516
-215.21012
-263.4596
-317.5606
-378.79194
-448.54469
-528.24811
-619.25836
-722.6893
-839.06413
-967.71659
-1106.253
-1250.6593
-1396.2151
-1538.6633
-1674.9217
-1803.0776
-1921.945
-2030.5691
-2127.6996
-2211.0798
-2276.7103
-2318.5363
-2328.6703
-2297.0934
-2212.192
-2065.6517
-1860.485
-1613.7491
-1349.4067
-1089.0109
-847.73814
-633.73443
-449.70485
-294.82701
-166.41667
-61.081146
24.586285
93.646113
148.66964
191.75138
224.60093
248.43771
263.45936
269.24655
-25.834174
-53.293385
-85.133275
-118.63351
-155.00876
-195.12754
-240.07102
-291.1018
-349.69455
-417.52227
-496.38334
-588.08825
-694.30514
-816.16054
-953.35326
-1103.1785
-1260.5218
-1419.247
-1574.0531
-1721.5572
-1860.1743
-1989.336
-2108.7967
-2218.0397
-2315.3459
-2396.6698
-2455.0968
-2481.0197
-2461.4974
-2379.4187
-2219.7579
-1983.4122
-1693.8845
-1385.4097
-1086.7043
-816.3323
-582.61585
-386.83306
-226.18334
-96.095527
8.3589503
91.723018
157.84502
209.81645
250.0587
280.47339
302.39886
316.15993
321.45272
-22.988263
-47.105581
-75.194195
-104.931
-137.4925
-173.77992
-214.93899
-262.3544
-317.7062
-382.9836
-460.41843
-552.36991
-661.22068
-788.98776
-936.05517
-1099.424
-1272.386
-1446.6587
-1615.3974
-1774.8819
-1924.1579
-2063.6283
-2194.0744
-2316.1131
-2429.0545
-2529.1505
-2608.6683
-2656.173
-2655.5152
-2582.0932
-2409.6773
-2133.8908
-1787.878
-1422.5326
-1076.45
-772.13811
-517.10617
-310.00205
-145.03249
-15.064268
86.749243
166.26596
228.18031
276.10033
312.74423
340.16756
359.79316
372.05554
376.76338
-19.233993
-39.5661
-63.48393
-89.028604
-117.28544
-149.16088
-185.8417
-228.81595
-279.96324
-341.6148
-416.50476
-507.64518
-618.31811
-751.84269
-909.86966
-1089.2873
-1281.105
-1473.7724
-1658.1736
-1830.2915
-1990.3737
-2140.3273
-2282.2795
-2418.371
-2549.5395
-2672.7613
-2779.482
-2856.4145
-2884.436
-2829.56
-2647.2458
-2321.0869
-1898.5223
-1458.8315
-1053.8854
-710.45771
-433.22503
-216.29666
-49.466629
77.78997
174.63851
248.39207
304.59772
347.33053
379.54066
403.37545
420.29203
430.8079
434.83695
-15.90955
-32.367216
-51.889399
-72.946086
-96.528013
-123.52988
-155.16102
-192.99608
-239.10665
-296.19269
-367.57379
-457.02989
-568.92156
-708.39572
-879.33999
-1079.0095
-1295.0588
-1510.7434
-1713.4125
-1898.7623
-2069.1468
-2228.6983
-2381.1214
-2530.4771
-2680.3853
-2829.6035
-2969.1764
-3084.3377
-3154.0986
-3134.0108
-2949.9598
-2559.1604
-2029.2974
-1490.9052
-1012.5342
-624.9243
-325.99128
-102.36306
62.502899
183.47693
272.40213
338.09635
386.88004
423.18072
450.07173
469.70221
483.49666
492.01912
495.2764
-11.483923
-23.591234
-38.294649
-54.4386
-72.84805
-94.363134
-120.16987
-151.87503
-191.68056
-242.6193
-308.6367
-394.36241
-505.3329
-649.10786
-833.41818
-1057.1179
-1303.0123
-1546.0296
-1768.1206
-1964.9806
-2142.974
-2309.8845
-2471.3077
-2633.6115
-2804.7351
-2986.7698
-3170.3477
-3338.498
-3469.9064
-3511.2587
-3344.1364
-2870.7981
-2184.1429
-1512.8698
-942.74481
-506.96143
-189.29437
35.498929
192.78385
302.7509
380.12602
435.11329
474.59799
503.16043
523.83672
538.65863
548.93512
555.23124
557.62956
-7.5459441
-15.399236
-25.214321
-36.272572
-49.208228
-64.768015
-84.068867
-108.69878
-140.93281
-184.11069
-242.90314
-322.98229
-431.14892
-577.96541
-777.58701
-1033.2896
-1320.88
-1601.2872
-1847.8976
-2056.6835
-2241.3068
-2415.2339
-2585.4238
-2759.5246
-2951.4772
-3168.7934
-3401.8411
-3630.6649
-3839.9338
-3979.4503
-3868.0216
-3294.13
-2367.8695
-1515.4532
-830.29305
-345.15941
-15.87172
201.09543
342.92672
435.89066
497.45853
538.82697
567.06021
586.58947
600.19916
609.65766
616.06293
619.92878
621.39237
-2.4940512
-5.6553924
-10.105269
-15.573789
-22.444941
-31.342329
-43.273794
-59.749311
-83.012928
-116.56743
-165.75602
-237.36407
-339.18018
-484.64143
-697.71877
-992.03923
-1333.7671
-1659.6112
-1930.1027
-2142.1463
-2323.1196
-2495.6055
-2666.7926
-2843.1719
-3048.9945
-3303.1736
-3599.0873
-3914.1973
-4241.4068
-4553.2172
-4583.0231
-3903.4781
-2589.3109
-1483.22
-653.43062
-124.34804
202.50766
397.84746
513.68379
582.39917
623.43357
648.17766
663.26886
672.58032
678.3827
682.01671
684.26829
685.54513
686.01569
2.9587948
3.9730061
4.5462877
4.3728071
3.3873778
1.1547315
-3.1200937
-10.723963
-23.652234
-45.261063
-81.374247
-140.13071
-230.27319
-367.38817
-589.87743
-934.91024
-1357.8535
-1750.6931
-2054.8898
-2266.9248
-2439.8804
-2611.5586
-2788.5985
-2969.4135
-3193.9259
-3500.0124
-3883.2969
-4313.0919
-4763.903
-5291.5199
-5573.81
-4825.3574
-2837.3016
-1376.2416
-376.92546
174.90877
474.14945
627.83474
704.34041
740.62163
756.28068
761.57954
761.89154
760.03464
757.47773
754.96765
752.88265
751.47293
750.91541
8.2851203
13.265345
19.323564
25.158024
31.020719
36.677958
41.595223
44.763211
44.510561
37.799992
18.452292
-23.538977
-98.146536
-220.10618
-443.94172
-853.46396
-1397.2818
-1876.4146
-2210.7428
-2392.8792
-2530.4283
-2685.6832
-2862.7825
-3027.8148
-3238.6398
-3573.5314
-4023.7136
-4561.7458
-5089.7115
-5960.3607
-6823.7178
-6299.5142
-3074.0126
-1170.9512
36.507039
572.65525
805.01239
890.17399
911.79945
907.31758
893.25961
876.87572
861.26414
847.66158
836.46214
827.67585
821.19717
817.07859
815.48627
17.841151
25.859734
36.761792
47.719819
59.416725
71.801486
84.631669
97.258633
108.52247
116.23598
114.96671
93.715598
41.620257
-49.538061
-244.67509
-715.15098
-1441.8798
-2033.6098
-2413.3728
-2545.7121
-2643.018
-2787.1989
-2982.1458
-3113.6796
-3276.6772
-3677.6986
-4224.3712
-4961.7031
-5679.3053
-7242.8537
-8882.0923
-9068.3524
-3578.1295
-1038.2191
635.19357
1099.0925
1197.3513
1178.9798
1129.5278
1077.2889
1030.5879
991.36699
959.44159
934.02476
914.23897
899.26901
888.48519
881.72067
879.1187
22.150592
30.895279
46.136805
62.238313
80.171655
100.10841
122.29228
146.74802
173.2631
201.23869
227.41529
240.71483
225.96349
180.34587
45.409069
-483.28399
-1555.1585
-2311.4991
-2773.6623
-2771.0087
-2749.6655
-2813.1449
-3022.6407
-3099.9055
-3207.1635
-3763.2632
-4232.9944
-5185.2217
-6470.8429
-7863.4474
-9589.1439
-12103.54
-4823.2654
-72.514619
1722.8311
1811.9831
1641.1425
1478.7605
1346.23
1243.2038
1163.5576
1101.9569
1054.3118
1017.6221
989.69078
968.87482
954.02923
944.77103
941.21774
36.9371
46.533282
66.460171
87.314106
110.74819
137.07756
166.90676
200.72103
238.86231
281.66289
327.57485
365.35523
371.82684
347.26661
293.74208
-191.1091
-1818.078
-2617.135
-3115.4962
-2772.7576
-2626.8082
-2732.5427
-3131.7556
-3271.1273
-3302.4336
0
0
0
0
0
0
0
0
6202.3755
3402.4565
2582.4958
2068.2389
1755.8598
1545.1256
1396.0888
1287.0018
1205.4554
1143.7781
1096.9955
1061.7473
1035.6645
1017.1508
1005.6372
1001.2228
35.366758
42.182784
64.028482
87.075178
113.20504
142.73987
176.57946
215.67679
261.07501
314.42483
377.59044
445.98959
502.7999
560.82618
710.68135
552.80484
-1996.7851
-2776.9625
-3646.9056
-2968.6373
-3044.336
-3012.3244
0
0
0
0
0
0
0
0
0
0
10129.575
6286.254
4123.9551
3000.3246
2361.3132
1969.1784
1709.0496
1527.5635
1396.2862
1299.0431
1225.9927
1170.8558
1129.4573
1098.897
1077.2401
1063.7843
1058.6269
44.263809
54.9503
80.950119
106.97769
136.15453
169.03618
206.8759
251.1044
303.50638
367.08066
447.11685
546.08879
653.28906
754.39161
842.19642
568.47376
-3108.2256
-3581.5989
-3205.2809
0
0
0
0
0
0
0
0
0
0
0
1780.6721
3364.5946
5756.1167
5236.0899
3961.3827
3100.1687
2507.1434
2107.7404
1830.6547
1632.9924
1488.4301
1380.7312
1299.5701
1238.1939
1192.0518
1157.958
1133.7811
1118.7539
1112.9929
22.191629
42.166374
66.37108
91.285017
118.75252
149.54743
184.74344
225.50555
273.13269
329.83007
399.50018
478.02755
537.53053
536.24807
558.10762
702.38736
0
0
0
0
0
0
-1132.0671
-1103.5227
-1011.3049
-917.55557
-790.08446
-495.29839
-94.946856
697.08425
2026.4401
3361.9109
4750.9876
4489.8579
3714.8024
3058.6869
2552.6658
2182.2206
1911.446
1711.6618
1562.355
1449.5324
1363.6928
1298.3453
1248.9837
1212.3857
1186.3708
1170.1782
1163.9665
19.954014
50.022219
74.970557
100.54391
127.96172
158.05692
191.47984
228.66514
269.57222
313.41824
357.90002
396.56257
406.1494
338.09229
142.01851
-338.13445
-1284.4154
-1227.4733
-1147.1006
-1100.4775
-1051.0805
-1021.612
-1010.3634
-803.28861
-838.6816
-583.18117
-362.34452
-204.61686
259.08327
904.85499
1960.293
3049.3237
3956.5658
3851.897
3404.2984
2933.5975
2528.462
2206.0159
1956.7044
1765.4228
1618.5291
1505.3812
1418.1058
1351.0016
1299.9427
1261.8837
1234.7288
1217.7888
1211.2843
20.663344
46.485457
72.120335
97.971881
125.28651
154.8153
187.13931
222.62517
261.25936
302.13443
342.03537
373.73602
384.81921
353.159
205.2166
-227.92113
-792.30374
-920.95783
-962.54709
-966.14995
-887.80208
-842.31957
-818.54882
-691.7995
-620.94315
-417.53983
-179.14283
77.743379
510.88738
1096.4667
1896.1872
2721.5886
3334.8858
3356.8271
3105.6571
2777.1435
2463.3578
2193.8104
1973.5978
1797.6789
1658.5141
1548.9435
1463.0392
1396.1808
1344.8439
1306.3181
1278.6983
1261.4189
1254.7761
14.996605
36.23064
58.797062
81.291119
104.29095
128.03563
152.53065
177.41615
201.79022
223.68944
238.89722
240.18152
218.24944
159.21507
15.075889
-283.91114
-606.9021
-732.46359
-784.51757
-794.28562
-753.12449
-703.47346
-642.23432
-537.76154
-423.88583
-238.24264
-11.498093
269.88429
668.60889
1187.7226
1823.2427
2450.8968
2889.5208
2967.059
2834.9724
2613.0015
2376.1818
2157.6766
1969.1888
1812.3859
1684.4726
1581.3766
1499.0913
1434.17
1383.8004
1345.7042
1318.2398
1300.9998
1294.363
23.838379
46.444932
70.189942
93.656248
117.54435
141.96114
166.72613
191.21067
214.09599
232.81543
242.68468
236.67036
205.98923
135.39818
-7.2586604
-236.55022
-460.15379
-579.80487
-635.38235
-644.54012
-615.8339
-568.29205
-497.28043
-394.45941
-264.34856
-82.932383
139.1615
416.11393
777.02705
1223.7725
1735.5106
2221.7458
2557.2304
2658.5605
2599.623
2454.8466
2280.1782
2107.1232
1949.75
1813.4693
1698.7946
1604.1112
1527.1066
1465.458
1417.0854
1380.185
1353.4183
1336.5537
1330.0516
12.024216
29.927746
50.032261
70.035845
90.041149
109.9274
129.38635
147.74714
163.76102
175.18303
178.31603
168.06197
137.63901
74.654878
-40.054499
-203.50695
-358.80638
-456.74668
-506.07824
-514.23288
-488.9294
-440.00497
-365.68866
-262.60031
-128.53802
46.964682
261.85496
525.19142
849.67476
1232.3378
1648.6367
2032.8061
2301.9492
2411.5836
2398.128
2308.5359
2183.1599
2048.9514
1920.3872
1804.4658
1703.8314
1618.6754
1548.0645
1490.6665
1445.0907
1410.0054
1384.3872
1368.1818
1361.9236
21.407272
40.632465
60.854162
80.367823
99.453714
117.84361
135.02383
150.10194
161.62922
167.32395
163.94576
147.54894
113.08152
52.274152
-43.556343
-165.61464
-279.00263
-356.12402
-395.68929
-400.45602
-375.1868
-324.725
-248.6735
-145.28217
-11.773706
156.79291
361.05958
606.02241
895.95221
1224.4164
1567.8668
1878.508
2101.9975
2212.1879
2227.147
2176.761
2089.844
1988.0681
1885.1002
1788.3902
1701.7416
1626.5701
1562.9912
1510.4914
1468.287
1435.4863
1411.3703
1396.0512
1390.1253
11.864151
27.968692
45.959817
63.611718
80.820644
97.232086
112.31685
125.22227
134.61738
138.50995
134.22519
118.55946
87.502723
35.680166
-40.001688
-130.43111
-213.52411
-271.83001
-300.84835
-300.62585
-273.46142
-221.63331
-145.0314
-42.510628
87.994681
248.90906
441.01417
666.30088
924.57458
1207.7348
1495.1773
1752.1627
1942.6286
2049.7643
2082.4757
2059.9385
2002.6786
1927.6339
1846.8498
1767.692
1694.4097
1629.1887
1572.8942
1525.6528
1487.1889
1456.9992
1434.6435
1420.381
1414.8542
17.140367
33.237355
50.220068
66.364865
81.714443
95.886876
108.32944
118.22236
124.38351
125.1859
118.61258
102.36281
73.69147
29.625919
-29.988321
-97.381548
-158.13583
-200.46146
-219.38425
-213.53379
-183.55716
-130.34264
-53.763801
46.960798
173.10599
325.77705
505.17538
711.24678
941.41872
1187.1586
1431.2317
1648.3118
1813.9326
1916.4943
1960.219
1957.4983
1922.9615
1869.6956
1807.837
1744.3108
1683.427
1627.7755
1578.7194
1536.8596
1502.3261
1474.9442
1454.5178
1441.4281
1436.3468
11.965886
26.365751
42.104255
57.216692
71.535873
84.633894
95.955674
104.72801
109.89868
110.11376
103.80234
89.277025
64.758701
28.907803
-17.01911
-66.70308
-110.24944
-139.22822
-148.99389
-137.55071
-104.54726
-50.079069
26.068436
124.39929
245.54632
389.78589
556.64773
744.78805
950.4691
1165.4738
1375.7039
1562.538
1708.9277
1806.4503
1856.8895
1868.2995
1851.1315
1815.4438
1769.5689
1719.7252
1670.0963
1623.4073
1581.3253
1544.7834
1514.2213
1489.7318
1471.3242
1459.4745
1454.8663
13.67253
27.359615
41.871727
55.550846
68.31584
79.771327
89.415613
96.581341
100.40741
99.849234
93.763896
81.007541
60.55996
32.09892
-2.5888737
-38.476022
-68.501096
-86.407055
-88.109419
-71.430662
-35.48904
20.05457
95.479854
191.07424
307.00172
442.97394
597.96341
769.86613
954.48614
1144.3023
1327.8974
1491.405
1622.6066
1715.1571
1769.5581
1791.0641
1787.1668
1765.5776
1733.0736
1695.0584
1655.4638
1616.9948
1581.4714
1550.0425
1523.3737
1501.7678
1485.4004
1474.8155
1470.6917
11.353757
24.027871
37.645182
50.500652
62.432487
73.046924
81.880208
88.352217
91.760923
91.312914
86.206395
75.733087
59.44642
37.65151
12.276536
-12.651846
-31.8963
-40.644546
-35.404486
-14.037281
24.575987
80.988858
155.49894
248.219
358.97891
487.10061
631.16299
788.66244
955.34939
1124.5378
1287.0003
1432.2486
1551.2808
1639.1814
1695.7801
1724.5057
1730.7505
1720.4247
1699.0137
1671.1273
1640.3519
1609.2941
1579.816
1553.1936
1530.2483
1511.4418
1497.0802
1487.7496
1484.1081
11.407424
23.296034
35.923533
47.754429
58.666297
68.305158
76.268619
82.076912
85.182786
85.010634
81.033554
72.876686
60.489487
44.5225
26.847736
10.721664
0.16301014
-1.0277396
10.105953
35.554464
76.499283
133.57398
207.05551
296.91526
402.74713
523.60953
657.8358
802.75949
954.29754
1106.601
1252.1848
1382.9759
1492.1649
1575.8551
1633.5318
1667.4217
1681.4227
1680.0725
1667.8007
1648.5067
1625.3926
1600.9188
1576.9182
1554.7274
1535.2682
1519.1191
1506.6849
1498.5708
1495.399
10.343709
21.515248
33.418534
44.560617
54.805768
63.829551
71.285882
76.787198
79.92306
80.301892
77.620909
71.763023
62.951463
52.019944
40.712207
31.705325
28.182596
33.206977
49.28182
78.204916
121.12264
178.66839
251.07305
338.19369
439.45941
553.75855
679.29356
813.38292
952.21581
1090.7118
1222.7518
1342.0036
1443.1855
1523.1439
1581.1976
1618.7743
1638.7042
1644.4833
1639.6908
1627.6171
1611.0832
1592.3717
1573.2519
1555.0725
1538.8134
1525.1354
1514.5169
1507.5614
1504.8397
9.9406179
20.476396
31.670361
42.130088
51.74016
60.213419
67.259851
72.57534
75.865462
76.88696
75.510688
71.807803
66.178673
59.538635
53.48197
50.250513
52.432332
62.544573
82.715759
114.54348
159.09004
216.94445
288.27856
372.85727
469.99648
578.4826
696.46812
821.34216
949.60253
1076.839
1197.993
1307.9987
1402.6589
1479.3704
1537.3819
1577.5856
1602.0462
1613.4721
1614.7645
1608.7021
1597.7601
1584.0288
1569.1947
1554.587
1541.2127
1529.7901
1520.853
1514.9876
1512.6939
9.3564999
19.36472
30.008372
39.956403
49.101961
57.191967
63.98841
69.261661
72.81615
74.529519
74.408265
72.661506
69.802051
66.770144
65.018509
66.460092
73.250043
87.496085
111.02172
145.23628
191.09884
249.13334
319.44896
401.73702
495.2375
598.6825
710.22687
827.3735
946.92417
1065.0324
1177.4576
1280.0608
1369.4256
1443.3605
1501.0945
1543.1586
1571.0671
1586.9349
1593.1298
1592.0073
1585.7421
1576.2388
1565.0924
1553.5964
1542.7639
1533.3527
1525.944
1521.0964
1519.2109
8.9349373
18.485972
28.650131
38.160539
46.922922
54.715782
61.34668
66.648703
70.506509
72.892496
73.915455
73.882065
73.373286
73.324083
75.062566
80.252553
90.730446
108.29502
134.5252
170.66392
217.5657
275.68369
345.06713
425.34949
515.72133
614.89214
721.04907
831.82371
944.29417
1055.0749
1160.551
1257.2645
1342.3655
1413.9711
1471.3168
1514.6889
1545.2062
1564.5401
1574.6431
1577.5294
1575.1204
1569.1531
1561.1301
1552.303
1543.6755
1536.0301
1529.9959
1526.1079
1524.6266
8.549102
17.743473
27.539729
36.720679
45.201226
52.78822
59.328907
64.708848
68.877288
71.880182
73.902487
75.318639
76.749099
79.11007
83.626047
91.773448
105.15375
125.33363
153.69978
191.35518
239.05904
297.19745
365.76657
444.3554
532.12367
627.77754
729.55011
835.1979
942.03566
1047.0439
1147.0796
1239.183
1320.9152
1390.6229
1447.5586
1491.843
1524.3123
1546.309
1559.4685
1565.5349
1566.2225
1563.1249
1557.6595
1551.0356
1544.2393
1538.0668
1533.2133
1530.2283
1529.1736
8.1798086
17.102114
26.616429
35.549447
43.821775
51.264974
57.759068
63.231296
67.680571
71.207805
74.052898
76.63614
79.599802
83.837824
90.492817
100.90281
116.49841
138.675
168.67262
207.48235
255.78322
313.90347
381.79527
459.01443
544.70224
637.57149
735.90299
837.56264
940.0564
1040.645
1136.533
1225.1193
1304.2588
1372.4664
1429.0143
1473.9125
1507.7987
1531.7777
1547.2494
1555.7524
1558.8391
1557.9879
1554.5462
1549.6892
1544.3864
1539.4371
1535.6173
1533.5686
1533.078
7.8074792
16.603292
25.940327
34.712543
42.847071
50.199444
56.676702
62.238152
66.919447
70.861003
74.340804
77.808947
81.918629
87.542756
95.762092
107.81648
125.01786
148.6412
179.82067
219.4639
268.1881
326.27625
393.64698
469.83272
553.9645
644.76535
740.55784
839.2948
938.62605
1036.0152
1128.9114
1214.9617
1292.2234
1359.3291
1415.5688
1460.8804
1495.7673
1521.1693
1538.3196
1548.6082
1553.4685
1554.2923
1552.3726
1548.8593
1544.7057
1540.6825
1537.6144
1536.394
1536.6792
7.304174
16.167724
25.424225
34.111462
42.165284
49.465679
55.940469
61.571133
66.417426
70.644809
74.554593
78.613955
83.480325
90.010875
99.246463
112.36697
130.61076
155.17416
187.12108
227.30369
276.29739
334.35431
401.37057
476.86371
559.95944
649.38969
743.50718
840.32427
937.58629
1032.8882
1123.835
1208.2296
1284.2567
1350.6238
1406.6338
1452.1818
1487.6874
1513.9865
1532.2052
1543.637
1549.6375
1551.5386
1550.593
1547.9364
1544.5159
1541.0475
1538.351
1537.9203
1540.1135
6.0814736
15.835507
25.143223
33.822874
41.846009
49.124649
55.600837
61.268247
66.198943
70.570911
74.697212
79.053772
84.300892
91.290572
101.04846
114.71827
133.49071
158.52523
190.85583
231.30778
280.43559
338.47574
405.31285
480.45692
563.0311
651.77216
745.04856
840.90318
937.12971
1031.3889
1121.3629
1204.9317
1280.3427
1346.341
1402.2368
1447.9048
1483.7242
1510.4802
1529.2469
1541.2707
1547.8638
1550.3275
1549.9025
1547.7278
1544.7607
1541.6764
1539.2606
1539.7836
1545.6258
-2227.7582
-2483.6248
-2699.5389
-2881.4837
-3023.9675
-3106.2147
-3108.2256
-3029.2213
-2857.2786
-2664.0033
-3205.389
-3205.2809
-3198.4355
-3187.4486
-3173.3343
-3160.5815
-3148.7457
-3158.2124
-3158.8145
-3131.4102
-3183.0312
-3181.9068
-3167.1524
-3150.1892
-3133.274
-3124.2832
-3105.9906
-3113.2077
-3100.0761
-3046.55
-3137.8418
-3135.1797
-3126.5765
-3117.8808
-3109.0873
-3112.0994
-3101.0038
-3098.9712
-3085.57
-3048.7081
-3078.1497
-3076.7151
-3072.1695
-3066.2522
-3057.7466
-3058.1467
-3057.8123
-3057.1422
-3055.6637
-3059.4005
-3030.1689
-3029.3766
-3023.6158
-3013.4546
-2998.1997
-2968.6373
-2990.8013
-3003.1022
-3009.7478
-3023.0966
-3013.4127
-3015.1068
-3018.3585
-3021.7456
-3032.6623
-3008.5364
-3008.2144
-3004.5872
-2989.669
-2966.681
-3027.923
-3029.5538
-3035.6396
-3044.336
-3068.386
-3076.1025
-3056.7213
-3030.7038
-3000.867
-2965.4631
-3848.4525
-3860.7648
-3831.726
-3787.3164
-3749.7566
-3717.6915
-3696.1882
-3682.462
-3673.5221
-3675.2642
-2986.9813
-2985.7892
-2977.9082
-2960.9531
-2921.5849
-2946.9459
-2958.9507
-2961.1434
-2950.6575
-2923.5506
-3009.2479
-3012.3244
-3018.6877
-3037.931
-3013.9709
-3005.2505
-3001.2988
-2993.8832
-2979.8931
-2964.7514
-3048.5065
-3050.9591
-3056.137
-3080.7262
-3093.4959
-3069.4237
-3042.6917
-3022.4072
-3003.5383
-2987.0526
-2999.6594
-2995.8307
-2976.9418
-2951.6609
-2974.5979
-2992.0788
-3003.3179
-3010.7378
-3013.0009
-3020.0183
-3033.265
-3035.7254
-3034.8619
-2997.9707
-3007.104
-3020.7168
-3031.517
-3038.7501
-3041.7995
-3051.3642
-3156.8899
-3164.6839
-3188.9173
-3187.4464
-3159.5467
-3131.7556
-3111.0622
-3095.6693
-3080.2519
-3063.019
-3141.9777
-3137.143
-3129.6594
-3149.8305
-3150.4244
-3144.6316
-3138.4091
-3132.9741
-3126.9761
-3128.8784
-3162.7553
-3162.0346
-3137.7502
-3147.9043
-3159.35
-3167.4861
-3171.9062
-3173.71
-3173.0005
-3177.7019
-3277.116
-3289.5193
-3285.4685
-3271.1273
-3255.8055
-3243.7647
-3235.0331
-3229.2395
-3222.4242
-3213.8638
-3282.4886
-3286.5601
-3294.0147
-3285.9368
-3276.2937
-3270.7937
-3270.5586
-3274.9997
-3280.0404
-3292.3428
-3186.3246
-3172.2146
-3189.551
-3215.4279
-3244.9013
-3273.5982
-3300.5721
-3325.145
-3345.2978
-3370.263
-3326.0528
-3302.4336
-3312.0411
-3332.3487
-3359.1122
-3384.3601
-3406.8256
-3425.2569
-3437.7753
-3453.4901
-3701.6746
-3692.6552
-3661.9564
-3627.8854
-3602.8065
-3583.3213
-3571.2312
-3564.0733
-3557.9583
-3555.0922
-3016.6785
-3015.1529
-3009.7378
-2998.1195
-2992.6335
-2999.8924
-2999.5295
-2994.179
-2984.9467
-2983.923
-3540.5383
-3549.1351
-3563.5694
-3610.8532
-3667.0288
-3718.8604
-3739.9426
-3721.8036
-3638.1029
-3466.2533
-3268.7586
-3268.9934
-3271.9429
-3276.811
-3277.9218
-3277.0257
-3275.0644
-3269.9197
-3265.7621
-3219.2849
-3179.5259
-3227.552
-3289.6666
-3394.3697
-3505.6951
-3592.5208
-3635.0766
-3595.2072
-3447.0639
-3214.635
-3480.2771
-3490.3207
-3511.2514
-3547.9506
-3581.5989
-3610.2585
-3618.8296
-3618.3248
-3582.5467
-3470.1576
-3367.3454
-3371.7354
-3385.9149
-3409.8731
-3430.834
-3448.49
-3456.6156
-3446.1967
-3433.579
-3381.8274
11318.722
10715.547
10129.575
9489.9395
8832.8463
8179.5393
7545.1806
6936.784
6347.3443
5770.3044
8301.8486
8224.5317
8101.2598
7839.6077
7501.7194
7111.2851
6689.6068
6254.5664
5816.3993
5360.0013
-3709.5004
-3727.9361
-3745.3438
-3751.3102
-3759.9989
-3763.2632
-3768.0587
-3771.4945
-3772.8197
-3776.3113
-3705.8517
-3709.7029
-3745.0492
-3776.2799
-3815.3389
-3842.5106
-3866.4369
-3882.4669
-3891.1144
-3895.3023
-3946.5152
-3939.2798
-3955.5086
-3963.0857
-3991.4656
-4009.8454
-4029.6723
-4042.6485
-4048.0679
-4043.6179
-4222.4229
-4212.068
-4226.3368
-4216.9232
-4232.9944
-4234.8763
-4241.399
-4242.4476
-4238.8755
-4234.5144
-4544.8764
-4526.7367
-4538.4819
-4511.4468
-4515.2325
-4497.3857
-4484.9275
-4464.9005
-4437.233
-4404.8723
-4901.1052
-4873.883
-4883.4901
-4837.0689
-4828.6369
-4790.1479
-4757.317
-4713.895
-4659.2254
-4599.0144
-5281.8493
-5243.3989
-5252.039
-5185.2217
-5165.6716
-5107.5829
-5056.1875
-4992.7185
-4916.4632
-4831.1512
-5682.8599
-5630.7848
-5639.6095
-5550.5884
-5519.7715
-5441.5435
-5370.8772
-5288.4423
-5198.4683
-5115.9179
-6105.0437
-6035.9212
-6045.7703
-5931.776
-5888.3053
-5787.8965
-5693.529
-5583.5005
-5458.1873
-5322.5869
-6548.5
-6458.4122
-6470.8429
-6329.198
-6271.9438
-6149.0591
-6030.8961
-5896.784
-5747.1778
-5585.4185
-7019.3411
-6902.2101
-6917.9741
-6744.4914
-6670.3451
-6522.7542
-6376.8529
-6214.628
-6036.1365
-5850.266
-7516.4399
-7366.2086
-7388.326
-7179.8866
-7085.7236
-6911.6631
-6733.8682
-6537.7858
-6319.1646
-6081.8845
-8058.1144
-7863.4474
-7892.3973
-7643.1903
-7522.8889