/*--------------------------------*- C++ -*----------------------------------*\
| =========                 |                                                 |
| \\      /  F ield         | foam-extend: Open Source CFD                    |
|  \\    /   O peration     | Version:     4.1                                |
|   \\  /    A nd           | Web:         http://www.foam-extend.org         |
|    \\/     M anipulation  |                                                 |
\*---------------------------------------------------------------------------*/
FoamFile
{
    version     2.0;
    format      ascii;
    class       surfaceScalarField;
    location    "2";
    object      phi;
}
// * * * * * * * * * * * * * * * * * * * * * * * * * * * * * * * * * * * * * //

dimensions      [0 3 -1 0 0 0 0];

internalField   nonuniform List<scalar> 
8438
(
-0.59744043
0.0016735541
-0.59917929
0.001738857
-0.60095306
0.0017737759
-0.60277076
0.001817699
-0.60464214
0.0018713808
-0.60657764
0.0019354981
-0.60858666
0.0020090195
-0.61067681
0.0020901539
-0.61285322
0.002176403
-0.61511779
0.0022645751
-0.61746857
0.0023507804
-0.61989904
0.0024304666
-0.62239756
0.0024985218
-0.62494703
0.002549466
-0.62752475
0.0025777287
-0.63010277
0.0025780122
-0.63264836
0.0025455914
-0.63512497
0.0024766137
-0.6374932
0.0023682284
-0.63971178
0.0022185783
-0.6417385
0.002026724
-0.64353105
0.0017925516
-0.64504781
0.0015167547
-0.64624876
0.0012009545
-0.64709678
0.0008480124
-0.64755932
0.00046254528
-0.64761063
5.1308168e-05
-0.64723332
-0.0003773093
-0.6464224
-0.00081091769
-0.64518935
-0.0012330482
-0.64356306
-0.0016262931
-0.64158958
-0.0019734834
-0.63932998
-0.0022595997
-0.6368563
-0.0024736745
-0.6342463
-0.0026100043
-0.63157791
-0.0026683912
-0.62892442
-0.0026534845
-0.62635089
-0.0025735328
-0.62391198
-0.0024389143
-0.62165122
-0.0022607576
-0.61960138
-0.0020498424
-0.61778553
-0.0018158454
-0.61621862
-0.0015669066
-0.61490908
-0.0013095391
-0.61385998
-0.0010491002
-0.61306953
-0.00079045798
-0.61253402
-0.00053550975
-0.6122586
-0.00027541867
-1.3648075e-05
-0.61123263
0.0031392973
-0.61269176
0.0031979906
-0.61417806
0.0032600713
-0.61570478
0.0033444194
-0.61728437
0.0034509758
-0.61892805
0.0035791735
-0.62064565
0.0037266238
-0.62244515
0.0038896501
-0.62433199
0.0040632456
-0.62630844
0.0042410257
-0.62837286
0.0044151957
-0.630519
0.0045766062
-0.63273543
0.0047149514
-0.63500511
0.0048191513
-0.6373053
0.0048779181
-0.63960779
0.0048805039
-0.64187954
0.0048173344
-0.64408355
0.0046806278
-0.64617998
0.0044646584
-0.64812713
0.0041657255
-0.64988238
0.0037819721
-0.65140299
0.0033131664
-0.65264688
0.0027606425
-0.65357346
0.0021275331
-0.65414483
0.0014193874
-0.65432747
0.00064517775
-0.65409465
-0.00018150584
-0.65343055
-0.0010414116
-0.65233203
-0.0019094405
-0.65081001
-0.0027550646
-0.64889256
-0.003543746
-0.64662541
-0.004240633
-0.64406997
-0.0048150378
-0.64129911
-0.0052445357
-0.63839159
-0.0055175255
-0.63542627
-0.0056337108
-0.63247706
-0.0056026883
-0.62960927
-0.0054413284
-0.62687745
-0.0051707294
-0.62432482
-0.0048133921
-0.62198367
-0.0043909944
-0.61987663
-0.0039228851
-0.61801828
-0.0034252549
-0.61641682
-0.002910998
-0.61507556
-0.0023903568
-0.61399476
-0.0018712627
-0.6131739
-0.0013563655
-0.61260473
-0.00084459544
-0.0003735741
-0.61227816
0.0045549047
-0.61369204
0.0046118724
-0.61513076
0.0046987916
-0.61660927
0.0048229351
-0.61814088
0.0049825861
-0.61973739
0.0051756822
-0.62140913
0.0053983654
-0.62316457
0.0056450876
-0.62500972
0.0059083928
-0.62694746
0.0061787644
-0.62897679
0.0064445323
-0.63109211
0.0066919251
-0.63328251
0.0069053459
-0.6355313
0.0070679413
-0.63781585
0.0071624751
-0.64010786
0.0071725054
-0.64237393
0.0070834096
-0.64457667
0.0068833658
-0.64667577
0.0065637579
-0.64862913
0.006119085
-0.65039377
0.0055466098
-0.65192654
0.0048459451
-0.6531848
0.0040188971
-0.65412705
0.0030697863
-0.65471405
0.0020063871
-0.65491039
0.00084151734
-0.65468693
-0.00040497072
-0.65402359
-0.0017047453
-0.65291294
-0.003020093
-0.65136391
-0.0043040926
-0.64940441
-0.0055032471
-0.64708189
-0.0065631517
-0.64446119
-0.0074357379
-0.64161972
-0.0080860051
-0.63864107
-0.0084961751
-0.63560841
-0.0086663706
-0.63259891
-0.0086121957
-0.62967981
-0.0083604217
-0.62690645
-0.0079440892
-0.62432178
-0.0073980606
-0.62195718
-0.0067555937
-0.61983398
-0.0060460895
-0.6179653
-0.0052939352
-0.61635794
-0.0045183532
-0.61501429
-0.0037340085
-0.6139345
-0.002951059
-0.61311683
-0.0021740358
-0.61255277
-0.0014086509
-0.00068139512
-0.61263501
0.0059411281
-0.61402853
0.0060053865
-0.61544752
0.0061177893
-0.61690696
0.0062823697
-0.6184206
0.0064962262
-0.62000095
0.0067560354
-0.62165912
0.0070565382
-0.62340442
0.007390388
-0.62524378
0.0077477482
-0.62718102
0.008116007
-0.62921608
0.0084795911
-0.63134414
0.0088199832
-0.63355484
0.0091160503
-0.6358317
0.0093447941
-0.63815179
0.0094825656
-0.64048603
0.0095067507
-0.64279991
0.0093972913
-0.64505466
0.0091381128
-0.64720859
0.0087176866
-0.64921832
0.0081288202
-0.65103974
0.0073680263
-0.65262859
0.0064347941
-0.65394093
0.0053312414
-0.65493362
0.0040624736
-0.6555651
0.0026378624
-0.65579689
0.0010733083
-0.65559603
-0.00060583193
-0.65493839
-0.0023623804
-0.65381282
-0.0041456639
-0.6522257
-0.0058912171
-0.65020461
-0.0075243348
-0.64779963
-0.0089681338
-0.64508099
-0.010154377
-0.64213333
-0.011033666
-0.63904788
-0.011581623
-0.63591458
-0.011799673
-0.63281561
-0.011711167
-0.62982119
-0.011354837
-0.62698769
-0.01077759
-0.62435758
-0.010028175
-0.62196071
-0.0091524581
-0.61981635
-0.0081904493
-0.61793537
-0.0071749121
-0.61632247
-0.0061312558
-0.61497832
-0.0050781607
-0.61390148
-0.0040278978
-0.61308836
-0.0029871598
-0.61253356
-0.001963452
-0.00097000061
-0.61305952
0.0073003008
-0.61442981
0.0073756758
-0.61582654
0.0075145236
-0.61726487
0.0077206948
-0.61875904
0.0079904027
-0.62032236
0.0083193529
-0.62196687
0.0087010512
-0.62370298
0.0091264969
-0.62553882
0.0095835917
-0.62747951
0.010056694
-0.62952622
0.010526303
-0.63167524
0.010968996
-0.63391696
0.011357772
-0.63623514
0.011662972
-0.63860644
0.011853869
-0.64100068
0.011900989
-0.64338167
0.011778285
-0.64570871
0.011465148
-0.64793818
0.010947156
-0.65002501
0.010215652
-0.65192364
0.0092666598
-0.65358851
0.008099661
-0.65497418
0.0067169124
-0.65603547
0.0051237688
-0.65672792
0.0033303114
-0.65700901
0.0013543969
-0.65684062
-0.00077422323
-0.65619286
-0.0030101438
-0.65504896
-0.0052895605
-0.65341127
-0.0075289063
-0.65130656
-0.0096290468
-0.64878842
-0.011486278
-0.6459348
-0.013007993
-0.64284078
-0.014127684
-0.63960858
-0.014813823
-0.63633771
-0.015070549
-0.63311726
-0.01493161
-0.63002138
-0.014450723
-0.62710755
-0.013691413
-0.6244173
-0.012718426
-0.62197816
-0.011591596
-0.61980638
-0.010362234
-0.61790967
-0.0090716255
-0.61628982
-0.0077511029
-0.61494508
-0.0064229012
-0.61387185
-0.0051011309
-0.61306518
-0.0037938249
-0.61252118
-0.002507457
-0.0012463761
-0.61359672
0.0086272366
-0.61493735
0.0087163042
-0.61630578
0.0088829575
-0.61771733
0.0091322421
-0.61918683
0.0094598989
-0.62072846
0.009860985
-0.62235542
0.010328015
-0.62407948
0.010850553
-0.62591031
0.011414426
-0.6278547
0.012001084
-0.62991549
0.012587095
-0.63209046
0.013143958
-0.63437108
0.013638395
-0.63674151
0.014033404
-0.63917792
0.01429028
-0.64164865
0.014371716
-0.64411526
0.014244898
-0.64653442
0.013884309
-0.64885998
0.013272717
-0.65104473
0.012400395
-0.6530414
0.011263332
-0.65480299
0.0098612454
-0.65628243
0.0081963599
-0.65743225
0.0062735842
-0.65820443
0.00410249
-0.65855132
0.0017012919
-0.65842805
-0.00089749269
-0.65779687
-0.0036413209
-0.65663307
-0.0064533659
-0.65493287
-0.0092291015
-0.65272131
-0.011840614
-0.65005642
-0.014151164
-0.64702678
-0.016037633
-0.64374197
-0.017412493
-0.64031938
-0.018236414
-0.63687145
-0.018518478
-0.63349634
-0.018306726
-0.63027291
-0.017674146
-0.62725969
-0.016704639
-0.6244964
-0.015481711
-0.62200713
-0.014080867
-0.61980387
-0.012565496
-0.61788999
-0.0109855
-0.61626333
-0.009377765
-0.6149187
-0.0077675339
-0.61384965
-0.0061701819
-0.61304957
-0.0045939025
-0.61251419
-0.0030428335
-0.0015156195
-0.61424974
0.0099181938
-0.61555477
0.010021333
-0.6168885
0.010216692
-0.61826696
0.010510695
-0.61970575
0.010898691
-0.62122013
0.011375364
-0.62282464
0.011932527
-0.62453269
0.012558606
-0.62635589
0.01323762
-0.6283031
0.013948301
-0.63037935
0.014663343
-0.63258438
0.015348992
-0.6349112
0.015965214
-0.6373446
0.016466805
-0.63986019
0.016805868
-0.6424244
0.016935929
-0.64499582
0.016816315
-0.64752762
0.016416106
-0.64997035
0.015715451
-0.65227419
0.014704228
-0.65439
0.013379145
-0.65626937
0.011740618
-0.65786373
0.0097907226
-0.65912321
0.0075330648
-0.65999581
0.0049750892
-0.66042768
0.0021331553
-0.66036532
-0.00095985052
-0.65976055
-0.0042460911
-0.65857753
-0.007636383
-0.65680339
-0.011003243
-0.65445973
-0.014184279
-0.65160995
-0.017000935
-0.64835694
-0.01929065
-0.64483014
-0.02093929
-0.6411675
-0.021899053
-0.63749854
-0.022187435
-0.63393283
-0.021872443
-0.63055468
-0.02105229
-0.6274231
-0.019836218
-0.62457485
-0.018329962
-0.62202905
-0.016626673
-0.61979196
-0.014802588
-0.61786131
-0.01291615
-0.61622985
-0.011009222
-0.61488808
-0.0091093054
-0.61382607
-0.007232194
-0.61303484
-0.0053851255
-0.61250836
-0.0035693119
-0.0017790336
-0.61501301
0.011164732
-0.61627519
0.01128351
-0.61756744
0.011508941
-0.61890619
0.011849447
-0.62030791
0.012300409
-0.62178903
0.012856485
-0.62336565
0.013509154
-0.62505314
0.014246088
-0.62686539
0.015049875
-0.62881391
0.015896824
-0.63090646
0.016755884
-0.63314538
0.017587917
-0.63552577
0.018345599
-0.63803343
0.018974469
-0.6406434
0.019415841
-0.6433197
0.01961222
-0.64601692
0.019513544
-0.64868364
0.019082823
-0.65126616
0.018297969
-0.65371149
0.017149555
-0.65596858
0.015636236
-0.65798788
0.013759921
-0.6597197
0.011522541
-0.66111201
0.0089253808
-0.66210859
0.0059716658
-0.66264834
0.0026729086
-0.66266712
-0.00094107238
-0.66210313
-0.0048100818
-0.66090527
-0.0088342489
-0.65904716
-0.01286135
-0.65654415
-0.016687288
-0.65346577
-0.020079314
-0.64993404
-0.022822377
-0.64610561
-0.024767721
-0.64214609
-0.025858573
-0.63820724
-0.026126288
-0.6344126
-0.025667088
-0.6308523
-0.024612588
-0.62758468
-0.023103831
-0.62464166
-0.021272988
-0.62203532
-0.01923301
-0.61976432
-0.017073586
-0.61781917
-0.014861302
-0.61618631
-0.012642087
-0.61485101
-0.0104446
-0.6137993
-0.0082839009
-0.6130193
-0.0061651312
-0.61250256
-0.0040860453
-0.0020367983
-0.61588762
0.012363451
-0.61710096
0.012496852
-0.61834484
0.012752816
-0.6196368
0.013141411
-0.62099436
0.013657966
-0.62243529
0.014297417
-0.62397747
0.01505133
-0.62563849
0.015907112
-0.62743504
0.01684642
-0.62938179
0.017843578
-0.63148996
0.018864052
-0.6337653
0.019863264
-0.63620577
0.020786063
-0.63879877
0.021567466
-0.64151884
0.022135918
-0.64432696
0.022420335
-0.64717248
0.022359069
-0.64999781
0.021908155
-0.65274377
0.021043928
-0.65535362
0.019759407
-0.6577745
0.018057108
-0.65995631
0.015941735
-0.66184905
0.013415281
-0.66339922
0.010475553
-0.66454645
0.0071188984
-0.66522155
0.003348006
-0.66534743
-0.00081519508
-0.66484478
-0.0053127329
-0.6636417
-0.010037323
-0.661692
-0.014811057
-0.65899998
-0.019379305
-0.6556416
-0.023437695
-0.65176466
-0.026699319
-0.64756319
-0.028969189
-0.64324016
-0.030181605
-0.63897606
-0.030390385
-0.63491117
-0.029731983
-0.63114116
-0.02838259
-0.6277217
-0.026523293
-0.62467707
-0.024317617
-0.62200963
-0.021900449
-0.61970807
-0.019375151
-0.61775382
-0.016815554
-0.61612566
-0.014270248
-0.61480272
-0.011767532
-0.61376636
-0.0093202643
-0.61300126
-0.0069302328
-0.61249631
-0.0045909975
-0.0022881554
-0.61686695
0.01350243
-0.61802272
0.013652628
-0.61921047
0.013940567
-0.620448
0.014378935
-0.62175373
0.014963696
-0.62314684
0.015690536
-0.62464716
0.016551647
-0.62627484
0.017534792
-0.62804979
0.018621367
-0.62999055
0.019784341
-0.63211264
0.020986138
-0.63442621
0.02217684
-0.63693313
0.023292977
-0.63962327
0.024257607
-0.64247095
0.024983601
-0.64543332
0.025382699
-0.64845272
0.025378475
-0.65146324
0.024918676
-0.65439849
0.023979174
-0.65719726
0.022558179
-0.65980519
0.020665033
-0.66217272
0.018309263
-0.6642509
0.015493464
-0.66598606
0.012210713
-0.66731432
0.008447163
-0.66815779
0.004191471
-0.66842411
-0.00054887661
-0.66801171
-0.0057251294
-0.66682076
-0.011228273
-0.66477605
-0.016855762
-0.661863
-0.022292357
-0.65816324
-0.027137454
-0.65385953
-0.031003036
-0.649198
-0.033630721
-0.64443231
-0.034947294
-0.63977994
-0.035042755
-0.63540052
-0.034111396
-0.63139396
-0.032389154
-0.62780978
-0.030107468
-0.62466073
-0.027466671
-0.6219358
-0.02462538
-0.61961083
-0.021700115
-0.61765612
-0.018770269
-0.61604136
-0.015885009
-0.61473866
-0.01307023
-0.61372415
-0.010334776
-0.61297875
-0.007675634
-0.61248854
-0.005081206
-0.0025317435
-0.61794998
0.014580954
-0.61904269
0.014745337
-0.62016708
0.015064952
-0.62134237
0.015554228
-0.62258813
0.016209455
-0.62392502
0.017027433
-0.62537495
0.018001575
-0.62696093
0.019120769
-0.62870659
0.020367022
-0.63063507
0.021712824
-0.6327672
0.02311827
-0.6351188
0.024528438
-0.63769704
0.025871224
-0.64049561
0.027056175
-0.64348917
0.027977162
-0.64663017
0.028523698
-0.64985154
0.028599845
-0.65307598
0.028143111
-0.6562275
0.027130699
-0.65923963
0.025570309
-0.66205721
0.023482616
-0.66463294
0.020884986
-0.66692107
0.0177816
-0.66886988
0.014159517
-0.67041339
0.009990672
-0.67146479
0.0052428695
-0.67191441
-9.9255139e-05
-0.67163256
-0.00600698
-0.67048229
-0.012378544
-0.66834641
-0.018991639
-0.66517841
-0.025460357
-0.66106265
-0.031253216
-0.65622979
-0.035835896
-0.65099994
-0.038860564
-0.64569621
-0.040251029
-0.64058341
-0.040155553
-0.63584263
-0.038852179
-0.63157474
-0.036657037
-0.62781775
-0.033864461
-0.62456723
-0.030717197
-0.62179414
-0.027398467
-0.61945803
-0.024036223
-0.6175157
-0.020712597
-0.61592635
-0.01747436
-0.61465426
-0.014342324
-0.61366992
-0.011319111
-0.61295032
-0.0083952382
-0.61247874
-0.0055527817
-0.0027656866
-0.61913341
0.015582079
-0.62015219
0.015764117
-0.62120414
0.016116897
-0.62230812
0.016658214
-0.62348445
0.017385784
-0.62475519
0.018298175
-0.62614441
0.019390791
-0.62767823
0.020654588
-0.62938452
0.022073316
-0.63129189
0.023620195
-0.6334277
0.025254073
-0.63581499
0.026915734
-0.63846822
0.028524454
-0.64138685
0.029974801
-0.64454707
0.031137382
-0.6478957
0.031872332
-0.65135286
0.032056998
-0.65482532
0.031615574
-0.65822402
0.030529397
-0.66147604
0.028822337
-0.66452663
0.0265332
-0.66733319
0.023691551
-0.66985629
0.0203047
-0.67204933
0.016352555
-0.67384687
0.01178821
-0.67515375
0.0065497464
-0.67583973
0.00058673211
-0.67574211
-0.0061045992
-0.67467694
-0.013443717
-0.67246561
-0.021202975
-0.66900823
-0.028917729
-0.66438416
-0.035877291
-0.65889058
-0.041329478
-0.65295509
-0.044796052
-0.64699687
-0.046209247
-0.64134098
-0.045811439
-0.63619038
-0.044002782
-0.63164062
-0.041206794
-0.62770974
-0.037795348
-0.62436842
-0.034058515
-0.62156367
-0.030203216
-0.61923471
-0.026365189
-0.61732238
-0.022624926
-0.61577404
-0.019022695
-0.61454554
-0.015570824
-0.61360156
-0.012263096
-0.61291513
-0.0090816646
-0.61246693
-0.0060009805
-0.0029876669
-0.62040709
0.016509548
-0.62134755
0.016704576
-0.62231976
0.017089107
-0.62334418
0.017682639
-0.62444206
0.018483664
-0.62563683
0.019492947
-0.62695473
0.020708692
-0.62842519
0.02212504
-0.63008077
0.023728897
-0.63195641
0.02549584
-0.63408739
0.027385049
-0.63650589
0.029334235
-0.63923608
0.031254643
-0.64228608
0.033024803
-0.6456357
0.034487003
-0.64922522
0.035461855
-0.65295707
0.035788841
-0.65671537
0.035373874
-0.66039283
0.034206858
-0.66390884
0.032338348
-0.66721126
0.029835623
-0.67026627
0.026746562
-0.67304526
0.023083682
-0.67551156
0.018818859
-0.6776046
0.013881249
-0.67922292
0.00816807
-0.68021419
0.0015779979
-0.6803759
-0.0059428904
-0.6794635
-0.01435611
-0.67721207
-0.023454402
-0.67343382
-0.032695981
-0.66818554
-0.041125573
-0.66185781
-0.047657209
-0.65503903
-0.051614828
-0.64828274
-0.052965536
-0.64198969
-0.052104491
-0.63638151
-0.04961097
-0.63153702
-0.046051275
-0.62744164
-0.041890737
-0.62403069
-0.037469457
-0.62121991
-0.033013998
-0.61892367
-0.028661432
-0.61706446
-0.024484137
-0.61557672
-0.020510427
-0.61440759
-0.016739962
-0.61351602
-0.013154667
-0.6128714
-0.0097262786
-0.61245211
-0.0064202718
-0.0031949783
-0.62177477
0.017340369
-0.62262371
0.017553516
-0.62350576
0.017971165
-0.62444002
0.018616894
-0.62544788
0.01949152
-0.62655378
0.020598852
-0.62778599
0.021940905
-0.6291773
0.023516345
-0.63076539
0.025316988
-0.63259247
0.027322924
-0.63470337
0.029495942
-0.63714178
0.031772653
-0.63994491
0.034057766
-0.64313387
0.03621377
-0.64669607
0.038049197
-0.65056506
0.039330846
-0.65461896
0.039842739
-0.65870922
0.039464134
-0.6627027
0.038200343
-0.66650943
0.036145077
-0.67008343
0.033409625
-0.67340509
0.030068214
-0.67646208
0.026140677
-0.67923364
0.021590414
-0.68167025
0.016317862
-0.68366823
0.010166049
-0.68505239
0.002962159
-0.685574
-0.0054212837
-0.68491432
-0.015015788
-0.68268964
-0.025679076
-0.678569
-0.036816625
-0.67254908
-0.047145495
-0.66515202
-0.055054267
-0.65721552
-0.059551327
-0.64948256
-0.060698498
-0.64244689
-0.059140155
-0.63633821
-0.055719654
-0.63119908
-0.051190404
-0.62696361
-0.046126209
-0.62351802
-0.040915042
-0.62073808
-0.035793946
-0.61850862
-0.030890892
-0.6167317
-0.026261052
-0.61532832
-0.021913809
-0.61423708
-0.017831198
-0.61341178
-0.013979968
-0.61281874
-0.010319317
-0.61243456
-0.0068044521
-0.0033845929
-0.62320308
0.01808352
-0.6239574
0.018307835
-0.62474201
0.018755774
-0.6255774
0.019452279
-0.62648531
0.02039943
-0.62749101
0.021604551
-0.62862459
0.023074486
-0.62992217
0.024813924
-0.63142685
0.026821668
-0.63318902
0.029085095
-0.63526484
0.031571766
-0.63771231
0.034220119
-0.64058558
0.036931038
-0.64392474
0.039552932
-0.64773128
0.041855734
-0.65193289
0.043532455
-0.65637336
0.044283216
-0.66085525
0.043946025
-0.6652072
0.042552285
-0.66932731
0.040265192
-0.67318185
0.037264161
-0.676774
0.033660373
-0.68011576
0.029482429
-0.68321108
0.02468574
-0.68603237
0.019139151
-0.68848224
0.012615919
-0.69036398
0.0048438932
-0.6913764
-0.0044088576
-0.69111306
-0.015279134
-0.68903174
-0.027760392
-0.68457156
-0.04127681
-0.67759113
-0.054125922
-0.66879551
-0.063849888
-0.65942573
-0.068921105
-0.65049282
-0.069631404
-0.64260016
-0.067032817
-0.63596043
-0.06235939
-0.63054757
-0.056603261
-0.62621769
-0.050456087
-0.62279037
-0.044342364
-0.62009171
-0.038492601
-0.6179727
-0.033009905
-0.6163137
-0.027920048
-0.61502257
-0.02320494
-0.61403036
-0.018823413
-0.61328674
-0.014723583
-0.61275596
-0.010850099
-0.6124136
-0.0071468073
-0.0035532474
-0.62472693
0.018710146
-0.62537212
0.018953025
-0.62604881
0.019432464
-0.62677456
0.020178025
-0.62757014
0.021195011
-0.62846084
0.022495248
-0.62947796
0.024091605
-0.63066048
0.025996447
-0.63205678
0.028217971
-0.63372599
0.030754307
-0.6357374
0.033583172
-0.63816643
0.036649148
-0.64108901
0.039853621
-0.64457239
0.04303631
-0.64864361
0.045926957
-0.65322931
0.048118147
-0.65812585
0.049179758
-0.66306269
0.048882871
-0.66781261
0.047302202
-0.6722603
0.044712876
-0.67639614
0.041400009
-0.68025986
0.037524091
-0.6838969
0.033119461
-0.68734457
0.028133412
-0.6906096
0.022404185
-0.69361169
0.01561801
-0.69613401
0.0073662072
-0.69781654
-0.0027263212
-0.69815469
-0.014940988
-0.69641081
-0.02950427
-0.69166664
-0.046020982
-0.68348564
-0.062306918
-0.67281359
-0.074521944
-0.6615773
-0.080157396
-0.65116513
-0.080043571
-0.64229923
-0.075898717
-0.63512299
-0.069535632
-0.62948973
-0.062236523
-0.62514044
-0.054805368
-0.62180693
-0.047675878
-0.6192559
-0.041043636
-0.61730138
-0.03496442
-0.61580237
-0.029419058
-0.6146552
-0.024352113
-0.61378527
-0.019693338
-0.61313991
-0.015368947
-0.61268265
-0.011307363
-0.61238911
-0.0074403414
-0.00369756
-0.62625574
0.019233978
-0.62678956
0.019486845
-0.62735049
0.019993394
-0.62795662
0.020784154
-0.6286278
0.021866184
-0.62938887
0.02325632
-0.63027186
0.0249746
-0.63131827
0.027042859
-0.63258167
0.029481371
-0.63413059
0.032303225
-0.63604965
0.03550223
-0.63843581
0.039035311
-0.64139261
0.042810421
-0.64502508
0.046668777
-0.64940448
0.050306358
-0.65446833
0.053181996
-0.65994633
0.05465776
-0.66545361
0.05439015
-0.67067615
0.052524742
-0.67548002
0.049516744
-0.67989679
0.045816786
-0.68402064
0.041647939
-0.68793872
0.037037537
-0.6917296
0.031924298
-0.69545521
0.026129796
-0.69907781
0.019240609
-0.70237472
0.010663118
-0.70493053
-0.00017051296
-0.70613768
-0.013733842
-0.70504012
-0.030601827
-0.70017662
-0.050884481
-0.69050282
-0.071980723
-0.67723144
-0.087793321
-0.66352221
-0.093866623
-0.65128392
-0.092281867
-0.64134302
-0.085839618
-0.63367109
-0.077207559
-0.62791968
-0.06798793
-0.62366547
-0.059059585
-0.62052899
-0.050812355
-0.61820962
-0.043363005
-0.61648421
-0.036689831
-0.61519312
-0.030710142
-0.61422464
-0.025320596
-0.61350167
-0.020416311
-0.61297165
-0.01589896
-0.6125993
-0.011679714
-0.61236157
-0.0076780765
-0.003814178
-0.62788231
0.019620843
-0.62829036
0.019894898
-0.62872673
0.020429763
-0.62920447
0.021261899
-0.62974075
0.022402458
-0.63035878
0.023874354
-0.63109013
0.02570595
-0.63197748
0.027930211
-0.63307821
0.030582102
-0.63446921
0.033694226
-0.63625107
0.037284085
-0.63854562
0.041329862
-0.64148919
0.04575399
-0.64523558
0.050415166
-0.64992843
0.054999209
-0.65554383
0.058797398
-0.66172015
0.060834076
-0.66789166
0.060561663
-0.67361239
0.058245471
-0.6787278
0.054632156
-0.68334889
0.050437877
-0.68766183
0.045960876
-0.69181167
0.041187382
-0.69592756
0.036040184
-0.70015813
0.030360361
-0.70454448
0.023626967
-0.70886991
0.014988545
-0.71262566
0.0035852391
-0.71509994
-0.01125957
-0.71514609
-0.030555675
-0.71054272
-0.055487852
-0.69906498
-0.083458461
-0.68205633
-0.10480197
-0.66501593
-0.11090701
-0.65053155
-0.10676626
-0.63946199
-0.096909175
-0.63141566
-0.085253884
-0.62572016
-0.073683436
-0.62172684
-0.063052903
-0.61892295
-0.053616242
-0.61693777
-0.045348183
-0.6155157
-0.038111902
-0.61448494
-0.031740904
-0.61373154
-0.026074002
-0.61318045
-0.020967396
-0.61278258
-0.016296831
-0.61250607
-0.011956221
-0.61233073
-0.0078534207
-0.0038999573
-0.62933596
0.019882723
-0.6296149
0.020173834
-0.62991709
0.020731959
-0.63025351
0.021598312
-0.63063794
0.022786894
-0.63109079
0.0243272
-0.63164167
0.02625683
-0.63233296
0.028621496
-0.63322442
0.031473563
-0.63440038
0.034870187
-0.63597876
0.038862468
-0.63811246
0.043463559
-0.64097953
0.048621063
-0.64479588
0.054231513
-0.64982097
0.060024301
-0.65613233
0.065108756
-0.66324987
0.06795162
-0.67030964
0.06762143
-0.67665924
0.064595076
-0.68211423
0.060087138
-0.68692669
0.055250343
-0.69142574
0.050459924
-0.69581683
0.045578469
-0.70025361
0.040476965
-0.70499408
0.035100831
-0.71020149
0.028834376
-0.71569659
0.020483651
-0.72088199
0.0087706396
-0.72496917
-0.0071723913
-0.72679973
-0.028725116
-0.72323186
-0.059055718
-0.7097974
-0.096892921
-0.6872341
-0.12736527
-0.66565425
-0.13248686
-0.64844079
-0.12397972
-0.63630037
-0.1090496
-0.62813509
-0.093419156
-0.62277144
-0.079047089
-0.61926875
-0.066555593
-0.61696816
-0.055916835
-0.61543681
-0.046879527
-0.61439936
-0.039149357
-0.61368323
-0.032457029
-0.61318089
-0.026576343
-0.61282538
-0.021322905
-0.61257507
-0.016547141
-0.61240418
-0.01212711
-0.61229701
-0.0079605963
-0.0039521663
-0.63049026
0.019981387
-0.63061981
0.020303384
-0.63077081
0.020882961
-0.63094761
0.021775117
-0.63115923
0.022998515
-0.63142222
0.024590186
-0.63176302
0.026597632
-0.63222202
0.02908049
-0.63285904
0.032110588
-0.63376247
0.035773621
-0.63506441
0.040164406
-0.63695058
0.045349731
-0.63964598
0.051316455
-0.64343017
0.058015709
-0.64872252
0.065316644
-0.65582175
0.07220799
-0.66410929
0.076239163
-0.67220491
0.075717045
-0.67914522
0.071535385
-0.68470218
0.065644104
-0.6893923
0.059940458
-0.69377792
0.054845549
-0.69813758
0.049938132
-0.7026002
0.044939576
-0.70761203
0.04011267
-0.71359373
0.034816067
-0.72050261
0.027392536
-0.72773214
0.016000167
-0.7342794
-0.00062512828
-0.73920327
-0.023801243
-0.73833187
-0.05992712
-0.72349561
-0.11172919
-0.6924832
-0.15837768
-0.66469657
-0.16027349
-0.64430096
-0.14437533
-0.63139131
-0.12195926
-0.62358302
-0.10122744
-0.61896663
-0.083663481
-0.6162585
-0.069263716
-0.61466562
-0.057509714
-0.61371996
-0.047825197
-0.61315047
-0.039718842
-0.61280129
-0.032806209
-0.61258279
-0.026794843
-0.61244339
-0.021462305
-0.61235344
-0.016637091
-0.61229599
-0.012184561
-0.61226149
-0.0079951003
-0.0039687033
-0.63007846
0.019880181
-0.63002792
0.020252845
-0.6299953
0.020850337
-0.62997623
0.021756048
-0.62997274
0.022995031
-0.62999478
0.024612218
-0.63006161
0.026664466
-0.63020619
0.029225074
-0.63048151
0.032385906
-0.63097111
0.036263218
-0.63181141
0.041004705
-0.63321966
0.046757984
-0.63548195
0.053578745
-0.63894664
0.061480405
-0.64423989
0.070609895
-0.65213528
0.080103372
-0.66194776
0.086051648
-0.67134992
0.085119202
-0.67893518
0.079120648
-0.68436566
0.071074585
-0.6886562
0.06423099
-0.69275106
0.058940413
-0.69705133
0.0542384
-0.70151401
0.049402254
-0.7068381
0.045436765
-0.71385885
0.041836818
-0.72259612
0.036129803
-0.73261915
0.026023201
-0.74190457
0.0086602858
-0.75052999
-0.015175822
-0.75421885
-0.056238258
-0.74047678
-0.12547125
-0.69642065
-0.20243382
-0.66055577
-0.19613836
-0.637035
-0.1678961
-0.62415365
-0.13484061
-0.61751701
-0.10786408
-0.61423904
-0.086941454
-0.61270459
-0.070798158
-0.61204776
-0.058166549
-0.61182143
-0.048051528
-0.61179737
-0.039742895
-0.61186
-0.032743582
-0.61195141
-0.026703433
-0.61204331
-0.021370403
-0.61212256
-0.016557843
-0.61218362
-0.012123505
-0.61222455
-0.0079541621
-0.0039483073
-0.62618377
0.019548784
-0.6258961
0.01996518
-0.62560428
0.020558517
-0.62530173
0.021453493
-0.62498314
0.02267644
-0.62464979
0.024278872
-0.62431056
0.026325229
-0.62398676
0.028901283
-0.62371998
0.032119122
-0.62358362
0.036126854
-0.62371018
0.041131272
-0.62434505
0.047392853
-0.62585804
0.055091737
-0.62866641
0.064288766
-0.63355932
0.075502812
-0.6421624
0.088706448
-0.65403766
0.097926908
-0.66487397
0.095955517
-0.67275722
0.087003895
-0.67707093
0.075388295
-0.6799105
0.067070558
-0.68282204
0.06185195
-0.68642893
0.057845296
-0.69004516
0.053018483
-0.694506
0.049897607
-0.70161405
0.048944863
-0.7111569
0.045672655
-0.7240986
0.038964896
-0.73556634
0.020128024
-0.74986076
-0.00088139823
-0.76244949
-0.043649529
-0.75916579
-0.12875495
-0.69459067
-0.26700893
-0.65073438
-0.23999466
-0.625304
-0.19332648
-0.61396272
-0.14618189
-0.60976316
-0.11206364
-0.60860983
-0.088094781
-0.60868416
-0.070723828
-0.60919204
-0.057658667
-0.60980281
-0.04744076
-0.61038442
-0.039161291
-0.6108895
-0.032238494
-0.61130626
-0.026286677
-0.61163706
-0.021039606
-0.61188908
-0.016305821
-0.61207022
-0.011942369
-0.61218723
-0.0078371447
-0.0038907414
-0.61276645
0.018729619
-0.61203618
0.019234913
-0.61128973
0.019812068
-0.61050024
0.020663997
-0.60964998
0.021826187
-0.60872691
0.023355803
-0.60772273
0.025321043
-0.60663679
0.027815344
-0.6054836
0.030965928
-0.60430257
0.034945826
-0.60318056
0.040009268
-0.60232601
0.046538301
-0.60215344
0.054919168
-0.60313625
0.065271575
-0.6060127
0.07837926
-0.61372654
0.096420292
-0.6275272
0.11172757
-0.63868992
0.10711823
-0.64545643
0.093770406
-0.64634411
0.076275976
-0.64573638
0.066462831
-0.6456733
0.061788869
-0.64728026
0.059452253
-0.64831181
0.054050035
-0.64944504
0.051030834
-0.6561699
0.055669725
-0.66607514
0.055577897
-0.68384062
0.056730377
-0.69888826
0.035175664
-0.72786023
0.028090574
-0.75027203
-0.021237738
-0.77323459
-0.10579238
-0.67715866
-0.36308486
-0.63076773
-0.2863856
-0.60622335
-0.21787086
-0.59992087
-0.15248437
-0.6002662
-0.11171831
-0.60224903
-0.086111951
-0.60437342
-0.068599437
-0.60623188
-0.05580021
-0.60775545
-0.045917184
-0.60897156
-0.037945184
-0.60992819
-0.031281863
-0.61067129
-0.025543574
-0.611239
-0.020471902
-0.61166107
-0.015883749
-0.61195982
-0.011643625
-0.61215113
-0.0076458324
-0.0037969193
-0.58477962
0.017486168
-0.58351023
0.017965523
-0.58214159
0.018443432
-0.58066948
0.019191889
-0.57906768
0.020224384
-0.57730531
0.02159343
-0.57534573
0.023361471
-0.57314912
0.025618728
-0.57067787
0.02849468
-0.56790481
0.032172761
-0.56482863
0.036933092
-0.56155663
0.043266297
-0.5585328
0.051895343
-0.55652776
0.063266532
-0.55614875
0.078000255
-0.56153158
0.10180312
-0.58049246
0.13068844
-0.59265627
0.11928205
-0.59890971
0.10002385
-0.59405224
0.0714185
-0.58776382
0.060174419
-0.58244277
0.056467813
-0.58157555
0.058585039
-0.57952822
0.052002697
-0.57387621
0.045378825
-0.58519466
0.03252948
-0.59561962
0.037438931
-0.60467977
0.040313192
-0.60342484
0.020480289
-0.6352509
0.039878376
-0.71434572
0.019774525
-0.66918688
-0.054713836
-0.60685834
-0.22710717
-0.57379936
-0.31944458
-0.57150803
-0.22016219
-0.58113688
-0.14285552
-0.58945237
-0.10340282
-0.59561862
-0.079945696
-0.60008654
-0.064131525
-0.60336088
-0.052525869
-0.60579623
-0.043481829
-0.60762935
-0.036112072
-0.60901858
-0.029892629
-0.61007177
-0.024490386
-0.61086356
-0.019680113
-0.61144608
-0.015301226
-0.61185565
-0.011234051
-0.61211694
-0.0073845471
-0.0036689535
-0.52686999
0.015076182
-0.52437325
0.01546879
-0.52172093
0.015791105
-0.51887079
0.016341754
-0.51576858
0.017122174
-0.51234648
0.018171334
-0.50851882
0.019533809
-0.50418045
0.021280358
-0.49920715
0.023521382
-0.49346101
0.026426617
-0.48679892
0.030271005
-0.47911637
0.035583748
-0.47060934
0.043388309
-0.46224585
0.054903038
-0.4543788
0.070133206
-0.4476298
0.095054126
-0.47080989
0.15386854
-0.47005115
0.11852331
-0.46091542
0.090888118
-0.4270957
0.037598774
-0.39543662
0.028515343
-0.36804259
0.029073779
-0.30348981
0.020770613
-0.16299993
0.01345488
-0.041147216
0.0077710184
0
0
0
0
0
0
0
0
0
0
0
0
0
0