/*--------------------------------*- C++ -*----------------------------------*\
| =========                 |                                                 |
| \\      /  F ield         | foam-extend: Open Source CFD                    |
|  \\    /   O peration     | Version:     4.1                                |
|   \\  /    A nd           | Web:         http://www.foam-extend.org         |
|    \\/     M anipulation  |                                                 |
\*---------------------------------------------------------------------------*/
FoamFile
{
    version     2.0;
    format      ascii;
    class       volVectorField;
    location    "2";
    object      U;
}
// * * * * * * * * * * * * * * * * * * * * * * * * * * * * * * * * * * * * * //

dimensions      [0 1 -1 0 0 0 0];

internalField   nonuniform List<vector> 
4393
(
(146.0489 -0.15650305 0)
(146.5975 -0.16293703 0)
(147.01179 -0.16595115 0)
(147.45301 -0.16960188 0)
(147.90407 -0.17400975 0)
(148.36986 -0.17926021 0)
(148.8526 -0.18527511 0)
(149.35444 -0.19190818 0)
(149.87698 -0.19895376 0)
(150.42114 -0.20614883 0)
(150.98694 -0.21317318 0)
(151.57338 -0.21965264 0)
(152.17825 -0.22516783 0)
(152.79805 -0.22927009 0)
(153.42788 -0.23150448 0)
(154.06149 -0.23143771 0)
(154.69139 -0.22868572 0)
(155.30905 -0.22293516 0)
(155.90508 -0.21395441 0)
(156.46957 -0.20159377 0)
(156.99221 -0.18577851 0)
(157.46262 -0.16650108 0)
(157.87046 -0.14381876 0)
(158.20564 -0.11786203 0)
(158.4586 -0.088857129 0)
(158.62066 -0.057159589 0)
(158.68449 -0.023276077 0)
(158.64489 0.012126573 0)
(158.49853 0.047973252 0)
(158.24628 0.082848795 0)
(157.89311 0.11530706 0)
(157.44835 0.14393711 0)
(156.92537 0.16751058 0)
(156.3408 0.18513471 0)
(155.71333 0.19635101 0)
(155.0623 0.20115496 0)
(154.40646 0.19994213 0)
(153.76286 0.19340546 0)
(153.14622 0.18241424 0)
(152.56855 0.1679005 0)
(152.03911 0.15076885 0)
(151.56467 0.13183516 0)
(151.14978 0.11179342 0)
(150.79719 0.091217249 0)
(150.50827 0.070610806 0)
(150.28348 0.050432488 0)
(150.12222 0.03083748 0)
(150.02092 0.011723082 0)
(149.97389 -0.0031700186 0)
(149.47194 -0.3949149 0)
(149.94134 -0.4058665 0)
(150.28758 -0.41396623 0)
(150.65757 -0.42450832 0)
(151.0372 -0.43760807 0)
(151.43147 -0.4533013 0)
(151.84274 -0.47131785 0)
(152.27326 -0.49121227 0)
(152.7247 -0.5123722 0)
(153.19807 -0.53401662 0)
(153.69348 -0.55519377 0)
(154.20999 -0.57478907 0)
(154.74548 -0.59154987 0)
(155.29645 -0.60413188 0)
(155.85801 -0.61116789 0)
(156.42389 -0.61135186 0)
(156.98653 -0.60352334 0)
(157.53727 -0.58673342 0)
(158.06665 -0.56027917 0)
(158.56461 -0.52370466 0)
(159.02078 -0.47678045 0)
(159.42465 -0.41948068 0)
(159.76578 -0.35197802 0)
(160.03398 -0.2746726 0)
(160.2195 -0.18826603 0)
(160.31345 -0.093877229 0)
(160.3083 0.0068450069 0)
(160.19843 0.11165837 0)
(159.98172 0.21748523 0)
(159.65888 0.32051342 0)
(159.23466 0.41654785 0)
(158.71824 0.50139305 0)
(158.123 0.57135847 0)
(157.46573 0.62373688 0)
(156.76535 0.65710945 0)
(156.04147 0.67140902 0)
(155.31302 0.66776027 0)
(154.59716 0.64817306 0)
(153.90862 0.61518117 0)
(153.25934 0.57150316 0)
(152.6585 0.5197722 0)
(152.11272 0.46235054 0)
(151.62645 0.40122607 0)
(151.20242 0.3380018 0)
(150.84201 0.27399621 0)
(150.54554 0.21026771 0)
(150.31218 0.14710533 0)
(150.14086 0.084344886 0)
(150.03531 0.028580571 0)
(149.73739 -0.62939391 0)
(150.19159 -0.63857085 0)
(150.52687 -0.65072058 0)
(150.88501 -0.6677114 0)
(151.25283 -0.68939205 0)
(151.63542 -0.71554033 0)
(152.03526 -0.74564666 0)
(152.45473 -0.77895227 0)
(152.89563 -0.81443502 0)
(153.35911 -0.8507934 0)
(153.84544 -0.88643758 0)
(154.35385 -0.9194993 0)
(154.88235 -0.9478712 0)
(155.42757 -0.96928411 0)
(155.98467 -0.98142461 0)
(156.54738 -0.98208127 0)
(157.10806 -0.96929295 0)
(157.65797 -0.94146444 0)
(158.18754 -0.89742446 0)
(158.68661 -0.83642245 0)
(159.14472 -0.75808559 0)
(159.55127 -0.66237132 0)
(159.89571 -0.54955208 0)
(160.16766 -0.4202617 0)
(160.35714 -0.27562253 0)
(160.45482 -0.1174567 0)
(160.45264 0.051463194 0)
(160.34438 0.22725299 0)
(160.12641 0.40485504 0)
(159.79878 0.57802919 0)
(159.36598 0.73967614 0)
(158.83741 0.88259901 0)
(158.22712 1.0004401 0)
(157.55291 1.0885462 0)
(156.83491 1.1445116 0)
(156.09388 1.1682801 0)
(155.34967 1.1618478 0)
(154.6201 1.1287116 0)
(153.9202 1.0732322 0)
(153.26196 1.0000464 0)
(152.6544 0.91360642 0)
(152.10385 0.81786985 0)
(151.61442 0.71613384 0)
(151.18849 0.61100884 0)
(150.82718 0.50451254 0)
(150.53034 0.39807296 0)
(150.29671 0.2922046 0)
(150.12702 0.18720535 0)
(150.02928 0.087413797 0)
(149.82993 -0.85841 0)
(150.2762 -0.86818714 0)
(150.60688 -0.8844357 0)
(150.96021 -0.90797712 0)
(151.32345 -0.93842297 0)
(151.70181 -0.97532266 0)
(152.09796 -1.0179334 0)
(152.51447 -1.0651983 0)
(152.95336 -1.1157042 0)
(153.41601 -1.1676454 0)
(153.90293 -1.218802 0)
(154.41357 -1.266547 0)
(154.94611 -1.3078964 0)
(155.49728 -1.339616 0)
(156.06222 -1.3583914 0)
(156.63452 -1.3610459 0)
(157.20631 -1.3447655 0)
(157.76854 -1.3072744 0)
(158.31127 -1.2469188 0)
(158.82403 -1.1626525 0)
(159.29607 -1.0539584 0)
(159.71652 -0.92076097 0)
(160.07456 -0.76338824 0)
(160.35947 -0.58262795 0)
(160.56077 -0.37990591 0)
(160.66846 -0.15759514 0)
(160.67364 0.080594069 0)
(160.56908 0.32929731 0)
(160.35013 0.5812984 0)
(160.01601 0.82757885 0)
(159.57083 1.0577954 0)
(159.02428 1.2613675 0)
(158.39145 1.4289113 0)
(157.69177 1.5535894 0)
(156.94728 1.6319474 0)
(156.18053 1.664047 0)
(155.41286 1.6529782 0)
(154.66304 1.6039963 0)
(153.94658 1.5235522 0)
(153.2755 1.4184205 0)
(152.65855 1.2950356 0)
(152.10159 1.159062 0)
(151.60818 1.0151827 0)
(151.1802 0.86707331 0)
(150.81825 0.71749271 0)
(150.52164 0.56832298 0)
(150.28881 0.42059251 0)
(150.12121 0.27534756 0)
(150.02715 0.13502561 0)
(149.93891 -1.0819507 0)
(150.37711 -1.0932728 0)
(150.70246 -1.1137401 0)
(151.05041 -1.1439489 0)
(151.40864 -1.1833396 0)
(151.78247 -1.2312725 0)
(152.17479 -1.2867847 0)
(152.58842 -1.3485316 0)
(153.02568 -1.4147164 0)
(153.48825 -1.4830299 0)
(153.97695 -1.5506115 0)
(154.49154 -1.6140474 0)
(155.03044 -1.6694272 0)
(155.59049 -1.712479 0)
(156.16684 -1.7387985 0)
(156.75286 -1.7441541 0)
(157.34035 -1.7248095 0)
(157.91977 -1.6777764 0)
(158.48071 -1.6009279 0)
(159.01226 -1.4929614 0)
(159.50327 -1.353261 0)
(159.94259 -1.181748 0)
(160.31906 -0.97880112 0)
(160.62154 -0.7453136 0)
(160.83897 -0.48292661 0)
(160.96048 -0.19445203 0)
(160.97602 0.11557316 0)
(160.87701 0.44040869 0)
(160.65725 0.77075467 0)
(160.31473 1.0946357 0)
(159.85288 1.3980365 0)
(159.28173 1.6664152 0)
(158.61787 1.8868027 0)
(157.88307 2.0498085 0)
(157.10209 2.15084 0)
(156.3001 2.1902459 0)
(155.50046 2.1725462 0)
(154.72327 2.1051457 0)
(153.98459 1.9969419 0)
(153.29645 1.8571165 0)
(152.66714 1.694249 0)
(152.10183 1.5157732 0)
(151.60332 1.3277346 0)
(151.17272 1.1347786 0)
(150.80995 0.94026471 0)
(150.51371 0.74638695 0)
(150.28219 0.55444186 0)
(150.11706 0.36561723 0)
(150.02586 0.18119237 0)
(150.07649 -1.3029515 0)
(150.50471 -1.3163105 0)
(150.82324 -1.3411835 0)
(151.16438 -1.378282 0)
(151.51625 -1.4269419 0)
(151.88433 -1.4863913 0)
(152.27176 -1.5554861 0)
(152.68167 -1.6326277 0)
(153.11673 -1.7156638 0)
(153.57904 -1.8017994 0)
(154.06983 -1.8875322 0)
(154.58925 -1.9686348 0)
(155.13607 -2.0402094 0)
(155.70733 -2.0968483 0)
(156.29815 -2.1329281 0)
(156.90166 -2.1430243 0)
(157.50916 -2.1223641 0)
(158.1105 -2.0671839 0)
(158.69463 -1.974879 0)
(159.25004 -1.843925 0)
(159.76515 -1.6736489 0)
(160.22843 -1.4639803 0)
(160.62838 -1.2153031 0)
(160.95342 -0.92849924 0)
(161.19179 -0.60524018 0)
(161.33155 -0.24854917 0)
(161.36114 0.13642452 0)
(161.27019 0.54165214 0)
(161.05039 0.95566192 0)
(160.69784 1.3632368 0)
(160.21494 1.746086 0)
(159.61207 2.0848714 0)
(158.90778 2.3622197 0)
(158.12714 2.56566 0)
(157.29869 2.6893652 0)
(156.45115 2.734265 0)
(155.61059 2.7068434 0)
(154.79877 2.6172589 0)
(154.03241 2.4774022 0)
(153.32335 2.2992823 0)
(152.67921 2.0939007 0)
(152.10417 1.8706092 0)
(151.59994 1.6368633 0)
(151.16662 1.3982524 0)
(150.80317 1.1586725 0)
(150.50754 0.92055169 0)
(150.27748 0.68523083 0)
(150.11443 0.4535393 0)
(150.02513 0.22567281 0)
(150.24332 -1.5149134 0)
(150.66 -1.5306047 0)
(150.97019 -1.5601513 0)
(151.30294 -1.6044741 0)
(151.64693 -1.6628348 0)
(152.00783 -1.7343734 0)
(152.38906 -1.817804 0)
(152.79415 -1.9113121 0)
(153.22618 -2.0124238 0)
(153.68776 -2.1178802 0)
(154.18067 -2.2235394 0)
(154.70559 -2.3243312 0)
(155.26171 -2.4142985 0)
(155.84638 -2.486776 0)
(156.45474 -2.5347553 0)
(157.07958 -2.5514397 0)
(157.71159 -2.5308764 0)
(158.33976 -2.4684626 0)
(158.9522 -2.3611439 0)
(159.53666 -2.2072668 0)
(160.08104 -2.006207 0)
(160.57343 -1.7579687 0)
(161.00204 -1.462928 0)
(161.35486 -1.1218406 0)
(161.61936 -0.73618874 0)
(161.78237 -0.30890688 0)
(161.83046 0.15456197 0)
(161.75091 0.64516095 0)
(161.53252 1.1493542 0)
(161.16872 1.6483682 0)
(160.66021 2.1188356 0)
(160.01762 2.5354315 0)
(159.26211 2.8751745 0)
(158.42322 3.1217398 0)
(157.5347 3.2679346 0)
(156.62999 3.3156985 0)
(155.73869 3.2742246 0)
(154.88454 3.1572325 0)
(154.08491 2.9802989 0)
(153.35126 2.7587572 0)
(152.69013 2.5063251 0)
(152.10436 2.2343984 0)
(151.59425 1.9518493 0)
(151.15854 1.665149 0)
(150.79505 1.3786525 0)
(150.50078 1.0949562 0)
(150.27284 0.8153577 0)
(150.11214 0.54028894 0)
(150.02456 0.26916637 0)
(150.43875 -1.7254239 0)
(150.84135 -1.7434645 0)
(151.14158 -1.7777063 0)
(151.46428 -1.8293609 0)
(151.79881 -1.8976662 0)
(152.15098 -1.9817292 0)
(152.52461 -2.0801793 0)
(152.92361 -2.1910449 0)
(153.35163 -2.3115844 0)
(153.81186 -2.438117 0)
(154.30676 -2.5658772 0)
(154.8377 -2.6889275 0)
(155.40448 -2.8001706 0)
(156.00486 -2.8915294 0)
(156.63403 -2.9543861 0)
(157.28442 -2.9803157 0)
(157.94584 -2.9619718 0)
(158.60621 -2.8938113 0)
(159.25248 -2.7723638 0)
(159.87151 -2.5959742 0)
(160.45059 -2.3642121 0)
(160.9775 -2.0772445 0)
(161.44023 -1.7354199 0)
(161.82644 -1.339209 0)
(162.12287 -0.88960245 0)
(162.31495 -0.38902807 0)
(162.38701 0.15723889 0)
(162.32337 0.73946639 0)
(162.10896 1.3421777 0)
(161.73338 1.9427304 0)
(161.19461 2.5116552 0)
(160.5033 3.015975 0)
(159.684 3.4253641 0)
(158.77235 3.7185546 0)
(157.80919 3.8868767 0)
(156.83422 3.9339781 0)
(155.88146 3.8728725 0)
(154.977 3.7219821 0)
(154.1387 3.5015026 0)
(153.3772 3.2307242 0)
(152.6975 2.9264244 0)
(152.10061 2.6021567 0)
(151.58495 2.268166 0)
(151.14761 1.9316701 0)
(150.78497 1.5973066 0)
(150.49295 1.2676451 0)
(150.26784 0.9437351 0)
(150.10983 0.625512 0)
(150.02402 0.31173444 0)
(150.66219 -1.9210458 0)
(151.04919 -1.9416737 0)
(151.33788 -1.9810158 0)
(151.64881 -2.0405636 0)
(151.97211 -2.1195456 0)
(152.31385 -2.2170828 0)
(152.67819 -2.3317792 0)
(153.06956 -2.4615721 0)
(153.49221 -2.6035182 0)
(153.95009 -2.7535678 0)
(154.44648 -2.9063568 0)
(154.98362 -3.0550584 0)
(155.56213 -3.1913414 0)
(156.18036 -3.3055255 0)
(156.83368 -3.3870864 0)
(157.51403 -3.425617 0)
(158.21014 -3.4120791 0)
(158.90842 -3.3398612 0)
(159.59436 -3.2051572 0)
(160.25367 -3.0065377 0)
(160.87299 -2.7440222 0)
(161.4399 -2.4181172 0)
(161.94234 -2.0291689 0)
(162.36788 -1.5771971 0)
(162.70264 -1.062327 0)
(162.93058 -0.48592845 0)
(163.03337 0.1475381 0)
(162.99172 0.82827 0)
(162.78538 1.5392591 0)
(162.39851 2.2537521 0)
(161.82486 2.9348983 0)
(161.07448 3.5397212 0)
(160.17633 4.027985 0)
(159.17447 4.3718921 0)
(158.11936 4.5612116 0)
(157.05902 4.6023805 0)
(156.03299 4.513834 0)
(155.06991 4.3202492 0)
(154.18778 4.0476356 0)
(153.39583 3.7199945 0)
(152.69681 3.3575296 0)
(152.08924 2.9760382 0)
(151.56919 2.5870521 0)
(151.13168 2.1983646 0)
(150.77141 1.8146983 0)
(150.483 1.438394 0)
(150.2618 1.0700619 0)
(150.10717 0.70902278 0)
(150.02341 0.35333301 0)
(150.91341 -2.118568 0)
(151.2815 -2.1416601 0)
(151.55679 -2.1859515 0)
(151.85405 -2.2533025 0)
(152.16426 -2.3429953 0)
(152.49367 -2.4542327 0)
(152.84687 -2.5856745 0)
(153.22882 -2.7352603 0)
(153.6445 -2.8999433 0)
(154.09873 -3.0753946 0)
(154.59582 -3.2557125 0)
(155.1391 -3.4331883 0)
(155.7303 -3.598179 0)
(156.36861 -3.7391917 0)
(157.04972 -3.8434251 0)
(157.76503 -3.8980142 0)
(158.50183 -3.8918115 0)
(159.24453 -3.8169641 0)
(159.97659 -3.6694681 0)
(160.68231 -3.4484712 0)
(161.34765 -3.1548233 0)
(161.96015 -2.7896245 0)
(162.50808 -2.353262 0)
(162.97923 -1.8450911 0)
(163.35942 -1.2638769 0)
(163.63114 -0.60918521 0)
(163.77308 0.11624379 0)
(163.76153 0.90344752 0)
(163.56949 1.7345455 0)
(163.17347 2.5786434 0)
(162.56057 3.3900022 0)
(161.7391 4.112355 0)
(160.74374 4.6917334 0)
(159.63022 5.091494 0)
(158.46232 5.2998952 0)
(157.29902 5.3278909 0)
(156.18666 5.2016873 0)
(155.15645 4.9543382 0)
(154.22587 4.6191809 0)
(153.40177 4.2257867 0)
(152.6837 3.7981202 0)
(152.0669 3.3542085 0)
(151.54448 2.9066636 0)
(151.10898 2.4635706 0)
(150.75314 2.0294461 0)
(150.47013 1.6061363 0)
(150.25423 1.1935963 0)
(150.1039 0.79039427 0)
(150.02268 0.39378366 0)
(151.1905 -2.2909265 0)
(151.53867 -2.3166134 0)
(151.79895 -2.366241 0)
(152.08069 -2.4420009 0)
(152.37584 -2.5432451 0)
(152.69088 -2.6693235 0)
(153.03084 -2.8190434 0)
(153.40128 -2.9904577 0)
(153.80799 -3.1805388 0)
(154.25679 -3.3847956 0)
(154.75325 -3.5968752 0)
(155.30209 -3.8082119 0)
(155.90646 -4.0077712 0)
(156.56681 -4.1819923 0)
(157.27939 -4.3152946 0)
(158.03505 -4.3916541 0)
(158.81916 -4.3971635 0)
(159.61335 -4.3224359 0)
(160.3984 -4.1634603 0)
(161.15678 -3.9204891 0)
(161.8738 -3.5957812 0)
(162.53728 -3.1914332 0)
(163.13633 -2.7080061 0)
(163.65952 -2.1440067 0)
(164.09285 -1.4962813 0)
(164.41756 -0.76166049 0)
(164.60907 0.060038069 0)
(164.63844 0.96206385 0)
(164.46999 1.9268341 0)
(164.06949 2.9196721 0)
(163.4137 3.8843454 0)
(162.50705 4.7466747 0)
(161.39153 5.4331251 0)
(160.13942 5.894724 0)
(158.83316 6.1185704 0)
(157.54627 6.1228999 0)
(156.33319 5.9451404 0)
(155.22741 5.6295988 0)
(154.2447 5.2188184 0)
(153.3881 4.7488741 0)
(152.6527 4.2477395 0)
(152.02945 3.7355113 0)
(151.50782 3.22553 0)
(151.07742 2.7257672 0)
(150.72878 2.2401498 0)
(150.45347 1.7697008 0)
(150.24464 1.3134617 0)
(150.09983 0.86906775 0)
(150.02177 0.43282104 0)
(151.49499 -2.4738454 0)
(151.81879 -2.5022065 0)
(152.06188 -2.5571308 0)
(152.32587 -2.6412535 0)
(152.60371 -2.7540739 0)
(152.902 -2.8951707 0)
(153.22623 -3.0636032 0)
(153.58258 -3.2576697 0)
(153.97773 -3.4745151 0)
(154.41872 -3.709646 0)
(154.91258 -3.9563937 0)
(155.46579 -4.2054103 0)
(156.08337 -4.444236 0)
(156.76757 -4.6569964 0)
(157.51568 -4.8247311 0)
(158.31801 -4.9273203 0)
(159.15738 -4.9471891 0)
(160.01158 -4.8730558 0)
(160.85764 -4.7013063 0)
(161.67565 -4.43422 0)
(162.45029 -4.0764248 0)
(163.1702 -3.6316534 0)
(163.826 -3.1008604 0)
(164.4079 -2.4814868 0)
(164.90282 -1.7677146 0)
(165.29123 -0.95232377 0)
(165.54522 -0.030499954 0)
(165.62896 0.99512989 0)
(165.49756 2.1090126 0)
(165.10114 3.2741393 0)
(164.40039 4.4222939 0)
(163.39186 5.4549452 0)
(162.12684 6.2698976 0)
(160.70163 6.8004579 0)
(159.22515 7.0336204 0)
(157.79023 6.9993793 0)
(156.46075 6.7514867 0)
(155.27147 6.3493666 0)
(154.23446 5.8470204 0)
(153.3469 5.2879324 0)
(152.59774 4.7041226 0)
(151.97246 4.1173456 0)
(151.4561 3.5410958 0)
(151.0349 2.9826602 0)
(150.69697 2.4448822 0)
(150.4322 1.9275675 0)
(150.23259 1.4285524 0)
(150.09477 0.94433487 0)
(150.02066 0.47010144 0)
(151.82144 -2.6141373 0)
(152.12076 -2.6447327 0)
(152.34508 -2.7047745 0)
(152.58941 -2.7972816 0)
(152.84782 -2.9219242 0)
(153.12706 -3.0786036 0)
(153.43303 -3.2667731 0)
(153.77259 -3.4851613 0)
(154.15337 -3.7313121 0)
(154.58377 -4.000981 0)
(155.07259 -4.2874206 0)
(155.6284 -4.5806769 0)
(156.2587 -4.8669264 0)
(156.96827 -5.1277866 0)
(157.75619 -5.340192 0)
(158.61235 -5.4785778 0)
(159.51622 -5.520244 0)
(160.44011 -5.4513122 0)
(161.35574 -5.2690168 0)
(162.24005 -4.978876 0)
(163.07735 -4.5890968 0)
(163.85785 -4.1057443 0)
(164.57482 -3.5303359 0)
(165.2213 -2.859005 0)
(165.78633 -2.0824855 0)
(166.25049 -1.1879848 0)
(166.5826 -0.16396696 0)
(166.73938 0.99331302 0)
(166.66426 2.2730465 0)
(166.28652 3.6388204 0)
(165.54188 5.0097663 0)
(164.41171 6.2542117 0)
(162.95883 7.2267858 0)
(161.31518 7.8343658 0)
(159.62819 8.0664538 0)
(158.01629 7.9721075 0)
(156.55374 7.6289874 0)
(155.27431 7.116745 0)
(154.18321 6.5034106 0)
(153.26889 5.840581 0)
(152.51197 5.1639761 0)
(151.89108 4.4962174 0)
(151.38601 3.8500826 0)
(150.97926 3.2313978 0)
(150.65637 2.6413022 0)
(150.40553 2.0779208 0)
(150.21767 1.537558 0)
(150.08855 1.0153538 0)
(150.01929 0.50521353 0)
(152.17465 -2.7815903 0)
(152.44371 -2.8153294 0)
(152.64675 -2.8812279 0)
(152.86888 -2.9828177 0)
(153.10516 -3.1200365 0)
(153.36236 -3.2932109 0)
(153.64674 -3.5023227 0)
(153.96578 -3.7467052 0)
(154.32815 -4.0245205 0)
(154.74375 -4.3320275 0)
(155.22343 -4.6626477 0)
(155.77836 -5.0060018 0)
(156.41922 -5.3469744 0)
(157.15439 -5.6644766 0)
(157.98596 -5.930409 0)
(158.90397 -6.1117749 0)
(159.88345 -6.1784411 0)
(160.88888 -6.1128404 0)
(161.88436 -5.913954 0)
(162.84261 -5.5927989 0)
(163.74793 -5.1634881 0)
(164.59334 -4.6359264 0)
(165.37602 -4.0129152 0)
(166.09333 -3.2894699 0)
(166.73807 -2.4522426 0)
(167.29224 -1.4808997 0)
(167.72185 -0.35406248 0)
(167.97576 0.94198216 0)
(167.98399 2.4052839 0)
(167.64863 4.0054597 0)
(166.86701 5.6507776 0)
(165.592 7.1649937 0)
(163.89973 8.3359328 0)
(161.97666 9.0292364 0)
(160.02753 9.2430084 0)
(158.20443 9.0573637 0)
(156.59184 8.585189 0)
(155.21816 7.9329419 0)
(154.07683 7.185357 0)
(153.14355 6.4023163 0)
(152.38796 5.6222391 0)
(151.78027 4.8672732 0)
(151.29428 4.1482221 0)
(150.90845 3.4684364 0)
(150.60573 2.8266008 0)
(150.37276 2.2186364 0)
(150.19952 1.6389696 0)
(150.08103 1.081162 0)
(150.01763 0.5376876 0)
(152.54178 -2.8798053 0)
(152.7815 -2.9149422 0)
(152.96176 -2.9850756 0)
(153.15971 -3.0941263 0)
(153.37159 -3.2422901 0)
(153.60416 -3.4304035 0)
(153.86397 -3.6591364 0)
(154.1591 -3.9286706 0)
(154.49926 -4.238132 0)
(154.896 -4.5847391 0)
(155.36254 -4.9626037 0)
(155.91315 -5.3614265 0)
(156.56248 -5.7652616 0)
(157.32392 -6.1505996 0)
(158.2045 -6.4836787 0)
(159.19542 -6.7216571 0)
(160.26586 -6.8236507 0)
(161.3687 -6.7667902 0)
(162.45663 -6.5532399 0)
(163.49646 -6.2028086 0)
(164.4732 -5.7384187 0)
(165.38456 -5.1748606 0)
(166.23364 -4.5158117 0)
(167.02423 -3.7542726 0)
(167.75556 -2.8713362 0)
(168.4135 -1.8362749 0)
(168.96247 -0.61392267 0)
(169.34329 0.82335828 0)
(169.47201 2.4868593 0)
(169.2163 4.3601547 0)
(168.41529 6.3472044 0)
(166.96902 8.213765 0)
(164.96627 9.6418775 0)
(162.6795 10.429067 0)
(160.40122 10.595948 0)
(158.32696 10.273424 0)
(156.54861 9.626538 0)
(155.08116 8.7966275 0)
(153.89885 7.8874008 0)
(152.95927 6.9661172 0)
(152.21794 6.0718577 0)
(151.63504 5.2241949 0)
(151.17781 4.4302253 0)
(150.82062 3.6895495 0)
(150.54402 2.9975269 0)
(150.33333 2.3473119 0)
(150.17788 1.7311083 0)
(150.07212 1.1406985 0)
(150.01568 0.567008 0)
(152.93698 -3.0310657 0)
(153.14048 -3.0701518 0)
(153.2954 -3.1468628 0)
(153.46664 -3.2656872 0)
(153.65134 -3.4272526 0)
(153.85598 -3.6331098 0)
(154.08726 -3.8848711 0)
(154.35369 -4.1838797 0)
(154.66593 -4.5306144 0)
(155.03721 -4.9237349 0)
(155.4834 -5.3585697 0)
(156.02239 -5.8253362 0)
(156.67363 -6.3075852 0)
(157.4574 -6.7795967 0)
(158.38868 -7.2009855 0)
(159.46226 -7.5149789 0)
(160.63985 -7.663563 0)
(161.85728 -7.6146665 0)
(163.05022 -7.3750456 0)
(164.17755 -6.978163 0)
(165.22682 -6.4605457 0)
(166.20377 -5.8441857 0)
(167.12003 -5.1345176 0)
(167.98794 -4.3239745 0)
(168.81607 -3.3897506 0)
(169.5972 -2.2900788 0)
(170.29528 -0.97230977 0)
(170.84296 0.61051093 0)
(171.14351 2.490082 0)
(171.02502 4.6786404 0)
(170.24136 7.0944246 0)
(168.5961 9.4336108 0)
(166.18203 11.2077 0)
(163.41157 12.093522 0)
(160.7165 12.166133 0)
(158.34554 11.639648 0)
(156.38986 10.756604 0)
(154.83682 9.7022174 0)
(153.63054 8.5999753 0)
(152.7037 7.5216351 0)
(151.99418 6.5033448 0)
(151.4508 5.559005 0)
(151.034 4.6897291 0)
(150.71437 3.8898449 0)
(150.4705 3.1504324 0)
(150.2869 2.4613169 0)
(150.1526 1.8121686 0)
(150.06175 1.1928359 0)
(150.01342 0.59262959 0)
(153.33168 -3.0768192 0)
(153.50077 -3.1160444 0)
(153.62882 -3.1954265 0)
(153.77114 -3.3198164 0)
(153.92599 -3.4901491 0)
(154.09947 -3.7086352 0)
(154.29828 -3.977828 0)
(154.53128 -4.3003151 0)
(154.80995 -4.6781562 0)
(155.1493 -5.1119224 0)
(155.56817 -5.5989031 0)
(156.0887 -6.1307036 0)
(156.73613 -6.6913624 0)
(157.53982 -7.254409 0)
(158.52746 -7.7735993 0)
(159.70196 -8.1744157 0)
(161.01591 -8.3733002 0)
(162.37902 -8.3244962 0)
(163.70036 -8.044159 0)
(164.92693 -7.5894238 0)
(166.05132 -7.0193946 0)
(167.09189 -6.3662534 0)
(168.07142 -5.6359802 0)
(169.01248 -4.818894 0)
(169.93708 -3.886413 0)
(170.85099 -2.7790474 0)
(171.72208 -1.4149044 0)
(172.4772 0.28402374 0)
(173.01215 2.3776547 0)
(173.11576 4.9213721 0)
(172.42032 7.8764339 0)
(170.55375 10.866634 0)
(167.5816 13.127294 0)
(164.15062 14.10542 0)
(160.92372 14.004726 0)
(158.20685 13.174884 0)
(156.07175 11.973509 0)
(154.4537 10.637668 0)
(153.25146 9.3079486 0)
(152.36449 8.0544025 0)
(151.70971 6.9044407 0)
(151.22387 5.861985 0)
(150.86107 4.9193406 0)
(150.58892 4.0638554 0)
(150.38491 3.2813691 0)
(150.2334 2.5578767 0)
(150.12367 1.8802831 0)
(150.04994 1.2364229 0)
(150.01084 0.61399933 0)
(153.75569 -3.2105241 0)
(153.88268 -3.2554275 0)
(153.98163 -3.3424569 0)
(154.09298 -3.4770459 0)
(154.2157 -3.6607009 0)
(154.35515 -3.8966861 0)
(154.5178 -4.1890303 0)
(154.71248 -4.5422763 0)
(154.95118 -4.9609999 0)
(155.25029 -5.4489334 0)
(155.63165 -6.0069212 0)
(156.12193 -6.6295755 0)
(156.75262 -7.302763 0)
(157.56418 -8.00109 0)
(158.60366 -8.6739775 0)
(159.89074 -9.2230209 0)
(161.368 -9.5216915 0)
(162.90495 -9.4972084 0)
(164.36899 -9.1778338 0)
(165.69041 -8.6552008 0)
(166.87324 -8.0208375 0)
(167.9584 -7.3169027 0)
(168.9853 -6.5442456 0)
(169.9892 -5.6890009 0)
(171.01178 -4.7215354 0)
(172.08126 -3.5675697 0)
(173.1739 -2.1154436 0)
(174.20834 -0.25761646 0)
(175.06622 2.0891942 0)
(175.52437 5.0320946 0)
(175.04923 8.6560139 0)
(172.96252 12.558857 0)
(169.21552 15.541403 0)
(164.85469 16.57956 0)
(160.94683 16.174547 0)
(157.83669 14.893702 0)
(155.53883 13.265542 0)
(153.89572 11.581256 0)
(152.74048 9.9887724 0)
(151.93042 8.5449916 0)
(151.35922 7.2598654 0)
(150.95215 6.1217183 0)
(150.65849 5.1107891 0)
(150.44443 4.2057104 0)
(150.28758 3.3862398 0)
(150.17313 2.6341908 0)
(150.0913 1.9336073 0)
(150.03677 1.2703397 0)
(150.00798 0.63058307 0)
(154.13603 -3.1946816 0)
(154.2223 -3.2378824 0)
(154.29032 -3.3244962 0)
(154.36798 -3.4608659 0)
(154.45497 -3.6490485 0)
(154.55571 -3.8932537 0)
(154.67605 -4.1987699 0)
(154.82445 -4.5717891 0)
(155.01294 -5.0190349 0)
(155.25899 -5.5471186 0)
(155.5875 -6.160523 0)
(156.03057 -6.8572077 0)
(156.62672 -7.6250522 0)
(157.4296 -8.4415007 0)
(158.5156 -9.2566642 0)
(159.93815 -9.9451402 0)
(161.63227 -10.313361 0)
(163.40427 -10.243883 0)
(165.05398 -9.7924612 0)
(166.48647 -9.1123558 0)
(167.72733 -8.3536521 0)
(168.85533 -7.5750404 0)
(169.93072 -6.7696725 0)
(170.99656 -5.9227083 0)
(172.11533 -5.0183387 0)
(173.3477 -3.9702194 0)
(174.6841 -2.6195435 0)
(176.03287 -0.79604979 0)
(177.28229 1.6461385 0)
(178.24498 4.915505 0)
(178.21501 9.3274186 0)
(175.983 14.535081 0)
(171.15292 18.67479 0)
(165.44356 19.685661 0)
(160.66921 18.75351 0)
(157.13224 16.799796 0)
(154.72272 14.604313 0)
(153.12358 12.497236 0)
(152.07795 10.610406 0)
(151.39325 8.9683396 0)
(150.94036 7.5513298 0)
(150.63596 6.3253589 0)
(150.42752 5.2552425 0)
(150.28222 4.309414 0)
(150.1796 3.4610145 0)
(150.10684 2.6875901 0)
(150.05591 1.970426 0)
(150.02242 1.2935628 0)
(150.00486 0.64189703 0)
(154.44917 -3.3022408 0)
(154.48551 -3.3566745 0)
(154.51865 -3.4545565 0)
(154.55834 -3.6033108 0)
(154.60486 -3.8054412 0)
(154.66136 -4.0662405 0)
(154.73285 -4.3925686 0)
(154.82708 -4.7929272 0)
(154.95558 -5.2774017 0)
(155.13606 -5.8576244 0)
(155.39585 -6.5454601 0)
(155.77243 -7.3477173 0)
(156.3106 -8.2600656 0)
(157.07565 -9.2697738 0)
(158.18316 -10.341535 0)
(159.74876 -11.327801 0)
(161.7094 -11.924429 0)
(163.76892 -11.919026 0)
(165.61625 -11.407367 0)
(167.11992 -10.628221 0)
(168.34711 -9.8215963 0)
(169.44331 -9.0578436 0)
(170.4972 -8.2998313 0)
(171.55038 -7.5092786 0)
(172.69262 -6.6866679 0)
(174.0481 -5.7210599 0)
(175.64977 -4.371434 0)
(177.40808 -2.3761606 0)
(179.22605 0.47500244 0)
(181.00097 4.3266768 0)
(181.86789 9.7701167 0)
(179.76964 16.835907 0)
(173.45906 22.958855 0)
(165.74647 23.683955 0)
(159.90419 21.828257 0)
(155.95016 18.869612 0)
(153.54169 15.933066 0)
(152.09817 13.330052 0)
(151.24923 11.129257 0)
(150.75032 9.2935267 0)
(150.45538 7.7579991 0)
(150.27891 6.45923 0)
(150.17159 5.3438318 0)
(150.10503 4.3692435 0)
(150.06289 3.5020136 0)
(150.03575 2.7157273 0)
(150.01815 1.989277 0)
(150.00717 1.3052393 0)
(150.00155 0.64754248 0)
(154.3853 -3.2264146 0)
(154.36103 -3.2763501 0)
(154.35208 -3.3656591 0)
(154.34547 -3.505667 0)
(154.34208 -3.7001678 0)
(154.34313 -3.9560711 0)
(154.35202 -4.2822241 0)
(154.37465 -4.6898382 0)
(154.4205 -5.1926704 0)
(154.50529 -5.8074435 0)
(154.65647 -6.5534381 0)
(154.91617 -7.4463701 0)
(155.33501 -8.4870537 0)
(155.98634 -9.666389 0)
(157.0363 -10.969703 0)
(158.7181 -12.239154 0)
(161.00761 -12.99045 0)
(163.44219 -12.819357 0)
(165.52458 -11.932108 0)
(167.06703 -10.72173 0)
(168.21041 -9.6087575 0)
(169.22024 -8.6682267 0)
(170.23034 -7.7968945 0)
(171.25943 -6.8995257 0)
(172.42046 -6.0540443 0)
(173.93752 -5.1960511 0)
(175.90351 -4.0102289 0)
(178.21013 -2.196732 0)
(180.68137 0.51389397 0)
(183.37352 4.0150899 0)
(185.59559 9.8510472 0)
(184.21843 19.141196 0)
(175.9947 28.862687 0)
(165.32564 28.721184 0)
(158.34142 25.418856 0)
(154.09604 21.018282 0)
(151.90623 17.149386 0)
(150.78835 13.99787 0)
(150.25051 11.488969 0)
(150.00811 9.4845559 0)
(149.913 7.8576936 0)
(149.88886 6.5098713 0)
(149.8968 5.368419 0)
(149.91719 4.3802715 0)
(149.94031 3.506247 0)
(149.96157 2.7167928 0)
(149.97892 1.9890834 0)
(149.99135 1.3047625 0)
(149.99812 0.64724112 0)
(153.4756 -3.2561438 0)
(153.37705 -3.3298665 0)
(153.30978 -3.4386803 0)
(153.23682 -3.5987957 0)
(153.16066 -3.8143011 0)
(153.08018 -4.0930052 0)
(152.99648 -4.4447018 0)
(152.91279 -4.8820177 0)
(152.83543 -5.4208849 0)
(152.77657 -6.0815789 0)
(152.76201 -6.8904679 0)
(152.83887 -7.8764418 0)
(153.06516 -9.0553886 0)
(153.51259 -10.434107 0)
(154.39402 -12.057072 0)
(156.14055 -13.846334 0)
(158.8497 -15.094572 0)
(161.75875 -14.978297 0)
(164.04124 -13.952296 0)
(165.43469 -12.558999 0)
(166.22819 -11.491846 0)
(166.92115 -10.75577 0)
(167.71744 -10.149324 0)
(168.53756 -9.4729438 0)
(169.45585 -9.0181397 0)
(170.86712 -8.8483543 0)
(172.96929 -8.2920816 0)
(175.65779 -7.0428928 0)
(178.57217 -4.4765414 0)
(182.42927 -0.72728355 0)
(187.1584 7.2307683 0)
(188.24556 20.22847 0)
(177.92813 36.681033 0)
(163.24699 34.969201 0)
(155.5947 29.536042 0)
(151.35119 23.102786 0)
(149.73668 18.092291 0)
(149.1848 14.388261 0)
(149.09723 11.621626 0)
(149.18648 9.502946 0)
(149.33031 7.8291599 0)
(149.47858 6.4656299 0)
(149.61204 5.3226127 0)
(149.72459 4.338986 0)
(149.81557 3.471787 0)
(149.88647 2.6897359 0)
(149.93934 1.9692827 0)
(149.97543 1.2918442 0)
(149.99467 0.64086775 0)
(150.27861 -3.1552696 0)
(150.03197 -3.2213458 0)
(149.86063 -3.3060083 0)
(149.67254 -3.435832 0)
(149.47246 -3.6160336 0)
(149.25557 -3.8554411 0)
(149.01942 -4.1649157 0)
(148.7626 -4.5592283 0)
(148.48548 -5.0584102 0)
(148.19175 -5.6900299 0)
(147.89692 -6.4944237 0)
(147.64242 -7.527771 0)
(147.48317 -8.8431749 0)
(147.45914 -10.471263 0)
(147.78384 -12.507511 0)
(149.20302 -15.035369 0)
(152.18258 -17.053639 0)
(155.43125 -16.589305 0)
(157.5861 -14.74614 0)
(158.3364 -12.183468 0)
(158.23481 -10.348648 0)
(158.16907 -9.1901432 0)
(158.40397 -8.4350484 0)
(158.60252 -7.524757 0)
(158.71873 -7.0237638 0)
(159.66765 -7.0176172 0)
(161.78114 -5.994785 0)
(164.94963 -4.8735806 0)
(168.68335 -1.9567602 0)
(175.06207 4.1667709 0)
(184.04687 12.175433 0)
(189.65396 24.095434 0)
(176.92314 49.629308 0)
(157.54553 45.38778 0)
(150.91437 34.317512 0)
(147.40324 24.793059 0)
(146.95732 18.491101 0)
(147.31608 14.349943 0)
(147.83444 11.452164 0)
(148.32309 9.3129433 0)
(148.73401 7.6556675 0)
(149.06588 6.3187905 0)
(149.32881 5.2029587 0)
(149.53445 4.2439446 0)
(149.69303 3.3981263 0)
(149.81295 2.6344625 0)
(149.90068 1.9299359 0)
(149.95989 1.2665723 0)
(149.99131 0.62847603 0)
(143.5099 -2.9198292 0)
(143.10988 -3.0121947 0)
(142.7997 -3.113721 0)
(142.45148 -3.2633197 0)
(142.07689 -3.4659064 0)
(141.66672 -3.7316193 0)
(141.21292 -4.0727787 0)
(140.70609 -4.5065497 0)
(140.13586 -5.0567001 0)
(139.49026 -5.7559344 0)
(138.76264 -6.6519294 0)
(137.97552 -7.8156762 0)
(137.18232 -9.320749 0)
(136.39285 -11.178072 0)
(135.76005 -13.444307 0)
(136.50386 -16.540649 0)
(140.14377 -19.65663 0)
(144.25781 -18.174235 0)
(146.43866 -15.446638 0)
(146.26448 -11.967196 0)
(144.63857 -10.768969 0)
(143.25527 -10.900767 0)
(142.63853 -11.370389 0)
(142.04305 -10.884922 0)
(141.16563 -10.369115 0)
(141.99173 -10.532129 9.2157731e-18)
(143.27224 -11.9218 -2.0396658e-19)
(145.57726 -13.589592 0)
(146.66476 -7.4755449 1.0016068e-17)
(144.02819 -14.510049 -7.4990632e-18)
(161.53016 -10.135072 4.4273297e-18)
(180.41243 5.4383806 -9.8916346e-18)
(167.93166 72.289502 6.3471868e-18)
(142.12824 58.029228 0)
(140.66652 37.126157 0)
(141.63428 24.706928 0)
(143.57067 17.830776 0)
(145.29833 13.692643 0)
(146.55469 10.912851 0)
(147.47727 8.891308 0)
(148.16032 7.3301421 0)
(148.67269 6.0680709 0)
(149.06042 5.0101312 0)
(149.35481 4.0963452 0)
(149.57745 3.2864576 0)
(149.74366 2.5519736 0)
(149.86425 1.8717972 0)
(149.94526 1.2294455 0)
(149.98814 0.61031315 0)
(129.54801 -2.869316 0)
(128.7641 -2.9446594 0)
(128.16039 -3.0084948 0)
(127.48612 -3.1100046 0)
(126.7612 -3.2511123 0)
(125.96661 -3.4389912 0)
(125.08415 -3.6816075 0)
(124.09077 -3.9906562 0)