/*--------------------------------*- C++ -*----------------------------------*\
| =========                 |                                                 |
| \\      /  F ield         | foam-extend: Open Source CFD                    |
|  \\    /   O peration     | Version:     4.1                                |
|   \\  /    A nd           | Web:         http://www.foam-extend.org         |
|    \\/     M anipulation  |                                                 |
\*---------------------------------------------------------------------------*/
FoamFile
{
    version     2.0;
    format      ascii;
    class       volScalarField;
    location    "0.5";
    object      p;
}
// * * * * * * * * * * * * * * * * * * * * * * * * * * * * * * * * * * * * * //

dimensions      [0 2 -2 0 0 0 0];

internalField   nonuniform List<scalar> 
4242
(
-0.5949276
-0.57755606
-0.56022227
-0.53866353
-0.51455694
-0.48707807
-0.45616573
-0.42188248
-0.38451238
-0.34463982
-0.30315791
-0.26121224
-0.22016462
-0.18172116
-0.1473506
-0.11414727
-0.70373737
-0.68160752
-0.66285026
-0.64000128
-0.61473333
-0.58627181
-0.55473697
-0.52018303
-0.4827876
-0.44288334
-0.40097693
-0.35774952
-0.31407074
-0.27116855
-0.23059529
-0.19219075
-0.87514742
-0.84782365
-0.82703579
-0.80092404
-0.77198799
-0.73933599
-0.70311717
-0.66334363
-0.62021116
-0.57408036
-0.52548321
-0.47510981
-0.42377517
-0.37243903
-0.32232693
-0.27534674
-1.0807019
-1.0482543
-1.0249286
-0.99401731
-0.95982508
-0.92103049
-0.87779228
-0.8300551
-0.77803187
-0.72214388
-0.66304965
-0.60163953
-0.53899171
-0.47627964
-0.41470494
-0.35667638
-1.2375593
-1.2010338
-1.1762208
-1.1416418
-1.1038742
-1.060746
-1.012513
-0.95903595
-0.90052337
-0.83740849
-0.77040656
-0.70051306
-0.6289688
-0.55716571
-0.48642245
-0.41797864
-1.3211912
-1.2818007
-1.2565491
-1.2199785
-1.18063
-1.1354481
-1.0848835
-1.0287282
-0.96718288
-0.90066628
-0.82989715
-0.75588934
-0.67992021
-0.60346634
-0.52803631
-0.45583259
-1.3323298
-1.2918238
-1.2672004
-1.230539
-1.1913866
-1.1463403
-1.0959399
-1.0399711
-0.97862068
-0.91229277
-0.84168932
-0.76780338
-0.69188546
-0.61539002
-0.53971574
-0.4672492
-1.2727816
-1.2331959
-1.2099183
-1.1749961
-1.1375243
-1.0945622
-1.0465226
-0.99326582
-0.93497754
-0.87206412
-0.80520515
-0.73534305
-0.66364157
-0.5914433
-0.5199171
-0.45139254
-1.1471587
-1.1106623
-1.0893984
-1.058024
-1.0238179
-0.98494335
-0.94154791
-0.89358578
-0.84125318
-0.78495425
-0.72532487
-0.66321995
-0.59967174
-0.53588246
-0.47289103
-0.41273367
-0.96363006
-0.9323718
-0.91365279
-0.88752015
-0.85830575
-0.82550566
-0.78906899
-0.74899367
-0.70547907
-0.65889308
-0.60976894
-0.55878663
-0.50672781
-0.45448602
-0.40284204
-0.35342334
-0.72828528
-0.7047766
-0.68973111
-0.67047445
-0.6483999
-0.62398374
-0.59717243
-0.56792136
-0.53637788
-0.50280823
-0.46754489
-0.4309448
-0.39332509
-0.35493681
-0.31574349
-0.27560115
-0.51379661
-0.49895075
-0.48786718
-0.47611009
-0.4615055
-0.44454036
-0.42581074
-0.40556937
-0.38404084
-0.36150888
-0.33823269
-0.3143469
-0.28979114
-0.26433951
-0.23762833
-0.2072668
-0.16181761
-0.15000908
-0.14013832
-0.1283575
-0.11521318
-0.10072375
-0.085038755
-0.068412288
-0.051205462
-0.033882674
-0.016991921
-0.0011415703
0.012953202
0.024469495
0.03352345
0.042884853
0.059456384
0.067138925
0.074068389
0.08186333
0.090307564
0.099286366
0.10859976
0.11795367
0.12695212
0.13510284
0.141846
0.14659567
0.1487397
0.14761904
0.14296661
0.13649759
0.26663082
0.27067001
0.27440682
0.27834484
0.2823244
0.28613976
0.28950689
0.29205492
0.29332894
0.2928108
0.2899636
0.28427808
0.27526292
0.26245857
0.24608155
0.22873768
0.43095089
0.43237338
0.43350851
0.43433263
0.43466084
0.4342288
0.43269381
0.42963309
0.42455368
0.41692267
0.40621788
0.39196466
0.37370844
0.35108612
0.32466558
0.29762585
0.53577957
0.5357924
0.53538726
0.53435483
0.53245645
0.52938259
0.52474931
0.51810213
0.50893349
0.49672047
0.48097641
0.46127447
0.43721863
0.40866641
0.37709741
0.34750194
-0.87651933
-0.84919443
-0.82839461
-0.80227009
-0.77330787
-0.74061817
-0.70434527
-0.66450016
-0.62127988
-0.5750509
-0.52635658
-0.47590187
-0.42451585
-0.37319836
-0.32331807
-0.27673863
0.55941745
0.55891209
0.55789464
0.55619403
0.55357897
0.54975869
0.54438131
0.53703697
0.52727038
0.51460776
0.49859965
0.47887112
0.4551714
0.42746598
0.39622163
0.36302876
0.56043898
0.55992017
0.55887437
0.55712884
0.55444949
0.5505432
0.5450575
0.53758503
0.52767768
0.51487456
0.49874343
0.4789272
0.45519626
0.42757445
0.39669585
0.36437435
0.53634539
0.53634501
0.53591743
0.5348511
0.53290473
0.52976646
0.52505099
0.51830436
0.50902297
0.49669296
0.48084169
0.46105774
0.43696532
0.40848883
0.37726024
0.3482374
0.42987232
0.43131271
0.43246664
0.43330685
0.43364589
0.43321672
0.4316741
0.42859313
0.4234804
0.41580685
0.40505973
0.39075917
0.37236606
0.3493687
0.32270017
0.29754875
0.26490162
0.26898867
0.27277483
0.2767688
0.28081076
0.28469451
0.28813548
0.29076212
0.29211896
0.29169056
0.28895
0.28337743
0.27433548
0.26107332
0.24442763
0.23085857
0.058607215
0.06634436
0.073321424
0.081176437
0.08969307
0.098758513
0.10817519
0.11765167
0.12679473
0.13511621
0.14206472
0.14705633
0.14943377
0.14848123
0.14411822
0.13779729
-0.16160037
-0.14975385
-0.13986782
-0.12806165
-0.11488905
-0.10036795
-0.08464784
-0.067983088
-0.050736275
-0.033374954
-0.016451684
-0.00058531017
0.0134683
0.024788785
0.033405713
0.042461902
-0.51526829
-0.50041271
-0.48930952
-0.47752523
-0.46288252
-0.44586395
-0.42706075
-0.40672062
-0.38506356
-0.36237014
-0.33889798
-0.31477943
-0.2899392
-0.26410655
-0.2366405
-0.20593833
-0.72975078
-0.70622636
-0.69115873
-0.67187615
-0.6497655
-0.62529983
-0.5984232
-0.5690895
-0.53744687
-0.50376672
-0.46839294
-0.43170155
-0.39403679
-0.3557084
-0.31673879
-0.27786277
-0.96514956
-0.93387432
-0.91513408
-0.88897582
-0.85972536
-0.82687637
-0.79037576
-0.75022131
-0.7066154
-0.65993424
-0.6107256
-0.55968848
-0.50762155
-0.45543756
-0.40383311
-0.35468507
-1.1487058
-1.1121949
-1.0909118
-1.0595125
-1.0252706
-0.98634687
-0.94288623
-0.8948434
-0.84241865
-0.78602642
-0.72631961
-0.66417427
-0.60064258
-0.5369468
-0.47405395
-0.4143473
-1.2743028
-1.2347069
-1.2114122
-1.1764671
-1.13896
-1.0959485
-1.0478416
-0.99450045
-0.93611477
-0.87310175
-0.80615818
-0.73624655
-0.66454687
-0.59239869
-0.52086656
-0.45256309
-1.3338134
-1.2933013
-1.2686633
-1.2319822
-1.1927962
-1.1477019
-1.0972343
-1.0411799
-0.97972964
-0.91329843
-0.84260562
-0.76866479
-0.69274173
-0.61627389
-0.54058435
-0.46835569
-1.3226546
-1.2832614
-1.257998
-1.2214112
-1.182032
-1.1368052
-1.0861762
-1.0299376
-0.96829414
-0.9016751
-0.8308164
-0.75675281
-0.68077466
-0.60433515
-0.52891714
-0.4569359
-1.2390154
-1.2024893
-1.1776665
-1.1430741
-1.1052784
-1.0621082
-1.0138139
-0.96025649
-0.90164833
-0.83843287
-0.77134283
-0.7013956
-0.62984383
-0.55806381
-0.48740803
-0.4192036
-1.0821491
-1.0497015
-1.0263661
-0.99544271
-0.9612238
-0.92238903
-0.8790919
-0.8312768
-0.77915963
-0.723171
-0.66398631
-0.60251754
-0.53985618
-0.47718285
-0.41578426
-0.35806607
-0.70483359
-0.68270657
-0.66394213
-0.6410895
-0.61580706
-0.58732345
-0.55575472
-0.52115266
-0.48369316
-0.44370918
-0.40171081
-0.35838779
-0.31463095
-0.27172915
-0.23131075
-0.19278513
-0.59555923
-0.57820632
-0.56088472
-0.53934973
-0.51525863
-0.4877883
-0.45687145
-0.42256466
-0.38514684
-0.34520139
-0.3036292
-0.26160105
-0.22052994
-0.1821964
-0.14812819
-0.11537786
-0.041484637
-0.037847269
-0.033868743
-0.031665671
-0.033036706
-0.038675816
-0.048074317
-0.060524154
-0.075225766
-0.090982059
-0.10614524
-0.11884346
-0.12732012
-0.13030463
-0.1276668
-0.11942521
-0.087993808
-0.085153801
-0.083391803
-0.082723576
-0.082247403
-0.081989464
-0.083509794
-0.088632447
-0.096993343
-0.10608624
-0.11333861
-0.1168283
-0.11550412
-0.10925302
-0.099050732
-0.08635686
-0.16518141
-0.16193073
-0.15959097
-0.15808336
-0.15772998
-0.15952974
-0.16396653
-0.16901935
-0.17092041
-0.16745387
-0.15783266
-0.14218242
-0.12105043
-0.095939377
-0.069378556
-0.043597258
-0.18326424
-0.18121348
-0.17978763
-0.1790629
-0.17931207
-0.18093998
-0.18444401
-0.19040886
-0.19652715
-0.19491137
-0.17850263
-0.15048237
-0.11379184
-0.072403466
-0.032199764
0.0034813079
-0.11232687
-0.1122391
-0.11281918
-0.11424979
-0.11664698
-0.12015607
-0.12488952
-0.13027942
-0.13355526
-0.13058743
-0.11730276
-0.092150003
-0.057200619
-0.015904344
0.023623941
0.058473171
-0.018384444
-0.019472473
-0.021364377
-0.024101842
-0.027676901
-0.031936975
-0.036504997
-0.040701582
-0.043369746
-0.042401337
-0.034492744
-0.017028584
0.0088230861
0.037625259
0.070652203
0.10554698
-0.019974029
-0.021053506
-0.022925457
-0.025633388
-0.029170166
-0.03338529
-0.037906262
-0.042061508
-0.044699675
-0.043676889
-0.035601525
-0.01786478
0.0082506976
0.037400014
0.070478312
0.10505463
-0.11440772
-0.11430057
-0.11486103
-0.11627104
-0.11864474
-0.12212511
-0.12681999
-0.13214477
-0.13523902
-0.1318698
-0.11820313
-0.092770921
-0.057517612
-0.015903402
0.024298123
0.061181199
-0.18503956
-0.18297384
-0.18153782
-0.18080104
-0.18103419
-0.18263872
-0.18610989
-0.19201622
-0.19786116
-0.19568881
-0.1787762
-0.15033813
-0.11315272
-0.071169563
-0.0302318
0.0068967979
-0.16717442
-0.16391499
-0.16157914
-0.16008355
-0.15975172
-0.16156861
-0.16597746
-0.17088116
-0.17250854
-0.1686397
-0.15853639
-0.1423135
-0.1204901
-0.094529768
-0.066930123
-0.039477196
-0.090064166
-0.087217879
-0.085459622
-0.084802975
-0.084337139
-0.084086079
-0.085596937
-0.090656092
-0.098838125
-0.10764244
-0.11451832
-0.11757206
-0.11578723
-0.10909414
-0.09862185
-0.085034627
-0.043285302
-0.039647047
-0.035663864
-0.033448316
-0.034795157
-0.040388866
-0.049718106
-0.062071973
-0.076644628
-0.092232456
-0.10718429
-0.11963142
-0.12782998
-0.13056168
-0.12789677
-0.11921015
-0.28219175
-0.35035362
-0.33069989
-0.31290934
-0.29199889
-0.26865247
-0.24323355
-0.21602539
-0.18757779
-0.15863973
-0.13006582
-0.10288598
-0.078523276
-0.057475906
-0.035174678
-0.28311063
-0.35082274
-0.33125741
-0.31346327
-0.29254735
-0.26918948
-0.24374844
-0.21650308
-0.18800341
-0.15900302
-0.13037153
-0.10315288
-0.078736861
-0.057443617
-0.035508428
-0.15263972
-0.22535713
-0.2267916
-0.22042995
-0.21817373
-0.21758422
-0.2169835
-0.21597172
-0.21430051
-0.21150473
-0.20690763
-0.19971252
-0.18928569
-0.17553636
-0.1520658
-0.15107209
-0.22373741
-0.22516736
-0.21883181
-0.21662049
-0.2160974
-0.21558977
-0.21470314
-0.2131947
-0.21060407
-0.20625705
-0.19936196
-0.18922833
-0.17598009
-0.15650601
-0.19764832
-0.19924479
-0.16082958
-0.1592536
-0.0056881415
-0.032486947
0.10476897
-0.030642676
-0.066193535
0.0043467097
0.010118173
0.021774911
0.021614518
-0.02156224
-0.027559477
9.2786851e-05
0.064928535
-0.057777853
0.013840992
-0.080249648
-0.020801633
-0.11021232
-0.074239299
-0.079001122
-0.082917885
0.067525401
0.023810626
0.028124778
0.043183162
0.004406327
-0.017581206
-0.080615899
-0.037648735
-0.14389562
0.0052460918
-0.013877843
-0.036274059
-0.056444422
0.055737046
-0.02825179
0.00097526727
0.051943235
-0.035422211
-0.023646786
0.04248869
0.00066698433
0.021129196
-0.13986303
0.020960181
0.13244357
-0.01063228
0.038811599
0.017810526
0.017532778
-0.18566361
0.23002121
0.066628383
-0.029848238
-0.16795208
-0.047373616
-0.032327757
0.010817323
0.027704505
-0.016979799
-0.014314152
0.017530025
0.016660186
-0.020304916
-0.1992063
-0.01697837
0.003564805
-0.00805977
-0.034660588
-0.011546438
0.0085181803
-0.064574938
0.011743982
-0.00075453961
-0.00096863055
0.024343294
-0.026694085
0.0091864439
-0.0022055355
-0.00016301371
-0.0039720042
-0.14688003
-0.15312224
-0.01457995
-0.026239983
-0.041422008
0.026278148
-0.0001109377
-0.16321802
-0.00092581629
-0.020982133
0.0029160437
0.14783526
-0.046904133
0.045101552
0.055402546
4.9107754e-05
0.11772482
-0.18199314
0.060830252
-0.00071534253
-0.024805778
0.0038627286
0.00078291344
-0.023486601
-0.063235735
-0.033563998
-0.00063924855
-0.0351571
-0.1484059
-0.20004638
0.077898453
-0.037269012
0.040074337
-0.087623941
-0.0019296205
0.089869994
0.0007051887
-0.00038212069
0.081825305
0.075132478
-0.038257137
0.082652816
-0.034924033
-0.12525078
0.081396974
-0.012290086
-0.15691017
-0.03278443
0.068600783
-0.045252079
0.038813987
0.00035406076
0.00052797713
0.002753131
-0.047177606
0.12272779
-4.76081e-05
-0.18564893
-0.020739464
0.04415325
-0.025857084
-0.069297063
-0.013445207
-0.0001721653
-8.7184845e-05
-0.018150902
-0.029324599
-0.0072637879
0.015070203
0.014458787
-0.015594125
0.0080865719
0.089044202
-0.0012785187
0.039026017
-0.16061952
-0.013183615
-0.0024155668
0.00075473557
-0.37614435
-0.37522625
0.049020436
0.070339027
-0.0098378411
-0.0001692682
-0.0076360205
0.014128187
-0.078767255
-8.7661811e-05
-0.07190797
0.1392019
0.012958736
0.0011028276
-0.01354434
0.048414739
-0.004291359
-0.00025803492
-0.018516689
-0.0060390914
0.017410202
-0.071795808
-0.055386103
0.0081495853
0.013726282
0.022728975
0.045729718
0.0066895418
0.019190357
-0.027643309
-0.00099483511
0.002324288
-0.09052855
0.085818816
-0.015996084
0.029660297
0.0013961954
0.0054250299
0.011269155
0.15537518
0.016906847
0.011065296
-0.10691312
-0.0057303651
0.07175927
0.02853728
0.060051538
-0.0024711215
0.087769163
0.00067660317
-0.016340119
-0.0089457186
-0.0063645431
0.0091393557
-0.00085250319
0.00048807033
-0.00093976394
0.03983994
0.052612228
0.038252085
-0.029434258
-0.03851137
-0.0015050259
-0.00049272734
-0.02618714
0.098707328
0.073267876
-0.0004072331
-0.045674745
0.035025759
0.095758855
0.10427759
-0.0011491999
-0.055603315
-0.10036669
0.0067350092
-0.0037500524
0.042622372
-0.026357828
-0.00098503517
0.0049575207
0.00061346462
0.012535351
-0.055652591
0.10028446
-0.015040076
-0.052474623
0.028715873
0.002017362
-0.059744371
0.017384288
0.14451679
0.00069009994
0.00051817133
-0.062135027
0.00036915294
0.061899605
0.010564004
-0.00085224096
-0.023173629
-0.029694535
8.2433929e-05
-0.00072881809
-0.0012917102
-0.016901393
-0.0040509442
0.0044458504
-0.036129298
0.0013392199
-0.022704185
0.0029045082
-0.018888853
-0.0056003673
0.064091264
-0.083159362
-0.0018543917
0.091595997
0.073834831
-0.0072184449
0.0027019844
0.0027421277
-7.9320197e-05
0.0046985662
-0.13206262
0.060073294
-0.08674142
0.003152303
-0.010712072
0.012022963
-0.0051879322
0.016769041
0.05968802
-0.12823264
0.00020459304
0.091937965
-0.038695099
0.0064122862
0.044734425
0.010284252
-0.034902561
0.010513333
-0.097539662
-0.067210823
0.10710956
0.14271834
-0.042116463
0.0091867943
-0.0038299351
-0.02002777
0.050245404
-0.10205073
-0.031198193
0.0024076478
-0.03562837
-0.0091618252
0.00057396614
0.0092065535
0.0039672505
0.17315247
-0.032844108
-0.11126106
0.05823289
0.00018825912
-0.00073773059
0.0051186067
-0.015947314
-0.11616453
0.0020425974
0.0022178929
-6.7382487e-05
0.22782457
-0.00018282269
-0.013395857
0.036600712
-0.038932322
-0.10169589
-0.022410156
0.0012300605
-0.0013786222
0.0042230488
-0.1406398
-0.041085323
0.0030142487
0.080979152
-1.2379518e-05
0.0023368108
-0.13553114
0.0099177237
-0.066978644
0.00049960882
0.00089820586
-0.20465107
0.031073864
0.012791933
-0.01596013
-0.13682118
-0.035418934
0.004035705
-0.11231988
0.02539691
0.013441576
0.032009002
0.00038684848
-0.18909321
0.11615657
0.05484907
0.012166961
-0.13419431
0.0014335276
0.066292214
-0.13298406
-0.16124492
0.15112673
-0.0036135386
0.012077582
0.015079485
0.038128385
-0.054397424
-0.1571189
0.011435986
-0.046299181
0.068953385
0.054892795
-0.0081913624
-0.053306342
-0.010051893
-0.01960705
4.1530543e-05
0.010470162
-0.21158062
0.00041599021
0.011585333
-0.20704665
0.001247492
0.010511774
-0.023361539
-0.001648625
0.035092892
0.20999825
-0.036870177
0.00031396276
-0.05701139
0.0045372265
-0.10495572
0.035620294
-0.045376612
-0.017118069
-0.0044471435
0.030301836
0.0011798859
-0.010737644
0.030134856
-0.00078684927
-0.0091453582
-0.0075115861
0.013704224
0.01493426
-9.1885808e-05
-0.025980345
0.001110345
-0.036480436
0.00023294026
-0.016722636
0.025136426
0.072029424
0.10905025
-0.10892734
0.00071469499
0.05951544
0.0040479093
0.016445306
0.014869965
-0.032818777
-0.035131238
0.10541535
0.0096241075
0.0026529659
-0.10312824
-0.10008267
-0.016184217
-0.15297539
-0.082463335
-0.025887823
0.0026658063
-0.11289268
-0.038958033
0.00049664587
0.00016006267
-0.018065391
0.036640215
0.00089834771
-0.074059187
-0.10964559
0.000480916
-0.055682127
0.0081339728
-0.038442264
-0.0063990967
0.0003349476
0.016462325
0.017632115
0.080844413
0.0088022133
-0.026745367
0.011964751
0.030964322
0.026133218
0.048009632
0.060859067
-0.031191479
0.058842763
-0.00026099783
0.098953056
-0.0065679003
-0.0056313429
-0.03297905
-0.0013539276
-0.00013214108
0.23602674
-0.0016678439
-0.031932909
-0.094779236
-0.045447977
7.434286e-05
-0.07110235
-0.15517171
0.0028376813
0.04144456
0.024217027
-0.18204727
0.061118096
0.0002023406
-0.055604357
-0.028413823
-0.15091486
-0.025238927
-0.0042899774
0.017231106
0.00070877537
-0.013109185
0.018667302
-0.0065595139
0.102136
0.013997204
0.012806865
-0.049429727
-0.35979181
-0.023482197
0.00025984852
0.066510212
0.0010650742
-0.0019511261
-0.035937881
-0.018152309
-0.09497031
-0.35882888
-0.0028527764
0.027157052
-0.00097771991
0.032104595
-0.0014655832
-0.025877332
0.020487331
-0.0040331189
-0.17776855
-0.014898537
-0.10266309
0.016550136
-0.14456735
0.072396608
0.015412702
-0.15713583
0.069296922
0.0066312223
-0.20776695
0.066259299
0.01905143
0.019187347
0.029521154
0.026648079
-0.33324968
-0.049823542
-0.11751335
0.00094108658
-0.11377256
0.098923959
0.033165335
0.032665132
0.014489809
-0.043577411
-0.024835682
0.0037012033
-0.00018807139
0.06345692
-0.095013869
-0.031213934
0.0049441888
-0.3334803
0.1057789
-0.12681782
-0.047997383
-0.0064894873
-0.15324399
-0.089536685
-0.0014292286
-0.21592696
-0.036649566
-0.0089974319
0.027408827
0.028918091
-0.025826235
-0.098843236
-0.13528145
0.067599761
0.10234149
0.095849429
0.019255658
0.0021484892
0.031673067
0.059833354
0.10757548
0.046339158
0.14413505
0.0012500225
0.025544302
0.046158476
0.0010951998
-0.019920985
0.0077520961
0.039472028
0.072591973
0.019842006
-0.21107432
0.026237182
-0.0068450996
0.2355079
0.035200841
-0.00035004361
0.22553811
0.068934871
-0.026410095
-0.031358685
0.079483096
0.22405518
-0.085116507
-0.0043148937
0.055425365
-0.0024315858
0.13184242
0.055288704
0.060551455
-0.0348782
1.3603093e-05
0.090756624
0.061697769
0.234315
0.019059661
0.0019647408
0.025595755
-0.050660952
-0.04943032
-0.035651278
-0.18259848
0.23388261
-0.019596147
-0.00054293195
-0.023116079
0.1098989
0.088443628
-0.096846635
-0.092963102
0.0056701853
0.055946299
-0.11633427
-0.17800839
-0.048157556
-0.079795128
0.015427544
0.015004199
-0.0053183279
-0.014486486
-0.0067709061
0.028008325
-0.020787228
-0.066735949
0.038794802
-0.031805219
-0.0090787922
-0.11298079
0.19185038
-0.081946618
0.015835424
-0.00038707
0.0070924172
0.026914466
-0.023269675
0.22084756
-0.022555029
0.00033986003
0.041067645
-0.00030862353
-0.1756707
-0.00097276223
-0.043557799
0.0012609849
-0.022659775
0.013760242
-0.11722317
0.099526114
-0.12059923
0.0037056822
0.022669345
-0.074999498
0.077722972
-0.0015486717
0.10723017
-0.014274943
0.27849887
-0.00011733315
-0.01570239
-0.17197717
0.1680303
-0.12750866
0.00035325446
0.0012486935
0.0047554854
0.004172539
-0.16596887
0.032342446
0.025640536
0.032122184
-0.30781797
0.0017532905
0.042814921
-0.00072609639
-0.30831424
0.033013655
0.00092293868
-0.083112782
0.00045868208
0.0034386553
0.062714183
-0.041354551
-0.22973498
0.021244218
-0.016559676
5.1591042e-05
0.0027105718
-0.032271485
-0.0471883
0.034594905
-0.0069622551
0.059340655
-0.015713712
0.096982162
-0.22715478
-0.0065406377
-0.021831112
-0.22220113
0.030046964
0.06354834
9.4551884e-05
-0.038566328
-0.0008562238
0.056972854
0.049086491
-0.05375354
0.014240134
0.00039566335
-0.02878598
0.044470826
0.097305399
0.027336398
-0.0027855349
0.084157338
0.0019413561
-0.22256876
0.04267012
-0.0055498779
-0.064007832
-0.0047016355
-0.014047878
-0.032613727
-0.0013586418
-0.01370719
-0.041043906
0.0080259418
-0.00024387084
-0.08097982
-0.034257619
-0.027387149
-0.030264915
-0.010592482
-0.14985402
-0.086075393
-0.083647608
0.028227543
-0.0789435
0.11029548
0.0050046863
0.020790087
-0.033621651
0.022565836
-0.12765804
0.010818739
-0.06348662
-0.14343477
-0.037839384
-0.0059975304
-0.074834375
-0.028460987
-0.014135515
0.0040853486
-0.032206462
0.055452887
-0.0065167719
0.001599277
0.027039591
0.058026827
-0.043581196
0.10665416
-0.05840498
0.32922234
0.058656874
-0.059021035
-0.017983013
0.00025985212
0.023674438
0.075473512
-0.030734277
0.0012140361
-5.988847e-05
0.0067994752
0.035040609
-0.0051556158
0.0010325576
-0.0028283674
-0.00015714486
0.10331696
-0.00064228343
0.050553208
0.073303074
0.063175528
0.058094189
0.047543983
0.025319111
0.00047210568
0.029718994
-0.030167335
-0.013460658
-2.1639679e-06
0.0044149768
0.10931842
-0.045643507
-0.099608312
0.018952834
0.065489646
-0.014561566
0.071211369
0.032452428
-0.028480715
0.13236864
0.0047711042
-0.0055113347
-0.0096472759
0.00010819356
-5.6137207e-05
-0.0077914325
0.0036561368
0.23209743
-0.0050641045
-0.0149798
0.043223188
0.0060556905
0.0079219187
0.00094691912
-0.00041947654
0.066950642
-0.02621549
-0.019834866
-0.00049682735
0.033498986
0.006209147
0.018112967
-0.0094141297
-0.0002976748
0.00050870925
0.028070791
0.053905466
0.031727552
-0.043127062
0.0002367145
0.0049457149
-0.074364925
0.021831826
-0.00077845311
-0.01477106
0.21529589
-0.04149531
0.21402783
-0.10744602
-0.048549293
0.0094694485
-0.022222966
0.030003427
0.0009773707
0.086299669
0.0064575516
0.055678198
-0.0074482005
-0.044047774
-0.055371758
-0.21053368
0.020228636
-0.00067143633
-0.020817137
0.064345881
-0.036933228
0.090903902
-0.031191351
-0.009668629
0.053255192
0.02476461
0.0032721182
0.013796184
-0.0051677925
-0.20649573
0.0079100442
0.3233257
-0.15732876
-0.045287864
0.0060050145
0.18674044
0.027779939
-0.22980304
-0.031596316
0.0010156817
-0.016017956
-0.037371551
-0.19669864
-0.014211758
0.027018872
-0.19302735
-0.03651198
0.054910741
0.0054726619
-0.0064014157
-0.012764761
0.0060165511
0.014832353
4.6615486e-05
0.028225654
0.0038386672
0.0019802218
-0.01747856
0.072591894
0.046604439
0.10939473
0.059961846
-0.10130083
-0.15301307
0.013262705
-0.054978457
0.0060312153
-0.20017137
-0.082132428
-0.033036617
-0.026827023
-0.059423069
0.063501139
-0.029412265
0.00046170861
-0.035231495
-0.0048020449
0.10744392
-0.014605744
0.0038407286
0.0037485845
-0.20588025
-0.027144799
0.0023699369
0.00066295051
0.0029014766
0.033876336
0.019862476
0.29076447
0.0053693716
0.00065625651
-0.00019924005
-0.0091913034
-0.19141807
-0.10395424
-0.043937872
-0.053569362
-0.046608923
0.10410507
0.16837186
-0.17913719
0.00021288309
0.076345674
-0.21353246
-0.015345
0.031368487
-0.15375106
-0.16760647
0.037820229
0.0047480343
0.028932706
-0.00034555316
-0.005018319
-0.056240094
0.061181231
0.12998773
-0.15168446
0.0077449034
0.14651278
-0.00087415837
0.027306179
-0.0084344292
0.090892319
-0.0075342362
-0.010494771
0.0045577063
0.00059861573
-0.0059277099
-0.11405895
0.26565018
-0.12707046
-0.1165154
-0.0035314202
-0.10685231
0.16893123
-0.099747649
0.12037177
-0.045277093
-0.089238446
0.0013209602
0.015326956
0.016773609
-0.051187526
0.0066600611
-0.14618034
0.028581333
0.049844193
0.12077399
-0.065404805
-0.070305408
0.061721477
-0.017416043
0.006127232
-0.0047057552
-0.21852099
-0.13197367
-0.020916914
-0.019695399
-0.038879279
0.0015814079
0.028391853
0.073837069
0.031077235
-0.14338969
0.00109848
-0.082547537
0.0046460702
0.0034735362
0.12431281
0.13346172
0.00034811597
0.062519314
-0.020355175
0.07537264
0.0080811052
-0.014235015
0.038284954
0.1619868
-0.39370772
0.066175833
-0.0021353955
-0.11165062
0.0003348783
-0.39260625
-0.0010950205
0.04351292
-0.066066104
0.00021924018
0.035170964
-0.011901395
0.0146048
-0.15804099
-0.23172648
-0.0047200635
0.0052777583
0.0065212614
-0.0067861328
0.10449696
-0.11932313
-0.10485609
0.12063336
0.0015117656
-0.14040276
0.0030477887
0.034639015
0.044083733
-0.11997533
0.011500685
0.012062986
-0.024179718
-0.011167186
-0.069791579
-9.427157e-05
0.0018009024
-0.18805916
0.010973338
0.0048750417
-0.028999618
-0.0086417649
-0.26631197
-0.0058129991
0.20177545
-0.26260196
0.098697537
-0.11907628
-0.0020040271
0.074638338
-0.0022826244
-0.025852156
-0.35840967
-0.037549781
0.26481904
0.0060556227
-0.18348032
-0.10842712
0.031446157
-0.35680805
0.029798364
-0.0019391591
0.11396747
0.0063701802
0.01411169
-0.0015381021
0.084510773
-0.030864839
0.00013837565
-0.0050927283
-0.13960365
4.7598314e-05
0.01975644
-0.036971114
-0.026228698
0.0055986287
0.00045904272
0.044478147
0.33139287
-0.00078897398
0.10234577
-0.057367946
0.065489643
0.023010207
0.025219345
0.20643912
-0.0024235164
0.085592928
0.11125735
-0.054185144
0.10120658
-0.17541887
-0.03542906
-1.1612595e-05
0.024816452
-0.0063776917
0.00014970476
-0.01712523
0.011472404
0.01484048
-0.088830922
0.29008715
-0.094632889
0.057986436
-0.17109563
0.049568529
0.037220858
-0.044079313
0.13463524
0.12181372
0.029966251
0.038021995
-0.0074300487
-0.0016322829
0.01862585
-0.015103077
-0.0064915533
-0.30653833
-0.30468751
-0.00077776309
-0.01790454
-0.0061508111
0.0010441988
-0.03238479
-0.0026470468
-0.004389261
-0.11250701
0.00051004066
-0.033381405
-0.04781642
-6.1628343e-05
-0.033058915
0.030102478
-0.023248502
0.0014853599
0.02197207
-0.3829392
0.078162008
0.001189331
-0.032546259
0.068544373
-0.05910421
-0.38180338
-0.00072969077
0.0066757279
-0.073688135
0.039484631
-0.0061292699
-0.31109624
-6.0459753e-05
0.10630187
-0.033337178
0.0049754936
-0.00030832095
-0.014922339
-0.30757302
0.11843395
0.001344008
-0.089027531
-6.972533e-06
-0.037890261
-0.15431767
0.051805973
0.073904055
-0.0020161656
0.040554079
-0.0028055934
-0.079753399
-0.14999935
0.0058265281
-0.012604468
-0.031457157
-0.063611691
0.002584725
0.30965687
-0.00059180175
0.16948782
0.009731647
0.19038287
-0.08386001
-0.078915092
-0.0024377275
0.023185804
0.023516392
0.082494093
-0.039156461
0.00020476935
0.097747086
0.042700805
-0.0026244133
-0.024966919
-0.0024899595
0.073502757
0.034134877
0.00032152147
0.012199146
-0.0059299396
-0.01844194
-0.0092242435
0.0231244
0.045655212
-0.026487853
0.011440797
-0.1999617
0.034955121
0.053638527
0.011259049
-0.020715618
0.001280394
-0.00053407468
0.20778979
-0.013813854
-0.01666351
-0.0011076979
0.0804312
0.12916529
-0.14857168
-0.014663786
0.0044988063
0.11327284
0.27298405
0.0017312029
0.0060289018
0.039099124
-0.0038050668
0.00012169888
0.0059368454
-0.044020369
0.067145316
8.0233279e-05
-0.024308587
-0.0600834
0.022129327
-0.00012096622
-0.03262239
-0.0058176058
-0.0012801826
-0.0011618641
-0.077633845
-0.014872875
-0.2076027
-0.075848823
0.00016123116
-0.0010742954
-0.017507009
0.076486139
0.084357284
0.047905618
-0.1004958
-1.0139298e-05
0.048842018
-0.077995964
-0.20290534
0.05315828
4.5408904e-06
0.072362746
0.013782708
-0.17383353
-0.22771507
0.0035676522
0.051583672
0.053316264
-0.0039400029
-0.11610097
0.00013829743
-0.014118025
0.029293206
0.089779666
-0.08853467
0.056679279
0.090824088
-0.0010779516
0.15866088
0.27138886
0.034686289
0.005036303
-0.12248212
0.096828786
-0.081830643
0.1011173
0.016630463
-0.097835063
0.026253675
0.13589648
0.1058428
0.00024340083
-8.0734781e-05
-0.19701854
0.0006561538
0.099954531
0.0099572384
0.007787898
-0.22331386
0.013813385
0.029384817
0.10524073
-0.26301431
-0.061603692
-0.11758088
-0.091725504
0.16172603
0.00062517434
0.0061137746
-0.03658681
0.050778413
-0.022628492
1.80081e-05
-0.27469957
-0.001628586
0.00070437239
-0.27175665
0.011777043
-0.27695098
-0.0012741101
0.022880818
-0.014229485
0.000521934
0.027489009
0.10206869
0.0048140186
-9.3439008e-06
-0.031407464
-0.00081232436
-0.034998854
0.020113437
-0.00073498793
0.021529792
0.03424577
-0.19236321
-0.27282987
-0.13135394
0.00024666549
-0.00068365861
0.00014928002
0.0064397191
0.00071086312
0.029618915
0.012384459
0.00024458948
0.054317169
0.087296896
-0.033899938
0.13846844
-0.022662758
-0.0036621193
-0.1846021
0.046872476
-0.35530933
0.08043377
-0.00094218671
-0.0039568496
0.021164111
-0.037611369
-0.034592934
-0.2408155
-0.0054632868
0.031489728
-0.0023347279
0.058737242
-0.00073479379
0.0060635892
-0.00034827376
0.00087936885
0.092469896
-0.0087250796
-0.026261231
-0.021380494
0.035697035
-0.041022504
-0.013046041
-0.00095861984
-0.00115973
-0.007858611
0.21364664
-0.029328617
-0.00045176431
-0.028572706
0.069519373
-0.04957954
-0.086420066
0.052777151
0.045888767
-0.35710357
2.2947392e-05
-0.00035359375
0.052622321
-0.00079997313
0.022038446
-0.0032259282
-0.036980236
0.0052142456
0.063612181
0.031159383
0.2253012
-0.15124129
0.0076229078
0.019892173
-0.23943868
-0.23926622
0.21728974
0.059115402
0.018746907
-0.053673566
-0.004528745
-0.0015251193
0.08727476
-0.00012981127
0.062936631
0.12469741
-0.00097078939
-0.12753087
0.1066139
-0.039414039
0.0027997054
-0.001523895
0.023898576
0.094096967
-0.020250589
0.0011006184
0.0080804278
0.008243326
-0.08393102
-0.14408396
0.00047878932
-0.0010573611
-0.13541454
0.041287651
-0.00061289646
-0.0071328307
0.10546661
-0.089863811
4.2539911e-05
-0.016681916
0.0023315928
-0.0017571411
0.012137133
-0.050310109
-0.24800178
0.02096766
0.28510927
0.078355886
0.011787124
0.01091221
0.077935527
0.00055506305
-0.1785864
0.0088645392
-0.18309383
0.022278192
0.022159628
-0.12720192
-0.054290708
-0.037701016
0.036759806
-0.15768912
-0.04354679
0.20867256
0.15419135
-0.015399499
0.31263369
0.066351519
-0.2034885
-0.00072886534
-0.26461989
0.26659438
0.013274697
-0.24372978
-0.20769597
-0.0038296081
-0.00090462045
0.001746161
0.074199724
0.24834184
-0.012781696
-0.057341058
0.012155797
0.028279988
-0.060768089
0.024734208
0.0013750168
0.0073581114
-0.02167995
-0.0043834615
-0.016917027
-0.16060665
0.021506545
-0.034878903
-0.011035651
-0.0033914091
-0.26670664
0.0019519552
-0.039961929
-0.20358925
0.023789958
0.098049543
-0.26526442
-0.0014583679
-0.04172293
0.00012773581
0.072007535
0.061451606
-0.07655381
0.034236754