/*--------------------------------*- C++ -*----------------------------------*\
| =========                 |                                                 |
| \\      /  F ield         | foam-extend: Open Source CFD                    |
|  \\    /   O peration     | Version:     4.1                                |
|   \\  /    A nd           | Web:         http://www.foam-extend.org         |
|    \\/     M anipulation  |                                                 |
\*---------------------------------------------------------------------------*/
FoamFile
{
    version     2.0;
    format      ascii;
    class       surfaceScalarField;
    location    "0.5";
    object      phi;
}
// * * * * * * * * * * * * * * * * * * * * * * * * * * * * * * * * * * * * * //

dimensions      [0 3 -1 0 0 0 0];

internalField   nonuniform List<scalar> 
6703
(
-2.8137663e-05
0.00014558564
-0.00011744797
-5.3315316e-05
0.00017919142
-0.00015401377
-7.7202182e-05
0.00021507941
-0.00019119254
-0.00010518274
0.00025548418
-0.00022750362
-0.00013731841
0.00030282717
-0.00027069151
-0.00017403366
0.00035827553
-0.00032156028
-0.00021577289
0.00042304131
-0.00038130207
-0.00026300611
0.0004985171
-0.00045128388
-0.00031629482
0.00058623312
-0.00053294441
-0.00037632598
0.0006878977
-0.00062786654
-0.00044393322
0.00080544245
-0.0007378352
-0.00052011064
0.00094109102
-0.00086491361
-0.00060601625
0.0010975201
-0.0010116145
-0.00070307015
0.0012782178
-0.0011811639
-0.00081295025
0.0014880906
-0.0013782105
0.0017337449
-0.0016113122
-0.00093538292
-2.0474729e-05
0.00016606037
-4.0971977e-05
0.00019968867
-6.1170751e-05
0.00023527818
-8.4994629e-05
0.00027930806
-0.00011279537
0.00033062791
-0.00014534733
0.00039082749
-0.00018344556
0.00046113954
-0.00022795682
0.00054302836
-0.00027985623
0.00063813253
-0.00034026104
0.0007483025
-0.00041048959
0.000875671
-0.00049215252
0.001022754
-0.00058724739
0.001192615
-0.00069814834
0.0013891187
-0.00082726425
0.0016172065
0.0018826237
-0.00097614303
-7.8099083e-06
0.00017387027
-2.0182854e-05
0.00021206162
-3.4406939e-05
0.00024950227
-5.1462502e-05
0.00029636362
-7.1689332e-05
0.00035085474
-9.5697536e-05
0.0004148357
-0.00012412784
0.00048956984
-0.00015772616
0.00057662668
-0.00019734393
0.0006777503
-0.00024394985
0.00079490842
-0.00029864978
0.00093037093
-0.00036272471
0.0010868289
-0.00043769408
0.0012675843
-0.00052537195
0.0014767966
-0.00062774969
0.0017195842
0.0020016953
-0.00074682134
-3.1344819e-06
0.00017700476
-1.1181063e-05
0.0002201082
-1.9720806e-05
0.00025804201
-3.0269824e-05
0.00030691264
-4.2894158e-05
0.00036347907
-5.8064077e-05
0.00043000562
-7.6227369e-05
0.00050773313
-9.7927539e-05
0.00059832685
-0.00012378959
0.00070361236
-0.00015453212
0.00082565094
-0.00019097816
0.00096681698
-0.00023406377
0.0011299145
-0.00028483595
0.0013183565
-0.00034440567
0.0015363663
-0.00041371048
0.001788889
0.0020801758
-0.00049219099
1.0616988e-06
0.00017594306
-3.1646077e-06
0.0002243345
-6.547698e-06
0.0002614251
-1.1137462e-05
0.0003115024
-1.6587682e-05
0.00036892929
-2.3224071e-05
0.000436642
-3.1262817e-05
0.00051577188
-4.1010722e-05
0.00060807475
-5.2826654e-05
0.00071542829
-6.7139419e-05
0.00083996371
-8.4456385e-05
0.00098413394
-0.00010537126
0.0011508294
-0.0001305647
0.0013435499
-0.00016078299
0.0015665846
-0.00019680421
0.0018249102
0.0021248422
-0.0002414706
5.3890398e-06
0.00017055402
5.4304082e-06
0.00022429314
7.1179332e-06
0.00025973758
8.5437088e-06
0.00031007663
1.0314636e-05
0.00036715836
1.2269006e-05
0.00043468763
1.4419908e-05
0.00051362098
1.6706795e-05
0.00060578786
1.9048245e-05
0.00071308684
2.131645e-05
0.0008376955
2.332893e-05
0.00098212146
2.4837402e-05
0.0011493209
2.5517803e-05
0.0013428695
2.4956079e-05
0.0015671463
2.283144e-05
0.0018270349
0.002128913
1.8760655e-05
9.9926788e-06
0.00016056134
1.5034335e-05
0.00021925148
2.1858425e-05
0.00025291349
2.9596152e-05
0.0003023389
3.8744046e-05
0.00035801047
4.9420858e-05
0.00042401082
6.183771e-05
0.00050120413
7.6193743e-05
0.00059143183
9.2684991e-05
0.00069659559
0.00011148625
0.00081889425
0.00013274082
0.00096086689
0.00015655213
0.0011255096
0.00018298572
0.001316436
0.00021206085
0.0015380712
0.00024386021
0.0017952355
0.0020952034
0.00027756983
1.4675132e-05
0.00014588621
2.5280902e-05
0.00020864571
3.7203678e-05
0.00024099071
5.1345187e-05
0.00028819739
6.7933363e-05
0.00034142229
8.7426081e-05
0.0004045181
0.0001102079
0.0004784223
0.0001367202
0.00056491954
0.0001674107
0.00066590509
0.00020272779
0.00078357715
0.00024310684
0.00092048785
0.00028895978
0.0010796567
0.00034067073
0.001264725
0.0003985531
0.0014801888
0.00046281124
0.0017309774
0.0020250034
0.00053301123
1.9772314e-05
0.00012611389
3.7011227e-05
0.0001914068
5.4420424e-05
0.00022358151
7.5091839e-05
0.00026752598
9.9170403e-05
0.00031734373
0.0001274614
0.00037622711
0.00016054289
0.00044534081
0.00019907371
0.00052638872
0.00024372843
0.00062125038
0.00029519796
0.00073210761
0.00035418224
0.00086150357
0.00042139754
0.0010124414
0.0004976152
0.0011885073
0.00058372266
0.0013940814
0.00068079874
0.0016339013
0.0019156637
0.00079013842
2.691134e-05
9.9202552e-05
5.2325951e-05
0.00016599219
7.665161e-05
0.00019925585
0.0001045457
0.00023963188
0.00013648217
0.00028540727
0.00017360626
0.00033910302
0.00021676998
0.00040217709
0.00026684711
0.00047631159
0.00032471312
0.00056338437
0.0003912529
0.00066556784
0.00046736675
0.00078538972
0.00055400745
0.00092580064
0.00065228856
0.0010902262
0.00076372333
0.0012826466
0.00089065693
0.0015069677
0.0017682053
0.0010381153
2.9349382e-05
6.985317e-05
7.0089574e-05
0.00012525199
0.00010884375
0.00016050168
0.00014817314
0.0002003025
0.00019000067
0.00024357973
0.00023659736
0.00029250633
0.00028957435
0.0003492001
0.00035022841
0.00041565754
0.00041969613
0.00049391664
0.00049900599
0.00058625798
0.00058910051
0.00069529521
0.00069089506
0.0008240061
0.00080539487
0.00097572642
0.00093384718
0.0011541943
0.0010775906
0.0013632243
0.0016055877
0.0012402082
5.4679867e-05
1.5173303e-05
0.00010613868
7.3793184e-05
0.00014849863
0.00011814173
0.0001911063
0.00015769482
0.00023718945
0.00019749658
0.00028835922
0.00024133655
0.00034571509
0.00029184423
0.00041003682
0.00035133581
0.00048169839
0.00042225506
0.00056064043
0.00050731594
0.00064643912
0.00060949651
0.0007384813
0.00073196392
0.00083623964
0.00087796807
0.00093958343
0.0010508505
0.0010483396
0.0012544681
0.0014904514
0.001163476
-1.9546005e-06
-0.00011778616
0.00011974076
-1.5054571e-05
-0.00014107819
0.00015417816
-3.9281354e-05
-0.00016786426
0.00019209104
-6.7568452e-05
-0.00019949788
0.00022778498
-0.00010106408
-0.000236627
0.00027012262
-0.00014060015
-0.00028008091
0.00031961698
-0.000187076
-0.00033077628
0.00037725214
-0.00024149463
-0.00038971616
0.00044413478
-0.00030483696
-0.00045799947
0.0005213418
-0.00037801564
-0.00053683106
0.00061000974
-0.0004618556
-0.0006275422
0.00071138215
-0.00055707515
-0.00073163645
0.000826856
-0.00066433656
-0.0008508781
0.00095813951
-0.00078462473
-0.00098735279
0.001107641
-0.00092045996
-0.0011433017
0.0012791369
-0.00132175
0.0014801781
-0.0010788881
-1.8099177e-05
-9.9686982e-05
-4.1072868e-05
-0.0001181045
-6.9055959e-05
-0.00013988116
-0.00010288975
-0.0001656641
-0.00014350217
-0.00019601457
-0.000191986
-0.00023159708
-0.00024960572
-0.00027315656
-0.00031780944
-0.00032151244
-0.0003982501
-0.00037755881
-0.00049280962
-0.00044227154
-0.00060362423
-0.00051672759
-0.00073311569
-0.00060214498
-0.0008840441
-0.0006999497
-0.0010595223
-0.00081187459
-0.001262629
-0.00094019503
-0.0010882194
-0.0014961595
-2.124928e-05
-7.8437702e-05
-4.7217658e-05
-9.2136117e-05
-7.836016e-05
-0.00010873866
-0.00011558117
-0.00012844308
-0.00015994384
-0.00015165191
-0.00021268498
-0.00017885593
-0.00027522854
-0.000210613
-0.00034919966
-0.00024754132
-0.00043644036
-0.0002903181
-0.00053902893
-0.00033968297
-0.00065930843
-0.00039644809
-0.0007999328
-0.00046152062
-0.0009639358
-0.00053594669
-0.0011548323
-0.00062097805
-0.0013769758
-0.00071805153
-0.00082838869
-0.0016368066
-2.1830926e-05
-5.6606777e-05
-4.8994118e-05
-6.4972925e-05
-8.1950836e-05
-7.5781945e-05
-0.00012155992
-8.8833994e-05
-0.00016890785
-0.00010430399
-0.00022527842
-0.00012248535
-0.00029215159
-0.00014373984
-0.00037120906
-0.00016848384
-0.00046434199
-0.00019718518
-0.00057366026
-0.0002303647
-0.00070150704
-0.00026860131
-0.00085049058
-0.00031253708
-0.0010235592
-0.00036287806
-0.0012240919
-0.0004204454
-0.0014555506
-0.00048659282
-0.00056424327
-0.001719696
-2.3967961e-05
-3.2638816e-05
-5.3157606e-05
-3.578328e-05
-8.8100656e-05
-4.0838895e-05
-0.00012983287
-4.7101778e-05
-0.00017958842
-5.4548441e-05
-0.0002387852
-6.3288578e-05
-0.00030903615
-7.3488891e-05
-0.0003921626
-8.5357391e-05
-0.00049020795
-9.9139826e-05
-0.00060545554
-0.0001151171
-0.00074045467
-0.00013360218
-0.00089804755
-0.00015494421
-0.0010813905
-0.00017953513
-0.0012941047
-0.00020773117
-0.0015415699
-0.00023912767
-0.00027106423
-0.0018347489
-7.809075e-06
0.00017388506
-0.00016607599
-2.0181907e-05
0.00021210016
-0.00019972733
-3.4404845e-05
0.00024957452
-0.00023535158
-5.1457143e-05
0.00029648184
-0.00027942954
-7.1677607e-05
0.00035104468
-0.00033082421
-9.5672915e-05
0.00041511993
-0.00039112462
-0.00012407874
0.00048996842
-0.00046156259
-0.00015763321
0.0005771458
-0.00054359134
-0.00019717786
0.00067836631
-0.00063882166
-0.00024367236
0.00079554762
-0.00074905312
-0.00029822342
0.00093089565
-0.0008763446
-0.0003621385
0.0010870542
-0.0010231391
-0.00043700244
0.0012673604
-0.0011924964
-0.00052471069
0.0014761672
-0.001388459
-0.00062723566
0.0017189197
-0.0016163947
0.0020014493
-0.0018825952
-0.00074608982
-3.2443684e-05
-1.9513134e-07
-6.8036878e-05
-1.9008536e-07
-0.00010868369
-1.9208793e-07
-0.00015559236
-1.9310124e-07
-0.00020995209
-1.8871262e-07
-0.00027306534
-1.7532878e-07
-0.00034640447
-1.4976464e-07
-0.0004316522
-1.0965306e-07
-0.00053073765
-5.438181e-08
-0.00064586845
1.3695182e-08
-0.00077955907
8.843973e-08
-0.00093466373
1.6045111e-07
-0.0011144169
2.1802515e-07
-0.0013223887
2.406386e-07
-0.0015616839
1.6752246e-07
-1.4731245e-07
-0.0018326008
-3.303365e-05
3.2838519e-05
-6.9143512e-05
3.5919777e-05
-0.0001103207
4.0985097e-05
-0.00015779163
4.7277836e-05
-0.00021274686
5.4766517e-05
-0.00027647969
6.3557495e-05
-0.00035044307
7.3813617e-05
-0.00043628939
8.5736672e-05
-0.00053590634
9.9562565e-05
-0.0006514504
0.00011555775
-0.00078537738
0.00013401542
-0.00094047383
0.0001552569
-0.0011198794
0.00017962359
-0.0013270097
0.00020737094
-0.0015649066
0.00023806447
0.00026987445
-0.0018349284
-2.4092687e-05
5.6931206e-05
-5.3526102e-05
6.5353191e-05
-8.8766197e-05
7.6225193e-05
-0.00013083233
8.9343966e-05
-0.00018094688
0.00010488107
-0.00024051395
0.00012312456
-0.00031112835
0.00014442801
-0.00039458745
0.00016919577
-0.00049290313
0.00019787825
-0.00060831677
0.00023097139
-0.00074332022
0.00026901887
-0.00090067902
0.00031261571
-0.0010834666
0.00036241114
-0.0012952281
0.00041913249
-0.0015409656
0.000483802
0.00055839911
-0.0018294903
-2.1772724e-05
7.8703931e-05
-4.8877646e-05
9.2458113e-05
-8.1767343e-05
0.00010911489
-0.00012128912
0.00012886574
-0.00016851591
0.00015210787
-0.00022471394
0.00017932259
-0.00029133951
0.00021105358
-0.00037004273
0.000247899
-0.00046267389
0.00029050941
-0.00057129317
0.00033959067
-0.00069818965
0.00039591534
-0.00084592593
0.00046035198
-0.0010174487
0.00053393389
-0.0012162813
0.00061796507
-0.0014463446
0.00071386539
0.00082194407
-0.0017098896
-2.1108006e-05
9.9811937e-05
-4.6907228e-05
0.00011825733
-7.7842109e-05
0.00014004977
-0.00011480724
0.00016583088
-0.0001588536
0.00019615423
-0.00021120283
0.00023167182
-0.0002732607
0.00027311144
-0.00034663237
0.00032127067
-0.0004331418
0.00037701884
-0.00053486053
0.00044130941
-0.00065415698
0.00051521179
-0.00079377907
0.00059997408
-0.00095696116
0.00069711598
-0.0011475611
0.00080856501
-0.0013709807
0.00093728501
0.0010898586
-0.0016388953
-1.8018914e-05
0.00011783085
-4.0890706e-05
0.00014112913
-6.8745394e-05
0.00016790446
-0.00010242178
0.00019950726
-0.00014284531
0.00023657776
-0.00019110822
0.00027993474
-0.0002484794
0.00033048262
-0.0003164221
0.00038921337
-0.00039662525
0.00045722199
-0.0004910451
0.00053572925
-0.00060195796
0.00062612465
-0.00073203413
0.00073005025
-0.0008844693
0.00084955115
-0.0010631384
0.00098723406
-0.0012718711
0.0011460177
0.0013281308
-0.0015101432
-1.8165397e-06
0.00011964739
-1.484159e-05
0.00015415418
-3.9038734e-05
0.0001921016
-6.7285151e-05
0.00022775368
-0.00010074071
0.00027003332
-0.00014024251
0.00031943654
-0.00018669917
0.00037693928
-0.00024112988
0.00044364408
-0.00030454578
0.00052063789
-0.00037790684
0.00060909031
-0.00046210694
0.00071032475
-0.00055794299
0.0008258863
-0.00066609642
0.00095770458
-0.0007872665
0.0011084041
-0.00092286418
0.0012816154
0.0014827758
-0.0010775092
5.4656758e-05
-6.9837355e-05
1.5180597e-05
0.00010609845
-0.00012527182
7.3830127e-05
0.0001484301
-0.00016054999
0.00011821835
0.00019099519
-0.0002003817
0.00015781661
0.00023702128
-0.000243702
0.00019767591
0.00028811616
-0.00029268646
0.00024159157
0.00034537334
-0.00034945316
0.00029219599
0.00040956322
-0.00041599165
0.00035180176
0.00048104632
-0.00049432074
0.00042283765
0.00055974469
-0.00058668285
0.00050798448
0.00064521066
-0.00069562934
0.00061016337
0.00073680144
-0.00082405295
0.00073246217
0.0008339476
-0.00097519025
0.00087804409
0.00093636668
-0.0011526757
0.0010502567
0.0010434318
-0.0013599306
0.0012528655
-0.0016004884
0.0014835601
0.00116036
2.9365095e-05
-9.9202451e-05
7.0112981e-05
-0.00016601971
0.00010887001
-0.00019930703
0.00014820104
-0.00023971273
0.00019003258
-0.00028553354
0.00023663717
-0.00033929104
0.00028962675
-0.00040244275
0.00035029715
-0.00047666204
0.00041978244
-0.00056380604
0.00049910873
-0.00066600914
0.00058922372
-0.00078574434
0.00069107532
-0.00092590455
0.00080577703
-0.001089892
0.00093487408
-0.0012817728
0.0010805539
-0.0015056104
-0.0017680644
0.0012481299
2.6920929e-05
-0.00012612338
5.2345485e-05
-0.00019144426
7.6679517e-05
-0.00022364106
0.00010458433
-0.00026761753
0.00013653663
-0.00031748585
0.0001736824
-0.00037643681
0.00021687368
-0.00044563402
0.000266982
-0.00052677036
0.00032487803
-0.00062170207
0.00039143973
-0.00073257084
0.00046756145
-0.00086186605
0.00055419923
-0.0010125423
0.00065249166
-0.0011881844
0.000763989
-0.0013932701
0.00089098379
-0.0016326052
-0.0019147188
0.0010376382
1.9775989e-05
-0.00014589937
3.7018969e-05
-0.00020868724
5.443277e-05
-0.00024105486
7.5111365e-05
-0.00028829613
9.9201426e-05
-0.00034157591
0.00012750811
-0.00040474349
0.00016060893
-0.00047873485
0.00019915997
-0.0005653214
0.00024383065
-0.00066637275
0.00029530433
-0.00078404452
0.00035427389
-0.00092083561
0.0004214576
-0.001079726
0.00049765454
-0.0012643813
0.00058382066
-0.0014794362
0.00068119648
-0.001729981
-0.0020248571
0.00079133479
1.46742e-05
-0.00016057357
2.5278646e-05
-0.00021929169
3.720157e-05
-0.00025297778
5.1344809e-05
-0.00030243937
6.793774e-05
-0.00035816884
8.7437823e-05
-0.00042424358
0.00011022874
-0.00050152577
0.00013674925
-0.0005918419
0.00016744202
-0.00069706553
0.00020274772
-0.00081935022
0.00024309293
-0.00096118082
0.00028888507
-0.0011255182
0.00034051586
-0.0013160121
0.00039831366
-0.0015372341
0.00046250299
-0.0017941703
-0.0020947129
0.00053235879
9.9912425e-06
-0.00017056481
1.5030455e-05
-0.0002243309
2.1853987e-05
-0.00025980132
2.9592555e-05
-0.00031017794
3.8743889e-05
-0.00036732017
4.9426813e-05
-0.0004349265
6.1852043e-05
-0.000513951
7.6217242e-05
-0.0006062071
9.2715182e-05
-0.00071356347
0.00011151548
-0.00083815051
0.00013275555
-0.00098242089
0.0001565365
-0.0011492991
0.0001829318
-0.0013424074
0.00021198297
-0.0015662852
0.00024384157
-0.0018260289
-0.0021284429
0.00027757159
5.389508e-06
-0.00017595432
5.4302903e-06
-0.00022437168
7.1195595e-06
-0.00026149059
8.5493021e-06
-0.00031160768
1.0327267e-05
-0.00036909814
1.2292775e-05
-0.00043689201
1.4459365e-05
-0.00051611759
1.6766813e-05
-0.00060851455
1.91331e-05
-0.00071592976
2.14288e-05
-0.00084044622
2.3469047e-05
-0.00098446114
2.5004193e-05
-0.0011508343
2.5713481e-05
-0.0013431167
2.5198471e-05
-0.0015657702
2.3186046e-05
-0.0018240165
-0.0021243742
1.9117362e-05
1.0633919e-06
-0.00017701771
-3.162236e-06
-0.00022014606
-6.5418468e-06
-0.00025811097
-1.112514e-05
-0.00030702439
-1.6564949e-05
-0.00036365833
-2.3184889e-05
-0.00043027207
-3.1199247e-05
-0.00050810323
-4.0912107e-05
-0.00059880169
-5.2679644e-05
-0.00070416222
-6.6928677e-05
-0.00082619718
-8.4167033e-05
-0.00096722278
-0.00010499297
-0.0011300083
-0.0001300944
-0.0013180153
-0.00016021298
-0.0015356516
-0.00019608074
-0.0017881487
-0.0020798494
-0.00024060563
-3.1326468e-06
-1.1178539e-05
-1.9714991e-05
-3.0257537e-05
-4.2871191e-05
-5.8023332e-05
-7.6158147e-05
-9.7814033e-05
-0.00012360994
-0.0001542595
-0.00019058663
-0.00023354078
-0.00028419568
-0.00034368009
-0.00041290918
-0.00049130922
-2.0438129e-05
-0.00014563786
-4.0931449e-05
-0.00017923401
-6.1145915e-05
-0.00021513712
-8.4982792e-05
-0.00025559266
-0.00011279706
-0.00030300994
-0.00014535903
-0.00035856265
-0.00018345623
-0.00042346538
-0.00022794212
-0.00049910544
-0.0002797721
-0.00058699168
-0.00034003971
-0.00068878551
-0.00041004895
-0.00080633535
-0.00049143694
-0.0009417511
-0.00058631654
-0.0010976168
-0.00069729028
-0.0012774852
-0.00082709213
-0.0014865928
-0.0017318448
-0.00097784245
-2.8089716e-05
-0.00011754814
-5.3290024e-05
-0.0001540337
-7.7239861e-05
-0.00019118728
-0.00010529319
-0.00022753933
-0.00013751632
-0.00027078682
-0.00017433037
-0.0003217486
-0.00021617096
-0.00038162479
-0.00026349099
-0.00045178541
-0.00031682529
-0.00053365738
-0.00037682498
-0.00062878582
-0.00044429181
-0.00073886852
-0.00052023022
-0.00086581269
-0.00060592573
-0.0010119213
-0.00070309467
-0.0011803163
-0.00081348437
-0.0013762031
-0.0016097685
-0.00093556069
3.4540801e-05
-2.172087e-05
-1.2819932e-05
0.00011101859
-3.416793e-06
-7.3060998e-05
0.00020281914
2.3290762e-05
-0.00011509131
0.00030218563
5.3364696e-05
-0.00015273119
0.00040215853
9.0636325e-05
-0.00019060922
0.00049785866
0.00013616312
-0.00023186325
0.00058917159
0.00018749839
-0.00027881132
0.00067597081
0.00024674937
-0.00033354859
0.00075799784
0.00031623554
-0.00039826257
0.00083536104
0.00039804234
-0.00047540554
0.00090899491
0.00049408032
-0.00056771419
0.00098097629
0.0006061415
-0.00067812289
0.0010546862
0.00073590644
-0.00080961631
0.0011347586
0.00088509531
-0.00096516779
0.0012266021
0.0010559683
-0.0011478118
0.0012514911
-0.0013608653
0.0013359763
1.8281036e-05
-4.0001906e-05
6.0233001e-05
-4.5368758e-05
0.00012509377
-4.1570003e-05
0.00021094356
-3.2485097e-05
0.00031893823
-1.7358349e-05
0.00044889072
6.2106325e-06
0.00059202932
4.4359801e-05
0.0007359215
0.00010285719
0.00087203626
0.00018012078
0.00099767907
0.00027239952
0.001112936
0.00037882342
0.0012214275
0.00049764996
0.0013301184
0.00062721553
0.0014490318
0.00076618191
0.0015907024
0.00091429781
0.0010725745
0.001769619
1.5273225e-05
-5.5275131e-05
3.0421916e-05
-6.0517448e-05
5.5912937e-05
-6.7061024e-05
9.7141973e-05
-7.3714133e-05
0.00015934206
-7.9558438e-05
0.00024813028
-8.2577583e-05
0.0003625253
-7.0035222e-05
0.00049730639
-3.1923905e-05
0.00063989061
3.7536564e-05
0.00077648881
0.00013580132
0.000908847
0.00024646523
0.0010393709
0.00036712608
0.0011736191
0.00049296727
0.0013202087
0.00061959238
0.0014888535
0.000745653
0.00087095003
0.0016904779
2.7337145e-06
-5.8008846e-05
5.8849212e-06
-6.3668655e-05
1.0112071e-05
-7.1288174e-05
1.5749245e-05
-7.9351307e-05
2.3053627e-05
-8.686282e-05
3.3208705e-05
-9.2732662e-05
6.0179794e-05
-9.7006311e-05
0.00011952922
-9.1273335e-05
0.00020572746
-4.8661667e-05
0.00031498876
2.6540018e-05
0.0004399153
0.00012153869
0.00057776417
0.0002292772
0.00074027725
0.00033045419
0.00093151041
0.00042835922
0.001151522
0.00052564142
0.00061657219
0.0014058998
-8.6856659e-06
-4.932318e-05
-2.4020904e-05
-4.8333417e-05
-4.4694719e-05
-5.0614359e-05
-7.0516118e-05
-5.3529908e-05
-0.00010137359
-5.6005347e-05
-0.0001370712
-5.7035051e-05
-0.0001786631
-5.5414408e-05
-0.00022026968
-4.9666759e-05
-0.00023106253
-3.786882e-05
-0.00018905798
-1.5464528e-05
-9.1295982e-05
2.377669e-05
5.564678e-05
8.2334438e-05
0.000243136
0.00014296497
0.00046483841
0.00020665682
0.00071725855
0.00027322127
0.00032803876
0.001005792
-4.9543082e-05
2.1990231e-07
-9.8092662e-05
2.1616232e-07
-0.0001489044
1.9738028e-07
-0.00020258978
1.5547523e-07
-0.00025867431
7.9175567e-08
-0.0003156626
-4.6758393e-08
-0.00037083494
-2.4207064e-07
-0.0004199717
-5.2999419e-07
-0.00045690416
-9.3636307e-07
-0.00047089205
-1.4766328e-06
-0.00044493925
-2.1761121e-06
-0.00035957245
-3.0323618e-06
-0.00021276308
-3.8444012e-06
-1.5483188e-06
-4.5579393e-06
0.00027731733
-5.6443763e-06
-6.6240141e-06
0.0006119801
-4.9212145e-05
4.9432047e-05
-9.7473285e-05
4.8477302e-05
-0.00014799373
5.0717821e-05
-0.00020137773
5.3539482e-05
-0.00025714699
5.5848437e-05
-0.00031379895
5.6605197e-05
-0.00036860357
5.456255e-05
-0.00041734824
4.8214673e-05
-0.00045389679
3.5612193e-05
-0.00046713374
1.1760315e-05
-0.00044040541
-2.8904439e-05
-0.00035480417
-8.8633609e-05
-0.00020810238
-0.00015054619
3.4527455e-06
-0.00021611306
0.00028271629
-0.00028490792
-0.00034326944
0.00061936171
-8.6141388e-06
5.8046186e-05
-2.3797316e-05
6.366048e-05
-4.4289085e-05
7.1209591e-05
-6.9915278e-05
7.9165675e-05
-0.00010057543
8.6508587e-05
-0.00013609252
9.2122288e-05
-0.00017761621
9.608624e-05
-0.00021901552
8.9613984e-05
-0.00022866443
4.5261107e-05
-0.00018607014
-3.0833974e-05
-8.9004639e-05
-0.00012596994
5.6255351e-05
-0.0002338936
0.00024092808
-0.00033521892
0.00045813422
-0.0004333192
0.00070366404
-0.00053043773
-0.00061955315
0.00097994774
2.6927592e-06
5.5353427e-05
5.7840227e-06
6.0569216e-05
9.9305741e-06
6.7063039e-05
1.5458751e-05
7.3637498e-05
2.2611137e-05
7.9356201e-05
3.2697651e-05
8.2035774e-05
5.9825083e-05
6.8958808e-05
0.00011949696
2.9942106e-05
0.00020531762
-4.0559552e-05
0.00031324499
-0.00013876134
0.00043670997
-0.00024943493
0.00057277215
-0.00036995578
0.00073298247
-0.00049542924
0.00092107727
-0.000621414
0.0011371621
-0.00074652255
-0.00086980965
0.0013874186
1.5277737e-05
4.007569e-05
3.0439041e-05
4.5407911e-05
5.596321e-05
4.1538871e-05
9.7239063e-05
3.2361644e-05
0.00015949698
1.7098285e-05
0.00024826757
-6.7348125e-06
0.00036245581
-4.5229435e-05
0.00049657521
-0.0001041773
0.00063764409
-0.00018162843
0.00077291407
-0.00027403132
0.00090389912
-0.00038041998
0.0010329365
-0.00049899317
0.0011654847
-0.00062797745
0.0013099017
-0.00076583102
0.0014753723
-0.0009119931
-0.0010669313
0.0016724939
1.8384054e-05
2.1691636e-05
6.0417039e-05
3.3749267e-06
0.00012533817
-2.3382259e-05
0.00021123206
-5.3532252e-05
0.00031924556
-9.0915211e-05
0.00044902537
-0.00013651462
0.00059174562
-0.00018794968
0.00073489345
-0.00024732513
0.00087020486
-0.00031693984
0.00099501838
-0.00039884484
0.0011094965
-0.00049489805
0.0012173192
-0.00060681594
0.0013255201
-0.00073617832
0.0014442906
-0.00088460153
0.001586555
-0.0010542575
-0.0012471396
0.0017667633
3.4517241e-05
-1.2825605e-05
0.00011098966
-7.3097492e-05
0.00020277548
-0.00011516808
0.00030209669
-0.00015285347
0.00040197159
-0.00019079011
0.00049757878
-0.00023212181
0.00058879913
-0.00027917004
0.0006755015
-0.0003340275
0.00075743046
-0.00039886881
0.00083470185
-0.00047611622
0.00090825826
-0.00056845447
0.00098018775
-0.00067874542
0.0010539039
-0.00080989446
0.0011341439
-0.0009648415
0.0012265866
-0.0011467003
-0.001359956
0.001339403
2.3398229e-06
-2.1994168e-06
3.2488835e-06
3.4989425e-06
2.8407606e-06
7.1701849e-07
-3.6457782e-06
-1.1285578e-05
-2.3592094e-05
-4.2368323e-05
-6.9878769e-05
-0.00010890608
-0.00016281598
-0.00023557572
-0.0003321708
-0.00046070716
2.3370668e-06
-2.1926149e-06
3.2408234e-06
3.486474e-06
2.8222782e-06
6.9065844e-07
-3.6819925e-06
-1.1332624e-05
-2.3648207e-05
-4.2424284e-05
-6.9910655e-05
-0.00010886734
-0.00016264917
-0.00023532449
-0.00033239069
-0.00046198113
3.087628e-06
-2.3549925e-06
6.1379026e-06
1.1101043e-05
1.7986838e-05
2.7456603e-05
4.0482552e-05
5.8256819e-05
8.2225652e-05
0.00011409391
0.00015580281
0.00020951955
0.00027766919
0.00036308434
0.00046924962
0.00059285372
3.0855577e-06
-2.3533718e-06
6.1359699e-06
1.1099608e-05
1.7986971e-05
2.7460272e-05
4.0493178e-05
5.8280401e-05
8.2272893e-05
0.0001141833
0.00015596562
0.00020980666
0.00027815842
0.00036384114
0.00047049736
0.0006000835
0.0013946824
-0.0034814892
0.0020868068
0.0084730102
-0.0087930329
0.00032002266
0.0012360348
-0.0032181779
0.0019821431
0.0084730102
-0.0022482113
0.00023321327
0.0020149981
-0.0081594097
0.0050451381
0.0031142716
-0.0011328931
0.004398523
-0.00326563
0.0077645428
0.0029365191
-0.010701062
0.0080780949
0.0020102803
-0.010088375
0.0012699033
-0.0017306104
-0.0019444501
0.0014824689
0.0034946113
0.0064459825
-0.0099405937
-0.0036145181
-0.0038557611
0.0074702792
-0.0075920662
0.0034733691
0.0041186971
-0.0016525666
0.0040158807
-0.0023633141
0.0036254502
-0.0001453197
-0.0034801305
0.0073509101
-0.0076078049
0.00025689485
0.00054752341
0.0016877713
-0.0022352947
0.0012841818
-0.0017419092
0.00045772737
0.0062672101
-0.0022964764
-0.0039707337
-0.001044351
-0.0012038603
-0.0077001127
0.0040855947
-0.0094787963
0.0093904211
8.8375158e-05
0.00072783417
0.0085227638
-0.009250598
4.500101e-05
-0.0056678702
0.0056228692
0.0044947856
0.0012833572
-0.0057781429
-0.0040248639
-0.0059591996
0.0099840636
0.0063767197
-0.0021300249
-0.0042466948
0.0013607672
0.0064229467
-0.0077837139
-0.0022772695
0.0055651749
-0.0032879054
0.0066597223
-0.0021649367
0.0020191963
-0.0014430865
-0.00057610986
-0.00020368684
0.0083899983
-0.0081863115
0.0063263855
8.8035033e-05
-0.0064144205
0.0010489877
-0.0061317937
0.005082806
0.0087672264
-0.007422247
-0.0013449794
0.0076680798
-0.0081021558
0.00043407601
-0.0048015649
0.0058505526
0.0055947725
-0.0032588828
-0.0023358897
-0.0086585394
0.001697681
0.0069608584
0.0027564974
-0.0040995856
0.0013430882
0.0099867515
-0.0043171496
-0.0056696019
0.0077645428
-0.0023027344
0.0056066289
-0.0033038945
0.0080780949
-0.00086091528
0.0037274345
-0.0028665192
-0.0019177816
0.0065691794
-0.0046513979
-0.0098021028
0.0041670876
0.0056350152
-0.0077645428
0.011655767
-0.0038912247
-0.0080780949
0.011757768
-0.0036796736
0.0031772872
-0.0004759066
-0.0027013806
-0.0038955907
0.0017425473
0.0021530434
0.0014349624
-0.0026934697
0.0012585073
0.00097507981
0.0011529988
-0.0021280786
-0.0030737848
0.0056882722
-0.0026144873
0.00054151944
0.0055171876
-0.006058707
0.00097273539
-0.0019046738
0.00093193838
-0.0054923797
0.0035061423
0.0019862374
-0.010521204
0.0011478705
0.0093733333
0.0084545824
-0.0030972639
-0.0053573185
0.0077644688
0.00069011356
0.0055378489
0.0040910485
-0.0096288974
0.0051854714
0.0043544182
-0.0095398896
-0.002446666
0.0050430057
-0.0025963397
0.00078989893
-0.0040588651
0.0032689662
-0.0066410253
0.0069056468
-0.00026462146
0.0043254372
-0.0078924199
0.0035669827
0.0044856042
0.0018119335
-0.0062975378
-0.0010333281
0.0062049747
-0.0051716466
-0.0090615245
0.0071437429
-0.0024981366
0.0069001958
-0.0044020592
0.0017564536
0.0018689966
-0.0048055328
0.0043762974
0.00042923535
0.0048294486
0.0062231844
-0.011052633
0.008718663
-0.0080607209
-0.0006579421
0.00052120372
-0.0028135592
0.0049090195
-0.0020954603
0.0068199671
-0.0033158577
-0.0035041093
0.0097428225
-0.0087867947
-0.00095602774
0.0077211525
-0.0068834089
-0.00083774364
0.0027698744
-0.004005623
0.0012357486
-0.0023274778
0.00096504787
0.0013624299
0.0013789289
-0.0036561985
-0.011928964
0.008446301
0.0034826635
0.0023300107
0.0050208994
0.0024349838
-0.0091082485
0.0066732647
-0.004522575
0.0076024193
-0.0030798444
-0.0010124171
-0.0060031257
0.0070155429
0.0029253544
-0.002238818
-0.00068653646
0.00049168643
0.0082269765
0.0053616728
0.00012057002
-0.0054822428
-0.0076426894
0.003088203
0.0045544864
0.00053356441
0.003654536
-0.0041881004
0.0031881404
0.0024066321
0.0043926869
0.0024468166
-0.0068395035
0.0045835059
-0.001752935
-0.0028305709
-0.0046741043
-0.0053231797
0.0030709031
-0.0018348683
-0.00084152139
-0.0015186199
0.0023601413
-0.0029126276
0.0056598933
-0.0027472657
-0.0030311618
0.0078606105
-0.0057186962
0.0075565711
-0.0018378749
-0.0059181676
-0.0017245218
-4.2336436e-05
0.0077104163
0.0081596783
-0.0075839611
-0.00057571718
-0.0051117545
-0.0024803117
-0.011269364
0.0074381765
0.0038311878
-0.011820081
0.0085848518
0.0032352295
0.0057460099
-0.0025803848
-0.0031656252
0.001396859
-0.0036995934
0.0021268618
-0.0052006466
2.8415677e-05
0.0042404504
-0.0042688661
0.0031300255
-0.0041633536
-0.0017098368
0.0044663342
0.0019179166
0.0043492936
0.0065336237
0.0032091988
0.0038607141
-0.0038322985
0.0029567758
0.0071140369
-0.010070813
0.0098570088
-0.0056415039
-0.0042155048
-0.0022114366
0.0048084437
-0.0025970071
-6.426779e-05
0.0014992302
0.0020544041
-0.0010793243
0.0010172871
0.00081505817
-0.0018323453
0.010915808
-0.011119495
0.00094180755
0.00040689906
-0.0013487066
0.0014690969
-0.00046330488
-0.007522486
0.0080779129
-0.00055542693
-0.0021261077
0.0013774846
0.00074862311
0.0038193121
-0.0037184166
-0.00010089552
-0.0056192868
0.005134933
0.00048435379
0.0019310598
-0.00095832444
-0.00049146825
0.0045932399
-0.0041017716
-0.0046588233
0.0085031917
-0.0038443685
0.0034786475
0.006508104
0.0077068625
-0.0033814253
0.0034241786
0.0023218314
-0.0035470123
0.002686097
0.0063722534
-0.0073846705
-0.0031478759
0.0023063545
0.0056004904
0.0025591878
0.0052587096
-0.010818199
0.0055594896
0.0030485302
0.0016510561
-0.0014178429
-0.0031860109
0.0045806934
0.0077999451
-0.0077999451
-0.002206037
-0.0013587853
0.0067204581
0.00098035015
-0.0037939094
-0.00039686412
0.006296102
-0.0058992379
-0.0040747151
0.009612564
-0.0042546151
0.0094400865
0.0083142113
-0.0048188947
-0.0034953166
0.0043218305
0.0030389334
-0.0052503699
0.0057900288