/*--------------------------------*- C++ -*----------------------------------*\
| =========                 |                                                 |
| \\      /  F ield         | foam-extend: Open Source CFD                    |
|  \\    /   O peration     | Version:     4.1                                |
|   \\  /    A nd           | Web:         http://www.foam-extend.org         |
|    \\/     M anipulation  |                                                 |
\*---------------------------------------------------------------------------*/
FoamFile
{
    version     2.0;
    format      ascii;
    class       volScalarField;
    location    "0.2";
    object      p;
}
// * * * * * * * * * * * * * * * * * * * * * * * * * * * * * * * * * * * * * //

dimensions      [0 2 -2 0 0 0 0];

internalField   nonuniform List<scalar> 
4242
(
-0.6236503
-0.60726557
-0.59026827
-0.56669716
-0.54081849
-0.51134572
-0.47829978
-0.44182532
-0.40227479
-0.36028488
-0.31681185
-0.27305003
-0.23039389
-0.19057879
-0.15511185
-0.12099019
-0.71781669
-0.69771038
-0.68003904
-0.65677548
-0.63146781
-0.60276248
-0.57082616
-0.53572141
-0.49761529
-0.45683956
-0.41392973
-0.3696038
-0.32477572
-0.28072805
-0.23908203
-0.19966337
-0.88684698
-0.86171732
-0.84205574
-0.81594865
-0.78721639
-0.75458753
-0.71832365
-0.67843177
-0.63506727
-0.58855501
-0.53940732
-0.48829905
-0.43604546
-0.38362498
-0.33231636
-0.28410849
-1.1043962
-1.0738901
-1.0512735
-1.01997
-0.98528737
-0.94578216
-0.90174211
-0.85310866
-0.80006951
-0.743035
-0.68265944
-0.61982319
-0.55560162
-0.49116922
-0.4277641
-0.36798414
-1.2762077
-1.2414881
-1.217352
-1.18219
-1.1434047
-1.0989859
-1.0492594
-0.99407339
-0.93360847
-0.86830218
-0.79888986
-0.72638724
-0.65206773
-0.5773564
-0.50364225
-0.43228121
-1.3750347
-1.337293
-1.3127269
-1.2753311
-1.2344786
-1.1874725
-1.134777
-1.0761671
-1.0118097
-0.94213084
-0.86786948
-0.79006616
-0.71005157
-0.62936399
-0.54962989
-0.47334026
-1.403703
-1.3644971
-1.3406591
-1.302895
-1.2617815
-1.2143184
-1.1610769
-1.101808
-1.0366392
-0.96596973
-0.89051744
-0.81131915
-0.72972073
-0.64729351
-0.56558188
-0.48736776
-1.3644565
-1.3255308
-1.3030869
-1.2667223
-1.2268246
-1.1807026
-1.1289229
-1.0713129
-1.0079794
-0.93931071
-0.86600255
-0.78905469
-0.709765
-0.62967063
-0.55015011
-0.47418526
-1.2617804
-1.2249424
-1.2044511
-1.1712044
-1.1340649
-1.0911416
-1.0428748
-0.98922102
-0.93027746
-0.86641612
-0.79829755
-0.72687173
-0.65337694
-0.57933841
-0.50612948
-0.43663032
-1.1033233
-1.0703472
-1.0521694
-1.0235418
-0.99068961
-0.9527591
-0.91000875
-0.86250992
-0.8103647
-0.75389833
-0.69368805
-0.63057416
-0.56565908
-0.50034187
-0.43594924
-0.3751579
-0.89592218
-0.86882054
-0.85382724
-0.83150218
-0.80488923
-0.77408163
-0.73912781
-0.70009418
-0.65708211
-0.61035072
-0.56035712
-0.5077733
-0.45346315
-0.39846307
-0.34355519
-0.2896611
-0.68901692
-0.66859576
-0.65638338
-0.64167147
-0.62229459
-0.59868649
-0.57121142
-0.54002112
-0.50530566
-0.46740261
-0.42679768
-0.38413466
-0.3401998
-0.29592216
-0.25212886
-0.20730793
-0.16986749
-0.15694534
-0.14806543
-0.13622757
-0.12303724
-0.10844306
-0.092586898
-0.075723169
-0.058226082
-0.040567757
-0.023307406
-0.0070670791
0.007419935
0.019303882
0.028691022
0.038429575
0.051908106
0.060561824
0.066786621
0.074766187
0.083411
0.09260252
0.10215771
0.11178533
0.12108114
0.12954303
0.13659837
0.14164641
0.14405813
0.14315384
0.13865538
0.13233473
0.25956177
0.26441018
0.26775463
0.27179997
0.27599315
0.28004967
0.28368217
0.28651779
0.2880893
0.28786181
0.28527921
0.27981298
0.27095548
0.25823751
0.2418857
0.22456875
0.4252378
0.42740441
0.42847548
0.42935452
0.42980934
0.42953204
0.42816525
0.42527565
0.42035562
0.41285525
0.4022359
0.38801082
0.36972264
0.34702183
0.32051011
0.29340341
0.53255591
0.53278577
0.53237933
0.5313959
0.52955712
0.5265234
0.52189538
0.51520618
0.50594019
0.49357283
0.47762299
0.45767621
0.43335692
0.40455421
0.3727841
0.34303477
-0.88763822
-0.86248437
-0.84280252
-0.81667218
-0.78791407
-0.75525218
-0.71894603
-0.67900052
-0.63557147
-0.58898839
-0.53977389
-0.48861686
-0.43634544
-0.38397857
-0.33294445
-0.28518119
0.55752279
0.55704848
0.55607506
0.55440382
0.55178279
0.54790501
0.5424058
0.53486743
0.52483438
0.51184221
0.49545989
0.47533798
0.4512545
0.42320505
0.39168813
0.35832437
0.557947
0.55746417
0.55647314
0.55477318
0.55211051
0.54817701
0.54260853
0.5349909
0.52487619
0.511812
0.49538223
0.47525205
0.45121741
0.42332846
0.39223965
0.35976438
0.53228797
0.53250515
0.53208499
0.5310789
0.52920774
0.52613146
0.52145081
0.51470097
0.50537188
0.49294921
0.47696647
0.45702422
0.43276513
0.40413858
0.37279989
0.34370095
0.42359458
0.4257644
0.42684983
0.427739
0.42819924
0.42792249
0.42655103
0.4236517
0.41871894
0.41120928
0.40059581
0.38638783
0.36804235
0.34505521
0.31838405
0.29326115
0.25766328
0.26253604
0.26591544
0.26999743
0.27423283
0.27833856
0.28202838
0.28493035
0.2865787
0.28644348
0.28398056
0.27865216
0.26980402
0.25667393
0.24011191
0.22664808
0.05109784
0.05977967
0.066028364
0.074040665
0.082730282
0.091980578
0.10161177
0.11133597
0.12075232
0.12936328
0.13660483
0.14187799
0.14450801
0.14375884
0.13954155
0.13335746
-0.16965978
-0.15671967
-0.14784276
-0.13600465
-0.12280722
-0.10820335
-0.092334375
-0.075455379
-0.057942848
-0.040273118
-0.023010991
-0.0067895134
0.0076181292
0.01926504
0.028158311
0.037514652
-0.68771339
-0.6673027
-0.65509296
-0.64039432
-0.62103339
-0.59744269
-0.56998535
-0.53881113
-0.50410773
-0.46621003
-0.42560006
-0.38291449
-0.33891774
-0.29449622
-0.25015863
-0.2055646
-0.89473365
-0.86763804
-0.85264961
-0.83034167
-0.80374647
-0.77296064
-0.73803216
-0.69902799
-0.656051
-0.60936375
-0.55943014
-0.50693425
-0.45276
-0.39800409
-0.34350045
-0.29130356
-1.1023487
-1.0693751
-1.0512045
-1.0225938
-0.9897581
-0.95184897
-0.90912309
-0.86165338
-0.8095441
-0.75312494
-0.69298038
-0.62995997
-0.56517311
-0.50002947
-0.43574461
-0.37530357
-1.261012
-1.2241743
-1.2036912
-1.1704577
-1.1333313
-1.0904252
-1.0421769
-0.98854461
-0.92962783
-0.86580453
-0.79774472
-0.72641123
-0.65305646
-0.57922291
-0.50621563
-0.43734966
-1.3638854
-1.3249575
-1.3025208
-1.2661642
-1.2262745
-1.1801629
-1.1283918
-1.0707901
-1.0074659
-0.93881461
-0.86554196
-0.78866108
-0.70948243
-0.62953767
-0.55011739
-0.47453688
-1.4033544
-1.3641432
-1.3403101
-1.3025482
-1.2614377
-1.2139776
-1.1607348
-1.101461
-1.0362847
-0.96561225
-0.89017237
-0.81101676
-0.72950394
-0.64718739
-0.56555952
-0.48770791
-1.3749502
-1.3372001
-1.3126355
-1.2752362
-1.2343815
-1.18737
-1.1346622
-1.0760327
-1.0116501
-0.94194718
-0.86767628
-0.78989575
-0.70994633
-0.62934241
-0.54970119
-0.47370093
-1.2764158
-1.2416852
-1.217544
-1.1823725
-1.1435794
-1.0991473
-1.0493998
-0.99418429
-0.93368333
-0.86834068
-0.79890574
-0.7264131
-0.65214467
-0.57750817
-0.50393167
-0.43284409
-1.104929
-1.0744061
-1.0517789
-1.02046
-0.98576135
-0.94623344
-0.90216155
-0.85348584
-0.80039553
-0.74330806
-0.68289212
-0.62004723
-0.55585859
-0.49150432
-0.42830666
-0.36884537
-0.71857366
-0.69844029
-0.68074508
-0.65745884
-0.63212535
-0.6033884
-0.57141375
-0.53626083
-0.49809482
-0.45724743
-0.4142574
-0.36985111
-0.32496356
-0.28093976
-0.23947675
-0.19992664
-0.62394805
-0.60754544
-0.59053497
-0.56696407
-0.54108572
-0.51160867
-0.47855202
-0.44205474
-0.4024645
-0.36041647
-0.31687375
-0.27305471
-0.23040459
-0.19073549
-0.15561659
-0.12197849
-0.28611929
-0.2759288
-0.2685725
-0.26292726
-0.25664009
-0.24906142
-0.24017633
-0.22988871
-0.2179562
-0.20411628
-0.18819783
-0.17022084
-0.15047288
-0.12955341
-0.10873089
-0.088557376
-0.25438304
-0.24706363
-0.2434987
-0.23932494
-0.23099519
-0.21872512
-0.2035085
-0.18593859
-0.16648586
-0.14568708
-0.12409951
-0.10227069
-0.080772114
-0.060218544
-0.041475743
-0.025114035
-0.14335684
-0.14000656
-0.13915544
-0.13699464
-0.13002525
-0.11881675
-0.10455193
-0.087780358
-0.069026912
-0.049019956
-0.028566699
-0.0084673825
0.010510264
0.027707828
0.042645724
0.055701823
-0.0038336061
-0.0015723627
-0.00087098108
0.00075184237
0.0044491297
0.011486248
0.02162207
0.034356849
0.048971034
0.064581129
0.080228246
0.094927252
0.10772505
0.1177904
0.12446535
0.1279334
0.11648961
0.11713687
0.11687344
0.11724522
0.11892315
0.12258947
0.12916509
0.13830816
0.14873563
0.15976805
0.17060757
0.18006324
0.18693102
0.19026301
0.18951229
0.18510247
0.20238869
0.20198656
0.2013333
0.20081118
0.20104241
0.20276837
0.20638929
0.21205637
0.22027394
0.23076111
0.24078077
0.24822762
0.25154386
0.24968663
0.24215685
0.22902438
0.20226141
0.20186175
0.20121147
0.20069289
0.20093045
0.20266704
0.20630237
0.21198867
0.22022329
0.23071469
0.2407375
0.24819814
0.25155327
0.24979001
0.2424764
0.23001862
0.11639701
0.11704982
0.11679371
0.11717083
0.11884961
0.12251363
0.12908546
0.13821852
0.1486377
0.15966649
0.17050471
0.17995784
0.18680843
0.19007154
0.18906552
0.18415381
-0.0036356865
-0.0013681555
-0.00066260082
0.00096427618
0.0046609794
0.011702863
0.021852683
0.034610763
0.049261515
0.064928141
0.080661462
0.09549124
0.10848839
0.11887525
0.1260553
0.1309156
-0.14282753
-0.13947227
-0.13861728
-0.13645705
-0.12948439
-0.1182635
-0.10397523
-0.087166237
-0.068357244
-0.048270503
-0.027703861
-0.0074432362
0.011767671
0.029321389
0.044688855
0.058626886
-0.25351603
-0.24620005
-0.24264415
-0.23847797
-0.23014777
-0.21786958
-0.20263808
-0.18504533
-0.1655598
-0.14471622
-0.12306984
-0.10116753
-0.079579872
-0.058924967
-0.040203882
-0.022547175
-0.28487917
-0.27468944
-0.26734455
-0.26172055
-0.25545403
-0.24789326
-0.23902287
-0.22874513
-0.21681587
-0.20297144
-0.18704037
-0.16904411
-0.14927119
-0.12836019
-0.10775392
-0.087053193
-0.27085828
-0.38274422
-0.34650618
-0.32746531
-0.30639709
-0.28233937
-0.25597956
-0.22779856
-0.19832011
-0.16835389
-0.13879641
-0.11070793
-0.085543917
-0.063826037
-0.040857671
-0.27140576
-0.38292464
-0.34675771
-0.32774126
-0.30664787
-0.28256705
-0.25617792
-0.22795539
-0.19842153
-0.16838973
-0.13877076
-0.11063993
-0.085423167
-0.063453838
-0.040811411
-0.29831533
-0.43846925
-0.4318031
-0.41685522
-0.4029128
-0.38694565
-0.36806635
-0.34623965
-0.32161797
-0.29445633
-0.26518461
-0.23437137
-0.20288418
-0.17176973
-0.13416572
-0.29957451
-0.43981006
-0.43304851
-0.41806068
-0.40408575
-0.38809168
-0.36919326
-0.34735616
-0.32273445
-0.29558651
-0.26634654
-0.2355981
-0.20413378
-0.17337961
-0.14042146
-0.12258822
-0.12339368
-0.23792521
-0.23889798
0.012049734
-0.029746093
0.10133864
-0.027921893
-0.019413556
0.0036767367
0.0080854696
0.02048935
0.020771648
-0.026596856
-0.032247383
0.00012499285
0.062724966
-0.052798218
0.011454842
-0.059693148
-0.021195032
-0.085607734
-0.034540107
-0.078770137
-0.038233985
0.065410695
0.022948919
0.026689987
0.041362029
0.0041632113
-0.01551787
-0.080769607
-0.033793252
-0.14644183
0.0047836816
-0.018111274
-0.03411672
-0.052966516
0.053688181
-0.025318015
0.00082928205
0.049978527
-0.03660396
-0.024377981
0.041987687
0.00057614559
0.019907777
-0.14192549
0.020144461
0.12890522
-0.0090587915
0.037249096
0.016417567
0.016526564
-0.17696622
0.22522996
0.062944826
-0.033077089
-0.16395824
-0.041424193
-0.035882157
0.0089083181
0.026690137
-0.014367409
-0.011866245
0.016413884
0.015835555
-0.02118144
-0.1914595
-0.018180709
0.0031158698
-0.0049549781
-0.035112816
-0.0099427661
0.0072973333
-0.043620666
0.0098218142
-0.00064759616
-0.00081902811
0.023458299
-0.008345379
0.0080482494
-0.0018474116
-0.0012109909
0.018762309
-0.1284086
-0.15659635
-0.012906891
-0.026320358
-0.039109683
0.024752215
-9.3884956e-05
-0.15237592
-0.00077586456
-0.016064613
0.0028392961
0.14413354
-0.047938721
0.043316767
0.052767935
3.5742459e-05
0.11431291
-0.16953681
0.058315429
-0.0005879515
-0.02200512
0.003633246
0.00066481798
-0.020405751
-0.058557216
-0.032230006
-0.00053935328
-0.036789561
-0.15132681
-0.19869706
0.075130484
-0.037988314
0.039090742
-0.087120758
-0.0016245612
0.086863571
0.00060126791
-0.0003062946
0.079019909
0.07180725
-0.041829743
0.12561811
-0.03292166
-0.095853308
0.17090236
-0.0131928
-0.13855266
-0.004670616
0.066030782
-0.049257013
0.034929496
0.00031712071
0.0004490964
0.0024437588
-0.048621731
0.11932757
-4.3294183e-05
-0.17372919
-0.017794214
0.04237566
-0.023023009
-0.027966771
0.0026859215
-0.00012642961
-6.1637478e-05
-0.013858037
-0.0075365466
-0.0063390548
0.014022555
0.013723338
-0.013163716
0.0069608476
0.086303847
-0.0010654891
0.037462289
-0.1462974
-0.014238604
-0.0021340859
0.00063826736
-0.39043052
-0.38866324
0.04686054
0.067655923
-0.01136535
-0.00011219186
-0.0066450267
0.013013861
-0.073914275
-4.2924009e-05
-0.057810857
0.13562989
0.01163322
0.0010789329
-0.011298239
0.046710131
-0.0053950741
-0.00020642286
-0.016383944
0.013872531
0.015637627
-0.067700932
-0.051519776
0.006873443
0.011433644
0.020986894
0.04306953
0.010469202
0.022821601
-0.021478702
-0.00086927768
0.0020689311
-0.090388708
0.10771624
-0.016488432
0.028187446
0.0012711224
0.0046508555
0.0096269552
0.15151832
0.015051237
0.0095230336
-0.090099211
-0.0077940112
0.069623524
0.026631389
0.05789503
-0.0021418443
0.084791213
0.00056175735
-0.014534873
-0.0061455413
-0.0073294062
0.0076792056
-0.00073832631
0.00040875826
-0.00079054334
0.038232309
0.049974701
0.034798452
-0.028391017
-0.038745246
-0.0021821715
-0.00043385694
-0.027668568
0.11526976
0.070404163
-0.00034927507
-0.044431668
0.030972598
0.11742934
0.10095303
-0.00095004333
-0.058393604
-0.10103837
0.0058577056
-0.0028970554
0.039985619
-0.023458293
-0.00085294564
0.004364505
0.00051684155
0.010614006
-0.05608372
0.097270048
-0.01680499
-0.048822902
0.027459414
0.0017036025
-0.062979964
0.014681633
0.14081564
0.00057547924
0.00043245265
-0.018627151
0.00029763793
0.059331403
0.0088987117
-0.00070552949
-0.020698315
-0.026714549
7.1711839e-05
-0.00059233509
-0.0010848915
-0.017750207
-0.0013181145
0.0038583392
-0.032460234
0.0011427167
-0.023273898
0.00078765812
-0.019690287
-0.0063067328
0.061767545
-0.07047323
-0.0014400302
0.088531517
0.071483353
-0.0055861372
0.0022977984
0.032451969
0.00054750187
0.004005386
-0.13336248
0.093124393
-0.033933738
0.0029569083
-0.011982415
0.010434597
-0.0039023251
0.014790953
0.062514615
-0.12900573
0.00015313695
0.088636603
-0.041286704
0.0054610986
0.043002679
0.008707492
-0.03235022
0.012274581
-0.097783592
-0.06749404
0.10394482
0.13905905
-0.045110585
0.0077394327
-0.0053975515
-0.016961001
0.048344377
-0.079993742
-0.028255376
0.0023240153
-0.033862201
-0.010877923
0.00076617888
0.0090834652
0.0034274897
0.16922925
-0.026351924
-0.11522615
0.055793852
0.00014496523
-0.00063120955
0.0043831147
-0.017258776
-0.1206127
0.0017334076
0.0020273637
-4.6692437e-05
0.22346784
0.030652791
-0.017010479
0.035401263
-0.034239751
-0.10028555
-0.02430792
0.00103016
-0.0011411487
0.0036697117
-0.14516462
-0.039959201
0.0028410397
0.077911098
-9.778906e-06
0.0019867782
-0.13959249
0.011136461
-0.066882739
0.00041828954
0.00076445131
-0.19820334
0.029004924
0.010533521
-0.0057357
-0.13760805
-0.032652428
0.0077105357
-0.076270421
0.024332129
0.011515878
0.029731375
0.00033490415
-0.18070435
0.1128943
0.052509254
0.011498957
-0.12371355
0.0012243099
0.064267542
-0.13328851
-0.16726143
0.14701095
-0.0071651322
0.011044548
0.01304661
0.04892818
-0.055925561
-0.16258301
0.010627303
-0.044492542
0.066869627
0.052572252
0.027559414
-0.05450687
-0.01125492
0.0041832789
4.4282307e-05
0.0092223673
-0.21579036
0.00041846151
0.0097579464
-0.21071468
0.0011263076
0.0096205205
-0.020750147
0.0010273792
0.039322616
0.20534479
-0.034747024
0.00024644444
-0.031892029
0.0038617872
-0.10391677
0.033328826
-0.016765144
-0.014927193
-0.0035024048
0.02948469
0.0012796112
-0.012040508
0.028677438
-0.00066957669
-0.0072454054
-0.0086394829
0.012888574
0.013779796
-8.7211643e-05
-0.02307229
0.00093748613
-0.027926725
0.0021076575
-0.014447114
0.024442999
0.069895524
0.10583682
-0.10372439
0.00066060865
0.057719434
0.0037069682
0.015244359
0.013983495
-0.031474217
-0.034326007
0.17692063
0.0082562538
0.0023440356
-0.1047954
-0.1012004
-0.016749045
-0.14686338
-0.057931567
-0.027385842
0.0022450694
-0.11414261
-0.036786179
0.00052803055
0.00014006416
-0.015801032
0.035358499
0.0010110514
-0.054710758
-0.11042373
0.00043886884
-0.055848006
0.0081387507
-0.04284018
-0.0069119143
0.00030892091
0.015552396
0.016400874
0.078215617
0.0074274878
-0.026610646
0.010284252
0.029469636
0.024698599
0.046127767
0.057974522
-0.023972963
0.14392803
4.3044373e-05
0.095962217
-0.0044008557
-0.0046292571
-0.031824522
-0.0011383348
-2.3284584e-05
0.23142829
-0.00069835949
-0.029045545
-0.076434348
-0.040120495
5.3072977e-05
-0.067506308
-0.15751159
0.0028751854
0.039534477
0.022823348
-0.18203678
0.10275944
0.00017035845
-0.054014391
-0.025536114
-0.15275133
0.0051153892
-0.0054861603
0.01482249
0.00062452027
-0.011041746
0.016004186
-0.006805736
0.098366433
0.012647184
0.011780956
-0.048035229
-0.37166069
-0.020349718
0.0002279978
0.071970929
0.00090680191
-0.0015675608
-0.031852045
-0.015476076
-0.074448483
-0.36991375
-0.0022231141
0.026169309
-0.003162824
0.030605083
-0.0012288002
-0.027097778
0.020688751
-0.003327403
-0.1771506
-0.013025462
-0.087675517
0.017357153
-0.13067207
0.07002358
0.014006003
-0.14561809
0.067118851
0.0055965275
-0.20061798
0.063835775
0.018342282
0.018090976
0.028339547
0.02557436
-0.3436628
-0.04628108
-0.11992688
0.00086886963
-0.11570186
0.13842693
0.032156146
0.030760552
0.012892793
-0.042968288
-0.025691645
0.0034999491
-0.00016073625
0.061427636
-0.097416368
-0.031152603
0.0042651253
-0.34316102
0.10276216
-0.099383872
-0.048553881
-0.008295744
-0.13399034
-0.088142792
-0.001134598
-0.21044688
-0.021599286
-0.00016012335
0.026268989
0.027495908
-0.027776608
-0.10164574
-0.12475565
0.065454403
0.099223059
0.092726068
0.017079212
0.0064407294
0.030235311
0.057198225
0.10431005
0.044590815
0.14047547
0.0011241134
0.024758335
0.04356897
0.00091293923
-0.017291543
0.011373784
0.037243142
0.069756429
0.015539941
-0.21018554
0.024286553
-0.0054813937
0.23105915
0.032043258
-0.00029244766
0.22116418
0.066758324
-0.019692735
-0.03035754
0.1058517
0.21968318
-0.086048065
0.018018946
0.053269866
-0.0016733489
0.12825878
0.052466961
0.058574151
-0.032821192
9.2084059e-06
0.11473798
0.059904121
0.23017272
0.017922401
0.0020216265
0.022864185
-0.045252162
0.0013373913
-0.034208291
-0.18569492
0.22931611
-0.003382079
-0.00045999565
-0.023424832
0.10665978
0.084984587
-0.073416574
-0.091855902
0.0048825623
0.053880643
-0.085232793
-0.18057288
-0.045156436
-0.076564293
0.014154684
0.014048614
-0.0019642764
0.0047172396
-0.0076156484
0.064813896
-0.017989007
-0.053089036
0.036409541
-0.030527049
-0.007713615
-0.11557257
0.18785212
-0.086290336
0.014450278
-0.00032681944
0.0060998911
0.025461221
-0.015329159
0.21645116
-0.019898039
0.00027918086
0.039085221
-0.00020306441
-0.18096967
-0.00083263633
-0.036842493
0.0010627204
-0.022575245
0.018299165
-0.12023432
0.096017085
-0.089380507
0.0032993042
0.021036593
-0.078923232
0.074573817
-0.0012842297
0.1041834
0.010784533
0.27431221
0.025801072
-0.015992067
-0.17669575
0.16417146
-0.10046468
0.00027939525
0.0012125496
0.00052289815
0.0034848718
-0.15073735
0.030797095
0.022572478
0.083459771
-0.3170112
0.0015838933
0.050210952
-0.00062326579
-0.31811587
0.062925871
0.00078288791
-0.083636441
0.00060411116
0.0029208344
0.060685029
-0.039532179
-0.22692706
0.020139151
-0.017128262
3.8201063e-05
0.0012731723
-0.029137136
-0.043946813
0.041683665
-0.007505349
0.098458037
-0.012033326
0.093343709
-0.23142654
-0.0042779296
-0.019032147
-0.22587585
0.028618072
0.061445382
7.1446155e-05
-0.031232643
-0.00073753102
0.053755157
0.047289261
-0.04714268
0.01282567
0.00033244332
-0.030094306
0.087635672
0.11228492
0.025942692
0.020946286
0.10543838
0.0016659773
-0.22127108
0.040829821
-0.0068312805
-0.059588558
-0.0039256765
-0.012182761
-0.025042268
-0.0010988617
0.029613936
-0.040543643
0.0069302688
-0.0002118104
-0.08487034
-0.03336932
-0.018334302
-0.031946428
-0.01134402
-0.13041287
-0.087629185
-0.084696132
0.025481636
-0.075207141
0.10678454
0.0043166334
0.019471726
-0.031242098
0.021167602
-0.12077777
0.013110928
-0.043608413
-0.13193478
-0.036124151
-0.0064252361
-0.078280527
-0.02956577
-0.012125499
0.0029481052
-0.028246484
0.053548797
-0.0046236369
0.0014014792
0.024359176
0.055883449
-0.041720667
0.10356588
-0.054257781
0.32441725
0.07452777
-0.053076848
-0.015541527
0.00024570487
0.020949922
0.073027303
-0.027496884
0.0010551897
0.00010407545
0.005764268
0.036872869
-0.0017650213
0.00086496293
-0.0023774321
-0.0001199409
0.10030744
-0.00054216121
0.048917577
0.070960502
0.06085586
0.056238901
0.045199678
0.023639892
0.00040217409
0.027977963
-0.018039804
-0.011409208
1.2480844e-06
0.0038390773
0.10626868
-0.040354089
-0.09391982
0.020757026
0.06339325
-0.01294317
0.068977819
0.030911858
-0.029073525
0.12848608
0.0038908061
-0.0062755573
-0.0040847236
9.0976205e-05
-3.5350958e-05
-0.0065759891
0.0030948302
0.22760643
-0.0069239182
-0.015364251
0.040951822
0.0051555295
0.0071132611
0.00080435389
-0.00018695972
0.064207747
-0.027004121
-0.020726115
0.0009177781
0.030627048
0.0051607361
0.01692785
-0.010121798
-0.00025824452
0.0005831603
0.035858205
0.052081674
0.029904061
-0.03563145
0.00020442265
0.0058101
-0.058391722
0.019863623
0.0027828541
-0.014832491
0.21117642
-0.039425189
0.20999244
-0.080352494
-0.047769338
0.0083536415
-0.019680444
0.027959771
0.00088372114
0.083262756
0.0079545931
0.05333563
-0.0060821308
-0.039177035
-0.032461145
-0.21635714
0.018388752
-0.00054576469
-0.018525172
0.06214403
-0.036515782
0.10398816
-0.018676938
-0.010028593
0.051323406
0.021980803
0.005077892
0.012331587
-0.0055962283
-0.21178122
0.006635912
0.31823512
-0.15722566
-0.045193048
0.0055354651
0.1827332
0.025755606
-0.22786483
-0.031025992
0.00085123805
-0.016274891
-0.036925678
-0.20307468
-0.011425507
0.025649983
-0.19878976
-0.040941947
0.066998871
0.0051232691
-0.0053476008
-0.010355318
0.0086100193
0.03196603
3.791719e-05
0.027081461
0.0032683694
0.001286348
-0.018864802
0.069931494
0.044622401
0.10626168
0.057963942
-0.088917347
-0.15248479
0.04216484
-0.049783023
0.0051310993
-0.19966365
-0.071533704
-0.033408398
-0.027348051
-0.059587086
0.061394342
-0.015463534
0.00038465275
-0.030088996
-0.0055398685
0.15705327
-0.016533544
0.0032202202
0.0034367725
-0.20590018
-0.023979717
0.0020135396
0.00057403604
0.0018992735
0.031601702
0.01841106
0.28568236
0.0057330247
0.00060654755
-0.0012277847
-0.006512986
-0.18935262
-0.096003486
-0.029240414
-0.04333074
-0.046957902
0.1012385
0.16449603
-0.17323081
0.00028513589
0.073643252
-0.21055791
-0.013388411
0.03380416
-0.16006532
-0.15517353
0.035904859
0.0029676897
0.027398694
-0.00027357731
0.0089351978
-0.053717028
0.05844551
0.12578209
-0.15749257
0.0051568315
0.14284518
-0.0017781322
0.024435113
-0.007135851
0.088014653
-0.0015702333
-0.0091440672
0.0039492679
0.00056376123
-0.0066397166
-0.080633272
0.26103545
-0.13065311
-0.090226674
-0.0029748726
-0.11017372
0.16491513
-0.092661244
0.20454827
-0.042802286
-0.093432445
0.0011462742
0.016959699
0.015886706
-0.04907842
0.0059383333
-0.13732721
0.026385729
0.048039369
0.11727179
-0.062218323
-0.047967704
0.058667109
-0.020491343
0.0045922385
-0.0039476716
-0.2161116
-0.13598541
-0.018455631
-0.023158137
-0.033870054
0.0013423903
0.026795401
0.07105861
0.029718603
-0.14250097
0.00095714464
-0.086260805
0.021725149
0.0030912571
0.12076301
0.20494036
0.00029750086
0.060443172
-0.016174694
0.072703305
0.0069883477
-0.014725937
0.036447451
0.15838213
-0.40747541
0.072461747
-0.0016800027
-0.11539523
0.0002811266
-0.40557373
-0.00090567781
0.04063876
-0.04785375
0.00021419477
0.033687248
-0.0090122627
0.012331795
-0.15135377
-0.23164145
-0.0040498231
0.010356402
0.0041192822
-0.005623293
0.10132363
-0.10892487
-0.1039994
0.17599976
0.0012877196
-0.11899748
0.0025977423
0.030900258
0.041748287
-0.12595838
0.010662613
0.010926947
-0.013507759
-0.0075926991
-0.053507164
-6.6199581e-05
0.0015314545
-0.18744206
0.010197672
0.0041261931
-0.026195764
-0.0075029262
-0.27228057
-0.0049041825
0.19739396
-0.2680193
0.094698958
-0.12471136
-0.0017089799
0.071540566
-0.0011577579
-0.022465408
-0.36960678
-0.035152012
0.26001789
0.0047641346
-0.18225578
-0.10803836
0.029905265
-0.36730957
0.028287256
-0.0039753681
0.11060781
0.0056247827
0.011864769
-0.0013298339
0.081815731
-0.030312667
0.00013344955
-0.0037728198
-0.13832562
3.6213506e-05
0.01862227
-0.034257364
-0.026617346
0.0035785312
0.00038536236
0.048106723
0.32662293
-0.0020728102
0.12376961
-0.033606685
0.076093636
0.021748521
0.025366679
0.20242477
-0.0017104501
0.097752963
0.13734304
-0.049512904
0.13175424
-0.17710119
-0.033586881
-8.7153318e-06
0.026618804
-0.0053704977
0.00011797472
-0.01333012
0.0081209034
0.013807462
-0.072051178
0.28565435
-0.084112273
0.05591076
-0.17220101
0.047183999
0.034473143
-0.041637388
0.13101273
0.20705658
0.029629507
0.03527853
-0.0063130991
-0.001369079
0.016659529
-0.011302408
-0.0052071371
-0.31537046
-0.31286128
0.0002239713
-0.015200085
-0.0053141281
0.00090740634
-0.022796037
-0.0021856054
-0.0037871478
-0.099923508
0.00064619692
-0.031882167
-0.045206906
-4.2357585e-05
-0.031642884
0.026778329
-0.025505293
0.0013078335
0.020893012
-0.39603009
0.075617831
0.0010295671
0.01641404
0.065546664
-0.059687572
-0.39408516
-0.00054210611
0.0074651471
-0.061244241
0.03776146
-0.0050287487
-0.31876021
-4.4206658e-05
0.10339334
-0.023676162
0.002051244
-0.00026380951
-0.01488812
-0.31457101
0.16509732
0.0011576468
-0.053028621
1.2909587e-05
-0.037181351
-0.15484154
0.049903426
0.080285055
-0.0017219583
0.038762535
-0.0019514618
-0.070130073
-0.15001946
0.0049462631
-0.010632444
-0.031451422
-0.062232378
0.0050859365
0.30499089
-0.00048648417
0.16547041
0.0087861178
0.18607509
-0.072852017
-0.056094428
-0.00079414832
0.021814261
0.022172283
0.079012676
-0.032611867
0.00017119579
0.094509619
0.04087357
-0.0022394871
0.015570782
-0.0021303789
0.070229416
0.03248792
0.00026201164
0.013711135
-0.0051886978
-0.016435595
-0.0098004586
0.019768457
0.093767786
0.020993258
0.0099518411
-0.1936424
0.03320553
0.050159025
0.0093289376
-0.018252913
-0.0011151698
-0.0004829631
0.20348323
-0.01577429
-0.012079082
-0.00094124077
0.07761996
0.1256093
-0.13000796
-0.014888684
0.018148266
0.14660033
0.2687111
0.0020670019
0.0041851632
0.036301759
-0.0028974163
0.00011063005
0.0064845833
0.037761592
0.0650142
6.9633287e-05
-0.021662912
-0.045612258
0.019130284
-0.00010630091
-0.020573167
-0.0044319237
-0.0011002023
-0.00090140602
-0.078875667
0.025823966
-0.21104969
-0.076678899
0.00014522899
-0.0030453666
-0.017648423
0.074119074
0.092843242
0.04828422
-0.076058217
-4.6650137e-06
0.045784938
-0.080450142
-0.2058169
0.05153189
-4.4775437e-07
0.14040819
0.02172028
-0.16315079
-0.23113815
0.0031219852
0.048612057
0.05128428
-0.0033373153
-0.10056336
0.00011179407
-0.010176614
0.076851131
0.087005437
-0.044944974
0.054153514
0.088246122
-0.00091470936
0.15477123
0.26693934
0.033215377
0.0044817939
-0.1275601
0.14394841
-0.084766312
0.098170368
0.013943952
-0.10270033
0.022375791
0.13203617
0.10242861
0.00021703389
-6.2592462e-05
-0.19901038
0.0012011042
0.096436613
0.0081715998
0.0053029833
-0.22614324
0.016202468
0.033134405
0.10141852
-0.26807582
-0.059834783
-0.12225671
-0.096089018
0.15783332
0.00051886431
0.0051999398
-0.034648083
0.049051157
-0.020153956
-5.2763945e-08
-0.28180551
-0.0013477587
0.0016002402
-0.27824351
0.016036749
-0.2829951
-0.00071652276
0.12229456
-0.015062716
0.00046243395
0.025882871
0.13305651
0.0040882326
3.1927976e-06
-0.027600344
-0.00045538535
-0.033437684
0.019147802
0.0088021848
0.020356152
0.032702598
-0.19366791
-0.27830686
-0.13060465
0.00019411317
-0.00055601982
0.00012297002
0.0057286126
0.00061178539
0.027137012
0.011940699
0.00018235677
0.053208278
0.084220785
-0.036058013
0.13478938
-0.019837641
-0.0030907403
-0.17328845
0.044033081
-0.37024342
0.078101848
-0.00081081658
0.0041636716
0.018650884
-0.040138911
-0.032746585
-0.24133842
-0.0041919598
0.029957229
-0.0019131466
0.056563786
-0.00065641391
0.0053387672
-0.00032757595
0.00078086211
0.08936709
-0.0096585489
-0.026180094
-0.021233057
0.034153164
-0.038684146
-0.011113077
-0.00077551752
-0.00095928706
-0.0050058962
0.20925934
-0.023119503
-0.0003692426
-0.024293428
0.067180485
-0.040322841
-0.084454006
0.05011043
0.044138661
-0.37130378
0.00010443804
-0.00029239538
0.050052661
-0.00052494104
0.018741476
-0.0026912979
-0.030926245
0.0046721263
0.061383589
0.026197804
0.22126552
-0.13584352
0.0072577644
0.016328132
-0.24704273
-0.24649139
0.21308992
0.057234406
0.12339633
-0.036625721
-0.0036199772
-0.0012930322
0.08460533
-0.00010741723
0.060840647
0.12123722
-0.00089486673
-0.12642581
0.10365625
0.015834711
0.00014007799
-0.0011224155
0.022524751
0.15981921
-0.012573544
0.0009224561
0.0074104542
0.0072546471
-0.06838238
-0.13711204
0.00039778571
-0.000164867
-0.12268027
0.059297772
-0.00050063422
-0.0061685131
0.15890488
-0.088252225
0.00012376358
-0.006398433
0.0020532612
-0.0014524578
0.01056188
-0.041032185
-0.2518727
0.02610619
0.28047873
0.075928468
0.01082377
0.010263231
0.090134256
0.00047032625
-0.18223073
0.0078768806
-0.18732503
0.020965347
0.021303571
-0.10622848
-0.041258597
-0.032719015
0.035341748
-0.15521381
0.040339306
0.2043587
0.1503743
-0.016933827
0.30797314
0.12529576
-0.2083716
-0.0005930957
-0.26781749
0.26206434
0.011246771
-0.24700621
-0.21316778
-0.0049442862
-0.00077454444
0.0019525723
0.071404639
0.24427125
-0.0056714082
-0.044533384
0.01014279
0.024194165
-0.065202275
0.02311636
0.042014746
0.0095950409
-0.0076982737
-0.008874279
-0.014639684
-0.15836776
0.019430911
-0.039887219
-0.0095690141
-0.002728265
-0.275086
-0.0028247028
-0.044523185
-0.19690923
0.022920305
0.18010338
-0.27306358
0.0019861428
-0.039051586
0.00010101404
0.069850484
0.059274945
-0.067275902
0.032931026
0.27720171
0.075616838
-0.020455913
0.019557299
-0.001630916
0.045828361
0.18608627
-0.002628606
0.0059715995