/*--------------------------------*- C++ -*----------------------------------*\
| =========                 |                                                 |
| \\      /  F ield         | foam-extend: Open Source CFD                    |
|  \\    /   O peration     | Version:     4.1                                |
|   \\  /    A nd           | Web:         http://www.foam-extend.org         |
|    \\/     M anipulation  |                                                 |
\*---------------------------------------------------------------------------*/
FoamFile
{
    version     2.0;
    format      ascii;
    class       surfaceScalarField;
    location    "0.2";
    object      phi;
}
// * * * * * * * * * * * * * * * * * * * * * * * * * * * * * * * * * * * * * //

dimensions      [0 3 -1 0 0 0 0];

internalField   nonuniform List<scalar> 
6703
(
-3.8491994e-05
0.00013560207
-9.7110079e-05
-6.6274348e-05
0.0001726907
-0.00014490835
-8.8218754e-05
0.00021451517
-0.00019257076
-0.00011542114
0.00025690422
-0.00022970183
-0.00014689564
0.0003047731
-0.0002732986
-0.000182931
0.00036083018
-0.00032479483
-0.00022407601
0.0004262093
-0.00038506428
-0.00027090017
0.00050234338
-0.00045551922
-0.0003240273
0.00059078233
-0.0005376552
-0.00038420903
0.00069318954
-0.0006330078
-0.00045232317
0.00081145618
-0.00074334205
-0.00052938547
0.0009477565
-0.00087069419
-0.00061655512
0.0011047097
-0.0010175401
-0.00071523407
0.0012857374
-0.0011870585
-0.00082704306
0.001495658
-0.001383849
0.0017409484
-0.0016164216
-0.00095156987
-2.7077991e-05
0.00016268006
-4.932694e-05
0.00019493965
-6.8894385e-05
0.00023408261
-9.3169126e-05
0.00028117896
-0.00012170937
0.00033331335
-0.00015500805
0.00039412885
-0.00019389728
0.00046509852
-0.00023928901
0.00054773511
-0.00029218228
0.0006436756
-0.00035375154
0.00075475879
-0.00042538639
0.00088309103
-0.00050878114
0.0010311512
-0.00060602146
0.0012019501
-0.0007195584
0.0013992744
-0.00085186396
0.0016279636
0.0018936879
-0.0010046035
-8.5026677e-06
0.00017118273
-2.1179562e-05
0.00020761654
-3.5831653e-05
0.0002487347
-5.3862293e-05
0.0002992096
-7.5390171e-05
0.00035484123
-0.00010091494
0.00041965363
-0.00013109981
0.00049528338
-0.00016671735
0.00058335266
-0.00020862645
0.0006855847
-0.00025780891
0.00080394126
-0.00031538371
0.00094066583
-0.00038265646
0.001098424
-0.00046118977
0.0012804834
-0.00055285517
0.0014909398
-0.00065970068
0.0017348091
0.0020177678
-0.0007837806
-3.7601107e-06
0.00017494284
-1.1782274e-05
0.00021563871
-2.0571188e-05
0.00025752362
-3.2042276e-05
0.00031068069
-4.6070719e-05
0.00036886967
-6.2959828e-05
0.00043654273
-8.3185797e-05
0.00051550935
-0.00010734907
0.00060751593
-0.00013610517
0.0007143408
-0.00017020132
0.00083803741
-0.00021046676
0.00098093127
-0.00025782802
0.0011457853
-0.0003133099
0.0013359653
-0.00037798233
0.0015556122
-0.00045269716
0.0018095239
0.0021016534
-0.00053658271
2.1573535e-07
0.00017472711
-4.1427328e-06
0.00021999718
-7.8704007e-06
0.00026125128
-1.3545104e-05
0.00031635539
-2.0776486e-05
0.00037610106
-2.9606586e-05
0.00044537283
-4.0250413e-05
0.00052615318
-5.3088497e-05
0.00062035401
-6.8501344e-05
0.00072975364
-8.6954031e-05
0.00085649009
-0.00010896626
0.0010029435
-0.00013511153
0.0011719305
-0.00016601049
0.0013668642
-0.00020229196
0.0015918937
-0.00024455658
0.0018517885
0.002152614
-0.00029551716
4.1697792e-06
0.00017055733
3.6466117e-06
0.00022052034
4.9315831e-06
0.00025996631
5.1660484e-06
0.00031612092
4.7691118e-06
0.00037649799
3.9683057e-06
0.00044617364
2.8760743e-06
0.00052724541
1.35873e-06
0.00062187136
-7.2814867e-07
0.00073184052
-3.5874642e-06
0.00085934941
-7.4094851e-06
0.0010067655
-1.2388124e-05
0.0011769092
-1.8719398e-05
0.0013731955
-2.6595145e-05
0.0015997694
-3.5986124e-05
0.0018611795
0.002163359
-4.6731195e-05
8.3508482e-06
0.00016220648
1.2161176e-05
0.00021671001
1.8460658e-05
0.00025366683
2.4940985e-05
0.0003096406
3.158362e-05
0.00036985536
3.8808279e-05
0.00043894898
4.7055851e-05
0.00051899784
5.6513773e-05
0.00061241344
6.7319527e-05
0.00072103477
7.9603349e-05
0.00084706559
9.3508567e-05
0.00099286031
0.0001092093
0.0011612084
0.00012695505
0.0013554497
0.00014708087
0.0015796436
0.0001701457
0.0018381147
0.0021379772
0.00019552756
1.2392374e-05
0.00014981411
2.0710983e-05
0.00020839141
3.172416e-05
0.00024265365
4.443029e-05
0.00029693447
5.8214791e-05
0.00035607086
7.3543835e-05
0.00042361994
9.1101486e-05
0.00050144019
0.00011142796
0.00059208696
0.00013493861
0.00069752412
0.00016205138
0.00081995282
0.00019321308
0.00096169861
0.00022894229
0.0011254792
0.00026987031
0.0013145217
0.00031671467
0.0015327992
0.00037029851
0.0017845308
0.0020776264
0.00043064926
1.6500192e-05
0.00013331391
2.9720362e-05
0.00019517124
4.5153522e-05
0.00022722049
6.3872758e-05
0.00027821523
8.4749234e-05
0.00033519438
0.00010811996
0.00040024921
0.0001347553
0.00047480485
0.00016552901
0.00056131326
0.00020118232
0.0006618708
0.000242449
0.00077868614
0.00029010206
0.00091404555
0.00034504031
0.001070541
0.00040838146
0.0012511806
0.00048153722
0.0014596435
0.00056633639
0.0016997317
0.001979307
0.00066465585
2.1465841e-05
0.00011184807
4.0285015e-05
0.00017635206
6.0187149e-05
0.00020731836
8.4671634e-05
0.00025373075
0.00011250156
0.00030736446
0.00014374049
0.00036901027
0.00017903997
0.00043950538
0.00021948424
0.00052086899
0.00026616212
0.00061519292
0.00032017833
0.00072466993
0.00038269001
0.00085153387
0.00045502171
0.00099820926
0.00053881878
0.0011673835
0.00063628273
0.0013621795
0.0007506411
0.0015853733
0.0018419472
0.00088800082
2.3687658e-05
8.8160415e-05
5.5013623e-05
0.0001450261
8.4281151e-05
0.00017805083
0.00011514784
0.00022286406
0.00014889002
0.00027362228
0.00018641186
0.00033148843
0.00022850733
0.00039740992
0.00027642463
0.00047295168
0.00033160161
0.00056001594
0.00039554975
0.0006607218
0.00046981144
0.00077727217
0.00055601894
0.00091200177
0.0006559667
0.0010674357
0.00077164654
0.0012464997
0.00090494746
0.0014520724
0.0016866706
0.0010602241
5.168542e-05
3.6474995e-05
9.5356004e-05
0.00010135551
0.00012446229
0.00014894455
0.00015413891
0.00019318744
0.00018716761
0.00024059358
0.0002244413
0.00029421473
0.00026666792
0.00035518329
0.00031475835
0.00042486125
0.00036968128
0.00050509302
0.00043233509
0.00059806798
0.00050346676
0.00070614051
0.00058364976
0.00083181876
0.00067330523
0.00097778027
0.00077273682
0.0011470681
0.00088138838
0.0013434208
0.0015683274
0.00099973157
1.1102219e-05
-0.00011120593
0.00010010371
3.6294276e-06
-0.00013709514
0.00014456793
-2.3780552e-05
-0.00016665697
0.00019406695
-5.3919247e-05
-0.0002001098
0.00023024849
-8.8891493e-05
-0.00023793073
0.00027290297
-0.00013006611
-0.00028180343
0.00032297805
-0.00017828785
-0.00033284386
0.0003810656
-0.0002344897
-0.00039210317
0.00044830502
-0.00029967891
-0.0004606659
0.00052585511
-0.00037475208
-0.00053971952
0.00061479269
-0.00046052148
-0.00063057404
0.00071634344
-0.00055769887
-0.00073470251
0.0008318799
-0.0006669528
-0.00085382484
0.00096307878
-0.00078930636
-0.00098996324
0.0011123168
-0.00092738542
-0.0011452691
0.0012833482
-0.001322683
0.0014836729
-0.0010883754
-1.5667684e-05
-9.553825e-05
-3.6110903e-05
-0.00011665192
-6.3014041e-05
-0.00013975384
-9.6662182e-05
-0.00016646166
-0.00013736991
-0.000197223
-0.0001861284
-0.00023304495
-0.00024417127
-0.00027480099
-0.00031295371
-0.00032332073
-0.00039413688
-0.00037948274
-0.00048961173
-0.00044424466
-0.00060152245
-0.00051866332
-0.00073229532
-0.00060392965
-0.00088469286
-0.0007014273
-0.0010618364
-0.00081281967
-0.0012668295
-0.00094027604
-0.0010869788
-0.0015025336
-1.9753511e-05
-7.5784739e-05
-4.5402899e-05
-9.1002534e-05
-7.6230455e-05
-0.00010892628
-0.00011322742
-0.00012946469
-0.00015739463
-0.00015305579
-0.00020996219
-0.00018047738
-0.0002723744
-0.00021238878
-0.00034629338
-0.00024940175
-0.00043360071
-0.00029217541
-0.00053641053
-0.00034143485
-0.00065709153
-0.00039798231
-0.00079830379
-0.00046271739
-0.00096305666
-0.00053667443
-0.0011548002
-0.00062107617
-0.001377784
-0.00071729224
-0.00082640988
-0.0016383529
-2.1348921e-05
-5.4435818e-05
-4.822368e-05
-6.4127775e-05
-8.0897531e-05
-7.625243e-05
-0.0001202583
-9.0103919e-05
-0.00016737357
-0.00010594052
-0.0002235262
-0.00012432475
-0.00029022627
-0.00014568871
-0.00036919804
-0.00017042999
-0.00046237703
-0.00019899641
-0.0005719115
-0.00023190037
-0.00070016796
-0.00026972585
-0.00084975205
-0.00031313331
-0.001023571
-0.00036285553
-0.0012249123
-0.00041973482
-0.0014570867
-0.00048511783
-0.00056186447
-0.0017216321
-2.265171e-05
-3.1784108e-05
-5.1950038e-05
-3.4829448e-05
-8.7040358e-05
-4.116211e-05
-0.00012889134
-4.8252935e-05
-0.0001787232
-5.610866e-05
-0.00023801158
-6.503637e-05
-0.00030844358
-7.525671e-05
-0.00039189731
-8.6976258e-05
-0.00049043786
-0.00010045586
-0.00060633375
-0.00011600449
-0.00074208631
-0.00013397329
-0.00090046499
-0.00015475463
-0.0010845298
-0.00017879068
-0.0012977867
-0.00020647801
-0.0015454694
-0.00023743509
-0.00026903375
-0.0018383001
-8.4845998e-06
0.00017121289
-0.00016272829
-2.113714e-05
0.00020768689
-0.00019503435
-3.5758469e-05
0.00024881082
-0.00023418949
-5.3755119e-05
0.00029929513
-0.00028129848
-7.5239077e-05
0.00035494967
-0.00033346571
-0.00010070708
0.00041980497
-0.00039433697
-0.00013081765
0.0004954911
-0.00046538053
-0.00016633608
0.00058362034
-0.00054810191
-0.00020811278
0.00068589238
-0.00064411567
-0.00025712179
0.00080422461
-0.0007552156
-0.00031448223
0.00094080222
-0.00088344178
-0.00038151978
0.0010982505
-0.001031213
-0.00045984236
0.0012798824
-0.0012015598
-0.00055135243
0.001489992
-0.0013984819
-0.00065796052
0.0017338649
-0.0016272568
0.0020169647
-0.001893939
-0.00078098616
-3.16556e-05
-1.285071e-07
-6.6355389e-05
-1.2965892e-07
-0.00010738817
-1.2932598e-07
-0.00015552258
-1.1852437e-07
-0.00021154074
-9.0500515e-08
-0.0002765376
-3.9513845e-08
-0.00035183324
3.8932068e-08
-0.00043895588
1.4638259e-07
-0.00053969128
2.7953717e-07
-0.00065612455
4.2878078e-07
-0.00079067544
5.7759971e-07
-0.00094613369
7.0362452e-07
-0.0011257038
7.7944109e-07
-0.0013329466
7.6475647e-07
-0.0015709571
5.7545272e-07
5.4963909e-08
-0.0018400458
-3.2003261e-05
3.1874754e-05
-6.7047587e-05
3.4914666e-05
-0.0001084293
4.1252388e-05
-0.00015691773
4.8369908e-05
-0.00021329708
5.6288851e-05
-0.00027865276
6.531616e-05
-0.00035428411
7.5670286e-05
-0.00044169039
8.7552662e-05
-0.00054262227
0.00010121142
-0.00065912608
0.00011693259
-0.00079358126
0.00013503278
-0.00094873346
0.00015585582
-0.0011277221
0.00017976811
-0.0013339949
0.00020703756
-0.0015706362
0.00023721668
0.00026842865
-0.0018390098
-2.2768356e-05
5.4643111e-05
-5.2222613e-05
6.4368923e-05
-8.7494149e-05
7.6523924e-05
-0.00012954326
9.0419015e-05
-0.00017957618
0.00010632177
-0.00023904776
0.00012478774
-0.00030961825
0.00014624078
-0.00039313279
0.0001710672
-0.00049161697
0.00019969559
-0.00060729179
0.00023260741
-0.00074259921
0.0002703402
-0.00090023456
0.00031349118
-0.0010831828
0.00036271638
-0.0012948886
0.00041874329
-0.0015402414
0.00048256947
0.00055610814
-0.0018279209
-2.1257035e-05
7.5900146e-05
-4.803445e-05
9.1146337e-05
-8.0608254e-05
0.00010909773
-0.00011984947
0.00012966023
-0.00016680398
0.00015327628
-0.00022273092
0.00018071469
-0.00028910982
0.00021261968
-0.00036762504
0.00024958243
-0.0004601626
0.00029223315
-0.00056881382
0.00034125862
-0.00069588842
0.00039741481
-0.00084395332
0.00046155608
-0.0010159383
0.00053470132
-0.0012153276
0.00061813263
-0.0014459829
0.00071322478
0.00082020112
-0.0017100759
-1.9600823e-05
9.5500968e-05
-4.5082703e-05
0.00011662822
-7.5722758e-05
0.00013973778
-0.00011249927
0.00016643674
-0.00015639395
0.00019717097
-0.00020861839
0.00023293912
-0.00027059601
0.00027459729
-0.00034396557
0.00032295199
-0.00043058741
0.000378855
-0.00053256773
0.00044323894
-0.00065230406
0.00051715114
-0.00079256231
0.00060181433
-0.00095657607
0.00069871508
-0.0011481745
0.00080973102
-0.0013726955
0.00093774578
0.0010892276
-0.0016417219
-1.5594726e-05
0.00011109569
-3.5951408e-05
0.0001369849
-6.2762022e-05
0.0001665484
-9.631256e-05
0.00019998728
-0.00013690567
0.00023776408
-0.00018552939
0.00028156285
-0.00024341994
0.00033248783
-0.00031204538
0.00039157743
-0.00039310039
0.00045991002
-0.00048854793
0.00053868648
-0.00060067027
0.00062927347
-0.00073213844
0.0007332825
-0.00088613827
0.00085271491
-0.0010665183
0.00099011101
-0.0012770574
0.0011482849
0.001329315
-0.0015171448
1.1194173e-05
9.9901522e-05
3.7698202e-06
0.00014440925
-2.3645649e-05
0.00019396387
-5.3793946e-05
0.00023013557
-8.8777357e-05
0.00027274749
-0.00012997738
0.00032276287
-0.0001782471
0.00038075756
-0.00023453433
0.00044786465
-0.00029987408
0.00052524977
-0.00037520653
0.00061401893
-0.00046140604
0.00071547298
-0.00055924995
0.00083112641
-0.0006693999
0.00096286487
-0.0007925383
0.0011132494
-0.00093007231
0.0012858189
0.0014858661
-0.0010866234
5.167278e-05
-8.8065318e-05
3.6392537e-05
9.5356726e-05
-0.00014493075
0.00010124681
0.00012447
-0.00017791975
0.00014880648
0.00015414141
-0.00022269292
0.00019302151
0.00018715762
-0.00027341255
0.00024039633
0.00022441113
-0.00033123314
0.00029397963
0.00026660907
-0.00039710197
0.00035490404
0.00031465953
-0.00047257948
0.00042452901
0.0003695264
-0.0005595621
0.00050469524
0.00043209955
-0.00066015861
0.00059758546
0.00050311164
-0.00077655505
0.00070554297
0.00058311134
-0.00091106009
0.0008310604
0.00067247352
-0.0010661536
0.0009767914
0.00077130876
-0.0012446702
0.0011458349
0.00087865386
-0.0014489478
0.0013416027
-0.0016826986
0.0015604897
0.0010008627
2.3702076e-05
-0.00011176739
5.5051487e-05
-0.00017628016
8.4336316e-05
-0.00020720458
0.00011522591
-0.00025358251
0.00014899845
-0.00030718508
0.00018656031
-0.000368795
0.00022870958
-0.00043925125
0.00027669779
-0.00052056769
0.00033196735
-0.00061483167
0.00039603564
-0.0007242269
0.0004704555
-0.00085097491
0.00055688632
-0.00099749092
0.00065720427
-0.0011664715
0.00077363698
-0.0013611029
0.00090888336
-0.0015841942
-0.0018426215
0.0010688063
2.148188e-05
-0.00013324927
4.0322197e-05
-0.00019512048
6.024303e-05
-0.00022712542
8.4756942e-05
-0.00027809642
0.00011262632
-0.00033505446
0.00014391579
-0.00040008446
0.00017928007
-0.00047461552
0.0002198049
-0.00056109252
0.00026657941
-0.00066160618
0.00032070493
-0.00077835241
0.00038332918
-0.00091359917
0.00045576118
-0.0010699229
0.00053962542
-0.0012503358
0.00063706803
-0.0014585455
0.00075110901
-0.0016982351
-0.0019779141
0.00088640169
1.6513237e-05
-0.00014976251
2.9751788e-05
-0.00020835903
4.5206747e-05
-0.00024258037
6.3958344e-05
-0.00029684802
8.4874679e-05
-0.0003559708
0.00010829504
-0.00042350483
0.00013499293
-0.00050131341
0.0001658431
-0.0005919427
0.00020158491
-0.00069734798
0.00024294462
-0.00081971212
0.00029068082
-0.00096133537
0.00034567451
-0.0011249166
0.00040903778
-0.0013136991
0.00048221304
-0.0015317207
0.00056719658
-0.0017832187
-0.0020768627
0.00066614514
1.2405125e-05
-0.00016216764
2.0741013e-05
-0.00021669492
3.177837e-05
-0.00025361773
4.4516655e-05
-0.0003095863
5.8338623e-05
-0.00036979277
7.3714291e-05
-0.0004388805
9.1329936e-05
-0.00051892905
0.00011172645
-0.00061233922
0.00013531528
-0.00072093681
0.00016250227
-0.00084689911
0.00019371461
-0.0009925477
0.00022944457
-0.0011606466
0.00027030135
-0.0013545558
0.00031699221
-0.0015784116
0.00037035855
-0.001836585
-0.0021365753
0.00043007115
8.3656547e-06
-0.00017053329
1.2194731e-05
-0.000220524
1.8521728e-05
-0.00025994473
2.5035094e-05
-0.00031609967
3.1715777e-05
-0.00037647345
3.8988614e-05
-0.00044615333
4.7295953e-05
-0.00052723639
5.6825619e-05
-0.00062186888
6.7711471e-05
-0.00073182267
8.0069814e-05
-0.00085925745
9.4028622e-05
-0.0010065065
0.0001097394
-0.0011763573
0.00012743802
-0.0013722544
0.000147474
-0.0015984476
0.00017048675
-0.0018595978
-0.0021618091
0.0001957205
4.187458e-06
-0.00017472075
3.6852634e-06
-0.0002200218
5.0009908e-06
-0.00026126045
5.2696091e-06
-0.00031636829
4.912957e-06
-0.0003761168
4.1635608e-06
-0.00044540394
3.1350418e-06
-0.00052620787
1.6956391e-06
-0.00062042948
-2.9776395e-07
-0.00072982926
-3.0566859e-06
-0.00085649853
-6.7897614e-06
-0.0010027734
-1.1706939e-05
-0.0011714402
-1.8010529e-05
-0.0013659509
-2.5867629e-05
-0.0015905905
-3.5179998e-05
-0.0018502854
-0.0021510373
-4.5951771e-05
2.3344496e-07
-0.00017495419
-4.1028365e-06
-0.00021568552
-7.7966996e-06
-0.00025756659
-1.3434782e-05
-0.00031073021
-2.0619879e-05
-0.0003689317
-2.9389843e-05
-0.00043663397
-3.9957725e-05
-0.00051563999
-5.2702371e-05
-0.00060768483
-6.8007575e-05
-0.00071452406
-8.6337447e-05
-0.00083816866
-0.00010821997
-0.00098089091
-0.0001342391
-0.001145421
-0.00016501922
-0.0013351707
-0.00020116142
-0.0015544483
-0.00024318692
-0.0018082599
-0.0021003992
-0.00029382505
-3.7413072e-06
-1.1739934e-05
-2.0495709e-05
-3.1930781e-05
-4.5912812e-05
-6.274181e-05
-8.2890703e-05
-0.00010695519
-0.00013558687
-0.00016953092
-0.00020961961
-0.00025679014
-0.00031207852
-0.00037653479
-0.00045092983
-0.00053436429
-2.702696e-05
-0.00013570133
-4.9242981e-05
-0.00017281833
-6.8790206e-05
-0.00021464226
-9.303958e-05
-0.00025704911
-0.00012154478
-0.00030496052
-0.00015479884
-0.00036108291
-0.00019362688
-0.00042655249
-0.00023892861
-0.00050280018
-0.00029168578
-0.0005913585
-0.00035305215
-0.00069384923
-0.00042440597
-0.00081208796
-0.00050747014
-0.00094814879
-0.00060444365
-0.0011045863
-0.0007179869
-0.0012849387
-0.00085082462
-0.001494419
-0.0017397765
-0.0010049872
-3.838401e-05
-9.7317316e-05
-6.6140423e-05
-0.00014506192
-8.8106249e-05
-0.00019267644
-0.00011533753
-0.00022981783
-0.00014684291
-0.00027345514
-0.00018291493
-0.00032501088
-0.00022409539
-0.00038537204
-0.00027093967
-0.0004559559
-0.00032404878
-0.00053824939
-0.00038414338
-0.00063375462
-0.00045207594
-0.0007441554
-0.0005288833
-0.00087134144
-0.00061587068
-0.0010175989
-0.0007147619
-0.0011860475
-0.00082724299
-0.0013819379
-0.0016155497
-0.00095146982
7.0492511e-05
-3.7177107e-05
-3.3315404e-05
0.00013504991
3.6729938e-05
-0.00010128734
0.00018920824
9.1843903e-05
-0.00014600223
0.00023902664
0.00013895205
-0.00018877045
0.00028584423
0.00018792222
-0.00023473981
0.00033148381
0.00024074444
-0.00028638402
0.0003776394
0.00029852429
-0.00034467989
0.00042609443
0.00036233791
-0.00041079294
0.00047886712
0.00043350036
-0.00048627305
0.00053812598
0.00051367823
-0.00057293709
0.00060600583
0.00060484169
-0.00067272154
0.00068449023
0.00070918305
-0.00078766745
0.00077537269
0.00082906398
-0.00091994644
0.00088036157
0.00096708297
-0.0010720718
0.0010011704
0.0011261566
-0.0012469654
0.0013090903
-0.0014486618
0.0011407419
3.4244367e-05
-7.1421474e-05
9.5383701e-05
-2.4409396e-05
0.0001518185
3.5409107e-05
0.00020513672
8.563383e-05
0.00025842675
0.00013463219
0.0003139115
0.0001852597
0.000373433
0.00023900279
0.00043881487
0.00029695604
0.00051209113
0.0003602241
0.00059567183
0.00043009753
0.00069243426
0.00050807925
0.00080576484
0.00059585247
0.00093958391
0.00069524491
0.0010984631
0.00080820377
0.0012879304
0.00093668927
0.0010819252
0.0015150956
-6.4315445e-06
-6.4989929e-05
2.6088584e-05
-5.6929524e-05
7.706625e-05
-1.5568558e-05
0.00012697695
3.5723128e-05
0.00018223965
7.9369486e-05
0.00024288881
0.00012461054
0.00030965651
0.00017223509
0.00038384028
0.00022277228
0.00046715892
0.00027690545
0.0005618368
0.00033541966
0.00067067985
0.0003992362
0.00079704944
0.00046948288
0.00094473769
0.00054755666
0.0011177446
0.00063519684
0.0013197758
0.00073465807
0.00084831178
0.0015533892
-1.4971528e-05
-5.0018401e-05
-2.2769884e-05
-4.9131169e-05
-2.7505046e-08
-3.8310937e-05
4.1896132e-05
-6.2005095e-06
9.2985853e-05
2.8279765e-05
0.00015087461
6.6721787e-05
0.00021878798
0.00010432171
0.00029754458
0.00014401568
0.00038808582
0.00018636421
0.00049214724
0.00023135824
0.00061230388
0.00027907956
0.00075179832
0.00032998844
0.0009143875
0.00038496748
0.00110421
0.00044537434
0.0013257872
0.00051308083
0.00058982427
0.0015842747
-1.4882345e-05
-3.5136056e-05
-3.4862291e-05
-2.9151223e-05
-4.8869762e-05
-2.4303466e-05
-3.827187e-05
-1.6798402e-05
-1.0436187e-05
4.4408215e-07
3.6308383e-05
1.9977216e-05
0.00010267416
3.7955935e-05
0.00018400373
6.2686109e-05
0.0002782708
9.2097137e-05
0.00038897806
0.00012065098
0.00051958075
0.00014847687
0.00067307222
0.00017649697
0.00085252649
0.00020551321
0.001061182
0.0002367188
0.0013022318
0.00027203107
0.00031451881
0.0015775372
-3.5181579e-05
4.5523226e-08
-6.4371829e-05
3.9027045e-08
-8.8697559e-05
2.2263482e-08
-0.00010549353
-2.4273672e-09
-0.00010501595
-3.3503146e-08
-8.496395e-05
-7.4782296e-08
-4.6888825e-05
-1.1919025e-07
1.5968823e-05
-1.7153934e-07
0.0001083208
-2.5484251e-07
0.00022932757
-3.5578458e-07
0.00037826406
-4.5962158e-07
0.00055534642
-5.8538542e-07
0.00076162246
-7.6282698e-07
0.00099939593
-1.0546671e-06
0.0012730486
-1.6215844e-06
-2.9745669e-06
0.001590542
-3.5129272e-05
3.5174795e-05
-6.427862e-05
2.9188375e-05
-8.8583827e-05
2.432747e-05
-0.00010538137
1.6795112e-05
-0.00010486664
-5.482265e-07
-8.4774455e-05
-2.016697e-05
-4.6641038e-05
-3.8252608e-05
1.6297245e-05
-6.3109822e-05
0.00010864721
-9.2604808e-05
0.00022953837
-0.00012124694
0.00037826182
-0.00014918308
0.00055500881
-0.00017733238
0.00076073614
-0.00020649015
0.00099748173
-0.00023780026
0.0012688455
-0.00027298538
-0.00031414652
0.0015800175
-1.4843148e-05
5.0017944e-05
-3.4770339e-05
4.9115565e-05
-4.8743871e-05
3.8301003e-05
-3.8078388e-05
6.1296286e-06
-1.0199412e-05
-2.8427203e-05
3.6537997e-05
-6.6904379e-05
0.00010282185
-0.00010453646
0.00018398389
-0.00014427187
0.00027804614
-0.00018666706
0.00038851856
-0.00023171936
0.00051886077
-0.00027952529
0.00067210132
-0.00033057293
0.00085141535
-0.00038580417
0.0010603283
-0.00044671323
0.0013029379
-0.00051559493
-0.00059507777
0.0015838691
-1.4950691e-05
6.4968635e-05
-2.2796814e-05
5.6961688e-05
-1.1755582e-07
1.5621744e-05
4.1734686e-05
-3.5722613e-05
9.268293e-05
-7.9375448e-05
0.00015040746
-0.00012462891
0.00021812541
-0.0001722544
0.00029663323
-0.00022277969
0.00038685456
-0.00027688839
0.00049049991
-0.00033536471
0.00061010111
-0.00039912649
0.00074882112
-0.00046929294
0.0009102584
-0.00054724146
0.001098206
-0.00063466082
0.0013163491
-0.00073373807
-0.00084577604
0.0015670474
-6.4412086e-06
7.1409843e-05
2.5978102e-05
2.4542378e-05
7.6878591e-05
-3.5278745e-05
0.00012666772
-8.5511738e-05
0.00018180428
-0.00013451201
0.00024230447
-0.0001851291
0.00030889525
-0.00023884518
0.00038286729
-0.00029675173
0.0004659293
-0.00035995041
0.00056029058
-0.00042972599
0.00066873295
-0.00050756886
0.00079457751
-0.0005951375
0.00094154593
-0.00069420987
0.0011135158
-0.00080663067
0.0013140578
-0.00093428013
-0.0010783372
0.001546619
3.4157058e-05
3.7252786e-05
9.5253838e-05
-3.6554402e-05
0.00015165277
-9.1677673e-05
0.00020492263
-0.0001387816
0.0002581468
-0.00018773618
0.00031354804
-0.00024053034
0.00037296926
-0.0002982664
0.00043823533
-0.0003620178
0.0005113814
-0.00043309648
0.00059481891
-0.0005131635
0.00069142913
-0.00060417908
0.00080461164
-0.00070832001
0.00093832378
-0.00082792201
0.0010972489
-0.00096555579
0.0012870022
-0.0011240334
-0.0013043965
0.0015130614
7.0485773e-05
-3.3232987e-05
0.00013510951
-0.00010117814
0.00018929763
-0.00014586579
0.00023912128
-0.00018860525
0.00028592887
-0.00023454378
0.00033154941
-0.00028615087
0.00037768636
-0.00034440335
0.00042613292
-0.00041046436
0.00047891686
-0.00048588042
0.00053821585
-0.00057246249
0.00060617483
-0.00067213806
0.0006847916
-0.00078693678
0.00077588416
-0.00091901457
0.00088122101
-0.0010708926
0.0010026693
-0.0012454817
-0.001448075
0.0011463479
2.2923474e-06
-2.7914423e-06
3.6854549e-06
4.119201e-06
3.5680861e-06
1.536126e-06
-2.7705906e-06
-1.0425156e-05
-2.2830591e-05
-4.1819464e-05
-6.968853e-05
-0.00010925631
-0.00016393154
-0.00023774061
-0.00033577069
-0.00046632624
2.2924153e-06
-2.7863983e-06
3.6829315e-06
4.1135976e-06
3.561429e-06
1.5285923e-06
-2.7778442e-06
-1.0428717e-05
-2.2822999e-05
-4.1784938e-05
-6.95969e-05
-0.00010905843
-0.00016357853
-0.00023730922
-0.00033589896
-0.00046777572
3.2282144e-06
-3.1595506e-06
6.1689106e-06
1.0585167e-05
1.6437723e-05
2.4266474e-05
3.476716e-05
4.8831817e-05
6.7646632e-05
9.2769598e-05
0.00012617451
0.00017029813
0.00022807496
0.00030301723
0.00039913816
0.00051155287
3.2277663e-06
-3.1595904e-06
6.1700768e-06
1.0587064e-05
1.6440832e-05
2.4271547e-05
3.4774957e-05
4.884327e-05
6.7663246e-05
9.2794141e-05
0.00012621311
0.00017036443
0.00022819826
0.00030319451
0.00039964989
0.00051931547
0.0013729878
-0.0033670395
0.0019940517
0.0084016138
-0.0087232101
0.0003215963
0.0012527549
-0.0032164525
0.0019636976
0.0084016138
-0.0021821846
0.00011383562
0.002068349
-0.0081756572
0.0050811628
0.0030944944
-0.0010939398
0.0043858194
-0.0032918796
0.0077734163
0.0029282635
-0.01070168
0.0080878438
0.0020016491
-0.010089493
0.0012688655
-0.0017351917
-0.0019516615
0.0014838858
0.0035054859
0.0064378359
-0.0099433218
-0.0036346525
-0.0038045449
0.0074391974
-0.0074853634
0.0034674555
0.0040179079
-0.0016827853
0.0040152514
-0.0023324661
0.0034744556
-4.4878448e-05
-0.0034295772
0.0073177274
-0.0076293519
0.00031162456
0.0006368106
0.0015756392
-0.0022124498
0.0013691067
-0.0017262878
0.00035718114
0.0062570397
-0.0023360827
-0.003920957
-0.00088864326
-0.0012935414
-0.0076829357
0.0040482832
-0.0094786967
0.0093892038
8.9492907e-05
0.00072138958
0.0085276626
-0.0092490522
7.6964451e-05
-0.0056832134
0.0056062489
0.0044545658
0.0013502883
-0.0058048541
-0.0039817682
-0.0059256341
0.0099074024
0.0063725862
-0.0021764247
-0.0041961615
0.0013329205
0.0063585599
-0.0076914804
-0.0022227916
0.00554222
-0.0033194284
0.0066790583
-0.0022244925
0.0020273504
-0.001441086
-0.00058626448
-0.00022197976
0.0083460279
-0.0081240481
0.0062176023
0.00013114814
-0.0063487505
0.0011050522
-0.006153566
0.0050485138
0.0086871463
-0.0073530383
-0.0013341079
0.0076764345
-0.0081054881
0.00042905357
-0.0047553268
0.0058603789
0.0055853468
-0.003215968
-0.0023693788
-0.0086749093
0.0017559051
0.0069190042
0.0031389792
-0.0044941546
0.0013551753
0.0099920969
-0.0043184223
-0.0056736746
0.0077734163
-0.0022516959
0.0055910437
-0.0033393478
0.0080878438
-0.00086741624
0.0037128317
-0.0028454155
-0.0018776394
0.006512931
-0.0046352916
-0.0098088175
0.004213255
0.0055955625
-0.0077734163
0.011692579
-0.0039191628
-0.0080878438
0.011796225
-0.0037083813
0.0030746486
-0.00028863555
-0.0027860131
-0.0038820366
0.0017348699
0.0021471667
0.001446933
-0.0026967547
0.0012498218
0.00099412775
0.0011322219
-0.0021263496
-0.0029346712
0.0056266827
-0.0026920115
0.00050758735
0.0054302559
-0.0059378432
0.00099171115
-0.0019022035
0.00091049235
-0.0054821658
0.0034697078
0.002012458
-0.010521303
0.0011405309
0.0093807724
0.0083671372
-0.0030400103
-0.0053271269
0.0077173634
0.00064977378
0.0055792446
0.0040717564
-0.009651001
0.0052246682
0.004342073
-0.0095667412
-0.0025052806
0.005043404
-0.0025381234
0.00094646066
-0.0040941315
0.0031476708
-0.0066686862
0.0068759355
-0.00020724931
0.0043620613
-0.0079130982
0.0035510368
0.0044891894
0.0017168213
-0.0062060107
-0.0009739564
0.0061485616
-0.0051746052
-0.0089965923
0.0071189529
-0.0024760202
0.006941317
-0.0044652968
0.0016356817
0.0018387739
-0.0048490588
0.0044412481
0.00040781072
0.0048209699
0.0062229874
-0.011043957
0.0087152663
-0.0080538411
-0.00066142526
0.00052130329
-0.0026767601
0.0047134636
-0.0020367035
0.006870677
-0.0033919419
-0.0034787351
0.0097314741
-0.0087685478
-0.00096292629
0.007755428
-0.0068762949
-0.00087913305
0.0026893434
-0.0038751276
0.0011857842
-0.0023509821
0.0010832469
0.0012677352
0.0014416077
-0.0036643993
-0.011843943
0.0083924291
0.0034515143
0.0022718163
0.0050459111
0.0023907354
-0.0090385518
0.0066478165
-0.0045139069
0.0076025884
-0.0030886815
-0.0010181616
-0.0059996883
0.0070178499
0.0028981542
-0.0023419081
-0.00055624609
0.00049412255
0.0082211438
0.0052974076
7.827948e-05
-0.005375687
-0.0076691141
0.0031390607
0.0045300534
0.00052511101
0.0036385306
-0.0041636416
0.0032207357
0.0023646112
0.004378626
0.0024550825
-0.0068337086
0.0045705427
-0.0017202627
-0.00285028
-0.0046700992
-0.005327464
0.0030726996
-0.0018199447
-0.00097547399
-0.0013914437
0.0023669177
-0.0028947572
0.0056407678
-0.0027460106
-0.0030354591
0.0078564289
-0.005661902
0.0074891229
-0.0018272209
-0.0058911823
-0.0017779318
-3.5874487e-05
0.007712309
0.0080775346
-0.0075161134
-0.00056142122
-0.0050864737
-0.0023988897
-0.011239042
0.0073930095
0.0038460324
-0.011812501
0.0085808824
0.0032316186
0.0057356418
-0.0026156559
-0.0031199859
0.0014599806
-0.0037116765
0.0022506656
-0.0051853369
4.879112e-05
0.0042150191
-0.0042638102
0.0031690522
-0.0041430086
-0.0015567896
0.0046957688
0.0019717032
0.0042853365
0.0065219455
0.0032095286
0.0038553254
-0.0038065343
0.0029540072
0.0071215446
-0.010075552
0.0098513867
-0.0056519715
-0.0041994152
-0.0021889304
0.0047845453
-0.0025956149
-5.2958693e-05
0.0014998917
0.0020659001
-0.0010717724
0.00095222982
0.0011330982
-0.0020853281
0.010840843
-0.011062823
0.0010791369
0.00027798091
-0.0013571178
0.00175914
-0.00018160276
-0.0074860689
0.008096445
-0.00061037609
-0.0021285039
0.0012907016
0.00083780232
0.0036538917
-0.0036212915
-3.2600268e-05
-0.0055956331
0.0051146177
0.00048101535
0.0019456855
-0.00095397437
-0.00047462363
0.0049370951
-0.0044624715
-0.0046343084
0.0085010192
-0.0038667109
0.003481645
0.0065104519
0.0077267795
-0.0033647182
0.0034572816
0.0022783602
-0.0035328701
0.0026654539
0.006368382
-0.0073865436
-0.0031969104
0.0022214364
0.0055332856
0.002544249
0.0053226577
-0.01082088
0.0054982225
0.0030252442
0.0015570682
-0.0014432326
-0.0030490524
0.0044220402
0.0077983929
-0.0077983929
-0.0022068838
-0.0013080802
0.0066054877
0.00098333819
-0.0036600983
-0.00038604507
0.0062659162
-0.0058798711
-0.004078402
0.0096576466
-0.0042603959
0.0094850642
0.0082428889
-0.0047604265
-0.0034824624
0.0043946568
0.0030329879
-0.0052219182
0.0057672625