/*--------------------------------*- C++ -*----------------------------------*\
| =========                 |                                                 |
| \\      /  F ield         | foam-extend: Open Source CFD                    |
|  \\    /   O peration     | Version:     4.1                                |
|   \\  /    A nd           | Web:         http://www.foam-extend.org         |
|    \\/     M anipulation  |                                                 |
\*---------------------------------------------------------------------------*/
FoamFile
{
    version     2.0;
    format      ascii;
    class       volVectorField;
    location    "0.2";
    object      U;
}
// * * * * * * * * * * * * * * * * * * * * * * * * * * * * * * * * * * * * * //

dimensions      [0 1 -1 0 0 0 0];

internalField   nonuniform List<vector> 
4242
(
(1.0612608 1.0953245 1.1002722e-18)
(1.1736532 0.93935122 3.6966811e-21)
(1.150952 0.97652943 -6.941523e-19)
(1.171317 0.94850067 5.7475319e-19)
(1.1641464 0.92518792 7.5099087e-21)
(1.1576554 0.8962025 3.3715896e-21)
(1.1502338 0.86338391 0)
(1.1420061 0.82680789 1.9599693e-19)
(1.1329995 0.78656326 -3.1211441e-19)
(1.1233899 0.74256999 1.1991228e-19)
(1.1133733 0.69508732 -7.6172159e-20)
(1.1032652 0.64456681 6.2251754e-20)
(1.0935262 0.59165795 5.9081698e-21)
(1.08518 0.53688969 -8.0407943e-21)
(1.0799624 0.48093948 -1.577695e-20)
(1.0770335 0.42775952 0)
(1.2328646 1.0015897 0)
(1.345279 0.81901879 -8.0613e-21)
(1.3202154 0.86137287 7.9457857e-19)
(1.3370423 0.8367653 -6.5436819e-19)
(1.3261012 0.81804951 -1.1812178e-20)
(1.3154907 0.79274423 3.8829103e-19)
(1.3035094 0.76450675 -1.8036265e-20)
(1.2904457 0.73315705 -4.7398102e-19)
(1.2763117 0.69869296 3.6928123e-20)
(1.2612167 0.66105345 1.3968664e-19)
(1.2452632 0.62045436 0)
(1.2286707 0.5772409 -1.0136626e-20)
(1.2117775 0.53194822 -1.0365775e-20)
(1.1953098 0.48502568 -5.5834854e-20)
(1.1804049 0.43683656 7.212488e-20)
(1.166043 0.38977598 8.9374983e-21)
(1.4010805 0.91978332 -1.9941336e-20)
(1.5316513 0.67586796 -2.4892177e-18)
(1.4995785 0.74044801 1.0145494e-18)
(1.5151396 0.71641845 -7.0249242e-21)
(1.5001794 0.70223607 -6.1784816e-19)
(1.4843352 0.68082882 5.0207567e-19)
(1.4663248 0.6572896 -6.8555383e-21)
(1.4466619 0.63096222 1.0585603e-20)
(1.4253363 0.60182135 -4.6707982e-21)
(1.4024919 0.56981767 -1.214847e-20)
(1.378289 0.53516122 1.2168379e-19)
(1.3530464 0.49815198 -8.7581653e-20)
(1.3271938 0.45928546 -1.3405184e-19)
(1.301319 0.41914177 1.1206145e-19)
(1.2760505 0.37851887 -1.3504229e-20)
(1.2519172 0.33834913 -3.616188e-20)
(1.5570828 0.80481454 -4.0603761e-21)
(1.701192 0.48438885 -3.2602047e-21)
(1.6627642 0.58042437 -6.1695557e-19)
(1.6794863 0.55249946 5.1945599e-19)
(1.66146 0.54420088 -6.705442e-21)
(1.6409491 0.52802382 3.153273e-19)
(1.6174022 0.51074156 -2.3596036e-19)
(1.5915193 0.49116031 -3.7153466e-19)
(1.5632033 0.46931444 2.145549e-20)
(1.5326371 0.44513117 4.4789946e-19)
(1.5000469 0.41879293 -1.6895802e-19)
(1.4658824 0.39051931 0)
(1.4307416 0.36070544 9.3827048e-21)
(1.3952748 0.32993446 -6.8713343e-20)
(1.3597515 0.29941319 3.2776299e-20)
(1.3241808 0.26895391 -6.3253726e-20)
(1.6634437 0.65488385 4.0603762e-21)
(1.8133545 0.24679454 -8.8375555e-19)
(1.7715704 0.38336732 7.3254838e-19)
(1.7917587 0.34658451 -4.2197401e-21)
(1.7727917 0.34601653 1.0464651e-20)
(1.7496323 0.33571912 -2.9618642e-21)
(1.7227405 0.32574934 -2.9121573e-19)
(1.6930616 0.31421585 6.3691589e-21)
(1.6603519 0.3013009 1.6489139e-19)
(1.6248096 0.28687795 -1.2263328e-19)
(1.5866621 0.27108233 9.8993143e-20)
(1.5464126 0.25399784 0)
(1.5047469 0.23584987 5.336438e-20)
(1.4624177 0.21694548 -3.7218143e-20)
(1.4198545 0.19777962 1.1042231e-20)
(1.3775359 0.17593385 0)
(1.7115162 0.47582498 -5.9294017e-19)
(1.853854 -0.011096545 2.5020108e-19)
(1.8157446 0.16411512 3.9024736e-19)
(1.8395533 0.11670212 -3.1317063e-19)
(1.8228532 0.12511878 6.5466048e-22)
(1.7992697 0.12086413 1.0369094e-19)
(1.7713398 0.11877111 8.0078917e-20)
(1.7405094 0.11593122 -3.3890807e-21)
(1.7063035 0.11272711 -3.0345212e-21)
(1.6690022 0.10894777 -1.0276313e-19)
(1.628774 0.10469883 1.0326866e-19)
(1.5860903 0.099908822 -3.732354e-21)
(1.5416468 0.094648615 -9.5264629e-21)
(1.4962343 0.089012174 -2.0323198e-20)
(1.4503125 0.083712428 -1.2941557e-23)
(1.4048341 0.07431247 8.1763744e-21)
(1.6985779 0.28448008 -3.005454e-19)
(1.8223813 -0.2630644 -2.3768201e-19)
(1.796053 -0.062595503 5.9920072e-19)
(1.8206092 -0.11549285 -3.1932991e-19)
(1.8100689 -0.10062179 1.3336533e-19)
(1.7885461 -0.098595882 1.2139654e-23)
(1.7618177 -0.093069869 1.5881873e-19)
(1.7321757 -0.087316757 -7.0118708e-20)
(1.6992214 -0.080959788 -8.8141533e-21)
(1.663197 -0.074210875 3.1467126e-20)
(1.624197 -0.066997777 -4.8625035e-20)
(1.5826357 -0.059509959 3.677882e-20)
(1.5391514 -0.051830922 -9.9355149e-21)
(1.4944974 -0.044178782 -3.9235091e-20)
(1.4491154 -0.035459985 1.4498842e-20)
(1.4038848 -0.032926214 1.7316107e-20)
(1.6235102 0.097625827 -6.8624848e-21)
(1.723281 -0.4894685 9.4989876e-19)
(1.7143757 -0.28032438 -7.818087e-19)
(1.7373731 -0.33214438 6.0633486e-19)
(1.7356821 -0.31487532 -5.0656763e-19)
(1.7191598 -0.30695446 0)
(1.6960681 -0.29459587 3.0311058e-19)
(1.6698841 -0.28083782 -2.4033807e-19)
(1.640663 -0.26561147 -5.1584977e-21)
(1.6086525 -0.24908456 0)
(1.5739133 -0.23123947 -1.8753294e-20)
(1.5367539 -0.21235296 8.9813939e-21)
(1.4977017 -0.19264296 -5.7094746e-20)
(1.4573968 -0.1726736 1.0276818e-19)
(1.4163941 -0.15103154 -6.8754338e-20)
(1.3752617 -0.13560283 -1.7340544e-20)
(1.4873231 -0.067820114 4.5084648e-21)
(1.5643431 -0.67158176 -3.5870089e-21)
(1.5761658 -0.47275094 0)
(1.5964915 -0.5165439 1.3048945e-20)
(1.604469 -0.50116571 6.677948e-21)
(1.5960259 -0.48887487 3.6368379e-19)
(1.5793414 -0.47123362 -3.0671387e-19)
(1.5589793 -0.45082677 0)
(1.5358253 -0.42813595 1.1111366e-21)
(1.5103144 -0.40334224 -1.4777172e-20)
(1.4825286 -0.37648577 1.2254449e-20)
(1.4526565 -0.34787427 7.091358e-21)
(1.4210803 -0.31778529 1.2878812e-20)
(1.3882631 -0.2869927 7.4621345e-20)
(1.3549093 -0.25408604 -8.4094815e-20)
(1.321166 -0.22644584 4.3557424e-20)
(1.2911856 -0.19405588 0)
(1.3547308 -0.79007476 1.5377371e-18)
(1.3894287 -0.62410384 -2.5009023e-18)
(1.4083254 -0.65383353 1.0090544e-18)
(1.4249034 -0.64354013 -6.6780238e-21)
(1.4270355 -0.62970179 -1.9449818e-20)
(1.4196947 -0.60933139 4.8865061e-19)
(1.4076584 -0.58465598 -3.9236819e-19)
(1.3927419 -0.55680013 -2.5588834e-19)
(1.375806 -0.52614254 2.3114402e-19)
(1.3570857 -0.49280949 0)
(1.336695 -0.4570929 -1.2972844e-19)
(1.3148465 -0.41925655 7.1565998e-20)
(1.2917406 -0.38006889 0)
(1.2680122 -0.3382522 0)
(1.2434924 -0.29881893 0)
(1.0467458 -0.26751648 3.1648527e-18)
(1.1162154 -0.83916371 -1.2847763e-18)
(1.1748602 -0.72268206 0)
(1.1969012 -0.73543462 -5.6290477e-21)
(1.2194684 -0.73152457 -6.2722344e-19)
(1.2324737 -0.71998216 5.379048e-19)
(1.2360345 -0.70063833 3.788163e-19)
(1.2336969 -0.67526718 -9.4911038e-21)
(1.2278645 -0.64542426 -2.6103572e-19)
(1.219987 -0.61190296 1.2423109e-20)
(1.2106782 -0.5750745 0)
(1.200142 -0.53530811 -1.8267319e-19)
(1.1884781 -0.49294895 3.5711187e-20)
(1.1755924 -0.44885258 1.0272522e-19)
(1.1616464 -0.402597 0)
(1.1498282 -0.3505559 9.0316522e-21)
(0.4741696 -0.027833197 1.2731596e-20)
(0.64752895 -0.5812813 1.9538809e-18)
(0.82149634 -0.65095036 -7.9513723e-19)
(0.90025906 -0.69064951 -6.2165774e-19)
(0.94459428 -0.70865507 5.0970069e-19)
(0.97480164 -0.71203658 -4.0453702e-19)
(0.9951966 -0.70354901 3.3255752e-19)
(1.0088558 -0.68594393 2.3317224e-19)
(1.0185086 -0.66154958 -2.080351e-19)
(1.026131 -0.63188541 0)
(1.0327031 -0.59782987 0)
(1.0385034 -0.55999136 0)
(1.0434685 -0.51883731 1.0983586e-20)
(1.0472451 -0.47521229 0)
(1.0490827 -0.43032572 5.1734685e-20)
(1.0530324 -0.37772102 -8.6918323e-20)
(0.50161063 -0.89321146 3.0098467e-19)
(0.82950349 -0.87771302 2.7845134e-22)
(0.87833733 -1.0129125 -1.7356718e-19)
(0.88203418 -0.98319813 1.4342389e-19)
(0.8823318 -0.95613978 2.7143691e-22)
(0.88272109 -0.92635176 3.1631223e-21)
(0.88285818 -0.89210415 0)
(0.88353087 -0.85344624 3.1559335e-20)
(0.88491577 -0.81044545 -3.9495665e-20)
(0.8871923 -0.7631351 1.5788968e-20)
(0.89052771 -0.71186611 -4.1081319e-21)
(0.89500955 -0.65722742 3.3552568e-21)
(0.90078156 -0.59995759 -6.7173733e-21)
(0.90821975 -0.54077601 2.6591991e-21)
(0.91691001 -0.48102746 2.2810677e-21)
(0.92319417 -0.42552129 0)
(0.46302687 -0.9391698 0)
(0.63762372 -0.85746868 6.5137978e-22)
(0.61009399 -0.87494735 -8.4761154e-20)
(0.62415578 -0.85846263 6.9692358e-20)
(0.63337891 -0.83777734 8.7536979e-22)
(0.64340167 -0.81314595 -6.4586821e-20)
(0.65502777 -0.78505526 -5.2242638e-21)
(0.66860158 -0.75330965 9.8932452e-20)
(0.68412312 -0.71782261 -2.0492546e-21)
(0.70159469 -0.67857629 -3.6590251e-20)
(0.7209321 -0.63570769 0)
(0.74194444 -0.58953675 4.9965924e-21)
(0.76440682 -0.54053197 2.7035488e-21)
(0.78816523 -0.48921174 3.1602756e-20)
(0.8127648 -0.43629379 -3.9452258e-20)
(0.83612407 -0.38378058 -6.6049066e-21)
(0.29198636 -0.80952556 -3.9240146e-21)
(0.42110372 -0.75768904 7.736025e-19)
(0.41087098 -0.76145142 -3.211478e-19)
(0.42454569 -0.74720061 2.7192087e-21)
(0.43825208 -0.72786573 2.2534101e-19)
(0.45356849 -0.70529303 -1.8194278e-19)
(0.47121199 -0.67981442 3.0393802e-21)
(0.49159351 -0.65121324 -4.9582022e-21)
(0.51482358 -0.61939088 6.2246755e-22)
(0.54094656 -0.58435302 6.4302004e-21)
(0.56988156 -0.54624988 -6.6983432e-20)
(0.60140495 -0.50539243 4.8751722e-20)
(0.63525062 -0.46221849 8.6548787e-20)
(0.67121515 -0.41726011 -7.2931549e-20)
(0.70862421 -0.37137165 9.0178346e-21)
(0.74463752 -0.32638508 2.9313686e-20)
(0.14534136 -0.62591747 1.6764729e-21)
(0.23846649 -0.59349049 1.3835191e-21)
(0.24041955 -0.59218965 2.6026266e-19)
(0.25451477 -0.5811316 -2.1851231e-19)
(0.27198222 -0.56494824 3.0686454e-21)
(0.29230448 -0.5460897 -1.4762346e-19)
(0.31575362 -0.5250653 1.1054443e-19)
(0.34271502 -0.50174912 1.9098624e-19)
(0.37334808 -0.4760991 -3.4516012e-21)
(0.40766746 -0.44817218 -2.4949883e-19)
(0.44550331 -0.41812733 9.6936184e-20)
(0.48650308 -0.38622142 0)
(0.53025249 -0.35277652 -6.0901694e-21)
(0.57630264 -0.31818772 4.9540246e-20)
(0.62340093 -0.28313896 -2.359965e-20)
(0.66787832 -0.24886502 5.1624373e-20)
(0.037297384 -0.41376524 -1.6859919e-21)
(0.10407838 -0.39085513 3.9372566e-19)
(0.11932285 -0.38501656 -3.2489471e-19)
(0.13584654 -0.37508343 1.8810413e-21)
(0.15593941 -0.36186016 -4.8204561e-21)
(0.17993092 -0.34714947 1.4143967e-21)
(0.20786201 -0.33139707 1.4933125e-19)
(0.23999337 -0.31457656 1.5369012e-21)
(0.27649887 -0.29671176 -8.8008899e-20)
(0.31738087 -0.27788706 7.1895485e-20)
(0.3624268 -0.25822451 -5.7960144e-20)
(0.41124985 -0.23785985 0)
(0.46344089 -0.21689607 -3.6273619e-20)
(0.51846556 -0.19538256 2.5414386e-20)
(0.57432939 -0.17352911 -8.2506485e-21)
(0.62530961 -0.15230038 0)
(1.4016324 -0.92014797 0)
(1.5324227 -0.67614151 1.2359477e-18)
(1.500295 -0.74076048 -2.0039981e-18)
(1.5158012 -0.71668921 8.2098553e-19)
(1.5008524 -0.70253032 5.5819407e-21)
(1.4850703 -0.68117053 1.7714679e-21)
(1.467123 -0.65768143 3.7275996e-19)
(1.4474876 -0.63139646 -3.1002561e-19)
(1.4261097 -0.60226798 -2.1658281e-19)
(1.4030822 -0.57022555 1.5770425e-19)
(1.378537 -0.53546234 0)
(1.3528216 -0.49828926 -7.4909598e-20)
(1.3264876 -0.45926612 5.5911999e-20)
(1.3003533 -0.41904927 0)
(1.27533 -0.37832384 0)
(1.2517762 -0.33795977 0)
(0.011646758 -0.23487355 2.5266204e-19)
(0.042402648 -0.20732284 -1.0394959e-19)
(0.06081232 -0.1964326 -1.7020639e-19)
(0.082727969 -0.18425059 1.3934784e-19)
(0.10789414 -0.17159757 1.4134008e-21)
(0.13646542 -0.15893757 -4.7874922e-20)
(0.16860123 -0.14638074 -3.9517104e-20)
(0.20440544 -0.13402286 4.8053884e-22)
(0.24391157 -0.12200739 5.2613064e-22)
(0.28705068 -0.11039968 5.6625459e-20)
(0.33361578 -0.099186145 -5.9215488e-20)
(0.38324593 -0.088289943 1.0387824e-21)
(0.43543611 -0.07757323 5.2181491e-21)
(0.48951037 -0.066811806 1.3299082e-20)
(0.54440503 -0.055722188 9.137789e-24)
(0.59819265 -0.044412877 -6.4226272e-21)
(0.01237955 0.2341747 1.254536e-19)
(0.042698796 0.20647126 1.0361877e-19)
(0.061283815 0.19561745 -2.5555e-19)
(0.083376922 0.18366787 1.3941391e-19)
(0.10873632 0.17139501 -5.8816656e-20)
(0.1375051 0.15920483 -5.6500568e-24)
(0.16982673 0.14715596 -7.6744412e-20)
(0.20578658 0.13529268 3.2698822e-20)
(0.24539804 0.12370803 3.4643418e-21)
(0.28857263 0.11242463 -1.81508e-20)
(0.33508975 0.10140128 2.6509185e-20)
(0.38458685 0.090553856 -2.2253294e-20)
(0.43656448 0.079758793 5.2110215e-21)
(0.49031974 0.068831306 2.5710723e-20)
(0.54465385 0.057584943 -9.781175e-21)
(0.5974206 0.046355547 -1.301891e-20)
(0.038329602 0.41481507 2.6420385e-21)
(0.10434255 0.39226642 -3.9626159e-19)
(0.11971325 0.38638704 3.2468791e-19)
(0.13637005 0.37645672 -2.6385401e-19)
(0.1566006 0.36332973 2.1981228e-19)
(0.18071227 0.3487412 0)
(0.20873832 0.33309163 -1.4459258e-19)
(0.24092014 0.31633045 1.1459144e-19)
(0.2774096 0.29845807 2.332981e-21)
(0.31818562 0.27953509 0)
(0.36301398 0.25966044 1.0156663e-20)
(0.41149589 0.23894795 -5.0390063e-21)
(0.46321661 0.21747393 3.5438987e-20)
(0.51758678 0.19522805 -6.6884753e-20)
(0.57243359 0.17228456 4.5363236e-20)
(0.62198449 0.14950344 1.247022e-20)
(0.14591364 0.62739262 -1.6730714e-21)
(0.23867903 0.59524726 1.3807319e-21)
(0.24073869 0.5938972 0)
(0.25478818 0.58280981 -4.5869368e-21)
(0.27219002 0.56663507 -2.2468517e-21)
(0.2924122 0.54777745 -1.4707011e-19)
(0.31571135 0.52671305 1.2433289e-19)
(0.34245078 0.50330211 0)
(0.37276908 0.47749071 -1.2436368e-21)
(0.40665511 0.44932724 6.4233209e-21)
(0.44390684 0.41896889 -6.5154929e-21)
(0.48416546 0.38667222 -2.8993236e-21)
(0.52713618 0.35272194 -7.6136362e-21)
(0.57264176 0.31737115 -4.5825558e-20)
(0.61926964 0.2811626 5.2613449e-20)
(0.66144359 0.24598893 -2.8728285e-20)
(0.29163158 0.81024918 0)
(0.42113711 0.75839139 -3.885353e-19)
(0.41087389 0.76219586 6.4231122e-19)
(0.4244191 0.7479489 -2.6315735e-19)
(0.43797739 0.72858592 2.2369796e-21)
(0.45309603 0.70595027 5.6206661e-21)
(0.47047587 0.680354 -1.5789765e-19)
(0.49051461 0.6515706 1.2633447e-19)
(0.51331744 0.61949792 9.5267857e-20)
(0.53892708 0.58415071 -8.6737505e-20)
(0.56726219 0.54571128 0)
(0.5981461 0.50453663 6.0122389e-20)
(0.63158555 0.46105545 -3.3817984e-20)
(0.66798786 0.41571372 0)
(0.70663283 0.3697777 0)
(0.74118488 0.32739407 0)
(0.46188596 0.93900368 -1.8806497e-19)
(0.63738035 0.85706275 8.142404e-20)
(0.60968328 0.87472418 0)
(0.62367873 0.85824507 -2.4574887e-22)
(0.63280266 0.83748742 7.0926931e-20)
(0.6426746 0.81274046 -5.9750537e-20)
(0.65410093 0.78448091 -5.7736458e-20)
(0.6674333 0.75251095 -4.4791175e-21)
(0.68269467 0.71675469 4.640317e-20)
(0.69993226 0.67722219 -3.8067685e-21)
(0.71913543 0.63410367 0)
(0.74024873 0.58778787 5.4277954e-20)
(0.76331516 0.5387971 -7.5065471e-21)
(0.78849953 0.48778388 -3.4633304e-20)
(0.81521811 0.43603132 0)
(0.84124851 0.38575392 -2.987293e-21)
(0.49974258 0.89216953 1.0885025e-20)
(0.82872907 0.87666937 4.6534486e-19)
(0.87778731 1.0124349 -1.8571786e-19)
(0.88148195 0.98279385 -1.3042007e-19)
(0.88173606 0.95563788 1.0763197e-19)
(0.88204269 0.92575759 -6.9292995e-20)
(0.88206158 0.89137713 5.2269202e-20)
(0.88260034 0.85255675 3.1646892e-20)
(0.88386834 0.80939171 -3.0840833e-20)
(0.88609817 0.76195631 0)
(0.88953118 0.71066439 0)
(0.89434881 0.65618337 0)
(0.9008005 0.59932865 3.6576008e-21)
(0.90929886 0.54090065 0)
(0.91919012 0.48224877 -7.2411017e-21)
(0.92583358 0.427596 1.6615321e-20)
(0.47361103 0.027238116 1.2277551e-18)
(0.64692771 0.58062705 4.361013e-21)
(0.82078607 0.65032442 -7.7766918e-19)
(0.89956117 0.69000046 6.4286284e-19)
(0.94390121 0.70801469 9.1145586e-21)
(0.9741098 0.7114055 4.3841555e-21)
(0.99451032 0.70292839 0)
(1.008175 0.68533164 2.4165124e-19)
(1.0178294 0.6609405 -3.893923e-19)
(1.0254437 0.63126938 1.5226926e-19)
(1.0319893 0.59719214 -1.0414823e-19)
(1.037733 0.55931698 8.5119756e-20)
(1.042603 0.51809953 5.7862713e-21)
(1.0461521 0.47453021 -1.1848114e-20)
(1.0481071 0.42878275 -2.7158628e-20)
(1.0541016 0.37123053 0)
(1.0464538 0.26708967 0)
(1.115799 0.83873252 -9.816308e-21)
(1.1742908 0.72226659 1.0036799e-18)
(1.1962868 0.73493307 -8.2496507e-19)
(1.2188304 0.73102407 -1.457624e-20)
(1.2318314 0.71947805 4.996456e-19)
(1.235402 0.70013585 -1.9866792e-20)
(1.233077 0.67476164 -6.1787174e-19)
(1.2272545 0.64490701 4.547194e-20)
(1.2193776 0.61135879 1.8502161e-19)
(1.2100542 0.57448241 0)
(1.199489 0.53464151 -1.342888e-20)
(1.1878058 0.4921561 -1.4802364e-20)
(1.174904 0.44792356 -7.9240691e-20)
(1.1613011 0.40070339 1.0277201e-19)
(1.1469466 0.3537433 1.2314543e-20)
(1.2909943 0.19373108 -2.6423892e-20)
(1.35438 0.78982132 -3.0941892e-18)
(1.3889142 0.62381799 1.262948e-18)
(1.4077807 0.65348261 -8.387523e-21)
(1.4243588 0.64320957 -7.7690087e-19)
(1.4265048 0.62936704 6.3159714e-19)
(1.4191898 0.60900149 -8.2425394e-21)
(1.4071771 0.58432272 1.2766553e-20)
(1.3922753 0.55645546 -6.6958869e-21)
(1.3753342 0.52577408 -1.4749463e-20)
(1.3565792 0.49240601 1.5641465e-19)
(1.3361261 0.45665071 -1.1220816e-19)
(1.3142126 0.41878478 -1.7333132e-19)
(1.2910397 0.37968967 1.4461325e-19)
(1.2674041 0.33761785 -1.8404242e-20)
(1.241977 0.30171756 -4.8769915e-20)
(1.4872188 0.067574831 -4.5062303e-21)
(1.5640852 0.67148448 -3.5851409e-21)
(1.57576 0.47258727 -7.0673613e-19)
(1.5960756 0.51634336 5.9461069e-19)
(1.6040655 0.50099207 -7.4160926e-21)
(1.5956429 0.48869183 3.6344128e-19)
(1.5789915 0.471057 -2.7166199e-19)
(1.5586535 0.45064481 -4.3081289e-19)
(1.5355034 0.42794087 2.310517e-20)
(1.5099594 0.40312147 5.2134244e-19)
(1.482089 0.37623006 -1.9675563e-19)
(1.452088 0.34758253 0)
(1.4203777 0.317476 1.1509759e-20)
(1.3874612 0.28675077 -8.1738688e-20)
(1.3541545 0.25349509 3.9182479e-20)
(1.3202355 0.22770098 -7.5226212e-20)
(1.6234886 -0.097819539 4.4917941e-21)
(1.7231429 0.48948258 -9.4232334e-19)
(1.7141153 0.2802535 7.814726e-19)
(1.7371158 0.3320572 -4.6574949e-21)
(1.7354376 0.31481403 1.1332995e-20)
(1.718938 0.30687856 -3.0919709e-21)
(1.695885 0.29452657 -3.1265151e-19)
(1.6697232 0.28076089 6.1965276e-21)
(1.6404882 0.26552196 1.7690253e-19)
(1.6084037 0.24897287 -1.3238286e-19)
(1.5735137 0.23110294 1.0688462e-19)
(1.5361398 0.21220088 0)
(1.4968693 0.19251539 5.77991e-20)
(1.4564207 0.17263855 -4.0466608e-20)
(1.4154167 0.15079274 1.2505935e-20)
(1.3743489 0.13707949 0)
(1.6986526 -0.28464685 -6.0566784e-19)
(1.8223994 0.26314735 2.5500822e-19)
(1.7959722 0.062575803 3.9786827e-19)
(1.8205334 0.11547508 -3.1924318e-19)
(1.81 0.10062195 5.1506839e-22)
(1.788504 0.098576401 1.0576468e-19)
(1.7618195 0.093052076 8.1811499e-20)
(1.732198 0.087286006 -3.4195904e-21)
(1.6992123 0.080915925 -3.0658775e-21)
(1.6630684 0.074151059 -1.0502789e-19)
(1.6238482 0.066927434 1.0563504e-19)
(1.5819867 0.059447249 -3.7907192e-21)
(1.5382067 0.05181577 -9.9295652e-21)
(1.4933702 0.044213535 -2.0848127e-20)
(1.447964 0.03534829 -1.2920568e-23)
(1.4028959 0.034198208 8.3945128e-21)
(1.7117056 -0.47598951 -2.9419005e-19)
(1.8540623 0.011200521 -2.330275e-19)
(1.8158678 -0.16413448 5.8758593e-19)
(1.839676 -0.1166952 -3.1314372e-19)
(1.8229758 -0.12510814 1.3072688e-19)
(1.7994262 -0.12087661 1.2170056e-23)
(1.7715436 -0.11879148 1.5549235e-19)
(1.7407298 -0.11597134 -6.8656254e-20)
(1.7064824 -0.11278191 -8.5203835e-21)
(1.669016 -0.10900824 3.073466e-20)
(1.6285071 -0.10474889 -4.7695743e-20)
(1.5854532 -0.099920845 3.5883896e-20)
(1.540657 -0.094597281 -9.5238757e-21)
(1.4950404 -0.088952104 -3.8226681e-20)
(1.4491264 -0.083687283 1.4119227e-20)
(1.4038815 -0.073273104 1.660141e-20)
(1.663757 -0.65507139 -6.322704e-21)
(1.8137696 -0.24672525 8.9041193e-19)
(1.7719021 -0.38343911 -7.326683e-19)
(1.7920827 -0.34660348 5.6715812e-19)
(1.7731116 -0.34605108 -4.740288e-19)
(1.7499956 -0.33578255 0)
(1.7231534 -0.32583629 2.8198426e-19)
(1.693485 -0.31432974 -2.2378382e-19)
(1.6607105 -0.30142761 -4.2995625e-21)
(1.6249834 -0.2869956 0)
(1.5865142 -0.27115883 -1.7114631e-20)
(1.5458502 -0.25399964 7.994028e-21)
(1.5037966 -0.23577725 -5.1913772e-20)
(1.4612544 -0.21688324 9.4715312e-20)
(1.4187591 -0.19767592 -6.2688947e-20)
(1.376687 -0.17526191 -1.5840126e-20)
(1.557522 -0.805067 4.0616193e-21)
(1.7018063 -0.48444981 -3.261183e-21)
(1.6633068 -0.5805824 0)
(1.6799947 -0.55261272 -2.8166721e-21)
(1.661971 -0.54433229 -5.5871485e-21)
(1.6415131 -0.52819363 2.9787527e-19)
(1.6180209 -0.51094766 -2.5261389e-19)
(1.5921528 -0.4913997 0)
(1.5637705 -0.46956528 1.7863626e-20)
(1.5330095 -0.44535736 1.2175236e-20)
(1.5000776 -0.41894584 1.093102e-20)
(1.4654675 -0.39055854 -2.111385e-20)
(1.4299025 -0.3606473 1.1430253e-20)
(1.3942125 -0.3298746 6.3657745e-20)
(1.3588366 -0.29929141 -7.0828025e-20)
(1.323585 -0.26847417 3.7161829e-20)
(1.2334192 -1.002094 2.5065475e-18)
(1.3460741 -0.81953201 -1.0267087e-18)
(1.3209767 -0.86186982 0)
(1.3377366 -0.83721733 -4.6722766e-21)
(1.3268178 -0.81853035 -4.9036414e-19)
(1.3162818 -0.7932787 4.2137041e-19)
(1.3043801 -0.765106 2.9145326e-19)
(1.2913719 -0.73381552 -9.3852175e-21)
(1.2772241 -0.69937977 -1.9929694e-19)
(1.2619884 -0.66171019 9.530967e-21)
(1.2457183 -0.62099637 0)
(1.2286304 -0.57758018 -1.3219196e-19)
(1.2111684 -0.53203516 2.780087e-20)
(1.1943489 -0.48485504 7.3137596e-20)
(1.1797235 -0.43632719 0)
(1.1660644 -0.3889635 5.8055717e-21)
(1.0616704 -1.0957766 9.3922465e-21)
(1.1742543 -0.93998994 1.7643678e-18)
(1.1515669 -0.97707403 -7.18358e-19)
(1.1718595 -0.94899127 -5.4579278e-19)
(1.1647267 -0.9257166 4.4804763e-19)
(1.1583332 -0.89679033 -3.4280804e-19)
(1.1510233 -0.86405522 2.8224361e-19)
(1.1429004 -0.8275712 1.8895219e-19)
(1.1339483 -0.7874011 -1.6726144e-19)
(1.1242791 -0.7434337 0)
(1.114017 -0.69588855 0)
(1.1034299 -0.64518474 0)
(1.0930339 -0.5919729 5.7997919e-21)
(1.0841219 -0.53685793 0)
(1.0789035 -0.48069293 3.1337752e-20)
(1.0768852 -0.42717109 -5.0449451e-20)
(0.17974347 0.06493298 5.1222608e-19)
(0.41795481 -0.39614373 1.494607e-21)
(0.55987992 -0.51176071 -3.1861032e-19)
(0.66292218 -0.58206993 2.6256292e-19)
(0.73439282 -0.62488416 3.1084123e-21)
(0.78357064 -0.64658656 4.1651747e-21)
(0.81709479 -0.65186535 0)
(0.83971588 -0.64464728 1.0336213e-19)
(0.85529113 -0.62824928 -1.6228233e-19)
(0.8669944 -0.60517783 6.6129876e-20)
(0.87711384 -0.57706684 -4.6154777e-20)
(0.88703898 -0.54486425 3.7748884e-20)
(0.89747671 -0.50909895 -4.2567624e-21)
(0.90880788 -0.47013376 -3.377062e-21)
(0.92016604 -0.42929053 -1.3076567e-20)
(0.93521816 -0.38479476 0)
(-0.25118102 0.66015023 0)
(0.028449345 -0.016693132 -2.6324782e-21)
(0.28881428 -0.32404774 2.9164226e-19)
(0.4434279 -0.48602958 -2.3818299e-19)
(0.53917958 -0.58212 -4.2150409e-21)
(0.60341881 -0.63501928 1.4004536e-19)
(0.64882098 -0.65756456 -8.8058511e-21)
(0.68157232 -0.65883782 -1.6463469e-19)
(0.70598529 -0.64520409 1.4199033e-20)
(0.72552263 -0.62118398 4.5834096e-20)
(0.74278486 -0.5899657 0)
(0.75955221 -0.55368525 -1.3104447e-21)
(0.77692405 -0.51370497 -4.4552666e-21)
(0.79562315 -0.47082056 -9.5095102e-21)
(0.81529805 -0.42601466 1.3463024e-20)
(0.83875221 -0.37785451 -5.6602812e-22)
(-0.16823439 0.68778017 -2.7288597e-21)
(-0.22986775 0.35100373 -4.1924405e-19)
(0.053920169 -0.054705736 1.7191284e-19)
(0.2128562 -0.28804089 -5.3456755e-22)
(0.31084493 -0.4352933 -1.0128985e-19)
(0.38227476 -0.52400742 8.3110223e-20)
(0.43802476 -0.57160716 -3.5414476e-22)
(0.48225148 -0.59048041 3.7184755e-22)
(0.51849524 -0.58899539 -2.5517579e-21)
(0.54988662 -0.573032 1.4268971e-22)
(0.57883112 -0.54688848 4.6150579e-21)
(0.60706091 -0.51369058 -2.3898662e-21)
(0.63570183 -0.47569395 6.6607935e-21)
(0.66538693 -0.43451227 -6.5840429e-21)
(0.69562946 -0.39163995 2.7760555e-23)
(0.73109867 -0.34511477 5.6277833e-21)
(-0.084736764 0.57285763 1.9775599e-22)
(-0.18990686 0.42352946 1.6800589e-22)
(-0.09246449 0.21225303 -8.3584795e-23)
(0.047926133 -0.078622001 3.7754235e-22)
(0.123904 -0.23647128 4.0196267e-22)
(0.18524058 -0.34455157 -4.8944255e-21)
(0.23927614 -0.41329388 4.1577289e-21)
(0.28761102 -0.45136972 1.7467281e-20)
(0.33184368 -0.46638748 4.2599087e-21)
(0.37357556 -0.46409014 -3.7888074e-20)
(0.41423612 -0.44894262 1.7067384e-20)
(0.45501338 -0.42457416 0)
(0.49674636 -0.39396701 -1.12612e-21)
(0.53990371 -0.35954496 1.6790245e-20)
(0.58395038 -0.32349069 -7.7573512e-21)
(0.6335498 -0.28521523 2.2055061e-20)
(0.0024339346 0.41039282 -1.9854412e-22)
(-0.088193873 0.30900926 8.7078016e-20)
(-0.073265935 0.21294457 -7.2100596e-20)
(-0.047775143 0.09531341 2.3529606e-22)
(0.0029041434 -0.058276932 -9.3281786e-22)
(0.045481452 -0.17303304 4.3860392e-22)
(0.084509898 -0.23941508 3.8862524e-20)
(0.1275506 -0.28130002 2.8331877e-21)
(0.17290926 -0.30393573 -2.5282831e-20)
(0.21954057 -0.3105412 2.456795e-20)
(0.26825441 -0.30444205 -1.9766995e-20)
(0.31975814 -0.28897569 0)
(0.37409028 -0.26733778 -1.6535113e-20)
(0.43083484 -0.24238222 1.1433497e-20)
(0.48871367 -0.21663107 -3.7474822e-21)
(0.55128203 -0.19090207 0)
(0.032904335 0.19698976 9.1589929e-20)
(-0.033856366 0.10111885 -3.7782427e-20)
(-0.050651739 0.044279291 -6.186752e-20)
(-0.059528012 -0.0010498526 5.0915429e-20)
(-0.060578117 -0.043035833 6.1727265e-22)
(-0.050735334 -0.086387321 -1.7781156e-20)
(-0.032793097 -0.12454623 -1.5491426e-20)
(-0.0022923305 -0.15502791 -3.9680821e-22)
(0.036615848 -0.16919219 -4.3047983e-22)
(0.08483636 -0.17142273 2.6269265e-20)
(0.14335237 -0.16604668 -2.9074244e-20)
(0.20894802 -0.1553967 -2.7644044e-22)
(0.27938336 -0.14148095 2.0756228e-21)
(0.35282152 -0.12610376 7.6469215e-21)
(0.42750593 -0.11085984 5.6727971e-24)
(0.50746997 -0.096648298 -4.0816105e-21)
(0.032907322 -0.19759501 4.5484563e-20)
(-0.033808229 -0.10159421 3.7471823e-20)
(-0.050551631 -0.044453875 -9.2792008e-20)
(-0.059399586 0.0012125786 5.088645e-20)
(-0.060394477 0.043539295 -2.150135e-20)
(-0.050497092 0.087229484 -2.1268587e-24)
(-0.032510041 0.12567562 -3.0231348e-20)
(-0.0019714717 0.15638182 1.2302467e-20)
(0.036911053 0.17067354 6.4415718e-22)
(0.085093077 0.17299397 -9.2718599e-21)
(0.14352136 0.16768352 1.2707021e-20)
(0.2089875 0.15709511 -1.2099857e-20)
(0.27923376 0.1432556 2.0726214e-21)
(0.35237838 0.12798159 1.5167348e-20)
(0.42633419 0.11287876 -5.9151411e-21)
(0.50526071 0.098826523 -7.9905206e-21)
(0.0025169048 -0.41062933 4.7951905e-22)
(-0.088065348 -0.30913435 -8.735338e-20)
(-0.072996884 -0.21296999 7.205032e-20)
(-0.047371372 -0.09514083 -5.9968015e-20)
(0.0033915299 0.058861247 5.0220997e-20)
(0.045887591 0.17373117 0)
(0.084853971 0.24019823 -3.7365035e-20)
(0.12782092 0.28216458 2.9766196e-20)
(0.17308088 0.30486495 7.7755464e-23)
(0.21960566 0.31153493 0)
(0.2682153 0.30551696 3.4271462e-21)
(0.3196313 0.29016627 -1.6552899e-21)
(0.37392124 0.26869974 1.5152823e-20)
(0.43078949 0.24398595 -3.2091921e-20)
(0.48885729 0.21866241 2.1866164e-20)
(0.55607468 0.19268329 6.7990008e-21)
(-0.084553581 -0.57280219 -1.9793599e-22)
(-0.18966485 -0.42345171 1.6817088e-22)
(-0.092334326 -0.2124374 0)
(0.048151194 0.078919318 3.0536352e-22)
(0.12403628 0.23685727 4.0669936e-22)
(0.18527663 0.3450427 -4.9744119e-21)
(0.23920599 0.41383487 4.8108468e-21)
(0.28741875 0.45193273 0)
(0.33150602 0.46696799 -1.2391074e-21)
(0.37306599 0.46469868 1.5388075e-22)
(0.41352181 0.44960141 -1.8697704e-21)
(0.45404631 0.4253178 5.9320003e-22)
(0.49543882 0.39485281 -2.8126988e-21)
(0.53816075 0.36064526 -1.7085687e-20)
(0.58104813 0.32517163 2.0069784e-20)
(0.63265291 0.2863238 -1.2466239e-20)
(-0.16792805 -0.6875147 0)
(-0.23014527 -0.35178012 2.0885477e-19)
(0.053610301 0.054080454 -3.4073559e-19)
(0.21262637 0.28767975 1.3772663e-19)
(0.31060953 0.43512415 -3.9981853e-22)
(0.3819882 0.52395063 -2.3162307e-21)
(0.4376586 0.57160469 5.302888e-20)
(0.48177993 0.59049926 -4.2930784e-20)
(0.51789637 0.5890212 -1.8711714e-20)
(0.54913964 0.57306035 1.5470276e-20)
(0.57791061 0.54691642 0)
(0.60592718 0.51371048 1.2773853e-21)
(0.63428802 0.47568529 -1.471049e-21)
(0.66368033 0.43437034 0)
(0.69303756 0.3915436 0)
(0.73197102 0.34255402 0)
(-0.25086367 -0.66023938 9.0577648e-19)
(0.027581641 0.015597905 -3.7164214e-19)
(0.28817667 0.32321892 0)
(0.44291255 0.48538051 -1.9269946e-21)
(0.53870347 0.58161037 -1.7821905e-19)
(0.60293481 0.63459929 1.5262669e-19)
(0.64829826 0.65719126 1.0157617e-19)
(0.68098853 0.65848469 -5.2845259e-21)
(0.70532594 0.64485727 -6.601938e-20)
(0.72477833 0.62083459 1.7598096e-21)
(0.74194798 0.58960223 0)
(0.75861155 0.55328979 -3.4626741e-20)
(0.77587672 0.51323516 7.6822431e-21)
(0.79452007 0.47016269 1.6874504e-20)
(0.81328962 0.42571027 0)
(0.83866877 0.3754778 2.1455649e-21)
(0.17829337 -0.066561833 8.0952696e-21)
(0.41696356 0.39501646 8.0697985e-19)
(0.55909063 0.51086183 -3.2499122e-19)
(0.66224513 0.58126245 -2.5356294e-19)
(0.73376269 0.62415345 2.0797264e-19)
(0.78294483 0.64591138 -1.6685733e-19)
(0.81644938 0.65122814 1.3320778e-19)
(0.83903674 0.64403787 9.9809042e-20)
(0.85457012 0.62766144 -9.2625839e-20)
(0.86622558 0.60460529 0)
(0.8762908 0.57650124 0)
(0.88615096 0.54429841 0)
(0.89653771 0.50850233 9.2257841e-21)
(0.9078236 0.46949581 0)
(0.91873502 0.42911097 2.1990136e-20)
(0.94083834 0.37896304 -3.5856552e-20)
(0.81282242 0.89215754 0)
(0.87724875 1.0200287 0)
(0.8930556 0.98562778 0)
(0.89554685 0.96140244 6.758041e-21)
(0.89992603 0.93310034 -4.2536381e-20)
(0.90444678 0.90000221 4.4593524e-20)
(0.90962444 0.86231844 0)
(0.91554235 0.82025815 -6.0921641e-21)
(0.92226272 0.77366474 0)
(0.9297821 0.72289265 0)
(0.93803404 0.66857298 0)
(0.94698588 0.61157006 7.5313854e-21)
(0.95694755 0.55271062 0)
(0.96810675 0.49333057 1.2746561e-20)
(0.97847487 0.43901644 0)
(0.81367707 -0.8931537 0)
(0.87782047 -1.0204908 0)
(0.89359379 -0.98603819 0)
(0.89613191 -0.96189704 6.7620508e-21)
(0.90059334 -0.93367826 -3.9852236e-20)
(0.90522576 -0.90070732 4.9251965e-20)
(0.91052927 -0.86317937 0)
(0.91655037 -0.82127045 6.089091e-21)
(0.92329279 -0.77478207 0)
(0.93067185 -0.72400403 0)
(0.93852832 -0.66949018 0)