/*--------------------------------*- C++ -*----------------------------------*\
| =========                 |                                                 |
| \\      /  F ield         | foam-extend: Open Source CFD                    |
|  \\    /   O peration     | Version:     4.1                                |
|   \\  /    A nd           | Web:         http://www.foam-extend.org         |
|    \\/     M anipulation  |                                                 |
\*---------------------------------------------------------------------------*/
FoamFile
{
    version     2.0;
    format      ascii;
    class       regIOobject;
    location    "0.5/uniform";
    object      profilingInfo;
}
// * * * * * * * * * * * * * * * * * * * * * * * * * * * * * * * * * * * * * //

profilingInfo
(

    {
        id              14;
        parentId        11;
        description     "Foam::Time::writeObject - outputTime";
        calls           10;
        totalTime       0.242193;
        childTime       0;
        onStack         1;
    }

    {
        id              11;
        parentId        1;
        description     "Foam::Time::writeObject";
        calls           1000;
        totalTime       0.244553;
        childTime       0.242193;
        onStack         1;
    }

    {
        id              1;
        description     "application::main";
        calls           1;
        totalTime       39.770241;
        childTime       35.541561;
        onStack         1;
    }

    {
        id              12;
        parentId        1;
        description     "FO::forces::execute";
        calls           999;
        totalTime       0.65095;
        childTime       0;
        onStack         0;
    }

    {
        id              13;
        parentId        1;
        description     "FO::probes::execute";
        calls           999;
        totalTime       0.049174;
        childTime       0;
        onStack         0;
    }

    {
        id              2;
        parentId        1;
        description     "functionObjectList::read";
        calls           1;
        totalTime       0.000416;
        childTime       0;
        onStack         0;
    }

    {
        id              3;
        parentId        1;
        description     "fvMatrix::solve_U";
        calls           1000;
        totalTime       3.161545;
        childTime       2.93486;
        onStack         0;
    }

    {
        id              8;
        parentId        1;
        description     "fvMatrix::solve_p";
        calls           4000;
        totalTime       31.434923;
        childTime       30.95668;
        onStack         0;
    }

    {
        id              5;
        parentId        4;
        description     "lduMatrix::smoother_Ux";
        calls           1000;
        totalTime       1.219191;
        childTime       0;
        onStack         0;
    }

    {
        id              7;
        parentId        6;
        description     "lduMatrix::smoother_Uy";
        calls           1000;
        totalTime       1.486239;
        childTime       0;
        onStack         0;
    }

    {
        id              4;
        parentId        3;
        description     "lduMatrix::solver_Ux";
        calls           1000;
        totalTime       1.346175;
        childTime       1.219191;
        onStack         0;
    }

    {
        id              6;
        parentId        3;
        description     "lduMatrix::solver_Uy";
        calls           1000;
        totalTime       1.588685;
        childTime       1.486239;
        onStack         0;
    }

    {
        id              9;
        parentId        8;
        description     "lduMatrix::solver_p";
        calls           4000;
        totalTime       30.95668;
        childTime       8.478375;
        onStack         0;
    }

    {
        id              10;
        parentId        9;
        description     "lduMatrix::solver_topLevelCorr";
        calls           57539;
        totalTime       8.478375;
        childTime       0;
        onStack         0;
    }
);


// ************************************************************************* //
