/*--------------------------------*- C++ -*----------------------------------*\
| =========                 |                                                 |
| \\      /  F ield         | foam-extend: Open Source CFD                    |
|  \\    /   O peration     | Version:     4.1                                |
|   \\  /    A nd           | Web:         http://www.foam-extend.org         |
|    \\/     M anipulation  |                                                 |
\*---------------------------------------------------------------------------*/
FoamFile
{
    version     2.0;
    format      ascii;
    class       volScalarField;
    location    "1.9";
    object      p;
}
// * * * * * * * * * * * * * * * * * * * * * * * * * * * * * * * * * * * * * //

dimensions      [0 2 -2 0 0 0 0];

internalField   nonuniform List<scalar> 
16126
(
-0.00011261493
-1.7960052e-05
-0.00030536278
-0.00024078395
-0.00052172122
-0.00053439748
-0.00080100649
-0.00089812121
-0.0011674106
-0.0013445387
-0.0016375198
-0.0018907544
-0.0022257546
-0.0025544191
-0.0029460403
-0.0033521417
-0.003811702
-0.0042986206
-0.0048346337
-0.0054058316
-0.0060241789
-0.0066820932
-0.0073858971
-0.0081308709
-0.0089198389
-0.009748899
-0.010619074
-0.01152591
-0.012470085
-0.013445469
-0.014450774
-0.015479804
-0.016533216
-0.017608441
-0.018696233
-0.01979814
-0.020910196
-0.022028851
-0.023148757
-0.024266326
-0.025376591
-0.026475351
-0.027557814
-0.028619524
-0.029655802
-0.030662081
-0.031633693
-0.032565948
-0.033454046
-0.034293057
-0.035077868
-0.03580313
-0.036463221
-0.037052188
-0.03756373
-0.037991164
-0.038327431
-0.038565109
-0.038696453
-0.038713465
-0.038607975
-0.038371778
-0.037996759
-0.037475079
-0.036799344
-0.035962823
-0.03495963
-0.033784947
-0.032435185
-0.030908173
-0.02920325
-0.027321388
-0.025265186
-0.023038902
-0.020648338
-0.018100801
-0.015404871
-0.012570348
-0.0096079266
-0.0065291628
-0.0033461113
-7.1329042e-05
0.0032825003
0.0067025103
0.010176025
0.013690467
0.017233707
0.020793965
0.024360097
0.02792155
0.031468502
0.034991985
0.03848369
0.041936513
0.045343673
0.048700172
0.052000504
0.055242094
0.058420083
0.061535017
0.064581477
0.067565001
0.070477548
0.073334612
0.076122176
0.078878307
0.081577353
0.084310265
0.087027886
0.089942415
0.092946966
0.096520157
0.10038252
0.10557917
0.11128395
0.11977411
0.12855054
0.14290959
0.15536033
0.18015785
0.19374548
0.24407584
0.24024445
0.40927475
-0.00011558006
-1.7948567e-05
-0.00031517212
-0.00024755272
-0.00053299474
-0.0005459061
-0.00081456554
-0.00091325944
-0.0011838651
-0.0013628774
-0.0016570481
-0.001912098
-0.0022482929
-0.0025785909
-0.002971389
-0.0033789219
-0.0038396009
-0.0043277716
-0.0048648122
-0.0054370258
-0.0060560893
-0.0067144898
-0.0074182349
-0.0081627926
-0.0089508715
-0.0097791152
-0.010648587
-0.011553965
-0.012495212
-0.013465224
-0.014466787
-0.015497371
-0.016544521
-0.017602757
-0.018682389
-0.019780843
-0.020884787
-0.021994983
-0.023105885
-0.024214175
-0.025314805
-0.026403617
-0.027475874
-0.028527193
-0.029552988
-0.030548787
-0.03151003
-0.032432135
-0.033310414
-0.034140049
-0.034916036
-0.035633127
-0.036285794
-0.036868167
-0.037374011
-0.037796696
-0.038129196
-0.038364101
-0.038493662
-0.038509852
-0.03840446
-0.038169218
-0.037795939
-0.037276701
-0.036604021
-0.03577108
-0.034771907
-0.033601605
-0.032256517
-0.030734411
-0.029034575
-0.02715794
-0.025107061
-0.022886152
-0.020500959
-0.017958724
-0.015267941
-0.012438306
-0.0094803886
-0.0064056033
-0.0032258481
4.648427e-05
0.0033988839
0.0068186542
0.010293288
0.013810368
0.017357923
0.020924326
0.024498591
0.028070325
0.031629887
0.035168504
0.038678107
0.042151856
0.045583318
0.048967876
0.052300565
0.055579377
0.058800323
0.06196479
0.065068744
0.068118894
0.071109352
0.074056991
0.076950995
0.079830354
0.082673871
0.085570998
0.088478552
0.091600245
0.094838295
0.098646904
0.10276671
0.10818525
0.11413435
0.12275725
0.13173039
0.14597432
0.15858986
0.18221247
0.1964344
0.23663424
0.2446189
0.30455989
-0.00013846613
1.0871867e-06
-0.00032662189
-0.00023869896
-0.00053399023
-0.00054011471
-0.0008097729
-0.0009066252
-0.0011754312
-0.0013538486
-0.0016456786
-0.0019001712
-0.0022341568
-0.0025636599
-0.0029544843
-0.0033609539
-0.0038197688
-0.0043065258
-0.0048415784
-0.0054120195
-0.0060290619
-0.0066857199
-0.0073881484
-0.0081319033
-0.0089194437
-0.0097464188
-0.010613101
-0.011515562
-0.012456307
-0.013431475
-0.014434272
-0.015446539
-0.016487257
-0.017565758
-0.018654076
-0.019751751
-0.020857877
-0.021969439
-0.023082085
-0.024191998
-0.025294422
-0.026385122
-0.027459447
-0.028513011
-0.029541275
-0.030539793
-0.031504047
-0.032429492
-0.033311485
-0.034145246
-0.034925808
-0.035647955
-0.036306179
-0.03689462
-0.037407039
-0.037836785
-0.038176795
-0.038419599
-0.038557371
-0.038581989
-0.038485125
-0.03825838
-0.03789342
-0.037382169
-0.03671698
-0.03589087
-0.03489771
-0.03373245
-0.0323913
-0.03087191
-0.029173478
-0.027296869
-0.025244599
-0.023020873
-0.020631453
-0.018083621
-0.01538593
-0.012548154
-0.009580949
-0.0064958321
-0.003304801
-2.0363744e-05
0.0033448583
0.0067780445
0.010266583
0.013797939
0.017360049
0.020941173
0.024530245
0.028116761
0.031691006
0.035244086
0.038767865
0.04225536
0.045700088
0.049097255
0.052441892
0.05573174
0.058962932
0.062136517
0.065248991
0.068306707
0.071305428
0.074261871
0.077169576
0.08006784
0.082945485
0.08589202
0.088884356
0.092120431
0.095537279
0.099557082
0.10397444
0.10966529
0.1159554
0.12468111
0.13377769
0.14737833
0.15957978
0.18067075
0.19455835
0.22771497
0.24077825
0.28449731
-0.00020213158
2.3126466e-05
-0.00036186184
-0.00023933691
-0.00055370452
-0.00054853192
-0.00082253494
-0.0009165465
-0.0011849551
-0.0013629134
-0.0016530534
-0.0019072858
-0.0022392389
-0.0025679694
-0.0029565422
-0.0033615698
-0.0038179175
-0.004302802
-0.004835461
-0.0054038619
-0.0060183438
-0.006672315
-0.0073705339
-0.0081091941
-0.0088896698
-0.0097108448
-0.010575087
-0.011475945
-0.012410927
-0.013362173
-0.01434554
-0.015381028
-0.016435953
-0.017497008
-0.018575414
-0.019667486
-0.020767541
-0.021873389
-0.022980162
-0.024084407
-0.025181396
-0.026267029
-0.027336761
-0.02838631
-0.029411256
-0.030407262
-0.031369926
-0.032294811
-0.033177372
-0.034012916
-0.034796549
-0.035523102
-0.036187099
-0.036782679
-0.037303574
-0.037743077
-0.038094031
-0.038348847
-0.038499547
-0.038537828
-0.038455159
-0.038242918
-0.037892534
-0.037395683
-0.036744469
-0.035931667
-0.034950909
-0.033796925
-0.032465715
-0.03095475
-0.029263056
-0.027391357
-0.025342038
-0.023119198
-0.0207285
-0.01817715
-0.015473629
-0.012627664
-0.0096498664
-0.0065517417
-0.003345271
-4.2992686e-05
0.0033424701
0.0067982465
0.010311681
0.013870154
0.017461547
0.021074031
0.024696512
0.028318438
0.031930146
0.035522794
0.039088442
0.042620317
0.046112358
0.049560165
0.052959537
0.05630891
0.059605785
0.062852298
0.066047267
0.069198545
0.072305693
0.075386999
0.078441908
0.081509925
0.08458844
0.087761648
0.091018071
0.094534974
0.098265625
0.10257595
0.10729141
0.11315657
0.11958476
0.12811477
0.13697115
0.14952525
0.1608758
0.17884395
0.19117146
0.21483925
0.22589346
0.2439607
-0.00031566485
5.9150268e-05
-0.00041038504
-0.00023159007
-0.000573008
-0.00054794271
-0.00082750563
-0.00091418801
-0.0011807519
-0.001355034
-0.0016410556
-0.001892206
-0.0022194318
-0.00254475
-0.0029283982
-0.0033293969
-0.0037804585
-0.00426018
-0.0047863306
-0.0053478059
-0.0059542406
-0.0065996298
-0.0072903412
-0.0080229374
-0.0087996251
-0.0096147111
-0.010464609
-0.011343537
-0.012262431
-0.013235859
-0.014238608
-0.015251536
-0.016289711
-0.017352262
-0.018429916
-0.019520033
-0.020619185
-0.021724308
-0.022831411
-0.023936805
-0.025036153
-0.026125386
-0.027200162
-0.028256274
-0.029289421
-0.030295332
-0.031269668
-0.032208023
-0.033105861
-0.033958466
-0.034760888
-0.035507874
-0.03619382
-0.03681271
-0.037358084
-0.03782301
-0.038200077
-0.038481418
-0.038658756
-0.038723475
-0.038666717
-0.038479536
-0.038153032
-0.037678564
-0.037047928
-0.036253608
-0.035288959
-0.034148455
-0.032827861
-0.031324431
-0.029636996
-0.027766105
-0.025713993
-0.02348464
-0.021083613
-0.018518068
-0.015796466
-0.012928578
-0.0099250805
-0.0067976321
-0.0035583783
-0.00022010424
0.0032042841
0.0067015589
0.010258747
0.013862847
0.017501427
0.021162285
0.024834046
0.028505818
0.032167708
0.035810578
0.039426331
0.043007954
0.046549352
0.050046013
0.053493944
0.056891553
0.060236869
0.063532107
0.066777263
0.069980384
0.073143466
0.076285023
0.079409233
0.082555159
0.085728703
0.089010126
0.092401808
0.096065104
0.099974136
0.10444632
0.10934176
0.11528116
0.1217636
0.13004067
0.13862503
0.15020274
0.16087094
0.17657618
0.18828801
0.20759076
0.2188956
0.23120556
-0.00047902028
9.8311321e-05
-0.00048269967
-0.00023205399
-0.00060862048
-0.00055774243
-0.00084557363
-0.00092249888
-0.0011882678
-0.0013576902
-0.0016397789
-0.0018868585
-0.0022087414
-0.0025292047
-0.0029063366
-0.0033010264
-0.003744274
-0.0042166031
-0.0047349068
-0.0052890679
-0.0058880041
-0.006526353
-0.007206707
-0.0079258259
-0.0086797351
-0.0094735836
-0.010317682
-0.011207581
-0.012130537
-0.013074515
-0.014049771
-0.01505851
-0.016090658
-0.017139623
-0.018206057
-0.01928643
-0.020377106
-0.02147518
-0.022576594
-0.023677935
-0.024775042
-0.025864073
-0.026940889
-0.028001459
-0.029041637
-0.03005727
-0.031044103
-0.031997766
-0.032913717
-0.033787185
-0.034613113
-0.035386089
-0.036100303
-0.036749484
-0.03732687
-0.037825192
-0.038236667
-0.038553031
-0.038765589
-0.038865298
-0.03884287
-0.038688932
-0.038394169
-0.03794954
-0.037346462
-0.03657706
-0.035634353
-0.034512503
-0.033206981
-0.031714768
-0.030034435
-0.028166297
-0.026112363
-0.023876425
-0.021463876
-0.018881755
-0.01613843
-0.013243661
-0.010208149
-0.0070436837
-0.0037625568
-0.00037786196
0.0030972766
0.0066492791
0.010264802
0.013930383
0.017633164
0.021360447
0.025100467
0.028841888
0.032574554
0.036289037
0.039977199
0.043632008
0.047247613
0.050819652
0.054344676
0.057821547
0.061249386
0.064631155
0.067968608
0.071270667
0.074541951
0.077801331
0.081056546
0.084344777
0.087676239
0.091123063
0.094692477
0.098523276
0.10259665
0.10717756
0.11214609
0.11801005
0.12434113
0.13214265
0.14017572
0.15051463
0.16005322
0.1730559
0.18293243
0.19686341
0.20544
0.21160891
-0.00067565939
0.00014863184
-0.00055983505
-0.00022191334
-0.00063947064
-0.00055647735
-0.00085402018
-0.0009171951
-0.0011812153
-0.0013425025
-0.0016186915
-0.0018588033
-0.0021731565
-0.0024863942
-0.0028552506
-0.003242157
-0.0036766587
-0.0041396623
-0.0046465041
-0.0051876482
-0.0057705428
-0.0063890643
-0.007052241
-0.0077586991
-0.0085143838
-0.0093095476
-0.010136239
-0.010997714
-0.011895841
-0.012833372
-0.013801497
-0.014793096
-0.015810056
-0.016849623
-0.017907594
-0.018981081
-0.020066784
-0.021161707
-0.022262348
-0.023365349
-0.024466952
-0.025563472
-0.026651033
-0.02772574
-0.028783585
-0.029820469
-0.030832149
-0.031814203
-0.032761973
-0.033670509
-0.034534513
-0.035348272
-0.03610562
-0.036799878
-0.037423833
-0.037969731
-0.038429275
-0.03879367
-0.03905368
-0.039199724
-0.039221983
-0.039110569
-0.038855673
-0.03844779
-0.037877896
-0.037137709
-0.036219869
-0.03511819
-0.033827811
-0.03234542
-0.030669307
-0.028799551
-0.026737939
-0.024488104
-0.022055309
-0.01944655
-0.016670196
-0.013736129
-0.010655206
-0.0074395419
-0.0041017571
-0.0006553983
0.0028858137
0.0065075501
0.010195839
0.013936447
0.017715896
0.021520744
0.025338662
0.029157642
0.032967056
0.036756898
0.040518655
0.044244786
0.047929206
0.051567364
0.055155991
0.058693916
0.062180691
0.065619398
0.069012779
0.072369919
0.075697198
0.079013419
0.082329214
0.085680414
0.089081653
0.092599575
0.096247711
0.10014851
0.10429286
0.10890451
0.1138853
0.11964942
0.12583812
0.13324841
0.14087373
0.15030882
0.15915574
0.17049241
0.17959592
0.19098899
0.19878586
0.20293577
-0.00088438922
0.00020406192
-0.00064820573
-0.00021723003
-0.00067803941
-0.00055878944
-0.00086646697
-0.00091382521
-0.0011765699
-0.0013285776
-0.0015989753
-0.0018311048
-0.0021372992
-0.0024416342
-0.0028001623
-0.0031757191
-0.0035965058
-0.0040458993
-0.0045395053
-0.0050683665
-0.0056411295
-0.0062545886
-0.0069082482
-0.0075979212
-0.0083264447
-0.0090943652
-0.0099041275
-0.010753482
-0.011637666
-0.012552003
-0.013497896
-0.014473684
-0.015475435
-0.016499299
-0.017543622
-0.018605412
-0.019681819
-0.020770069
-0.021866892
-0.022969226
-0.024073588
-0.025176555
-0.026274488
-0.02736367
-0.028440228
-0.029500127
-0.030539127
-0.031552734
-0.032536146
-0.033484198
-0.034391304
-0.035251397
-0.036057893
-0.036803642
-0.037480907
-0.038081374
-0.038596156
-0.039015844
-0.039330582
-0.039530166
-0.039604159
-0.039542076
-0.039333531
-0.038968468
-0.038437344
-0.037731394
-0.0368428
-0.035764961
-0.034492625
-0.03302213
-0.031351441
-0.029480363
-0.027410437
-0.025145122
-0.022689544
-0.02005067
-0.017236877
-0.014258205
-0.01112571
-0.007851882
-0.0044497274
-0.00093355979
0.0026825105
0.0063835522
0.010154882
0.01398143
0.017848955
0.021743111
0.025650865
0.02955938
0.033457486
0.037334561
0.041181857
0.04499172
0.048758253
0.052476792
0.056144315
0.059759861
0.063323779
0.06683956
0.070311006
0.073747558
0.077156977
0.080557618
0.083961597
0.087402037
0.090894753
0.094498433
0.09822736
0.10218513
0.1063649
0.11095013
0.11585591
0.12141304
0.12731788
0.13418837
0.14120229
0.14954174
0.15734881
0.1667409
0.17436941
0.18291628
0.18896213
0.19153181
-0.0010867965
0.00026301968
-0.00072468384
-0.00019672638
-0.00070407668
-0.00054724759
-0.00086635774
-0.00089550107
-0.0011558782
-0.0012958928
-0.0015585996
-0.0017801486
-0.0020762876
-0.0023699056
-0.0027173839
-0.0030825026
-0.0034936679
-0.0039323215
-0.0044120914
-0.0049252185
-0.0054789387
-0.0060693235
-0.0067016904
-0.0073739646
-0.0080887177
-0.0088418831
-0.00963134
-0.01045709
-0.011318815
-0.012216071
-0.01314528
-0.014103166
-0.015088681
-0.016099354
-0.017132602
-0.018185953
-0.01925678
-0.020342519
-0.021440323
-0.022547344
-0.023660462
-0.024776464
-0.025891954
-0.02700335
-0.028106881
-0.029198524
-0.030273987
-0.031328643
-0.03235748
-0.033355047
-0.034315399
-0.035232039
-0.036097889
-0.03690525
-0.037645788
-0.038310549
-0.038889978
-0.039373979
-0.039751994
-0.04001312
-0.040146228
-0.040140159
-0.039983872
-0.039666694
-0.039178489
-0.038509944
-0.037652727
-0.036599772
-0.035345394
-0.033885561
-0.032217901
-0.030341955
-0.028259044
-0.025972512
-0.023487412
-0.020810781
-0.017951114
-0.014918755
-0.011725064
-0.0083831386
-0.004906487
-0.0013099015
0.002391511
0.0061815442
0.010044681
0.013964732
0.01792667
0.021915127
0.025916379
0.02991671
0.033904419
0.03786816
0.041798774
0.045687781
0.049528773
0.053316946
0.057049651
0.0607259
0.064346293
0.067914437
0.071434936
0.074917233
0.078370211
0.08181189
0.085255819
0.088733386
0.092262167
0.095895409
0.099649621
0.10361455
0.10778772
0.11232128
0.11714497
0.12252306
0.12820445
0.13466628
0.14125238
0.14883564
0.15600805
0.16421444
0.17110418
0.17817229
0.18344191
0.1852189
-0.0012675713
0.00031710217
-0.00080065914
-0.00018130005
-0.00073028335
-0.00053444454
-0.00086330377
-0.00087346857
-0.0011317704
-0.0012595721
-0.0015151464
-0.0017260077
-0.0020122249
-0.0022943591
-0.0026294465
-0.0029806727
-0.0033758806
-0.0037984721
-0.0042625105
-0.0047601942
-0.0052986908
-0.005874423
-0.0064895547
-0.0071416211
-0.0078326691
-0.0085620331
-0.0093304296
-0.010136464
-0.010978206
-0.011853473
-0.012761688
-0.013701075
-0.014669581
-0.015664805
-0.016685034
-0.017728037
-0.018791645
-0.019873603
-0.020971395
-0.022082482
-0.023204036
-0.0243331
-0.025466495
-0.026600793
-0.027732318
-0.02885707
-0.029970708
-0.031068475
-0.032145151
-0.033195
-0.034211716
-0.035188366
-0.03611737
-0.036990464
-0.037798692
-0.038532434
-0.039181427
-0.039734841
-0.040181363
-0.040509327
-0.04070684
-0.040761991
-0.040663002
-0.040398493
-0.039957651
-0.03933053
-0.038508201
-0.037483061
-0.036248927
-0.034801346
-0.033137564
-0.031256842
-0.029160263
-0.026851063
-0.024334231
-0.021616912
-0.01870774
-0.015617403
-0.012357661
-0.0089421501
-0.0053849232
-0.0017024337
0.0020899472
0.0059755476
0.0099377899
0.013959369
0.018024249
0.022115829
0.026219488
0.030320337
0.034405945
0.038463976
0.04248485
0.046460217
0.050384251
0.05425168
0.058059621
0.061807072
0.065495444
0.069128506
0.07271133
0.076253472
0.079764386
0.083261231
0.086757883
0.090282882
0.093853434
0.097515859
0.10128563
0.10523766
0.10936966
0.11380404
0.11847955
0.12360158
0.12895937
0.13490991
0.14092574
0.14762745
0.15394751
0.16083105
0.16665722
0.17219695
0.17643914
0.17775679
-0.0014182969
0.00037041858
-0.0008600192
-0.00015593479
-0.00074367699
-0.00051052695
-0.00084823085
-0.00083843131
-0.0010931621
-0.0012068482
-0.0014535305
-0.0016517152
-0.0019264607
-0.0021957732
-0.0025179641
-0.0028558353
-0.003237252
-0.003644915
-0.0040923086
-0.0045719018
-0.0050905952
-0.0056450642
-0.0062392539
-0.0068713777
-0.0075431939
-0.008252769
-0.0089997938
-0.0097836683
-0.010603965
-0.011459836
-0.012349652
-0.013271695
-0.014224758
-0.015207146
-0.016217183
-0.017253087
-0.018312984
-0.019394928
-0.02049677
-0.021616239
-0.022750826
-0.023897794
-0.025054179
-0.026216681
-0.027381708
-0.02854526
-0.02970293
-0.030849814
-0.031980472
-0.033088863
-0.034168303
-0.035211407
-0.03621007
-0.037155436
-0.038037901
-0.03884714
-0.039572142
-0.040201293
-0.040722469
-0.041123178
-0.041390696
-0.041512285
-0.041475355
-0.041267743
-0.040877879
-0.040295114
-0.039509852
-0.038513899
-0.037300525
-0.035864825
-0.034203645
-0.03231597
-0.03020266
-0.027866887
-0.025313629
-0.022550212
-0.019585503
-0.016430674
-0.013097841
-0.0096017378
-0.0059571069
-0.0021800121
0.0017125452
0.0057014878
0.0097694627
0.013897724
0.018069442
0.022266745
0.026474325
0.030676254
0.034859679
0.039011569
0.043122261
0.047181896
0.05118317
0.055120946
0.058993536
0.062799946
0.066541283
0.070221362
0.073846176
0.077424913
0.080967732
0.084491295
0.088009928
0.091550354
0.095130057
0.098790454
0.10254726
0.10646431
0.11054118
0.1148773
0.11942156
0.1243336
0.12944046
0.13500756
0.14061861
0.14670872
0.15247934
0.15852404
0.16373162
0.16838361
0.17203716
0.17299423
-0.0015395593
0.00041661332
-0.00091064617
-0.00013216111
-0.00075279241
-0.00048420764
-0.00082857109
-0.0007989901
-0.0010496283
-0.0011490871
-0.0013867741
-0.0015719706
-0.0018348882
-0.0020905049
-0.0023985748
-0.0027210721
-0.0030861502
-0.0034769785
-0.0039071908
-0.0043693386
-0.0048701445
-0.0054062839
-0.0059807232
-0.0065917713
-0.0072412067
-0.007928318
-0.0086536785
-0.0094164859
-0.010216082
-0.011051404
-0.011921864
-0.012826352
-0.013763755
-0.0147327
-0.01573201
-0.016760247
-0.017815947
-0.018897504
-0.020003114
-0.021130815
-0.022278388
-0.023443344
-0.024622928
-0.025813992
-0.027013039
-0.028216098
-0.029418718
-0.030615877
-0.031801939
-0.032970592
-0.034114793
-0.035226728
-0.036297778
-0.037318505
-0.038278648
-0.039167166
-0.039972272
-0.040681532
-0.04128196
-0.041760181
-0.042102561
-0.042295462
-0.04232539
-0.04217931
-0.041844802
-0.041310423
-0.040565821
-0.039602133
-0.038412006
-0.03699003
-0.035332597
-0.033438392
-0.031308018
-0.028944596
-0.026353071
-0.023541015
-0.02051749
-0.017294179
-0.013883887
-0.010301565
-0.0065622559
-0.002686438
0.0013093869
0.0054071688
0.0095877176
0.013830791
0.018118349
0.022430909
0.026752158
0.031064584
0.035354444
0.039606899
0.043811071
0.047958217
0.052043483
0.056060435
0.060005614
0.06387762
0.067679324
0.071414563
0.075088885
0.078711788
0.082293535
0.085849633
0.089394303
0.092951511
0.096537766
0.10018874
0.10391852
0.10777965
0.11177115
0.11597124
0.12033522
0.12498307
0.12977073
0.13488821
0.1400053
0.14541415
0.1505205
0.15567571
0.1601409
0.16393507
0.166976
0.16777172
-0.0016308378
0.00045940763
-0.00094476422
-0.00010193945
-0.0007494541
-0.00044830703
-0.00079719589
-0.00074791361
-0.00099306484
-0.0010773887
-0.0013048921
-0.0014760486
-0.0017262684
-0.0019675391
-0.0022612569
-0.0025685075
-0.0029177479
-0.0032917381
-0.0037040262
-0.0041472311
-0.0046281047
-0.005143586
-0.0056972233
-0.0062876172
-0.0069164678
-0.0075828232
-0.0082871392
-0.0090290162
-0.0098084367
-0.010624918
-0.011477855
-0.012366478
-0.013290107
-0.014247857
-0.015238824
-0.016261975
-0.017316177
-0.018400161
-0.019512466
-0.020651426
-0.021815121
-0.023001303
-0.02420743
-0.02543051
-0.026667148
-0.027913409
-0.029164812
-0.030416231
-0.031661848
-0.032895089
-0.034108567
-0.035294041
-0.03644238
-0.037543556
-0.038586639
-0.039559847
-0.040450581
-0.041245546
-0.041930835
-0.042492125
-0.042914804
-0.043184252
-0.043285985
-0.043206012
-0.042930972
-0.042448547
-0.041747547
-0.040818373
-0.039652985
-0.038245425
-0.036591591
-0.034689857
-0.032540565
-0.030146796
-0.027513517
-0.024648539
-0.021561276
-0.018264032
-0.014769585
-0.011095526
-0.0072584657
-0.0032740486
0.00083539442
0.005048374
0.009346365
0.013707658
0.018113621
0.02254321
0.026979484
0.031403626
0.035801567
0.040158195
0.044462937
0.048702142
0.052867982
0.056954989
0.060964202
0.064894556
0.068746381
0.072523369
0.076233292
0.079884317
0.083487208
0.08705717
0.090608091
0.094162387
0.09773609
0.10136077
0.10504995
0.10884771
0.11275383
0.11683034
0.12103965
0.12547157
0.13000825
0.13478334
0.1395378
0.14445978
0.14910954
0.15366761
0.15764711
0.1608861
0.16351019
0.16411811
-0.0016977523
0.00049533173
-0.00096872282
-7.2270485e-05
-0.00074031701
-0.00040965921
-0.00076057694
-0.00069227599
-0.00093097972
-0.0010001439
-0.0012169834
-0.0013737534
-0.0016107467
-0.0018369698
-0.0021154703
-0.0024063915
-0.0027387145
-0.0030951455
-0.0034893856
-0.0039140656
-0.0043758698
-0.0048717421
-0.0054049738
-0.0059743321
-0.0065816449
-0.0072264901
-0.0079097078
-0.00863103
-0.009390577
-0.010188037
-0.011023315
-0.011896046
-0.012805861
-0.013752243
-0.014734687
-0.015752526
-0.016805011
-0.017891224
-0.019010052
-0.020160148
-0.021339894
-0.02254731
-0.023780085
-0.025035412
-0.02631003
-0.027600075
-0.028901076
-0.03020784
-0.031514406
-0.032813975
-0.034098847
-0.035360378
-0.036588947
-0.037773942
-0.038903757
-0.039965855
-0.040946798
-0.041832382
-0.042607726
-0.04325749
-0.043766001
-0.044117567
-0.044296617
-0.044288101
-0.04407761
-0.043651851
-0.042998691
-0.042107708
-0.040970082
-0.039579246
-0.037930531
-0.03602197
-0.033853586
-0.031428454
-0.028751468
-0.025830881
-0.022676188
-0.019300418
-0.01571827
-0.011944987
-0.0079999357
-0.0039051589
0.00032246448
0.004659291
0.0090848918
0.013575195
0.018110289
0.022666964
0.027227324
0.031770572
0.036282051
0.040744752
0.045148568
0.049481885
0.053739272
0.057911227
0.06199272
0.065982866
0.069888326
0.073713134
0.077461599
0.081143579
0.084769978
0.088354162
0.091910318
0.095458183
0.099012818
0.10260128
0.10623547
0.10995125
0.11374781
0.11767266
0.12169297
0.12587324
0.13011592
0.13451025
0.13885284
0.14325625
0.14739903
0.15135284
0.15481468
0.15754423
0.15978641
0.16032242
-0.0017424118
0.00052760945
-0.00097885073
-3.8137791e-05
-0.00072023202
-0.00036310658
-0.00071346065
-0.00062667596
-0.00085754363
-0.00091115206
-0.0011163731
-0.0012581533
-0.001481278
-0.001692018
-0.0019550088
-0.0022294429
-0.0025447508
-0.0028833103
-0.0032589269
-0.0036642387
-0.004106033
-0.0045814282
-0.005093958
-0.0056425746
-0.0062291581
-0.006853352
-0.0075161133
-0.0082174642
-0.0089579034
-0.0097374931
-0.010556376
-0.011414542
-0.012311976
-0.013248564
-0.014224136
-0.015238408
-0.016290978
-0.017381284
-0.018508558
-0.019671781
-0.020869646
-0.022100453
-0.023362141
-0.024652108
-0.025967249
-0.027303802
-0.028657327
-0.030022597
-0.031393535
-0.032763138
-0.034123417
-0.03546534
-0.036778798
-0.038052594
-0.039274436
-0.040431002
-0.041507979
-0.042490203
-0.043361757
-0.044106211
-0.044706743
-0.045146499
-0.045408717
-0.045477191
-0.045336354
-0.044971844
-0.044370484
-0.043520946
-0.042413548
-0.041041059
-0.039398182
-0.037482586
-0.035293952
-0.032835323
-0.030111639
-0.027131329
-0.02390466
-0.020445128
-0.016767248
-0.012891054
-0.0088330962
-0.0046157347
-0.00026028141
0.004207973
0.008767751
0.01339286
0.018062606
0.022751559
0.027441178
0.032108631
0.036738831
0.041313057
0.045820434
0.050246804
0.054586068
0.058831686
0.062983634
0.067037039
0.07099096
0.07485057
0.07862868
0.082330779
0.085967699
0.089554052
0.093102414
0.09663175
0.10015634
0.10369997
0.10727395
0.11090788
0.11460141
0.11839108
0.12224914
0.12622116
0.1302273
0.13432408
0.13835244
0.14237044
0.14614313
0.14966606
0.1527572
0.15512432
0.15707482
0.15750236
-0.0017703748
0.00055461827
-0.00098008886
-3.9017257e-06
-0.00069418146
-0.0003135781
-0.00066085642
-0.00055637801
-0.00077825493
-0.00081630344
-0.0010092349
-0.0011356835
-0.0013443509
-0.00153905
-0.0017858779
-0.0020431681
-0.0023408739
-0.0026611748
-0.0030180468
-0.0034041045
-0.0038261587
-0.0042813646
-0.0047732433
-0.0053009063
-0.0058663819
-0.0064696175
-0.0071118234
-0.0077932381
-0.0085145894
-0.0092761999
-0.010078574
-0.010922051
-0.011806958
-0.012733549
-0.013702025
-0.014712477
-0.015764881
-0.016859042
-0.017994558
-0.019170756
-0.020386666
-0.021640896
-0.022931666
-0.024256616
-0.025612838
-0.026996711
-0.028403876
-0.029829111
-0.031266265
-0.032708175
-0.034146589
-0.035572118
-0.036974178
-0.038340993
-0.039659576
-0.040915801
-0.042094438
-0.043179316
-0.04415341
-0.044999117
-0.045698372
-0.046233054
-0.046585093
-0.046737007
-0.046671947
-0.046374363
-0.045829909
-0.045026256
-0.043952744
-0.042601407
-0.040966226
-0.03904448
-0.036835412
-0.034342122
-0.031569323
-0.028526405
-0.025222628
-0.021674418
-0.017896393
-0.013907705
-0.009727962
-0.0053818742
-0.00089023248
0.0037190961
0.0084237077
0.013194512
0.018009771
0.022841184
0.027669493
0.032469272
0.037225169
0.04191641
0.046532555
0.051058658
0.055489182
0.059814642
0.064033827
0.068145185
0.072154796
0.076059763
0.079866268
0.083587003
0.08723514
0.090820239
0.094357344
0.097862446
0.10134918
0.10483815
0.10833917
0.11187634
0.11544881
0.1190838
0.12275716
0.12649923
0.13024422
0.13402424
0.13771529
0.14133859
0.14472586
0.14782923
0.15055438
0.1526007
0.15430115
0.15468862
-0.0017836779
0.00057890579
-0.00097064677
3.381865e-05
-0.00065890544
-0.00025740445
-0.00059905337
-0.00047747696
-0.00068901475
-0.00071130997
-0.00089108721
-0.00100178
-0.0011953958
-0.0013736572
-0.0016039258
-0.001843753
-0.0021235221
-0.002425157
-0.0027627876
-0.0031290239
-0.0035307906
-0.0039653631
-0.0044364119
-0.0049432005
-0.0054878696
-0.0060705183
-0.0066925342
-0.0073544088
-0.0080571628
-0.0088014297
-0.0095880039
-0.010417563
-0.011290777
-0.012208268
-0.013170596
-0.01417823
-0.015231516
-0.016330638
-0.017475563
-0.018665987
-0.019901292
-0.021180421
-0.022501901
-0.023863647
-0.025262981
-0.026696461
-0.028159845
-0.029647954
-0.031154598
-0.032672483
-0.034193126
-0.035706791
-0.037202434
-0.038667698
-0.040088882
-0.041451031
-0.042737951
-0.043932406
-0.045016186
-0.045970432
-0.046775729
-0.04741258
-0.047861484
-0.048103567
-0.048120566
-0.047895631
-0.047413124
-0.046659617
-0.04562337
-0.044295617
-0.042669535
-0.040741983
-0.038511733
-0.035981858
-0.033157183
-0.030046669
-0.026662536
-0.023019648
-0.019133309
-0.01502568
-0.010715922
-0.0062309419
-0.0015932936
0.0031664467
0.0080249016
0.012949857
0.017918867
0.022900388
0.027874738
0.032813457
0.037701081
0.042514242
0.047242541
0.051868932
0.056388475
0.060791533
0.06507838
0.069245166
0.073295594
0.077235456
0.081071478
0.084806382
0.088453389
0.092030524
0.095547391
0.099020738
0.10246363
0.10589382
0.10932121
0.11276519
0.11622556
0.1197224
0.12323531
0.1267834
0.13031274
0.13383773
0.13726151
0.14057915
0.14366993
0.14645673
0.14890117
0.15070098
0.15219536
0.15251537
-0.0017863089
0.00059971786
-0.00095414549
7.2245717e-05
-0.0006180416
-0.00019803643
-0.00053175224
-0.00039374173
-0.0005937516
-0.00060025222
-0.00076612787
-0.00086072393
-0.0010386804
-0.001200023
-0.0014131677
-0.0016350318
-0.0018964035
-0.0021790262
-0.0024971817
-0.0028434633
-0.0032248604
-0.0036387081
-0.0040887453
-0.0045743824
-0.0050979103
-0.0056596539
-0.0062612164
-0.006903321
-0.0075872358
-0.0083138713
-0.0090843391
-0.0098996491
-0.010760814
-0.011668823
-0.012624606
-0.013629021
-0.014682804
-0.015786534
-0.016940577
-0.018145019
-0.019399626
-0.020703713
-0.022056152
-0.023455175
-0.024898381
-0.026382557
-0.027903622
-0.029456492
-0.031034985
-0.032631718
-0.034238009
-0.035843808
-0.037437625
-0.039006525
-0.040536083
-0.042010487
-0.043412536
-0.044723866
-0.045924999
-0.046995724
-0.047915158
-0.048662308
-0.049216098
-0.049556124
-0.049662555
-0.049517108
-0.049102699
-0.04840469
-0.047410118
-0.046109344
-0.044494616
-0.042562356
-0.04031072
-0.037742898
-0.03486322
-0.031682554
-0.028212253
-0.02446818
-0.02046663
-0.016230934
-0.011781612
-0.0071482041
-0.0023537512
0.0025677587
0.0075921496
0.012683269
0.017818049
0.022960901
0.028091931
0.03317896
0.03820682
0.043149124
0.04799628
0.052729142
0.057343685
0.061828313
0.066184195
0.070407491
0.074504381
0.078475933
0.082331706
0.086082356
0.089732929
0.093294834
0.09678699
0.10022244
0.10361336
0.10697641
0.11031951
0.11365918
0.11699471
0.12034068
0.12367949
0.12702173
0.13032315
0.13358583
0.13673474
0.13974903
0.14254488
0.14503217
0.14721235
0.14879862
0.15012165
0.15041542
-0.0017795807
0.00061889432
-0.00092963773
0.0001136888
-0.00056952414
-0.00013291971
-0.00045642648
-0.00030244443
-0.00048966758
-0.00048021915
-0.00063137575
-0.00070950385
-0.00087120518
-0.0010152203
-0.001210769
-0.0014142645
-0.0016567992
-0.0019199595
-0.0022181578
-0.0025439987
-0.0029045728
-0.0032973147
-0.0037260835
-0.0041904303
-0.0046927802
-0.0052336317
-0.0058147784
-0.006437181
-0.0071023699
-0.0078115438
-0.0085661127
-0.009367415
-0.010216805
-0.011115639
-0.01206522
-0.013066798
-0.014121507
-0.015230339
-0.016394071
-0.017613208
-0.018887928
-0.020217946
-0.02160252
-0.023040239
-0.024529022
-0.026065927
-0.027647086
-0.029267553
-0.030921196