/*--------------------------------*- C++ -*----------------------------------*\
| =========                 |                                                 |
| \\      /  F ield         | foam-extend: Open Source CFD                    |
|  \\    /   O peration     | Version:     4.1                                |
|   \\  /    A nd           | Web:         http://www.foam-extend.org         |
|    \\/     M anipulation  |                                                 |
\*---------------------------------------------------------------------------*/
FoamFile
{
    version     2.0;
    format      ascii;
    class       surfaceScalarField;
    location    "1.9";
    object      phi;
}
// * * * * * * * * * * * * * * * * * * * * * * * * * * * * * * * * * * * * * //

dimensions      [0 3 -1 0 0 0 0];

internalField   nonuniform List<scalar> 
31929
(
-3.563164e-05
-8.5483502e-09
-3.5603284e-05
-2.8355976e-08
-3.5583936e-05
-1.9347431e-08
-3.5551475e-05
-3.2461075e-08
-3.5518623e-05
-3.2852344e-08
-3.5478175e-05
-4.0447683e-08
-3.5433431e-05
-4.4743857e-08
-3.5383265e-05
-5.0166397e-08
-3.5327641e-05
-5.5624249e-08
-3.5267185e-05
-6.0455559e-08
-3.5201127e-05
-6.6057531e-08
-3.5130351e-05
-7.077668e-08
-3.5054192e-05
-7.6159172e-08
-3.4973417e-05
-8.0774948e-08
-3.4887668e-05
-8.5748585e-08
-3.4797594e-05
-9.0073763e-08
-3.4703153e-05
-9.4440834e-08
-3.4604968e-05
-9.8185871e-08
-3.4503287e-05
-1.0168086e-07
-3.4398798e-05
-1.0448824e-07
-3.4292031e-05
-1.0676699e-07
-3.418383e-05
-1.0820135e-07
-3.4075029e-05
-1.0880153e-07
-3.3966706e-05
-1.0832299e-07
-3.3859938e-05
-1.0676769e-07
-3.3756016e-05
-1.0392187e-07
-3.3656269e-05
-9.9746483e-08
-3.3562102e-05
-9.4167471e-08
-3.3475286e-05
-8.6815961e-08
-3.3397629e-05
-7.7656711e-08
-3.3330716e-05
-6.6913099e-08
-3.3275711e-05
-5.5005023e-08
-3.3234871e-05
-4.0839667e-08
-3.321131e-05
-2.3561698e-08
-3.3208078e-05
-3.2319384e-09
-3.322778e-05
1.9702517e-08
-3.3270264e-05
4.2483654e-08
-3.3334874e-05
6.4609814e-08
-3.3422157e-05
8.7282932e-08
-3.3532889e-05
1.1073194e-07
-3.366794e-05
1.3505162e-07
-3.382806e-05
1.6012021e-07
-3.4013854e-05
1.8579384e-07
-3.4225749e-05
2.1189449e-07
-3.4463989e-05
2.382405e-07
-3.4728631e-05
2.6464185e-07
-3.5019537e-05
2.9090544e-07
-3.5336375e-05
3.1683839e-07
-3.5678624e-05
3.4224875e-07
-3.6045575e-05
3.6695163e-07
-3.6436345e-05
3.9076929e-07
-3.684988e-05
4.1353536e-07
-3.7284976e-05
4.3509619e-07
-3.774029e-05
4.5531369e-07
-3.8214354e-05
4.7406463e-07
-3.8705599e-05
4.9124426e-07
-3.9212363e-05
5.0676453e-07
-3.9732918e-05
5.2055448e-07
-4.0265477e-05
5.3255912e-07
-4.0808215e-05
5.4273802e-07
-4.1359276e-05
5.5106091e-07
-4.1916783e-05
5.575075e-07
-4.2478845e-05
5.6206207e-07
-4.3043556e-05
5.6471113e-07
-4.3608996e-05
5.6544019e-07
-4.4173229e-05
5.6423252e-07
-4.4734298e-05
5.6106935e-07
-4.5290228e-05
5.5593004e-07
-4.5839027e-05
5.4879918e-07
-4.6378699e-05
5.3967196e-07
-4.6907263e-05
5.2856346e-07
-4.7422783e-05
5.1551983e-07
-4.7923412e-05
5.0062916e-07
-4.8407442e-05
4.840304e-07
-4.8873365e-05
4.6592279e-07
-4.9319935e-05
4.4656969e-07
-4.9746232e-05
4.2629746e-07
-5.0151725e-05
4.0549315e-07
-5.0536318e-05
3.8459334e-07
-5.0900393e-05
3.6407447e-07
-5.124483e-05
3.4443667e-07
-5.1571024e-05
3.2619396e-07
-5.1880878e-05
3.098549e-07
-5.2176798e-05
2.9591961e-07
-5.2461661e-05
2.8486325e-07
-5.2738801e-05
2.7714008e-07
-5.3011973e-05
2.7317195e-07
-5.3285334e-05
2.7336045e-07
-5.3563411e-05
2.7807696e-07
-5.3851094e-05
2.8768354e-07
-5.4153615e-05
3.025212e-07
-5.4476556e-05
3.2294051e-07
-5.4825842e-05
3.4928609e-07
-5.5207787e-05
3.8194466e-07
-5.5629105e-05
4.2131812e-07
-5.6097013e-05
4.67908e-07
-5.6619277e-05
5.2226416e-07
-5.7204428e-05
5.8515114e-07
-5.786187e-05
6.574422e-07
-5.8602337e-05
7.4046708e-07
-5.9438134e-05
8.3579693e-07
-6.0384113e-05
9.4597865e-07
-6.145819e-05
1.0740777e-06
-6.2683422e-05
1.2252316e-06
-6.4089015e-05
1.4055936e-06
-6.5714565e-05
1.6255492e-06
-6.7611683e-05
1.8971186e-06
-6.9852093e-05
2.2404093e-06
-7.2529092e-05
2.6769993e-06
-7.5771729e-05
3.2426374e-06
-7.9742267e-05
3.9705382e-06
-8.4658875e-05
4.9166077e-06
-9.0778042e-05
6.1191675e-06
-9.8429844e-05
7.6518016e-06
-0.00010796112
9.5312786e-06
-0.00011979889
1.1837766e-05
-0.00013430654
1.4507652e-05
-0.00015193684
1.7630302e-05
-0.00017287462
2.0937778e-05
-0.00019751813
2.4643515e-05
-0.00022529907
2.7780938e-05
-0.0002568392
3.1540126e-05
-0.00028729998
3.0460777e-05
3.5280624e-05
-0.00010442965
-2.3582805e-08
-0.00010438461
-7.3392497e-08
-0.00010434116
-6.2801473e-08
-0.00010428006
-9.3558735e-08
-0.00010421299
-9.9926544e-08
-0.00010413342
-1.2000839e-07
-0.000104045
-1.3316655e-07
-0.00010394611
-1.4905422e-07
-0.00010383756
-1.6417836e-07
-0.00010371935
-1.786681e-07
-0.00010359151
-1.9389229e-07
-0.00010345453
-2.0775621e-07
-0.00010330842
-2.2226946e-07
-0.00010315382
-2.3537574e-07
-0.00010299098
-2.4859231e-07
-0.00010282068
-2.6036818e-07
-0.00010264353
-2.7159724e-07
-0.00010246054
-2.8117184e-07
-0.00010227272
-2.8950187e-07
-0.00010208142
-2.9578589e-07
-0.00010188809
-3.0009752e-07
-0.00010169449
-3.0180411e-07
-0.00010150254
-3.007539e-07
-0.00010131447
-2.9639089e-07
-0.00010113276
-2.8848128e-07
-0.00010096038
-2.7630215e-07
-0.00010080065
-2.5947651e-07
-0.00010065698
-2.378304e-07
-0.00010053281
-2.1098546e-07
-0.00010043162
-1.7884555e-07
-0.00010035902
-1.3951361e-07
-0.00010032236
-9.1671177e-08
-0.00010032755
-3.5646141e-08
-0.00010038016
2.9043379e-08
-0.00010047935
9.595868e-08
-0.00010062255
1.6290777e-07
-0.00010081305
2.3297888e-07
-0.00010105413
3.0569552e-07
-0.00010134843
3.8158323e-07
-0.00010169817
4.60471e-07
-0.00010210525
5.4212557e-07
-0.00010257118
6.2605475e-07
-0.00010309709
7.1170709e-07
-0.00010368363
7.9843347e-07
-0.00010433094
8.8554661e-07
-0.00010503862
9.7231821e-07
-0.00010580571
1.0579983e-06
-0.0001066307
1.1418294e-06
-0.00010751151
1.2230567e-06
-0.0001084455
1.3009494e-06
-0.00010942955
1.3748115e-06
-0.00011046001
1.4439998e-06
-0.00011153285
1.5079356e-06
-0.00011264366
1.5661212e-06
-0.00011378774
1.6181435e-06
-0.00011496018
1.6636889e-06
-0.00011615596
1.7025432e-06
-0.00011737
1.7345935e-06
-0.00011859726
1.7598234e-06
-0.00011983283
1.778309e-06
-0.00012107197
1.7901992e-06
-0.00012231017
1.7957092e-06
-0.00012354321
1.7950982e-06
-0.00012476715
1.7886521e-06
-0.00012597838
1.7766657e-06
-0.00012717357
1.759428e-06
-0.00012834972
1.7372145e-06
-0.00012950407
1.7102781e-06
-0.00013063413
1.6788612e-06
-0.00013173766
1.6432056e-06
-0.00013281267
1.6035745e-06
-0.00013385743
1.5602805e-06
-0.00013487052
1.5137178e-06
-0.00013585088
1.4643873e-06
-0.00013679788
1.4129266e-06
-0.00013771144
1.3601257e-06
-0.00013859207
1.3069297e-06
-0.00013944101
1.2544374e-06
-0.0001402603
1.2038788e-06
-0.00014105282
1.1565911e-06
-0.00014182236
1.1139821e-06
-0.00014257367
1.0775029e-06
-0.00014331242
1.0486013e-06
-0.00014404521
1.0287098e-06
-0.00014477955
1.0192073e-06
-0.00014552383
1.0214219e-06
-0.00014628727
1.036608e-06
-0.00014707988
1.0659693e-06
-0.00014791245
1.110646e-06
-0.00014879652
1.171758e-06
-0.0001497444
1.2503983e-06
-0.00015076915
1.3476941e-06
-0.00015188467
1.4648035e-06
-0.00015310573
1.6030089e-06
-0.00015444812
1.7637038e-06
-0.00015592875
1.9485406e-06
-0.00015756588
2.15939e-06
-0.00015937933
2.3986036e-06
-0.00016139079
2.6688977e-06
-0.00016362417
2.9738473e-06
-0.00016610598
3.3176147e-06
-0.0001688659
3.7058968e-06
-0.00017193711
4.1452816e-06
-0.00017535701
4.6451357e-06
-0.00017916745
5.2160335e-06
-0.0001834154
5.8735046e-06
-0.00018815252
6.6342372e-06
-0.00019343553
7.5234198e-06
-0.00019932406
8.5655265e-06
-0.0002058802
9.7987727e-06
-0.00021316273
1.1253074e-05
-0.00022122534
1.2979215e-05
-0.00023010404
1.4997872e-05
-0.00023981438
1.7362141e-05
-0.00025032585
2.0042745e-05
-0.00026156224
2.3074156e-05
-0.00027334682
2.6292234e-05
-0.00028542507
2.9708548e-05
-0.00029732971
3.2842426e-05
-0.00030850347
3.5817272e-05
-0.00031795053
3.7227999e-05
-0.00032461592
3.8205509e-05
-0.00032737857
3.3223431e-05
3.0482654e-05
-0.00016622935
-3.8166286e-08
-0.0001661799
-1.2283724e-07
-0.00016612864
-1.1406529e-07
-0.0001660593
-1.6289997e-07
-0.00016598229
-1.7693834e-07
-0.00016589213
-2.101677e-07
-0.0001657926
-2.3269944e-07
-0.00016568191
-2.5974111e-07
-0.00016556161
-2.8447656e-07
-0.00016543133
-3.0894572e-07
-0.00016529192
-3.3330782e-07
-0.00016514363
-3.5604384e-07
-0.00016498721
-3.7868943e-07
-0.00016482332
-3.9926598e-07
-0.00016465287
-4.1904534e-07
-0.00016447687
-4.3636032e-07
-0.00016429657
-4.5190577e-07
-0.00016411337
-4.6437104e-07
-0.00016392892
-4.7394514e-07
-0.00016374514
-4.7956576e-07
-0.00016356421
-4.8103264e-07
-0.00016338865
-4.7736624e-07
-0.00016322138
-4.6802127e-07
-0.00016306568
-4.5208708e-07
-0.00016292509
-4.2907493e-07
-0.00016280339
-3.9799956e-07
-0.00016270464
-3.5822889e-07
-0.00016263358
-3.0888406e-07
-0.00016259673
-2.4784464e-07
-0.00016260152
-1.7405002e-07
-0.00016265352
-8.7519704e-08
-0.00016275893
1.3742209e-08
-0.00016291729
1.2271413e-07
-0.00016312377
2.3552766e-07
-0.00016338297
3.5515535e-07
-0.00016370145
4.8138593e-07
-0.00016408363
6.1516181e-07
-0.0001645336
7.5566779e-07
-0.00016505437
9.0235517e-07
-0.00016564842
1.0545148e-06
-0.00016631764
1.2113462e-06
-0.00016706336
1.3717753e-06
-0.00016788627
1.5346179e-06
-0.00016878636
1.6985269e-06
-0.00016976289
1.8620766e-06
-0.00017081435
2.0237696e-06
-0.00017193842
2.1820748e-06
-0.00017313205
2.3354615e-06
-0.00017439142
2.4824244e-06
-0.000175712
2.621529e-06
-0.00017708863
2.7514392e-06
-0.00017851558
2.870953e-06
-0.00017998668
2.9790301e-06
-0.00018149538
3.0748236e-06
-0.00018303492
3.1576865e-06
-0.00018459843
3.227198e-06
-0.00018617905
3.2831598e-06
-0.00018777005
3.3255945e-06
-0.00018936496
3.3547308e-06
-0.00019095764
3.3709886e-06
-0.00019254237
3.3749362e-06
-0.00019411393
3.3672701e-06
-0.0001956676
3.3487678e-06
-0.0001971992
3.3202517e-06
-0.00019870509
3.2825507e-06
-0.00020018213
3.2364703e-06
-0.00020162769
3.1827775e-06
-0.0002030396
3.1221808e-06
-0.00020441608
3.0553505e-06
-0.00020575581
2.9829345e-06
-0.00020705783
2.9055936e-06
-0.0002083216
2.8240482e-06
-0.00020954701
2.7391304e-06
-0.00021073445
2.6518239e-06
-0.00021188484
2.5633125e-06
-0.00021299971
2.4750052e-06
-0.00021408133
2.3885412e-06
-0.00021513268
2.3057875e-06
-0.0002161576
2.2288069e-06
-0.00021716083
2.1598178e-06
-0.00021814799
2.1011408e-06
-0.00021912564
2.0551539e-06
-0.00022010126
2.0242195e-06
-0.00022108321
2.010661e-06
-0.0002220807
2.0166986e-06
-0.00022310373
2.0444491e-06
-0.00022416301
2.0958847e-06
-0.0002252699
2.172861e-06
-0.00022643634
2.2770924e-06
-0.00022767479
2.4102083e-06
-0.00022899814
2.5737417e-06
-0.00023041965
2.7692033e-06
-0.00023195292
2.9980797e-06
-0.00023361186
3.2619421e-06
-0.00023541059
3.5624333e-06
-0.00023736347
3.9014288e-06
-0.00023948508
4.280995e-06
-0.00024179014
4.7036617e-06
-0.00024429353
5.1722906e-06
-0.00024701024
5.6905602e-06
-0.0002499553
6.2626749e-06
-0.00025314365
6.8942479e-06
-0.00025658999
7.5916156e-06
-0.00026030841
8.3635629e-06
-0.00026431204
9.2196561e-06
-0.00026861214
1.0173608e-05
-0.00027321724
1.1239341e-05
-0.00027813132
1.24375e-05
-0.00028335192
1.3786117e-05
-0.00028886662
1.5313473e-05
-0.00029464983
1.7036291e-05
-0.00030065675
1.8986129e-05
-0.00030681876
2.1159884e-05
-0.00031303468
2.3578063e-05
-0.0003191658
2.6173863e-05
-0.00032502604
2.8934396e-05
-0.00033037717
3.1643362e-05
-0.00033492498
3.4256363e-05
-0.00033831083
3.6228277e-05
-0.00034012834
3.7634783e-05
-0.00033994451
3.7044167e-05
-0.00033718727
3.5448269e-05
-0.00033227524
2.8311395e-05
2.0788218e-05
-0.00021806557
-4.2349083e-08
-0.00021802777
-1.6063323e-07
-0.00021798788
-1.5395734e-07
-0.00021793236
-2.1842221e-07
-0.0002178704
-2.3889712e-07
-0.00021779765
-2.8291661e-07
-0.00021771777
-3.1257774e-07
-0.00021762931
-3.4820441e-07
-0.00021753417
-3.7962046e-07
-0.00021743209
-4.1102077e-07
-0.00021732441
-4.4098456e-07
-0.00021721155
-4.6890614e-07
-0.00021709474
-4.9549692e-07
-0.00021697489
-5.1911739e-07
-0.0002168534
-5.4053935e-07
-0.00021673162
-5.5814206e-07
-0.00021661129
-5.7223796e-07
-0.00021649427
-5.813863e-07
-0.00021638277
-5.8544168e-07
-0.0002162792
-5.8313748e-07
-0.00021618628
-5.7394966e-07
-0.00021610698
-5.5666587e-07
-0.00021604455
-5.3045128e-07
-0.00021600251
-4.9413133e-07
-0.00021598477
-4.4681265e-07
-0.00021599624
-3.8652791e-07
-0.0002160426
-3.1187151e-07
-0.0002161294
-2.22084e-07
-0.00021626102
-1.1622174e-07
-0.00021644249
7.4130151e-09
-0.00021667331
1.4329764e-07
-0.00021694804
2.8847289e-07
-0.00021727084
4.4551927e-07
-0.00021764985
6.1453909e-07
-0.00021809118
7.9648759e-07
-0.00021860039
9.9059165e-07
-0.00021918088
1.1956484e-06
-0.00021983565
1.4104408e-06
-0.00022056718
1.63389e-06
-0.00022137728
1.8646078e-06
-0.00022226705
2.1011192e-06
-0.00022323689
2.3416108e-06
-0.00022428642
2.5841475e-06
-0.00022541447
2.8265817e-06
-0.00022661907
3.066672e-06
-0.0002278974
3.3021003e-06
-0.00022924585
3.5305318e-06
-0.00023066006
3.7496706e-06
-0.00023213494
3.9573007e-06
-0.00023366476
4.1513543e-06
-0.00023524328
4.3299545e-06
-0.00023686379
4.4914649e-06
-0.00023851929
4.6345263e-06
-0.00024020256
4.758099e-06
-0.00024190634
4.8614641e-06
-0.0002436234
4.9442538e-06
-0.00024534667
5.0064377e-06
-0.00024706939
5.0483111e-06
-0.00024878513
5.0704653e-06
-0.0002504879
5.0737595e-06
-0.00025217221
5.0592526e-06
-0.00025383311
5.0281717e-06
-0.00025546619
4.9818432e-06
-0.00025706758
4.9216419e-06
-0.00025863397
4.8489398e-06
-0.00026016257
4.7650672e-06
-0.00026165108
4.6712963e-06
-0.00026309772
4.5688159e-06
-0.00026450113
4.4587618e-06
-0.00026586043
4.3422389e-06
-0.00026717521
4.2203663e-06
-0.00026844549
4.0943351e-06
-0.00026967184
3.965474e-06
-0.00027085531
3.8352928e-06
-0.00027199754
3.7055411e-06
-0.00027310077
3.5782352e-06
-0.00027416788
3.4556597e-06
-0.00027520246
3.3403618e-06
-0.00027620876
3.2351093e-06
-0.00027719178
3.1428382e-06
-0.00027815722
3.0665832e-06
-0.00027911149
3.0094218e-06
-0.00028006165
2.9743745e-06
-0.00028101536
2.964377e-06
-0.00028198085
2.9821912e-06
-0.0002829668
3.0303977e-06
-0.00028398225
3.111335e-06
-0.00028503652
3.227128e-06
-0.00028613908
3.379647e-06
-0.00028729944
3.5705702e-06
-0.00028852706
3.8013625e-06
-0.00028983121
4.0733549e-06
-0.00029122087
4.3877382e-06
-0.00029270461
4.7456802e-06
-0.00029429048
5.1483099e-06
-0.00029598593
5.5968787e-06
-0.00029779765
6.0927151e-06
-0.00029973148
6.6374851e-06
-0.00030179224
7.2330596e-06
-0.00030398364
7.8819548e-06
-0.00030630802
8.5870562e-06
-0.00030876615
9.3523771e-06
-0.00031135695
1.0182415e-05
-0.00031407699
1.1083606e-05
-0.00031692008
1.2062748e-05
-0.00031987626
1.3129785e-05
-0.00032293105
1.4294134e-05
-0.00032606353
1.5569977e-05
-0.00032924508
1.6967669e-05
-0.00033243588
1.8504274e-05
-0.00033558336
2.0183769e-05
-0.00033861652
2.2019283e-05
-0.00034144548
2.398885e-05
-0.00034395398
2.6086563e-05
-0.00034600395
2.8223833e-05
-0.00034742792
3.0358369e-05
-0.00034804688
3.2262317e-05
-0.00034766389
3.3873372e-05
-0.00034611774
3.468213e-05
-0.00034325353
3.4770577e-05
-0.00033915441
3.2945042e-05
-0.00033377786
3.0071725e-05
-0.0003284474
2.298093e-05
1.4921418e-05
-0.00025880234
-2.4682511e-08
-0.00025879377
-1.6920318e-07
-0.0002587847
-1.6302662e-07
-0.00025876482
-2.3830549e-07
-0.00025874162
-2.6209181e-07
-0.00025871196
-3.1258133e-07
-0.00025867908
-3.4545758e-07
-0.00025864201
-3.8526876e-07
-0.00025860275
-4.1888347e-07
-0.00025856133
-4.5244181e-07
-0.00025851934
-4.8297771e-07
-0.00025847744
-5.1080318e-07
-0.00025843719
-5.3574787e-07
-0.00025839974
-5.5656321e-07
-0.00025836682
-5.7346502e-07
-0.00025834002
-5.849391e-07
-0.00025832135
-5.9090873e-07
-0.00025831285
-5.898876e-07
-0.00025831688
-5.814146e-07
-0.00025833593
-5.640816e-07
-0.0002583728
-5.3708236e-07
-0.00025843057
-4.9889246e-07
-0.00025851289
-4.4813124e-07
-0.00025862371
-3.8331455e-07
-0.00025876704
-3.0348476e-07
-0.00025894656
-2.0700008e-07
-0.00025916586
-9.2572753e-08
-0.00025942807
4.0127033e-08
-0.000259732
1.8770009e-07
-0.00026007431
3.4972549e-07
-0.00026045935
5.2833562e-07
-0.00026089451
7.2363591e-07
-0.00026138591
9.3692391e-07
-0.00026193942
1.168041e-06
-0.00026255821
1.4152853e-06
-0.00026324492
1.6772961e-06
-0.00026400211
1.9528364e-06
-0.00026483181
2.2401421e-06
-0.00026573538
2.5374633e-06
-0.00026671347
2.842694e-06
-0.00026776597
3.1536209e-06
-0.00026889203
3.4676683e-06
-0.00027009003
3.7821482e-06
-0.00027135759
4.09415e-06
-0.00027269161
4.4006876e-06
-0.00027408824
4.6987287e-06
-0.00027554298
4.9852708e-06
-0.00027705072
5.2574157e-06
-0.00027860584
5.5124179e-06
-0.00028020226
5.7477707e-06
-0.00028183356
5.9612534e-06
-0.00028349308
6.1509865e-06
-0.00028517402
6.3154694e-06
-0.00028686955
6.4536241e-06
-0.00028857287
6.5647843e-06
-0.00029027734
6.6487247e-06
-0.00029197653
6.7056343e-06
-0.00029366431
6.7360931e-06
-0.00029533488
6.7410295e-06
-0.0002969828
6.7216834e-06
-0.00029860307
6.6795189e-06
-0.00030019109
6.6161888e-06
-0.0003017427
6.5334548e-06
-0.00030325419
6.4331306e-06
-0.00030472227
6.3170279e-06
-0.00030614412
6.1869161e-06
-0.00030751734
6.0445101e-06
-0.00030883996
5.8914436e-06
-0.00031011051
5.7293083e-06
-0.00031132795
5.5596789e-06
-0.00031249175
5.3841614e-06
-0.00031360187
5.2044547e-06
-0.00031465881
5.0224174e-06
-0.00031566362
4.8401083e-06
-0.00031661793
4.6598437e-06
-0.00031752391
4.4842209e-06
-0.00031838436
4.31611e-06
-0.00031920265
4.1586445e-06
-0.0003199827
4.0151672e-06
-0.00032072904
3.8891701e-06
-0.00032144666
3.7842101e-06
-0.00032214109
3.7038493e-06
-0.00032281825
3.6515339e-06
-0.00032348443
3.6305618e-06
-0.00032414621
3.6439695e-06
-0.00032481034
3.6945265e-06
-0.00032548366
3.7846531e-06
-0.00032617299
3.9164562e-06
-0.00032688501
4.0916688e-06
-0.00032762616
4.3117245e-06
-0.00032840252
4.5777231e-06
-0.00032921969
4.8905217e-06
-0.00033008267
5.2507212e-06
-0.00033099579
5.6587951e-06
-0.00033196255
6.1150693e-06
-0.00033298556
6.619886e-06
-0.00033406641
7.1735651e-06
-0.00033520558
7.7766557e-06
-0.00033640232
8.4298078e-06
-0.00033765453
9.1341654e-06
-0.0003389586
9.8911177e-06
-0.00034030915
1.0702929e-05
-0.00034169889
1.1572156e-05
-0.0003431181
1.2502818e-05
-0.00034455432
1.3498964e-05
-0.00034599141
1.4566873e-05
-0.00034740903
1.5711758e-05
-0.00034878098
1.694193e-05
-0.00035007454
1.8261227e-05
-0.00035124777
1.9677503e-05
-0.00035224947
2.118547e-05
-0.00035301554
2.2785355e-05
-0.00035347163
2.4444938e-05
-0.00035352926
2.6144196e-05
-0.00035309564
2.7790208e-05
-0.00035206986
2.9332587e-05
-0.00035036778
3.0560239e-05
-0.00034791153
3.1417122e-05
-0.00034469171
3.1462307e-05
-0.00034070112
3.077999e-05
-0.00033616476
2.8408679e-05
-0.00033112273
2.5029701e-05
-0.00032664781
1.8506004e-05
1.0854211e-05
-0.00028887842
2.4292836e-08
-0.00028891323
-1.3438989e-07
-0.00028895015
-1.2611423e-07
-0.00028898226
-2.0619384e-07
-0.00028901463
-2.2972089e-07
-0.00028904536
-2.8184889e-07
-0.00028907713
-3.1368993e-07
-0.00028910951
-3.5288314e-07
-0.00028914442
-3.8397621e-07
-0.00028918215
-4.1470962e-07
-0.00028922436
-4.4076975e-07
-0.00028927188
-4.6328777e-07
-0.00028932634
-4.8128219e-07
-0.00028938902
-4.938875e-07
-0.00028946168
-5.0080366e-07
-0.00028954597
-5.0064594e-07
-0.00028964394
-4.9294203e-07
-0.0002897577
-4.7612804e-07
-0.00028988967
-4.4943942e-07
-0.00029004238
-4.1137279e-07
-0.00029021859
-3.6087067e-07
-0.0002904211
-2.9638456e-07
-0.00029065271
-2.1652018e-07
-0.00029091618
-1.1984655e-07
-0.00029121461
-5.0536589e-09
-0.00029154851
1.2689958e-07
-0.0002919167
2.7561175e-07
-0.00029231969
4.4312244e-07
-0.00029276203
6.3003485e-07
-0.00029324939
8.3709194e-07
-0.00029378671
1.0656544e-06
-0.0002943791
1.3160208e-06
-0.00029502907
1.586899e-06
-0.00029573836
1.8773255e-06
-0.00029650921
2.1861431e-06
-0.00029734354
2.5116269e-06
-0.00029824252
2.8518075e-06
-0.00029920674
3.204365e-06
-0.00030023617
3.5668977e-06
-0.00030133009
3.9366074e-06
-0.00030248707
4.310602e-06
-0.00030370501
4.6856107e-06
-0.00030498116
5.058302e-06
-0.00030631215
5.4251414e-06
-0.00030769404
5.78257e-06
-0.00030912235
6.127039e-06
-0.00031059217
6.455094e-06
-0.00031209821
6.7634594e-06
-0.00031363488
7.0490862e-06
-0.00031519636
7.3092434e-06
-0.00031677666
7.5415628e-06
-0.00031836977
7.7440903e-06
-0.00031996962
7.9153172e-06
-0.00032157021
8.0542199e-06
-0.00032316566
8.1602342e-06
-0.00032475022
8.2332826e-06
-0.00032631832
8.273736e-06
-0.00032786461
8.2823837e-06
-0.00032938397
8.260383e-06
-0.0003308715
8.2092221e-06
-0.00033232261
8.1306231e-06
-0.00033373293
8.0265123e-06
-0.00033509842
7.8989389e-06
-0.00033641531
7.7500214e-06
-0.00033768018
7.5818979e-06
-0.00033888995
7.3966899e-06
-0.00034004194
7.1964976e-06
-0.00034113387
6.9833712e-06
-0.00034216391
6.759357e-06
-0.00034313076
6.5265201e-06
-0.00034403358
6.28699e-06
-0.00034487215
6.0430172e-06
-0.00034564676
5.7970333e-06
-0.00034635833
5.5516812e-06
-0.00034700835
5.3098635e-06
-0.00034759889
5.0747571e-06
-0.00034813257
4.8497913e-06
-0.00034861256
4.6386345e-06
-0.00034904252
4.4451257e-06
-0.00034942656
4.2732115e-06
-0.0003497692
4.1268477e-06
-0.00035007529
4.0099409e-06
-0.00035034996
3.9262e-06
-0.00035059852
3.8791215e-06
-0.0003508264
3.8718555e-06
-0.00035103908
3.9072003e-06
-0.00035124193
3.9875022e-06
-0.00035144017
4.1147044e-06
-0.00035163877
4.290266e-06
-0.0003518423
4.5152566e-06
-0.00035205488
4.7903022e-06
-0.00035228006
5.1156987e-06
-0.00035252072
5.4913831e-06
-0.00035277901
5.9170847e-06
-0.00035305625
6.3923069e-06
-0.00035335286
6.9164983e-06
-0.0003536683
7.4890078e-06
-0.00035400098
8.1093295e-06
-0.00035434815
8.7769844e-06
-0.00035470587
9.491877e-06
-0.00035506882
1.0254069e-05
-0.00035543019
1.10643e-05
-0.0003557815
1.1923468e-05
-0.00035611225
1.2833564e-05
-0.00035640968
1.3796396e-05
-0.00035665811
1.481531e-05
-0.00035683866
1.5892308e-05
-0.00035692804
1.7031306e-05
-0.00035689841
1.82316e-05
-0.00035671564
1.9494728e-05
-0.00035634001
2.0809838e-05
-0.00035572404
2.2169384e-05
-0.00035481606
2.3536958e-05
-0.00035355794
2.4886082e-05
-0.00035189537
2.6127637e-05
-0.00034977442
2.7211632e-05
-0.00034716617
2.7951994e-05
-0.00034405194
2.8302886e-05
-0.00034048754
2.7897908e-05
-0.00033652409
2.6816541e-05
-0.00033243386
2.4318455e-05
-0.00032832253
2.0918365e-05
-0.00032501632
1.5199803e-05
8.4184871e-06
-0.00030979358
1.1049272e-07
-0.00030987864
-4.9329783e-08
-0.00030996716
-3.7594517e-08
-0.00031005697
-1.1638425e-07
-0.00031015048
-1.3621439e-07
-0.00031024703
-1.8530321e-07
-0.00031034843
-2.1228865e-07
-0.00031045465
-2.4666357e-07
-0.00031056731
-2.7131182e-07
-0.00031068692
-2.9509918e-07
-0.00031081504
-3.1264599e-07
-0.00031095261
-3.2572645e-07
-0.00031110122
-3.3267059e-07
-0.00031126218
-3.3292915e-07
-0.00031143724
-3.2574462e-07
-0.00031162803
-3.0984932e-07
-0.00031183649
-2.8448422e-07
-0.0003120645
-2.4811904e-07
-0.0003123142
-1.9973881e-07
-0.0003125878
-1.3777202e-07
-0.0003128876
-6.106815e-08
-0.0003132156
3.1616504e-08
-0.0003135726
1.4048084e-07
-0.00031395919
2.6674101e-07
-0.00031437616
4.1191472e-07
-0.00031482638
5.7711766e-07
-0.00031531411
7.6333977e-07
-0.00031584267
9.7168239e-07
-0.00031641618
1.20355e-06
-0.00031703837
1.4592805e-06
-0.00031771105
1.7383346e-06
-0.00031843539
2.0403645e-06
-0.00031921317
2.3646768e-06
-0.00032004588
2.7100302e-06
-0.00032093423
3.0744944e-06
-0.00032187845
3.455848e-06
-0.00032287832
3.8516791e-06
-0.00032393305
4.2590935e-06
-0.00032504125
4.6751004e-06
-0.00032620093
5.0962822e-06
-0.0003274095
5.5191736e-06
-0.00032866383
5.9399453e-06
-0.00032996032
6.3547853e-06
-0.0003312949
6.7597249e-06
-0.00033266317
7.1508419e-06
-0.00033406042
7.5242928e-06
-0.00033548173
7.8763965e-06
-0.00033692199
8.2037202e-06
-0.00033837602
8.5031155e-06
-0.00033983858
8.7718096e-06
-0.00034130446
9.0074383e-06
-0.00034276846
9.2080881e-06
-0.00034422546
9.3723184e-06
-0.00034567043
9.4991947e-06
-0.00034709845
9.5882496e-06
-0.00034850468
9.6395098e-06
-0.00034988439
9.6534516e-06
-0.00035123298
9.6309694e-06
-0.00035254592
9.5733268e-06
-0.00035381882
9.4821253e-06
-0.00035504741
9.3592073e-06
-0.00035622754
9.2066398e-06
-0.00035735523
9.0266383e-06
-0.00035842674
8.8215231e-06
-0.00035943852
8.5936776e-06
-0.00036038734
8.3455188e-06
-0.00036127035
8.0794994e-06
-0.00036208505
7.7980777e-06
-0.00036282946
7.5037655e-06
-0.00036350209
7.1991457e-06
-0.00036410201
6.8869083e-06
-0.00036462889
6.5698983e-06
-0.00036508301
6.2511614e-06
-0.00036546529
5.9339607e-06
-0.00036577724
5.6218095e-06
-0.00036602096
5.3184749e-06
-0.00036619911
5.0279395e-06
-0.00036631485
4.7543827e-06
-0.00036637183
4.5020971e-06
-0.00036637404
4.2754279e-06
-0.00036632585
4.0786521e-06
-0.00036623185
3.9159398e-06
-0.00036609683
3.7911868e-06
-0.00036592572
3.708005e-06
-0.00036572342
3.6695604e-06
-0.00036549481
3.6785913e-06
-0.0003652446
3.7372872e-06
-0.00036497725
3.8473617e-06
-0.00036469693
4.0099472e-06
-0.0003644074
4.2257194e-06
-0.00036411191
4.4948194e-06
-0.00036381322
4.8170026e-06
-0.00036351342
5.1915885e-06
-0.00036321398
5.6176437e-06
-0.00036291562
6.0939454e-06
-0.00036261829
6.6191635e-06
-0.0003623211
7.191826e-06
-0.00036202235
7.8105736e-06
-0.0003617194
8.4740344e-06
-0.00036140867
9.1811454e-06
-0.00036108555
9.9309507e-06
-0.00036074428
1.0723035e-05
-0.00036037787
1.1557055e-05
-0.00035997779
1.2433478e-05
-0.00035953384
1.3352455e-05
-0.00035903368
1.4315151e-05
-0.00035846263
1.532125e-05
-0.00035780282
1.6371503e-05
-0.00035703338
1.7462153e-05
-0.00035612917
1.8590523e-05
-0.00035506197
1.9742641e-05
-0.00035379912
2.0906534e-05
-0.00035230721
2.2045043e-05
-0.00035055052
2.3129398e-05
-0.00034850032
2.4077431e-05
-0.00034613064
2.484195e-05
-0.00034343964
2.5261e-05
-0.00034043097
2.5294214e-05
-0.00033717074
2.4637674e-05
-0.00033370714
2.3352942e-05
-0.00033026461
2.0875932e-05
-0.00032692931
1.7583056e-05
-0.00032431307
1.2583565e-05
6.6862185e-06
-0.00032351938
2.3561513e-07
-0.00032365463
8.592691e-08
-0.0003237923
1.0006792e-07
-0.00032393625
2.7566179e-08
-0.00032408642
1.3959691e-08
-0.00032424346
-2.8264197e-08
-0.00032440834
-4.7409968e-08
-0.00032458132
-7.3686782e-08
-0.00032476368
-8.8950715e-08
-0.00032495604
-1.0273754e-07
-0.0003251598
-1.0888242e-07
-0.00032537591
-1.0961533e-07
-0.00032560587
-1.0271505e-07
-0.00032585092
-8.7875637e-08
-0.00032611269
-6.3972582e-08
-0.00032639269
-2.985596e-08
-0.00032669254
1.5365005e-08
-0.00032701354
7.2881915e-08
-0.00032735702
1.4374623e-07
-0.00032772435
2.2955044e-07
-0.00032811688
3.3146722e-07
-0.0003285362
4.5093517e-07
-0.00032898491
5.89195e-07
-0.00032946582
7.4764662e-07
-0.00032998134
9.2743583e-07
-0.00033053446
1.130233e-06
-0.00033112823
1.3571138e-06
-0.00033176502
1.6084687e-06
-0.00033244616
1.8846909e-06
-0.00033317277
2.1858889e-06
-0.00033394631
2.5118793e-06
-0.00033476794
2.8619989e-06
-0.00033563802
3.2347494e-06
-0.00033655633
3.6283469e-06
-0.00033752246
4.0406183e-06
-0.00033853546
4.4688553e-06
-0.00033959389
4.9101037e-06
-0.00034069574
5.3609413e-06
-0.0003418385
5.8178622e-06
-0.00034301916
6.2769439e-06
-0.00034423428
6.7342926e-06
-0.00034548002
7.1856826e-06
-0.00034675224
7.6270046e-06
-0.00034804656
8.0540516e-06
-0.00034935846
8.4627411e-06
-0.00035068331
8.8491383e-06
-0.00035201644
9.2095308e-06
-0.00035335323
9.5405087e-06
-0.0003546891
9.8389829e-06
-0.00035601956
1.0102269e-05
-0.00035734022
1.0328105e-05
-0.00035864682
1.0514683e-05
-0.00035993516
1.066066e-05
-0.00036120115
1.0765187e-05
-0.00036244076
1.0827857e-05
-0.00036364999
1.0848741e-05
-0.00036482488
1.0828337e-05
-0.00036596145
1.0767545e-05
-0.00036705575
1.0667629e-05
-0.00036810382
1.0530193e-05
-0.00036910171
1.0357095e-05
-0.00037004551
1.0150444e-05
-0.00037093142
9.9125406e-06
-0.00037175573
9.6458375e-06
-0.00037251497
9.3529137e-06
-0.0003732059
9.0364504e-06
-0.00037382564
8.6992379e-06
-0.0003743717
8.3441435e-06
-0.00037484209
7.9741575e-06
-0.00037523535
7.5924028e-06
-0.0003755506
7.2021571e-06
-0.00037578759
6.8068897e-06
-0.00037594672
6.4102871e-06
-0.00037602901
6.0162562e-06
-0.00037603614
5.6289359e-06
-0.00037597036
5.2526912e-06
-0.00037583447
4.8920541e-06
-0.00037563179
4.5517032e-06
-0.00037536605
4.2363615e-06
-0.00037504137
3.9507433e-06
-0.00037466214
3.6994176e-06
-0.00037423298
3.4867844e-06
-0.00037375865
3.3168526e-06
-0.00037324394
3.193295e-06
-0.00037269364
3.119268e-06
-0.00037211248
3.0974245e-06
-0.00037150496
3.1297757e-06
-0.0003708754
3.2177993e-06
-0.00037022776
3.3623024e-06
-0.00036956563
3.5635884e-06
-0.00036889215
3.8213435e-06
-0.00036820998
4.1348308e-06
-0.00036752119
4.5027977e-06
-0.00036682725
4.9237056e-06
-0.00036612901
5.3957029e-06
-0.00036542667
5.9168276e-06
-0.00036471978
6.4849342e-06
-0.00036400716
7.097952e-06
-0.00036328689
7.7537674e-06
-0.00036255629
8.4505398e-06
-0.00036181183
9.1864976e-06
-0.0003610491
9.9602993e-06
-0.00036026265
1.0770612e-05
-0.00035944587
1.1616697e-05
-0.00035859082
1.2497407e-05
-0.00035768789
1.3412219e-05
-0.00035672571
1.4359066e-05
-0.00035569055
1.5336342e-05
-0.00035456653
1.6338133e-05
-0.0003533348
1.7358794e-05
-0.00035197463
1.8382471e-05
-0.00035046245
1.939436e-05
-0.00034877517
2.0357755e-05
-0.00034688875
2.1242979e-05
-0.00034478641
2.1975095e-05
-0.00034245436
2.2509901e-05
-0.00033990136
2.2707995e-05
-0.00033714071
2.2533566e-05
-0.00033424311
2.1740074e-05
-0.00033126479
2.0374622e-05
-0.00032840778
1.8018926e-05
-0.00032576962
1.49449e-05
-0.00032377951
1.059345e-05
5.487309e-06
-0.00033202855
3.9588844e-07
-0.0003322081
2.6547288e-07
-0.00033239039
2.8235673e-07
-0.00033258256
2.1974225e-07
-0.00033278147
2.1286534e-07
-0.00033298917
1.7943416e-07
-0.00033320593
1.6934859e-07
-0.00033343276
1.5314207e-07
-0.00033367067
1.4896608e-07
-0.00033392044
1.4703492e-07
-0.00033418326
1.5393283e-07
-0.00033446
1.6712325e-07
-0.00033475191
1.8919574e-07
-0.00033506003
2.2024466e-07
-0.00033538566
2.6165408e-07
-0.00033572998
3.1446374e-07
-0.00033609443