/*--------------------------------*- C++ -*----------------------------------*\
| =========                 |                                                 |
| \\      /  F ield         | foam-extend: Open Source CFD                    |
|  \\    /   O peration     | Version:     4.1                                |
|   \\  /    A nd           | Web:         http://www.foam-extend.org         |
|    \\/     M anipulation  |                                                 |
\*---------------------------------------------------------------------------*/
FoamFile
{
    version     2.0;
    format      ascii;
    class       volScalarField;
    location    "1.9";
    object      rAU;
}
// * * * * * * * * * * * * * * * * * * * * * * * * * * * * * * * * * * * * * //

dimensions      [0 0 1 0 0 0 0];

internalField   nonuniform List<scalar> 
16126
(
0.00049558733
0.00049516836
0.00049516924
0.00049516985
0.00049517087
0.0004951719
0.00049517317
0.00049517458
0.00049517615
0.0004951779
0.00049517979
0.00049518187
0.00049518409
0.00049518649
0.00049518901
0.00049519171
0.00049519454
0.00049519751
0.00049520059
0.00049520379
0.00049520706
0.00049521042
0.00049521381
0.00049521724
0.00049522063
0.000495224
0.00049522726
0.0004952304
0.00049523335
0.00049523609
0.00049523852
0.00049524062
0.00049524236
0.00049524364
0.00049524439
0.00049524388
0.00049524255
0.00049524052
0.00049523779
0.0004952343
0.00049523007
0.00049522504
0.00049521921
0.00049521255
0.00049520507
0.00049519676
0.00049518762
0.00049517767
0.00049516692
0.0004951554
0.00049514313
0.00049513014
0.00049511647
0.00049510217
0.00049508729
0.00049507186
0.00049505595
0.00049503961
0.00049502289
0.00049500585
0.00049498855
0.00049497105
0.00049495342
0.00049493569
0.00049491795
0.00049490025
0.00049488265
0.00049486521
0.00049484799
0.00049483107
0.00049481449
0.00049479832
0.00049478262
0.00049476744
0.00049475283
0.00049473883
0.00049472546
0.00049471275
0.00049470069
0.00049468928
0.00049467848
0.00049466825
0.00049465854
0.00049464926
0.00049464033
0.00049463165
0.00049462308
0.00049461451
0.0004946058
0.00049459678
0.0004945873
0.00049457718
0.00049456623
0.00049455426
0.00049454105
0.00049452639
0.00049451003
0.00049449169
0.00049447109
0.0004944479
0.00049442172
0.00049439209
0.00049435845
0.00049432009
0.00049427608
0.0004942252
0.00049416583
0.00049409574
0.00049401201
0.00049391063
0.00049378655
0.000493633
0.00049344201
0.0004932034
0.00049290651
0.00049253826
0.00049208771
0.0004915413
0.00049089394
0.0004901342
0.00048928054
0.00048831498
0.00048738606
0.00048591085
0.00049436859
0.00049395127
0.00049395294
0.0004939539
0.00049395578
0.00049395765
0.00049395999
0.0004939626
0.0004939655
0.00049396876
0.00049397226
0.00049397612
0.00049398022
0.00049398465
0.00049398931
0.00049399428
0.00049399945
0.00049400489
0.00049401048
0.00049401628
0.00049402217
0.00049402819
0.0004940342
0.00049404023
0.00049404615
0.00049405193
0.00049405744
0.00049406263
0.00049406733
0.00049407152
0.00049407501
0.00049407766
0.00049407927
0.00049407874
0.00049407566
0.00049407056
0.00049406392
0.00049405568
0.00049404579
0.00049403411
0.00049402065
0.0004940053
0.00049398806
0.00049396892
0.00049394787
0.00049392493
0.00049390014
0.00049387356
0.00049384525
0.0004938153
0.00049378382
0.00049375092
0.00049371674
0.00049368143
0.00049364512
0.00049360799
0.00049357018
0.00049353186
0.00049349319
0.00049345433
0.00049341542
0.00049337661
0.00049333802
0.00049329978
0.000493262
0.00049322479
0.00049318824
0.00049315244
0.00049311747
0.00049308338
0.00049305025
0.00049301813
0.00049298706
0.00049295706
0.00049292815
0.00049290032
0.00049287355
0.00049284778
0.00049282294
0.00049279892
0.00049277559
0.00049275279
0.00049273032
0.00049270796
0.00049268547
0.00049266256
0.00049263895
0.0004926143
0.00049258827
0.00049256048
0.00049253056
0.00049249807
0.00049246259
0.00049242363
0.00049238071
0.00049233327
0.00049228074
0.00049222248
0.0004921578
0.00049208592
0.00049200597
0.00049191696
0.00049181778
0.00049170713
0.00049158353
0.00049144522
0.00049129027
0.00049111632
0.00049092092
0.0004907011
0.00049045407
0.00049017657
0.00048986639
0.00048952094
0.00048914077
0.00048872594
0.00048828396
0.00048782002
0.00048735661
0.00048690419
0.00048652221
0.00048620624
0.00048615526
0.00048575115
0.0004924402
0.00049202518
0.00049202702
0.00049202768
0.0004920296
0.00049203139
0.00049203375
0.00049203637
0.00049203931
0.00049204261
0.00049204615
0.00049205007
0.00049205419
0.00049205866
0.0004920633
0.00049206825
0.00049207333
0.00049207865
0.00049208405
0.0004920896
0.00049209514
0.00049210072
0.00049210617
0.00049211152
0.00049211657
0.00049212134
0.00049212561
0.00049212937
0.00049213239
0.00049213455
0.00049213561
0.00049213507
0.00049213019
0.00049212288
0.00049211279
0.00049210082
0.00049208683
0.0004920706
0.00049205213
0.00049203124
0.00049200799
0.00049198226
0.0004919541
0.00049192352
0.00049189056
0.00049185529
0.0004918178
0.00049177823
0.0004917367
0.00049169339
0.00049164847
0.00049160214
0.00049155462
0.00049150613
0.00049145687
0.00049140709
0.00049135699
0.0004913068
0.0004912567
0.00049120689
0.00049115755
0.00049110882
0.00049106084
0.00049101373
0.0004909676
0.00049092253
0.0004908786
0.00049083585
0.00049079435
0.00049075412
0.00049071519
0.00049067755
0.0004906412
0.00049060611
0.00049057224
0.0004905395
0.0004905078
0.00049047702
0.000490447
0.00049041755
0.00049038845
0.00049035945
0.00049033029
0.00049030066
0.00049027024
0.00049023866
0.00049020558
0.0004901706
0.00049013332
0.00049009332
0.00049005018
0.00049000345
0.00048995268
0.00048989741
0.00048983716
0.00048977145
0.00048969976
0.0004896216
0.00048953642
0.00048944365
0.00048934272
0.000489233
0.00048911386
0.00048898459
0.00048884448
0.00048869272
0.00048852858
0.00048835118
0.00048815987
0.00048795392
0.00048773321
0.00048749762
0.00048724863
0.00048698776
0.00048672013
0.00048645039
0.0004861907
0.0004859496
0.00048575241
0.00048560756
0.00048557048
0.00048562426
0.00048592343
0.00048589625
0.00049083459
0.00049042089
0.00049042229
0.00049042205
0.00049042329
0.00049042421
0.00049042572
0.00049042738
0.00049042931
0.00049043151
0.00049043387
0.00049043652
0.00049043926
0.00049044226
0.00049044531
0.00049044855
0.00049045179
0.00049045514
0.00049045842
0.00049046171
0.00049046482
0.00049046783
0.00049047053
0.00049047297
0.00049047495
0.00049047648
0.00049047732
0.00049047745
0.00049047663
0.00049047467
0.00049046753
0.00049045867
0.0004904454
0.00049043023
0.00049041299
0.00049039339
0.00049037143
0.00049034691
0.00049031991
0.00049029026
0.00049025807
0.00049022326
0.00049018596
0.0004901462
0.0004901041
0.0004900598
0.00049001345
0.00048996524
0.00048991537
0.00048986406
0.00048981155
0.00048975807
0.00048970388
0.00048964923
0.00048959436
0.0004895395
0.00048948488
0.00048943071
0.00048937716
0.00048932443
0.00048927265
0.00048922196
0.00048917246
0.00048912426
0.00048907742
0.00048903199
0.00048898805
0.00048894561
0.00048890468
0.00048886529
0.00048882742
0.00048879103
0.00048875611
0.00048872258
0.00048869034
0.0004886593
0.00048862931
0.00048860019
0.00048857178
0.00048854383
0.00048851611
0.00048848834
0.00048846024
0.0004884315
0.00048840181
0.00048837083
0.00048833823
0.00048830367
0.00048826681
0.00048822729
0.00048818481
0.00048813902
0.00048808961
0.00048803627
0.00048797871
0.00048791664
0.0004878498
0.00048777796
0.00048770086
0.00048761829
0.00048753006
0.00048743598
0.00048733589
0.00048722965
0.00048711715
0.0004869983
0.00048687311
0.00048674161
0.00048660412
0.00048646102
0.00048631339
0.00048616243
0.00048601097
0.00048586191
0.00048572142
0.00048559496
0.00048549443
0.00048542709
0.00048541423
0.00048545825
0.0004855999
0.00048581067
0.00048618799
0.0004861897
0.00048958085
0.00048916757
0.00048916799
0.00048916633
0.00048916627
0.00048916567
0.00048916563
0.00048916558
0.00048916572
0.00048916599
0.00048916631
0.00048916677
0.0004891672
0.00048916775
0.0004891682
0.0004891687
0.00048916905
0.00048916938
0.00048916948
0.00048916946
0.00048916912
0.00048916855
0.00048916755
0.00048916618
0.00048916419
0.00048916169
0.00048915844
0.00048915329
0.00048914395
0.00048913329
0.0004891173
0.00048909952
0.0004890797
0.00048905754
0.00048903306
0.00048900605
0.00048897662
0.00048894461
0.00048891015
0.00048887311
0.00048883369
0.00048879185
0.00048874777
0.00048870158
0.00048865343
0.00048860351
0.00048855204
0.00048849924
0.00048844536
0.00048839064
0.00048833534
0.00048827971
0.00048822399
0.00048816845
0.00048811329
0.00048805875
0.000488005
0.00048795223
0.0004879006
0.00048785026
0.0004878013
0.00048775385
0.00048770798
0.00048766377
0.00048762127
0.00048758052
0.00048754156
0.00048750442
0.0004874691
0.00048743559
0.00048740389
0.00048737394
0.00048734571
0.0004873191
0.00048729402
0.00048727034
0.0004872479
0.00048722652
0.000487206
0.00048718611
0.00048716661
0.00048714723
0.00048712771
0.00048710776
0.0004870871
0.00048706545
0.00048704252
0.00048701805
0.00048699178
0.00048696345
0.00048693286
0.00048689977
0.00048686401
0.0004868254
0.00048678382
0.00048673915
0.00048669128
0.00048664018
0.0004865858
0.00048652813
0.0004864672
0.00048640305
0.00048633576
0.00048626545
0.00048619228
0.00048611645
0.00048603828
0.00048595814
0.00048587672
0.00048579477
0.0004857137
0.00048563507
0.00048556178
0.00048549668
0.00048544522
0.00048541175
0.00048540566
0.00048543117
0.00048550398
0.00048562187
0.00048581418
0.00048605368
0.00048640404
0.00048636746
0.00048865974
0.00048824701
0.00048824609
0.00048824271
0.00048824096
0.00048823847
0.00048823648
0.00048823433
0.00048823228
0.00048823023
0.0004882281
0.000488226
0.00048822374
0.00048822148
0.00048821901
0.00048821648
0.00048821369
0.00048821076
0.00048820751
0.00048820405
0.00048820017
0.00048819599
0.00048819132
0.00048818627
0.00048818062
0.00048817064
0.00048815937
0.00048814591
0.00048812787
0.0004881081
0.00048808622
0.0004880622
0.00048803591
0.00048800719
0.00048797619
0.00048794272
0.00048790695
0.00048786876
0.00048782836
0.00048778568
0.00048774099
0.00048769428
0.00048764583
0.00048759578
0.00048754437
0.0004874918
0.00048743833
0.00048738421
0.00048732968
0.00048727502
0.00048722045
0.00048716623
0.00048711258
0.00048705973
0.00048700787
0.00048695717
0.00048690781
0.00048685992
0.00048681363
0.00048676906
0.0004867263
0.00048668543
0.00048664651
0.00048660961
0.00048657477
0.00048654202
0.00048651142
0.00048648295
0.00048645665
0.00048643248
0.00048641044
0.00048639047
0.00048637252
0.00048635648
0.00048634224
0.00048632967
0.0004863186
0.00048630882
0.00048630014
0.00048629232
0.00048628512
0.00048627828
0.00048627154
0.00048626464
0.00048625733
0.00048624936
0.00048624048
0.00048623048
0.00048621915
0.00048620632
0.00048619182
0.00048617553
0.00048615733
0.00048613715
0.00048611494
0.00048609067
0.00048606435
0.00048603603
0.00048600575
0.00048597361
0.00048593972
0.00048590423
0.0004858673
0.00048582915
0.00048579003
0.00048575023
0.00048571016
0.00048567028
0.00048563129
0.00048559403
0.00048555982
0.0004855301
0.00048550739
0.00048549407
0.00048549456
0.00048551204
0.00048555375
0.00048562195
0.00048572831
0.0004858688
0.00048606432
0.00048629119
0.00048658922
0.00048649077
0.00048802005
0.0004876102
0.00048760782
0.00048760273
0.00048759923
0.00048759484
0.00048759089
0.00048758665
0.00048758242
0.0004875781
0.00048757362
0.00048756907
0.00048756429
0.00048755942
0.00048755427
0.00048754898
0.00048754336
0.00048753757
0.0004875314
0.000487525
0.00048751816
0.00048751009
0.00048749918
0.00048748746
0.00048747473
0.00048745722
0.00048743782
0.00048741669
0.00048739352
0.00048736834
0.00048734089
0.00048731125
0.00048727941
0.00048724522
0.00048720887
0.00048717023
0.00048712954
0.00048708673
0.00048704208
0.00048699557
0.00048694754
0.00048689802
0.00048684734
0.00048679568
0.00048674329
0.00048669043
0.00048663734
0.00048658429
0.00048653151
0.00048647927
0.00048642777
0.00048637725
0.0004863279
0.00048627991
0.00048623343
0.00048618862
0.00048614562
0.00048610452
0.00048606544
0.00048602847
0.00048599367
0.00048596111
0.00048593086
0.00048590295
0.00048587744
0.00048585434
0.0004858337
0.00048581551
0.00048579978
0.00048578649
0.00048577559
0.00048576703
0.00048576074
0.0004857566
0.00048575448
0.00048575422
0.00048575563
0.0004857585
0.00048576263
0.00048576776
0.00048577364
0.00048578001
0.00048578662
0.00048579322
0.00048579955
0.00048580539
0.00048581053
0.00048581476
0.00048581793
0.00048581987
0.00048582049
0.00048581968
0.00048581739
0.00048581356
0.00048580821
0.00048580135
0.00048579302
0.0004857833
0.00048577227
0.00048576005
0.00048574678
0.0004857326
0.00048571769
0.00048570228
0.0004856866
0.00048567092
0.00048565563
0.00048564114
0.00048562812
0.00048561728
0.00048560979
0.00048560687
0.00048561062
0.00048562294
0.00048564737
0.00048568623
0.0004857452
0.00048582556
0.00048593644
0.00048607399
0.0004862539
0.00048645804
0.0004867109
0.00048656465
0.00048759906
0.00048719251
0.00048718827
0.00048718394
0.00048717933
0.00048717375
0.00048716811
0.0004871621
0.00048715605
0.00048714983
0.0004871434
0.00048713685
0.00048713003
0.00048712307
0.0004871158
0.00048710837
0.00048710011
0.0004870904
0.00048707992
0.00048706881
0.00048705684
0.00048704319
0.00048702621
0.00048700782
0.00048698772
0.00048696595
0.00048694223
0.00048691661
0.00048688886
0.00048685908
0.00048682709
0.00048679299
0.0004867568
0.00048671841
0.00048667809
0.00048663575
0.00048659169
0.00048654587
0.00048649865
0.00048645004
0.00048640044
0.00048634989
0.00048629878
0.00048624729
0.0004861957
0.00048614427
0.00048609323
0.00048604285
0.00048599335
0.00048594495
0.00048589786
0.00048585226
0.00048580832
0.00048576621
0.00048572603
0.00048568793
0.000485652
0.00048561833
0.00048558701
0.00048555811
0.00048553168
0.00048550778
0.00048548647
0.00048546777
0.00048545173
0.00048543835
0.00048542768
0.00048541969
0.00048541437
0.0004854117
0.0004854116
0.00048541401
0.00048541883
0.00048542592
0.00048543512
0.00048544626
0.00048545913
0.0004854735
0.00048548914
0.00048550578
0.00048552317
0.00048554104
0.00048555914
0.00048557719
0.00048559498
0.00048561226
0.00048562884
0.00048564453
0.00048565919
0.00048567267
0.00048568489
0.00048569577
0.00048570527
0.00048571336
0.00048572007
0.00048572542
0.00048572947
0.00048573232
0.00048573403
0.00048573474
0.00048573458
0.00048573369
0.00048573225
0.00048573045
0.00048572851
0.00048572671
0.00048572538
0.00048572492
0.00048572593
0.00048572906
0.00048573534
0.00048574587
0.00048576247
0.00048578672
0.00048582162
0.00048586903
0.00048593359
0.00048601613
0.00048612372
0.00048625284
0.00048641449
0.00048659437
0.00048680652
0.0004866172
0.00048733629
0.00048693002
0.00048692401
0.00048692041
0.00048691474
0.00048690891
0.00048690229
0.00048689544
0.00048688817
0.00048688064
0.00048687261
0.00048686425
0.00048685535
0.00048684604
0.00048683611
0.0004868257
0.00048681412
0.0004868007
0.00048678607
0.00048677031
0.00048675314
0.00048673463
0.00048671451
0.00048669284
0.00048666933
0.00048664408
0.00048661682
0.00048658769
0.00048655645
0.00048652326
0.00048648792
0.00048645061
0.00048641138
0.00048637018
0.00048632732
0.00048628273
0.00048623677
0.00048618946
0.00048614117
0.00048609195
0.00048604224
0.0004859921
0.00048594191
0.00048589189
0.0004858423
0.00048579339
0.00048574539
0.00048569854
0.00048565304
0.00048560908
0.00048556685
0.00048552649
0.00048548815
0.00048545196
0.00048541802
0.00048538643
0.00048535727
0.00048533063
0.00048530656
0.00048528514
0.00048526641
0.00048525041
0.00048523719
0.00048522679
0.00048521921
0.00048521448
0.00048521261
0.00048521357
0.00048521732
0.00048522383
0.00048523301
0.00048524476
0.00048525897
0.00048527546
0.00048529407
0.00048531459
0.00048533681
0.00048536045
0.0004853853
0.00048541105
0.00048543744
0.00048546421
0.00048549107
0.00048551777
0.00048554407
0.00048556975
0.0004855946
0.00048561844
0.00048564113
0.00048566254
0.0004856826
0.00048570122
0.00048571838
0.00048573408
0.00048574832
0.00048576115
0.00048577262
0.00048578283
0.00048579185
0.00048579981
0.00048580684
0.00048581307
0.00048581866
0.00048582382
0.00048582874
0.00048583368
0.00048583899
0.00048584504
0.0004858524
0.0004858617
0.0004858739
0.00048589001
0.00048591163
0.0004859402
0.00048597826
0.0004860274
0.00048609144
0.00048617099
0.00048627162
0.00048639038
0.00048653496
0.00048669437
0.00048687571
0.00048665358
0.00048717965
0.00048677208
0.00048676501
0.00048676006
0.0004867531
0.00048674672
0.00048673923
0.00048673168
0.00048672331
0.00048671457
0.00048670506
0.000486695
0.0004866841
0.0004866725
0.00048665993
0.00048664652
0.00048663199
0.00048661644
0.0004865996
0.00048658154
0.000486562
0.00048654106
0.00048651843
0.00048649421
0.00048646815
0.00048644036
0.00048641058
0.00048637896
0.0004863453
0.00048630979
0.00048627228
0.00048623297
0.00048619195
0.0004861492
0.00048610505
0.0004860595
0.00048601292
0.00048596534
0.00048591718
0.0004858685
0.00048581975
0.000485771
0.00048572264
0.00048567487
0.00048562793
0.00048558206
0.00048553748
0.0004854944
0.00048545298
0.00048541341
0.00048537582
0.00048534036
0.00048530713
0.00048527626
0.00048524782
0.0004852219
0.00048519857
0.0004851779
0.00048515996
0.00048514479
0.00048513246
0.00048512299
0.00048511642
0.00048511279
0.00048511211
0.00048511438
0.0004851196
0.00048512774
0.00048513874
0.00048515254
0.00048516905
0.00048518813
0.00048520965
0.00048523343
0.00048525927
0.00048528695
0.00048531622
0.00048534682
0.00048537849
0.00048541093
0.00048544387
0.000485477
0.00048551007
0.00048554281
0.00048557496
0.00048560631
0.00048563665
0.0004856658
0.00048569363
0.00048572
0.00048574484
0.00048576807
0.00048578969
0.00048580967
0.00048582805
0.00048584488
0.00048586021
0.00048587414
0.00048588677
0.00048589822
0.00048590862
0.00048591813
0.0004859269
0.00048593516
0.00048594312
0.00048595105
0.00048595931
0.00048596829
0.00048597855
0.00048599074
0.00048600575
0.00048602453
0.00048604856
0.0004860791
0.00048611837
0.00048616767
0.0004862301
0.00048630605
0.00048639965
0.00048650825
0.00048663683
0.0004867768
0.00048693124
0.00048668121
0.00048708919
0.00048668039
0.00048667257
0.00048666654
0.00048665863
0.00048665116
0.00048664259
0.00048663388
0.00048662433
0.00048661436
0.00048660356
0.00048659218
0.0004865799
0.00048656687
0.00048655283
0.00048653789
0.00048652178
0.00048650461
0.00048648609
0.00048646634
0.00048644507
0.00048642238
0.000486398
0.00048637203
0.00048634424
0.00048631474
0.00048628331
0.00048625014
0.00048621502
0.0004861782
0.00048613953
0.00048609924
0.00048605746
0.00048601418
0.00048596977
0.00048592423
0.00048587797
0.00048583102
0.00048578383
0.00048573644
0.00048568932
0.00048564251
0.00048559641
0.00048555119
0.00048550708
0.00048546431
0.00048542305
0.00048538349
0.00048534579
0.00048531008
0.00048527651
0.00048524517
0.00048521618
0.00048518963
0.0004851656
0.00048514416
0.0004851254
0.00048510938
0.00048509615
0.00048508579
0.00048507834
0.00048507384
0.00048507233
0.00048507384
0.00048507838
0.00048508596
0.00048509655
0.00048511011
0.00048512658
0.00048514588
0.0004851679
0.00048519248
0.00048521949
0.00048524871
0.00048527993
0.0004853129
0.00048534738
0.00048538307
0.00048541971
0.00048545697
0.00048549458
0.00048553223
0.00048556964
0.00048560653
0.00048564266
0.00048567778
0.0004857117
0.00048574424
0.00048577525
0.00048580461
0.00048583226
0.00048585812
0.00048588218
0.00048590445
0.00048592494
0.00048594371
0.00048596084
0.00048597644
0.0004859906
0.00048600347
0.00048601518
0.00048602592
0.00048603585
0.00048604521
0.00048605424
0.00048606323
0.00048607254
0.00048608259
0.00048609395
0.00048610723
0.0004861233
0.00048614306
0.00048616782
0.00048619872
0.00048623763
0.00048628568
0.00048634535
0.00048641689
0.00048650334
0.00048660249
0.0004867174
0.00048684137
0.00048697484
0.00048670257
0.0004870377
0.0004866278
0.00048661945
0.00048661254
0.00048660392
0.00048659562
0.00048658624
0.00048657668
0.00048656624
0.00048655535
0.0004865436
0.00048653123
0.00048651793
0.00048650386
0.00048648874
0.00048647269
0.00048645545
0.00048643713
0.00048641745
0.00048639652
0.00048637406
0.0004863502
0.00048632466
0.00048629757
0.0004862687
0.0004862382
0.00048620585
0.00048617185
0.00048613603
0.00048609864
0.00048605957
0.00048601907
0.00048597728
0.00048593421
0.00048589023
0.00048584537
0.00048580004
0.00048575427
0.00048570851
0.0004856628
0.00048561758
0.0004855729
0.00048552913
0.00048548642
0.00048544499
0.00048540502
0.00048536667
0.00048533013
0.0004852955
0.00048526293
0.00048523253
0.00048520439
0.00048517861
0.0004851553
0.00048513452
0.00048511637
0.00048510091
0.00048508822
0.00048507837
0.00048507145
0.00048506749
0.00048506656
0.00048506869
0.00048507392
0.00048508226
0.0004850937
0.00048510824
0.00048512581
0.00048514634
0.00048516975
0.0004851959
0.00048522463
0.00048525577
0.00048528911
0.00048532441
0.00048536142
0.00048539985
0.00048543942
0.00048547983
0.00048552076
0.0004855619
0.00048560294
0.00048563451
0.00048566592
0.00048569849
0.00048573205
0.00048576643
0.00048580147
0.00048583703
0.00048587296
0.00048590914
0.00048594544
0.00048597759
0.00048600101
0.00048602251
0.00048604215
0.00048606002
0.00048607623
0.00048609091
0.00048610422
0.00048611631
0.00048612737
0.00048613763
0.00048614731
0.00048615669
0.00048616608
0.00048617586
0.00048618646
0.00048619844
0.00048621241
0.00048622918
0.00048624958
0.00048627477
0.00048630576
0.00048634412
0.00048639075
0.00048644758
0.0004865147
0.00048659424
0.00048668423
0.00048678637
0.00048689543
0.00048701058
0.00048671961
0.00048700789
0.00048659706
0.00048658836
0.00048658076
0.00048657163
0.0004865627
0.00048655272
0.00048654251
0.00048653143
0.00048651986
0.00048650742
0.00048649433
0.0004864803
0.00048646547
0.00048644959
0.00048643276
0.00048641474
0.00048639562
0.00048637516
0.00048635345
0.00048633024
0.00048630564
0.00048627942
0.00048625169
0.00048622224
0.00048619124
0.00048615848
0.00048612419
0.0004860882
0.00048605079
0.00048601184
0.00048597164
0.00048593032
0.0004858879
0.00048584478
0.00048580097
0.00048575687
0.00048571253
0.00048566836
0.00048562441
0.0004855811
0.00048553846
0.00048549684
0.00048545636
0.00048541722
0.00048537959
0.00048534361
0.00048530943
0.00048527716
0.00048524693
0.00048521883
0.00048519297
0.00048516944
0.00048514835
0.00048512978
0.00048511382
0.00048510057
0.00048509011
0.00048508253
0.00048507792
0.00048507634
0.00048507786
0.00048508254
0.0004850904
0.00048510147
0.00048511574
0.0004851332
0.00048515378
0.00048517741
0.00048520398
0.00048523335
0.00048526535
0.0004852998
0.00048533646
0.00048537508
0.00048541538
0.00048545707
0.00048549985
0.0004855434
0.00048558737
0.00048561554
0.00048564538
0.00048566765
0.00048569182
0.00048571928
0.00048574994
0.00048578367
0.0004858203
0.00048585967
0.00048590157
0.00048594581
0.00048599218
0.00048603627
0.00048607342
0.00048611032
0.00048613535
0.00048615349
0.00048616988
0.00048618465
0.00048619797
0.00048621003
0.00048622104
0.00048623122
0.00048624084
0.00048625019
0.00048625959
0.00048626944
0.00048628017
0.00048629231
0.00048630648
0.0004863234
0.00048634384
0.00048636885
0.00048639927
0.00048643643
0.00048648106
0.00048653466
0.00048659723
0.00048667023
0.00048675198
0.00048684323
0.00048693984
0.00048704014
0.00048673368
0.00048698962
0.00048657803
0.00048656909
0.00048656093
0.00048655143
0.000486542
0.00048653159
0.0004865209
0.00048650933
0.00048649726
0.00048648431
0.0004864707
0.00048645614
0.00048644078
0.00048642435
0.00048640699
0.00048638843
0.00048636879
0.00048634781
0.00048632561
0.00048630194
0.00048627692
0.00048625032
0.00048622228
0.00048619259
0.00048616142
0.00048612861
0.00048609436
0.00048605854
0.00048602142
0.00048598291
0.00048594328
0.00048590269
0.00048586116
0.00048581907
0.00048577644
0.00048573365
0.00048569075
0.00048564814
0.00048560584
0.00048556426
0.00048552341
0.00048548361
0.00048544497
0.00048540767
0.00048537185
0.00048533764
0.00048530518
0.00048527458
0.00048524595
0.00048521939
0.00048519501
0.00048517291
0.00048515321
0.000485136
0.0004851214
0.00048510951
0.00048510044
0.00048509429
0.00048509118
0.00048509119
0.00048509438
0.00048510084
0.00048511061
0.0004851237
0.00048514012
0.00048515986
0.00048518284
0.00048520899
0.00048523819
0.00048527028
0.00048530508
0.00048534239
0.00048538196
0.00048542352
0.00048546677
0.00048551141
0.0004855571
0.00048559404
0.00048562119
0.00048563436
0.00048565117
0.00048567164
0.00048569572
0.00048572331
0.00048575431
0.00048578855
0.00048582587
0.00048586606
0.0004859089
0.00048595417
0.00048600162
0.00048605101
0.00048610211
0.00048615468
0.00048619694
0.00048623374
0.00048625673
0.00048627141
0.00048628459
0.00048629648
0.00048630729
0.00048631729
0.00048632676
0.00048633599
0.00048634533
0.00048635518
0.00048636596
0.0004863782
0.00048639247
0.00048640945
0.00048642982
0.00048645449
0.00048648419
0.00048652001
0.0004865625
0.0004866128
0.00048667081
0.00048673745
0.00048681126
0.00048689238
0.00048697755
0.00048706485
0.00048674529
0.00048697722
0.00048656501
0.00048655591
0.0004865473
0.00048653752
0.0004865277
0.00048651696
0.00048650589
0.00048649396
0.00048648151
0.00048646818
0.00048645418
0.00048643923
0.00048642348
0.00048640667
0.00048638893
0.00048637
0.00048635
0.0004863287
0.0004863062
0.00048628226
0.00048625703
0.00048623027
0.00048620213
0.00048617241
0.0004861413
0.00048610863
0.00048607462
0.00048603915
0.0004860025
0.00048596458
0.00048592566
0.00048588589
0.00048584531
0.00048580427
0.00048576279
0.00048572125
0.00048567967
0.00048563845
0.00048559758
0.00048555744
0.00048551805
0.00048547968
0.00048544246
0.00048540651
0.00048537199
0.00048533901
0.0004853077
0.00048527816
0.00048525051
0.00048522486
0.00048520132
0.00048518
0.00048516105
0.00048514457
0.00048513069
0.00048511955
0.00048511128
0.000485106
0.00048510384
0.00048510489
0.00048510926
0.00048511703
0.00048512825
0.00048514296
0.00048516115
0.00048518282
0.00048520789
0.00048523627
0.00048526784
0.00048530243
0.00048533984
0.00048537987
0.00048542222
0.00048546662
0.00048551275
0.00048556028
0.00048559489
0.00048561121
0.00048561955
0.00048563182
0.00048564801
0.00048566812
0.00048569207
0.00048571978
0.0004857511
0.00048578588
0.00048582391
0.00048586496
0.0004859088
0.00048595518
0.00048600381
0.00048605444
0.00048610678
0.00048616058
0.0004862156
0.0004862716
0.00048631506
0.0004863513
0.00048636537
0.00048637697
0.00048638748
0.00048639717
0.00048640633
0.00048641529
0.00048642438
0.000486434
0.00048644459
0.00048645663
0.00048647067
0.00048648732
0.00048650721
0.00048653112
0.00048655969
0.00048659377
0.00048663384
0.00048668073
0.00048673428
0.00048679505
0.00048686177
0.00048693416
0.00048700959
0.00048708599
0.00048675524
0.00048696773
0.00048655502
0.0004865458
0.00048653681
0.00048652681
0.00048651668
0.00048650567
0.00048649429
0.00048648208
0.00048646933
0.0004864557
0.0004864414
0.00048642616
0.00048641012
0.00048639302
0.00048637501
0.00048635582
0.0004863356
0.00048631408
0.00048629141
0.00048626734
0.00048624201
0.00048621521
0.0004861871
0.00048615748
0.00048612654
0.00048609412
0.00048606046
0.00048602542
0.0004859893
0.00048595201
0.00048591381
0.00048587486
0.00048583517
0.00048579511
0.00048575466
0.00048571422
0.00048567377
0.0004856337
0.00048559398
0.00048555499
0.0004855167
0.0004854794
0.00048544316
0.00048540815
0.00048537447
0.00048534224
0.00048531159
0.00048528262
0.00048525545
0.00048523021
0.00048520702
0.00048518601
0.00048516734
0.00048515113
0.00048513754
0.00048512674
0.00048511886
0.00048511406
0.0004851125
0.00048511428
0.00048511953
0.00048512834
0.00048514078
0.00048515688
0.00048517666
0.0004852001
0.00048522712
0.00048525764
0.00048529151
0.00048532857
0.00048536858
0.00048541133
0.0004854565
0.0004855038
0.00048555289
0.00048559043
0.00048560055
0.00048560358
0.00048561074
0.00048562209
0.00048563764
0.00048565737
0.00048568121
0.00048570906
0.00048574078
0.00048577615
0.00048581499
0.00048585701
0.00048590197
0.00048594957
0.0004859995
0.00048605147
0.00048610519
0.00048616036
0.00048621671
0.00048627397
0.00048633194
0.00048639037
0.00048642752
0.00048645252
0.00048646266
0.00048647196
0.00048648076
0.00048648937
0.00048649814
0.00048650747
0.00048651777
0.00048652951
0.0004865432
0.00048655941
0.00048657867
0.00048660167
0.00048662894
0.00048666116
0.0004866987
0.00048674212
0.00048679126
0.00048684636
0.00048690631
0.00048697062
0.00048703717
0.00048710398
0.00048676367
0.00048695964
0.00048654653
0.00048653721
0.00048652791
0.00048651773
0.00048650732
0.0004864961
0.00048648447
0.00048647202
0.00048645902
0.00048644515
0.00048643062
0.00048641514
0.00048639887
0.00048638156
0.00048636335
0.00048634398
0.0004863236
0.00048630196
0.00048627919
0.00048625506
0.00048622973
0.00048620297
0.00048617496
0.0004861455
0.00048611479
0.00048608267
0.00048604939
0.00048601481
0.00048597922
0.00048594253
0.00048590501
0.0004858668
0.00048582791
0.00048578869
0.00048574913
0.00048570959
0.00048567005
0.00048563087
0.00048559203
0.00048555387
0.00048551636
0.00048547977
0.00048544417
0.00048540969
0.00048537646
0.00048534458
0.0004853142
0.0004852854
0.00048525833
0.00048523311
0.0004852099
0.00048518883
0.00048517008
0.00048515382
0.00048514022
0.00048512945
0.00048512171
0.00048511715
0.00048511595
0.00048511826
0.00048512421
0.00048513391
0.00048514743
0.00048516484
0.00048518613
0.0004852113
0.00048524027
0.00048527293
0.00048530914
0.00048534871
0.00048539141
0.00048543697
0.00048548509
0.00048553543
0.00048558157
0.00048559065
0.00048558788
0.00048558942
0.00048559536
0.00048560577
0.00048562069
0.00048564008
0.00048566387
0.00048569193
0.00048572412
0.00048576021
0.00048579996
0.00048584309
0.0004858893
0.00048593828
0.00048598967
0.00048604315
0.0004860984
0.00048615507
0.00048621289
0.00048627155
0.00048633081
0.00048639042
0.00048645019
0.00048649957
0.00048653375
0.00048654255
0.00048655082
0.00048655891
0.00048656717
0.00048657599
0.00048658577
0.00048659696
0.00048661003
0.00048662549
0.00048664383
0.00048666562
0.00048669132
0.00048672148
0.00048675636