/*--------------------------------*- C++ -*----------------------------------*\
| =========                 |                                                 |
| \\      /  F ield         | foam-extend: Open Source CFD                    |
|  \\    /   O peration     | Version:     4.1                                |
|   \\  /    A nd           | Web:         http://www.foam-extend.org         |
|    \\/     M anipulation  |                                                 |
\*---------------------------------------------------------------------------*/
FoamFile
{
    version     2.0;
    format      ascii;
    class       volVectorField;
    location    "1.9";
    object      U;
}
// * * * * * * * * * * * * * * * * * * * * * * * * * * * * * * * * * * * * * //

dimensions      [0 1 -1 0 0 0 0];

internalField   nonuniform List<vector> 
16126
(
(0.11048787 4.3858967e-06 0)
(0.11042114 1.9398698e-05 0)
(0.11032677 5.0801415e-06 0)
(0.11028653 1.5627792e-05 0)
(0.11013893 1.2358339e-05 0)
(0.11007122 1.6968782e-05 0)
(0.10989783 1.8302075e-05 0)
(0.10978598 2.0544377e-05 0)
(0.109593 2.3207571e-05 0)
(0.10943627 2.4890203e-05 0)
(0.1092219 2.773981e-05 0)
(0.10902388 2.9456752e-05 0)
(0.10878523 3.2167579e-05 0)
(0.10855008 3.400123e-05 0)
(0.10828563 3.6464059e-05 0)
(0.10801754 3.8277143e-05 0)
(0.10772784 4.0364148e-05 0)
(0.10743152 4.1913134e-05 0)
(0.10711945 4.3485482e-05 0)
(0.10680083 4.4635914e-05 0)
(0.10647183 4.5753826e-05 0)
(0.10613873 4.6624924e-05 0)
(0.10580109 4.7544804e-05 0)
(0.10546409 4.8170235e-05 0)
(0.10512956 4.8428603e-05 0)
(0.10480207 4.7564293e-05 0)
(0.1044853 4.555934e-05 0)
(0.10418359 4.3124172e-05 0)
(0.10390153 4.1522408e-05 0)
(0.10364528 4.1258662e-05 0)
(0.10342011 3.8009313e-05 0)
(0.10323035 2.8211531e-05 0)
(0.10307911 2.2902376e-05 0)
(0.10297721 3.1485602e-05 0)
(0.10293292 3.3841976e-05 0)
(0.10295723 2.234532e-05 0)
(0.10305507 1.19817e-05 0)
(0.10322065 4.8706743e-06 0)
(0.10345564 -1.3046958e-06 0)
(0.10376182 -7.2751632e-06 0)
(0.10414217 -1.3407075e-05 0)
(0.10459914 -1.9708434e-05 0)
(0.10513491 -2.6154965e-05 0)
(0.10575106 -3.2706189e-05 0)
(0.10644865 -3.9336781e-05 0)
(0.10722816 -4.602961e-05 0)
(0.10808943 -5.2776371e-05 0)
(0.10903177 -5.9577382e-05 0)
(0.11005383 -6.6439056e-05 0)
(0.11115372 -7.337574e-05 0)
(0.11232894 -8.0405106e-05 0)
(0.11357649 -8.754819e-05 0)
(0.11489286 -9.4825795e-05 0)
(0.11627409 -0.0001022555 0)
(0.11771581 -0.00010984794 0)
(0.11921329 -0.00011760477 0)
(0.12076153 -0.00012551379 0)
(0.12235524 -0.00013354676 0)
(0.12398897 -0.0001416573 0)
(0.12565711 -0.00014977802 0)
(0.12735394 -0.0001578199 0)
(0.12907368 -0.00016567316 0)
(0.13081049 -0.0001732069 0)
(0.13255846 -0.00018027215 0)
(0.13431169 -0.00018670477 0)
(0.13606419 -0.00019233117 0)
(0.13780992 -0.00019697309 0)
(0.1395428 -0.00020045547 0)
(0.14125667 -0.00020261538 0)
(0.14294534 -0.00020330974 0)
(0.14460262 -0.00020242432 0)
(0.14622242 -0.00019988244 0)
(0.14779883 -0.00019564993 0)
(0.1493263 -0.00018974013 0)
(0.1507998 -0.00018221494 0)
(0.15221501 -0.00017318308 0)
(0.15356852 -0.00016279399 0)
(0.15485805 -0.00015123295 0)
(0.15608257 -0.00013870776 0)
(0.15724252 -0.00012544318 0)
(0.15833983 -0.00011166547 0)
(0.15937803 -9.7599685e-05 0)
(0.16036223 -8.345279e-05 0)
(0.16129913 -6.9421186e-05 0)
(0.16219693 -5.5677188e-05 0)
(0.16306529 -4.2374245e-05 0)
(0.16391521 -2.9633772e-05 0)
(0.16475896 -1.7553439e-05 0)
(0.16561005 -6.18812e-06 0)
(0.16648304 4.4358488e-06 0)
(0.16739369 1.4350915e-05 0)
(0.16835868 2.3625401e-05 0)
(0.16939594 3.2408053e-05 0)
(0.17052426 4.088864e-05 0)
(0.17176401 4.9369411e-05 0)
(0.17313643 5.8186906e-05 0)
(0.17466507 6.7842416e-05 0)
(0.17637444 7.8820383e-05 0)
(0.17829306 9.1813553e-05 0)
(0.18045052 0.00010727705 0)
(0.18288407 0.00012583106 0)
(0.18563233 0.0001472043 0)
(0.18874938 0.00017097301 0)
(0.19229131 0.00019413733 0)
(0.19634635 0.00021264063 0)
(0.20100534 0.00021604386 0)
(0.20642595 0.0001911252 0)
(0.21276605 0.00011076495 0)
(0.22031915 -5.6647478e-05 0)
(0.22936019 -0.00036947567 0)
(0.24042948 -0.00088781175 0)
(0.25396979 -0.0017175634 0)
(0.27092596 -0.0029470294 0)
(0.29188955 -0.004737523 0)
(0.31839876 -0.0071739718 0)
(0.35093484 -0.010465771 0)
(0.39187223 -0.014609989 0)
(0.44075228 -0.019871448 0)
(0.50140092 -0.025969491 0)
(0.57018306 -0.033381383 0)
(0.65491461 -0.040700569 0)
(0.74102173 -0.049852838 0)
(0.85366929 -0.051317386 0)
(0.9241522 -0.062803439 0)
(0.32378192 3.0687612e-05 0)
(0.3236746 9.8096883e-05 0)
(0.32351784 7.5014857e-05 0)
(0.3233901 0.00011888749 0)
(0.32315275 0.00012376206 0)
(0.32296246 0.00015065619 0)
(0.32266921 0.00016712872 0)
(0.3224064 0.0001873754 0)
(0.32206229 0.00020734015 0)
(0.32172856 0.00022569283 0)
(0.32133306 0.00024607144 0)
(0.32093318 0.00026392335 0)
(0.3204859 0.00028353188 0)
(0.32002571 0.0003008377 0)
(0.31952857 0.00031900031 0)
(0.3190152 0.00033512332 0)
(0.3184734 0.00035115131 0)
(0.31791634 0.00036514022 0)
(0.31733924 0.00037807748 0)
(0.31675159 0.00038858744 0)
(0.3161534 0.00039694312 0)
(0.3155528 0.00040204044 0)
(0.31495317 0.00040362156 0)
(0.31436262 0.00040101586 0)
(0.31378721 0.00039431176 0)
(0.31323595 0.00038340594 0)
(0.31271852 0.00036817554 0)
(0.31224557 0.0003475491 0)
(0.31182789 0.00031868411 0)
(0.31147561 0.00028084448 0)
(0.31120057 0.00023955448 0)
(0.31102559 0.00020046035 0)
(0.31097317 0.00014712503 0)
(0.31105763 6.6295318e-05 0)
(0.31129945 -2.0474266e-05 0)
(0.31167272 -0.00010386746 0)
(0.31218718 -0.00018794754 0)
(0.31285385 -0.00027257253 0)
(0.31368189 -0.00036041425 0)
(0.31467853 -0.00045167746 0)
(0.31585027 -0.00054638775 0)
(0.31720239 -0.0006440388 0)
(0.31873907 -0.00074405404 0)
(0.32046305 -0.00084573845 0)
(0.32237561 -0.0009483639 0)
(0.32447635 -0.0010511595 0)
(0.3267632 -0.0011533333 0)
(0.32923233 -0.0012540836 0)
(0.33187815 -0.001352609 0)
(0.33469334 -0.001448128 0)
(0.33766894 -0.0015398853 0)
(0.34079441 -0.0016271696 0)
(0.34405782 -0.0017093232 0)
(0.34744602 -0.0017857531 0)
(0.35094483 -0.0018559395 0)
(0.35453931 -0.001919445 0)
(0.35821399 -0.0019759165 0)
(0.36195314 -0.0020250874 0)
(0.36574103 -0.0020667768 0)
(0.36956219 -0.0021008816 0)
(0.37340158 -0.002127368 0)
(0.37724484 -0.0021462609 0)
(0.38107842 -0.0021576262 0)
(0.38488966 -0.0021615573 0)
(0.38866685 -0.0021581586 0)
(0.39239925 -0.0021475358 0)
(0.39607706 -0.0021297868 0)
(0.39969134 -0.0021050043 0)
(0.403234 -0.0020732869 0)
(0.40669771 -0.0020347575 0)
(0.41007589 -0.001989593 0)
(0.41336276 -0.0019380621 0)
(0.41655339 -0.001880561 0)
(0.4196439 -0.0018176546 0)
(0.42263159 -0.0017501056 0)
(0.42551531 -0.0016788965 0)
(0.42829563 -0.0016052303 0)
(0.43097522 -0.0015305267 0)
(0.43355908 -0.0014563851 0)
(0.43605478 -0.0013845588 0)
(0.43847267 -0.0013168936 0)
(0.44082596 -0.0012552961 0)
(0.44313079 -0.0012016684 0)
(0.44540619 -0.0011578884 0)
(0.44767409 -0.0011257546 0)
(0.44995913 -0.0011069976 0)
(0.45228864 -0.0011032461 0)
(0.45469244 -0.0011160687 0)
(0.45720282 -0.0011469515 0)
(0.45985438 -0.0011973719 0)
(0.46268409 -0.0012687771 0)
(0.46573122 -0.0013626935 0)
(0.46903758 -0.0014807023 0)
(0.47264744 -0.0016246018 0)
(0.4766082 -0.001796367 0)
(0.48097022 -0.0019984217 0)
(0.48578815 -0.0022335573 0)
(0.49112039 -0.0025054369 0)
(0.49703161 -0.00281839 0)
(0.50359136 -0.003178398 0)
(0.51087868 -0.0035926092 0)
(0.5189785 -0.0040713207 0)
(0.5279904 -0.0046268215 0)
(0.53801969 -0.0052773853 0)
(0.54919431 -0.0060444263 0)
(0.56164381 -0.0069604525 0)
(0.57553276 -0.0080619094 0)
(0.5910126 -0.0094047401 0)
(0.60828994 -0.011046404 0)
(0.62751842 -0.013076114 0)
(0.64894357 -0.015570825 0)
(0.67266292 -0.018655445 0)
(0.69894437 -0.022399863 0)
(0.72769312 -0.026946854 0)
(0.75917792 -0.032281156 0)
(0.79281908 -0.038525256 0)
(0.82891668 -0.045420619 0)
(0.86576424 -0.053072275 0)
(0.9039987 -0.0606563 0)
(0.93924033 -0.068563972 0)
(0.97383726 -0.074236984 0)
(0.99687141 -0.080422631 0)
(1.0165933 -0.074777052 0)
(1.0120304 -0.080171067 0)
(0.51536018 6.6470961e-05 0)
(0.5152523 0.00020501266 0)
(0.51507159 0.00018422737 0)
(0.51491736 0.00026743718 0)
(0.51465664 0.00028882564 0)
(0.51442743 0.00034489588 0)
(0.51410771 0.0003827454 0)
(0.51380238 0.00042812823 0)
(0.51342763 0.00047061016 0)
(0.51305179 0.00051210542 0)
(0.51262351 0.00055459266 0)
(0.51218469 0.00059400067 0)
(0.51170617 0.00063432907 0)
(0.51121336 0.00067115443 0)
(0.51069119 0.00070758044 0)
(0.51015572 0.00074009424 0)
(0.50960066 0.00077044776 0)
(0.50903735 0.00079599531 0)
(0.50846517 0.00081745369 0)
(0.50789355 0.00083287405 0)
(0.50732592 0.00084231116 0)
(0.50677162 0.00084424288 0)
(0.50623755 0.0008383509 0)
(0.50573449 0.00082297724 0)
(0.5052723 0.00079709819 0)
(0.50486276 0.00075772097 0)
(0.50451782 0.00070337267 0)
(0.50425043 0.0006344819 0)
(0.50407736 0.00055250898 0)
(0.50402193 0.00045810523 0)
(0.5041072 0.00033721735 0)
(0.50434391 0.00017762425 0)
(0.50476086 -9.292057e-07 0)
(0.50532612 -0.00018633684 0)
(0.50604079 -0.00037560769 0)
(0.50693314 -0.00056882512 0)
(0.50801538 -0.00077408544 0)
(0.50930269 -0.00098976874 0)
(0.51080521 -0.0012153096 0)
(0.51253147 -0.0014498449 0)
(0.51448828 -0.0016923464 0)
(0.51668064 -0.0019413222 0)
(0.51911174 -0.0021950451 0)
(0.52178268 -0.0024515409 0)
(0.52469232 -0.0027086967 0)
(0.52783716 -0.0029642755 0)
(0.53121131 -0.003215973 0)
(0.53480644 -0.0034614573 0)
(0.53861183 -0.0036984163 0)
(0.54261452 -0.0039246117 0)
(0.54679942 -0.0041379237 0)
(0.55114961 -0.0043364056 0)
(0.55564653 -0.0045183276 0)
(0.56027039 -0.0046822185 0)
(0.56500048 -0.0048268991 0)
(0.56981556 -0.0049515087 0)
(0.57469424 -0.0050555155 0)
(0.57961538 -0.0051387188 0)
(0.58455844 -0.0052012357 0)
(0.58950381 -0.0052434736 0)
(0.59443305 -0.0052660911 0)
(0.59932917 -0.0052699498 0)
(0.60417672 -0.0052560538 0)
(0.60896191 -0.0052254922 0)
(0.61367263 -0.0051793786 0)
(0.61829839 -0.0051188044 0)
(0.62283028 -0.005044802 0)
(0.62726086 -0.0049583325 0)
(0.63158405 -0.0048602965 0)
(0.63579507 -0.0047515702 0)
(0.63989035 -0.0046330639 0)
(0.64386757 -0.0045058031 0)
(0.64772569 -0.0043710112 0)
(0.65146511 -0.0042301998 0)
(0.65508778 -0.0040852365 0)
(0.65859748 -0.0039384002 0)
(0.66200002 -0.0037923907 0)
(0.66530346 -0.0036503266 0)
(0.66851838 -0.0035156812 0)
(0.67165801 -0.0033922307 0)
(0.67473837 -0.0032839382 0)
(0.67777839 -0.0031948901 0)
(0.68079981 -0.0031291629 0)
(0.68382722 -0.0030907941 0)
(0.6868879 -0.0030836795 0)
(0.69001167 -0.003111573 0)
(0.69323067 -0.0031780261 0)
(0.69657918 -0.003286442 0)
(0.7000934 -0.0034400421 0)
(0.70381116 -0.0036419757 0)
(0.7077718 -0.0038953008 0)
(0.71201589 -0.0042031492 0)
(0.71658516 -0.0045687157 0)
(0.7215222 -0.0049954911 0)
(0.72687056 -0.0054872465 0)
(0.73267432 -0.0060483716 0)
(0.73897849 -0.0066837907 0)
(0.74582825 -0.0073995226 0)
(0.75326989 -0.0082024464 0)
(0.76134923 -0.0091013141 0)
(0.7701136 -0.010106141 0)
(0.77960849 -0.011230128 0)
(0.78988158 -0.012488181 0)
(0.80097552 -0.013900673 0)
(0.81293627 -0.015489912 0)
(0.82579746 -0.017287566 0)
(0.83959792 -0.019326275 0)
(0.85434795 -0.021654312 0)
(0.87006743 -0.024315739 0)
(0.88671297 -0.027379521 0)
(0.90426344 -0.030893071 0)
(0.92256257 -0.034941625 0)
(0.94151718 -0.039541616 0)
(0.96075142 -0.044769213 0)
(0.98008114 -0.050519333 0)
(0.9987251 -0.056809104 0)
(1.0164769 -0.063219527 0)
(1.0318012 -0.069686748 0)
(1.0448359 -0.075053943 0)
(1.0525287 -0.079430755 0)
(1.0565317 -0.079592692 0)
(1.0507282 -0.077530753 0)
(1.0403414 -0.062589005 0)
(1.0190172 -0.047407 0)
(0.67602271 9.1147067e-05 0)
(0.67597144 0.00030288026 0)
(0.67581228 0.00028740433 0)
(0.6757032 0.00040615348 0)
(0.67548528 0.00044281267 0)
(0.67530532 0.00052414901 0)
(0.67504496 0.00057946703 0)
(0.67480183 0.00064590523 0)
(0.67450276 0.0007057112 0)
(0.6742072 0.00076540101 0)
(0.67387345 0.00082366278 0)
(0.67353695 0.00087827187 0)
(0.67317568 0.00093159517 0)
(0.67281128 0.00097985338 0)
(0.67243368 0.0010252254 0)
(0.67205723 0.0010643065 0)
(0.67167922 0.0010982487 0)
(0.67131074 0.0011242595 0)
(0.67095405 0.0011424385 0)
(0.67061923 0.001150312 0)
(0.67031207 0.0011470214 0)
(0.67004303 0.0011300024 0)
(0.6698205 0.0010972826 0)
(0.66965591 0.0010467363 0)
(0.66955986 0.00097735665 0)
(0.6695459 0.00088821724 0)
(0.66963107 0.0007783729 0)
(0.66983328 0.00064362848 0)
(0.67016938 0.00047338666 0)
(0.670649 0.00026162449 0)
(0.67129441 2.3950629e-05 0)
(0.6720806 -0.00023367654 0)
(0.67299755 -0.00050475359 0)
(0.67408174 -0.00078650827 0)
(0.67534757 -0.0010921165 0)
(0.67681802 -0.0014207882 0)
(0.67850462 -0.0017686632 0)
(0.68041705 -0.0021339334 0)
(0.68256421 -0.0025148966 0)
(0.68495257 -0.002909519 0)
(0.68758679 -0.0033154635 0)
(0.69046916 -0.0037298471 0)
(0.69359977 -0.0041494501 0)
(0.69697625 -0.004570701 0)
(0.70059371 -0.0049898139 0)
(0.70444474 -0.0054028342 0)
(0.70851936 -0.0058057399 0)
(0.71280517 -0.0061945224 0)
(0.71728746 -0.0065652811 0)
(0.72194941 -0.0069143187 0)
(0.72677238 -0.0072382301 0)
(0.73173621 -0.0075339914 0)
(0.73681956 -0.0077990352 0)
(0.74200029 -0.0080313142 0)
(0.74725587 -0.0082293471 0)
(0.75256372 -0.0083922476 0)
(0.75790162 -0.0085197269 0)
(0.76324805 -0.0086120774 0)
(0.76858247 -0.008670132 0)
(0.77388561 -0.0086952009 0)
(0.77913965 -0.0086889911 0)
(0.78432837 -0.0086535137 0)
(0.78943724 -0.008590979 0)
(0.79445344 -0.0085036968 0)
(0.79936585 -0.0083939805 0)
(0.80416504 -0.0082640741 0)
(0.80884315 -0.0081160994 0)
(0.81339384 -0.0079520408 0)
(0.81781227 -0.0077737633 0)
(0.82209498 -0.0075830692 0)
(0.82623994 -0.0073817809 0)
(0.83024655 -0.0071718554 0)
(0.8341157 -0.0069554955 0)
(0.83784987 -0.0067352713 0)
(0.8414532 -0.0065142052 0)
(0.84493167 -0.0062958444 0)
(0.84829321 -0.0060842672 0)
(0.8515478 -0.0058840792 0)
(0.85470757 -0.0057003237 0)
(0.85778687 -0.0055384148 0)
(0.86080229 -0.005403976 0)
(0.86377261 -0.0053027565 0)
(0.86671875 -0.0052404516 0)
(0.86966358 -0.0052226312 0)
(0.87263179 -0.005254583 0)
(0.87564963 -0.0053413065 0)
(0.87874467 -0.005487406 0)
(0.88194543 -0.0056971533 0)
(0.88528113 -0.0059744187 0)
(0.88878128 -0.0063227962 0)
(0.89247539 -0.0067455584 0)
(0.89639254 -0.0072458377 0)
(0.90056114 -0.007826589 0)
(0.90500843 -0.0084908284 0)
(0.90976033 -0.0092415889 0)
(0.91484087 -0.010082249 0)
(0.92027215 -0.011016453 0)
(0.92607353 -0.012048641 0)
(0.9322619 -0.013183818 0)
(0.93885026 -0.014428463 0)
(0.94584864 -0.015789985 0)
(0.95326135 -0.017278433 0)
(0.96108923 -0.018905154 0)
(0.96932412 -0.020686096 0)
(0.9779539 -0.022638569 0)
(0.98695087 -0.02478758 0)
(0.99628308 -0.02715802 0)
(1.0058896 -0.029786833 0)
(1.0157063 -0.032704356 0)
(1.025613 -0.035958154 0)
(1.0354934 -0.039569651 0)
(1.0451219 -0.043583544 0)
(1.0543082 -0.047970172 0)
(1.0626482 -0.05273772 0)
(1.0698823 -0.057715129 0)
(1.0753247 -0.062831852 0)
(1.0787626 -0.067613473 0)
(1.0790792 -0.071939513 0)
(1.0765157 -0.074713776 0)
(1.0692917 -0.076128684 0)
(1.0590509 -0.073492931 0)
(1.0434662 -0.068844444 0)
(1.0261539 -0.054146187 0)
(1.0099682 -0.037790517 0)
(0.80224278 8.3898792e-05 0)
(0.80231324 0.00036090399 0)
(0.80222345 0.0003487951 0)
(0.8022301 0.00049640442 0)
(0.80212095 0.00054437717 0)
(0.80207055 0.00064494266 0)
(0.80194885 0.00071220648 0)
(0.80185789 0.00079298812 0)
(0.80172557 0.00086300342 0)
(0.80160965 0.00093306383 0)
(0.8014723 0.00099861992 0)
(0.80134669 0.0010593843 0)
(0.80121445 0.0011159462 0)
(0.80109573 0.0011652923 0)
(0.80098331 0.0012084569 0)
(0.80089085 0.0012421196 0)
(0.80081772 0.0012664455 0)
(0.80077469 0.0012782218 0)
(0.8007653 0.0012767728 0)
(0.80079945 0.0012592968 0)
(0.80088361 0.0012245292 0)
(0.8010279 0.001169986 0)
(0.8012419 0.0010943545 0)
(0.80153823 0.00099486721 0)
(0.80192904 0.00086900886 0)
(0.80242685 0.00070918952 0)
(0.80304213 0.00051014951 0)
(0.80378633 0.00027295969 0)
(0.8046678 5.1779331e-06 0)
(0.80567105 -0.00029260058 0)
(0.80679007 -0.00061528352 0)
(0.80805795 -0.0009586899 0)
(0.80948825 -0.0013373649 0)
(0.81110473 -0.0017537178 0)
(0.8129199 -0.0021998533 0)
(0.81494128 -0.0026733201 0)
(0.81717747 -0.0031728011 0)
(0.81963585 -0.0036951897 0)
(0.82232163 -0.0042376053 0)
(0.825238 -0.0047964639 0)
(0.82838578 -0.0053678777 0)
(0.8317635 -0.0059473628 0)
(0.83536734 -0.006530045 0)
(0.8391911 -0.007110663 0)
(0.84322626 -0.0076837305 0)
(0.847462 -0.0082436227 0)
(0.85188536 -0.0087847176 0)
(0.85648139 -0.0093015178 0)
(0.86123338 -0.0097887832 0)
(0.86612312 -0.01024166 0)
(0.87113117 -0.010655796 0)
(0.87623718 -0.011027452 0)
(0.88142021 -0.011353587 0)
(0.88665903 -0.011631927 0)
(0.89193247 -0.011861009 0)
(0.89721962 -0.012040188 0)
(0.90250019 -0.012169632 0)
(0.90775465 -0.012250267 0)
(0.91296444 -0.012283714 0)
(0.91811215 -0.012272188 0)
(0.92318157 -0.012218386 0)
(0.9281578 -0.01212536 0)
(0.93302728 -0.011996382 0)
(0.93777779 -0.011834824 0)
(0.9423985 -0.011644044 0)
(0.94687993 -0.011427305 0)
(0.95121396 -0.011187717 0)
(0.95539384 -0.010928235 0)
(0.95941424 -0.01065168 0)
(0.96327122 -0.010360815 0)
(0.96696235 -0.010058444 0)
(0.97048673 -0.0097475402 0)
(0.97384507 -0.0094313689 0)
(0.97703976 -0.0091136221 0)
(0.98007491 -0.0087985005 0)
(0.98295643 -0.00849079 0)
(0.98569201 -0.0081958524 0)
(0.98829121 -0.007919615 0)
(0.99076536 -0.0076684532 0)
(0.99312756 -0.0074491083 0)
(0.99539261 -0.0072684854 0)
(0.99757685 -0.0071335549 0)
(0.99969806 -0.0070511027 0)
(1.0017752 -0.0070276865 0)
(1.0038284 -0.0070694323 0)
(1.0058783 -0.0071820035 0)
(1.007946 -0.0073704585 0)
(1.0100529 -0.007639307 0)
(1.0122198 -0.0079924074 0)
(1.0144674 -0.0084331049 0)
(1.016815 -0.0089641596 0)
(1.0192808 -0.0095879539 0)
(1.0218815 -0.010306442 0)
(1.0246313 -0.011121423 0)
(1.0275428 -0.012034522 0)
(1.0306253 -0.013047519 0)
(1.0338855 -0.014162259 0)
(1.0373265 -0.015381138 0)
(1.0409484 -0.016706895 0)
(1.0447463 -0.018143414 0)
(1.0487121 -0.019695189 0)
(1.0528315 -0.021368728 0)
(1.0570857 -0.023171268 0)
(1.0614477 -0.025113387 0)
(1.0658852 -0.027205932 0)
(1.0703519 -0.029464987 0)
(1.0747959 -0.031904647 0)
(1.0791404 -0.034546673 0)
(1.0833036 -0.037403728 0)
(1.0871586 -0.04049886 0)
(1.0905811 -0.043827452 0)
(1.0933646 -0.047399216 0)
(1.0953383 -0.051153301 0)
(1.096181 -0.055057055 0)
(1.0957132 -0.058915579 0)
(1.0934651 -0.06262405 0)
(1.0893953 -0.065715809 0)
(1.0828461 -0.068053806 0)
(1.0742653 -0.068631677 0)
(1.0627329 -0.067601909 0)
(1.0497306 -0.062724765 0)
(1.0343346 -0.055589174 0)
(1.0187171 -0.041057895 0)
(1.0063658 -0.024406545 0)
(0.89538691 1.8374413e-05 0)
(0.89563235 0.00033858901 0)
(0.89565002 0.00032533744 0)
(0.89582641 0.00048887452 0)
(0.89587448 0.0005392572 0)
(0.89600874 0.00064738241 0)
(0.8960783 0.00071603195 0)
(0.89619612 0.00079982055 0)
(0.896286 0.00086878325 0)
(0.89640755 0.00093745482 0)
(0.89652354 0.00099815435 0)
(0.89666665 0.0010524222 0)
(0.89682001 0.0010989978 0)
(0.89700298 0.001135693 0)
(0.89720958 0.0011624014 0)
(0.89745277 0.0011761428 0)
(0.8977327 0.0011764771 0)
(0.8980598 0.0011604655 0)
(0.89843828 0.0011269372 0)
(0.89887786 0.0010728408 0)
(0.89938522 0.00099615857 0)
(0.89997029 0.00089305823 0)
(0.90064082 0.00075894475 0)
(0.90140629 0.00059039123 0)
(0.90227423 0.00038563275 0)
(0.90325652 0.00014607339 0)
(0.90434455 -0.00012754508 0)
(0.90553935 -0.00043775308 0)
(0.90684311 -0.00077919921 0)
(0.9082816 -0.0011522521 0)
(0.90986486 -0.0015688507 0)
(0.91161311 -0.0020322126 0)
(0.91353762 -0.0025348126 0)
(0.91564287 -0.0030740536 0)
(0.91793523 -0.0036500395 0)
(0.92042218 -0.0042597385 0)
(0.92310809 -0.0048992941 0)
(0.9259958 -0.0055646262 0)
(0.92908627 -0.0062512628 0)
(0.93237829 -0.0069542355 0)
(0.93586855 -0.0076681065 0)
(0.93955157 -0.0083868964 0)
(0.9434198 -0.0091042294 0)
(0.94746372 -0.0098133971 0)
(0.95167195 -0.01050753 0)
(0.95603139 -0.011179718 0)
(0.96052747 -0.011823179 0)
(0.9651443 -0.012431405 0)
(0.96986495 -0.012998313 0)
(0.97467165 -0.013518385 0)
(0.97954608 -0.013986792 0)
(0.98446957 -0.014399505 0)
(0.98942333 -0.014753372 0)
(0.99438864 -0.015046177 0)
(0.99934703 -0.015276664 0)
(1.0042804 -0.015444531 0)
(1.0091713 -0.015550394 0)
(1.0140027 -0.015595723 0)
(1.0187583 -0.015582746 0)
(1.0234227 -0.015514337 0)
(1.027981 -0.015393888 0)
(1.0324195 -0.015225166 0)
(1.036725 -0.01501218 0)
(1.0408855 -0.014759056 0)
(1.0448898 -0.014469924 0)
(1.0487277 -0.014148845 0)
(1.0523903 -0.013799767 0)
(1.05587 -0.013426519 0)
(1.0591603 -0.013032848 0)
(1.0622563 -0.012622501 0)
(1.0651547 -0.012199313 0)
(1.0678538 -0.011767343 0)
(1.0703538 -0.011330982 0)
(1.0726564 -0.010895075 0)
(1.0747655 -0.010464989 0)
(1.0766865 -0.010046677 0)
(1.0784268 -0.0096466403 0)
(1.0799953 -0.0092719149 0)
(1.0814027 -0.0089299216 0)
(1.0826611 -0.0086283843 0)
(1.0837838 -0.0083750869 0)
(1.0847854 -0.0081777864 0)
(1.0856815 -0.0080439496 0)
(1.0864884 -0.0079806544 0)
(1.0872226 -0.0079943301 0)
(1.0879013 -0.0080907628 0)
(1.0885412 -0.0082748995 0)
(1.0891589 -0.0085509408 0)
(1.0897703 -0.0089221936 0)
(1.0903902 -0.0093912469 0)
(1.0910322 -0.009959866 0)
(1.0917083 -0.010629239 0)
(1.0924284 -0.011399894 0)
(1.0932004 -0.012271999 0)
(1.0940298 -0.01324529 0)
(1.0949193 -0.014319408 0)
(1.0958688 -0.015493853 0)
(1.096875 -0.016768478 0)
(1.0979314 -0.018143285 0)
(1.0990275 -0.019619126 0)
(1.1001493 -0.02119727 0)
(1.1012777 -0.022880587 0)
(1.1023899 -0.024672444 0)
(1.1034558 -0.026578825 0)
(1.1044408 -0.028605675 0)
(1.1052996 -0.030762806 0)
(1.1059818 -0.033057607 0)
(1.1064183 -0.035502572 0)
(1.1065372 -0.038100768 0)
(1.1062331 -0.040861329 0)
(1.1054069 -0.043766858 0)
(1.1039003 -0.04680832 0)
(1.1015941 -0.049913149 0)
(1.0982614 -0.053031106 0)
(1.0938082 -0.055972916 0)
(1.087931 -0.058634946 0)
(1.0806915 -0.06061112 0)
(1.0717079 -0.061805914 0)
(1.0614572 -0.061401485 0)
(1.0494996 -0.059588775 0)
(1.0370221 -0.054630163 0)
(1.0239736 -0.04774134 0)
(1.011656 -0.035233616 0)
(1.0034077 -0.020189634 0)
(0.96011437 -0.00011846376 0)
(0.96056754 0.00021679632 0)
(0.96070512 0.00019583885 0)
(0.96107221 0.00036314849 0)
(0.96129276 0.00041006892 0)
(0.96163042 0.00051736894 0)
(0.96190641 0.00058034958 0)
(0.96224852 0.00065852464 0)
(0.96257242 0.00071806468 0)
(0.96294179 0.0007763854 0)
(0.96331771 0.000823377 0)
(0.96373353 0.00086214734 0)
(0.96417246 0.00088993319 0)
(0.96465359 0.000905321 0)
(0.96517135 0.00090721233 0)
(0.96573828 0.00089284207 0)
(0.96635478 0.00086073439 0)
(0.96703038 0.00080727536 0)
(0.96776868 0.00073047067 0)
(0.96857835 0.00062712027 0)
(0.96946514 0.00049484841 0)
(0.97043698 0.00033098389 0)
(0.97149884 0.00013477668 0)
(0.97265031 -9.6182284e-05 0)
(0.97389584 -0.00036509114 0)
(0.9752355 -0.0006701646 0)
(0.97668707 -0.0010114094 0)
(0.97825943 -0.0013944153 0)
(0.97996413 -0.0018261512 0)
(0.98181535 -0.0023083206 0)
(0.98382167 -0.0028359267 0)
(0.98598588 -0.0034076309 0)
(0.98831265 -0.0040247741 0)
(0.9908081 -0.0046858335 0)
(0.99347541 -0.0053861391 0)
(0.99631587 -0.006121697 0)
(0.99932959 -0.0068880573 0)
(1.0025151 -0.0076799023 0)
(1.0058689 -0.0084915563 0)
(1.0093859 -0.0093166596 0)
(1.0130589 -0.010148434 0)
(1.016879 -0.010979601 0)
(1.0208358 -0.011802572 0)
(1.0249172 -0.012609533 0)
(1.0291102 -0.013392627 0)
(1.0334005 -0.014144097 0)
(1.0377732 -0.014856457 0)
(1.0422126 -0.015522648 0)
(1.0467028 -0.016136181 0)
(1.0512276 -0.016691279 0)
(1.0557707 -0.017182981 0)
(1.060316 -0.017607242 0)
(1.0648475 -0.017960993 0)
(1.0693494 -0.018242178 0)
(1.0738063 -0.018449767 0)
(1.0782031 -0.018583725 0)
(1.0825249 -0.018644971 0)
(1.0867573 -0.018635299 0)
(1.0908862 -0.018557279 0)
(1.0948976 -0.018414146 0)
(1.0987782 -0.01820967 0)
(1.1025148 -0.01794803 0)
(1.1060949 -0.017633688 0)
(1.1095065 -0.017271274 0)
(1.1127382 -0.016865495 0)
(1.1157796 -0.016421071 0)
(1.118621 -0.015942697 0)
(1.1212542 -0.015435056 0)
(1.1236721 -0.014902843 0)
(1.1258695 -0.014350851 0)
(1.1278424 -0.013784043 0)
(1.1295889 -0.013207672 0)
(1.131109 -0.012627369 0)
(1.1324045 -0.01204924 0)
(1.1334791 -0.011479906 0)
(1.1343386 -0.010926545 0)
(1.1349902 -0.010396827 0)
(1.1354431 -0.0098988863 0)
(1.1357078 -0.0094411421 0)
(1.1357963 -0.0090322137 0)
(1.1357215 -0.0086806473 0)
(1.1354975 -0.0083948396 0)
(1.1351387 -0.0081826463 0)
(1.1346604 -0.0080514322 0)
(1.1340778 -0.0080077871 0)
(1.1334062 -0.0080574859 0)
(1.1326604 -0.0082052793 0)
(1.1318549 -0.0084549972 0)
(1.1310029 -0.0088093647 0)
(1.1301169 -0.009270219 0)
(1.1292078 -0.0098383572 0)
(1.1282849 -0.010513834 0)
(1.1273559 -0.011295846 0)
(1.1264262 -0.012183092 0)
(1.1254994 -0.013173772 0)
(1.1245764 -0.014265957 0)
(1.1236559 -0.015457463 0)
(1.1227339 -0.016746298 0)
(1.1218037 -0.018130502 0)
(1.1208556 -0.019608801 0)
(1.1198772 -0.021180172 0)
(1.1188522 -0.022844781 0)
(1.1177615 -0.024602994 0)
(1.1165804 -0.026456987 0)
(1.1152812 -0.028408367 0)
(1.1138277 -0.030461158 0)
(1.1121807 -0.032616295 0)
(1.1102866 -0.034877547 0)
(1.108091 -0.037239078 0)
(1.1055147 -0.039698143 0)
(1.1024873 -0.042227532 0)
(1.0988949 -0.044805213 0)
(1.0946628 -0.047353425 0)
(1.0896373 -0.049813091 0)
(1.083783 -0.05200535 0)
(1.0769079 -0.053827293 0)
(1.069117 -0.054916509 0)
(1.0601836 -0.055179996 0)
(1.0505183 -0.053922358 0)
(1.0398919 -0.051285229 0)
(1.0291369 -0.045945063 0)
(1.0184436 -0.038827534 0)
(1.0085166 -0.027742646 0)
(1.0022184 -0.014812706 0)
(1.0025511 -0.00033796184 0)
(1.003221 -1.2924205e-05 0)
(1.0034705 -4.0098355e-05 0)
(1.0040201 0.00011822687 0)
(1.0043997 0.00015325771 0)
(1.0049262 0.00024881276 0)
(1.0053904 0.00029736209 0)
(1.0059368 0.00036127109 0)
(1.0064709 0.00040363855 0)
(1.0070618 0.00044365778 0)
(1.0076675 0.00046922852 0)
(1.0083225 0.00048454252 0)
(1.0090092 0.00048548386 0)
(1.0097469 0.00047116113 0)
(1.0105295 0.00043955924 0)
(1.0113692 0.00038815586 0)
(1.0122659 0.0003152893 0)
(1.0132279 0.00021832631 0)
(1.0142564 9.5145464e-05 0)
(1.0153574 -5.7573164e-05 0)
(1.0165339 -0.0002421184 0)
(1.0177911 -0.00046085557 0)
(1.0191337 -0.00071432885 0)
(1.020573 -0.0010052948 0)
(1.0221153 -0.0013370825 0)
(1.0237693 -0.0017154595 0)
(1.0255447 -0.0021438858 0)
(1.0274507 -0.0026215949 0)
(1.0294927 -0.0031479705 0)
(1.0316737 -0.0037231432 0)
(1.0339977 -0.0043492998 0)
(1.0364697 -0.0050259364 0)
(1.0390919 -0.0057492314 0)
(1.0418641 -0.006515809 0)
(1.0447855 -0.0073220229 0)
(1.0478541 -0.0081629039 0)
(1.0510661 -0.0090327043 0)
(1.0544163 -0.0099250238 0)
(1.0578976 -0.010832907 0)
(1.0615014 -0.011748887 0)
(1.0652177 -0.01266509 0)
(1.0690351 -0.013573295 0)
(1.0729413 -0.014465089 0)
(1.0769229 -0.01533199 0)
(1.0809661 -0.016165621 0)
(1.0850567 -0.016957853 0)
(1.0891802 -0.017700968 0)
(1.0933221 -0.018387798 0)
(1.0974683 -0.019011854 0)
(1.1016045 -0.019567443 0)
(1.1057171 -0.020049749 0)
(1.1097926 -0.02045491 0)
(1.113818 -0.020780057 0)
(1.1177804 -0.021023332 0)
(1.1216672 -0.021183886 0)
(1.1254659 -0.021261844 0)
(1.1291644 -0.021258257 0)
(1.1327502 -0.021175029 0)
(1.1362112 -0.021014828 0)
(1.1395349 -0.020780991 0)
(1.1427092 -0.020477411 0)
(1.1457218 -0.020108436 0)
(1.1485608 -0.019678763 0)
(1.1512144 -0.019193353 0)
(1.1536715 -0.018657348 0)
(1.1559217 -0.018076036 0)
(1.1579553 -0.017454815 0)
(1.159764 -0.016799207 0)
(1.1613409 -0.016114884 0)
(1.1626804 -0.015407732 0)
(1.1637791 -0.014683905 0)
(1.164635 -0.01394992 0)
(1.1652484 -0.013212706 0)
(1.1656215 -0.012479677 0)
(1.1657586 -0.011758723 0)
(1.1656657 -0.011058238 0)
(1.1653507 -0.010387016 0)
(1.1648232 -0.0097542073 0)
(1.1640941 -0.0091691086 0)
(1.1631756 -0.008641097 0)
(1.162081 -0.0081792874 0)
(1.1608244 -0.007792513 0)
(1.1594203 -0.0074890359 0)
(1.1578835 -0.0072764298 0)
(1.1562291 -0.0071611937 0)
(1.1544717 -0.0071488732 0)
(1.1526258 -0.0072437656 0)
(1.1507051 -0.0074491232 0)
(1.1487225 -0.0077669005 0)
(1.1466898 -0.0081980576 0)
(1.1446173 -0.0087423585 0)
(1.1425142 -0.0093987595 0)
(1.1403879 -0.01016525 0)
(1.1382437 -0.011039287 0)
(1.1360855 -0.012017637 0)
(1.1339147 -0.013096729 0)
(1.131731 -0.014272677 0)
(1.1295319 -0.015541824 0)
(1.1273128 -0.01690051 0)
(1.1250663 -0.018345611 0)
(1.1227831 -0.019874206 0)
(1.1204507 -0.021484419 0)
(1.1180542 -0.023174483 0)
(1.1155746 -0.024944086 0)
(1.1129904 -0.026792284 0)
(1.1102732 -0.028719818 0)
(1.1073926 -0.030724382 0)
(1.1043072 -0.032805244 0)
(1.1009755 -0.034952629 0)
(1.0973372 -0.037158016 0)
(1.0933407 -0.039390815 0)
(1.0889014 -0.041623408 0)
(1.0839694 -0.043779827 0)
(1.0784338 -0.045800129 0)
(1.0722829 -0.047523408 0)
(1.0653849 -0.048857225 0)
(1.0578443 -0.049494252 0)
(1.0495257 -0.049360046 0)
(1.0407682 -0.047892632 0)
(1.0315057 -0.045203893 0)
(1.0223632 -0.040284091 0)
(1.0137309 -0.033765733 0)
(1.0060312 -0.024156652 0)
(1.0014111 -0.012705672 0)
(1.0288273 -0.00063568472 0)
(1.029691 -0.00034236647 0)
(1.0300383 -0.00037368856 0)
(1.0307568 -0.0002324824 0)
(1.0312725 -0.00021114969 0)
(1.0319614 -0.00013217785 0)
(1.0325794 -0.00010154567 0)
(1.0332924 -5.6869578e-05 0)
(1.0339946 -3.6165626e-05 0)
(1.0347615 -1.9238633e-05 0)
(1.0355472 -1.9445811e-05 0)
(1.0363881 -3.176996e-05 0)
(1.0372649 -6.1261293e-05 0)
(1.0381966 -0.00010829223 0)
(1.0391762 -0.00017547898 0)
(1.0402149 -0.00026502586 0)
(1.0413115 -0.00037891505 0)
(1.0424742 -0.0005195642 0)
(1.0437065 -0.00068927147 0)
(1.0450154 -0.00089126356 0)
(1.0464055 -0.0011281713 0)
(1.0478834 -0.0014036273 0)
(1.0494556 -0.0017218758 0)
(1.05113 -0.0020857986 0)
(1.0529133 -0.0024968018 0)
(1.0548118 -0.0029563106 0)
(1.056829 -0.003465719 0)
(1.0589694 -0.0040271501 0)
(1.0612372 -0.0046426886 0)
(1.0636364 -0.0053122663 0)
(1.066169 -0.0060334281 0)
(1.0688344 -0.0068039779 0)
(1.0716316 -0.0076213365 0)
(1.0745586 -0.0084816152 0)
(1.0776116 -0.0093793224 0)
(1.0807852 -0.010308482 0)
(1.0840726 -0.011262348 0)
(1.0874657 -0.012233496 0)
(1.0909549 -0.013214036 0)
(1.0945293 -0.014195607 0)
(1.0981773 -0.015169572 0)
(1.1018861 -0.016127096 0)
(1.1056426 -0.017059305 0)