/*--------------------------------*- C++ -*----------------------------------*\
| =========                 |                                                 |
| \\      /  F ield         | foam-extend: Open Source CFD                    |
|  \\    /   O peration     | Version:     4.1                                |
|   \\  /    A nd           | Web:         http://www.foam-extend.org         |
|    \\/     M anipulation  |                                                 |
\*---------------------------------------------------------------------------*/
FoamFile
{
    version     2.0;
    format      ascii;
    class       volScalarField;
    location    "1";
    object      p;
}
// * * * * * * * * * * * * * * * * * * * * * * * * * * * * * * * * * * * * * //

dimensions      [0 2 -2 0 0 0 0];

internalField   nonuniform List<scalar> 
16796
(
-0.0009396771
-2.0668408e-05
-0.00098035895
-0.00068712669
-0.0012402128
-0.0012356026
-0.0016153864
-0.0017506782
-0.0020645162
-0.0022757191
-0.0025745993
-0.0028359239
-0.0031457263
-0.0034487229
-0.0037842726
-0.0041284863
-0.0044998738
-0.0048886622
-0.0053040838
-0.00574274
-0.0062097651
-0.0067046614
-0.0072307759
-0.0077889472
-0.0083817538
-0.0090106546
-0.0096778921
-0.010385203
-0.011134651
-0.011928071
-0.012767366
-0.01365435
-0.014590731
-0.01557815
-0.016618069
-0.017711811
-0.018860465
-0.020064892
-0.021325647
-0.022642951
-0.024016644
-0.025446092
-0.026930205
-0.028467283
-0.030055049
-0.031690505
-0.033369938
-0.03508881
-0.036841733
-0.038622399
-0.040423545
-0.042236907
-0.044053205
-0.045862123
-0.047652313
-0.049411423
-0.051126131
-0.052782219
-0.054364656
-0.055857719
-0.057245122
-0.058510201
-0.059636084
-0.060605921
-0.061403104
-0.062011518
-0.062415804
-0.062601597
-0.062555828
-0.062266902
-0.061725037
-0.060922333
-0.059853154
-0.058514138
-0.056904241
-0.055024989
-0.05288034
-0.050476798
-0.047823279
-0.044931054
-0.041813608
-0.038486452
-0.034966949
-0.03127403
-0.027427993
-0.023450147
-0.019362598
-0.015187843
-0.010948579
-0.0066672779
-0.002366028
0.0019338514
0.006211932
0.010448988
0.014627061
0.018729685
0.022741888
0.026650329
0.030443231
0.034110445
0.037643336
0.041034771
0.044278995
0.047371552
0.050309162
0.053089589
0.055711579
0.058174598
0.060478972
0.06262533
0.064615212
0.066449789
0.068131694
0.069661775
0.071044171
0.072277828
0.073370146
0.074314573
0.075126967
0.075786256
0.076330935
0.076701937
0.076998177
0.077062973
-0.00093777316
-2.0468591e-05
-0.00097823104
-0.00068548214
-0.0012374326
-0.0012327568
-0.0016117424
-0.0017467086
-0.0020598834
-0.0022706265
-0.0025688854
-0.0028296703
-0.0031388497
-0.0034412492
-0.0037761534
-0.0041197224
-0.0044904325
-0.0048785335
-0.0052932433
-0.005731174
-0.0061974546
-0.0066915939
-0.0072169381
-0.0077743308
-0.0083663528
-0.0089944683
-0.0096609243
-0.010367464
-0.011116158
-0.01190885
-0.01274745
-0.013633785
-0.014569574
-0.015556471
-0.016595951
-0.017689357
-0.01883779
-0.020042134
-0.021302961
-0.022620516
-0.02399466
-0.025424783
-0.02690982
-0.028448094
-0.030037354
-0.031674626
-0.033356219
-0.035077618
-0.036833454
-0.038617434
-0.040422308
-0.042239819
-0.04406069
-0.045874598
-0.047670184
-0.049435073
-0.051155918
-0.052818457
-0.054407613
-0.055907603
-0.057302076
-0.058574287
-0.059707282
-0.060684116
-0.061488086
-0.062102974
-0.06251332
-0.062704654
-0.062663811
-0.062379098
-0.061840656
-0.061040503
-0.059973026
-0.058634845
-0.057024864
-0.055144588
-0.052997957
-0.050591476
-0.047934076
-0.04503706
-0.041913961
-0.038580355
-0.035053683
-0.031352968
-0.027498615
-0.023512039
-0.019415466
-0.015231511
-0.01098299
-0.0066924879
-0.002382202
0.0019264524
0.0062129566
0.010458012
0.014643595
0.018753193
0.022771798
0.026686047
0.030484153
0.034155967
0.037692868
0.041087742
0.044334863
0.047429807
0.050369336
0.053151251
0.055774344
0.058238128
0.06054297
0.062689544
0.064679434
0.066513849
0.068195462
0.069725154
0.071107098
0.072340269
0.07343209
0.07437604
0.075187983
0.075846886
0.076391225
0.076761991
0.077058036
0.077122795
-0.00093398602
-2.0205578e-05
-0.00097405429
-0.00068234883
-0.0012320012
-0.0012272408
-0.0016046282
-0.0017389773
-0.0020508387
-0.0022606937
-0.0025577334
-0.0028174722
-0.0031254376
-0.0034266817
-0.0037603355
-0.0041026612
-0.0044720665
-0.004858848
-0.0052721944
-0.0057087406
-0.0061736049
-0.0066663095
-0.0071901996
-0.0077461294
-0.0083366848
-0.0089633409
-0.0096283547
-0.010333482
-0.01108081
-0.011872196
-0.012709571
-0.013594782
-0.014529571
-0.015515621
-0.016554433
-0.017647381
-0.018795602
-0.020000016
-0.021261234
-0.02257954
-0.023954841
-0.025386569
-0.026873706
-0.028414622
-0.030007108
-0.031648237
-0.03333436
-0.035060998
-0.036822816
-0.038613548
-0.040425963
-0.042251814
-0.044081821
-0.045905648
-0.047711907
-0.049488182
-0.051221063
-0.052896214
-0.054498463
-0.056011915
-0.057420091
-0.058706103
-0.059852837
-0.060843181
-0.061660249
-0.062287638
-0.062709697
-0.062911767
-0.062880498
-0.062604014
-0.062072294
-0.061277183
-0.060212987
-0.058876255
-0.057265785
-0.055383042
-0.05323194
-0.050818998
-0.048153191
-0.045245903
-0.042110779
-0.038763537
-0.035221796
-0.031504774
-0.027633099
-0.023628419
-0.019513209
-0.015310326
-0.011042839
-0.0067335619
-0.0024049187
0.0019214796
0.0062249317
0.010485993
0.014686514
0.018809893
0.022841053
0.026766599
0.03057473
0.034255315
0.037799761
0.04120101
0.044453399
0.047552584
0.050495408
0.053279768
0.055904548
0.058369355
0.060674649
0.062821199
0.064810672
0.066644365
0.068325021
0.069853599
0.07123433
0.072466256
0.073556841
0.074499624
0.075310485
0.075968463
0.076511998
0.076882205
0.077177786
0.077242444
-0.00092831841
-1.9775861e-05
-0.00096776913
-0.000677606
-0.0012238169
-0.0012189171
-0.0015939063
-0.0017273206
-0.0020372072
-0.0022457206
-0.0025409236
-0.0027990825
-0.0031052159
-0.0034047135
-0.0037364771
-0.004076921
-0.0044443506
-0.0048291322
-0.0052404102
-0.0056748537
-0.0061375649
-0.0066280857
-0.0071497596
-0.0077034565
-0.0082917694
-0.0089161901
-0.0095789897
-0.010281944
-0.011027161
-0.011816523
-0.01265199
-0.013535439
-0.01446865
-0.015453342
-0.01649106
-0.017583227
-0.018731031
-0.019935445
-0.021197141
-0.022516466
-0.02389339
-0.025327417
-0.026817596
-0.028362368
-0.029959595
-0.031606418
-0.033299252
-0.035033679
-0.036804415
-0.038605239
-0.040428949
-0.042267315
-0.044111057
-0.04594982
-0.047772177
-0.049565645
-0.051316726
-0.053010968
-0.054633056
-0.056166926
-0.057595903
-0.058902878
-0.060070495
-0.061081379
-0.061918369
-0.062564776
-0.063004658
-0.063223063
-0.063206363
-0.062942404
-0.06242093
-0.061633534
-0.060574408
-0.059239994
-0.057628945
-0.055742662
-0.05358502
-0.051162553
-0.048484301
-0.045561759
-0.042408741
-0.039041174
-0.035476939
-0.031735544
-0.027837953
-0.023806159
-0.019663013
-0.015431738
-0.01113578
-0.0067982979
-0.002442059
0.0019110315
0.0062399958
0.01052517
0.014748211
0.018892383
0.022942505
0.026885131
0.030708437
0.034402315
0.037958219
0.041369168
0.044629595
0.047735271
0.050683168
0.053471317
0.056098742
0.058565194
0.060871272
0.063017882
0.065006821
0.06683951
0.068518808
0.070045784
0.071424758
0.072654871
0.07374365
0.074684726
0.075494
0.076150621
0.076692973
0.077062358
0.077357258
0.077421772
-0.00092081116
-1.9244946e-05
-0.00095944985
-0.00067135874
-0.0012129879
-0.0012079187
-0.0015797191
-0.0017119026
-0.002019168
-0.0022259089
-0.002518678
-0.0027747482
-0.0030784567
-0.003375646
-0.0037049105
-0.0040428687
-0.0044076886
-0.0047898303
-0.0051983791
-0.00563005
-0.0060899233
-0.0065775677
-0.0070963243
-0.0076470844
-0.0082324504
-0.0088539364
-0.0095138324
-0.010213942
-0.010956398
-0.01174312
-0.012576104
-0.013457269
-0.01438844
-0.015371392
-0.016407726
-0.017498926
-0.018646249
-0.019850743
-0.021113156
-0.02243392
-0.023813091
-0.025250261
-0.026744574
-0.028294563
-0.029898184
-0.031552665
-0.033254509
-0.034999376
-0.03678205
-0.038596366
-0.040435163
-0.042290234
-0.044152296
-0.046010969
-0.047854772
-0.049671136
-0.051446445
-0.053166095
-0.054814582
-0.056375618
-0.057832268
-0.059167135
-0.060362541
-0.061400769
-0.062264289
-0.062936036
-0.063399681
-0.063639889
-0.063642652
-0.063395449
-0.062887701
-0.062110651
-0.061058293
-0.059726922
-0.058114985
-0.0562238
-0.054057188
-0.051621709
-0.048926494
-0.045983197
-0.042805862
-0.039410705
-0.035815965
-0.03204155
-0.02810888
-0.024040419
-0.019859532
-0.015589937
-0.011255592
-0.0068801292
-0.0024867772
0.0019021609
0.0062653343
0.010582785
0.014835912
0.019007803
0.023083141
0.027048418
0.030891787
0.034603175
0.038174105
0.041597709
0.044868553
0.047982571
0.050936909
0.053729786
0.056360418
0.05882875
0.061135572
0.063281973
0.065269929
0.067101028
0.068778281
0.070302905
0.071679344
0.072906867
0.073993083
0.074931751
0.075738793
0.076393512
0.076934211
0.077302447
0.077596395
0.077660703
-0.00091146833
-1.8559066e-05
-0.0009490562
-0.00066353372
-0.0011994462
-0.0011941572
-0.001561975
-0.0016926159
-0.0019966044
-0.0022011256
-0.0024908488
-0.0027443025
-0.0030449736
-0.003339269
-0.0036653998
-0.0040002388
-0.0043617826
-0.0047406078
-0.0051457259
-0.0055739088
-0.0060302094
-0.0065142294
-0.0070293069
-0.0075763589
-0.0081580001
-0.0087757715
-0.0094319868
-0.010128482
-0.010867427
-0.01165078
-0.012480584
-0.013358812
-0.014287348
-0.015268029
-0.016302532
-0.017392417
-0.018539028
-0.019743504
-0.021006693
-0.022329131
-0.023710984
-0.02515196
-0.026651317
-0.028207709
-0.029819209
-0.031483162
-0.033196179
-0.034954023
-0.036751567
-0.038582719
-0.040440373
-0.042316352
-0.044201376
-0.046085037
-0.047955784
-0.049800948
-0.051606764
-0.053358436
-0.055040223
-0.056635554
-0.058127168
-0.059497299
-0.060727863
-0.061800702
-0.062697826
-0.063401686
-0.063895462
-0.06416333
-0.064190806
-0.063964901
-0.063474635
-0.062710812
-0.061667165
-0.060339807
-0.058726938
-0.056829758
-0.054652028
-0.052200332
-0.049483915
-0.046514623
-0.043306793
-0.039876998
-0.03624393
-0.032427998
-0.028451201
-0.024336598
-0.020108202
-0.015790359
-0.011407682
-0.006984394
-0.0025443147
0.0018897512
0.0062959788
0.010654039
0.014945007
0.019151747
0.023258771
0.027252495
0.031121044
0.034854393
0.038444153
0.041883599
0.045167471
0.048291907
0.051254273
0.05405303
0.056687632
0.059158271
0.061465975
0.06361207
0.06559875
0.067427817
0.069102471
0.070624117
0.071997349
0.073221602
0.074304587
0.075240218
0.076044451
0.076696775
0.077235392
0.077602183
0.077894935
0.077958986
-0.00090032908
-1.7755035e-05
-0.0009366528
-0.00065420782
-0.0011832834
-0.001177739
-0.0015407935
-0.0016695956
-0.0019696663
-0.0021715376
-0.0024576205
-0.0027079491
-0.0030049905
-0.0032958287
-0.0036182146
-0.0039493264
-0.004306955
-0.0046818167
-0.0050828341
-0.0055068475
-0.0059588768
-0.0064385631
-0.0069492409
-0.007491858
-0.0080690432
-0.0086823701
-0.0093341803
-0.01002635
-0.010761088
-0.011540406
-0.0123664
-0.013241106
-0.014166479
-0.015144434
-0.016176733
-0.017265033
-0.018410777
-0.019615218
-0.02087932
-0.022203747
-0.023588796
-0.025034312
-0.026539696
-0.028103744
-0.029724672
-0.031399965
-0.033126368
-0.034899766
-0.036715143
-0.038566497
-0.040446789
-0.042347881
-0.044260499
-0.046174202
-0.048077364
-0.04995719
-0.051799742
-0.053589996
-0.055311927
-0.056948625
-0.058482437
-0.059895154
-0.0611682
-0.062282892
-0.063220676
-0.063963422
-0.064493716
-0.064795138
-0.064852622
-0.064652615
-0.064183635
-0.063435951
-0.062402948
-0.061080514
-0.059466546
-0.057562096
-0.055370851
-0.052899422
-0.050157197
-0.047156257
-0.043911292
-0.040439319
-0.036759584
-0.032893109
-0.028862605
-0.024691861
-0.020405688
-0.0160292
-0.011587815
-0.0071064778
-0.002609736
0.0018789966
0.0063373148
0.010744443
0.01508106
0.019329766
0.023474872
0.027502709
0.031401373
0.03516091
0.038773044
0.042231234
0.045530434
0.04866704
0.051638694
0.054444148
0.057083155
0.059556209
0.061864628
0.064010026
0.065994862
0.067821197
0.069492463
0.071010285
0.072379446
0.073599574
0.074678504
0.07561034
0.076411069
0.077060415
0.077596447
0.077961443
0.078252711
0.078316441
-0.00088739804
-1.6802578e-05
-0.00092221694
-0.00064333844
-0.0011644594
-0.0011586118
-0.0015161208
-0.0016427779
-0.0019382843
-0.0021370652
-0.0024189034
-0.0026655854
-0.0029583909
-0.0032451917
-0.0035632031
-0.0038899582
-0.0042430079
-0.0046132312
-0.0050094469
-0.0054285743
-0.0058755945
-0.0063501944
-0.0068557033
-0.0073931048
-0.0079650435
-0.0085731305
-0.0092197397
-0.0099067923
-0.010636546
-0.011411069
-0.012232522
-0.013103015
-0.014024582
-0.014999233
-0.016028827
-0.017115132
-0.018259714
-0.019463953
-0.020728955
-0.022055529
-0.023444132
-0.024894769
-0.026407011
-0.027979823
-0.029611591
-0.03129997
-0.033041863
-0.034833305
-0.036669413
-0.038544297
-0.040451004
-0.042381445
-0.04432636
-0.046275273
-0.048216475
-0.050137031
-0.0520228
-0.053858491
-0.055627748
-0.057313265
-0.058896922
-0.060359987
-0.061683304
-0.062847562
-0.063833538
-0.064622413
-0.065196059
-0.065537356
-0.065630539
-0.06546139
-0.065017827
-0.064289493
-0.06326933
-0.061952969
-0.060337958
-0.058425158
-0.056218177
-0.053723646
-0.05095112
-0.047912951
-0.044624253
-0.041102556
-0.037367769
-0.033441637
-0.029347721
-0.025110672
-0.020756263
-0.016310514
-0.01179981
-0.0072499548
-0.0026863648
0.0018668241
0.0063865135
0.010851402
0.015241698
0.019539698
0.023729473
0.027797263
0.031731139
0.035521233
0.039159413
0.042639363
0.045956294
0.049106915
0.052089195
0.05490224
0.057546154
0.060021789
0.06233081
0.064475167
0.066457636
0.068280581
0.069947703
0.071460893
0.072825146
0.07404032
0.075114396
0.076041696
0.076838248
0.077484043
0.078016999
0.07837986
0.078669365
0.078732716
-0.00087270644
-1.5727227e-05
-0.000905804
-0.00063098739
-0.0011430542
-0.0011368661
-0.0014880615
-0.0016122802
-0.0019025894
-0.0020978534
-0.0023748578
-0.0026173872
-0.0029053671
-0.0031875677
-0.0035005931
-0.003822381
-0.0041702084
-0.0045351396
-0.0049258747
-0.0053394226
-0.0057807203
-0.006249506
-0.006749103
-0.0072805353
-0.0078464653
-0.008448546
-0.0090891877
-0.0097703633
-0.010494384
-0.011263384
-0.012079597
-0.012945215
-0.013862366
-0.014833163
-0.01585958
-0.016943512
-0.018086661
-0.019290557
-0.020556466
-0.021885368
-0.023277899
-0.024734252
-0.026254193
-0.027836884
-0.029480909
-0.031184118
-0.032943603
-0.034755574
-0.036615305
-0.038517041
-0.04045393
-0.04241795
-0.04439986
-0.046389154
-0.048374029
-0.050341397
-0.052276887
-0.054164909
-0.055988727
-0.057730579
-0.059371811
-0.060893087
-0.062274579
-0.06349625
-0.064538101
-0.065380511
-0.066004522
-0.066392195
-0.066526948
-0.066393792
-0.065979922
-0.065274287
-0.064269257
-0.06296014
-0.061344115
-0.059421794
-0.057196695
-0.054675465
-0.05186785
-0.048786518
-0.04544707
-0.041867639
-0.038068907
-0.034073464
-0.029905874
-0.025591797
-0.021158135
-0.016631976
-0.012040842
-0.0074115423
-0.0027705183
0.0018572554
0.0064478654
0.010979406
0.015431537
0.019786213
0.024027234
0.028140747
0.032114801
0.035939649
0.039607332
0.043111811
0.046448607
0.049614803
0.052608753
0.055429982
0.058079008
0.0605571
0.062866329
0.065009036
0.066988363
0.068807024
0.070469032
0.071976582
0.073334912
0.074544147
0.07561243
0.076534335
0.07732593
0.077967522
0.078496842
0.078857182
0.079144607
0.079207507
-0.00085625951
-1.4512277e-05
-0.00088740534
-0.00061713379
-0.0011190508
-0.0011124782
-0.0014565925
-0.001578074
-0.0018625512
-0.0020538658
-0.0023254417
-0.0025633045
-0.00284586
-0.0031228863
-0.0034303008
-0.0037464955
-0.0040884392
-0.0044474035
-0.004831955
-0.0052392028
-0.0056740332
-0.0061362418
-0.0066291445
-0.0071538097
-0.007712919
-0.0083081722
-0.0089420193
-0.0096164907
-0.010333957
-0.011096626
-0.011906812
-0.0127668
-0.013678822
-0.014645108
-0.015667761
-0.016748819
-0.017890137
-0.019093416
-0.020360103
-0.021691372
-0.023088063
-0.024550587
-0.026078929
-0.027672479
-0.029330053
-0.031049724
-0.032828803
-0.034663707
-0.036549897
-0.038481775
-0.040452617
-0.042454484
-0.044478166
-0.046513129
-0.048547479
-0.050567954
-0.052559936
-0.054507496
-0.056393469
-0.058199578
-0.05990656
-0.061494389
-0.062942466
-0.064229921
-0.065335861
-0.066239741
-0.066921646
-0.067362694
-0.067545355
-0.067453762
-0.067074256
-0.066395007
-0.065407667
-0.064107217
-0.062490402
-0.06055753
-0.058312023
-0.055760531
-0.052913022
-0.04978251
-0.04638516
-0.04273979
-0.038867971
-0.034793266
-0.030541397
-0.026139185
-0.021614853
-0.016996713
-0.012313619
-0.0075935338
-0.0028640942
0.0018487645
0.0065201824
0.011127569
0.015649951
0.020068905
0.024367925
0.028533069
0.032552372
0.036416238
0.040116924
0.043648718
0.04700751
0.050190821
0.053197456
0.056027423
0.058681721
0.061162101
0.063471095
0.065611495
0.067586859
0.0694003
0.071056185
0.072557049
0.073908412
0.075110693
0.076172217
0.077087847
0.077873691
0.078510412
0.079035525
0.07939295
0.079677972
0.079740354
-0.00083808254
-1.3178572e-05
-0.00086707006
-0.00060183174
-0.001092522
-0.0010855295
-0.0014218103
-0.0015402668
-0.0018182904
-0.0020052354
-0.0022708015
-0.0025034969
-0.0027800433
-0.0030513351
-0.0033525287
-0.0036625186
-0.0039979321
-0.00435027
-0.00472795
-0.0051281922
-0.0055558258
-0.0060107094
-0.00649615
-0.0070132645
-0.0075647549
-0.008152372
-0.0087786094
-0.0094455596
-0.01015566
-0.010911196
-0.011714573
-0.012568178
-0.013474359
-0.014435474
-0.015453769
-0.016531439
-0.017670514
-0.018872883
-0.020140195
-0.021473842
-0.022874895
-0.024344006
-0.025881412
-0.027486762
-0.029159129
-0.030896848
-0.032697479
-0.034557678
-0.036473121
-0.038438401
-0.040446942
-0.04249091
-0.044561141
-0.046647084
-0.048736746
-0.050816689
-0.052872019
-0.054886437
-0.056842304
-0.058720763
-0.060501871
-0.062164825
-0.063688153
-0.065050043
-0.066228583
-0.06720218
-0.067949828
-0.06845157
-0.068688782
-0.068644615
-0.068304349
-0.067655484
-0.066688668
-0.065398363
-0.063781051
-0.061836587
-0.059568299
-0.056982821
-0.054090363
-0.050904329
-0.047441519
-0.043721522
-0.039766934
-0.035602415
-0.031255031
-0.026752925
-0.022125847
-0.017403508
-0.012616308
-0.0077935223
-0.0029641747
0.0018447126
0.0066071887
0.011299897
0.015901144
0.020392095
0.024755905
0.028978555
0.033048077
0.036955075
0.040692063
0.044253723
0.04763638
0.050838063
0.053858103
0.056697067
0.0593565
0.061838707
0.064146744
0.066283914
0.068254244
0.070061297
0.071709833
0.073202775
0.074545948
0.075740106
0.076793772
0.077702129
0.078481326
0.079112429
0.079632699
0.079986769
0.08026903
0.080330815
-0.00081818273
-1.1718349e-05
-0.00084480111
-0.00058507685
-0.00106347
-0.0010560196
-0.0013837176
-0.0014988597
-0.0017698091
-0.001951962
-0.0022109354
-0.0024379584
-0.0027079059
-0.002972896
-0.0032672499
-0.0035704127
-0.0038986364
-0.0042436724
-0.0046137748
-0.005006284
-0.0054259661
-0.0058727479
-0.0063499254
-0.0068586678
-0.0074016986
-0.0079808232
-0.0085985817
-0.0092571346
-0.0099589891
-0.01070652
-0.011502226
-0.01234861
-0.013248142
-0.014203323
-0.015216556
-0.016290211
-0.017426508
-0.018627545
-0.019895196
-0.021231095
-0.022636571
-0.024112546
-0.025659539
-0.027277491
-0.028965771
-0.030723004
-0.032547042
-0.034434812
-0.036382242
-0.038384148
-0.040434134
-0.042524494
-0.044646133
-0.046788491
-0.048939484
-0.051085485
-0.053211308
-0.055300251
-0.057334151
-0.059293513
-0.061157631
-0.062904831
-0.064512663
-0.065958249
-0.067218531
-0.068270725
-0.069092586
-0.069662942
-0.069961927
-0.069971571
-0.069675973
-0.069061783
-0.068118563
-0.066840223
-0.065222883
-0.063265895
-0.060972475
-0.058349228
-0.055406629
-0.052158511
-0.048622385
-0.044818703
-0.040771221
-0.036505835
-0.032051146
-0.02743679
-0.022694275
-0.017854897
-0.012950833
-0.008012843
-0.0030715487
0.0018448095
0.00670903
0.011496908
0.016185936
0.020756838
0.025192397
0.029478535
0.0336033
0.037557546
0.041334097
0.044928106
0.048336397
0.051557595
0.054591632
0.057439712
0.060104004
0.062587439
0.064893663
0.067026551
0.068990655
0.070790038
0.072429901
0.07391359
0.07524727
0.076432061
0.077476706
0.078376739
0.079148349
0.079773049
0.080287811
0.080638068
0.080917194
0.080978302
-0.00079658258
-1.0150415e-05
-0.0008206445
-0.00056691991
-0.0010319644
-0.0010240265
-0.0013424077
-0.0014539564
-0.0017172245
-0.0018941743
-0.0021459846
-0.0023668422
-0.0026296137
-0.0028877467
-0.0031746544
-0.0034703794
-0.0037907651
-0.0041278349
-0.0044896638
-0.0048737223
-0.0052847071
-0.0057226177
-0.0061907374
-0.006690291
-0.0072240241
-0.0077938004
-0.0084022093
-0.0090514835
-0.009744206
-0.010482845
-0.011270004
-0.012108305
-0.013000356
-0.013948811
-0.014956243
-0.016025212
-0.017158148
-0.018357375
-0.019625017
-0.020962974
-0.022372859
-0.023855896
-0.025412918
-0.027044189
-0.02874941
-0.030527539
-0.032376752
-0.034294289
-0.036276371
-0.038318069
-0.040413202
-0.042554223
-0.044732129
-0.046936368
-0.049154771
-0.051373521
-0.053577122
-0.055748437
-0.057868734
-0.059917817
-0.061874136
-0.063715054
-0.065417026
-0.066955985
-0.068307586
-0.06944771
-0.070352717
-0.071000064
-0.071368484
-0.071438749
-0.071193615
-0.0706188
-0.069702578
-0.068438231
-0.0668215
-0.064851139
-0.06253023
-0.059865327
-0.056867188
-0.053550109
-0.049932391
-0.046035441
-0.041884327
-0.037506325
-0.032931789
-0.02819203
-0.02332058
-0.018350508
-0.013316051
-0.0082496239
-0.0031836906
0.0018521542
0.0068292786
0.011722551
0.016508544
0.021167522
0.025681861
0.030037458
0.034222396
0.03822785
0.042047015
0.045675598
0.049111008
0.052352557
0.055400862
0.058257856
0.060926412
0.063410163
0.065713417
0.067840688
0.069797109
0.071587297
0.073216935
0.074689838
0.07601254
0.077186563
0.078220882
0.079111421
0.079874402
0.080491835
0.081000354
0.081346294
0.081621876
0.081682216
-0.00077329233
-8.4733689e-06
-0.00079461323
-0.00054736983
-0.00099802389
-0.00098956887
-0.0012979058
-0.0014055834
-0.001660567
-0.0018319034
-0.0020759819
-0.0022901802
-0.002545197
-0.0027959144
-0.0030747642
-0.0033624339
-0.0036743246
-0.0040027521
-0.0043555974
-0.0047304702
-0.005131991
-0.0055602368
-0.0060184755
-0.0065079907
-0.0070315501
-0.0075910789
-0.0081892183
-0.0088282773
-0.0095109193
-0.010239712
-0.01101737
-0.011846645
-0.012730291
-0.013671125
-0.014671908
-0.015735405
-0.01686427
-0.01806108
-0.019328227
-0.020667904
-0.022082038
-0.023572183
-0.025139523
-0.026784683
-0.028507733
-0.030308004
-0.032184042
-0.034133444
-0.036152762
-0.03823737
-0.04038134
-0.042577322
-0.04481643
-0.047088148
-0.049380231
-0.051678676
-0.05396766
-0.056229587
-0.058445108
-0.06059326
-0.062651569
-0.06459633
-0.066402781
-0.068045534
-0.069498798
-0.070736962
-0.071734816
-0.07246828
-0.072914506
-0.073052849
-0.072864556
-0.072334278
-0.071448828
-0.070200787
-0.068585474
-0.06660096
-0.064250164
-0.061539573
-0.05848024
-0.055086966
-0.051378924
-0.04737857
-0.043112447
-0.038609359
-0.033901657
-0.029022515
-0.024007787
-0.018892521
-0.013713317
-0.008504439
-0.0033004622
0.0018675244
0.0069692557
0.011978598
0.016871087
0.021626519
0.026226828
0.030657927
0.03490797
0.038968527
0.042833236
0.046498462
0.049962286
0.05322481
0.056287431
0.059152907
0.061824902
0.064307835
0.066606751
0.068726867
0.070673963
0.072453258
0.074070966
0.075531409
0.076841524
0.078003267
0.079025864
0.079905657
0.0806589
0.081268145
0.081769647
0.082110736
0.082382342
0.082441822
-0.00074833409
-6.7052101e-06
-0.0007667529
-0.00052647689
-0.00096171843
-0.00095272537
-0.0012503063
-0.0013538456
-0.0015999554
-0.0017652796
-0.0020010702
-0.0022081267
-0.0024548221
-0.0026975763
-0.0029677677
-0.0032467744
-0.0035495223
-0.0038686401
-0.004211799
-0.0045767572
-0.0049680518
-0.0053858416
-0.0058333765
-0.0063120013
-0.006824506
-0.0073728798
-0.0079598178
-0.0085877088
-0.0092593004
-0.0099772653
-0.010744437
-0.011563703
-0.012437973
-0.013370242
-0.014363468
-0.015420635
-0.016544645
-0.017738343
-0.019004413
-0.02034537
-0.02176348
-0.023260665
-0.024838488
-0.026497978
-0.028239614
-0.030063147
-0.031967534
-0.033950778
-0.036009812
-0.038140358
-0.040336789
-0.042591989
-0.04489723
-0.047242056
-0.049614168
-0.051999378
-0.054381533
-0.056742549
-0.059062415
-0.061319341
-0.063489838
-0.06554903
-0.06747081
-0.069228323
-0.070794172
-0.07214108
-0.073242086
-0.074071391
-0.074604379
-0.074818818
-0.07469427
-0.074214196
-0.073363738
-0.072134673
-0.070521871
-0.068522618
-0.066139619
-0.063379275
-0.06025293
-0.056775923
-0.052968381
-0.048853899
-0.044460678
-0.039819202
-0.034964097
-0.029930602
-0.024757237
-0.01948125
-0.014141964
-0.0087756887
-0.0034194299
0.0018940864
0.0071327306
0.012269297
0.017278155
0.022138634
0.026832196
0.031344831
0.035664797
0.039784166
0.043697101
0.047400737
0.050893934
0.0541777
0.057254317
0.060127475
0.062801719
0.065282348
0.06757522
0.069686332
0.071622165
0.073388603
0.074992431
0.076438524
0.077734248
0.07888203
0.079891357
0.080759029
0.081501317
0.082101371
0.082595009
0.082930667
0.083197826
0.083256343
-0.00072172177
-4.8493012e-06
-0.00073708557
-0.00050426122
-0.00092308116
-0.00091353147
-0.0011996541
-0.0012987919
-0.0015354453
-0.0016943621
-0.0019213131
-0.0021207476
-0.0023585566
-0.0025927996
-0.0028537306
-0.003123463
-0.0034164149
-0.0037255473
-0.0040583065
-0.0044126074
-0.0047928966
-0.0051994183
-0.0056354016
-0.0061022546
-0.006602789
-0.0071390603
-0.0077138185
-0.0083295358
-0.0089890476
-0.0096951367
-0.01045076
-0.01125895
-0.012122782
-0.013045438
-0.014030084
-0.015079946
-0.016198184
-0.017387933
-0.018652198
-0.019993837
-0.021415489
-0.022919473
-0.024507777
-0.026181867
-0.027942682
-0.029790435
-0.031724551
-0.033743488
-0.035844615
-0.038024057
-0.040276537
-0.042595228
-0.0449716
-0.047395296
-0.049853985
-0.052333312
-0.054816788
-0.05728582
-0.059719693
-0.062095724
-0.064389321
-0.066574324
-0.068623144
-0.070507299
-0.072197608
-0.073664938
-0.074880369
-0.075816178
-0.076445773
-0.07674514
-0.076691953
-0.076268339
-0.075457555
-0.074250453
-0.072641427
-0.070626882
-0.068209259
-0.065394854
-0.062195304
-0.05862652
-0.054709669
-0.050469582
-0.045936314
-0.041142185
-0.03612441
-0.030920495
-0.025572028
-0.020118676
-0.014602911
-0.0090632822
-0.003539599
0.0019336372
0.0073221645
0.012597646
0.017733141
0.02270753
0.027501768
0.032102003
0.03649665
0.040678397
0.044642029
0.048385588
0.051908826
0.05521379
0.058303761
0.061183474
0.063858462
0.066334997
0.068619833
0.070719821
0.072642208
0.074393597
0.075981393
0.077411064
0.078690434
0.079822434
0.080816827
0.081670899
0.082400933
0.082990723
0.083475597
0.083805208
0.084067422
0.084124869
-0.00069347879
-2.9235269e-06
-0.0007056586
-0.00048077464
-0.00088218502
-0.0008720692
-0.0011460482
-0.0012405323
-0.0014671616
-0.0016192875
-0.0018368607
-0.0020282047
-0.0022565744
-0.0024817693
-0.0027328483
-0.0029927049
-0.0032752162
-0.0035736948
-0.0038953467
-0.0042382515
-0.004606758
-0.0050011992
-0.0054247797
-0.0058789729
-0.006366611
-0.0068898175
-0.0074513982
-0.0080539116
-0.0087002832
-0.0093934106
-0.010136379
-0.010932375
-0.011784643
-0.012696566
-0.013671533
-0.014713019
-0.015824466
-0.017009319
-0.018270924
-0.019612512
-0.021037125
-0.022547516
-0.024146131
-0.025834925
-0.027615336
-0.029488097
-0.03145315
-0.033509469
-0.035654919
-0.037886086
-0.040198105
-0.042584491
-0.045036967
-0.047545316
-0.050097213
-0.052678152
-0.055271309
-0.05785757
-0.060415473
-0.062921378
-0.065349496
-0.067672269
-0.069860474
-0.071883839
-0.073711203
-0.075311377
-0.076653258
-0.077706983
-0.078443766
-0.078837596
-0.078864072
-0.078503807
-0.077737967
-0.076556315
-0.074952755
-0.072922704
-0.070468236
-0.067595532
-0.064316483
-0.060647602
-0.056611176
-0.052233348
-0.047546253
-0.042584195
-0.037387351
-0.031995702
-0.026454382
-0.020805711
-0.015095809
-0.0093656784
-0.0036583674
0.0019897097
0.0075418456
0.012968527
0.018241338
0.023338754
0.028241187
0.032935055
0.037408985
0.041656429
0.045672909
0.049457527
0.053011062
0.056336746
0.059438985
0.062323691
0.064997491
0.067467735
0.069742158
0.071828546
0.073734976
0.07546883
0.077038173
0.078449111
0.079709955
0.08082417
0.081801804
0.082640665
0.083357032
0.083935396
0.084410535
0.084733431
0.084990164
0.085046422
-0.00066362321
-9.349546e-07
-0.00067250261
-0.00045604708
-0.00083907648
-0.00082838928
-0.0010895518
-0.0011791362
-0.0013951832
-0.0015401409
-0.0017478053
-0.0019305951
-0.0021489773
-0.0023645899
-0.002605227
-0.0028546054
-0.0031260291
-0.0034131806
-0.0037230103
-0.0040537698
-0.0044097025
-0.0047912329
-0.0052015376
-0.0056421561
-0.00611594
-0.0066250816
-0.0071724431
-0.0077606707
-0.0083927829
-0.0090717952
-0.0098009268
-0.010583521
-0.011423006
-0.012322969
-0.013287037
-0.014318949
-0.015422444
-0.016601301
-0.017859227
-0.019199857
-0.020626665
-0.022142877
-0.023751441
-0.025454839
-0.027255067
-0.029153428
-0.031150446
-0.033245672
-0.035437534
-0.037723148
-0.04009813
-0.042556405
-0.045090008
-0.04768892
-0.050340863
-0.053031212
-0.05574282
-0.058456041
-0.061148628
-0.063795926
-0.066370849
-0.068844317
-0.071185316
-0.073361601
-0.075339814
-0.077086481
-0.078568067
-0.079752321
-0.080608
-0.081106857
-0.081222193
-0.080932894
-0.080217876
-0.07906557
-0.077469316
-0.075423536
-0.072929812
-0.069994214
-0.066628854
-0.062850873
-0.058683768
-0.054155074
-0.049299254
-0.04415274
-0.038759093
-0.033160977
-0.027407626
-0.021544243
-0.015621194
-0.0096821274
-0.0037738544
0.0020651774
0.0077954483
0.013386247
0.018807492
0.024037325
0.029055582
0.033849086
0.038406752
0.042722973
0.046794131
0.050620576
0.054204257
0.05754976
0.060662754
0.063550468
0.06622074
0.068682108
0.07094338
0.073013358
0.074901016
0.076614572
0.078162798
0.079552476
0.080792432
0.081886694
0.082845606
0.083667527
0.084368717
0.084934417
0.085398785
0.08571426
0.085964942
0.086019888
-0.00063218094
1.0982084e-06
-0.00063766836
-0.00043013341
-0.00079383369
-0.0007825794
-0.0010302712
-0.0011147217
-0.0013196445
-0.0014570696
-0.0016543086
-0.0018280933
-0.0020359528
-0.0022414605
-0.0024710771
-0.0027093851
-0.002969083
-0.0032442415
-0.0035415395
-0.0038594079
-0.0042019767
-0.0045697642