/*--------------------------------*- C++ -*----------------------------------*\
| =========                 |                                                 |
| \\      /  F ield         | foam-extend: Open Source CFD                    |
|  \\    /   O peration     | Version:     4.1                                |
|   \\  /    A nd           | Web:         http://www.foam-extend.org         |
|    \\/     M anipulation  |                                                 |
\*---------------------------------------------------------------------------*/
FoamFile
{
    version     2.0;
    format      ascii;
    class       surfaceScalarField;
    location    "1";
    object      phi;
}
// * * * * * * * * * * * * * * * * * * * * * * * * * * * * * * * * * * * * * //

dimensions      [0 3 -1 0 0 0 0];

internalField   nonuniform List<scalar> 
32976
(
-0.0016189369
5.7604664e-07
-0.0016195428
6.0594533e-07
-0.0016201745
6.3169747e-07
-0.0016208391
6.6460282e-07
-0.0016215359
6.9675066e-07
-0.0016222694
7.3349072e-07
-0.0016230407
7.7131423e-07
-0.0016238533
8.1265331e-07
-0.0016247093
8.5595166e-07
-0.0016256116
9.0233634e-07
-0.0016265627
9.5112645e-07
-0.0016275656
1.0028651e-06
-0.0016286229
1.0572651e-06
-0.0016297375
1.1146098e-06
-0.0016309123
1.1747902e-06
-0.0016321502
1.2379764e-06
-0.0016334544
1.3041406e-06
-0.0016348278
1.3734055e-06
-0.0016362736
1.4457805e-06
-0.0016377949
1.5213687e-06
-0.0016393951
1.6001938e-06
-0.0016410775
1.6823485e-06
-0.0016428453
1.7678547e-06
-0.0016447021
1.8567912e-06
-0.0016466513
1.9491622e-06
-0.0016486963
2.0450204e-06
-0.0016508406
2.1443321e-06
-0.0016530878
2.2471051e-06
-0.001655441
2.3532442e-06
-0.0016579037
2.4626886e-06
-0.0016604789
2.575256e-06
-0.0016631697
2.6907813e-06
-0.0016659787
2.8090152e-06
-0.0016689083
2.9296098e-06
-0.0016719606
3.0522321e-06
-0.001675137
3.1763842e-06
-0.0016784386
3.3015937e-06
-0.0016818658
3.4272093e-06
-0.0016854184
3.5526079e-06
-0.0016890953
3.6769737e-06
-0.0016928949
3.7995216e-06
-0.0016968141
3.9192635e-06
-0.0017008494
4.0352164e-06
-0.0017049956
4.146245e-06
-0.0017092467
4.2511368e-06
-0.0017135953
4.348577e-06
-0.0017180325
4.4371498e-06
-0.0017225478
4.5153505e-06
-0.0017271294
4.5815727e-06
-0.0017317635
4.6341365e-06
-0.0017364348
4.671293e-06
-0.0017411261
4.6912456e-06
-0.0017458182
4.6921711e-06
-0.0017504905
4.6722594e-06
-0.0017551202
4.629728e-06
-0.0017596831
4.5628819e-06
-0.0017641532
4.4701478e-06
-0.0017685034
4.3501257e-06
-0.001772705
4.2016391e-06
-0.0017767288
4.0237982e-06
-0.0017805448
3.8160375e-06
-0.001784123
3.5781861e-06
-0.0017874335
3.3105072e-06
-0.0017904473
3.013741e-06
-0.0017931364
2.6891335e-06
-0.0017954749
2.3384521e-06
-0.0017974389
1.9639869e-06
-0.0017990074
1.5685187e-06
-0.0018001627
1.1552854e-06
-0.0018008906
7.2790758e-07
-0.0018011809
2.9031086e-07
-0.0018010275
-1.5339728e-07
-0.0018004285
-5.9899005e-07
-0.0017993862
-1.0423093e-06
-0.0017979068
-1.4793979e-06
-0.0017960002
-1.9065386e-06
-0.0017936798
-2.3203991e-06
-0.0017909618
-2.7180694e-06
-0.0017878647
-3.0971077e-06
-0.0017844091
-3.4555259e-06
-0.0017806174
-3.7917711e-06
-0.0017765127
-4.1046645e-06
-0.0017721194
-4.3933251e-06
-0.0017674623
-4.6570979e-06
-0.0017625668
-4.895467e-06
-0.0017574588
-5.1080046e-06
-0.0017521645
-5.2943155e-06
-0.0017467105
-5.4540326e-06
-0.0017411237
-5.5868104e-06
-0.0017354313
-5.6923688e-06
-0.0017296608
-5.7705331e-06
-0.0017238395
-5.8212808e-06
-0.0017179947
-5.8448e-06
-0.0017121531
-5.8415367e-06
-0.0017063409
-5.8122086e-06
-0.0017005831
-5.7578275e-06
-0.0016949034
-5.679671e-06
-0.0016893242
-5.5792773e-06
-0.0016838658
-5.4583655e-06
-0.001678547
-5.3188158e-06
-0.0016733844
-5.1625914e-06
-0.0016683927
-4.991692e-06
-0.0016635846
-4.8080931e-06
-0.0016589709
-4.6137174e-06
-0.0016545605
-4.4103739e-06
-0.0016503607
-4.199755e-06
-0.0016463773
-3.9834056e-06
-0.0016426146
-3.7627156e-06
-0.0016390757
-3.5389122e-06
-0.0016357626
-3.3130688e-06
-0.0016326766
-3.0860911e-06
-0.0016298178
-2.8587411e-06
-0.0016271862
-2.6316333e-06
-0.0016247809
-2.4052493e-06
-0.001622601
-2.1799392e-06
-0.001620645
-1.9559462e-06
-0.0016189117
-1.7333893e-06
-0.0016173993
-1.5123091e-06
-0.0016161067
-1.2926286e-06
-0.0016150325
-1.0742312e-06
-0.0016141756
-8.5686213e-07
-0.0016135353
-6.4031021e-07
-0.0016131112
-4.2414617e-07
-2.0816802e-07
-0.0016189236
1.1508645e-06
-0.0016195283
1.2106845e-06
-0.0016201587
1.2621208e-06
-0.0016208221
1.3279328e-06
-0.0016215175
1.3921699e-06
-0.0016222496
1.4656333e-06
-0.0016230195
1.5412348e-06
-0.0016238308
1.6238888e-06
-0.0016246853
1.7104491e-06
-0.0016255861
1.8031935e-06
-0.0016265358
1.9007449e-06
-0.0016275371
2.0042005e-06
-0.0016285928
2.1129794e-06
-0.0016297058
2.2276533e-06
-0.0016308791
2.3480013e-06
-0.0016321154
2.474366e-06
-0.001633418
2.6066907e-06
-0.0016347898
2.7452217e-06
-0.001636234
2.8899771e-06
-0.0016377538
3.0411639e-06
-0.0016393524
3.1988289e-06
-0.0016410332
3.3631574e-06
-0.0016427996
3.5341932e-06
-0.0016446549
3.7120939e-06
-0.0016466026
3.8968677e-06
-0.0016486462
4.0886205e-06
-0.0016507891
4.2872852e-06
-0.0016530349
4.4928785e-06
-0.0016553869
4.7052109e-06
-0.0016578484
4.924163e-06
-0.0016604225
5.149372e-06
-0.0016631122
5.3805112e-06
-0.0016659203
5.617085e-06
-0.0016688491
5.858402e-06
-0.0016719006
6.1038003e-06
-0.0016750765
6.3522887e-06
-0.0016783779
6.6029273e-06
-0.0016818051
6.854418e-06
-0.001685358
7.1055191e-06
-0.0016890356
7.3546024e-06
-0.0016928362
7.6001006e-06
-0.001696757
7.8400403e-06
-0.0017007942
8.0724561e-06
-0.0017049431
8.2950776e-06
-0.0017091974
8.5054787e-06
-0.0017135498
8.7010276e-06
-0.0017179916
8.8788895e-06
-0.0017225123
9.0360501e-06
-0.0017271
9.1692911e-06
-0.0017317411
9.2752456e-06
-0.0017364202
9.3504079e-06
-0.0017411202
9.3911749e-06
-0.0017458219
9.3938898e-06
-0.0017505045
9.3549205e-06
-0.0017551455
9.2706893e-06
-0.0017597204
9.1377917e-06
-0.0017642033
8.9530667e-06
-0.0017685669
8.7136985e-06
-0.0017727826
8.4173184e-06
-0.0017768209
8.0621312e-06
-0.0017806519
7.64699e-06
-0.0017842452
7.1715388e-06
-0.001787571
6.6362902e-06
-0.0017906
6.0427127e-06
-0.0017933041
5.3932889e-06
-0.0017956572
4.6915457e-06
-0.0017976353
3.9420588e-06
-0.0017992172
3.1503884e-06
-0.0018003849
2.3230122e-06
-0.0018011242
1.4671773e-06
-0.0018014246
5.9074576e-07
-0.0018012799
-2.9804884e-07
-0.0018006882
-1.1907369e-06
-0.0017996515
-2.078988e-06
-0.001798176
-2.9548706e-06
-0.0017962716
-3.810936e-06
-0.0017939516
-4.6404947e-06
-0.0017912319
-5.4377e-06
-0.0017881314
-6.1976366e-06
-0.0017846706
-6.9162952e-06
-0.0017808719
-7.5905355e-06
-0.0017767586
-8.2179653e-06
-0.0017723551
-8.7967893e-06
-0.0017676865
-9.3256686e-06
-0.0017627784
-9.8035458e-06
-0.0017576569
-1.0229547e-05
-0.0017523484
-1.0602868e-05
-0.0017468796
-1.092277e-05
-0.0017412779
-1.1188565e-05
-0.0017355705
-1.13997e-05
-0.0017297852
-1.155584e-05
-0.0017239495
-1.165696e-05
-0.0017180909
-1.1703457e-05
-0.0017122362
-1.1696249e-05
-0.0017064116
-1.1636797e-05
-0.0017006423
-1.1527151e-05
-0.001694952
-1.1369891e-05
-0.0016893632
-1.1168118e-05
-0.0016838963
-1.0925291e-05
-0.0016785699
-1.0645191e-05
-0.0016734007
-1.0331763e-05
-0.0016684034
-9.9890188e-06
-0.0016635906
-9.6209234e-06
-0.001658973
-9.2313313e-06
-0.0016545595
-8.823868e-06
-0.0016503573
-8.4019238e-06
-0.0016463721
-7.9685912e-06
-0.0016426082
-7.5266518e-06
-0.0016390685
-7.0785598e-06
-0.0016357551
-6.6264602e-06
-0.0016326691
-6.1721623e-06
-0.0016298106
-5.7171864e-06
-0.0016271795
-5.2627574e-06
-0.0016247749
-4.8098341e-06
-0.0016225957
-4.3591118e-06
-0.0016206406
-3.9110719e-06
-0.0016189081
-3.4659469e-06
-0.0016173966
-3.0238134e-06
-0.0016161047
-2.5845111e-06
-0.0016150311
-2.1478042e-06
-0.0016141748
-1.7131739e-06
-0.0016135349
-1.2801992e-06
-0.001613111
-8.4800726e-07
-4.1620174e-07
-0.0016188981
1.7233713e-06
-0.0016195004
1.8129997e-06
-0.0016201284
1.8900694e-06
-0.0016207891
1.988706e-06
-0.0016214819
2.0849687e-06
-0.0016222114
2.1950831e-06
-0.0016229786
2.3083975e-06
-0.001623787
2.4323e-06
-0.0016246386
2.562061e-06
-0.0016255365
2.7011063e-06
-0.0016264831
2.8473655e-06
-0.0016274814
3.0024895e-06
-0.001628534
3.165605e-06
-0.0016296439
3.3375725e-06
-0.001630814
3.5180601e-06
-0.0016320472
3.707583e-06
-0.0016333466
3.9060563e-06
-0.0016347152
4.11385e-06
-0.0016361562
4.3309913e-06
-0.0016376729
4.5577906e-06
-0.0016392683
4.7943181e-06
-0.001640946
5.0408518e-06
-0.0016427093
5.2974571e-06
-0.0016445616
5.5643706e-06
-0.0016465063
5.8416049e-06
-0.001648547
6.1293197e-06
-0.0016506871
6.427416e-06
-0.0016529302
6.7359212e-06
-0.0016552795
7.0545544e-06
-0.0016577385
7.3831413e-06
-0.0016603103
7.7211437e-06
-0.0016629979
8.0680789e-06
-0.001665804
8.4232119e-06
-0.0016687311
8.7855157e-06
-0.0016717813
9.1540083e-06
-0.0016749562
9.527214e-06
-0.001678257
9.9037344e-06
-0.0016816842
1.0281634e-05
-0.0016852378
1.065906e-05
-0.0016889168
1.1033579e-05
-0.0016927195
1.1402848e-05
-0.0016966434
1.1763912e-05
-0.0017006848
1.2113825e-05
-0.0017048389
1.2449183e-05
-0.0017090997
1.2766342e-05
-0.00171346
1.3061351e-05
-0.0017179111
1.3329947e-05
-0.0017224427
1.3567598e-05
-0.0017270428
1.3769462e-05
-0.001731698
1.3930471e-05
-0.001736393
1.4045344e-05
-0.0017411105
1.4108654e-05
-0.0017458315
1.4114888e-05
-0.0017505351
1.4058566e-05
-0.0017551987
1.393429e-05
-0.0017597978
1.3736918e-05
-0.0017643064
1.3461669e-05
-0.001768697
1.3104283e-05
-0.0017729409
1.2661167e-05
-0.0017770083
1.2129589e-05
-0.0017808691
1.1507792e-05
-0.0017844928
1.0795207e-05
-0.0017878491
9.9925721e-06
-0.0017909084
9.1020632e-06
-0.0017936425
8.1273823e-06
-0.0017960248
7.073805e-06
-0.0017980309
5.9481856e-06
-0.0017996394
4.7588629e-06
-0.0018008319
3.5155585e-06
-0.0018015939
2.229156e-06
-0.0018019146
9.1146567e-07
-0.0018017875
-4.2514081e-07
-0.0018012103
-1.7679412e-06
-0.0018001849
-3.1043969e-06
-0.0017987172
-4.4225522e-06
-0.001796817
-5.7111807e-06
-0.0017944973
-6.960179e-06
-0.0017917743
-8.1607049e-06
-0.0017886666
-9.3053038e-06
-0.0017851951
-1.0387878e-05
-0.001781382
-1.140363e-05
-0.001777251
-1.2348888e-05
-0.001772827
-1.3220878e-05
-0.0017681351
-1.4017521e-05
-0.0017632015
-1.473717e-05
-0.0017580526
-1.5378468e-05
-0.0017527152
-1.5940182e-05
-0.0017472168
-1.642119e-05
-0.0017415849
-1.6820463e-05
-0.0017358474
-1.7137196e-05
-0.0017300323
-1.7370918e-05
-0.0017241677
-1.7521639e-05
-0.0017182811
-1.7590011e-05
-0.0017123999
-1.7577471e-05
-0.0017065504
-1.7486276e-05
-0.001700758
-1.7319566e-05
-0.0016950466
-1.7081276e-05
-0.0016894386
-1.6776117e-05
-0.0016839546
-1.6409334e-05
-0.0016786131
-1.5986651e-05
-0.0016734309
-1.5514026e-05
-0.0016684224
-1.4997518e-05
-0.0016636002
-1.4443105e-05
-0.0016589749
-1.3856593e-05
-0.0016545553
-1.3243439e-05
-0.0016503485
-1.2608742e-05
-0.00164636
-1.1957148e-05
-0.0016425938
-1.1292832e-05
-0.0016390529
-1.0619476e-05
-0.001635739
-9.9402935e-06
-0.0016326532
-9.2579907e-06
-0.0016297956
-8.5748395e-06
-0.0016271656
-7.8926667e-06
-0.0016247626
-7.2128992e-06
-0.0016225851
-6.5365672e-06
-0.0016206318
-5.8643805e-06
-0.0016189011
-5.1966743e-06
-0.0016173913
-4.5335514e-06
-0.0016161011
-3.8747577e-06
-0.001615029
-3.2199286e-06
-0.0016141739
-2.5682712e-06
-0.0016135349
-1.9191464e-06
-0.0016131117
-1.2712266e-06
-6.2391624e-07
-0.0016188579
2.2924373e-06
-0.0016194566
2.4117177e-06
-0.0016200809
2.5143521e-06
-0.0016207379
2.6456955e-06
-0.0016214268
2.7738934e-06
-0.0016221523
2.9205535e-06
-0.0016229154
3.071486e-06
-0.0016237196
3.23654e-06
-0.001624567
3.4094114e-06
-0.0016254605
3.5946705e-06
-0.0016264027
3.7895576e-06
-0.0016273965
3.9962766e-06
-0.0016284446
4.2136639e-06
-0.0016295499
4.442869e-06
-0.0016307153
4.6834504e-06
-0.0016319438
4.9360964e-06
-0.0016332384
5.2006945e-06
-0.0016346023
5.4777388e-06
-0.0016360386
5.7672659e-06
-0.0016375505
6.0696899e-06
-0.0016391413
6.3851045e-06
-0.0016408143
6.7138804e-06
-0.0016425729
7.0561051e-06
-0.0016444207
7.4120947e-06
-0.0016463609
7.781867e-06
-0.0016483972
8.1656372e-06
-0.0016505331
8.5632767e-06
-0.001652772
8.9748267e-06
-0.0016551174
9.3999198e-06
-0.0016575726
9.838332e-06
-0.0016601408
1.0289357e-05
-0.0016628251
1.0752365e-05
-0.0016656282
1.1226392e-05
-0.0016685528
1.1710085e-05
-0.001671601
1.2202156e-05
-0.0016747744
1.2700656e-05
-0.0016780744
1.3203743e-05
-0.0016815016
1.3708854e-05
-0.0016850561
1.4213538e-05
-0.0016887371
1.4714569e-05
-0.0016925431
1.5208834e-05
-0.0016964716
1.5692403e-05
-0.0017005191
1.6161354e-05
-0.0017046811
1.6611147e-05
-0.0017089517
1.7036922e-05
-0.0017133237
1.7433398e-05
-0.0017177886
1.779488e-05
-0.0017223363
1.8115301e-05
-0.0017269551
1.838818e-05
-0.0017316313
1.8606726e-05
-0.0017363498
1.876386e-05
-0.0017410935
1.8852302e-05
-0.0017458432
1.8864648e-05
-0.0017505782
1.8793539e-05
-0.0017552756
1.8631714e-05
-0.001759911
1.8372248e-05
-0.001764458
1.8008701e-05
-0.001768889
1.7535316e-05
-0.0017731751
1.6947231e-05
-0.0017772862
1.6240729e-05
-0.0017811918
1.5413398e-05
-0.001784861
1.4464412e-05
-0.0017882632
1.3394695e-05
-0.0017913682
1.2207097e-05
-0.0017941473
1.0906512e-05
-0.0017965735
9.4999427e-06
-0.0017986218
7.9965101e-06
-0.0018002703
6.4073272e-06
-0.0018015001
4.7453639e-06
-0.0018022961
3.025156e-06
-0.0018026471
1.2624849e-06
-0.0018025461
-5.2610536e-07
-0.0018019905
-2.3236e-06
-0.0018009817
-4.1131979e-06
-0.0017995253
-5.8788556e-06
-0.001797631
-7.605503e-06
-0.0017953117
-9.2795404e-06
-0.0017925833
-1.0889044e-05
-0.0017894647
-1.2423923e-05
-0.0017859767
-1.3875893e-05
-0.0017821419
-1.5238397e-05
-0.0017779844
-1.6506384e-05
-0.0017735293
-1.7676008e-05
-0.0017688025
-1.8744366e-05
-0.0017638305
-1.9709151e-05
-0.0017586405
-2.0568473e-05
-0.00175326
-2.1320628e-05
-0.0017477171
-2.1964104e-05
-0.00174204
-2.2497532e-05
-0.0017362574
-2.2919878e-05
-0.0017303977
-2.3230579e-05
-0.0017244896
-2.3429735e-05
-0.0017185613
-2.3518315e-05
-0.0017126404
-2.3498355e-05
-0.0017067537
-2.3372979e-05
-0.0017009268
-2.31465e-05
-0.0016951838
-2.2824281e-05
-0.0016895472
-2.2412721e-05
-0.0016840376
-2.1918918e-05
-0.0016786736
-2.1350596e-05
-0.0016734719
-2.0715785e-05
-0.0016684468
-2.0022635e-05
-0.0016636107
-1.9279173e-05
-0.0016589741
-1.8493188e-05
-0.0016545455
-1.7671992e-05
-0.0016503319
-1.6822405e-05
-0.0016463384
-1.5950638e-05
-0.001642569
-1.5062265e-05
-0.0016390262
-1.416219e-05
-0.0016357119
-1.325469e-05
-0.0016326265
-1.2343364e-05
-0.0016297701
-1.1431222e-05
-0.0016271421
-1.052068e-05
-0.0016247414
-9.6136193e-06
-0.0016225665
-8.7113903e-06
-0.001620616
-7.8149154e-06
-0.0016188881
-6.9246172e-06
-0.001617381
-6.040609e-06
-0.0016160932
-5.1625273e-06
-0.0016150233
-4.2898647e-06
-0.00161417
-3.421538e-06
-0.0016135325
-2.5566783e-06
-0.0016131102
-1.6934856e-06
-8.3115751e-07
-0.0016188063
2.8569717e-06
-0.0016194003
3.0057212e-06
-0.0016200198
3.1338177e-06
-0.0016206718
3.2977187e-06
-0.0016213556
3.4577309e-06
-0.0016220759
3.6408003e-06
-0.0016228336
3.8292264e-06
-0.0016236324
4.0353043e-06
-0.0016244741
4.2511667e-06
-0.001625362
4.4825234e-06
-0.0016262984
4.7259308e-06
-0.0016272862
4.9841443e-06
-0.0016283283
5.2557132e-06
-0.0016294275
5.5420759e-06
-0.0016305867
5.8426829e-06
-0.001631809
6.1583962e-06
-0.0016330974
6.4890767e-06
-0.001634455
6.835343e-06
-0.001635885
7.1972419e-06
-0.0016373906
7.5752915e-06
-0.0016389751
7.9696099e-06
-0.0016406419
8.3806606e-06
-0.0016423943
8.8085545e-06
-0.0016442359
9.2536882e-06
-0.0016461701
9.7160869e-06
-0.0016482005
1.0196024e-05
-0.0016503306
1.0693344e-05
-0.0016525639
1.1208108e-05
-0.0016549038
1.1739869e-05
-0.0016573538
1.2288359e-05
-0.0016599172
1.2852716e-05
-0.001662597
1.3432171e-05
-0.0016653962
1.4025546e-05
-0.0016683173
1.4631179e-05
-0.0016713626
1.5247486e-05
-0.001674534
1.5872064e-05
-0.0016778329
1.6502642e-05
-0.0016812601
1.7136049e-05
-0.0016848158
1.7769248e-05
-0.0016884995
1.8398232e-05
-0.0016923098
1.9019132e-05
-0.0016962444
1.962705e-05
-0.0017003001
2.0217092e-05
-0.0017044726
2.0783587e-05
-0.0017087561
2.1320452e-05
-0.0017131438
2.1821072e-05
-0.0017176272
2.2278304e-05
-0.0017221964
2.2684534e-05
-0.0017268399
2.3031618e-05
-0.0017315442
2.3311016e-05
-0.0017362941
2.351382e-05
-0.0017410727
2.3630854e-05
-0.0017458608
2.3652786e-05
-0.0017506376
2.3570325e-05
-0.0017553802
2.3374292e-05
-0.0017600639
2.3055929e-05
-0.0017646622
2.2607067e-05
-0.0017691473
2.2020394e-05
-0.0017734898
2.128971e-05
-0.0017776593
2.0410255e-05
-0.0017816248
1.9378894e-05
-0.0017853549
1.819449e-05
-0.0017888183
1.68581e-05
-0.0017919844
1.5373202e-05
-0.0017948237
1.3745846e-05
-0.0017973085
1.1984735e-05
-0.0017994133
1.0101239e-05
-0.0018011152
8.1092422e-06
-0.0018023948
6.0249676e-06
-0.0018032362
3.8666237e-06
-0.0018036278
1.6539908e-06
-0.0018035617
-5.921712e-07
-0.0018030348
-2.8505091e-06
-0.0018020481
-5.0998853e-06
-0.0018006069
-7.320077e-06
-0.0017987203
-9.4920782e-06
-0.0017964012
-1.1598679e-05
-0.0017936654
-1.3624756e-05
-0.0017905319
-1.5557454e-05
-0.0017870216
-1.7386166e-05
-0.0017831576
-1.9102441e-05
-0.0017789643
-2.0699717e-05
-0.0017744673
-2.217295e-05
-0.0017696934
-2.3518303e-05
-0.0017646698
-2.4732715e-05
-0.0017594246
-2.5813692e-05
-0.0017539862
-2.6759016e-05
-0.0017483836
-2.7566759e-05
-0.0017426459
-2.8235224e-05
-0.0017368026
-2.876318e-05
-0.0017308831
-2.9150024e-05
-0.0017249168
-2.9396021e-05
-0.0017189326
-2.9502547e-05
-0.0017129586
-2.9472332e-05
-0.0017070221
-2.9309475e-05
-0.0017011491
-2.9019567e-05
-0.0016953638
-2.8609505e-05
-0.0016896891
-2.8087473e-05
-0.0016841455
-2.7462513e-05
-0.0016787516
-2.6744437e-05
-0.001673524
-2.5943415e-05
-0.0016684769
-2.506975e-05
-0.0016636225
-2.413357e-05
-0.001658971
-2.3144688e-05
-0.0016545307
-2.2112296e-05
-0.0016503081
-2.1044961e-05
-0.0016463083
-1.9950467e-05
-0.0016425348
-1.8835789e-05
-0.0016389899
-1.7707057e-05
-0.001635675
-1.6569603e-05
-0.0016325905
-1.5427902e-05
-0.001629736
-1.4285691e-05
-0.0016271107
-1.3145959e-05
-0.0016247133
-1.201102e-05
-0.0016225422
-1.0882524e-05
-0.0016205955
-9.7615875e-06
-0.0016188714
-8.6486976e-06
-0.0016173681
-7.5439586e-06
-0.0016160837
-6.4468762e-06
-0.0016150168
-5.3567811e-06
-0.0016141661
-4.2722794e-06
-0.0016135305
-3.1922559e-06
-0.0016131096
-2.1144155e-06
-1.0377385e-06
-0.0016187427
3.4158961e-06
-0.0016193309
3.5939107e-06
-0.0016199444
3.7473448e-06
-0.0016205903
3.9436268e-06
-0.0016212679
4.1353071e-06
-0.0016219817
4.3546208e-06
-0.0016227329
4.5803887e-06
-0.0016235249
4.8273346e-06
-0.0016243598
5.0860407e-06
-0.0016252406
5.3633508e-06
-0.0016261698
5.6551433e-06
-0.0016271504
5.9647238e-06
-0.001628185
6.2903575e-06
-0.0016292767
6.6337718e-06
-0.0016304284
6.9943115e-06
-0.001631643
7.3730123e-06
-0.0016329236
7.7697104e-06
-0.0016342734
8.1851491e-06
-0.0016356956
8.6193867e-06
-0.0016371933
9.073046e-06
-0.00163877
9.5462702e-06
-0.0016404289
1.0039617e-05
-0.0016421736
1.0553223e-05
-0.0016440075
1.1087567e-05
-0.0016459341
1.1642685e-05
-0.001647957
1.2218911e-05
-0.0016500797
1.2816071e-05
-0.0016523058
1.343425e-05
-0.0016546389
1.4072929e-05
-0.0016570824
1.473181e-05
-0.0016596395
1.5409883e-05
-0.0016623136
1.6106258e-05
-0.0016651076
1.6819555e-05
-0.0016680243
1.7547819e-05
-0.001671066
1.8289192e-05
-0.0016742347
1.9040837e-05
-0.0016775322
1.9800071e-05
-0.0016809592
2.0563131e-05
-0.0016845164
2.1326417e-05
-0.0016882033
2.2085155e-05
-0.0016920189
2.2834732e-05
-0.0016959612
2.3569295e-05
-0.0017000271
2.4282985e-05
-0.0017042125
2.4968998e-05
-0.0017085121
2.562003e-05
-0.0017129191
2.6228124e-05
-0.0017174255
2.6784676e-05
-0.0017220215
2.7280505e-05
-0.0017266956
2.7705777e-05
-0.0017314348
2.8050174e-05
-0.0017362239
2.8302914e-05
-0.0017410459
2.8452885e-05
-0.0017458819
2.8488769e-05
-0.0017507108
2.8399282e-05
-0.0017555098
2.8173263e-05
-0.0017602539
2.7800041e-05
-0.0017649165
2.7269648e-05
-0.0017694692
2.6573131e-05
-0.0017738824
2.5702874e-05
-0.0017781251
2.4652986e-05
-0.0017821658
2.3419534e-05
-0.0017859723
2.2000993e-05
-0.0017895127
2.0398484e-05
-0.0017927555
1.8616055e-05
-0.0017956705
1.6660863e-05
-0.0017982291
1.4543276e-05
-0.0018004047
1.2276892e-05
-0.0018021738
9.8783558e-06
-0.001803516
7.3671542e-06
-0.0018044146
4.7651951e-06
-0.0018048569
2.0962963e-06
-0.0018048346
-6.1450104e-07
-0.0018043436
-3.3414447e-06
-0.0018033846
-6.0589678e-06
-0.0018019621
-8.7425497e-06
-0.001800085
-1.1369136e-05
-0.0017977659
-1.3917765e-05
-0.0017950207
-1.6369965e-05
-0.0017918682
-1.8709954e-05
-0.0017883298
-2.0924637e-05
-0.0017844287
-2.3003499e-05
-0.0017801901
-2.4938297e-05
-0.0017756404
-2.6722637e-05
-0.0017708071
-2.8351607e-05
-0.0017657186
-2.9821275e-05
-0.0017604038
-3.1128452e-05
-0.0017548925
-3.2270345e-05
-0.0017492147
-3.3244592e-05
-0.0017434007
-3.4049168e-05
-0.0017374812
-3.4682694e-05
-0.0017314866
-3.5144589e-05
-0.0017254473
-3.5435383e-05
-0.0017193928
-3.5556965e-05
-0.0017133523
-3.551289e-05
-0.0017073534
-3.5308361e-05
-0.0017014226
-3.4950384e-05
-0.0016955846
-3.4447521e-05
-0.0016898622
-3.3809869e-05
-0.0016842762
-3.3048529e-05
-0.0016788451
-3.2175506e-05
-0.0016735853
-3.12032e-05
-0.0016685109
-3.0144148e-05
-0.0016636338
-2.901064e-05
-0.001658964
-2.781456e-05
-0.0016545092
-2.6567021e-05
-0.0016502758
-2.5278359e-05
-0.0016462684
-2.3957945e-05
-0.00164249
-2.2614163e-05
-0.0016389427
-2.1254359e-05
-0.0016356274
-1.9884915e-05
-0.0016325441
-1.8511166e-05
-0.0016296922
-1.7137557e-05
-0.0016270706
-1.5767624e-05
-0.0016246775
-1.4404093e-05
-0.0016225111
-1.3048889e-05
-0.0016205694
-1.1703292e-05
-0.0016188503
-1.036783e-05
-0.0016173517
-9.0425716e-06
-0.0016160717
-7.7268652e-06
-0.0016150086
-6.4198563e-06
-0.0016141611
-5.1198134e-06
-0.001613528
-3.8253554e-06
-0.0016131087
-2.5336636e-06
-1.2434882e-06
-0.0016186683
3.9681574e-06
-0.0016192496
4.1752171e-06
-0.0016198561
4.3538357e-06
-0.0016204947
4.582296e-06
-0.0016211649
4.8054701e-06
-0.0016218711
5.0608349e-06
-0.0016226145
5.3237646e-06
-0.0016233985
5.6113932e-06
-0.0016242253
5.912767e-06
-0.0016250978
6.2358569e-06
-0.0016260185
6.5758703e-06
-0.0016269904
6.936661e-06
-0.0016280163
7.3162139e-06
-0.0016290991
7.7165453e-06
-0.0016302417
8.1368964e-06
-0.0016314471
8.5784774e-06
-0.0016327185
9.041101e-06
-0.001634059
9.5256365e-06
-0.0016354718
1.0032155e-05
-0.0016369601
1.0561385e-05
-0.0016385273
1.1113496e-05
-0.0016401769
1.1689144e-05
-0.0016419121
1.2288491e-05
-0.0016437367
1.2912102e-05
-0.001645654
1.3560029e-05
-0.0016476678
1.4232673e-05
-0.0016497815
1.4929846e-05
-0.001651999
1.5651667e-05
-0.0016543236
1.6397556e-05
-0.001656759
1.7167195e-05
-0.0016593085
1.7959443e-05
-0.0016619756
1.8773304e-05
-0.0016647632
1.9607214e-05
-0.0016676744
2.0458948e-05
-0.0016707116
2.1326393e-05
-0.001673877
2.2206297e-05
-0.0016771725
2.309559e-05
-0.0016805994
2.3989941e-05
-0.0016841581
2.4885204e-05
-0.0016878488
2.5775858e-05
-0.0016916707
2.6656564e-05
-0.0016956219
2.7520523e-05
-0.0016996998
2.8360923e-05
-0.0017039007
2.9169832e-05
-0.0017082194
2.9938721e-05
-0.0017126495
3.0658282e-05
-0.0017171833
3.1318438e-05
-0.0017218112
3.190842e-05
-0.0017265221
3.2416675e-05
-0.001731303
3.2831064e-05
-0.001736139
3.3138892e-05
-0.0017410131
3.3327048e-05
-0.0017459065
3.3382166e-05
-0.0017507981
3.3290896e-05
-0.0017556649
3.3040012e-05
-0.0017604817
3.2616844e-05
-0.0017652216
3.2009524e-05
-0.0017698558
3.1207366e-05
-0.0017743542
3.0201232e-05
-0.0017786852
2.8984e-05
-0.0017828165
2.7550843e-05
-0.0017867153
2.5899753e-05
-0.0017903486
2.4031834e-05
-0.0017936842
2.1951631e-05
-0.0017966907
1.9667346e-05
-0.0017993384
1.7190969e-05
-0.0018015998
1.4538299e-05
-0.0018034501
1.1728735e-05
-0.001804868
8.7850327e-06
-0.0018058357
5.7328333e-06
-0.0018063394
2.6000368e-06
-0.0018063699
-5.8395032e-07
-0.0018059225
-3.78891e-06
-0.0018049967
-6.9847349e-06
-0.0018035968
-1.0142456e-05
-0.0018017311
-1.3234833e-05
-0.0017994119
-1.6236978e-05
-0.001796655
-1.9126892e-05
-0.0017934793
-2.1885667e-05
-0.0017899064
-2.4497516e-05
-0.0017859602
-2.6949652e-05
-0.0017816666
-2.9231954e-05
-0.0017770527
-3.1336482e-05
-0.0017721472
-3.3257083e-05
-0.0017669797
-3.4988807e-05
-0.0017615805
-3.6527666e-05
-0.0017559806
-3.7870216e-05
-0.0017502116
-3.9013633e-05
-0.0017443052
-3.9955575e-05
-0.0017382933
-4.0694563e-05
-0.0017322078
-4.1230124e-05
-0.00172608
-4.1563168e-05
-0.0017199407
-4.1696234e-05
-0.0017138198
-4.1633859e-05
-0.0017077456
-4.1382511e-05
-0.0017017452
-4.095078e-05
-0.0016958437
-4.0349051e-05
-0.0016900641
-3.9589492e-05
-0.0016844272
-3.8685404e-05
-0.0016789516
-3.7651112e-05
-0.0016736534
-3.6501359e-05
-0.0016685466
-3.5251007e-05
-0.0016636426
-3.3914584e-05
-0.0016589511
-3.2506108e-05
-0.0016544794
-3.1038653e-05
-0.0016502334
-2.9524351e-05
-0.0016462172
-2.797418e-05
-0.0016424334
-2.6397932e-05
-0.0016388836
-2.4804169e-05
-0.0016355682
-2.3200305e-05
-0.0016324869
-2.1592519e-05
-0.0016296385
-1.9985936e-05
-0.0016270215
-1.8384616e-05
-0.0016246339
-1.6791664e-05
-0.0016224736
-1.5209248e-05
-0.0016205381
-1.3638781e-05
-0.0016188251
-1.2080798e-05
-0.0016173324
-1.0535301e-05
-0.0016160578
-9.0014511e-06
-0.0016149995
-7.4781783e-06
-0.0016141559
-5.9633826e-06
-0.0016135259
-4.4553928e-06
-0.0016131087
-2.9508327e-06
-1.4482066e-06
-0.0016185803
4.5127088e-06
-0.0016191536
4.7485772e-06
-0.001619752
4.9522036e-06
-0.0016203823
5.2126149e-06
-0.0016210439
5.4670831e-06
-0.0016217414
5.7582784e-06
-0.0016224758
6.0581622e-06
-0.0016232506
6.3862598e-06
-0.001624068
6.7300964e-06
-0.0016249309
7.0987634e-06
-0.0016258418
7.486804e-06
-0.0016268038
7.8986184e-06
-0.0016278195
8.3319152e-06
-0.0016288919
8.7889994e-06
-0.001630024
9.269011e-06
-0.0016312189
9.7733352e-06
-0.0016324796
1.0301763e-05
-0.0016338092
1.0855291e-05
-0.0016352111
1.1434005e-05
-0.0016366884
1.203874e-05
-0.0016382446
1.2669696e-05
-0.0016398831
1.3327627e-05
-0.0016416073
1.4012726e-05
-0.0016434209
1.4725649e-05
-0.0016453273
1.5466468e-05
-0.0016473303
1.6235659e-05
-0.0016494335
1.7033028e-05
-0.0016516406
1.7858739e-05
-0.0016539552
1.8712163e-05
-0.001656381
1.9592978e-05
-0.0016589214
2.0499928e-05
-0.0016615801
2.1431929e-05
-0.0016643601
2.2387256e-05
-0.0016672646
2.3363433e-05
-0.0016702963
2.435812e-05
-0.0016734577
2.5367673e-05
-0.0016767508
2.638866e-05
-0.001680177
2.7416207e-05
-0.0016837375
2.8445646e-05
-0.0016874323
2.947073e-05
-0.0016912612
3.0485413e-05
-0.0016952226
3.1481968e-05
-0.0016993144
3.2452637e-05
-0.0017035329
3.3388369e-05
-0.0017078736
3.4279408e-05
-0.0017123304
3.5115092e-05
-0.0017168958
3.5883853e-05
-0.0017215607
3.6573309e-05
-0.0017263142
3.7170157e-05
-0.0017311435
3.7660396e-05
-0.001736034
3.8029359e-05
-0.0017409688
3.8261879e-05
-0.0017459291
3.834246e-05
-0.0017508938
3.8255602e-05
-0.0017558397
3.798592e-05
-0.0017607415
3.7518635e-05
-0.0017655718
3.6839871e-05
-0.0017703016
3.5937086e-05
-0.0017748998
3.47995e-05
-0.0017793345
3.3418643e-05
-0.0017835723
3.1788669e-05
-0.0017875795
2.9906981e-05
-0.0017913223
2.777456e-05
-0.001794767
2.5396359e-05
-0.0017978812
2.2781556e-05
-0.0018006339
1.9943709e-05
-0.0018029964
1.690078e-05
-0.0018049426
1.3674915e-05
-0.0018064497
1.0292146e-05
-0.0018074988
6.7818867e-06
-0.0018080749
3.1761719e-06
-0.0018081677
-4.9111228e-07
-0.0018077714
-4.1852079e-06
-0.0018068848
-7.8713396e-06
-0.0018055114
-1.1515901e-05
-0.0018036589
-1.5087309e-05
-0.0018013394
-1.8556544e-05
-0.0017985684
-2.1897863e-05
-0.001795365
-2.5089e-05
-0.0017917513
-2.8111236e-05
-0.0017877517
-3.0949265e-05
-0.0017833928
-3.359085e-05
-0.001778703
-3.6026277e-05
-0.0017737122
-3.8247954e-05
-0.0017684512
-4.0249737e-05
-0.0017629522
-4.2026713e-05
-0.0017572477
-4.3574698e-05
-0.0017513709
-4.4890377e-05
-0.0017453554
-4.5971094e-05
-0.0017392347
-4.6815339e-05
-0.0017330419
-4.7422843e-05
-0.0017268101
-4.7795041e-05
-0.001720571
-4.7935284e-05
-0.0017143556
-4.7849277e-05
-0.0017081932
-4.7544949e-05
-0.0017021113
-4.7032674e-05
-0.0016961355
-4.6324854e-05
-0.001690289
-4.5435913e-05
-0.0016845929
-4.438152e-05
-0.0016790656
-4.3178472e-05
-0.0016737229
-4.1843984e-05
-0.0016685786
-4.0395355e-05
-0.0016636437
-3.884944e-05
-0.0016589274
-3.7222458e-05
-0.0016544365
-3.5529491e-05
-0.0016501764
-3.3784505e-05
-0.0016461505
-3.2000094e-05
-0.0016423609
-3.0187467e-05
-0.0016388087
-2.8356391e-05
-0.0016354937
-2.6515295e-05
-0.0016324151
-2.4671177e-05
-0.0016295712
-2.2829817e-05
-0.0016269601
-2.0995758e-05
-0.0016245793
-1.9172454e-05
-0.0016224262
-1.7362273e-05
-0.0016204983
-1.5566728e-05
-0.0016187928
-1.3786321e-05
-0.0016173071
-1.2020951e-05
-0.001616039
-1.0269551e-05
-0.0016149864
-8.5308065e-06
-0.0016141476
-6.8022103e-06
-0.0016135212
-5.0817733e-06
-0.0016131065
-3.3655227e-06
-1.6516989e-06
-0.0016184818
5.048518e-06
-0.0016190462
5.3129416e-06
-0.0016196353
5.5413713e-06
-0.0016202562
5.833481e-06
-0.0016209081
6.1190153e-06
-0.0016215956
6.4457923e-06
-0.0016223199
6.7823935e-06
-0.0016230843
7.1507165e-06
-0.001623891
7.5367811e-06
-0.001624743
7.9507914e-06
-0.0016256429
8.3866349e-06
-0.0016265935
8.8492553e-06
-0.0016275977
9.3360893e-06
-0.0016286584
9.8497301e-06
-0.0016297786
1.038922e-05
-0.0016309614
1.0956118e-05
-0.0016322098
1.1550199e-05
-0.0016335271
1.2172584e-05
-0.0016349165
1.2823377e-05
-0.0016363813
1.3503523e-05
-0.0016379249
1.4213254e-05
-0.0016395507
1.4953425e-05
-0.0016412622
1.5724266e-05
-0.0016430631
1.6526528e-05
-0.0016449569
1.7360311e-05
-0.0016469474
1.8226172e-05
-0.0016490383
1.9123926e-05
-0.0016512334
2.0053791e-05
-0.0016535363
2.1015105e-05
-0.0016559509
2.2007558e-05
-0.0016584808
2.3029797e-05
-0.0016611295
2.4080675e-05
-0.0016639006
2.5158327e-05
-0.0016667972
2.6260053e-05
-0.0016698224
2.738331e-05
-0.0016729788
2.8524093e-05
-0.0016762688
2.9678635e-05
-0.0016796941
3.0841547e-05
-0.0016832562
3.2007665e-05
-0.0016869555
3.3170042e-05
-0.001690792
3.4321948e-05
-0.0016947648
3.5454744e-05
-0.0016988719
3.6559743e-05
-0.0017031103
3.7626781e-05
-0.0017074758
3.864488e-05
-0.0017119627
3.9602012e-05