/*--------------------------------*- C++ -*----------------------------------*\
| =========                 |                                                 |
| \\      /  F ield         | foam-extend: Open Source CFD                    |
|  \\    /   O peration     | Version:     4.1                                |
|   \\  /    A nd           | Web:         http://www.foam-extend.org         |
|    \\/     M anipulation  |                                                 |
\*---------------------------------------------------------------------------*/
FoamFile
{
    version     2.0;
    format      ascii;
    class       volScalarField;
    location    "1";
    object      rAU;
}
// * * * * * * * * * * * * * * * * * * * * * * * * * * * * * * * * * * * * * //

dimensions      [0 0 1 0 0 0 0];

internalField   nonuniform List<scalar> 
16796
(
0.00048789936
0.00048748937
0.00048748548
0.00048748148
0.0004874772
0.00048747278
0.00048746804
0.00048746314
0.00048745789
0.00048745244
0.00048744661
0.00048744055
0.00048743407
0.00048742733
0.00048742014
0.00048741265
0.00048740467
0.00048739636
0.00048738752
0.00048737831
0.00048736853
0.00048735834
0.00048734754
0.00048733629
0.00048732438
0.00048731199
0.0004872989
0.00048728528
0.00048727092
0.00048725598
0.00048724028
0.00048722391
0.00048720688
0.00048718902
0.0004871705
0.00048715115
0.00048713112
0.00048711024
0.00048708869
0.00048706629
0.00048704325
0.0004870194
0.00048699489
0.00048696969
0.00048694386
0.00048691745
0.00048689049
0.00048686307
0.00048683524
0.0004868071
0.00048677873
0.00048675025
0.00048672176
0.0004866934
0.0004866653
0.0004866376
0.00048661047
0.00048658407
0.00048655857
0.00048653416
0.000486511
0.00048648929
0.0004864692
0.00048645092
0.0004864346
0.00048642041
0.00048640849
0.00048639897
0.00048639196
0.00048638753
0.00048638576
0.00048638576
0.00048638669
0.00048639031
0.00048639662
0.00048640559
0.00048641714
0.00048643121
0.00048644769
0.00048646647
0.00048648743
0.00048651043
0.00048653533
0.00048656198
0.00048659023
0.00048661994
0.00048665094
0.00048668307
0.00048671618
0.00048675009
0.00048678465
0.00048681969
0.00048685504
0.00048689054
0.00048692603
0.00048696134
0.00048699632
0.00048703084
0.00048706476
0.00048709794
0.00048713028
0.00048716167
0.00048719202
0.00048722127
0.00048724933
0.00048727616
0.00048730172
0.00048732596
0.00048734885
0.00048737039
0.00048739056
0.00048740934
0.00048742675
0.00048744277
0.00048745741
0.00048747069
0.0004874826
0.00048749315
0.00048750236
0.00048751024
0.00048751677
0.000487522
0.0004875259
0.00048712275
0.00048759111
0.00048718146
0.00048717743
0.00048717324
0.00048716877
0.00048716415
0.00048715919
0.00048715406
0.00048714856
0.00048714284
0.00048713673
0.00048713038
0.00048712358
0.00048711652
0.00048710898
0.00048710112
0.00048709276
0.00048708405
0.00048707479
0.00048706514
0.0004870549
0.00048704423
0.00048703294
0.00048702117
0.00048700873
0.00048699578
0.00048698211
0.00048696789
0.00048695291
0.00048693734
0.00048692098
0.00048690394
0.00048688621
0.00048686765
0.00048684842
0.00048682833
0.00048680758
0.00048678596
0.00048676368
0.00048674055
0.00048671679
0.00048669223
0.00048666704
0.00048664119
0.00048661474
0.00048658774
0.00048656025
0.00048653236
0.00048650413
0.00048647567
0.00048644707
0.00048641845
0.00048638993
0.00048636167
0.00048633379
0.00048630647
0.00048627986
0.00048625414
0.00048622948
0.00048620609
0.00048618414
0.0004861638
0.00048614527
0.00048612871
0.00048611429
0.00048610215
0.00048609243
0.00048608524
0.00048608066
0.00048607876
0.00048607959
0.00048608043
0.0004860786
0.00048607949
0.00048608311
0.00048608945
0.00048609848
0.00048611011
0.00048612429
0.00048614089
0.00048615981
0.00048618093
0.0004862041
0.00048622918
0.00048625602
0.00048628447
0.00048631438
0.00048634559
0.00048637793
0.00048641125
0.00048644538
0.00048648016
0.0004865154
0.00048655096
0.00048658665
0.00048662232
0.0004866578
0.00048669294
0.0004867276
0.00048676163
0.00048679492
0.00048682735
0.00048685881
0.00048688923
0.00048691851
0.00048694661
0.00048697345
0.00048699901
0.00048702324
0.00048704613
0.00048706765
0.0004870878
0.00048710656
0.00048712393
0.00048713992
0.00048715454
0.00048716778
0.00048717966
0.00048719019
0.00048719937
0.00048720722
0.00048721375
0.00048721896
0.00048681763
0.00048758777
0.00048717796
0.00048717379
0.00048716942
0.00048716477
0.00048715994
0.00048715477
0.0004871494
0.00048714365
0.00048713768
0.00048713129
0.00048712464
0.00048711753
0.00048711014
0.00048710225
0.00048709403
0.00048708529
0.00048707617
0.00048706649
0.0004870564
0.00048704571
0.00048703456
0.00048702276
0.00048701047
0.00048699749
0.00048698397
0.00048696972
0.00048695489
0.00048693928
0.00048692306
0.00048690603
0.0004868883
0.00048686987
0.00048685059
0.00048683062
0.00048680979
0.00048678828
0.0004867659
0.00048674285
0.00048671896
0.00048669444
0.00048666914
0.00048664321
0.00048661666
0.00048658953
0.00048656189
0.00048653381
0.00048650537
0.00048647667
0.00048644779
0.00048641887
0.00048639002
0.00048636138
0.00048633311
0.00048630535
0.00048627828
0.00048625207
0.00048622692
0.00048620299
0.0004861805
0.00048615962
0.00048614054
0.00048612345
0.0004861085
0.00048609587
0.00048608568
0.00048607806
0.0004860731
0.00048607088
0.00048607144
0.0004860748
0.0004860766
0.00048607196
0.00048607007
0.00048607096
0.00048607466
0.00048608114
0.00048609035
0.00048610224
0.0004861167
0.00048613364
0.00048615293
0.00048617445
0.00048619804
0.00048622357
0.00048625088
0.00048627982
0.00048631023
0.00048634194
0.0004863748
0.00048640864
0.00048644328
0.00048647856
0.0004865143
0.00048655033
0.00048658648
0.00048662257
0.00048665846
0.00048669397
0.00048672895
0.00048676328
0.00048679683
0.00048682947
0.00048686113
0.0004868917
0.00048692111
0.0004869493
0.00048697622
0.00048700182
0.0004870261
0.000487049
0.00048707052
0.00048709066
0.0004871094
0.00048712675
0.00048714272
0.0004871573
0.00048717052
0.00048718237
0.00048719287
0.00048720203
0.00048720987
0.00048721639
0.00048681637
0.00048758453
0.00048717456
0.00048717025
0.00048716571
0.00048716089
0.00048715586
0.00048715049
0.00048714489
0.00048713891
0.00048713268
0.00048712602
0.00048711908
0.00048711167
0.00048710396
0.00048709573
0.00048708716
0.00048707804
0.00048706854
0.00048705845
0.00048704793
0.00048703678
0.00048702516
0.00048701287
0.00048700007
0.00048698655
0.00048697248
0.00048695765
0.00048694222
0.00048692599
0.00048690913
0.00048689143
0.00048687303
0.00048685389
0.00048683389
0.00048681319
0.00048679161
0.00048676934
0.0004867462
0.00048672238
0.00048669772
0.00048667242
0.00048664636
0.00048661969
0.0004865924
0.00048656457
0.00048653626
0.00048650755
0.00048647853
0.0004864493
0.00048641997
0.00048639066
0.00048636152
0.00048633269
0.00048630433
0.00048627661
0.00048624972
0.00048622383
0.00048619914
0.00048617585
0.00048615417
0.00048613427
0.00048611635
0.0004861006
0.00048608718
0.00048607624
0.00048606791
0.00048606232
0.00048605953
0.0004860596
0.00048606256
0.00048606841
0.0004860714
0.00048606387
0.00048605914
0.00048605725
0.00048605826
0.00048606216
0.00048606892
0.00048607851
0.00048609084
0.00048610581
0.0004861233
0.0004861432
0.00048616536
0.00048618963
0.00048621587
0.00048624391
0.0004862736
0.00048630477
0.00048633725
0.00048637089
0.0004864055
0.0004864409
0.00048647693
0.00048651339
0.0004865501
0.00048658689
0.00048662359
0.00048666002
0.00048669602
0.00048673145
0.00048676616
0.00048680003
0.00048683297
0.00048686485
0.0004868956
0.00048692516
0.00048695346
0.00048698045
0.00048700611
0.0004870304
0.00048705331
0.00048707482
0.00048709493
0.00048711363
0.00048713095
0.00048714687
0.00048716141
0.00048717458
0.00048718639
0.00048719686
0.000487206
0.00048721382
0.00048681511
0.00048758138
0.00048717126
0.00048716683
0.00048716211
0.00048715714
0.00048715191
0.00048714634
0.00048714053
0.00048713432
0.00048712784
0.00048712092
0.00048711371
0.00048710601
0.00048709798
0.00048708943
0.00048708051
0.00048707103
0.00048706114
0.00048705065
0.00048703971
0.00048702812
0.00048701604
0.00048700327
0.00048698997
0.00048697592
0.0004869613
0.0004869459
0.00048692988
0.00048691305
0.00048689555
0.0004868772
0.00048685811
0.00048683828
0.00048681756
0.00048679613
0.00048677381
0.00048675077
0.00048672686
0.00048670226
0.00048667682
0.00048665075
0.0004866239
0.00048659646
0.00048656842
0.00048653986
0.00048651084
0.00048648145
0.0004864518
0.00048642199
0.00048639215
0.0004863624
0.0004863329
0.00048630379
0.00048627528
0.00048624752
0.00048622071
0.00048619505
0.00048617074
0.00048614798
0.000486127
0.00048610799
0.00048609114
0.00048607663
0.00048606464
0.00048605531
0.00048604877
0.00048604512
0.00048604443
0.00048604673
0.00048605204
0.00048606034
0.00048606486
0.00048605437
0.00048604671
0.00048604199
0.00048604025
0.00048604153
0.00048604581
0.00048605308
0.00048606326
0.00048607626
0.00048609198
0.00048611029
0.00048613105
0.00048615412
0.00048617935
0.00048620657
0.00048623562
0.00048626633
0.00048629854
0.00048633207
0.00048636674
0.00048640237
0.00048643877
0.00048647576
0.00048651313
0.0004865507
0.0004865883
0.00048662572
0.00048666281
0.0004866994
0.00048673534
0.00048677049
0.00048680474
0.00048683797
0.0004868701
0.00048690104
0.00048693074
0.00048695913
0.00048698619
0.00048701187
0.00048703616
0.00048705905
0.00048708052
0.00048710058
0.00048711923
0.00048713648
0.00048715234
0.00048716683
0.00048717994
0.00048719171
0.00048720215
0.00048721127
0.00048681385
0.00048757833
0.00048716808
0.00048716353
0.00048715865
0.00048715351
0.00048714811
0.00048714235
0.00048713633
0.0004871299
0.00048712319
0.00048711602
0.00048710853
0.00048710055
0.00048709222
0.00048708335
0.0004870741
0.00048706426
0.000487054
0.00048704312
0.00048703176
0.00048701974
0.00048700721
0.00048699397
0.00048698017
0.00048696561
0.00048695045
0.00048693449
0.00048691789
0.00048690044
0.00048688232
0.00048686332
0.00048684356
0.00048682304
0.00048680161
0.00048677945
0.00048675637
0.00048673258
0.00048670789
0.0004866825
0.00048665627
0.00048662939
0.00048660175
0.00048657352
0.00048654469
0.00048651536
0.00048648559
0.00048645549
0.00048642516
0.00048639472
0.0004863643
0.00048633404
0.0004863041
0.00048627465
0.00048624589
0.000486218
0.00048619118
0.00048616565
0.00048614162
0.0004861193
0.00048609893
0.0004860807
0.00048606481
0.00048605145
0.0004860408
0.00048603299
0.00048602814
0.00048602637
0.00048602771
0.00048603219
0.00048603981
0.00048605052
0.00048605703
0.00048604349
0.00048603283
0.00048602518
0.00048602063
0.00048601923
0.00048602099
0.00048602591
0.00048603392
0.00048604495
0.00048605889
0.00048607564
0.00048609504
0.00048611696
0.00048614123
0.00048616769
0.00048619619
0.00048622654
0.00048625856
0.00048629209
0.00048632693
0.00048636288
0.00048639977
0.00048643737
0.00048647551
0.00048651395
0.00048655253
0.00048659104
0.00048662929
0.0004866671
0.00048670433
0.00048674081
0.00048677642
0.00048681105
0.00048684458
0.00048687694
0.00048690806
0.00048693786
0.00048696633
0.00048699342
0.0004870191
0.00048704336
0.00048706619
0.0004870876
0.00048710759
0.00048712616
0.00048714333
0.00048715911
0.00048717353
0.00048718659
0.00048719831
0.00048720872
0.0004868126
0.00048757539
0.000487165
0.00048716034
0.00048715531
0.00048715003
0.00048714445
0.00048713852
0.00048713229
0.00048712565
0.00048711871
0.0004871113
0.00048710355
0.0004870953
0.00048708667
0.0004870775
0.00048706791
0.00048705773
0.00048704711
0.00048703584
0.00048702409
0.00048701165
0.00048699867
0.00048698497
0.00048697068
0.00048695562
0.00048693993
0.00048692342
0.00048690624
0.0004868882
0.00048686945
0.00048684981
0.00048682939
0.00048680818
0.00048678604
0.00048676314
0.00048673932
0.00048671476
0.00048668928
0.0004866631
0.00048663605
0.00048660837
0.00048657991
0.00048655085
0.00048652121
0.00048649107
0.00048646051
0.00048642964
0.00048639859
0.00048636745
0.00048633638
0.00048630554
0.00048627509
0.00048624521
0.00048621612
0.000486188
0.00048616108
0.00048613557
0.00048611172
0.00048608973
0.00048606986
0.0004860523
0.00048603727
0.00048602496
0.00048601555
0.00048600917
0.00048600594
0.00048600597
0.00048600927
0.00048601588
0.00048602577
0.00048603887
0.00048604794
0.00048603124
0.00048601748
0.00048600683
0.00048599939
0.00048599525
0.00048599443
0.00048599695
0.00048600276
0.0004860118
0.00048602397
0.00048603916
0.00048605723
0.00048607804
0.00048610141
0.0004861272
0.00048615522
0.00048618529
0.00048621722
0.00048625085
0.00048628597
0.00048632236
0.00048635984
0.00048639818
0.00048643717
0.0004864766
0.00048651626
0.00048655593
0.00048659543
0.00048663455
0.00048667312
0.00048671099
0.00048674803
0.00048678408
0.00048681906
0.00048685287
0.00048688542
0.00048691666
0.00048694655
0.00048697505
0.00048700212
0.00048702776
0.00048705195
0.0004870747
0.00048709602
0.0004871159
0.00048713438
0.00048715146
0.00048716716
0.00048718149
0.0004871945
0.00048720619
0.00048681136
0.00048757255
0.00048716205
0.00048715728
0.00048715211
0.00048714668
0.00048714094
0.00048713483
0.00048712842
0.00048712158
0.00048711442
0.00048710677
0.00048709878
0.00048709025
0.00048708135
0.00048707187
0.00048706197
0.00048705145
0.00048704048
0.00048702884
0.00048701669
0.00048700384
0.00048699043
0.00048697627
0.00048696151
0.00048694595
0.00048692974
0.00048691269
0.00048689494
0.00048687631
0.00048685695
0.00048683667
0.00048681559
0.00048679369
0.00048677084
0.00048674722
0.00048672265
0.00048669731
0.00048667104
0.00048664405
0.00048661618
0.00048658766
0.00048655835
0.00048652845
0.00048649796
0.00048646697
0.00048643558
0.0004864039
0.00048637204
0.00048634015
0.00048630837
0.00048627686
0.00048624582
0.00048621542
0.0004861859
0.00048615746
0.00048613032
0.00048610474
0.00048608095
0.00048605918
0.0004860397
0.0004860227
0.00048600843
0.00048599707
0.00048598879
0.00048598375
0.00048598206
0.00048598381
0.00048598903
0.00048599771
0.00048600983
0.0004860253
0.00048603763
0.00048601765
0.00048600069
0.00048598693
0.00048597651
0.00048596954
0.00048596607
0.00048596614
0.00048596971
0.00048597674
0.00048598713
0.00048600078
0.00048601754
0.00048603727
0.00048605981
0.00048608498
0.0004861126
0.00048614248
0.00048617444
0.00048620828
0.00048624378
0.00048628073
0.00048631891
0.0004863581
0.00048639808
0.00048643859
0.00048647943
0.00048652037
0.00048656119
0.0004866017
0.0004866417
0.00048668103
0.00048671953
0.00048675707
0.00048679353
0.00048682881
0.00048686284
0.00048689553
0.00048692686
0.00048695677
0.00048698524
0.00048701225
0.0004870378
0.00048706189
0.00048708453
0.00048710572
0.00048712549
0.00048714385
0.00048716083
0.00048717644
0.00048719071
0.00048720367
0.00048681013
0.00048756984
0.00048715922
0.00048715435
0.00048714904
0.00048714349
0.00048713759
0.00048713132
0.00048712472
0.00048711769
0.00048711031
0.00048710244
0.00048709421
0.00048708543
0.00048707625
0.00048706648
0.00048705628
0.00048704543
0.00048703411
0.00048702211
0.00048700958
0.00048699633
0.0004869825
0.00048696789
0.00048695267
0.00048693662
0.0004869199
0.00048690232
0.00048688402
0.0004868648
0.00048684484
0.00048682392
0.00048680218
0.00048677961
0.00048675605
0.0004867317
0.00048670637
0.00048668025
0.00048665318
0.00048662537
0.00048659666
0.00048656728
0.00048653711
0.00048650632
0.00048647494
0.00048644307
0.0004864108
0.00048637824
0.00048634553
0.00048631281
0.00048628024
0.00048624799
0.00048621626
0.00048618525
0.0004861552
0.00048612632
0.00048609887
0.00048607309
0.00048604924
0.00048602758
0.00048600836
0.00048599182
0.00048597818
0.00048596766
0.00048596042
0.00048595663
0.00048595639
0.0004859598
0.00048596686
0.00048597758
0.0004859919
0.00048600972
0.00048602612
0.00048600274
0.00048598246
0.00048596547
0.00048595197
0.00048594208
0.00048593588
0.00048593344
0.00048593472
0.0004859397
0.00048594829
0.00048596039
0.00048597586
0.00048599455
0.0004860163
0.00048604093
0.00048606824
0.00048609803
0.00048613011
0.00048616427
0.00048620028
0.00048623791
0.00048627693
0.0004863171
0.00048635816
0.00048639988
0.00048644202
0.00048648433
0.00048652658
0.00048656856
0.00048661006
0.00048665091
0.00048669095
0.00048673002
0.00048676801
0.0004868048
0.00048684032
0.00048687449
0.00048690726
0.0004869386
0.00048696847
0.00048699686
0.00048702377
0.00048704919
0.00048707314
0.00048709563
0.00048711668
0.00048713631
0.00048715455
0.00048717142
0.00048718696
0.00048720118
0.0004868089
0.00048756724
0.00048715651
0.00048715156
0.00048714612
0.00048714045
0.0004871344
0.00048712797
0.00048712121
0.00048711399
0.00048710641
0.00048709832
0.00048708986
0.00048708083
0.00048707139
0.00048706134
0.00048705084
0.00048703968
0.00048702802
0.00048701567
0.00048700277
0.00048698912
0.00048697488
0.00048695984
0.00048694416
0.00048692764
0.00048691042
0.00048689231
0.00048687346
0.00048685368
0.00048683311
0.00048681157
0.00048678918
0.00048676593
0.00048674167
0.00048671658
0.00048669049
0.00048666359
0.00048663571
0.00048660707
0.0004865775
0.00048654724
0.00048651616
0.00048648446
0.00048645216
0.00048641935
0.00048638614
0.00048635265
0.00048631903
0.00048628541
0.00048625196
0.00048621888
0.00048618638
0.00048615465
0.00048612396
0.00048609454
0.00048606665
0.00048604055
0.00048601653
0.00048599485
0.00048597577
0.00048595956
0.00048594644
0.00048593664
0.00048593034
0.0004859277
0.00048592883
0.00048593381
0.00048594266
0.00048595537
0.00048597186
0.00048599203
0.00048601344
0.00048598653
0.00048596278
0.00048594245
0.00048592575
0.00048591283
0.00048590381
0.00048589877
0.0004858977
0.00048590058
0.00048590735
0.0004859179
0.00048593209
0.00048594978
0.00048597079
0.00048599494
0.00048602202
0.00048605183
0.00048608414
0.00048611875
0.00048615539
0.00048619383
0.00048623382
0.00048627509
0.00048631739
0.00048636044
0.00048640399
0.00048644778
0.00048649156
0.0004865351
0.0004865782
0.00048662064
0.00048666228
0.00048670293
0.00048674249
0.00048678084
0.00048681788
0.00048685354
0.00048688779
0.00048692056
0.00048695184
0.00048698161
0.00048700986
0.00048703661
0.00048706187
0.00048708564
0.00048710796
0.00048712885
0.00048714834
0.00048716645
0.00048718323
0.0004871987
0.00048680768
0.00048756478
0.00048715395
0.00048714892
0.00048714336
0.00048713757
0.00048713138
0.00048712481
0.00048711788
0.00048711048
0.00048710271
0.00048709442
0.00048708573
0.00048707647
0.00048706677
0.00048705646
0.00048704566
0.0004870342
0.00048702222
0.00048700953
0.00048699627
0.00048698224
0.0004869676
0.00048695214
0.00048693601
0.00048691902
0.00048690131
0.00048688269
0.0004868633
0.00048684295
0.00048682179
0.00048679964
0.0004867766
0.00048675267
0.0004867277
0.00048670189
0.00048667503
0.00048664734
0.00048661864
0.00048658914
0.0004865587
0.00048652753
0.00048649553
0.00048646288
0.00048642961
0.00048639582
0.00048636163
0.00048632714
0.00048629253
0.00048625793
0.00048622353
0.00048618953
0.00048615614
0.00048612359
0.00048609215
0.00048606206
0.00048603361
0.00048600707
0.00048598274
0.0004859609
0.00048594184
0.00048592582
0.0004859131
0.00048590391
0.00048589843
0.00048589684
0.00048589925
0.00048590574
0.00048591632
0.00048593097
0.00048594962
0.00048597213
0.00048599794
0.00048596903
0.00048594167
0.00048591785
0.00048589781
0.00048588175
0.0004858698
0.00048586207
0.00048585857
0.0004858593
0.00048586421
0.00048587319
0.00048588612
0.00048590283
0.00048592316
0.0004859469
0.00048597384
0.00048600377
0.00048603643
0.00048607161
0.00048610902
0.00048614842
0.00048618952
0.00048623205
0.00048627571
0.00048632022
0.00048636532
0.0004864107
0.00048645613
0.00048650134
0.00048654611
0.00048659023
0.00048663353
0.00048667583
0.00048671701
0.00048675694
0.00048679554
0.00048683272
0.00048686845
0.00048690267
0.00048693535
0.0004869665
0.0004869961
0.00048702417
0.00048705072
0.00048707577
0.00048709934
0.00048712148
0.0004871422
0.00048716154
0.00048717955
0.00048719626
0.00048680648
0.00048756245
0.00048715153
0.00048714642
0.00048714075
0.00048713486
0.00048712853
0.00048712183
0.00048711474
0.00048710718
0.00048709923
0.00048709074
0.00048708184
0.00048707235
0.00048706241
0.00048705184
0.00048704077
0.00048702901
0.00048701672
0.00048700369
0.00048699008
0.00048697568
0.00048696065
0.00048694478
0.00048692822
0.00048691077
0.00048689258
0.00048687346
0.00048685354
0.00048683263
0.00048681089
0.00048678812
0.00048676444
0.00048673984
0.00048671418
0.00048668762
0.00048666001
0.00048663151
0.00048660198
0.00048657162
0.00048654028
0.00048650819
0.00048647523
0.00048644159
0.00048640731
0.00048637249
0.00048633725
0.00048630171
0.00048626603
0.00048623037
0.00048619492
0.0004861599
0.00048612552
0.00048609204
0.00048605972
0.00048602884
0.00048599969
0.00048597258
0.0004859478
0.00048592566
0.00048590648
0.00048589052
0.00048587806
0.00048586935
0.00048586459
0.00048586394
0.00048586754
0.00048587546
0.00048588771
0.00048590427
0.00048592505
0.0004859499
0.00048597864
0.00048595024
0.00048591911
0.00048589164
0.00048586812
0.00048584878
0.00048583377
0.00048582325
0.00048581724
0.00048581576
0.00048581876
0.00048582616
0.00048583782
0.00048585359
0.00048587328
0.00048589668
0.00048592358
0.00048595373
0.00048598688
0.00048602276
0.0004860611
0.0004861016
0.00048614397
0.0004861879
0.00048623308
0.0004862792
0.00048632598
0.00048637309
0.00048642027
0.00048646726
0.0004865138
0.00048655968
0.00048660472
0.00048664873
0.00048669157
0.00048673314
0.00048677332
0.00048681205
0.00048684927
0.00048688494
0.00048691904
0.00048695157
0.00048698251
0.00048701188
0.00048703972
0.00048706602
0.00048709084
0.0004871142
0.00048713614
0.00048715669
0.00048717591
0.00048719384
0.00048680529
0.00048756025
0.00048714925
0.00048714408
0.00048713831
0.00048713231
0.00048712587
0.00048711904
0.0004871118
0.00048710409
0.00048709596
0.00048708729
0.00048707819
0.00048706848
0.00048705831
0.00048704748
0.00048703615
0.00048702411
0.00048701152
0.00048699817
0.00048698422
0.00048696946
0.00048695405
0.00048693778
0.0004869208
0.00048690291
0.00048688425
0.00048686463
0.00048684419
0.00048682274
0.00048680042
0.00048677705
0.00048675273
0.00048672746
0.0004867011
0.00048667381
0.00048664542
0.00048661612
0.00048658575
0.00048655451
0.00048652225
0.0004864892
0.00048645526
0.0004864206
0.00048638526
0.00048634936
0.00048631301
0.00048627634
0.00048623952
0.00048620272
0.00048616613
0.00048612998
0.0004860945
0.00048605996
0.00048602664
0.00048599483
0.00048596485
0.000485937
0.00048591163
0.00048588905
0.00048586959
0.00048585355
0.00048584122
0.00048583285
0.00048582867
0.00048582886
0.00048583355
0.00048584283
0.00048585669
0.00048587512
0.00048589801
0.00048592521
0.00048595651
0.00048593018
0.00048589509
0.00048586381
0.00048583664
0.00048581386
0.00048579567
0.00048578223
0.00048577361
0.00048576984
0.00048577089
0.00048577667
0.00048578706
0.00048580191
0.00048582101
0.00048584416
0.00048587111
0.0004859016
0.00048593536
0.00048597211
0.00048601152
0.00048605329
0.00048609709
0.00048614259
0.00048618946
0.00048623735
0.00048628595
0.00048633493
0.000486384
0.00048643287
0.00048648128
0.00048652901
0.00048657586
0.00048662164
0.00048666621
0.00048670945
0.00048675125
0.00048679154
0.00048683027
0.00048686741
0.00048690293
0.00048693682
0.0004869691
0.00048699977
0.00048702887
0.00048705642
0.00048708246
0.00048710702
0.00048713016
0.00048715191
0.00048717233
0.00048719145
0.00048680411
0.00048755821
0.00048714712
0.0004871419
0.00048713603
0.00048712995
0.00048712339
0.00048711644
0.00048710907
0.00048710121
0.00048709293
0.00048708408
0.00048707479
0.00048706487
0.00048705448
0.00048704341
0.00048703183
0.00048701951
0.00048700663
0.00048699298
0.0004869787
0.0004869636
0.00048694782
0.00048693116
0.00048691377
0.00048689544
0.00048687632
0.00048685622
0.00048683527
0.00048681328
0.0004867904
0.00048676643
0.00048674148
0.00048671555
0.00048668849
0.00048666046
0.0004866313
0.00048660119
0.00048656996
0.00048653782
0.00048650463
0.0004864706
0.00048643564
0.00048639992
0.00048636348
0.00048632644
0.00048628892
0.00048625105
0.00048621301
0.00048617497
0.00048613714
0.00048609976
0.00048606307
0.00048602734
0.00048599288
0.00048596
0.00048592903
0.0004859003
0.00048587417
0.00048585099
0.00048583109
0.00048581481
0.00048580245
0.0004857943
0.00048579057
0.00048579149
0.00048579717
0.00048580771
0.00048582313
0.00048584339
0.00048586838
0.00048589794
0.00048593184
0.00048590886
0.00048586962
0.00048583431
0.00048580332
0.00048577693
0.0004857554
0.00048573892
0.00048572757
0.00048572142
0.00048572045
0.00048572459
0.00048573371
0.00048574765
0.00048576623
0.00048578919
0.0004858163
0.00048584726
0.00048588178
0.00048591954
0.0004859602
0.00048600342
0.00048604884
0.00048609609
0.00048614481
0.00048619463
0.00048624522
0.00048629622
0.0004863473
0.00048639818
0.00048644858
0.00048649825
0.00048654699
0.00048659461
0.00048664096
0.00048668591
0.00048672936
0.00048677124
0.0004868115
0.0004868501
0.00048688704
0.0004869223
0.0004869559
0.00048698785
0.00048701821
0.00048704698
0.00048707422
0.00048709997
0.00048712428
0.00048714721
0.00048716879
0.0004871891
0.00048680295
0.00048755631
0.00048714516
0.00048713989
0.00048713393
0.00048712777
0.00048712111
0.00048711405
0.00048710656
0.00048709856
0.00048709012
0.00048708111
0.00048707164
0.00048706153
0.00048705093
0.00048703964
0.0004870278
0.00048701523
0.00048700207
0.00048698812
0.00048697353
0.00048695809
0.00048694195
0.00048692492
0.00048690713
0.00048688838
0.00048686882
0.00048684824
0.0004868268
0.00048680428
0.00048678084
0.00048675628
0.00048673071
0.00048670412
0.00048667636
0.0004866476
0.00048661766
0.00048658673
0.00048655464
0.00048652159
0.00048648744
0.00048645241
0.00048641639
0.00048637957
0.00048634198
0.00048630375
0.00048626499
0.00048622585
0.00048618651
0.00048614714
0.00048610797
0.00048606923
0.00048603119
0.00048599414
0.0004859584
0.0004859243
0.00048589218
0.0004858624
0.00048583535
0.00048581139
0.00048579089
0.00048577421
0.00048576166
0.00048575356
0.00048575016
0.00048575167
0.00048575823
0.00048576997
0.00048578688
0.00048580893
0.00048583601
0.00048586794
0.00048590449
0.00048588627
0.00048584266
0.00048580313
0.0004857681
0.00048573793
0.00048571289
0.00048569321
0.00048567901
0.00048567038
0.00048566732
0.00048566977
0.00048567761
0.00048569067
0.00048570877
0.00048573164
0.00048575901
0.00048579058
0.00048582601
0.00048586497
0.00048590706
0.00048595192
0.00048599915
0.00048604834
0.00048609911
0.00048615105
0.00048620379
0.00048625696
0.0004863102
0.00048636322
0.00048641571
0.00048646742
0.00048651814
0.00048656767
0.00048661585
0.00048666255
0.00048670769
0.00048675117
0.00048679298
0.00048683306
0.0004868714
0.00048690803
0.00048694294
0.00048697616
0.00048700774
0.00048703772
0.00048706614
0.00048709306
0.00048711852
0.00048714259
0.00048716533
0.00048718678
0.00048680181
0.00048755456
0.00048714335
0.00048713804
0.00048713202
0.00048712578
0.00048711903
0.00048711188
0.00048710426
0.00048709614
0.00048708756
0.0004870784
0.00048706875
0.00048705846
0.00048704766
0.00048703616
0.00048702409
0.00048701127
0.00048699785
0.00048698361
0.00048696872
0.00048695295
0.00048693648
0.00048691908
0.0004869009
0.00048688174
0.00048686175
0.00048684071
0.00048681878
0.00048679575
0.00048677176
0.00048674662
0.00048672044
0.00048669319
0.00048666474
0.00048663525
0.00048660453
0.00048657277
0.00048653981
0.00048650583
0.0004864707
0.00048643464
0.00048639753
0.00048635957
0.00048632079
0.00048628131
0.00048624125
0.00048620076
0.00048616002
0.00048611922
0.0004860786
0.00048603839
0.00048599887
0.00048596036
0.00048592319
0.00048588769
0.00048585425
0.00048582326
0.0004857951
0.00048577018
0.0004857489
0.00048573163
0.00048571873
0.00048571052
0.00048570729
0.00048570926
0.0004857166
0.00048572943
0.00048574777
0.00048577157
0.00048580073
0.00048583506
0.00048587431
0.00048586243
0.0004858142
0.00048577022
0.00048573094
0.00048569677
0.00048566803
0.00048564499
0.0004856278
0.00048561658
0.00048561134
0.00048561205
0.00048561859
0.00048563081
0.00048564848
0.00048567134
0.0004856991
0.00048573143
0.00048576794
0.00048580827
0.000485852
0.00048589871
0.00048594796
0.00048599931
0.00048605232
0.00048610657
0.00048616165
0.00048621716
0.00048627272
0.00048632801
0.00048638272
0.00048643657
0.00048648935
0.00048654085
0.00048659092
0.00048663943
0.00048668628
0.00048673139
0.00048677475
0.00048681631
0.00048685606
0.00048689403
0.00048693024
0.00048696471
0.00048699751
0.00048702866
0.00048705824
0.00048708629
0.00048711288
0.00048713807
0.00048716193
0.00048718452
0.00048680069
0.00048755298
0.00048714172
0.00048713638
0.00048713028
0.00048712399
0.00048711715
0.00048710991
0.00048710219
0.00048709396
0.00048708525
0.00048707594
0.00048706614
0.00048705568
0.00048704469
0.00048703298
0.0004870207
0.00048700764
0.00048699396
0.00048697946
0.00048696427
0.0004869482
0.0004869314
0.00048691365
0.0004868951
0.00048687554
0.00048685513
0.00048683364
0.00048681124
0.0004867877
0.00048676317
0.00048673746
0.00048671067
0.00048668278
0.00048665364
0.00048662341
0.00048659192
0.00048655933
0.00048652548
0.00048649057
0.00048645444
0.00048641732
0.0004863791
0.00048633995
0.00048629992
0.00048625913
0.0004862177
0.00048617578
0.00048613356
0.00048609124
0.00048604904
0.00048600723
0.0004859661
0.00048592597
0.0004858872
0.00048585015
0.00048581521
0.0004857828
0.00048575335
0.00048572728
0.00048570502
0.00048568697
0.00048567352
0.00048566504
0.00048566181
0.00048566411
0.0004856721
0.00048568593
0.00048570563
0.00048573115
0.00048576238
0.00048579914
0.00048584114
0.00048583732
0.00048578423
0.00048573553
0.00048569176
0.00048565336
0.00048562071
0.00048559412
0.00048557379
0.00048555985
0.00048555235
0.00048555126
0.00048555649
0.00048556787
0.00048558517
0.00048560813
0.0004856364
0.00048566964
0.00048570742
0.00048574935
0.00048579493
0.00048584371
0.00048589521
0.00048594895
0.00048600443
0.0004860612
0.00048611882
0.00048617684
0.00048623488
0.00048629259
0.00048634963
0.00048640573
0.00048646067
0.00048651422
0.00048656623
0.00048661658
0.00048666517
0.00048671194
0.00048675685
0.00048679989
0.00048684105
0.00048688036