# Time	Cd	Cl	Cm
0.0005	202.36338	-2.218955	0
0.001	239.3635	-1.3520343	0
0.0015	262.18345	-0.74352655	0
0.002	276.17759	-1.0282701	0
0.0025	287.19551	-1.3000905	0
0.003	297.73847	-1.536907	0
0.0035	309.02328	-1.7044132	0
0.004	320.20315	-1.8216141	0
0.0045	330.2051	-1.9004476	0
0.005	338.78688	-1.9547082	0
0.0055	345.33943	-1.9807758	0
0.006	348.53473	-1.9770229	0
0.0065	348.26122	-1.9297423	0
0.007	345.00796	-1.832731	0
0.0075	339.57628	-1.6851589	0
0.008	333.2247	-1.4859276	0
0.0085	326.74324	-1.2490913	0
0.009	321.08912	-0.99563308	0
0.0095	316.68895	-0.7361174	0
0.01	313.63748	-0.48293701	0
0.0105	311.72984	-0.27774598	0
0.011	310.65421	-0.14008079	0
0.0115	310.1098	-0.085558363	0
0.012	309.86488	-0.12260061	0
0.0125	309.75916	-0.25234926	0
0.013	309.69251	-0.46891846	0
0.0135	309.61629	-0.76064884	0
0.014	309.52016	-1.1112705	0
0.0145	309.41582	-1.5016938	0
0.015	309.32337	-1.9116033	0
0.0155	309.25995	-2.3210002	0
0.016	309.23619	-2.7115152	0
0.0165	309.25262	-3.0674389	0
0.017	309.2989	-3.3768793	0
0.0175	309.36072	-3.6325344	0
0.018	309.42378	-3.8314774	0
0.0185	309.4761	-3.9758823	0
0.019	309.51018	-4.072099	0
0.0195	309.52335	-4.129744	0
0.02	309.51749	-4.1617776	0
0.0205	309.49727	-4.1817097	0
0.021	309.46795	-4.2037708	0
0.0215	309.43505	-4.241202	0
0.022	309.40251	-4.3048965	0
0.0225	309.37187	-4.4030992	0
0.023	309.34425	-4.53999	0
0.0235	309.31866	-4.7161946	0
0.024	309.29246	-4.9285596	0
0.0245	309.26774	-5.170387	0
0.025	309.23846	-5.4322226	0
0.0255	309.20493	-5.7023794	0
0.026	309.16793	-5.9682977	0
0.0265	309.12869	-6.2176084	0
0.027	309.08855	-6.4389413	0
0.0275	309.04911	-6.6226662	0
0.028	309.01076	-6.7625817	0
0.0285	308.97609	-6.8551926	0
0.029	308.94311	-6.9003692	0
0.0295	308.91204	-6.9013408	0
0.03	308.88377	-6.8643419	0
0.0305	308.8594	-6.7976966	0
0.031	308.83964	-6.7121024	0
0.0315	308.82537	-6.6188244	0
0.032	308.81582	-6.5281834	0
0.0325	308.8111	-6.451387	0
0.033	308.81153	-6.3973282	0
0.0335	308.81601	-6.3721866	0
0.034	308.82119	-6.3794141	0
0.0345	308.82539	-6.4198821	0
0.035	308.82723	-6.4919799	0
0.0355	308.82505	-6.5908586	0
0.036	308.81867	-6.710208	0
0.0365	308.80962	-6.841794	0
0.037	308.79835	-6.976445	0
0.0375	308.78552	-7.1053351	0
0.038	308.77308	-7.2197257	0
0.0385	308.76138	-7.3127085	0
0.039	308.7504	-7.3790591	0
0.0395	308.74149	-7.4154429	0
0.04	308.73416	-7.4211726	0
0.0405	308.72668	-7.39803	0
0.041	308.71967	-7.349377	0
0.0415	308.71314	-7.2806179	0
0.042	308.70765	-7.1985676	0
0.0425	308.70376	-7.110368	0
0.043	308.70119	-7.0243281	0
0.0435	308.70042	-6.9479117	0
0.044	308.70177	-6.8869533	0
0.0445	308.70468	-6.8459823	0
0.045	308.70897	-6.827772	0
0.0455	308.71279	-6.8331436	0
0.046	308.71516	-6.8616186	0
0.0465	308.71544	-6.9097375	0
0.047	308.71357	-6.9736777	0
0.0475	308.70982	-7.0480491	0
0.048	308.70526	-7.126812	0
0.0485	308.70027	-7.2031827	0
0.049	308.69547	-7.2713879	0
0.0495	308.69223	-7.3266018	0
0.05	308.69021	-7.3653115	0
0.0505	308.68859	-7.3848688	0
0.051	308.68745	-7.3845531	0
0.0515	308.6865	-7.3651452	0
0.052	308.68537	-7.3288771	0
0.0525	308.68429	-7.279454	0
0.053	308.68376	-7.2214196	0
0.0535	308.68281	-7.1583032	0
0.054	308.68207	-7.0971735	0
0.0545	308.682	-7.0425858	0
0.055	308.68277	-6.9984442	0
0.0555	308.68403	-6.9674913	0
0.056	308.68537	-6.9519677	0
0.0565	308.68661	-6.9524633	0
0.057	308.68744	-6.9683583	0
0.0575	308.68741	-6.9972384	0
0.058	308.68667	-7.0372263	0
0.0585	308.68486	-7.0841347	0
0.059	308.68318	-7.1344193	0
0.0595	308.68158	-7.1830552	0
0.06	308.68007	-7.2263368	0
0.0605	308.67882	-7.2613111	0
0.061	308.67818	-7.2848093	0
0.0615	308.67768	-7.2960176	0
0.062	308.67754	-7.2947435	0
0.0625	308.67766	-7.2805119	0
0.063	308.67773	-7.2556089	0
0.0635	308.67751	-7.221647	0
0.064	308.67745	-7.1823252	0
0.0645	308.6777	-7.139997	0
0.065	308.67745	-7.0994166	0
0.0655	308.67755	-7.0635427	0
0.066	308.67815	-7.035001	0
0.0665	308.67894	-7.0152444	0
0.067	308.67979	-7.0058147	0
0.0675	308.68047	-7.0069242	0
0.068	308.68074	-7.018063	0
0.0685	308.68032	-7.0377669	0
0.069	308.67985	-7.0648058	0
0.0695	308.67889	-7.0964281	0
0.07	308.67773	-7.130228	0
0.0705	308.67697	-7.162453	0
0.071	308.6763	-7.1907766	0
0.0715	308.67576	-7.2135649	0
0.072	308.67561	-7.2288631	0
0.0725	308.67565	-7.2356702	0
0.073	308.67596	-7.233732	0
0.0735	308.67632	-7.2236114	0
0.074	308.67672	-7.2066026	0
0.0745	308.67683	-7.1834477	0
0.075	308.67711	-7.1569828	0
0.0755	308.67716	-7.1286388	0
0.076	308.67715	-7.1016591	0
0.0765	308.67729	-7.0778897	0
0.077	308.67766	-7.0589176	0
0.0775	308.67805	-7.0469501	0
0.078	308.67854	-7.0413413	0
0.0785	308.67886	-7.0426887	0
0.079	308.6788	-7.0504492	0
0.0795	308.67853	-7.0644878	0
0.08	308.67801	-7.0828739	0
0.0805	308.67744	-7.1045717	0
0.081	308.67662	-7.1273266	0
0.0815	308.67612	-7.1492707	0
0.082	308.67583	-7.1681893	0
0.0825	308.67563	-7.1829847	0
0.083	308.67567	-7.1930491	0
0.0835	308.67593	-7.1972538	0
0.084	308.67622	-7.1955408	0
0.0845	308.67658	-7.1882885	0
0.085	308.67692	-7.1762578	0
0.0855	308.67722	-7.1609361	0
0.086	308.67733	-7.1428361	0
0.0865	308.67749	-7.1239115	0
0.087	308.67746	-7.1057568	0
0.0875	308.67758	-7.0897916	0
0.088	308.67767	-7.0777248	0
0.0885	308.6779	-7.0698699	0
0.089	308.67804	-7.0664269	0
0.0895	308.67809	-7.0678248	0
0.09	308.67804	-7.0737215	0
0.0905	308.67765	-7.0829336	0
0.091	308.67727	-7.0957187	0
0.0915	308.67675	-7.1103948	0
0.092	308.67643	-7.1258936	0
0.0925	308.67605	-7.1407634	0
0.093	308.67589	-7.1533515	0
0.0935	308.6758	-7.1631924	0
0.094	308.67599	-7.1695841	0
0.0945	308.6762	-7.1721878	0
0.095	308.6765	-7.1708181	0
0.0955	308.67678	-7.1657455	0
0.096	308.67716	-7.1575098	0
0.0965	308.67739	-7.1470675	0
0.097	308.67757	-7.1347972	0
0.0975	308.67765	-7.1220431	0
0.098	308.67768	-7.1098244	0
0.0985	308.67771	-7.0990789	0
0.099	308.67773	-7.0911378	0
0.0995	308.67777	-7.0859885	0
0.1	308.67775	-7.0839152	0
0.1005	308.6777	-7.0850252	0
0.101	308.67754	-7.0890869	0
0.1015	308.67721	-7.095545	0
0.102	308.67692	-7.1040527	0
0.1025	308.67659	-7.1140217	0
0.103	308.67631	-7.1243421	0
0.1035	308.67611	-7.1341319	0
0.104	308.67604	-7.1427049	0
0.1045	308.67605	-7.1493604	0
0.105	308.67617	-7.153263	0
0.1055	308.67637	-7.1548051	0
0.106	308.67664	-7.1538283	0
0.1065	308.67691	-7.1506074	0
0.107	308.6772	-7.1449971	0
0.1075	308.67745	-7.1378165	0
0.108	308.67765	-7.1297766	0
0.1085	308.67778	-7.1212395	0
0.109	308.67784	-7.113229	0
0.1095	308.67781	-7.1062199	0
0.11	308.67779	-7.1008516	0
0.1105	308.67772	-7.0973467	0
0.111	308.6776	-7.0959569	0
0.1115	308.67748	-7.0968038	0
0.112	308.67727	-7.0995398	0
0.1125	308.67698	-7.1040379	0
0.113	308.67673	-7.1097406	0
0.1135	308.67654	-7.1164255	0
0.114	308.67635	-7.1232186	0
0.1145	308.67624	-7.1297682	0
0.115	308.67618	-7.1351135	0
0.1155	308.67621	-7.1394784	0
0.116	308.67633	-7.1421787	0
0.1165	308.67647	-7.1431852	0
0.117	308.67667	-7.142466	0
0.1175	308.67688	-7.1402004	0
0.118	308.67713	-7.1365937	0
0.1185	308.67736	-7.1317564	0
0.119	308.67753	-7.1263653	0
0.1195	308.67768	-7.1208191	0
0.12	308.67774	-7.1155062	0
0.1205	308.67776	-7.1109431	0
0.121	308.6777	-7.1073489	0
0.1215	308.67762	-7.1054379	0
0.122	308.67747	-7.1044653	0
0.1225	308.67732	-7.1050474	0
0.123	308.6771	-7.1068295	0
0.1235	308.67694	-7.1098501	0
0.124	308.67673	-7.1136025	0
0.1245	308.6766	-7.1179406	0
0.125	308.67645	-7.1224305	0
0.1255	308.6764	-7.1266381	0
0.126	308.67639	-7.1302137	0
0.1265	308.67641	-7.133184	0
0.127	308.67651	-7.1346642	0
0.1275	308.67658	-7.1356702	0
0.128	308.67675	-7.1349193	0
0.1285	308.67687	-7.1336822	0
0.129	308.67706	-7.1310787	0
0.1295	308.6772	-7.1281665	0
0.13	308.67731	-7.1245302	0
0.1305	308.67742	-7.1211328	0
0.131	308.67747	-7.1175375	0
0.1315	308.67749	-7.1148153	0
0.132	308.67746	-7.1121796	0
0.1325	308.67739	-7.1112154	0
0.133	308.67732	-7.1103058	0
0.1335	308.6772	-7.111026	0
0.134	308.67712	-7.1118675	0
0.1345	308.67691	-7.1141043	0
0.135	308.67688	-7.1161955	0
0.1355	308.67668	-7.1193372	0
0.136	308.67667	-7.1218788	0
0.1365	308.67658	-7.1249148	0
0.137	308.67663	-7.1269603	0
0.1375	308.67658	-7.1291593	0
0.138	308.67671	-7.1298541	0
0.1385	308.67668	-7.1306555	0
0.139	308.67685	-7.1299162	0
0.1395	308.67683	-7.129446	0
0.14	308.6771	-7.127443	0
0.1405	308.67711	-7.1258427	0
0.141	308.67726	-7.12325	0
0.1415	308.67725	-7.1213261	0
0.142	308.67736	-7.1187895	0
0.1425	308.67729	-7.1172	0
0.143	308.67736	-7.1155119	0
0.1435	308.67722	-7.1149695	0
0.144	308.67731	-7.1141898	0
0.1445	308.67708	-7.1148554	0
0.145	308.67715	-7.1152016	0
0.1455	308.6769	-7.1167874	0
0.146	308.67694	-7.1180081	0
0.1465	308.67679	-7.1200685	0
0.147	308.67681	-7.1215838	0
0.1475	308.67673	-7.1235927	0
0.148	308.67678	-7.1248044	0
0.1485	308.67671	-7.1262908	0
0.149	308.67684	-7.1266861	0
0.1495	308.67676	-7.1273407	0
0.15	308.67694	-7.1267874	0
0.1505	308.67687	-7.1265371	0
0.151	308.67708	-7.1252402	0
0.1515	308.67703	-7.1243134	0
0.152	308.67719	-7.1225673	0
0.1525	308.67712	-7.1214747	0
0.153	308.67725	-7.1197727	0
0.1535	308.67717	-7.1188536	0
0.154	308.67725	-7.1176331	0
0.1545	308.67711	-7.1173837	0
0.155	308.67722	-7.1168754	0
0.1555	308.67704	-7.1173198	0
0.156	308.67718	-7.1174609	0
0.1565	308.67695	-7.118546	0
0.157	308.67698	-7.1192459	0
0.1575	308.67684	-7.1206802	0
0.158	308.67693	-7.1214835	0
0.1585	308.67678	-7.1229528	0
0.159	308.67688	-7.1235964	0
0.1595	308.67677	-7.1245114	0
0.16	308.6769	-7.1247816	0
0.1605	308.67679	-7.1251617	0
0.161	308.67695	-7.1247719	0
0.1615	308.67688	-7.1246516	0
0.162	308.67704	-7.1238198	0
0.1625	308.67696	-7.1232346	0
0.163	308.6771	-7.1221454	0
0.1635	308.67704	-7.1214888	0
0.164	308.67716	-7.1203099	0
0.1645	308.67706	-7.1198159	0
0.165	308.67715	-7.1190599	0
0.1655	308.67706	-7.1188848	0
0.166	308.67711	-7.1185702	0
0.1665	308.67705	-7.1188721	0
0.167	308.67707	-7.1189491	0
0.1675	308.67701	-7.1196362	0
0.168	308.677	-7.1200698	0
0.1685	308.67696	-7.1209416	0
0.169	308.67695	-7.1215144	0
0.1695	308.67693	-7.1223412	0
0.17	308.67692	-7.1227989	0
0.1705	308.67692	-7.1233803	0
0.171	308.67693	-7.1235355	0
0.1715	308.67693	-7.1237741	0
0.172	308.67695	-7.1235805	0
0.1725	308.67696	-7.1234738	0
0.173	308.67698	-7.1229973	0
0.1735	308.67701	-7.1225831	0
0.174	308.67703	-7.1219729	0
0.1745	308.67705	-7.1214419	0
0.175	308.67705	-7.120871	0
0.1755	308.67706	-7.1204229	0
0.176	308.67705	-7.1200249	0
0.1765	308.67705	-7.119702	0
0.177	308.67703	-7.1197353	0
0.1775	308.67703	-7.1197781	0
0.178	308.67698	-7.1200301	0
0.1785	308.67702	-7.1203719	0
0.179	308.67692	-7.1207391	0
0.1795	308.677	-7.1211123	0
0.18	308.67693	-7.1215698	0
0.1805	308.67697	-7.1219781	0
0.181	308.6769	-7.1224	0
0.1815	308.677	-7.1225956	0
0.182	308.6769	-7.1227635	0
0.1825	308.67702	-7.1227673	0
0.183	308.67694	-7.1227114	0
0.1835	308.67688	-7.1227421	0
0.184	308.67691	-7.1225254	0
0.1845	308.67693	-7.1221536	0
0.185	308.67713	-7.1215826	0
0.1855	308.67693	-7.1214459	0
0.186	308.67716	-7.1209264	0
0.1865	308.67695	-7.120897	0
0.187	308.67712	-7.1205985	0
0.1875	308.67708	-7.1205307	0
0.188	308.67701	-7.1204658	0
0.1885	308.67703	-7.1205431	0
0.189	308.677	-7.120648	0
0.1895	308.677	-7.1208246	0
0.19	308.67692	-7.1211409	0
0.1905	308.67702	-7.1213018	0
0.191	308.67692	-7.1216409	0
0.1915	308.67698	-7.1217828	0
0.192	308.67696	-7.1220518	0
0.1925	308.67696	-7.1221126	0
0.193	308.677	-7.1222422	0
0.1935	308.67695	-7.122227	0
0.194	308.67702	-7.1222018	0
0.1945	308.67698	-7.1220993	0
0.195	308.67702	-7.1219721	0
0.1955	308.67701	-7.1218074	0
0.196	308.67702	-7.1216309	0
0.1965	308.67706	-7.1214018	0
0.197	308.677	-7.1212298	0
0.1975	308.67704	-7.1211784	0
0.198	308.67701	-7.1210199	0
0.1985	308.67702	-7.1209825	0
0.199	308.67702	-7.1209472	0
0.1995	308.67696	-7.1210075	0
0.2	308.67702	-7.1210334	0
0.2005	308.67697	-7.1211255	0
0.201	308.67696	-7.1212697	0
0.2015	308.67697	-7.1214031	0
0.202	308.67698	-7.1214383	0
0.2025	308.67693	-7.1216319	0
0.203	308.67699	-7.1217112	0
0.2035	308.677	-7.1216855	0
0.204	308.67696	-7.1218294	0
0.2045	308.67702	-7.1217831	0
0.205	308.67701	-7.1218043	0
0.2055	308.67701	-7.12177	0
0.206	308.67707	-7.1217098	0
0.2065	308.67701	-7.1216793	0
0.207	308.67706	-7.1216144	0
0.2075	308.67704	-7.1215504	0
0.208	308.67699	-7.1215097	0
0.2085	308.67704	-7.1214768	0
0.209	308.67699	-7.1214302	0
0.2095	308.67701	-7.1214349	0
0.21	308.67701	-7.1214275	0
0.2105	308.677	-7.1214342	0
0.211	308.67701	-7.1214574	0
0.2115	308.67701	-7.1214896	0
0.212	308.677	-7.1215196	0
0.2125	308.67701	-7.1215673	0
0.213	308.67701	-7.1215989	0
0.2135	308.67699	-7.1216683	0
0.214	308.67698	-7.1216916	0
0.2145	308.677	-7.1217178	0
0.215	308.67696	-7.1217128	0
0.2155	308.67695	-7.1217151	0
0.216	308.67695	-7.1216764	0
0.2165	308.67694	-7.1216321	0
0.217	308.67694	-7.1215722	0
0.2175	308.67695	-7.1215077	0
0.218	308.67697	-7.1214384	0
0.2185	308.67699	-7.1213691	0
0.219	308.677	-7.1213137	0
0.2195	308.67701	-7.121267	0
0.22	308.67702	-7.1212399	0
0.2205	308.67702	-7.1212371	0
0.221	308.67704	-7.1212503	0
0.2215	308.67704	-7.1212968	0
0.222	308.67706	-7.121351	0
0.2225	308.67705	-7.1214461	0
0.223	308.67708	-7.1215268	0
0.2235	308.67701	-7.121617	0
0.224	308.67707	-7.121799	0
0.2245	308.67705	-7.1217378	0
0.225	308.6769	-7.1219845	0
0.2255	308.67711	-7.1219186	0
0.226	308.67696	-7.1219947	0
0.2265	308.67703	-7.1220544	0
0.227	308.67699	-7.1219608	0
0.2275	308.67696	-7.1220223	0
0.228	308.67698	-7.1219243	0
0.2285	308.67696	-7.1218607	0
0.229	308.67696	-7.121808	0
0.2295	308.67697	-7.1217035	0
0.23	308.67699	-7.1216292	0
0.2305	308.67698	-7.1215478	0
0.231	308.67702	-7.1214804	0
0.2315	308.67697	-7.1214252	0
0.232	308.67701	-7.1213996	0
0.2325	308.677	-7.1213757	0
0.233	308.677	-7.1213691	0
0.2335	308.67698	-7.1213873	0
0.234	308.67701	-7.1213999	0
0.2345	308.67696	-7.1214251	0
0.235	308.67698	-7.1214564	0
0.2355	308.67694	-7.1214806	0
0.236	308.67695	-7.121493	0
0.2365	308.6769	-7.1215154	0
0.237	308.67699	-7.1215402	0
0.2375	308.6769	-7.1214749	0
0.238	308.67692	-7.1215201	0
0.2385	308.67697	-7.1213895	0
0.239	308.67694	-7.1214276	0
0.2395	308.67698	-7.1213362	0
0.24	308.67701	-7.1213404	0
0.2405	308.67706	-7.1212923	0
0.241	308.67706	-7.1212798	0
0.2415	308.67704	-7.1213047	0
0.242	308.67706	-7.1213152	0
0.2425	308.67706	-7.1213167	0
0.243	308.67701	-7.1213682	0
0.2435	308.67703	-7.1213937	0
0.244	308.67701	-7.121396	0
0.2445	308.67695	-7.1214678	0
0.245	308.67707	-7.1214512	0
0.2455	308.67691	-7.1214943	0
0.246	308.6771	-7.1215168	0
0.2465	308.67702	-7.12152	0
0.247	308.67707	-7.1215792	0
0.2475	308.67708	-7.1215588	0
0.248	308.67702	-7.1216091	0
0.2485	308.67704	-7.1216404	0
0.249	308.67706	-7.1216212	0
0.2495	308.67694	-7.121694	0
0.25	308.67712	-7.1217015	0
0.2505	308.6769	-7.1216567	0
0.251	308.677	-7.121696	0
0.2515	308.6769	-7.1215974	0
0.252	308.67693	-7.1216292	0
0.2525	308.6769	-7.1214907	0
0.253	308.67689	-7.1214957	0
0.2535	308.6769	-7.1213917	0
0.254	308.67706	-7.1213857	0
0.2545	308.67688	-7.1213214	0
0.255	308.677	-7.1213389	0
0.2555	308.6771	-7.1212637	0
0.256	308.67702	-7.1213214	0
0.2565	308.67709	-7.1213285	0
0.257	308.67709	-7.1213306	0
0.2575	308.67701	-7.1213653	0
0.258	308.67703	-7.1214099	0
0.2585	308.67703	-7.1214136	0
0.259	308.677	-7.1214596	0
0.2595	308.67701	-7.1214749	0
0.26	308.67699	-7.1215078	0
0.2605	308.67702	-7.1215179	0
0.261	308.677	-7.1215594	0
0.2615	308.67704	-7.121559	0
0.262	308.67702	-7.1215783	0
0.2625	308.67702	-7.1215759	0
0.263	308.67703	-7.1215906	0
0.2635	308.67702	-7.1215888	0
0.264	308.67706	-7.1215608	0
0.2645	308.67696	-7.1215637	0
0.265	308.67707	-7.1215723	0
0.2655	308.67703	-7.1215253	0
0.266	308.67706	-7.1215968	0
0.2665	308.67706	-7.1215801	0
0.267	308.67707	-7.1215835	0
0.2675	308.67702	-7.1216445	0
0.268	308.67707	-7.1216229	0
0.2685	308.67703	-7.1216642	0
0.269	308.67701	-7.1216721	0
0.2695	308.67697	-7.1216897	0
0.27	308.67705	-7.1216771	0
0.2705	308.67688	-7.1216865	0
0.271	308.67709	-7.121718	0
0.2715	308.67696	-7.1216417	0
0.272	308.67698	-7.1216495	0
0.2725	308.67703	-7.1215959	0
0.273	308.67695	-7.1215969	0
0.2735	308.67699	-7.1215448	0
0.274	308.67698	-7.1214876	0
0.2745	308.67694	-7.1214715	0
0.275	308.67701	-7.1214459	0
0.2755	308.67699	-7.1214183	0
0.276	308.67702	-7.1214513	0
0.2765	308.67706	-7.1214335	0
0.277	308.67706	-7.1214824	0
0.2775	308.67709	-7.121505	0
0.278	308.6771	-7.1215596	0
0.2785	308.67706	-7.1215608	0
0.279	308.67707	-7.1216671	0
0.2795	308.6771	-7.1216755	0
0.28	308.67704	-7.1217957	0
0.2805	308.67706	-7.1218294	0
0.281	308.67711	-7.1218616	0
0.2815	308.67707	-7.1219221	0
0.282	308.67709	-7.1219458	0
0.2825	308.67695	-7.1219668	0
0.283	308.67708	-7.1219428	0
0.2835	308.67705	-7.1218981	0
0.284	308.67694	-7.1218705	0
0.2845	308.67705	-7.1217913	0
0.285	308.67695	-7.1217352	0
0.2855	308.67701	-7.121638	0
0.286	308.67696	-7.1215822	0
0.2865	308.67704	-7.1214287	0
0.287	308.67685	-7.1214977	0
0.2875	308.67704	-7.1213412	0
0.288	308.67688	-7.1213247	0
0.2885	308.677	-7.1212743	0
0.289	308.67699	-7.1212606	0
0.2895	308.67697	-7.12126	0
0.29	308.677	-7.1212833	0
0.2905	308.677	-7.1213159	0
0.291	308.67703	-7.1213748	0
0.2915	308.67704	-7.1214049	0
0.292	308.67705	-7.1214979	0
0.2925	308.67706	-7.1215305	0
0.293	308.67709	-7.1216277	0
0.2935	308.67707	-7.1216578	0
0.294	308.67703	-7.1218345	0
0.2945	308.67724	-7.1217414	0
0.295	308.67698	-7.121905	0
0.2955	308.6772	-7.1219327	0
0.296	308.67696	-7.1219168	0
0.2965	308.67705	-7.1219623	0
0.297	308.67702	-7.1218541	0
0.2975	308.67686	-7.1218677	0
0.298	308.67702	-7.1217841	0
0.2985	308.67688	-7.1216684	0
0.299	308.67703	-7.1216775	0
0.2995	308.67697	-7.1215571	0
0.3	308.67702	-7.1215077	0
0.3005	308.67701	-7.121467	0
0.301	308.67705	-7.1213959	0
0.3015	308.677	-7.1214397	0
0.302	308.67712	-7.1213814	0
0.3025	308.67696	-7.1214233	0
0.303	308.67707	-7.1214585	0
0.3035	308.67701	-7.1214717	0
0.304	308.67702	-7.1215065	0
0.3045	308.67698	-7.1215959	0
0.305	308.67707	-7.1215981	0
0.3055	308.6769	-7.1216673	0
0.306	308.67707	-7.1217126	0
0.3065	308.67698	-7.1217037	0
0.307	308.67698	-7.1217274	0
0.3075	308.67698	-7.121738	0
0.308	308.677	-7.1217082	0
0.3085	308.67698	-7.1217004	0
0.309	308.67697	-7.1216525	0
0.3095	308.67698	-7.1216399	0
0.31	308.67699	-7.121573	0
0.3105	308.677	-7.1215342	0
0.311	308.67702	-7.1214917	0
0.3115	308.67701	-7.1214342	0
0.312	308.67703	-7.1214092	0
0.3125	308.677	-7.1213424	0
0.313	308.67704	-7.121335	0
0.3135	308.67696	-7.1212926	0
0.314	308.67704	-7.1213141	0
0.3145	308.6769	-7.1212255	0
0.315	308.67698	-7.1213083	0
0.3155	308.67696	-7.1212686	0
0.316	308.67695	-7.1213015	0
0.3165	308.67693	-7.1213392	0
0.317	308.67703	-7.1213468	0
0.3175	308.67687	-7.1214003	0
0.318	308.67706	-7.1214116	0
0.3185	308.67699	-7.1214537	0
0.319	308.67704	-7.121494	0
0.3195	308.67698	-7.1215152	0
0.32	308.67706	-7.1215437	0
0.3205	308.67699	-7.1215427	0
0.321	308.67702	-7.1215605	0
0.3215	308.67701	-7.1215529	0
0.322	308.67702	-7.1215465	0
0.3225	308.67706	-7.1215399	0
0.323	308.67701	-7.1214975	0
0.3235	308.67697	-7.1215139	0
0.324	308.67705	-7.1215151	0
0.3245	308.67696	-7.1214608	0
0.325	308.67698	-7.121486	0
0.3255	308.67699	-7.1214645	0
0.326	308.67698	-7.121471	0
0.3265	308.67703	-7.1214651	0
0.327	308.67698	-7.1214666	0
0.3275	308.677	-7.1215132	0
0.328	308.67706	-7.1214906	0
0.3285	308.67691	-7.1215108	0
0.329	308.67707	-7.1215408	0
0.3295	308.67697	-7.1215416	0
0.33	308.67704	-7.1215994	0
0.3305	308.67703	-7.121598	0
0.331	308.67701	-7.1216629	0
0.3315	308.67702	-7.1216876	0
0.332	308.67706	-7.1216534	0
0.3325	308.67689	-7.1217316	0
0.333	308.67703	-7.1216835	0
0.3335	308.67688	-7.1217018	0
0.334	308.67701	-7.121679	0
0.3345	308.67687	-7.1215984	0
0.335	308.67694	-7.1216039	0
0.3355	308.6769	-7.1214853	0
0.336	308.67695	-7.1214428	0
0.3365	308.67702	-7.1213972	0
0.337	308.67699	-7.1213469	0
0.3375	308.67706	-7.1213278	0
0.338	308.67702	-7.1213113	0
0.3385	308.67708	-7.1212744	0
0.339	308.677	-7.1213596	0
0.3395	308.67708	-7.121243	0
0.34	308.67695	-7.1214112	0
0.3405	308.67707	-7.1213423	0
0.341	308.67697	-7.1213949	0
0.3415	308.67701	-7.1214526	0
0.342	308.67703	-7.1214373	0
0.3425	308.67696	-7.121479	0
0.343	308.67701	-7.1215157	0
0.3435	308.67698	-7.1214932	0
0.344	308.67695	-7.1215297	0
0.3445	308.67698	-7.1215559	0
0.345	308.677	-7.1215192	0
0.3455	308.67694	-7.1215716	0
0.346	308.67702	-7.1215334	0
0.3465	308.67697	-7.1215357	0
0.347	308.67703	-7.1215402	0
0.3475	308.67696	-7.1214887	0
0.348	308.67701	-7.1215371	0
0.3485	308.677	-7.1215094	0
0.349	308.67699	-7.1215149	0
0.3495	308.67704	-7.1214731	0
0.35	308.67699	-7.1215053	0
0.3505	308.67705	-7.1215109	0
0.351	308.67703	-7.1214922	0
0.3515	308.67699	-7.1215194	0
0.352	308.67705	-7.1214942	0
0.3525	308.677	-7.1214835	0
0.353	308.67703	-7.1214656	0
0.3535	308.67689	-7.1214577	0
0.354	308.67709	-7.1214732	0
0.3545	308.67698	-7.1214501	0
0.355	308.67711	-7.1215101	0
0.3555	308.67701	-7.1214641	0
0.356	308.67709	-7.1216008	0
0.3565	308.67706	-7.1215519	0
0.357	308.67708	-7.1216423	0
0.3575	308.67693	-7.1216046	0
0.358	308.67707	-7.1217121	0
0.3585	308.67699	-7.121639	0
0.359	308.67691	-7.1216531	0
0.3595	308.67697	-7.1216341	0
0.36	308.67696	-7.1216052	0
0.3605	308.67696	-7.1215761	0
0.361	308.67698	-7.1215796	0
0.3615	308.67701	-7.1215379	0
0.362	308.67698	-7.121532	0
0.3625	308.67697	-7.1215268	0
0.363	308.67697	-7.1215134	0
0.3635	308.67697	-7.1214976	0
0.364	308.67695	-7.1215041	0
0.3645	308.67695	-7.1214951	0
0.365	308.67696	-7.1214886	0
0.3655	308.67694	-7.1214846	0
0.366	308.67699	-7.121476	0
0.3665	308.67697	-7.1214381	0
0.367	308.67699	-7.121478	0
0.3675	308.67701	-7.1214521	0
0.368	308.67699	-7.121441	0
0.3685	308.67697	-7.1214722	0
0.369	308.67704	-7.1214388	0
0.3695	308.67693	-7.1214678	0
0.37	308.67707	-7.1215071	0
0.3705	308.67702	-7.1214419	0
0.371	308.677	-7.1214854	0
0.3715	308.67707	-7.1214516	0
0.372	308.67703	-7.1214444	0
0.3725	308.67704	-7.1214177	0
0.373	308.67698	-7.1214542	0
0.3735	308.67704	-7.1214108	0
0.374	308.67694	-7.1214405	0
0.3745	308.67702	-7.1214779	0
0.375	308.67702	-7.1214479	0
0.3755	308.67693	-7.1215341	0
0.376	308.67704	-7.121517	0
0.3765	308.67695	-7.1215544	0
0.377	308.677	-7.1216077	0
0.3775	308.67697	-7.1215807	0
0.378	308.67697	-7.121647	0
0.3785	308.67699	-7.1216428	0
0.379	308.67698	-7.1216623	0
0.3795	308.67698	-7.1216616	0
0.38	308.67697	-7.1216622	0
0.3805	308.67698	-7.1216479	0
0.381	308.677	-7.1216083	0
0.3815	308.67696	-7.1215964	0
0.382	308.67709	-7.1215644	0
0.3825	308.67692	-7.1215317	0
0.383	308.67703	-7.1214911	0
0.3835	308.67694	-7.1214175	0
0.384	308.67699	-7.1214129	0
0.3845	308.67698	-7.1213382	0
0.385	308.67694	-7.1213048	0
0.3855	308.67694	-7.1213077	0
0.386	308.67704	-7.121277	0
0.3865	308.67693	-7.1212508	0
0.387	308.67701	-7.1213012	0
0.3875	308.67695	-7.1212177	0
0.388	308.67698	-7.1212667	0
0.3885	308.67696	-7.1212725	0
0.389	308.67696	-7.1212461	0
0.3895	308.67691	-7.12129	0
0.39	308.67703	-7.1213081	0
0.3905	308.67698	-7.1213093	0
0.391	308.67695	-7.1213884	0
0.3915	308.67704	-7.1213849	0
0.392	308.67698	-7.121435	0
0.3925	308.67698	-7.1214987	0
0.393	308.677	-7.1215041	0
0.3935	308.67697	-7.1215391	0
0.394	308.677	-7.121534	0
0.3945	308.67694	-7.121519	0
0.395	308.67707	-7.1215488	0
0.3955	308.67691	-7.121478	0
0.396	308.67698	-7.1214587	0
0.3965	308.6769	-7.1213796	0
0.397	308.67696	-7.1213583	0
0.3975	308.67693	-7.1212817	0
0.398	308.67699	-7.1212432	0
0.3985	308.67695	-7.121149	0
0.399	308.67697	-7.1212033	0
0.3995	308.67703	-7.1211405	0
0.4	308.67702	-7.1211451	0
0.4005	308.677	-7.1211952	0
0.401	308.67707	-7.1212053	0
0.4015	308.67697	-7.1212638	0
0.402	308.67707	-7.1213032	0
0.4025	308.67703	-7.121367	0
0.403	308.67704	-7.1214303	0
0.4035	308.677	-7.1215005	0
0.404	308.67708	-7.1215163	0
0.4045	308.67697	-7.1215861	0
0.405	308.67703	-7.1215981	0
0.4055	308.67699	-7.121639	0
0.406	308.67699	-7.1216445	0
0.4065	308.67699	-7.1216683	0
0.407	308.67699	-7.1216224	0
0.4075	308.67696	-7.1216337	0
0.408	308.67699	-7.1215894	0
0.4085	308.67703	-7.1215341	0
0.409	308.677	-7.1215153	0
0.4095	308.67703	-7.1214537	0
0.41	308.67702	-7.1214162	0
0.4105	308.67701	-7.1213855	0
0.411	308.67701	-7.1213601	0
0.4115	308.677	-7.1213545	0
0.412	308.677	-7.1213605	0
0.4125	308.67702	-7.1213701	0
0.413	308.67701	-7.1213992	0
0.4135	308.67702	-7.1214236	0
0.414	308.677	-7.1214667	0
0.4145	308.67701	-7.1215221	0
0.415	308.67702	-7.1215997	0
0.4155	308.67702	-7.1215397	0
0.416	308.67698	-7.1216666	0
0.4165	308.67705	-7.1216449	0
0.417	308.677	-7.1216574	0
0.4175	308.67694	-7.1216866	0
0.418	308.67711	-7.1216303	0
0.4185	308.67694	-7.121667	0
0.419	308.6771	-7.1216017	0
0.4195	308.67692	-7.121556	0
0.42	308.67706	-7.1215436	0
0.4205	308.67702	-7.1214937	0
0.421	308.67701	-7.121431	0
0.4215	308.67701	-7.1214521	0
0.422	308.67708	-7.121346	0
0.4225	308.67687	-7.1213602	0
0.423	308.67713	-7.1213754	0
0.4235	308.67694	-7.121309	0
0.424	308.67708	-7.121474	0
0.4245	308.67701	-7.1213618	0
0.425	308.67701	-7.121503	0
0.4255	308.67705	-7.121529	0
0.426	308.67697	-7.1215563	0
0.4265	308.67693	-7.1216178	0
0.427	308.67699	-7.1215977	0
0.4275	308.67682	-7.1216224	0
0.428	308.67702	-7.1216137	0
0.4285	308.6769	-7.1215819	0
0.429	308.67702	-7.121571	0
0.4295	308.67702	-7.1215327	0
0.43	308.67698	-7.1215131	0
0.4305	308.67704	-7.1215005	0
0.431	308.67706	-7.1214464	0
0.4315	308.67705	-7.12146	0
0.432	308.67709	-7.1214807	0
0.4325	308.67706	-7.1213716	0
0.433	308.677	-7.1215124	0
0.4335	308.67712	-7.1214175	0
0.434	308.67694	-7.1215	0
0.4345	308.67701	-7.1214855	0
0.435	308.67699	-7.1214754	0
0.4355	308.67691	-7.1215067	0
0.436	308.67704	-7.1215063	0
0.4365	308.67694	-7.1215065	0
0.437	308.67704	-7.1215332	0
0.4375	308.67705	-7.1215335	0
0.438	308.67706	-7.1215659	0
0.4385	308.67702	-7.1214959	0
0.439	308.67702	-7.1215867	0
0.4395	308.67704	-7.1215255	0
0.44	308.677	-7.1215248	0
0.4405	308.67686	-7.1215447	0
0.441	308.67704	-7.1214993	0
0.4415	308.67686	-7.1215087	0
0.442	308.67712	-7.1215124	0
0.4425	308.67704	-7.1214752	0
0.443	308.67698	-7.1215317	0
0.4435	308.67713	-7.1215349	0
0.444	308.67708	-7.1215297	0
0.4445	308.67704	-7.1215766	0
0.445	308.67709	-7.121598	0
0.4455	308.67703	-7.1215849	0
0.446	308.67701	-7.1216451	0
0.4465	308.67702	-7.1216614	0
0.447	308.67708	-7.1216666	0
0.4475	308.6769	-7.1216616	0
0.448	308.67713	-7.12173	0
0.4485	308.677	-7.1216645	0
0.449	308.6771	-7.1218276	0
0.4495	308.67701	-7.1217199	0
0.45	308.67704	-7.1217864	0
0.4505	308.67701	-7.121712	0
0.451	308.67695	-7.1217262	0
0.4515	308.67696	-7.1216237	0
0.452	308.67685	-7.1216456	0
0.4525	308.67698	-7.1215336	0
0.453	308.67678	-7.1214883	0
0.4535	308.67722	-7.1214488	0
0.454	308.67679	-7.1214046	0
0.4545	308.67714	-7.1214321	0
0.455	308.67699	-7.1212984	0
0.4555	308.67699	-7.1214161	0
0.456	308.67715	-7.1213478	0
0.4565	308.67672	-7.1214038	0
0.457	308.6773	-7.121494	0
0.4575	308.67687	-7.121415	0
0.458	308.67705	-7.1215355	0
0.4585	308.67701	-7.1215113	0
0.459	308.67695	-7.1215518	0
0.4595	308.67699	-7.121563	0
0.46	308.67699	-7.1215564	0
0.4605	308.67696	-7.1215643	0
0.461	308.67696	-7.1215391	0
0.4615	308.67701	-7.1215165	0
0.462	308.67697	-7.1214838	0
0.4625	308.677	-7.1214833	0
0.463	308.67701	-7.12142	0
0.4635	308.67703	-7.1214317	0
0.464	308.67706	-7.1213651	0
0.4645	308.677	-7.1214186	0
0.465	308.6771	-7.1213476	0
0.4655	308.67703	-7.1213773	0
0.466	308.67706	-7.1214074	0
0.4665	308.677	-7.1214084	0
0.467	308.677	-7.1214381	0
0.4675	308.67694	-7.1214962	0
0.468	308.677	-7.121478	0
0.4685	308.67689	-7.121543	0
0.469	308.67703	-7.1215272	0
0.4695	308.67697	-7.12153	0
0.47	308.67699	-7.1215436	0
0.4705	308.67701	-7.1215047	0
0.471	308.67701	-7.1214939	0
0.4715	308.67702	-7.1214678	0
0.472	308.67703	-7.1214271	0
0.4725	308.67702	-7.1214293	0
0.473	308.67704	-7.1213866	0
0.4735	308.67704	-7.1213798	0
0.474	308.67702	-7.1213868	0
0.4745	308.67708	-7.1214137	0
0.475	308.67703	-7.121393	0
0.4755	308.67701	-7.121494	0
0.476	308.67704	-7.1214479	0
0.4765	308.67702	-7.1215123	0
0.477	308.67696	-7.1215546	0
0.4775	308.67705	-7.1215688	0
0.478	308.67695	-7.1215973	0
0.4785	308.67703	-7.1216487	0
0.479	308.67695	-7.1215858	0
0.4795	308.677	-7.1216631	0
0.48	308.67702	-7.12159	0
0.4805	308.67697	-7.121567	0
0.481	308.67703	-7.1215633	0
0.4815	308.67706	-7.1215051	0
0.482	308.677	-7.1215092	0
0.4825	308.67714	-7.1214826	0
0.483	308.67698	-7.1214693	0
0.4835	308.67708	-7.1214636	0
0.484	308.67697	-7.1214463	0
0.4845	308.67697	-7.1214597	0
0.485	308.67701	-7.1214538	0
0.4855	308.67696	-7.1214439	0
0.486	308.67694	-7.1214845	0
0.4865	308.67696	-7.1214546	0
0.487	308.67692	-7.1214336	0
0.4875	308.67696	-7.1214696	0
0.488	308.67696	-7.1214017	0
0.4885	308.677	-7.1214704	0
0.489	308.67702	-7.1214249	0
0.4895	308.67699	-7.1214851	0
0.49	308.67708	-7.1214741	0
0.4905	308.67703	-7.1215308	0
0.491	308.67713	-7.1215049	0
0.4915	308.67693	-7.1216298	0
0.492	308.67714	-7.1215684	0
0.4925	308.67696	-7.1216253	0
0.493	308.67706	-7.1216456	0
0.4935	308.67706	-7.1216323	0
0.494	308.67692	-7.1216457	0
0.4945	308.67705	-7.1216606	0
0.495	308.677	-7.1216051	0
0.4955	308.67692	-7.1216455	0
0.496	308.677	-7.1215745	0
0.4965	308.67693	-7.1216054	0
0.497	308.67699	-7.1215749	0
0.4975	308.67697	-7.1215475	0
0.498	308.67691	-7.1215609	0
0.4985	308.67703	-7.121521	0
0.499	308.67692	-7.1215176	0
0.4995	308.67705	-7.1215508	0
0.5	308.67703	-7.1214881	0
