/*--------------------------------*- C++ -*----------------------------------*\
| =========                 |                                                 |
| \\      /  F ield         | foam-extend: Open Source CFD                    |
|  \\    /   O peration     | Version:     4.1                                |
|   \\  /    A nd           | Web:         http://www.foam-extend.org         |
|    \\/     M anipulation  |                                                 |
\*---------------------------------------------------------------------------*/
FoamFile
{
    version     2.0;
    format      ascii;
    class       volScalarField;
    location    "1.35";
    object      p;
}
// * * * * * * * * * * * * * * * * * * * * * * * * * * * * * * * * * * * * * //

dimensions      [0 2 -2 0 0 0 0];

internalField   nonuniform List<scalar> 
4393
(
-46.418273
-92.981809
-146.7466
-201.53767
-258.52845
-318.02963
-380.42414
-446.02155
-515.04611
-587.60797
-663.6751
-743.04506
-825.31976
-909.8866
-995.91034
-1082.3384
-1167.9203
-1251.2386
-1330.7463
-1404.806
-1471.7265
-1529.7973
-1577.3239
-1612.6684
-1634.3033
-1640.8854
-1631.3606
-1605.1087
-1562.0231
-1502.604
-1428.0625
-1340.3041
-1241.8234
-1135.5207
-1024.4766
-911.72593
-800.06797
-691.9354
-589.32535
-493.786
-406.44477
-328.06276
-259.10049
-199.78383
-150.17413
-110.2404
-79.763324
-57.832382
-43.628086
-45.166108
-92.395988
-146.03402
-200.67386
-257.49552
-316.84191
-379.10958
-444.62018
-513.6098
-586.20065
-662.37229
-741.93238
-824.48984
-909.43459
-995.92816
-1082.909
-1169.1129
-1253.106
-1333.3245
-1408.115
-1475.7717
-1534.5696
-1582.7973
-1618.7954
-1641.0075
-1648.0568
-1638.8539
-1612.7037
-1569.4361
-1509.5441
-1434.2448
-1345.4785
-1245.8055
-1138.2117
-1025.868
-911.88881
-799.13374
-690.07206
-586.71533
-490.60836
-402.86289
-324.21744
-255.10991
-195.75333
-146.20058
-106.3603
-75.961665
-54.862732
-44.264561
-44.361869
-91.499235
-144.77573
-199.0548
-255.52563
-314.56078
-376.57892
-441.92396
-510.85514
-583.51835
-659.91601
-739.87538
-823.01875
-908.73987
-996.19234
-1084.2947
-1171.7532
-1257.0996
-1338.7353
-1414.975
-1484.0843
-1544.3101
-1593.9091
-1631.1785
-1654.5012
-1662.4208
-1653.7591
-1627.738
-1584.0956
-1523.2533
-1446.4221
-1355.6119
-1253.5193
-1143.3091
-1028.3381
-911.88387
-796.92629
-686.00501
-581.15567
-483.91055
-395.34377
-316.14221
-246.68996
-187.15636
-137.55084
-97.688009
-67.257903
-46.702979
-37.920451
-43.57115
-90.20349
-142.87202
-196.57256
-252.49937
-311.0536
-372.68275
-437.7627
-506.58748
-579.3395
-656.057
-736.59866
-820.60889
-907.48893
-996.38125
-1086.174
-1175.5279
-1262.9213
-1346.7025
-1425.1387
-1496.4546
-1558.8583
-1610.5622
-1649.8028
-1674.8749
-1684.1995
-1676.4523
-1650.7042
-1606.5449
-1544.2894
-1465.1355
-1371.1992
-1265.394
-1151.1695
-1032.1788
-911.95607
-793.66714
-679.9575
-572.89551
-473.98964
-384.25278
-304.29107
-234.40478
-174.68808
-125.07531
-85.291478
-55.022292
-34.934343
-26.79022
-42.746016
-88.586069
-140.40162
-193.29786
-248.47664
-306.36997
-367.46082
-432.16659
-500.82791
-573.67707
-650.80211
-732.10629
-817.26629
-905.69534
-996.52116
-1088.5891
-1180.4947
-1270.6404
-1357.3006
-1438.6791
-1512.9482
-1578.2702
-1632.8044
-1674.7131
-1702.1782
-1713.4589
-1707.0291
-1681.739
-1636.953
-1572.8177
-1490.4977
-1392.2537
-1281.3117
-1161.5348
-1037.0027
-911.61334
-788.78902
-671.31379
-561.29029
-460.18306
-368.91166
-287.96551
-217.52589
-157.57773
-107.95374
-68.296685
-38.299834
-18.683477
-10.927068
-41.737439
-86.53688
-137.25306
-189.114
-243.33039
-300.36944
-360.75689
-424.96191
-493.38476
-566.32287
-643.93065
-726.17224
-812.77016
-903.15678
-996.44216
-1091.4141
-1186.5793
-1280.2368
-1370.5625
-1455.6797
-1533.7003
-1602.7368
-1660.8935
-1706.2492
-1736.8501
-1750.7506
-1746.1565
-1721.6151
-1676.169
-1609.7098
-1523.3302
-1419.4773
-1301.8089
-1174.7659
-1043.0179
-910.95469
-782.33324
-660.10552
-546.40011
-442.60526
-349.50315
-267.4197
-196.37233
-136.19516
-86.586797
-47.090525
-17.368778
1.8952706
9.4340924
-40.595509
-84.127165
-133.49118
-184.07007
-237.08792
-293.05301
-352.54161
-416.08548
-484.15859
-557.14071
-635.27212
-718.59808
-806.90497
-899.65524
-995.93946
-1094.4704
-1193.635
-1291.594
-1386.3953
-1476.0639
-1558.6463
-1632.2098
-1694.8102
-1744.4435
-1779.0049
-1796.3012
-1794.1937
-1770.825
-1724.7864
-1655.5862
-1564.1763
-1453.2321
-1326.9988
-1190.7119
-1049.8414
-909.42599
-773.64352
-645.63666
-527.53717
-420.60876
-325.43859
-242.13263
-170.49424
-110.16503
-60.679897
-21.460769
7.9040366
26.823601
34.190865
-39.186007
-81.205545
-128.95644
-178.00159
-229.57702
-284.23733
-342.61689
-405.32132
-472.91371
-545.87572
-624.55661
-709.10807
-799.40447
-894.95485
-994.83037
-1097.6467
-1201.6305
-1304.7572
-1404.9088
-1499.9923
-1587.9889
-1666.9348
-1734.8567
-1789.6812
-1829.1468
-1850.7725
-1851.9888
-1830.4104
-1784.0054
-1711.7092
-1614.2142
-1494.4633
-1357.4974
-1209.6431
-1057.4495
-906.79886
-762.38318
-627.54428
-504.37056
-393.92809
-296.53038
-211.99155
-139.84088
-79.481427
-30.253246
8.5655921
37.490091
56.043725
63.248481
-37.653447
-77.930932
-123.79686
-171.03285
-220.89022
-273.97551
-330.98875
-392.62109
-459.54165
-532.35652
-611.55194
-697.41823
-789.95104
-888.73177
-992.81688
-1100.6983
-1210.3873
-1319.6102
-1426.0328
-1527.4229
-1621.7033
-1706.9071
-1781.0686
-1842.077
-1887.523
-1914.605
-1920.2264
-1901.3233
-1855.0121
-1779.3761
-1674.6455
-1544.058
-1393.7394
-1231.5242
-1065.418
-902.39127
-747.74709
-605.01085
-476.14656
-361.91665
-262.25662
-176.59947
-104.13049
-43.96327
4.7912824
43.023606
71.374713
89.494038
96.51685
-35.748814
-74.004823
-117.69207
-162.83153
-210.68184
-261.90423
-317.27074
-377.56962
-443.5941
-516.10036
-595.74477
-682.99666
-778.01787
-880.50103
-989.49994
-1103.3489
-1219.7671
-1336.1397
-1449.8471
-1558.4921
-1659.9569
-1752.3186
-1833.6804
-1901.9527
-1954.6112
-1988.5129
-1999.9353
-1984.9553
-1939.5403
-1860.5126
-1747.2974
-1603.4219
-1436.5075
-1256.5009
-1073.3829
-895.51886
-728.91361
-577.21788
-442.13795
-323.98103
-222.16735
-135.63958
-63.159613
-3.4981305
44.496481
81.90431
109.50742
127.08882
133.89253
-33.798634
-69.806237
-111.02788
-153.76791
-199.29481
-248.32732
-301.71454
-360.3525
-425.17739
-497.12408
-577.05823
-665.67858
-763.37415
-870.00857
-984.66018
-1105.4661
-1229.7462
-1354.4137
-1476.4673
-1593.3172
-1702.8402
-1803.2312
-1892.7562
-1969.4401
-2030.7076
-2073.0755
-2092.1038
-2082.7929
-2039.5857
-1957.4487
-1834.4242
-1674.2474
-1486.6344
-1284.5444
-1080.6576
-885.11614
-704.69072
-543.02754
-401.36513
-279.3423
-175.68596
-88.716648
-16.683918
42.039397
88.898388
125.1787
151.81119
168.7171
175.24986
-31.322729
-64.748351
-103.16397
-143.1671
-186.01793
-232.49045
-283.51345
-340.10045
-403.35026
-474.4091
-554.39861
-644.30967
-744.84096
-856.11853
-977.29912
-1106.2777
-1239.8196
-1374.1694
-1505.8014
-1631.8964
-1750.3826
-1859.6801
-1958.349
-2044.6713
-2116.1356
-2168.9573
-2197.9199
-2196.6908
-2157.7326
-2073.3255
-1939.1483
-1758.8897
-1545.2551
-1315.6018
-1086.3278
-869.81861
-673.60692
-501.08703
-352.70796
-227.14605
-122.20867
-35.439843
35.518218
92.742879
137.9973
172.78074
198.17295
214.23494
220.43247
-28.935353
-59.575014
-94.898067
-131.84687
-171.67524
-215.21021
-263.45971
-317.56072
-378.79207
-448.54482
-528.24825
-619.2585
-722.68945
-839.06429
-967.71676
-1106.2532
-1250.6595
-1396.2153
-1538.6635
-1674.9219
-1803.0778
-1921.9452
-2030.5694
-2127.6998
-2211.08
-2276.7105
-2318.5366
-2328.6705
-2297.0937
-2212.1922
-2065.652
-1860.4853
-1613.7494
-1349.407
-1089.0112
-847.7385
-633.7348
-449.70523
-294.8274
-166.41707
-61.081553
24.58587
93.645692
148.66922
191.75094
224.6005
248.43727
263.45892
269.24611
-25.834185
-53.293414
-85.133324
-118.63357
-155.00885
-195.12764
-240.07114
-291.10192
-349.69467
-417.52241
-496.38348
-588.08839
-694.30529
-816.1607
-953.35343
-1103.1787
-1260.5219
-1419.2472
-1574.0533
-1721.5574
-1860.1745
-1989.3362
-2108.7969
-2218.0399
-2315.3461
-2396.67
-2455.097
-2481.02
-2461.4976
-2379.419
-2219.7582
-1983.4125
-1693.8848
-1385.4101
-1086.7046
-816.33265
-582.61622
-386.83344
-226.18373
-96.095928
8.3585407
91.722601
157.8446
209.81602
250.05827
280.47295
302.39842
316.15949
321.45228
-22.988274
-47.105612
-75.194246
-104.93107
-137.49259
-173.78002
-214.93911
-262.35453
-317.70633
-382.98374
-460.41857
-552.37006
-661.22083
-788.98792
-936.05534
-1099.4241
-1272.3862
-1446.6589
-1615.3976
-1774.8821
-1924.1581
-2063.6285
-2194.0746
-2316.1133
-2429.0547
-2529.1507
-2608.6685
-2656.1733
-2655.5155
-2582.0935
-2409.6776
-2133.8911
-1787.8783
-1422.5329
-1076.4503
-772.13847
-517.10655
-310.00243
-145.03289
-15.064672
86.74883
166.26554
228.17988
276.0999
312.7438
340.16712
359.79272
372.05509
376.76293
-19.234006
-39.566132
-63.483983
-89.028677
-117.28553
-149.16099
-185.84182
-228.81608
-279.96337
-341.61494
-416.50491
-507.64533
-618.31827
-751.84285
-909.86983
-1089.2874
-1281.1051
-1473.7726
-1658.1738
-1830.2917
-1990.3739
-2140.3275
-2282.2797
-2418.3712
-2549.5397
-2672.7615
-2779.4822
-2856.4147
-2884.4362
-2829.5603
-2647.2461
-2321.0872
-1898.5226
-1458.8318
-1053.8858
-710.45807
-433.22541
-216.29705
-49.467026
77.789563
174.6381
248.39165
304.59729
347.33009
379.54022
403.37501
420.29158
430.80745
434.8365
-15.909563
-32.36725
-51.889454
-72.946163
-96.52811
-123.53
-155.16115
-192.99622
-239.10679
-296.19284
-367.57395
-457.03005
-568.92172
-708.39589
-879.34016
-1079.0097
-1295.059
-1510.7436
-1713.4127
-1898.7625
-2069.147
-2228.6985
-2381.1216
-2530.4773
-2680.3856
-2829.6038
-2969.1766
-3084.338
-3154.0989
-3134.0111
-2949.96
-2559.1607
-2029.2977
-1490.9055
-1012.5346
-624.92466
-325.99166
-102.36345
62.502498
183.47652
272.40171
338.09593
386.8796
423.18028
450.07128
469.70176
483.49621
492.01867
495.27595
-11.483936
-23.591269
-38.294707
-54.438681
-72.848151
-94.363254
-120.17
-151.87517
-191.68071
-242.61946
-308.63686
-394.36257
-505.33307
-649.10803
-833.41836
-1057.1181
-1303.0125
-1546.0298
-1768.1208
-1964.9808
-2142.9742
-2309.8847
-2471.3079
-2633.6117
-2804.7353
-2986.77
-3170.3479
-3338.4982
-3469.9066
-3511.259
-3344.1367
-2870.7984
-2184.1432
-1512.8701
-942.74516
-506.9618
-189.29475
35.498537
192.78345
302.75048
380.1256
435.11286
474.59756
503.15999
523.83628
538.65818
548.93467
555.23079
557.6291
-7.5459587
-15.399273
-25.214382
-36.272657
-49.208335
-64.768142
-84.06901
-108.69894
-140.93297
-184.11086
-242.90331
-322.98246
-431.1491
-577.96558
-777.58719
-1033.2897
-1320.8801
-1601.2874
-1847.8978
-2056.6837
-2241.307
-2415.2341
-2585.424
-2759.5248
-2951.4774
-3168.7936
-3401.8413
-3630.6652
-3839.934
-3979.4505
-3868.0219
-3294.1303
-2367.8698
-1515.4535
-830.2934
-345.15978
-15.872103
201.09504
342.92632
435.89024
497.45811
538.82654
567.05977
586.58903
600.19871
609.6572
616.06248
619.92832
621.39192
-2.4940665
-5.6554311
-10.105333
-15.573878
-22.445055
-31.342465
-43.273946
-59.749477
-83.013101
-116.56761
-165.7562
-237.36425
-339.18036
-484.64162
-697.71896
-992.03941
-1333.7672
-1659.6114
-1930.1029
-2142.1465
-2323.1198
-2495.6057
-2666.7928
-2843.1721
-3048.9947
-3303.1738
-3599.0875
-3914.1975
-4241.407
-4553.2175
-4583.0234
-3903.4784
-2589.3112
-1483.2203
-653.43098
-124.34841
202.50727
397.84706
513.68338
582.39875
623.43314
648.17722
663.26841
672.57987
678.38225
682.01625
684.26784
685.54467
686.01523
2.9587785
3.9729653
4.54622
4.3727123
3.3872568
1.1545868
-3.1202581
-10.724142
-23.652421
-45.261252
-81.374437
-140.13091
-230.27338
-367.38836
-589.87763
-934.91042
-1357.8537
-1750.6932
-2054.8899
-2266.925
-2439.8806
-2611.5588
-2788.5986
-2969.4137
-3193.9261
-3500.0126
-3883.2972
-4313.0921
-4763.9032
-5291.5201
-5573.8102
-4825.3577
-2837.302
-1376.2419
-376.92582
174.90839
474.14905
627.83434
704.33999
740.6212
756.28025
761.5791
761.8911
760.03419
757.47727
754.9672
752.88219
751.47247
750.91494
8.2851038
13.265303
19.323493
25.157924
31.020591
36.677805
41.595047
44.76302
44.51036
37.799789
18.452089
-23.539181
-98.146748
-220.10639
-443.94193
-853.46415
-1397.2819
-1876.4148
-2210.7429
-2392.8794
-2530.4284
-2685.6834
-2862.7826
-3027.815
-3238.64
-3573.5316
-4023.7138
-4561.746
-5089.7117
-5960.3609
-6823.7181
-6299.5145
-3074.0129
-1170.9515
36.506671
572.65487
805.01199
890.17357
911.79903
907.31715
893.25917
876.87527
861.26369
847.66112
836.46168
827.67539
821.19671
817.07813
815.48581
17.841133
25.859689
36.761717
47.719712
59.416587
71.801321
84.631479
97.258425
108.52226
116.23576
114.96649
93.715376
41.620023
-49.538307
-244.67532
-715.15118
-1441.88
-2033.6099
-2413.373
-2545.7122
-2643.0182
-2787.1991
-2982.146
-3113.6797
-3276.6774
-3677.6987
-4224.3714
-4961.7032
-5679.3055
-7242.8539
-8882.0925
-9068.3527
-3578.1298
-1038.2194
635.19319
1099.0921
1197.3509
1178.9794
1129.5274
1077.2885
1030.5875
991.36655
959.44114
934.0243
914.2385
899.26855
888.48472
881.7202
879.11823
22.150576
30.895234
46.136728
62.238202
80.171512
100.10824
122.29208
146.7478
173.26287
201.23845
227.41507
240.7146
225.96324
180.34559
45.408798
-483.2842
-1555.1587
-2311.4993
-2773.6624
-2771.0089
-2749.6657
-2813.1451
-3022.6409
-3099.9057
-3207.1637
-3763.2634
-4232.9946
-5185.2219
-6470.8432
-7863.4476
-9589.1441
-12103.54
-4823.2658
-72.515004
1722.8307
1811.9827
1641.1421
1478.7601
1346.2295
1243.2033
1163.5571
1101.9565
1054.3113
1017.6216
989.69031
968.87435
954.02876
944.77055
941.21727
36.937082
46.533234
66.46009
87.31399
110.74804
137.07738
166.90655
200.7208
238.86207
281.66265
327.57461
365.35499
371.82656
347.26625
293.74171
-191.10936
-1818.0782
-2617.135
-3115.4963
-2772.7577
-2626.8084
-2732.543
-3131.7558
-3271.1275
-3302.4338
0
0
0
0
0
0
0
0
6202.3751
3402.4561
2582.4954
2068.2384
1755.8594
1545.1252
1396.0883
1287.0013
1205.4549
1143.7777
1096.995
1061.7468
1035.664
1017.1504
1005.6367
1001.2223
35.366745
42.182739
64.028403
87.075063
113.20489
142.73968
176.57925
215.67655
261.07475
314.42457
377.59019
445.98935
502.79961
560.82576
710.68088
552.80455
-1996.7852
-2776.9625
-3646.9057
-2968.6375
-3044.3362
-3012.3246
0
0
0
0
0
0
0
0
0
0
10129.574
6286.2536
4123.9547
3000.3242
2361.3128
1969.178
1709.0491
1527.5631
1396.2858
1299.0426
1225.9923
1170.8553
1129.4569
1098.8966
1077.2396
1063.7839
1058.6264
44.263796
54.950254
80.950041
106.97758
136.15438
169.03601
206.8757
251.10417
303.50615
367.08042
447.11662
546.08857
653.28876
754.3911
842.19574
568.4731
-3108.2259
-3581.5988
-3205.281
0
0
0
0
0
0
0
0
0
0
0
1780.6715
3364.5941
5756.1163
5236.0895
3961.3822
3100.1683
2507.1429
2107.74
1830.6542
1632.9919
1488.4297
1380.7307
1299.5696
1238.1934
1192.0513
1157.9575
1133.7806
1118.7534
1112.9924
22.191625
42.166331
66.371009
91.284918
118.7524
149.54728
184.74327
225.50536
273.13248
329.82984
399.49994
478.02724
537.53011
536.24742
558.10657
702.38663
0
0
0
0
0
0
-1132.0678
-1103.5236
-1011.3058
-917.55638
-790.08522
-495.29908
-94.94752
697.08363
2026.4396
3361.9104
4750.9871
4489.8574
3714.802
3058.6865
2552.6653
2182.2202
1911.4455
1711.6613
1562.3545
1449.5319
1363.6923
1298.3449
1248.9833
1212.3852
1186.3703
1170.1778
1163.966
19.954027
50.022175
74.97049
100.54383
127.96161
158.05679
191.47969
228.66496
269.57203
313.41802
357.89977
396.5623
406.14912
338.09192
142.01779
-338.1354
-1284.4169
-1227.4744
-1147.1014
-1100.4783
-1051.0813
-1021.6128
-1010.3641
-803.28933
-838.68226
-583.18182
-362.34519
-204.61753
259.08261
904.85438
1960.2924
3049.3231
3956.5653
3851.8965
3404.2979
2933.597
2528.4616
2206.0155
1956.7039
1765.4223
1618.5287
1505.3807
1418.1053
1351.0011
1299.9422
1261.8832
1234.7283
1217.7884
1211.2838
20.663344
46.485417
72.120265
97.971781
125.28638
154.81514
187.13913
222.62496
261.25911
302.13414
342.03503
373.73563
384.8188
353.15849
205.21585
-227.92201
-792.30477
-920.95871
-962.54784
-966.15065
-887.80274
-842.32022
-818.54947
-691.80015
-620.94377
-417.54046
-179.14347
77.742728
510.88674
1096.4661
1896.1866
2721.588
3334.8853
3356.8266
3105.6566
2777.143
2463.3573
2193.81
1973.5973
1797.6785
1658.5136
1548.943
1463.0387
1396.1803
1344.8434
1306.3176
1278.6978
1261.4184
1254.7756
14.996589
36.230594
58.796987
81.291015
104.29082
128.03547
152.53046
177.41593
201.78997
223.68915
238.89688
240.18115
218.249
159.21451
15.075194
-283.91188
-606.90298
-732.46444
-784.51833
-794.28632
-753.12515
-703.47412
-642.23498
-537.76218
-423.88647
-238.24327
-11.498732
269.88365
668.60826
1187.722
1823.2421
2450.8963
2889.5203
2967.0585
2834.9719
2613.001
2376.1813
2157.6761
1969.1883
1812.3854
1684.4721
1581.3761
1499.0908
1434.1695
1383.7999
1345.7037
1318.2393
1300.9993
1294.3625
23.838364
46.444891
70.189871
93.656146
117.54421
141.96097
166.72593
191.21043
214.09571
232.81511
242.68433
236.66996
205.98876
135.3976
-7.2593155
-236.55093
-460.15461
-579.80568
-635.38311
-644.54083
-615.83458
-568.29271
-497.28108
-394.46005
-264.3492
-82.933012
139.16087
416.1133
777.02643
1223.7719
1735.51
2221.7453
2557.2299
2658.56
2599.6225
2454.8461
2280.1777
2107.1227
1949.7495
1813.4688
1698.7941
1604.1107
1527.1061
1465.4575
1417.0849
1380.1845
1353.4178
1336.5532
1330.0511
12.024194
29.927696
50.032182
70.035734
90.041006
109.92722
129.38614
147.74689
163.76074
175.18271
178.31568
168.06155
137.63853
74.654306
-40.055141
-203.50765
-358.80716
-456.74747
-506.07901
-514.23361
-488.9301
-440.00564
-365.68931
-262.60095
-128.53865
46.964057
261.85434
525.1908
849.67414
1232.3372
1648.6361
2032.8056
2301.9487
2411.583
2398.1275
2308.5354
2183.1594
2048.9509
1920.3867
1804.4653
1703.8309
1618.6749
1548.064
1490.666
1445.0902
1410.0049
1384.3867
1368.1813
1361.9231
21.407254
40.63242
60.854086
80.367714
99.453572
117.84343
135.02362
150.10169
161.62894
167.32363
163.9454
147.54852
113.08104
52.273586
-43.556979
-165.61534
-279.00339
-356.1248
-395.69005
-400.45676
-375.1875
-324.72567
-248.67416
-145.28281
-11.774332
156.79229
361.05896
606.02179
895.9516
1224.4158
1567.8662
1878.5074
2101.9969
2212.1874
2227.1465
2176.7605
2089.8435
1988.0676
1885.0997
1788.3897
1701.7411
1626.5696
1562.9907
1510.4909
1468.2865
1435.4858
1411.3698
1396.0507
1390.1248
11.86413
27.968641
45.959735
63.611603
80.820496
97.231905
112.31663
125.22202
134.6171
138.50963
134.22482
118.55904
87.502237
35.679609
-40.002316
-130.4318
-213.52485
-271.83078
-300.8491
-300.62658
-273.46212
-221.63398
-145.03205
-42.51126
87.994061
248.90845
441.01356
666.30028
924.57398
1207.7342
1495.1768
1752.1622
1942.628
2049.7637
2082.4752
2059.938
2002.6781
1927.6334
1846.8493
1767.6914
1694.4092
1629.1882
1572.8937
1525.6523
1487.1884
1456.9986
1434.643
1420.3805
1414.8537
17.140349
33.237306
50.219986
66.36475
81.714294
95.886693
108.32922
118.2221
124.38323
125.18558
118.61222
102.36239
73.690992
29.625375
-29.988934
-97.382221
-158.13655
-200.4622
-219.385
-213.53451
-183.55785
-130.34331
-53.764444
46.960173
173.10537
325.77645
505.17478
711.24618
941.41812
1187.158
1431.2311
1648.3112
1813.932
1916.4937
1960.2185
1957.4978
1922.961
1869.6951
1807.8365
1744.3103
1683.4265
1627.775
1578.7189
1536.8591
1502.3256
1474.9437
1454.5173
1441.4276
1436.3462
11.965866
26.3657
42.10417
57.216573
71.53572
84.633707
95.955453
104.72776
109.89839
110.11344
103.80197
89.276612
64.758232
28.90727
-17.019709
-66.703737
-110.25014
-139.22894
-148.99462
-137.55142
-104.54794
-50.079728
26.067801
124.39867
245.54571
389.78529
556.64713
744.78746
950.46851
1165.4732
1375.7033
1562.5374
1708.9271
1806.4497
1856.8889
1868.299
1851.1309
1815.4433
1769.5684
1719.7247
1670.0958
1623.4067
1581.3248
1544.7829
1514.2208
1489.7313
1471.3237
1459.474
1454.8658
13.672511
27.359563
41.871642
55.550726
68.315685
79.771137
89.41539
96.581085
100.40712
99.848912
93.763534
81.007134
60.5595
32.098399
-2.5894577
-38.476662
-68.501779
-86.407762
-88.110128
-71.431357
-35.489714
20.053921
95.479226
191.07363
307.00112
442.97335
597.96282
769.86554
954.48555
1144.3017
1327.8968
1491.4044
1622.606
1715.1565
1769.5576
1791.0636
1787.1663
1765.5771
1733.0731
1695.0579
1655.4633
1616.9943
1581.4709
1550.042
1523.3732
1501.7673
1485.3999
1474.815
1470.6911
11.353738
24.027819
37.645095
50.50053
62.43233
73.046733
81.879984
88.35196
91.760634
91.312591
86.206036
75.732685
59.445968
37.651001
12.275967
-12.652469
-31.896964
-40.645233
-35.405177
-14.037962
24.575324
80.988217
155.49832
248.21839
358.97831
487.10002
631.1624
788.66186
955.34881
1124.5372
1286.9997
1432.248
1551.2802
1639.1808
1695.7796
1724.5052
1730.7499
1720.4241
1699.0132
1671.1268
1640.3514
1609.2935
1579.8155
1553.1931
1530.2478
1511.4412
1497.0797
1487.7491
1484.1076
11.407406
23.295981
35.923445
47.754306
58.666139
68.304966
76.268393
82.076654
85.182497
85.010312
81.033198
72.876289
60.489042
44.522002
26.847182
10.721059
0.16236495
-1.0284081
10.105278
35.553797
76.498633
133.57335
207.05489
296.91466
402.74655
523.60895
657.83521
802.75891
954.29696
1106.6004
1252.1842
1382.9753
1492.1643
1575.8545
1633.5313
1667.4212
1681.4222
1680.0719
1667.8002
1648.5062
1625.3921
1600.9183
1576.9177
1554.7269
1535.2677
1519.1186
1506.6844
1498.5703
1495.3984
10.34369
21.515196
33.418446
44.560494
54.805609
63.829358
71.285656
76.78694
79.922771
80.301572
77.620555
71.762629
62.951025
52.019455
40.711666
31.704736
28.181968
33.206326
49.281161
78.204262
121.122
178.66776
251.07244
338.1931
439.45883
553.75797
679.29298
813.38234
952.21522
1090.7112
1222.7512
1342.003
1443.1849
1523.1433
1581.197
1618.7737
1638.7036
1644.4828
1639.6903
1627.6166
1611.0827
1592.3711
1573.2514
1555.072
1538.8129
1525.1349
1514.5164
1507.5609
1504.8392
9.9405992
20.476343
31.670273
42.129964
51.74
60.213225
67.259625
72.575082
75.865174
76.886641
75.510336
71.807414
66.17824
59.538154
53.48144
50.249937
52.431719
62.543937
82.715114
114.54284
159.08941
216.94384
288.27796
372.85668
469.9959
578.48202
696.46755
821.34159
949.60195
1076.8384
1197.9925
1307.9981
1402.6583
1479.3698
1537.3814
1577.5851
1602.0457
1613.4715
1614.764
1608.7016
1597.7596
1584.0282
1569.1941
1554.5865
1541.2122
1529.7896
1520.8525
1514.9871
1512.6933
9.3564813
19.364667
30.008284
39.956279
49.101801
57.191773
63.988183
69.261403
72.815862
74.529201
74.407915
72.66112
69.801623
66.76967
65.017989
66.459527
73.249443
87.495462
111.02108
145.23565
191.09822
249.13273
319.44836
401.73644
495.23692
598.68193
710.2263
827.37293
946.92359
1065.0318
1177.457
1280.0603
1369.4251
1443.3599
1501.094
1543.1581
1571.0665
1586.9344
1593.1292
1592.0068
1585.7416
1576.2382
1565.0918
1553.5958
1542.7634
1533.3522
1525.9434
1521.0959
1519.2103
8.9349189
18.48592
28.650043
38.160415
46.922763
54.715588
61.346454
66.648446
70.506222
72.89218
73.915106
73.881681
73.372862
73.323616
75.062054
80.251998
90.729857
108.29441
134.52458
170.6633
217.56508
275.68308
345.06654
425.34891
515.72076
614.89157
721.04851
831.82314
944.2936
1055.0744
1160.5504
1257.2639
1342.3649
1413.9705
1471.3163
1514.6883
1545.2056
1564.5395
1574.6425
1577.5289
1575.1199
1569.1525
1561.1296
1552.3025
1543.675
1536.0296
1529.9954
1526.1073
1524.626
8.5490838
17.74342
27.539641
36.720555
45.201066
52.788026
59.328681
64.708592
68.877002
71.879867
73.90214
75.318257
76.748679
79.109607
83.625542
91.772902
105.15317
125.33302
153.69917
191.35456
239.05843
297.19685
365.76598
444.35482
532.1231
627.77697
729.54954
835.19733
942.03509
1047.0434
1147.079
1239.1825
1320.9146
1390.6223
1447.5581
1491.8425
1524.3117
1546.3084
1559.4679
1565.5344
1566.222
1563.1243
1557.659
1551.0351
1544.2388
1538.0663
1533.2128
1530.2278
1529.173
8.1797906
17.102062
26.616341
35.549323
43.821615
51.26478
57.758843
63.23104
67.680286
71.20749
74.052553
76.635761
79.599385
83.837365
90.492316
100.90227
116.49784
138.6744
168.67201
207.48174
255.78262
313.90288
381.79468
459.01386
544.70167
637.57093
735.90242
837.56207
940.05583
1040.6444
1136.5324
1225.1187
1304.2582
1372.4658
1429.0137
1473.912
1507.7981
1531.7772
1547.2489
1555.7518
1558.8385
1557.9874
1554.5456
1549.6887
1544.3859
1539.4366
1535.6167
1533.5681
1533.0775
7.8074613
16.603239
25.940239
34.712419
42.846912
50.199251
56.676477
62.237897
66.919163
70.86069
74.340459
77.808569
81.918213
87.5423
95.761595
107.81595
125.01729
148.64061
179.82006
219.46329
268.1875
326.27566
393.64639
469.83214
553.96393
644.76478
740.55728
839.29423
938.62548
1036.0146
1128.9109
1214.9611
1292.2228
1359.3285
1415.5682
1460.8799
1495.7667
1521.1688
1538.3191
1548.6076
1553.468
1554.2918
1552.3721
1548.8588
1544.7052
1540.682
1537.6138
1536.3935
1536.6786
7.3041562
16.167671
25.424137
34.111338
42.165126
49.465486
55.940245
61.570878
66.417142
70.644496
74.554249
78.613578
83.479911
90.010421
99.245969
112.36644
130.61019
155.17358
187.12048
227.30309
276.29679
334.35372
401.36999
476.86314
559.95887
649.38912
743.50661
840.32371
937.58573
1032.8876
1123.8344
1208.2291
1284.2561
1350.6232
1406.6333
1452.1813
1487.6869
1513.9859
1532.2047
1543.6365
1549.637
1551.5381
1550.5925
1547.9358
1544.5154
1541.0469
1538.3505
1537.9198
1540.1129
6.0814557
15.835454
25.143136
33.82275
41.845851
49.124457
55.600612
61.267993
66.198659
70.570598
74.696868
79.053395
84.300477
91.290118
101.04796
114.71774
133.49015
158.52465
190.85523
231.30718
280.43499
338.47515
405.31227
480.45635
563.03053
651.7716
745.04799
840.90261
937.12914
1031.3883
1121.3623
1204.9311
1280.3422
1346.3405
1402.2363
1447.9042
1483.7237
1510.4796
1529.2463
1541.2702
1547.8633
1550.327
1549.902
1547.7273
1544.7602
1541.6759
1539.2601
1539.7831
1545.6253
-2227.7585
-2483.6252
-2699.5393
-2881.4841
-3023.9678
-3106.215
-3108.2259
-3029.2217
-2857.2789
-2664.0036
-3205.3891
-3205.281
-3198.4356
-3187.4486
-3173.3344
-3160.5816
-3148.7458
-3158.2125
-3158.8146
-3131.4102
-3183.0314
-3181.9069
-3167.1525
-3150.1893
-3133.2742
-3124.2834
-3105.9908
-3113.2079
-3100.0762
-3046.5501
-3137.842
-3135.1799
-3126.5767
-3117.881
-3109.0875
-3112.0997
-3101.0041
-3098.9714
-3085.5702
-3048.7083
-3078.1499
-3076.7153
-3072.1698
-3066.2524
-3057.7469
-3058.1469
-3057.8126
-3057.1424
-3055.6639
-3059.4008
-3030.1691
-3029.3768
-3023.616
-3013.4548
-2998.1999
-2968.6375
-2990.8016
-3003.1024
-3009.7481
-3023.0968
-3013.4129
-3015.107
-3018.3587
-3021.7459
-3032.6625
-3008.5366
-3008.2147
-3004.5874
-2989.6692
-2966.6812
-3027.9232
-3029.554
-3035.6399
-3044.3362
-3068.3863
-3076.1028
-3056.7216
-3030.7041
-3000.8672
-2965.4633
-3848.4527
-3860.765
-3831.7262
-3787.3166
-3749.7568
-3717.6917
-3696.1883
-3682.4622
-3673.5223
-3675.2644
-2986.9815
-2985.7894
-2977.9085
-2960.9534
-2921.5852
-2946.9461
-2958.9509
-2961.1436
-2950.6578
-2923.5508
-3009.2482
-3012.3246
-3018.6879
-3037.9312
-3013.9712
-3005.2507
-3001.299
-2993.8835
-2979.8933
-2964.7516
-3048.5067
-3050.9593
-3056.1372
-3080.7264
-3093.4961
-3069.4239
-3042.6919
-3022.4073
-3003.5385
-2987.0527
-2999.6595
-2995.8308
-2976.9419
-2951.661
-2974.598
-2992.079
-3003.3181
-3010.7379
-3013.001
-3020.0185
-3033.2651
-3035.7256
-3034.862
-2997.9708
-3007.1042
-3020.7169
-3031.5171
-3038.7502
-3041.7996
-3051.3643
-3156.8901
-3164.6841
-3188.9174
-3187.4466
-3159.5468
-3131.7558
-3111.0623
-3095.6695
-3080.252
-3063.0192
-3141.9779
-3137.1432
-3129.6596
-3149.8307
-3150.4245
-3144.6318
-3138.4093
-3132.9742
-3126.9762
-3128.8785
-3162.7555
-3162.0348
-3137.7504
-3147.9045
-3159.3502
-3167.4862
-3171.9064
-3173.7101
-3173.0006
-3177.702
-3277.1162
-3289.5194
-3285.4687
-3271.1275
-3255.8057
-3243.7649
-3235.0333
-3229.2397
-3222.4244
-3213.864
-3282.4888
-3286.5603
-3294.0149
-3285.937
-3276.2939
-3270.7939
-3270.5587
-3274.9999
-3280.0406
-3292.343
-3186.3248
-3172.2148
-3189.5512
-3215.4281
-3244.9015
-3273.5984
-3300.5723
-3325.1452
-3345.298
-3370.2632
-3326.053
-3302.4338
-3312.0413
-3332.3489
-3359.1124
-3384.3603
-3406.8258
-3425.257
-3437.7755
-3453.4903
-3701.6748
-3692.6554
-3661.9566
-3627.8856
-3602.8067
-3583.3215
-3571.2314
-3564.0734
-3557.9584
-3555.0924
-3016.6787
-3015.1531
-3009.738
-2998.1198
-2992.6338
-2999.8926
-2999.5298
-2994.1792
-2984.9469
-2983.9232
-3540.5383
-3549.1351
-3563.5693
-3610.8532
-3667.0288
-3718.8603
-3739.9426
-3721.8036
-3638.1029
-3466.2533
-3268.7586
-3268.9934
-3271.9429
-3276.811
-3277.9218
-3277.0257
-3275.0644
-3269.9197
-3265.762
-3219.2849
-3179.5263
-3227.5524
-3289.6668
-3394.3699
-3505.6952
-3592.5209
-3635.0766
-3595.2073
-3447.064
-3214.6352
-3480.2769
-3490.3205
-3511.2512
-3547.9505
-3581.5988
-3610.2584
-3618.8295
-3618.3247
-3582.5467
-3470.1575
-3367.3453
-3371.7353
-3385.9149
-3409.8731
-3430.834
-3448.4899
-3456.6155
-3446.1966
-3433.5789
-3381.8274
11318.722
10715.546
10129.574
9489.939
8832.8458
8179.5389
7545.1801
6936.7835
6347.3439
5770.3039
8301.8481
8224.5313
8101.2593
7839.6073
7501.7189
7111.2847
6689.6063
6254.566
5816.3988
5360.0008
-3709.5007
-3727.9363
-3745.344
-3751.3104
-3759.9991
-3763.2634
-3768.0589
-3771.4947
-3772.8199
-3776.3115
-3705.8519
-3709.7031
-3745.0494
-3776.2801
-3815.3391
-3842.5108
-3866.4371
-3882.4671
-3891.1146
-3895.3025
-3946.5154
-3939.28
-3955.5088
-3963.0859
-3991.4658
-4009.8456
-4029.6725
-4042.6487
-4048.0681
-4043.6182
-4222.4231
-4212.0682
-4226.337
-4216.9234
-4232.9946
-4234.8765
-4241.3992
-4242.4478
-4238.8757
-4234.5146
-4544.8766
-4526.737
-4538.4821
-4511.447
-4515.2327
-4497.3859
-4484.9277
-4464.9007
-4437.2332
-4404.8726
-4901.1054
-4873.8833
-4883.4903
-4837.0691
-4828.6371
-4790.1481
-4757.3172
-4713.8952
-4659.2256
-4599.0146
-5281.8495
-5243.3991
-5252.0393
-5185.2219
-5165.6718
-5107.5831
-5056.1877
-4992.7187
-4916.4634
-4831.1514
-5682.8601
-5630.785
-5639.6098
-5550.5886
-5519.7718
-5441.5437
-5370.8774
-5288.4425
-5198.4686
-5115.9182
-6105.044
-6035.9214
-6045.7705
-5931.7762
-5888.3056
-5787.8967
-5693.5292
-5583.5008
-5458.1876
-5322.5871
-6548.5003
-6458.4124
-6470.8432
-6329.1982
-6271.944
-6149.0593
-6030.8963
-5896.7842
-5747.1781
-5585.4188
-7019.3413
-6902.2103
-6917.9744
-6744.4916
-6670.3454
-6522.7545
-6376.8531
-6214.6282
-6036.1368
-5850.2662
-7516.4402
-7366.2088
-7388.3262
-7179.8869
-7085.7238
-6911.6634
-6733.8684
-6537.786
-6319.1648
-6081.8847
-8058.1146
-7863.4476