/*--------------------------------*- C++ -*----------------------------------*\
| =========                 |                                                 |
| \\      /  F ield         | foam-extend: Open Source CFD                    |
|  \\    /   O peration     | Version:     4.1                                |
|   \\  /    A nd           | Web:         http://www.foam-extend.org         |
|    \\/     M anipulation  |                                                 |
\*---------------------------------------------------------------------------*/
FoamFile
{
    version     2.0;
    format      ascii;
    class       volScalarField;
    location    "1.35";
    object      rAU;
}
// * * * * * * * * * * * * * * * * * * * * * * * * * * * * * * * * * * * * * //

dimensions      [0 0 1 0 0 0 0];

internalField   nonuniform List<scalar> 
4393
(
0.00022764592
0.00022727341
0.00022690861
0.00022653593
0.00022615322
0.00022575909
0.00022535113
0.00022492816
0.00022448932
0.00022403439
0.00022356397
0.00022307954
0.0002225836
0.00022207966
0.00022157208
0.00022106699
0.00022057018
0.00022008864
0.00021963
0.00021920187
0.00021881201
0.00021846812
0.00021817774
0.0002179481
0.00021778588
0.00021769704
0.00021768626
0.00021768626
0.00021775686
0.00021790997
0.00021814376
0.00021845324
0.00021883022
0.00021926365
0.00021974026
0.00022024551
0.00022076455
0.00022128319
0.00022178859
0.00022226974
0.00022271764
0.00022312536
0.0002234878
0.00022380152
0.00022406442
0.00022427548
0.0002244348
0.00022454286
0.00022458504
0.00022451463
0.00022419536
0.00022389098
0.00022357749
0.00022325215
0.00022291328
0.00022255867
0.00022218744
0.00022179916
0.00022139421
0.00022097382
0.00022054028
0.00022009692
0.00021964821
0.00021919944
0.00021875764
0.00021832937
0.00021792226
0.00021754439
0.00021720364
0.00021690788
0.00021666484
0.00021648198
0.00021636634
0.00021632427
0.0002163612
0.00021644898
0.0002164218
0.00021646396
0.0002165899
0.00021680115
0.00021709616
0.00021746979
0.00021791329
0.00021841466
0.00021895963
0.00021953268
0.00022011831
0.00022070193
0.00022127059
0.0002218134
0.00022232165
0.00022278871
0.00022320983
0.00022358178
0.0002239024
0.0002241708
0.00022438848
0.00022454265
0.00022401107
0.00022370354
0.00022340449
0.00022309383
0.00022276884
0.000222428
0.00022206931
0.00022169218
0.00022129661
0.00022088345
0.00022045462
0.00022001313
0.00021956323
0.00021911033
0.00021866075
0.0002182225
0.00021780305
0.00021741076
0.00021705424
0.00021674171
0.00021648126
0.00021628066
0.00021614737
0.00021608836
0.00021610981
0.00021621681
0.00021630785
0.00021618754
0.0002161481
0.00021619657
0.0002163379
0.00021657378
0.00021690165
0.00021731435
0.00021780034
0.00021834471
0.00021893049
0.00021954019
0.00022015702
0.00022076589
0.00022135394
0.00022191081
0.00022242856
0.00022290145
0.00022332547
0.00022369799
0.00022401791
0.00022428532
0.00022448053
0.00022365721
0.00022335502
0.00022305583
0.00022274199
0.00022241102
0.00022206162
0.00022169194
0.00022130163
0.00022089101
0.00022046139
0.00022001528
0.00021955642
0.00021908997
0.00021862237
0.00021816108
0.00021771524
0.00021729343
0.0002169049
0.00021655898
0.0002162644
0.00021602952
0.00021586236
0.00021577051
0.00021576105
0.0002158403
0.00021601333
0.0002161013
0.00021589479
0.00021577089
0.00021574016
0.00021581134
0.00021598965
0.00021627526
0.00021666241
0.00021713955
0.00021769056
0.00021829638
0.000218937
0.00021959306
0.00022024708
0.00022088418
0.00022149239
0.00022206257
0.00022258814
0.00022306458
0.00022348906
0.00022386037
0.0002241775
0.00022442232
0.0002232968
0.00022299871
0.0002226998
0.0002223831
0.00022204631
0.00022168826
0.00022130721
0.00022090299
0.0002204762
0.00022002852
0.00021956298
0.00021908406
0.00021859779
0.00021811172
0.00021763455
0.00021717672
0.00021674801
0.00021635875
0.00021601907
0.00021573821
0.0002155249
0.00021538738
0.00021533345
0.0002153705
0.00021550516
0.00021574287
0.00021583864
0.00021554149
0.00021532915
0.00021521621
0.00021521582
0.00021533729
0.00021558376
0.00021595079
0.00021642633
0.00021699228
0.00021762675
0.0002183065
0.0002190091
0.00021971441
0.00022040543
0.00022106864
0.00022169382
0.00022227375
0.0002228036
0.00022328054
0.00022370325
0.00022407055
0.0002243666
0.00022292063
0.00022262718
0.0002223296
0.000222011
0.00022166918
0.00022130301
0.00022091083
0.00022049256
0.00022004896
0.00021958204
0.00021909527
0.00021859381
0.00021808459
0.00021757633
0.00021707908
0.00021660476
0.00021616458
0.00021577008
0.00021543227
0.00021516095
0.0002149652
0.00021485346
0.00021483384
0.00021491416
0.00021510168
0.0002154026
0.00021552136
0.00021512774
0.00021482131
0.00021462136
0.00021454628
0.00021461034
0.00021482017
0.00021517258
0.0002156544
0.00021624465
0.00021691752
0.00021764572
0.00021840313
0.00021916659
0.00021991688
0.00022063897
0.0002213218
0.00022195774
0.00022254195
0.00022307182
0.00022354622
0.00022396442
0.00022431234
0.00022252919
0.00022224107
0.00022194584
0.00022162634
0.00022128034
0.00022090667
0.00022050363
0.00022007117
0.00021961011
0.00021912266
0.00021861267
0.00021808592
0.00021755025
0.0002170156
0.00021649357
0.00021599779
0.00021554116
0.00021513662
0.00021479615
0.00021453014
0.00021434791
0.00021425808
0.00021426906
0.00021438923
0.00021462682
0.00021498929
0.00021515152
0.00021465411
0.00021424609
0.00021395224
0.00021379742
0.00021380212
0.00021397729
0.00021432099
0.00021481817
0.00021544367
0.00021616645
0.00021695404
0.00021777585
0.00021860532
0.0002194209
0.00022020618
0.00022094947
0.00022164302
0.00022228229
0.00022286512
0.00022339096
0.0002238599
0.00022425929
0.00022212449
0.00022184304
0.00022155136
0.00022123198
0.00022088264
0.00022050205
0.00022008841
0.00021964154
0.00021916224
0.00021865279
0.00021811731
0.0002175621
0.00021699591
0.00021643002
0.00021587777
0.00021535483
0.00021487614
0.00021445628
0.00021410834
0.00021384322
0.00021367034
0.00021359838
0.00021363597
0.00021379218
0.00021407652
0.00021449835
0.00021473066
0.00021412049
0.00021360119
0.00021320402
0.00021296194
0.00021290353
0.00021304539
0.0002133869
0.00021391004
0.00021458373
0.00021536995
0.00021622961
0.00021712678
0.00021803105
0.0002189185
0.00021977154
0.00022057814
0.00022133085
0.00022202574
0.00022266146
0.00022323829
0.0002237574
0.00022420739
0.00022170821
0.00022143429
0.00022114723
0.00022082905
0.0002204773
0.0002200905
0.0002196666
0.00021920521
0.00021870694
0.00021817398
0.00021761058
0.00021702349
0.00021642231
0.00021581972
0.00021523112
0.00021467463
0.00021416767
0.00021372687
0.00021336651
0.00021309785
0.00021293021
0.00021287203
0.000212932
0.00021311996
0.00021344705
0.00021392521
0.0002142617
0.00021352797
0.00021288512
0.00021237209
0.0002120321
0.00021190459
0.00021201381
0.00021236068
0.00021292262
0.00021366021
0.00021452606
0.00021547269
0.00021645773
0.00021744654
0.00021841287
0.00021933828
0.00022021085
0.00022102388
0.00022177449
0.00022246248
0.00022308935
0.0002236575
0.00022415681
0.00022128237
0.00022101786
0.00022073684
0.00022042105
0.00022006792
0.00021967567
0.00021924194
0.00021876597
0.00021824798
0.00021768992
0.00021709597
0.00021647314
0.00021583184
0.00021518625
0.00021455412
0.0002139566
0.0002134143
0.00021294634
0.00021256832
0.00021229168
0.00021212517
0.00021207658
0.0002121544
0.00021236916
0.00021273397
0.00021326416
0.00021374801
0.00021287793
0.00021209625
0.00021145091
0.00021099826
0.00021079261
0.00021086902
0.00021123033
0.00021184701
0.00021266787
0.00021363291
0.000214684
0.00021577115
0.00021685519
0.00021790776
0.00021891005
0.00021985091
0.00022072494
0.00022153084
0.00022226998
0.00022294539
0.00022356091
0.00022410781
0.0002208496
0.0002205951
0.00022032122
0.00022000901
0.00021965559
0.00021925881
0.00021881585
0.00021832539
0.00021778712
0.00021720245
0.00021657528
0.00021591265
0.00021522563
0.00021452996
0.00021384612
0.00021319908
0.00021261354
0.0002121118
0.00021171098
0.00021142226
0.00021125318
0.00021121021
0.00021130115
0.00021153704
0.00021193327
0.00021250945
0.00021319493
0.00021217354
0.00021123423
0.00021043521
0.00020984962
0.00020955253
0.00020959488
0.00020998197
0.00021067374
0.00021160214
0.0002126902
0.00021386633
0.0002150717
0.00021626244
0.00021740865
0.00021849194
0.00021950274
0.0002204377
0.00022129767
0.00022208611
0.00022280788
0.0002234685
0.00022406077
0.00022041085
0.00022016891
0.00021990395
0.00021959683
0.00021924452
0.00021884443
0.00021839316
0.00021788867
0.00021732984
0.00021671727
0.00021605422
0.00021534749
0.00021460853
0.00021385459
0.00021310932
0.00021240255
0.00021176441
0.00021122145
0.00021079244
0.00021048774
0.00021031266
0.00021027138
0.00021037031
0.00021062066
0.00021104024
0.00021165396
0.00021248714
0.00021141933
0.00021029986
0.00020931967
0.00020857334
0.00020816544
0.00020817089
0.00020859858
0.00020939201
0.00021045887
0.00021169919
0.00021302456
0.00021436615
0.00021567567
0.00021692262
0.00021809025
0.00021917165
0.00022016644
0.00022107834
0.00022191334
0.00022267853
0.00022338129
0.00022401615
0.00021997136
0.00021974207
0.00021948708
0.00021918639
0.00021883655
0.00021843444
0.0002179759
0.000217458
0.0002168785
0.00021623685
0.00021553525
0.00021477982
0.00021398202
0.00021316044
0.0002123423
0.00021156369
0.00021086221
0.00021027014
0.00020980823
0.00020948497
0.00020930189
0.00020925946
0.00020936168
0.00020961922
0.0002100523
0.00021069212
0.00021157858
0.00021062339
0.00020929658
0.0002081
0.00020715477
0.00020660762
0.00020657098
0.00020705933
0.00020798993
0.00020923515
0.00021066378
0.00021216672
0.00021366431
0.00021510483
0.0002164588
0.00021771282
0.00021886406
0.00021991623
0.00022087667
0.00022175447
0.00022255925
0.00022330047
0.00022397449
0.00021952982
0.00021931653
0.00021907371
0.0002187814
0.00021843601
0.00021803384
0.00021756991
0.00021704013
0.00021644085
0.00021576992
0.00021502791
0.0002142197
0.00021335614
0.00021245665
0.00021155232
0.00021068728
0.00020990954
0.00020925952
0.00020876023
0.00020841676
0.00020822445
0.00020817818
0.00020827827
0.000208534
0.00020896763
0.00020961762
0.00021053677
0.00020979741
0.00020823135
0.00020677381
0.00020557719
0.00020484861
0.00020476083
0.00020533814
0.00020645443
0.00020793016
0.00020959167
0.000211305
0.00021297977
0.00021456288
0.00021602856
0.00021736903
0.00021858744
0.00021969281
0.00022069696
0.00022161259
0.00022245213
0.00022322731
0.0002239364
0.00021909696
0.00021889913
0.00021866951
0.00021838717
0.00021804802
0.00021764769
0.0002171802
0.00021664007
0.00021602189
0.00021532135
0.00021453674
0.00021367089
0.00021273319
0.000211743
0.00021073523
0.00020976445
0.00020889361
0.00020817512
0.00020763488
0.00020727213
0.00020707246
0.00020702242
0.00020711706
0.00020736285
0.0002077829
0.00020842336
0.00020935272
0.00020895792
0.00020711635
0.00020534243
0.00020382239
0.00020284883
0.00020269414
0.00020340197
0.0002047716
0.00020654677
0.00020849613
0.00021045726
0.00021233084
0.00021406639
0.00021564572
0.00021706991
0.00021835023
0.0002195025
0.00022054384
0.00022149098
0.00022235942
0.00022316318
0.00022390253
0.00021866432
0.00021848594
0.00021827195
0.00021800181
0.00021767139
0.0002172757
0.00021680767
0.00021626027
0.00021562595
0.00021489767
0.00021407058
0.00021314447
0.00021212607
0.0002110331
0.00020990338
0.00020880465
0.00020782168
0.00020702481
0.00020644363
0.00020606724
0.00020586565
0.00020581321
0.00020589807
0.00020612242
0.00020650844
0.00020711029
0.00020801582
0.00020813056
0.00020597201
0.00020381412
0.00020187229
0.00020055645
0.00020030642
0.00020120844
0.00020292756
0.00020509413
0.00020739866
0.00020964892
0.00021174176
0.00021363598
0.00021532673
0.00021682799
0.00021816176
0.00021935208
0.00022042214
0.00022139303
0.00022228337
0.00022310949
0.00022387356
0.00021825472
0.00021809462
0.00021789736
0.00021764149
0.00021732247
0.00021693453
0.00021646943
0.00021591831
0.00021527106
0.00021451717
0.00021364754
0.00021265749
0.00021154952
0.0002103372
0.00020905875
0.00020779794
0.00020667216
0.00020578
0.00020515617
0.00020477348
0.00020457764
0.00020452607
0.00020459942
0.00020479451
0.00020512883
0.00020566255
0.00020650566
0.00020734388
0.00020482788
0.0002022093
0.00019971374
0.0001979043
0.00019750483
0.00019870283
0.00020091057
0.00020359211
0.00020633293
0.00020891561
0.00021124397
0.00021329683
0.00021509058
0.0002166571
0.00021803185
0.00021924846
0.00022033667
0.00022132203
0.0002222262
0.00022306761
0.00022385014
0.00021784749
0.00021770989
0.00021753174
0.00021729242
0.00021698755
0.00021661078
0.00021615262
0.00021560233
0.00021494699
0.00021417204
0.00021326297
0.00021220906
0.00021100677
0.0002096622
0.00020820869
0.00020674765
0.00020544593
0.00020444769
0.0002037944
0.00020343196
0.00020326644
0.00020323043
0.00020329689
0.00020345607
0.00020371335
0.00020413029
0.00020484354
0.0002060342
0.0002037437
0.00020057553
0.00019735142
0.00019481108
0.00019415301
0.00019581567
0.00019871558
0.00020207849
0.00020535043
0.00020830632
0.00021087734
0.0002130787
0.00021495839
0.00021657177
0.00021797037
0.00021919828
0.00022029192
0.00022128103
0.00022218992
0.00022303879
0.00022383292
0.00021750038
0.00021738357
0.00021722589
0.00021700603
0.00021671946
0.00021635922
0.00021591464
0.000215373
0.00021471832
0.00021393132
0.00021299042
0.00021187626
0.00021057652
0.00020908525
0.00020742049
0.00020569794
0.00020416018
0.00020302822
0.00020235211
0.0002020348
0.00020191809
0.0002018997
0.00020195043
0.00020205989
0.0002022121
0.00020246383
0.00020298335
0.00020401742
0.00020278659
0.00019900492
0.00019484805
0.00019120693
0.0001900549
0.00019246323
0.00019635305
0.0002006209
0.00020452878
0.00020788736
0.00021069127
0.00021301563
0.00021495257
0.0002165864
0.00021798649
0.00021920744
0.00022029172
0.00022127254
0.0002221762
0.0002230241
0.00022382243
0.00021723425
0.00021714263
0.00021700936
0.00021681346
0.00021655076
0.00021621375
0.0002157906
0.0002152666
0.00021462257
0.00021383412
0.00021287135
0.00021170348
0.0002103068
0.00020866003
0.0002067505
0.00020469336
0.00020284752
0.00020157089
0.00020091976
0.00020072965
0.00020073429
0.00020078139
0.00020085119
0.00020094708
0.00020100603
0.00020105622
0.00020129342
0.00020202777
0.00020233105
0.00019782444
0.00019244926
0.00018711936
0.00018495208
0.00018856499
0.00019387534
0.00019933964
0.00020398458
0.00020774674
0.00021074472
0.00021314441
0.00021509514
0.00021671394
0.00021808779
0.00021928041
0.00022033881
0.00022129832
0.00022218621
0.0002230243
0.00022381909
0.00021729489
0.0002172313
0.00021712836
0.00021696412
0.00021673477
0.00021643254
0.000216045
0.00021555608
0.00021494413
0.00021418025
0.00021322577
0.00021203494
0.00021056739
0.00020878265
0.00020661397
0.00020412839
0.00020185458
0.00020041216
0.0001998442
0.00019988947
0.00020009347
0.00020023158
0.00020031098
0.00020038913
0.00020031175
0.00020004395
0.00019983837
0.00020006305
0.00020116965
0.00019739924
0.00019065536
0.00018290892
0.00017860532
0.00018415439
0.00019145936
0.00019844538
0.00020388911
0.00020799711
0.00021110407
0.0002135014
0.0002154051
0.00021696394
0.00021827897
0.00021941952
0.00022043438
0.00022135907
0.00022222044
0.00022303977
0.00022382316
0.00021805356
0.00021802474
0.00021796658
0.00021785198
0.00021767717
0.00021743434
0.00021711097
0.00021669024
0.00021614837
0.000215452
0.00021455268
0.00021338424
0.00021187926
0.00020997597
0.0002075367
0.00020447858
0.00020155686
0.00019995741
0.00019962493
0.00020017938
0.00020079993
0.00020115758
0.00020131095
0.00020150062
0.00020142581
0.0002008764
0.00020026374
0.00019981624
0.00020077265
0.0001997561
0.000191288
0.00018001134
0.000170937
0.00017964613
0.00018946919
0.00019826352
0.00020448175
0.00020877472
0.00021183675
0.00021411666
0.00021589437
0.00021734026
0.00021856062
0.00021962425
0.00022057774
0.00022145425
0.0002222786
0.00022307045
0.00022383469
0.00022070469
0.00022075235
0.0002207813
0.00022075978
0.00022068597
0.00022055297
0.0002203495
0.0002200597
0.00021965981
0.00021911503
0.00021837159
0.0002173453
0.00021593354
0.00021405274
0.00021150402
0.00020784402
0.00020397264
0.00020245745
0.00020277262
0.00020447942
0.00020596459
0.00020683118
0.00020720546
0.00020785566
0.00020820968
0.00020725832
0.00020612681
0.00020427139
0.00020492292
0.00020346724
0.00019648724
0.00018117024
0.00016220878
0.00017629483
0.00018868655
0.00019948825
0.000206142
0.00021024035
0.00021299878
0.00021500444
0.00021656255
0.0002178384
0.00021892791
0.0002198906
0.00022076595
0.00022158192
0.00022235954
0.00022311576
0.0002238535
0.00022646903
0.00022660994
0.0002267696
0.00022689411
0.00022698132
0.00022702643
0.00022702226
0.00022695799
0.00022681521
0.00022656418
0.0002261538
0.00022548649
0.00022440015
0.000222729
0.00022022859
0.00021579623
0.00020966307
0.00020835628
0.00020953769
0.00021337527
0.00021635475
0.00021820635
0.00021875457
0.00022020913
0.00022191355
9.2952213e-05
9.5429958e-05
9.7679403e-05
9.986406e-05
0.00010286229
9.4453564e-05
8.619799e-05
0.00010657028
0.00017931983
0.00019342279
0.0002041188
0.00020944761
0.00021252877
0.00021460039
0.00021614743
0.00021739056
0.00021844312
0.00021936975
0.00022021087
0.00022099385
0.00022173872
0.00022246123
0.00022317462
0.00022387916
0.00023930521
0.00023974494
0.00024023601
0.00024071191
0.00024118193
0.00024165025
0.0002421216
0.00024259958
0.00024308277
0.00024356002
0.0002439981
0.00024430406
0.00024425788
0.00024352232
0.00024187422
0.00023793244
0.00022683328
0.00022933805
0.00023536723
0.00024951555
0.00026085661
0.00026954307
0.00012803982
0.00016622728
0.0003205328
0.00046076449
0.00049956686
0.00049956686
0.00049956686
0.00049956686
0.00049956686
0.00045031487
0.00033649611
6.8074281e-05
0.00021296523
0.00021345377
0.00021437273
0.00021548905
0.00021653164
0.00021747675
0.00021833588
0.00021912768
0.00021986902
0.00022057392
0.00022125417
0.00022192002
0.00022258083
0.00022324548
0.00022391102
0.00026440757
0.0002653941
0.00026652356
0.00026769513
0.00026892953
0.00027025135
0.00027169453
0.00027330171
0.00027512539
0.00027723193
0.00027970589
0.0002826416
0.00028613498
0.00029022248
0.00029468927
0.00030157574
0.00027327489
0.00030435085
0.00035541963
0.00037197065
0.0002789315
0.00032419175
0.00049956686
0.00049956686
0.00049956686
0.00049956686
0.00049956686
0.00049956686
0.00049956686
0.00049956686
0.00041264019
0.00041827981
0.00010204116
0.00026658908
0.00023113488
0.00022209156
0.00021927013
0.00021853007
0.00021854985
0.0002188777
0.00021933768
0.00021985701
0.00022040425
0.00022096616
0.00022153818
0.00022212024
0.00022271489
0.00022332637
0.00022394824
0.0003022031
0.00030431018
0.00030640816
0.00030857982
0.0003109
0.00031344168
0.00031629104
0.00031956152
0.00032341265
0.00032808793
0.00033398367
0.00034167863
0.00035175558
0.00036477937
0.00038499297
0.00040256151
0.00025645282
0.0002550369
0.00026527301
0.00049104162
0.00047817258
0.00048811729
0.00047869954
0.00047372267
0.00047746532
0.00045865892
0.00045172059
0.00045351742
0.00044093871
0.00043652499
0.00010692215
0.00010767387
0.00021978932
0.00025236326
0.0002369452
0.00022740656
0.00022311155
0.00022121487
0.0002204454
0.00022024093
0.00022033465
0.00022059461
0.00022095277
0.00022137307
0.00022183642
0.00022233323
0.00022285956
0.00022341509
0.00022398981
0.00028865867
0.0002891879
0.0002894015
0.00028961333
0.0002898239
0.00029006394
0.00029035867
0.00029074432
0.00029127338
0.00029202327
0.00029311564
0.0002941942
0.0002951729
0.0002959331
0.00029333424
0.00010306186
0.00037637483
0.00047111257
0.00047299039
0.00049382646
0.0004861328
0.00048244743
0.00012421547
0.0001212833
0.00010077179
0.0001000554
0.0001006307
0.00010197454
0.00010292885
0.00010452305
0.00020121218
0.00020768236
0.0002180906
0.00023902597
0.0002396286
0.00023075856
0.00022595437
0.00022341343
0.00022210477
0.00022148935
0.00022127701
0.00022130837
0.00022149354
0.00022178067
0.00022213957
0.0002225528
0.00022301084
0.00022350925
0.00022403463
0.00022325772
0.00022309398
0.0002228098
0.00022253402
0.00022227425
0.00022204758
0.00022187
0.00022176487
0.00022176453
0.00022191383
0.00022227753
0.00022210012
0.00022117488
0.00021944057
0.00021677236
0.00021319828
9.5938271e-05
9.9135571e-05
9.9867643e-05
9.9773565e-05
0.0001001489
0.0001001757
0.00021253801
0.00021081086
0.00020892607
0.00020553996
0.00020443175
0.00020387597
0.00020210616
0.00020212561
0.00020330776
0.00020901601
0.00021824193
0.00023218323
0.00023802479
0.00023248005
0.00022785478
0.00022508646
0.000223473
0.00022257611
0.00022212976
0.00022197332
0.00022200902
0.0002221767
0.00022243907
0.00022277308
0.00022316484
0.00022360646
0.00022408155
0.00021924324
0.00021932165
0.00021944553
0.00021957853
0.00021973182
0.00021991754
0.00022014824
0.00022043992
0.00022081181
0.00022128657
0.00022183627
0.00022156294
0.00022081255
0.00021958355
0.00021781483
0.00021501193
0.00021256342
0.00021407394
0.00021591305
0.00021420366
0.00021237334
0.00021120873
0.00021005386
0.00020833176
0.00020729831
0.00020568154
0.00020477598
0.00020420234
0.00020347754
0.00020394751
0.00020593298
0.00021089113
0.00021855289
0.00022811425
0.00023383867
0.00023318091
0.00022901865
0.00022628356
0.00022454569
0.00022348219
0.00022287298
0.00022257263
0.00022248608
0.00022255126
0.00022272765
0.00022298884
0.00022331795
0.00022370448
0.00022412948
0.00021786511
0.00021794285
0.00021806573
0.00021820214
0.00021835498
0.00021853181
0.00021874111
0.0002189939
0.0002193026
0.0002196808
0.00021996907
0.00021948151
0.00021872953
0.00021766235
0.00021624129
0.00021441677
0.00021330125
0.00021414841
0.00021527431
0.00021348002
0.00021189032
0.00021067337
0.00020951859
0.00020830446
0.00020735056
0.00020629245
0.0002056429
0.0002052832
0.00020520989
0.0002060868
0.00020833173
0.00021262242
0.0002187629
0.00022561977
0.00023030597
0.00023231521
0.00022962593
0.00022707941
0.00022534533
0.00022420797
0.00022349916
0.00022309705
0.00022291609
0.00022289713
0.00022299956
0.00022319573
0.00022346705
0.00022380123
0.00022417736
0.00021718893
0.00021730749
0.00021744466
0.00021759325
0.00021775922
0.00021794903
0.00021816881
0.00021842603
0.00021872763
0.00021907894
0.00021920376
0.00021876472
0.00021811836
0.00021723425
0.00021609194
0.00021484221
0.00021422417
0.00021472705
0.00021501505
0.00021339409
0.00021200059
0.00021085134
0.00020979581
0.00020881563
0.00020799674
0.00020726223
0.00020684463
0.00020673082
0.00020702801
0.00020812221
0.00021033577
0.00021399433
0.00021887399
0.00022401391
0.00022786822
0.00023022412
0.00022984562
0.00022755798
0.00022590897
0.00022476646
0.00022401002
0.00022354355
0.00022329447
0.00022320961
0.00022325065
0.00022339032
0.00022360951
0.00022389495
0.00022422427
0.00021689975
0.00021697083
0.00021708465
0.00021721768
0.00021736807
0.00021753936
0.00021773534
0.00021796085
0.00021821974
0.00021851345
0.00021851346
0.00021812792
0.00021760004
0.00021691791
0.00021609431
0.00021530718
0.00021499917
0.0002153879
0.00021497147
0.0002135761
0.00021235474
0.00021131114
0.00021037986
0.00020956107
0.00020888807
0.0002083711
0.00020813138
0.0002082054
0.00020871021
0.00020988692
0.00021195343
0.00021505235
0.00021895387
0.00022294732
0.00022614373
0.00022830866
0.00022930237
0.00022779293
0.00022627706
0.00022517715
0.00022441329
0.00022391377
0.00022361997
0.0002234863
0.00022347825
0.00022357016
0.00022374333
0.00022398417
0.00022426941
0.00021675847
0.00021686926
0.00021699263
0.00021712623
0.00021727407
0.00021743925
0.00021762346
0.00021782855
0.00021805454
0.00021829827
0.0002182393
0.00021789437
0.00021744639
0.0002168999
0.0002162951
0.00021579073
0.00021565224
0.00021595863
0.0002150249
0.00021384055
0.00021278117
0.00021185809
0.00021105117
0.00021036816
0.00020983212
0.00020947572
0.0002093743
0.00020958052
0.00021019578
0.00021137615
0.00021325751
0.00021588437
0.00021904512
0.00022223691
0.00022491221
0.00022686105
0.00022809461
0.00022785006
0.0002264892
0.00022546216
0.0002247202
0.00022421252
0.00022389385
0.00022372665
0.00022368098
0.00022373365
0.00022386703
0.00022406778
0.00022431216
0.00021668549
0.00021675379
0.00021685834
0.00021697979
0.0002171157
0.0002172672
0.00021743446
0.0002176177
0.00021781499
0.00021802087
0.0002179591
0.00021767732
0.00021732513
0.00021691558
0.00021649704
0.00021619407
0.00021617042
0.00021615405
0.00021511809
0.00021412136
0.00021321367
0.00021241487
0.0002117276
0.00021116534
0.00021075095
0.00021052007
0.00021052718
0.00021082495
0.00021149347
0.00021263442
0.00021432582
0.00021656133
0.00021915968
0.00022176763
0.00022402726
0.0002257643
0.00022695319
0.00022750715
0.00022657959
0.00022564326
0.00022494342
0.00022444652
0.00022411915
0.00022393153
0.0002238586
0.00022388001
0.00022397969
0.00022414497
0.00022435204
0.00021663312
0.00021672282
0.00021682787
0.00021694228
0.00021706765
0.00021720497
0.00021735335
0.00021751162
0.00021767643
0.00021784102
0.00021778794
0.00021755317
0.00021727415
0.00021696973
0.00021668757
0.00021652094
0.0002165745
0.00021608385
0.00021523271
0.00021439995
0.00021363222
0.00021295455
0.00021238082
0.00021192844
0.00021162096
0.00021149166
0.0002115835
0.0002119428
0.00021262973
0.00021370943
0.0002152214
0.00021713509
0.00021930152
0.00022147022
0.00022339562
0.00022493742
0.00022605574
0.00022678064
0.0002265784
0.00022574072
0.00022509581
0.0002246234
0.00022430001
0.00022410287
0.00022401167
0.00022400907
0.00022408083
0.00022421522
0.00022438869
0.00021660144
0.00021666655
0.00021675995
0.0002168658
0.00021698192
0.00021710804
0.00021724229
0.00021738247
0.00021752427
0.00021766022
0.00021763938
0.0002174542
0.00021724334
0.00021702783
0.00021685035
0.00021678024
0.00021670194
0.00021606508
0.00021536618
0.00021467585
0.00021403542
0.00021347168
0.00021300371
0.00021265109
0.00021243713
0.00021239144
0.00021254897
0.00021294785
0.00021363168
0.00021464064
0.00021598987
0.00021763928
0.000219469
0.0002212983
0.00022295223
0.00022431906
0.00022535556
0.00022607135
0.00022638104
0.00022577209
0.00022518952
0.00022475101
0.00022444115
0.00022424328
0.00022414142
0.00022412122
0.00022417038
0.0002242783
0.00022442194
0.00021657826
0.0002166492
0.0002167382
0.00021683538
0.00021694041
0.00021705296
0.00021717071
0.000217291
0.00021740919
0.00021751792
0.00021752919
0.00021738541
0.00021723037
0.00021708496
0.0002169854
0.00021694155
0.00021661974
0.00021608818
0.00021551679
0.00021495041
0.00021442476
0.00021396615
0.00021359546
0.00021333284
0.00021320048
0.00021322415
0.00021343237
0.00021385522
0.0002145232
0.00021545952
0.00021666459
0.00021809657
0.00021965977
0.00022122119
0.00022265239
0.00022386461
0.00022481633
0.00022550579
0.00022595731
0.00022575265
0.00022523564
0.00022483697
0.00022454755
0.00022435577
0.00022424951
0.00022421724
0.00022424858
0.00022433419
0.00022445169
0.00021656782
0.00021662665
0.000216708
0.00021679791
0.00021689445
0.00021699665
0.0002171018
0.00021720691
0.00021730723
0.00021739581
0.00021743932
0.00021733352
0.00021722546
0.00021713566
0.00021709419
0.00021694412
0.00021657833
0.00021614586
0.0002156828
0.00021522464
0.00021480189
0.00021443913
0.00021415706
0.00021397527
0.00021391412
0.00021399571
0.00021424307
0.00021467913
0.00021532442
0.00021619065
0.00021726985
0.00021852222
0.00021987141
0.00022121755
0.00022246414
0.00022354049
0.00022440897
0.00022506187
0.00022551295
0.00022566545
0.0002252439
0.00022488839
0.0002246241
0.00022444352
0.00022433788
0.00022429818
0.00022431592
0.00022438305
0.00022447796
0.00021656462
0.00021662212
0.00021669801
0.00021678027
0.00021686758
0.00021695894
0.00021705151
0.00021714229
0.00021722675
0.00021729858
0.00021734935
0.00021729418
0.00021722418
0.00021717745
0.00021710319
0.00021687785
0.00021657921
0.00021623116
0.00021586133
0.00021549814
0.00021516747
0.00021489153
0.00021468978
0.00021458042
0.00021458164
0.00021471202
0.00021498987
0.0002154321
0.00021605174
0.00021685288
0.00021782314
0.00021892638
0.00022010141
0.00022127189
0.00022236389
0.00022332091
0.00022410995
0.0002247206
0.00022515987
0.00022544591
0.00022522266
0.0002249117
0.00022467547
0.00022450978
0.00022440863
0.00022436531
0.00022437307
0.00022442516
0.00022450084
0.00021656983
0.000216621
0.00021669121
0.0002167671
0.00021684685
0.0002169293
0.00021701155
0.00021709075
0.00021716271
0.00021722191
0.00021726131
0.00021725424
0.00021721447
0.00021716573
0.00021704053
0.00021685246
0.00021661303
0.00021633813
0.0002160495
0.00021577013
0.0002155219
0.00021532444
0.00021519534
0.000215151
0.00021520717
0.00021537922
0.00021568133
0.00021612549
0.00021671915
0.00021746143
0.00021833796
0.00021931674
0.00022034837
0.00022137355
0.00022233479
0.00022318674
0.00022390108
0.00022446663
0.00022488625
0.00022517253
0.00022517926
0.00022491271
0.00022470607
0.0002245577
0.00022446392
0.00022442
0.00022442081
0.00022446091
0.00022452048
0.00021658093
0.00021662895
0.00021669431
0.00021676407
0.00021683657
0.00021691071
0.00021698369
0.00021705287
0.00021711457
0.00021716409
0.00021719568
0.00021720269
0.00021717798
0.00021711474
0.00021700806
0.00021685842
0.00021667179
0.00021646114
0.00021624397
0.00021603907
0.00021586487
0.0002157384
0.00021567514
0.0002156894
0.00021579448
0.00021600275
0.00021632484
0.00021676871
0.00021733773
0.00021802779
0.00021882399
0.00021969828
0.00022061053
0.000221514
0.00022236348
0.00022312246
0.00022376701
0.00022428633
0.00022468091
0.00022495953
0.00022509868
0.00022489636
0.00022471982
0.00022459024
0.00022450586
0.00022446365
0.00022445998
0.00022449073
0.00022453704
0.00021659735
0.00021664153
0.00021670252
0.00021676703
0.00021683334
0.00021690039
0.00021696554
0.0002170265
0.00021708009
0.00021712249
0.00021714915
0.00021715508
0.00021713518
0.00021708505
0.0002170021
0.00021688822
0.00021674905
0.00021659546
0.0002164418
0.00021630354
0.00021619615
0.00021613416
0.00021613087
0.00021619838
0.0002163476
0.00021658813
0.00021692751
0.00021737045
0.00021791726
0.00021856181
0.00021928938
0.00022007556
0.00022088743
0.00022168778
0.00022244072
0.00022311686
0.00022369626
0.00022416917
0.00022453492
0.00022479979
0.00022497473
0.00022486736