/*--------------------------------*- C++ -*----------------------------------*\
| =========                 |                                                 |
| \\      /  F ield         | foam-extend: Open Source CFD                    |
|  \\    /   O peration     | Version:     4.1                                |
|   \\  /    A nd           | Web:         http://www.foam-extend.org         |
|    \\/     M anipulation  |                                                 |
\*---------------------------------------------------------------------------*/
FoamFile
{
    version     2.0;
    format      ascii;
    class       volVectorField;
    location    "1.35";
    object      U;
}
// * * * * * * * * * * * * * * * * * * * * * * * * * * * * * * * * * * * * * //

dimensions      [0 1 -1 0 0 0 0];

internalField   nonuniform List<vector> 
4393
(
(146.04642 -0.15599141 0)
(146.59304 -0.16244505 0)
(147.00596 -0.16547827 0)
(147.4458 -0.16914827 0)
(147.89553 -0.17357637 0)
(148.36006 -0.1788485 0)
(148.8416 -0.18488711 0)
(149.34232 -0.19154666 0)
(149.86383 -0.19862228 0)
(150.40704 -0.20585182 0)
(150.972 -0.21291595 0)
(151.55773 -0.21944133 0)
(152.16204 -0.22500922 0)
(152.78144 -0.22917127 0)
(153.41106 -0.23147234 0)
(154.04467 -0.23147817 0)
(154.6748 -0.22880289 0)
(155.29291 -0.22313036 0)
(155.88964 -0.2142255 0)
(156.45504 -0.20193472 0)
(156.9788 -0.18617952 0)
(157.45048 -0.16694912 0)
(157.85971 -0.14429859 0)
(158.19635 -0.11835739 0)
(158.4508 -0.089351931 0)
(158.61432 -0.057639077 0)
(158.67954 -0.023728016 0)
(158.64122 0.011710565 0)
(158.49603 0.047602091 0)
(158.24479 0.082529259 0)
(157.89248 0.11504129 0)
(157.44841 0.14372453 0)
(156.92598 0.16734848 0)
(156.34181 0.18501887 0)
(155.71461 0.19627618 0)
(155.06374 0.20111536 0)
(154.40796 0.19993182 0)
(153.76435 0.19341865 0)
(153.14764 0.18244552 0)
(152.56984 0.16794493 0)
(152.04026 0.15082202 0)
(151.56565 0.13189318 0)
(151.15058 0.11185289 0)
(150.79781 0.091275173 0)
(150.50873 0.070664543 0)
(150.28378 0.050479649 0)
(150.12239 0.030874625 0)
(150.02099 0.01174977 0)
(149.9739 -0.0031555916 0)
(149.46963 -0.39340357 0)
(149.93706 -0.40440526 0)
(150.28193 -0.41255901 0)
(150.65053 -0.42315701 0)
(151.02884 -0.43631569 0)
(151.42185 -0.45207218 0)
(151.83192 -0.47015805 0)
(152.26131 -0.49012996 0)
(152.71171 -0.51137791 0)
(153.18412 -0.53312349 0)
(153.67868 -0.55441761 0)
(154.19447 -0.57414821 0)
(154.72938 -0.59106468 0)
(155.27993 -0.60382382 0)
(155.84128 -0.61105793 0)
(156.40715 -0.61145832 0)
(156.97 -0.6038591 0)
(157.52119 -0.58730319 0)
(158.05126 -0.56107711 0)
(158.55014 -0.52471318 0)
(159.00743 -0.47797035 0)
(159.41259 -0.42081284 0)
(159.75514 -0.3534063 0)
(160.02481 -0.27614751 0)
(160.21183 -0.18973836 0)
(160.30726 -0.095301378 0)
(160.30351 0.0055078841 0)
(160.19493 0.11043793 0)
(159.97937 0.21640355 0)
(159.65753 0.31958491 0)
(159.23415 0.41577759 0)
(158.7184 0.50077869 0)
(158.12369 0.57089177 0)
(157.4668 0.62340525 0)
(156.76668 0.65689741 0)
(156.04295 0.67129959 0)
(155.31455 0.6677361 0)
(154.59867 0.6482173 0)
(153.91005 0.61527804 0)
(153.26065 0.57163827 0)
(152.65965 0.51993268 0)
(152.1137 0.46252503 0)
(151.62726 0.40140461 0)
(151.20304 0.33817557 0)
(150.84246 0.27415738 0)
(150.54584 0.21040917 0)
(150.31235 0.14721678 0)
(150.14094 0.084424984 0)
(150.03533 0.028623902 0)
(149.73442 -0.62687995 0)
(150.18671 -0.6361407 0)
(150.52068 -0.64838005 0)
(150.87748 -0.66546385 0)
(151.24403 -0.68724225 0)
(151.6254 -0.71349528 0)
(152.02408 -0.74371628 0)
(152.44246 -0.77714999 0)
(152.88235 -0.81277828 0)
(153.3449 -0.84930405 0)
(153.8304 -0.88514201 0)
(154.33811 -0.91842826 0)
(154.86604 -0.94705901 0)
(155.41085 -0.9687672 0)
(155.96773 -0.98123884 0)
(156.53042 -0.98225827 0)
(157.09132 -0.96985538 0)
(157.6417 -0.94242108 0)
(158.17197 -0.89876612 0)
(158.67198 -0.83811971 0)
(159.13123 -0.76008908 0)
(159.5391 -0.66461458 0)
(159.88498 -0.55195663 0)
(160.15846 -0.42274338 0)
(160.34946 -0.27809779 0)
(160.44864 -0.1198482 0)
(160.44789 0.049221977 0)
(160.34094 0.22521335 0)
(160.12413 0.40305297 0)
(159.79751 0.5764855 0)
(159.36556 0.7383984 0)
(158.83767 0.8815827 0)
(158.2279 0.99967093 0)
(157.55407 1.0880026 0)
(156.83632 1.1441672 0)
(156.09542 1.1681063 0)
(155.35126 1.1618153 0)
(154.62165 1.1287921 0)
(153.92167 1.0733993 0)
(153.2633 1.0002762 0)
(152.65558 0.91387742 0)
(152.10485 0.81816334 0)
(151.61523 0.71643332 0)
(151.18912 0.61129981 0)
(150.82764 0.50478207 0)
(150.53064 0.39830933 0)
(150.29688 0.29239075 0)
(150.12709 0.18733907 0)
(150.0293 0.087486136 0)
(149.82666 -0.85494703 0)
(150.27102 -0.86484508 0)
(150.6004 -0.88121617 0)
(150.95239 -0.90488362 0)
(151.31436 -0.93546138 0)
(151.6915 -0.97250221 0)
(152.08649 -1.0152674 0)
(152.5019 -1.0627053 0)
(152.93977 -1.1134082 0)
(153.40148 -1.1655768 0)
(153.88755 -1.2169977 0)
(154.39747 -1.2650505 0)
(154.92941 -1.3067567 0)
(155.48014 -1.3388855 0)
(156.04484 -1.3581227 0)
(156.61711 -1.3612861 0)
(157.18911 -1.3455494 0)
(157.7518 -1.3086169 0)
(158.29526 -1.2488089 0)
(158.80899 -1.1650496 0)
(159.28223 -1.0567925 0)
(159.70406 -0.92393686 0)
(160.06362 -0.76679326 0)
(160.35012 -0.58614121 0)
(160.55302 -0.38340783 0)
(160.66228 -0.16097556 0)
(160.66893 0.077429304 0)
(160.56572 0.32642124 0)
(160.34797 0.57876224 0)
(160.01488 0.82541204 0)
(159.57056 1.0560075 0)
(159.02468 1.2599509 0)
(158.39236 1.4278446 0)
(157.69306 1.5528408 0)
(156.94879 1.6314789 0)
(156.18217 1.6638173 0)
(155.41452 1.6529456 0)
(154.66466 1.6041206 0)
(153.94809 1.5237962 0)
(153.27687 1.4187506 0)
(152.65975 1.2954219 0)
(152.1026 1.1594783 0)
(151.60901 1.0156062 0)
(151.18084 0.86748379 0)
(150.81871 0.71787232 0)
(150.52195 0.56865549 0)
(150.28898 0.42085419 0)
(150.12128 0.27553541 0)
(150.02717 0.13512718 0)
(149.93532 -1.0775023 0)
(150.37162 -1.0889822 0)
(150.69565 -1.109607 0)
(151.04227 -1.1399766 0)
(151.39922 -1.1795348 0)
(151.77182 -1.2276465 0)
(152.16297 -1.283354 0)
(152.57549 -1.3453192 0)
(153.0117 -1.4117528 0)
(153.4733 -1.4803539 0)
(153.96113 -1.5482708 0)
(154.47496 -1.6120987 0)
(155.01322 -1.6679348 0)
(155.57281 -1.7115131 0)
(156.14887 -1.7384304 0)
(156.73484 -1.744449 0)
(157.32252 -1.7258171 0)
(157.9024 -1.6795202 0)
(158.4641 -1.6033961 0)
(158.99666 -1.4961015 0)
(159.48895 -1.3569802 0)
(159.92974 -1.1859188 0)
(160.30782 -0.9832721 0)
(160.61199 -0.74992258 0)
(160.83112 -0.48751377 0)
(160.95429 -0.19887115 0)
(160.97137 0.11144605 0)
(160.87377 0.43666784 0)
(160.65525 0.76746586 0)
(160.31378 1.0918358 0)
(159.85279 1.395736 0)
(159.28233 1.6646019 0)
(158.61897 1.8854465 0)
(157.88452 2.0488661 0)
(157.10375 2.1502601 0)
(156.30186 2.1899734 0)
(155.50223 2.1725261 0)
(154.72497 2.1053252 0)
(153.98617 1.9972727 0)
(153.29787 1.8575552 0)
(152.66837 1.6947573 0)
(152.10287 1.5163176 0)
(151.60416 1.328286 0)
(151.17337 1.1353116 0)
(150.81042 0.94075651 0)
(150.51402 0.74681705 0)
(150.28237 0.55478007 0)
(150.11713 0.36585981 0)
(150.02588 0.18132346 0)
(150.07252 -1.2975459 0)
(150.49884 -1.3110957 0)
(150.81604 -1.3361575 0)
(151.15584 -1.3734479 0)
(151.50643 -1.4223067 0)
(151.87326 -1.4819678 0)
(152.2595 -1.5512937 0)
(152.66828 -1.6286937 0)
(153.10227 -1.7120249 0)
(153.56358 -1.7985026 0)
(154.05346 -1.8846362 0)
(154.57208 -1.9662099 0)
(155.11822 -2.0383369 0)
(155.68895 -2.0956181 0)
(156.27944 -2.1324334 0)
(156.88286 -2.1433527 0)
(157.49053 -2.1235849 0)
(158.09234 -2.0693331 0)
(158.67725 -1.9779464 0)
(159.23374 -1.8478468 0)
(159.75021 -1.6783073 0)
(160.21507 -1.4692116 0)
(160.61676 -1.220912 0)
(160.94363 -0.93427672 0)
(161.18383 -0.61098151 0)
(161.32535 -0.25406841 0)
(161.35659 0.13128367 0)
(161.26712 0.53700764 0)
(161.0486 0.95159431 0)
(160.69714 1.3597894 0)
(160.21512 1.7432688 0)
(159.61292 2.0826657 0)
(158.90912 2.3605844 0)
(158.1288 2.5645381 0)
(157.30054 2.6886902 0)
(156.45306 2.7339665 0)
(155.61248 2.7068517 0)
(154.80057 2.6175082 0)
(154.03406 2.4778325 0)
(153.32483 2.2998402 0)
(152.68049 2.0945394 0)
(152.10524 1.8712883 0)
(151.60081 1.6375478 0)
(151.16728 1.3989115 0)
(150.80365 1.1592792 0)
(150.50785 0.92108124 0)
(150.27766 0.68564681 0)
(150.11451 0.45383733 0)
(150.02515 0.22583374 0)
(150.23891 -1.5085227 0)
(150.65367 -1.5244393 0)
(150.96254 -1.554208 0)
(151.29393 -1.5987548 0)
(151.63663 -1.6573466 0)
(151.99627 -1.7291298 0)
(152.3763 -1.8128264 0)
(152.78022 -1.9066316 0)
(153.21116 -2.0080823 0)
(153.6717 -2.1139328 0)
(154.16365 -2.2200555 0)
(154.68771 -2.321395 0)
(155.24309 -2.4120094 0)
(155.82718 -2.4852457 0)
(156.43514 -2.5341027 0)
(157.05984 -2.5517798 0)
(157.69198 -2.5323039 0)
(158.32062 -2.4710311 0)
(158.93386 -2.364848 0)
(159.51949 -2.212031 0)
(160.06534 -2.0118852 0)
(160.55946 -1.7643546 0)
(160.98998 -1.4697746 0)
(161.34478 -1.1288844 0)
(161.61127 -0.74317333 0)
(161.77618 -0.31560197 0)
(161.82603 0.1483478 0)
(161.74805 0.6395693 0)
(161.53101 1.1444801 0)
(161.16834 1.6442602 0)
(160.66071 2.1155008 0)
(160.01878 2.5328422 0)
(159.26374 2.873276 0)
(158.42514 3.1204588 0)
(157.53677 3.2671868 0)
(156.6321 3.3153963 0)
(155.74073 3.2742822 0)
(154.88646 3.15757 0)
(154.08666 2.9808443 0)
(153.3528 2.7594471 0)
(152.69145 2.5071046 0)
(152.10546 2.2352202 0)
(151.59514 1.9526727 0)
(151.15922 1.6659386 0)
(150.79554 1.3793771 0)
(150.5011 1.0955872 0)
(150.27302 0.81585278 0)
(150.11222 0.5406432 0)
(150.02458 0.2693575 0)
(150.4338 -1.718072 0)
(150.83449 -1.7363686 0)
(151.13339 -1.770861 0)
(151.45473 -1.822767 0)
(151.78795 -1.8913302 0)
(152.13886 -1.9756652 0)
(152.51126 -2.0744103 0)
(152.90907 -2.185605 0)
(153.33595 -2.3065209 0)
(153.7951 -2.4334924 0)
(154.28899 -2.5617714 0)
(154.81901 -2.6854396 0)
(155.38498 -2.797419 0)
(155.98469 -2.8896507 0)
(156.61339 -2.9535297 0)
(157.26355 -2.9806311 0)
(157.92506 -2.9635871 0)
(158.58588 -2.8968056 0)
(159.233 -2.7767411 0)
(159.85328 -2.6016478 0)
(160.43398 -2.3710034 0)
(160.9628 -2.0848971 0)
(161.42764 -1.7436253 0)
(161.81604 -1.3476391 0)
(162.11466 -0.89794081 0)
(162.30881 -0.39699433 0)
(162.38276 0.1498747 0)
(162.3208 0.73287195 0)
(162.10781 1.3364621 0)
(161.73338 1.9379452 0)
(161.19551 2.5078018 0)
(160.50484 3.0130135 0)
(159.68598 3.4232226 0)
(158.77459 3.7171398 0)
(157.81152 3.8860837 0)
(156.83654 3.9336994 0)
(155.88368 3.8730046 0)
(154.97905 3.72243 0)
(154.14054 3.5021817 0)
(153.37881 3.2315612 0)
(152.69888 2.9273564 0)
(152.10175 2.6031301 0)
(151.58586 2.269135 0)
(151.1483 1.932595 0)
(150.78547 1.5981523 0)
(150.49328 1.2683798 0)
(150.26802 0.9443107 0)
(150.10991 0.6259233 0)
(150.02404 0.31195612 0)
(150.65665 -1.9127002 0)
(151.04173 -1.9336178 0)
(151.32909 -1.9732419 0)
(151.63865 -2.0330704 0)
(151.96063 -2.1123379 0)
(152.30108 -2.2101741 0)
(152.66417 -2.3251931 0)
(153.05433 -2.4553445 0)
(153.47581 -2.5977001 0)
(153.93255 -2.7482279 0)
(154.42787 -2.901585 0)
(154.96401 -3.0509679 0)
(155.54162 -3.1880709 0)
(156.15909 -3.3032388 0)
(156.81183 -3.3859686 0)
(157.49185 -3.4258609 0)
(158.18797 -3.4138574 0)
(158.88669 -3.3432889 0)
(159.57351 -3.2102541 0)
(160.23418 -3.0132068 0)
(160.8553 -2.7520468 0)
(161.42433 -2.42718 0)
(161.92914 -2.0388863 0)
(162.35712 -1.5871628 0)
(162.6943 -1.0721535 0)
(162.92452 -0.49527815 0)
(163.02937 0.13893704 0)
(162.98952 0.82061208 0)
(162.78467 1.5326663 0)
(162.39899 2.2482757 0)
(161.82624 2.9305307 0)
(161.07648 3.5364059 0)
(160.17873 4.0256287 0)
(159.17707 4.3703772 0)
(158.122 4.5604087 0)
(157.06158 4.6021593 0)
(156.0354 4.5140713 0)
(155.07211 4.3208338 0)
(154.18973 4.0484703 0)
(153.39752 3.720996 0)
(152.69824 3.3586275 0)
(152.09042 2.9771733 0)
(151.57012 2.588174 0)
(151.13239 2.1994298 0)
(150.77192 1.8156686 0)
(150.48333 1.4392345 0)
(150.26198 1.0707194 0)
(150.10725 0.70949184 0)
(150.02343 0.35358556 0)
(150.90719 -2.1092662 0)
(151.27336 -2.1326752 0)
(151.54731 -2.1772729 0)
(151.8432 -2.2449262 0)
(152.15208 -2.3349245 0)
(152.48018 -2.4464798 0)
(152.83211 -2.5782631 0)
(153.21282 -2.7282278 0)
(153.62729 -2.8933436 0)
(154.08033 -3.0693022 0)
(154.57627 -3.2502264 0)
(155.11847 -3.4284362 0)
(155.70866 -3.5943206 0)
(156.34609 -3.7364209 0)
(157.02648 -3.8419692 0)
(157.74135 -3.8981203 0)
(158.47806 -3.8937122 0)
(159.22114 -3.8208251 0)
(159.95412 -3.6753346 0)
(160.66133 -3.4562366 0)
(161.32867 -3.1642255 0)
(161.94358 -2.800271 0)
(162.49418 -2.3646762 0)
(162.96809 -1.8567708 0)
(163.35098 -1.2753498 0)
(163.62522 -0.62004916 0)
(163.76941 0.10630382 0)
(163.75979 0.89465578 0)
(163.56933 1.7270355 0)
(163.17453 2.5724624 0)
(162.56253 3.3851286 0)
(161.74166 4.1087108 0)
(160.74664 4.6891985 0)
(159.63324 5.0899211 0)
(158.4653 5.2991257 0)
(157.30187 5.327768 0)
(156.18928 5.202066 0)
(155.15881 4.9550901 0)
(154.22795 4.6201957 0)
(153.40355 4.2269719 0)
(152.68519 3.7993986 0)
(152.06811 3.3555158 0)
(151.54544 2.9079457 0)
(151.1097 2.4647812 0)
(150.75365 2.0305442 0)
(150.47047 1.6070846 0)
(150.25441 1.1943368 0)
(150.10398 0.7909217 0)
(150.0227 0.39406732 0)
(151.18354 -2.2806177 0)
(151.52979 -2.3066552 0)
(151.78873 -2.3566192 0)
(152.06909 -2.4327078 0)
(152.3629 -2.5342807 0)
(152.67663 -2.6606979 0)
(153.01529 -2.8107783 0)
(153.38445 -2.9825897 0)
(153.78989 -3.1731226 0)
(154.23745 -3.3779087 0)
(154.73269 -3.5906235 0)
(155.28035 -3.8027353 0)
(155.8836 -4.0032494 0)
(156.54291 -4.1786506 0)
(157.25461 -4.3134079 0)
(158.00965 -4.3915373 0)
(158.79352 -4.3991293 0)
(159.58802 -4.3267219 0)
(160.37403 -4.1701513 0)
(161.13405 -3.9294709 0)
(161.85332 -3.6067373 0)
(162.51955 -3.2038776 0)
(163.12165 -2.7213457 0)
(163.64798 -2.1576207 0)
(164.08435 -1.5095955 0)
(164.41186 -0.7741991 0)
(164.60583 0.048635877 0)
(164.63729 0.95205695 0)
(164.47051 1.9183676 0)
(164.07127 2.9127781 0)
(163.41636 3.8789825 0)
(162.51025 4.7427373 0)
(161.39499 5.4304595 0)
(160.14292 5.8931468 0)
(158.83654 6.1178878 0)
(157.54941 6.1229247 0)
(156.33604 5.9457031 0)
(155.22993 5.630553 0)
(154.24689 5.2200411 0)
(153.38996 4.7502641 0)
(152.65424 4.2492137 0)
(152.0307 3.7370017 0)
(151.5088 3.2269798 0)
(151.07815 2.7271279 0)
(150.7293 2.2413786 0)
(150.45381 1.7707585 0)
(150.24482 1.3142861 0)
(150.09992 0.86965395 0)
(150.02179 0.43313591 0)
(151.48724 -2.4625961 0)
(151.80913 -2.4913301 0)
(152.05087 -2.5466088 0)
(152.31349 -2.6310738 0)
(152.58998 -2.7442333 0)
(152.88695 -2.885676 0)
(153.20986 -3.0544743 0)
(153.56491 -3.2489416 0)
(153.95876 -3.4662422 0)
(154.39845 -3.7019076 0)
(154.89102 -3.949301 0)
(155.44294 -4.1991149 0)
(156.05926 -4.4389374 0)
(156.74225 -4.6529527 0)
(157.48928 -4.8222721 0)
(158.29076 -4.926846 0)
(159.1297 -4.9491216 0)
(159.9841 -4.8777358 0)
(160.83115 -4.708878 0)
(161.65096 -4.444564 0)
(162.42818 -4.0891556 0)
(163.15126 -3.6461655 0)
(163.81058 -3.116411 0)
(164.39609 -2.4973039 0)
(164.89445 -1.7830985 0)
(165.286 -0.96671014 0)
(165.5427 -0.043476056 0)
(165.62857 0.9838501 0)
(165.49891 2.0995552 0)
(165.10377 3.2665306 0)
(164.40387 4.4164682 0)
(163.39581 5.4507625 0)
(162.13096 6.2671631 0)
(160.70568 6.7989436 0)
(159.22896 7.0330902 0)
(157.7937 6.9996103 0)
(156.46384 6.7522828 0)
(155.27416 6.3505625 0)
(154.23676 5.8484811 0)
(153.34883 5.2895493 0)
(152.59933 4.7058086 0)
(151.97373 4.11903 0)
(151.45709 3.5427204 0)
(151.03564 2.9841754 0)
(150.69749 2.4462442 0)
(150.43254 1.9287358 0)
(150.23277 1.4294613 0)
(150.09485 0.94497995 0)
(150.02067 0.47044749 0)
(151.81281 -2.6018713 0)
(152.11022 -2.632875 0)
(152.33321 -2.6933011 0)
(152.57616 -2.7861752 0)
(152.83321 -2.9111769 0)
(153.11111 -3.068218 0)
(153.41575 -3.2567647 0)
(153.75397 -3.4755612 0)
(154.1334 -3.7221711 0)
(154.56244 -3.9923757 0)
(155.04987 -4.2794627 0)
(155.60427 -4.5735239 0)
(156.23316 -4.8607923 0)
(156.94131 -5.1229573 0)
(157.72788 -5.337053 0)
(158.58289 -5.4776304 0)
(159.48605 -5.5220555 0)
(160.40995 -5.4563699 0)
(161.32655 -5.2775527 0)
(162.21287 -4.9907683 0)
(163.05311 -4.6038739 0)
(163.83731 -4.1226493 0)
(164.55837 -3.5484351 0)
(165.20901 -2.8773349 0)
(165.77798 -2.1001932 0)
(166.24564 -1.2044063 0)
(166.58073 -0.17863551 0)
(166.73991 0.98067783 0)
(166.66662 2.2625638 0)
(166.29017 3.630504 0)
(165.54633 5.0035176 0)
(164.41653 6.2498481 0)
(162.96369 7.2240619 0)
(161.31983 7.8329987 0)
(159.63246 8.0661557 0)
(158.0201 7.9726142 0)
(156.55707 7.6300734 0)
(155.27716 7.1182264 0)
(154.18562 6.5051418 0)
(153.27088 5.842448 0)
(152.51359 5.1658894 0)
(151.89237 4.4981059 0)
(151.38701 3.8518881 0)
(150.98 3.2330708 0)
(150.65689 2.6427988 0)
(150.40586 2.0792001 0)
(150.21785 1.5385512 0)
(150.08863 1.0160574 0)
(150.0193 0.5055905 0)
(152.16504 -2.7684119 0)
(152.4322 -2.8025745 0)
(152.63391 -2.8688661 0)
(152.85466 -2.9708256 0)
(153.08959 -3.1084005 0)
(153.34544 -3.2819283 0)
(153.62847 -3.4914034 0)
(153.94614 -3.7361749 0)
(154.30712 -4.014424 0)
(154.7213 -4.322436 0)
(155.1995 -4.6536699 0)
(155.75291 -4.9977983 0)
(156.39219 -5.3397707 0)
(157.12572 -5.6585836 0)
(157.95563 -5.92627 0)
(158.8721 -6.1100173 0)
(159.85047 -6.1798363 0)
(160.85565 -6.1180959 0)
(161.85206 -5.9234386 0)
(162.81255 -5.6063939 0)
(163.7213 -5.1806092 0)
(164.57104 -4.6556189 0)
(165.35855 -4.0339925 0)
(166.08072 -3.3107146 0)
(166.72998 -2.4726084 0)
(167.28809 -1.499615 0)
(167.72097 -0.370617 0)
(167.97744 0.92788455 0)
(167.98758 2.3937443 0)
(167.6535 3.9964539 0)
(166.8726 5.6441625 0)
(165.59784 7.1605338 0)
(163.90545 8.3333211 0)
(161.98198 9.0281218 0)
(160.0323 9.2430392 0)
(158.20859 9.0582274 0)
(156.5954 8.5866287 0)
(155.22116 7.9347563 0)
(154.07933 7.1873924 0)
(153.14559 6.4044563 0)
(152.38961 5.6243946 0)
(151.78156 4.8693747 0)
(151.29527 4.1502133 0)
(150.90918 3.4702694 0)
(150.60625 2.8282325 0)
(150.37309 2.2200261 0)
(150.1997 1.6400463 0)
(150.08111 1.0819233 0)
(150.01765 0.53809498 0)
(152.53114 -2.8656026 0)
(152.76899 -2.9011986 0)
(152.94793 -2.9717549 0)
(153.14451 -3.0811994 0)
(153.35504 -3.2297385 0)
(153.58625 -3.4182195 0)
(153.8447 -3.6473241 0)
(154.13845 -3.9172487 0)
(154.47718 -4.2271371 0)
(154.87244 -4.5742321 0)
(155.33742 -4.9526833 0)
(155.88638 -5.3522469 0)
(156.53394 -5.7570488 0)
(157.29349 -6.1436729 0)
(158.17203 -6.4785216 0)
(159.1609 -6.7190312 0)
(160.22966 -6.8245929 0)
(161.33184 -6.772321 0)
(162.42061 -6.563921 0)
(163.46295 -6.2185131 0)
(164.44372 -5.7584041 0)
(165.36024 -5.1979175 0)
(166.21508 -4.5404284 0)
(167.01141 -3.7789066 0)
(167.74794 -2.8947089 0)
(168.41031 -1.8575126 0)
(168.96285 -0.63250002 0)
(169.3464 0.80772678 0)
(169.47708 2.4742479 0)
(169.22261 4.3504967 0)
(168.42222 6.3403013 0)
(166.97603 8.2093189 0)
(164.97294 9.6395076 0)
(162.68555 10.428336 0)
(160.40651 10.596425 0)
(158.33147 10.274739 0)
(156.55239 9.6284025 0)
(155.08429 8.7988252 0)
(153.9014 7.8897743 0)
(152.96134 6.9685516 0)
(152.21958 6.0742682 0)
(151.63632 5.2265163 0)
(151.17879 4.432405 0)
(150.82134 3.6915427 0)
(150.54452 2.9992926 0)
(150.33365 2.3488103 0)
(150.17806 1.7322668 0)
(150.07219 1.1415163 0)
(150.0157 0.56744497 0)
(152.92523 -3.0159997 0)
(153.12688 -3.0555521 0)
(153.2805 -3.1326845 0)
(153.45037 -3.2518926 0)
(153.63373 -3.4138151 0)
(153.83702 -3.6200126 0)
(154.06693 -3.8721081 0)
(154.33196 -4.1714575 0)
(154.64274 -4.5185551 0)
(155.0125 -4.9120817 0)
(155.45706 -5.3474009 0)
(155.99428 -5.81479 0)
(156.6436 -6.2978776 0)
(157.42522 -6.7710388 0)
(158.35404 -7.1940784 0)
(159.4249 -7.5106312 0)
(160.60005 -7.6631879 0)
(161.8162 -7.6197826 0)
(163.00983 -7.3865436 0)
(164.14001 -6.9959228 0)
(165.19405 -6.4836207 0)
(166.1772 -5.8710505 0)
(167.10038 -5.1632289 0)
(167.97509 -4.3525339 0)
(168.80923 -3.4165534 0)
(169.5953 -2.3141301 0)
(170.29726 -0.9930897 0)
(170.84782 0.59326011 0)
(171.15037 2.4763978 0)
(171.03305 4.6683898 0)
(170.24986 7.087338 0)
(168.60446 9.4293191 0)
(166.18979 11.205736 0)
(163.41841 12.093341 0)
(160.72232 12.167197 0)
(158.35038 11.641524 0)
(156.39383 10.758971 0)
(154.84003 9.7048502 0)
(153.63313 8.6027193 0)
(152.70577 7.5243831 0)
(151.9958 6.5060202 0)
(151.45205 5.5615502 0)
(151.03495 4.6920978 0)
(150.71506 3.8919966 0)
(150.47098 3.1523293 0)
(150.2872 2.4629209 0)
(150.15276 1.8134064 0)
(150.06182 1.193708 0)
(150.01343 0.59309499 0)
(153.31877 -3.0607281 0)
(153.48606 -3.100448 0)
(153.61282 -3.1802762 0)
(153.75381 -3.3050715 0)
(153.90734 -3.4757809 0)
(154.07947 -3.694624 0)
(154.27692 -3.9641635 0)
(154.50851 -4.2869975 0)
(154.78572 -4.6651981 0)
(155.12351 -5.0993513 0)
(155.5407 -5.5867741 0)
(156.05936 -6.119131 0)
(156.70469 -6.6805418 0)
(157.50597 -7.2446157 0)
(158.49065 -7.7652926 0)
(159.66158 -8.1686141 0)
(160.97194 -8.3718978 0)
(162.33282 -8.3297414 0)
(163.65453 -8.0574107 0)
(164.88438 -7.6104767 0)
(166.01449 -7.0469257 0)
(167.06259 -6.3982992 0)
(168.05056 -5.6700152 0)
(168.99982 -4.8523063 0)
(169.93142 -3.9172013 0)
(170.85084 -2.8061692 0)
(171.72609 -1.4379812 0)
(172.48423 0.26514654 0)
(173.02117 2.3629297 0)
(173.12582 4.91062 0)
(172.43064 7.8692996 0)
(170.56367 10.862674 0)
(167.59056 13.125946 0)
(164.1583 14.105996 0)
(160.93005 14.006547 0)
(158.21198 13.177443 0)
(156.07584 11.97646 0)
(154.45695 10.640787 0)
(153.25403 9.3110918 0)
(152.36651 8.0574783 0)
(151.71128 6.9073864 0)
(151.22507 5.8647542 0)
(150.86197 4.9218953 0)
(150.58958 4.0661613 0)
(150.38537 3.2833924 0)
(150.23368 2.5595816 0)
(150.12383 1.8815963 0)
(150.05001 1.2373466 0)
(150.01086 0.61449161 0)
(153.7417 -3.1936655 0)
(153.86695 -3.2390657 0)
(153.96464 -3.3265346 0)
(154.07468 -3.4615118 0)
(154.19609 -3.6455153 0)
(154.33422 -3.8818153 0)
(154.49551 -4.1744461 0)
(154.6888 -4.527957 0)
(154.92604 -4.9469305 0)
(155.2236 -5.4351034 0)
(155.60324 -5.993333 0)
(156.09159 -6.6162845 0)
(156.72008 -7.2899125 0)
(157.52904 -7.9888756 0)
(158.56512 -8.6627164 0)
(159.84761 -9.2137474 0)
(161.31972 -9.5169326 0)
(162.85305 -9.5003986 0)
(164.31705 -9.1911882 0)
(165.6424 -8.6784308 0)
(166.83224 -8.0521229 0)
(167.92665 -7.3538822 0)
(168.96395 -6.5837258 0)
(169.97779 -5.7275351 0)
(171.00848 -4.7565329 0)
(172.08392 -3.597925 0)
(173.18086 -2.1410018 0)
(174.21837 -0.27825349 0)
(175.07781 2.0735018 0)
(175.53683 5.020966 0)
(175.06168 8.6490047 0)
(172.97423 12.555448 0)
(169.22584 15.540936 0)
(164.86324 16.581157 0)
(160.95364 16.177332 0)
(157.84202 14.897081 0)
(155.54297 13.269159 0)
(153.89894 11.584905 0)
(152.74298 9.992336 0)
(151.93235 8.5484025 0)
(151.3607 7.2630807 0)
(150.95328 6.1247065 0)
(150.65934 5.113523 0)
(150.44504 4.2081631 0)
(150.288 3.3883822 0)
(150.17339 2.6359904 0)
(150.09145 1.9349908 0)
(150.03683 1.2713113 0)
(150.00799 0.6311003 0)
(154.12089 -3.1768091 0)
(154.20552 -3.2204947 0)
(154.27234 -3.307545 0)
(154.34873 -3.4443056 0)
(154.43446 -3.6328454 0)
(154.53391 -3.8773783 0)
(154.65293 -4.1831961 0)
(154.79998 -4.5564954 0)
(154.98706 -5.0040037 0)
(155.23159 -5.5323291 0)
(155.55841 -6.1459491 0)
(155.99951 -6.8428638 0)
(156.59338 -7.6110514 0)
(157.39355 -8.427966 0)
(158.47573 -9.2436534 0)
(159.89238 -9.9334851 0)
(161.57898 -10.306333 0)
(163.34505 -10.246756 0)
(164.99391 -9.8088344 0)
(166.43114 -9.1415565 0)
(167.68057 -8.3927005 0)
(168.81986 -7.6209918 0)
(169.90817 -6.8182837 0)
(170.98627 -5.9691811 0)
(172.11453 -5.0591859 0)
(173.35327 -4.0043999 0)
(174.69404 -2.6476444 0)
(176.04588 -0.8181228 0)
(177.29705 1.6297919 0)
(178.2603 4.9042417 0)
(178.22995 9.3207557 0)
(175.99678 14.53249 0)
(171.16478 18.675554 0)
(165.453 19.68863 0)
(160.6764 18.757507 0)
(157.13765 16.804143 0)
(154.72679 14.608674 0)
(153.12666 12.501449 0)
(152.0803 10.6144 0)
(151.39504 8.9720832 0)
(150.94172 7.5548063 0)
(150.63699 6.3285554 0)
(150.42828 5.2581445 0)
(150.28277 4.3120027 0)
(150.17998 3.4632666 0)
(150.10708 2.6894761 0)
(150.05604 1.9718736 0)
(150.02248 1.294578 0)
(150.00487 0.64243684 0)
(154.43316 -3.2837902 0)
(154.468 -3.3387104 0)
(154.50001 -3.4370448 0)
(154.53849 -3.5861976 0)
(154.58381 -3.7886789 0)
(154.63908 -4.0497779 0)
(154.70931 -4.3763523 0)
(154.80224 -4.7769024 0)
(154.92939 -5.2615109 0)
(155.10843 -5.8417918 0)
(155.36661 -6.5295666 0)
(155.74126 -7.3316376 0)
(156.27718 -8.2437693 0)
(157.03963 -9.2531986 0)
(158.14328 -10.324197 0)
(159.70167 -11.309792 0)
(161.65158 -11.909755 0)
(163.70167 -11.915987 0)
(165.54708 -11.42223 0)
(167.0571 -10.65979 0)
(168.29519 -9.8647222 0)
(169.40534 -9.1095384 0)
(170.47555 -8.3550113 0)
(171.54407 -7.5615303 0)
(172.69734 -6.7313883 0)
(174.05898 -5.7572888 0)
(175.66443 -4.4013678 0)
(177.42547 -2.3997294 0)
(179.2447 0.45776152 0)
(181.01961 4.3153297 0)
(181.88566 9.7640606 0)
(179.78578 16.834469 0)
(173.47262 22.961312 0)
(165.75676 23.68875 0)
(159.91158 21.833758 0)
(155.95546 18.875072 0)
(153.54554 15.93823 0)
(152.10101 13.334844 0)
(151.25136 11.133675 0)
(150.75192 9.2975878 0)
(150.45658 7.7617192 0)
(150.27981 6.4626174 0)
(150.17225 5.3468857 0)
(150.10551 4.3719541 0)
(150.06322 3.5043632 0)
(150.03595 2.7176898 0)
(150.01826 1.9907812 0)
(150.00721 1.3062928 0)
(150.00156 0.64810212 0)
(154.36839 -3.2070817 0)
(154.34293 -3.2573443 0)
(154.33302 -3.3470102 0)
(154.32541 -3.4873449 0)
(154.32101 -3.682147 0)
(154.32104 -3.9383192 0)
(154.32888 -4.2647045 0)
(154.35044 -4.6725106 0)
(154.39518 -5.1754889 0)
(154.4788 -5.7903355 0)
(154.62869 -6.5362529 0)
(154.88677 -7.4288971 0)
(155.30366 -8.469209 0)
(155.95293 -9.6481421 0)
(156.99964 -10.9501 0)
(158.67308 -12.216935 0)
(160.94715 -12.97013 0)
(163.36644 -12.813972 0)
(165.44496 -11.952242 0)
(166.99663 -10.764945 0)
(168.1541 -9.6646768 0)
(169.18056 -8.735052 0)
(170.21104 -7.8685208 0)
(171.25936 -6.9660955 0)
(172.43309 -6.1088005 0)
(173.95512 -5.2373579 0)
(175.92352 -4.044185 0)
(178.23271 -2.222605 0)
(180.70478 0.49650928 0)
(183.39613 4.0046934 0)
(185.61652 9.8461403 0)
(184.23707 19.141223 0)
(176.01003 28.867286 0)
(165.33657 28.728327 0)
(158.3487 25.426187 0)
(154.10096 21.024984 0)
(151.90966 17.155379 0)
(150.7908 14.003225 0)
(150.25232 11.493782 0)
(150.00945 9.4889034 0)
(149.91401 7.8616288 0)
(149.88961 6.5134249 0)
(149.89735 5.3716039 0)
(149.91758 4.3830865 0)
(149.94058 3.5086796 0)
(149.96174 2.7188201 0)
(149.97901 1.9906355 0)
(149.99139 1.3058484 0)
(149.99813 0.64781746 0)
(153.4581 -3.2365873 0)
(153.35902 -3.3106387 0)
(153.29118 -3.4199395 0)
(153.21763 -3.5805165 0)
(153.14087 -3.7964376 0)
(153.05978 -4.0754857 0)
(152.97547 -4.42744 0)
(152.89112 -4.8649171 0)
(152.8131 -5.4038429 0)
(152.75359 -6.0644728 0)
(152.73831 -6.8730783 0)
(152.81415 -7.8584066 0)
(153.03904 -9.0364308 0)
(153.48539 -10.414117 0)
(154.36539 -12.03418 0)
(156.10347 -13.815771 0)
(158.79103 -15.059014 0)
(161.67586 -14.95818 0)
(163.95179 -13.966829 0)
(165.3604 -12.607604 0)
(166.17252 -11.55282 0)
(166.88377 -10.831288 0)
(167.70571 -10.231614 0)
(168.5506 -9.5459454 0)
(169.48373 -9.074719 0)
(170.89636 -8.8844965 0)
(172.99725 -8.3235585 0)
(175.6879 -7.0668657 0)
(178.60161 -4.4918483 0)
(182.45597 -0.73680895 0)
(187.18179 7.2274966 0)
(188.26604 20.230379 0)
(177.9448 36.688579 0)
(163.25797 34.979692 0)
(155.60143 29.545641 0)
(151.35537 23.110827 0)
(149.73944 18.099083 0)
(149.18673 14.39412 0)
(149.09862 11.626775 0)
(149.18751 9.5075308 0)
(149.33108 7.8332704 0)
(149.47916 6.4693177 0)
(149.61246 5.3259028 0)
(149.72489 4.3418846 0)
(149.81577 3.4742857 0)
(149.8866 2.6918149 0)
(149.93941 1.9708729 0)
(149.97546 1.2929559 0)
(149.99468 0.64145731 0)
(150.25717 -3.1357769 0)
(150.01135 -3.2016818 0)
(149.84048 -3.2865364 0)
(149.65293 -3.4165482 0)
(149.45343 -3.5969179 0)
(149.23715 -3.8364569 0)
(149.00161 -4.1460334 0)
(148.74541 -4.5404299 0)
(148.46891 -5.0396888 0)
(148.17592 -5.6713701 0)
(147.88194 -6.4756737 0)
(147.62813 -7.5084373 0)
(147.46926 -8.8225637 0)
(147.44689 -10.449045 0)
(147.77556 -12.481248 0)
(149.19053 -14.995515 0)
(152.14151 -16.99882 0)
(155.35145 -16.556771 0)
(157.49345 -14.769862 0)
(158.27047 -12.267052 0)
(158.19591 -10.430205 0)
(158.1488 -9.2827902 0)
(158.41721 -8.5365227 0)
(158.64584 -7.6133113 0)
(158.77639 -7.0959115 0)
(159.71558 -7.0531523 0)
(161.81808 -6.0322003 0)
(164.98763 -4.9040773 0)
(168.71701 -1.9761131 0)
(175.08955 4.1586498 0)
(184.07084 12.174599 0)
(189.6748 24.100185 0)
(176.94025 49.641202 0)
(157.55491 45.403373 0)
(150.91946 34.329731 0)
(147.40609 24.802333 0)
(146.95911 18.498538 0)
(147.31732 14.356177 0)
(147.83534 11.457555 0)
(148.32376 9.317697 0)
(148.73452 7.6599029 0)
(149.06626 6.3225742 0)
(149.32909 5.2063243 0)
(149.53465 4.2469032 0)
(149.69317 3.4006727 0)
(149.81303 2.6365786 0)
(149.90072 1.9315537 0)
(149.95991 1.2677027 0)
(149.99131 0.62907508 0)
(143.4845 -2.9010317 0)
(143.0884 -2.9933183 0)
(142.78096 -3.0955303 0)
(142.43571 -3.245833 0)
(142.06411 -3.4490892 0)
(141.65694 -3.7153914 0)
(141.20612 -4.0570416 0)
(140.70229 -4.4911817 0)
(140.13511 -5.0415465 0)
(139.49283 -5.7407957 0)
(138.76904 -6.6364525 0)
(137.98612 -7.7990776 0)
(137.19708 -9.3018907 0)
(136.41419 -11.157244 0)
(135.79509 -13.421544 0)
(136.54489 -16.50152 0)
(140.14367 -19.583302 0)
(144.1931 -18.127885 0)
(146.35109 -15.463781 0)
(146.23985 -12.068821 0)
(144.66602 -10.823931 0)
(143.29007 -10.992428 0)
(142.71028 -11.511908 0)
(142.14784 -11.01539 0)
(141.2931 -10.448445 0)
(142.09591 -10.542816 9.2209277e-18)
(143.36171 -11.96561 -2.0011667e-19)
(145.65859 -13.625087 0)
(146.72965 -7.4853657 1.0025328e-17)
(144.07507 -14.522431 -7.50405e-18)
(161.55876 -10.14179 4.4293256e-18)
(180.43299 5.4357688 -9.8931886e-18)
(167.94937 72.303487 6.3541365e-18)
(142.13269 58.046737 0)
(140.66781 37.139925 0)
(141.63504 24.716763 0)
(143.57121 17.838497 0)
(145.29876 13.699046 0)
(146.55504 10.918357 0)
(147.47755 8.8961473 0)
(148.16055 7.3344441 0)
(148.67286 6.0719077 0)
(149.06055 5.0135398 0)
(149.3549 4.0993386 0)
(149.57751 3.2890319 0)
(149.7437 2.5541115 0)
(149.86428 1.8734314 0)
(149.94527 1.2305869 0)
(149.98814 0.61091778 0)
(129.51232 -2.8545207 0)
(128.73935 -2.9293303 0)
(128.14476 -2.9933765 0)
(127.48037 -3.0949186 0)
(126.76551 -3.2359026 0)
(125.98114 -3.4235221 0)
(125.10909 -3.6658024 0)