# Time	forces(pressure, viscous) moment(pressure, viscous)
3.0005	(((0.0019062111 -3.6279095e-06 3.2847496e-22) (0.00053262264 -4.1316807e-07 8.695835e-23)) ((3.6279095e-08 1.9062111e-05 1.0700118e-13) (4.1316807e-09 5.3262264e-06 5.6790307e-11)))
3.001	(((0.0019061931 -3.6268741e-06 3.2846484e-22) (0.00053261905 -4.1322514e-07 8.6958063e-23)) ((3.6268741e-08 1.9061931e-05 1.0692828e-13) (4.1322514e-09 5.3261905e-06 5.4056971e-11)))
3.0015	(((0.0019061775 -3.626229e-06 3.2845547e-22) (0.00053261547 -4.1328164e-07 8.6957754e-23)) ((3.626229e-08 1.9061775e-05 1.0694365e-13) (4.1328164e-09 5.3261547e-06 5.1315217e-11)))
3.002	(((0.001906162 -3.6258226e-06 3.2844583e-22) (0.00053261189 -4.1333776e-07 8.6957447e-23)) ((3.6258226e-08 1.906162e-05 1.0695702e-13) (4.1333776e-09 5.3261189e-06 4.8565065e-11)))
3.0025	(((0.0019061464 -3.6254682e-06 3.2843612e-22) (0.00053260831 -4.1339354e-07 8.695714e-23)) ((3.6254682e-08 1.9061464e-05 1.069696e-13) (4.1339354e-09 5.3260831e-06 4.5806522e-11)))
3.003	(((0.0019061307 -3.625108e-06 3.284264e-22) (0.00053260473 -4.13449e-07 8.6956834e-23)) ((3.625108e-08 1.9061307e-05 1.0698231e-13) (4.13449e-09 5.3260473e-06 4.303959e-11)))
3.0035	(((0.001906115 -3.6247378e-06 3.2841668e-22) (0.00053260115 -4.1350414e-07 8.6956527e-23)) ((3.6247378e-08 1.906115e-05 1.0699518e-13) (4.1350414e-09 5.3260115e-06 4.0264274e-11)))
3.004	(((0.0019060994 -3.6243659e-06 3.2840696e-22) (0.00053259758 -4.1355895e-07 8.6956221e-23)) ((3.6243659e-08 1.9060994e-05 1.0700804e-13) (4.1355895e-09 5.3259758e-06 3.7480583e-11)))
3.0045	(((0.0019060837 -3.6239905e-06 3.2839724e-22) (0.000532594 -4.1361344e-07 8.6955914e-23)) ((3.6239905e-08 1.9060837e-05 1.0702086e-13) (4.1361344e-09 5.32594e-06 3.4688526e-11)))
3.005	(((0.0019060681 -3.6236127e-06 3.2838752e-22) (0.00053259043 -4.1366762e-07 8.6955608e-23)) ((3.6236127e-08 1.9060681e-05 1.0703363e-13) (4.1366762e-09 5.3259043e-06 3.1888114e-11)))
3.0055	(((0.0019060525 -3.6232293e-06 3.2837781e-22) (0.00053258686 -4.1372147e-07 8.6955302e-23)) ((3.6232293e-08 1.9060525e-05 1.0704637e-13) (4.1372147e-09 5.3258686e-06 2.9079358e-11)))
3.006	(((0.0019060369 -3.6228426e-06 3.283681e-22) (0.00053258329 -4.13775e-07 8.6954995e-23)) ((3.6228426e-08 1.9060369e-05 1.0705907e-13) (4.13775e-09 5.3258329e-06 2.6262268e-11)))
3.0065	(((0.0019060212 -3.6224499e-06 3.283584e-22) (0.00053257972 -4.1382821e-07 8.6954689e-23)) ((3.6224499e-08 1.9060212e-05 1.0707175e-13) (4.1382821e-09 5.3257972e-06 2.3436856e-11)))
3.007	(((0.0019060056 -3.6220538e-06 3.2834872e-22) (0.00053257615 -4.138811e-07 8.6954383e-23)) ((3.6220538e-08 1.9060056e-05 1.0708438e-13) (4.138811e-09 5.3257615e-06 2.0603134e-11)))
3.0075	(((0.00190599 -3.6216518e-06 3.2833905e-22) (0.00053257259 -4.1393367e-07 8.6954076e-23)) ((3.6216518e-08 1.90599e-05 1.0709701e-13) (4.1393367e-09 5.3257259e-06 1.7761112e-11)))
3.008	(((0.0019059744 -3.6212462e-06 3.2832938e-22) (0.00053256902 -4.1398591e-07 8.695377e-23)) ((3.6212462e-08 1.9059744e-05 1.0710959e-13) (4.1398591e-09 5.3256902e-06 1.4910802e-11)))
3.0085	(((0.0019059587 -3.6208346e-06 3.2831973e-22) (0.00053256546 -4.1403783e-07 8.6953463e-23)) ((3.6208346e-08 1.9059587e-05 1.0712219e-13) (4.1403783e-09 5.3256546e-06 1.2052216e-11)))
3.009	(((0.0019059432 -3.6204195e-06 3.2831008e-22) (0.00053256189 -4.1408942e-07 8.6953157e-23)) ((3.6204195e-08 1.9059432e-05 1.0713475e-13) (4.1408942e-09 5.3256189e-06 9.185366e-12)))
3.0095	(((0.0019059275 -3.6199983e-06 3.2830045e-22) (0.00053255833 -4.1414069e-07 8.6952851e-23)) ((3.6199983e-08 1.9059275e-05 1.0714732e-13) (4.1414069e-09 5.3255833e-06 6.3102639e-12)))
3.01	(((0.001905912 -3.6195736e-06 3.2829081e-22) (0.00053255477 -4.1419163e-07 8.6952544e-23)) ((3.6195736e-08 1.905912e-05 1.0715987e-13) (4.1419163e-09 5.3255477e-06 3.4269215e-12)))
3.0105	(((0.0019058964 -3.6191483e-06 3.2828118e-22) (0.00053255121 -4.1424225e-07 8.6952238e-23)) ((3.6191483e-08 1.9058964e-05 1.0717236e-13) (4.1424225e-09 5.3255121e-06 5.3535114e-13)))
3.011	(((0.0019058808 -3.6187204e-06 3.2827155e-22) (0.00053254766 -4.1429254e-07 8.6951931e-23)) ((3.6187204e-08 1.9058808e-05 1.0718482e-13) (4.1429254e-09 5.3254766e-06 -2.3644352e-12)))
3.0115	(((0.0019058652 -3.6182863e-06 3.2826194e-22) (0.0005325441 -4.1434251e-07 8.6951625e-23)) ((3.6182863e-08 1.9058652e-05 1.071973e-13) (4.1434251e-09 5.325441e-06 -5.2724254e-12)))
3.012	(((0.0019058497 -3.6178485e-06 3.2825233e-22) (0.00053254054 -4.1439216e-07 8.6951319e-23)) ((3.6178485e-08 1.9058497e-05 1.0720976e-13) (4.1439216e-09 5.3254054e-06 -8.1886073e-12)))
3.0125	(((0.0019058341 -3.6174045e-06 3.2824273e-22) (0.00053253699 -4.1444148e-07 8.6951012e-23)) ((3.6174045e-08 1.9058341e-05 1.0722225e-13) (4.1444148e-09 5.3253699e-06 -1.1112969e-11)))
3.013	(((0.0019058186 -3.6169569e-06 3.2823313e-22) (0.00053253344 -4.1449047e-07 8.6950706e-23)) ((3.6169569e-08 1.9058186e-05 1.0723473e-13) (4.1449047e-09 5.3253344e-06 -1.4045497e-11)))
3.0135	(((0.001905803 -3.6165032e-06 3.2822355e-22) (0.00053252989 -4.1453913e-07 8.6950399e-23)) ((3.6165032e-08 1.905803e-05 1.0724722e-13) (4.1453913e-09 5.3252989e-06 -1.6986181e-11)))
3.014	(((0.0019057875 -3.6160457e-06 3.2821397e-22) (0.00053252634 -4.1458747e-07 8.6950093e-23)) ((3.6160457e-08 1.9057875e-05 1.0725971e-13) (4.1458747e-09 5.3252634e-06 -1.9935006e-11)))
3.0145	(((0.001905772 -3.6155821e-06 3.2820441e-22) (0.00053252279 -4.1463547e-07 8.6949786e-23)) ((3.6155821e-08 1.905772e-05 1.0727223e-13) (4.1463547e-09 5.3252279e-06 -2.2891962e-11)))
3.015	(((0.0019057565 -3.6151149e-06 3.2819485e-22) (0.00053251924 -4.1468314e-07 8.694948e-23)) ((3.6151149e-08 1.9057565e-05 1.0728473e-13) (4.1468314e-09 5.3251924e-06 -2.5857035e-11)))
3.0155	(((0.0019057409 -3.6146415e-06 3.281853e-22) (0.0005325157 -4.1473049e-07 8.6949173e-23)) ((3.6146415e-08 1.9057409e-05 1.0729726e-13) (4.1473049e-09 5.325157e-06 -2.8830213e-11)))
3.016	(((0.0019057254 -3.6141687e-06 3.2817575e-22) (0.00053251215 -4.147775e-07 8.6948867e-23)) ((3.6141687e-08 1.9057254e-05 1.073097e-13) (4.147775e-09 5.3251215e-06 -3.1811483e-11)))
3.0165	(((0.0019057099 -3.6136903e-06 3.2816622e-22) (0.00053250861 -4.1482418e-07 8.694856e-23)) ((3.6136903e-08 1.9057099e-05 1.0732215e-13) (4.1482418e-09 5.3250861e-06 -3.4800832e-11)))
3.017	(((0.0019056944 -3.6132081e-06 3.2815668e-22) (0.00053250507 -4.1487054e-07 8.6948254e-23)) ((3.6132081e-08 1.9056944e-05 1.0733459e-13) (4.1487054e-09 5.3250507e-06 -3.7798248e-11)))
3.0175	(((0.0019056789 -3.6127197e-06 3.2814716e-22) (0.00053250153 -4.1491656e-07 8.6947947e-23)) ((3.6127197e-08 1.9056789e-05 1.0734706e-13) (4.1491656e-09 5.3250153e-06 -4.0803717e-11)))
3.018	(((0.0019056634 -3.6122271e-06 3.2813765e-22) (0.00053249799 -4.1496224e-07 8.6947641e-23)) ((3.6122271e-08 1.9056634e-05 1.0735953e-13) (4.1496224e-09 5.3249799e-06 -4.3817228e-11)))
3.0185	(((0.001905648 -3.6117298e-06 3.2812814e-22) (0.00053249445 -4.150076e-07 8.6947334e-23)) ((3.6117298e-08 1.905648e-05 1.07372e-13) (4.150076e-09 5.3249445e-06 -4.6838768e-11)))
3.019	(((0.0019056325 -3.6112262e-06 3.2811864e-22) (0.00053249091 -4.1505262e-07 8.6947028e-23)) ((3.6112262e-08 1.9056325e-05 1.0738451e-13) (4.1505262e-09 5.3249091e-06 -4.9868323e-11)))
3.0195	(((0.001905617 -3.6107186e-06 3.2810915e-22) (0.00053248738 -4.150973e-07 8.6946721e-23)) ((3.6107186e-08 1.905617e-05 1.0739701e-13) (4.150973e-09 5.3248738e-06 -5.2905881e-11)))
3.02	(((0.0019056016 -3.6102059e-06 3.2809967e-22) (0.00053248384 -4.1514165e-07 8.6946415e-23)) ((3.6102059e-08 1.9056016e-05 1.0740953e-13) (4.1514165e-09 5.3248384e-06 -5.5951429e-11)))
3.0205	(((0.0019055861 -3.6096878e-06 3.280902e-22) (0.00053248031 -4.1518566e-07 8.6946108e-23)) ((3.6096878e-08 1.9055861e-05 1.0742206e-13) (4.1518566e-09 5.3248031e-06 -5.9004954e-11)))
3.021	(((0.0019055706 -3.6091596e-06 3.2808074e-22) (0.00053247678 -4.1522932e-07 8.6945801e-23)) ((3.6091596e-08 1.9055706e-05 1.0743467e-13) (4.1522932e-09 5.3247678e-06 -6.2066443e-11)))
3.0215	(((0.0019055552 -3.6086268e-06 3.2807131e-22) (0.00053247325 -4.1527265e-07 8.6945494e-23)) ((3.6086268e-08 1.9055552e-05 1.0744729e-13) (4.1527265e-09 5.3247325e-06 -6.5135883e-11)))
3.022	(((0.0019055398 -3.608088e-06 3.2806185e-22) (0.00053246972 -4.1531563e-07 8.6945188e-23)) ((3.608088e-08 1.9055398e-05 1.0745993e-13) (4.1531563e-09 5.3246972e-06 -6.8213261e-11)))
3.0225	(((0.0019055243 -3.6075452e-06 3.2805244e-22) (0.00053246619 -4.1535826e-07 8.6944881e-23)) ((3.6075452e-08 1.9055243e-05 1.0747257e-13) (4.1535826e-09 5.3246619e-06 -7.1298563e-11)))
3.023	(((0.0019055089 -3.6069973e-06 3.2804299e-22) (0.00053246267 -4.1540055e-07 8.6944574e-23)) ((3.6069973e-08 1.9055089e-05 1.0748522e-13) (4.1540055e-09 5.3246267e-06 -7.4391776e-11)))
3.0235	(((0.0019054935 -3.6064444e-06 3.2803357e-22) (0.00053245914 -4.1544249e-07 8.6944268e-23)) ((3.6064444e-08 1.9054935e-05 1.0749788e-13) (4.1544249e-09 5.3245914e-06 -7.7492887e-11)))
3.024	(((0.0019054781 -3.6058865e-06 3.280242e-22) (0.00053245562 -4.1548408e-07 8.6943961e-23)) ((3.6058865e-08 1.9054781e-05 1.0751055e-13) (4.1548408e-09 5.3245562e-06 -8.0601882e-11)))
3.0245	(((0.0019054627 -3.6053235e-06 3.2801479e-22) (0.0005324521 -4.1552533e-07 8.6943654e-23)) ((3.6053235e-08 1.9054627e-05 1.0752324e-13) (4.1552533e-09 5.324521e-06 -8.3718748e-11)))
3.025	(((0.0019054473 -3.6047556e-06 3.2800539e-22) (0.00053244857 -4.1556622e-07 8.6943347e-23)) ((3.6047556e-08 1.9054473e-05 1.0753593e-13) (4.1556622e-09 5.3244857e-06 -8.6843472e-11)))
3.0255	(((0.0019054319 -3.6041828e-06 3.27996e-22) (0.00053244505 -4.1560677e-07 8.6943041e-23)) ((3.6041828e-08 1.9054319e-05 1.0754863e-13) (4.1560677e-09 5.3244505e-06 -8.997604e-11)))
3.026	(((0.0019054165 -3.6036049e-06 3.2798664e-22) (0.00053244154 -4.1564696e-07 8.6942734e-23)) ((3.6036049e-08 1.9054165e-05 1.0756134e-13) (4.1564696e-09 5.3244154e-06 -9.3116438e-11)))
3.0265	(((0.0019054011 -3.603022e-06 3.2797728e-22) (0.00053243802 -4.156868e-07 8.6942427e-23)) ((3.603022e-08 1.9054011e-05 1.0757406e-13) (4.156868e-09 5.3243802e-06 -9.6264653e-11)))
3.027	(((0.0019053858 -3.6024342e-06 3.2796793e-22) (0.0005324345 -4.1572629e-07 8.694212e-23)) ((3.6024342e-08 1.9053858e-05 1.0758679e-13) (4.1572629e-09 5.324345e-06 -9.9420671e-11)))
3.0275	(((0.0019053704 -3.6018413e-06 3.2795859e-22) (0.00053243099 -4.1576543e-07 8.6941813e-23)) ((3.6018413e-08 1.9053704e-05 1.0759953e-13) (4.1576543e-09 5.3243099e-06 -1.0258448e-10)))
3.028	(((0.001905355 -3.6012435e-06 3.2794926e-22) (0.00053242748 -4.1580421e-07 8.6941506e-23)) ((3.6012435e-08 1.905355e-05 1.0761228e-13) (4.1580421e-09 5.3242748e-06 -1.0575606e-10)))
3.0285	(((0.0019053397 -3.6006406e-06 3.2793993e-22) (0.00053242396 -4.1584263e-07 8.6941199e-23)) ((3.6006406e-08 1.9053397e-05 1.0762504e-13) (4.1584263e-09 5.3242396e-06 -1.0893541e-10)))
3.029	(((0.0019053243 -3.6000328e-06 3.2793061e-22) (0.00053242045 -4.158807e-07 8.6940892e-23)) ((3.6000328e-08 1.9053243e-05 1.0763782e-13) (4.158807e-09 5.3242045e-06 -1.121225e-10)))
3.0295	(((0.0019053089 -3.5994199e-06 3.279213e-22) (0.00053241694 -4.1591841e-07 8.6940585e-23)) ((3.5994199e-08 1.9053089e-05 1.0765059e-13) (4.1591841e-09 5.3241694e-06 -1.1531732e-10)))
3.03	(((0.0019052936 -3.5988021e-06 3.27912e-22) (0.00053241344 -4.1595577e-07 8.6940278e-23)) ((3.5988021e-08 1.9052936e-05 1.0766338e-13) (4.1595577e-09 5.3241344e-06 -1.1851987e-10)))
3.0305	(((0.0019052783 -3.5981792e-06 3.279027e-22) (0.00053240993 -4.1599277e-07 8.6939971e-23)) ((3.5981792e-08 1.9052783e-05 1.0767618e-13) (4.1599277e-09 5.3240993e-06 -1.2173012e-10)))
3.031	(((0.0019052629 -3.5975513e-06 3.2789341e-22) (0.00053240642 -4.160294e-07 8.6939664e-23)) ((3.5975513e-08 1.9052629e-05 1.0768898e-13) (4.160294e-09 5.3240642e-06 -1.2494807e-10)))
3.0315	(((0.0019052476 -3.5969185e-06 3.2788413e-22) (0.00053240292 -4.1606568e-07 8.6939357e-23)) ((3.5969185e-08 1.9052476e-05 1.0770179e-13) (4.1606568e-09 5.3240292e-06 -1.2817369e-10)))
3.032	(((0.0019052323 -3.5962805e-06 3.2787485e-22) (0.00053239942 -4.1610159e-07 8.693905e-23)) ((3.5962805e-08 1.9052323e-05 1.0771462e-13) (4.1610159e-09 5.3239942e-06 -1.3140698e-10)))
3.0325	(((0.001905217 -3.5956376e-06 3.2786559e-22) (0.00053239591 -4.1613714e-07 8.6938743e-23)) ((3.5956376e-08 1.905217e-05 1.0772745e-13) (4.1613714e-09 5.3239591e-06 -1.3464792e-10)))
3.033	(((0.0019052017 -3.5949896e-06 3.2785633e-22) (0.00053239241 -4.1617233e-07 8.6938436e-23)) ((3.5949896e-08 1.9052017e-05 1.0774028e-13) (4.1617233e-09 5.3239241e-06 -1.3789649e-10)))
3.0335	(((0.0019051864 -3.5943414e-06 3.2784708e-22) (0.00053238892 -4.1620716e-07 8.6938129e-23)) ((3.5943414e-08 1.9051864e-05 1.0775311e-13) (4.1620716e-09 5.3238892e-06 -1.4115268e-10)))
3.034	(((0.0019051711 -3.5936918e-06 3.2783783e-22) (0.00053238542 -4.1624164e-07 8.6937822e-23)) ((3.5936918e-08 1.9051711e-05 1.0776592e-13) (4.1624164e-09 5.3238542e-06 -1.4441648e-10)))
3.0345	(((0.0019051558 -3.5930303e-06 3.278286e-22) (0.00053238192 -4.1627574e-07 8.6937515e-23)) ((3.5930303e-08 1.9051558e-05 1.0777878e-13) (4.1627574e-09 5.3238192e-06 -1.4768788e-10)))
3.035	(((0.0019051405 -3.5923635e-06 3.2781938e-22) (0.00053237843 -4.1630949e-07 8.6937208e-23)) ((3.5923635e-08 1.9051405e-05 1.0779165e-13) (4.1630949e-09 5.3237843e-06 -1.5096685e-10)))
3.0355	(((0.0019051252 -3.5916917e-06 3.2781017e-22) (0.00053237493 -4.1634286e-07 8.69369e-23)) ((3.5916917e-08 1.9051252e-05 1.0780452e-13) (4.1634286e-09 5.3237493e-06 -1.5425339e-10)))
3.036	(((0.0019051099 -3.5910134e-06 3.2780097e-22) (0.00053237144 -4.1637587e-07 8.6936593e-23)) ((3.5910134e-08 1.9051099e-05 1.0781743e-13) (4.1637587e-09 5.3237144e-06 -1.5754747e-10)))
3.0365	(((0.0019050947 -3.5903276e-06 3.2779178e-22) (0.00053236795 -4.1640851e-07 8.6936286e-23)) ((3.5903276e-08 1.9050947e-05 1.078304e-13) (4.1640851e-09 5.3236795e-06 -1.6084909e-10)))
3.037	(((0.0019050794 -3.5896368e-06 3.277826e-22) (0.00053236446 -4.1644078e-07 8.6935979e-23)) ((3.5896368e-08 1.9050794e-05 1.0784338e-13) (4.1644078e-09 5.3236446e-06 -1.6415824e-10)))
3.0375	(((0.0019050642 -3.5889411e-06 3.2777342e-22) (0.00053236097 -4.1647267e-07 8.6935671e-23)) ((3.5889411e-08 1.9050642e-05 1.0785636e-13) (4.1647267e-09 5.3236097e-06 -1.6747488e-10)))
3.038	(((0.0019050489 -3.5882432e-06 3.2776425e-22) (0.00053235748 -4.165042e-07 8.6935364e-23)) ((3.5882432e-08 1.9050489e-05 1.0786933e-13) (4.165042e-09 5.3235748e-06 -1.7079902e-10)))
3.0385	(((0.0019050337 -3.5875458e-06 3.2775508e-22) (0.000532354 -4.1653536e-07 8.6935057e-23)) ((3.5875458e-08 1.9050337e-05 1.0788225e-13) (4.1653536e-09 5.32354e-06 -1.7413064e-10)))
3.039	(((0.0019050185 -3.5868454e-06 3.2774592e-22) (0.00053235051 -4.1656615e-07 8.693475e-23)) ((3.5868454e-08 1.9050185e-05 1.0789509e-13) (4.1656615e-09 5.3235051e-06 -1.7746972e-10)))
3.0395	(((0.0019050033 -3.5861404e-06 3.2773677e-22) (0.00053234703 -4.1659657e-07 8.6934442e-23)) ((3.5861404e-08 1.9050033e-05 1.0790792e-13) (4.1659657e-09 5.3234703e-06 -1.8081624e-10)))
3.04	(((0.0019049881 -3.5854303e-06 3.2772762e-22) (0.00053234355 -4.1662663e-07 8.6934135e-23)) ((3.5854303e-08 1.9049881e-05 1.0792075e-13) (4.1662663e-09 5.3234355e-06 -1.841702e-10)))
3.0405	(((0.0019049729 -3.5847151e-06 3.2771849e-22) (0.00053234007 -4.1665631e-07 8.6933828e-23)) ((3.5847151e-08 1.9049729e-05 1.0793358e-13) (4.1665631e-09 5.3234007e-06 -1.8753157e-10)))
3.041	(((0.0019049577 -3.5839948e-06 3.2770936e-22) (0.00053233659 -4.1668563e-07 8.6933521e-23)) ((3.5839948e-08 1.9049577e-05 1.0794643e-13) (4.1668563e-09 5.3233659e-06 -1.9090035e-10)))
3.0415	(((0.0019049425 -3.5832693e-06 3.2770024e-22) (0.00053233311 -4.1671458e-07 8.6933213e-23)) ((3.5832693e-08 1.9049425e-05 1.0795928e-13) (4.1671458e-09 5.3233311e-06 -1.9427651e-10)))
3.042	(((0.0019049273 -3.5825388e-06 3.2769113e-22) (0.00053232963 -4.1674316e-07 8.6932906e-23)) ((3.5825388e-08 1.9049273e-05 1.0797214e-13) (4.1674316e-09 5.3232963e-06 -1.9766005e-10)))
3.0425	(((0.0019049121 -3.5818032e-06 3.2768203e-22) (0.00053232615 -4.1677136e-07 8.6932598e-23)) ((3.5818032e-08 1.9049121e-05 1.07985e-13) (4.1677136e-09 5.3232615e-06 -2.0105094e-10)))
3.043	(((0.001904897 -3.5810625e-06 3.2767293e-22) (0.00053232268 -4.1679919e-07 8.6932291e-23)) ((3.5810625e-08 1.904897e-05 1.0799787e-13) (4.1679919e-09 5.3232268e-06 -2.0444918e-10)))
3.0435	(((0.0019048818 -3.5803168e-06 3.2766385e-22) (0.00053231921 -4.1682665e-07 8.6931984e-23)) ((3.5803168e-08 1.9048818e-05 1.0801075e-13) (4.1682665e-09 5.3231921e-06 -2.0785475e-10)))
3.044	(((0.0019048667 -3.5795603e-06 3.2765478e-22) (0.00053231574 -4.1685373e-07 8.6931676e-23)) ((3.5795603e-08 1.9048667e-05 1.0802368e-13) (4.1685373e-09 5.3231574e-06 -2.1126763e-10)))
3.0445	(((0.0019048515 -3.5787971e-06 3.2764572e-22) (0.00053231227 -4.1688043e-07 8.6931368e-23)) ((3.5787971e-08 1.9048515e-05 1.0803663e-13) (4.1688043e-09 5.3231227e-06 -2.146878e-10)))
3.045	(((0.0019048364 -3.5780289e-06 3.2763667e-22) (0.0005323088 -4.1690674e-07 8.6931061e-23)) ((3.5780289e-08 1.9048364e-05 1.0804958e-13) (4.1690674e-09 5.323088e-06 -2.1811526e-10)))
3.0455	(((0.0019048212 -3.5772557e-06 3.2762763e-22) (0.00053230533 -4.1693268e-07 8.6930753e-23)) ((3.5772557e-08 1.9048212e-05 1.0806254e-13) (4.1693268e-09 5.3230533e-06 -2.2154999e-10)))
3.046	(((0.0019048061 -3.5764775e-06 3.276186e-22) (0.00053230186 -4.1695823e-07 8.6930446e-23)) ((3.5764775e-08 1.9048061e-05 1.080755e-13) (4.1695823e-09 5.3230186e-06 -2.2499197e-10)))
3.0465	(((0.001904791 -3.5756942e-06 3.2760957e-22) (0.0005322984 -4.1698339e-07 8.6930138e-23)) ((3.5756942e-08 1.904791e-05 1.0808846e-13) (4.1698339e-09 5.322984e-06 -2.2844119e-10)))
3.047	(((0.0019047758 -3.5749059e-06 3.2760056e-22) (0.00053229493 -4.1700818e-07 8.692983e-23)) ((3.5749059e-08 1.9047758e-05 1.0810143e-13) (4.1700818e-09 5.3229493e-06 -2.3189763e-10)))
3.0475	(((0.0019047607 -3.5741125e-06 3.2759155e-22) (0.00053229147 -4.1703257e-07 8.6929523e-23)) ((3.5741125e-08 1.9047607e-05 1.081144e-13) (4.1703257e-09 5.3229147e-06 -2.3536128e-10)))
3.048	(((0.0019047456 -3.573314e-06 3.2758255e-22) (0.00053228801 -4.1705658e-07 8.6929215e-23)) ((3.573314e-08 1.9047456e-05 1.0812737e-13) (4.1705658e-09 5.3228801e-06 -2.3883212e-10)))
3.0485	(((0.0019047305 -3.5725105e-06 3.2757356e-22) (0.00053228455 -4.1708021e-07 8.6928907e-23)) ((3.5725105e-08 1.9047305e-05 1.0814035e-13) (4.1708021e-09 5.3228455e-06 -2.4231013e-10)))
3.049	(((0.0019047154 -3.5717019e-06 3.2756458e-22) (0.00053228109 -4.1710344e-07 8.6928599e-23)) ((3.5717019e-08 1.9047154e-05 1.0815333e-13) (4.1710344e-09 5.3228109e-06 -2.457953e-10)))
3.0495	(((0.0019047003 -3.5708883e-06 3.275556e-22) (0.00053227763 -4.1712629e-07 8.6928292e-23)) ((3.5708883e-08 1.9047003e-05 1.081663e-13) (4.1712629e-09 5.3227763e-06 -2.4928762e-10)))
3.05	(((0.0019046852 -3.5700696e-06 3.2754664e-22) (0.00053227418 -4.1714875e-07 8.6927984e-23)) ((3.5700696e-08 1.9046852e-05 1.0817929e-13) (4.1714875e-09 5.3227418e-06 -2.5278706e-10)))
3.0505	(((0.0019046701 -3.5692458e-06 3.2753768e-22) (0.00053227072 -4.1717082e-07 8.6927676e-23)) ((3.5692458e-08 1.9046701e-05 1.0819227e-13) (4.1717082e-09 5.3227072e-06 -2.5629362e-10)))
3.051	(((0.0019046551 -3.568417e-06 3.2752873e-22) (0.00053226727 -4.171925e-07 8.6927368e-23)) ((3.568417e-08 1.9046551e-05 1.0820525e-13) (4.171925e-09 5.3226727e-06 -2.5980728e-10)))
3.0515	(((0.00190464 -3.5675831e-06 3.2751979e-22) (0.00053226382 -4.1721379e-07 8.692706e-23)) ((3.5675831e-08 1.90464e-05 1.0821823e-13) (4.1721379e-09 5.3226382e-06 -2.6332802e-10)))
3.052	(((0.0019046249 -3.5667441e-06 3.2751086e-22) (0.00053226036 -4.1723468e-07 8.6926752e-23)) ((3.5667441e-08 1.9046249e-05 1.0823121e-13) (4.1723468e-09 5.3226036e-06 -2.6685582e-10)))
3.0525	(((0.0019046099 -3.5659001e-06 3.2750194e-22) (0.00053225691 -4.1725518e-07 8.6926444e-23)) ((3.5659001e-08 1.9046099e-05 1.0824419e-13) (4.1725518e-09 5.3225691e-06 -2.7039067e-10)))
3.053	(((0.0019045948 -3.565051e-06 3.2749302e-22) (0.00053225347 -4.1727529e-07 8.6926136e-23)) ((3.565051e-08 1.9045948e-05 1.0825717e-13) (4.1727529e-09 5.3225347e-06 -2.7393256e-10)))
3.0535	(((0.0019045798 -3.5641968e-06 3.2748411e-22) (0.00053225002 -4.1729501e-07 8.6925828e-23)) ((3.5641968e-08 1.9045798e-05 1.0827015e-13) (4.1729501e-09 5.3225002e-06 -2.7748146e-10)))
3.054	(((0.0019045647 -3.5633376e-06 3.2747521e-22) (0.00053224657 -4.1731433e-07 8.692552e-23)) ((3.5633376e-08 1.9045647e-05 1.0828313e-13) (4.1731433e-09 5.3224657e-06 -2.8103737e-10)))
3.0545	(((0.0019045497 -3.562473e-06 3.2746633e-22) (0.00053224313 -4.1733325e-07 8.6925212e-23)) ((3.562473e-08 1.9045497e-05 1.0829612e-13) (4.1733325e-09 5.3224313e-06 -2.8460027e-10)))
3.055	(((0.0019045347 -3.5616016e-06 3.2745745e-22) (0.00053223969 -4.1735178e-07 8.6924904e-23)) ((3.5616016e-08 1.9045347e-05 1.0830919e-13) (4.1735178e-09 5.3223969e-06 -2.8817013e-10)))
3.0555	(((0.0019045196 -3.560725e-06 3.2744858e-22) (0.00053223624 -4.173699e-07 8.6924596e-23)) ((3.560725e-08 1.9045196e-05 1.0832225e-13) (4.173699e-09 5.3223624e-06 -2.9174695e-10)))
3.056	(((0.0019045046 -3.5598434e-06 3.2743971e-22) (0.0005322328 -4.1738763e-07 8.6924288e-23)) ((3.5598434e-08 1.9045046e-05 1.0833532e-13) (4.1738763e-09 5.322328e-06 -2.9533071e-10)))
3.0565	(((0.0019044896 -3.5589568e-06 3.2743086e-22) (0.00053222936 -4.1740496e-07 8.692398e-23)) ((3.5589568e-08 1.9044896e-05 1.0834838e-13) (4.1740496e-09 5.3222936e-06 -2.9892138e-10)))
3.057	(((0.0019044746 -3.5580652e-06 3.2742201e-22) (0.00053222593 -4.1742189e-07 8.6923672e-23)) ((3.5580652e-08 1.9044746e-05 1.0836144e-13) (4.1742189e-09 5.3222593e-06 -3.0251897e-10)))
3.0575	(((0.0019044596 -3.5571685e-06 3.2741318e-22) (0.00053222249 -4.1743841e-07 8.6923364e-23)) ((3.5571685e-08 1.9044596e-05 1.0837449e-13) (4.1743841e-09 5.3222249e-06 -3.0612344e-10)))
3.058	(((0.0019044446 -3.5562668e-06 3.2740435e-22) (0.00053221905 -4.1745454e-07 8.6923056e-23)) ((3.5562668e-08 1.9044446e-05 1.0838754e-13) (4.1745454e-09 5.3221905e-06 -3.0973479e-10)))
3.0585	(((0.0019044296 -3.5553601e-06 3.2739552e-22) (0.00053221562 -4.1747026e-07 8.6922747e-23)) ((3.5553601e-08 1.9044296e-05 1.0840058e-13) (4.1747026e-09 5.3221562e-06 -3.1335299e-10)))
3.059	(((0.0019044146 -3.5544484e-06 3.2738671e-22) (0.00053221219 -4.1748558e-07 8.6922439e-23)) ((3.5544484e-08 1.9044146e-05 1.0841361e-13) (4.1748558e-09 5.3221219e-06 -3.1697803e-10)))
3.0595	(((0.0019043997 -3.5535316e-06 3.2737791e-22) (0.00053220875 -4.175005e-07 8.6922131e-23)) ((3.5535316e-08 1.9043997e-05 1.0842664e-13) (4.175005e-09 5.3220875e-06 -3.2060989e-10)))
3.06	(((0.0019043847 -3.5526098e-06 3.2736911e-22) (0.00053220532 -4.1751501e-07 8.6921823e-23)) ((3.5526098e-08 1.9043847e-05 1.0843967e-13) (4.1751501e-09 5.3220532e-06 -3.2424857e-10)))
3.0605	(((0.0019043697 -3.5516829e-06 3.2736032e-22) (0.0005322019 -4.1752911e-07 8.6921514e-23)) ((3.5516829e-08 1.9043697e-05 1.0845268e-13) (4.1752911e-09 5.322019e-06 -3.2789403e-10)))
3.061	(((0.0019043548 -3.550751e-06 3.2735154e-22) (0.00053219847 -4.1754281e-07 8.6921206e-23)) ((3.550751e-08 1.9043548e-05 1.0846569e-13) (4.1754281e-09 5.3219847e-06 -3.3154626e-10)))
3.0615	(((0.0019043398 -3.5498141e-06 3.2734277e-22) (0.00053219504 -4.175561e-07 8.6920898e-23)) ((3.5498141e-08 1.9043398e-05 1.0847869e-13) (4.175561e-09 5.3219504e-06 -3.3520525e-10)))
3.062	(((0.0019043249 -3.5488722e-06 3.2733401e-22) (0.00053219162 -4.1756899e-07 8.6920589e-23)) ((3.5488722e-08 1.9043249e-05 1.0849169e-13) (4.1756899e-09 5.3219162e-06 -3.3887098e-10)))
3.0625	(((0.0019043099 -3.5479252e-06 3.2732526e-22) (0.00053218819 -4.1758147e-07 8.6920281e-23)) ((3.5479252e-08 1.9043099e-05 1.0850467e-13) (4.1758147e-09 5.3218819e-06 -3.4254344e-10)))
3.063	(((0.001904295 -3.5469732e-06 3.2731651e-22) (0.00053218477 -4.1759354e-07 8.6919972e-23)) ((3.5469732e-08 1.904295e-05 1.0851765e-13) (4.1759354e-09 5.3218477e-06 -3.462226e-10)))
3.0635	(((0.0019042801 -3.5460162e-06 3.2730777e-22) (0.00053218135 -4.176052e-07 8.6919664e-23)) ((3.5460162e-08 1.9042801e-05 1.0853062e-13) (4.176052e-09 5.3218135e-06 -3.4990845e-10)))
3.064	(((0.0019042651 -3.5450541e-06 3.2729904e-22) (0.00053217793 -4.1761645e-07 8.6919356e-23)) ((3.5450541e-08 1.9042651e-05 1.0854358e-13) (4.1761645e-09 5.3217793e-06 -3.5360097e-10)))
3.0645	(((0.0019042502 -3.5440871e-06 3.2729032e-22) (0.00053217451 -4.1762729e-07 8.6919047e-23)) ((3.5440871e-08 1.9042502e-05 1.0855653e-13) (4.1762729e-09 5.3217451e-06 -3.5730015e-10)))
3.065	(((0.0019042353 -3.543115e-06 3.2728161e-22) (0.00053217109 -4.1763772e-07 8.6918739e-23)) ((3.543115e-08 1.9042353e-05 1.0856947e-13) (4.1763772e-09 5.3217109e-06 -3.6100597e-10)))
3.0655	(((0.0019042204 -3.5421379e-06 3.2727291e-22) (0.00053216768 -4.1764774e-07 8.691843e-23)) ((3.5421379e-08 1.9042204e-05 1.085824e-13) (4.1764774e-09 5.3216768e-06 -3.647184e-10)))
3.066	(((0.0019042055 -3.5411557e-06 3.2726421e-22) (0.00053216426 -4.1765735e-07 8.6918121e-23)) ((3.5411557e-08 1.9042055e-05 1.0859533e-13) (4.1765735e-09 5.3216426e-06 -3.6843745e-10)))
3.0665	(((0.0019041906 -3.5401686e-06 3.2725554e-22) (0.00053216085 -4.1766654e-07 8.6917813e-23)) ((3.5401686e-08 1.9041906e-05 1.0860824e-13) (4.1766654e-09 5.3216085e-06 -3.7216308e-10)))
3.067	(((0.0019041756 -3.5391764e-06 3.272469e-22) (0.00053215743 -4.1767533e-07 8.6917504e-23)) ((3.5391764e-08 1.9041756e-05 1.0862114e-13) (4.1767533e-09 5.3215743e-06 -3.7589528e-10)))
3.0675	(((0.0019041608 -3.5381795e-06 3.2723822e-22) (0.00053215402 -4.1768369e-07 8.6917195e-23)) ((3.5381795e-08 1.9041608e-05 1.0863403e-13) (4.1768369e-09 5.3215402e-06 -3.7963404e-10)))
3.068	(((0.0019041459 -3.5371766e-06 3.2722954e-22) (0.00053215061 -4.1769165e-07 8.6916887e-23)) ((3.5371766e-08 1.9041459e-05 1.0864692e-13) (4.1769165e-09 5.3215061e-06 -3.8337933e-10)))
3.0685	(((0.001904131 -3.53617e-06 3.2722087e-22) (0.0005321472 -4.1769919e-07 8.6916578e-23)) ((3.53617e-08 1.904131e-05 1.0865977e-13) (4.1769919e-09 5.321472e-06 -3.8713114e-10)))
3.069	(((0.0019041161 -3.5351573e-06 3.272122e-22) (0.0005321438 -4.1770631e-07 8.691627e-23)) ((3.5351573e-08 1.9041161e-05 1.0867263e-13) (4.1770631e-09 5.321438e-06 -3.9088945e-10)))
3.0695	(((0.0019041013 -3.5341407e-06 3.2720355e-22) (0.00053214039 -4.1771301e-07 8.6915961e-23)) ((3.5341407e-08 1.9041013e-05 1.0868547e-13) (4.1771301e-09 5.3214039e-06 -3.9465425e-10)))
3.07	(((0.0019040864 -3.5331179e-06 3.2719492e-22) (0.00053213699 -4.177193e-07 8.6915652e-23)) ((3.5331179e-08 1.9040864e-05 1.0869831e-13) (4.177193e-09 5.3213699e-06 -3.9842551e-10)))
3.0705	(((0.0019040716 -3.5320912e-06 3.2718629e-22) (0.00053213358 -4.1772518e-07 8.6915344e-23)) ((3.5320912e-08 1.9040716e-05 1.0871112e-13) (4.1772518e-09 5.3213358e-06 -4.0220322e-10)))
3.071	(((0.0019040567 -3.5310583e-06 3.2717768e-22) (0.00053213018 -4.1773063e-07 8.6915035e-23)) ((3.5310583e-08 1.9040567e-05 1.0872394e-13) (4.1773063e-09 5.3213018e-06 -4.0598737e-10)))
3.0715	(((0.0019040419 -3.5300212e-06 3.2716908e-22) (0.00053212678 -4.1773567e-07 8.6914726e-23)) ((3.5300212e-08 1.9040419e-05 1.0873673e-13) (4.1773567e-09 5.3212678e-06 -4.0977793e-10)))
3.072	(((0.001904027 -3.5289799e-06 3.2716049e-22) (0.00053212338 -4.1774029e-07 8.6914417e-23)) ((3.5289799e-08 1.904027e-05 1.0874945e-13) (4.1774029e-09 5.3212338e-06 -4.1357489e-10)))
