/*--------------------------------*- C++ -*----------------------------------*\
| =========                 |                                                 |
| \\      /  F ield         | foam-extend: Open Source CFD                    |
|  \\    /   O peration     | Version:     4.1                                |
|   \\  /    A nd           | Web:         http://www.foam-extend.org         |
|    \\/     M anipulation  |                                                 |
\*---------------------------------------------------------------------------*/
FoamFile
{
    version     2.0;
    format      ascii;
    class       surfaceScalarField;
    location    "1.05";
    object      phi;
}
// * * * * * * * * * * * * * * * * * * * * * * * * * * * * * * * * * * * * * //

dimensions      [0 3 -1 0 0 0 0];

internalField   nonuniform List<scalar> 
8438
(
-0.59925103
0.0017347113
-0.60104644
0.0017954113
-0.60287171
0.0018252719
-0.60473531
0.0018635987
-0.60664635
0.0019110372
-0.60861452
0.0019681668
-0.61064836
0.0020338474
-0.61275454
0.002106173
-0.61493707
0.002182529
-0.61719668
0.0022596106
-0.6195301
0.0023334285
-0.62192946
0.0023993583
-0.62438173
0.0024522643
-0.62686845
0.0024867211
-0.62936578
0.002497333
-0.63184492
0.0024791438
-0.6342729
0.0024279746
-0.63661363
0.0023407282
-0.6388291
0.0022154778
-0.64088048
0.0020513737
-0.64272893
0.0018484542
-0.64433637
0.001607435
-0.64566596
0.0013295906
-0.64668277
0.0010168176
-0.6473547
0.00067192647
-0.64765382
0.00029911761
-0.64755804
-9.5781033e-05
-0.64705293
-0.00050510998
-0.64613592
-0.00091700536
-0.64481969
-0.0013162294
-0.64313308
-0.0016866144
-0.64112111
-0.0020119745
-0.63884302
-0.0022780826
-0.63636847
-0.0024745484
-0.63377245
-0.0025960222
-0.63113
-0.0026424502
-0.62851155
-0.002618449
-0.62597945
-0.002532102
-0.62358591
-0.0023935368
-0.62137233
-0.0022135881
-0.61936959
-0.0020027327
-0.61759923
-0.0017703597
-0.61607488
-0.0015243512
-0.61480388
-0.0012709996
-0.6137884
-0.0010154792
-0.61302589
-0.00076251012
-0.61251177
-0.00051412469
-0.61225104
-0.00026072333
-6.0940845e-06
-0.61302697
0.0032610211
-0.6145427
0.0033111364
-0.61608068
0.0033632525
-0.61765356
0.0034364846
-0.61927315
0.0035306276
-0.62094991
0.0036449292
-0.62269285
0.0037767841
-0.62450896
0.0039222846
-0.62640262
0.0040761867
-0.62837488
0.0042318749
-0.6304228
0.0043813475
-0.63253874
0.0045152997
-0.63470984
0.0046233629
-0.63691767
0.0046945475
-0.63913823
0.0047178947
-0.64134241
0.0046833238
-0.64349678
0.0045823495
-0.64556477
0.0044087162
-0.64750787
0.0041585805
-0.64928681
0.0038303056
-0.65086239
0.0034240421
-0.65219622
0.0029412648
-0.65325114
0.0023845051
-0.65399178
0.0017574618
-0.65438542
0.0010655664
-0.65440333
0.00031702446
-0.65402328
-0.00047583456
-0.65323265
-0.0012957414
-0.6520299
-0.0021197549
-0.65042665
-0.0029194754
-0.64845081
-0.0036624525
-0.64614704
-0.0043157456
-0.64357488
-0.0048502413
-0.64080476
-0.0052446676
-0.63791266
-0.0054881252
-0.63497452
-0.0055805952
-0.63206137
-0.0055315953
-0.62923582
-0.0053576518
-0.62655001
-0.0050793497
-0.624045
-0.0047185938
-0.62175128
-0.0042964519
-0.61968994
-0.0038316962
-0.61787429
-0.0033400039
-0.61631146
-0.0028338311
-0.61500388
-0.0023230589
-0.61395106
-0.0018153292
-0.61315162
-0.0013135658
-0.61259716
-0.00081518299
-0.00035845312
-0.61408909
0.0047352439
-0.61555688
0.0047789242
-0.61704467
0.0048510472
-0.61856695
0.0049587577
-0.6201364
0.00510008
-0.62176412
0.0052726532
-0.62345963
0.0054722886
-0.62523043
0.0056930877
-0.62708148
0.005927233
-0.62901445
0.0061648516
-0.63102705
0.0063939468
-0.63311224
0.00660049
-0.63525763
0.0067687549
-0.63744506
0.0068819769
-0.63965053
0.0069233599
-0.64184462
0.0068774173
-0.64399341
0.0067311435
-0.64605973
0.0064750342
-0.64800452
0.0061033721
-0.64978808
0.0056138587
-0.65137092
0.0050068838
-0.65271437
0.0042847207
-0.65378091
0.003451042
-0.6545345
0.002511048
-0.65494127
0.0014723348
-0.6549708
0.00034655983
-0.65459816
-0.00084847934
-0.65380644
-0.0020874576
-0.65259034
-0.0033358571
-0.65095975
-0.0045500657
-0.64894237
-0.0056798291
-0.64658445
-0.0066736691
-0.64394877
-0.0074859176
-0.64111012
-0.0080833174
-0.63814912
-0.0084491323
-0.63514584
-0.0085838688
-0.63217447
-0.0085029677
-0.62929948
-0.0082326361
-0.62657373
-0.0078051009
-0.62403803
-0.0072542959
-0.62172194
-0.0066125388
-0.61964529
-0.0059083515
-0.61781995
-0.0051653437
-0.6162517
-0.0044020808
-0.61494207
-0.00363269
-0.6138905
-0.0028669008
-0.6130944
-0.0021096609
-0.61254516
-0.0013644254
-0.00065866144
-0.61446503
0.0061796596
-0.61591228
0.0062261755
-0.61738033
0.0063190915
-0.61888364
0.0064620732
-0.62043542
0.0066518549
-0.62204746
0.0068846987
-0.62373007
0.0071548965
-0.62549161
0.0074546262
-0.62733793
0.0077735575
-0.62927167
0.0080985838
-0.63129138
0.0084136659
-0.63339079
0.0086998981
-0.63555795
0.0089359102
-0.63777471
0.0090987351
-0.64001656
0.0091652098
-0.64225305
0.0091139084
-0.64444881
0.0089269028
-0.64656505
0.0085912758
-0.6485612
0.0080995272
-0.6503963
0.0074489627
-0.65202993
0.0066405063
-0.65342261
0.0056774022
-0.65453596
0.004564396
-0.65533274
0.0033078231
-0.65577721
0.0019168019
-0.65583626
0.00040560947
-0.65548145
-0.0012032834
-0.65469206
-0.0028768465
-0.65345914
-0.0045687775
-0.65178999
-0.00621922
-0.64971186
-0.0077579615
-0.64727338
-0.0091121476
-0.64454247
-0.010216827
-0.64160083
-0.011024957
-0.63853643
-0.011513529
-0.63543589
-0.011684412
-0.6323782
-0.011560652
-0.62943071
-0.01118013
-0.62664723
-0.010588582
-0.62406808
-0.0098334472
-0.62172133
-0.0089592889
-0.61962476
-0.0080049145
-0.61778807
-0.0070020362
-0.61621497
-0.0059751843
-0.61490533
-0.0049423271
-0.61385706
-0.0039151748
-0.61306573
-0.002900984
-0.61252588
-0.0019042795
-0.00093959111
-0.61491403
0.0075972075
-0.61633839
0.0076505403
-0.61778463
0.0077653239
-0.61926743
0.0079448793
-0.62080051
0.0081849363
-0.62239648
0.0084806667
-0.62406659
0.0088250042
-0.6258203
0.0092083419
-0.62766469
0.0096179466
-0.62960364
0.010037529
-0.63163693
0.010446957
-0.63375929
0.010822254
-0.6359594
0.01113602
-0.63821915
0.011358492
-0.64051332
0.011459382
-0.64280996
0.011410548
-0.64507161
0.011188554
-0.64725719
0.010776852
-0.649324
0.010166342
-0.65122943
0.0093543877
-0.65293187
0.0083429481
-0.65439102
0.0071365532
-0.6555676
0.005740977
-0.65642298
0.0041631977
-0.65691911
0.0024129372
-0.65701938
0.0005058806
-0.65669063
-0.0015320417
-0.6559066
-0.003660877
-0.65465286
-0.0058225176
-0.65293262
-0.0079394599
-0.65077212
-0.0099184556
-0.64822322
-0.011661054
-0.64536114
-0.013078903
-0.6422776
-0.014108494
-0.63907116
-0.014719969
-0.63583766
-0.014917912
-0.63266279
-0.014735529
-0.62961761
-0.014225308
-0.62675702
-0.013449164
-0.62412038
-0.012470089
-0.62173346
-0.011346208
-0.6196111
-0.010127277
-0.61775989
-0.0088532457
-0.61618073
-0.0075543436
-0.61487113
-0.0062519246
-0.61382689
-0.0049594151
-0.61304231
-0.0036855662
-0.61251342
-0.0024331704
-0.0012082124
-0.61548134
0.0089826515
-0.61687643
0.0090456328
-0.61829494
0.0091838363
-0.61975175
0.0094016853
-0.62126114
0.0096943301
-0.62283665
0.010056177
-0.62449069
0.010479042
-0.6262341
0.01095175
-0.62807549
0.011459341
-0.63002041
0.011982447
-0.63207027
0.012496816
-0.63422119
0.01297318
-0.63646281
0.013377637
-0.63877716
0.013672846
-0.64113813
0.013820351
-0.64351177
0.013784189
-0.64585779
0.013534571
-0.64813196
0.01305102
-0.65028876
0.012323139
-0.65228344
0.011349068
-0.65407308
0.010132589
-0.65561656
0.0086800357
-0.65687379
0.006998209
-0.65780468
0.005094087
-0.65836847
0.0029767265
-0.6585241
0.00066150978
-0.6582322
-0.0018239403
-0.65745902
-0.0044340645
-0.65618228
-0.0070992525
-0.65439903
-0.0097227069
-0.65213351
-0.012183982
-0.64944158
-0.014352978
-0.64640858
-0.016111907
-0.64314015
-0.017376927
-0.63974947
-0.018110644
-0.6363449
-0.018322485
-0.63302084
-0.01805959
-0.62985293
-0.017393219
-0.62689698
-0.016405106
-0.62419059
-0.01517648
-0.62175613
-0.013780674
-0.61960426
-0.012279143
-0.61773735
-0.010720154
-0.61615243
-0.0091392668
-0.61484367
-0.0075606826
-0.6138041
-0.0059989817
-0.61302643
-0.0044632416
-0.61250635
-0.002953246
-0.0014696143
-0.61617026
0.010332481
-0.61753025
0.010405618
-0.61891474
0.010568329
-0.62033936
0.010826306
-0.62181922
0.011174188
-0.62336893
0.011605887
-0.62500227
0.012112388
-0.62673176
0.012681239
-0.62856794
0.013295518
-0.63051844
0.013932953
-0.63258682
0.014565196
-0.63477111
0.015157469
-0.63706229
0.015668811
-0.63944276
0.016053318
-0.64188537
0.016262964
-0.64435359
0.01625241
-0.64680332
0.015984301
-0.64918611
0.015433812
-0.65145272
0.01458975
-0.6535558
0.013452147
-0.65545104
0.012027825
-0.65709675
0.010325751
-0.6584524
0.0083538554
-0.65947663
0.0061183138
-0.66012572
0.0036258191
-0.66035329
0.00088907767
-0.66011206
-0.0020651749
-0.65935824
-0.005187885
-0.65805863
-0.0083988566
-0.65620106
-0.011580279
-0.65380599
-0.014579052
-0.65093412
-0.017224848
-0.64768436
-0.019361666
-0.6441815
-0.020879789
-0.64055858
-0.021733567
-0.63694046
-0.021940604
-0.63343257
-0.021567476
-0.6301158
-0.020709988
-0.62704638
-0.019474531
-0.62425893
-0.017963931
-0.62177096
-0.016268643
-0.61958754
-0.014462557
-0.61770553
-0.012602171
-0.61611699
-0.010727806
-0.6148119
-0.0088657732
-0.6137799
-0.0070309788
-0.61301142
-0.0052317239
-0.61250043
-0.003464229
-0.0017250974
-0.61697511
0.011638025
-0.6182927
0.011723204
-0.61963643
0.011912063
-0.62102237
0.012212241
-0.62246648
0.012618298
-0.62398459
0.013124004
-0.62559209
0.013719885
-0.62730344
0.014392593
-0.62913154
0.015123615
-0.63108665
0.01588806
-0.63317504
0.016653584
-0.63539728
0.017379718
-0.6377463
0.01801783
-0.64020523
0.018512248
-0.64274579
0.018803516
-0.64532811
0.018834736
-0.64790304
0.018559229
-0.65041646
0.017947229
-0.65281425
0.016987541
-0.6550459
0.015683801
-0.6570658
0.014047726
-0.65883226
0.012092206
-0.66030498
0.009826578
-0.66144191
0.0072552476
-0.66219642
0.0043803218
-0.66251594
0.0012086021
-0.6623434
-0.0022377208
-0.66162194
-0.0059093439
-0.6603033
-0.0097174947
-0.65836165
-0.013521925
-0.65581077
-0.017129938
-0.65271674
-0.020318875
-0.64919675
-0.022881656
-0.64540178
-0.024674754
-0.64149167
-0.025643676
-0.63761282
-0.025819456
-0.63388419
-0.02529611
-0.63039223
-0.02420195
-0.62719246
-0.022674296
-0.62431473
-0.020841666
-0.62176965
-0.018813715
-0.61955487
-0.016677342
-0.61766016
-0.014496877
-0.61607147
-0.012316498
-0.61477369
-0.010163551
-0.61375254
-0.0080521359
-0.6129956
-0.0059886572
-0.61249455
-0.0039652821
-0.0019748477
-0.61789686
0.012896242
-0.61916619
0.012992534
-0.62046237
0.01320824
-0.62180264
0.013552517
-0.62320408
0.014019733
-0.62468388
0.014603811
-0.62625923
0.015295234
-0.6279469
0.016080256
-0.62976255
0.016939274
-0.63171971
0.017845212
-0.63382809
0.018761967
-0.63609165
0.019643277
-0.63850604
0.020432227
-0.64105575
0.021061953
-0.64371137
0.021459139
-0.64642889
0.021552256
-0.64915237
0.021282709
-0.65182006
0.020614923
-0.65437145
0.019538926
-0.65675222
0.018064575
-0.65891577
0.016211269
-0.66082133
0.01399777
-0.66243011
0.011435363
-0.66370042
0.0085255529
-0.6645831
0.0052630017
-0.66501878
0.0016442811
-0.66493843
-0.0023180767
-0.6642684
-0.0065793715
-0.66293989
-0.011046007
-0.66090698
-0.015554829
-0.65817187
-0.019865046
-0.65480619
-0.023684559
-0.65095173
-0.02673612
-0.64679561
-0.028830873
-0.64253388
-0.029905401
-0.63834084
-0.030012495
-0.63435165
-0.029285302
-0.63065808
-0.027895516
-0.62731297
-0.026019415
-0.62433865
-0.023815977
-0.62173624
-0.02141613
-0.6194936
-0.018919977
-0.6175917
-0.016398786
-0.61600898
-0.013899214
-0.61472438
-0.011448146
-0.61371907
-0.0090574487
-0.61297734
-0.0067303896
-0.61248822
-0.0044543968
-0.0022181224
-0.61892892
0.014094532
-0.62014105
0.014204666
-0.62138188
0.014449068
-0.62266887
0.014839514
-0.62402006
0.015370917
-0.62545408
0.016037831
-0.62699009
0.016831242
-0.62864746
0.017737634
-0.63044519
0.018737001
-0.63240069
0.019800711
-0.63452806
0.020889334
-0.63683565
0.021950873
-0.63932301
0.022919583
-0.64197688
0.023715818
-0.644767
0.024249265
-0.64764415
0.024429409
-0.6505433
0.024181851
-0.65339223
0.023463861
-0.65612189
0.022268582
-0.6586734
0.020616087
-0.66099975
0.018537614
-0.66306266
0.01606068
-0.66482675
0.013199457
-0.66625247
0.0099512699
-0.66728919
0.0062997225
-0.66787036
0.0022254468
-0.66791273
-0.0022757016
-0.66732145
-0.0071706556
-0.66600001
-0.012367442
-0.66387315
-0.017681691
-0.66092344
-0.022814753
-0.65722711
-0.027380891
-0.65295942
-0.031003813
-0.64835797
-0.033432317
-0.64366808
-0.034595298
-0.63909996
-0.034580614
-0.63480757
-0.033577689
-0.6308867
-0.031816389
-0.62738412
-0.029521987
-0.62431087
-0.026889233
-0.62165495
-0.024072044
-0.61939172
-0.021183208
-0.61749124
-0.018299268
-0.61592314
-0.015467312
-0.61465952
-0.012711768
-0.61367648
-0.010040489
-0.61295468
-0.0074521934
-0.61248041
-0.0049286607
-0.0024535865
-0.62006973
0.015233135
-0.62121944
0.01535438
-0.62239779
0.015627418
-0.62362385
0.016065566
-0.6249168
0.016663871
-0.62629684
0.017417869
-0.62778524
0.018319649
-0.62940431
0.019356701
-0.63117682
0.020509512
-0.63312491
0.021748803
-0.6352681
0.023032521
-0.63762048
0.024303248
-0.64018697
0.025486074
-0.64295808
0.026486933
-0.64590339
0.027194572
-0.64896728
0.027493305
-0.65207243
0.027287001
-0.65513218
0.026523609
-0.6580659
0.025202307
-0.6608093
0.023359486
-0.66331608
0.021044394
-0.66555283
0.018297428
-0.66749046
0.015137087
-0.66909429
0.011555092
-0.67031406
0.0075194952
-0.67107618
0.0029875718
-0.6712809
-0.0020709844
-0.67080687
-0.0076446868
-0.66952081
-0.013653502
-0.66730481
-0.019897693
-0.6641087
-0.026010858
-0.6600101
-0.031479494
-0.6552303
-0.035783611
-0.65007876
-0.038583859
-0.64486836
-0.039805703
-0.63985542
-0.039593548
-0.63521473
-0.038218378
-0.63104295
-0.035988176
-0.62737549
-0.033189443
-0.62420658
-0.03005814
-0.62150661
-0.026772012
-0.61923501
-0.023454808
-0.6173487
-0.020185578
-0.61580709
-0.017008923
-0.61457467
-0.013944189
-0.6136221
-0.010993064
-0.61292621
-0.008148077
-0.61247062
-0.0053842581
-0.0026794017
-0.62131474
0.01629325
-0.62239054
0.016430177
-0.6234971
0.016733979
-0.624653
0.017221469
-0.6258782
0.017889066
-0.6271943
0.018733973
-0.62862481
0.019750159
-0.6301952
0.020927088
-0.6319326
0.02224691
-0.63386475
0.02368096
-0.63601791
0.025185678
-0.63841357
0.026698909
-0.64106414
0.028136641
-0.64396618
0.029388972
-0.64709054
0.030318932
-0.65037406
0.030776831
-0.65372261
0.030635552
-0.65702907
0.029830069
-0.66019681
0.028370041
-0.66315488
0.02631756
-0.66585948
0.023748999
-0.66828548
0.020723424
-0.67041412
0.017265721
-0.67221957
0.01336054
-0.67365506
0.0089549846
-0.67464102
0.00397354
-0.67505917
-0.0016528421
-0.67475577
-0.0079480852
-0.67354961
-0.014859662
-0.67126157
-0.022185729
-0.66778733
-0.029485096
-0.66319795
-0.03606888
-0.65777886
-0.041202701
-0.65194417
-0.044418548
-0.64610045
-0.045649423
-0.64056276
-0.045131237
-0.63552715
-0.043253987
-0.63108498
-0.040430343
-0.62725211
-0.037022315
-0.6239984
-0.033311851
-0.62127082
-0.029499593
-0.61900896
-0.025716671
-0.6171542
-0.022040336
-0.61565444
-0.018508681
-0.61446599
-0.015132643
-0.61355386
-0.011905189
-0.61289114
-0.0088108044
-0.61245885
-0.0058165441
-0.0028933011
-0.62265287
0.017281203
-0.62365107
0.017428373
-0.62467874
0.017761653
-0.6257564
0.018299131
-0.62690503
0.019037694
-0.62814765
0.019976596
-0.62950999
0.0211125
-0.63102089
0.022437982
-0.63271229
0.023938314
-0.6346185
0.025587167
-0.63677393
0.027341113
-0.63920951
0.029134481
-0.64194771
0.030874843
-0.64499448
0.03243574
-0.64832463
0.033649091
-0.65186648
0.034318674
-0.65550263
0.034271708
-0.65909648
0.033423918
-0.66252882
0.031802378
-0.66572085
0.029509592
-0.66863451
0.026662655
-0.67125826
0.023347178
-0.67358957
0.019597031
-0.67561729
0.015388258
-0.67730293
0.010640624
-0.67856324
0.005233848
-0.67925992
-0.00095615666
-0.67920007
-0.0080079381
-0.67814143
-0.015918307
-0.67581843
-0.024508721
-0.6720379
-0.033265635
-0.66684661
-0.041260168
-0.66062036
-0.047428946
-0.65393021
-0.051108706
-0.6473139
-0.052265726
-0.64116042
-0.051284715
-0.63568399
-0.048730418
-0.63095955
-0.045154787
-0.62697098
-0.041010888
-0.62365357
-0.036629253
-0.62092374
-0.032229425
-0.61869684
-0.027943572
-0.61689638
-0.023840798
-0.61545771
-0.019947348
-0.61432869
-0.016261664
-0.61346883
-0.012765046
-0.61284771
-0.0094319278
-0.61244414
-0.0062201131
-0.0030926418
-0.62409096
0.018169381
-0.62499687
0.018334283
-0.62593475
0.018699528
-0.62692329
0.019287668
-0.62798357
0.020097974
-0.62913964
0.021132666
-0.63041928
0.02239214
-0.63185474
0.023873443
-0.63348321
0.025566791
-0.63534654
0.027450489
-0.63748908
0.02948366
-0.63995368
0.031599082
-0.6427764
0.033697561
-0.64597756
0.035636895
-0.64954118
0.037212715
-0.65338725
0.038164748
-0.65736642
0.038250876
-0.66129887
0.037356366
-0.66503293
0.035536436
-0.66848047
0.032957133
-0.67161418
0.029796371
-0.67444335
0.026176341
-0.67698879
0.02214247
-0.67926121
0.017660682
-0.68123713
0.012616539
-0.68283352
0.0068302423
-0.6838927
0.00010301815
-0.68417514
-0.0077254991
-0.68336403
-0.016729416
-0.68107509
-0.026797663
-0.67697083
-0.037369888
-0.67103622
-0.04719478
-0.66377479
-0.054690375
-0.65600142
-0.058882075
-0.6484391
-0.059828052
-0.64156772
-0.058156088
-0.63560936
-0.054688781
-0.63060341
-0.050160736
-0.62648357
-0.045130732
-0.62313709
-0.039975735
-0.62044134
-0.034925176
-0.61828289
-0.030102021
-0.61656536
-0.025558324
-0.61521106
-0.021301652
-0.61415961
-0.01731311
-0.61336557
-0.013559093
-0.61279558
-0.010001913
-0.61242678
-0.0065889131
-0.0032744722
-0.62559392
0.0189733
-0.62640628
0.019146641
-0.62724752
0.019540769
-0.62813851
0.020178663
-0.62910083
0.021060289
-0.63015937
0.02219121
-0.6313438
0.02357657
-0.63268976
0.025219401
-0.63423997
0.027117003
-0.63604475
0.029255271
-0.63816039
0.031599303
-0.64064456
0.034083248
-0.64355091
0.036603912
-0.64692079
0.039006777
-0.65075608
0.041048002
-0.65497064
0.04237931
-0.65937008
0.042650311
-0.66370895
0.041695238
-0.66778696
0.039614448
-0.67150489
0.036675066
-0.67485497
0.033146448
-0.67787855
0.029199927
-0.68063035
0.024894268
-0.68315369
0.020184019
-0.68545153
0.014914375
-0.68744885
0.0088275672
-0.68896632
0.0016204872
-0.68971572
-0.0069761054
-0.68929567
-0.017149465
-0.68716003
-0.028933301
-0.68273982
-0.041790099
-0.67588054
-0.054054061
-0.66726402
-0.063306895
-0.65810041
-0.068045684
-0.64937496
-0.068553495
-0.64167488
-0.065856169
-0.6352056
-0.061158064
-0.62993933
-0.055427003
-0.62573344
-0.049336626
-0.62241001
-0.043299165
-0.61979794
-0.037537246
-0.61775078
-0.032149178
-0.61615109
-0.027158014
-0.61490845
-0.022544296
-0.61395522
-0.018266342
-0.61324202
-0.014272287
-0.61273359
-0.010510349
-0.61240609
-0.0069164062
-0.0034356171
-0.62720095
0.019653521
-0.62790212
0.019847812
-0.62863548
0.020274132
-0.62941787
0.020961051
-0.63026965
0.021912074
-0.6312157
0.023137255
-0.63228685
0.024647727
-0.63352163
0.026454182
-0.63496806
0.028563425
-0.63668543
0.030972641
-0.63874385
0.033657725
-0.64121917
0.036558567
-0.64418733
0.039572069
-0.64771956
0.04253901
-0.65185068
0.04517912
-0.6564971
0.047025733
-0.66140276
0.047555969
-0.66622234
0.046514819
-0.67068325
0.044075364
-0.67467578
0.040667596
-0.67822821
0.036698873
-0.68143085
0.032402566
-0.68438421
0.027847628
-0.6871747
0.022974513
-0.68984425
0.017583917
-0.69233554
0.011318862
-0.69445117
0.00373611
-0.69584697
-0.0055803013
-0.69602446
-0.016971978
-0.69423983
-0.030717933
-0.68956492
-0.046465009
-0.68155017
-0.062068807
-0.67111312
-0.073743949
-0.66013709
-0.079021713
-0.6499766
-0.078713983
-0.6413352
-0.07449757
-0.6343506
-0.068142667
-0.62887692
-0.06090068
-0.62465889
-0.053554657
-0.62143276
-0.046525297
-0.61896944
-0.040000562
-0.61708653
-0.034032089
-0.61564583
-0.028598714
-0.61454582
-0.023644304
-0.6137135
-0.019098664
-0.61309729
-0.014888491
-0.61266136
-0.010946279
-0.61238198
-0.0071957947
-0.0035727932
-0.62880841
0.020238248
-0.6294002
0.020439599
-0.63001873
0.020892662
-0.63068291
0.021625233
-0.63141238
0.022641549
-0.6322316
0.023956468
-0.63317212
0.025588249
-0.63427497
0.027557035
-0.63559336
0.029881817
-0.63719621
0.032575489
-0.63916989
0.035631406
-0.641613
0.039001677
-0.64462933
0.0425884
-0.64833066
0.046240341
-0.6528087
0.049657155
-0.65800266
0.052219694
-0.66357132
0.053124632
-0.66900971
0.051953212
-0.67393026
0.048995918
-0.67821169
0.044949024
-0.68194363
0.040430811
-0.68528767
0.035746604
-0.68840274
0.030962696
-0.69143009
0.026001865
-0.69447278
0.020626604
-0.69751479
0.014360876
-0.70035422
0.0065755332
-0.7025952
-0.003339319
-0.70364076
-0.015926415
-0.7025211
-0.03183759
-0.69776237
-0.051223745
-0.68831088
-0.071520298
-0.67534737
-0.086707454
-0.66196712
-0.092401963
-0.65003351
-0.090647594
-0.64035234
-0.084178743
-0.63289333
-0.075601675
-0.62731306
-0.066480951
-0.6231954
-0.057672316
-0.62016785
-0.049552842
-0.61793564
-0.04223278
-0.61628018
-0.035687548
-0.61504529
-0.029833596
-0.61412179
-0.024567805
-0.61343439
-0.019786066
-0.6129318
-0.015391085
-0.61257943
-0.011298647
-0.61235491
-0.0074203149
-0.0036827543
-0.63051099
0.020671001
-0.63097193
0.020900533
-0.63146456
0.021385293
-0.63200041
0.022161088
-0.63259594
0.023237072
-0.63327379
0.024634319
-0.634065
0.026379457
-0.63501171
0.028503744
-0.63617072
0.031040831
-0.63761912
0.034023894
-0.63946003
0.037472307
-0.64181852
0.041360173
-0.64483069
0.045600571
-0.64865777
0.050067422
-0.65348313
0.054482509
-0.65931397
0.058050541
-0.66569782
0.059508476
-0.67187217
0.058127567
-0.67726984
0.054393588
-0.68176781
0.049446988
-0.68557274
0.044235747
-0.68895952
0.039133385
-0.6921658
0.034168967
-0.69540035
0.029236421
-0.69885838
0.024084634
-0.7025953
0.018097792
-0.70640983
0.010390062
-0.7098428
9.3646281e-05
-0.71217482
-0.013594388
-0.71222481
-0.0317876
-0.70776735
-0.05568121
-0.69657947
-0.08270818
-0.67997498
-0.10331194
-0.66335175
-0.1090252
-0.64923531
-0.10476403
-0.63846302
-0.094951035
-0.63064933
-0.083415358
-0.62513357
-0.071996718
-0.62127903
-0.061526858
-0.61858291
-0.052248957
-0.61668212
-0.044133568
-0.61532665
-0.03704302
-0.6143487
-0.03081155
-0.61363713
-0.025279372
-0.61311888
-0.020304317
-0.61274617
-0.015763791
-0.61248795
-0.011556872
-0.61232466
-0.0075836002
-0.0037624672
-0.63201608
0.020990745
-0.63235096
0.021235413
-0.63271044
0.021744772
-0.63310655
0.022557197
-0.63355266
0.023683178
-0.63406852
0.02515018
-0.6346831
0.026994035
-0.63543807
0.029258717
-0.6363923
0.031995063
-0.63762976
0.035261353
-0.63927153
0.039114082
-0.64147678
0.043565421
-0.64442325
0.048547036
-0.64833019
0.053974364
-0.65352245
0.059674774
-0.66017279
0.064700882
-0.66769845
0.067034132
-0.67490291
0.06533203
-0.68092285
0.060413529
-0.68564371
0.054167845
-0.68948197
0.048074013
-0.692876
0.042527413
-0.69614889
0.037441857
-0.69955877
0.032646298
-0.70341691
0.027942774
-0.70789273
0.022573606
-0.71279614
0.015293469
-0.717614
0.0049115156
-0.72155494
-0.0096534521
-0.72342343
-0.029919109
-0.72004607
-0.059058568
-0.70697716
-0.095777092
-0.68494529
-0.12534381
-0.66389616
-0.13007433
-0.64712526
-0.12153493
-0.63531965
-0.10675664
-0.62740244
-0.091332575
-0.62222205
-0.077177103
-0.61885585
-0.064893054
-0.6166583
-0.054446509
-0.6152059
-0.045585968
-0.61422972
-0.038019203
-0.61356158
-0.031479695
-0.61309689
-0.025744053
-0.61277074
-0.020630475
-0.61254281
-0.015991715
-0.61238814
-0.011711542
-0.61229164
-0.0076800984
-0.0038093112
-0.63321994
0.021120872
-0.63339621
0.021411686
-0.6336009
0.021949464
-0.63383536
0.022791656
-0.63410726
0.023955079
-0.63443229
0.025475206
-0.63483613
0.027397883
-0.63535845
0.029781037
-0.63605795
0.032694555
-0.63702158
0.036224982
-0.6383841
0.040476601
-0.64034124
0.045522569
-0.64311868
0.051324472
-0.64698389
0.057839573
-0.6524433
0.065134184
-0.66001614
0.072273725
-0.66900786
0.076025845
-0.67746203
0.073786203
-0.68403547
0.066986977
-0.68865596
0.058788333
-0.69215039
0.051568442
-0.69520309
0.045580116
-0.69823696
0.040475717
-0.70152429
0.03593363
-0.70555831
0.03197679
-0.71077105
0.027786352
-0.71701543
0.021537844
-0.72386904
0.011765123
-0.73032289
-0.003199601
-0.73534388
-0.024898117
-0.73470908
-0.059693371
-0.72030887
-0.1101773
-0.68998995
-0.15566273
-0.66287885
-0.15718543
-0.6430087
-0.14140508
-0.63046607
-0.11929927
-0.6229124
-0.098886241
-0.61847484
-0.081614666
-0.61589476
-0.067473136
-0.61439573
-0.055945532
-0.61352044
-0.046461264
-0.61300473
-0.038534909
-0.6126972
-0.031787231
-0.61251112
-0.025930127
-0.61239685
-0.020744745
-0.612326
-0.016062574
-0.61228235
-0.011755182
-0.61225693
-0.0077055237
-0.003821291
-0.63272791
0.021058173
-0.63272212
0.0214059
-0.63273839
0.021965726
-0.63277282
0.022826095
-0.63282665
0.024008904
-0.63290905
0.025557603
-0.63303837
0.027527211
-0.63324649
0.029989155
-0.63358457
0.033032631
-0.63413249
0.036772904
-0.6350259
0.04137001
-0.63649531
0.046991983
-0.63883479
0.053663946
-0.64235246
0.061357246
-0.6477558
0.07053753
-0.65626608
0.080783999
-0.66727761
0.087037375
-0.67743589
0.083944487
-0.68461955
0.074170633
-0.68881716
0.062985948
-0.69166839
0.054419674
-0.69419562
0.048107339
-0.69693465
0.043214751
-0.70008376
0.039082743
-0.70431945
0.036212477
-0.71060006
0.034066961
-0.71854141
0.029479188
-0.72814899
0.021372706
-0.73743061
0.006082015
-0.74623827
-0.016090455
-0.7502152
-0.055716441
-0.73692894
-0.12346357
-0.69376652
-0.19882515
-0.65875058
-0.19220137
-0.63583006
-0.1643256
-0.62333333
-0.13179601
-0.61694288
-0.10527668
-0.61382786
-0.084729689
-0.61240511
-0.068895889
-0.61182773
-0.056522908
-0.61165981
-0.04662919
-0.61167981
-0.03851491
-0.61177625
-0.031690785
-0.61189385
-0.025812532
-0.61200597
-0.020632627
-0.61210054
-0.015968003
-0.61217268
-0.011683043
-0.6122209
-0.0076573013
-0.0037972414
-0.62867729
0.020716586
-0.62841136
0.021139963
-0.62815079
0.021705157
-0.62788445
0.022559755
-0.62760501
0.023729462
-0.62731251
0.025265107
-0.62701424
0.027228947
-0.62672963
0.02970454
-0.62649771
0.032800714
-0.62638631
0.0366615
-0.62652142
0.041505119
-0.6271625
0.047633068
-0.62870761
0.055209056
-0.63149873
0.064148362
-0.63630962
0.075348418
-0.64555502
0.090029397
-0.65939552
0.10087788
-0.67163666
0.096185635
-0.67900398
0.081537945
-0.68153652
0.065518497
-0.68264909
0.055532243
-0.68375629
0.049214539
-0.68548934
0.044947798
-0.68781404
0.041407438
-0.6910837
0.039482142
-0.69777554
0.040758801
-0.70636265
0.038066291
-0.71892417
0.033934228
-0.73064087
0.017798712
-0.74530423
-0.0014270904
-0.75823685
-0.042783822
-0.75529561
-0.12640481
-0.69193325
-0.26218751
-0.64906928
-0.23506534
-0.62427918
-0.1891157
-0.61331127
-0.14276392
-0.60932574
-0.10926222
-0.60830363
-0.085751796
-0.60846376
-0.068735758
-0.60903107
-0.055955597
-0.6096849
-0.045975365
-0.61029874
-0.037901072
-0.61082848
-0.031161039
-0.6112643
-0.025376712
-0.61160981
-0.020287117
-0.61187299
-0.015704824
-0.61206222
-0.011493814
-0.61218456
-0.0075349585
-0.0037370056
-0.61457387
0.019838906
-0.61380984
0.02037593
-0.6130307
0.020926025
-0.61221032
0.021739377
-0.61133044
0.022849578
-0.61037859
0.024313252
-0.60934517
0.026195528
-0.60822747
0.028586844
-0.60703748
0.031610728
-0.60580814
0.035432153
-0.60461013
0.040307107
-0.60365113
0.046674076
-0.6033965
0.054954422
-0.6042255
0.064977362
-0.60658674
0.077709662
-0.61456852
0.098011176
-0.63158077
0.11789012
-0.64529177
0.10989664
-0.65129241
0.087538578
-0.64926092
0.063487004
-0.64652697
0.052798299
-0.64461023
0.047297797
-0.64407465
0.044412219
-0.64458811
0.041920889
-0.64416699
0.039061031
-0.65164541
0.048237215
-0.66041428
0.046835158
-0.67801721
0.051537157
-0.6939056
0.033687103
-0.72343866
0.028105974
-0.74624999
-0.0199725
-0.76916015
-0.10349465
-0.67474395
-0.35660372
-0.62951001
-0.28029929
-0.6055624
-0.21306331
-0.59952969
-0.14879663
-0.60001079
-0.10878111
-0.60207099
-0.0836916
-0.60424479
-0.066561955
-0.60613734
-0.054063053
-0.60768574
-0.044426966
-0.60892058
-0.036666225
-0.60989168
-0.030189944
-0.61064606
-0.024622334
-0.61122253
-0.019710645
-0.61165129
-0.01527606
-0.61195494
-0.011190164
-0.6121495
-0.0073404011
-0.0036415565
-0.58439612
0.018377434
-0.58293793
0.018917744
-0.58137684
0.019364931
-0.57970929
0.02007183
-0.57790845
0.021048735
-0.57594176
0.022346561
-0.57376844
0.024022204
-0.57134133
0.026159735
-0.56861248
0.028881886
-0.56553826
0.032357925
-0.56207903
0.036847877
-0.55829145
0.042886502
-0.55466226
0.051325227
-0.55193696
0.062252061
-0.55000263
0.075775337
-0.55392366
0.10193221
-0.57792592
0.14189238
-0.59410038
0.12607109
-0.59818424
0.091622444
-0.58714586
0.052448621
-0.5779895
0.043641939
-0.57180008
0.041108383
-0.56790617
0.040518309
-0.56625059
0.040265301
-0.55658713
0.029397566
-0.57142162
0.027581717
-0.58353768
0.032489662
-0.59606422
0.037464024
-0.59812781
0.019842721
-0.6320299
0.039242811
-0.71126366
0.019441616
-0.66642179
-0.054584776
-0.60493894
-0.22349161
-0.57368339
-0.31155483
-0.57147731
-0.2152694
-0.58109335
-0.13918058
-0.58941188
-0.10046258
-0.59558337
-0.077520112
-0.60005713
-0.062088197
-0.60333697
-0.050783209
-0.60577725
-0.04198669
-0.60761466
-0.034828816
-0.60900758
-0.028797021
-0.61006389
-0.023566031
-0.61085825
-0.018916283
-0.61144283
-0.014691478
-0.61185401
-0.010778984
-0.61211639
-0.0070780217
-0.0035130415
-0.52094347
0.015428522
-0.51780328
0.015777555
-0.51446063
0.01602228
-0.51088673
0.016497932
-0.50702772
0.017189727
-0.50280933
0.018128172
-0.49813408
0.01934695
-0.49287868
0.020904339
-0.48689336
0.022896562
-0.48000725
0.025471814
-0.47201998
0.02886061
-0.46271117
0.033577689
-0.4522133
0.040827365
-0.4415635
0.051602258
-0.42990275
0.064114582
-0.41609243
0.088121887
-0.44668061
0.17248057
-0.44951969
0.12891017
-0.43106467
0.073167423
-0.3811967
0.0025806492
-0.34486784
0.0073130776
-0.31608852
0.01232906
-0.24275483
0.012890951
-0.066707724
0.0075210283
0.023963129
-0.010417803
0
0
0
0
0
0
0
0
0