/*--------------------------------*- C++ -*----------------------------------*\
| =========                 |                                                 |
| \\      /  F ield         | foam-extend: Open Source CFD                    |
|  \\    /   O peration     | Version:     4.1                                |
|   \\  /    A nd           | Web:         http://www.foam-extend.org         |
|    \\/     M anipulation  |                                                 |
\*---------------------------------------------------------------------------*/
FoamFile
{
    version     2.0;
    format      ascii;
    class       surfaceScalarField;
    location    "1.05";
    object      phi;
}
// * * * * * * * * * * * * * * * * * * * * * * * * * * * * * * * * * * * * * //

dimensions      [0 3 -1 0 0 0 0];

internalField   nonuniform List<scalar> 
8438
(
-0.59744046
0.001673554
-0.59917932
0.0017388568
-0.60095309
0.0017737756
-0.60277079
0.0018176986
-0.60464217
0.0018713802
-0.60657767
0.0019354973
-0.60858669
0.0020090186
-0.61067684
0.0020901527
-0.61285324
0.0021764017
-0.61511781
0.0022645736
-0.61746859
0.0023507787
-0.61989906
0.0024304647
-0.62239758
0.0024985197
-0.62494704
0.0025494638
-0.62752477
0.0025777264
-0.63010278
0.0025780097
-0.63264837
0.0025455888
-0.63512498
0.002476611
-0.6374932
0.0023682257
-0.63971178
0.0022185756
-0.6417385
0.0020267214
-0.64353105
0.0017925491
-0.6450478
0.0015167524
-0.64624875
0.0012009525
-0.64709676
0.00084801063
-0.64755931
0.00046254382
-0.64761062
5.1307045e-05
-0.64723331
-0.00037731009
-0.64642239
-0.00081091814
-0.64518934
-0.0012330484
-0.64356305
-0.001626293
-0.64158956
-0.0019734829
-0.63932996
-0.002259599
-0.63685629
-0.0024736736
-0.63424629
-0.0026100033
-0.6315779
-0.0026683901
-0.62892441
-0.0026534834
-0.62635088
-0.0025735316
-0.62391197
-0.0024389131
-0.62165121
-0.0022607564
-0.61960137
-0.0020498413
-0.61778553
-0.0018158444
-0.61621862
-0.0015669057
-0.61490908
-0.0013095383
-0.61385998
-0.0010490996
-0.61306953
-0.00079045744
-0.61253402
-0.00053550933
-0.6122586
-0.00027541839
-1.3647931e-05
-0.61123266
0.0031392972
-0.61269179
0.0031979903
-0.61417809
0.0032600707
-0.61570481
0.0033444185
-0.6172844
0.0034509746
-0.61892808
0.003579172
-0.62064568
0.003726622
-0.62244518
0.0038896479
-0.62433202
0.004063243
-0.62630847
0.0042410227
-0.62837288
0.0044151923
-0.63051902
0.0045766025
-0.63273545
0.0047149473
-0.63500513
0.0048191469
-0.63730532
0.0048779134
-0.63960781
0.0048804989
-0.64187955
0.0048173292
-0.64408356
0.0046806224
-0.64617998
0.0044646529
-0.64812713
0.0041657201
-0.64988237
0.0037819668
-0.65140299
0.0033131615
-0.65264687
0.0027606379
-0.65357345
0.0021275289
-0.65414482
0.0014193839
-0.65432745
0.00064517482
-0.65409464
-0.00018150809
-0.65343054
-0.0010414131
-0.65233201
-0.0019094414
-0.65081
-0.0027550648
-0.64889254
-0.0035437457
-0.64662539
-0.0042406321
-0.64406996
-0.0048150364
-0.6412991
-0.005244534
-0.63839158
-0.0055175235
-0.63542626
-0.0056337086
-0.63247705
-0.005602686
-0.62960926
-0.005441326
-0.62687745
-0.005170727
-0.62432481
-0.0048133898
-0.62198366
-0.0043909922
-0.61987662
-0.0039228831
-0.61801828
-0.0034252532
-0.61641682
-0.0029109965
-0.61507556
-0.0023903555
-0.61399476
-0.0018712616
-0.6131739
-0.0013563646
-0.61260473
-0.00084459488
-0.00037357381
-0.61227819
0.0045549046
-0.61369207
0.0046118719
-0.61513079
0.0046987907
-0.6166093
0.0048229338
-0.61814091
0.0049825843
-0.61973742
0.0051756799
-0.62140916
0.0053983626
-0.6231646
0.0056450843
-0.62500974
0.0059083889
-0.62694748
0.0061787599
-0.62897682
0.0064445272
-0.63109213
0.0066919195
-0.63328252
0.0069053398
-0.63553131
0.0070679346
-0.63781587
0.007162468
-0.64010787
0.0071724979
-0.64237394
0.0070834018
-0.64457667
0.0068833578
-0.64667577
0.0065637498
-0.64862913
0.0061190769
-0.65039376
0.0055466019
-0.65192654
0.0048459376
-0.65318479
0.0040188902
-0.65412704
0.0030697801
-0.65471404
0.0020063817
-0.65491038
0.00084151294
-0.65468691
-0.0004049741
-0.65402358
-0.0017047477
-0.65291292
-0.0030200943
-0.6513639
-0.0043040929
-0.6494044
-0.0055032465
-0.64708188
-0.0065631503
-0.64446118
-0.0074357358
-0.64161971
-0.0080860025
-0.63864106
-0.0084961721
-0.6356084
-0.0086663672
-0.6325989
-0.0086121921
-0.6296798
-0.0083604181
-0.62690645
-0.0079440856
-0.62432178
-0.0073980572
-0.62195718
-0.0067555904
-0.61983398
-0.0060460865
-0.6179653
-0.0052939325
-0.61635794
-0.0045183509
-0.61501429
-0.0037340065
-0.6139345
-0.0029510574
-0.61311683
-0.0021740346
-0.61255277
-0.0014086501
-0.00068139469
-0.61263504
0.0059411279
-0.61402856
0.0060053858
-0.61544755
0.0061177881
-0.61690699
0.0062823678
-0.61842063
0.0064962237
-0.62000098
0.0067560323
-0.62165915
0.0070565344
-0.62340445
0.0073903835
-0.6252438
0.007747743
-0.62718105
0.008116001
-0.6292161
0.0084795844
-0.63134416
0.0088199757
-0.63355486
0.0091160421
-0.63583171
0.0093447852
-0.6381518
0.0094825561
-0.64048604
0.0095067406
-0.64279992
0.0093972808
-0.64505467
0.0091381021
-0.64720859
0.0087176756
-0.64921832
0.0081288094
-0.65103974
0.0073680157
-0.65262858
0.006434784
-0.65394093
0.005331232
-0.65493361
0.0040624653
-0.65556509
0.0026378552
-0.65579687
0.0010733024
-0.65559601
-0.00060583646
-0.65493838
-0.0023623835
-0.65381281
-0.0041456657
-0.65222568
-0.0058912175
-0.65020459
-0.0075243339
-0.64779961
-0.0089681318
-0.64508097
-0.010154374
-0.64213331
-0.011033662
-0.63904787
-0.011581619
-0.63591457
-0.011799668
-0.6328156
-0.011711162
-0.62982118
-0.011354832
-0.62698768
-0.010777585
-0.62435757
-0.010028171
-0.62196071
-0.0091524537
-0.61981635
-0.0081904454
-0.61793537
-0.0071749085
-0.61632247
-0.0061312527
-0.61497832
-0.005078158
-0.61390148
-0.0040278956
-0.61308836
-0.0029871581
-0.61253356
-0.0019634509
-0.00097000003
-0.61305955
0.0073003006
-0.61442984
0.007375675
-0.61582657
0.0075145221
-0.6172649
0.0077206925
-0.61875907
0.0079903996
-0.62032239
0.008319349
-0.6219669
0.0087010465
-0.62370301
0.0091264913
-0.62553885
0.0095835851
-0.62747954
0.010056687
-0.62952625
0.010526295
-0.63167526
0.010968987
-0.63391698
0.011357762
-0.63623515
0.011662961
-0.63860645
0.011853857
-0.64100069
0.011900976
-0.64338168
0.011778272
-0.64570871
0.011465134
-0.64793818
0.010947142
-0.65002501
0.010215638
-0.65192364
0.0092666463
-0.6535885
0.0080996482
-0.65497417
0.0067169006
-0.65603546
0.0051237582
-0.65672791
0.0033303023
-0.657009
0.0013543894
-0.65684061
-0.00077422895
-0.65619284
-0.0030101478
-0.65504894
-0.0052895627
-0.65341126
-0.0075289068
-0.65130654
-0.0096290457
-0.6487884
-0.011486275
-0.64593479
-0.013007989
-0.64284077
-0.01412768
-0.63960857
-0.014813817
-0.6363377
-0.015070543
-0.63311725
-0.014931604
-0.63002137
-0.014450717
-0.62710755
-0.013691407
-0.6244173
-0.01271842
-0.62197816
-0.011591591
-0.61980638
-0.010362229
-0.61790966
-0.009071621
-0.61628982
-0.0077510989
-0.61494508
-0.0064228978
-0.61387184
-0.0051011282
-0.61306518
-0.0037938228
-0.61252118
-0.0025074556
-0.0012463754
-0.61359675
0.0086272363
-0.61493738
0.0087163032
-0.61630581
0.0088829556
-0.61771736
0.0091322394
-0.61918686
0.0094598952
-0.62072849
0.0098609803
-0.62235545
0.010328009
-0.62407951
0.010850546
-0.62591034
0.011414419
-0.62785473
0.012001075
-0.62991552
0.012587085
-0.63209048
0.013143947
-0.6343711
0.013638383
-0.63674153
0.014033391
-0.63917794
0.014290265
-0.64164866
0.0143717
-0.64411527
0.014244882
-0.64653443
0.013884293
-0.64885999
0.0132727
-0.65104473
0.012400378
-0.6530414
0.011263316
-0.65480298
0.0098612298
-0.65628242
0.0081963453
-0.65743224
0.0062735712
-0.65820441
0.0041024789
-0.65855131
0.0017012828
-0.65842804
-0.00089749965
-0.65779686
-0.0036413257
-0.65663305
-0.0064533684
-0.65493286
-0.009229102
-0.65272129
-0.011840613
-0.6500564
-0.014151161
-0.64702677
-0.016037628
-0.64374196
-0.017412488
-0.64031937
-0.018236408
-0.63687144
-0.018518471
-0.63349633
-0.018306718
-0.6302729
-0.017674139
-0.62725968
-0.016704632
-0.62449639
-0.015481704
-0.62200713
-0.01408086
-0.61980386
-0.01256549
-0.61788999
-0.010985495
-0.61626333
-0.0093777603
-0.6149187
-0.0077675299
-0.61384965
-0.0061701787
-0.61304957
-0.0045939
-0.61251419
-0.0030428318
-0.0015156186
-0.61424977
0.0099181935
-0.6155548
0.010021332
-0.61688854
0.01021669
-0.61826699
0.010510692
-0.61970578
0.010898687
-0.62122016
0.011375359
-0.62282467
0.011932521
-0.62453272
0.012558598
-0.62635591
0.01323761
-0.62830313
0.01394829
-0.63037937
0.014663331
-0.63258441
0.015348979
-0.63491122
0.015965199
-0.63734462
0.016466789
-0.63986021
0.016805851
-0.64242442
0.016935911
-0.64499583
0.016816296
-0.64752762
0.016416087
-0.64997036
0.015715431
-0.65227418
0.014704207
-0.65438999
0.013379126
-0.65626936
0.011740599
-0.65786372
0.0097907052
-0.6591232
0.0075330492
-0.6599958
0.0049750758
-0.66042766
0.0021331445
-0.6603653
-0.00095985876
-0.65976053
-0.0042460966
-0.65857751
-0.0076363859
-0.65680337
-0.011003243
-0.65445971
-0.014184278
-0.65160994
-0.017000931
-0.64835692
-0.019290645
-0.64483013
-0.020939283
-0.64116749
-0.021899045
-0.63749853
-0.022187427
-0.63393282
-0.021872435
-0.63055467
-0.021052281
-0.6274231
-0.019836209
-0.62457485
-0.018329953
-0.62202904
-0.016626665
-0.61979195
-0.014802581
-0.6178613
-0.012916143
-0.61622985
-0.011009216
-0.61488808
-0.0091093007
-0.61382606
-0.0072321902
-0.61303484
-0.0053851226
-0.61250836
-0.0035693099
-0.0017790326
-0.61501305
0.011164732
-0.61627522
0.011283509
-0.61756747
0.011508939
-0.61890622
0.011849444
-0.62030794
0.012300404
-0.62178906
0.012856478
-0.62336569
0.013509146
-0.62505317
0.014246079
-0.62686542
0.015049864
-0.62881394
0.015896812
-0.63090648
0.016755871
-0.6331454
0.017587902
-0.63552579
0.018345582
-0.63803345
0.01897445
-0.64064342
0.019415821
-0.64331971
0.019612199
-0.64601693
0.019513522
-0.64868365
0.0190828
-0.65126616
0.018297946
-0.65371149
0.017149531
-0.65596857
0.015636213
-0.65798787
0.013759899
-0.65971969
0.011522521
-0.661112
0.0089253625
-0.66210858
0.0059716502
-0.66264833
0.0026728959
-0.6626671
-0.00094108196
-0.66210311
-0.0048100882
-0.66090525
-0.0088342522
-0.65904714
-0.012861351
-0.65654413
-0.016687285
-0.65346575
-0.020079309
-0.64993403
-0.02282237
-0.6461056
-0.024767712
-0.64214608
-0.025858564
-0.63820723
-0.026126278
-0.63441258
-0.025667078
-0.63085229
-0.024612577
-0.62758468
-0.02310382
-0.62464165
-0.021272979
-0.62203532
-0.019233001
-0.61976432
-0.017073578
-0.61781917
-0.014861295
-0.6161863
-0.012642081
-0.61485101
-0.010444595
-0.6137993
-0.0082838965
-0.6130193
-0.0061651278
-0.61250256
-0.0040860431
-0.0020367971
-0.61588766
0.012363451
-0.617101
0.012496851
-0.61834487
0.012752814
-0.61963684
0.013141407
-0.62099439
0.013657961
-0.62243532
0.01429741
-0.6239775
0.015051321
-0.62563852
0.015907102
-0.62743507
0.016846408
-0.62938182
0.017843564
-0.63148998
0.018864036
-0.63376533
0.019863247
-0.63620579
0.020786043
-0.63879878
0.021567446
-0.64151886
0.022135895
-0.64432697
0.022420311
-0.64717249
0.022359044
-0.64999782
0.021908128
-0.65274378
0.021043901
-0.65535362
0.019759379
-0.65777449
0.018057081
-0.6599563
0.015941709
-0.66184904
0.013415257
-0.66339921
0.010475532
-0.66454644
0.0071188802
-0.66522153
0.0033479914
-0.66534741
-0.00081520606
-0.66484476
-0.0053127401
-0.66364168
-0.010037326
-0.66169198
-0.014811057
-0.65899996
-0.019379302
-0.65564158
-0.02343769
-0.65176464
-0.02669931
-0.64756317
-0.02896918
-0.64324014
-0.030181594
-0.63897605
-0.030390373
-0.63491115
-0.029731971
-0.63114115
-0.028382577
-0.62772169
-0.026523282
-0.62467706
-0.024317606
-0.62200963
-0.021900438
-0.61970806
-0.019375141
-0.61775381
-0.016815545
-0.61612565
-0.01427024
-0.61480272
-0.011767526
-0.61376636
-0.0093202593
-0.61300126
-0.006930229
-0.61249631
-0.004590995
-0.0022881541
-0.61686698
0.01350243
-0.61802276
0.013652626
-0.61921051
0.013940564
-0.62044803
0.01437893
-0.62175376
0.01496369
-0.62314688
0.015690529
-0.6246472
0.016551637
-0.62627487
0.01753478
-0.62804982
0.018621354
-0.62999058
0.019784326
-0.63211267
0.020986121
-0.63442624
0.02217682
-0.63693315
0.023292956
-0.63962329
0.024257584
-0.64247097
0.024983576
-0.64543333
0.025382672
-0.64845273
0.025378446
-0.65146325
0.024918646
-0.65439849
0.023979143
-0.65719726
0.022558147
-0.65980518
0.020665002
-0.66217271
0.018309233
-0.66425089
0.015493437
-0.66598604
0.012210688
-0.66731431
0.0084471423
-0.66815777
0.0041914542
-0.66842408
-0.00054888908
-0.66801169
-0.0057251375
-0.66682074
-0.011228277
-0.66477603
-0.016855762
-0.66186298
-0.022292353
-0.65816322
-0.027137447
-0.65385951
-0.031003026
-0.64919798
-0.033630709
-0.64443229
-0.034947281
-0.63977992
-0.035042741
-0.63540051
-0.034111382
-0.63139395
-0.03238914
-0.62780978
-0.030107454
-0.62466072
-0.027466659
-0.62193579
-0.024625368
-0.61961083
-0.021700105
-0.61765612
-0.018770259
-0.61604135
-0.015885001
-0.61473866
-0.013070223
-0.61372415
-0.01033477
-0.61297875
-0.0076756298
-0.61248854
-0.0050812032
-0.002531742
-0.61795002
0.014580953
-0.61904273
0.014745335
-0.62016711
0.015064949
-0.62134241
0.015554223
-0.62258816
0.016209449
-0.62392506
0.017027424
-0.62537499
0.018001565
-0.62696096
0.019120756
-0.62870662
0.020367008
-0.6306351
0.021712807
-0.63276723
0.02311825
-0.63511882
0.024528416
-0.63769707
0.025871199
-0.64049563
0.027056149
-0.64348919
0.027977134
-0.64663019
0.028523667
-0.64985155
0.028599813
-0.65307598
0.028143077
-0.65622751
0.027130664
-0.65923963
0.025570273
-0.66205721
0.02348258
-0.66463293
0.020884952
-0.66692106
0.017781569
-0.66886986
0.014159489
-0.67041337
0.0099906483
-0.67146476
0.0052428505
-0.67191438
-9.9269163e-05
-0.67163253
-0.0060069891
-0.67048226
-0.012378548
-0.66834638
-0.018991638
-0.66517839
-0.025460352
-0.66106262
-0.031253208
-0.65622977
-0.035835885
-0.65099993
-0.03886055
-0.64569619
-0.040251014
-0.6405834
-0.040155537
-0.63584262
-0.038852163
-0.63157473
-0.036657021
-0.62781774
-0.033864446
-0.62456722
-0.030717182
-0.62179413
-0.027398454
-0.61945803
-0.024036211
-0.6175157
-0.020712587
-0.61592635
-0.017474351
-0.61465426
-0.014342316
-0.61366992
-0.011319105
-0.61295032
-0.0083952336
-0.61247874
-0.0055527786
-0.002765685
-0.61913345
0.015582079
-0.62015223
0.015764115
-0.62120418
0.016116893
-0.62230816
0.016658209
-0.62348449
0.017385777
-0.62475523
0.018298166
-0.62614445
0.01939078
-0.62767827
0.020654574
-0.62938456
0.0220733
-0.63129193
0.023620176
-0.63342773
0.025254052
-0.63581502
0.02691571
-0.63846825
0.028524427
-0.64138687
0.029974772
-0.64454709
0.03113735
-0.64789572
0.031872298
-0.65135287
0.032056962
-0.65482533
0.031615535
-0.65822402
0.030529358
-0.66147604
0.028822296
-0.66452662
0.026533159
-0.66733318
0.023691512
-0.66985628
0.020304664
-0.67204931
0.016352524
-0.67384685
0.011788183
-0.67515372
0.0065497251
-0.67583971
0.00058671649
-0.67574209
-0.0061046091
-0.67467691
-0.013443721
-0.67246558
-0.021202974
-0.66900821
-0.028917723
-0.66438413
-0.035877281
-0.65889056
-0.041329464
-0.65295507
-0.044796036
-0.64699685
-0.04620923
-0.64134097
-0.045811421
-0.63619037
-0.044002763
-0.63164061
-0.041206776
-0.62770973
-0.037795331
-0.62436841
-0.034058499
-0.62156367
-0.030203201
-0.6192347
-0.026365176
-0.61732237
-0.022624914
-0.61577404
-0.019022685
-0.61454554
-0.015570816
-0.61360155
-0.01226309
-0.61291513
-0.0090816595
-0.61246693
-0.006000977
-0.0029876652
-0.62040713
0.016509547
-0.62134759
0.016704574
-0.6223198
0.017089103
-0.62334422
0.017682633
-0.6244421
0.018483657
-0.62563687
0.019492938
-0.62695477
0.020708679
-0.62842522
0.022125025
-0.6300808
0.02372888
-0.63195645
0.025495819
-0.63408742
0.027385025
-0.63650592
0.029334209
-0.63923611
0.031254614
-0.6422861
0.033024771
-0.64563572
0.034486968
-0.64922524
0.035461817
-0.65295708
0.035788801
-0.65671538
0.035373831
-0.66039283
0.034206813
-0.66390884
0.032338302
-0.66721126
0.029835577
-0.67026626
0.026746518
-0.67304524
0.023083641
-0.67551154
0.018818823
-0.67760457
0.013881219
-0.67922289
0.0081680461
-0.68021416
0.0015779806
-0.68037587
-0.0059429011
-0.67946347
-0.014356115
-0.67721205
-0.023454401
-0.6734338
-0.032695974
-0.66818552
-0.041125561
-0.66185779
-0.047657193
-0.65503901
-0.05161481
-0.64828273
-0.052965516
-0.64198968
-0.05210447
-0.63638149
-0.049610949
-0.63153701
-0.046051255
-0.62744163
-0.041890718
-0.62403069
-0.037469439
-0.62121991
-0.033013982
-0.61892366
-0.028661418
-0.61706445
-0.024484124
-0.61557672
-0.020510416
-0.61440759
-0.016739953
-0.61351602
-0.01315466
-0.6128714
-0.0097262731
-0.61245211
-0.0064202681
-0.0031949765
-0.62177481
0.017340369
-0.62262375
0.017553514
-0.62350581
0.017971161
-0.62444006
0.018616887
-0.62544792
0.019491512
-0.62655382
0.020598841
-0.62778603
0.021940891
-0.62917734
0.023516329
-0.63076543
0.025316969
-0.63259251
0.027322902
-0.6347034
0.029495917
-0.63714182
0.031772625
-0.63994494
0.034057734
-0.6431339
0.036213735
-0.64669609
0.038049159
-0.65056508
0.039330805
-0.65461897
0.039842695
-0.65870923
0.039464087
-0.66270271
0.038200293
-0.66650943
0.036145025
-0.67008343
0.033409573
-0.67340507
0.030068164
-0.67646206
0.02614063
-0.67923361
0.021590373
-0.68167022
0.016317828
-0.6836682
0.010166022
-0.68505236
0.00296214
-0.68557396
-0.0054212952
-0.68491429
-0.015015792
-0.68268961
-0.025679073
-0.67856897
-0.036816616
-0.67254905
-0.047145481
-0.66515199
-0.055054248
-0.6572155
-0.059551305
-0.64948254
-0.060698474
-0.64244688
-0.059140131
-0.6363382
-0.055719631
-0.63119907
-0.051190381
-0.6269636
-0.046126187
-0.62351802
-0.040915022
-0.62073807
-0.035793928
-0.61850861
-0.030890876
-0.6167317
-0.026261038
-0.61532832
-0.021913797
-0.61423708
-0.017831189
-0.61341178
-0.013979961
-0.61281874
-0.010319311
-0.61243456
-0.0068044482
-0.0033845909
-0.62320313
0.018083519
-0.62395745
0.018307833
-0.62474206
0.01875577
-0.62557744
0.019452272
-0.62648535
0.020399421
-0.62749105
0.021604539
-0.62862463
0.023074472
-0.62992221
0.024813907
-0.63142689
0.026821648
-0.63318906
0.029085072
-0.63526488
0.031571739
-0.63771234
0.034220088
-0.64058561
0.036931003
-0.64392477
0.039552894
-0.6477313
0.041855692
-0.65193291
0.04353241
-0.65637338
0.044283168
-0.66085527
0.043945972
-0.6652072
0.042552229
-0.66932731
0.040265133
-0.67318184
0.037264102
-0.67677399
0.033660315
-0.68011574
0.029482375
-0.68321106
0.024685693
-0.68603234
0.019139113
-0.68848221
0.01261589
-0.69036394
0.0048438724
-0.69137637
-0.0044088698
-0.69111302
-0.015279138
-0.68903171
-0.027760389
-0.68457152
-0.041276799
-0.6775911
-0.054125905
-0.66879548
-0.063849866
-0.65942571
-0.06892108
-0.6504928
-0.069631377
-0.64260014
-0.06703279
-0.63596041
-0.062359363
-0.63054756
-0.056603236
-0.62621768
-0.050456064
-0.62279036
-0.044342342
-0.62009171
-0.038492582
-0.6179727
-0.033009889
-0.6163137
-0.027920033
-0.61502257
-0.023204928
-0.61403036
-0.018823402
-0.61328674
-0.014723575
-0.61275596
-0.010850093
-0.6124136
-0.007146803
-0.0035532452
-0.62472698
0.018710145
-0.62537217
0.018953023
-0.62604886
0.019432459
-0.62677461
0.020178018
-0.62757019
0.021195001
-0.62846088
0.022495236
-0.629478
0.02409159
-0.63066052
0.025996429
-0.63205683
0.028217949
-0.63372604
0.030754282
-0.63573744
0.033583143
-0.63816647
0.036649115
-0.64108905
0.039853584
-0.64457242
0.043036269
-0.64864364
0.045926912
-0.65322933
0.048118098
-0.65812587
0.049179705
-0.66306271
0.048882813
-0.66781262
0.047302139
-0.6722603
0.044712809
-0.67639614
0.041399942
-0.68025985
0.037524025
-0.68389687
0.0331194
-0.68734454
0.028133359
-0.69060957
0.022404143
-0.69361165
0.015617977
-0.69613397
0.0073661846
-0.6978165
-0.0027263341
-0.69815465
-0.014940991
-0.69641077
-0.029504265
-0.6916666
-0.046020969
-0.68348561
-0.062306898
-0.67281356
-0.074521917
-0.66157727
-0.080157367
-0.65116511
-0.080043539
-0.64229921
-0.075898686
-0.63512297
-0.069535602
-0.62948971
-0.062236496
-0.62514044
-0.054805343
-0.62180692
-0.047675854
-0.61925589
-0.041043615
-0.61730138
-0.034964402
-0.61580237
-0.029419042
-0.6146552
-0.024352099
-0.61378527
-0.019693327
-0.61313991
-0.015368938
-0.61268265
-0.011307356
-0.61238911
-0.0074403369
-0.0036975577
-0.62625579
0.019233978
-0.62678961
0.019486843
-0.62735054
0.01999339
-0.62795667
0.020784147
-0.62862784
0.021866175
-0.62938892
0.023256307
-0.63027191
0.024974585
-0.63131832
0.02704284
-0.63258172
0.029481348
-0.63413064
0.032303198
-0.63604969
0.035502199
-0.63843585
0.039035275
-0.64139265
0.042810381
-0.64502511
0.046668732
-0.64940451
0.05030631
-0.65446835
0.053181943
-0.65994635
0.054657704
-0.66545363
0.054390086
-0.67067616
0.052524672
-0.67548002
0.049516669
-0.67989679
0.04581671
-0.68402062
0.041647863
-0.68793869
0.037037467
-0.69172957
0.031924238
-0.69545518
0.026129748
-0.69907777
0.019240573
-0.70237468
0.010663094
-0.70493049
-0.00017052643
-0.70613763
-0.013733846
-0.70504008
-0.03060182
-0.70017658
-0.050884466
-0.69050278
-0.071980698
-0.67723141
-0.08779329
-0.66352219
-0.093866587
-0.6512839
-0.092281831
-0.641343
-0.085839582
-0.63367108
-0.077207526
-0.62791967
-0.0679879
-0.62366546
-0.059059557
-0.62052898
-0.05081233
-0.61820962
-0.043362983
-0.61648421
-0.036689812
-0.61519312
-0.030710126
-0.61422464
-0.025320582
-0.61350167
-0.020416299
-0.61297165
-0.01589895
-0.6125993
-0.011679707
-0.61236157
-0.0076780718
-0.0038141756
-0.62788236
0.019620843
-0.62829041
0.019894896
-0.62872678
0.020429758
-0.62920452
0.021261891
-0.6297408
0.022402448
-0.63035883
0.023874341
-0.63109018
0.025705933
-0.63197753
0.027930191
-0.63307826
0.030582078
-0.63446926
0.033694198
-0.63625111
0.037284052
-0.63854566
0.041329824
-0.64148923
0.045753947
-0.64523561
0.050415118
-0.64992846
0.054999157
-0.65554386
0.058797343
-0.66172017
0.060834015
-0.66789168
0.060561594
-0.6736124
0.058245393
-0.6787278
0.054632071
-0.68334888
0.050437789
-0.68766181
0.045960788
-0.69181164
0.041187302
-0.69592752
0.036040116
-0.70015808
0.030360309
-0.70454444
0.023626929
-0.70886986
0.014988519
-0.71262561
0.0035852255
-0.71509989
-0.011259573
-0.71514604
-0.030555667
-0.71054267
-0.055487833
-0.69906494
-0.083458433
-0.68205629
-0.10480194
-0.66501591
-0.11090697
-0.65053152
-0.10676621
-0.63946197
-0.096909135
-0.63141565
-0.085253847
-0.62572015
-0.073683402
-0.62172683
-0.063052873
-0.61892295
-0.053616215
-0.61693777
-0.04534816
-0.6155157
-0.038111881
-0.61448494
-0.031740886
-0.61373153
-0.026073987
-0.61318045
-0.020967384
-0.61278258
-0.016296821
-0.61250607
-0.011956213
-0.61233073
-0.0078534158
-0.0038999548
-0.62933602
0.019882723
-0.62961495
0.020173831
-0.62991715
0.020731954
-0.63025356
0.021598304
-0.630638
0.022786883
-0.63109084
0.024327187
-0.63164172
0.026256813
-0.63233301
0.028621475
-0.63322447
0.031473538
-0.63440043
0.034870157
-0.63597881
0.038862434
-0.6381125
0.043463519
-0.64097957
0.048621017
-0.64479592
0.054231461
-0.649821
0.060024245
-0.65613236
0.065108698
-0.6632499
0.067951557
-0.67030966
0.067621357
-0.67665926
0.064594989
-0.68211423
0.060087041
-0.68692668
0.055250243
-0.69142572
0.050459823
-0.69581679
0.045578375
-0.70025356
0.040476887
-0.70499403
0.035100773
-0.71020143
0.028834335
-0.71569654
0.020483625
-0.72088194
0.008770626
-0.72496912
-0.0071723928
-0.72679968
-0.028725106
-0.72323182
-0.059055697
-0.70979736
-0.096892887
-0.68723407
-0.12736523
-0.66565423
-0.13248681
-0.64844077
-0.12397967
-0.63630035
-0.10904956
-0.62813508
-0.093419115
-0.62277143
-0.079047052
-0.61926874
-0.06655556
-0.61696815
-0.055916806
-0.61543681
-0.046879502
-0.61439936
-0.039149336
-0.61368323
-0.03245701
-0.61318089
-0.026576328
-0.61282538
-0.021322892
-0.61257507
-0.016547131
-0.61240418
-0.012127102
-0.61229701
-0.0079605912
-0.0039521638
-0.63049031
0.019981387
-0.63061986
0.020303381
-0.63077086
0.020882955
-0.63094767
0.021775109
-0.63115929
0.022998504
-0.63142227
0.024590172
-0.63176308
0.026597614
-0.63222207
0.029080469
-0.63285909
0.032110562
-0.63376253
0.03577359
-0.63506446
0.04016437
-0.63695063
0.045349689
-0.63964602
0.051316406
-0.64343021
0.058015653
-0.64872255
0.065316584
-0.65582178
0.072207929
-0.66410932
0.076239099
-0.67220494
0.075716968
-0.67914523
0.071535287
-0.68470219
0.065643993
-0.68939229
0.059940344
-0.6937779
0.05484543
-0.69813754
0.049938021
-0.70260014
0.044939488
-0.70761198
0.040112607
-0.71359367
0.034816026
-0.72050255
0.02739251
-0.72773208
0.016000154
-0.73427934
-0.00062512839
-0.73920322
-0.023801231
-0.73833182
-0.059927096
-0.72349556
-0.11172915
-0.69248316
-0.15837762
-0.66469654
-0.16027343
-0.64430094
-0.14437527
-0.63139129
-0.1219592
-0.62358301
-0.1012274
-0.61896662
-0.083663442
-0.6162585
-0.069263682
-0.61466562
-0.057509684
-0.61371995
-0.04782517
-0.61315047
-0.039718819
-0.61280129
-0.03280619
-0.61258279
-0.026794827
-0.61244339
-0.021462292
-0.61235344
-0.01663708
-0.61229599
-0.012184553
-0.61226149
-0.0079950951
-0.0039687006
-0.63007851
0.01988018
-0.63002798
0.020252843
-0.62999535
0.020850331
-0.62997628
0.02175604
-0.6299728
0.02299502
-0.62999483
0.024612203
-0.63006166
0.026664448
-0.63020625
0.029225052
-0.63048156
0.032385879
-0.63097116
0.036263185
-0.63181146
0.041004667
-0.63321971
0.046757939
-0.63548199
0.053578693
-0.63894668
0.061480344
-0.64423993
0.07060983
-0.65213531
0.080103309
-0.6619478
0.086051586
-0.67134995
0.085119125
-0.67893521
0.079120538
-0.68436567
0.071074455
-0.68865619
0.064230864
-0.69275103
0.058940273
-0.69705128
0.054238268
-0.70151394
0.049402155
-0.70683804
0.045436698
-0.71385879
0.041836779
-0.72259606
0.036129777
-0.73261909
0.026023189
-0.74190451
0.0086602874
-0.75052993
-0.015175808
-0.75421879
-0.056238232
-0.74047673
-0.12547121
-0.6964206
-0.20243375
-0.66055575
-0.19613829
-0.63703498
-0.16789603
-0.62415363
-0.13484055
-0.617517
-0.10786403
-0.61423903
-0.086941412
-0.61270459
-0.070798121
-0.61204776
-0.058166518
-0.61182143
-0.048051501
-0.61179737
-0.039742872
-0.61186
-0.032743562
-0.61195141
-0.026703417
-0.61204331
-0.02137039
-0.61212256
-0.016557833
-0.61218362
-0.012123497
-0.61222455
-0.0079541567
-0.0039483046
-0.62618382
0.019548783
-0.62589615
0.019965177
-0.62560433
0.020558512
-0.62530178
0.021453484
-0.62498319
0.022676429
-0.62464984
0.024278857
-0.6243106
0.026325211
-0.62398681
0.02890126
-0.62372003
0.032119094
-0.62358366
0.036126821
-0.62371023
0.041131233
-0.6243451
0.047392807
-0.62585808
0.055091683
-0.62866644
0.064288701
-0.63355935
0.07550274
-0.64216243
0.088706384
-0.65403769
0.097926854
-0.66487401
0.095955447
-0.67275725
0.087003775
-0.67707093
0.075388133
-0.67991049
0.067070428
-0.68282201
0.061851787
-0.68642887
0.057845133
-0.69004509
0.053018374
-0.69450593
0.04989754
-0.70161399
0.048944833
-0.71115684
0.045672632
-0.72409854
0.038964886
-0.73556628
0.020128028
-0.74986071
-0.0008813817
-0.76244944
-0.043649502
-0.75916573
-0.12875491
-0.69459063
-0.26700885
-0.65073435
-0.23999458
-0.62530398
-0.1933264
-0.61396271
-0.14618183
-0.60976315
-0.11206359
-0.60860983
-0.088094737
-0.60868416
-0.070723791
-0.60919204
-0.057658635
-0.60980281
-0.047440732
-0.61038441
-0.039161267
-0.6108895
-0.032238474
-0.61130626
-0.02628666
-0.61163706
-0.021039593
-0.61188908
-0.01630581
-0.61207022
-0.011942361
-0.61218723
-0.0078371392
-0.0038907386
-0.61276648
0.018729616
-0.61203621
0.019234909
-0.61128976
0.019812061
-0.61050027
0.020663988
-0.60965001
0.021826175
-0.60872694
0.023355787
-0.60772275
0.025321023
-0.60663681
0.02781532
-0.60548362
0.0309659
-0.60430259
0.034945792
-0.60318059
0.040009228
-0.60232603
0.046538254
-0.60215346
0.054919112
-0.60313627
0.065271504
-0.6060127
0.078379177
-0.61372654
0.096420223
-0.62752722
0.11172753
-0.63868995
0.10711818
-0.64545646
0.093770287
-0.64634408
0.076275753
-0.64573637
0.066462717
-0.64567326
0.061788681
-0.64728017
0.059452038
-0.64831172
0.054049925
-0.64944495
0.051030774
-0.65616984
0.055669721
-0.66607509
0.05557788
-0.68384058
0.056730371
-0.69888822
0.035175672
-0.72786019
0.028090593
-0.75027198
-0.021237712
-0.77323454
-0.10579235
-0.67715863
-0.36308477
-0.63076771
-0.28638549
-0.60622334
-0.21787077
-0.59992086
-0.1524843
-0.60026619
-0.11171825
-0.60224903
-0.086111905
-0.60437342
-0.068599398
-0.60623188
-0.055800177
-0.60775545
-0.045917156
-0.60897156
-0.03794516
-0.60992819
-0.031281842
-0.61067129
-0.025543557
-0.611239
-0.020471888
-0.61166107
-0.015883737
-0.61195982
-0.011643617
-0.61215113
-0.0076458269
-0.0037969165
-0.58477961
0.017486162
-0.58351022
0.017965516
-0.58214158
0.018443423
-0.58066947
0.019191877
-0.57906766
0.020224369
-0.57730529
0.021593412
-0.57534571
0.02336145
-0.5731491
0.025618703
-0.57067785
0.02849465
-0.56790478
0.032172726
-0.5648286
0.036933049
-0.56155659
0.043266247
-0.55853276
0.051895282
-0.55652771
0.063266454
-0.55614869
0.078000155
-0.56153151
0.10180305
-0.58049243
0.13068844
-0.59265627
0.11928202
-0.59890975
0.10002377
-0.5940521
0.071418105
-0.58776377
0.060174381
-0.5824427
0.056467615
-0.5815754
0.058584738
-0.57952809
0.052002618
-0.5738761
0.045378779
-0.58519458
0.032529471
-0.59561956
0.037438912
-0.60467974
0.040313181
-0.60342484
0.020480286
-0.63525091
0.039878379
-0.71434571
0.019774528
-0.66918686
-0.054713833
-0.60685831
-0.22710711
-0.57379935
-0.31944445
-0.57150802
-0.2201621
-0.58113688
-0.14285545
-0.58945237
-0.10340276
-0.59561862
-0.07994565
-0.60008654
-0.064131486
-0.60336088
-0.052525835
-0.60579623
-0.0434818
-0.60762935
-0.036112047
-0.60901858
-0.029892608
-0.61007177
-0.024490369
-0.61086356
-0.019680099
-0.61144608
-0.015301215
-0.61185565
-0.011234043
-0.61211694
-0.0073845416
-0.0036689507
-0.52686988
0.015076166
-0.52437313
0.015468773
-0.52172079
0.015791086
-0.51887065
0.016341732
-0.51576843
0.01712215
-0.51234633
0.018171308
-0.50851866
0.01953378
-0.50418028
0.021280326
-0.49920698
0.023521346
-0.49346083
0.026426575
-0.48679873
0.030270955
-0.47911617
0.03558369
-0.47060913
0.043388241
-0.46224562
0.054902947
-0.45437854
0.07013307
-0.44762949
0.095054001
-0.47080965
0.15386859
-0.47005084
0.11852321
-0.46091525
0.090888184
-0.42709508
0.037597936
-0.39543635
0.028515648
-0.36804227
0.029073534
-0.30348959
0.020770486
-0.16299987
0.013454952
-0.041147134
0.0077710079
0
0
0
0
0
0
0
0
0
0