/*--------------------------------*- C++ -*----------------------------------*\
| =========                 |                                                 |
| \\      /  F ield         | foam-extend: Open Source CFD                    |
|  \\    /   O peration     | Version:     4.1                                |
|   \\  /    A nd           | Web:         http://www.foam-extend.org         |
|    \\/     M anipulation  |                                                 |
\*---------------------------------------------------------------------------*/
FoamFile
{
    version     2.0;
    format      ascii;
    class       volScalarField;
    location    "1.05";
    object      rAU;
}
// * * * * * * * * * * * * * * * * * * * * * * * * * * * * * * * * * * * * * //

dimensions      [0 0 1 0 0 0 0];

internalField   nonuniform List<scalar> 
4393
(
0.00022728767
0.00022690214
0.00022652541
0.00022614199
0.0002257499
0.00022534783
0.00022493358
0.00022450612
0.0002240648
0.00022360967
0.00022314155
0.00022266221
0.00022217441
0.00022168195
0.0002211894
0.00022070306
0.00022022878
0.00021977344
0.00021934441
0.00021894881
0.00021859373
0.00021828607
0.00021803243
0.00021783906
0.00021771168
0.00021765539
0.00021765539
0.00021767417
0.00021777078
0.00021794589
0.00021819742
0.00021852037
0.00021890669
0.00021934563
0.00021982432
0.00022032869
0.00022084441
0.00022135779
0.00022185649
0.00022232996
0.00022276962
0.00022316891
0.00022352306
0.00022382891
0.00022408458
0.00022428928
0.00022444324
0.00022454719
0.00022458652
0.00022415478
0.00022382365
0.00022350846
0.0002231854
0.00022285187
0.00022250636
0.00022214683
0.00022177261
0.00022138351
0.00022098015
0.00022056405
0.00022013778
0.00021970498
0.00021927037
0.00021883947
0.00021841941
0.00021801675
0.00021763888
0.00021729347
0.00021698771
0.00021672866
0.00021652304
0.00021637727
0.00021629734
0.00021628864
0.00021635579
0.00021639287
0.00021638783
0.00021645948
0.00021661108
0.00021684377
0.00021715585
0.0002175422
0.00021799423
0.0002185003
0.00021904657
0.00021961802
0.00022019968
0.00022077747
0.00022133895
0.00022187369
0.00022237337
0.00022283175
0.00022324437
0.00022360827
0.00022392151
0.00022418335
0.00022439565
0.0002245456
0.00022363394
0.00022331599
0.00022300774
0.00022268919
0.00022235774
0.00022201207
0.00022165034
0.00022127222
0.00022087794
0.00022046865
0.00022004655
0.00021961499
0.0002191785
0.0002187428
0.00021831441
0.00021790145
0.00021751129
0.00021715196
0.00021683149
0.00021655724
0.00021633624
0.0002161751
0.00021608007
0.00021605695
0.00021611096
0.00021624638
0.0002162146
0.00021613128
0.00021612579
0.0002162044
0.00021637147
0.00021662838
0.00021697247
0.00021739673
0.00021788991
0.00021843753
0.00021902317
0.00021962989
0.00022024148
0.0002208434
0.00022142331
0.00022197128
0.00022247978
0.00022294341
0.00022335845
0.00022372252
0.00022403462
0.00022429536
0.00022448496
0.00022326306
0.00022295151
0.00022264416
0.00022232352
0.00022198726
0.00022163427
0.00022126291
0.00022087308
0.00022046539
0.00022004146
0.00021960411
0.00021915746
0.00021870697
0.00021825945
0.00021782256
0.00021740558
0.00021701694
0.00021666548
0.00021635977
0.00021610746
0.00021591564
0.00021579088
0.00021573937
0.00021576691
0.00021587873
0.00021607909
0.00021598218
0.00021581745
0.00021573239
0.00021573657
0.00021583795
0.00021604131
0.00021634661
0.00021674819
0.00021723481
0.0002177908
0.00021839769
0.0002190361
0.00021968729
0.0002203344
0.00022096311
0.00022156195
0.00022212221
0.00022263769
0.00022310416
0.00022351908
0.00022388129
0.00022419044
0.00022442825
0.00022288487
0.00022257831
0.00022227216
0.00022194961
0.00022160855
0.00022124801
0.00022086649
0.00022046409
0.00022004171
0.00021960137
0.00021914646
0.00021868185
0.00021821398
0.00021775076
0.00021730119
0.00021687585
0.0002164844
0.00021613666
0.00021584184
0.00021560786
0.00021544187
0.00021535038
0.00021533954
0.00021541523
0.00021558292
0.0002158472
0.00021569422
0.00021544423
0.00021527612
0.00021520322
0.00021523772
0.00021538833
0.00021565793
0.00021604214
0.00021652924
0.00021710166
0.00021773814
0.00021841618
0.00021911404
0.00021981227
0.00022049449
0.0002211477
0.00022176218
0.00022233108
0.00022284992
0.00022331614
0.00022372843
0.00022408642
0.00022437404
0.00022248992
0.00022218887
0.0002218849
0.00022156134
0.00022121619
0.00022084854
0.00022045699
0.00022004174
0.00021960389
0.0002191458
0.00021867136
0.00021818616
0.00021769759
0.00021721482
0.0002167483
0.00021631016
0.00021591153
0.00021556338
0.00021527562
0.00021505648
0.00021491306
0.00021485175
0.00021487865
0.00021499985
0.0002152213
0.00021554832
0.00021535204
0.00021501167
0.00021475546
0.00021460113
0.00021456591
0.00021466334
0.00021489972
0.0002152719
0.00021576715
0.00021636506
0.00021704061
0.00021776731
0.00021851984
0.0002192758
0.00022001666
0.00022072797
0.00022139918
0.00022202307
0.00022259516
0.00022311309
0.00022357572
0.00022398325
0.00022432131
0.00022207869
0.00022178375
0.00022148294
0.00022115931
0.00022081084
0.00022043661
0.00022003519
0.00021960682
0.0002191527
0.00021867541
0.00021817927
0.00021767053
0.00021715757
0.00021665089
0.00021616261
0.00021570674
0.00021529617
0.00021494326
0.00021465871
0.00021445098
0.000214327
0.00021429288
0.00021435461
0.00021451856
0.00021479143
0.00021517978
0.00021495749
0.00021452032
0.00021416922
0.00021392713
0.00021381749
0.00021385993
0.00021406504
0.00021443098
0.00021494317
0.00021557722
0.00021630298
0.00021708895
0.00021790544
0.00021872674
0.00021953205
0.0002203056
0.0002210362
0.00022171658
0.00022234252
0.00022291216
0.00022342485
0.00022388173
0.00022426979
0.00022165318
0.00022136569
0.00022106917
0.00022074643
0.00022039541
0.00022001508
0.00021960392
0.00021916208
0.00021869074
0.00021819259
0.00021767225
0.00021713657
0.00021659492
0.00021605924
0.00021554362
0.00021506431
0.00021463642
0.00021427399
0.00021398863
0.00021378887
0.00021368125
0.00021367133
0.00021376482
0.00021396841
0.00021428989
0.00021473762
0.00021451205
0.0002139701
0.00021351529
0.00021317664
0.00021298547
0.00021296936
0.00021314452
0.00021351052
0.00021404996
0.00021473271
0.00021552183
0.00021637938
0.00021727043
0.00021816557
0.00021904167
0.00021988182
0.00022067455
0.00022141285
0.00022209315
0.00022271435
0.00022327662
0.00022378226
0.00022421946
0.00022121516
0.0002209359
0.0002206447
0.00022032383
0.0002199711
0.00021958526
0.00021916458
0.00021870901
0.00021821954
0.00021769882
0.00021715163
0.00021658531
0.00021601019
0.00021543979
0.00021489046
0.00021438125
0.00021393007
0.00021355308
0.00021326288
0.00021306789
0.0002129738
0.00021298523
0.00021310734
0.00021334709
0.00021371366
0.00021421794
0.00021401847
0.00021336216
0.00021279238
0.00021234538
0.00021206251
0.00021198205
0.00021212788
0.00021250124
0.00021308039
0.0002138271
0.00021469533
0.00021563891
0.00021661668
0.00021759506
0.00021854871
0.00021945987
0.00022031723
0.00022111451
0.00022184918
0.0002225213
0.00022313216
0.00022368542
0.00022417045
0.0002207666
0.00022049745
0.00022021294
0.00021989509
0.00021954157
0.00021915089
0.000218721
0.00021825148
0.00021774296
0.00021719786
0.00021662091
0.0002160198
0.00021540572
0.00021479388
0.00021420329
0.00021365652
0.00021317514
0.00021277802
0.00021247888
0.00021228566
0.00021220259
0.0002122327
0.00021238013
0.00021265198
0.00021305914
0.00021361584
0.00021348006
0.00021269804
0.0002119992
0.00021142826
0.00021103945
0.0002108858
0.00021100205
0.00021139151
0.00021202584
0.00021285535
0.0002138217
0.00021486832
0.00021594662
0.0002170186
0.00021805686
0.00021904336
0.00021996752
0.00022082436
0.0002216129
0.00022233477
0.00022299271
0.0002235919
0.00022412303
0.00022031037
0.00022005179
0.00021977498
0.00021946123
0.00021910792
0.0002187132
0.00021827454
0.000217791
0.00021726267
0.00021669143
0.00021608175
0.00021544142
0.00021478237
0.0002141215
0.00021348093
0.00021288774
0.00021236834
0.00021194525
0.0002116334
0.00021143966
0.00021136588
0.00021141251
0.00021158201
0.00021188132
0.00021232329
0.00021292646
0.00021290201
0.00021198109
0.00021113579
0.00021042053
0.00020990607
0.00020966613
0.00020975138
0.00021016788
0.00021087714
0.00021181308
0.00021290074
0.00021407042
0.00021526488
0.00021644156
0.00021757156
0.0002186373
0.00021962975
0.00022054598
0.00022138714
0.00022215688
0.00022285971
0.00022350256
0.00022407757
0.00021984752
0.0002196022
0.00021933485
0.00021902667
0.00021867491
0.00021827727
0.00021783067
0.00021733344
0.00021678485
0.00021618597
0.00021554062
0.00021485639
0.00021414564
0.0002134269
0.00021272588
0.00021207541
0.00021150857
0.00021105282
0.00021072455
0.00021052864
0.00021046311
0.00021052457
0.00021071276
0.00021103399
0.00021150324
0.00021214439
0.00021229136
0.00021121648
0.00021020353
0.00020931751
0.00020865023
0.0002083048
0.00020835597
0.00020881376
0.00020962377
0.00021069626
0.00021193374
0.00021325004
0.00021457815
0.00021587121
0.00021709977
0.00021824788
0.00021930916
0.00022028361
0.00022117518
0.00022199004
0.00022273483
0.00022341841
0.00022403452
0.00021938378
0.00021915147
0.0002188945
0.00021859312
0.00021824412
0.0002178447
0.00021739103
0.00021688053
0.00021631133
0.00021568333
0.00021499927
0.00021426606
0.00021349609
0.00021270923
0.00021193516
0.00021121421
0.00021058876
0.00021009334
0.00020974602
0.00020954823
0.00020949204
0.00020956824
0.00020977248
0.00021010963
0.0002105968
0.00021126432
0.00021165798
0.00021041242
0.00020920643
0.00020811567
0.00020725808
0.00020677885
0.0002067904
0.0002073088
0.00020825414
0.0002095021
0.00021092459
0.00021241512
0.00021389611
0.00021531735
0.00021665047
0.0002178828
0.00021901205
0.0002200422
0.00022098079
0.00022183701
0.00022261994
0.00022334058
0.00022399442
0.00021891677
0.00021870122
0.0002184569
0.00021816422
0.00021781991
0.0002174206
0.00021696166
0.00021643932
0.0002158503
0.00021519279
0.0002144679
0.00021368123
0.00021284454
0.00021197835
0.00021111642
0.0002103087
0.00020961087
0.00020906776
0.0002086995
0.00020850175
0.00020845743
0.00020854895
0.00020876619
0.00020911151
0.00020960402
0.00021028164
0.00021101369
0.00020958113
0.00020815216
0.00020681348
0.00020571381
0.00020505871
0.00020502111
0.00020562744
0.00020675543
0.00020822984
0.00020988089
0.00021157768
0.00021323212
0.00021479272
0.0002162348
0.00021755128
0.00021874572
0.00021982737
0.00022080816
0.0002217008
0.0002225171
0.00022327034
0.00022395784
0.00021845842
0.00021825836
0.00021802743
0.00021774486
0.00021740688
0.00021700942
0.00021654683
0.000216014
0.00021540578
0.00021471813
0.00021394975
0.00021310417
0.00021219157
0.00021123196
0.00021026267
0.000209346
0.00020855706
0.00020795647
0.00020756709
0.00020737514
0.00020734956
0.00020746083
0.00020769079
0.00020803768
0.00020852164
0.00020918913
0.00021011041
0.000208739
0.00020705375
0.00020541334
0.00020400024
0.00020310575
0.00020300261
0.00020373717
0.00020511394
0.00020688229
0.0002088157
0.00021075527
0.00021260418
0.0002143136
0.00021586635
0.00021726411
0.00021851846
0.00021964531
0.00022066181
0.00022158461
0.00022242847
0.00022320902
0.00022392544
0.00021799832
0.00021781872
0.00021760379
0.00021733354
0.00021700428
0.00021661138
0.00021614811
0.00021560778
0.00021498308
0.00021426711
0.00021345523
0.00021254785
0.00021155239
0.00021048637
0.00020938885
0.00020833718
0.00020743521
0.00020676815
0.00020636242
0.00020618836
0.00020619317
0.00020633056
0.00020657201
0.00020691002
0.00020736453
0.00020799172
0.00020888211
0.00020791294
0.00020593286
0.00020392477
0.00020210044
0.00020086918
0.00020067129
0.00020159611
0.00020331591
0.00020546843
0.00020775016
0.0002099729
0.00021203613
0.00021390023
0.00021556124
0.00021703358
0.00021833936
0.00021950263
0.00022054644
0.00022149173
0.00022235626
0.00022315798
0.00022389785
0.0002175636
0.00021740161
0.00021720326
0.00021694716
0.00021662912
0.00021624374
0.0002157831
0.00021523868
0.00021460057
0.00021385824
0.00021300247
0.00021202901
0.00021094106
0.00020975073
0.00020849451
0.00020726686
0.00020621493
0.00020546415
0.0002050464
0.00020490615
0.00020495726
0.00020513104
0.00020538701
0.0002057103
0.00020611764
0.00020667417
0.00020749354
0.00020713252
0.00020482085
0.00020236977
0.00020000242
0.00019828279
0.00019793522
0.00019915006
0.00020134957
0.0002040077
0.00020671739
0.00020926561
0.00021155883
0.00021357731
0.00021533808
0.00021687319
0.00021821804
0.00021940606
0.00022046674
0.00022142537
0.00022230263
0.00022311855
0.00022387574
0.00021713078
0.00021699292
0.00021681412
0.00021657461
0.00021627065
0.00021589628
0.0002154424
0.00021489855
0.00021425205
0.0002134882
0.00021259191
0.00021155257
0.00021036763
0.00020904041
0.00020759667
0.00020614662
0.00020490294
0.00020405843
0.00020365282
0.00020358652
0.00020371959
0.00020395268
0.00020423197
0.00020453351
0.00020486467
0.00020529771
0.00020597506
0.00020647593
0.00020378215
0.00020079771
0.00019771175
0.00019526583
0.00019465881
0.0001963299
0.00019920967
0.00020253723
0.00020576804
0.00020868159
0.0002112115
0.00021337407
0.00021521755
0.00021679716
0.0002181641
0.00021936207
0.00022042708
0.00022138848
0.00022226951
0.00022309195
0.0002238597
0.00021676533
0.00021664652
0.00021648754
0.00021626703
0.00021598089
0.00021562254
0.00021518167
0.00021464592
0.00021399957
0.00021322311
0.00021229385
0.00021119175
0.0002099061
0.00020842749
0.00020675618
0.00020500722
0.00020349194
0.00020252074
0.00020214575
0.00020219378
0.00020243794
0.000202741
0.00020304007
0.00020330648
0.00020353078
0.00020378922
0.00020426182
0.00020517138
0.00020288026
0.00019930199
0.00019529112
0.0001917476
0.00019064585
0.00019305188
0.00019690603
0.0002011235
0.00020497854
0.00020828606
0.00021104263
0.00021332384
0.00021522156
0.00021681953
0.00021818647
0.00021937636
0.00022043113
0.00022138347
0.00022225851
0.00022307918
0.00022385025
0.00021647898
0.00021638762
0.00021625361
0.00021605715
0.00021579494
0.00021545992
0.00021504065
0.00021452276
0.00021388741
0.00021311006
0.00021215907
0.00021100167
0.00020961669
0.00020798136
0.00020605063
0.00020391279
0.00020202488
0.00020091213
0.00020064339
0.00020092066
0.00020136745
0.00020180266
0.00020216375
0.00020242758
0.00020254698
0.00020258001
0.00020275562
0.00020333989
0.000202499
0.00019821107
0.00019298358
0.000187751
0.00018563467
0.00018923412
0.00019448942
0.000199885
0.00020446375
0.00020816566
0.00021111015
0.0002134627
0.00021537162
0.00021695287
0.00021829246
0.00021945324
0.00022048151
0.00022141201
0.00022227072
0.00022308099
0.00022384781
0.00021654622
0.00021648047
0.00021637659
0.00021621207
0.00021598351
0.0002156835
0.00021529998
0.00021481728
0.00021421428
0.00021346237
0.00021252095
0.00021134024
0.00020988266
0.00020811335
0.00020591658
0.00020327167
0.00020083166
0.00019953748
0.00019947192
0.00020013233
0.00020087059
0.0002014705
0.00020188995
0.00020213628
0.00020209802
0.00020176365
0.00020149415
0.00020152233
0.00020189408
0.00019788633
0.0001912829
0.00018362554
0.00017937749
0.00018490595
0.0001921331
0.00019902971
0.00020439264
0.00020843127
0.00021147922
0.00021382617
0.00021568619
0.00021720642
0.00021848655
0.00021959487
0.00022057932
0.00022147472
0.0002223066
0.00022309771
0.0002238526
0.0002173191
0.00021729168
0.00021723547
0.00021712327
0.00021695224
0.00021671496
0.00021639947
0.00021598949
0.00021546202
0.00021478468
0.00021390748
0.0002127572
0.00021126625
0.00020939319
0.00020694556
0.00020363054
0.00020031245
0.00019881646
0.0001991887
0.00020060537
0.00020186504
0.00020277169
0.00020334155
0.00020366206
0.00020359647
0.0002028494
0.00020220028
0.00020147385
0.00020204939
0.00020036846
0.00019201097
0.00018079808
0.00017178836
0.00018047182
0.00019019493
0.00019887889
0.00020500126
0.00020921688
0.00021221589
0.00021444352
0.00021617674
0.00021758373
0.00021876916
0.00021980062
0.00022072376
0.00022157102
0.00022236581
0.00022312925
0.00022386466
0.00022007668
0.0002201304
0.0002201724
0.0002201659
0.00022010918
0.00021999535
0.00021981369
0.00021954894
0.00021917825
0.00021866852
0.00021796633
0.00021697862
0.000215595
0.00021377512
0.00021130031
0.0002072966
0.00020256483
0.00020103594
0.0002024253
0.00020548866
0.00020774348
0.00020925008
0.00021016894
0.00021072794
0.00021112861
0.00020957685
0.00020852778
0.00020620718
0.00020623313
0.00020421935
0.00019729931
0.00018199853
0.00016312702
0.00017718365
0.00018943969
0.00020011316
0.00020666259
0.0002106802
0.00021337478
0.00021532834
0.00021684252
0.00021808013
0.00021913534
0.00022006642
0.00022091188
0.00022169892
0.00022244717
0.00022317502
0.00022388379
0.00022624597
0.00022642295
0.00022663218
0.00022680915
0.00022695207
0.00022705638
0.00022711624
0.00022712269
0.00022705993
0.00022690282
0.00022660689
0.00022607108
0.00022511333
0.00022362663
0.00022146475
0.00021678349
0.00020877271
0.00020725726
0.00021039294
0.00021692405
0.00022088634
0.00022329874
0.00022479576
0.00022566923
0.00022818222
9.3938072e-05
9.5332283e-05
9.810543e-05
0.0001004069
0.00010330861
9.475811e-05
8.6551169e-05
0.00010655844
0.0001803231
0.00019413463
0.00020471447
0.00020994885
0.00021295416
0.00021496545
0.00021646307
0.00021766436
0.00021868034
0.00021957401
0.00022038456
0.00022113848
0.00022185505
0.00022254863
0.00022323392
0.00022390956
0.00024031052
0.00024089965
0.00024157654
0.00024225034
0.00024293096
0.00024362462
0.00024434053
0.00024508859
0.00024587577
0.00024670304
0.00024755651
0.00024835858
0.00024886374
0.00024878649
0.00024831403
0.00024530252
0.00022933991
0.00023191636
0.00024376452
0.00026752546
0.00028168605
0.00029224582
0.00014098812
0.00019218767
0.00034917145
0.00049956686
0.00049956686
0.00049956686
0.00049956686
0.00049956686
0.00049956686
0.00045040735
0.00033694445
6.8215846e-05
0.00021367071
0.00021401378
0.00021484149
0.00021589002
0.00021687877
0.00021777921
0.00021859996
0.00021935777
0.00022006811
0.00022074398
0.00022139634
0.00022203481
0.00022266738
0.0002233044
0.00022394133
0.00026629515
0.00026763938
0.00026915479
0.00027072612
0.00027237925
0.0002741444
0.00027606332
0.0002781891
0.00028058904
0.00028335238
0.00028660499
0.00029051394
0.00029526507
0.00030125775
0.00031040141
0.00032510368
0.00027563274
0.00030711561
0.00036597447
0.00031019673
0.00029402135
0.00036098297
0.00049956686
0.00049956686
0.00048904974
0.00049956686
0.00049956686
0.00049956686
0.00049956686
0.00049956686
0.00041223868
0.00041756361
0.00010192658
0.00026661048
0.00023169205
0.00022257401
0.00021968953
0.00021889726
0.00021887299
0.00021916273
0.00021958896
0.00022007764
0.00022059639
0.00022113118
0.00022167681
0.00022223264
0.00022279998
0.00022338452
0.00022397825
0.00030311022
0.00030566465
0.00030812526
0.00031063634
0.00031327374
0.00031611047
0.00031922674
0.00032272524
0.00032674943
0.00033151963
0.00033738906
0.00034464403
0.00035331675
0.00036531207
0.00038298593
0.00038202732
0.00020678793
0.0002191698
0.00020492313
0.00047682021
0.00048083309
0.0004923683
0.00047870998
0.00047372924
0.00047745234
0.00045859682
0.00045163083
0.00045341227
0.00044073153
0.00043618336
0.00010667817
0.00010745268
0.00021876427
0.00025141388
0.00023735892
0.00022780082
0.00022347325
0.00022154242
0.00022074029
0.00022050534
0.00022057065
0.00022080385
0.00022113641
0.00022153182
0.00022197053
0.0002224425
0.00022294263
0.00022347207
0.00022401932
0.00028696058
0.00028721227
0.00028701912
0.00028683474
0.00028666391
0.00028654344
0.00028649994
0.00028657141
0.00028681216
0.00028730095
0.00028806105
0.0002884066
0.00028852813
0.00028924033
0.00028632488
0.00010135395
0.00037631625
0.00046587425
0.0004567723
0.00049393052
0.00048616611
0.00048244195
0.00012426455
0.00012132554
0.0001007418
9.9971604e-05
0.00010051957
0.00010184964
0.00010280521
0.00010438099
0.00020089612
0.00020717735
0.00021723798
0.00023798397
0.00023990594
0.00023106559
0.00022625666
0.000223699
0.00022236914
0.00022173112
0.00022149599
0.00022150473
0.00022166744
0.00022193212
0.0002222683
0.00022265825
0.00022309137
0.00022356471
0.00022406344
0.00022317366
0.00022300086
0.00022272472
0.00022246634
0.00022223564
0.00022205108
0.00022193
0.00022189707
0.00022198611
0.00022224357
0.00022246657
0.0002219441
0.00022094089
0.00021901588
0.00021604098
0.00021341401
9.4452518e-05
9.856803e-05
9.9884281e-05
9.9773401e-05
0.0001001309
0.00010014268
0.0002126558
0.00021093384
0.00020904777
0.00020564478
0.00020449648
0.00020388263
0.00020203502
0.00020195517
0.0002029866
0.00020852405
0.00021753386
0.00023135761
0.00023775517
0.00023270857
0.00022810091
0.00022533058
0.00022370632
0.00022279432
0.00022233069
0.0002221558
0.00022217227
0.00022232003
0.00022256173
0.00022287412
0.00022324238
0.00022366009
0.00022410952
0.00021967893
0.00021976853
0.0002199137
0.00022007097
0.00022025113
0.0002204661
0.00022072842
0.00022105427
0.00022146333
0.00022197877
0.00022204275
0.00022157862
0.00022076466
0.00021944465
0.00021777932
0.00021499679
0.00021146998
0.00021308045
0.00021506932
0.00021456711
0.00021265525
0.00021143623
0.00021021873
0.00020847552
0.00020740021
0.00020574082
0.00020479053
0.00020416328
0.00020337239
0.00020375656
0.0002056264
0.00021044428
0.00021796117
0.0002274436
0.00023316698
0.00023335066
0.00022921593
0.00022648908
0.00022474886
0.00022367685
0.00022305548
0.00022274067
0.00022263805
0.00022268588
0.00022284368
0.000223085
0.00022339212
0.00022375599
0.00022415643
0.00021837076
0.0002184584
0.00021859815
0.00021875433
0.0002189289
0.00021912909
0.00021936334
0.00021964286
0.00021998028
0.0002203656
0.00022006963
0.00021951044
0.00021865886
0.00021748996
0.00021607659
0.00021410873
0.00021251041
0.00021334312
0.00021476595
0.00021387673
0.00021219706
0.000210915
0.0002097025
0.00020844501
0.000207442
0.00020633753
0.00020564095
0.00020522819
0.00020509256
0.00020589226
0.00020804135
0.0002122209
0.00021825626
0.00022505276
0.00022972908
0.00023212538
0.00022977984
0.00022724981
0.00022552009
0.00022437978
0.00022366334
0.00022325046
0.00022305645
0.00022302261
0.00022310855
0.00022328663
0.00022353751
0.0002238504
0.00022420317
0.00021768987
0.00021782191
0.00021797488
0.00021814153
0.00021832775
0.00021853985
0.00021878401
0.00021906784
0.00021939837
0.00021965745
0.0002193311
0.00021883233
0.00021810897
0.00021715105
0.00021595633
0.00021453483
0.00021364678
0.00021408907
0.00021512537
0.0002138131
0.00021232586
0.00021110482
0.00020998946
0.00020895844
0.00020808879
0.00020730615
0.00020683974
0.00020667288
0.00020691005
0.00020793383
0.00021006572
0.00021363607
0.00021843687
0.00022352917
0.00022737101
0.00022974282
0.00022993501
0.00022769768
0.00022605768
0.00022491663
0.00022415641
0.00022368245
0.00022342311
0.00022332574
0.00022335232
0.00022347567
0.00022367604
0.00022394158
0.00022424884
0.00021740495
0.00021748346
0.00021760919
0.00021775669
0.00021792333
0.00021811234
0.00021832743
0.0002185735
0.00021885438
0.00021893502
0.00021861825
0.00021817162
0.00021757429
0.00021682801
0.00021593604
0.0002150107
0.00021453901
0.00021486347
0.0002154473
0.00021399309
0.00021268259
0.00021156675
0.00021057454
0.00020970227
0.00020897827
0.00020841255
0.00020812375
0.00020814588
0.00020859394
0.0002097071
0.00021170368
0.00021473104
0.00021857075
0.00022252488
0.0002257075
0.00022788063
0.00022913077
0.0002279053
0.00022640213
0.00022530713
0.00022454269
0.00022403852
0.00022373696
0.00022359299
0.00022357242
0.00022364976
0.00022380572
0.00022402811
0.00022429265
0.0002172493
0.00021737242
0.00021750858
0.0002176564
0.00021781999
0.00021800226
0.0002182047
0.00021842898
0.00021867478
0.00021865547
0.00021835631
0.00021795271
0.00021743974
0.00021682802
0.00021614657
0.00021552935
0.00021527643
0.00021555627
0.00021552372
0.00021424262
0.00021310157
0.00021210921
0.00021124228
0.00021050551
0.00020991895
0.00020951412
0.00020936442
0.00020952072
0.00021008303
0.00021120647
0.00021302791
0.00021559602
0.00021870716
0.00022186627
0.00022452812
0.00022648084
0.00022773127
0.00022789132
0.00022659323
0.00022557356
0.00022483355
0.00022432364
0.00022399943
0.00022382394
0.00022376761
0.00022380738
0.00022392516
0.00022410891
0.000224334
0.00021716379
0.00021723772
0.00021735134
0.00021748397
0.00021763257
0.00021779798
0.00021798023
0.00021817936
0.00021839319
0.0002183216
0.00021806357
0.00021772851
0.0002173184
0.00021684792
0.00021635746
0.00021596424
0.00021585473
0.00021612617
0.0002155784
0.00021450012
0.00021351921
0.00021265573
0.00021191091
0.00021129627
0.00021083272
0.00021055469
0.00021051518
0.0002107656
0.00021138512
0.00021247512
0.00021411478
0.00021630122
0.00021885865
0.00022143884
0.00022368564
0.00022542373
0.00022662478
0.00022735072
0.0002266647
0.00022573763
0.00022504173
0.00022454461
0.00022421364
0.00022401957
0.00022393768
0.00022394782
0.00022403347
0.00022418321
0.00022437242
0.00021709483
0.00021719362
0.00021730796
0.00021743262
0.00021756925
0.00021771866
0.00021787976
0.00021805109
0.00021822898
0.00021812399
0.00021789437
0.00021760919
0.00021727587
0.00021691342
0.00021656525
0.00021632408
0.00021630869
0.00021645529
0.0002156552
0.0002147527
0.00021391963
0.00021318227
0.00021255416
0.00021205159
0.00021169687
0.00021152227
0.00021156967
0.00021188452
0.00021252643
0.00021356059
0.00021502771
0.00021689994
0.00021903215
0.00022117719
0.00022309082
0.00022463216
0.00022575946
0.00022650039
0.00022661864
0.00022581962
0.00022518012
0.00022470912
0.0002243838
0.00022418186
0.00022408329
0.00022407096
0.00022413022
0.00022425053
0.00022440759
0.00021704822
0.00021711794
0.00021721823
0.0002173324
0.00021745788
0.00021759411
0.00021773899
0.00021789005
0.0002180426
0.00021793574
0.00021774365
0.00021751226
0.00021725162
0.0002169826
0.00021674617
0.00021661341
0.00021666336
0.00021650919
0.00021575196
0.00021500142
0.00021430273
0.00021368433
0.00021316554
0.00021276541
0.00021250653
0.00021241778
0.00021253333
0.00021289077
0.00021353338
0.00021450161
0.0002158117
0.00021742565
0.00021922631
0.00022103524
0.00022267846
0.00022404394
0.00022508716
0.00022581601
0.00022626921
0.00022583678
0.00022526079
0.00022482503
0.00022451467
0.00022431346
0.00022420569
0.00022417723
0.00022421537
0.00022431066
0.00022443933
0.00021700936
0.00021708615
0.00021718137
0.00021728548
0.00021739809
0.00021751867
0.00021764468
0.00021777319
0.00021789919
0.00021779667
0.00021763571
0.00021744895
0.00021724783
0.0002170532
0.00021690097
0.00021684502
0.00021691341
0.00021648925
0.00021586785
0.00021524886
0.00021467113
0.00021416261
0.00021374473
0.00021343754
0.00021326284
0.00021324592
0.00021341483
0.00021379928
0.0002144297
0.00021532962
0.00021650043
0.00021790189
0.00021944027
0.00022098416
0.00022240586
0.00022361642
0.00022457339
0.00022527374
0.00022574035
0.00022580454
0.00022529483
0.00022489994
0.00022461122
0.0002244174
0.00022430659
0.00022426743
0.0002242892
0.00022436359
0.00022446756
0.00021698441
0.00021704666
0.00021713269
0.00021722811
0.00021733069
0.00021743927
0.00021755083
0.00021766212
0.00021776805
0.00021768015
0.0002175497
0.00021740331
0.00021725288
0.00021711818
0.00021702967
0.00021702852
0.00021697841
0.00021650802
0.00021600116
0.00021549651
0.000215027
0.00021461872
0.00021429303
0.00021406969
0.00021396891
0.00021401253
0.0002142233
0.00021462398
0.00021523513
0.00021606884
0.00021711795
0.00021834392
0.00021967178
0.00022100282
0.00022224107
0.00022331572
0.00022418847
0.00022485063
0.00022531481
0.00022560115
0.00022529174
0.0002249409
0.00022467834
0.00022449689
0.00022438795
0.00022434266
0.00022435221
0.00022440949
0.00022449232
0.00021696699
0.00021702776
0.00021710733
0.00021719371
0.00021728543
0.00021738133
0.0002174783
0.00021757308
0.0002176608
0.00021758804
0.00021748408
0.00021737177
0.0002172628
0.00021717509
0.000217134
0.00021716699
0.00021693991
0.00021655773
0.00021614894
0.00021574422
0.00021537136
0.00021505388
0.00021481193
0.00021466403
0.00021462837
0.00021472346
0.00021496747
0.00021537728
0.00021596602
0.00021673816
0.00021768201
0.00021876239
0.00021991912
0.00022107668
0.00022216154
0.0002231171
0.00022390985
0.00022452862
0.00022497949
0.00022527974
0.00022525998
0.0002249543
0.00022472069
0.00022455515
0.00022445185
0.00022440417
0.00022440509
0.00022444868
0.0002245137
0.00021695889
0.00021701195
0.00021708465
0.00021716339
0.00021724614
0.00021733154
0.00021741647
0.00021749778
0.00021757098
0.00021751301
0.00021743251
0.00021734907
0.00021727373
0.00021722239
0.00021721604
0.00021720326
0.00021693798
0.00021663188
0.00021630809
0.00021599126
0.00021570478
0.00021546935
0.00021530328
0.00021522331
0.00021524535
0.00021538478
0.00021565578
0.00021607038
0.0002166362
0.00021735269
0.00021820608
0.00021916508
0.00022018105
0.00022119528
0.00022215057
0.00022300145
0.00022371922
0.00022429206
0.00022472212
0.00022502121
0.00022516767
0.00022494586
0.0002247426
0.00022459532
0.00022450046
0.00022445335
0.00022444862
0.00022448154
0.00022453185
0.00021695734
0.0002170066
0.00021707341
0.00021714475
0.00021721882
0.00021729432
0.00021736824
0.00021743769
0.00021749869
0.00021745204
0.00021739153
0.00021733185
0.00021728313
0.00021725927
0.00021727757
0.00021717519
0.00021696392
0.00021672438
0.0002164751
0.00021623612
0.00021602704
0.00021586582
0.00021576858
0.00021575
0.00021582362
0.0002160019
0.00021629554
0.0002167126
0.00021725665
0.00021792391
0.00021869991
0.00021955719
0.00022045616
0.00022135052
0.00022219522
0.00022295368
0.00022360161
0.00022412771
0.00022453185
0.00022482218
0.00022501203
0.00022492047
0.00022474798
0.00022462034
0.00022453587
0.0002244916
0.00022448364
0.0002245085
0.00022454694
0.00021696206
0.00021700647
0.00021706788
0.0002171328
0.00021719936
0.00021726631
0.00021733082
0.00021739034
0.00021743964
0.00021740175
0.00021735809
0.00021731762
0.00021728948
0.00021728569
0.00021729923
0.00021717359
0.00021701076
0.00021683013
0.00021664683
0.0002164773
0.00021633794
0.00021624406
0.00021620955
0.00021624688
0.00021636722
0.00021658031
0.00021689383
0.00021731262
0.00021783719
0.00021846169
0.00021917178
0.00021994348
0.00022074427
0.00022153724
0.00022228659
0.00022296285
0.00022354577
0.00022402518
0.00022439986