/*--------------------------------*- C++ -*----------------------------------*\
| =========                 |                                                 |
| \\      /  F ield         | foam-extend: Open Source CFD                    |
|  \\    /   O peration     | Version:     4.1                                |
|   \\  /    A nd           | Web:         http://www.foam-extend.org         |
|    \\/     M anipulation  |                                                 |
\*---------------------------------------------------------------------------*/
FoamFile
{
    version     2.0;
    format      ascii;
    class       volVectorField;
    location    "1.05";
    object      U;
}
// * * * * * * * * * * * * * * * * * * * * * * * * * * * * * * * * * * * * * //

dimensions      [0 1 -1 0 0 0 0];

internalField   nonuniform List<vector> 
4393
(
(146.04891 -0.15650305 0)
(146.5975 -0.16293701 0)
(147.0118 -0.16595112 0)
(147.45302 -0.16960185 0)
(147.90407 -0.1740097 0)
(148.36987 -0.17926015 0)
(148.8526 -0.18527503 0)
(149.35445 -0.19190808 0)
(149.87699 -0.19895365 0)
(150.42114 -0.20614871 0)
(150.98694 -0.21317304 0)
(151.57338 -0.21965248 0)
(152.17826 -0.22516766 0)
(152.79805 -0.22926991 0)
(153.42788 -0.23150429 0)
(154.06149 -0.2314375 0)
(154.69139 -0.22868551 0)
(155.30905 -0.22293494 0)
(155.90509 -0.21395419 0)
(156.46957 -0.20159355 0)
(156.99221 -0.1857783 0)
(157.46262 -0.16650088 0)
(157.87046 -0.14381857 0)
(158.20564 -0.11786187 0)
(158.4586 -0.088856984 0)
(158.62065 -0.05715947 0)
(158.68448 -0.023275984 0)
(158.64488 0.012126638 0)
(158.49853 0.04797329 0)
(158.24628 0.082848806 0)
(157.89311 0.11530704 0)
(157.44834 0.14393707 0)
(156.92537 0.16751052 0)
(156.3408 0.18513464 0)
(155.71333 0.19635093 0)
(155.0623 0.20115487 0)
(154.40645 0.19994204 0)
(153.76286 0.19340536 0)
(153.14622 0.18241414 0)
(152.56854 0.16790041 0)
(152.03911 0.15076877 0)
(151.56467 0.13183508 0)
(151.14977 0.11179335 0)
(150.79719 0.091217185 0)
(150.50827 0.070610752 0)
(150.28348 0.050432444 0)
(150.12222 0.030837446 0)
(150.02092 0.01172306 0)
(149.97389 -0.0031700302 0)
(149.47195 -0.3949149 0)
(149.94134 -0.40586646 0)
(150.28759 -0.41396616 0)
(150.65757 -0.42450822 0)
(151.03721 -0.43760792 0)
(151.43148 -0.45330112 0)
(151.84275 -0.47131762 0)
(152.27326 -0.491212 0)
(152.72471 -0.51237189 0)
(153.19808 -0.53401626 0)
(153.69348 -0.55519336 0)
(154.21 -0.57478861 0)
(154.74548 -0.59154937 0)
(155.29645 -0.60413134 0)
(155.85802 -0.61116731 0)
(156.4239 -0.61135125 0)
(156.98653 -0.6035227 0)
(157.53727 -0.58673277 0)
(158.06665 -0.56027851 0)
(158.56461 -0.523704 0)
(159.02078 -0.47677981 0)
(159.42465 -0.41948007 0)
(159.76578 -0.35197746 0)
(160.03397 -0.2746721 0)
(160.21949 -0.1882656 0)
(160.31345 -0.093876872 0)
(160.30829 0.0068452825 0)
(160.19843 0.11165856 0)
(159.98172 0.21748534 0)
(159.65888 0.32051345 0)
(159.23466 0.41654781 0)
(158.71823 0.50139294 0)
(158.12299 0.57135831 0)
(157.46572 0.62373667 0)
(156.76535 0.65710921 0)
(156.04147 0.67140875 0)
(155.31301 0.66775998 0)
(154.59716 0.64817277 0)
(153.90862 0.61518088 0)
(153.25934 0.57150289 0)
(152.65849 0.51977194 0)
(152.11272 0.46235029 0)
(151.62645 0.40122586 0)
(151.20242 0.33800161 0)
(150.84201 0.27399605 0)
(150.54554 0.21026758 0)
(150.31218 0.14710523 0)
(150.14086 0.084344817 0)
(150.03531 0.028580536 0)
(149.7374 -0.6293939 0)
(150.1916 -0.63857079 0)
(150.52688 -0.65072046 0)
(150.88502 -0.66771122 0)
(151.25284 -0.6893918 0)
(151.63543 -0.71554002 0)
(152.03527 -0.74564628 0)
(152.45474 -0.77895181 0)
(152.89564 -0.81443448 0)
(153.35912 -0.85079279 0)
(153.84545 -0.88643689 0)
(154.35386 -0.91949854 0)
(154.88236 -0.94787036 0)
(155.42758 -0.96928321 0)
(155.98468 -0.98142364 0)
(156.54738 -0.98208025 0)
(157.10806 -0.96929189 0)
(157.65798 -0.94146335 0)
(158.18754 -0.89742335 0)
(158.68661 -0.83642135 0)
(159.14472 -0.75808453 0)
(159.55127 -0.66237031 0)
(159.89571 -0.54955114 0)
(160.16766 -0.42026086 0)
(160.35713 -0.2756218 0)
(160.45481 -0.1174561 0)
(160.45263 0.051463654 0)
(160.34437 0.22725331 0)
(160.1264 0.40485522 0)
(159.79877 0.57802924 0)
(159.36598 0.73967607 0)
(158.83741 0.88259883 0)
(158.22711 1.0004398 0)
(157.55291 1.0885458 0)
(156.83491 1.1445112 0)
(156.09388 1.1682797 0)
(155.34967 1.1618474 0)
(154.6201 1.1287111 0)
(153.9202 1.0732317 0)
(153.26196 1.000046 0)
(152.6544 0.91360598 0)
(152.10385 0.81786945 0)
(151.61442 0.71613348 0)
(151.18849 0.61100853 0)
(150.82718 0.50451227 0)
(150.53034 0.39807274 0)
(150.29671 0.29220443 0)
(150.12702 0.18720523 0)
(150.02928 0.087413739 0)
(149.82994 -0.85840998 0)
(150.27621 -0.86818704 0)
(150.60689 -0.88443552 0)
(150.96021 -0.90797686 0)
(151.32346 -0.93842263 0)
(151.70182 -0.97532223 0)
(152.09797 -1.0179328 0)
(152.51447 -1.0651976 0)
(152.95337 -1.1157035 0)
(153.41602 -1.1676446 0)
(153.90294 -1.218801 0)
(154.41358 -1.2665459 0)
(154.94612 -1.3078953 0)
(155.49728 -1.3396148 0)
(156.06222 -1.35839 0)
(156.63452 -1.3610445 0)
(157.20631 -1.3447641 0)
(157.76854 -1.3072729 0)
(158.31127 -1.2469172 0)
(158.82403 -1.162651 0)
(159.29607 -1.0539569 0)
(159.71652 -0.92075954 0)
(160.07456 -0.76338692 0)
(160.35947 -0.58262676 0)
(160.56076 -0.37990489 0)
(160.66846 -0.1575943 0)
(160.67363 0.080594715 0)
(160.56908 0.32929775 0)
(160.35013 0.58129865 0)
(160.01601 0.82757891 0)
(159.57083 1.0577953 0)
(159.02428 1.2613672 0)
(158.39144 1.4289109 0)
(157.69177 1.5535889 0)
(156.94728 1.6319469 0)
(156.18053 1.6640464 0)
(155.41286 1.6529775 0)
(154.66304 1.6039956 0)
(153.94658 1.5235515 0)
(153.2755 1.4184199 0)
(152.65854 1.295035 0)
(152.10158 1.1590614 0)
(151.60818 1.0151822 0)
(151.1802 0.86707286 0)
(150.81825 0.71749233 0)
(150.52164 0.56832267 0)
(150.28881 0.42059227 0)
(150.12121 0.2753474 0)
(150.02715 0.13502553 0)
(149.93892 -1.0819506 0)
(150.37712 -1.0932727 0)
(150.70247 -1.1137399 0)
(151.05042 -1.1439486 0)
(151.40865 -1.1833391 0)
(151.78248 -1.2312719 0)
(152.1748 -1.286784 0)
(152.58843 -1.3485308 0)
(153.02569 -1.4147154 0)
(153.48825 -1.4830288 0)
(153.97696 -1.5506102 0)
(154.49155 -1.6140461 0)
(155.03044 -1.6694257 0)
(155.59049 -1.7124774 0)
(156.16684 -1.7387968 0)
(156.75287 -1.7441523 0)
(157.34035 -1.7248076 0)
(157.91977 -1.6777744 0)
(158.48071 -1.6009259 0)
(159.01226 -1.4929594 0)
(159.50327 -1.353259 0)
(159.94259 -1.1817461 0)
(160.31906 -0.9787994 0)
(160.62154 -0.74531206 0)
(160.83897 -0.48292528 0)
(160.96048 -0.19445094 0)
(160.97602 0.11557399 0)
(160.877 0.44040927 0)
(160.65725 0.77075499 0)
(160.31472 1.0946358 0)
(159.85287 1.3980363 0)
(159.28173 1.6664148 0)
(158.61786 1.8868021 0)
(157.88307 2.0498078 0)
(157.10209 2.1508392 0)
(156.3001 2.1902451 0)
(155.50046 2.1725453 0)
(154.72326 2.1051448 0)
(153.98459 1.996941 0)
(153.29645 1.8571157 0)
(152.66714 1.6942482 0)
(152.10183 1.5157725 0)
(151.60332 1.3277339 0)
(151.17272 1.134778 0)
(150.80995 0.94026422 0)
(150.51371 0.74638655 0)
(150.28219 0.55444156 0)
(150.11706 0.36561702 0)
(150.02586 0.18119226 0)
(150.0765 -1.3029515 0)
(150.50472 -1.3163104 0)
(150.82325 -1.3411832 0)
(151.16438 -1.3782816 0)
(151.51626 -1.4269413 0)
(151.88433 -1.4863906 0)
(152.27176 -1.5554852 0)
(152.68167 -1.6326267 0)
(153.11674 -1.7156627 0)
(153.57904 -1.801798 0)
(154.06983 -1.8875306 0)
(154.58926 -1.9686331 0)
(155.13608 -2.0402075 0)
(155.70733 -2.0968463 0)
(156.29815 -2.132926 0)
(156.90166 -2.143022 0)
(157.50916 -2.1223618 0)
(158.11051 -2.0671815 0)
(158.69463 -1.9748765 0)
(159.25004 -1.8439225 0)
(159.76515 -1.6736465 0)
(160.22843 -1.463978 0)
(160.62838 -1.215301 0)
(160.95342 -0.92849732 0)
(161.19179 -0.60523852 0)
(161.33155 -0.24854781 0)
(161.36114 0.13642556 0)
(161.27019 0.54165285 0)
(161.05038 0.95566231 0)
(160.69784 1.3632368 0)
(160.21494 1.7460858 0)
(159.61207 2.084871 0)
(158.90778 2.362219 0)
(158.12713 2.5656592 0)
(157.29869 2.6893642 0)
(156.45114 2.734264 0)
(155.61059 2.7068423 0)
(154.79876 2.6172578 0)
(154.0324 2.4774011 0)
(153.32335 2.2992813 0)
(152.67921 2.0938997 0)
(152.10416 1.8706083 0)
(151.59994 1.6368625 0)
(151.16662 1.3982517 0)
(150.80317 1.1586719 0)
(150.50754 0.9205512 0)
(150.27748 0.68523046 0)
(150.11443 0.45353905 0)
(150.02513 0.22567268 0)
(150.24333 -1.5149134 0)
(150.66001 -1.5306045 0)
(150.9702 -1.560151 0)
(151.30294 -1.6044736 0)
(151.64694 -1.6628341 0)
(152.00783 -1.7343726 0)
(152.38907 -1.8178029 0)
(152.79415 -1.9113109 0)
(153.22619 -2.0124224 0)
(153.68777 -2.1178786 0)
(154.18068 -2.2235376 0)
(154.70559 -2.3243292 0)
(155.26172 -2.4142963 0)
(155.84639 -2.4867736 0)
(156.45474 -2.5347528 0)
(157.07959 -2.551437 0)
(157.71159 -2.5308736 0)
(158.33977 -2.4684597 0)
(158.9522 -2.3611409 0)
(159.53666 -2.2072638 0)
(160.08104 -2.0062041 0)
(160.57343 -1.7579659 0)
(161.00204 -1.4629254 0)
(161.35486 -1.1218383 0)
(161.61936 -0.73618674 0)
(161.78236 -0.30890525 0)
(161.83045 0.15456321 0)
(161.7509 0.64516179 0)
(161.53252 1.1493546 0)
(161.16872 1.6483682 0)
(160.66021 2.1188354 0)
(160.01761 2.5354309 0)
(159.2621 2.8751736 0)
(158.42322 3.1217388 0)
(157.5347 3.2679334 0)
(156.62999 3.3156973 0)
(155.73869 3.2742233 0)
(154.88454 3.1572312 0)
(154.08491 2.9802976 0)
(153.35126 2.7587559 0)
(152.69012 2.5063239 0)
(152.10436 2.2343974 0)
(151.59425 1.9518483 0)
(151.15854 1.6651481 0)
(150.79505 1.3786518 0)
(150.50078 1.0949556 0)
(150.27284 0.81535725 0)
(150.11214 0.54028864 0)
(150.02456 0.26916621 0)
(150.43876 -1.7254238 0)
(150.84136 -1.7434643 0)
(151.14159 -1.7777059 0)
(151.46429 -1.8293603 0)
(151.79881 -1.8976654 0)
(152.15099 -1.9817283 0)
(152.52462 -2.0801782 0)
(152.92362 -2.1910435 0)
(153.35164 -2.3115828 0)
(153.81187 -2.4381151 0)
(154.30677 -2.5658751 0)
(154.83771 -2.6889252 0)
(155.40449 -2.800168 0)
(156.00486 -2.8915266 0)
(156.63404 -2.9543831 0)
(157.28442 -2.9803125 0)
(157.94584 -2.9619684 0)
(158.60621 -2.8938078 0)
(159.25248 -2.7723602 0)
(159.87151 -2.5959706 0)
(160.45059 -2.3642086 0)
(160.9775 -2.0772412 0)
(161.44023 -1.7354168 0)
(161.82644 -1.3392063 0)
(162.12287 -0.88960009 0)
(162.31495 -0.38902615 0)
(162.387 0.15724035 0)
(162.32337 0.73946736 0)
(162.10896 1.3421783 0)
(161.73337 1.9427305 0)
(161.19461 2.5116548 0)
(160.50329 3.0159743 0)
(159.68399 3.4253631 0)
(158.77235 3.7185534 0)
(157.80919 3.8868752 0)
(156.83421 3.9339766 0)
(155.88146 3.872871 0)
(154.977 3.7219805 0)
(154.13869 3.501501 0)
(153.37719 3.2307227 0)
(152.6975 2.926423 0)
(152.10061 2.6021554 0)
(151.58495 2.2681648 0)
(151.14761 1.9316691 0)
(150.78497 1.5973057 0)
(150.49295 1.2676444 0)
(150.26784 0.94373459 0)
(150.10983 0.62551166 0)
(150.02402 0.31173426 0)
(150.6622 -1.9210457 0)
(151.0492 -1.9416734 0)
(151.33789 -1.9810153 0)
(151.64882 -2.040563 0)
(151.97212 -2.1195447 0)
(152.31386 -2.2170818 0)
(152.6782 -2.3317779 0)
(153.06957 -2.4615706 0)
(153.49222 -2.6035164 0)
(153.95009 -2.7535656 0)
(154.44648 -2.9063544 0)
(154.98362 -3.0550557 0)
(155.56214 -3.1913384 0)
(156.18037 -3.3055223 0)
(156.83369 -3.3870829 0)
(157.51403 -3.4256133 0)
(158.21014 -3.4120752 0)
(158.90843 -3.3398572 0)
(159.59436 -3.205153 0)
(160.25367 -3.0065336 0)
(160.87299 -2.7440181 0)
(161.43989 -2.4181133 0)
(161.94234 -2.0291653 0)
(162.36787 -1.5771939 0)
(162.70264 -1.0623242 0)
(162.93057 -0.48592622 0)
(163.03337 0.14753977 0)
(162.99172 0.82827112 0)
(162.78538 1.5392597 0)
(162.3985 2.2537522 0)
(161.82485 2.9348979 0)
(161.07447 3.5397204 0)
(160.17633 4.0279838 0)
(159.17447 4.3718906 0)
(158.11936 4.56121 0)
(157.05901 4.6023787 0)
(156.03299 4.5138322 0)
(155.0699 4.3202474 0)
(154.18778 4.0476338 0)
(153.39582 3.7199928 0)
(152.69681 3.357528 0)
(152.08924 2.9760368 0)
(151.56919 2.5870508 0)
(151.13168 2.1983635 0)
(150.77141 1.8146973 0)
(150.483 1.4383932 0)
(150.2618 1.0700613 0)
(150.10717 0.70902239 0)
(150.02341 0.35333281 0)
(150.91342 -2.1185679 0)
(151.28151 -2.1416598 0)
(151.5568 -2.185951 0)
(151.85406 -2.2533018 0)
(152.16427 -2.3429943 0)
(152.49367 -2.4542315 0)
(152.84687 -2.585673 0)
(153.22883 -2.7352585 0)
(153.64451 -2.8999412 0)
(154.09874 -3.0753922 0)
(154.59582 -3.2557098 0)
(155.13911 -3.4331853 0)
(155.7303 -3.5981757 0)
(156.36862 -3.739188 0)
(157.04972 -3.8434211 0)
(157.76504 -3.89801 0)
(158.50184 -3.891807 0)
(159.24453 -3.8169595 0)
(159.97659 -3.6694633 0)
(160.68231 -3.4484664 0)
(161.34765 -3.1548186 0)
(161.96015 -2.78962 0)
(162.50808 -2.3532578 0)
(162.97923 -1.8450874 0)
(163.35941 -1.2638737 0)
(163.63113 -0.60918265 0)
(163.77308 0.11624571 0)
(163.76152 0.90344878 0)
(163.56949 1.7345461 0)
(163.17346 2.5786434 0)
(162.56056 3.3900017 0)
(161.7391 4.1123539 0)
(160.74374 4.6917319 0)
(159.63021 5.0914923 0)
(158.46231 5.2998933 0)
(157.29902 5.3278888 0)
(156.18666 5.2016852 0)
(155.15645 4.9543361 0)
(154.22587 4.6191788 0)
(153.40177 4.2257848 0)
(152.6837 3.7981184 0)
(152.0669 3.3542068 0)
(151.54448 2.9066621 0)
(151.10898 2.4635694 0)
(150.75314 2.029445 0)
(150.47013 1.6061355 0)
(150.25423 1.1935957 0)
(150.1039 0.79039383 0)
(150.02268 0.39378344 0)
(151.19051 -2.2909264 0)
(151.53868 -2.3166131 0)
(151.79896 -2.3662404 0)
(152.0807 -2.4420001 0)
(152.37585 -2.543244 0)
(152.69089 -2.6693222 0)
(153.03085 -2.8190417 0)
(153.40129 -2.9904557 0)
(153.80799 -3.1805365 0)
(154.2568 -3.3847929 0)
(154.75326 -3.5968722 0)
(155.3021 -3.8082085 0)
(155.90647 -4.0077675 0)
(156.56681 -4.1819882 0)
(157.2794 -4.3152902 0)
(158.03506 -4.3916494 0)
(158.81916 -4.3971585 0)
(159.61335 -4.3224307 0)
(160.3984 -4.1634549 0)
(161.15678 -3.9204836 0)
(161.87379 -3.5957759 0)
(162.53728 -3.1914281 0)
(163.13632 -2.7080013 0)
(163.65952 -2.1440024 0)
(164.09284 -1.4962777 0)
(164.41755 -0.76165757 0)
(164.60906 0.060040232 0)
(164.63843 0.96206525 0)
(164.46999 1.9268348 0)
(164.06949 2.9196721 0)
(163.4137 3.8843448 0)
(162.50705 4.7466735 0)
(161.39152 5.4331234 0)
(160.13942 5.8947219 0)
(158.83316 6.1185681 0)
(157.54626 6.1228975 0)
(156.33318 5.9451379 0)
(155.22741 5.6295964 0)
(154.2447 5.2188161 0)
(153.3881 4.7488719 0)
(152.6527 4.2477374 0)
(152.02945 3.7355095 0)
(151.50782 3.2255284 0)
(151.07742 2.7257658 0)
(150.72878 2.2401486 0)
(150.45347 1.7696998 0)
(150.24464 1.313461 0)
(150.09983 0.86906726 0)
(150.02177 0.43282079 0)
(151.495 -2.4738454 0)
(151.8188 -2.5022062 0)
(152.06188 -2.5571303 0)
(152.32588 -2.6412526 0)
(152.60372 -2.7540728 0)
(152.90201 -2.8951692 0)
(153.22624 -3.0636014 0)
(153.58258 -3.2576676 0)
(153.97774 -3.4745126 0)
(154.41873 -3.7096431 0)
(154.91259 -3.9563904 0)
(155.4658 -4.2054065 0)
(156.08338 -4.4442319 0)
(156.76757 -4.6569919 0)
(157.51569 -4.8247262 0)
(158.31801 -4.927315 0)
(159.15738 -4.9471835 0)
(160.01158 -4.8730499 0)
(160.85764 -4.7013002 0)
(161.67565 -4.4342138 0)
(162.45029 -4.0764186 0)
(163.1702 -3.6316475 0)
(163.82599 -3.1008549 0)
(164.4079 -2.4814819 0)
(164.90281 -1.7677105 0)
(165.29123 -0.95232048 0)
(165.54522 -0.030497534 0)
(165.62896 0.99513143 0)
(165.49755 2.1090133 0)
(165.10113 3.2741391 0)
(164.40039 4.4222931 0)
(163.39185 5.4549437 0)
(162.12684 6.2698956 0)
(160.70163 6.8004555 0)
(159.22515 7.0336178 0)
(157.79023 6.9993765 0)
(156.46075 6.7514839 0)
(155.27147 6.3493638 0)
(154.23446 5.8470178 0)
(153.3469 5.2879299 0)
(152.59774 4.7041204 0)
(151.97246 4.1173435 0)
(151.4561 3.541094 0)
(151.0349 2.9826586 0)
(150.69697 2.4448809 0)
(150.4322 1.9275665 0)
(150.23259 1.4285516 0)
(150.09477 0.94433434 0)
(150.02066 0.47010117 0)
(151.82146 -2.6141372 0)
(152.12077 -2.6447324 0)
(152.34509 -2.7047739 0)
(152.58942 -2.7972806 0)
(152.84783 -2.921923 0)
(153.12707 -3.078602 0)
(153.43304 -3.2667711 0)
(153.7726 -3.4851589 0)
(154.15338 -3.7313093 0)
(154.58378 -4.0009778 0)
(155.0726 -4.287417 0)
(155.62841 -4.5806727 0)
(156.25871 -4.8669219 0)
(156.96828 -5.1277815 0)
(157.7562 -5.3401866 0)
(158.61236 -5.478572 0)
(159.51622 -5.5202377 0)
(160.44011 -5.4513056 0)
(161.35574 -5.2690099 0)
(162.24005 -4.9788689 0)
(163.07734 -4.5890898 0)
(163.85785 -4.1057375 0)
(164.57482 -3.5303296 0)
(165.22129 -2.8589994 0)
(165.78632 -2.0824808 0)
(166.25048 -1.1879811 0)
(166.58259 -0.16396428 0)
(166.73938 0.9933147 0)
(166.66425 2.2730472 0)
(166.28651 3.6388202 0)
(165.54187 5.0097652 0)
(164.4117 6.2542099 0)
(162.95882 7.2267834 0)
(161.31517 7.834363 0)
(159.62819 8.0664508 0)
(158.01629 7.9721043 0)
(156.55373 7.6289842 0)
(155.2743 7.1167419 0)
(154.18321 6.5034076 0)
(153.26888 5.8405783 0)
(152.51197 5.1639736 0)
(151.89107 4.4962151 0)
(151.38601 3.8500807 0)
(150.97926 3.2313961 0)
(150.65637 2.6413008 0)
(150.40553 2.0779197 0)
(150.21767 1.5375572 0)
(150.08855 1.0153532 0)
(150.01929 0.50521323 0)
(152.17466 -2.7815903 0)
(152.44372 -2.8153291 0)
(152.64676 -2.8812272 0)
(152.86889 -2.9828167 0)
(153.10517 -3.1200352 0)
(153.36237 -3.2932092 0)
(153.64675 -3.5023206 0)
(153.96579 -3.7467028 0)
(154.32816 -4.0245176 0)
(154.74376 -4.3320241 0)
(155.22343 -4.6626438 0)
(155.77837 -5.0059974 0)
(156.41923 -5.3469695 0)
(157.1544 -5.6644711 0)
(157.98597 -5.9304031 0)
(158.90398 -6.1117685 0)
(159.88345 -6.1784343 0)
(160.88888 -6.1128331 0)
(161.88436 -5.9139462 0)
(162.84262 -5.5927909 0)
(163.74793 -5.1634802 0)
(164.59333 -4.6359187 0)
(165.37601 -4.012908 0)
(166.09332 -3.2894636 0)
(166.73807 -2.4522373 0)
(167.29223 -1.4808956 0)
(167.72184 -0.3540595 0)
(167.97575 0.94198398 0)
(167.98398 2.4052846 0)
(167.64862 4.0054593 0)
(166.867 5.6507763 0)
(165.59199 7.1649915 0)
(163.89973 8.33593 0)
(161.97666 9.0292331 0)
(160.02752 9.2430049 0)
(158.20442 9.0573601 0)
(156.59184 8.5851854 0)
(155.21816 7.9329385 0)
(154.07683 7.1853537 0)
(153.14355 6.4023133 0)
(152.38796 5.6222364 0)
(151.78027 4.8672707 0)
(151.29427 4.1482199 0)
(150.90845 3.4684346 0)
(150.60573 2.8265993 0)
(150.37276 2.2186352 0)
(150.19952 1.6389687 0)
(150.08103 1.0811613 0)
(150.01763 0.53768728 0)
(152.54179 -2.8798052 0)
(152.78151 -2.9149418 0)
(152.96177 -2.9850749 0)
(153.15972 -3.0941252 0)
(153.3716 -3.2422886 0)
(153.60417 -3.4304017 0)
(153.86398 -3.6591342 0)
(154.15912 -3.9286679 0)
(154.49927 -4.2381288 0)
(154.89601 -4.5847353 0)
(155.36255 -4.9625994 0)
(155.91316 -5.3614216 0)
(156.56248 -5.7652561 0)
(157.32393 -6.1505936 0)
(158.2045 -6.4836721 0)
(159.19543 -6.72165 0)
(160.26586 -6.823643 0)
(161.36871 -6.766782 0)
(162.45663 -6.5532312 0)
(163.49646 -6.2027995 0)
(164.4732 -5.7384096 0)
(165.38455 -5.1748518 0)
(166.23364 -4.5158036 0)
(167.02423 -3.7542654 0)
(167.75555 -2.8713303 0)
(168.4135 -1.8362703 0)
(168.96247 -0.61391941 0)
(169.34328 0.82336023 0)
(169.472 2.48686 0)
(169.21629 4.3601542 0)
(168.41528 6.3472029 0)
(166.96901 8.2137625 0)
(164.96626 9.6418742 0)
(162.67949 10.429063 0)
(160.40122 10.595944 0)
(158.32696 10.273419 0)
(156.54861 9.6265339 0)
(155.08116 8.7966236 0)
(153.89884 7.8873972 0)
(152.95927 6.9661138 0)
(152.21794 6.0718547 0)
(151.63504 5.2241923 0)
(151.17781 4.430223 0)
(150.82062 3.6895475 0)
(150.54402 2.9975252 0)
(150.33333 2.3473106 0)
(150.17788 1.7311073 0)
(150.07212 1.1406978 0)
(150.01568 0.56700766 0)
(152.93699 -3.0310657 0)
(153.1405 -3.0701514 0)
(153.29541 -3.1468621 0)
(153.46665 -3.2656862 0)
(153.65135 -3.4272512 0)
(153.85599 -3.633108 0)
(154.08727 -3.8848688 0)
(154.35371 -4.183877 0)
(154.66594 -4.5306111 0)
(155.03722 -4.923731 0)
(155.48341 -5.3585652 0)
(156.0224 -5.8253311 0)
(156.67364 -6.3075794 0)
(157.45741 -6.7795903 0)
(158.38869 -7.2009785 0)
(159.46227 -7.5149714 0)
(160.63986 -7.6635548 0)
(161.85729 -7.6146576 0)
(163.05023 -7.375036 0)
(164.17756 -6.9781529 0)
(165.22682 -6.4605354 0)
(166.20376 -5.8441757 0)
(167.12002 -5.1345083 0)
(167.98793 -4.3239664 0)
(168.81606 -3.389744 0)
(169.59719 -2.2900737 0)
(170.29527 -0.97230622 0)
(170.84295 0.610513 0)
(171.1435 2.4900827 0)
(171.02501 4.6786397 0)
(170.24135 7.0944227 0)
(168.59609 9.4336078 0)
(166.18203 11.207696 0)
(163.41156 12.093518 0)
(160.71649 12.166128 0)
(158.34554 11.639644 0)
(156.38986 10.7566 0)
(154.83681 9.702213 0)
(153.63054 8.5999713 0)
(152.7037 7.5216315 0)
(151.99418 6.5033416 0)
(151.4508 5.5590021 0)
(151.034 4.6897266 0)
(150.71437 3.8898428 0)
(150.4705 3.1504307 0)
(150.2869 2.4613155 0)
(150.1526 1.8121676 0)
(150.06175 1.1928351 0)
(150.01342 0.59262923 0)
(153.33169 -3.0768191 0)
(153.50078 -3.116044 0)
(153.62883 -3.1954257 0)
(153.77115 -3.3198152 0)
(153.92601 -3.4901475 0)
(154.09948 -3.7086331 0)
(154.2983 -3.9778255 0)
(154.53129 -4.300312 0)
(154.80996 -4.6781525 0)
(155.14931 -5.1119181 0)
(155.56818 -5.598898 0)
(156.08871 -6.1306979 0)
(156.73614 -6.691356 0)
(157.53983 -7.2544018 0)
(158.52746 -7.7735915 0)
(159.70196 -8.1744073 0)
(161.01591 -8.3732911 0)
(162.37903 -8.3244862 0)
(163.70037 -8.0441481 0)
(164.92694 -7.5894122 0)
(166.05132 -7.0193828 0)
(167.09189 -6.3662418 0)
(168.07141 -5.6359695 0)
(169.01247 -4.8188848 0)
(169.93707 -3.8864055 0)
(170.85098 -2.7790418 0)
(171.72207 -1.4149005 0)
(172.47719 0.2840259 0)
(173.01213 2.3776553 0)
(173.11575 4.9213712 0)
(172.42031 7.8764316 0)
(170.55374 10.866631 0)
(167.58159 13.12729 0)
(164.15061 14.105415 0)
(160.92371 14.00472 0)
(158.20685 13.174879 0)
(156.07174 11.973504 0)
(154.4537 10.637664 0)
(153.25145 9.3079443 0)
(152.36449 8.0543986 0)
(151.70971 6.9044372 0)
(151.22386 5.861982 0)
(150.86106 4.9193379 0)
(150.58892 4.0638531 0)
(150.38491 3.2813673 0)
(150.23339 2.5578752 0)
(150.12367 1.880282 0)
(150.04994 1.2364222 0)
(150.01084 0.61399895 0)
(153.7557 -3.210524 0)
(153.88269 -3.2554271 0)
(153.98164 -3.3424561 0)
(154.093 -3.4770447 0)
(154.21571 -3.6606993 0)
(154.35517 -3.8966841 0)
(154.51782 -4.1890278 0)
(154.7125 -4.5422732 0)
(154.95119 -4.9609962 0)
(155.2503 -5.448929 0)
(155.63166 -6.0069161 0)
(156.12194 -6.6295696 0)
(156.75263 -7.3027564 0)
(157.56419 -8.0010826 0)
(158.60367 -8.6739694 0)
(159.89075 -9.2230123 0)
(161.36801 -9.5216821 0)
(162.90496 -9.4971979 0)
(164.36899 -9.177822 0)
(165.69041 -8.6551881 0)
(166.87324 -8.0208244 0)
(167.9584 -7.3168896 0)
(168.98529 -6.5442336 0)
(169.98919 -5.6889906 0)
(171.01177 -4.7215273 0)
(172.08125 -3.5675637 0)
(173.17388 -2.1154396 0)
(174.20833 -0.25761424 0)
(175.0662 2.0891946 0)
(175.52435 5.0320935 0)
(175.04922 8.6560111 0)
(172.96251 12.558853 0)
(169.21551 15.541397 0)
(164.85468 16.579554 0)
(160.94682 16.174541 0)
(157.83669 14.893696 0)
(155.53883 13.265536 0)
(153.89572 11.581251 0)
(152.74048 9.9887676 0)
(151.93042 8.5449873 0)
(151.35921 7.2598616 0)
(150.95215 6.121715 0)
(150.65849 5.1107862 0)
(150.44443 4.205708 0)
(150.28758 3.3862378 0)
(150.17313 2.6341893 0)
(150.0913 1.9336061 0)
(150.03677 1.2703389 0)
(150.00798 0.63058267 0)
(154.13604 -3.1946815 0)
(154.22232 -3.237882 0)
(154.29034 -3.3244954 0)
(154.36799 -3.4608647 0)
(154.45498 -3.6490468 0)
(154.55572 -3.8932515 0)
(154.67606 -4.1987671 0)
(154.82446 -4.5717857 0)
(155.01295 -5.0190308 0)
(155.259 -5.5471138 0)
(155.58751 -6.1605174 0)
(156.03058 -6.8572012 0)
(156.62673 -7.6250448 0)
(157.42961 -8.4414924 0)
(158.51561 -9.2566551 0)
(159.93816 -9.9451306 0)
(161.63228 -10.31335 0)
(163.40428 -10.243872 0)
(165.05398 -9.7924474 0)
(166.48647 -9.1123407 0)
(167.72733 -8.3536365 0)
(168.85533 -7.5750248 0)
(169.93071 -6.7696581 0)
(170.99655 -5.9226962 0)
(172.11532 -5.0183294 0)
(173.34769 -3.9702127 0)
(174.68409 -2.6195391 0)
(176.03286 -0.79604751 0)
(177.28227 1.6461388 0)
(178.24497 4.9155035 0)
(178.215 9.3274154 0)
(175.98299 14.535076 0)
(171.15291 18.674783 0)
(165.44355 19.685654 0)
(160.66921 18.753503 0)
(157.13224 16.799789 0)
(154.72271 14.604307 0)
(153.12358 12.49723 0)
(152.07795 10.6104 0)
(151.39325 8.968335 0)
(150.94036 7.5513258 0)
(150.63596 6.3253555 0)
(150.42751 5.2552396 0)
(150.28221 4.3094115 0)
(150.1796 3.4610125 0)
(150.10684 2.6875885 0)
(150.05591 1.9704248 0)
(150.02242 1.293562 0)
(150.00486 0.64189661 0)
(154.44918 -3.3022407 0)
(154.48552 -3.356674 0)
(154.51867 -3.4545556 0)
(154.55835 -3.6033094 0)
(154.60488 -3.8054395 0)
(154.66137 -4.0662382 0)
(154.73286 -4.3925658 0)
(154.82709 -4.7929237 0)
(154.95559 -5.2773975 0)
(155.13607 -5.8576194 0)
(155.39587 -6.5454543 0)
(155.77244 -7.3477106 0)
(156.31061 -8.2600579 0)
(157.07566 -9.2697651 0)
(158.18317 -10.341526 0)
(159.74877 -11.327792 0)
(161.70941 -11.924419 0)
(163.76892 -11.919014 0)
(165.61626 -11.407353 0)
(167.11992 -10.628204 0)
(168.34711 -9.8215794 0)
(169.4433 -9.0578263 0)
(170.49719 -8.2998151 0)
(171.55036 -7.5092655 0)
(172.69261 -6.6866583 0)
(174.04809 -5.7210534 0)
(175.64976 -4.3714298 0)
(177.40806 -2.3761585 0)
(179.22604 0.47500249 0)
(181.00096 4.326675 0)
(181.86787 9.770113 0)
(179.76963 16.835901 0)
(173.45905 22.958847 0)
(165.74647 23.683946 0)
(159.90419 21.828248 0)
(155.95015 18.869604 0)
(153.54168 15.933059 0)
(152.09817 13.330046 0)
(151.24923 11.129251 0)
(150.75032 9.2935219 0)
(150.45538 7.7579949 0)
(150.27891 6.4592264 0)
(150.17159 5.3438287 0)
(150.10503 4.3692409 0)
(150.06289 3.5020115 0)
(150.03575 2.7157256 0)
(150.01815 1.9892758 0)
(150.00716 1.3052384 0)
(150.00155 0.64754205 0)
(154.38532 -3.2264148 0)
(154.36105 -3.2763499 0)
(154.35209 -3.3656585 0)
(154.34549 -3.5056658 0)
(154.3421 -3.7001661 0)
(154.34315 -3.9560689 0)
(154.35203 -4.2822212 0)
(154.37466 -4.6898347 0)
(154.42051 -5.1926661 0)
(154.5053 -5.8074384 0)
(154.65649 -6.5534321 0)
(154.91619 -7.4463631 0)
(155.33502 -8.4870456 0)
(155.98635 -9.6663797 0)
(157.03631 -10.969693 0)
(158.71811 -12.239143 0)
(161.00762 -12.99044 0)
(163.4422 -12.819344 0)
(165.52459 -11.932091 0)
(167.06704 -10.72171 0)
(168.21041 -9.6087377 0)
(169.22024 -8.6682055 0)
(170.23033 -7.7968744 0)
(171.25941 -6.89951 0)
(172.42044 -6.0540332 0)
(173.9375 -5.196044 0)
(175.9035 -4.0102242 0)
(178.21012 -2.1967296 0)
(180.68136 0.51389408 0)
(183.3735 4.0150879 0)
(185.59557 9.8510432 0)
(184.21842 19.14119 0)
(175.99469 28.862678 0)
(165.32563 28.721173 0)
(158.34141 25.418846 0)
(154.09603 21.018273 0)
(151.90623 17.149378 0)
(150.78834 13.997863 0)
(150.25051 11.488963 0)
(150.0081 9.4845508 0)
(149.913 7.8576893 0)
(149.88886 6.5098676 0)
(149.8968 5.3684158 0)
(149.91719 4.3802688 0)
(149.94031 3.5062449 0)
(149.96157 2.7167911 0)
(149.97892 1.9890821 0)
(149.99135 1.3047616 0)
(149.99812 0.64724068 0)
(153.47562 -3.2561433 0)
(153.37706 -3.3298657 0)
(153.30979 -3.4386791 0)
(153.23683 -3.5987941 0)
(153.16067 -3.8142989 0)
(153.08019 -4.0930024 0)
(152.99649 -4.4446985 0)
(152.9128 -4.8820138 0)
(152.83544 -5.4208803 0)
(152.77659 -6.0815733 0)
(152.76202 -6.8904613 0)
(152.83888 -7.8764341 0)
(153.06517 -9.0553795 0)
(153.5126 -10.434096 0)
(154.39403 -12.05706 0)
(156.14056 -13.846323 0)
(158.84971 -15.094562 0)
(161.75876 -14.978285 0)
(164.04125 -13.952278 0)
(165.43469 -12.558976 0)
(166.22819 -11.491825 0)
(166.92115 -10.755746 0)
(167.71743 -10.149299 0)
(168.53754 -9.4729269 0)
(169.45583 -9.0181291 0)
(170.86711 -8.8483488 0)
(172.96927 -8.2920781 0)
(175.65778 -7.0428915 0)
(178.57215 -4.4765423 0)
(182.42925 -0.72728647 0)
(187.15838 7.2307636 0)
(188.24555 20.228463 0)
(177.92812 36.681022 0)
(163.24698 34.969188 0)
(155.5947 29.53603 0)
(151.35119 23.102776 0)
(149.73667 18.092283 0)
(149.1848 14.388254 0)
(149.09723 11.62162 0)
(149.18648 9.5029408 0)
(149.33031 7.8291554 0)
(149.47858 6.4656261 0)
(149.61204 5.3226094 0)
(149.72459 4.3389833 0)
(149.81557 3.4717847 0)
(149.88647 2.6897342 0)
(149.93934 1.9692813 0)
(149.97543 1.2918433 0)
(149.99467 0.6408673 0)
(150.27862 -3.15527 0)
(150.03198 -3.2213459 0)
(149.86064 -3.306008 0)
(149.67255 -3.4358312 0)
(149.47246 -3.6160323 0)
(149.25558 -3.8554393 0)
(149.01943 -4.1649132 0)
(148.76261 -4.5592251 0)
(148.48548 -5.0584061 0)
(148.19176 -5.6900248 0)
(147.89693 -6.4944176 0)
(147.64243 -7.5277637 0)
(147.48317 -8.8431664 0)
(147.45914 -10.471253 0)
(147.78384 -12.5075 0)
(149.20302 -15.035361 0)
(152.18258 -17.053634 0)
(155.43126 -16.589296 0)
(157.58611 -14.746121 0)
(158.3364 -12.183436 0)
(158.23481 -10.348627 0)
(158.16906 -9.1901169 0)
(158.40395 -8.4350208 0)
(158.6025 -7.5247404 0)
(158.71871 -7.0237531 0)
(159.66763 -7.0176133 0)
(161.78112 -5.9947814 0)
(164.94961 -4.8735786 0)
(168.68334 -1.9567604 0)
(175.06206 4.1667687 0)
(184.04686 12.175429 0)
(189.65395 24.095427 0)
(176.92313 49.629295 0)
(157.54552 45.387764 0)
(150.91436 34.317499 0)
(147.40324 24.793048 0)
(146.95732 18.491093 0)
(147.31608 14.349936 0)
(147.83444 11.452158 0)
(148.32309 9.3129379 0)
(148.73401 7.6556629 0)
(149.06588 6.3187865 0)
(149.32881 5.2029554 0)
(149.53445 4.2439418 0)
(149.69303 3.398124 0)
(149.81295 2.6344607 0)
(149.90068 1.9299345 0)
(149.95989 1.2665714 0)
(149.99131 0.62847557 0)
(143.5099 -2.9198278 0)
(143.10987 -3.0121931 0)
(142.7997 -3.1137189 0)
(142.45147 -3.263317 0)
(142.07688 -3.4659031 0)
(141.66672 -3.7316155 0)
(141.21291 -4.0727743 0)
(140.70609 -4.5065446 0)
(140.13585 -5.0566943 0)
(139.49025 -5.7559279 0)
(138.76263 -6.651922 0)
(137.97551 -7.8156678 0)
(137.18231 -9.3207394 0)
(136.39285 -11.17806 0)
(135.76003 -13.444291 0)
(136.50385 -16.540634 0)
(140.14376 -19.65662 0)
(144.25781 -18.174219 0)
(146.43867 -15.446615 0)
(146.26446 -11.967151 0)
(144.63855 -10.768958 0)
(143.25525 -10.900733 0)
(142.6385 -11.37034 0)
(142.04301 -10.884892 0)
(141.1656 -10.369104 0)
(141.99171 -10.532128 9.2157672e-18)
(143.27223 -11.921794 -2.0396713e-19)
(145.57725 -13.589588 0)
(146.66476 -7.4755437 1.0016063e-17)
(144.0282 -14.51005 -7.4990597e-18)
(161.53016 -10.135073 4.4273281e-18)
(180.41243 5.4383806 -9.891634e-18)
(167.93165 72.289485 6.347176e-18)
(142.12824 58.02921 0)
(140.66652 37.126143 0)
(141.63428 24.706917 0)
(143.57067 17.830767 0)
(145.29833 13.692635 0)
(146.55469 10.912845 0)
(147.47727 8.8913026 0)
(148.16032 7.3301375 0)
(148.67269 6.068067 0)
(149.06042 5.0101279 0)
(149.35481 4.0963424 0)
(149.57745 3.2864553 0)
(149.74366 2.5519718 0)
(149.86425 1.8717959 0)
(149.94526 1.2294446 0)
(149.98814 0.61031269 0)
(129.54798 -2.8693156 0)
(128.76407 -2.944659 0)
(128.16036 -3.0084942 0)
(127.48609 -3.1100038 0)
(126.76117 -3.2511112 0)
(125.96657 -3.4389898 0)
(125.08411 -3.6816057 0)