/*--------------------------------*- C++ -*----------------------------------*\
| =========                 |                                                 |
| \\      /  F ield         | foam-extend: Open Source CFD                    |
|  \\    /   O peration     | Version:     4.1                                |
|   \\  /    A nd           | Web:         http://www.foam-extend.org         |
|    \\/     M anipulation  |                                                 |
\*---------------------------------------------------------------------------*/
FoamFile
{
    version     2.0;
    format      ascii;
    class       volVectorField;
    location    "1.05";
    object      U;
}
// * * * * * * * * * * * * * * * * * * * * * * * * * * * * * * * * * * * * * //

dimensions      [0 1 -1 0 0 0 0];

internalField   nonuniform List<vector> 
4393
(
(146.48088 -0.1615031 0)
(147.04889 -0.1675418 0)
(147.47582 -0.17013534 0)
(147.92909 -0.17332297 0)
(148.39066 -0.17721456 0)
(148.86536 -0.18188721 0)
(149.3552 -0.18725372 0)
(149.86211 -0.19315849 0)
(150.38745 -0.19938637 0)
(150.93182 -0.20566531 0)
(151.49498 -0.21166728 0)
(152.07557 -0.21701268 0)
(152.67106 -0.22128085 0)
(153.27758 -0.22402837 0)
(153.88993 -0.22481544 0)
(154.5016 -0.22323744 0)
(155.10496 -0.21895534 0)
(155.69147 -0.21171744 0)
(156.25201 -0.20136697 0)
(156.77708 -0.1878354 0)
(157.25715 -0.17112625 0)
(157.68274 -0.15129777 0)
(158.04466 -0.12845246 0)
(158.33404 -0.10274067 0)
(158.54259 -0.074380316 0)
(158.6628 -0.043687297 0)
(158.68847 -0.011101321 0)
(158.61504 0.022747648 0)
(158.43995 0.056810937 0)
(158.16452 0.089792658 0)
(157.79384 0.12035669 0)
(157.33708 0.14717556 0)
(156.80727 0.16908772 0)
(156.2205 0.18524913 0)
(155.5948 0.19523134 0)
(154.94884 0.19904221 0)
(154.30062 0.19707478 0)
(153.66654 0.19000823 0)
(153.06066 0.17869081 0)
(152.49443 0.1640298 0)
(151.97664 0.14690427 0)
(151.51362 0.12810584 0)
(151.10958 0.10830674 0)
(150.76698 0.088062007 0)
(150.48694 0.067860397 0)
(150.26975 0.048147924 0)
(150.1146 0.029090623 0)
(150.01771 0.010523357 0)
(149.97317 -0.003786509 0)
(149.90002 -0.40989707 0)
(150.38873 -0.41977588 0)
(150.74765 -0.42664885 0)
(151.12974 -0.43582534 0)
(151.51997 -0.44740016 0)
(151.92324 -0.46138625 0)
(152.34172 -0.47748699 0)
(152.77744 -0.49522879 0)
(153.23184 -0.51397052 0)
(153.70561 -0.53290329 0)
(154.19857 -0.55105068 0)
(154.70945 -0.56728011 0)
(155.23578 -0.58033265 0)
(155.7737 -0.58887685 0)
(156.318 -0.59158755 0)
(156.86211 -0.58724171 0)
(157.3983 -0.57481195 0)
(157.91792 -0.55353428 0)
(158.4117 -0.52293275 0)
(158.87006 -0.48279963 0)
(159.28335 -0.43314685 0)
(159.64203 -0.37415392 0)
(159.93681 -0.30613773 0)
(160.15875 -0.22956688 0)
(160.29942 -0.14512815 0)
(160.35118 -0.053841059 0)
(160.30757 0.042825162 0)
(160.16408 0.14282497 0)
(159.91908 0.24331149 0)
(159.57353 0.34074564 0)
(159.13228 0.43120358 0)
(158.60432 0.51072466 0)
(158.0027 0.57581036 0)
(157.34364 0.62389416 0)
(156.64542 0.65364368 0)
(155.92693 0.66502703 0)
(155.20638 0.65916095 0)
(154.50026 0.63801504 0)
(153.82266 0.60406194 0)
(153.18495 0.55994856 0)
(152.59585 0.50823425 0)
(152.06155 0.45121117 0)
(151.58618 0.39080444 0)
(151.17216 0.32856329 0)
(150.82065 0.26576166 0)
(150.53179 0.20342199 0)
(150.30455 0.14186651 0)
(150.13765 0.080744339 0)
(150.03459 0.026729257 0)
(150.16995 -0.65418445 0)
(150.6427 -0.66157276 0)
(150.99002 -0.67168555 0)
(151.35964 -0.68640883 0)
(151.73749 -0.7055596 0)
(152.12859 -0.72887649 0)
(152.53522 -0.75580551 0)
(152.95955 -0.7855406 0)
(153.40313 -0.81701117 0)
(153.86683 -0.8488684 0)
(154.35062 -0.87947991 0)
(154.85339 -0.90694524 0)
(155.37278 -0.92914331 0)
(155.90506 -0.943822 0)
(156.44503 -0.94873302 0)
(156.98609 -0.9417992 0)
(157.5204 -0.9212801 0)
(158.03916 -0.88589223 0)
(158.53297 -0.83485085 0)
(158.99212 -0.7678305 0)
(159.40687 -0.68487295 0)
(159.76764 -0.58628861 0)
(160.06507 -0.47259822 0)
(160.29009 -0.34455396 0)
(160.43406 -0.20325684 0)
(160.48896 -0.050376558 0)
(160.44791 0.11159232 0)
(160.30551 0.27918397 0)
(160.05884 0.4477696 0)
(159.70832 0.61154174 0)
(159.25852 0.76382987 0)
(158.71864 0.89782956 0)
(158.10234 1.0075065 0)
(157.42682 1.088444 0)
(156.71152 1.1383797 0)
(155.97642 1.1573131 0)
(155.24065 1.1472222 0)
(154.5213 1.1115318 0)
(153.83276 1.0544959 0)
(153.18646 0.98062814 0)
(152.59094 0.8942548 0)
(152.05211 0.79921531 0)
(151.57375 0.69870159 0)
(151.15797 0.59523474 0)
(150.80565 0.49075896 0)
(150.5165 0.38664353 0)
(150.28903 0.28345926 0)
(150.12378 0.18119541 0)
(150.02856 0.084323463 0)
(150.26724 -0.89255262 0)
(150.73196 -0.89979601 0)
(151.07465 -0.91324814 0)
(151.43947 -0.93368642 0)
(151.81279 -0.96067154 0)
(152.19975 -0.99369467 0)
(152.60284 -1.0319496 0)
(153.02439 -1.0743124 0)
(153.4662 -1.1193005 0)
(153.92936 -1.1650391 0)
(154.41407 -1.2092449 0)
(154.91942 -1.2492396 0)
(155.44323 -1.2820114 0)
(155.9818 -1.3043388 0)
(156.52988 -1.3129856 0)
(157.08068 -1.304952 0)
(157.62604 -1.2777287 0)
(158.15676 -1.2294825 0)
(158.66305 -1.1591186 0)
(159.13486 -1.0662112 0)
(159.5622 -0.95085109 0)
(159.93527 -0.81348059 0)
(160.24455 -0.65479165 0)
(160.48072 -0.47574388 0)
(160.63477 -0.27773044 0)
(160.6981 -0.062902499 0)
(160.66309 0.16542783 0)
(160.52339 0.40245764 0)
(160.2751 0.64159805 0)
(159.9178 0.87447419 0)
(159.45568 1.0913706 0)
(158.89817 1.2822715 0)
(158.25991 1.4382553 0)
(157.55967 1.5528192 0)
(156.81869 1.6227072 0)
(156.05873 1.6480512 0)
(155.3003 1.6319059 0)
(154.56143 1.579414 0)
(153.85697 1.4968669 0)
(153.19837 1.3908586 0)
(152.59389 1.2676411 0)
(152.049 1.1327098 0)
(151.56693 0.99059879 0)
(151.1493 0.84485775 0)
(150.79648 0.69814344 0)
(150.50766 0.55225669 0)
(150.28106 0.4083056 0)
(150.11795 0.26690785 0)
(150.02642 0.13068695 0)
(150.38218 -1.1256934 0)
(150.8389 -1.1337532 0)
(151.17636 -1.1506509 0)
(151.53593 -1.1769085 0)
(151.90441 -1.2118971 0)
(152.28705 -1.2548996 0)
(152.68656 -1.3048699 0)
(153.10555 -1.3603753 0)
(153.54609 -1.4195273 0)
(154.00958 -1.4799243 0)
(154.49652 -1.5386179 0)
(155.00631 -1.5921192 0)
(155.53696 -1.6364693 0)
(156.08489 -1.6673949 0)
(156.64475 -1.6805719 0)
(157.20945 -1.6719782 0)
(157.77039 -1.6382643 0)
(158.31781 -1.5770262 0)
(158.84134 -1.4868915 0)
(159.33049 -1.367405 0)
(159.77493 -1.2187854 0)
(160.16463 -1.0416648 0)
(160.48988 -0.83691949 0)
(160.74113 -0.60567477 0)
(160.90891 -0.34952358 0)
(160.9839 -0.070971165 0)
(160.95747 0.2259913 0)
(160.82196 0.53539901 0)
(160.57201 0.84876193 0)
(160.20595 1.1549688 0)
(159.72726 1.4408458 0)
(159.14568 1.6926047 0)
(158.47722 1.8978893 0)
(157.74289 2.0477468 0)
(156.96657 2.1378345 0)
(156.17252 2.1685777 0)
(155.38322 2.1444312 0)
(154.61797 2.0726344 0)
(153.89216 1.9618608 0)
(153.21722 1.8210448 0)
(152.60095 1.6585212 0)
(152.04816 1.4814998 0)
(151.56133 1.2958313 0)
(151.14133 1.1059993 0)
(150.78788 0.9152328 0)
(150.49956 0.72562377 0)
(150.27435 0.53857313 0)
(150.11376 0.35472345 0)
(150.02512 0.17559383 0)
(150.5271 -1.356223 0)
(150.97392 -1.3656486 0)
(151.30467 -1.3862288 0)
(151.65759 -1.4185808 0)
(152.01993 -1.4619526 0)
(152.39709 -1.5154758 0)
(152.79204 -1.5779026 0)
(153.2077 -1.6475248 0)
(153.64651 -1.7220747 0)
(154.11025 -1.7986384 0)
(154.59987 -1.8735968 0)
(155.11514 -1.9426171 0)
(155.65437 -2.0007217 0)
(156.21413 -2.0424729 0)
(156.78899 -2.0623099 0)
(157.37149 -2.0550323 0)
(157.95238 -2.0163275 0)
(158.52115 -1.9431676 0)
(159.06669 -1.8339279 0)
(159.57788 -1.6882019 0)
(160.04398 -1.5064231 0)
(160.45474 -1.2894633 0)
(160.8003 -1.0383624 0)
(161.07086 -0.75430452 0)
(161.25645 -0.43889449 0)
(161.34689 -0.094753613 0)
(161.33223 0.27367674 0)
(161.20305 0.65935554 0)
(160.95197 1.0518704 0)
(160.57547 1.4371216 0)
(160.07592 1.7979012 0)
(159.46332 2.1158362 0)
(158.75555 2.3743328 0)
(157.97675 2.561466 0)
(157.15446 2.6717063 0)
(156.31636 2.7060532 0)
(155.48757 2.6708784 0)
(154.68896 2.5761047 0)
(153.93654 2.4333186 0)
(153.24158 2.254203 0)
(152.61119 2.049444 0)
(152.04922 1.8281098 0)
(151.5571 1.597413 0)
(151.13468 1.3627444 0)
(150.78076 1.1278426 0)
(150.49319 0.89501395 0)
(150.26954 0.66572982 0)
(150.1111 0.44016201 0)
(150.02439 0.21880072 0)
(150.70266 -1.5777081 0)
(151.13806 -1.5888065 0)
(151.46061 -1.6133515 0)
(151.80533 -1.6521527 0)
(152.16004 -1.7043655 0)
(152.53034 -1.7690135 0)
(152.91949 -1.8446862 0)
(153.33079 -1.9294369 0)
(153.76712 -2.0206508 0)
(154.23078 -2.1149212 0)
(154.72324 -2.2079555 0)
(155.24478 -2.2945399 0)
(155.79415 -2.3685953 0)
(156.36815 -2.4233791 0)
(156.96128 -2.451903 0)
(157.5656 -2.4475817 0)
(158.17104 -2.4049821 0)
(158.76605 -2.3204018 0)
(159.3385 -2.1920341 0)
(159.8765 -2.0196755 0)
(160.36884 -1.8041439 0)
(160.8051 -1.5466683 0)
(161.17531 -1.2484703 0)
(161.46956 -0.91068505 0)
(161.67738 -0.5346972 0)
(161.78757 -0.12291973 0)
(161.78854 0.32010233 0)
(161.66862 0.78658037 0)
(161.41766 1.264289 0)
(161.02944 1.7358643 0)
(160.50458 2.1792977 0)
(159.85322 2.5704709 0)
(159.09568 2.8873693 0)
(158.26042 3.1143301 0)
(157.37998 3.2444987 0)
(156.48661 3.2798592 0)
(155.60882 3.2294222 0)
(154.76944 3.1065766 0)
(153.98508 2.926495 0)
(153.26658 2.7040911 0)
(152.62005 2.452687 0)
(152.048 2.1833297 0)
(151.55046 1.904599 0)
(151.126 1.6227316 0)
(150.77228 1.3418993 0)
(150.48623 1.0645602 0)
(150.2648 0.79217023 0)
(150.10877 0.52439661 0)
(150.02381 0.26100618 0)
(150.90823 -1.7980109 0)
(151.32963 -1.8108508 0)
(151.64236 -1.8394287 0)
(151.97726 -1.8848335 0)
(152.32278 -1.9461785 0)
(152.68472 -2.022435 0)
(153.06672 -2.1120869 0)
(153.47248 -2.2130079 0)
(153.90544 -2.3222899 0)
(154.36851 -2.4360731 0)
(154.86382 -2.5494032 0)
(155.39234 -2.6561535 0)
(155.95341 -2.7490494 0)
(156.5442 -2.8198681 0)
(157.15915 -2.8599332 0)
(157.78977 -2.8609759 0)
(158.42487 -2.8162014 0)
(159.0515 -2.7211433 0)
(159.6562 -2.5739028 0)
(160.22609 -2.3746906 0)
(160.74945 -2.1249414 0)
(161.21576 -1.8263995 0)
(161.61516 -1.4804887 0)
(161.93775 -1.0881467 0)
(162.17269 -0.6502205 0)
(162.30766 -0.16846679 0)
(162.32911 0.35296008 0)
(162.22254 0.9058979 0)
(161.97402 1.4765083 0)
(161.57351 2.0439022 0)
(161.01886 2.5802886 0)
(160.32005 3.0541763 0)
(159.50061 3.4364207 0)
(158.59485 3.706542 0)
(157.64216 3.8562383 0)
(156.68087 3.8891507 0)
(155.74377 3.8180062 0)
(154.85594 3.66077 0)
(154.03444 3.4371077 0)
(153.28933 3.1657776 0)
(152.62521 2.8630699 0)
(152.04274 2.5421191 0)
(151.54019 2.2128269 0)
(151.11446 1.882141 0)
(150.76184 1.5544935 0)
(150.4782 1.2323022 0)
(150.2597 0.91680546 0)
(150.10643 0.60707309 0)
(150.02326 0.30227186 0)
(151.14313 -2.0029845 0)
(151.54908 -2.0178222 0)
(151.85044 -2.0508767 0)
(152.17379 -2.1034993 0)
(152.50841 -2.1747731 0)
(152.86032 -2.2636631 0)
(153.23354 -2.368607 0)
(153.63229 -2.4873641 0)
(154.06062 -2.6167982 0)
(154.5222 -2.7526471 0)
(155.02 -2.8893144 0)
(155.55586 -3.019729 0)
(156.12993 -3.1353133 0)
(156.73993 -3.2261458 0)
(157.38038 -3.2815161 0)
(158.04208 -3.2910523 0)
(158.71239 -3.2462511 0)
(159.3765 -3.1417621 0)
(160.01914 -2.9757518 0)
(160.62616 -2.7491914 0)
(161.18532 -2.4645094 0)
(161.68617 -2.1242347 0)
(162.11926 -1.7300695 0)
(162.47503 -1.2825957 0)
(162.74246 -0.78172377 0)
(162.90812 -0.22795668 0)
(162.95612 0.37563453 0)
(162.86846 1.0211865 0)
(162.62624 1.6936989 0)
(162.21395 2.3685831 0)
(161.6251 3.0110361 0)
(160.8689 3.5798945 0)
(159.97303 4.0363551 0)
(158.97989 4.3535482 0)
(157.93822 4.521625 0)
(156.8944 4.5469268 0)
(155.88658 4.4474533 0)
(154.94231 4.2472563 0)
(154.07877 3.9716566 0)
(153.30461 3.6439905 0)
(152.62222 3.283871 0)
(152.02986 2.9066016 0)
(151.52347 2.5233195 0)
(151.09794 2.1415156 0)
(150.74794 1.7656885 0)
(150.46807 1.3980182 0)
(150.25358 1.0393378 0)
(150.10373 0.68800876 0)
(150.02265 0.3425555 0)
(151.40727 -2.2108073 0)
(151.79433 -2.2275909 0)
(152.08243 -2.2650247 0)
(152.39235 -2.3248228 0)
(152.71421 -2.4061038 0)
(153.05423 -2.507895 0)
(153.41685 -2.628669 0)
(153.80687 -2.7661655 0)
(154.22905 -2.9171199 0)
(154.68796 -3.0769579 0)
(155.1876 -3.2394996 0)
(155.73094 -3.396731 0)
(156.31921 -3.5386838 0)
(156.95099 -3.6535046 0)
(157.62103 -3.7280191 0)
(158.31933 -3.7491805 0)
(159.03135 -3.7062772 0)
(159.73968 -3.5929031 0)
(160.42662 -3.4075344 0)
(161.0764 -3.1524212 0)
(161.67626 -2.8315306 0)
(162.21611 -2.4485501 0)
(162.68738 -2.005562 0)
(163.08133 -1.5025795 0)
(163.38715 -0.93804072 0)
(163.5904 -0.31037986 0)
(163.67255 0.37938698 0)
(163.61138 1.1246146 0)
(163.38147 1.9099091 0)
(162.95957 2.707044 0)
(162.33246 3.4727527 0)
(161.50737 4.1529682 0)
(160.51735 4.695457 0)
(159.4161 5.0646633 0)
(158.26528 5.2492177 0)
(157.12193 5.2598356 0)
(156.0308 5.1220756 0)
(155.02191 4.8681433 0)
(154.11193 4.5304889 0)
(153.30717 4.1378613 0)
(152.60687 3.713519 0)
(152.0061 3.274917 0)
(151.49789 2.8342241 0)
(151.07475 2.3991952 0)
(150.72941 1.9741099 0)
(150.45507 1.5606507 0)
(150.24595 1.1590337 0)
(150.10045 0.76678291 0)
(150.02191 0.38168205 0)
(151.6984 -2.3918805 0)
(152.06572 -2.4107459 0)
(152.33899 -2.4529942 0)
(152.63365 -2.5206481 0)
(152.94082 -2.6128706 0)
(153.26696 -2.7288163 0)
(153.61696 -2.8670856 0)
(153.99621 -3.0255121 0)
(154.41031 -3.2008284 0)
(154.86489 -3.3882681 0)
(155.3652 -3.5811517 0)
(155.91562 -3.7705407 0)
(156.51885 -3.9449867 0)
(157.17474 -4.0904248 0)
(157.8786 -4.1906349 0)
(158.61956 -4.2290424 0)
(159.38056 -4.1919244 0)
(160.14062 -4.0715001 0)
(160.87867 -3.8668888 0)
(161.5769 -3.5823846 0)
(162.22206 -3.2242999 0)
(162.80492 -2.7980449 0)
(163.31845 -2.3062905 0)
(163.75549 -1.7482909 0)
(164.10603 -1.1203944 0)
(164.35492 -0.41794601 0)
(164.48073 0.36138421 0)
(164.45626 1.2135222 0)
(164.24769 2.1239763 0)
(163.82098 3.0614088 0)
(163.15235 3.9725111 0)
(162.24492 4.7857625 0)
(161.13863 5.4297381 0)
(159.90323 5.856744 0)
(158.6185 6.0542069 0)
(157.35565 6.0399017 0)
(156.16732 5.8503096 0)
(155.08573 5.5285953 0)
(154.12585 5.116169 0)
(153.29025 4.6480995 0)
(152.57381 4.1515293 0)
(151.96742 3.6459049 0)
(151.46054 3.1440795 0)
(151.04283 2.6536747 0)
(150.70488 2.1783755 0)
(150.43835 1.7190456 0)
(150.23634 1.2750305 0)
(150.09638 0.84284682 0)
(150.02101 0.41939139 0)
(152.01812 -2.5862981 0)
(152.36088 -2.6074557 0)
(152.61705 -2.6545649 0)
(152.89419 -2.730097 0)
(153.18439 -2.8333462 0)
(153.49425 -2.9636758 0)
(153.82913 -3.1199188 0)
(154.19505 -3.3001348 0)
(154.59854 -3.5012098 0)
(155.04644 -3.7183484 0)
(155.54556 -3.9445071 0)
(156.10202 -4.1698918 0)
(156.72048 -4.3815396 0)
(157.4027 -4.5629228 0)
(158.14508 -4.6940963 0)
(158.93595 -4.7538105 0)
(159.75488 -4.7241832 0)
(160.57589 -4.595646 0)
(161.3732 -4.3685911 0)
(162.12622 -4.0506469 0)
(162.82139 -3.6517595 0)
(163.45102 -3.1799102 0)
(164.01059 -2.6386556 0)
(164.49555 -2.0262303 0)
(164.89765 -1.3360381 0)
(165.20157 -0.55890923 0)
(165.38288 0.31265385 0)
(165.40871 1.279083 0)
(165.23472 2.3288094 0)
(164.81194 3.4287936 0)
(164.10025 4.5142944 0)
(163.0946 5.4899967 0)
(161.84376 6.2563004 0)
(160.44077 6.7480374 0)
(158.99127 6.9524304 0)
(157.58527 6.8986741 0)
(156.28461 6.6391522 0)
(155.12273 6.2317601 0)
(154.11096 5.7290651 0)
(153.24614 5.173336 0)
(152.51714 4.5956304 0)
(151.9095 4.0169794 0)
(151.40838 3.4503568 0)
(151.00015 2.9026905 0)
(150.67305 2.3765878 0)
(150.4171 1.8717088 0)
(150.22432 1.3862432 0)
(150.09133 0.91550622 0)
(150.01989 0.45534705 0)
(152.36015 -2.7334164 0)
(152.67872 -2.7563676 0)
(152.9163 -2.8081884 0)
(153.17403 -2.8916915 0)
(153.44519 -3.0063067 0)
(153.73653 -3.151699 0)
(154.05384 -3.3270784 0)
(154.40383 -3.5309227 0)
(154.79398 -3.7605096 0)
(155.23257 -4.0112834 0)
(155.72819 -4.2760879 0)
(156.28915 -4.5444547 0)
(156.92265 -4.801984 0)
(157.63318 -5.0295194 0)
(158.41917 -5.202596 0)
(159.26839 -5.2936245 0)
(160.15594 -5.2786657 0)
(161.04866 -5.1454896 0)
(161.91399 -4.8964995 0)
(162.72772 -4.5443785 0)
(163.47632 -4.1043348 0)
(164.15476 -3.5878577 0)
(164.76249 -2.99964 0)
(165.29903 -2.3365919 0)
(165.75933 -1.5882538 0)
(166.12878 -0.73933668 0)
(166.38009 0.22498 0)
(166.47412 1.312146 0)
(166.35371 2.5163633 0)
(165.94967 3.8057211 0)
(165.19661 5.1035358 0)
(164.07403 6.2820291 0)
(162.64157 7.1990811 0)
(161.02705 7.7634409 0)
(159.37368 7.9646536 0)
(157.79648 7.8504613 0)
(156.36741 7.4965605 0)
(155.11891 6.9805716 0)
(154.05561 6.3687275 0)
(153.16579 5.7111788 0)
(152.43018 5.0425535 0)
(151.82764 4.3846895 0)
(151.33821 3.7498265 0)
(150.94462 3.1434386 0)
(150.63262 2.5664486 0)
(150.39058 2.0168604 0)
(150.2095 1.491388 0)
(150.08516 0.98393753 0)
(150.01853 0.489147 0)
(152.73107 -2.9152906 0)
(153.01874 -2.9412124 0)
(153.23504 -2.9986467 0)
(153.47074 -3.0909456 0)
(153.72011 -3.2177966 0)
(153.9899 -3.3792747 0)
(154.28626 -3.5751046 0)
(154.61653 -3.8043576 0)
(154.98927 -4.0649255 0)
(155.41428 -4.3527556 0)
(155.90232 -4.6608295 0)
(156.46435 -4.9781689 0)
(157.11082 -5.2890058 0)
(157.85017 -5.571415 0)
(158.68445 -5.7954469 0)
(159.60162 -5.9247432 0)
(160.57098 -5.9262619 0)
(161.54898 -5.7837028 0)
(162.49323 -5.5028997 0)
(163.37457 -5.104765 0)
(164.18016 -4.6128048 0)
(164.90925 -4.0439059 0)
(165.567 -3.4047511 0)
(166.15889 -2.6909996 0)
(166.68481 -1.8874191 0)
(167.13228 -0.97041263 0)
(167.47169 0.085397897 0)
(167.65737 1.2983977 0)
(167.61739 2.6729937 0)
(167.25607 4.1836282 0)
(166.46935 5.7436539 0)
(165.20791 7.1815157 0)
(163.54402 8.2892056 0)
(161.65874 8.9347758 0)
(159.75133 9.1160435 0)
(157.96974 8.9110178 0)
(156.39589 8.4297756 0)
(155.05696 7.7760969 0)
(153.94605 7.0324922 0)
(153.03897 6.2571558 0)
(152.30573 5.4873009 0)
(151.71696 4.7442561 0)
(151.24686 4.0382942 0)
(150.87426 3.3724426 0)
(150.58238 2.7452057 0)
(150.3581 2.1524218 0)
(150.19153 1.5889903 0)
(150.07772 1.0472008 0)
(150.0169 0.52033293 0)
(153.116 -3.0155152 0)
(153.37498 -3.0424333 0)
(153.56866 -3.1038176 0)
(153.78044 -3.2033199 0)
(154.00581 -3.3408263 0)
(154.25154 -3.5168929 0)
(154.52407 -3.7319127 0)
(154.83137 -3.985794 0)
(155.18302 -4.2774003 0)
(155.59055 -4.6036715 0)
(156.06721 -4.9582962 0)
(156.62713 -5.3303191 0)
(157.28479 -5.7031202 0)
(158.05413 -6.0524989 0)
(158.9432 -6.3425754 0)
(159.94176 -6.5253208 0)
(161.01154 -6.5540642 0)
(162.09345 -6.406147 0)
(163.13015 -6.0929961 0)
(164.0856 -5.6483472 0)
(164.9489 -5.1076645 0)
(165.72617 -4.494446 0)
(166.43093 -3.8168739 0)
(167.0773 -3.068147 0)
(167.67301 -2.2263421 0)
(168.2102 -1.2564114 0)
(168.65823 -0.11853099 0)
(168.96235 1.2207254 0)
(169.03969 2.779843 0)
(168.75868 4.5482268 0)
(167.95681 6.4358017 0)
(166.53168 8.2138524 0)
(164.56743 9.5699022 0)
(162.32941 10.304819 0)
(160.1028 10.438344 0)
(158.07801 10.098049 0)
(156.34424 9.4449601 0)
(154.91555 8.6169194 0)
(153.76622 7.7149309 0)
(152.85439 6.8043356 0)
(152.13623 5.9229308 0)
(151.57261 5.0894739 0)
(151.13135 4.3105736 0)
(150.78728 3.5855635 0)
(150.52134 2.9096798 0)
(150.31913 2.2760466 0)
(150.17015 1.6774119 0)
(150.06892 1.1042621 0)
(150.01498 0.54840266 0)
(153.53266 -3.1880811 0)
(153.7539 -3.2191646 0)
(153.92213 -3.287211 0)
(154.10734 -3.3965 0)
(154.30588 -3.5473547 0)
(154.52421 -3.7410452 0)
(154.76891 -3.9789126 0)
(155.04836 -4.2620386 0)
(155.37309 -4.5906712 0)
(155.75639 -4.9632652 0)
(156.21425 -5.3747904 0)
(156.76452 -5.8147349 0)
(157.42648 -6.2658982 0)
(158.22143 -6.7022048 0)
(159.16729 -7.0812241 0)
(160.25922 -7.3384498 0)
(161.44962 -7.4049013 0)
(162.65624 -7.2460424 0)
(163.79914 -6.8814378 0)
(164.8331 -6.364949 0)
(165.75197 -5.7502995 0)
(166.57305 -5.070482 0)
(167.3216 -4.3364359 0)
(168.02311 -3.5403138 0)
(168.69627 -2.654688 0)
(169.34053 -1.6318836 0)
(169.92517 -0.41379337 0)
(170.38809 1.0530163 0)
(170.63395 2.8091968 0)
(170.49142 4.8747631 0)
(169.71226 7.1745024 0)
(168.09757 9.4107839 0)
(165.73498 11.102522 0)
(163.02727 11.931666 0)
(160.39609 11.97131 0)
(158.08386 11.430315 0)
(156.1791 10.545456 0)
(154.66885 9.4974557 0)
(153.49792 8.4065959 0)
(152.60005 7.3425352 0)
(151.91421 6.3401268 0)
(151.39018 5.4125216 0)
(150.98916 4.5604353 0)
(150.68236 3.7780188 0)
(150.44881 3.0563095 0)
(150.27335 2.3851702 0)
(150.14524 1.7548947 0)
(150.05871 1.1540245 0)
(150.01275 0.5728263 0)
(153.94558 -3.2249637 0)
(154.13381 -3.2556685 0)
(154.27539 -3.326087 0)
(154.43196 -3.4407295 0)
(154.60107 -3.6001386 0)
(154.78884 -3.8062078 0)
(155.00185 -4.0611902 0)
(155.2488 -4.3673804 0)
(155.54104 -4.7265924 0)
(155.89365 -5.1392546 0)
(156.32584 -5.6024151 0)
(156.85987 -6.1068969 0)
(157.52056 -6.6358663 0)
(158.33868 -7.1632596 0)
(159.34786 -7.6420409 0)
(160.55548 -7.9872961 0)
(161.90315 -8.0960545 0)
(163.27272 -7.9147687 0)
(164.54805 -7.4783016 0)
(165.67037 -6.8750288 0)
(166.64259 -6.1875745 0)
(167.49926 -5.4607569 0)
(168.28112 -4.7063515 0)
(169.02783 -3.9127712 0)
(169.77369 -3.0436377 0)
(170.53134 -2.0307449 0)
(171.27394 -0.78600472 0)
(171.93468 0.77498193 0)
(172.41163 2.7233314 0)
(172.49348 5.1229167 0)
(171.80914 7.9427358 0)
(169.98469 10.812773 0)
(167.08072 12.978641 0)
(163.73069 13.896101 0)
(160.58273 13.764793 0)
(157.9352 12.926076 0)
(155.85766 11.729267 0)
(154.28621 10.4058 0)
(153.12122 9.0925965 0)
(152.26397 7.8575476 0)
(151.63293 6.7268693 0)
(151.16612 5.7038848 0)
(150.81862 4.780652 0)
(150.55877 3.9444717 0)
(150.36455 3.1812466 0)
(150.22071 2.4770926 0)
(150.1168 1.8196237 0)
(150.0471 1.1953707 0)
(150.01022 0.59306763 0)
(154.39049 -3.3945104 0)
(154.53338 -3.4320854 0)
(154.64534 -3.5110929 0)
(154.77081 -3.6367155 0)
(154.90792 -3.8100713 0)
(155.06199 -4.0341101 0)
(155.23934 -4.3125787 0)
(155.44863 -4.6497609 0)
(155.70163 -5.0500539 0)
(156.01477 -5.5172459 0)
(156.41045 -6.0523082 0)
(156.91573 -6.6492166 0)
(157.56112 -7.2927071 0)
(158.38804 -7.9588272 0)
(159.45372 -8.5993814 0)
(160.79067 -9.1033314 0)
(162.3304 -9.3098963 0)
(163.899 -9.1258245 0)
(165.32238 -8.6061818 0)
(166.52351 -7.8917458 0)
(167.52492 -7.1065832 0)
(168.39081 -6.3063314 0)
(169.18387 -5.4989098 0)
(169.96161 -4.6676433 0)
(170.78039 -3.7716025 0)
(171.67418 -2.7246191 0)
(172.62302 -1.4088292 0)
(173.55328 0.28719925 0)
(174.35925 2.4605095 0)
(174.79912 5.2356569 0)
(174.34304 8.7024135 0)
(172.31198 12.464125 0)
(168.65459 15.335953 0)
(164.39875 16.310253 0)
(160.58845 15.880051 0)
(157.55956 14.599399 0)
(155.32582 12.984769 0)
(153.73247 11.320566 0)
(152.61562 9.7507874 0)
(151.83529 8.3303222 0)
(151.28729 7.0681961 0)
(150.89849 5.9524009 0)
(150.61929 4.96315 0)
(150.4167 4.0792015 0)
(150.26892 3.2805058 0)
(150.16154 2.5490949 0)
(150.08503 1.8698112 0)
(150.03418 1.2272168 0)
(150.00741 0.60861029 0)
(154.78173 -3.3483697 0)
(154.88618 -3.383043 0)
(154.96749 -3.4605726 0)
(155.05955 -3.5869736 0)
(155.16143 -3.7638555 0)
(155.27748 -3.9951297 0)
(155.4134 -4.2858191 0)
(155.57744 -4.6418503 0)
(155.78131 -5.0697199 0)
(156.04232 -5.5761259 0)
(156.38623 -6.165976 0)
(156.8461 -6.8366834 0)
(157.45869 -7.5741114 0)
(158.27666 -8.3578468 0)
(159.39181 -9.1469564 0)
(160.8865 -9.8048538 0)
(162.6897 -10.080417 0)
(164.53897 -9.8104445 0)
(166.16286 -9.092665 0)
(167.45695 -8.1642001 0)
(168.48086 -7.2223366 0)
(169.34663 -6.3351192 0)
(170.14342 -5.5025219 0)
(170.94372 -4.7036469 0)
(171.82826 -3.9033162 0)
(172.86121 -2.9967527 0)
(174.03279 -1.8154601 0)
(175.26404 -0.19400203 0)
(176.45252 2.0402969 0)
(177.40298 5.1158654 0)
(177.40093 9.346425 0)
(175.23915 14.387538 0)
(170.52546 18.394537 0)
(164.95324 19.339786 0)
(160.29925 18.39304 0)
(156.85645 16.453687 0)
(154.51678 14.283997 0)
(152.96934 12.206642 0)
(151.96206 10.34974 0)
(151.30613 8.7363085 0)
(150.87515 7.3462187 0)
(150.58767 6.1455264 0)
(150.39243 5.0993216 0)
(150.25751 4.1763768 0)
(150.16302 3.3501769 0)
(150.09656 2.5985934 0)
(150.05035 1.903801 0)
(150.02013 1.2485767 0)
(150.00435 0.61898873 0)
(155.11103 -3.5167299 0)
(155.15983 -3.5663417 0)
(155.20518 -3.6584794 0)
(155.25862 -3.8004994 0)
(155.31963 -3.994445 0)
(155.39115 -4.245274 0)
(155.47804 -4.5595145 0)
(155.58784 -4.9453249 0)
(155.73164 -5.412464 0)
(155.92673 -5.9726929 0)
(156.20143 -6.6389893 0)
(156.59522 -7.4186316 0)
(157.15013 -8.3046339 0)
(157.92508 -9.286482 0)
(159.05485 -10.349709 0)
(160.71262 -11.347386 0)
(162.84729 -11.881855 0)
(165.05297 -11.637631 0)
(166.89192 -10.772606 0)
(168.22202 -9.6701057 0)
(169.1779 -8.6378717 0)
(169.95479 -7.7361922 0)
(170.67471 -6.935853 0)
(171.41864 -6.1950405 0)
(172.29905 -5.4843099 0)
(173.43929 -4.6709722 0)
(174.8604 -3.4925811 0)
(176.49191 -1.7243077 0)
(178.25642 0.88764167 0)
(180.0331 4.5147977 0)
(180.93911 9.7527143 0)
(178.92428 16.623688 0)
(172.76093 22.580038 0)
(165.22818 23.240752 0)
(159.53278 21.388827 0)
(155.68574 18.465793 0)
(153.35076 15.571225 0)
(151.95879 13.00952 0)
(151.14643 10.846734 0)
(150.67406 9.0452466 0)
(150.39883 7.5405817 0)
(150.23732 6.2699266 0)
(150.14152 5.1805407 0)
(150.08392 4.2304476 0)
(150.04876 3.3867026 0)
(150.02699 2.6233269 0)
(150.01342 1.9201891 0)
(150.00522 1.2586338 0)
(150.00112 0.62382206 0)
(155.02676 -3.3769335 0)
(155.01565 -3.4197532 0)
(155.01786 -3.4998915 0)
(155.02387 -3.6291269 0)
(155.03408 -3.8108146 0)
(155.04959 -4.0516269 0)
(155.07362 -4.3601803 0)
(155.1119 -4.7474959 0)
(155.17324 -5.2271431 0)
(155.27227 -5.8161205 0)
(155.43707 -6.5356421 0)
(155.71328 -7.4034842 0)
(156.14852 -8.4164275 0)
(156.79939 -9.5628924 0)
(157.8488 -10.863663 0)
(159.63624 -12.195256 0)
(162.19992 -12.933499 0)
(164.90202 -12.451108 0)
(167.01116 -11.054872 0)
(168.3286 -9.4028997 0)
(169.13296 -8.0219548 0)
(169.76357 -6.9248167 0)
(170.37906 -6.0250486 0)
(171.05243 -5.2358313 0)
(171.92585 -4.5601724 0)
(173.22 -3.9257481 0)
(174.98696 -2.9443366 0)
(177.14563 -1.438154 0)
(179.57309 0.95431485 0)
(182.29026 4.1902954 0)
(184.56578 9.8005715 0)
(183.27734 18.859215 0)
(175.23094 28.356216 0)
(164.79734 28.160026 0)
(157.98483 24.887701 0)
(153.85697 20.552202 0)
(151.74029 16.745877 0)
(150.67059 13.648926 0)
(150.16528 11.186566 0)
(149.94565 9.2219392 0)
(149.86706 7.6296466 0)
(149.85524 6.3125068 0)
(149.87257 5.1989182 0)
(149.90022 4.2366576 0)
(149.92897 3.3872115 0)
(149.95454 2.6215675 0)
(149.97512 1.9179532 0)
(149.98979 1.2568155 0)
(149.99777 0.62284859 0)
(154.0867 -3.4968605 0)
(153.98984 -3.5717978 0)
(153.92957 -3.6787284 0)
(153.86498 -3.8360346 0)
(153.79812 -4.0476163 0)
(153.72751 -4.3212282 0)
(153.65397 -4.6664465 0)
(153.58044 -5.0956138 0)
(153.5124 -5.6241467 0)
(153.46005 -6.271812 0)
(153.44888 -7.0664643 0)
(153.53193 -8.0406033 0)
(153.76719 -9.2056279 0)
(154.19289 -10.556062 0)
(155.01665 -12.188135 0)
(156.8479 -14.14236 0)
(159.96957 -15.540766 0)
(163.34222 -15.061986 0)
(165.69648 -13.30119 0)
(166.76288 -11.28456 0)
(167.1165 -9.9084099 0)
(167.36435 -8.9965323 0)
(167.69332 -8.3577278 0)
(168.12159 -7.824706 0)
(168.75191 -7.5108701 0)
(169.97467 -7.6295833 0)
(171.88322 -7.2158886 0)
(174.40781 -6.3130811 0)
(177.32763 -4.1050487 0)
(181.26477 -0.61917845 0)
(186.06919 7.0868911 0)
(187.23224 19.838262 0)
(177.1199 36.003435 0)
(162.75375 34.2464 0)
(155.27701 28.89723 0)
(151.15569 22.571427 0)
(149.60779 17.649763 0)
(149.09609 14.014629 0)
(149.03411 11.302767 0)
(149.14063 9.2288127 0)
(149.29673 7.5927275 0)
(149.45406 6.2619752 0)
(149.59438 5.148298 0)
(149.71222 4.1916518 0)
(149.80729 3.3498819 0)
(149.88134 2.5923368 0)
(149.93657 1.896579 0)
(149.97429 1.2428633 0)
(149.99442 0.61595757 0)
(150.73129 -3.2895431 0)
(150.46991 -3.3559336 0)
(150.29116 -3.432644 0)
(150.09521 -3.5514723 0)
(149.88775 -3.7171697 0)
(149.66374 -3.9381344 0)
(149.42058 -4.2244078 0)
(149.15672 -4.5898748 0)
(148.87182 -5.0535242 0)
(148.56687 -5.6417401 0)
(148.25496 -6.3962781 0)
(147.985 -7.3813793 0)
(147.81884 -8.6529322 0)
(147.73856 -10.217215 0)
(147.88514 -12.219927 0)
(149.27276 -15.007899 0)
(152.85393 -17.458528 0)
(156.90803 -16.488888 0)
(159.19955 -13.463267 0)
(159.40285 -10.025284 0)
(158.67805 -8.045728 0)
(158.11362 -6.8418795 0)
(157.84499 -6.0004445 0)
(157.71475 -5.3204005 0)
(157.59742 -5.0327999 0)
(158.48495 -5.6511888 0)
(160.49299 -4.5617654 0)
(163.50308 -3.9303881 0)
(167.36585 -1.5043466 0)
(173.92745 4.2364454 0)
(183.00029 12.00364 0)
(188.63352 23.699543 0)
(176.08284 48.846897 0)
(157.18201 44.42661 0)
(150.69135 33.562639 0)
(147.27827 24.204487 0)
(146.88048 18.018454 0)
(147.26398 13.958695 0)
(147.7975 11.122013 0)
(148.29616 9.0310507 0)
(148.71418 7.4136251 0)
(149.05131 6.1109334 0)
(149.31826 5.0254243 0)
(149.52702 4.0941164 0)
(149.68803 3.2742927 0)
(149.80983 2.5355984 0)
(149.89898 1.8561658 0)
(149.9592 1.2168888 0)
(149.99115 0.60321413 0)
(143.45614 -3.1531342 0)
(142.99081 -3.256046 0)
(142.63636 -3.3560261 0)
(142.24032 -3.503226 0)
(141.81756 -3.7027954 0)
(141.35817 -3.9653964 0)
(140.85347 -4.3035735 0)
(140.29309 -4.735018 0)
(139.6648 -5.2843365 0)
(138.95125 -5.9847709 0)
(138.13685 -6.8860538 0)
(137.24698 -8.0707399 0)
(136.35337 -9.6249052 0)
(135.38589 -11.50802 0)
(134.2797 -13.7517 0)
(134.5861 -17.25471 0)
(139.02836 -21.51669 0)
(144.44959 -19.486382 0)
(146.65511 -15.003518 0)
(145.22529 -10.343904 0)
(142.53304 -9.0540294 0)
(140.7488 -8.73025 0)
(139.63401 -8.5134976 0)
(138.65621 -8.9747571 0)
(137.38255 -9.0633517 0)
(138.50098 -9.1802816 8.810222e-18)
(140.06055 -10.114742 -5.6456952e-19)
(143.01217 -12.519551 0)
(144.9099 -7.1849036 9.5129451e-18)
(143.0649 -14.282791 -7.2100771e-18)
(160.84496 -10.010372 4.303408e-18)
(179.65137 5.4938139 -9.8178801e-18)
(166.867 71.337905 5.589359e-18)
(141.9609 57.018249 0)
(140.64871 36.319157 0)
(141.61351 24.098922 0)
(143.55868 17.347061 0)
(145.28817 13.294682 0)
(146.54646 10.578169 0)
(147.47062 8.6061617 0)
(148.15502 7.0856547 0)
(148.66855 5.8583213 0)
(149.05728 4.8311063 0)
(149.35251 3.9453361 0)
(149.57585 3.1616937 0)
(149.74263 2.4523919 0)
(149.86368 1.7974934 0)
(149.94502 1.1794065 0)
(149.98808 0.58487318 0)
(128.20481 -2.9281899 0)
(127.23147 -3.0094496 0)
(126.46879 -3.0663887 0)
(125.62043 -3.1594301 0)
(124.71459 -3.2887552 0)
(123.73033 -3.4602808 0)
(122.6473 -3.679835 0)