/*--------------------------------*- C++ -*----------------------------------*\
| =========                 |                                                 |
| \\      /  F ield         | foam-extend: Open Source CFD                    |
|  \\    /   O peration     | Version:     4.1                                |
|   \\  /    A nd           | Web:         http://www.foam-extend.org         |
|    \\/     M anipulation  |                                                 |
\*---------------------------------------------------------------------------*/
FoamFile
{
    version     2.0;
    format      ascii;
    class       volScalarField;
    location    "0.1";
    object      p;
}
// * * * * * * * * * * * * * * * * * * * * * * * * * * * * * * * * * * * * * //

dimensions      [0 2 -2 0 0 0 0];

internalField   nonuniform List<scalar> 
16126
(
-5.1023274
-4.833189
-5.947739
-7.3021867
-8.8158289
-10.437937
-12.149953
-13.945967
-15.826368
-17.794976
-19.857658
-22.021623
-24.295034
-26.686792
-29.206408
-31.86393
-34.669902
-37.635331
-40.771679
-44.090846
-47.605166
-51.327394
-55.2707
-59.448648
-63.875186
-68.564611
-73.531544
-78.790886
-84.357764
-90.247464
-96.475371
-103.05691
-110.00731
-117.34166
-125.07463
-133.22038
-141.79235
-150.80303
-160.26376
-170.18447
-180.57334
-191.4365
-202.77773
-214.598
-226.89511
-239.66323
-252.89246
-266.56832
-280.67126
-295.17616
-310.05181
-325.26037
-340.75695
-356.48908
-372.39637
-388.41009
-404.45295
-420.43896
-436.27333
-451.85264
-467.06505
-481.79082
-495.90295
-509.26807
-521.74755
-533.1989
-543.47731
-552.4375
-559.93576
-565.83216
-569.9929
-572.29276
-572.61763
-570.86694
-566.95608
-560.81858
-552.40796
-541.69928
-528.69033
-513.40257
-495.88152
-476.19635
-454.43875
-430.72133
-405.17509
-377.9505
-349.22354
-319.17596
-287.98856
-255.8531
-222.96537
-189.52164
-155.71563
-121.73587
-87.763437
-53.969997
-20.516263
12.449242
44.791024
76.387116
107.12931
136.92323
165.68834
193.35705
219.87082
245.18213
269.25769
292.07432
313.61671
333.87734
352.85589
370.55874
386.99871
402.19447
416.16978
428.95534
440.60015
451.18772
460.80096
469.38217
476.78357
483.94737
494.85008
511.68683
-3.401255
-4.4606293
-5.7841838
-7.2155005
-8.7564735
-10.389195
-12.104873
-13.901266
-15.780312
-17.74655
-19.806215
-21.96671
-24.236306
-26.623966
-29.139238
-31.792191
-34.593381
-37.553823
-40.684984
-43.998767
-47.507509
-51.22397
-55.161325
-59.333146
-63.753392
-68.436372
-73.396727
-78.649376
-84.209477
-90.092348
-96.313417
-102.88813
-109.83181
-117.15959
-124.88621
-133.02591
-141.59222
-150.59775
-160.05396
-169.97088
-180.35685
-191.21818
-202.55879
-214.37984
-226.67933
-239.45164
-252.68707
-266.37138
-280.48524
-295.00376
-309.89595
-325.1242
-340.6438
-356.4025
-372.34002
-388.38778
-404.46856
-420.49636
-436.37638
-452.00504
-467.27033
-482.05221
-496.22329
-509.64972
-522.19227
-533.70777
-544.0506
-553.07462
-560.63515
-566.59125
-570.80804
-573.15924
-573.52965
-571.81769
-567.9378
-561.82263
-553.42497
-542.71937
-529.70358
-514.39945
-496.85292
-477.13325
-455.3328
-431.56589
-405.96705
-378.68816
-349.89165
-319.75683
-288.47702
-256.24741
-223.26574
-189.72973
-155.83435
-121.76921
-87.716325
-53.848123
-20.325923
12.701293
45.097704
76.741137
107.52326
137.34948
166.13858
193.82222
220.34578
245.66593
269.74771
292.56603
314.10533
334.35798
353.32349
371.00786
387.42311
402.58651
416.51971
429.25075
440.82368
451.30518
460.74492
469.08287
476.28591
483.17454
491.76763
500.80799
-2.3520294
-3.9882495
-5.5414208
-7.0792015
-8.6666617
-10.318748
-12.040853
-13.837066
-15.712293
-17.672548
-19.72484
-21.876995
-24.13753
-26.51555
-29.02069
-31.663073
-34.453289
-37.402378
-40.521825
-43.823549
-47.319905
-51.023671
-54.948044
-59.106625
-63.513407
-68.182741
-73.129319
-78.368121
-83.914375
-89.78349
-95.990992
-102.55243
-109.48327
-116.79879
-124.5139
-132.64304
-141.19993
-150.19744
-159.64726
-169.55974
-179.94351
-190.80521
-202.14912
-213.97679
-226.28662
-239.0734
-252.32788
-266.03624
-280.17961
-294.73353
-309.66742
-324.94409
-340.51917
-356.34071
-372.34868
-388.47462
-404.64138
-420.7629
-436.74413
-452.48117
-467.86144
-482.7642
-497.06113
-510.61725
-523.29203
-534.94074
-545.41608
-554.57001
-562.25584
-568.33046
-572.65682
-575.10642
-575.5619
-573.9196
-570.09207
-564.01031
-555.62588
-544.91273
-531.86831
-516.51386
-498.89506
-479.08189
-457.16814
-433.2699
-407.52439
-380.0869
-351.1251
-320.81968
-289.36304
-256.95296
-223.78993
-190.07426
-156.00322
-121.76849
-87.553806
-53.53305
-19.868636
13.289675
45.805592
77.556775
108.435
138.34599
167.20883
194.95546
221.53102
246.8926
271.00722
293.85142
315.41066
335.67835
354.655
372.34757
388.7689
403.93681
417.87359
430.60831
442.18364
452.65265
462.0402
470.31513
477.58397
484.45961
491.33141
495.92388
-1.8738468
-3.6438181
-5.304028
-6.9112138
-8.5352462
-10.203857
-11.930908
-13.725337
-15.594718
-17.546539
-19.588639
-21.729321
-23.977381
-26.342091
-28.833187
-31.460852
-34.235714
-37.168836
-40.271719
-43.556296
-47.034935
-50.720431
-54.626005
-58.765287
-63.152305
-67.801462
-72.727508
-77.945501
-83.470758
-89.318798
-95.505277
-102.04589
-108.95629
-116.25195
-123.94801
-132.05918
-140.59948
-149.58209
-159.01911
-168.92125
-179.29762
-190.15534
-201.49921
-213.33135
-225.65074
-238.45283
-251.72901
-265.46613
-279.64603
-294.24491
-309.23287
-324.57336
-340.22261
-356.12919
-372.23349
-388.46741
-404.75395
-421.00705
-437.13151
-453.02298
-468.56825
-483.64564
-498.12561
-511.87166
-524.74142
-536.58804
-547.26177
-556.61187
-564.48873
-570.74614
-575.24381
-577.84995
-578.44397
-576.91908
-573.18491
-567.17002
-558.8243
-548.12036
-535.05407
-519.64594
-501.94188
-482.01292
-459.95426
-435.88393
-409.94126
-382.2841
-353.08525
-322.53055
-290.81596
-258.14331
-224.7171
-190.74143
-156.41709
-121.93885
-87.493119
-53.25598
-19.391582
13.949046
46.628801
78.524956
109.5293
139.54791
168.50069
196.32073
222.95387
248.35767
272.50011
295.35883
316.92024
337.17858
356.13501
373.7969
390.17706
405.29287
419.16606
431.82492
443.30749
453.65257
462.87084
470.96445
478.10171
484.66413
490.36127
493.3501
-1.6386243
-3.4054178
-5.1039853
-6.7474209
-8.3932367
-10.071001
-11.798296
-13.587037
-15.446784
-17.386267
-19.414088
-21.539019
-23.770144
-26.116913
-28.589172
-31.197173
-33.951587
-36.863507
-39.944455
-43.206384
-46.661684
-50.323174
-54.204107
-58.318157
-62.679405
-67.302321
-72.20174
-77.392821
-82.891006
-88.711961
-94.871513
-101.38556
-108.26999
-115.54054
-123.21267
-131.30141
-139.8212
-148.78564
-158.20731
-168.09746
-178.46579
-189.32003
-200.6657
-212.50563
-224.83959
-237.66384
-250.97063
-264.74769
-278.97773
-293.63786
-308.69904
-324.12555
-339.87438
-355.89478
-372.1277
-388.50543
-404.95119
-421.37892
-437.69313
-453.78894
-469.55222
-484.86005
-499.58124
-513.57726
-526.70328
-538.80958
-549.74318
-559.34973
-567.4757
-573.97071
-578.69017
-581.49791
-582.26897
-580.89235
-577.27384
-571.33889
-563.0352
-552.33281
-539.22596
-523.73496
-505.9062
-485.81202
-463.54989
-439.24095
-413.02808
-385.07313
-355.55393
-324.66164
-292.59739
-259.56838
-225.78443
-191.4547
-156.78459
-121.973
-87.20988
-52.674213
-18.53243
15.062791
47.973297
80.075858
111.26224
141.43894
170.5267
198.45988
225.1857
250.66315
274.86185
297.76104
319.34865
339.62023
358.57801
376.23004
392.58922
407.67231
421.4998
434.09728
445.49535
455.71804
464.76661
472.65744
479.53164
485.54673
490.23422
492.41408
-1.5046869
-3.2281567
-4.9267626
-6.581285
-8.2346551
-9.9133671
-11.635569
-13.414512
-15.260953
-17.184508
-19.194378
-21.299733
-23.509911
-25.834524
-28.283518
-30.867208
-33.596305
-36.481925
-39.53561
-42.769329
-46.19549
-49.826941
-53.676968
-57.759291
-62.088053
-66.677804
-71.543478
-76.700354
-82.164026
-87.950335
-94.075323
-100.55513
-107.40594
-114.64382
-122.2846
-130.34376
-138.8362
-147.7761
-157.17661
-167.04968
-177.40572
-188.25329
-199.59875
-211.44587
-223.79543
-236.64471
-249.98706
-263.81135
-278.10141
-292.83552
-307.98577
-323.5175
-339.38873
-355.54961
-371.94184
-388.49829
-405.1425
-421.78849
-438.34051
-454.69301
-470.73085
-486.32956
-501.35598
-515.66907
-529.12095
-541.55836
-552.82423
-562.7597
-571.20628
-578.00836
-583.01585
-586.087
-587.0913
-585.91234
-582.45099
-576.62896
-568.39008
-557.70094
-544.55427
-528.96961
-510.99375
-490.70061
-468.19036
-443.58801
-417.04121
-388.71747
-358.80108
-327.48998
-294.99209
-261.5215
-227.29477
-192.52741
-157.43067
-122.20865
-87.055718
-52.154529
-17.674337
16.23016
49.419551
81.770059
113.17353
143.53708
172.78256
200.84577
227.67561
253.23296
277.48947
300.42653
322.03413
342.3098
361.25755
378.88693
395.21194
410.25007
424.02204
436.55232
447.86663
457.98148
466.8985
474.64102
481.30081
486.88442
490.92416
492.68547
-1.4192295
-3.0916983
-4.7703872
-6.418185
-8.0664752
-9.7374344
-11.448195
-13.212237
-15.040867
-16.944229
-18.931942
-21.013475
-23.198368
-25.496369
-27.917509
-30.472157
-33.171055
-36.025342
-39.046574
-42.246736
-45.638256
-49.234007
-53.047315
-57.091952
-61.382131
-65.932492
-70.75808
-75.874319
-81.296972
-87.042087
-93.125951
-99.564996
-106.37573
-113.57462
-121.17793
-129.20165
-137.66126
-146.57155
-155.94641
-165.79857
-176.13931
-186.97814
-198.32244
-210.17709
-222.54404
-235.42183
-248.8051
-262.68407
-277.04396
-291.8644
-307.11887
-322.77402
-338.7891
-355.11535
-371.69544
-388.46293
-405.34183
-422.24625
-439.08017
-455.73736
-472.10142
-488.04615
-503.43603
-518.12701
-531.96763
-544.80034
-556.46321
-566.79191
-575.622
-582.79149
-588.14366
-591.52997
-592.81313
-591.87013
-588.5959
-582.90738
-574.7437
-564.0678
-550.87013
-535.16926
-517.0124
-496.47533
-473.66152
-448.70051
-421.74572
-392.97152
-362.56992
-330.74708
-297.71935
-263.70928
-228.94166
-193.63978
-158.02202
-122.29878
-86.669849
-51.322289
-16.428777
17.853546
51.383767
84.037465
115.70661
146.29912
175.73818
203.96138
230.91967
256.57615
280.90486
303.88956
325.52254
345.80341
364.73801
382.3373
398.61625
413.59283
427.28763
439.72346
450.92189
460.89535
469.64812
477.2045
483.61698
488.82408
492.42522
493.94431
-1.3577176
-2.9798357
-4.6282984
-6.2574752
-7.890745
-9.5462655
-11.239556
-12.983685
-14.790043
-16.669003
-18.630422
-20.683958
-22.839295
-25.106275
-27.494993
-30.015853
-32.67962
-35.497445
-38.480894
-41.641964
-44.993102
-48.547208
-52.317651
-56.318258
-60.563324
-65.067587
-69.846227
-74.914827
-80.289347
-85.986076
-92.021583
-98.412634
-105.17613
-112.32897
-119.88797
-127.86967
-136.29024
-145.16521
-154.5093
-164.33617
-174.6581
-185.48573
-196.82765
-208.69004
-221.07622
-233.98622
-247.41622
-261.35802
-275.7985
-290.71893
-306.09442
-321.8932
-338.07602
-354.59546
-371.39535
-388.41014
-405.56445
-422.77259
-439.93829
-456.95454
-473.7036
-490.05726
-505.87727
-521.01614
-535.31817
-548.62082
-560.75641
-571.55417
-580.84258
-588.45209
-594.21803
-597.98375
-599.60379
-598.94727
-595.90194
-590.37877
-582.31094
-571.65724
-558.40534
-542.57255
-524.20661
-503.3855
-480.2166
-454.83501
-427.40111
-398.0975
-367.1254
-334.7008
-301.05017
-266.40617
-231.00341
-195.07443
-158.84607
-122.53615
-86.350832
-50.482308
-15.107209
19.614566
53.540458
86.54543
118.52175
149.37842
179.04037
207.44746
234.55324
260.3237
284.7359
307.77666
329.44123
349.73201
368.65733
386.23025
402.46733
417.38759
431.01189
443.36175
454.45569
464.30373
472.91097
480.29644
486.48437
491.39153
494.692
496.05987
-1.305247
-2.87799
-4.4899613
-6.0918933
-7.701884
-9.3348497
-11.004633
-12.723592
-14.502903
-16.352949
-18.283668
-20.304812
-22.426141
-24.657549
-27.009163
-29.491406
-32.115048
-34.891241
-37.831552
-40.947984
-44.252995
-47.759512
-51.48094
-55.431168
-59.62457
-64.075995
-68.800761
-73.814626
-79.133768
-84.774736
-90.754411
-97.08993
-103.79862
-110.8979
-118.40514
-126.33755
-134.71204
-143.54499
-152.85206
-162.64795
-172.94611
-183.75842
-195.09485
-206.96307
-219.368
-232.31135
-245.79108
-259.80085
-274.3294
-289.35996
-304.86953
-320.8282
-337.19848
-353.93458
-370.9817
-388.27544
-405.74117
-423.29352
-440.83606
-458.26098
-475.44908
-492.26992
-508.58225
-524.23465
-539.06663
-552.90993
-565.59027
-576.92943
-586.7477
-594.86673
-601.1126
-605.31915
-607.33134
-607.00905
-604.23167
-598.90268
-590.94843
-580.32269
-567.00966
-551.02509
-532.41715
-511.26636
-487.68467
-461.81367
-433.82196
-403.90185
-372.26542
-339.14025
-304.76476
-269.38357
-233.24284
-196.58599
-159.64972
-122.66057
-85.832065
-49.362357
-13.432603
21.794162
56.173558
89.579924
121.90596
153.06201
182.9751
211.58773
238.85654
264.75087
289.2513
312.34819
334.04025
354.33315
373.23823
390.77118
406.95077
421.7978
435.33416
447.58132
458.55687
468.27084
476.72935
483.94628
489.92986
494.59711
497.68299
498.94947
-1.2624353
-2.7876591
-4.3594591
-5.928061
-7.5082998
-9.1126754
-10.753531
-12.442423
-14.190153
-16.006962
-17.90275
-19.887279
-21.970321
-24.161784
-26.471797
-28.910778
-31.489489
-34.219072
-37.111085
-40.177531
-43.430875
-46.884068
-50.550555
-54.444286
-58.579724
-62.971834
-67.636086
-72.588432
-77.845286
-83.423485
-89.340257
-95.613145
-102.25996
-109.29867
-116.7473
-124.62379
-132.94587
-141.73087
-150.99551
-160.75566
-171.02606
-181.82001
-193.14905
-205.02251
-217.44714
-230.42653
-243.96069
-258.04538
-272.67152
-287.82454
-303.48364
-319.62109
-336.20144
-353.1808
-370.50605
-388.11414
-405.93139
-423.87295
-441.84225
-459.73072
-477.41762
-494.7701
-511.64352
-527.88215
-543.32006
-557.78253
-571.08777
-583.04905
-593.47726
-602.1839
-608.98437
-613.70145
-616.16897
-616.23601
-613.77216
-608.67187
-600.85368
-590.26549
-576.8873
-560.73297
-541.8511
-520.32507
-496.2721
-469.84133
-441.21096
-410.58459
-378.18697
-344.25918
-309.05361
-272.82873
-235.84414
-198.3558
-160.61181
-122.84869
-85.288317
-48.135594
-11.576712
24.221879
59.113909
92.973211
125.6932
157.18596
187.3811
216.22434
243.67602
269.70946
294.30939
317.47029
339.19491
359.49271
378.37852
395.87108
411.99179
426.76353
440.20959
452.35201
463.20859
472.79028
481.10425
488.16122
493.96308
498.43669
501.36297
502.55712
-1.217571
-2.6944379
-4.2226956
-5.7528948
-7.2977163
-8.8678947
-10.474519
-12.128362
-13.83978
-15.618772
-17.47512
-19.418517
-21.458699
-23.605543
-25.86915
-28.25991
-30.788556
-33.466202
-36.30439
-39.315106
-42.510819
-45.904494
-49.509612
-53.340183
-57.410756
-61.736419
-66.332799
-71.21605
-76.402839
-81.910311
-87.756064
-93.958084
-100.5347
-107.50449
-114.88616
-122.69847
-130.96007
-139.68931
-148.90407
-158.62151
-168.85782
-179.62788
-190.94493
-202.82021
-215.26246
-228.27744
-241.86743
-256.03056
-270.76024
-286.0444
-301.86476
-318.19607
-335.00529
-352.25074
-369.88127
-387.83549
-406.04094
-424.41343
-442.85646
-461.26074
-479.50393
-497.45063
-514.95258
-531.84926
-547.96877
-563.12917
-577.14025
-589.80568
-600.92571
-610.30031
-617.73262
-623.0328
-626.02186
-626.53635
-624.43436
-619.59986
-611.94231
-601.40246
-587.9554
-571.61257
-552.42298
-530.47322
-505.88657
-478.82084
-449.46533
-418.03678
-384.77458
-349.93548
-313.78801
-276.60669
-238.66659
-200.23812
-161.58239
-122.94727
-84.564139
-46.645429
-9.3829147
27.053257
62.514879
96.875427
130.02934
161.8909
192.39283
221.48472
249.13126
275.31046
300.01188
323.23488
344.98691
365.28195
384.13895
401.58042
417.63104
432.31647
445.66211
457.69148
468.42363
477.87119
486.04258
492.94746
498.58714
502.90081
505.70305
506.8426
-1.1790512
-2.6080844
-4.0904474
-5.5783166
-7.083123
-8.6143612
-10.182114
-11.796444
-13.467244
-15.204222
-17.016977
-18.915085
-20.908199
-23.006129
-25.218921
-27.556911
-30.030786
-32.651621
-35.430923
-38.380658
-41.513286
-44.841783
-48.379661
-52.140987
-56.1404
-60.39311
-64.914911
-69.722169
-74.831818
-80.261329
-86.028697
-92.152381
-98.651269
-105.54458
-112.85179
-120.59253
-128.78643
-137.45296
-146.61128
-156.27996
-166.47675
-177.21829
-188.5197
-200.3943
-212.85306
-225.90414
-239.55234
-253.79848
-268.63871
-284.06381
-300.05837
-316.59996
-333.65828
-351.19422
-369.15897
-387.49309
-406.12564
-424.97336
-443.93996
-462.91552
-481.77614
-500.38373
-518.58616
-536.2177
-553.0999
-569.04284
-583.84692
-597.30507
-609.20555
-619.33527
-627.4835
-633.44594
-637.02897
-638.05471
-636.36778
-631.84013
-624.37081
-613.89211
-600.37328
-583.82288
-564.29016
-541.86532
-516.67846
-488.8974
-458.72417
-426.3906
-392.15296
-356.28607
-319.07698
-280.81866
-241.80387
-202.31946
-162.64133
-123.03015
-83.727903
-44.955354
-6.9103558
30.233038
66.324718
101.23805
134.86892
167.13435
197.97082
227.33246
255.18905
281.52402
306.33248
329.61934
351.39741
371.68579
390.50816
407.89135
423.8639
438.45477
451.69216
463.60184
474.20503
483.51668
491.54715
498.30697
503.80012
507.97781
510.67927
511.77539
-1.1345528
-2.5133757
-3.9469049
-5.3886331
-6.8490484
-8.3367394
-9.8609851
-11.431224
-13.056896
-14.747395
-16.512098
-18.36042
-20.301894
-22.346231
-24.503391
-26.783637
-29.197587
-31.75626
-34.471114
-37.354081
-40.417603
-43.674654
-47.138772
-50.824078
-54.745293
-58.917753
-63.357419
-68.080876
-73.105333
-78.448605
-84.129104
-90.165786
-96.578132
-103.38606
-110.60984
-118.27004
-126.38736
-134.98248
-144.07592
-153.68779
-163.83755
-174.54372
-185.82352
-197.69251
-210.16414
-223.24919
-236.95529
-251.2862
-266.24119
-281.81418
-297.99301
-314.75846
-332.08336
-349.93158
-368.25702
-387.00259
-406.0992
-425.46482
-445.00362
-464.60524
-484.14426
-503.47985
-522.45578
-540.90078
-558.62928
-575.44263
-591.13086
-605.47498
-618.24986
-629.22773
-638.1822
-644.89263
-649.1487
-650.75601
-649.54357
-645.36948
-638.12063
-627.71943
-614.1282
-597.35194
-577.44004
-554.48665
-528.62963
-500.04815
-468.95888
-435.61096
-400.28007
-363.26172
-324.86424
-285.40168
-245.18696
-204.52561
-163.71022
-123.0158
-82.69613
-42.981123
-4.0751691
33.843622
70.623365
106.13768
140.28442
172.98403
204.17752
233.82442
261.90042
288.39526
313.31044
336.65721
358.45454
378.72735
397.50476
414.81855
430.70169
445.18709
458.3063
470.08805
480.55637
489.72904
497.61896
504.23892
509.59711
513.65534
516.27127
517.33109
-1.0951652
-2.4233757
-3.805861
-5.1982858
-6.6106183
-8.0508105
-9.5275055
-11.049602
-12.626114
-14.266114
-15.978731
-17.773193
-19.658881
-21.645377
-23.742534
-25.960516
-28.309856
-30.801497
-33.446835
-36.257753
-39.246664
-42.426531
-45.810909
-49.413963
-53.250496
-57.335963
-61.686494
-66.318897
-71.250664
-76.499964
-82.085641
-88.027174
-94.344664
-101.05876
-108.19059
-115.76171
-123.79393
-132.30927
-141.32967
-150.87691
-160.97228
-171.63635
-182.8886
-194.74705
-207.22781
-220.34459
-234.10807
-248.52531
-263.59898
-279.32656
-295.69949
-312.70219
-330.31103
-348.49331
-367.20606
-386.39497
-405.99321
-425.92035
-446.08132
-466.36554
-486.64617
-506.77965
-526.60551
-545.94657
-564.60959
-582.38644
-599.05578
-614.38544
-628.1354
-640.06148
-649.91969
-657.4709
-662.48591
-664.75138
-664.07835
-660.30905
-653.31635
-643.01111
-629.34746
-612.32609
-591.99628
-568.45649
-541.85334
-512.37891
-480.26656
-445.78527
-409.23292
-370.92874
-331.20536
-290.40085
-248.85105
-206.8826
-164.80683
-122.91476
-81.473183
-40.721968
-0.87246524
37.893089
75.421258
111.58637
146.28893
179.45356
211.0267
240.97416
269.27853
295.93673
320.95757
344.35948
366.16839
386.41579
405.1369
422.36913
438.15053
452.5185
465.50859
477.15312
487.47949
496.50881
504.25707
510.74023
515.97122
519.92096
522.46121
523.4893
-1.04866
-2.3231704
-3.6516872
-4.991491
-6.3520303
-7.7407601
-9.1658054
-10.635596
-12.158751
-13.74402
-15.400274
-17.136529
-18.961987
-20.886083
-22.918531
-25.069381
-27.349058
-29.768413
-32.338762
-35.071927
-37.980272
-41.076744
-44.374899
-47.888939
-51.63374
-55.624874
-59.878634
-64.412051
-69.242906
-74.389729
-79.871807
-85.709163
-91.922541
-98.533353
-105.56363
-113.03596
-120.97336
-129.3992
-138.337
-147.81029
-157.84233
-168.45589
-179.67286
-191.51394
-203.99815
-217.14235
-230.96059
-245.46351
-260.65758
-276.5442
-293.11884
-310.36999
-328.27805
-346.81421
-365.93915
-385.60183
-405.73813
-426.26967
-447.10253
-468.12621
-489.21267
-510.21566
-530.97038
-551.29347
-570.98352
-589.82214
-607.57563
-623.99734
-638.83077
-651.8135
-662.68179
-671.17577
-677.04483
-680.05411
-679.99391
-676.68825
-669.99375
-659.80781
-646.07488
-628.79039
-608.00322
-583.81651
-556.38669
-525.92051
-492.67038
-456.92795
-419.0165
-379.28237
-338.08594
-295.79261
-252.76419
-209.35111
-165.88571
-122.67677
-80.005356
-38.122102
2.7543412
42.43765
80.773202
117.63667
152.932
186.58897
218.56049
248.81971
277.3572
304.17809
329.2995
352.74797
374.55724
394.76613
413.41674
430.55272
446.21779
460.45445
473.3028
484.79926
494.97511
503.85514
511.45892
517.80607
522.91432
526.76228
529.23294
530.23208
-1.0061806
-2.2259883
-3.498238
-4.7825289
-6.0880153
-7.4217837
-8.7915334
-10.205284
-11.671286
-13.197975
-14.793953
-16.468009
-18.229148
-20.08663
-22.050016
-24.129215
-26.334529
-28.676695
-31.166934
-33.816988
-36.639163
-39.646367
-42.852151
-46.27074
-49.917072
-53.806826
-57.956456
-62.383209
-67.105154
-72.141185
-77.511044
-83.235304
-89.335378
-95.833467
-102.75253
-110.11625
-117.94889
-126.27527
-135.12055
-144.51012
-154.46933
-165.0233
-176.19652
-188.01255
-200.49356
-213.6598
-227.52901
-242.11575
-257.43063
-273.4794
-290.262
-307.77146
-325.99274
-344.90145
-364.46246
-384.62855
-405.33889
-426.51763
-448.07249
-469.89341
-491.85144
-513.79783
-535.56338
-556.95832
-577.77263
-597.7769
-616.72404
-634.35154
-650.38479
-664.54108
-676.53468
-686.08238
-692.90945
-696.75657
-697.39021
-694.61352
-688.26442
-678.22458
-664.42705
-646.86085
-625.57402
-600.67477
-572.33049
-540.76457
-506.2511
-469.10764
-429.68653
-388.36507
-345.53527
-301.5936
-256.93126
-211.92544
-166.93196
-122.27921
-78.263889
-35.148123
6.8418584
47.515805
86.718427
124.32752
160.25149
194.42639
226.81275
257.39233
286.16482
313.14477
338.35865
361.84211
383.63762
403.7922
422.35551
439.37817
454.91017
468.99967
481.69182
493.02767
503.04273
511.76584
519.22048
525.43017
530.41726
534.16691
536.57132
537.54311
-0.95686044
-2.1187148
-3.3318072
-4.5575332
-5.8046586
-7.0799475
-8.3907311
-9.744661
-11.149646
-12.61381
-14.145486
-15.753219
-17.445801
-19.232298
-21.122098
-23.12495
-25.251011
-27.510888
-29.915688
-32.477056
-35.207222
-38.119042
-41.226043
-44.54246
-48.083283
-51.864284
-55.902069
-60.214094
-64.818711
-69.735178
-74.983693
-80.58539
-86.562361
-92.937619
-99.735088
-106.97956
-114.69663
-122.9126
-131.65438
-140.9493
-150.82493
-161.30888
-172.42839
-184.21011
-196.67956
-209.86067
-223.77517
-238.44188
-253.87594
-270.08787
-287.08257
-304.85815
-323.40464
-342.70268
-362.72198
-383.41973
-404.73904
-426.60721
-448.93413
-471.6107
-494.50747
-517.47336
-540.33492
-562.8958
-584.93691
-606.21719
-626.47505
-645.43079
-662.78985
-678.24714
-691.49241
-702.21633
-710.11702
-714.9074
-716.3266
-714.1538
-708.20529
-698.34442
-684.49079
-666.62561
-644.79553
-619.11415
-589.76112
-556.97866
-521.06557
-482.36903
-441.27458
-398.19492
-353.55813
-307.79595
-261.33279
-214.57596
-167.90737
-121.67709
-76.19875
-31.746693
11.445123
53.182854
93.311251
131.71125
168.2969
203.01185
235.82568
266.7301
295.7353
322.86648
348.16065
371.66366
393.42766
413.50873
431.96489
448.85436
464.23404
478.15826
490.67773
501.83849
511.68068
520.23746
527.53641
533.60506
538.47008
542.12229
544.46178
545.40688
-0.91031798
-2.0127928
-3.1643395
-4.3287274
-5.5144668
-6.7280575
-7.9765067
-9.2671302
-10.607512
-12.005474
-13.46907
-15.006596
-16.626613
-18.337976
-20.149881
-22.071896
-24.114016
-26.286697
-28.600913
-31.068193
-33.700671
-36.511136
-39.513072
-42.720709
-46.149068
-49.814005
-53.73226
-57.92149
-62.400318
-67.188361
-72.30627
-77.775741
-83.619555
-89.86155
-96.526632
-103.64075
-111.23085
-119.32481
-127.95131
-137.13975
-146.92004
-157.32237
-168.37696
-180.11368
-192.56168
-205.74881
-219.7011
-234.442
-249.99159
-266.36562
-283.57444
-301.62177
-320.50339
-340.20557
-360.70354
-381.95965
-403.92163
-426.52065
-449.66945
-473.26051
-497.16433
-521.22794
-545.27375
-569.09878
-592.47458
-615.14768
-636.84103
-657.25625
-676.07699
-692.97347
-707.6082
-719.64264
-728.74437
-734.59494
-736.90214
-735.41756
-729.93251
-720.28908
-706.39091
-688.20976
-665.79011
-639.25126
-608.78653
-574.65945
-537.19699
-496.78018
-453.83256
-408.80729
-362.17356
-314.40323
-265.95825
-217.27965
-168.77843
-120.82844
-73.761585
-27.865092
16.619367
59.494876
100.60718
139.84158
177.11924
212.39299
245.643
276.87253
306.10377
333.37398
358.73198
382.235
403.94587
423.93064
442.25648
458.98989
474.19526
487.93363
500.26168
511.23084
520.88615
529.2653
536.40011
542.32213
547.06202
550.61558
552.88987
553.80827
-0.85789562
-1.8978729
-2.9850915
-4.0852947
-5.2066318
-6.3553435
-7.5381365
-8.7620116
-10.034241
-11.362347
-12.754104
-14.217545
-15.760988
-17.393063
-19.122751
-20.959425
-22.912894
-24.993446
-27.2119
-29.57965
-32.108716
-34.811796
-37.702315
-40.794475
-44.103314
-47.64475
-51.43564
-55.493828
-59.838193
-64.4887
-69.466443
-74.79368
-80.493875
-86.591703
-93.113067
-100.0851
-107.53612
-115.49563
-123.99417
-133.06327
-142.73527
-153.04312
-164.02012
-175.6996
-188.11453
-201.29698
-215.27759
-230.08479
-245.74403
-262.27676
-279.69934
-298.02171
-317.246
-337.36489
-358.35985
-380.19921
-402.83613
-426.20648
-450.22666
-474.79145
-499.77195
-525.01379
-550.33553
-575.52766
-600.35206
-624.54231
-647.80483
-669.8211
-690.25103
-708.73768
-724.91335
-738.40691
-748.85156
-755.89347
-759.20477
-758.50494
-753.55641
-744.17663
-730.25039
-711.73788
-688.68046
-661.20336
-629.51511
-593.90335
-554.72721
-512.40642
-467.4081
-420.23169
-371.39334
-321.41045
-270.78741
-220.0031
-169.50075
-119.68027
-70.89321
-23.44018
22.429615
66.516968
108.66983
148.77945
186.7758
222.62271
256.31282
287.8627
317.30819
344.70018
370.10068
393.57952
415.21133
435.07303
453.24174
469.79294
484.79908
498.32837
510.44387
521.20272
530.65511
538.84341
545.80377
551.57168
556.18148
559.63344
561.84101
562.73215
-0.8069886
-1.7827518
-2.8032243
-3.83657
-4.8906555
-5.9714861
-7.0854845
-8.2393501
-9.4400506
-10.694812
-12.011123
-13.396745
-14.859739
-16.408492
-18.051757
-19.798688
-21.658891
-23.642464
-25.760051
-28.022889
-30.442863
-33.032557
-35.805314
-38.77529
-41.957512
-45.367942
-49.023534
-52.942293
-57.143342
-61.646972
-66.474708
-71.649357
-77.195063
-83.137333
-89.503074
-96.320614
-103.61969
-111.43144
-119.78833
-128.7241
-138.27361
-148.47267
-159.35784
-170.96609
-183.33442
-196.49941
-210.49661
-225.35982
-241.1203
-257.8057
-275.43893
-294.03683
-313.60858
-334.15403
-355.66177
-378.10697
-401.44918
-425.6299
-450.57011
-476.16779
-502.29545
-528.79795
-555.49049
-582.15717
-608.55012
-634.3894
-659.36393
-683.13357
-705.33242
-725.57374
-743.45646
-758.57302
-770.51805
-778.8978
-783.34429
-783.53897
-779.21086
-770.14933
-756.21659
-737.35877
-713.6128
-685.10998
-652.07572
-614.825
-573.75362
-529.32576
-482.05845
-432.50423
-381.23287
-328.81363
-275.79882
-222.70974
-170.02535
-118.17399
-67.528177
-18.402268
28.947442
74.320543
117.56876
158.59115
197.32861
233.75807
267.88673
299.7465
329.38875
356.87965
382.29596
405.72138
427.24347
446.95102
464.93187
481.27118
496.04999
509.34413
521.22343
531.75099
540.98232
548.96461
555.73837
561.3429
565.81598
569.1619
571.30016
572.16306
-0.75135281
-1.6600446
-2.6111489
-3.574984
-4.5590451
-5.5690924
-6.6112691
-7.6919796
-8.8178908
-9.9959305
-11.233296
-12.537469
-13.91624
-15.377737
-16.930466
-18.583345
-20.345755
-22.227583
-24.239276
-26.391892
-28.697156
-31.167516
-33.816208
-36.657314
-39.70583
-42.977732
-46.490047
-50.260918
-54.309683
-58.656939
-63.324623
-68.336068
-73.716086
-79.491007
-85.688737
-92.338806
-99.472378
-107.12226
-115.3229
-124.11028
-133.52187
-143.5965
-154.37406
-165.89536
-178.20168
-191.33433
-205.33412
-220.24062
-236.0913
-252.92056
-270.75848
-289.62944
-309.55048
-330.52945
-352.56297
-375.63408
-399.70976
-424.73822
-450.64613
-477.3357
-504.68184
-532.52945
-560.69103
-588.94467
-617.03271
-644.66131
-671.50098
-697.18841
-721.32979
-743.5058
-763.27848
-780.19976
-793.82092
-803.70322
-809.4333
-810.64806
-807.0379
-798.35971
-784.44886
-765.23425
-740.74673
-711.12371
-676.60931
-637.54946
-594.38193
-547.62189
-497.84383
-445.66121
-391.7052
-336.60409
-280.9644
-225.35493
-170.29416
-116.24136
-63.591249
-12.672074
36.253537
82.985436
127.3811
169.34969
208.84544
245.8609
280.42024
312.57295
342.388
369.9487
395.34814
418.68533
440.06192
459.57954
477.3376
493.43155
507.95157
520.98152
532.5983
542.8712
551.8612
559.62039
566.19358
571.62381
575.95201
579.18619
581.25167
582.08496
-0.6961643
-1.535909
-2.4152721
-3.3070532
-4.2184186
-5.1548891
-6.1223308
-7.1268548
-8.1748272
-9.2728741
-10.427895
-11.64708
-12.937938
-14.30832
-15.766468
-17.321045
-18.981186
-20.756546
-22.657351
-24.694454
-26.879397
-29.224466
-31.742762
-34.448266
-37.355915
-40.481668
-43.842595
-47.456949
-51.344253
-55.525381
-60.022651
-64.859901
-70.062585
-75.657839
-81.674554
-88.143456
-95.097138
-102.57011
-110.59878
-119.22148
-128.47835
-138.41128
-149.06371
-160.48039
-172.70711
-185.79018
-199.77599
-214.71023
-230.63709
-247.59824
-265.63156
-284.7697
-305.03836
-326.45435
-349.02332
-372.73728
-397.57182
-423.48313
-450.40479
-478.2445
-506.88074
-536.15953
-565.89148
-595.84923
-625.76555
-655.33241
-684.20106
-711.98358
-738.25603
-762.56354
-784.42753
-803.35487
-818.84837
-830.41838
-837.5995
-839.97763
-837.1988
-828.98125
-815.12856
-795.54871
-770.26426
-739.41857
-703.27646
-662.21895
-616.73189
-567.38916
-514.83143
-459.74228
-402.82331
-344.77009
-286.25049
-227.8865
-170.24027
-113.8045
-58.997241
-6.1604975
44.437944
92.600132
138.19175
181.13483
221.39987
258.99787
293.97274
326.39405
356.35069
383.94511
409.28847
432.49653
453.68628
472.97318
490.46899
506.28011
520.50633
533.23993
544.56511
554.55755
563.2838
570.80083
577.15777
582.40119
586.57497
589.69057
591.67904
592.48103
-0.63728583
-1.4055215
-2.2107125
-3.027985