/*--------------------------------*- C++ -*----------------------------------*\
| =========                 |                                                 |
| \\      /  F ield         | foam-extend: Open Source CFD                    |
|  \\    /   O peration     | Version:     4.1                                |
|   \\  /    A nd           | Web:         http://www.foam-extend.org         |
|    \\/     M anipulation  |                                                 |
\*---------------------------------------------------------------------------*/
FoamFile
{
    version     2.0;
    format      ascii;
    class       surfaceScalarField;
    location    "0.1";
    object      phi;
}
// * * * * * * * * * * * * * * * * * * * * * * * * * * * * * * * * * * * * * //

dimensions      [0 3 -1 0 0 0 0];

internalField   nonuniform List<scalar> 
31929
(
-0.042318434
4.8501406e-05
-0.042374651
5.6217381e-05
-0.042432634
5.7982518e-05
-0.042491425
5.8791207e-05
-0.042550658
5.9233067e-05
-0.0426102
5.9541891e-05
-0.042669998
5.9798164e-05
-0.042730036
6.0037582e-05
-0.042790311
6.0275789e-05
-0.042850834
6.0522644e-05
-0.042911616
6.078234e-05
-0.042972676
6.1059191e-05
-0.04303403
6.1354494e-05
-0.043095701
6.167099e-05
-0.04315771
6.2009066e-05
-0.043220081
6.2370945e-05
-0.043282838
6.2756684e-05
-0.043346006
6.3168325e-05
-0.043409612
6.3605787e-05
-0.043473683
6.4071039e-05
-0.043538247
6.4563922e-05
-0.043603333
6.5086356e-05
-0.043668971
6.5638101e-05
-0.043735192
6.6221016e-05
-0.043802027
6.683474e-05
-0.043869508
6.7481028e-05
-0.043937668
6.8159342e-05
-0.044006539
6.8871263e-05
-0.044076155
6.9615996e-05
-0.04414655
7.039486e-05
-0.044217756
7.1206696e-05
-0.044289808
7.2052099e-05
-0.044362739
7.2930689e-05
-0.04443658
7.3840739e-05
-0.044511362
7.4782358e-05
-0.044587115
7.5752841e-05
-0.044663867
7.6751507e-05
-0.044741641
7.7774709e-05
-0.044820462
7.8820778e-05
-0.044900347
7.9884901e-05
-0.044981311
8.09642e-05
-0.045063364
8.2052574e-05
-0.045146509
8.3145183e-05
-0.045230744
8.4235194e-05
-0.045316059
8.5315274e-05
-0.045402437
8.6377099e-05
-0.045489848
8.7411319e-05
-0.045578256
8.8407718e-05
-0.04566761
8.9354822e-05
-0.045757851
9.0240241e-05
-0.045848901
9.1050514e-05
-0.045940672
9.1771166e-05
-0.046033059
9.2386723e-05
-0.04612594
9.2880997e-05
-0.046219177
9.3236817e-05
-0.046312614
9.3436548e-05
-0.046406076
9.3462106e-05
-0.046499371
9.3295219e-05
-0.046592289
9.2917653e-05
-0.0466846
9.2311736e-05
-0.046776061
9.1460308e-05
-0.046866408
9.0347499e-05
-0.046955367
8.8958969e-05
-0.047042649
8.7282388e-05
-0.047127957
8.5307908e-05
-0.047210986
8.3028594e-05
-0.047291427
8.0441073e-05
-0.047368973
7.7545621e-05
-0.04744332
7.4346905e-05
-0.047514174
7.0854161e-05
-0.047581255
6.7081485e-05
-0.047644303
6.3047972e-05
-0.047703081
5.8777913e-05
-0.047757382
5.4300453e-05
-0.047807031
4.9649635e-05
-0.047851895
4.4863873e-05
-0.047891881
3.9985383e-05
-0.04792694
3.5059453e-05
-0.047957074
3.0133812e-05
-0.047982332
2.5257789e-05
-0.048002813
2.0481589e-05
-0.048018668
1.5854727e-05
-0.048030092
1.1424199e-05
-0.048037327
7.2353539e-06
-0.048040657
3.3296559e-06
-0.04804039
-2.6752704e-07
-0.048036823
-3.5668472e-06
-0.048030293
-6.5295457e-06
-0.04802121
-9.0835645e-06
-0.048010004
-1.1205258e-05
-0.047997119
-1.2885245e-05
-0.047982996
-1.4122727e-05
-0.047968073
-1.4923691e-05
-0.047952773
-1.5299958e-05
-0.047937504
-1.526844e-05
-0.047922654
-1.4850383e-05
-0.047908583
-1.4070583e-05
-0.047895627
-1.2956605e-05
-0.047884089
-1.1537963e-05
-0.047874243
-9.8454649e-06
-0.047866333
-7.9104929e-06
-0.047860569
-5.7642554e-06
-0.047857132
-3.4371366e-06
-0.047856171
-9.6078305e-07
-0.047857794
1.6227215e-06
-0.047862074
4.2807018e-06
-0.047869077
7.0031381e-06
-0.047878856
9.7785676e-06
-0.047891445
1.2589346e-05
-0.047906863
1.5418128e-05
-0.047925112
1.824871e-05
-0.047946178
2.1066059e-05
-0.047970034
2.3855927e-05
-0.047996638
2.6604055e-05
-0.048025933
2.9294774e-05
-0.048057843
3.1909462e-05
-0.048092271
3.4428435e-05
-0.048129097
3.6826354e-05
-0.048168138
3.9040627e-05
-0.048209028
4.0890417e-05
-0.04825114
4.2111345e-05
-0.04829414
4.3000685e-05
-0.048339506
4.5365043e-05
4.7584487e-05
-0.048696181
6.4709511e-05
-0.048709523
6.9559114e-05
-0.048723233
7.1693064e-05
-0.048737276
7.28335e-05
-0.048751554
7.3511397e-05
-0.048765999
7.3987372e-05
-0.048780579
7.4377811e-05
-0.048795282
7.4740568e-05
-0.04881011
7.5103631e-05
-0.048825072
7.5484492e-05
-0.048840181
7.5891683e-05
-0.048855455
7.6332805e-05
-0.048870911
7.6811072e-05
-0.048886571
7.7331142e-05
-0.048902457
7.7894506e-05
-0.048918591
7.8504827e-05
-0.048934997
7.9162969e-05
-0.048951701
7.987224e-05
-0.048968728
8.0633244e-05
-0.048986106
8.1449145e-05
-0.049003863
8.2320397e-05
-0.049022027
8.3250071e-05
-0.049040627
8.4238461e-05
-0.049059695
8.5288516e-05
-0.04907926
8.6400303e-05
-0.049099356
8.7576555e-05
-0.049120013
8.8816995e-05
-0.049141266
9.012401e-05
-0.049163147
9.1496814e-05
-0.049185689
9.2937272e-05
-0.049208926
9.4443866e-05
-0.049232892
9.6017294e-05
-0.049257618
9.7656693e-05
-0.049283136
9.9359319e-05
-0.049309479
0.00010112461
-0.049336674
0.00010294799
-0.04936475
0.00010482734
-0.049393731
0.00010675619
-0.049423641
0.00010873047
-0.049454497
0.0001107414
-0.049486316
0.00011278247
-0.049519105
0.00011484224
-0.049552871
0.00011691062
-0.04958761
0.00011897418
-0.049623313
0.00012101827
-0.049659962
0.0001230263
-0.04969753
0.00012497963
-0.04973598
0.00012685782
-0.049775264
0.00012863801
-0.049815319
0.00013029543
-0.049856071
0.00013180317
-0.049897432
0.00013313227
-0.049939298
0.00013425182
-0.049981546
0.00013512932
-0.05002404
0.00013573045
-0.050066623
0.00013601983
-0.050109122
0.0001359612
-0.050151345
0.00013551788
-0.05019308
0.00013465327
-0.0502341
0.00013333178
-0.050274159
0.00013151893
-0.050312994
0.00012918272
-0.050350329
0.00012629421
-0.050385876
0.00012282846
-0.050419333
0.00011876547
-0.050450396
0.0001140911
-0.050478753
0.00010879824
-0.050504094
0.00010288719
-0.050526114
9.6367021e-05
-0.050544516
8.9255957e-05
-0.050559017
8.1581999e-05
-0.050569352
7.3383223e-05
-0.050575282
6.4708065e-05
-0.050576597
5.5614872e-05
-0.050573119
4.6171799e-05
-0.050564711
3.6455847e-05
-0.050551277
2.6551696e-05
-0.050532768
1.6550425e-05
-0.050509182
6.5481285e-06
-0.050480568
-3.3567673e-06
-0.050447021
-1.3065232e-05
-0.050408689
-2.2476953e-05
-0.050365771
-3.1494172e-05
-0.05031851
-4.0025749e-05
-0.050267191
-4.7989091e-05
-0.050212147
-5.5311675e-05
-0.050153794
-6.1919815e-05
-0.050092564
-6.7760233e-05
-0.050028846
-7.2800929e-05
-0.049963039
-7.701261e-05
-0.049895545
-8.0379443e-05
-0.049826769
-8.2898661e-05
-0.049757113
-8.4579921e-05
-0.049686969
-8.5443987e-05
-0.049616715
-8.5521483e-05
-0.049546714
-8.485149e-05
-0.049477305
-8.348003e-05
-0.049408803
-8.1458719e-05
-0.049341498
-7.8842932e-05
-0.049275653
-7.5690732e-05
-0.049211502
-7.2061355e-05
-0.049149252
-6.8014005e-05
-0.049089082
-6.3607056e-05
-0.049031145
-5.8897788e-05
-0.048975585
-5.3937347e-05
-0.04892253
-4.8774103e-05
-0.04887207
-4.3457013e-05
-0.048824262
-3.8030144e-05
-0.04877914
-3.2532255e-05
-0.048736723
-2.6998743e-05
-0.048697013
-2.1461823e-05
-0.048659995
-1.5951112e-05
-0.048625645
-1.0494343e-05
-0.048593922
-5.1188401e-06
-0.048564774
1.4631986e-07
-0.048538133
5.2689986e-06
-0.048513919
1.0213909e-05
-0.048492026
1.493374e-05
-0.048472302
1.9316101e-05
-0.048454516
2.3105035e-05
-0.048438487
2.6082424e-05
-0.048424218
2.8730711e-05
-0.048409967
3.1114693e-05
2.470728e-05
-0.049382429
7.2336371e-05
-0.049387597
7.472728e-05
-0.049392248
7.6344675e-05
-0.049396851
7.7436058e-05
-0.049401541
7.8201299e-05
-0.049406353
7.8799583e-05
-0.049411299
7.9323351e-05
-0.049416386
7.9827559e-05
-0.049421624
8.0342036e-05
-0.049427026
8.0886923e-05
-0.049432608
8.1472912e-05
-0.049438384
8.2109525e-05
-0.049444375
8.2801382e-05
-0.049450598
8.3554507e-05
-0.049457075
8.437141e-05
-0.049463827
8.5256882e-05
-0.049470877
8.6212644e-05
-0.049478247
8.7243038e-05
-0.049485964
8.8349454e-05
-0.049494051
8.9536062e-05
-0.049502534
9.0804054e-05
-0.049511442
9.2157483e-05
-0.049520801
9.3597329e-05
-0.04953064
9.5127479e-05
-0.049540988
9.6748595e-05
-0.049551876
9.8464267e-05
-0.049563333
0.00010027467
-0.049575392
0.0001021829
-0.049588084
0.0001041884
-0.04960144
0.00010629352
-0.049615493
0.00010849666
-0.049630274
0.00011079861
-0.049645816
0.0001131982
-0.049662148
0.00011569197
-0.049679302
0.00011827874
-0.049697307
0.00012095247
-0.049716189
0.00012370972
-0.049735975
0.0001265417
-0.049756686
0.0001294421
-0.049778344
0.00013239874
-0.049800963
0.00013540175
-0.049824556
0.00013843503
-0.049849129
0.00014148364
-0.049874683
0.00014452815
-0.049901212
0.00014754724
-0.049928702
0.00015051669
-0.049957132
0.00015340931
-0.049986469
0.00015619514
-0.050016672
0.00015884072
-0.050047686
0.00016130971
-0.050079446
0.00016356256
-0.05011187
0.00016555667
-0.050144865
0.00016724648
-0.050178319
0.00016858402
-0.050212108
0.00016951857
-0.050246086
0.00016999778
-0.050280092
0.00016996785
-0.050313949
0.0001693743
-0.050347458
0.00016816266
-0.050380406
0.00016627976
-0.050412561
0.00016367407
-0.050443676
0.00016029753
-0.050473488
0.00015610649
-0.050501723
0.00015106314
-0.050528094
0.00014513685
-0.050552309
0.00013830558
-0.050574068
0.00013055757
-0.050593073
0.00012189211
-0.050609027
0.00011232131
-0.050621642
0.00010187093
-0.050630642
9.0581219e-05
-0.050635766
7.850743e-05
-0.050636778
6.572022e-05
-0.050633468
5.2305154e-05
-0.050625659
3.8362491e-05
-0.050613209
2.4005828e-05
-0.050596018
9.3604364e-06
-0.050574029
-5.4385731e-06
-0.050547232
-2.024857e-05
-0.050515667
-3.4922168e-05
-0.050479422
-4.9309697e-05
-0.050438635
-6.3263859e-05
-0.050393488
-7.6641119e-05
-0.050344209
-8.9305439e-05
-0.050291066
-0.00010113195
-0.050234369
-0.00011200828
-0.050174455
-0.00012183451
-0.050111683
-0.0001305317
-0.050046443
-0.00013804149
-0.049979134
-0.00014432143
-0.049910165
-0.00014934831
-0.049839946
-0.0001531176
-0.049768883
-0.00015564303
-0.049697372
-0.00015695474
-0.049625796
-0.00015709758
-0.049554519
-0.00015612902
-0.049483882
-0.00015411689
-0.049414203
-0.00015113744
-0.049345774
-0.00014727247
-0.049278856
-0.00014260784
-0.049213687
-0.00013723112
-0.049150471
-0.0001312299
-0.049089388
-0.00012469036
-0.049030589
-0.00011769594
-0.048974202
-0.00011032476
-0.048920325
-0.00010265097
-0.048869037
-9.4744723e-05
-0.048820397
-8.6670197e-05
-0.048774444
-7.8485369e-05
-0.0487312
-7.0242995e-05
-0.048690671
-6.1990801e-05
-0.04865285
-5.3772547e-05
-0.048617715
-4.5629015e-05
-0.048585234
-3.7599997e-05
-0.048555361
-2.9726787e-05
-0.048528038
-2.2053568e-05
-0.048503195
-1.4629774e-05
-0.048480736
-7.5247592e-06
-0.048460538
-8.8212772e-07
-0.048442495
5.0625565e-06
-0.048426631
1.021756e-05
-0.048412715
1.481521e-05
-0.04839917
1.7569166e-05
1.265773e-05
-0.049436791
7.7617778e-05
-0.049440885
7.8821493e-05
-0.049444523
7.9982579e-05
-0.049448033
8.0946051e-05
-0.049451566
8.1734244e-05
-0.049455187
8.242063e-05
-0.049458928
8.3063983e-05
-0.049462808
8.3707467e-05
-0.049466843
8.4377407e-05
-0.04947105
8.5093631e-05
-0.049475444
8.5867422e-05
-0.049480044
8.6709337e-05
-0.049484868
8.7624943e-05
-0.049489934
8.8621333e-05
-0.049495265
8.9701903e-05
-0.04950088
9.0872458e-05
-0.049506803
9.2135545e-05
-0.049513057
9.3496499e-05
-0.049519665
9.4957505e-05
-0.049526653
9.6523724e-05
-0.049534046
9.8197116e-05
-0.049541871
9.9982722e-05
-0.049550156
0.00010188225
-0.049558929
0.00010390054
-0.049568219
0.0001060389
-0.049578057
0.00010830181
-0.049588472
0.00011068996
-0.049599496
0.0001132072
-0.049611161
0.00011585329
-0.049623499
0.0001186311
-0.049636541
0.00012153905
-0.049650321
0.0001245781
-0.049664869
0.00012774688
-0.049680219
0.0001310413
-0.0496964
0.00013445968
-0.049713442
0.00013799462
-0.049731374
0.0001416415
-0.049750221
0.00014538935
-0.049770009
0.00014922975
-0.049790757
0.00015314728
-0.049812485
0.00015712887
-0.049835203
0.00016115387
-0.049858922
0.00016520267
-0.049883644
0.00016925
-0.049909365
0.000173268
-0.049936073
0.00017722497
-0.049963749
0.00018108529
-0.049992364
0.00018480956
-0.050021877
0.00018835383
-0.050052237
0.0001916702
-0.050083381
0.00019470652
-0.050115231
0.0001974065
-0.050147695
0.00019970987
-0.050180664
0.00020155301
-0.050214014
0.00020286863
-0.050247603
0.00020358709
-0.050281272
0.00020363674
-0.050314842
0.00020294485
-0.050348118
0.00020143857
-0.050380885
0.00019904659
-0.050412911
0.00019569965
-0.050443946
0.00019133291
-0.050473727
0.00018588726
-0.050501975
0.00017931116
-0.050528401
0.00017156251
-0.050552706
0.00016261056
-0.050574586
0.00015243807
-0.050593737
0.00014104252
-0.050609854
0.00012843843
-0.050622641
0.00011465849
-0.050631815
9.9754777e-05
-0.050637107
8.3799492e-05
-0.050638272
6.6885454e-05
-0.050635093
4.9125619e-05
-0.050627383
3.065284e-05
-0.050614995
1.1617972e-05
-0.050597822
-7.8122669e-06
-0.050575803
-2.7458313e-05
-0.050548921
-4.7130302e-05
-0.050517212
-6.6630916e-05
-0.050480762
-8.5760138e-05
-0.050439706
-0.00010431993
-0.050394229
-0.00012211785
-0.050344563
-0.00013897151
-0.050290982
-0.00015471262
-0.050233801
-0.00016918965
-0.050173364
-0.00018227124
-0.050110045
-0.00019385105
-0.050044238
-0.00020384822
-0.049976353
-0.00021220626
-0.049906807
-0.00021889457
-0.049836018
-0.00022390725
-0.049764398
-0.00022726271
-0.049692351
-0.00022900131
-0.049620266
-0.000229183
-0.04954851
-0.00022788461
-0.04947743
-0.00022519677
-0.049407347
-0.00022122135
-0.049338552
-0.00021606753
-0.049271309
-0.00020984989
-0.049205855
-0.00020268519
-0.049142395
-0.00019469019
-0.049081106
-0.00018597944
-0.049022138
-0.00017666365
-0.048965616
-0.00016684735
-0.048911637
-0.00015662949
-0.04886028
-0.0001461024
-0.048811599
-0.00013535082
-0.048765633
-0.00012445162
-0.048722401
-0.00011347463
-0.048681909
-0.00010248272
-0.048644149
-9.1533273e-05
-0.048609098
-8.0679432e-05
-0.048576726
-6.9972389e-05
-0.048546989
-5.9463853e-05
-0.048519834
-4.920795e-05
-0.048495198
-3.9265757e-05
-0.048472997
-2.9725859e-05
-0.048453138
-2.0741334e-05
-0.048435577
-1.2498671e-05
-0.048420307
-5.0520108e-06
-0.048406986
1.4936713e-06
-0.04839509
5.6738434e-06
4.6572481e-06
-0.049438533
8.2051983e-05
-0.049442439
8.2727591e-05
-0.049446037
8.3580945e-05
-0.049449513
8.4422434e-05
-0.049452986
8.5207019e-05
-0.049456522
8.5956551e-05
-0.04946016
8.6702086e-05
-0.049463927
8.7473843e-05
-0.049467842
8.8292567e-05
-0.049471924
8.9176149e-05
-0.049476192
9.0135411e-05
-0.049480664
9.1181285e-05
-0.049485359
9.2319887e-05
-0.049490297
9.355914e-05
-0.049495498
9.4903174e-05
-0.049500985
9.6358722e-05
-0.049506778
9.7929101e-05
-0.049512902
9.9620611e-05
-0.049519381
0.00010143622
-0.049526239
0.00010338207
-0.049533503
0.00010546091
-0.049541199
0.00010767876
-0.049549355
0.00011003809
-0.049557999
0.0001125447
-0.049567161
0.00011520061
-0.04957687
0.00011801118
-0.049587158
0.00012097768
-0.049598056
0.00012410474
-0.049609595
0.00012739249
-0.049621808
0.00013084438
-0.049634728
0.00013445891
-0.049648387
0.00013823726
-0.049662818
0.00014217794
-0.049678053
0.00014627631
-0.049694124
0.00015053027
-0.04971106
0.00015493117
-0.049728892
0.00015947328
-0.049747646
0.00016414354
-0.049767348
0.00016893155
-0.04978802
0.00017381875
-0.04980968
0.00017878896
-0.049832343
0.00018381712
-0.049856019
0.00018887902
-0.049880713
0.00019394368
-0.049906422
0.00019897678
-0.049933136
0.00020393923
-0.049960838
0.00020878701
-0.0499895
0.00021347138
-0.050019084
0.00021793786
-0.05004954
0.00022212704
-0.050080808
0.00022597406
-0.05011281
0.00022940887
-0.050145457
0.00023235632
-0.050178641
0.00023473697
-0.050212239
0.00023646667
-0.05024611
0.00023745817
-0.050280095
0.00023762155
-0.050314015
0.00023686535
-0.050347675
0.00023509779
-0.050380857
0.00023222878
-0.050413328
0.00022817063
-0.050444836
0.00022284099
-0.050475113
0.00021616443
-0.050503877
0.00020807488
-0.050530832
0.00019851793
-0.050555675
0.00018745324
-0.050578094
0.00017485732
-0.050597777
0.00016072511
-0.050614411
0.00014507289
-0.050627693
0.00012793982
-0.050637327
0.00010938948
-0.050643039
8.9510884e-05
-0.050644572
6.8419137e-05
-0.050641702
4.6254964e-05
-0.050634233
2.318448e-05
-0.050622012
-6.0294024e-07
-0.050604925
-2.4899255e-05
-0.050582905
-4.9478421e-05
-0.050555935
-7.4100711e-05
-0.050524048
-9.8517504e-05
-0.050487332
-0.00012247658
-0.050445924
-0.00014572753
-0.050400015
-0.00016802708
-0.050349842
-0.00018914466
-0.050295687
-0.00020886725
-0.050237873
-0.00022700371
-0.050176756
-0.00024338908
-0.050112718
-0.00025788866
-0.050046167
-0.0002703995
-0.049977522
-0.00028085066
-0.049907213
-0.00028920424
-0.049835666
-0.00029545349
-0.049763307
-0.00029962236
-0.049690546
-0.00030176245
-0.049617779
-0.00030195003
-0.049545381
-0.00030028257
-0.049473703
-0.00029687483
-0.049403068
-0.00029185562
-0.049333773
-0.00028536278
-0.049266082
-0.00027754074
-0.049200231
-0.00026853654
-0.049136424
-0.00025849699
-0.049074838
-0.00024756587
-0.049015619
-0.00023588209
-0.04895889
-0.00022357694
-0.048904745
-0.00021077421
-0.048853259
-0.00019758882
-0.048804483
-0.00018412609
-0.048758453
-0.00017048156
-0.048715186
-0.00015674171
-0.048674685
-0.00014298397
-0.04863694
-0.00012927855
-0.04860193
-0.00011568978
-0.048569624
-0.00010227842
-0.048539983
-8.9104104e-05
-0.048512963
-7.6227769e-05
-0.048488511
-6.3718189e-05
-0.048466565
-5.1671765e-05
-0.048447077
-4.0229338e-05
-0.048430045
-2.9531305e-05
-0.048415442
-1.9654683e-05
-0.048403052
-1.0896076e-05
-0.048392995
-4.3837127e-06
-1.2473993e-06
-0.049439009
8.6068629e-05
-0.049442784
8.6502384e-05
-0.049446368
8.7165444e-05
-0.049449861
8.791514e-05
-0.049453345
8.8691714e-05
-0.04945688
8.9491415e-05
-0.049460505
9.0326647e-05
-0.049464248
9.1216826e-05
-0.049468132
9.2177e-05
-0.049472179
9.3222501e-05
-0.049476406
9.4363096e-05
-0.049480835
9.560965e-05
-0.049485483
9.6968524e-05
-0.049490372
9.8448266e-05
-0.049495523
0.00010005361
-0.049500956
0.00010179214
-0.049506695
0.00010366788
-0.049512763
0.00010568808
-0.049519183
0.00010785646
-0.049525981
0.00011018015
-0.049533183
0.00011266268
-0.049540815
0.0001153111
-0.049548906
0.00011812861
-0.049557483
0.00012112205
-0.049566576
0.00012429412
-0.049576216
0.00012765116
-0.049586434
0.00013119501
-0.04959726
0.00013493117
-0.049608728
0.00013886016
-0.04962087
0.00014298611
-0.049633718
0.00014730763
-0.049647307
0.00015182623
-0.04966167
0.00015654038
-0.049676838
0.00016144496
-0.049692846
0.00016653756
-0.049709723
0.00017180839
-0.0497275
0.00017725073
-0.049746206
0.00018284954
-0.049765867
0.00018859257
-0.049786507
0.00019445825
-0.049808145
0.00020042742
-0.049830799
0.00020647077
-0.04985448
0.00021255959
-0.049879193
0.00021865735
-0.04990494
0.00022472336
-0.049931712
0.00023071126
-0.049959494
0.00023656874
-0.04998826
0.00024223775
-0.050017976
0.00024765336
-0.050048593
0.00025274459
-0.050080053
0.00025743387
-0.050112281
0.00026163728
-0.05014519
0.00026526463
-0.050178673
0.0002682204
-0.05021261
0.0002704033
-0.05024686
0.00027170806
-0.050281264
0.00027202601
-0.050315645
0.00027124638
-0.050349805
0.0002692578
-0.050383527
0.00026595061
-0.050416574
0.00026121785
-0.050448692
0.00025495867
-0.050479608
0.0002470804
-0.050509034
0.00023750133
-0.05053667
0.00022615367
-0.050562203
0.00021298643
-0.050585315
0.00019796884
-0.050605682
0.00018109234
-0.050622983
0.00016237417
-0.050636903
0.00014185928
-0.050647136
0.0001196223
-0.050653394
9.5768872e-05
-0.050655411
7.043649e-05
-0.05065295
4.379409e-05
-0.050645807
1.6041584e-05
-0.050633818
-1.259263e-05
-0.050616861
-4.1856421e-05
-0.050594863
-7.1475771e-05
-0.050567804
-0.0001011595
-0.050535717
-0.00013060529
-0.050498687
-0.00015950623
-0.050456857
-0.00018755717
-0.050410423
-0.00021446161
-0.050359629
-0.00023993839
-0.050304769
-0.00026372784
-0.050246175
-0.00028559743
-0.050184217
-0.00030534688
-0.050119293
-0.00032281236
-0.050051824
-0.00033786871
-0.049982244
-0.00035043044
-0.049910996
-0.00036045257
-0.049838521
-0.00036792826
-0.049765256
-0.00037288804
-0.049691622
-0.00037539609
-0.049618026
-0.00037554656
-0.049544849
-0.00037345922
-0.049472449
-0.00036927465
-0.049401154
-0.00036315032
-0.049331263
-0.00035525431
-0.049263041
-0.00034576243
-0.049196724
-0.00033485333
-0.049132516
-0.00032270503
-0.049070591
-0.00030949153
-0.049011092
-0.00029538076
-0.048954138
-0.00028053126
-0.04889982
-0.0002650921
-0.048848208
-0.00024920112
-0.048799349
-0.00023298442
-0.048753275
-0.00021655609
-0.048709997
-0.00020001906
-0.048669517
-0.00018346493
-0.048631819
-0.00016697617
-0.048596881
-0.00015062743
-0.048564672
-0.00013448786
-0.048535153
-0.00011862337
-0.048508281
-0.00010309981
-0.048484009
-8.7990089e-05
-0.048462291
-7.3389049e-05
-0.048443105
-5.9415666e-05
-0.048426459
-4.6177515e-05
-0.048412337
-3.3776968e-05
-0.048400694
-2.2538969e-05
-0.048391894
-1.3183606e-05
-6.0512868e-06
-0.049441623
8.9838989e-05
-0.049445276
9.0155037e-05
-0.049448815
9.0704813e-05
-0.049452294
9.1394168e-05
-0.049455771
9.216841e-05
-0.049459293
9.3013569e-05
-0.049462897
9.3931033e-05
-0.049466613
9.4932409e-05
-0.049470464
9.6027889e-05
-0.049474472
9.7230272e-05
-0.049478657
9.8548052e-05
-0.049483039
9.9991785e-05
-0.049487638
0.00010156787
-0.049492475
0.00010328535
-0.049497571
0.00010514944
-0.049502947
0.0001071685
-0.049508627
0.00010934724
-0.049514632
0.0001116938
-0.049520989
0.00011421267
-0.04952772
0.00011691197
-0.049534854
0.00011979601
-0.049542416
0.00012287286
-0.049550433
0.00012614654
-0.049558936
0.00012962488
-0.049567954
0.00013331136
-0.049577516
0.00013721329
-0.049587654
0.00014133319
-0.0495984
0.00014567742
-0.049609787
0.00015024702
-0.049621848
0.00015504681
-0.049634616
0.00016007565
-0.049648125
0.00016533543
-0.049662409
0.00017082467
-0.049677502
0.00017653793
-0.049693437
0.00018247256
-0.049710247
0.00018861778
-0.049727962
0.00019496599
-0.049746613
0.00020150035
-0.049766227
0.00020820688
-0.04978683
0.00021506117
-0.049808444
0.00022204125
-0.049831087
0.00022911369
-0.049854773
0.0002362455
-0.04987951
0.00024339469
-0.049905301
0.0002505144
-0.049932141
0.00025755112
-0.049960016
0.00026444434
-0.049988906
0.00027112681
-0.050018775
0.0002775232
-0.050049582
0.00028355095
-0.050081268
0.00028911975
-0.050113762
0.00029413169
-0.050146979
0.00029848134
-0.050180815
0.00030205688
-0.050215151
0.00030473948
-0.050249849
0.00030640542
-0.050284749
0.00030692667
-0.050319676
0.0003061725
-0.050354429
0.00030401111
-0.050388791
0.00030031238
-0.050422522
0.00029494903
-0.050455364
0.00028780062
-0.050487039
0.00027875596
-0.050517255
0.00026771646
-0.050545701
0.00025459964
-0.050572057
0.00023934255
-0.050595994
0.00022190588
-0.050617178
0.0002022764
-0.050635275
0.00018047129
-0.050649956
0.00015654044
-0.050660903
0.000130569
-0.050667813
0.00010267893
-0.050670407
7.3030231e-05
-0.050668433
4.1820553e-05
-0.050661676
9.2845064e-06
-0.050649959
-2.4309428e-05
-0.050633153
-5.8663005e-05
-0.050611176
-9.3452109e-05
-0.050584004
-0.00012833171
-0.050551666
-0.00016294306
-0.050514251
-0.00019692158
-0.050471904
-0.00022990451
-0.050424826
-0.00026153914
-0.050373274
-0.00029149099
-0.05031755
-0.00031945125
-0.050258004
-0.0003451438
-0.05019502
-0.00036833115
-0.050129013
-0.00038881918
-0.050060421
-0.00040646008
-0.049989698
-0.00042115372
-0.049917302
-0.00043284849
-0.049843692
-0.0004415383
-0.049769319
-0.00044726162
-0.049694618
-0.00045009689
-0.049620007
-0.00045015798
-0.049545877
-0.00044758901
-0.049472593
-0.00044255849
-0.049400489
-0.00043525458
-0.049329865
-0.00042587757
-0.049260991
-0.00041463648
-0.049194102
-0.0004017432
-0.049129398
-0.00038740836
-0.049067052
-0.00037183738
-0.049007205
-0.00035522814
-0.048949969
-0.00033776703
-0.048895433
-0.0003196288
-0.048843659
-0.00030097453
-0.048794692
-0.0002819511
-0.048748558
-0.00026269098
-0.048705264
-0.00024331312
-0.048664806
-0.00022392275
-0.048627168
-0.00020461378
-0.048592325
-0.00018547014
-0.048560245
-0.00016656802
-0.048530891
-0.00014797817
-0.048504221
-0.00012976958
-0.048480195
-0.00011201596
-0.048458779
-9.4805187e-05
-0.04843996
-7.8234745e-05
-0.048423745
-6.2391941e-05
-0.048410136
-4.7386613e-05
-0.048399188
-3.3486513e-05
-0.048391279
-2.1093064e-05
-1.0210005e-05
-0.049446036
9.3440596e-05
-0.049449576
9.3694937e-05
-0.049453051
9.4179596e-05
-0.049456492
9.4834682e-05
-0.049459939
9.5615615e-05
-0.049463431
9.6506122e-05
-0.049467002
9.7501889e-05
-0.049470679
9.8609449e-05
-0.049474487
9.9835303e-05
-0.049478446
0.00010119009
-0.04948258
0.00010268107
-0.049486906
0.0001043184
-0.049491447
0.00010610844
-0.049496222
0.00010806058
-0.049501253
0.0001101805
-0.049506562
0.00011247726
-0.049512171
0.00011495622
-0.049518103
0.0001176264
-0.049524384
0.00012049306
-0.049531037
0.00012356528
-0.049538089
0.0001268482
-0.049545567
0.00013035092
-0.049553499
0.00013407827
-0.049561913
0.00013803918
-0.04957084
0.00014223788
-0.049580309
0.00014668276
-0.049590353
0.00015137703
-0.049601004
0.00015632802
-0.049612294
0.00016153732
-0.049624258
0.00016701057
-0.049636929
0.00017274694
-0.049650343
0.0001787488
-0.049664533
0.00018501488
-0.049679534
0.0001915395
-0.049695382
0.00019831993
-0.049712108
0.00020534454
-0.049729748
0.00021260502
-0.04974833
0.00022008289
-0.049767886
0.00022776264
-0.049788442
0.00023561717
-0.049810023
0.00024362192
-0.049832648
0.00025173953
-0.049856336
0.0002599329
-0.049881096
0.00026815481
-0.049906934
0.00027635239
-0.049933848
0.00028446512
-0.049961828
0.00029242448
-0.049990855
0.0003001541
-0.0500209
0.0003075683
-0.050051923
0.00031457302
-0.050083868
0.00032106511
-0.050116669
0.00032693256
-0.050150242
0.00033205454
-0.050184488
0.0003363026
-0.050219288
0.00033953995
-0.050254507
0.0003416239
-0.050289986
0.00034240642
-0.05032555
0.00034173599
-0.050360998
0.00033945947
-0.050396111
0.00033542518
-0.050430646
0.00032948431
-0.050464341
0.00032149548
-0.050496913
0.00031132754
-0.05052806
0.00029886352
-0.050557465
0.00028400463
-0.050584797
0.00026667442
-0.050609714
0.00024682348
-0.050631871
0.00022443252
-0.050650917
0.00019951736
-0.050666508
0.00017213184
-0.05067831
0.00014237086
-0.050686003
0.00011037234
-0.050689292
7.6318823e-05
-0.050687909
4.0437223e-05
-0.050681622
2.99805e-06
-0.050670243
-3.5688799e-05
-0.050653629
-7.5277371e-05
-0.050631691
-0.00011538991
-0.050604398
-0.00015562491
-0.050571777
-0.00019556396
-0.050533917
-0.00023478132
-0.050490968
-0.00027285299
-0.050443141
-0.00030936652
-0.050390701
-0.00034393076
-0.050333968
-0.00037618475
-0.050273306
-0.00040580615
-0.050209119
-0.00043251818
-0.050141843
-0.00045609509
-0.050071937
-0.00047636578
-0.049999875
-0.00049321539
-0.049926138
-0.00050658625
-0.049851202
-0.00051647421
-0.049775536
-0.00052292729
-0.049699593
-0.00052604021
-0.049623802
-0.0005259489
-0.049548567
-0.00052282427
-0.04947426
-0.00051686529
-0.049401221
-0.00050829327
-0.049329756
-0.00049734311
-0.049260133
-0.00048425918
-0.049192588
-0.00046928855
-0.04912732
-0.00045267615
-0.049064497
-0.00043466022
-0.049004255
-0.00041546971
-0.048946703
-0.00039531964
-0.048891921
-0.000374411
-0.048839967
-0.00035292842
-0.048790878
-0.00033103967
-0.048744674
-0.00030889541
-0.048701357
-0.00028663024
-0.048660917
-0.00026436236
-0.048623334
-0.00024219633
-0.04858858
-0.00022022421
-0.048556621
-0.00019852786
-0.048527418
-0.00017718127
-0.048500933
-0.00015625444
-0.04847713
-0.00013581843
-0.048455985
-0.0001159508
-0.04843749
-9.6729772e-05
-0.048421654
-7.8227154e-05
-0.0484085
-6.0541485e-05
-0.048398126
-4.3860262e-05
-0.048390842
-2.8376494e-05
-1.3962419e-05
-0.049452266
9.6901123e-05
-0.049455699
9.7127477e-05
-0.049459098
9.7578426e-05
-0.049462482
9.8219305e-05
-0.049465883
9.9016145e-05
-0.049469331
9.9954098e-05
-0.049472855
0.00010102648
-0.049476483
0.00010223689
-0.049480237
0.00010358924
-0.049484139
0.00010509253
-0.049488211
0.00010675297
-0.049492473
0.00010858037
-0.049496946
0.00011058098
-0.04950165
0.00011276454
-0.049506606
0.00011513711
-0.049511837
0.00011770843
-0.049517366
0.0001204845
-0.049523215
0.0001234752
-0.049529408
0.00012668655
-0.049535971
0.00013012863
-0.049542931
0.00013380739
-0.049550313
0.000137733
-0.049558146
0.00014191115
-0.049566458
0.00014635186
-0.049575281
0.00015106023
-0.049584644
0.00015604572
-0.049594579
0.00016131232
-0.049605119
0.00016686841
-0.049616298
0.00017271622
-0.04962815
0.00017886228
-0.049640709
0.0001853062
-0.049654011
0.00019205096
-0.049668092
0.0001990956
-0.049682987
0.00020643435
-0.049698732
0.00021406458
-0.049715361
0.00022197395
-0.04973291
0.00023015364
-0.04975141
0.00023858373
-0.049770895
0.00024724735
-0.049791393
0.00025611498
-0.049812931
0.00026515963
-0.049835532
0.0002743403
-0.049859215
0.00028361597
-0.049883994
0.00029293442
-0.049909879
0.00030223698
-0.04993687
0.00031145635
-0.049964962
0.00032051611
-0.049994139
0.00032933096
-0.050024375
0.00033780495
-0.050055635
0.00034583254
-0.050087867
0.00035329774
-0.050121009
0.00036007431
-0.05015498
0.00036602581
-0.050189685
0.0003710068
-0.050225007
0.00037486215
-0.050260813
0.00037742955
-0.050296946
0.00037854025
-0.050333231
0.00037802105
-0.050369468
0.00037569636
-0.050405435
0.00037139173
-0.050440886
0.00036493542
-0.050475554
0.00035616355
-0.05050915
0.00034492334
-0.050541364
0.00033107763
-0.050571869
0.00031450953
-0.050600322
0.00029512719
-0.050626368
0.00027286933
-0.050649644
0.00024770884
-0.050669785
0.0002196587
-0.050686429
0.00018877546
-0.050699221
0.00015516281
-0.050707823
0.00011897419
-0.050711919
8.0414656e-05
-0.050711222
3.974084e-05
-0.050705484
-2.7397002e-06
-0.0506945
-4.6673634e-05
-0.050678112
-9.1664787e-05
-0.050656223
-0.00013727935
-0.050628792
-0.00018305563
-0.050595844
-0.00022851162
-0.05055747
-0.00027315626
-0.050513822
-0.00031650001
-0.050465123
-0.00035806644
-0.05041165
-0.00039740372
-0.050353739
-0.00043409513
-0.050291776
-0.00046776901
-0.050226188