/*--------------------------------*- C++ -*----------------------------------*\
| =========                 |                                                 |
| \\      /  F ield         | foam-extend: Open Source CFD                    |
|  \\    /   O peration     | Version:     4.1                                |
|   \\  /    A nd           | Web:         http://www.foam-extend.org         |
|    \\/     M anipulation  |                                                 |
\*---------------------------------------------------------------------------*/
FoamFile
{
    version     2.0;
    format      ascii;
    class       volScalarField;
    location    "0.1";
    object      rAU;
}
// * * * * * * * * * * * * * * * * * * * * * * * * * * * * * * * * * * * * * //

dimensions      [0 0 1 0 0 0 0];

internalField   nonuniform List<scalar> 
16126
(
0.00013448712
0.00013432654
0.00013419221
0.0001340571
0.00013392044
0.00013378415
0.00013364675
0.00013350989
0.00013337196
0.00013323456
0.00013309605
0.000132958
0.00013281877
0.00013267992
0.0001325398
0.00013239996
0.00013225875
0.00013211772
0.00013197521
0.00013183278
0.00013168876
0.00013154469
0.00013139892
0.00013125298
0.00013110522
0.00013095717
0.00013080717
0.00013065675
0.00013050425
0.00013035121
0.00013019597
0.00013003966
0.00012988223
0.00012972242
0.00012956177
0.00012939864
0.00012923458
0.00012906796
0.00012890033
0.00012873009
0.00012855879
0.00012838499
0.0001282097
0.00012803253
0.00012785358
0.00012767291
0.00012749056
0.00012730674
0.00012712145
0.00012693486
0.00012674716
0.00012655853
0.00012636917
0.00012617944
0.00012598951
0.00012579975
0.00012561051
0.00012542218
0.00012523513
0.00012504993
0.00012486694
0.0001246867
0.00012450973
0.0001243366
0.00012416784
0.00012400399
0.00012384574
0.00012369353
0.00012354795
0.00012340953
0.00012327876
0.00012315607
0.00012304199
0.00012293674
0.00012284067
0.00012275399
0.00012267684
0.00012260924
0.00012255128
0.00012250267
0.00012246331
0.00012243285
0.00012241092
0.00012239703
0.00012239064
0.00012239064
0.00012239116
0.00012239802
0.00012241055
0.00012242796
0.00012244953
0.00012247429
0.00012250144
0.00012253014
0.00012255959
0.00012258898
0.00012261755
0.0001226447
0.00012266967
0.00012269193
0.00012271092
0.00012272618
0.00012273727
0.00012274394
0.00012274266
0.0001227344
0.00012272088
0.00012270201
0.00012267769
0.000122648
0.00012261284
0.00012257227
0.00012252636
0.0001224752
0.00012241888
0.00012235768
0.00012229167
0.00012222114
0.00012214646
0.00012206833
0.00012198795
0.00012190605
0.00012181972
0.000121704
0.00012113532
0.00012107107
0.00012104164
0.00012101414
0.00012098615
0.00012095886
0.00012093067
0.00012090306
0.00012087447
0.00012084638
0.00012081725
0.00012078855
0.00012075874
0.00012072927
0.0001206986
0.0001206682
0.0001206365
0.00012060497
0.00012057205
0.0001205392
0.00012050486
0.00012047048
0.0001204345
0.00012039837
0.00012036053
0.00012032242
0.00012028247
0.00012024215
0.00012019987
0.00012015709
0.00012011224
0.0001200664
0.0001200195
0.00011997036
0.00011992044
0.00011986819
0.00011981506
0.00011975952
0.00011970303
0.00011964408
0.00011958414
0.00011952183
0.00011945814
0.00011939266
0.00011932551
0.00011925674
0.0001191864
0.00011911468
0.00011904158
0.00011896728
0.00011889195
0.00011881578
0.00011873895
0.00011866182
0.00011858455
0.00011850751
0.00011843104
0.0001183555
0.00011828127
0.0001182089
0.00011813875
0.00011807132
0.00011800715
0.00011794674
0.00011789065
0.00011783938
0.00011779358
0.00011775369
0.00011772026
0.00011769379
0.00011767476
0.00011766354
0.00011766064
0.00011766625
0.00011768068
0.0001177041
0.00011773662
0.00011777823
0.00011782898
0.00011788259
0.00011793356
0.00011799338
0.0001180618
0.00011813851
0.00011822309
0.00011831459
0.00011840748
0.00011850708
0.00011861276
0.00011872387
0.00011883985
0.00011895987
0.00011908325
0.00011920927
0.00011933719
0.00011946629
0.00011959584
0.00011972527
0.00011985383
0.00011998096
0.00012010611
0.00012022878
0.00012034847
0.00012046488
0.00012057449
0.00012067808
0.00012077716
0.00012087155
0.00012096108
0.00012104577
0.00012112545
0.00012120015
0.00012126986
0.00012133462
0.00012139417
0.0001214396
0.00012148061
0.00012151748
0.00012155062
0.00012158079
0.00012160881
0.00012163421
0.00012165674
0.00012167063
0.00011982887
0.0001197863
0.00011977345
0.00011976327
0.00011975303
0.00011974369
0.00011973351
0.00011972387
0.00011971321
0.00011970297
0.0001196916
0.00011968057
0.00011966832
0.00011965633
0.00011964304
0.00011962991
0.00011961541
0.00011960097
0.00011958506
0.00011956913
0.00011955162
0.00011953399
0.00011951467
0.00011949512
0.00011947378
0.0001194521
0.00011942852
0.00011940447
0.00011937841
0.00011935177
0.000119323
0.00011929317
0.00011926223
0.00011922899
0.00011919492
0.00011915846
0.00011912107
0.00011908123
0.00011904039
0.00011899706
0.0001189527
0.00011890595
0.00011885778
0.0001188078
0.00011875614
0.00011870286
0.00011864799
0.00011859174
0.00011853413
0.00011847534
0.00011841553
0.00011835491
0.00011829368
0.00011823218
0.00011817062
0.00011810933
0.00011804868
0.00011798904
0.0001179308
0.00011787451
0.00011782051
0.00011776934
0.00011772151
0.00011767755
0.00011763798
0.0001176033
0.00011757417
0.00011755098
0.00011753428
0.00011752454
0.0001175222
0.00011752761
0.00011754121
0.00011756318
0.00011759374
0.00011763303
0.0001176811
0.00011772819
0.00011776731
0.00011780895
0.00011784784
0.00011789562
0.00011795222
0.00011801754
0.00011809132
0.00011817326
0.00011826296
0.00011835995
0.00011846368
0.00011857348
0.00011868883
0.00011880889
0.00011893299
0.00011906036
0.00011919025
0.0001193219
0.00011945455
0.00011958758
0.00011972021
0.00011985182
0.0001199818
0.00012010961
0.0001202347
0.00012035674
0.00012047519
0.00012058977
0.00012070017
0.00012080613
0.00012090741
0.00012100397
0.00012109555
0.00012118212
0.00012126361
0.00012133998
0.00012141092
0.0001214674
0.00012151908
0.0001215661
0.00012160865
0.00012163733
0.00012166173
0.00012168314
0.00012170432
0.00012171404
0.00011971487
0.00011967886
0.00011966884
0.00011966077
0.00011965251
0.00011964515
0.00011963695
0.00011962929
0.00011962057
0.00011961224
0.00011960274
0.00011959352
0.00011958303
0.00011957275
0.00011956111
0.00011954958
0.00011953661
0.00011952366
0.00011950916
0.00011949458
0.00011947837
0.00011946196
0.0001194438
0.00011942535
0.00011940504
0.00011938431
0.00011936162
0.00011933839
0.00011931307
0.00011928711
0.00011925895
0.00011922965
0.00011919916
0.00011916631
0.00011913254
0.00011909632
0.00011905911
0.00011901937
0.00011897857
0.00011893521
0.00011889078
0.00011884389
0.00011879554
0.00011874535
0.00011869344
0.00011863989
0.00011858475
0.00011852823
0.00011847036
0.00011841135
0.00011835137
0.00011829066
0.00011822942
0.00011816804
0.00011810672
0.00011804586
0.00011798582
0.00011792703
0.00011786988
0.00011781497
0.00011776266
0.00011771354
0.00011766812
0.00011762697
0.00011759064
0.00011755965
0.00011753467
0.00011751611
0.00011750453
0.0001175004
0.00011750415
0.00011751611
0.00011753672
0.00011756611
0.00011760447
0.00011765189
0.00011769447
0.00011771526
0.00011772812
0.00011774979
0.00011778057
0.00011782058
0.00011786983
0.00011792828
0.00011799575
0.00011807199
0.00011815664
0.00011824928
0.00011834936
0.00011845626
0.00011856942
0.00011868803
0.00011881138
0.00011893868
0.00011906916
0.00011920202
0.00011933645
0.00011947178
0.00011960718
0.00011974199
0.00011987555
0.00012000727
0.00012013654
0.00012026299
0.00012038605
0.00012050539
0.00012062064
0.00012073154
0.0001208378
0.00012093935
0.00012103591
0.00012112741
0.00012121377
0.00012129492
0.0001213708
0.00012144149
0.00012150687
0.00012156694
0.00012162158
0.00012166091
0.00012169418
0.00012172036
0.00012173772
0.00012173692
0.00011970197
0.0001196685
0.00011965939
0.00011965162
0.00011964343
0.00011963606
0.00011962784
0.00011962013
0.00011961135
0.00011960293
0.00011959331
0.00011958395
0.0001195733
0.0001195628
0.00011955092
0.00011953911
0.00011952582
0.0001195125
0.00011949759
0.00011948256
0.00011946584
0.00011944888
0.00011943013
0.00011941102
0.00011939
0.00011936852
0.000119345
0.0001193209
0.00011929466
0.0001192677
0.00011923849
0.00011920807
0.00011917641
0.00011914232
0.00011910726
0.00011906968
0.00011903105
0.00011898984
0.00011894752
0.00011890258
0.00011885652
0.00011880796
0.00011875791
0.00011870599
0.00011865234
0.00011859703
0.00011854014
0.00011848189
0.00011842233
0.00011836167
0.00011830012
0.00011823792
0.0001181753
0.00011811269
0.00011805031
0.00011798858
0.00011792789
0.00011786871
0.00011781146
0.00011775677
0.00011770504
0.00011765688
0.00011761285
0.00011757354
0.00011753953
0.00011751137
0.00011748974
0.00011747509
0.00011746797
0.00011746885
0.00011747817
0.00011749626
0.00011752351
0.00011756004
0.000117606
0.00011766034
0.00011766815
0.00011766357
0.00011766779
0.00011768103
0.00011770367
0.00011773592
0.00011777787
0.00011782955
0.00011789083
0.00011796154
0.00011804136
0.00011812987
0.00011822658
0.00011833087
0.00011844217
0.00011855966
0.00011868261
0.00011881021
0.00011894163
0.00011907604
0.00011921258
0.00011935054
0.00011948903
0.00011962734
0.00011976476
0.00011990063
0.00012003433
0.00012016541
0.00012029327
0.00012041753
0.00012053781
0.00012065379
0.00012076516
0.00012087182
0.00012097348
0.00012107003
0.00012116138
0.00012124743
0.00012132809
0.00012140343
0.00012147327
0.00012153757
0.00012159614
0.0001216487
0.0001216951
0.00012173244
0.00012175597
0.00012174975
0.00011969296
0.0001196607
0.00011965218
0.00011964461
0.0001196364
0.00011962892
0.00011962053
0.00011961263
0.00011960364
0.00011959498
0.0001195851
0.00011957545
0.00011956447
0.00011955362
0.00011954136
0.00011952912
0.00011951537
0.00011950155
0.0001194861
0.00011947049
0.00011945314
0.00011943551
0.00011941604
0.00011939617
0.00011937434
0.00011935199
0.00011932756
0.00011930248
0.0001192752
0.00011924716
0.00011921679
0.00011918517
0.00011915224
0.00011911683
0.00011908038
0.00011904135
0.00011900121
0.00011895843
0.00011891449
0.00011886788
0.0001188201
0.00011876978
0.00011871792
0.00011866416
0.00011860865
0.00011855147
0.0001184927
0.00011843258
0.00011837118
0.00011830871
0.00011824542
0.00011818156
0.00011811739
0.00011805334
0.00011798968
0.00011792685
0.00011786528
0.00011780546
0.00011774784
0.00011769309
0.00011764167
0.00011759418
0.00011755125
0.00011751348
0.0001174815
0.00011745589
0.00011743734
0.00011742633
0.00011742342
0.0001174291
0.0001174438
0.00011746785
0.00011750162
0.00011754521
0.00011759873
0.00011763872
0.00011761691
0.00011760336
0.00011759876
0.00011760343
0.00011761784
0.00011764228
0.00011767692
0.00011772187
0.00011777707
0.00011784238
0.00011791754
0.00011800217
0.00011809576
0.0001181977
0.00011830745
0.00011842414
0.00011854701
0.00011867523
0.00011880792
0.00011894421
0.00011908317
0.00011922404
0.00011936589
0.00011950794
0.00011964943
0.00011978966
0.00011992794
0.00012006378
0.00012019656
0.00012032583
0.00012045119
0.00012057228
0.00012068879
0.00012080056
0.0001209073
0.00012100888
0.00012110518
0.00012119611
0.00012128155
0.00012136154
0.00012143591
0.00012150457
0.00012156733
0.00012162394
0.00012167419
0.00012171765
0.00012175212
0.00012174947
0.00011968084
0.00011964926
0.00011964117
0.00011963379
0.00011962562
0.00011961807
0.00011960956
0.00011960149
0.0001195923
0.00011958342
0.00011957329
0.00011956335
0.00011955207
0.00011954088
0.00011952823
0.00011951559
0.00011950139
0.00011948708
0.00011947112
0.00011945493
0.00011943698
0.0001194187
0.00011939853
0.00011937791
0.00011935528
0.00011933208
0.00011930675
0.00011928072
0.00011925243
0.00011922332
0.00011919182
0.00011915902
0.00011912483
0.00011908811
0.00011905028
0.00011900982
0.00011896818
0.00011892385
0.00011887828
0.00011883
0.00011878048
0.00011872838
0.0001186747
0.00011861907
0.00011856166
0.00011850256
0.00011844185
0.0001183798
0.00011831647
0.00011825211
0.00011818697
0.00011812132
0.00011805544
0.00011798981
0.0001179247
0.00011786058
0.00011779793
0.00011773724
0.00011767904
0.00011762399
0.00011757261
0.00011752554
0.00011748344
0.00011744696
0.00011741675
0.00011739342
0.00011737771
0.00011737011
0.00011737121
0.00011738152
0.00011740146
0.00011743136
0.00011747159
0.00011752222
0.00011758332
0.00011758939
0.00011755832
0.0001175356
0.00011752201
0.00011751797
0.00011752406
0.00011754064
0.00011756799
0.00011760626
0.00011765549
0.00011771557
0.00011778628
0.00011786726
0.00011795803
0.00011805798
0.00011816652
0.0001182828
0.000118406
0.00011853524
0.00011866961
0.00011880817
0.00011894995
0.00011909413
0.0001192397
0.00011938583
0.00011953172
0.00011967659
0.00011981972
0.00011996057
0.00012009846
0.00012023292
0.00012036352
0.00012048986
0.00012061159
0.00012072856
0.00012084044
0.00012094708
0.00012104835
0.00012114414
0.00012123433
0.00012131894
0.00012139778
0.00012147077
0.00012153771
0.00012159841
0.00012165261
0.00012169979
0.00012173833
0.00012174157
0.00011966577
0.00011963461
0.00011962686
0.00011961966
0.00011961155
0.00011960397
0.00011959537
0.00011958718
0.00011957782
0.00011956874
0.00011955838
0.00011954819
0.00011953661
0.00011952511
0.00011951211
0.00011949908
0.00011948446
0.00011946969
0.00011945323
0.00011943651
0.00011941798
0.00011939907
0.00011937823
0.0001193569
0.0001193335
0.00011930949
0.00011928329
0.00011925633
0.00011922706
0.00011919691
0.00011916432
0.00011913035
0.00011909495
0.00011905694
0.00011901777
0.00011897589
0.00011893277
0.00011888689
0.00011883972
0.00011878976
0.00011873851
0.00011868462
0.00011862909
0.00011857158
0.00011851223
0.00011845116
0.00011838845
0.00011832439
0.00011825905
0.00011819269
0.00011812557
0.000118058
0.00011799027
0.00011792288
0.00011785613
0.00011779051
0.00011772654
0.00011766476
0.0001176057
0.00011755009
0.00011749846
0.00011745152
0.00011740995
0.00011737445
0.0001173457
0.00011732437
0.00011731122
0.00011730677
0.00011731164
0.00011732635
0.00011735135
0.00011738697
0.00011743357
0.0001174912
0.00011755991
0.00011753326
0.00011749261
0.00011746044
0.00011743762
0.00011742467
0.00011742228
0.0001174309
0.0001174509
0.00011748251
0.00011752582
0.00011758079
0.00011764722
0.00011772478
0.00011781299
0.00011791124
0.00011801892
0.00011813512
0.00011825902
0.00011838968
0.00011852612
0.00011866735
0.00011881232
0.00011896015
0.00011910979
0.00011926033
0.0001194109
0.00011956068
0.0001197089
0.00011985497
0.00011999816
0.00012013798
0.00012027394
0.00012040564
0.0001205327
0.00012065495
0.00012077203
0.0001208838
0.0001209901
0.00012109083
0.00012118584
0.00012127516
0.00012135858
0.00012143603
0.00012150733
0.00012157232
0.00012163072
0.00012168206
0.00012172527
0.00012173444
0.00011964773
0.0001196169
0.0001196094
0.00011960237
0.00011959433
0.00011958676
0.0001195781
0.00011956981
0.00011956031
0.00011955106
0.0001195405
0.00011953007
0.00011951824
0.00011950643
0.00011949311
0.00011947972
0.0001194647
0.0001194495
0.00011943257
0.00011941533
0.00011939625
0.00011937675
0.00011935527
0.00011933325
0.00011930912
0.00011928432
0.00011925728
0.00011922943
0.00011919921
0.00011916805
0.0001191344
0.0001190993
0.00011906271
0.00011902344
0.00011898294
0.00011893967
0.00011889508
0.00011884767
0.0001187989
0.00011874727
0.00011869429
0.0001186386
0.00011858121
0.00011852177
0.00011846045
0.00011839736
0.0001183326
0.00011826645
0.00011819901
0.00011813054
0.00011806134
0.0001179917
0.00011792197
0.00011785264
0.00011778405
0.00011771673
0.00011765122
0.00011758809
0.00011752791
0.00011747146
0.00011741931
0.00011737219
0.00011733086
0.00011729603
0.00011726846
0.00011724883
0.00011723796
0.0001172364
0.00011724482
0.00011726374
0.00011729366
0.00011733488
0.0001173878
0.00011745242
0.00011752392
0.00011747091
0.00011742036
0.00011737843
0.0001173461
0.00011732402
0.00011731297
0.00011731351
0.00011732609
0.00011735104
0.0001173885
0.00011743847
0.00011750081
0.00011757519
0.00011766113
0.00011775801
0.0001178652
0.00011798175
0.00011810678
0.00011823929
0.00011837825
0.00011852258
0.00011867118
0.00011882309
0.00011897719
0.0001191325
0.0001192881
0.00011944311
0.00011959669
0.00011974822
0.00011989693
0.00012004228
0.00012018376
0.00012032094
0.00012045341
0.00012058099
0.00012070331
0.00012082022
0.00012093156
0.00012103721
0.00012113702
0.00012123104
0.00012131905
0.00012140098
0.00012147671
0.00012154609
0.00012160885
0.00012166466
0.00012171283
0.00012172784
0.00011962713
0.00011959654
0.00011958926
0.00011958239
0.00011957443
0.00011956688
0.00011955819
0.00011954982
0.00011954021
0.00011953081
0.00011952008
0.00011950944
0.00011949737
0.00011948529
0.00011947167
0.00011945794
0.00011944255
0.00011942694
0.00011940957
0.00011939185
0.00011937224
0.00011935218
0.00011933009
0.00011930741
0.00011928258
0.00011925702
0.00011922918
0.00011920047
0.00011916933
0.0001191372
0.0001191025
0.00011906631
0.00011902854
0.00011898804
0.00011894624
0.00011890159
0.00011885557
0.00011880663
0.00011875627
0.00011870297
0.00011864824
0.00011859074
0.00011853146
0.00011847007
0.00011840673
0.00011834156
0.00011827468
0.00011820636
0.00011813671
0.00011806602
0.00011799458
0.00011792273
0.00011785081
0.00011777935
0.00011770871
0.00011763945
0.00011757214
0.00011750738
0.0001174458
0.00011738819
0.00011733519
0.00011728758
0.00011724613
0.00011721165
0.00011718491
0.00011716666
0.00011715777
0.00011715883
0.00011717053
0.00011719345
0.0001172281
0.00011727481
0.00011733397
0.00011740559
0.00011747092
0.00011740229
0.00011734144
0.00011728939
0.00011724723
0.00011721573
0.00011719579
0.00011718808
0.00011719314
0.00011721138
0.00011724301
0.00011728808
0.00011734649
0.00011741791
0.00011750187
0.00011759772
0.00011770479
0.0001178221
0.00011794869
0.0001180835
0.00011822543
0.00011837332
0.000118526
0.00011868242
0.00011884139
0.00011900187
0.00011916286
0.00011932343
0.00011948267
0.00011963993
0.00011979439
0.00011994547
0.00012009264
0.00012023544
0.00012037345
0.00012050647
0.00012063412
0.00012075624
0.00012087267
0.00012098329
0.00012108795
0.0001211867
0.00012127934
0.00012136583
0.00012144605
0.00012151991
0.00012158717
0.00012164764
0.00012170089
0.00012172161
0.00011960393
0.00011957357
0.00011956649
0.00011955976
0.0001195519
0.00011954438
0.00011953569
0.00011952726
0.00011951757
0.00011950805
0.00011949716
0.00011948634
0.00011947405
0.00011946173
0.00011944782
0.00011943378
0.00011941805
0.00011940206
0.00011938427
0.0001193661
0.000119346
0.0001193254
0.00011930273
0.00011927943
0.00011925393
0.00011922765
0.00011919903
0.0001191695
0.00011913748
0.0001191044
0.0001190687
0.00011903144
0.00011899254
0.00011895083
0.00011890775
0.00011886175
0.0001188143
0.00011876386
0.00011871191
0.00011865695
0.00011860048
0.00011854114
0.00011847996
0.00011841658
0.00011835119
0.00011828389
0.0001182148
0.00011814423
0.00011807228
0.00011799925
0.00011792544
0.00011785122
0.00011777693
0.00011770314
0.00011763024
0.0001175588
0.00011748942
0.00011742276
0.00011735947
0.0001173004
0.00011724622
0.00011719776
0.00011715587
0.00011712138
0.00011709514
0.00011707794
0.00011707071
0.00011707409
0.00011708882
0.00011711553
0.00011715474
0.00011720682
0.00011727216
0.00011735079
0.00011740723
0.0001173278
0.00011725622
0.00011719363
0.00011714127
0.00011710003
0.00011707093
0.00011705476
0.00011705216
0.00011706362
0.00011708943
0.00011712971
0.00011718434
0.00011725304
0.00011733532
0.00011743049
0.00011753786
0.00011765636
0.00011778498
0.00011792259
0.00011806799
0.00011821994
0.00011837718
0.00011853859
0.00011870287
0.00011886894
0.0001190357
0.00011920217
0.00011936738
0.00011953064
0.00011969108
0.00011984809
0.00012000112
0.00012014968
0.00012029333
0.00012043186
0.00012056489
0.00012069226
0.0001208138
0.00012092939
0.00012103892
0.00012114241
0.00012123971
0.00012133077
0.00012141554
0.00012149393
0.00012156578
0.00012163101
0.00012168937
0.00012171566
0.00011957841
0.00011954825
0.00011954134
0.00011953476
0.00011952699
0.00011951953
0.00011951084
0.00011950239
0.00011949263
0.00011948301
0.00011947199
0.00011946101
0.00011944852
0.00011943598
0.00011942183
0.0001194075
0.00011939145
0.00011937511
0.00011935693
0.00011933834
0.00011931777
0.00011929667
0.00011927345
0.00011924956
0.00011922342
0.00011919645
0.00011916709
0.00011913676
0.00011910389
0.0001190699
0.00011903323
0.00011899493
0.00011895492
0.00011891203
0.0001188677
0.00011882037
0.00011877151
0.00011871958
0.00011866605
0.00011860942
0.0001185512
0.00011849002
0.0001184269
0.00011836151
0.000118294
0.00011822451
0.00011815315
0.00011808022
0.00011800585
0.00011793035
0.00011785403
0.00011777726
0.00011770042
0.00011762408
0.00011754866
0.00011747478
0.00011740306
0.00011733418
0.00011726886
0.00011720798
0.00011715226
0.00011710259
0.00011705987
0.000117025
0.00011699888
0.00011698237
0.00011697645
0.00011698184
0.00011699932
0.00011702956
0.00011707315
0.00011713047
0.00011720195
0.00011728759
0.00011733807
0.00011724734
0.00011716454
0.00011709095
0.00011702796
0.00011697659
0.00011693801
0.00011691312
0.00011690268
0.00011690728
0.00011692726
0.0001169628
0.00011701383
0.00011708004
0.00011716094
0.00011725581
0.00011736389
0.00011748407
0.00011761523
0.00011775615
0.00011790555
0.0001180621
0.00011822442
0.00011839132
0.0001185614
0.0001187335
0.00011890645
0.0001190792
0.00011925073
0.00011942029
0.00011958697
0.00011975014
0.00011990921
0.00012006368
0.0001202131
0.00012035724
0.00012049573
0.00012062839
0.00012075508
0.00012087568
0.00012099008
0.00012109833
0.00012120029
0.00012129595
0.00012138528
0.00012146824
0.00012154473
0.00012161477
0.00012167821
0.00012170994
0.00011955053
0.00011952059
0.00011951386
0.00011950742
0.00011949976
0.00011949236
0.0001194837
0.00011947523
0.00011946542
0.00011945573
0.0001194446
0.00011943349
0.00011942084
0.0001194081
0.00011939372
0.00011937913
0.00011936279
0.00011934613
0.00011932759
0.0001193086
0.00011928761
0.00011926603
0.0001192423
0.00011921785
0.0001191911
0.00011916348
0.00011913342
0.00011910233
0.00011906865
0.00011903378
0.00011899617
0.00011895686
0.00011891578
0.00011887175
0.00011882619
0.00011877756
0.0001187273
0.0001186739
0.0001186188
0.00011856051
0.00011850053
0.0001184375
0.00011837243
0.00011830498
0.00011823531
0.00011816357
0.00011808986
0.00011801449
0.0001179376
0.00011785949
0.00011778051
0.00011770102
0.00011762142
0.00011754232
0.00011746414
0.00011738754
0.00011731318
0.00011724178
0.00011717408
0.00011711103
0.0001170534
0.00011700213
0.00011695819
0.00011692253
0.00011689614
0.00011687994
0.00011687497
0.00011688202
0.00011690195
0.00011693549
0.00011698325
0.00011704569
0.00011712323
0.00011721591
0.00011726379
0.00011716118
0.0001170666
0.00011698148
0.00011690736
0.00011684543
0.00011679699
0.00011676309
0.0001167446
0.0001167422
0.00011675633
0.0001167872
0.00011683476
0.00011689873
0.00011697858
0.00011707355
0.0001171828
0.00011730515
0.00011743938
0.00011758419
0.00011773816
0.00011789987
0.00011806784
0.00011824076
0.00011841716
0.00011859575
0.00011877533
0.00011895475
0.00011913296
0.00011930912
0.00011948232
0.00011965187
0.00011981717
0.0001199777
0.00012013299
0.00012028284
0.00012042684
0.00012056485
0.00012069671
0.00012082232
0.0001209416
0.00012105461
0.00012116123
0.00012126149
0.00012135539
0.00012144293
0.00012152407
0.00012159891
0.00012166738
0.00012170441
0.00011952049
0.00011949075
0.00011948419
0.0001194779
0.00011947035
0.00011946303
0.00011945441
0.00011944595
0.00011943612
0.00011942637
0.00011941516
0.00011940393
0.00011939113
0.00011937822
0.00011936364
0.00011934882
0.00011933222
0.00011931526
0.0001192964
0.00011927704
0.00011925565
0.00011923363
0.00011920942
0.00011918444
0.00011915713
0.00011912889
0.00011909816
0.00011906635
0.00011903189
0.00011899618
0.00011895767
0.00011891739
0.00011887526
0.00011883011
0.00011878335
0.00011873344
0.00011868181
0.00011862695
0.00011857029
0.00011851035
0.0001184486
0.0001183837
0.00011831665
0.00011824711
0.00011817524
0.00011810117
0.00011802503
0.00011794713
0.00011786759
0.00011778674
0.00011770493
0.00011762253
0.00011753997
0.00011745786
0.00011737667
0.00011729707
0.00011721975
0.00011714548
0.00011707504
0.00011700944
0.00011694949
0.0001168962
0.00011685061
0.00011681374
0.00011678664
0.00011677033
0.00011676592
0.00011677427
0.00011679632
0.00011683287
0.0001168846
0.000116952
0.00011703555
0.0001171353
0.00011718436
0.00011706925
0.00011696227
0.00011686502
0.00011677923
0.00011670624
0.00011664751
0.00011660425
0.00011657745
0.0001165679
0.00011657612
0.00011660237
0.00011664663
0.00011670861
0.00011678776
0.00011688324
0.00011699416
0.00011711922
0.00011725712
0.00011740641
0.00011756558
0.00011773307
0.00011790729
0.00011808681
0.00011827007
0.00011845569
0.00011864236
0.00011882889
0.00011901413
0.00011919723
0.00011937723
0.0001195534
0.00011972512
0.00011989187
0.00012005317
0.00012020881
0.00012035839
0.00012050178
0.00012063883
0.00012076947
0.00012089362
0.00012101138
0.00012112265
0.00012122749
0.00012132594
0.00012141804
0.00012150381
0.00012158341
0.00012165684
0.00012169904
0.00011948829
0.00011945877
0.0001194524
0.00011944625
0.00011943883
0.00011943159
0.00011942303
0.0001194146
0.00011940477
0.00011939498
0.00011938371
0.00011937239
0.00011935948
0.00011934642
0.00011933166
0.00011931664
0.0001192998
0.00011928258
0.00011926342
0.00011924373
0.00011922197
0.00011919954
0.00011917489
0.00011914942
0.00011912158
0.00011909276
0.0001190614
0.0001190289
0.0001189937
0.00011895719
0.00011891781
0.0001188766
0.00011883347
0.00011878723
0.0001187393
0.00011868814
0.00011863517
0.00011857886
0.00011852066
0.00011845906
0.00011839555
0.00011832877
0.00011825972
0.00011818805
0.00011811394
0.00011803749
0.00011795884
0.0001178783
0.000117796
0.00011771227
0.00011762746
0.00011754197
0.00011745623
0.00011737088
0.0001172864
0.00011720349
0.00011712289
0.00011704539
0.00011697184
0.00011690327
0.00011684057
0.00011678483
0.00011673713
0.00011669858
0.00011667033
0.00011665345
0.00011664917
0.00011665844
0.00011668225
0.00011672152
0.00011677697
0.00011684918
0.00011693867
0.00011704551
0.00011710003
0.00011697171
0.00011685164
0.0001167416
0.0001166435
0.00011655888
0.00011648938
0.00011643635
0.00011640093
0.00011638404
0.00011638627
0.00011640794
0.00011644906
0.00011650932
0.00011658813
0.00011668458
0.0001167977
0.00011692606
0.00011706825
0.00011722269
0.00011738772
0.00011756165
0.00011774277
0.00011792953
0.00011812023
0.00011831341
0.00011850767
0.00011870174
0.00011889443
0.00011908481
0.00011927189
0.00011945493
0.00011963327
0.0001198064
0.00011997382
0.00012013533
0.00012029056
0.00012043935
0.00012058162
0.00012071728
0.00012084628
0.00012096876
0.00012108465
0.00012119404
0.000121297
0.00012139363
0.00012148399
0.00012156829
0.00012164657
0.00012169382
0.00011945408
0.00011942477
0.00011941857
0.00011941259
0.00011940529
0.00011939816
0.00011938967
0.00011938128
0.00011937146
0.00011936167
0.00011935035
0.00011933897
0.00011932596
0.00011931278
0.00011929788
0.00011928268
0.00011926564
0.00011924818
0.00011922874
0.00011920876
0.00011918666
0.00011916386
0.0001191388
0.00011911288
0.00011908454
0.00011905518
0.00011902323
0.00011899009
0.00011895418
0.00011891691
0.00011887671
0.00011883459
0.00011879049
0.0001187432
0.00011869414
0.00011864175
0.00011858746
0.00011852973
0.00011847
0.00011840676
0.00011834148
0.00011827281
0.00011820174
0.00011812792
0.0001180515
0.00011797261
0.00011789137
0.00011780809
0.00011772291
0.00011763616
0.00011754818
0.00011745941
0.00011737026
0.00011728141
0.00011719336
0.00011710683
0.00011702259
0.0001169415
0.00011686441
0.00011679245
0.00011672655
0.00011666787
0.00011661757
0.00011657686
0.00011654695
0.00011652903
0.00011652441
0.00011653415
0.00011655935
0.00011660099
0.00011665991
0.00011673675
0.00011683209
0.00011694605
0.00011701086
0.00011686857
0.00011673463
0.00011661105
0.00011649995
0.00011640305
0.00011632221
0.00011625895
0.00011621457
0.00011619011
0.00011618625
0.00011620338
0.00011624152
0.00011630034
0.0001163792
0.00011647712
0.00011659301
0.00011672532
0.00011687249
0.00011703279
0.00011720441
0.00011738551
0.00011757422
0.00011776888
0.00011796765
0.00011816898
0.00011837136
0.00011857345
0.00011877399
0.00011897201
0.00011916648
0.00011935663
0.00011954181
0.00011972147
0.00011989513
0.0001200626
0.00012022351
0.00012037775
0.00012052522
0.00012066588
0.00012079972
0.00012092688
0.00012104734
0.00012116122
0.00012126865
0.00012136975
0.00012146462
0.00012155354
0.00012163658
0.00012168875
0.00011941787
0.00011938879
0.00011938279
0.00011937697
0.00011936982
0.0001193628
0.0001193544
0.00011934607
0.00011933629
0.0001193265
0.00011931517
0.00011930374
0.00011929066
0.00011927739
0.00011926236
0.00011924701
0.00011922979
0.00011921213
0.00011919246
0.00011917221
0.00011914981
0.00011912668
0.00011910124
0.00011907491
0.00011904611
0.00011901625
0.00011898375
0.00011895
0.00011891344
0.00011887545
0.00011883445
0.00011879148
0.00011874645
0.00011869815
0.00011864799
0.00011859441
0.00011853882
0.00011847969
0.00011841845
0.00011835358
0.00011828654
0.00011821597
0.00011814286
0.00011806685
0.00011798809
0.0001179067
0.00011782279
0.00011773668
0.00011764849
0.00011755857
0.00011746726
0.00011737499
0.00011728222
0.0001171896
0.00011709768
0.00011700721
0.00011691898
0.00011683388
0.00011675285
0.00011667703
0.00011660744
0.00011654532
0.0001164919
0.00011644848
0.00011641638
0.00011639689
0.00011639143
0.00011640117
0.00011642732
0.00011647097
0.00011653307
0.00011661434
0.00011671543
0.00011683652
0.00011691705
0.00011675991
0.00011661125
0.0001164733
0.00011634839
0.00011623851
0.00011614569
0.00011607167
0.00011601792
0.00011598562
0.00011597555
0.00011598815
0.00011602348
0.00011608117
0.00011616051
0.00011626044
0.00011637973
0.00011651669
0.00011666958
0.00011683652
0.00011701552
0.00011720456
0.00011740163
0.00011760491
0.00011781243
0.00011802251
0.00011823358
0.00011844418
0.000118653
0.00011885904
0.00011906121
0.00011925874
0.00011945094
0.00011963728
0.0001198173
0.0001199908
0.00012015744
0.00012031713
0.0001204698
0.00012061544