/*--------------------------------*- C++ -*----------------------------------*\
| =========                 |                                                 |
| \\      /  F ield         | foam-extend: Open Source CFD                    |
|  \\    /   O peration     | Version:     4.1                                |
|   \\  /    A nd           | Web:         http://www.foam-extend.org         |
|    \\/     M anipulation  |                                                 |
\*---------------------------------------------------------------------------*/
FoamFile
{
    version     2.0;
    format      ascii;
    class       volVectorField;
    location    "0.1";
    object      U;
}
// * * * * * * * * * * * * * * * * * * * * * * * * * * * * * * * * * * * * * //

dimensions      [0 1 -1 0 0 0 0];

internalField   nonuniform List<vector> 
16126
(
(131.06592 -0.084854502 0)
(131.27546 -0.094668192 0)
(131.4506 -0.096900424 0)
(131.632 -0.09793764 0)
(131.81502 -0.098536237 0)
(131.99915 -0.09897895 0)
(132.18414 -0.09936112 0)
(132.36988 -0.09972233 0)
(132.55636 -0.10008122 0)
(132.74359 -0.10044761 0)
(132.9316 -0.10082718 0)
(133.12044 -0.10122357 0)
(133.31016 -0.10163928 0)
(133.50084 -0.10207617 0)
(133.69252 -0.10253579 0)
(133.88529 -0.10301943 0)
(134.07922 -0.1035283 0)
(134.27438 -0.10406348 0)
(134.47086 -0.10462605 0)
(134.66874 -0.10521704 0)
(134.8681 -0.10583746 0)
(135.06903 -0.10648828 0)
(135.27163 -0.10717045 0)
(135.47599 -0.10788488 0)
(135.6822 -0.10863245 0)
(135.89037 -0.10941395 0)
(136.10058 -0.1102301 0)
(136.31295 -0.11108151 0)
(136.52758 -0.11196869 0)
(136.74457 -0.11289198 0)
(136.96403 -0.11385152 0)
(137.18606 -0.11484722 0)
(137.41076 -0.11587885 0)
(137.63823 -0.11694574 0)
(137.86857 -0.11804695 0)
(138.10188 -0.11918115 0)
(138.33824 -0.12034654 0)
(138.57774 -0.12154084 0)
(138.82045 -0.12276122 0)
(139.06643 -0.12400423 0)
(139.31574 -0.12526571 0)
(139.56842 -0.12654078 0)
(139.82448 -0.12782372 0)
(140.08393 -0.12910797 0)
(140.34674 -0.13038598 0)
(140.61289 -0.13164925 0)
(140.88229 -0.13288818 0)
(141.15485 -0.13409213 0)
(141.43044 -0.13524931 0)
(141.70887 -0.1363468 0)
(141.98994 -0.13737057 0)
(142.2734 -0.13830545 0)
(142.55894 -0.13913526 0)
(142.84622 -0.13984284 0)
(143.13483 -0.1404102 0)
(143.42431 -0.14081863 0)
(143.71416 -0.14104895 0)
(144.0038 -0.14108171 0)
(144.29261 -0.14089749 0)
(144.57991 -0.14047722 0)
(144.86496 -0.13980255 0)
(145.14698 -0.13885628 0)
(145.42513 -0.13762275 0)
(145.69854 -0.1360884 0)
(145.96629 -0.13424217 0)
(146.22745 -0.13207607 0)
(146.48107 -0.12958562 0)
(146.72618 -0.12677037 0)
(146.96184 -0.12363425 0)
(147.18712 -0.12018601 0)
(147.40112 -0.11643943 0)
(147.60299 -0.11241357 0)
(147.79198 -0.10813279 0)
(147.96738 -0.10362667 0)
(148.1286 -0.098929819 0)
(148.27515 -0.094081492 0)
(148.4067 -0.089125106 0)
(148.52301 -0.084107657 0)
(148.62401 -0.079078489 0)
(148.70978 -0.074087182 0)
(148.78055 -0.069181231 0)
(148.8367 -0.064405854 0)
(148.87879 -0.059805916 0)
(148.90749 -0.055422958 0)
(148.9236 -0.051289803 0)
(148.92807 -0.047421629 0)
(148.92193 -0.043827162 0)
(148.90596 -0.040589317 0)
(148.88142 -0.037797112 0)
(148.84963 -0.035476232 0)
(148.81194 -0.033634793 0)
(148.76975 -0.032271033 0)
(148.7244 -0.031375688 0)
(148.67724 -0.030933118 0)
(148.62956 -0.030922153 0)
(148.5826 -0.031316932 0)
(148.53752 -0.032087753 0)
(148.4954 -0.033201919 0)
(148.45722 -0.034624506 0)
(148.4239 -0.036319052 0)
(148.39622 -0.038248165 0)
(148.37489 -0.040373959 0)
(148.36051 -0.042657654 0)
(148.3536 -0.045057044 0)
(148.35458 -0.047526309 0)
(148.3637 -0.050042659 0)
(148.38115 -0.0526029 0)
(148.40714 -0.05519361 0)
(148.44179 -0.057791712 0)
(148.48521 -0.060372783 0)
(148.5374 -0.062911954 0)
(148.59837 -0.065383487 0)
(148.66803 -0.067759688 0)
(148.74629 -0.070008922 0)
(148.83299 -0.072092499 0)
(148.92796 -0.07396116 0)
(149.03092 -0.075552355 0)
(149.14141 -0.076778617 0)
(149.25889 -0.077468206 0)
(149.38324 -0.077282613 0)
(149.51516 -0.075872285 0)
(149.65197 -0.0734631 0)
(149.77726 -0.069670595 0)
(149.87043 -0.054316279 0)
(150.92231 -0.12515813 0)
(150.97901 -0.13887323 0)
(151.02046 -0.1431443 0)
(151.06362 -0.14523962 0)
(151.10758 -0.14642645 0)
(151.15212 -0.14724776 0)
(151.19712 -0.14792089 0)
(151.24251 -0.1485444 0)
(151.28827 -0.14916733 0)
(151.33444 -0.14981632 0)
(151.38103 -0.15050713 0)
(151.42811 -0.1512499 0)
(151.47573 -0.1520517 0)
(151.52394 -0.15291783 0)
(151.57282 -0.15385261 0)
(151.62243 -0.15485973 0)
(151.67285 -0.15594252 0)
(151.72415 -0.15710406 0)
(151.77641 -0.15834728 0)
(151.82972 -0.159675 0)
(151.88415 -0.16108994 0)
(151.93981 -0.16259472 0)
(151.99677 -0.16419184 0)
(152.05513 -0.16588366 0)
(152.11498 -0.16767238 0)
(152.17643 -0.16955994 0)
(152.23958 -0.17154804 0)
(152.30451 -0.17363803 0)
(152.37134 -0.17583086 0)
(152.44017 -0.17812696 0)
(152.51111 -0.18052622 0)
(152.58424 -0.18302777 0)
(152.65969 -0.18563013 0)
(152.73755 -0.18833073 0)
(152.81791 -0.19112601 0)
(152.90087 -0.19401126 0)
(152.98652 -0.19698039 0)
(153.07494 -0.20002586 0)
(153.16621 -0.20313842 0)
(153.26039 -0.20630702 0)
(153.35752 -0.20951856 0)
(153.45767 -0.21275776 0)
(153.56083 -0.21600687 0)
(153.66702 -0.21924569 0)
(153.77622 -0.22245118 0)
(153.88839 -0.22559744 0)
(154.00346 -0.22865552 0)
(154.12132 -0.23159334 0)
(154.24186 -0.23437562 0)
(154.36489 -0.2369638 0)
(154.49022 -0.23931614 0)
(154.61758 -0.2413878 0)
(154.74668 -0.24313095 0)
(154.87716 -0.24449516 0)
(155.00864 -0.24542762 0)
(155.14064 -0.2458737 0)
(155.27267 -0.24577751 0)
(155.40416 -0.24508262 0)
(155.53447 -0.24373289 0)
(155.66294 -0.24167345 0)
(155.78882 -0.23885179 0)
(155.91132 -0.23521896 0)
(156.02961 -0.23073093 0)
(156.14281 -0.22534992 0)
(156.25001 -0.21904588 0)
(156.35026 -0.21179795 0)
(156.4426 -0.2035959 0)
(156.52607 -0.19444149 0)
(156.59971 -0.1843497 0)
(156.66258 -0.1733498 0)
(156.71378 -0.16148615 0)
(156.75245 -0.14881868 0)
(156.77782 -0.13542315 0)
(156.78918 -0.12139081 0)
(156.78593 -0.10682778 0)
(156.76757 -0.091853912 0)
(156.73374 -0.076601198 0)
(156.68423 -0.061211229 0)
(156.61893 -0.045831097 0)
(156.53794 -0.030609831 0)
(156.44146 -0.015702748 0)
(156.32989 -0.0012717831 0)
(156.20375 0.012533472 0)
(156.06375 0.025573746 0)
(155.91069 0.037726988 0)
(155.74554 0.04890147 0)
(155.56938 0.059029936 0)
(155.38372 0.068011445 0)
(155.18974 0.075734197 0)
(154.98867 0.082142322 0)
(154.78173 0.087209388 0)
(154.57021 0.090931857 0)
(154.35534 0.093325961 0)
(154.13836 0.094425487 0)
(153.92047 0.094279653 0)
(153.70281 0.092950865 0)
(153.48649 0.090512374 0)
(153.27251 0.087045875 0)
(153.06181 0.082639187 0)
(152.85525 0.07738408 0)
(152.6536 0.071374197 0)
(152.45755 0.064703262 0)
(152.26769 0.057464529 0)
(152.08453 0.049753185 0)
(151.9085 0.04166671 0)
(151.74008 0.033287483 0)
(151.57959 0.02467349 0)
(151.42725 0.015879107 0)
(151.28319 0.0069600548 0)
(151.14751 -0.0020318682 0)
(151.02023 -0.011049521 0)
(150.90132 -0.020049933 0)
(150.79073 -0.028992974 0)
(150.68836 -0.037838578 0)
(150.59407 -0.046542469 0)
(150.50768 -0.055053214 0)
(150.42895 -0.063319482 0)
(150.35751 -0.071248516 0)
(150.29294 -0.07859563 0)
(150.23528 -0.084826041 0)
(150.18482 -0.089536408 0)
(150.13892 -0.093592797 0)
(150.08811 -0.096217677 0)
(150.02987 -0.078711489 0)
(153.06941 -0.14198182 0)
(153.09411 -0.14948693 0)
(153.10868 -0.15350478 0)
(153.12296 -0.15587334 0)
(153.13734 -0.15738105 0)
(153.15206 -0.15848247 0)
(153.16717 -0.15940856 0)
(153.18272 -0.1602793 0)
(153.19871 -0.16116002 0)
(153.21519 -0.16208842 0)
(153.2322 -0.1630878 0)
(153.24979 -0.16417363 0)
(153.26802 -0.16535694 0)
(153.28693 -0.16664623 0)
(153.3066 -0.16804848 0)
(153.32709 -0.16956973 0)
(153.34846 -0.1712155 0)
(153.3708 -0.17299093 0)
(153.39416 -0.17490094 0)
(153.41864 -0.17695028 0)
(153.4443 -0.17914354 0)
(153.47123 -0.18148518 0)
(153.49952 -0.18397949 0)
(153.52926 -0.1866305 0)
(153.56052 -0.18944201 0)
(153.59342 -0.19241742 0)
(153.62803 -0.19555975 0)
(153.66445 -0.1988714 0)
(153.70279 -0.20235418 0)
(153.74314 -0.20600904 0)
(153.7856 -0.20983605 0)
(153.83027 -0.21383406 0)
(153.87725 -0.21800079 0)
(153.92663 -0.22233234 0)
(153.97851 -0.22682311 0)
(154.03298 -0.2314656 0)
(154.09014 -0.23625004 0)
(154.15006 -0.24116427 0)
(154.21281 -0.24619327 0)
(154.27847 -0.25131908 0)
(154.34709 -0.25652028 0)
(154.41872 -0.26177188 0)
(154.49338 -0.26704481 0)
(154.57108 -0.2723058 0)
(154.65182 -0.27751697 0)
(154.73557 -0.2826356 0)
(154.82227 -0.28761389 0)
(154.91184 -0.29239881 0)
(155.00418 -0.29693192 0)
(155.09912 -0.30114933 0)
(155.19648 -0.30498176 0)
(155.29604 -0.30835467 0)
(155.39753 -0.31118855 0)
(155.50063 -0.31339933 0)
(155.60497 -0.31489897 0)
(155.71014 -0.31559624 0)
(155.81565 -0.31539768 0)
(155.921 -0.31420874 0)
(156.02559 -0.31193524 0)
(156.12878 -0.30848492 0)
(156.22988 -0.30376929 0)
(156.32816 -0.29770562 0)
(156.42281 -0.29021914 0)
(156.51301 -0.28124538 0)
(156.59788 -0.27073256 0)
(156.67652 -0.25864408 0)
(156.74801 -0.24496091 0)
(156.81142 -0.22968389 0)
(156.86583 -0.21283584 0)
(156.91032 -0.19446337 0)
(156.94402 -0.17463821 0)
(156.96609 -0.15345817 0)
(156.97576 -0.13104742 0)
(156.97233 -0.10755613 0)
(156.95519 -0.083159539 0)
(156.92386 -0.058056013 0)
(156.87795 -0.032463787 0)
(156.81722 -0.0066151768 0)
(156.74156 0.0192439 0)
(156.65102 0.044851746 0)
(156.5458 0.069949923 0)
(156.42625 0.094286863 0)
(156.29286 0.11761104 0)
(156.14628 0.13968431 0)
(155.98728 0.16028635 0)
(155.81677 0.17921982 0)
(155.63573 0.19631625 0)
(155.44527 0.21145721 0)
(155.24654 0.22455631 0)
(155.04077 0.23554012 0)
(154.82922 0.2443676 0)
(154.61317 0.2510308 0)
(154.39388 0.25555291 0)
(154.1726 0.25798564 0)
(153.95053 0.25840597 0)
(153.72885 0.25691258 0)
(153.50864 0.25362208 0)
(153.29094 0.24866508 0)
(153.07667 0.24218228 0)
(152.86671 0.23432079 0)
(152.66182 0.22523048 0)
(152.46269 0.21506073 0)
(152.26991 0.20395762 0)
(152.084 0.19206182 0)
(151.90539 0.17950691 0)
(151.73443 0.16642429 0)
(151.57138 0.15294102 0)
(151.41647 0.13916975 0)
(151.26983 0.12520973 0)
(151.13158 0.11115039 0)
(151.00174 0.097072048 0)
(150.88031 0.083046855 0)
(150.76726 0.069140241 0)
(150.66249 0.055413747 0)
(150.56589 0.041928423 0)
(150.47731 0.028745381 0)
(150.39652 0.015932803 0)
(150.32321 0.003579156 0)
(150.25713 -0.0080877436 0)
(150.19832 -0.018645349 0)
(150.14654 -0.027983586 0)
(150.0994 -0.036996427 0)
(150.05356 -0.044384056 0)
(150.01532 -0.037305552 0)
(153.24259 -0.15578952 0)
(153.26093 -0.15930342 0)
(153.27246 -0.16217246 0)
(153.28345 -0.16432822 0)
(153.29433 -0.16596678 0)
(153.30539 -0.16732013 0)
(153.31679 -0.16854835 0)
(153.32859 -0.16975177 0)
(153.34084 -0.17099239 0)
(153.35361 -0.17230942 0)
(153.36692 -0.17372881 0)
(153.38085 -0.17526869 0)
(153.39544 -0.17694258 0)
(153.41076 -0.17876122 0)
(153.42685 -0.18073367 0)
(153.4438 -0.18286796 0)
(153.46167 -0.18517149 0)
(153.48052 -0.18765125 0)
(153.50044 -0.190314 0)
(153.52149 -0.19316627 0)
(153.54376 -0.19621449 0)
(153.56733 -0.19946486 0)
(153.59228 -0.20292342 0)
(153.6187 -0.2065959 0)
(153.64667 -0.21048773 0)
(153.67629 -0.21460383 0)
(153.70766 -0.21894863 0)
(153.74087 -0.22352579 0)
(153.77601 -0.22833816 0)
(153.81319 -0.23338749 0)
(153.85251 -0.23867435 0)
(153.89405 -0.24419776 0)
(153.93794 -0.24995512 0)
(153.98426 -0.25594179 0)
(154.03311 -0.26215078 0)
(154.08458 -0.26857262 0)
(154.13877 -0.27519473 0)
(154.19576 -0.28200134 0)
(154.25563 -0.28897283 0)
(154.31845 -0.29608558 0)
(154.38428 -0.30331127 0)
(154.45316 -0.31061673 0)
(154.52514 -0.31796324 0)
(154.60023 -0.32530631 0)
(154.67842 -0.33259514 0)
(154.75971 -0.33977228 0)
(154.84403 -0.34677329 0)
(154.93131 -0.35352644 0)
(155.02145 -0.35995253 0)
(155.11431 -0.36596477 0)
(155.2097 -0.37146881 0)
(155.30742 -0.37636291 0)
(155.40719 -0.38053826 0)
(155.50871 -0.38387955 0)
(155.61162 -0.38626574 0)
(155.7155 -0.38757106 0)
(155.81989 -0.38766629 0)
(155.92427 -0.38642038 0)
(156.02805 -0.38370233 0)
(156.1306 -0.37938334 0)
(156.23123 -0.37333936 0)
(156.32918 -0.36545382 0)
(156.42366 -0.35562065 0)
(156.51383 -0.34374756 0)
(156.59881 -0.32975937 0)
(156.67768 -0.31360144 0)
(156.7495 -0.29524312 0)
(156.81334 -0.27468095 0)
(156.86823 -0.25194171 0)
(156.91325 -0.22708495 0)
(156.94749 -0.2002051 0)
(156.9701 -0.17143274 0)
(156.98027 -0.14093524 0)
(156.97728 -0.10891641 0)
(156.96051 -0.07561544 0)
(156.92943 -0.041304093 0)
(156.88365 -0.0062809911 0)
(156.8229 0.029129532 0)
(156.74707 0.064578777 0)
(156.65618 0.099716749 0)
(156.55041 0.13418383 0)
(156.43012 0.16762357 0)
(156.29581 0.19969081 0)
(156.14812 0.23005794 0)
(155.98784 0.25842178 0)
(155.81588 0.28450648 0)
(155.63328 0.30806786 0)
(155.44115 0.328911 0)
(155.24068 0.34689182 0)
(155.03314 0.36190873 0)
(154.8198 0.37390611 0)
(154.60196 0.38287397 0)
(154.38092 0.38884563 0)
(154.15794 0.39189423 0)
(153.93425 0.39212835 0)
(153.71104 0.38968713 0)
(153.4894 0.38473493 0)
(153.27037 0.37745592 0)
(153.05491 0.36804871 0)
(152.84388 0.35672119 0)
(152.63805 0.34368575 0)
(152.4381 0.32915493 0)
(152.24463 0.3133375 0)
(152.05814 0.29643416 0)
(151.87905 0.27863369 0)
(151.70772 0.26011458 0)
(151.54441 0.24104603 0)
(151.38933 0.22158447 0)
(151.24261 0.20187284 0)
(151.10435 0.18204203 0)
(150.97459 0.16221229 0)
(150.85332 0.14249539 0)
(150.74049 0.12299786 0)
(150.63602 0.10382595 0)
(150.53979 0.085091276 0)
(150.45167 0.066914649 0)
(150.37144 0.049434202 0)
(150.29886 0.032848552 0)
(150.23377 0.017501339 0)
(150.17615 0.0038544467 0)
(150.12543 -0.0078648098 0)
(150.07979 -0.017605179 0)
(150.03893 -0.023039001 0)
(150.00997 -0.017549628 0)
(153.24946 -0.16450545 0)
(153.26591 -0.16632482 0)
(153.27722 -0.16836895 0)
(153.28811 -0.17022382 0)
(153.29884 -0.1718466 0)
(153.30968 -0.17332581 0)
(153.32078 -0.17475585 0)
(153.33224 -0.17620997 0)
(153.34413 -0.17774032 0)
(153.35651 -0.1793834 0)
(153.36944 -0.18116535 0)
(153.38297 -0.18310559 0)
(153.39717 -0.18521935 0)
(153.41208 -0.18751917 0)
(153.42778 -0.19001595 0)
(153.44433 -0.19271953 0)
(153.46179 -0.19563916 0)
(153.48025 -0.1987836 0)
(153.49976 -0.20216145 0)
(153.52041 -0.20578102 0)
(153.54228 -0.20965051 0)
(153.56545 -0.21377786 0)
(153.59 -0.21817083 0)
(153.61601 -0.22283677 0)
(153.64359 -0.22778269 0)
(153.67282 -0.23301495 0)
(153.70379 -0.23853927 0)
(153.7366 -0.24436041 0)
(153.77135 -0.2504821 0)
(153.80814 -0.25690669 0)
(153.84707 -0.26363501 0)
(153.88824 -0.27066594 0)
(153.93176 -0.27799624 0)
(153.97772 -0.28562016 0)
(154.02622 -0.29352892 0)
(154.07736 -0.30171054 0)
(154.13123 -0.31014913 0)
(154.18792 -0.31882469 0)
(154.24751 -0.32771233 0)
(154.31007 -0.336782 0)
(154.37567 -0.34599771 0)
(154.44437 -0.35531718 0)
(154.51619 -0.36469109 0)
(154.59117 -0.37406267 0)
(154.6693 -0.38336706 0)
(154.75057 -0.39253088 0)
(154.83494 -0.40147171 0)
(154.92234 -0.41009779 0)
(155.01266 -0.41830769 0)
(155.10577 -0.42599018 0)
(155.20151 -0.43302424 0)
(155.29965 -0.43927925 0)
(155.39994 -0.44461541 0)
(155.50208 -0.44888443 0)
(155.6057 -0.45193049 0)
(155.71041 -0.45359152 0)
(155.81573 -0.45370083 0)
(155.92114 -0.4520892 0)
(156.02606 -0.44858719 0)
(156.12985 -0.44302806 0)
(156.23181 -0.4352509 0)
(156.33119 -0.42510425 0)
(156.42718 -0.41245 0)
(156.51892 -0.39716761 0)
(156.60552 -0.37915845 0)
(156.68605 -0.35835031 0)
(156.75955 -0.33470185 0)
(156.82505 -0.30820685 0)
(156.88158 -0.27889818 0)
(156.92817 -0.24685121 0)
(156.9639 -0.21218654 0)
(156.98788 -0.17507179 0)
(156.99928 -0.13572246 0)
(156.99735 -0.094401662 0)
(156.98143 -0.051418855 0)
(156.95099 -0.0071256975 0)
(156.90561 0.038092768 0)
(156.84499 0.083816215 0)
(156.76902 0.12960714 0)
(156.67771 0.17500475 0)
(156.57126 0.21954295 0)
(156.45001 0.2627596 0)
(156.31447 0.30420604 0)
(156.16532 0.34345744 0)
(156.00335 0.38012231 0)
(155.82952 0.41384935 0)
(155.64487 0.44433392 0)
(155.45057 0.47132702 0)
(155.24783 0.49463829 0)
(155.03794 0.51413563 0)
(154.82223 0.52974666 0)
(154.60203 0.54145776 0)
(154.37866 0.54931111 0)
(154.15342 0.55340014 0)
(153.92757 0.55386393 0)
(153.70229 0.55088077 0)
(153.47873 0.54466124 0)
(153.25793 0.53544114 0)
(153.04084 0.52347444 0)
(152.82833 0.50902663 0)
(152.62119 0.49236849 0)
(152.42009 0.47377069 0)
(152.22562 0.45349896 0)
(152.03828 0.43180953 0)
(151.85849 0.40894535 0)
(151.68659 0.38513446 0)
(151.52282 0.36058857 0)
(151.36739 0.33550134 0)
(151.22043 0.31004794 0)
(151.08202 0.28438597 0)
(150.95219 0.25865678 0)
(150.83093 0.23298768 0)
(150.71818 0.20749532 0)
(150.61387 0.18229058 0)
(150.5179 0.15748397 0)
(150.43012 0.13319116 0)
(150.35036 0.10954718 0)
(150.27845 0.086748624 0)
(150.21433 0.065103707 0)
(150.15794 0.044966383 0)
(150.10877 0.026585099 0)
(150.06583 0.010590118 0)
(150.03016 -0.00051094813 0)
(150.00727 -0.0033239282 0)
(153.25168 -0.17444747 0)
(153.2671 -0.17553971 0)
(153.27825 -0.17709232 0)
(153.28917 -0.17874144 0)
(153.29994 -0.18036899 0)
(153.3108 -0.18198455 0)
(153.32187 -0.18363378 0)
(153.33327 -0.18536442 0)
(153.34508 -0.18721653 0)
(153.35736 -0.18922157 0)
(153.37017 -0.19140412 0)
(153.38357 -0.19378371 0)
(153.39762 -0.19637654 0)
(153.41239 -0.19919649 0)
(153.42794 -0.20225607 0)
(153.44432 -0.2055668 0)
(153.46162 -0.2091397 0)
(153.4799 -0.21298538 0)
(153.49924 -0.21711428 0)
(153.51971 -0.22153661 0)
(153.54139 -0.22626252 0)
(153.56436 -0.23130186 0)
(153.58871 -0.23666432 0)
(153.61452 -0.24235915 0)
(153.64188 -0.24839519 0)
(153.6709 -0.25478058 0)
(153.70165 -0.26152271 0)
(153.73424 -0.26862785 0)
(153.76877 -0.2761011 0)
(153.80534 -0.28394588 0)
(153.84405 -0.29216386 0)
(153.88501 -0.30075437 0)
(153.9283 -0.30971426 0)
(153.97405 -0.31903734 0)
(154.02235 -0.32871381 0)
(154.0733 -0.33873004 0)
(154.12699 -0.34906772 0)
(154.18352 -0.35970355 0)
(154.24297 -0.37060834 0)
(154.30542 -0.3817467 0)
(154.37094 -0.39307597 0)
(154.43959 -0.40454593 0)
(154.5114 -0.41609773 0)
(154.58641 -0.42766347 0)
(154.66464 -0.43916537 0)
(154.74605 -0.45051519 0)
(154.83063 -0.46161361 0)
(154.91831 -0.47234981 0)
(155.009 -0.48260102 0)
(155.10256 -0.49223236 0)
(155.19884 -0.50109677 0)
(155.29763 -0.5090352 0)
(155.39868 -0.5158771 0)
(155.50168 -0.52144119 0)
(155.6063 -0.52553655 0)
(155.71211 -0.52796421 0)
(155.81867 -0.52851906 0)
(155.92544 -0.52699231 0)
(156.03186 -0.5231744 0)
(156.13726 -0.51685845 0)
(156.24095 -0.50784412 0)
(156.34217 -0.49594204 0)
(156.4401 -0.48097864 0)
(156.53387 -0.4628013 0)
(156.62256 -0.44128379 0)
(156.70522 -0.41633189 0)
(156.78087 -0.3878889 0)
(156.84851 -0.35594105 0)
(156.90714 -0.32052248 0)
(156.95577 -0.28171963 0)
(156.99342 -0.23967468 0)
(157.01918 -0.19458805 0)
(157.03219 -0.14671953 0)
(157.03165 -0.096388203 0)
(157.01688 -0.043970937 0)
(156.98731 0.010102989 0)
(156.94249 0.06535559 0)
(156.88211 0.12126897 0)
(156.80604 0.17729381 0)
(156.71428 0.23286218 0)
(156.60703 0.28739715 0)
(156.48463 0.34032559 0)
(156.34762 0.39109048 0)
(156.19668 0.43916347 0)
(156.03265 0.48405669 0)
(155.85651 0.52533302 0)
(155.66934 0.56261592 0)
(155.47234 0.59559762 0)
(155.2668 0.62404308 0)
(155.05403 0.64779143 0)
(154.8354 0.66675655 0)
(154.6123 0.68092536 0)
(154.38608 0.69035397 0)
(154.15807 0.69516199 0)
(153.92958 0.69552545 0)
(153.70181 0.69166877 0)
(153.47592 0.68385608 0)
(153.25297 0.67238237 0)
(153.03393 0.6575647 0)
(152.81968 0.63973385 0)
(152.61099 0.61922663 0)
(152.40855 0.59637896 0)
(152.21293 0.57151991 0)
(152.02464 0.54496656 0)
(151.84407 0.51702016 0)
(151.67155 0.48796369 0)
(151.50733 0.45805982 0)
(151.35158 0.42754938 0)
(151.20442 0.39665097 0)
(151.06593 0.36556166 0)
(150.93612 0.33445843 0)
(150.81496 0.30350045 0)
(150.7024 0.27283245 0)
(150.59835 0.242589 0)
(150.50271 0.21289885 0)
(150.41534 0.18389022 0)
(150.33608 0.15570544 0)
(150.26482 0.12853197 0)
(150.20149 0.1026155 0)
(150.14603 0.078186878 0)
(150.09807 0.055437611 0)
(150.05728 0.03500098 0)
(150.02521 0.018608047 0)
(150.00587 0.0076497062 0)
(153.26015 -0.18121254 0)
(153.27486 -0.18194259 0)
(153.28579 -0.18316789 0)
(153.29664 -0.18463797 0)
(153.30738 -0.18623176 0)
(153.31821 -0.18792388 0)
(153.32923 -0.18972966 0)
(153.34056 -0.19167722 0)
(153.35227 -0.19379556 0)
(153.36443 -0.19611054 0)
(153.37712 -0.19864431 0)
(153.39038 -0.20141579 0)
(153.40429 -0.20444153 0)
(153.4189 -0.20773635 0)
(153.43428 -0.21131398 0)
(153.45049 -0.21518737 0)
(153.46761 -0.21936911 0)
(153.4857 -0.22387143 0)
(153.50484 -0.22870647 0)
(153.52511 -0.23388618 0)
(153.54658 -0.23942244 0)
(153.56933 -0.24532687 0)
(153.59346 -0.25161091 0)
(153.61904 -0.2582855 0)
(153.64618 -0.26536118 0)
(153.67495 -0.27284762 0)
(153.70546 -0.2807537 0)
(153.73781 -0.28908697 0)
(153.77209 -0.29785364 0)
(153.8084 -0.30705801 0)
(153.84686 -0.31670233 0)
(153.88757 -0.32678616 0)
(153.93062 -0.33730613 0)
(153.97613 -0.34825538 0)
(154.0242 -0.35962283 0)
(154.07493 -0.37139295 0)
(154.12842 -0.3835447 0)
(154.18476 -0.39605126 0)
(154.24406 -0.40887888 0)
(154.30638 -0.42198654 0)
(154.3718 -0.4353247 0)
(154.44039 -0.44883493 0)
(154.51219 -0.46244861 0)
(154.58725 -0.47608648 0)
(154.66557 -0.4896576 0)
(154.74716 -0.50305865 0)
(154.83199 -0.51617318 0)
(154.92 -0.52887107 0)
(155.01111 -0.54100798 0)
(155.10521 -0.55242511 0)
(155.20213 -0.56294908 0)
(155.30168 -0.57239213 0)
(155.40362 -0.58055261 0)
(155.50764 -0.58721587 0)
(155.61342 -0.59215552 0)
(155.72055 -0.59513521 0)
(155.82857 -0.59591092 0)
(155.93696 -0.59423377 0)
(156.04514 -0.58985349 0)
(156.15246 -0.58252248 0)
(156.2582 -0.57200038 0)
(156.36161 -0.55805937 0)
(156.46184 -0.54048989 0)
(156.55802 -0.51910687 0)
(156.64919 -0.49375625 0)
(156.73439 -0.46432174 0)
(156.81261 -0.43073159 0)
(156.8828 -0.39296504 0)
(156.94394 -0.35105856 0)
(156.99499 -0.30511114 0)
(157.03495 -0.25528869 0)
(157.06284 -0.20182707 0)
(157.07775 -0.14503379 0)
(157.07887 -0.085288042 0)
(157.06547 -0.02303866 0)
(157.03692 0.041202245 0)
(156.99276 0.10686963 0)
(156.93266 0.17335083 0)
(156.85644 0.23998999 0)
(156.76412 0.30610621 0)
(156.65588 0.37100734 0)
(156.53208 0.43400517 0)
(156.39326 0.4944307 0)
(156.24014 0.55164923 0)
(156.07358 0.6050746 0)
(155.89461 0.65418193 0)
(155.70436 0.69851922 0)
(155.50408 0.73771651 0)
(155.29511 0.77149136 0)
(155.07881 0.79965152 0)
(154.85662 0.82209518 0)
(154.62997 0.83880861 0)
(154.40026 0.84986127 0)
(154.16888 0.85539879 0)
(153.93715 0.85563431 0)
(153.70632 0.85083862 0)
(153.47758 0.84132964 0)
(153.252 0.82746162 0)
(153.03057 0.80961456 0)
(152.81418 0.7881842 0)
(152.60359 0.76357264 0)
(152.3995 0.73618017 0)
(152.20247 0.70639798 0)
(152.01299 0.67460219 0)
(151.83144 0.6411492 0)
(151.65815 0.60637261 0)
(151.49334 0.57058085 0)
(151.33718 0.5340558 0)
(151.18977 0.49705267 0)
(151.05116 0.45980078 0)
(150.92136 0.42250537 0)
(150.80033 0.38535055 0)
(150.68801 0.34850312 0)
(150.58431 0.31211742 0)
(150.48912 0.27634033 0)
(150.40231 0.2413184 0)
(150.32374 0.20721295 0)
(150.25333 0.17422168 0)
(150.19102 0.1425749 0)
(150.13672 0.11248585 0)
(150.0902 0.084189542 0)
(150.05149 0.058257215 0)
(150.02213 0.035712487 0)
(150.00507 0.016868609 0)
(153.27427 -0.19006739 0)
(153.28843 -0.19064336 0)
(153.2991 -0.19170701 0)
(153.3098 -0.19309685 0)
(153.32045 -0.19471107 0)
(153.33118 -0.19651281 0)
(153.34211 -0.19850079 0)
(153.35332 -0.20068973 0)
(153.36491 -0.20309984 0)
(153.37693 -0.20575194 0)
(153.38946 -0.20866568 0)
(153.40255 -0.21185912 0)
(153.41628 -0.21534893 0)
(153.43071 -0.21915072 0)
(153.44589 -0.22327938 0)
(153.4619 -0.2277493 0)
(153.4788 -0.23257465 0)
(153.49667 -0.23776942 0)
(153.51558 -0.24334758 0)
(153.53561 -0.24932296 0)
(153.55683 -0.25570943 0)
(153.57933 -0.26252057 0)
(153.60319 -0.26976985 0)
(153.62851 -0.27747021 0)
(153.65536 -0.28563415 0)
(153.68385 -0.29427326 0)
(153.71407 -0.30339825 0)
(153.74612 -0.31301838 0)
(153.7801 -0.32314141 0)
(153.81612 -0.33377293 0)
(153.85428 -0.34491631 0)
(153.89468 -0.3565718 0)
(153.93744 -0.36873642 0)
(153.98266 -0.38140318 0)
(154.03045 -0.39456034 0)
(154.08092 -0.40819106 0)
(154.13416 -0.42227226 0)
(154.19028 -0.43677422 0)
(154.24938 -0.45165932 0)
(154.31153 -0.46688158 0)
(154.37683 -0.48238526 0)
(154.44534 -0.49810435 0)
(154.51711 -0.51396114 0)
(154.5922 -0.52986559 0)
(154.67063 -0.54571413 0)
(154.75241 -0.56138883 0)
(154.83751 -0.57675651 0)
(154.9259 -0.59166798 0)
(155.01749 -0.60595749 0)
(155.11219 -0.61944226 0)
(155.20985 -0.63192237 0)
(155.31027 -0.64318086 0)
(155.41323 -0.65298429 0)
(155.51845 -0.66108361 0)
(155.62558 -0.66721563 0)
(155.73423 -0.67110495 0)
(155.84396 -0.67246656 0)
(155.95423 -0.67100905 0)
(156.06448 -0.6664386 0)
(156.17404 -0.65846357 0)
(156.2822 -0.64679992 0)
(156.38818 -0.63117731 0)
(156.49113 -0.61134577 0)
(156.59015 -0.58708308 0)
(156.68426 -0.55820241 0)
(156.77247 -0.52456035 0)
(156.85373 -0.48606498 0)
(156.92696 -0.44268362 0)
(156.99109 -0.39445031 0)
(157.04504 -0.34147229 0)
(157.08774 -0.28393538 0)
(157.11818 -0.22210789 0)
(157.1354 -0.15634291 0)
(157.13853 -0.087078575 0)
(157.12677 -0.014835621 0)
(157.09949 0.059790469 0)
(157.05616 0.13612879 0)
(156.99641 0.21345456 0)
(156.92007 0.29099769 0)
(156.82712 0.36795735 0)
(156.71775 0.44351853 0)
(156.59232 0.51687028 0)
(156.4514 0.587224 0)
(156.29573 0.65383171 0)
(156.12622 0.7160032 0)
(155.94394 0.77312154 0)
(155.75008 0.82465657 0)
(155.54595 0.87017533 0)
(155.33295 0.90934887 0)
(155.11253 0.94195559 0)
(154.88617 0.96788133 0)
(154.65537 0.98711627 0)
(154.42159 0.99974883 0)
(154.18627 1.0059571 0)
(153.95078 1.0059984 0)
(153.7164 1.0001972 0)
(153.48436 0.98893275 0)
(153.25574 0.97262595 0)
(153.03156 0.95172685 0)
(152.8127 0.92670275 0)
(152.59994 0.89802718 0)
(152.39396 0.86617028 0)
(152.19532 0.83159035 0)
(152.00449 0.79472697 0)
(151.82185 0.75599557 0)
(151.64769 0.71578359 0)
(151.48222 0.67444779 0)
(151.3256 0.63231269 0)
(151.17789 0.58967029 0)
(151.03914 0.54678089 0)
(150.90934 0.50387477 0)
(150.78843 0.46115518 0)
(150.67633 0.41880204 0)
(150.57296 0.37697645 0)
(150.47818 0.33582572 0)
(150.39189 0.29549091 0)
(150.31396 0.25611997 0)
(150.2443 0.21788094 0)
(150.18289 0.18095422 0)
(150.12965 0.14551135 0)
(150.08444 0.11177611 0)
(150.04748 0.080192273 0)
(150.02012 0.051315267 0)
(150.00456 0.025020568 0)
(153.29389 -0.1961568 0)
(153.30755 -0.19663377 0)
(153.31795 -0.19758457 0)
(153.32845 -0.19891022 0)
(153.33894 -0.20053211 0)
(153.34954 -0.20241349 0)
(153.36033 -0.2045453 0)
(153.37139 -0.20693394 0)
(153.38282 -0.20959327 0)
(153.39467 -0.21253994 0)
(153.40701 -0.21579129 0)
(153.41992 -0.21936437 0)
(153.43344 -0.22327581 0)
(153.44764 -0.22754171 0)
(153.4626 -0.23217792 0)
(153.47837 -0.23720005 0)
(153.49503 -0.24262369 0)
(153.51265 -0.24846441 0)
(153.53129 -0.25473786 0)
(153.55105 -0.26145965 0)
(153.57199 -0.26864548 0)
(153.59419 -0.27631081 0)
(153.61775 -0.28447101 0)
(153.64276 -0.29314093 0)
(153.66929 -0.30233495 0)
(153.69745 -0.3120665 0)
(153.72734 -0.32234808 0)
(153.75905 -0.33319056 0)
(153.79269 -0.34460325 0)
(153.82836 -0.35659304 0)
(153.86617 -0.36916436 0)
(153.90623 -0.38231825 0)
(153.94864 -0.3960521 0)
(153.99353 -0.41035891 0)
(154.04099 -0.42522637 0)
(154.09115 -0.44063649 0)
(154.1441 -0.45656428 0)
(154.19995 -0.47297737 0)
(154.2588 -0.48983448 0)
(154.32076 -0.50708495 0)
(154.38589 -0.52466712 0)
(154.4543 -0.54250778 0)
(154.52603 -0.56052043 0)
(154.60114 -0.57860464 0)
(154.67967 -0.59664462 0)
(154.76163 -0.61450821 0)
(154.84702 -0.63204585 0)
(154.93581 -0.64908969 0)
(155.02793 -0.66545286 0)
(155.12329 -0.68092889 0)
(155.22176 -0.69529148 0)
(155.32315 -0.70829462 0)
(155.42726 -0.71967302 0)
(155.5338 -0.7291431 0)
(155.64245 -0.73640454 0)
(155.75282 -0.74114241 0)
(155.86447 -0.74303002 0)
(155.97688 -0.74173255 0)
(156.08946 -0.73691149 0)
(156.20157 -0.72822989 0)
(156.31248 -0.71535852 0)
(156.4214 -0.69798282 0)
(156.52745 -0.67581064 0)
(156.62971 -0.64858068 0)
(156.7272 -0.61607145 0)
(156.81886 -0.57811062 0)
(156.90361 -0.5345844 0)
(156.98035 -0.4854468 0)
(157.04792 -0.43072842 0)
(157.10521 -0.37054423 0)
(157.1511 -0.30510011 0)
(157.1845 -0.23469763 0)
(157.20439 -0.15973707 0)
(157.20984 -0.080718049 0)
(157.20002 0.0017633411 0)
(157.17421 0.087023295 0)
(157.13184 0.17430106 0)
(157.07253 0.26276068 0)
(156.99605 0.35151197 0)
(156.90238 0.4396273 0)
(156.7917 0.52616131 0)
(156.66438 0.6101723 0)
(156.52102 0.69074398 0)
(156.36238 0.76700703 0)
(156.18943 0.83815953 0)
(156.00329 0.90348543 0)
(155.80522 0.96237032 0)
(155.59661 1.0143136 0)
(155.37893 1.0589366 0)
(155.1537 1.0959865 0)
(154.92249 1.1253363 0)
(154.68687 1.1469807 0)
(154.44836 1.161029 0)
(154.20847 1.1676943 0)
(153.96862 1.1672813 0)
(153.73014 1.1601722 0)
(153.49428 1.1468111 0)
(153.26216 1.1276898 0)
(153.03481 1.103332 0)
(152.81312 1.0742802 0)
(152.59787 1.0410825 0)
(152.38974 1.0042818 0)
(152.18927 0.96440575 0)
(151.99692 0.92195956 0)
(151.81306 0.87741938 0)
(151.63794 0.83122827 0)
(151.47176 0.78379318 0)
(151.31465 0.73548344 0)
(151.16666 0.68663057 0)
(151.0278 0.63752924 0)
(150.89805 0.58843919 0)
(150.77733 0.53958832 0)
(150.66556 0.4911764 0)
(150.56261 0.44337943 0)
(150.46837 0.39635448 0)
(150.3827 0.35024667 0)
(150.3055 0.30519882 0)
(150.23668 0.26135764 0)
(150.17621 0.21886534 0)
(150.12402 0.1778542 0)
(150.08006 0.13849806 0)
(150.04457 0.10108096 0)
(150.01873 0.06584104 0)
(150.00422 0.032479313 0)
(153.31823 -0.20432521 0)
(153.33147 -0.20477219 0)
(153.3416 -0.20568813 0)
(153.35187 -0.20701354 0)
(153.36216 -0.20868994 0)
(153.37258 -0.21068532 0)
(153.38319 -0.2129882 0)
(153.39407 -0.2156005 0)
(153.4053 -0.21853193 0)
(153.41695 -0.22179615 0)
(153.42908 -0.22540874 0)
(153.44176 -0.22938599 0)
(153.45505 -0.23374451 0)
(153.46901 -0.23850098 0)
(153.48371 -0.24367221 0)
(153.49922 -0.24927506 0)
(153.5156 -0.25532665 0)
(153.53292 -0.26184417 0)
(153.55127 -0.26884509 0)
(153.57071 -0.27634692 0)